Gromacs Runs On Most of All Computer Systems in water
11764
    1DMSO    SD    1   3.479   0.273   4.661 -0.2890  0.0403  0.2840
    1DMSO   CD1    2   3.338   0.181   4.730 -0.2004  0.2570 -0.4449
    1DMSO    OD    3   3.599   0.180   4.660 -0.4065  0.2925  0.0692
    1DMSO   CD2    4   3.416   0.283   4.493 -0.6492 -0.3599 -0.4345
    2DMSO    SD    5   0.716   2.180   4.569  0.5616  0.1176  0.1912
    2DMSO   CD1    6   0.875   2.117   4.507  0.0315  0.4371 -0.2147
    2DMSO    OD    7   0.717   2.327   4.534  0.4846 -0.0276 -0.0289
    2DMSO   CD2    8   0.613   2.096   4.447 -0.2034 -0.6409  0.0256
    3DMSO    SD    9   3.440   2.005   4.830  0.0444  0.0635 -0.0036
    3DMSO   CD1   10   3.482   2.133   4.949 -0.4238  0.0253 -0.5531
    3DMSO    OD   11   3.567   1.937   4.796 -0.5115 -0.0752  0.2121
    3DMSO   CD2   12   3.335   1.910   4.937 -0.1437 -0.1255  0.5706
    4DMSO    SD   13   0.016   3.202   4.335  0.1157  0.0869 -0.1186
    4DMSO   CD1   14  -0.019   3.215   4.159  0.0244 -0.2330  0.1240
    4DMSO    OD   15   0.135   3.296   4.356 -0.0829 -0.1068  0.2074
    4DMSO   CD2   16  -0.131   3.290   4.393  0.6770 -0.2697  0.0194
    5DMSO    SD   17   1.772   2.234   4.992 -0.1714 -0.5314 -0.2538
    5DMSO   CD1   18   1.693   2.077   5.026 -0.1006  0.2841 -0.5566
    5DMSO    OD   19   1.752   2.266   4.845  0.0494 -0.3538 -0.1757
    5DMSO   CD2   20   1.660   2.335   5.090  0.2535  0.1349  0.1847
    6DMSO    SD   21   4.088   1.844   4.584  0.1260 -0.0228 -0.4675
    6DMSO   CD1   22   3.953   1.874   4.694 -0.0187  0.6089 -0.1066
    6DMSO    OD   23   4.044   1.774   4.455 -0.2474  0.2984 -0.6223
    6DMSO   CD2   24   4.117   2.019   4.536 -0.3953  0.3242 -0.7945
    7DMSO    SD   25   4.068   2.406   4.594 -0.2267  0.1058  0.0629
    7DMSO   CD1   26   4.137   2.507   4.725  0.1109 -0.0617  0.0496
    7DMSO    OD   27   3.997   2.498   4.489 -0.1859 -0.5371 -0.3779
    7DMSO   CD2   28   4.226   2.361   4.512  0.2106 -0.3250 -0.0035
    8DMSO    SD   29   0.390   3.601   4.679 -0.4127 -0.0406  0.1509
    8DMSO   CD1   30   0.269   3.479   4.639  0.2248  0.5467  0.3948
    8DMSO    OD   31   0.319   3.717   4.753 -0.2496  0.7009 -0.0545
    8DMSO   CD2   32   0.487   3.510   4.799 -0.7995 -0.6155 -0.0356
    9DMSO    SD   33   1.588   0.048   4.827  0.0739  0.3277 -0.3711
    9DMSO   CD1   34   1.656  -0.071   4.942  0.2537 -0.0280 -0.0992
    9DMSO    OD   35   1.437   0.040   4.828 -0.0639  0.0004  0.0915
    9DMSO   CD2   36   1.638   0.194   4.917 -0.0217 -0.2275  0.1623
   10DMSO    SD   37   2.117   1.939   5.045 -0.1299 -0.3603 -0.4063
   10DMSO   CD1   38   2.273   1.947   5.141  0.1204  0.9032  0.4318
   10DMSO    OD   39   2.101   2.078   4.979 -0.2777 -0.3847 -0.2386
   10DMSO   CD2   40   2.173   1.828   4.917 -0.4829  0.0129  0.2053
   11DMSO    SD   41   0.801   2.383   4.867  0.2587  0.2583  0.4359
   11DMSO   CD1   42   0.816   2.467   5.026 -0.1048  0.1866 -0.0922
   11DMSO    OD   43   0.824   2.235   4.883  0.2502 -0.2657  0.5958
   11DMSO   CD2   44   0.626   2.413   4.846 -0.1826  0.8167  0.1346
   12DMSO    SD   45   4.294   0.632   4.920 -0.0215 -0.2003 -0.2746
   12DMSO   CD1   46   4.146   0.534   4.935  0.0145 -0.0999  0.2949
   12DMSO    OD   47   4.416   0.540   4.891  0.0353 -0.2246 -0.0219
   12DMSO   CD2   48   4.252   0.715   4.766  0.1787  0.0977  0.4067
   13DMSO    SD   49   1.403   4.247   4.883 -0.1055  0.0276  0.1032
   13DMSO   CD1   50   1.296   4.390   4.847 -0.2498 -0.1168 -0.1731
   13DMSO    OD   51   1.543   4.312   4.900  0.0504 -0.2834 -0.7228
   13DMSO   CD2   52   1.339   4.215   5.046 -0.1513  0.2720  0.4967
   14DMSO    SD   53   1.019   4.635   4.745 -0.0924 -0.1128 -0.3229
   14DMSO   CD1   54   0.843   4.644   4.753  0.4023 -0.4141  0.4945
   14DMSO    OD   55   1.056   4.547   4.623  0.2806  0.4762  0.2064
   14DMSO   CD2   56   1.050   4.806   4.696  0.0039 -0.0120 -0.6299
   15DMSO    SD   57   3.268   1.068   4.835  0.1470  0.4537 -0.0855
   15DMSO   CD1   58   3.156   1.004   4.963  0.3644 -0.0905 -0.1714
   15DMSO    OD   59   3.405   1.084   4.911  0.1524  0.4686  0.1830
   15DMSO   CD2   60   3.281   0.917   4.739  0.1981  0.1709  0.8516
   16DMSO    SD   61   1.298   1.324   4.916 -0.4274 -0.1822  0.2303
   16DMSO   CD1   62   1.194   1.184   4.965 -0.1104 -0.0891 -0.1563
   16DMSO    OD   63   1.372   1.282   4.793  0.0250  0.0457  0.1177
   16DMSO   CD2   64   1.168   1.439   4.872 -0.5169 -0.2791 -0.2626
   17DMSO    SD   65   2.267   4.295   4.781  0.0827  0.0384  0.1796
   17DMSO   CD1   66   2.210   4.267   4.953  0.1569  0.1261 -0.5949
   17DMSO    OD   67   2.176   4.408   4.729  0.2052  0.0131 -0.1238
   17DMSO   CD2   68   2.420   4.378   4.828  0.5884  0.3410  0.8048
   18DMSO    SD   69   4.087   0.060   4.590  0.2125  0.0870 -0.3158
   18DMSO   CD1   70   4.074  -0.075   4.472  0.7665 -0.6743 -0.0736
   18DMSO    OD   71   4.228   0.115   4.593  0.0840 -0.0723  0.8922
   18DMSO   CD2   72   3.987   0.181   4.509  0.2055  0.1520 -0.2748
   19DMSO    SD   73   4.424   1.720   4.578 -0.2527  0.0726  0.0249
   19DMSO   CD1   74   4.424   1.591   4.452 -0.1407 -0.4454  0.1173
   19DMSO    OD   75   4.335   1.672   4.696 -0.3648  0.1597 -0.3125
   19DMSO   CD2   76   4.594   1.705   4.627 -0.2819 -0.2824 -0.3462
   20DMSO    SD   77   3.103   2.021   4.612 -0.1487 -0.2870  0.0795
   20DMSO   CD1   78   3.004   1.916   4.508 -0.0062 -0.1471 -0.2717
   20DMSO    OD   79   3.249   1.983   4.588 -0.5972 -0.3377 -0.4459
   20DMSO   CD2   80   3.077   2.179   4.536 -0.0454 -0.3636  0.2720
   21DMSO    SD   81   3.954   0.967   4.994 -0.1536 -0.8679  0.3651
   21DMSO   CD1   82   4.061   1.046   4.872 -0.3300 -0.0162  0.5361
   21DMSO    OD   83   3.948   0.819   4.964 -0.0348  0.0935 -0.2506
   21DMSO   CD2   84   4.067   0.982   5.134  0.1216  0.2988 -0.2961
   22DMSO    SD   85   2.382   1.498   5.073 -0.1646  0.1958  0.1835
   22DMSO   CD1   86   2.263   1.493   4.936 -0.1986 -0.4089  0.4153
   22DMSO    OD   87   2.437   1.639   5.079 -0.1616  0.8124  0.1035
   22DMSO   CD2   88   2.267   1.482   5.210  0.5920 -0.2649  0.0568
   23DMSO    SD   89   0.266   1.877   4.944  0.0865  0.3864  0.0908
   23DMSO   CD1   90   0.393   1.782   4.853  0.2306 -0.4149  0.4848
   23DMSO    OD   91   0.149   1.783   4.964 -0.4864 -0.3161  0.0900
   23DMSO   CD2   92   0.358   1.891   5.097 -0.1550 -0.0883  0.8043
   24DMSO    SD   93   3.847   3.558   4.625  0.3425 -0.0699  0.1801
   24DMSO   CD1   94   3.823   3.455   4.766 -0.1677 -0.3183  0.0347
   24DMSO    OD   95   3.923   3.478   4.516 -0.0656 -0.2200 -0.0337
   24DMSO   CD2   96   3.678   3.571   4.566  0.2914 -0.1795  0.2412
   25DMSO    SD   97   2.338   3.840   4.896  0.2409 -0.1089 -0.2299
   25DMSO   CD1   98   2.372   3.721   5.021 -0.0839  0.4556 -0.0463
   25DMSO    OD   99   2.196   3.893   4.906  0.1476  0.0923 -0.5934
   25DMSO   CD2  100   2.451   3.968   4.944 -0.1741  0.5609 -0.5109
   26DMSO    SD  101   1.912   4.241   4.621 -0.2039 -0.0639  0.2063
   26DMSO   CD1  102   2.019   4.158   4.512 -0.0988  0.1010  0.1203
   26DMSO    OD  103   1.768   4.207   4.578 -0.2107 -0.0613 -0.1226
   26DMSO   CD2  104   1.940   4.135   4.765 -0.8696  0.3457  0.3064
   27DMSO    SD  105   4.100   4.131   4.447 -0.0273 -0.5962 -0.3085
   27DMSO   CD1  106   4.031   4.208   4.593 -0.5988 -0.1135  0.0910
   27DMSO    OD  107   4.251   4.140   4.451  0.4581  0.3038 -0.4102
   27DMSO   CD2  108   4.052   3.963   4.495  0.2836 -0.4062 -0.1137
   28DMSO    SD  109   2.342   2.706   4.592 -0.0121  0.2346 -0.2319
   28DMSO   CD1  110   2.178   2.724   4.527 -0.0785  0.2956  0.3705
   28DMSO    OD  111   2.440   2.744   4.478  0.2515  0.0031  0.2135
   28DMSO   CD2  112   2.340   2.853   4.697 -0.2445 -0.1714 -0.3301
   29DMSO    SD  113   3.491   0.015   5.020 -0.0589 -0.1911  0.0949
   29DMSO   CD1  114   3.535  -0.156   4.955  0.4420 -0.5503 -0.2027
   29DMSO    OD  115   3.332   0.004   5.026 -0.4348 -0.0498  0.2872
   29DMSO   CD2  116   3.541  -0.026   5.187 -0.2868 -0.1278 -0.1435
   30DMSO    SD  117   3.532   2.583   4.847  0.0500  0.0589  0.0804
   30DMSO   CD1  118   3.649   2.523   4.969 -0.1512  0.0473 -0.4786
   30DMSO    OD  119   3.394   2.533   4.886  0.2988 -0.4136 -0.1375
   30DMSO   CD2  120   3.538   2.757   4.886 -0.4875  0.5770 -0.2453
   31DMSO    SD  121   3.402   1.229   4.545 -0.4415 -0.0964  0.0642
   31DMSO   CD1  122   3.307   1.369   4.483 -0.6087  0.1997  0.0333
   31DMSO    OD  123   3.368   1.109   4.459 -0.3154  0.1698  0.2083
   31DMSO   CD2  124   3.565   1.287   4.503  0.7176  0.3970 -0.5415
   32DMSO    SD  125   4.163   1.760   4.974 -0.1662 -0.1344  0.2457
   32DMSO   CD1  126   4.233   1.590   4.991  0.8473  0.1947 -0.5689
   32DMSO    OD  127   4.091   1.796   5.103  0.1474  0.5827 -0.2584
   32DMSO   CD2  128   4.319   1.849   4.980 -0.1169  0.4388  0.0965
   33DMSO    SD  129   2.795   1.569   4.949 -0.0752  0.0588  0.0120
   33DMSO   CD1  130   2.852   1.404   4.989  0.2737 -0.1105 -0.2701
   33DMSO    OD  131   2.900   1.640   4.867  0.6878  0.0632 -0.7452
   33DMSO   CD2  132   2.659   1.526   4.842 -0.2053  0.3797 -0.5983
   34DMSO    SD  133   1.468   3.854   4.896 -0.0029 -0.1083  0.3084
   34DMSO   CD1  134   1.570   3.801   5.031 -0.0665  0.2304 -0.2129
   34DMSO    OD  135   1.538   3.789   4.768 -0.4072  0.2017 -0.3896
   34DMSO   CD2  136   1.324   3.754   4.924 -0.7556 -0.1882 -0.2316
   35DMSO    SD  137   1.377   3.348   4.930 -0.0539 -0.1318  0.3286
   35DMSO   CD1  138   1.283   3.329   5.080  0.1720  0.6424  0.2622
   35DMSO    OD  139   1.492   3.445   4.957  0.0758 -0.0685 -0.0876
   35DMSO   CD2  140   1.443   3.178   4.921 -0.8187  0.0682  0.1867
   36DMSO    SD  141   0.239   0.711   4.577 -0.1142  0.5107 -0.2780
   36DMSO   CD1  142   0.188   0.678   4.745 -0.1455 -0.1331 -0.2117
   36DMSO    OD  143   0.373   0.647   4.553 -0.2063  0.5198  0.1033
   36DMSO   CD2  144   0.116   0.621   4.484  0.0900 -0.1612 -0.1793
   37DMSO    SD  145   4.274   4.024   4.936  0.0086 -0.2587  0.1173
   37DMSO   CD1  146   4.328   3.984   4.768  0.1101  0.0923 -0.1741
   37DMSO    OD  147   4.126   4.072   4.924  0.1095 -0.0571  0.1309
   37DMSO   CD2  148   4.269   3.860   4.998  0.2030 -0.0202  0.2912
   38DMSO    SD  149   3.063   0.509   4.813  0.1775 -0.0463 -0.1081
   38DMSO   CD1  150   3.165   0.603   4.917  0.5354  0.2683 -0.5742
   38DMSO    OD  151   3.142   0.438   4.705 -0.1557  0.3180 -0.0497
   38DMSO   CD2  152   3.011   0.383   4.930  0.2225  0.0285 -1.1270
   39DMSO    SD  153   3.316   3.499   4.800 -0.2261 -0.0003 -0.0799
   39DMSO   CD1  154   3.398   3.351   4.864  0.2144 -0.1271 -0.3935
   39DMSO    OD  155   3.423   3.609   4.786  0.0274 -0.0790  0.0310
   39DMSO   CD2  156   3.290   3.438   4.632 -0.2654  0.0246  0.7234
   40DMSO    SD  157   2.798   2.029   4.985  0.2020 -0.1441  0.0273
   40DMSO   CD1  158   2.755   2.004   5.158  0.8319 -0.1618 -0.2829
   40DMSO    OD  159   2.846   2.178   4.971  0.0806  0.1632  0.1878
   40DMSO   CD2  160   2.949   1.930   4.982 -0.0893 -0.0024  0.0484
   41DMSO    SD  161   2.583   0.154   4.923  0.3490 -0.1323 -0.3552
   41DMSO   CD1  162   2.601   0.100   5.093  0.0799 -0.8224  0.3506
   41DMSO    OD  163   2.484   0.068   4.849  0.3432  0.7098 -0.0448
   41DMSO   CD2  164   2.507   0.315   4.949 -0.5721 -0.7580 -0.0101
   42DMSO    SD  165   4.332   2.841   4.482  0.0792  0.0818 -0.0291
   42DMSO   CD1  166   4.325   2.988   4.584 -0.6052 -0.6780  0.5031
   42DMSO    OD  167   4.400   2.737   4.569 -0.5167 -0.4339 -0.2898
   42DMSO   CD2  168   4.154   2.806   4.483  0.4854 -0.2292  0.2054
   43DMSO    SD  169   1.924   3.685   4.632 -0.4080  0.1992  0.1542
   43DMSO   CD1  170   2.050   3.773   4.542 -0.4450 -0.6469  0.7154
   43DMSO    OD  171   1.834   3.790   4.699 -0.2680 -0.4350  0.3910
   43DMSO   CD2  172   1.831   3.627   4.493  0.1955 -0.1835 -0.8307
   44DMSO    SD  173   1.172   1.862   4.765  0.1838  0.1981  0.0967
   44DMSO   CD1  174   1.086   1.958   4.892 -0.8355 -0.5507  0.1749
   44DMSO    OD  175   1.112   1.723   4.767 -0.7465 -0.6153  0.6476
   44DMSO   CD2  176   1.110   1.952   4.623 -0.2970  0.0634  0.0441
   45DMSO    SD  177   2.993   3.267   5.050  0.0889 -0.1344 -0.1370
   45DMSO   CD1  178   2.828   3.222   4.987 -0.0826  0.0544  0.2032
   45DMSO    OD  179   3.095   3.203   4.954 -1.2934 -0.6345  0.6587
   45DMSO   CD2  180   2.990   3.444   5.010 -0.1094  0.6390  0.2515
   46DMSO    SD  181   4.195   4.440   4.913 -0.1748 -0.2681 -0.1362
   46DMSO   CD1  182   4.198   4.422   5.094 -0.3886  0.1791  0.0769
   46DMSO    OD  183   4.048   4.429   4.868 -0.3992  0.2876  0.1000
   46DMSO   CD2  184   4.238   4.618   4.913  0.1876 -0.7320 -0.8489
   47DMSO    SD  185   0.310   2.917   4.661  0.2504  0.0905 -0.1024
   47DMSO   CD1  186   0.247   2.817   4.529 -0.0023 -0.1488  0.4998
   47DMSO    OD  187   0.459   2.882   4.678 -0.5372 -0.1748  0.2706
   47DMSO   CD2  188   0.294   3.074   4.580 -0.5528  0.0063  0.2882
   48DMSO    SD  189   2.142   0.647   4.966  0.1209  0.2474  0.1395
   48DMSO   CD1  190   2.179   0.599   4.795  0.1696 -0.1256 -0.1897
   48DMSO    OD  191   2.242   0.761   4.997 -0.0807 -0.0749  0.0464
   48DMSO   CD2  192   1.987   0.734   4.931  0.1509 -0.4042  0.0284
   49DMSO    SD  193   3.059   3.855   4.973 -0.2348  0.0704 -0.2386
   49DMSO   CD1  194   2.982   4.019   4.955 -0.0919  0.0368 -0.3243
   49DMSO    OD  195   3.026   3.781   4.843  0.3160  0.1532  0.0593
   49DMSO   CD2  196   3.229   3.914   4.957  0.0696 -0.3263  0.0778
   50DMSO    SD  197   0.752   0.818   4.834  0.2076 -0.0141 -0.1722
   50DMSO   CD1  198   0.775   0.679   4.950  0.3317  0.0923  0.2759
   50DMSO    OD  199   0.663   0.918   4.912 -0.1823 -0.2432 -0.1217
   50DMSO   CD2  200   0.920   0.877   4.841  0.2660  0.0106  0.3473
   51DMSO    SD  201   1.462   1.688   4.592  0.2660  0.1845 -0.0388
   51DMSO   CD1  202   1.631   1.652   4.538 -0.3250  0.5774  0.1740
   51DMSO    OD  203   1.389   1.741   4.463 -0.6831  0.1007 -0.0150
   51DMSO   CD2  204   1.406   1.518   4.613 -0.2497 -0.1993 -0.1813
   52DMSO    SD  205   0.928   3.430   4.789  0.3200 -0.0779  0.1564
   52DMSO   CD1  206   1.083   3.515   4.755  0.2209 -0.5268  0.2553
   52DMSO    OD  207   0.950   3.341   4.908  0.3603  0.2223  0.0423
   52DMSO   CD2  208   0.834   3.575   4.848 -0.5622 -0.0634 -0.0850
   53DMSO    SD  209   3.435   1.434   4.874  0.1320 -0.0137  0.3041
   53DMSO   CD1  210   3.504   1.397   5.034 -0.3010  0.2429 -0.5284
   53DMSO    OD  211   3.311   1.521   4.894  0.0624  0.6880  0.5554
   53DMSO   CD2  212   3.565   1.551   4.827  0.6888 -0.3561 -0.1637
   54DMSO    SD  213   0.432   1.588   4.413  0.0286  0.1142  0.4416
   54DMSO   CD1  214   0.588   1.500   4.397 -0.0571 -0.2905  0.5112
   54DMSO    OD  215   0.442   1.686   4.525 -0.0928  0.1629  0.0174
   54DMSO   CD2  216   0.428   1.664   4.253  0.1128  0.5684  0.0239
   55DMSO    SD  217   4.435   2.100   4.781 -0.3350 -0.1441  0.0929
   55DMSO   CD1  218   4.507   2.262   4.821  0.5588 -0.1514  0.3352
   55DMSO    OD  219   4.285   2.117   4.777 -0.0567  0.4877 -0.0629
   55DMSO   CD2  220   4.492   2.105   4.607 -0.5649 -0.1237 -0.4220
   56DMSO    SD  221   3.607   0.747   4.912 -0.5122  0.0752  0.2635
   56DMSO   CD1  222   3.661   0.591   4.983 -0.0056 -0.2547 -0.4287
   56DMSO    OD  223   3.465   0.715   4.851  0.3080  0.6511  0.1992
   56DMSO   CD2  224   3.567   0.829   5.069  0.0686 -0.5198  0.0079
   57DMSO    SD  225   0.789   1.225   5.020 -0.1192  0.2177  0.1736
   57DMSO   CD1  226   0.612   1.258   5.018  0.1801  0.3617  0.4145
   57DMSO    OD  227   0.858   1.347   5.080 -0.0349  0.2407 -0.0645
   57DMSO   CD2  228   0.790   1.097   5.147 -0.0237 -0.2623  0.1690
   58DMSO    SD  229   2.146   2.417   4.956  0.1069 -0.5565  0.0891
   58DMSO   CD1  230   2.244   2.568   4.975  0.1437 -0.4810 -0.0619
   58DMSO    OD  231   2.022   2.452   4.876 -0.2963  0.1635 -0.2308
   58DMSO   CD2  232   2.259   2.337   4.840 -0.0497 -0.4758 -0.2519
   59DMSO    SD  233   4.284   3.633   4.627  0.4330 -0.5863  0.1454
   59DMSO   CD1  234   4.211   3.633   4.462 -0.1905  0.3065 -0.3702
   59DMSO    OD  235   4.191   3.716   4.716  0.1393 -0.2363 -0.2887
   59DMSO   CD2  236   4.243   3.457   4.670  0.6207  0.1616  0.0566
   60DMSO    SD  237   1.230   2.273   4.908 -0.1360  0.0915 -0.0614
   60DMSO   CD1  238   1.170   2.302   4.742  0.1182  0.4247  0.2443
   60DMSO    OD  239   1.331   2.160   4.900 -0.4676 -0.5030 -0.6523
   60DMSO   CD2  240   1.323   2.427   4.925  0.5058  0.0865  0.8497
   61DMSO    SD  241   0.297   1.223   4.509  0.1263  0.0123 -0.3501
   61DMSO   CD1  242   0.216   1.063   4.489  0.1277 -0.5292 -0.2462
   61DMSO    OD  243   0.319   1.282   4.371  0.3712 -0.2298 -0.2872
   61DMSO   CD2  244   0.151   1.310   4.575 -0.2051  0.2337 -0.2561
   62SOL     OW  245   4.260   1.774   0.429  0.1261 -0.5428  0.1982
   62SOL    HW2  246   4.185   1.717   0.443 -0.6244  0.3783 -0.0523
   62SOL    HW3  247   4.229   1.861   0.452  0.9640 -0.0796 -0.4010
   62SOL    MW4  248   4.246   1.778   0.434  0.1376 -0.3602  0.0861
   63SOL     OW  249   0.469   2.333   0.541  0.2896 -0.1840 -0.3875
   63SOL    HW2  250   0.507   2.406   0.492 -0.6528 -0.3527 -1.3926
   63SOL    HW3  251   0.528   2.259   0.521 -0.3457 -0.3643 -1.6683
   63SOL    MW4  252   0.482   2.333   0.532  0.0814 -0.2301 -0.6891
   64SOL     OW  253   1.832   1.874   0.868  0.0050  0.3911  0.0246
   64SOL    HW2  254   1.838   1.779   0.855 -0.4782  0.4484 -0.6622
   64SOL    HW3  255   1.909   1.909   0.823  0.1697  0.3239  0.2563
   64SOL    MW4  256   1.843   1.866   0.860 -0.0370  0.3898 -0.0354
   65SOL     OW  257   3.156   0.884   0.744 -0.5235  0.3892 -0.3102
   65SOL    HW2  258   3.157   0.979   0.754  2.3396  0.2268  1.8663
   65SOL    HW3  259   3.088   0.853   0.804 -1.7208  1.0460 -1.3051
   65SOL    MW4  260   3.147   0.892   0.753 -0.3037  0.4544 -0.1543
   66SOL     OW  261   0.258   3.996   0.432 -0.3594 -0.1548  0.7011
   66SOL    HW2  262   0.283   3.931   0.367 -0.4645 -1.3095  1.7933
   66SOL    HW3  263   0.165   3.981   0.447 -0.1873 -0.3491  1.6055
   66SOL    MW4  264   0.249   3.985   0.426 -0.3506 -0.3328  0.9645
   67SOL     OW  265   0.254   0.046   0.801  0.5301 -0.0152  0.3054
   67SOL    HW2  266   0.166   0.077   0.782  0.6387  0.7400  1.0452
   67SOL    HW3  267   0.245  -0.050   0.805  0.0520 -0.0442 -1.1533
   67SOL    MW4  268   0.241   0.037   0.799  0.4814  0.0806  0.2106
   68SOL     OW  269   2.270   2.686   0.835 -0.0080  0.3109 -0.0951
   68SOL    HW2  270   2.345   2.742   0.814  0.0423  0.4443  0.4284
   68SOL    HW3  271   2.275   2.673   0.929 -0.4230 -0.0011 -0.1120
   68SOL    MW4  272   2.280   2.692   0.845 -0.0561  0.2873 -0.0282
   69SOL     OW  273   1.800   0.078   0.734  0.0779  0.1591 -0.0585
   69SOL    HW2  274   1.795   0.173   0.740  0.2561  0.2217 -0.8357
   69SOL    HW3  275   1.886   0.056   0.770  0.1873  0.3234 -0.2194
   69SOL    MW4  276   1.811   0.088   0.739  0.1158  0.1890 -0.1823
   70SOL     OW  277   2.256   0.334   0.842  0.3468  0.1306  0.6733
   70SOL    HW2  278   2.315   0.377   0.780 -0.9379  1.0799  0.0899
   70SOL    HW3  279   2.171   0.372   0.824 -0.3354 -0.7665  1.9489
   70SOL    MW4  280   2.253   0.345   0.831  0.0873  0.1375  0.7647
   71SOL     OW  281   1.360   4.260   0.231  0.2306  0.2196 -0.3335
   71SOL    HW2  282   1.324   4.173   0.212  0.8919  0.6185 -3.8223
   71SOL    HW3  283   1.433   4.243   0.291 -0.2984 -1.5419 -0.1578
   71SOL    MW4  284   1.365   4.246   0.236  0.2481  0.0398 -0.7706
   72SOL     OW  285   2.028   2.041   0.712 -0.2095 -0.0405  0.1406
   72SOL    HW2  286   2.017   2.132   0.741  2.0594  0.6389 -1.0042
   72SOL    HW3  287   2.005   2.043   0.619  0.9810 -0.3941 -0.1628
   72SOL    MW4  288   2.023   2.053   0.703  0.2469  0.0025 -0.0505
   73SOL     OW  289   1.981   0.259   0.166 -0.1714 -0.1014  0.0208
   73SOL    HW2  290   2.070   0.239   0.193 -0.3000  0.6427  1.0179
   73SOL    HW3  291   1.983   0.351   0.140 -0.4693 -0.3020 -0.7553
   73SOL    MW4  292   1.993   0.268   0.166 -0.2277 -0.0297  0.0500
   74SOL     OW  293   2.550   2.814   0.462 -0.1632 -0.3965  0.1980
   74SOL    HW2  294   2.470   2.768   0.438 -1.4594  2.1608 -0.6348
   74SOL    HW3  295   2.615   2.787   0.397 -0.7194 -1.4934  0.1010
   74SOL    MW4  296   2.548   2.805   0.450 -0.4076 -0.2038  0.0754
   75SOL     OW  297   2.124   3.432   0.334  0.1927 -0.6371 -0.2109
   75SOL    HW2  298   2.208   3.398   0.304  1.2523 -0.1233  2.1143
   75SOL    HW3  299   2.068   3.354   0.338  1.1304 -1.3093  0.1436
   75SOL    MW4  300   2.128   3.417   0.330  0.4562 -0.6580  0.1427
   76SOL     OW  301   2.203   0.209   0.333 -0.5920 -0.0931 -0.3539
   76SOL    HW2  302   2.284   0.161   0.348 -1.1674 -0.6212  1.1608
   76SOL    HW3  303   2.225   0.300   0.351 -0.7662 -0.4618  1.9215
   76SOL    MW4  304   2.217   0.214   0.337 -0.6909 -0.2114  0.1461
   77SOL     OW  305   2.803   0.365   0.337 -0.5935  0.1144  0.1556
   77SOL    HW2  306   2.761   0.281   0.356  0.3096 -0.6139 -0.9573
   77SOL    HW3  307   2.846   0.351   0.253 -0.4883  1.7280 -0.0669
   77SOL    MW4  308   2.803   0.352   0.329 -0.4605  0.2312 -0.0206
   78SOL     OW  309   3.391   0.792   0.860  0.1581  0.2178 -0.1090
   78SOL    HW2  310   3.316   0.833   0.817  0.1778  1.3883  0.9474
   78SOL    HW3  311   3.467   0.838   0.824  0.1450  1.5766  1.5390
   78SOL    MW4  312   3.391   0.803   0.850  0.1590  0.5515  0.2478
   79SOL     OW  313   0.045   1.726   0.343  0.4292 -0.6132  0.1222
   79SOL    HW2  314  -0.051   1.723   0.337  0.4133  0.3376 -0.1592
   79SOL    HW3  315   0.067   1.817   0.323  1.4226 -0.9207 -0.1788
   79SOL    MW4  316   0.035   1.738   0.340  0.5582 -0.5283  0.0453
   80SOL     OW  317   3.011   2.885   0.454 -0.0607  0.1682  0.2726
   80SOL    HW2  318   2.930   2.859   0.409 -0.5001 -0.7039  1.5555
   80SOL    HW3  319   2.989   2.884   0.547  1.5400 -0.4890  0.6638
   80SOL    MW4  320   2.997   2.882   0.460  0.0925 -0.0336  0.4935
   81SOL     OW  321   0.695   1.308   0.730 -0.2148 -0.1072 -0.2424
   81SOL    HW2  322   0.613   1.264   0.752  0.4215 -1.0609  0.2602
   81SOL    HW3  323   0.688   1.394   0.771 -0.1412 -0.9056  1.4587
   81SOL    MW4  324   0.683   1.313   0.738 -0.1212 -0.3383  0.0483
   82SOL     OW  325   4.272   0.426   0.454 -0.6665 -0.2017 -0.4028
   82SOL    HW2  326   4.268   0.482   0.533  1.4105 -2.5031  1.3981
   82SOL    HW3  327   4.224   0.347   0.479  2.1261 -1.9969 -0.5068
   82SOL    MW4  328   4.265   0.423   0.468 -0.0240 -0.7422 -0.1789
   83SOL     OW  329   4.469   0.059   0.500 -0.0846  0.5582 -0.0676
   83SOL    HW2  330   4.530  -0.014   0.485  0.4473  0.9996 -0.0879
   83SOL    HW3  331   4.476   0.113   0.421  0.3000  1.1749  0.3782
   83SOL    MW4  332   4.478   0.056   0.487  0.0363  0.6978 -0.0115
   84SOL     OW  333   2.716   0.753   0.483 -0.2318  0.6778 -0.1265
   84SOL    HW2  334   2.757   0.827   0.438 -2.6360  2.1794  0.0948
   84SOL    HW3  335   2.739   0.764   0.575 -0.1514  0.8506 -0.1681
   84SOL    MW4  336   2.724   0.764   0.489 -0.5384  0.8987 -0.1028
   85SOL     OW  337   1.533   3.341   0.285  0.2824  0.1519 -0.2416
   85SOL    HW2  338   1.569   3.252   0.277 -1.2909 -0.6897  1.4108
   85SOL    HW3  339   1.559   3.369   0.373  0.8773  1.3784 -0.8093
   85SOL    MW4  340   1.541   3.333   0.296  0.1533  0.2027 -0.0985
   86SOL     OW  341   1.133   3.064   0.823  0.1522  0.2732  0.1775
   86SOL    HW2  342   1.146   2.977   0.785 -1.1775  0.4861 -0.7736
   86SOL    HW3  343   1.196   3.120   0.778  0.8488 -0.1462  0.6252
   86SOL    MW4  344   1.143   3.060   0.812  0.0687  0.2459  0.1111
   87SOL     OW  345   2.748   3.965   0.465  0.1329  0.1512 -0.4602
   87SOL    HW2  346   2.831   3.933   0.428  0.0560 -0.5939  0.0019
   87SOL    HW3  347   2.681   3.923   0.410  0.0637  1.2233 -1.2135
   87SOL    MW4  348   2.750   3.955   0.453  0.1137  0.1943 -0.4987
   88SOL     OW  349   2.741   3.967   0.742  0.1106  0.0539  0.0102
   88SOL    HW2  350   2.819   3.919   0.770 -0.7883 -0.6432  1.4635
   88SOL    HW3  351   2.734   3.950   0.648  1.1545 -0.6896  0.0596
   88SOL    MW4  352   2.750   3.958   0.734  0.1297 -0.1362  0.2085
   89SOL     OW  353   4.177   4.352   0.470  0.4718 -0.1160  0.0695
   89SOL    HW2  354   4.225   4.372   0.550 -0.2184  0.2879  0.3883
   89SOL    HW3  355   4.159   4.438   0.431  0.0882 -0.2638 -0.0876
   89SOL    MW4  356   4.181   4.366   0.475  0.3301 -0.0822  0.0908
   90SOL     OW  357   2.412   0.057   0.428  0.1227 -0.6092  0.4223
   90SOL    HW2  358   2.407  -0.039   0.427  0.9184 -0.6523  0.4174
   90SOL    HW3  359   2.382   0.081   0.515 -1.1262 -0.8013  0.0538
   90SOL    MW4  360   2.408   0.047   0.439  0.0629 -0.6402  0.3730
   91SOL     OW  361   0.428   2.414   0.810  0.0092  0.7516 -0.2340
   91SOL    HW2  362   0.423   2.396   0.716  0.7100 -0.6818 -0.0073
   91SOL    HW3  363   0.355   2.365   0.848  1.3387 -0.9223  0.2655
   91SOL    MW4  364   0.418   2.405   0.803  0.2771  0.3416 -0.1382
   92SOL     OW  365   3.776   2.795   0.163  0.2600 -0.0142  0.0391
   92SOL    HW2  366   3.686   2.803   0.194  1.0757  0.2109  2.3946
   92SOL    HW3  367   3.801   2.883   0.137 -0.0326 -0.0019 -0.2121
   92SOL    MW4  368   3.767   2.807   0.163  0.3290  0.0171  0.3167
   93SOL     OW  369   0.249   1.300   0.738 -0.7139 -0.4805 -0.2598
   93SOL    HW2  370   0.256   1.316   0.644 -1.1535  0.9792 -0.0638
   93SOL    HW3  371   0.164   1.257   0.749 -0.3448 -1.3011 -0.6030
   93SOL    MW4  372   0.239   1.297   0.727 -0.7232 -0.3962 -0.2792
   94SOL     OW  373   0.434   3.995   0.666 -0.0221  0.1043 -0.2804
   94SOL    HW2  374   0.457   4.072   0.718  0.7961 -0.5102  0.2645
   94SOL    HW3  375   0.378   4.030   0.596 -0.3766  1.0645  0.4668
   94SOL    MW4  376   0.430   4.010   0.664  0.0391  0.1499 -0.1099
   95SOL     OW  377   2.458   3.062   0.400  0.4364 -0.4428  0.4330
   95SOL    HW2  378   2.363   3.051   0.393  0.3059  0.1687  1.1368
   95SOL    HW3  379   2.491   2.974   0.420 -0.1080 -0.4516  1.3559
   95SOL    MW4  380   2.450   3.049   0.402  0.3474 -0.3633  0.6476
   96SOL     OW  381   4.164   0.834   0.532  0.4318 -0.4500  0.2720
   96SOL    HW2  382   4.164   0.755   0.478  0.4420 -0.2349 -0.0405
   96SOL    HW3  383   4.241   0.883   0.502  0.0369 -0.0000  0.0035
   96SOL    MW4  384   4.174   0.830   0.521  0.3811 -0.3622  0.1954
   97SOL     OW  385   3.805   1.253   0.743 -0.3055  0.6679 -0.0648
   97SOL    HW2  386   3.878   1.216   0.792 -0.9568 -0.5314  0.0115
   97SOL    HW3  387   3.788   1.337   0.785  1.1547  1.0480 -0.2137
   97SOL    MW4  388   3.812   1.259   0.755 -0.1988  0.5598 -0.0744
   98SOL     OW  389   0.218   2.053   0.742  0.4527 -0.2767  0.4108
   98SOL    HW2  390   0.200   2.118   0.810  0.5717  0.2125 -0.0302
   98SOL    HW3  391   0.302   2.014   0.768  0.3299 -0.3330  0.7297
   98SOL    MW4  392   0.227   2.056   0.755  0.4522 -0.2196  0.3947
   99SOL     OW  393   0.023   1.166   0.816 -0.0352  0.6152 -0.1274
   99SOL    HW2  394  -0.049   1.217   0.779 -1.0912  0.0738  1.1415
   99SOL    HW3  395   0.015   1.179   0.911  0.9990 -0.1749  0.0781
   99SOL    MW4  396   0.012   1.174   0.824 -0.0381  0.4395  0.0671
  100SOL     OW  397   3.360   0.589   0.467 -0.5069  0.0127 -0.2959
  100SOL    HW2  398   3.355   0.570   0.561 -0.2675 -0.7667 -0.4422
  100SOL    HW3  399   3.281   0.642   0.449 -0.7105 -0.0939  0.2786
  100SOL    MW4  400   3.349   0.594   0.477 -0.5022 -0.1042 -0.2394
  101SOL     OW  401   2.085   4.650   0.449  0.6619  0.4411  0.3328
  101SOL    HW2  402   2.113   4.685   0.534 -0.7351  1.6188  0.3332
  101SOL    HW3  403   2.110   4.717   0.386  0.2707  0.2865  0.0092
  101SOL    MW4  404   2.092   4.663   0.452  0.4260  0.5760  0.2902
  102SOL     OW  405   0.370   0.019   0.434 -0.1927  0.1299 -0.1387
  102SOL    HW2  406   0.394   0.072   0.510 -0.4507  1.0764 -0.7220
  102SOL    HW3  407   0.375   0.079   0.360  0.4192 -0.8808 -0.9281
  102SOL    MW4  408   0.374   0.034   0.434 -0.1460  0.1214 -0.3198
  103SOL     OW  409   2.744   3.486   0.362 -0.0808 -0.2881  0.7177
  103SOL    HW2  410   2.714   3.404   0.401  0.5533 -1.2270 -0.7288
  103SOL    HW3  411   2.832   3.499   0.398 -0.2602 -0.1325  1.1021
  103SOL    MW4  412   2.752   3.477   0.372 -0.0208 -0.3914  0.5775
  104SOL     OW  413   3.116   0.746   0.481 -0.3050 -0.0002  0.0203
  104SOL    HW2  414   3.070   0.663   0.495  0.1015 -0.2386 -0.0414
  104SOL    HW3  415   3.142   0.774   0.569  0.3820 -0.4197 -0.0409
  104SOL    MW4  416   3.113   0.739   0.494 -0.1607 -0.0870  0.0041
  105SOL     OW  417   3.298   2.763   0.463  0.6115 -0.1319  0.1472
  105SOL    HW2  418   3.209   2.794   0.449  0.9591  0.0932 -1.6935
  105SOL    HW3  419   3.323   2.799   0.549 -0.9551  0.0271  0.5520
  105SOL    MW4  420   3.289   2.772   0.473  0.4506 -0.0812 -0.0422
  106SOL     OW  421   3.995   3.414   0.368 -0.0886 -0.0213  0.2099
  106SOL    HW2  422   4.081   3.447   0.341 -0.1280 -0.8485 -0.9693
  106SOL    HW3  423   4.015   3.337   0.422 -0.0827 -0.0218  0.2070
  106SOL    MW4  424   4.009   3.408   0.371 -0.0930 -0.1305  0.0539
  107SOL     OW  425   3.618   2.719   0.853  0.0578  0.3904 -0.1533
  107SOL    HW2  426   3.615   2.706   0.948 -1.1174  0.8231 -0.1259
  107SOL    HW3  427   3.604   2.631   0.817  1.9900 -0.0305  0.0639
  107SOL    MW4  428   3.616   2.706   0.861  0.1577  0.3919 -0.1210
  108SOL     OW  429   1.356   1.121   0.875 -0.3951 -0.1590  0.3428
  108SOL    HW2  430   1.437   1.163   0.845 -1.5286  1.8781  0.0344
  108SOL    HW3  431   1.355   1.036   0.831  0.6086  0.6031 -1.1867
  108SOL    MW4  432   1.367   1.115   0.865 -0.4122  0.2103  0.1003
  109SOL     OW  433   3.141   1.140   0.799 -0.0432  0.0132  0.3336
  109SOL    HW2  434   3.225   1.182   0.782 -0.7496  1.3493  0.0572
  109SOL    HW3  435   3.143   1.118   0.892  1.2502 -1.4405 -0.0154
  109SOL    MW4  436   3.152   1.143   0.809  0.0342 -0.0023  0.2511
  110SOL     OW  437   1.115   4.338   0.762 -0.0405 -0.1012  0.1246
  110SOL    HW2  438   1.131   4.331   0.668  0.4824 -0.5287  0.2446
  110SOL    HW3  439   1.197   4.310   0.802 -0.2783  0.0446  0.7087
  110SOL    MW4  440   1.128   4.333   0.755 -0.0029 -0.1384  0.2175
  111SOL     OW  441   0.538   1.498   0.400  0.2954  0.7736  0.0877
  111SOL    HW2  442   0.524   1.512   0.307  1.8226 -0.3477 -0.3389
  111SOL    HW3  443   0.547   1.586   0.437 -1.0862  1.2561 -0.6716
  111SOL    MW4  444   0.537   1.511   0.393  0.3146  0.6893 -0.0688
  112SOL     OW  445   1.594   3.422   0.541  0.7284  0.3847 -0.1258
  112SOL    HW2  446   1.516   3.437   0.594 -0.7874 -0.4128 -2.0656
  112SOL    HW3  447   1.625   3.510   0.519  0.2065  0.7030  0.3897
  112SOL    MW4  448   1.588   3.436   0.545  0.4595  0.3215 -0.3137
  113SOL     OW  449   1.046   2.725   0.478  0.1075 -0.2839 -0.6040
  113SOL    HW2  450   1.125   2.692   0.433  1.8400  0.6085  1.7231
  113SOL    HW3  451   1.009   2.647   0.520  1.2952 -0.2340  0.5669
  113SOL    MW4  452   1.052   2.710   0.477  0.4928 -0.1596 -0.1425
  114SOL     OW  453   2.609   1.656   0.469 -0.5152 -0.1479 -0.4110
  114SOL    HW2  454   2.650   1.595   0.407  0.8270  0.3516 -0.0298
  114SOL    HW3  455   2.624   1.742   0.430 -0.4001  0.1007  0.1806
  114SOL    MW4  456   2.617   1.659   0.456 -0.3229 -0.0492 -0.2827
  115SOL     OW  457   2.501   3.845   0.366  0.3192  0.4441 -0.4638
  115SOL    HW2  458   2.504   3.763   0.415  0.0979  0.5384 -0.2972
  115SOL    HW3  459   2.416   3.883   0.386  0.9792  1.3938  0.5630
  115SOL    MW4  460   2.490   3.839   0.375  0.3771  0.5819 -0.3064
  116SOL     OW  461   0.903   2.305   0.457 -0.1122 -0.0657  0.0283
  116SOL    HW2  462   0.931   2.373   0.518  2.7924 -0.0222 -1.2427
  116SOL    HW3  463   0.985   2.270   0.421 -1.6751 -1.4713 -2.3302
  116SOL    MW4  464   0.918   2.309   0.460  0.0648 -0.2454 -0.4506
  117SOL     OW  465   2.717   0.323   0.782 -0.1047 -0.6218  0.1251
  117SOL    HW2  466   2.703   0.328   0.876 -1.9848 -0.0440 -0.1731
  117SOL    HW3  467   2.721   0.230   0.762 -1.0138 -0.7543  0.5817
  117SOL    MW4  468   2.716   0.312   0.792 -0.4727 -0.5630  0.1460
  118SOL     OW  469   2.279   0.822   0.745 -0.0291 -0.4520  0.0617
  118SOL    HW2  470   2.367   0.787   0.739  1.0288  2.3451 -1.2671
  118SOL    HW3  471   2.243   0.814   0.657 -0.1433  0.8294 -0.0165
  118SOL    MW4  472   2.286   0.816   0.733  0.0954  0.0861 -0.1240
  119SOL     OW  473   1.348   3.525   0.747 -0.3422  0.0841 -0.2010
  119SOL    HW2  474   1.410   3.594   0.724 -0.8517  0.2121 -1.2077
  119SOL    HW3  475   1.262   3.561   0.724 -0.7809 -0.1494  1.0385
  119SOL    MW4  476   1.345   3.539   0.741 -0.4673  0.0701 -0.1703
  120SOL     OW  477   2.979   2.312   0.863 -0.1465 -0.6047 -0.5328
  120SOL    HW2  478   2.953   2.320   0.955  0.6861  1.1028 -0.4306
  120SOL    HW3  479   2.959   2.221   0.841 -0.1492 -1.1000  1.3997
  120SOL    MW4  480   2.973   2.301   0.872 -0.0370 -0.4448 -0.2644
  121SOL     OW  481   3.536   1.676   0.781  0.1610  0.0817  0.1863
  121SOL    HW2  482   3.461   1.633   0.822 -0.6978  1.2374 -0.1390
  121SOL    HW3  483   3.520   1.770   0.793  0.7083  0.3986 -1.3560
  121SOL    MW4  484   3.524   1.683   0.788  0.1199  0.2760 -0.0601
  122SOL     OW  485   0.295   3.150   0.486 -0.0413 -0.0914 -0.0180
  122SOL    HW2  486   0.324   3.148   0.577  2.7754 -0.6116 -0.8857
  122SOL    HW3  487   0.345   3.222   0.447 -0.6993 -0.3416 -1.3268
  122SOL    MW4  488   0.306   3.160   0.493  0.2435 -0.1931 -0.3052
  123SOL     OW  489   1.603   3.084   0.604 -0.2873 -0.0567  0.0440
  123SOL    HW2  490   1.522   3.126   0.633  0.4895 -0.6259  3.3222
  123SOL    HW3  491   1.608   3.004   0.656  2.6937  0.3293  0.4690
  123SOL    MW4  492   1.593   3.079   0.615  0.2085 -0.0809  0.5326
  124SOL     OW  493   1.394   0.496   0.266 -0.1550  0.5542 -0.2237
  124SOL    HW2  494   1.404   0.402   0.254  0.2100  0.4278  1.0224
  124SOL    HW3  495   1.309   0.506   0.310 -0.9522  0.9351 -1.7816
  124SOL    MW4  496   1.384   0.485   0.270 -0.2120  0.5878 -0.2648
  125SOL     OW  497   2.283   1.641   0.744 -0.1539 -0.3909  0.2241
  125SOL    HW2  498   2.204   1.608   0.785 -0.0438 -0.6657  0.2124
  125SOL    HW3  499   2.289   1.732   0.774 -0.6887 -0.2484 -0.0983
  125SOL    MW4  500   2.274   1.649   0.754 -0.2099 -0.4084  0.1800
  126SOL     OW  501   1.326   0.151   0.475 -0.2506  0.1324  0.0706
  126SOL    HW2  502   1.250   0.195   0.436 -0.2812 -0.2017 -0.2450
  126SOL    HW3  503   1.395   0.161   0.410  0.1764  1.0460  0.6608
  126SOL    MW4  504   1.325   0.158   0.461 -0.1983  0.2089  0.1068
  127SOL     OW  505   1.166   2.316   0.823  0.3177  0.4739  0.1089
  127SOL    HW2  506   1.167   2.222   0.808 -0.4816  0.7084 -1.4440
  127SOL    HW3  507   1.127   2.326   0.910 -0.6548 -0.5667 -0.2011
  127SOL    MW4  508   1.161   2.305   0.833  0.0840  0.3676 -0.1369
  128SOL     OW  509   3.910   1.514   0.165 -0.0232 -0.1677 -0.0500
  128SOL    HW2  510   3.961   1.534   0.086 -0.2692 -1.7748 -0.6345
  128SOL    HW3  511   3.896   1.599   0.207 -0.3120  0.7855 -2.0128
  128SOL    MW4  512   3.915   1.528   0.160 -0.0938 -0.2540 -0.3861
  129SOL     OW  513   3.360   3.590   0.748  0.0056  0.4626  0.7492
  129SOL    HW2  514   3.439   3.549   0.784 -0.1930 -0.4261  0.1792
  129SOL    HW3  515   3.376   3.684   0.757  0.3039  0.2679  2.4260
  129SOL    MW4  516   3.373   3.597   0.754  0.0188  0.3196  0.8952
  130SOL     OW  517   4.253   3.012   0.878  0.1370  0.2879 -0.7214
  130SOL    HW2  518   4.172   3.061   0.861 -1.2696 -1.0304  1.7277
  130SOL    HW3  519   4.243   2.931   0.829  0.1888  0.3329 -0.8059
  130SOL    MW4  520   4.241   3.008   0.870 -0.0418  0.1199 -0.4094
  131SOL     OW  521   3.031   2.363   0.577 -0.6041  0.2674 -0.3544
  131SOL    HW2  522   3.013   2.351   0.670 -0.5288 -1.3362 -0.5235
  131SOL    HW3  523   3.117   2.405   0.574 -0.4219 -0.0567  0.2973
  131SOL    MW4  524   3.040   2.367   0.589 -0.5702  0.0131 -0.2907
  132SOL     OW  525   3.429   3.766   0.428 -0.2379  0.0351  0.4239
  132SOL    HW2  526   3.465   3.691   0.380 -0.3194  0.2277  0.0579
  132SOL    HW3  527   3.497   3.833   0.424 -0.1948  0.0051  0.6855
  132SOL    MW4  528   3.443   3.765   0.421 -0.2430  0.0565  0.4101
  133SOL     OW  529   1.553   1.802   0.367 -0.2824  0.1655  0.1318
  133SOL    HW2  530   1.458   1.795   0.371 -0.1737 -1.5388  0.0695
  133SOL    HW3  531   1.585   1.720   0.404  1.2016  1.4986  1.9314
  133SOL    MW4  532   1.545   1.790   0.372 -0.0723  0.1165  0.3610
  134SOL     OW  533   0.865   2.941   0.455  0.0163 -0.4782  0.5468
  134SOL    HW2  534   0.926   2.867   0.456  0.6633  0.0436  0.4553
  134SOL    HW3  535   0.779   2.902   0.444  0.4271 -1.1669 -0.2153
  134SOL    MW4  536   0.862   2.926   0.454  0.1559 -0.5002  0.4342
  135SOL     OW  537   1.548   2.542   0.284 -0.0049 -0.5342  0.0795
  135SOL    HW2  538   1.598   2.621   0.305  1.2026 -1.0017 -0.9291
  135SOL    HW3  539   1.600   2.470   0.319 -0.5891 -0.9516  0.1014
  135SOL    MW4  540   1.562   2.543   0.291  0.0773 -0.6510 -0.0507
  136SOL     OW  541   1.611   0.758   0.813  0.0450 -0.0474 -0.1938
  136SOL    HW2  542   1.533   0.799   0.777 -0.9053 -0.9715  0.7679
  136SOL    HW3  543   1.608   0.668   0.781  0.9456  0.0265 -0.4988
  136SOL    MW4  544   1.600   0.752   0.804  0.0385 -0.1596 -0.1072
  137SOL     OW  545   0.039   0.881   0.782 -0.1565  0.1841 -0.3135
  137SOL    HW2  546   0.043   0.977   0.785 -0.2517  0.1693  0.3458
  137SOL    HW3  547   0.127   0.853   0.809 -0.9589  0.0487  2.3258
  137SOL    MW4  548   0.051   0.890   0.786 -0.2749  0.1643  0.1217
  138SOL     OW  549   0.649   4.435   0.718  0.0561 -0.0636 -0.3154
  138SOL    HW2  550   0.621   4.457   0.629  0.1157  0.0619 -0.3025
  138SOL    HW3  551   0.586   4.369   0.747  1.8469 -2.4447 -1.6146
  138SOL    MW4  552   0.637   4.429   0.710  0.3002 -0.3612 -0.4851
  139SOL     OW  553   1.214   0.815   0.477 -0.0223  0.0681 -0.1832
  139SOL    HW2  554   1.161   0.894   0.471  0.2976  0.1816 -1.6265
  139SOL    HW3  555   1.158   0.745   0.444  0.2567 -0.0287 -0.4559
  139SOL    MW4  556   1.200   0.816   0.472  0.0567  0.0703 -0.4096
  140SOL     OW  557   1.354   4.553   0.361 -0.4457 -0.6183  0.2901
  140SOL    HW2  558   1.333   4.642   0.389  0.8815 -0.1543 -0.2010
  140SOL    HW3  559   1.325   4.549   0.270  0.2629 -0.4250  0.0544
  140SOL    MW4  560   1.347   4.564   0.353 -0.1771 -0.5316  0.1942
  141SOL     OW  561   1.827   2.450   0.647 -0.0275 -0.4591 -0.1401
  141SOL    HW2  562   1.901   2.399   0.682  0.5994  0.3203 -0.3284
  141SOL    HW3  563   1.823   2.528   0.703 -0.4450 -0.2943 -0.3992
  141SOL    MW4  564   1.836   2.453   0.659  0.0001 -0.3345 -0.1991
  142SOL     OW  565   2.735   3.708   0.203  0.0908  0.0522  0.2556
  142SOL    HW2  566   2.643   3.732   0.204 -0.6006 -2.5340  0.6401
  142SOL    HW3  567   2.739   3.623   0.247  2.4118 -0.6849 -1.2730
  142SOL    MW4  568   2.724   3.700   0.209  0.3058 -0.3863  0.1046
  143SOL     OW  569   0.914   1.943   1.119 -0.4522  0.1129  0.3725
  143SOL    HW2  570   0.854   1.961   1.191 -0.1327  1.5148  0.3134
  143SOL    HW3  571   0.995   1.988   1.145  0.0323 -0.3770 -0.3056
  143SOL    MW4  572   0.917   1.952   1.132 -0.3461  0.2332  0.2752
  144SOL     OW  573   0.882   1.591   0.507  0.2014  0.3137 -0.1455
  144SOL    HW2  574   0.834   1.508   0.504  0.5506  0.1244 -0.5704
  144SOL    HW3  575   0.824   1.654   0.466 -0.3782  0.4385  0.8610
  144SOL    MW4  576   0.868   1.588   0.501  0.1710  0.3052 -0.0688
  145SOL     OW  577   0.926   0.903   0.690  0.0302  0.4490 -0.3418
  145SOL    HW2  578   0.841   0.869   0.720  0.5109 -0.2794  0.2112
  145SOL    HW3  579   0.990   0.844   0.730  0.7368  0.1565 -1.8922
  145SOL    MW4  580   0.923   0.891   0.699  0.1868  0.3143 -0.4734
  146SOL     OW  581   1.453   0.778   0.322  0.3785  0.1501  0.5293
  146SOL    HW2  582   1.431   0.702   0.268  0.8448 -1.3538  2.3988
  146SOL    HW3  583   1.377   0.788   0.380 -0.2121  1.8816 -0.4929
  146SOL    MW4  584   1.440   0.769   0.322  0.3621  0.1801  0.6411
  147SOL     OW  585   0.680   2.140   0.481 -0.1343 -0.1165  0.7754
  147SOL    HW2  586   0.683   2.121   0.575  1.1125 -1.5456  0.4643
  147SOL    HW3  587   0.739   2.215   0.470 -0.3305  0.0933  1.1247
  147SOL    MW4  588   0.688   2.148   0.492  0.0043 -0.2774  0.7805
  148SOL     OW  589   3.625   0.854   0.741 -0.2593 -0.2216  0.1966
  148SOL    HW2  590   3.638   0.948   0.751  0.9669 -0.3788  0.1333
  148SOL    HW3  591   3.700   0.814   0.787 -0.8558 -1.1650  0.3669
  148SOL    MW4  592   3.637   0.861   0.748 -0.1762 -0.3668  0.2107
  149SOL     OW  593   0.201   0.525   0.721  0.3589  0.0547  0.0804
  149SOL    HW2  594   0.282   0.487   0.753  0.4764 -0.3614 -0.7243
  149SOL    HW3  595   0.132   0.467   0.754  0.6023 -1.4630 -2.0286
  149SOL    MW4  596   0.202   0.512   0.730  0.4065 -0.2004 -0.3040
  150SOL     OW  597   2.028   3.103   0.808 -0.3309  0.2715  0.2406
  150SOL    HW2  598   2.103   3.151   0.774 -0.5086  0.7949  0.5903
  150SOL    HW3  599   1.952   3.146   0.770 -0.4488 -0.4297 -0.3355
  150SOL    MW4  600   2.028   3.115   0.799 -0.3699  0.2480  0.2107
  151SOL     OW  601   3.584   0.102   0.758 -0.0450 -0.4198 -0.3149
  151SOL    HW2  602   3.502   0.058   0.782 -0.2350  1.0770  1.9435
  151SOL    HW3  603   3.652   0.044   0.791 -0.2171 -0.8847 -0.7660
  151SOL    MW4  604   3.582   0.088   0.766 -0.0928 -0.2836 -0.0764
  152SOL     OW  605   1.586   4.397   0.734 -0.2227 -0.2008 -0.7820
  152SOL    HW2  606   1.596   4.397   0.639  2.5519 -0.5978 -0.5254
  152SOL    HW3  607   1.580   4.489   0.758 -0.7714 -0.0940 -1.3125
  152SOL    MW4  608   1.587   4.409   0.725  0.0710 -0.2391 -0.8181
  153SOL     OW  609   0.705   2.106   0.746  0.1284  0.4428 -0.0598
  153SOL    HW2  610   0.715   2.185   0.799 -0.6664  0.1153  0.5942
  153SOL    HW3  611   0.782   2.054   0.767  0.0618  0.5271  0.4114
  153SOL    MW4  612   0.716   2.110   0.756  0.0148  0.4107  0.0886
  154SOL     OW  613   2.260   3.225   0.664  0.0449  0.0486  0.4042
  154SOL    HW2  614   2.230   3.165   0.595 -1.1802 -0.4709  1.3709
  154SOL    HW3  615   2.344   3.189   0.692  0.3057 -0.0299 -0.4449
  154SOL    MW4  616   2.267   3.212   0.658 -0.0823 -0.0303  0.4197
  155SOL     OW  617   1.110   0.512   0.716  0.1395  0.2118 -0.2273
  155SOL    HW2  618   1.045   0.463   0.766 -0.4664 -0.8869 -2.0455
  155SOL    HW3  619   1.192   0.466   0.731 -0.1687 -0.5216 -0.8018
  155SOL    MW4  620   1.112   0.500   0.725  0.0189 -0.0299 -0.5430
  156SOL     OW  621   2.946   4.366   0.753  0.1333  0.3281 -0.0463
  156SOL    HW2  622   2.960   4.380   0.659 -0.6293  1.4701 -0.0111
  156SOL    HW3  623   2.861   4.322   0.758 -0.1673  0.9148  0.1296
  156SOL    MW4  624   2.937   4.362   0.741 -0.0070  0.5562 -0.0184
  157SOL     OW  625   2.476   0.906   0.423 -0.6355 -0.1892  0.6689
  157SOL    HW2  626   2.549   0.851   0.450 -0.0681  0.8471  1.2322
  157SOL    HW3  627   2.513   0.994   0.413 -1.4866  0.0573 -0.4738
  157SOL    MW4  628   2.490   0.910   0.425 -0.6730 -0.0200  0.5925
  158SOL     OW  629   4.231   4.639   0.397  0.0181 -0.5030 -0.3179
  158SOL    HW2  630   4.305   4.664   0.453 -0.3924  1.9718 -0.8053
  158SOL    HW3  631   4.264   4.650   0.308 -0.5593 -0.5232 -0.5319
  158SOL    MW4  632   4.245   4.644   0.393 -0.1122 -0.1791 -0.4104
  159SOL     OW  633   0.392   2.888   0.403 -0.4953 -0.2504 -0.0765
  159SOL    HW2  634   0.365   2.978   0.420 -0.4229 -0.4297  1.0397
  159SOL    HW3  635   0.481   2.882   0.439 -0.4725 -0.7421 -0.2025
  159SOL    MW4  636   0.400   2.899   0.410 -0.4827 -0.3389  0.0542
  160SOL     OW  637   3.574   3.465   0.868 -0.1978  0.0062  0.1799
  160SOL    HW2  638   3.575   3.379   0.827  1.0755  0.2395 -0.2976
  160SOL    HW3  639   3.660   3.502   0.850 -0.3091  0.9070  1.3970
  160SOL    MW4  640   3.585   3.459   0.860 -0.0445  0.1558  0.2775
  161SOL     OW  641   1.787   0.738   0.394 -0.4011  0.3194  0.0402
  161SOL    HW2  642   1.698   0.709   0.373  0.8682 -2.4846 -1.9207
  161SOL    HW3  643   1.821   0.670   0.452  0.1000  1.9437  1.6630
  161SOL    MW4  644   1.780   0.725   0.399 -0.1675  0.1638 -0.0044
  162SOL     OW  645   0.635   2.509   0.420 -0.4738 -0.1795 -0.2041
  162SOL    HW2  646   0.601   2.532   0.334  0.0126  0.3870 -0.2485
  162SOL    HW3  647   0.719   2.466   0.403 -0.8437 -0.9814 -0.0608
  162SOL    MW4  648   0.642   2.506   0.407 -0.4584 -0.2105 -0.1910
  163SOL     OW  649   0.533   0.859   0.451  0.0969 -0.1105 -0.1472
  163SOL    HW2  650   0.446   0.898   0.453 -0.3410 -0.9862 -1.4355
  163SOL    HW3  651   0.539   0.808   0.532 -0.0732  1.0268  0.5836
  163SOL    MW4  652   0.523   0.857   0.462  0.0167 -0.0760 -0.2207
  164SOL     OW  653   1.827   3.267   0.673 -0.0348  0.4707  0.2512
  164SOL    HW2  654   1.742   3.235   0.643  0.1359  1.6236 -1.5176
  164SOL    HW3  655   1.818   3.363   0.673  1.6549  0.6519 -1.1816
  164SOL    MW4  656   1.815   3.276   0.669  0.2106  0.6467 -0.1712
  165SOL     OW  657   2.259   3.920   0.452  0.0363 -0.7988  0.3349
  165SOL    HW2  658   2.205   3.976   0.396  0.8361 -1.8444 -1.5364
  165SOL    HW3  659   2.211   3.838   0.456  0.9200 -1.3665 -0.4356
  165SOL    MW4  660   2.245   3.917   0.445  0.2584 -1.0116 -0.0137
  166SOL     OW  661   3.178   2.694   0.825  0.3540 -0.2506  0.4014
  166SOL    HW2  662   3.253   2.742   0.789 -0.6991  0.6633 -0.5945
  166SOL    HW3  663   3.205   2.602   0.821  0.7542 -0.0713 -1.5638
  166SOL    MW4  664   3.192   2.688   0.820  0.2678 -0.1063  0.0107
  167SOL     OW  665   1.338   3.240   0.663  0.3350  0.1092 -0.2374
  167SOL    HW2  666   1.351   3.320   0.714 -0.8011 -0.5523  1.1424
  167SOL    HW3  667   1.297   3.270   0.582 -0.3709  0.9023  0.3961
  167SOL    MW4  668   1.334   3.255   0.659  0.0920  0.1266  0.0282
  168SOL     OW  669   1.394   1.861   0.873  0.0615 -0.2445  0.0257
  168SOL    HW2  670   1.452   1.922   0.828  0.8399 -1.1263 -0.1990
  168SOL    HW3  671   1.424   1.862   0.964  0.1511 -0.3833 -0.0026
  168SOL    MW4  672   1.406   1.869   0.879  0.1760 -0.3792 -0.0077
  169SOL     OW  673   2.383   2.077   0.464  0.1092 -0.5673 -0.0918
  169SOL    HW2  674   2.360   2.170   0.460 -0.6457 -0.7346  0.2740
  169SOL    HW3  675   2.305   2.031   0.435  0.1698 -1.1221  0.5968
  169SOL    MW4  676   2.370   2.084   0.460  0.0176 -0.6625  0.0473
  170SOL     OW  677   1.800   4.642   0.485  0.3463  0.2371 -0.2700
  170SOL    HW2  678   1.798   4.682   0.572  0.5963 -0.1826 -0.0701
  170SOL    HW3  679   1.888   4.606   0.477 -0.3771 -1.7349  0.2341
  170SOL    MW4  680   1.811   4.642   0.496  0.2838 -0.0784 -0.1771
  171SOL     OW  681   1.088   3.571   0.403  0.4159  0.0312  0.0663
  171SOL    HW2  682   1.119   3.632   0.336  0.1174 -0.7539 -0.7835
  171SOL    HW3  683   1.146   3.495   0.395 -1.3097 -1.2024 -1.1360
  171SOL    MW4  684   1.100   3.569   0.393  0.1489 -0.2352 -0.2044
  172SOL     OW  685   2.052   3.626   0.736 -0.4255 -0.1395  0.8084
  172SOL    HW2  686   2.083   3.640   0.646 -0.5100  2.1766  1.1087
  172SOL    HW3  687   2.118   3.569   0.776  0.6990  0.5128 -0.1009
  172SOL    MW4  688   2.065   3.620   0.729 -0.2883  0.2521  0.7281
  173SOL     OW  689   3.147   3.471   0.875  0.3210  0.3089  0.2789
  173SOL    HW2  690   3.071   3.518   0.841  0.2342 -0.3415 -0.4263
  173SOL    HW3  691   3.221   3.506   0.826  0.3996  0.4644  0.5035
  173SOL    MW4  692   3.147   3.482   0.864  0.3199  0.2436  0.2155
  174SOL     OW  693   0.905   1.935   0.836 -0.0528  0.4095  0.3873
  174SOL    HW2  694   0.896   1.947   0.930 -0.4603 -0.1195  0.4104
  174SOL    HW3  695   0.888   1.843   0.820 -1.8214  0.8561 -0.4299
  174SOL    MW4  696   0.902   1.925   0.846 -0.3399  0.3986  0.2826
  175SOL     OW  697   0.177   2.722   0.506 -0.3778 -0.0818  0.0459
  175SOL    HW2  698   0.184   2.756   0.596  0.1696  0.8850 -0.3502
  175SOL    HW3  699   0.229   2.783   0.454 -0.3351 -0.8941 -0.8671
  175SOL    MW4  700   0.185   2.735   0.511 -0.2999 -0.0614 -0.1268
  176SOL     OW  701   3.968   2.677   0.361  0.2563 -0.2395 -0.2684
  176SOL    HW2  702   4.061   2.674   0.336  0.2370 -0.1569 -0.3496
  176SOL    HW3  703   3.921   2.692   0.279  0.1506 -0.5459 -0.2633
  176SOL    MW4  704   3.974   2.679   0.347  0.2398 -0.2691 -0.2784
  177SOL     OW  705   2.291   1.463   0.338 -0.3060 -0.4793  0.3417
  177SOL    HW2  706   2.349   1.438   0.266 -0.1438  0.9341 -0.0422
  177SOL    HW3  707   2.319   1.552   0.362 -1.2257 -0.4192  1.2662
  177SOL    MW4  708   2.302   1.472   0.332 -0.4060 -0.2849  0.4130
  178SOL     OW  709   2.630   2.334   0.518 -0.5230  0.1524  0.1285
  178SOL    HW2  710   2.676   2.251   0.500  0.4679  0.4805  1.0943
  178SOL    HW3  711   2.680   2.374   0.589 -1.4401  1.2373  0.1726
  178SOL    MW4  712   2.643   2.328   0.525 -0.5132  0.3388  0.2618
  179SOL     OW  713   2.745   4.438   0.490  0.3859  0.2609  0.2903
  179SOL    HW2  714   2.839   4.423   0.481  0.4521  1.1896 -0.6902
  179SOL    HW3  715   2.735   4.534   0.485 -0.6524  0.1500 -0.0255
  179SOL    MW4  716   2.756   4.449   0.488  0.2577  0.3688  0.1192
  180SOL     OW  717   0.707   3.529   0.730 -0.3444  0.0250  0.0640
  180SOL    HW2  718   0.706   3.623   0.745  0.9545 -0.1424  1.2835
  180SOL    HW3  719   0.627   3.497   0.771 -0.1864  0.4521  0.7163
  180SOL    MW4  720   0.696   3.537   0.737 -0.1522  0.0592  0.3109
  181SOL     OW  721   3.985   2.412   0.718  0.2617  0.6028 -0.3468
  181SOL    HW2  722   3.978   2.418   0.623 -0.8980  0.0297 -0.3069
  181SOL    HW3  723   3.901   2.376   0.746  0.0505  2.0933  1.0268
  181SOL    MW4  724   3.973   2.408   0.710  0.0809  0.7238 -0.1603
  182SOL     OW  725   2.029   0.462   0.769 -0.1960  0.1836 -0.1020
  182SOL    HW2  726   2.040   0.553   0.797  1.1201  0.0374 -0.0742
  182SOL    HW3  727   2.006   0.468   0.677  0.0425  0.5485 -0.1400
  182SOL    MW4  728   2.028   0.475   0.761  0.0091  0.2125 -0.1033
  183SOL     OW  729   2.964   3.565   0.488 -0.5533  0.0447  0.4903
  183SOL    HW2  730   2.935   3.569   0.579 -1.2632 -1.4105  0.3376
  183SOL    HW3  731   3.021   3.489   0.484  1.0858  1.2775  0.1516
  183SOL    MW4  732   2.968   3.556   0.499 -0.4307  0.0154  0.4255
  184SOL     OW  733   0.856   4.011   0.688  0.6091  0.2509  0.3670
  184SOL    HW2  734   0.948   3.987   0.697  0.7197  0.1231 -0.9834
  184SOL    HW3  735   0.849   4.098   0.726  0.9726 -0.3809  1.8890
  184SOL    MW4  736   0.867   4.019   0.694  0.6717  0.1507  0.3896
  185SOL     OW  737   0.889   0.162   0.482  0.1973 -0.4768 -0.4138
  185SOL    HW2  738   0.895   0.140   0.575  0.2007  0.2379 -0.2441
  185SOL    HW3  739   0.901   0.078   0.437  0.5109 -0.7735  0.2191
  185SOL    MW4  740   0.891   0.148   0.488  0.2391 -0.4216 -0.3079
  186SOL     OW  741   0.417   0.616   0.328 -0.3124  0.1528 -0.1513
  186SOL    HW2  742   0.491   0.557   0.317 -0.8998 -0.6466  0.1368
  186SOL    HW3  743   0.456   0.698   0.358  0.4236 -0.3786  0.3805
  186SOL    MW4  744   0.432   0.619   0.331 -0.2928 -0.0228 -0.0431
  187SOL     OW  745   0.079   2.453   0.546  0.1111  0.3665 -0.1315
  187SOL    HW2  746   0.147   2.386   0.542  0.2992  0.4765  0.8733
  187SOL    HW3  747   0.122   2.533   0.515  0.3712  0.3728  0.2360
  187SOL    MW4  748   0.094   2.455   0.542  0.1702  0.3818  0.0495
  188SOL     OW  749   3.881   3.849   0.833  0.5315 -0.4625 -0.5974
  188SOL    HW2  750   3.809   3.903   0.799 -0.0088 -0.0864  1.1024
  188SOL    HW3  751   3.850   3.759   0.823 -0.3417 -0.2940  0.4437
  188SOL    MW4  752   3.867   3.844   0.827  0.3450 -0.3907 -0.2358
  189SOL     OW  753   4.356   2.150   0.299  0.1282  0.1486  0.5648
  189SOL    HW2  754   4.336   2.108   0.215 -1.7929 -1.5350  1.8229
  189SOL    HW3  755   4.438   2.109   0.327 -1.2535 -2.1713  1.3412
  189SOL    MW4  756   4.364   2.139   0.291 -0.3076 -0.3796  0.8332
  190SOL     OW  757   3.171   3.969   0.721  0.4177 -0.4693  0.8325
  190SOL    HW2  758   3.169   3.949   0.628 -0.3826 -0.4228  0.8371
  190SOL    HW3  759   3.200   4.060   0.725  2.7768 -1.1901  0.7530
  190SOL    MW4  760   3.174   3.978   0.709  0.6234 -0.5583  0.8226
  191SOL     OW  761   2.937   2.821   0.713  0.1951  0.3919 -0.2490
  191SOL    HW2  762   2.870   2.779   0.766  1.1484  1.2825  1.7137
  191SOL    HW3  763   3.019   2.782   0.742  0.6348  0.0155 -1.9446
  191SOL    MW4  764   2.939   2.811   0.723  0.3789  0.4598 -0.2137
  192SOL     OW  765   2.588   4.222   0.418 -0.4784  0.7700 -0.4934
  192SOL    HW2  766   2.639   4.301   0.437 -0.8604  0.5873  1.3296
  192SOL    HW3  767   2.646   4.150   0.441 -0.4422  0.5096 -1.3638
  192SOL    MW4  768   2.602   4.223   0.424 -0.5240  0.7116 -0.3677
  193SOL     OW  769   2.490   2.824   0.750 -0.6923 -0.0850 -0.1146
  193SOL    HW2  770   2.481   2.918   0.766  1.2730  0.1057  0.0371
  193SOL    HW3  771   2.511   2.818   0.656  0.2012 -0.2883  0.0954
  193SOL    MW4  772   2.492   2.836   0.739 -0.3151 -0.0867 -0.0669
  194SOL     OW  773   3.604   3.220   0.758 -0.0810  0.0226  0.0425
  194SOL    HW2  774   3.522   3.175   0.777 -0.1093  0.1820  0.3036
  194SOL    HW3  775   3.672   3.156   0.777 -0.1502 -0.1601 -0.3219
  194SOL    MW4  776   3.602   3.206   0.763 -0.0939  0.0195  0.0289
  195SOL     OW  777   1.473   1.281   0.519  0.1828  0.6615 -0.3078
  195SOL    HW2  778   1.378   1.292   0.520  0.1130 -0.0318  1.5485
  195SOL    HW3  779   1.489   1.215   0.452 -0.8718 -1.1500  1.1974
  195SOL    MW4  780   1.462   1.274   0.510  0.0344  0.3310  0.1357
  196SOL     OW  781   2.958   1.540   0.803  0.3002 -0.4358 -0.1571
  196SOL    HW2  782   2.874   1.579   0.779 -0.3471 -0.0372  2.5437
  196SOL    HW3  783   3.023   1.606   0.782 -0.2846  0.0919 -0.3256
  196SOL    MW4  784   2.955   1.554   0.797  0.1377 -0.3136  0.1770
  197SOL     OW  785   4.089   3.179   0.489  0.5130 -0.0572 -0.1522
  197SOL    HW2  786   4.057   3.090   0.501 -0.8345  0.4353 -0.0129
  197SOL    HW3  787   4.151   3.173   0.416  0.4165 -1.0948 -0.1554
  197SOL    MW4  788   4.093   3.167   0.481  0.3224 -0.1291 -0.1343
  198SOL     OW  789   0.025   1.639   0.679  0.0157  0.1580  0.4121
  198SOL    HW2  790   0.040   1.587   0.600  0.8749  0.6328  0.2551
  198SOL    HW3  791   0.102   1.621   0.734 -1.8326 -2.2815  2.3102
  198SOL    MW4  792   0.037   1.630   0.676 -0.1148 -0.1012  0.6418
  199SOL     OW  793   2.057   1.343   0.446 -0.0458 -0.3351 -0.4835
  199SOL    HW2  794   2.039   1.273   0.383 -0.0915 -0.2860 -0.5256
  199SOL    HW3  795   2.132   1.390   0.409  0.0109 -0.3872 -0.4341
  199SOL    MW4  796   2.064   1.340   0.433 -0.0444 -0.3355 -0.4825
  200SOL     OW  797   1.084   3.616   0.678 -0.0068  0.2154 -0.7884
  200SOL    HW2  798   1.088   3.596   0.584  1.9164 -1.8125 -0.3234
  200SOL    HW3  799   1.042   3.539   0.717  0.0482  0.6383  0.1230
  200SOL    MW4  800   1.079   3.603   0.671  0.2542  0.0036 -0.6068
  201SOL     OW  801   3.919   2.250   0.303 -0.6132  0.5007 -0.2725
  201SOL    HW2  802   3.974   2.304   0.360 -0.4701  0.3879 -0.3037
  201SOL    HW3  803   3.892   2.308   0.233 -1.6974  0.9442  0.5011
  201SOL    MW4  804   3.922   2.264   0.301 -0.7374  0.5443 -0.1746
  202SOL     OW  805   0.197   2.280   0.902 -0.1486 -0.0641  0.0184
  202SOL    HW2  806   0.208   2.293   0.997 -1.1228 -0.6130  0.2165
  202SOL    HW3  807   0.121   2.332   0.880  0.2276  0.2588 -0.5178
  202SOL    MW4  808   0.189   2.288   0.912 -0.2275 -0.0939 -0.0262
  203SOL     OW  809   4.053   1.168   0.837 -0.4343 -0.1601  0.5549
  203SOL    HW2  810   4.066   1.077   0.809 -1.5486 -0.0489 -0.3756
  203SOL    HW3  811   4.051   1.164   0.932 -1.0961 -1.2113  0.5055
  203SOL    MW4  812   4.054   1.155   0.846 -0.6686 -0.2841  0.4256
  204SOL     OW  813   1.574   3.712   0.733  0.2506 -0.2280  0.4841
  204SOL    HW2  814   1.650   3.661   0.760  0.8783  0.8465  0.7723
  204SOL    HW3  815   1.585   3.797   0.776  0.8815  1.2525 -2.4783
  204SOL    MW4  816   1.586   3.716   0.742  0.4167  0.1091  0.1313
  205SOL     OW  817   3.972   1.632   0.745 -0.1506 -0.4643  0.2326
  205SOL    HW2  818   4.059   1.600   0.771  0.2171 -0.1424 -0.5547
  205SOL    HW3  819   3.963   1.605   0.654 -0.9898 -0.7184  0.3891
  205SOL    MW4  820   3.983   1.625   0.736 -0.2128 -0.4554  0.1494
  206SOL     OW  821   1.962   2.571   0.402  0.0731  0.0088  0.0515
  206SOL    HW2  822   1.990   2.491   0.358  0.4305 -0.3109  0.8646
  206SOL    HW3  823   1.902   2.542   0.470 -0.6129  0.5229 -0.3225
  206SOL    MW4  824   1.958   2.557   0.405  0.0297  0.0345  0.1094
  207SOL     OW  825   1.591   2.001   0.755 -0.2079 -0.0107  0.5041
  207SOL    HW2  826   1.606   2.088   0.792 -0.6728 -0.4250  1.6627
  207SOL    HW3  827   1.673   1.954   0.770  1.2640  1.2028 -3.0000
  207SOL    MW4  828   1.604   2.007   0.762 -0.0750  0.0947  0.1946
  208SOL     OW  829   1.728   2.764   0.230 -0.3992  0.0423 -0.1393
  208SOL    HW2  830   1.710   2.724   0.145 -0.3904  1.1982 -0.7008
  208SOL    HW3  831   1.809   2.723   0.260  0.6630  1.0271 -1.5975
  208SOL    MW4  832   1.736   2.754   0.222 -0.2579  0.3248 -0.4058
  209SOL     OW  833   2.727   1.160   0.800 -0.1163 -0.0775 -0.7148
  209SOL    HW2  834   2.654   1.212   0.768 -0.3898 -1.1221 -1.8281
  209SOL    HW3  835   2.805   1.202   0.763  0.0376  2.0913  1.8947
  209SOL    MW4  836   2.728   1.173   0.791 -0.1321  0.0709 -0.5174
  210SOL     OW  837   2.225   0.770   0.472 -0.3389  0.0857  0.1206
  210SOL    HW2  838   2.166   0.795   0.400  0.2055 -1.7575 -1.0185
  210SOL    HW3  839   2.302   0.824   0.459  0.1605 -0.9248 -1.3120
  210SOL    MW4  840   2.227   0.780   0.461 -0.2012 -0.2908 -0.2187
  211SOL     OW  841   2.961   3.814   0.374  0.3321  0.1301 -0.3451
  211SOL    HW2  842   2.902   3.790   0.302 -1.6901  1.0864  0.9406
  211SOL    HW3  843   2.975   3.732   0.422  0.0093 -0.0966 -0.6358
  211SOL    MW4  844   2.955   3.800   0.371  0.0227  0.2263 -0.2138
  212SOL     OW  845   3.679   2.622   0.471  0.1464 -0.1443 -0.1082
  212SOL    HW2  846   3.625   2.697   0.445 -0.0680 -0.8404 -1.7501
  212SOL    HW3  847   3.768   2.650   0.452  0.0809 -0.2341 -0.5542
  212SOL    MW4  848   3.684   2.636   0.465  0.1094 -0.2480 -0.3837
  213SOL     OW  849   2.993   0.485   0.491  0.2616 -0.3383  0.0042
  213SOL    HW2  850   2.925   0.468   0.427 -0.2902  1.1750  0.1600
  213SOL    HW3  851   2.945   0.497   0.574  0.8497 -0.8585  0.4252
  213SOL    MW4  852   2.978   0.484   0.494  0.2664 -0.2072  0.0803
  214SOL     OW  853   4.025   1.912   0.856 -0.1135  0.3341  0.2314
  214SOL    HW2  854   3.957   1.960   0.809  0.1646  0.4042 -0.1029
  214SOL    HW3  855   4.014   1.821   0.828 -0.7084  0.1764  0.9460
  214SOL    MW4  856   4.015   1.906   0.846 -0.1553  0.3226  0.2815
  215SOL     OW  857   3.810   1.729   0.366 -0.2854  0.2633 -0.2089
  215SOL    HW2  858   3.829   1.821   0.388 -0.4659  0.1916  0.2539
  215SOL    HW3  859   3.734   1.707   0.420 -0.9974  0.2159 -1.2254
  215SOL    MW4  860   3.803   1.739   0.376 -0.4032  0.2475 -0.2820
  216SOL     OW  861   1.047   3.128   0.353  0.1153 -0.7077 -0.6932
  216SOL    HW2  862   1.089   3.074   0.286  1.4970 -1.5521  0.8202
  216SOL    HW3  863   0.980   3.072   0.391  1.7398 -1.5066  1.0729
  216SOL    MW4  864   1.044   3.114   0.349  0.5119 -0.9245 -0.2605
  217SOL     OW  865   1.915   0.500   0.507 -0.0061  0.0650  0.0867
  217SOL    HW2  866   1.831   0.463   0.478 -0.2884  1.1447 -0.4973
  217SOL    HW3  867   1.969   0.500   0.428  0.0255  0.7981  0.1109
  217SOL    MW4  868   1.911   0.495   0.492 -0.0392  0.3042  0.0129
  218SOL     OW  869   2.856   2.490   0.401  0.6876 -0.0146 -0.1482
  218SOL    HW2  870   2.935   2.450   0.437 -0.3750  1.1705  3.7305
  218SOL    HW3  871   2.784   2.437   0.436 -0.3861  0.9742 -0.8230
  218SOL    MW4  872   2.857   2.478   0.411  0.4057  0.2722  0.2745
  219SOL     OW  873   1.565   1.505   0.892 -0.1126 -0.2550 -0.0800
  219SOL    HW2  874   1.587   1.521   0.984  0.5906  1.5570 -0.5366
  219SOL    HW3  875   1.483   1.552   0.878  0.3563  0.4288 -0.6365
  219SOL    MW4  876   1.557   1.513   0.902  0.0420  0.0743 -0.2136
  220SOL     OW  877   1.410   2.418   0.748 -0.1875  0.3680  0.0085
  220SOL    HW2  878   1.390   2.423   0.655  0.2549  0.7192 -0.0674
  220SOL    HW3  879   1.330   2.384   0.788  0.0794 -1.0803 -0.6621
  220SOL    MW4  880   1.397   2.414   0.741 -0.0939  0.2232 -0.0900
  221SOL     OW  881   2.058   4.652   0.831 -0.0458 -0.1928  0.4073
  221SOL    HW2  882   2.130   4.693   0.782 -1.0088 -0.4234 -1.2171
  221SOL    HW3  883   2.058   4.561   0.803 -0.2856 -0.4613  1.2394
  221SOL    MW4  884   2.068   4.645   0.821 -0.2045 -0.2587  0.3028
  222SOL     OW  885   0.666   1.557   0.856  0.3701 -0.4302 -0.2242
  222SOL    HW2  886   0.672   1.543   0.950  1.3319 -1.4539 -0.4217
  222SOL    HW3  887   0.752   1.589   0.831  0.2922 -0.6829 -0.8323
  222SOL    MW4  888   0.678   1.559   0.865  0.4867 -0.5986 -0.3305
  223SOL     OW  889   1.111   4.613   0.849 -0.0456  0.4124  0.1158
  223SOL    HW2  890   1.116   4.525   0.811  0.0361 -0.1472  1.4058
  223SOL    HW3  891   1.193   4.655   0.823  0.0895 -0.0196 -0.1706
  223SOL    MW4  892   1.122   4.607   0.840 -0.0170  0.2816  0.2482
  224SOL     OW  893   4.193   2.303   0.848  0.2770 -0.0740 -0.1109
  224SOL    HW2  894   4.126   2.347   0.796 -0.4195 -1.9054 -0.8338
  224SOL    HW3  895   4.211   2.222   0.800  3.8109  0.8330 -0.5111
  224SOL    MW4  896   4.187   2.298   0.835  0.6513 -0.1959 -0.2591
  225SOL     OW  897   0.903   1.656   0.784  0.3270  0.0032  0.1455
  225SOL    HW2  898   0.895   1.642   0.689 -1.2615 -0.8004  0.3750
  225SOL    HW3  899   0.982   1.609   0.808  0.2163 -0.6183 -0.6481
  225SOL    MW4  900   0.912   1.648   0.774  0.1028 -0.1848  0.0711
  226SOL     OW  901   3.565   0.165   0.497 -0.3267 -0.0783  0.3244
  226SOL    HW2  902   3.494   0.229   0.497 -0.1719  0.0928 -0.0137
  226SOL    HW3  903   3.573   0.138   0.589  1.1489  2.0966  0.8667
  226SOL    MW4  904   3.557   0.170   0.509 -0.1116  0.2312  0.3513
  227SOL     OW  905   2.884   2.081   0.738 -0.2096 -0.2108 -0.1273
  227SOL    HW2  906   2.813   2.033   0.781  0.3527 -0.7222  0.2506
  227SOL    HW3  907   2.962   2.030   0.759  0.4330  0.9930  0.4577
  227SOL    MW4  908   2.885   2.068   0.747 -0.0506 -0.1194 -0.0003
  228SOL     OW  909   1.593   2.894   0.814 -0.4013  0.6149 -0.3414
  228SOL    HW2  910   1.529   2.822   0.815  0.7119 -0.3991  1.2827
  228SOL    HW3  911   1.563   2.954   0.882 -0.2633  0.7131 -0.3669
  228SOL    MW4  912   1.581   2.892   0.823 -0.2362  0.4941 -0.1305
  229SOL     OW  913   3.107   3.334   0.479  0.2903 -0.1237 -0.0713
  229SOL    HW2  914   3.193   3.372   0.462  1.2278 -2.4841 -0.7811
  229SOL    HW3  915   3.109   3.311   0.572  0.4120 -0.1320 -0.0761
  229SOL    MW4  916   3.118   3.336   0.489  0.4301 -0.4362 -0.1656
  230SOL     OW  917   3.800   0.479   0.779 -0.9991  0.0841 -0.1211
  230SOL    HW2  918   3.719   0.435   0.805 -1.1586  0.7036  0.4370
  230SOL    HW3  919   3.797   0.479   0.683 -1.2282 -0.6915 -0.1151
  230SOL    MW4  920   3.789   0.473   0.770 -1.0504  0.0635 -0.0467
  231SOL     OW  921   3.174   0.048   0.449  0.5765 -0.0985  0.0730
  231SOL    HW2  922   3.142   0.061   0.538 -1.3285  0.7507 -0.6906
  231SOL    HW3  923   3.175   0.136   0.411  0.3389 -0.5627 -1.0504
  231SOL    MW4  924   3.170   0.061   0.455  0.2938 -0.0477 -0.1760
  232SOL     OW  925   3.346   4.628   0.792  0.1748  0.1088  0.2381
  232SOL    HW2  926   3.364   4.539   0.762  1.8361  0.6816 -0.5045
  232SOL    HW3  927   3.353   4.623   0.887  1.1784 -0.3657  0.1453
  232SOL    MW4  928   3.349   4.615   0.801  0.5264  0.1217  0.1279
  233SOL     OW  929   0.831   3.658   0.340 -0.0006 -0.3134  0.1470
  233SOL    HW2  930   0.841   3.753   0.329  0.7310 -0.3942  0.0728
  233SOL    HW3  931   0.917   3.628   0.369 -0.2559 -0.9445  0.2689
  233SOL    MW4  932   0.844   3.667   0.342  0.0623 -0.4073  0.1533
  234SOL     OW  933   1.722   3.058   0.366  0.1284 -0.3481 -0.1667
  234SOL    HW2  934   1.693   3.070   0.456 -0.2887  1.5550 -0.5355
  234SOL    HW3  935   1.704   2.966   0.347 -0.0922 -0.6828  1.5636
  234SOL    MW4  936   1.716   3.047   0.375  0.0443 -0.1411  0.0129
  235SOL     OW  937   3.341   1.517   1.156  0.0616  0.0024 -0.3090
  235SOL    HW2  938   3.260   1.565   1.174 -0.8320 -2.7090  3.3623
  235SOL    HW3  939   3.411   1.576   1.183 -0.9120  0.4184  1.3751
  235SOL    MW4  940   3.340   1.531   1.162 -0.1848 -0.3005  0.3976
  236SOL     OW  941   0.433   2.689   0.861  0.3340 -0.0686  0.3136
  236SOL    HW2  942   0.346   2.719   0.835 -0.0184 -0.0818  1.4316
  236SOL    HW3  943   0.438   2.598   0.832 -0.1784 -0.1862  0.5936
  236SOL    MW4  944   0.423   2.681   0.854  0.2199 -0.0859  0.4980
  237SOL     OW  945   3.930   4.211   0.453  0.4346  0.1013  0.1128
  237SOL    HW2  946   3.964   4.121   0.447 -0.6001 -0.4383  1.8830
  237SOL    HW3  947   4.007   4.264   0.471  0.9520 -0.5305 -0.2013
  237SOL    MW4  948   3.945   4.206   0.455  0.3663 -0.0532  0.3049
  238SOL     OW  949   1.793   0.995   0.494  0.2256 -0.8411  0.3508
  238SOL    HW2  950   1.779   0.905   0.464  0.2567 -0.7373  0.0117
  238SOL    HW3  951   1.835   0.986   0.579  0.2925 -1.1484  0.2876
  238SOL    MW4  952   1.796   0.982   0.501  0.2385 -0.8679  0.2977
  239SOL     OW  953   4.262   2.058   0.754  0.1655  0.0929  0.1349
  239SOL    HW2  954   4.337   2.006   0.782 -0.2563  0.6313  2.3259
  239SOL    HW3  955   4.186   2.011   0.788 -0.3201  1.1566  0.5417
  239SOL    MW4  956   4.262   2.045   0.762  0.0458  0.3043  0.4777
  240SOL     OW  957   1.673   2.065   0.448  0.2505 -0.5841  0.3928
  240SOL    HW2  958   1.651   2.057   0.541 -3.1119  1.6091 -0.1478
  240SOL    HW3  959   1.636   1.987   0.407  0.2545 -0.7196  0.6473
  240SOL    MW4  960   1.666   2.054   0.455 -0.1926 -0.3126  0.3550
  241SOL     OW  961   2.932   0.509   0.779  0.2135  0.2192 -0.4762
  241SOL    HW2  962   2.858   0.448   0.783  0.6285 -0.1583  1.8945
  241SOL    HW3  963   3.009   0.453   0.778  0.6414  0.6623  2.9142
  241SOL    MW4  964   2.932   0.494   0.779  0.3247  0.2278  0.2839
  242SOL     OW  965   3.030   4.445   0.476 -0.3490 -0.3345  0.4130
  242SOL    HW2  966   3.075   4.519   0.434 -0.2466 -0.5244  0.1871
  242SOL    HW3  967   3.063   4.368   0.430 -1.1880 -0.4527 -0.0177
  242SOL    MW4  968   3.040   4.445   0.464 -0.4462 -0.3752  0.3264
  243SOL     OW  969   1.021   0.475   0.065 -0.4736  0.0852 -0.6224
  243SOL    HW2  970   0.956   0.520   0.119  0.6313  0.9272  0.0255
  243SOL    HW3  971   1.044   0.537  -0.004 -1.3610 -0.7272 -1.6650
  243SOL    MW4  972   1.015   0.489   0.063 -0.4449  0.0891 -0.6745
  244SOL     OW  973   2.281   2.431   0.761  0.0980 -0.1321  0.0753
  244SOL    HW2  974   2.359   2.400   0.806  0.7447  1.4148  0.0367
  244SOL    HW3  975   2.272   2.523   0.787 -1.1324 -0.0084 -0.7179
  244SOL    MW4  976   2.290   2.439   0.770  0.0210  0.0883 -0.0344
  245SOL     OW  977   2.518   2.342   0.874  0.3823 -0.5996  0.2262
  245SOL    HW2  978   2.589   2.387   0.828  0.4589 -0.6593  0.2853
  245SOL    HW3  979   2.508   2.259   0.826 -0.8672  0.1804 -0.8995
  245SOL    MW4  980   2.526   2.337   0.861  0.2276 -0.5046  0.0855
  246SOL     OW  981   0.136   0.598   0.440 -0.0553 -0.2804  0.5126
  246SOL    HW2  982   0.222   0.629   0.409 -0.4536 -0.3381 -0.6857
  246SOL    HW3  983   0.154   0.560   0.526  1.0409  0.1514  0.4849
  246SOL    MW4  984   0.150   0.597   0.447  0.0368 -0.2311  0.3508
  247SOL     OW  985   3.740   2.264   0.781 -0.0272 -0.3252 -0.0693
  247SOL    HW2  986   3.675   2.333   0.768 -0.1737 -0.5106 -0.3355
  247SOL    HW3  987   3.734   2.241   0.873  2.0974  2.1006  0.7276
  247SOL    MW4  988   3.731   2.270   0.791  0.2338 -0.0296  0.0008
  248SOL     OW  989   3.820   3.060   0.859  0.2611  0.4075 -0.5584
  248SOL    HW2  990   3.891   3.105   0.813  0.6137 -1.0848 -1.5164
  248SOL    HW3  991   3.829   2.968   0.833 -1.2783  0.0024  0.2699
  248SOL    MW4  992   3.831   3.054   0.849  0.1045  0.1572 -0.5755
  249SOL     OW  993   2.399   4.444   0.444  0.2666  0.1482  0.2817
  249SOL    HW2  994   2.309   4.423   0.470 -0.7480  1.2229 -2.2451
  249SOL    HW3  995   2.438   4.359   0.423 -0.7938 -0.1416 -0.5694
  249SOL    MW4  996   2.392   4.430   0.445 -0.0071  0.2517 -0.1640
  250SOL     OW  997   4.303   3.807   0.851  0.0161  0.2484  0.7206
  250SOL    HW2  998   4.282   3.811   0.944  1.7358 -0.5679  1.1641
  250SOL    HW3  999   4.284   3.716   0.827 -2.8442  1.0816 -0.3497
  250SOL    MW4 1000   4.297   3.795   0.860 -0.1344  0.2506  0.6379
  251SOL     OW 1001   2.362   2.359   0.496 -0.2229  0.2512 -0.3708
  251SOL    HW2 1002   2.325   2.382   0.581 -1.2489  0.8878 -0.9813
  251SOL    HW3 1003   2.457   2.365   0.509 -0.4068  2.6529  0.1045
  251SOL    MW4 1004   2.370   2.363   0.509 -0.3826  0.6521 -0.3886
  252SOL     OW 1005   2.272   1.081   0.837 -0.1963  0.6292  0.0845
  252SOL    HW2 1006   2.277   1.086   0.932 -0.9192  1.8186  0.0639
  252SOL    HW3 1007   2.285   0.988   0.817 -0.2933  0.3407  1.3566
  252SOL    MW4 1008   2.274   1.069   0.847 -0.3045  0.7481  0.2496
  253SOL     OW 1009   2.668   1.945   0.851  0.3572  0.3442  0.1206
  253SOL    HW2 1010   2.673   1.857   0.814 -0.3128  0.3592 -0.0199
  253SOL    HW3 1011   2.692   1.934   0.943  0.4200  0.0373  0.0670
  253SOL    MW4 1012   2.672   1.932   0.859  0.2771  0.3057  0.0950
  254SOL     OW 1013   2.464   1.236   0.690  0.2880 -0.3849  0.4596
  254SOL    HW2 1014   2.402   1.173   0.727 -0.0595  0.0513  0.6333
  254SOL    HW3 1015   2.464   1.218   0.596 -0.7153  0.1448  0.3549
  254SOL    MW4 1016   2.456   1.225   0.683  0.1098 -0.2574  0.4687
  255SOL     OW 1017   0.910   4.568   0.396  0.4226 -0.1506 -0.0640
  255SOL    HW2 1018   0.971   4.497   0.415 -1.2095 -1.3447  0.8608
  255SOL    HW3 1019   0.824   4.532   0.418 -0.4948  1.9150 -0.1623
  255SOL    MW4 1020   0.906   4.554   0.401  0.0862 -0.0356  0.0450
  256SOL     OW 1021   1.208   2.836   0.703 -0.7942  0.0822 -0.3652
  256SOL    HW2 1022   1.268   2.780   0.754  0.7639  1.1814 -0.9488
  256SOL    HW3 1023   1.160   2.774   0.648 -0.3332 -0.8434  0.2497
  256SOL    MW4 1024   1.210   2.820   0.703 -0.5278  0.1051 -0.3611
  257SOL     OW 1025   1.790   3.543   0.770 -0.1504  0.3062  0.7410
  257SOL    HW2 1026   1.783   3.493   0.851  1.7534 -1.4864 -0.1491
  257SOL    HW3 1027   1.882   3.570   0.766  0.2413 -1.2667 -1.7490
  257SOL    MW4 1028   1.801   3.540   0.780  0.1524 -0.1379  0.2950
  258SOL     OW 1029   3.812   4.597   0.816  0.1927  0.4904 -0.2013
  258SOL    HW2 1030   3.842   4.516   0.775 -1.1254  1.0296 -2.2990
  258SOL    HW3 1031   3.876   4.663   0.788  1.0744  0.2496  1.2276
  258SOL    MW4 1032   3.824   4.595   0.807  0.1351  0.5297 -0.2895
  259SOL     OW 1033   0.480   1.971   0.860  0.3389 -0.4490  0.0480
  259SOL    HW2 1034   0.554   2.024   0.833  0.6950 -0.4428  1.0202
  259SOL    HW3 1035   0.494   1.954   0.953 -1.6926  0.9218  0.6486
  259SOL    MW4 1036   0.491   1.976   0.869  0.1179 -0.2673  0.2555
  260SOL     OW 1037   4.069   1.341   0.316 -0.3423  0.2187  0.4413
  260SOL    HW2 1038   4.011   1.281   0.363 -0.8687 -0.5269 -1.1115
  260SOL    HW3 1039   4.012   1.383   0.251  0.5990  0.3722 -0.2908
  260SOL    MW4 1040   4.054   1.339   0.313 -0.2875  0.1405  0.1398
  261SOL     OW 1041   1.133   1.523   0.411 -0.3341  0.0572  0.3237
  261SOL    HW2 1042   1.047   1.549   0.443 -1.4837 -0.3433 -2.3337
  261SOL    HW3 1043   1.145   1.434   0.443 -0.6020  0.3525  1.2646
  261SOL    MW4 1044   1.124   1.515   0.419 -0.5211  0.0434  0.0972
  262SOL     OW 1045   4.331   1.284   0.458  0.1479 -0.6604  0.0840
  262SOL    HW2 1046   4.254   1.314   0.411 -0.7407 -1.0442  1.2713
  262SOL    HW3 1047   4.308   1.291   0.551  2.4211  1.5170  0.5386
  262SOL    MW4 1048   4.318   1.289   0.464  0.3306 -0.4238  0.3006
  263SOL     OW 1049   3.166   0.352   0.808 -0.2193 -0.0090 -0.5422
  263SOL    HW2 1050   3.155   0.365   0.902  0.4601 -0.9194 -0.3252
  263SOL    HW3 1051   3.229   0.418   0.781  0.5529 -0.5707 -0.1179
  263SOL    MW4 1052   3.173   0.362   0.816 -0.0278 -0.2032 -0.4576
  264SOL     OW 1053   1.317   0.094   0.751 -0.3998 -0.4192 -0.2705
  264SOL    HW2 1054   1.410   0.078   0.768 -0.4066  0.1736  0.3625
  264SOL    HW3 1055   1.310   0.096   0.655  0.1530 -0.9476 -0.3245
  264SOL    MW4 1056   1.329   0.092   0.740 -0.3278 -0.4107 -0.1941
  265SOL     OW 1057   4.247   1.583   0.789 -0.3147  0.3028  0.0187
  265SOL    HW2 1058   4.325   1.623   0.751 -0.5515  1.0122  0.2664
  265SOL    HW3 1059   4.262   1.586   0.883 -0.9919  1.1940  0.1081
  265SOL    MW4 1060   4.259   1.588   0.796 -0.4353  0.5140  0.0632
  266SOL     OW 1061   3.705   1.356   0.328  0.2203  0.1601 -0.0463
  266SOL    HW2 1062   3.771   1.394   0.270  0.1338 -0.2922 -0.4390
  266SOL    HW3 1063   3.754   1.291   0.380 -0.2966 -1.5597 -1.6769
  266SOL    MW4 1064   3.720   1.353   0.327  0.1407 -0.1265 -0.3133
  267SOL     OW 1065   2.262   1.900   0.822 -0.5408  0.0057 -0.5243
  267SOL    HW2 1066   2.185   1.930   0.773  0.7095  0.6599 -2.1433
  267SOL    HW3 1067   2.324   1.972   0.814  0.1321 -0.3955  1.0363
  267SOL    MW4 1068   2.260   1.914   0.814 -0.2871  0.0391 -0.5320
  268SOL     OW 1069   2.740   1.469   0.306  0.2941  0.1009  0.6734
  268SOL    HW2 1070   2.804   1.517   0.253  0.6103  1.7823  2.4992
  268SOL    HW3 1071   2.788   1.394   0.340  0.1135 -0.9354 -1.3145
  268SOL    MW4 1072   2.754   1.465   0.304  0.3120  0.1860  0.6520
  269SOL     OW 1073   1.108   3.896   0.750  0.5252 -0.5882  0.0994
  269SOL    HW2 1074   1.071   3.808   0.741  0.7743 -0.8363  1.3845
  269SOL    HW3 1075   1.113   3.910   0.845 -0.0584  1.0377 -0.0867
  269SOL    MW4 1076   1.104   3.886   0.761  0.4811 -0.4064  0.2444
  270SOL     OW 1077   2.103   3.693   0.464  0.1623  0.2310 -0.6161
  270SOL    HW2 1078   2.104   3.622   0.400 -0.1015  0.0229 -0.3910
  270SOL    HW3 1079   2.014   3.729   0.458 -0.1395 -0.3576  0.2541
  270SOL    MW4 1080   2.091   3.688   0.455  0.0877  0.1259 -0.4716
  271SOL     OW 1081   0.613   0.412   0.281 -0.2564  0.2559  0.1776
  271SOL    HW2 1082   0.633   0.384   0.370  0.5236 -0.1692 -0.1327
  271SOL    HW3 1083   0.690   0.461   0.252 -0.7011  0.8159 -0.0921
  271SOL    MW4 1084   0.625   0.415   0.289 -0.2121  0.2737  0.1011
  272SOL     OW 1085   0.874   1.160   0.288  0.6349 -0.1731 -0.1461
  272SOL    HW2 1086   0.840   1.221   0.353  1.9075  0.2060  0.1765
  272SOL    HW3 1087   0.930   1.213   0.231 -0.2942 -0.5473 -1.4236
  272SOL    MW4 1088   0.877   1.175   0.289  0.6802 -0.1724 -0.2721
  273SOL     OW 1089   0.200   3.047   0.882  0.0548 -0.2943 -0.1490
  273SOL    HW2 1090   0.271   3.103   0.851 -0.3941 -0.2718 -1.1468
  273SOL    HW3 1091   0.187   3.073   0.973  0.5052  0.5450 -0.3236
  273SOL    MW4 1092   0.208   3.058   0.890  0.0550 -0.1806 -0.3037
  274SOL     OW 1093   0.599   4.486   0.446  0.5833  0.2149 -0.4145
  274SOL    HW2 1094   0.572   4.403   0.406  1.9772 -0.3890 -0.1749
  274SOL    HW3 1095   0.523   4.543   0.439  0.8810  0.2587 -4.2554
  274SOL    MW4 1096   0.586   4.482   0.440  0.8065  0.1410 -0.8896
  275SOL     OW 1097   0.233   4.258   0.320  0.1573 -0.2797 -0.2451
  275SOL    HW2 1098   0.165   4.241   0.256  0.0958  0.6741 -0.4420
  275SOL    HW3 1099   0.254   4.172   0.357 -1.1886 -0.5646 -0.1339
  275SOL    MW4 1100   0.227   4.245   0.316 -0.0284 -0.1915 -0.2564
  276SOL     OW 1101   3.204   3.933   0.446  0.0485 -0.0060  0.1161
  276SOL    HW2 1102   3.131   3.889   0.402 -0.7363  1.0540  0.3431
  276SOL    HW3 1103   3.281   3.881   0.422 -0.6502 -0.6099 -0.8540
  276SOL    MW4 1104   3.205   3.920   0.437 -0.1472  0.0541  0.0181
  277SOL     OW 1105   3.137   1.999   0.848  0.0420  0.3757 -0.0076
  277SOL    HW2 1106   3.145   1.996   0.943 -0.0472  1.0894  0.0308
  277SOL    HW3 1107   3.149   1.909   0.819  0.8631  0.2789  0.6190
  277SOL    MW4 1108   3.140   1.987   0.857  0.1386  0.4571  0.0801
  278SOL     OW 1109   3.824   2.015   0.693  0.0405  0.1991 -0.1582
  278SOL    HW2 1110   3.842   2.020   0.599  0.6980 -0.1705 -0.0496
  278SOL    HW3 1111   3.796   2.103   0.717  1.7898  0.7912 -0.2944
  278SOL    MW4 1112   3.822   2.027   0.684  0.3580  0.2284 -0.1618
  279SOL     OW 1113   3.851   0.738   0.860  0.1396 -0.2775 -0.2521
  279SOL    HW2 1114   3.832   0.648   0.836  0.0265 -0.4800  0.5879
  279SOL    HW3 1115   3.834   0.742   0.954  0.7288  0.4668 -0.1750
  279SOL    MW4 1116   3.846   0.727   0.869  0.2024 -0.2061 -0.1311
  280SOL     OW 1117   1.628   2.278   0.834  0.4570  0.3462 -0.0139
  280SOL    HW2 1118   1.696   2.342   0.813  1.5587 -0.5161  0.9063
  280SOL    HW3 1119   1.548   2.315   0.796  1.1923  1.9868  0.0039
  280SOL    MW4 1120   1.626   2.291   0.826  0.6994  0.4489  0.1098
  281SOL     OW 1121   2.702   1.663   0.749 -0.0065 -0.3113 -0.0869
  281SOL    HW2 1122   2.637   1.607   0.791  0.7485 -1.0574  0.1091
  281SOL    HW3 1123   2.687   1.653   0.656 -0.0323 -0.6452 -0.0455
  281SOL    MW4 1124   2.692   1.654   0.743  0.0897 -0.4538 -0.0556
  282SOL     OW 1125   2.457   3.635   0.763  0.1370  0.0831  0.0064
  282SOL    HW2 1126   2.470   3.634   0.668  0.7187  0.6479  0.0764
  282SOL    HW3 1127   2.473   3.726   0.788 -0.3273  0.0010  0.6048
  282SOL    MW4 1128   2.461   3.647   0.754  0.1525  0.1468  0.0946
  283SOL     OW 1129   0.630   3.526   0.462 -0.6998  0.1708  0.1577
  283SOL    HW2 1130   0.704   3.552   0.407 -1.9826  0.4261 -1.4836
  283SOL    HW3 1131   0.666   3.523   0.551  1.4196 -0.2673 -0.6790
  283SOL    MW4 1132   0.644   3.529   0.467 -0.5894  0.1467 -0.1692
  284SOL     OW 1133   0.900   0.101   0.752  0.0954  0.7157  0.4770
  284SOL    HW2 1134   0.827   0.060   0.798  0.0042 -0.9813 -1.1031
  284SOL    HW3 1135   0.977   0.050   0.781  0.3119  0.9354  0.2878
  284SOL    MW4 1136   0.901   0.089   0.762  0.1119  0.5208  0.2435
  285SOL     OW 1137   4.301   0.774   0.880 -0.3105  0.0592  0.2396
  285SOL    HW2 1138   4.241   0.844   0.855 -0.6149 -0.0396  0.6807
  285SOL    HW3 1139   4.387   0.806   0.853 -0.6312 -0.0561 -0.9163
  285SOL    MW4 1140   4.304   0.788   0.873 -0.3930  0.0309  0.1453
  286SOL     OW 1141   0.661   2.787   0.742  0.0941 -0.2649  0.2423
  286SOL    HW2 1142   0.579   2.767   0.787 -0.2370  0.6587  0.0508
  286SOL    HW3 1143   0.724   2.726   0.780 -0.2753  0.2336  1.6945
  286SOL    MW4 1144   0.659   2.776   0.753  0.0017 -0.0773  0.4086
  287SOL     OW 1145   3.258   2.503   0.561  0.2135 -0.2896 -0.0873
  287SOL    HW2 1146   3.272   2.588   0.519  2.5029 -0.6517 -0.1308
  287SOL    HW3 1147   3.329   2.448   0.527 -0.2192 -1.7170  1.2663
  287SOL    MW4 1148   3.269   2.507   0.551  0.4585 -0.5257  0.0855
  288SOL     OW 1149   4.056   2.419   0.457 -0.0967 -0.6047 -0.2931
  288SOL    HW2 1150   4.150   2.410   0.439 -0.3663 -0.2240 -1.9690
  288SOL    HW3 1151   4.038   2.512   0.441 -0.5731 -0.4680  0.9848
  288SOL    MW4 1152   4.066   2.430   0.453 -0.1951 -0.5364 -0.3456
  289SOL     OW 1153   3.892   4.308   0.729 -0.1434 -0.2100  0.2416
  289SOL    HW2 1154   3.975   4.283   0.770  0.0619  0.0172 -0.0296
  289SOL    HW3 1155   3.904   4.288   0.636 -0.3253 -0.0106  0.1728
  289SOL    MW4 1156   3.904   4.302   0.722 -0.1403 -0.1537  0.1967
  290SOL     OW 1157   2.922   0.941   0.454  0.5905  0.5807  0.2818
  290SOL    HW2 1158   3.003   0.893   0.434  1.4016  2.1576 -0.2432
  290SOL    HW3 1159   2.908   0.925   0.547  0.4826 -1.2193 -0.0119
  290SOL    MW4 1160   2.931   0.932   0.464  0.6833  0.5513  0.1738
  291SOL     OW 1161   2.030   2.307   0.789 -0.0367  0.1127 -0.4030
  291SOL    HW2 1162   2.115   2.339   0.761  0.3800 -0.4398  0.2260
  291SOL    HW3 1163   2.039   2.295   0.883 -0.6442 -0.4677 -0.4181
  291SOL    MW4 1164   2.042   2.310   0.798 -0.0619 -0.0367 -0.3220
  292SOL     OW 1165   1.590   3.931   0.891  0.3460 -0.0515  0.2335
  292SOL    HW2 1166   1.516   3.972   0.845 -0.6758 -1.5453  0.4992
  292SOL    HW3 1167   1.668   3.964   0.845 -0.4758  1.5337 -0.0618
  292SOL    MW4 1168   1.590   3.941   0.879  0.1027 -0.0395  0.2296
  293SOL     OW 1169   4.075   0.600   0.369 -0.7487  0.4296  0.1281
  293SOL    HW2 1170   4.097   0.619   0.277  0.5911 -0.0210  0.3380
  293SOL    HW3 1171   4.141   0.536   0.396  0.7405  2.7606  2.2641
  293SOL    MW4 1172   4.087   0.594   0.360 -0.3755  0.6777  0.4376
  294SOL     OW 1173   3.379   0.539   0.743 -0.1151 -0.5010  0.1413
  294SOL    HW2 1174   3.385   0.618   0.797  0.5872  0.5221 -1.4100
  294SOL    HW3 1175   3.447   0.481   0.778  0.9751  0.5300 -0.2335
  294SOL    MW4 1176   3.389   0.541   0.755  0.1214 -0.2300 -0.1128
  295SOL     OW 1177   0.079   1.482   0.448 -0.5050  0.1302  0.0115
  295SOL    HW2 1178  -0.006   1.443   0.428 -1.6030  1.6043  1.6542
  295SOL    HW3 1179   0.074   1.570   0.409  0.5498 -0.0404 -0.5212
  295SOL    MW4 1180   0.067   1.488   0.440 -0.5107  0.3022  0.1580
  296SOL     OW 1181   3.587   1.667   0.514  0.1928  0.1311 -0.3169
  296SOL    HW2 1182   3.553   1.581   0.489 -0.7345  0.1470  0.8377
  296SOL    HW3 1183   3.579   1.669   0.609 -0.9305  1.9710 -0.4207
  296SOL    MW4 1184   3.581   1.656   0.523 -0.0777  0.3760 -0.1783
  297SOL     OW 1185   1.132   1.966   0.519 -0.2569  0.2630  0.6157
  297SOL    HW2 1186   1.154   2.040   0.462  0.7151  0.3263  1.0691
  297SOL    HW3 1187   1.162   1.993   0.606  1.3408 -1.2094  0.5410
  297SOL    MW4 1188   1.139   1.980   0.523  0.0822  0.0771  0.6656
  298SOL     OW 1189   1.543   1.050   0.374 -0.1956 -0.0512 -0.0593
  298SOL    HW2 1190   1.611   1.036   0.440  0.1390 -0.2963 -0.4558
  298SOL    HW3 1191   1.523   0.963   0.342  0.0099  0.1221 -0.6534
  298SOL    MW4 1192   1.549   1.037   0.379 -0.1243 -0.0607 -0.1900
  299SOL     OW 1193   2.048   1.250   0.719 -0.3164 -0.1802  0.4633
  299SOL    HW2 1194   2.122   1.190   0.729 -1.1574 -1.3401 -0.2044
  299SOL    HW3 1195   2.050   1.275   0.627 -0.1839  0.5755  0.6591
  299SOL    MW4 1196   2.058   1.246   0.708 -0.4099 -0.2335  0.4010
  300SOL     OW 1197   2.596   1.909   0.356  0.1906 -0.1226  0.0875
  300SOL    HW2 1198   2.532   1.971   0.391  0.1696  1.1417 -2.1108
  300SOL    HW3 1199   2.679   1.956   0.359  0.7744 -1.2067  1.4837
  300SOL    MW4 1200   2.599   1.923   0.361  0.2649 -0.0989 -0.0184
  301SOL     OW 1201   2.114   4.108   0.316  0.4123  0.4407 -0.0047
  301SOL    HW2 1202   2.187   4.124   0.255  2.1370  1.4796  2.2394
  301SOL    HW3 1203   2.105   4.190   0.363 -1.3107 -0.1591  0.7267
  301SOL    MW4 1204   2.123   4.121   0.314  0.4125  0.4986  0.3879
  302SOL     OW 1205   2.380   4.144   0.228 -0.0012 -0.6725  0.2862
  302SOL    HW2 1206   2.451   4.150   0.292 -0.0577  0.0634  0.2812
  302SOL    HW3 1207   2.419   4.175   0.146 -0.3456 -0.2077  0.2965
  302SOL    MW4 1208   2.394   4.149   0.225 -0.0541 -0.5141  0.2869
  303SOL     OW 1209   4.060   0.373   0.832  0.2423  0.0802  0.2086
  303SOL    HW2 1210   3.973   0.411   0.821 -0.0716 -0.7405 -0.2596
  303SOL    HW3 1211   4.047   0.280   0.811  1.3063  0.0286 -0.2176
  303SOL    MW4 1212   4.047   0.365   0.828  0.3413 -0.0348  0.0906
  304SOL     OW 1213   4.473   0.388   0.821 -0.2920  0.2164 -0.1814
  304SOL    HW2 1214   4.399   0.440   0.791 -1.3140 -0.0265  1.8789
  304SOL    HW3 1215   4.468   0.390   0.917  1.8913 -0.4661 -0.0108
  304SOL    MW4 1216   4.463   0.395   0.830 -0.1388  0.0943  0.1130
  305SOL     OW 1217   2.454   2.101   0.752 -0.2643  0.2382  0.4605
  305SOL    HW2 1218   2.531   2.049   0.775 -1.1384 -0.5230  1.7601
  305SOL    HW3 1219   2.456   2.105   0.657  1.8143  0.9259  0.5082
  305SOL    MW4 1220   2.464   2.094   0.743 -0.1054  0.2285  0.6383
  306SOL     OW 1221   0.018   1.904   0.823  0.0282  0.1834  0.7096
  306SOL    HW2 1222   0.084   1.962   0.785  0.3785 -0.2011  0.7316
  306SOL    HW3 1223   0.015   1.829   0.763 -0.7482  0.4258  0.4296
  306SOL    MW4 1224   0.026   1.901   0.810 -0.0280  0.1647  0.6756
  307SOL     OW 1225   2.034   0.820   0.258  0.1545  0.3155 -0.2658
  307SOL    HW2 1226   1.951   0.801   0.303  0.7010 -0.3257  0.4648
  307SOL    HW3 1227   2.033   0.915   0.247 -0.1226  0.4402  0.8131
  307SOL    MW4 1228   2.023   0.830   0.262  0.1900  0.2473 -0.0271
  308SOL     OW 1229   1.838   1.156   0.859  0.9757 -0.1290  0.4496
  308SOL    HW2 1230   1.767   1.197   0.809  1.1279 -1.2540 -0.7301
  308SOL    HW3 1231   1.918   1.182   0.813  1.2082 -0.1629  0.8326
  308SOL    MW4 1232   1.839   1.165   0.846  1.0265 -0.2819  0.3445
  309SOL     OW 1233   2.336   1.707   0.465  0.5243 -0.2702  0.5063
  309SOL    HW2 1234   2.431   1.705   0.454  0.4920 -2.7769  0.4069
  309SOL    HW3 1235   2.322   1.690   0.558  0.1912  1.7098  0.8449
  309SOL    MW4 1236   2.347   1.705   0.475  0.4761 -0.3397  0.5378
  310SOL     OW 1237   2.721   3.198   0.467 -0.1716 -0.8032  0.4381
  310SOL    HW2 1238   2.786   3.178   0.399 -0.6184 -0.2121 -0.1624
  310SOL    HW3 1239   2.640   3.156   0.437 -0.6922  0.5147 -0.0113
  310SOL    MW4 1240   2.719   3.190   0.454 -0.2993 -0.5513  0.2996
  311SOL     OW 1241   0.763   1.332   0.472 -0.2633 -0.2630 -0.2454
  311SOL    HW2 1242   0.739   1.301   0.559 -0.5120 -1.2955 -0.6804
  311SOL    HW3 1243   0.689   1.386   0.445 -0.0113  0.3859  0.3414
  311SOL    MW4 1244   0.750   1.335   0.480 -0.2629 -0.3136 -0.2254
  312SOL     OW 1245   3.354   2.129   0.728 -0.0312  0.3728  0.2382
  312SOL    HW2 1246   3.273   2.078   0.729 -0.0176  0.3475  0.1213
  312SOL    HW3 1247   3.332   2.210   0.773 -0.0948  0.3264  0.2917
  312SOL    MW4 1248   3.340   2.133   0.734 -0.0378  0.3633  0.2299
  313SOL     OW 1249   4.269   0.544   0.723  0.3766  0.0063  0.1943
  313SOL    HW2 1250   4.270   0.628   0.769 -0.2853 -0.0946  0.3854
  313SOL    HW3 1251   4.197   0.496   0.762  0.7167 -0.6304  0.0373
  313SOL    MW4 1252   4.260   0.549   0.734  0.3341 -0.0910  0.1988
  314SOL     OW 1253   0.527   4.250   0.295  0.0478 -0.4005  0.0469
  314SOL    HW2 1254   0.434   4.252   0.273  0.0152 -0.9140  0.1215
  314SOL    HW3 1255   0.543   4.160   0.323  0.3549 -0.0788  0.9405
  314SOL    MW4 1256   0.517   4.238   0.296  0.0840 -0.4258  0.1746
  315SOL     OW 1257   1.967   2.053   0.434  0.1429 -0.1109 -0.1442
  315SOL    HW2 1258   1.872   2.053   0.421  0.2031  0.5201 -0.6588
  315SOL    HW3 1259   1.998   1.977   0.385 -0.2553 -1.2564  1.3616
  315SOL    MW4 1260   1.959   2.043   0.426  0.0983 -0.1788 -0.0134
  316SOL     OW 1261   0.226   2.201   0.503 -0.2322  0.1051  0.2140
  316SOL    HW2 1262   0.311   2.243   0.504  0.4114 -1.1971  1.1312
  316SOL    HW3 1263   0.220   2.155   0.586 -1.4746 -0.5096 -0.1953
  316SOL    MW4 1264   0.236   2.200   0.514 -0.3112 -0.1478  0.2810
  317SOL     OW 1265   4.465   2.692   0.885 -0.0149 -0.3530 -0.2986
  317SOL    HW2 1266   4.477   2.600   0.865  0.4505 -0.1807 -0.8279
  317SOL    HW3 1267   4.480   2.698   0.980 -0.4012 -0.8720 -0.2054
  317SOL    MW4 1268   4.469   2.681   0.895 -0.0045 -0.3988 -0.3561
  318SOL     OW 1269   4.263   3.474   0.320 -0.0206  0.6147 -0.1003
  318SOL    HW2 1270   4.315   3.498   0.244 -0.6780 -0.3605 -0.8668
  318SOL    HW3 1271   4.304   3.521   0.393  1.8350  0.0032 -0.7227
  318SOL    MW4 1272   4.276   3.483   0.320  0.1375  0.4054 -0.2836
  319SOL     OW 1273   0.235   3.850   0.788  0.1123  0.0629 -0.4362
  319SOL    HW2 1274   0.305   3.905   0.751 -0.4399  1.3927  0.4617
  319SOL    HW3 1275   0.245   3.860   0.883 -1.4948  0.5358 -0.3014
  319SOL    MW4 1276   0.246   3.859   0.796 -0.1726  0.3007 -0.3000
  320SOL     OW 1277   4.463   3.167   0.764 -0.2356  0.3642  0.2957
  320SOL    HW2 1278   4.394   3.114   0.804 -0.2234 -0.3924 -0.6503
  320SOL    HW3 1279   4.543   3.114   0.775 -0.2773  0.0389 -0.9195
  320SOL    MW4 1280   4.465   3.153   0.771 -0.2395  0.2214  0.0105
  321SOL     OW 1281   2.480   1.482   0.836 -0.8515  0.3393 -0.1365
  321SOL    HW2 1282   2.457   1.405   0.785 -0.9942  0.4006 -0.1664
  321SOL    HW3 1283   2.417   1.549   0.807  0.1278  0.8609 -1.0964
  321SOL    MW4 1284   2.468   1.481   0.825 -0.7411  0.4162 -0.2671
  322SOL     OW 1285   0.010   3.423   0.857  0.1379  0.5282 -0.1836
  322SOL    HW2 1286   0.018   3.332   0.827 -0.3559 -0.2102  1.8654
  322SOL    HW3 1287   0.079   3.469   0.809 -0.0493 -0.7742 -1.7660
  322SOL    MW4 1288   0.021   3.417   0.846  0.0480  0.2589 -0.1221
  323SOL     OW 1289   4.408   2.824   0.489  0.4699 -0.2365  0.5669
  323SOL    HW2 1290   4.420   2.914   0.459  0.5976 -0.5178 -0.2309
  323SOL    HW3 1291   4.496   2.793   0.509  0.4374 -0.2199  0.7367
  323SOL    MW4 1292   4.421   2.831   0.488  0.4825 -0.2714  0.4840
  324SOL     OW 1293   4.254   4.641   0.859  0.1342  0.1755  0.1872
  324SOL    HW2 1294   4.333   4.688   0.833 -0.3159  0.5213 -0.5608
  324SOL    HW3 1295   4.267   4.622   0.952  0.7262  0.9606  0.2679
  324SOL    MW4 1296   4.266   4.645   0.868  0.1529  0.3247  0.0992
  325SOL     OW 1297   2.482   3.097   0.777  0.3915  0.3569 -0.0224
  325SOL    HW2 1298   2.566   3.133   0.749 -0.0599  1.3212 -0.1716
  325SOL    HW3 1299   2.470   3.130   0.866  0.7887 -0.8723  0.4834
  325SOL    MW4 1300   2.491   3.106   0.785  0.3844  0.3219  0.0247
  326SOL     OW 1301   0.457   0.149   0.668  0.2718 -0.4826  0.3905
  326SOL    HW2 1302   0.380   0.117   0.714 -0.0576 -0.4289 -0.1164
  326SOL    HW3 1303   0.531   0.113   0.717 -0.0695 -0.3275  1.0246
  326SOL    MW4 1304   0.457   0.140   0.680  0.1833 -0.4550  0.4073
  327SOL     OW 1305   0.837   0.595   0.294  0.3263 -0.3911 -0.2091
  327SOL    HW2 1306   0.910   0.583   0.354  0.9474 -0.9859 -1.0732
  327SOL    HW3 1307   0.814   0.687   0.303  1.5572 -0.0598 -0.3626
  327SOL    MW4 1308   0.844   0.605   0.303  0.5707 -0.4259 -0.3434
  328SOL     OW 1309   0.466   0.406   0.820 -0.7665  0.4105 -0.6292
  328SOL    HW2 1310   0.475   0.324   0.772 -0.0384 -1.0102  1.8998
  328SOL    HW3 1311   0.551   0.450   0.809  0.7385 -1.6226  2.4138
  328SOL    MW4 1312   0.479   0.401   0.812 -0.4718 -0.0452  0.1059
  329SOL     OW 1313   2.679   0.055   0.704  0.1031 -0.2747  0.4623
  329SOL    HW2 1314   2.591   0.054   0.741 -0.2462 -1.1551 -0.3590
  329SOL    HW3 1315   2.732   0.006   0.767 -0.2135 -0.6172  0.4661
  329SOL    MW4 1316   2.675   0.048   0.717  0.0152 -0.4360  0.3544
  330SOL     OW 1317   0.894   1.156   0.838  0.3029 -0.4085 -0.7031
  330SOL    HW2 1318   0.888   1.066   0.808 -2.4422 -0.9936  1.4108
  330SOL    HW3 1319   0.819   1.200   0.799 -0.7591 -0.1043  1.5589
  330SOL    MW4 1320   0.884   1.150   0.829 -0.1994 -0.4456 -0.1258
  331SOL     OW 1321   3.829   0.515   0.489 -0.2384  0.2031 -0.0422
  331SOL    HW2 1322   3.899   0.560   0.443 -0.5761  0.4282 -0.3379
  331SOL    HW3 1323   3.756   0.576   0.489 -0.1561  0.3195  1.0446
  331SOL    MW4 1324   3.829   0.529   0.483 -0.2721  0.2482  0.0622
  332SOL     OW 1325   0.450   0.888   0.741  0.1556  0.1626 -0.3484
  332SOL    HW2 1326   0.384   0.841   0.793 -0.0830 -0.3859 -1.1421
  332SOL    HW3 1327   0.401   0.929   0.671  0.2169  2.5475  0.9676
  332SOL    MW4 1328   0.435   0.887   0.739  0.1322  0.4049 -0.2795
  333SOL     OW 1329   3.061   2.176   0.381  0.5397  0.1576  0.4587
  333SOL    HW2 1330   3.123   2.219   0.322  0.5456  1.6034  1.4877
  333SOL    HW3 1331   3.047   2.239   0.451 -1.4777 -0.4729  0.6598
  333SOL    MW4 1332   3.067   2.190   0.382  0.2743  0.2652  0.6210
  334SOL     OW 1333   2.327   2.675   0.416 -0.3548  0.2724 -0.4674
  334SOL    HW2 1334   2.241   2.694   0.452  1.2295  1.4580  2.9675
  334SOL    HW3 1335   2.334   2.580   0.418 -1.7587  0.1532 -1.2271
  334SOL    MW4 1336   2.317   2.665   0.421 -0.3310  0.4131 -0.1144
  335SOL     OW 1337   0.469   1.718   0.747  0.2834 -0.2421  0.1507
  335SOL    HW2 1338   0.477   1.804   0.790  0.5913 -0.8178  1.2593
  335SOL    HW3 1339   0.532   1.662   0.793 -0.1416 -1.1524 -0.3611
  335SOL    MW4 1340   0.479   1.722   0.759  0.2679 -0.4381  0.2294
  336SOL     OW 1341   2.059   2.316   0.383  0.0956 -0.0082 -0.2326
  336SOL    HW2 1342   2.136   2.322   0.439  1.2332 -0.2561 -1.7458
  336SOL    HW3 1343   2.042   2.223   0.373 -0.8919  0.0521  0.7276
  336SOL    MW4 1344   2.067   2.305   0.389  0.1154 -0.0330 -0.3055
  337SOL     OW 1345   1.190   1.277   0.542 -0.0097  0.0135  0.2231
  337SOL    HW2 1346   1.165   1.294   0.633  0.0022  0.7195  0.1016
  337SOL    HW3 1347   1.137   1.201   0.516  0.3137 -0.4624  0.9551
  337SOL    MW4 1348   1.179   1.270   0.550  0.0345  0.0439  0.3036
  338SOL     OW 1349   1.808   3.964   0.733 -0.0102  0.8880 -0.4805
  338SOL    HW2 1350   1.882   3.916   0.769 -0.5592  0.3814 -0.0196
  338SOL    HW3 1351   1.825   4.055   0.757  0.2342  0.7146  0.0062
  338SOL    MW4 1352   1.820   3.970   0.741 -0.0504  0.7983 -0.3555
  339SOL     OW 1353   0.657   3.828   0.771 -0.0899 -0.1890  0.4958
  339SOL    HW2 1354   0.727   3.882   0.736  0.3080 -1.2079 -0.3062
  339SOL    HW3 1355   0.577   3.867   0.736  0.2545 -0.7155 -0.9280
  339SOL    MW4 1356   0.656   3.840   0.762  0.0081 -0.3929  0.2021
  340SOL     OW 1357   0.469   2.663   0.234  0.4423 -0.1495 -0.1665
  340SOL    HW2 1358   0.425   2.723   0.294 -0.2311 -0.9405  0.1345
  340SOL    HW3 1359   0.468   2.708   0.150 -0.2714  0.1606  0.0076
  340SOL    MW4 1360   0.463   2.677   0.231  0.2593 -0.2130 -0.1038
  341SOL     OW 1361   1.296   2.671   0.349  0.3433  1.0611 -0.1645
  341SOL    HW2 1362   1.319   2.758   0.381  0.0507  0.9603  0.3269
  341SOL    HW3 1363   1.376   2.637   0.309  1.0638  0.6965  1.5426
  341SOL    MW4 1364   1.309   2.678   0.348  0.3997  0.9997  0.1256
  342SOL     OW 1365   1.610   3.712   0.462 -0.3265 -0.3703 -0.4040
  342SOL    HW2 1366   1.700   3.742   0.451 -0.1502 -0.8198 -0.1959
  342SOL    HW3 1367   1.595   3.714   0.557  0.0997 -2.1149 -0.2801
  342SOL    MW4 1368   1.620   3.716   0.473 -0.2470 -0.6598 -0.3602
  343SOL     OW 1369   2.495   3.894   0.853 -0.1565  0.2477  0.2792
  343SOL    HW2 1370   2.435   3.950   0.802 -0.2905 -0.1582 -0.0118
  343SOL    HW3 1371   2.582   3.915   0.819 -0.3707 -1.0841 -1.1522
  343SOL    MW4 1372   2.498   3.904   0.841 -0.2025  0.0184  0.0519
  344SOL     OW 1373   0.229   3.573   0.719 -0.2319  0.6144 -0.0155
  344SOL    HW2 1374   0.234   3.666   0.744  0.4530  0.8991 -1.1776
  344SOL    HW3 1375   0.205   3.574   0.626 -0.5833 -0.3899  0.0568
  344SOL    MW4 1376   0.226   3.586   0.710 -0.1879  0.5194 -0.1592
  345SOL     OW 1377   3.433   4.296   0.493  0.2983  0.2238 -0.6655
  345SOL    HW2 1378   3.438   4.389   0.468  2.4193  0.1973 -0.3941
  345SOL    HW3 1379   3.511   4.257   0.455  0.7680 -0.9182  1.4115
  345SOL    MW4 1380   3.444   4.303   0.485  0.6401  0.0696 -0.3556
  346SOL     OW 1381   1.014   4.150   0.353  0.1058 -0.0873 -0.1151
  346SOL    HW2 1382   1.091   4.106   0.316 -0.3304 -0.9293 -0.0186
  346SOL    HW3 1383   0.964   4.179   0.276  0.2447 -0.0087 -0.1774
  346SOL    MW4 1384   1.018   4.148   0.338  0.0666 -0.1880 -0.1106
  347SOL     OW 1385   1.849   0.864   0.752 -0.2680  0.4408 -0.1423
  347SOL    HW2 1386   1.842   0.950   0.794 -1.3201  0.2659  0.0469
  347SOL    HW3 1387   1.764   0.823   0.767  0.1567 -0.5507 -0.4264
  347SOL    MW4 1388   1.837   0.870   0.760 -0.3508  0.2869 -0.1548
  348SOL     OW 1389   0.437   4.235   0.799  0.1927 -0.1026  0.1829
  348SOL    HW2 1390   0.442   4.221   0.893 -1.3141 -1.4822  0.0957
  348SOL    HW3 1391   0.355   4.284   0.787  1.0441  1.2285 -0.3074
  348SOL    MW4 1392   0.427   4.240   0.810  0.1062 -0.1090  0.1067
  349SOL     OW 1393   4.422   0.234   0.304  0.4564 -0.1134 -0.2342
  349SOL    HW2 1394   4.504   0.278   0.281 -0.1155  0.3246 -1.5121
  349SOL    HW3 1395   4.364   0.305   0.333  0.2408 -0.2920 -0.2252
  349SOL    MW4 1396   4.425   0.249   0.305  0.3525 -0.0792 -0.4016
  350SOL     OW 1397   0.840   3.948   0.409  0.1195 -0.2486 -0.0693
  350SOL    HW2 1398   0.836   3.972   0.502  1.1760 -0.5374  0.0516
  350SOL    HW3 1399   0.907   4.005   0.372 -0.7779  0.3430 -0.8132
  350SOL    MW4 1400   0.848   3.959   0.416  0.1405 -0.2087 -0.1515
  351SOL     OW 1401   0.677   3.059   0.834 -0.2043  0.0140  0.5747
  351SOL    HW2 1402   0.752   3.083   0.779 -0.0039 -1.3886  0.2161
  351SOL    HW3 1403   0.653   2.971   0.805 -2.2964  0.6279  0.3728
  351SOL    MW4 1404   0.684   3.051   0.823 -0.4539 -0.0901  0.5008
  352SOL     OW 1405   4.249   2.659   0.323  0.4613 -0.0115 -0.2993
  352SOL    HW2 1406   4.307   2.729   0.351  1.0100 -0.3052 -0.6889
  352SOL    HW3 1407   4.296   2.579   0.346  0.9994 -0.2530 -2.1941
  352SOL    MW4 1408   4.263   2.658   0.330  0.6047 -0.0821 -0.6007
  353SOL     OW 1409   1.451   3.957   0.452  0.0150 -0.1110  0.1356
  353SOL    HW2 1410   1.509   4.027   0.423  0.7552  0.2674  2.4236
  353SOL    HW3 1411   1.503   3.877   0.445 -0.1282 -0.1540 -0.4651
  353SOL    MW4 1412   1.465   3.956   0.448  0.0938 -0.0668  0.3583
  354SOL     OW 1413   0.593   1.740   0.503  0.2703 -0.1838  0.1496
  354SOL    HW2 1414   0.654   1.813   0.512 -0.2188  0.3934 -1.0075
  354SOL    HW3 1415   0.529   1.753   0.572  0.4770  0.1911  0.2694
  354SOL    MW4 1416   0.593   1.751   0.513  0.2330 -0.0582  0.0127
  355SOL     OW 1417   4.022   1.588   0.461  0.1197  0.2091  0.4463
  355SOL    HW2 1418   4.032   1.511   0.405 -0.4331  0.6330 -0.2420
  355SOL    HW3 1419   3.935   1.622   0.440  0.1771  0.7622  1.0778
  355SOL    MW4 1420   4.012   1.582   0.451  0.0543  0.3380  0.4388
  356SOL     OW 1421   0.691   0.804   0.850  0.1297 -0.2507  0.2237
  356SOL    HW2 1422   0.598   0.821   0.836  0.0927 -1.2448 -0.7849
  356SOL    HW3 1423   0.703   0.712   0.827  1.2598 -0.2806  0.8806
  356SOL    MW4 1424   0.681   0.794   0.845  0.2739 -0.3858  0.1773
  357SOL     OW 1425   2.778   2.751   0.288  0.0089 -0.0678  0.1404
  357SOL    HW2 1426   2.824   2.671   0.312  2.8565  1.0258 -1.3824
  357SOL    HW3 1427   2.750   2.737   0.198 -0.5053  0.2278  0.2510
  357SOL    MW4 1428   2.781   2.739   0.280  0.3167  0.1155 -0.0459
  358SOL     OW 1429   4.351   2.410   0.394 -0.0988  0.0726 -0.1101
  358SOL    HW2 1430   4.426   2.417   0.453  0.0930 -0.4808 -0.2788
  358SOL    HW3 1431   4.363   2.325   0.351 -0.8549 -0.0435 -0.0958
  358SOL    MW4 1432   4.362   2.400   0.396 -0.1732 -0.0157 -0.1305
  359SOL     OW 1433   0.480   1.161   0.859 -0.4452 -0.3903 -0.3352
  359SOL    HW2 1434   0.472   1.072   0.824  0.7162  0.0137 -1.6980
  359SOL    HW3 1435   0.400   1.205   0.829 -1.6927 -1.3450  1.5322
  359SOL    MW4 1436   0.469   1.155   0.850 -0.4565 -0.4629 -0.2686
  360SOL     OW 1437   3.878   1.169   0.455 -0.1733 -0.0673 -0.3105
  360SOL    HW2 1438   3.885   1.074   0.448 -1.1361 -0.1222 -0.5820
  360SOL    HW3 1439   3.872   1.185   0.550  2.4064 -0.0803 -0.1051
  360SOL    MW4 1440   3.878   1.159   0.467  0.0400 -0.0762 -0.3192
  361SOL     OW 1441   3.189   4.223   0.375 -0.3649  0.0083 -0.3501
  361SOL    HW2 1442   3.172   4.132   0.401  0.2410 -0.2861 -0.9637
  361SOL    HW3 1443   3.272   4.245   0.416 -0.1264  0.0265 -0.8413
  361SOL    MW4 1444   3.198   4.214   0.384 -0.2535 -0.0281 -0.4959
  362SOL     OW 1445   4.278   4.121   0.337 -0.0977 -0.7273 -0.0781
  362SOL    HW2 1446   4.211   4.055   0.353  0.7305 -1.1797  1.6437
  362SOL    HW3 1447   4.246   4.199   0.383  0.3693 -0.8346  0.4309
  362SOL    MW4 1448   4.265   4.123   0.345  0.0732 -0.8012  0.2163
  363SOL     OW 1449   0.724   0.515   0.746  0.0719  0.3547 -0.2850
  363SOL    HW2 1450   0.797   0.470   0.789 -0.7325 -0.7171  0.0011
  363SOL    HW3 1451   0.702   0.458   0.672  0.2789  1.2629 -1.0447
  363SOL    MW4 1452   0.730   0.501   0.742 -0.0069  0.3331 -0.3475
  364SOL     OW 1453   1.106   0.209   0.105  0.0003  0.4458 -0.3713
  364SOL    HW2 1454   1.186   0.187   0.057  0.3280  0.7168  0.0452
  364SOL    HW3 1455   1.083   0.297   0.076 -0.3645  0.2178 -0.7785
  364SOL    MW4 1456   1.113   0.218   0.095 -0.0046  0.4514 -0.3701
  365SOL     OW 1457   2.699   0.362   1.061  0.4739  0.4808  0.2277
  365SOL    HW2 1458   2.686   0.269   1.078  0.2334  0.5795  0.5977
  365SOL    HW3 1459   2.629   0.405   1.110  0.3599  0.8340 -0.2376
  365SOL    MW4 1460   2.688   0.355   1.069  0.4271  0.5404  0.2151
  366SOL     OW 1461   0.410   3.159   0.749 -0.2938  0.4207  0.0365
  366SOL    HW2 1462   0.424   3.253   0.758  0.3482  0.1698  1.8786
  366SOL    HW3 1463   0.497   3.121   0.753 -0.5716 -0.2849 -0.4139
  366SOL    MW4 1464   0.423   3.166   0.751 -0.2458  0.2945  0.2201
  367SOL     OW 1465   1.287   1.744   0.449  0.2106  0.3839 -0.2045
  367SOL    HW2 1466   1.229   1.820   0.457 -1.4868 -1.1040  2.2715
  367SOL    HW3 1467   1.229   1.671   0.428  1.6551 -0.5088 -1.2138
  367SOL    MW4 1468   1.272   1.745   0.447  0.1772  0.0698 -0.0110
  368SOL     OW 1469   0.575   3.990   0.338  0.1696 -0.3171  0.1500
  368SOL    HW2 1470   0.554   3.900   0.316  0.7864 -0.2889 -0.5689
  368SOL    HW3 1471   0.667   3.989   0.363  0.2997  0.1922 -0.3021
  368SOL    MW4 1472   0.584   3.978   0.339  0.2682 -0.2462 -0.0045
  369SOL     OW 1473   4.455   2.429   0.810 -0.5900  0.3382 -0.0543
  369SOL    HW2 1474   4.365   2.398   0.814 -0.5763  0.1183 -1.2490
  369SOL    HW3 1475   4.474   2.436   0.716  0.9049 -0.3984  0.1761
  369SOL    MW4 1476   4.446   2.426   0.798 -0.3910  0.2120 -0.1816
  370SOL     OW 1477   1.380   4.264   0.837  0.1748  0.4231  0.1531
  370SOL    HW2 1478   1.453   4.315   0.803  0.0745 -1.2311 -2.7429
  370SOL    HW3 1479   1.389   4.179   0.794 -3.7263  0.3402 -0.6570
  370SOL    MW4 1480   1.391   4.259   0.827 -0.3532  0.1939 -0.3358
  371SOL     OW 1481   1.404   2.693   0.818  0.2587  0.0811  0.4560
  371SOL    HW2 1482   1.390   2.603   0.787  0.2704 -0.0934  0.9524
  371SOL    HW3 1483   1.412   2.684   0.913 -1.2870  0.7850  0.6703
  371SOL    MW4 1484   1.403   2.680   0.827  0.0563  0.1510  0.5498
  372SOL     OW 1485   1.579   0.505   0.713  0.1157 -0.0848  0.0451
  372SOL    HW2 1486   1.510   0.443   0.736  0.8965 -0.8480  0.3697
  372SOL    HW3 1487   1.576   0.510   0.618 -0.1548 -0.3813  0.0373
  372SOL    MW4 1488   1.569   0.497   0.704  0.1830 -0.2246  0.0869
  373SOL     OW 1489   0.930   0.361   0.855  0.0283  0.0634  0.0260
  373SOL    HW2 1490   0.936   0.373   0.949  0.8062  0.5871 -0.0876
  373SOL    HW3 1491   0.917   0.267   0.843 -0.1048 -0.0002  0.6477
  373SOL    MW4 1492   0.929   0.350   0.865  0.1134  0.1241  0.0930
  374SOL     OW 1493   2.084   1.809   0.352 -0.1886 -0.8091 -0.0461
  374SOL    HW2 1494   2.015   1.744   0.363 -0.9834 -0.4912 -2.8217
  374SOL    HW3 1495   2.165   1.760   0.368 -0.7346 -2.6550 -2.7109
  374SOL    MW4 1496   2.086   1.794   0.356 -0.3655 -1.0107 -0.7639
  375SOL     OW 1497   3.638   3.106   0.492 -0.1557  0.1993 -0.2791
  375SOL    HW2 1498   3.731   3.082   0.490 -0.1911  0.1084 -2.4651
  375SOL    HW3 1499   3.627   3.151   0.575  2.1530  1.3331 -0.5362
  375SOL    MW4 1500   3.649   3.109   0.503  0.1443  0.3369 -0.6014
  376SOL     OW 1501   1.572   0.010   0.857 -0.1482 -0.0167 -0.0458
  376SOL    HW2 1502   1.659   0.042   0.831 -0.8963  0.6020 -1.8490
  376SOL    HW3 1503   1.575   0.008   0.953  1.8294  0.0760 -0.0822
  376SOL    MW4 1504   1.584   0.014   0.866  0.0140  0.0771 -0.2885
  377SOL     OW 1505   1.384   0.890   0.726 -0.0554  0.3426 -0.1914
  377SOL    HW2 1506   1.369   0.954   0.658 -0.3688  0.8645  0.3653
  377SOL    HW3 1507   1.300   0.845   0.736 -0.7853  2.0464  1.6691
  377SOL    MW4 1508   1.371   0.892   0.719 -0.1931  0.6363  0.1275
  378SOL     OW 1509   1.622   0.485   0.421  0.2427 -0.0745  0.0319
  378SOL    HW2 1510   1.651   0.420   0.358 -0.1693 -1.6039  1.3569
  378SOL    HW3 1511   1.535   0.511   0.391  0.1002 -0.7050 -0.0996
  378SOL    MW4 1512   1.614   0.480   0.409  0.1695 -0.3595  0.1894
  379SOL     OW 1513   0.430   3.748   0.432  0.3023 -0.5275  0.2184
  379SOL    HW2 1514   0.471   3.811   0.491 -0.6152 -0.0960  0.3958
  379SOL    HW3 1515   0.493   3.676   0.427 -0.2385 -1.2285  2.8853
  379SOL    MW4 1516   0.444   3.747   0.439  0.1099 -0.5630  0.5936
  380SOL     OW 1517   3.585   3.401   0.425 -0.1874  0.1145  0.3943
  380SOL    HW2 1518   3.491   3.404   0.442 -0.2248 -0.4357  0.2781
  380SOL    HW3 1519   3.607   3.308   0.425  0.5621  0.2840  1.5340
  380SOL    MW4 1520   3.575   3.389   0.427 -0.0934  0.0643  0.5294
  381SOL     OW 1521   4.114   0.194   0.507  0.1388 -0.0629 -0.0205
  381SOL    HW2 1522   4.026   0.207   0.474 -0.0260  0.0310  0.4430
  381SOL    HW3 1523   4.149   0.120   0.457 -0.0567  0.1581 -0.4824
  381SOL    MW4 1524   4.107   0.186   0.496  0.0913 -0.0213 -0.0203
  382SOL     OW 1525   2.067   0.529   0.267 -0.5024  0.1791 -0.0261
  382SOL    HW2 1526   2.054   0.623   0.281  1.3532  0.6319 -1.1905
  382SOL    HW3 1527   2.154   0.512   0.302 -0.8349 -1.1277  0.1976
  382SOL    MW4 1528   2.077   0.539   0.274 -0.3015  0.0664 -0.1502
  383SOL     OW 1529   2.981   3.138   0.331 -0.0512 -0.2438  0.1823
  383SOL    HW2 1530   3.021   3.060   0.370  0.5272  0.0563  0.2035
  383SOL    HW3 1531   3.033   3.211   0.366 -1.2021  0.2333  0.9531
  383SOL    MW4 1532   2.993   3.138   0.341 -0.1267 -0.1412  0.2868
  384SOL     OW 1533   2.297   0.480   0.426  0.1412  0.4203 -0.0627
  384SOL    HW2 1534   2.275   0.569   0.453  0.8539  0.4401  0.4698
  384SOL    HW3 1535   2.392   0.480   0.418  0.1473 -0.2948 -0.0513
  384SOL    MW4 1536   2.306   0.491   0.429  0.2360  0.3285  0.0091
  385SOL     OW 1537   0.701   2.347   0.888  0.2540  0.4734  0.3357
  385SOL    HW2 1538   0.610   2.373   0.877  0.2133  0.3411  0.3662
  385SOL    HW3 1539   0.708   2.322   0.981  0.9375  3.0029  1.0227
  385SOL    MW4 1540   0.690   2.347   0.899  0.3389  0.7897  0.4304
  386SOL     OW 1541   1.899   1.595   0.463  0.6033 -0.1661  0.6540
  386SOL    HW2 1542   1.806   1.575   0.453  0.6646 -0.7993  1.2651
  386SOL    HW3 1543   1.941   1.509   0.463  1.4711  0.2160 -2.2206
  386SOL    MW4 1544   1.892   1.581   0.462  0.7259 -0.1992  0.3554
  387SOL     OW 1545   4.481   4.192   0.160 -0.1830 -0.2713 -0.0193
  387SOL    HW2 1546   4.410   4.168   0.220 -0.7438  0.6034 -0.3224
  387SOL    HW3 1547   4.443   4.261   0.105  0.6807 -0.3018 -0.6506
  387SOL    MW4 1548   4.467   4.198   0.161 -0.1430 -0.1599 -0.1426
  388SOL     OW 1549   0.067   0.860   0.500 -0.4625  0.1053  0.0041
  388SOL    HW2 1550   0.066   0.773   0.460 -1.6569  1.0000 -1.9548
  388SOL    HW3 1551   0.055   0.843   0.593 -0.5904 -1.8323 -0.3369
  388SOL    MW4 1552   0.066   0.846   0.507 -0.6369 -0.0323 -0.2994
  389SOL     OW 1553   2.959   0.759   0.901 -0.0225  0.2946 -0.2327
  389SOL    HW2 1554   2.951   0.668   0.874 -0.8361  0.1059  0.6265
  389SOL    HW3 1555   2.935   0.759   0.994  0.0192  1.3716 -0.2129
  389SOL    MW4 1556   2.955   0.747   0.910 -0.1244  0.4118 -0.1167
  390SOL     OW 1557   0.638   2.794   0.480 -0.4181 -0.1511 -0.1365
  390SOL    HW2 1558   0.645   2.702   0.456  1.5577  0.1768 -0.9681
  390SOL    HW3 1559   0.667   2.798   0.571 -1.2848 -0.4538  0.1566
  390SOL    MW4 1560   0.643   2.783   0.488 -0.2718 -0.1478 -0.2075
  391SOL     OW 1561   1.357   0.088   0.008  0.0014 -0.0632 -0.1507
  391SOL    HW2 1562   1.334   0.002   0.044 -0.0684 -0.6912 -1.6710
  391SOL    HW3 1563   1.374   0.072  -0.084  1.5369  1.2942 -0.1297
  391SOL    MW4 1564   1.356   0.075   0.001  0.1947  0.0330 -0.3485
  392SOL     OW 1565   4.072   3.453   0.872 -0.0466  0.0380  0.1824
  392SOL    HW2 1566   4.077   3.487   0.962  1.3827 -1.3446  0.6531
  392SOL    HW3 1567   4.147   3.491   0.827  0.2873 -0.7071  0.0936
  392SOL    MW4 1568   4.082   3.462   0.878  0.1860 -0.2427  0.2328
  393SOL     OW 1569   3.629   3.640   0.252 -0.5124 -0.0319  0.5032
  393SOL    HW2 1570   3.658   3.583   0.322 -0.7978  0.3239  0.9156
  393SOL    HW3 1571   3.646   3.591   0.172  1.1243  0.1248  0.7340
  393SOL    MW4 1572   3.635   3.626   0.250 -0.3341  0.0357  0.5881
  394SOL     OW 1573   1.595   3.879   1.184 -0.0119  0.3072  0.0570
  394SOL    HW2 1574   1.596   3.884   1.089  0.7490  1.5361  0.1155
  394SOL    HW3 1575   1.513   3.920   1.210 -0.4879 -0.5450 -0.0878
  394SOL    MW4 1576   1.585   3.885   1.175  0.0257  0.3569  0.0456
  395SOL     OW 1577   2.736   3.207   0.735 -0.2863  0.0320  0.5257
  395SOL    HW2 1578   2.717   3.297   0.762  3.4684  0.9215  0.4108
  395SOL    HW3 1579   2.735   3.210   0.639 -1.0398 -0.2446  0.5262
  395SOL    MW4 1580   2.733   3.219   0.726  0.1096  0.1128  0.5106
  396SOL     OW 1581   0.854   4.258   0.792 -0.0607 -0.0179 -0.3207
  396SOL    HW2 1582   0.943   4.288   0.778 -0.1440  0.9023  0.9758
  396SOL    HW3 1583   0.799   4.329   0.758 -0.2652  0.9428  1.9288
  396SOL    MW4 1584   0.858   4.272   0.786 -0.0986  0.2303  0.1472
  397SOL     OW 1585   0.831   2.597   0.847  0.2836  0.0837  0.1874
  397SOL    HW2 1586   0.882   2.602   0.928  0.3147  0.5881  0.1346
  397SOL    HW3 1587   0.779   2.518   0.857  2.1158 -1.2373 -0.3431
  397SOL    MW4 1588   0.831   2.587   0.859  0.5294 -0.0240  0.1104
  398SOL     OW 1589   3.624   3.982   0.766  0.1564 -0.0921  0.5585
  398SOL    HW2 1590   3.615   3.987   0.671 -1.2885  0.7984  0.7320
  398SOL    HW3 1591   3.543   3.941   0.796 -0.0033  0.9166  1.5207
  398SOL    MW4 1592   3.612   3.977   0.758 -0.0553  0.1585  0.7083
  399SOL     OW 1593   0.953   3.384   0.765 -0.2470 -0.2710  0.4551
  399SOL    HW2 1594   0.938   3.297   0.729  0.0251 -0.8852  1.8012
  399SOL    HW3 1595   0.875   3.434   0.743  0.1795 -0.4286 -1.5499
  399SOL    MW4 1596   0.941   3.379   0.758 -0.1548 -0.3728  0.3682
  400SOL     OW 1597   1.590   1.249   0.760 -0.2061  0.2109  0.0023
  400SOL    HW2 1598   1.567   1.337   0.791 -1.7472 -0.7842  1.8598
  400SOL    HW3 1599   1.564   1.248   0.668  1.7492  2.3485 -0.6039
  400SOL    MW4 1600   1.583   1.260   0.752 -0.1515  0.3616  0.1674
  401SOL     OW 1601   2.473   1.233   0.417 -0.3196 -0.2339 -0.1970
  401SOL    HW2 1602   2.423   1.315   0.416 -1.0615 -0.6817 -2.0640
  401SOL    HW3 1603   2.564   1.260   0.408 -0.4525  0.4552  0.5081
  401SOL    MW4 1604   2.479   1.248   0.416 -0.4350 -0.2020 -0.3503
  402SOL     OW 1605   2.692   0.094   0.410  0.3478 -0.1608 -0.1116
  402SOL    HW2 1606   2.705   0.100   0.505  2.5372  0.2166 -0.4051
  402SOL    HW3 1607   2.597   0.084   0.399  0.0420  0.1055  2.0930
  402SOL    MW4 1608   2.681   0.093   0.421  0.5963 -0.0759  0.1405
  403SOL     OW 1609   1.132   1.289   0.824  0.0911  0.1845 -0.3887
  403SOL    HW2 1610   1.199   1.227   0.852 -0.4290  0.6884  2.0235
  403SOL    HW3 1611   1.052   1.237   0.815  0.3753 -0.0775 -1.5498
  403SOL    MW4 1612   1.130   1.274   0.826  0.0600  0.2164 -0.2236
  404SOL     OW 1613   1.329   0.358   0.811  0.6758 -0.2173 -0.1644
  404SOL    HW2 1614   1.313   0.347   0.904  0.9047  0.5748 -0.0266
  404SOL    HW3 1615   1.322   0.270   0.774  0.8675 -0.5684  0.6410
  404SOL    MW4 1616   1.326   0.345   0.818  0.7313 -0.1591 -0.0399
  405SOL     OW 1617   2.089   1.492   0.875 -0.0516  0.6771  0.7495
  405SOL    HW2 1618   2.007   1.530   0.841 -0.5347 -0.0553  1.0708
  405SOL    HW3 1619   2.094   1.406   0.832  0.3521  0.5567  1.0389
  405SOL    MW4 1620   2.079   1.485   0.865 -0.0621  0.5646  0.8301
  406SOL     OW 1621   2.539   0.749   0.787  0.3705 -0.2325  0.5029
  406SOL    HW2 1622   2.627   0.784   0.776  0.6665 -1.3268 -0.7068
  406SOL    HW3 1623   2.542   0.662   0.747 -1.4907  0.0665 -0.3568
  406SOL    MW4 1624   2.551   0.742   0.780  0.1640 -0.3374  0.2299
  407SOL     OW 1625   2.571   0.522   0.405 -0.2478  0.0033  0.3593
  407SOL    HW2 1626   2.621   0.603   0.419  0.3574 -0.6502  2.1446
  407SOL    HW3 1627   2.638   0.456   0.384 -0.6228 -0.3199  0.1675
  407SOL    MW4 1628   2.587   0.524   0.404 -0.2174 -0.1255  0.5695
  408SOL     OW 1629   3.465   1.421   0.441 -0.1277 -0.4113 -0.6432
  408SOL    HW2 1630   3.410   1.444   0.365  0.0117 -0.3954 -0.7392
  408SOL    HW3 1631   3.547   1.391   0.402  0.8532  1.9088 -0.4528
  408SOL    MW4 1632   3.468   1.420   0.426  0.0201 -0.1031 -0.6308
  409SOL     OW 1633   3.607   4.478   0.208 -0.1387 -0.2382  0.6155
  409SOL    HW2 1634   3.584   4.517   0.124  0.3698  0.3699  0.7625
  409SOL    HW3 1635   3.549   4.521   0.271 -0.8660 -1.0418  0.5204
  409SOL    MW4 1636   3.596   4.489   0.205 -0.1676 -0.2640  0.6223
  410SOL     OW 1637   4.307   4.367   0.752  0.5955  0.0230  0.2414
  410SOL    HW2 1638   4.390   4.322   0.767  1.5227  2.0960  1.4690
  410SOL    HW3 1639   4.323   4.457   0.779 -1.8991  0.5843 -0.0385
  410SOL    MW4 1640   4.320   4.373   0.757  0.3887  0.3706  0.3664
  411SOL     OW 1641   1.343   2.419   0.473  0.0982  0.3531 -0.1942
  411SOL    HW2 1642   1.353   2.511   0.449  1.5451  0.5730  1.1462
  411SOL    HW3 1643   1.428   2.379   0.452 -1.0762 -1.0843 -2.4062
  411SOL    MW4 1644   1.356   2.425   0.467  0.1342  0.1925 -0.3092
  412SOL     OW 1645   0.397   3.389   0.339 -0.0798  0.3517 -0.7201
  412SOL    HW2 1646   0.418   3.373   0.247 -0.0222  0.2459 -0.6889
  412SOL    HW3 1647   0.481   3.415   0.378  0.2188 -1.0876 -0.3698
  412SOL    MW4 1648   0.411   3.391   0.332 -0.0328  0.1478 -0.6698
  413SOL     OW 1649   0.148   0.382   0.225  0.1039  0.3095  0.1680
  413SOL    HW2 1650   0.134   0.448   0.292 -2.2852 -0.2245  0.2355
  413SOL    HW3 1651   0.164   0.431   0.145 -0.3786  0.9806  0.4803
  413SOL    MW4 1652   0.148   0.397   0.224 -0.2750  0.3276  0.2181
  414SOL     OW 1653   3.540   2.841   0.373 -0.2976 -0.7599  0.0950
  414SOL    HW2 1654   3.445   2.836   0.383 -0.5275 -0.0738 -1.6700
  414SOL    HW3 1655   3.561   2.933   0.394 -0.1906 -0.5618 -0.8826
  414SOL    MW4 1656   3.530   2.853   0.377 -0.3138 -0.6432 -0.2668
  415SOL     OW 1657   1.049   1.064   0.478  0.2005 -0.2674  0.5367
  415SOL    HW2 1658   0.996   1.021   0.545 -1.4559 -1.3314 -1.3777
  415SOL    HW3 1659   0.986   1.089   0.410  1.3819  3.5145  0.6843
  415SOL    MW4 1660   1.034   1.062   0.478  0.1378  0.0912  0.3036
  416SOL     OW 1661   2.294   4.003   0.694  0.0098 -0.3832  0.3304
  416SOL    HW2 1662   2.285   3.981   0.602 -1.4524  1.4153  0.0216
  416SOL    HW3 1663   2.210   3.980   0.734  0.9490 -2.0332  1.4314
  416SOL    MW4 1664   2.282   3.997   0.687 -0.0592 -0.3636  0.4349
  417SOL     OW 1665   0.806   4.206   0.190 -0.3191 -0.0845  0.1556
  417SOL    HW2 1666   0.717   4.210   0.227  0.5037  1.7570  2.0362
  417SOL    HW3 1667   0.812   4.285   0.135 -0.0386 -0.5265 -0.4519
  417SOL    MW4 1668   0.795   4.217   0.188 -0.1736  0.1001  0.3236
  418SOL     OW 1669   1.754   0.235   0.322 -0.2387  0.1649 -0.4891
  418SOL    HW2 1670   1.835   0.246   0.273  0.1679 -0.9415 -0.1064
  418SOL    HW3 1671   1.764   0.150   0.366  0.0215  1.7031  2.6026
  418SOL    MW4 1672   1.766   0.225   0.322 -0.1507  0.2218 -0.0307
  419SOL     OW 1673   3.842   0.228   0.450 -0.1815 -0.1226 -0.0661
  419SOL    HW2 1674   3.755   0.188   0.454 -0.3455  0.1591 -0.7288
  419SOL    HW3 1675   3.825   0.322   0.447  0.1978 -0.0058  1.1694
  419SOL    MW4 1676   3.828   0.235   0.450 -0.1531 -0.0700  0.0095
  420SOL     OW 1677   1.601   4.426   0.453 -0.1466  0.0888  0.8281
  420SOL    HW2 1678   1.524   4.456   0.405  0.5312 -0.7191 -0.7933
  420SOL    HW3 1679   1.655   4.504   0.464  0.3049  0.0327 -0.9077
  420SOL    MW4 1680   1.598   4.440   0.448  0.0024 -0.0252  0.3852
  421SOL     OW 1681   2.035   2.807   0.779 -0.1724 -0.1736  0.0279
  421SOL    HW2 1682   2.036   2.897   0.812 -0.0553 -0.1764  0.0314
  421SOL    HW3 1683   2.119   2.770   0.805  0.2363  0.0644 -0.9230
  421SOL    MW4 1684   2.046   2.814   0.787 -0.1030 -0.1426 -0.0971
  422SOL     OW 1685   2.484   4.601   1.092 -0.3035 -0.2794  0.1583
  422SOL    HW2 1686   2.567   4.646   1.110 -0.2386 -0.0142 -0.7605
  422SOL    HW3 1687   2.417   4.663   1.119 -0.2136  0.3447 -1.0120
  422SOL    MW4 1688   2.486   4.615   1.098 -0.2831 -0.1620 -0.1174
  423SOL     OW 1689   3.403   2.262   0.478 -0.4089 -0.3306 -0.0956
  423SOL    HW2 1690   3.384   2.224   0.564 -0.5351 -0.5235 -0.2085
  423SOL    HW3 1691   3.497   2.281   0.481  0.1501 -2.8402 -0.8941
  423SOL    MW4 1692   3.413   2.260   0.490 -0.3518 -0.6871 -0.2158
  424SOL     OW 1693   2.058   0.710   0.869  0.0459  0.3052  0.3987
  424SOL    HW2 1694   2.117   0.762   0.815 -0.2034  1.1667  0.9425
  424SOL    HW3 1695   1.970   0.739   0.845 -0.0741  0.5609  1.1244
  424SOL    MW4 1696   2.054   0.721   0.859 -0.0028  0.4526  0.5662
  425SOL     OW 1697   1.783   0.348   0.829  0.1843  0.3296 -0.0495
  425SOL    HW2 1698   1.716   0.413   0.806  0.3903  0.3830 -0.5165
  425SOL    HW3 1699   1.866   0.389   0.801  0.0841 -1.2876 -2.9848
  425SOL    MW4 1700   1.785   0.362   0.822  0.1982  0.1233 -0.4984
  426SOL     OW 1701   1.142   1.552   0.873 -0.1524  0.5921 -0.1110
  426SOL    HW2 1702   1.196   1.593   0.806  0.8661 -0.5162  0.0067
  426SOL    HW3 1703   1.148   1.458   0.855 -1.2479  0.3829  0.5088
  426SOL    MW4 1704   1.150   1.545   0.862 -0.1625  0.4183 -0.0137
  427SOL     OW 1705   1.951   3.211   0.416 -0.0345 -0.4593 -0.2634
  427SOL    HW2 1706   1.884   3.149   0.386 -0.7727 -0.1332  0.6851
  427SOL    HW3 1707   1.918   3.242   0.501  1.7659 -0.9928  0.6569
  427SOL    MW4 1708   1.938   3.207   0.423  0.1057 -0.4866 -0.0169
  428SOL     OW 1709   2.942   3.066   0.840  0.7505  0.0697 -0.1526
  428SOL    HW2 1710   2.867   3.115   0.808  0.6058  0.0800  0.2014
  428SOL    HW3 1711   2.925   2.976   0.813  0.1063 -0.1094  0.8264
  428SOL    MW4 1712   2.930   3.061   0.832  0.6464  0.0474  0.0233
  429SOL     OW 1713   3.248   1.980   0.419  0.3206  0.2743  0.0439
  429SOL    HW2 1714   3.171   2.038   0.418  0.1258  0.0278  0.5642
  429SOL    HW3 1715   3.317   2.034   0.457  0.0819  0.0920  0.7348
  429SOL    MW4 1716   3.247   1.995   0.424  0.2634  0.2177  0.2037
  430SOL     OW 1717   3.260   0.343   0.514 -0.1042  0.3489  0.1884
  430SOL    HW2 1718   3.297   0.418   0.468 -0.8635 -0.2272 -1.4199
  430SOL    HW3 1719   3.168   0.365   0.526 -0.0458  0.2236  0.8711
  430SOL    MW4 1720   3.253   0.356   0.509 -0.1967  0.2563  0.0663
  431SOL     OW 1721   1.259   4.525   0.109  0.0060 -0.2511 -0.4670
  431SOL    HW2 1722   1.265   4.431   0.092 -1.4149 -0.4969  0.3405
  431SOL    HW3 1723   1.166   4.546   0.098  0.0494  0.7387  0.9809
  431SOL    MW4 1724   1.248   4.515   0.105 -0.1757 -0.1529 -0.1694
  432SOL     OW 1725   0.252   1.563   0.834 -0.3316  0.0809 -0.2062
  432SOL    HW2 1726   0.259   1.476   0.795 -3.1943 -0.1214 -0.4185
  432SOL    HW3 1727   0.325   1.612   0.797  0.2905 -1.7321 -1.4481
  432SOL    MW4 1728   0.262   1.558   0.824 -0.6273 -0.1850 -0.3981
  433SOL     OW 1729   4.116   4.183   0.842 -0.0099 -0.1735 -0.0328
  433SOL    HW2 1730   4.196   4.233   0.829  0.5308 -0.4280  2.0523
  433SOL    HW3 1731   4.129   4.102   0.792  0.9036 -0.0788  0.0452
  433SOL    MW4 1732   4.128   4.179   0.834  0.1820 -0.1946  0.2526
  434SOL     OW 1733   4.015   2.679   0.819 -0.0937  0.0194  0.4957
  434SOL    HW2 1734   4.002   2.587   0.794  0.1241  0.1884 -0.2431
  434SOL    HW3 1735   4.100   2.702   0.782  0.6012  0.0460  2.0794
  434SOL    MW4 1736   4.024   2.670   0.810  0.0268  0.0452  0.6072
  435SOL     OW 1737   2.172   3.056   0.437 -0.3319 -0.0382  0.5120
  435SOL    HW2 1738   2.090   3.101   0.420  0.8984  2.0223 -0.1718
  435SOL    HW3 1739   2.147   2.964   0.451 -2.5754  0.2627 -1.2262
  435SOL    MW4 1740   2.158   3.050   0.436 -0.4655  0.2733  0.1925
  436SOL     OW 1741   1.788   2.700   0.787 -0.1101  0.3446 -0.8520
  436SOL    HW2 1742   1.875   2.736   0.770  0.3685 -0.2570  0.2880
  436SOL    HW3 1743   1.730   2.776   0.789  0.4913  0.8020 -0.9844
  436SOL    MW4 1744   1.792   2.715   0.785  0.0324  0.3256 -0.7191
  437SOL     OW 1745   1.607   4.164   0.370 -0.4806  0.1288  0.2660
  437SOL    HW2 1746   1.677   4.131   0.314 -1.7602 -0.6035 -0.8907
  437SOL    HW3 1747   1.633   4.255   0.389  0.4862  0.0411 -0.6144
  437SOL    MW4 1748   1.620   4.172   0.365 -0.5219  0.0206 -0.0028
  438SOL     OW 1749   2.447   3.095   1.070  0.1054  0.0991  0.1040
  438SOL    HW2 1750   2.445   3.005   1.101  2.0140  0.6121  1.8027
  438SOL    HW3 1751   2.362   3.132   1.094 -0.9713 -1.4249 -1.2612
  438SOL    MW4 1752   2.436   3.088   1.077  0.2152 -0.0343  0.1480
  439SOL     OW 1753   0.302   0.999   0.514  0.1517 -0.2066 -0.2798
  439SOL    HW2 1754   0.288   1.089   0.485 -0.2331 -0.5356 -1.1184
  439SOL    HW3 1755   0.214   0.960   0.513  0.1502 -0.2676  1.1703
  439SOL    MW4 1756   0.288   1.006   0.510  0.1007 -0.2581 -0.1991
  440SOL     OW 1757   3.758   1.502   0.867  0.3057  0.1328 -0.4878
  440SOL    HW2 1758   3.833   1.542   0.824  1.0652  0.5169  1.1483
  440SOL    HW3 1759   3.682   1.543   0.826  0.9733 -0.4067 -2.2994
  440SOL    MW4 1760   3.758   1.513   0.856  0.4940  0.1123 -0.5110
  441SOL     OW 1761   2.258   3.452   0.814 -0.2834  0.2991  0.3226
  441SOL    HW2 1762   2.258   3.376   0.756 -0.2013  0.4242  0.1598
  441SOL    HW3 1763   2.327   3.509   0.780  0.0548  0.1745  0.8001
  441SOL    MW4 1764   2.267   3.449   0.802 -0.2279  0.2991  0.3641
  442SOL     OW 1765   2.287   4.273   0.814  0.3094  0.5427  0.4859
  442SOL    HW2 1766   2.362   4.321   0.778 -0.2010  0.5028 -0.6621
  442SOL    HW3 1767   2.294   4.186   0.775 -0.0834  0.4060  0.7230
  442SOL    MW4 1768   2.298   4.268   0.804  0.1903  0.5194  0.3657
  443SOL     OW 1769   3.634   0.704   0.498  0.2205  0.1550 -0.5602
  443SOL    HW2 1770   3.545   0.682   0.469  0.8404 -1.6520 -1.1967
  443SOL    HW3 1771   3.621   0.760   0.575 -1.4670  0.0068 -0.7147
  443SOL    MW4 1772   3.620   0.708   0.505  0.0797 -0.1030 -0.6646
  444SOL     OW 1773   1.200   2.199   0.345  0.2009  0.2340 -0.0928
  444SOL    HW2 1774   1.225   2.194   0.253  2.0093  0.4404  0.3512
  444SOL    HW3 1775   1.252   2.271   0.380 -0.3460  0.0609  1.1259
  444SOL    MW4 1776   1.210   2.208   0.338  0.3673  0.2384  0.1266
  445SOL     OW 1777   3.901   0.882   0.439 -0.0078  0.7164 -0.3082
  445SOL    HW2 1778   3.985   0.849   0.471 -0.9803 -0.5044  1.0567
  445SOL    HW3 1779   3.839   0.812   0.459 -1.4871  1.9123 -0.6445
  445SOL    MW4 1780   3.904   0.868   0.446 -0.3313  0.7131 -0.1725
  446SOL     OW 1781   2.896   4.608   0.847 -0.1707 -0.3912  0.1844
  446SOL    HW2 1782   2.919   4.526   0.804  0.7037 -0.4440  0.7362
  446SOL    HW3 1783   2.962   4.670   0.816 -1.3084  0.3070 -0.8600
  446SOL    MW4 1784   2.908   4.605   0.837 -0.2054 -0.3060  0.1194
  447SOL     OW 1785   3.197   4.228   0.834 -0.4010  0.3694 -0.2638
  447SOL    HW2 1786   3.277   4.275   0.808  0.2173 -0.7237 -0.3537
  447SOL    HW3 1787   3.126   4.280   0.796  0.3096  0.9283 -0.8482
  447SOL    MW4 1788   3.198   4.241   0.825 -0.2257  0.2989 -0.3527
  448SOL     OW 1789   2.439   4.658   0.826  0.0831 -0.2534 -0.0042
  448SOL    HW2 1790   2.442   4.648   0.921 -0.9654 -0.7732 -0.0184
  448SOL    HW3 1791   2.468   4.573   0.791  2.7278  0.6631 -0.1803
  448SOL    MW4 1792   2.443   4.645   0.834  0.2937 -0.2011 -0.0293
  449SOL     OW 1793   1.375   2.923   0.472 -0.1278  0.3873 -0.0799
  449SOL    HW2 1794   1.458   2.966   0.496 -1.6717  3.1959  0.3960
  449SOL    HW3 1795   1.335   2.900   0.556  0.3322 -1.3491 -0.3192
  449SOL    MW4 1796   1.381   2.926   0.486 -0.2708  0.5287 -0.0487
  450SOL     OW 1797   1.945   1.085   0.244 -0.0021 -0.1735 -0.3106
  450SOL    HW2 1798   1.868   1.071   0.299 -0.0332  2.4906  0.3731
  450SOL    HW3 1799   1.913   1.141   0.172  1.6766  2.6542  1.0654
  450SOL    MW4 1800   1.930   1.091   0.241  0.2153  0.5511 -0.0388
  451SOL     OW 1801   3.573   1.130   0.816 -0.1923  0.1507  0.3784
  451SOL    HW2 1802   3.653   1.171   0.784 -0.3780  0.4794  0.3330
  451SOL    HW3 1803   3.581   1.135   0.912  1.5074 -3.0237  0.4877
  451SOL    MW4 1804   3.585   1.136   0.825  0.0075 -0.2248  0.3868
  452SOL     OW 1805   1.836   4.037   0.263 -0.0136 -0.0159  0.1302
  452SOL    HW2 1806   1.929   4.058   0.267 -0.3029  1.1298  1.0393
  452SOL    HW3 1807   1.814   4.046   0.170  0.7132 -0.0292 -0.0479
  452SOL    MW4 1808   1.845   4.041   0.251  0.0441  0.1335  0.2267
  453SOL     OW 1809   1.637   2.339   0.437  0.4397 -0.1339  0.3087
  453SOL    HW2 1810   1.690   2.373   0.509 -2.2189  0.9237  1.8592
  453SOL    HW3 1811   1.659   2.246   0.433  2.3375  0.2605  0.9393
  453SOL    MW4 1812   1.647   2.331   0.446  0.3393  0.0577  0.5965
  454SOL     OW 1813   1.856   3.849   0.468 -0.4878  0.2373 -0.0417
  454SOL    HW2 1814   1.867   3.912   0.397 -3.6312  0.7392 -0.1502
  454SOL    HW3 1815   1.832   3.901   0.544 -1.9077 -0.7065  0.1751
  454SOL    MW4 1816   1.855   3.864   0.468 -1.0899  0.1790 -0.0274
  455SOL     OW 1817   4.467   0.107   0.773  0.0701 -0.5873  0.1648
  455SOL    HW2 1818   4.447   0.200   0.782 -1.2974 -0.7979 -0.6106
  455SOL    HW3 1819   4.464   0.091   0.679  0.1985 -1.4384  0.3041
  455SOL    MW4 1820   4.464   0.117   0.762 -0.0934 -0.7274  0.0809
  456SOL     OW 1821   2.818   1.229   0.424 -0.1320  0.1331  0.0521
  456SOL    HW2 1822   2.849   1.140   0.403 -0.2970  0.0732  0.0645
  456SOL    HW3 1823   2.855   1.247   0.510  0.6968  0.4493 -0.3653
  456SOL    MW4 1824   2.827   1.219   0.433 -0.0444  0.1669 -0.0013
  457SOL     OW 1825   2.247   0.107   0.666  0.2055  0.1347 -0.3344
  457SOL    HW2 1826   2.311   0.075   0.730 -2.0295 -0.2539  1.7914
  457SOL    HW3 1827   2.217   0.190   0.703 -1.9215 -0.6308 -0.2730
  457SOL    MW4 1828   2.251   0.114   0.679 -0.3700 -0.0176 -0.0458
  458SOL     OW 1829   2.730   2.440   0.746 -0.2254 -0.1011  0.2906
  458SOL    HW2 1830   2.810   2.410   0.789  0.4398  1.3522  0.0855
  458SOL    HW3 1831   2.727   2.534   0.764 -1.2613  0.0665 -0.7096
  458SOL    MW4 1832   2.740   2.448   0.754 -0.2743  0.1128  0.1316
  459SOL     OW 1833   0.910   3.115   0.677  0.1433 -0.4240  0.2977
  459SOL    HW2 1834   0.899   3.054   0.604  2.1368  0.1250 -0.4717
  459SOL    HW3 1835   0.989   3.085   0.722  1.8844  2.2510 -0.8031
  459SOL    MW4 1836   0.919   3.103   0.674  0.6361  0.0014  0.0509
  460SOL     OW 1837   0.171   4.492   0.483 -0.4278 -1.1322  0.4171
  460SOL    HW2 1838   0.239   4.552   0.453 -0.7396 -1.2087 -0.4664
  460SOL    HW3 1839   0.184   4.413   0.430 -1.6509 -0.8811 -0.2919
  460SOL    MW4 1840   0.182   4.490   0.472 -0.6303 -1.1091  0.2070
  461SOL     OW 1841   2.038   4.374   0.728  0.1736  0.0502  0.7396
  461SOL    HW2 1842   2.115   4.324   0.752 -1.3752 -2.3706  0.8580
  461SOL    HW3 1843   1.965   4.329   0.772 -1.6443  0.6158 -1.5741
  461SOL    MW4 1844   2.038   4.361   0.737 -0.2706 -0.1946  0.4499
  462SOL     OW 1845   3.885   1.990   0.429 -0.3331 -0.4425  0.3253
  462SOL    HW2 1846   3.980   1.987   0.441 -0.4268 -0.1607  1.1291
  462SOL    HW3 1847   3.870   2.073   0.382 -0.2191 -0.2992  0.5404
  462SOL    MW4 1848   3.896   2.001   0.424 -0.3304 -0.3864  0.4597
  463SOL     OW 1849   0.388   0.225   0.251 -0.0916  0.2042 -0.2286
  463SOL    HW2 1850   0.316   0.286   0.234  0.1975  0.0185 -2.1729
  463SOL    HW3 1851   0.466   0.280   0.254 -0.0240  0.1148 -0.3772
  463SOL    MW4 1852   0.389   0.240   0.249 -0.0446  0.1679 -0.5047
  464SOL     OW 1853   2.644   3.451   0.842 -0.1597  0.4649  0.1690
  464SOL    HW2 1854   2.587   3.521   0.812 -0.2402  1.0277  1.5769
  464SOL    HW3 1855   2.659   3.470   0.935 -1.2549 -2.1057  0.9264
  464SOL    MW4 1856   2.639   3.463   0.850 -0.3148  0.2000  0.4547
  465SOL     OW 1857   1.583   1.573   0.490  0.4699  0.2963 -0.1968
  465SOL    HW2 1858   1.508   1.584   0.548  1.0405  1.2096  0.3916
  465SOL    HW3 1859   1.575   1.484   0.457 -0.2164 -0.0270  0.8013
  465SOL    MW4 1860   1.572   1.563   0.493  0.4547  0.3741  0.0125
  466SOL     OW 1861   2.964   3.815   0.852 -0.4858 -0.0520  0.6834
  466SOL    HW2 1862   2.938   3.839   0.941 -0.3954 -0.4063  0.8078
  466SOL    HW3 1863   3.034   3.876   0.829  1.0618 -1.4222  1.7138
  466SOL    MW4 1864   2.970   3.826   0.860 -0.2697 -0.2795  0.8357
  467SOL     OW 1865   2.710   4.238   0.785 -0.2017 -0.3557 -0.1454
  467SOL    HW2 1866   2.716   4.144   0.767 -1.8822 -0.7815  1.2934
  467SOL    HW3 1867   2.710   4.244   0.881  0.7597  1.1853 -0.2249
  467SOL    MW4 1868   2.711   4.226   0.795 -0.2965 -0.2085  0.0340
  468SOL     OW 1869   0.994   4.610   0.144 -0.2615  0.2584  0.2610
  468SOL    HW2 1870   0.967   4.599   0.234  1.3940  1.8677  1.0014
  468SOL    HW3 1871   1.003   4.705   0.133 -0.4016  0.0883 -1.5748
  468SOL    MW4 1872   0.992   4.621   0.154 -0.0615  0.4482  0.1165
  469SOL     OW 1873   1.081   0.562   0.431  0.0808  0.3099  0.4756
  469SOL    HW2 1874   1.075   0.472   0.401 -0.1331 -0.0568  1.6279
  469SOL    HW3 1875   1.095   0.556   0.525 -1.9065  1.5066  0.8631
  469SOL    MW4 1876   1.082   0.550   0.439 -0.2096  0.4194  0.6787
  470SOL     OW 1877   3.321   1.743   0.520  0.0194 -0.2063  0.3040
  470SOL    HW2 1878   3.299   1.819   0.467 -1.0853 -1.1242 -0.5861
  470SOL    HW3 1879   3.413   1.726   0.500  0.0328  0.3736 -0.1363
  470SOL    MW4 1880   3.330   1.751   0.511 -0.1246 -0.2509  0.1285
  471SOL     OW 1881   1.484   0.208   0.241  0.0925  0.0793 -0.5027
  471SOL    HW2 1882   1.579   0.207   0.247  0.4068  4.3254 -2.5004
  471SOL    HW3 1883   1.464   0.160   0.161  0.7141  0.8256 -1.1134
  471SOL    MW4 1884   1.494   0.202   0.231  0.2160  0.7380 -0.8469
  472SOL     OW 1885   3.110   0.093   0.705 -0.2113  0.0860 -0.1250
  472SOL    HW2 1886   3.191   0.048   0.730 -0.0422  0.6539  0.3668
  472SOL    HW3 1887   3.122   0.183   0.736  0.3268  1.0365 -2.9071
  472SOL    MW4 1888   3.123   0.099   0.712 -0.1180  0.2864 -0.4272
  473SOL     OW 1889   2.800   2.110   0.484 -0.0118  0.3689 -0.0970
  473SOL    HW2 1890   2.828   2.084   0.572  0.8308  0.2910 -0.3795
  473SOL    HW3 1891   2.882   2.124   0.436 -0.4675 -0.3110 -1.0827
  473SOL    MW4 1892   2.815   2.109   0.489  0.0392  0.2689 -0.2643
  474SOL     OW 1893   3.136   1.100   1.069  0.5722  0.0934  0.6145
  474SOL    HW2 1894   3.197   1.158   1.114  0.3824  2.8749 -2.5461
  474SOL    HW3 1895   3.049   1.134   1.091  0.4090  0.1812 -0.1411
  474SOL    MW4 1896   3.132   1.112   1.078  0.5256  0.4719  0.0978
  475SOL     OW 1897   4.278   1.293   0.741  0.7181 -0.6140  0.0372
  475SOL    HW2 1898   4.191   1.259   0.764 -0.3923  0.3674 -2.4449
  475SOL    HW3 1899   4.271   1.387   0.758  1.0035 -0.3996 -1.0198
  475SOL    MW4 1900   4.265   1.301   0.746  0.6092 -0.4563 -0.4297
  476SOL     OW 1901   4.071   3.967   0.436  0.1502 -0.3089 -0.2269
  476SOL    HW2 1902   4.002   3.903   0.424  0.3159 -0.7515  1.1100
  476SOL    HW3 1903   4.087   3.968   0.530  0.0244  1.8321 -0.2120
  476SOL    MW4 1904   4.064   3.959   0.447  0.1555 -0.0848 -0.0485
  477SOL     OW 1905   3.183   1.741   0.765 -0.1913 -0.2797 -0.7923
  477SOL    HW2 1906   3.227   1.669   0.809  1.5464  0.8271 -0.7004
  477SOL    HW3 1907   3.231   1.753   0.683 -0.2638  0.9934 -0.6608
  477SOL    MW4 1908   3.195   1.733   0.760  0.0284  0.0343 -0.7628
  478SOL     OW 1909   3.318   1.528   0.873  0.1381  0.1284 -0.0189
  478SOL    HW2 1910   3.333   1.511   0.966 -0.8782  1.3439  0.3765
  478SOL    HW3 1911   3.322   1.441   0.832 -0.7661 -0.5838  1.3562
  478SOL    MW4 1912   3.320   1.514   0.880 -0.1153  0.1948  0.2147
  479SOL     OW 1913   4.343   1.007   0.402 -0.2646 -0.4769 -0.2277
  479SOL    HW2 1914   4.426   0.966   0.425  0.5655  1.3215  0.0722
  479SOL    HW3 1915   4.360   1.101   0.409 -2.8303 -0.1021  1.6813
  479SOL    MW4 1916   4.356   1.014   0.406 -0.4936 -0.1902  0.0637
  480SOL     OW 1917   1.253   4.015   0.278  0.1089 -0.0160  0.5528
  480SOL    HW2 1918   1.318   4.007   0.347  0.2191 -2.2747  0.2332
  480SOL    HW3 1919   1.239   3.925   0.247 -1.1096  0.7527 -1.2661
  480SOL    MW4 1920   1.260   4.002   0.283 -0.0373 -0.2126  0.2706
  481SOL     OW 1921   1.348   1.640   0.711 -0.2733 -0.3571 -0.0638
  481SOL    HW2 1922   1.329   1.678   0.625 -1.5217  0.6660  0.6467
  481SOL    HW3 1923   1.376   1.714   0.764 -0.5861 -0.7950  0.7205
  481SOL    MW4 1924   1.349   1.655   0.707 -0.4793 -0.2799  0.1334
  482SOL     OW 1925   3.283   2.377   0.841 -0.4923 -0.4161  0.3218
  482SOL    HW2 1926   3.279   2.343   0.930 -0.0876 -1.5849 -0.0981
  482SOL    HW3 1927   3.194   2.363   0.807 -0.3763 -0.9044  0.2112
  482SOL    MW4 1928   3.270   2.371   0.848 -0.4236 -0.6348  0.2518
  483SOL     OW 1929   0.306   1.313   0.441 -0.3644  0.1044  0.4700
  483SOL    HW2 1930   0.382   1.370   0.433  0.2901 -0.7850  0.2468
  483SOL    HW3 1931   0.231   1.370   0.427  0.3047  0.7776 -0.3811
  483SOL    MW4 1932   0.306   1.328   0.438 -0.1898  0.0759  0.3283
  484SOL     OW 1933   2.491   4.422   0.707  0.2239  0.4128  0.0170
  484SOL    HW2 1934   2.489   4.411   0.612 -1.8777 -1.9175  0.2709
  484SOL    HW3 1935   2.565   4.368   0.736 -0.0284 -0.0581 -0.2011
  484SOL    MW4 1936   2.501   4.413   0.698 -0.0867  0.0432  0.0217
  485SOL     OW 1937   4.253   2.780   0.712 -0.0267  0.2015 -0.0597
  485SOL    HW2 1938   4.291   2.796   0.625  1.4961 -0.4265  0.4820
  485SOL    HW3 1939   4.323   2.738   0.761 -1.3634 -0.7342  1.0489
  485SOL    MW4 1940   4.268   2.777   0.707 -0.0022 -0.0048  0.1581
  486SOL     OW 1941   0.449   3.429   0.791  0.3049 -0.0930 -0.1216
  486SOL    HW2 1942   0.447   3.428   0.887 -0.2071 -0.2433 -0.1350
  486SOL    HW3 1943   0.377   3.486   0.766  1.1441  0.8694 -0.3998
  486SOL    MW4 1944   0.439   3.436   0.800  0.3481  0.0142 -0.1600
  487SOL     OW 1945   4.174   2.030   0.477  0.2142 -0.4557 -0.7165
  487SOL    HW2 1946   4.198   2.037   0.570 -0.5192  0.2022 -0.5778
  487SOL    HW3 1947   4.239   2.083   0.431  0.1810 -0.2423 -0.5178
  487SOL    MW4 1948   4.186   2.038   0.484  0.1131 -0.3407 -0.6720
  488SOL     OW 1949   3.139   3.220   0.729 -0.0952 -0.1778  0.0992
  488SOL    HW2 1950   3.088   3.153   0.774 -1.7157  0.3352 -0.9515
  488SOL    HW3 1951   3.134   3.296   0.786 -0.6370 -0.0841 -0.0683
  488SOL    MW4 1952   3.132   3.221   0.743 -0.3805 -0.0978 -0.0615
  489SOL     OW 1953   4.457   3.937   0.452 -0.3590  0.2732  0.6952
  489SOL    HW2 1954   4.402   4.002   0.410 -0.2476 -0.6455 -0.9040
  489SOL    HW3 1955   4.451   3.957   0.546 -1.3355  1.7685  0.3209
  489SOL    MW4 1956   4.449   3.948   0.459 -0.4732  0.3493  0.4348
  490SOL     OW 1957   3.400   3.860   0.836  0.8752  0.1996  0.2164
  490SOL    HW2 1958   3.325   3.904   0.795  0.5540 -0.4696  0.0748
  490SOL    HW3 1959   3.385   3.871   0.930  1.3875  1.3638  0.1663
  490SOL    MW4 1960   3.388   3.867   0.843  0.9004  0.2649  0.1911
  491SOL     OW 1961   0.657   0.332   0.542 -0.1140  0.3291 -0.2615
  491SOL    HW2 1962   0.586   0.275   0.574 -0.5462  0.9560 -0.1064
  491SOL    HW3 1963   0.727   0.271   0.518 -0.5332 -0.2674  0.0136
  491SOL    MW4 1964   0.657   0.316   0.543 -0.2263  0.3331 -0.2047
  492SOL     OW 1965   3.800   3.577   0.503 -0.5004 -0.0845  0.2333
  492SOL    HW2 1966   3.726   3.519   0.515  0.0642 -0.4650  2.0582
  492SOL    HW3 1967   3.863   3.526   0.451 -1.2686  0.0405 -0.8340
  492SOL    MW4 1968   3.799   3.563   0.497 -0.5273 -0.1182  0.3332
  493SOL     OW 1969   2.086   2.804   0.494 -0.7450  0.0519  0.0957
  493SOL    HW2 1970   2.033   2.736   0.451  0.4339 -1.0449  0.3574
  493SOL    HW3 1971   2.063   2.797   0.587 -1.3646  0.6971  0.0000
  493SOL    MW4 1972   2.076   2.794   0.500 -0.6712 -0.0077  0.1176
  494SOL     OW 1973   1.823   4.239   0.841 -0.0945 -0.0540  0.1572
  494SOL    HW2 1974   1.820   4.231   0.936  1.5658  1.6085  0.3824
  494SOL    HW3 1975   1.745   4.289   0.818  0.5035  1.2509  0.8769
  494SOL    MW4 1976   1.813   4.245   0.850  0.2034  0.3375  0.2818
  495SOL     OW 1977   4.043   3.196   0.763  0.2361 -0.1039  0.0157
  495SOL    HW2 1978   4.063   3.210   0.670 -0.6789 -0.3656 -0.2245
  495SOL    HW3 1979   4.056   3.282   0.804  0.6389  0.0128 -0.3462
  495SOL    MW4 1980   4.048   3.209   0.756  0.1686 -0.1230 -0.0637
  496SOL     OW 1981   3.563   0.369   0.857  0.2520 -0.0892  0.1206
  496SOL    HW2 1982   3.534   0.284   0.823 -0.2918  0.3039 -0.4109
  496SOL    HW3 1983   3.557   0.360   0.952 -0.2602 -0.4867  0.0559
  496SOL    MW4 1984   3.558   0.356   0.865  0.1127 -0.0897  0.0419
  497SOL     OW 1985   2.067   3.881   0.836  0.3321 -0.5471 -0.0272
  497SOL    HW2 1986   2.079   3.870   0.930  0.6639  1.2576  0.1440
  497SOL    HW3 1987   2.073   3.792   0.801  1.4738 -1.0847  1.5031
  497SOL    MW4 1988   2.069   3.867   0.843  0.5265 -0.3799  0.1973
  498SOL     OW 1989   0.233   4.433   0.746 -0.2805  0.1911  1.1402
  498SOL    HW2 1990   0.161   4.374   0.768  0.5854 -1.7986 -1.0660
  498SOL    HW3 1991   0.222   4.449   0.652  1.1600  1.2398  1.1386
  498SOL    MW4 1992   0.222   4.427   0.736  0.0238  0.0669  0.8489
  499SOL     OW 1993   1.238   3.343   0.410 -0.1152  0.6345 -0.5341
  499SOL    HW2 1994   1.310   3.333   0.348 -0.8461 -0.7616 -1.1784
  499SOL    HW3 1995   1.173   3.279   0.382 -1.5796  1.8155  0.0974
  499SOL    MW4 1996   1.239   3.333   0.398 -0.4048  0.6061 -0.5358
  500SOL     OW 1997   3.378   1.294   0.712  0.4185 -0.5930 -0.1402
  500SOL    HW2 1998   3.450   1.238   0.741  2.1376  1.0670 -1.0782
  500SOL    HW3 1999   3.410   1.334   0.632 -2.2175 -1.0655 -1.4840
  500SOL    MW4 2000   3.392   1.292   0.705  0.2975 -0.4363 -0.4413
  501SOL     OW 2001   0.067   1.996   0.402 -0.2217 -0.2011  0.1890
  501SOL    HW2 2002   0.072   1.936   0.477 -0.2456  1.6243  1.6888
  501SOL    HW3 2003   0.138   2.058   0.416 -0.1152  0.0436 -1.4149
  501SOL    MW4 2004   0.077   1.996   0.414 -0.2108  0.0720  0.1753
  502SOL     OW 2005   3.577   1.971   0.799  0.1966  0.0884  0.0798
  502SOL    HW2 2006   3.653   1.984   0.743 -0.2049  0.0355 -0.4837
  502SOL    HW3 2007   3.508   2.024   0.759 -0.3921 -0.8000 -0.0977
  502SOL    MW4 2008   3.578   1.980   0.786  0.0659 -0.0358 -0.0179
  503SOL     OW 2009   0.008   3.987   0.736  0.5447  0.1689  0.0742
  503SOL    HW2 2010   0.091   3.939   0.744 -0.0274 -0.8646 -0.0337
  503SOL    HW3 2011  -0.056   3.931   0.780 -0.0102  1.1988  0.5974
  503SOL    MW4 2012   0.011   3.973   0.743  0.3960  0.1684  0.1290
  504SOL     OW 2013   1.165   3.735   0.189  0.2424 -0.2820  0.0716
  504SOL    HW2 2014   1.152   3.734   0.094  2.1413 -2.0758 -0.2003
  504SOL    HW3 2015   1.252   3.696   0.201  0.0235 -0.0386  2.5497
  504SOL    MW4 2016   1.175   3.730   0.178  0.4641 -0.4865  0.3627
  505SOL     OW 2017   0.997   2.486   0.652  0.6701 -0.3756 -0.0964
  505SOL    HW2 2018   0.937   2.517   0.719  0.1955  0.3434 -0.8398
  505SOL    HW3 2019   1.055   2.425   0.697  0.5008  0.2696  1.0098
  505SOL    MW4 2020   0.997   2.482   0.667  0.5852 -0.1956 -0.0486
  506SOL     OW 2021   2.902   3.558   0.769  0.2818  0.3733  0.0626
  506SOL    HW2 2022   2.894   3.648   0.801  0.4058  0.1031  0.8468
  506SOL    HW3 2023   2.819   3.517   0.792  0.1115  0.3586 -0.5507
  506SOL    MW4 2024   2.890   3.564   0.776  0.2757  0.3357  0.0851
  507SOL     OW 2025   1.824   1.606   0.799  0.7760 -0.0632  0.3362
  507SOL    HW2 2026   1.806   1.628   0.708  0.0261  0.0426  0.5100
  507SOL    HW3 2027   1.745   1.561   0.829  0.7068  0.5968  1.1609
  507SOL    MW4 2028   1.811   1.603   0.791  0.6679  0.0378  0.4679
  508SOL     OW 2029   3.396   2.845   0.731 -0.1528  0.1649 -0.4833
  508SOL    HW2 2030   3.384   2.930   0.774 -0.1822  0.9173 -1.9707
  508SOL    HW3 2031   3.463   2.801   0.784  0.1007  1.2382  0.1056
  508SOL    MW4 2032   3.403   2.851   0.744 -0.1232  0.4058 -0.6019
  509SOL     OW 2033   0.207   3.584   0.456  0.4884  0.5151  0.3273
  509SOL    HW2 2034   0.243   3.505   0.415  1.2326  1.7483 -1.4523
  509SOL    HW3 2035   0.282   3.644   0.459 -0.5446  1.8219 -0.0683
  509SOL    MW4 2036   0.222   3.581   0.451  0.4503  0.8502  0.0403
  510SOL     OW 2037   3.849   3.823   0.360 -0.2835 -0.3104  0.2045
  510SOL    HW2 2038   3.802   3.824   0.276 -0.8928 -0.1219  0.5405
  510SOL    HW3 2039   3.825   3.739   0.399 -1.2032  0.2447  0.8512
  510SOL    MW4 2040   3.839   3.812   0.354 -0.4853 -0.2123  0.3341
  511SOL     OW 2041   3.367   3.107   0.833  0.1301  0.2049 -0.1609
  511SOL    HW2 2042   3.283   3.148   0.814  0.5805  1.7853  1.1358
  511SOL    HW3 2043   3.368   3.097   0.928  1.6717  0.8318 -0.0924
  511SOL    MW4 2044   3.356   3.111   0.843  0.3929  0.4962  0.0192
  512SOL     OW 2045   0.196   2.795   0.765  0.2746 -0.1124  0.2390
  512SOL    HW2 2046   0.213   2.889   0.778 -0.4498  0.2889 -1.4953
  512SOL    HW3 2047   0.106   2.783   0.793 -0.3815  0.1963 -1.6638
  512SOL    MW4 2048   0.186   2.806   0.770  0.0924 -0.0187 -0.2409
  513SOL     OW 2049   3.824   2.825   0.703 -0.1005 -0.2237 -0.3220
  513SOL    HW2 2050   3.749   2.785   0.747  1.0635  0.8857  2.8372
  513SOL    HW3 2051   3.898   2.771   0.729  1.1127  2.4470  1.9894
  513SOL    MW4 2052   3.824   2.813   0.712  0.2132  0.2751  0.3997
  514SOL     OW 2053   3.814   3.575   0.773 -0.0412  0.9054  0.1837
  514SOL    HW2 2054   3.887   3.521   0.803  0.2893  1.2101 -0.0733
  514SOL    HW3 2055   3.821   3.575   0.677  0.1669  1.6866  0.1934
  514SOL    MW4 2056   3.825   3.568   0.764  0.0299  1.0487  0.1511
  515SOL     OW 2057   0.838   1.894   0.504 -0.0189 -0.4276  0.2023
  515SOL    HW2 2058   0.796   1.974   0.473  0.4659 -0.0633  0.4802
  515SOL    HW3 2059   0.928   1.920   0.523 -0.0622 -0.8626  1.0315
  515SOL    MW4 2060   0.844   1.908   0.502  0.0394 -0.4369  0.3484
  516SOL     OW 2061   3.623   4.231   0.869 -0.1921 -0.3077  0.0453
  516SOL    HW2 2062   3.693   4.279   0.824 -0.4161 -1.0496 -1.1361
  516SOL    HW3 2063   3.626   4.144   0.829 -0.3610 -1.0009  1.5382
  516SOL    MW4 2064   3.633   4.226   0.858 -0.2439 -0.4970  0.0864
  517SOL     OW 2065   3.551   2.477   0.721  0.4347  0.1057  0.0466
  517SOL    HW2 2066   3.456   2.487   0.725  0.4701  0.2490  0.5859
  517SOL    HW3 2067   3.574   2.505   0.633  0.0808  1.0354  0.2390
  517SOL    MW4 2068   3.541   2.482   0.710  0.3927  0.2472  0.1431
  518SOL     OW 2069   4.013   0.105   0.753 -0.3801 -0.5850  0.1808
  518SOL    HW2 2070   4.045   0.136   0.668  1.4550  2.1767  1.7565
  518SOL    HW3 2071   4.087   0.056   0.790 -0.4466 -0.0959  0.9767
  518SOL    MW4 2072   4.027   0.103   0.747 -0.1467 -0.1561  0.4937
  519SOL     OW 2073   1.167   2.044   0.792 -0.0478 -0.3319 -0.0135
  519SOL    HW2 2074   1.226   2.003   0.855 -0.5617  1.0814  1.4215
  519SOL    HW3 2075   1.080   2.012   0.816 -0.0016 -1.8689 -1.6986
  519SOL    MW4 2076   1.163   2.034   0.803 -0.1095 -0.3482 -0.0465
  520SOL     OW 2077   2.134   4.362   0.470  0.3540 -0.1803 -0.6091
  520SOL    HW2 2078   2.087   4.435   0.429  0.1499  0.1334  0.1753
  520SOL    HW3 2079   2.097   4.356   0.558 -0.6649 -2.1762 -1.1461
  520SOL    MW4 2080   2.123   4.371   0.476  0.1927 -0.4022 -0.5765
  521SOL     OW 2081   3.680   2.341   0.457  0.2907 -0.6536  0.1764
  521SOL    HW2 2082   3.762   2.308   0.421 -0.0233  0.6488 -1.8134
  521SOL    HW3 2083   3.684   2.436   0.443 -0.6189 -0.3310  1.9986
  521SOL    MW4 2084   3.691   2.349   0.450  0.1293 -0.4392  0.1543
  522SOL     OW 2085   4.074   0.902   0.787 -0.1871  0.4421  0.3896
  522SOL    HW2 2086   4.012   0.841   0.828 -0.1425 -0.1587 -0.4058
  522SOL    HW3 2087   4.085   0.867   0.698  0.8589  0.8711  0.3460
  522SOL    MW4 2088   4.067   0.889   0.780 -0.0432  0.4194  0.2789
  523SOL     OW 2089   2.781   0.866   0.731 -0.1030 -0.5615  0.3148
  523SOL    HW2 2090   2.838   0.821   0.794  0.0190 -0.2292  0.4432
  523SOL    HW3 2091   2.762   0.950   0.772  1.5495  0.4534 -0.9261
  523SOL    MW4 2092   2.786   0.871   0.745  0.1312 -0.3838  0.1680
  524SOL     OW 2093   1.132   0.767   0.830 -0.5094 -0.1661 -0.0791
  524SOL    HW2 2094   1.113   0.681   0.792  0.8918 -0.2560 -0.6018
  524SOL    HW3 2095   1.143   0.751   0.923  0.5138 -0.6794 -0.2867
  524SOL    MW4 2096   1.131   0.753   0.837 -0.1895 -0.2457 -0.1755
  525SOL     OW 2097   2.524   3.609   0.502 -0.7904 -0.1833 -0.1151
  525SOL    HW2 2098   2.610   3.581   0.470 -0.5610  0.5516 -0.1535
  525SOL    HW3 2099   2.469   3.531   0.495  0.3718 -1.1859  1.6867
  525SOL    MW4 2100   2.528   3.595   0.497 -0.6068 -0.2186  0.1176
  526SOL     OW 2101   0.770   0.876   0.300  0.0107 -0.3011  0.1631
  526SOL    HW2 2102   0.803   0.960   0.267  0.5217 -0.3390  0.5770
  526SOL    HW3 2103   0.680   0.895   0.326  0.4151  0.3532  1.1175
  526SOL    MW4 2104   0.762   0.890   0.299  0.1315 -0.2198  0.3437
  527SOL     OW 2105   3.417   4.366   0.765  0.3461 -0.6397  0.0120
  527SOL    HW2 2106   3.493   4.322   0.804  0.7633 -0.5784 -0.7129
  527SOL    HW3 2107   3.409   4.328   0.678  0.7465  0.7300 -0.6392
  527SOL    MW4 2108   3.426   4.356   0.759  0.4540 -0.4509 -0.1696
  528SOL     OW 2109   3.618   3.970   0.463  0.1017 -0.0336 -0.2704
  528SOL    HW2 2110   3.621   4.053   0.416 -0.7798  0.7437  1.0231
  528SOL    HW3 2111   3.698   3.925   0.437  0.0662  0.7541 -1.8105
  528SOL    MW4 2112   3.629   3.975   0.454 -0.0193  0.1729 -0.3029
  529SOL     OW 2113   3.321   3.507   0.476 -0.3231 -0.2011  0.4170
  529SOL    HW2 2114   3.343   3.534   0.565  0.1293  0.2728  0.1610
  529SOL    HW3 2115   3.314   3.589   0.426 -1.5792 -0.4016  0.2458
  529SOL    MW4 2116   3.323   3.522   0.481 -0.4292 -0.1650  0.3606
  530SOL     OW 2117   1.102   0.294   0.365 -0.2779 -0.2462 -0.1589
  530SOL    HW2 2118   1.094   0.249   0.281  0.0875  0.9439 -0.8385
  530SOL    HW3 2119   1.022   0.271   0.413 -1.6816  1.1077 -1.8105
  530SOL    MW4 2120   1.091   0.285   0.360 -0.4149  0.0894 -0.4665
  531SOL     OW 2121   4.416   3.651   0.497  0.0298 -0.3402  0.1553
  531SOL    HW2 2122   4.426   3.743   0.471 -1.9693 -0.7966 -2.4549
  531SOL    HW3 2123   4.498   3.609   0.469  0.1514  0.2700 -0.4181
  531SOL    MW4 2124   4.428   3.658   0.490 -0.2179 -0.3199 -0.2647
  532SOL     OW 2125   4.306   3.204   0.277 -0.3178  0.1980 -0.2188
  532SOL    HW2 2126   4.376   3.175   0.336  0.4608  0.9888 -0.7461
  532SOL    HW3 2127   4.302   3.299   0.289 -0.7568  0.2562 -0.7912
  532SOL    MW4 2128   4.315   3.213   0.286 -0.2730  0.3100 -0.3639
  533SOL     OW 2129   0.272   0.751   0.888 -0.0615  0.0681 -0.0958
  533SOL    HW2 2130   0.229   0.757   0.973  0.2328  0.4748  0.0263
  533SOL    HW3 2131   0.222   0.684   0.841 -1.8271  1.6368 -0.5311
  533SOL    MW4 2132   0.260   0.743   0.893 -0.2556  0.3287 -0.1371
  534SOL     OW 2133   0.045   4.242   0.826  0.0146  0.9311 -0.0450
  534SOL    HW2 2134   0.027   4.154   0.792  0.7698  0.7369  0.0506
  534SOL    HW3 2135   0.038   4.233   0.921 -2.4867  1.5615 -0.1330
  534SOL    MW4 2136   0.041   4.229   0.834 -0.2158  0.9887 -0.0440
  535SOL     OW 2137   1.128   4.382   0.484  0.1866 -0.1215  0.5903
  535SOL    HW2 2138   1.103   4.307   0.431 -0.3405  0.3768  0.1363
  535SOL    HW3 2139   1.203   4.420   0.438  1.2914 -1.1365  1.5195
  535SOL    MW4 2140   1.135   4.377   0.471  0.2629 -0.1897  0.6530
  536SOL     OW 2141   3.913   2.964   0.489 -0.2157 -0.3391  0.2064
  536SOL    HW2 2142   3.918   2.911   0.409 -0.8653  0.5204 -0.4154
  536SOL    HW3 2143   3.868   2.908   0.552  0.9020 -1.2839  0.1903
  536SOL    MW4 2144   3.908   2.949   0.487 -0.1539 -0.3504  0.1222
  537SOL     OW 2145   4.292   3.555   0.742  0.6386 -0.0704 -0.2070
  537SOL    HW2 2146   4.359   3.494   0.774  0.6991 -0.0924 -0.3720
  537SOL    HW3 2147   4.328   3.588   0.659  0.3929 -0.1730 -0.3550
  537SOL    MW4 2148   4.306   3.551   0.735  0.6141 -0.0868 -0.2483
  538SOL     OW 2149   3.660   4.224   0.322 -0.8174  0.3263 -0.1435
  538SOL    HW2 2150   3.750   4.226   0.356 -1.3540 -0.4051  1.3650
  538SOL    HW3 2151   3.649   4.308   0.277  0.3388  0.7715  0.3970
  538SOL    MW4 2152   3.671   4.235   0.320 -0.7357  0.2885  0.1269
  539SOL     OW 2153   4.105   3.935   0.708  0.0172 -0.2987  0.0605
  539SOL    HW2 2154   4.170   3.892   0.764 -0.0081  0.1068  0.4012
  539SOL    HW3 2155   4.021   3.902   0.739 -0.0721  0.8586  1.0690
  539SOL    MW4 2156   4.102   3.925   0.719  0.0020 -0.0925  0.2385
  540SOL     OW 2157   4.479   3.112   0.481  0.1634  0.6117 -0.2639
  540SOL    HW2 2158   4.461   3.128   0.573 -0.2326  1.2026 -0.4358
  540SOL    HW3 2159   4.573   3.122   0.472  0.2831 -0.0932  0.1985
  540SOL    MW4 2160   4.489   3.115   0.492  0.1270  0.5967 -0.2256
  541SOL     OW 2161   0.637   0.020   0.843  0.2051 -0.2913 -0.0066
  541SOL    HW2 2162   0.618   0.009   0.936  0.1549  0.4298  0.0736
  541SOL    HW3 2163   0.617  -0.065   0.804  2.8473 -1.4808  1.0681
  541SOL    MW4 2164   0.632   0.007   0.850  0.5471 -0.3531  0.1457
  542SOL     OW 2165   0.257   4.647   1.069 -0.1185  0.4127  0.0526
  542SOL    HW2 2166   0.332   4.691   1.108  1.3108 -0.5605 -1.5382
  542SOL    HW3 2167   0.254   4.680   0.979 -2.0375  0.9691  0.2938
  542SOL    MW4 2168   0.266   4.657   1.062 -0.1831  0.3577 -0.1255
  543SOL     OW 2169   0.036   0.127   1.161  0.1464 -0.1849  0.0707
  543SOL    HW2 2170  -0.043   0.077   1.138 -0.1040  0.4266 -0.4288
  543SOL    HW3 2171   0.108   0.070   1.136 -0.1361 -0.2395 -0.6435
  543SOL    MW4 2172   0.035   0.113   1.154  0.0761 -0.1114 -0.0894
  544SOL     OW 2173   0.018   0.387   1.090  0.3877  0.3766 -0.1684
  544SOL    HW2 2174  -0.059   0.423   1.135  2.0761  1.6634  1.7763
  544SOL    HW3 2175   0.026   0.298   1.125 -1.2499 -0.4144 -1.7349
  544SOL    MW4 2176   0.009   0.380   1.101  0.3944  0.4420 -0.1185
  545SOL     OW 2177   0.232   0.511   1.213  0.2144 -0.5345  0.2167
  545SOL    HW2 2178   0.219   0.604   1.193  2.0343 -0.0785  1.0119
  545SOL    HW3 2179   0.153   0.468   1.181 -0.7331  1.3136  0.0104
  545SOL    MW4 2180   0.220   0.518   1.206  0.3295 -0.2305  0.2944
  546SOL     OW 2181   0.194   0.778   1.160  0.1269 -0.1276 -0.5103
  546SOL    HW2 2182   0.265   0.818   1.209 -0.3998  0.0016  0.1622
  546SOL    HW3 2183   0.118   0.834   1.179  0.0302  0.2291 -1.8889
  546SOL    MW4 2184   0.193   0.791   1.169  0.0446 -0.0635 -0.6034
  547SOL     OW 2185   4.481   0.918   1.253 -0.4140 -0.2737 -0.0115
  547SOL    HW2 2186   4.471   0.910   1.348  1.0611 -0.6402  0.1236
  547SOL    HW3 2187   4.402   0.879   1.217 -1.1301  0.1471  1.0784
  547SOL    MW4 2188   4.470   0.912   1.261 -0.3138 -0.2665  0.1501
  548SOL     OW 2189   0.005   1.140   1.103  0.0121  0.2445 -0.3456
  548SOL    HW2 2190  -0.069   1.190   1.136 -1.2939  0.1354 -3.0572
  548SOL    HW3 2191   0.018   1.071   1.169 -1.5675  0.9227  0.7036
  548SOL    MW4 2192  -0.003   1.138   1.116 -0.3686  0.3196 -0.5649
  549SOL     OW 2193   0.228   1.272   1.206 -0.0540  0.3153 -0.3836
  549SOL    HW2 2194   0.300   1.214   1.183 -0.2081 -0.7048  1.6346
  549SOL    HW3 2195   0.149   1.220   1.192 -0.2126  0.1725  0.9675
  549SOL    MW4 2196   0.227   1.258   1.201 -0.0953  0.1619  0.0609
  550SOL     OW 2197   0.220   1.522   1.109 -0.2036 -0.4676  0.1748
  550SOL    HW2 2198   0.216   1.428   1.128  1.8268 -0.7349 -0.6327
  550SOL    HW3 2199   0.228   1.527   1.014 -0.2500  0.5242  0.2178
  550SOL    MW4 2200   0.221   1.510   1.099  0.0582 -0.3720  0.0739
  551SOL     OW 2201   0.010   1.693   1.198  0.1879 -0.2431  0.5092
  551SOL    HW2 2202   0.019   1.782   1.164  0.0088 -0.0657  0.9150
  551SOL    HW3 2203   0.093   1.650   1.176  0.4517  0.1595  0.7005
  551SOL    MW4 2204   0.022   1.699   1.191  0.1991 -0.1666  0.5880
  552SOL     OW 2205   0.030   1.951   1.112 -0.2414  0.1467 -0.2219
  552SOL    HW2 2206  -0.056   1.981   1.141  0.0797  0.5674  0.2968
  552SOL    HW3 2207   0.025   1.953   1.016 -1.2463 -1.0818 -0.2149
  552SOL    MW4 2208   0.018   1.955   1.103 -0.3317  0.0402 -0.1525
  553SOL     OW 2209   0.264   2.008   1.275  0.3891  0.1145 -0.0937
  553SOL    HW2 2210   0.262   2.095   1.234  1.0539  0.2495  0.1538
  553SOL    HW3 2211   0.181   1.968   1.251 -0.5319  1.3622  0.9417
  553SOL    MW4 2212   0.253   2.015   1.266  0.3553  0.2970  0.0755
  554SOL     OW 2213   0.241   2.292   1.162 -0.5884  0.0358  0.6778
  554SOL    HW2 2214   0.322   2.333   1.194  0.1209  0.6203 -1.7435
  554SOL    HW3 2215   0.172   2.353   1.190  0.0117  0.6048  0.9550
  554SOL    MW4 2216   0.243   2.306   1.170 -0.4156  0.1880  0.3949
  555SOL     OW 2217   4.473   2.459   1.218  0.0173  0.4878  0.4223
  555SOL    HW2 2218   4.460   2.442   1.311  0.4033 -0.2692  0.3372
  555SOL    HW3 2219   4.393   2.430   1.176  0.9979 -1.9663  0.1761
  555SOL    MW4 2220   4.461   2.453   1.224  0.1976  0.0641  0.3786
  556SOL     OW 2221   4.489   2.717   1.162 -0.2011 -0.0729 -0.2974
  556SOL    HW2 2222   4.412   2.755   1.203  0.5666  0.6602  0.4934
  556SOL    HW3 2223   4.487   2.625   1.187 -0.5330  0.0608  0.1626
  556SOL    MW4 2224   4.479   2.710   1.170 -0.1436  0.0415 -0.1324
  557SOL     OW 2225   0.238   2.833   1.230  0.0498  0.4804  0.4475
  557SOL    HW2 2226   0.240   2.840   1.326  0.3443  0.0096  0.4750
  557SOL    HW3 2227   0.159   2.782   1.212  1.8611 -2.4734  0.6261
  557SOL    MW4 2228   0.228   2.827   1.240  0.3276  0.0286  0.4747
  558SOL     OW 2229   0.205   3.078   1.159 -0.3859  0.1218  0.1159
  558SOL    HW2 2230   0.286   3.127   1.169 -1.3470  1.8675 -0.4974
  558SOL    HW3 2231   0.230   2.986   1.173  1.7321  0.6169 -0.3441
  558SOL    MW4 2232   0.219   3.072   1.162 -0.2332  0.4175 -0.0257
  559SOL     OW 2233   4.475   3.250   1.233 -0.3501  0.2189  0.0025
  559SOL    HW2 2234   4.399   3.201   1.202 -0.7442  1.1602 -0.5199
  559SOL    HW3 2235   4.550   3.196   1.208 -0.8126 -0.4387  0.0185
  559SOL    MW4 2236   4.475   3.236   1.226 -0.4631  0.2563 -0.0643
  560SOL     OW 2237   0.052   3.481   1.118 -0.1241 -0.2080 -0.6089
  560SOL    HW2 2238   0.031   3.397   1.158 -1.6587  0.0972 -0.7530
  560SOL    HW3 2239   0.036   3.469   1.025  0.0463  0.1344 -0.6858
  560SOL    MW4 2240   0.047   3.468   1.111 -0.3041 -0.1226 -0.6380
  561SOL     OW 2241   0.287   3.618   1.204 -0.0417  0.3907  0.7749
  561SOL    HW2 2242   0.278   3.627   1.299 -0.4425  2.3315  0.5770
  561SOL    HW3 2243   0.206   3.577   1.176  0.3019 -0.6821  1.3241
  561SOL    MW4 2244   0.275   3.614   1.212 -0.0493  0.5052  0.8212
  562SOL     OW 2245   0.272   3.856   1.075  0.0091 -0.1106  0.5444
  562SOL    HW2 2246   0.194   3.888   1.119  0.0732  1.4615 -0.4292
  562SOL    HW3 2247   0.284   3.767   1.107 -2.7394 -0.7158 -0.0170
  562SOL    MW4 2248   0.263   3.848   1.085 -0.3450  0.0169  0.3419
  563SOL     OW 2249   0.033   3.968   1.195  0.2826 -0.1184  0.3188
  563SOL    HW2 2250   0.023   3.972   1.291 -1.5631  0.0723  0.1286
  563SOL    HW3 2251  -0.039   3.912   1.166  0.7759 -0.0843 -0.9833
  563SOL    MW4 2252   0.022   3.961   1.204  0.1042 -0.0887  0.1219
  564SOL     OW 2253   0.000   4.224   1.092 -0.2809 -0.1070  0.1964
  564SOL    HW2 2254   0.078   4.278   1.106  0.2000 -0.3373 -1.4633
  564SOL    HW3 2255   0.026   4.137   1.119 -0.1348 -0.0757  0.1592
  564SOL    MW4 2256   0.014   4.220   1.097 -0.1981 -0.1332 -0.0275
  565SOL     OW 2257   0.222   4.390   1.158  0.3659 -0.3942  0.0470
  565SOL    HW2 2258   0.232   4.410   1.251 -0.0066  1.2049 -0.2271
  565SOL    HW3 2259   0.224   4.476   1.115 -0.1838 -1.0585 -1.3457
  565SOL    MW4 2260   0.223   4.404   1.165  0.2443 -0.2708 -0.1729
  566SOL     OW 2261   0.633   4.648   1.134 -0.0656 -0.0612 -0.4837
  566SOL    HW2 2262   0.716   4.688   1.160 -0.1414 -0.9242  1.1113
  566SOL    HW3 2263   0.634   4.561   1.174 -1.9218  0.0676 -0.0975
  566SOL    MW4 2264   0.644   4.642   1.143 -0.3205 -0.1581 -0.2223
  567SOL     OW 2265   0.429   0.143   1.212 -0.1626  0.3217 -0.7228
  567SOL    HW2 2266   0.440   0.225   1.163  1.8794  0.8720  0.6024
  567SOL    HW3 2267   0.504   0.090   1.187  0.9954  0.6644  1.8837
  567SOL    MW4 2268   0.440   0.147   1.202  0.2596  0.4395 -0.2040
  568SOL     OW 2269   0.462   0.384   1.098 -0.4868  0.1900  0.2405
  568SOL    HW2 2270   0.386   0.431   1.133 -1.9651 -1.1692 -1.0692
  568SOL    HW3 2271   0.471   0.415   1.008  0.8951  0.7721  0.5572
  568SOL    MW4 2272   0.453   0.395   1.091 -0.4995  0.0874  0.1095
  569SOL     OW 2273   0.686   0.502   1.208  0.3615 -0.1244 -0.1177
  569SOL    HW2 2274   0.683   0.592   1.175  2.1903 -0.0768 -0.1804
  569SOL    HW3 2275   0.609   0.460   1.168 -0.9461  1.5905  0.5251
  569SOL    MW4 2276   0.675   0.508   1.198  0.4303  0.1082 -0.0412
  570SOL     OW 2277   0.693   0.766   1.138  0.0096  0.6128  0.2577
  570SOL    HW2 2278   0.609   0.802   1.164 -1.2536 -2.0018 -0.0677
  570SOL    HW3 2279   0.697   0.779   1.043  0.9067  2.5587  0.5341
  570SOL    MW4 2280   0.683   0.773   1.129 -0.0387  0.5246  0.2512
  571SOL     OW 2281   0.448   0.874   1.226 -0.6544  0.7596  0.1438
  571SOL    HW2 2282   0.453   0.891   1.320 -1.9215  2.5995 -0.1111
  571SOL    HW3 2283   0.447   0.961   1.186 -1.3941  0.0031 -1.5101
  571SOL    MW4 2284   0.449   0.888   1.233 -0.9192  0.9026 -0.1080
  572SOL     OW 2285   0.452   1.131   1.142 -0.5660 -0.5021 -0.2632
  572SOL    HW2 2286   0.540   1.155   1.172 -0.5967 -0.2256 -0.3994
  572SOL    HW3 2287   0.454   1.145   1.048 -0.6583 -0.8033 -0.3110
  572SOL    MW4 2288   0.464   1.136   1.134 -0.5822 -0.5053 -0.2875
  573SOL     OW 2289   0.691   1.233   1.220  0.1048  0.6639 -0.1597
  573SOL    HW2 2290   0.779   1.201   1.202 -0.2912  0.0365 -1.0255
  573SOL    HW3 2291   0.684   1.313   1.168 -0.0861  0.3165 -0.6778
  573SOL    MW4 2292   0.702   1.239   1.211  0.0273  0.5353 -0.3423
  574SOL     OW 2293   0.664   1.485   1.120  0.4089  0.0985 -0.2539
  574SOL    HW2 2294   0.746   1.529   1.141  0.3981 -0.6703  1.5283
  574SOL    HW3 2295   0.597   1.534   1.167  0.1767 -0.7643  0.3343
  574SOL    MW4 2296   0.666   1.497   1.129  0.3769 -0.1168  0.0588
  575SOL     OW 2297   0.454   1.623   1.220 -0.2789  0.4644  0.2551
  575SOL    HW2 2298   0.450   1.618   1.316 -0.2886 -3.0727  0.1581
  575SOL    HW3 2299   0.374   1.578   1.191  0.3610  0.3948 -1.4179
  575SOL    MW4 2300   0.443   1.616   1.229 -0.1957 -0.0114  0.0215
  576SOL     OW 2301   0.482   1.891   1.135 -0.1931 -0.1855 -0.2188
  576SOL    HW2 2302   0.471   1.797   1.149  0.9378 -0.0043  2.2214
  576SOL    HW3 2303   0.412   1.932   1.187  0.0587  0.3544 -0.2988
  576SOL    MW4 2304   0.471   1.884   1.144 -0.0106 -0.0904  0.0926
  577SOL     OW 2305   0.673   2.282   1.164 -0.7094  0.5098 -0.3748
  577SOL    HW2 2306   0.601   2.325   1.211 -1.6889 -0.8575 -0.6002
  577SOL    HW3 2307   0.673   2.192   1.197  0.9316  0.4928 -0.3548
  577SOL    MW4 2308   0.664   2.276   1.175 -0.6221  0.3271 -0.4019
  578SOL     OW 2309   2.412   3.352   0.436 -0.0367 -0.3846 -0.5264
  578SOL    HW2 2310   2.445   3.274   0.391  0.2097 -0.5449 -0.0676
  578SOL    HW3 2311   2.343   3.320   0.493  0.9710 -0.4619  0.6600
  578SOL    MW4 2312   2.407   3.338   0.437  0.1288 -0.4159 -0.3093
  579SOL     OW 2313   0.453   2.419   1.264  0.2363  0.3038 -0.2637
  579SOL    HW2 2314   0.434   2.438   1.356 -0.3475 -0.0450 -0.3165
  579SOL    HW3 2315   0.463   2.506   1.224  0.1620  0.4623  0.0569
  579SOL    MW4 2316   0.452   2.433   1.271  0.1495  0.2787 -0.2284
  580SOL     OW 2317   0.457   2.684   1.150 -0.0537 -0.1998  0.2385
  580SOL    HW2 2318   0.387   2.741   1.181 -1.5598 -2.4560  1.1428
  580SOL    HW3 2319   0.452   2.688   1.055 -0.8103  0.3716  0.3010
  580SOL    MW4 2320   0.447   2.692   1.142 -0.3523 -0.4221  0.3661
  581SOL     OW 2321   0.711   2.794   1.236 -0.1421 -0.3506 -0.2358
  581SOL    HW2 2322   0.703   2.881   1.198 -1.5182 -0.2258  0.3111
  581SOL    HW3 2323   0.633   2.747   1.207  1.3445 -1.9264 -1.8099
  581SOL    MW4 2324   0.699   2.799   1.227 -0.1275 -0.5421 -0.3713
  582SOL     OW 2325   0.692   3.038   1.120  0.3698  0.4060 -0.0147
  582SOL    HW2 2326   0.769   3.092   1.137  0.7321 -0.2747  0.5891
  582SOL    HW3 2327   0.677   3.045   1.026  0.2096  1.8044  0.1159
  582SOL    MW4 2328   0.700   3.046   1.110  0.3964  0.5007  0.0822
  583SOL     OW 2329   0.471   3.188   1.212 -0.3315  0.1272  0.0973
  583SOL    HW2 2330   0.485   3.277   1.181  0.3150  0.0157  0.0623
  583SOL    HW3 2331   0.538   3.136   1.167 -1.5328 -0.6057 -0.8928
  583SOL    MW4 2332   0.481   3.193   1.202 -0.4047  0.0158 -0.0380
  584SOL     OW 2333   0.490   3.455   1.094  0.2669  0.1391  0.1246
  584SOL    HW2 2334   0.571   3.487   1.132  0.2076 -0.7996  1.0850
  584SOL    HW3 2335   0.423   3.515   1.125  0.7575  1.6348 -1.6763
  584SOL    MW4 2336   0.492   3.467   1.103  0.3238  0.2126  0.0137
  585SOL     OW 2337   0.738   3.588   1.156  0.1248 -0.0553 -0.4427
  585SOL    HW2 2338   0.733   3.590   1.252 -0.1831 -1.0456 -0.4338
  585SOL    HW3 2339   0.727   3.679   1.130 -0.4209  0.1421  0.4398
  585SOL    MW4 2340   0.736   3.600   1.165  0.0122 -0.1599 -0.3251
  586SOL     OW 2341   0.693   3.854   1.060  0.3573  0.2410 -0.5802
  586SOL    HW2 2342   0.616   3.901   1.094  1.2332  0.9473  0.4513
  586SOL    HW3 2343   0.673   3.840   0.967  0.0419  2.5947 -0.8931
  586SOL    MW4 2344   0.680   3.858   1.052  0.4313  0.6447 -0.4854
  587SOL     OW 2345   0.482   3.999   1.170  0.1244  0.3508 -0.1173
  587SOL    HW2 2346   0.484   4.089   1.135  2.2242  0.4609  0.2089
  587SOL    HW3 2347   0.397   3.965   1.143  0.3265  1.5720 -2.4626
  587SOL    MW4 2348   0.471   4.007   1.162  0.4281  0.5265 -0.3837
  588SOL     OW 2349   0.465   4.264   1.084  0.0886  0.3183  0.5951
  588SOL    HW2 2350   0.533   4.325   1.113  0.0750  0.5157  0.2147
  588SOL    HW3 2351   0.383   4.303   1.115  0.1511  0.0628  1.0827
  588SOL    MW4 2352   0.463   4.277   1.092  0.0950  0.3106  0.6092
  589SOL     OW 2353   0.685   4.383   1.216  0.1150 -0.1463  0.8746
  589SOL    HW2 2354   0.702   4.399   1.308  0.2456  1.2570  0.6172
  589SOL    HW3 2355   0.768   4.351   1.180  0.2629  0.0170  1.0783
  589SOL    MW4 2356   0.698   4.381   1.223  0.1517  0.0604  0.8675
  590SOL     OW 2357   1.094   4.649   1.121  0.7053  0.2619 -0.3357
  590SOL    HW2 2358   1.111   4.568   1.170  0.1683  0.2433 -0.1777
  590SOL    HW3 2359   1.097   4.623   1.029  1.0820  0.1725 -0.3004
  590SOL    MW4 2360   1.097   4.635   1.115  0.6842  0.2476 -0.3102
  591SOL     OW 2361   0.864   0.093   1.227 -0.1946 -0.4788  0.0779
  591SOL    HW2 2362   0.875   0.092   1.323 -0.4608 -1.1205  0.1031
  591SOL    HW3 2363   0.951   0.072   1.193  0.1364  0.7236  0.1551
  591SOL    MW4 2364   0.877   0.090   1.235 -0.1860 -0.4048  0.0914
  592SOL     OW 2365   0.908   0.363   1.131 -0.0132  0.0739 -0.2060
  592SOL    HW2 2366   0.875   0.274   1.146 -0.4007  0.5223  1.8278
  592SOL    HW3 2367   0.836   0.419   1.160  1.5494  1.0524  1.8817
  592SOL    MW4 2368   0.894   0.358   1.137  0.1419  0.2621  0.3378
  593SOL     OW 2369   1.127   0.489   1.236 -0.0089 -0.2313  0.2945
  593SOL    HW2 2370   1.123   0.490   1.331 -1.2457 -0.7292  0.2615
  593SOL    HW3 2371   1.051   0.438   1.209 -0.4002  0.9827 -1.0001
  593SOL    MW4 2372   1.117   0.483   1.245 -0.2237 -0.1368  0.1194
  594SOL     OW 2373   1.131   0.724   1.093 -0.4122 -0.0078  0.6894
  594SOL    HW2 2374   1.069   0.785   1.135 -0.4393  0.6624 -0.3019
  594SOL    HW3 2375   1.135   0.650   1.153 -1.3457  0.4208  1.3100
  594SOL    MW4 2376   1.123   0.723   1.107 -0.5390  0.1372  0.6405
  595SOL     OW 2377   0.928   0.871   1.236 -0.8415  0.3461  0.4846
  595SOL    HW2 2378   0.935   0.959   1.200 -0.1147  1.4434  3.1388
  595SOL    HW3 2379   0.846   0.836   1.200 -1.4570  2.3511 -0.1099
  595SOL    MW4 2380   0.918   0.878   1.227 -0.8268  0.7554  0.7563
  596SOL     OW 2381   0.926   1.125   1.133  0.4096  0.1638  0.1308
  596SOL    HW2 2382   1.009   1.164   1.159 -0.6297  1.9197  0.8757
  596SOL    HW3 2383   0.917   1.146   1.040  1.0439 -0.5270 -0.0980
  596SOL    MW4 2384   0.936   1.133   1.124  0.3562  0.3043  0.1989
  597SOL     OW 2385   1.165   1.243   1.195 -0.3792 -0.1594 -0.2972
  597SOL    HW2 2386   1.147   1.255   1.288 -0.6336  0.9195 -0.4750
  597SOL    HW3 2387   1.251   1.200   1.192 -0.1512  0.2459  0.4158
  597SOL    MW4 2388   1.174   1.239   1.207 -0.3827  0.0364 -0.2266
  598SOL     OW 2389   1.184   1.526   1.162 -0.0140  0.4230  0.1046
  598SOL    HW2 2390   1.166   1.432   1.155 -2.7458  0.8379  0.7298
  598SOL    HW3 2391   1.177   1.558   1.072  0.6583  0.0681 -0.0754
  598SOL    MW4 2392   1.181   1.518   1.149 -0.2857  0.4309  0.1634
  599SOL     OW 2393   0.914   1.626   1.180  0.5626 -0.3904  0.2713
  599SOL    HW2 2394   0.923   1.695   1.113 -0.1745 -0.0638  0.5069
  599SOL    HW3 2395   1.000   1.584   1.182  0.8824  0.2246 -0.2025
  599SOL    MW4 2396   0.927   1.630   1.171  0.5076 -0.2662  0.2399
  600SOL     OW 2397   0.699   2.026   1.261  0.0468  0.3052 -0.0513
  600SOL    HW2 2398   0.687   2.038   1.355  1.2634 -0.6225  0.2481
  600SOL    HW3 2399   0.621   1.979   1.233  0.5554 -1.1348  0.8760
  600SOL    MW4 2400   0.687   2.021   1.270  0.2744 -0.0072  0.1105
  601SOL     OW 2401   1.190   2.055   1.175 -0.5355  0.0383  0.3391
  601SOL    HW2 2402   1.156   2.055   1.264 -0.5653  0.8833  0.3305
  601SOL    HW3 2403   1.195   2.148   1.150 -0.1981 -0.1695 -0.4092
  601SOL    MW4 2404   1.186   2.068   1.183 -0.4949  0.1224  0.2392
  602SOL     OW 2405   1.162   2.314   1.113 -0.0990 -0.1172  0.0638
  602SOL    HW2 2406   1.220   2.376   1.157  0.2013 -0.9157  0.8051
  602SOL    HW3 2407   1.077   2.326   1.155 -0.1521  0.1058 -0.1043
  602SOL    MW4 2408   1.158   2.324   1.124 -0.0664 -0.1931  0.1394
  603SOL     OW 2409   0.930   2.381   1.259 -0.9804 -0.1176 -0.0067
  603SOL    HW2 2410   0.938   2.366   1.353 -0.5979 -1.4785 -0.2357
  603SOL    HW3 2411   0.839   2.357   1.238 -0.8492 -0.5465 -0.0986
  603SOL    MW4 2412   0.919   2.376   1.269 -0.9126 -0.3537 -0.0490
  604SOL     OW 2413   0.928   2.634   1.136 -0.2055  0.0911 -0.4304
  604SOL    HW2 2414   0.919   2.555   1.191  1.2984 -0.7455 -1.3544
  604SOL    HW3 2415   0.854   2.689   1.162 -1.3974 -1.6983  0.1142
  604SOL    MW4 2416   0.917   2.631   1.147 -0.1644 -0.2553 -0.4805
  605SOL     OW 2417   1.157   2.788   1.173 -0.2830  0.2742  0.2600
  605SOL    HW2 2418   1.150   2.818   1.264  0.9437 -0.6489  0.6797
  605SOL    HW3 2419   1.086   2.725   1.163 -1.4545  1.6083  0.0652
  605SOL    MW4 2420   1.147   2.784   1.184 -0.2757  0.3284  0.2896
  606SOL     OW 2421   1.123   3.049   1.103  0.0579 -0.4229 -0.0204
  606SOL    HW2 2422   1.142   2.957   1.123  0.2440 -0.2664  0.5428
  606SOL    HW3 2423   1.133   3.056   1.008  2.2346 -0.4867  0.1765
  606SOL    MW4 2424   1.127   3.038   1.093  0.3696 -0.4107  0.0799
  607SOL     OW 2425   0.910   3.199   1.203  0.5306  0.1169 -0.4582
  607SOL    HW2 2426   0.922   3.279   1.153 -0.9307 -0.4601 -1.7706
  607SOL    HW3 2427   0.977   3.140   1.170 -0.1120 -0.0930 -1.4133
  607SOL    MW4 2428   0.920   3.201   1.192  0.2530  0.0131 -0.7574
  608SOL     OW 2429   0.945   3.430   1.049  0.3146 -0.0764  0.0673
  608SOL    HW2 2430   0.864   3.481   1.057  1.4946  1.5819  1.6045
  608SOL    HW3 2431   0.954   3.414   0.955 -1.0834  0.8821 -0.2493
  608SOL    MW4 2432   0.935   3.434   1.038  0.2858  0.2689  0.2283
  609SOL     OW 2433   1.118   3.601   1.188 -0.7011  0.0309 -0.4970
  609SOL    HW2 2434   1.198   3.559   1.156 -0.6812  0.4662 -1.0170
  609SOL    HW3 2435   1.047   3.555   1.142 -0.7692 -0.5317  0.1594
  609SOL    MW4 2436   1.119   3.589   1.178 -0.7075  0.0141 -0.4790
  610SOL     OW 2437   1.130   3.876   1.058  0.3612  0.2675 -0.3367
  610SOL    HW2 2438   1.055   3.913   1.105  1.1120  0.3003  0.8556
  610SOL    HW3 2439   1.137   3.786   1.091  0.6065  0.1331 -0.7418
  610SOL    MW4 2440   1.121   3.869   1.069  0.4927  0.2541 -0.2329
  611SOL     OW 2441   0.911   4.009   1.191 -0.0040  0.7085 -0.1549
  611SOL    HW2 2442   0.898   4.004   1.286  0.9883  0.5842 -0.0166
  611SOL    HW3 2443   0.829   3.978   1.154  0.2740 -1.0824  0.6753
  611SOL    MW4 2444   0.898   4.004   1.199  0.1636  0.4558 -0.0271
  612SOL     OW 2445   0.911   4.270   1.101  0.5706  0.3975  0.1534
  612SOL    HW2 2446   0.917   4.176   1.119 -0.4214  0.2622 -0.1925
  612SOL    HW3 2447   0.887   4.276   1.009 -0.2238  0.9683  0.3832
  612SOL    MW4 2448   0.908   4.259   1.091  0.3349  0.4549  0.1381
  613SOL     OW 2449   1.147   4.372   1.224 -0.5023  0.0059 -0.0090
  613SOL    HW2 2450   1.150   4.355   1.318  0.1932  1.9615  0.3395
  613SOL    HW3 2451   1.057   4.350   1.198 -0.3523 -1.7187  0.8571
  613SOL    MW4 2452   1.135   4.367   1.233 -0.3907  0.0363  0.1512
  614SOL     OW 2453   1.561   4.632   1.136  0.3929  0.2869 -0.2036
  614SOL    HW2 2454   1.628   4.682   1.182 -0.0243  1.4770 -0.8685
  614SOL    HW3 2455   1.571   4.542   1.168  0.2222  1.0521  2.0593
  614SOL    MW4 2456   1.571   4.627   1.146  0.3154  0.5449  0.0073
  615SOL     OW 2457   1.330   0.109   1.207  0.0663 -0.0623 -0.4122
  615SOL    HW2 2458   1.396   0.041   1.199 -1.1919 -1.2727 -0.8264
  615SOL    HW3 2459   1.250   0.069   1.173 -0.8096  1.4655 -0.2153
  615SOL    MW4 2460   1.328   0.095   1.202 -0.2153 -0.0204 -0.4409
  616SOL     OW 2461   1.318   0.347   1.084 -0.2304  0.0742  0.2317
  616SOL    HW2 2462   1.309   0.258   1.117 -0.4521 -0.1049 -0.3083
  616SOL    HW3 2463   1.251   0.398   1.130 -0.2579 -0.0855  0.3655
  616SOL    MW4 2464   1.308   0.342   1.094 -0.2633  0.0295  0.1781
  617SOL     OW 2465   1.539   0.482   1.207  0.2101 -0.2016  0.9863
  617SOL    HW2 2466   1.558   0.563   1.160  0.5679 -0.6007  0.4341
  617SOL    HW3 2467   1.470   0.440   1.157  1.2364 -1.0739  0.2851
  617SOL    MW4 2468   1.533   0.487   1.194  0.3927 -0.3693  0.8209
  618SOL     OW 2469   1.589   0.725   1.098  0.4730  0.5501  0.0626
  618SOL    HW2 2470   1.661   0.778   1.133  1.2463 -0.2672 -0.2885
  618SOL    HW3 2471   1.590   0.743   1.004 -0.0641  0.8655  0.1118
  618SOL    MW4 2472   1.599   0.734   1.090  0.5042  0.4839  0.0228
  619SOL     OW 2473   1.375   0.825   1.228  0.3180 -0.1401  0.6974
  619SOL    HW2 2474   1.451   0.782   1.189  0.1812  1.1148 -0.9822
  619SOL    HW3 2475   1.301   0.796   1.174 -0.3476 -0.9672  2.0267
  619SOL    MW4 2476   1.376   0.816   1.216  0.2121 -0.0836  0.6512
  620SOL     OW 2477   1.399   1.093   1.138 -0.1334  0.2280 -0.1263
  620SOL    HW2 2478   1.409   1.002   1.166  0.1990  0.3498  0.1622
  620SOL    HW3 2479   1.382   1.088   1.044 -0.7011 -0.1629 -0.0035
  620SOL    MW4 2480   1.398   1.080   1.130 -0.1644  0.1925 -0.0721
  621SOL     OW 2481   1.619   1.241   1.226 -0.6597 -0.4138 -0.1913
  621SOL    HW2 2482   1.700   1.196   1.206 -0.4511 -1.2533  2.4148
  621SOL    HW3 2483   1.550   1.184   1.191 -0.1997 -0.1903 -1.4940
  621SOL    MW4 2484   1.620   1.228   1.218 -0.5715 -0.4950 -0.0194
  622SOL     OW 2485   1.604   1.515   1.161  0.0363  0.2663  0.4198
  622SOL    HW2 2486   1.690   1.550   1.187 -0.1402  0.4749  0.7258
  622SOL    HW3 2487   1.613   1.421   1.171  0.2526  0.2809  0.3817
  622SOL    MW4 2488   1.617   1.508   1.166  0.0415  0.2958  0.4551
  623SOL     OW 2489   1.404   1.676   1.238  0.8076 -0.0685 -0.3997
  623SOL    HW2 2490   1.484   1.633   1.209  1.1475  1.0861 -1.1739
  623SOL    HW3 2491   1.334   1.623   1.200  1.1587 -1.4591  0.8080
  623SOL    MW4 2492   1.405   1.663   1.229  0.8988 -0.0997 -0.3425
  624SOL     OW 2493   1.447   1.921   1.146 -0.1470 -0.1929  0.3508
  624SOL    HW2 2494   1.444   1.832   1.183 -0.2012 -0.2425  0.2252
  624SOL    HW3 2495   1.359   1.955   1.160 -0.6819 -0.8613 -1.3558
  624SOL    MW4 2496   1.435   1.914   1.153 -0.2248 -0.2876  0.1090
  625SOL     OW 2497   1.660   2.094   1.207  0.0735 -0.0034 -0.0139
  625SOL    HW2 2498   1.666   2.187   1.186 -1.0910  0.4287  1.5027
  625SOL    HW3 2499   1.571   2.069   1.184  0.4869 -0.8489 -0.7565
  625SOL    MW4 2500   1.649   2.103   1.202 -0.0256 -0.0580  0.0882
  626SOL     OW 2501   1.619   2.368   1.122  0.4095 -0.0286  0.2252
  626SOL    HW2 2502   1.530   2.381   1.155  1.0880  0.4547  1.9344
  626SOL    HW3 2503   1.608   2.347   1.029 -1.5158 -0.5838  0.5651
  626SOL    MW4 2504   1.606   2.367   1.114  0.2450 -0.0381  0.4955
  627SOL     OW 2505   1.367   2.433   1.245  0.3901 -0.2417  0.1115
  627SOL    HW2 2506   1.351   2.441   1.339  2.1852  1.2439  0.3202
  627SOL    HW3 2507   1.386   2.523   1.216  0.4649 -0.7755 -1.5495
  627SOL    MW4 2508   1.367   2.446   1.254  0.6368 -0.1161 -0.0801
  628SOL     OW 2509   1.418   2.668   1.089  0.1001 -0.1033 -0.3219
  628SOL    HW2 2510   1.485   2.715   1.140 -0.9374  0.8827  0.1448
  628SOL    HW3 2511   1.336   2.709   1.114 -0.6133 -0.8330 -1.4396
  628SOL    MW4 2512   1.416   2.680   1.099 -0.1309 -0.0695 -0.4078
  629SOL     OW 2513   1.579   2.868   1.199 -0.3424  0.5060 -0.2128
  629SOL    HW2 2514   1.664   2.832   1.176 -1.2396 -1.0152 -1.2966
  629SOL    HW3 2515   1.560   2.932   1.130  0.5135  1.8770  0.7950
  629SOL    MW4 2516   1.588   2.872   1.187 -0.3478  0.4862 -0.2228
  630SOL     OW 2517   1.537   3.077   1.005  0.1419  0.3903  0.4648
  630SOL    HW2 2518   1.615   3.116   1.045  1.0567  1.2890 -2.1480
  630SOL    HW3 2519   1.464   3.123   1.048  1.0264  0.1734  2.2754
  630SOL    MW4 2520   1.538   3.088   1.016  0.3793  0.4803  0.3590
  631SOL     OW 2521   1.346   3.224   1.151 -0.0078  0.6785 -0.1112
  631SOL    HW2 2522   1.358   3.226   1.246 -2.7453  2.5028  0.2330
  631SOL    HW3 2523   1.263   3.177   1.138  0.1560  0.7768 -1.5875
  631SOL    MW4 2524   1.337   3.218   1.162 -0.3474  0.9322 -0.2605
  632SOL     OW 2525   1.343   3.488   1.053 -0.2771  0.0020 -0.0298
  632SOL    HW2 2526   1.339   3.405   1.099 -1.1672  0.4811  0.7825
  632SOL    HW3 2527   1.337   3.465   0.960 -1.4353 -0.7946  0.2278
  632SOL    MW4 2528   1.341   3.474   1.047 -0.5474 -0.0399  0.1114
  633SOL     OW 2529   1.599   3.588   1.129 -0.1626  0.5207  0.1191
  633SOL    HW2 2530   1.589   3.682   1.144  0.7181  0.8517 -1.2616
  633SOL    HW3 2531   1.511   3.558   1.105 -0.1783  1.2375 -0.7268
  633SOL    MW4 2532   1.586   3.597   1.128 -0.0484  0.6589 -0.1747
  634SOL     OW 2533   1.837   3.980   1.242  0.0182 -0.1112  0.1768
  634SOL    HW2 2534   1.847   3.994   1.336 -0.1849 -0.7394  0.2943
  634SOL    HW3 2535   1.752   3.938   1.232 -0.0118  0.0501 -0.3016
  634SOL    MW4 2536   1.827   3.977   1.253 -0.0126 -0.1728  0.1292
  635SOL     OW 2537   1.351   3.983   1.237 -0.2632  0.4010 -0.0133
  635SOL    HW2 2538   1.369   4.069   1.199 -1.5151  0.4097 -0.6050
  635SOL    HW3 2539   1.285   3.944   1.179  0.6010 -1.1334  0.0128
  635SOL    MW4 2540   1.344   3.989   1.224 -0.3144  0.1997 -0.0879
  636SOL     OW 2541   1.375   4.257   1.134  0.4782  0.1088 -0.4647
  636SOL    HW2 2542   1.295   4.308   1.150 -0.1157 -1.0366  0.2738
  636SOL    HW3 2543   1.384   4.257   1.039  0.0438  0.9187 -0.5116
  636SOL    MW4 2544   1.366   4.264   1.124  0.3425  0.0646 -0.3734
  637SOL     OW 2545   1.603   4.373   1.230 -0.0193 -0.4976  0.1576
  637SOL    HW2 2546   1.599   4.358   1.324  0.4281  0.6335  0.3716
  637SOL    HW3 2547   1.531   4.321   1.194 -0.3953 -0.6785  1.1554
  637SOL    MW4 2548   1.593   4.364   1.237 -0.0099 -0.3723  0.3175
  638SOL     OW 2549   1.996   4.661   1.107  0.4033  0.1992 -0.2237
  638SOL    HW2 2550   1.984   4.570   1.133  0.2614  0.1054 -0.6154
  638SOL    HW3 2551   2.015   4.657   1.014 -0.2264  0.6167 -0.3761
  638SOL    MW4 2552   1.997   4.649   1.098  0.3015  0.2419 -0.2955
  639SOL     OW 2553   1.774   0.119   1.243  0.2158 -0.3172 -0.6265
  639SOL    HW2 2554   1.770   0.210   1.214 -0.4300 -0.5435 -1.2555
  639SOL    HW3 2555   1.855   0.085   1.207 -0.5461 -0.5763 -2.1112
  639SOL    MW4 2556   1.784   0.127   1.235  0.0300 -0.3812 -0.9054
  640SOL     OW 2557   1.779   0.350   1.105 -0.1633 -0.2361 -0.2896
  640SOL    HW2 2558   1.696   0.386   1.136 -0.7360 -0.2442 -1.7757
  640SOL    HW3 2559   1.769   0.344   1.010  0.7987 -2.1220 -0.2914
  640SOL    MW4 2560   1.767   0.354   1.097 -0.1119 -0.4860 -0.4859
  641SOL     OW 2561   2.019   0.434   1.233 -0.3492  0.2257 -0.2645
  641SOL    HW2 2562   1.993   0.444   1.324  0.4982 -2.3389  0.2938
  641SOL    HW3 2563   1.936   0.422   1.186 -0.7775  1.4499  0.1708
  641SOL    MW4 2564   2.004   0.433   1.239 -0.2939  0.0489 -0.1334
  642SOL     OW 2565   2.048   0.692   1.140  0.1594 -0.1276  0.1877
  642SOL    HW2 2566   2.062   0.681   1.046 -0.6956 -0.3723  0.0772
  642SOL    HW3 2567   2.066   0.606   1.178 -0.3150 -0.2582  0.1311
  642SOL    MW4 2568   2.052   0.680   1.133 -0.0160 -0.1771  0.1657
  643SOL     OW 2569   1.812   0.856   1.209 -0.0500 -0.2387 -0.1301
  643SOL    HW2 2570   1.810   0.875   1.303  0.8302  1.3262 -0.3994
  643SOL    HW3 2571   1.884   0.794   1.199 -0.2677 -0.5590  0.2412
  643SOL    MW4 2572   1.821   0.851   1.220  0.0374 -0.0745 -0.1166
  644SOL     OW 2573   1.856   1.134   1.132  0.1325 -0.4098  0.0223
  644SOL    HW2 2574   1.851   1.040   1.149 -1.1745 -0.4770 -0.7163
  644SOL    HW3 2575   1.836   1.144   1.039 -1.6357  0.7597  0.4961
  644SOL    MW4 2576   1.853   1.123   1.122 -0.2732 -0.2644 -0.0126
  645SOL     OW 2577   2.079   1.268   1.231  0.0825 -0.1389 -0.5753
  645SOL    HW2 2578   2.154   1.214   1.208 -0.6663 -2.1676  1.5885
  645SOL    HW3 2579   2.005   1.226   1.188 -0.4868 -0.8131  1.0261
  645SOL    MW4 2580   2.079   1.255   1.222 -0.0914 -0.4955 -0.0786
  646SOL     OW 2581   2.086   1.538   1.144 -0.8049  0.1227 -0.1569
  646SOL    HW2 2582   2.081   1.448   1.174 -2.6982  0.0682 -0.5372
  646SOL    HW3 2583   2.084   1.532   1.048  1.6387  0.4570 -0.2514
  646SOL    MW4 2584   2.085   1.525   1.135 -0.7323  0.1596 -0.2195
  647SOL     OW 2585   1.812   1.635   1.242  0.0223 -0.5687 -0.1993
  647SOL    HW2 2586   1.821   1.724   1.208  1.4595  0.2627  2.1913
  647SOL    HW3 2587   1.890   1.590   1.210 -0.2000 -0.6790 -0.5847
  647SOL    MW4 2588   1.824   1.641   1.233  0.1826 -0.4735  0.0653
  648SOL     OW 2589   1.849   1.898   1.152  0.0344  0.0145 -0.3521
  648SOL    HW2 2590   1.792   1.965   1.189  0.8796  0.1715  0.7140
  648SOL    HW3 2591   1.838   1.906   1.058  0.3650  1.9059 -0.2570
  648SOL    MW4 2592   1.840   1.908   1.145  0.1895  0.2847 -0.1989
  649SOL     OW 2593   2.070   2.059   1.194  0.0686 -0.0335 -0.0957
  649SOL    HW2 2594   2.062   2.076   1.288 -0.0251 -0.8822  0.0513
  649SOL    HW3 2595   1.992   2.007   1.172 -0.8927  1.7354 -1.0173
  649SOL    MW4 2596   2.059   2.054   1.203 -0.0706  0.0879 -0.1979
  650SOL     OW 2597   2.049   2.307   1.062  0.0623 -0.7083  0.1780
  650SOL    HW2 2598   2.122   2.344   1.112  0.3025 -1.7138  0.5783
  650SOL    HW3 2599   2.047   2.215   1.087 -0.5071 -0.9786 -0.8432
  650SOL    MW4 2600   2.058   2.300   1.072  0.0189 -0.8766  0.0961
  651SOL     OW 2601   1.854   2.465   1.182 -0.0615  0.2227  0.4165
  651SOL    HW2 2602   1.916   2.408   1.137  0.1393  0.6323  0.1703
  651SOL    HW3 2603   1.769   2.441   1.145 -0.3600 -2.0040  2.4659
  651SOL    MW4 2604   1.851   2.454   1.171 -0.0744 -0.0170  0.6544
  652SOL     OW 2605   1.802   2.713   1.070 -0.0784  0.0444 -0.7388
  652SOL    HW2 2606   1.826   2.626   1.104  0.8037  0.5763  0.0134
  652SOL    HW3 2607   1.790   2.698   0.976 -0.4572 -1.0061 -0.5367
  652SOL    MW4 2608   1.804   2.699   1.062 -0.0120 -0.0240 -0.6129
  653SOL     OW 2609   2.041   2.812   1.145 -0.1267 -0.0832 -0.0208
  653SOL    HW2 2610   2.041   2.903   1.115  0.2468 -0.3152 -0.7427
  653SOL    HW3 2611   1.955   2.779   1.120 -0.0283 -0.1112 -0.3193
  653SOL    MW4 2612   2.030   2.820   1.138 -0.0644 -0.1175 -0.1554
  654SOL     OW 2613   1.998   3.081   1.071 -0.3730 -0.4305  0.1292
  654SOL    HW2 2614   1.917   3.124   1.095 -0.4903 -0.6261  0.0860
  654SOL    HW3 2615   2.002   3.090   0.975 -0.5902 -0.8551  0.0808
  654SOL    MW4 2616   1.988   3.088   1.061 -0.4171 -0.5123  0.1171
  655SOL     OW 2617   1.761   3.187   1.133 -0.4697 -0.2330 -0.1447
  655SOL    HW2 2618   1.767   3.186   1.229  0.3597 -0.6161 -0.1966
  655SOL    HW3 2619   1.783   3.277   1.109 -1.1930  0.0050  0.0452
  655SOL    MW4 2620   1.764   3.199   1.143 -0.4557 -0.2521 -0.1265
  656SOL     OW 2621   1.838   3.447   1.043 -0.4785 -0.4984  0.1918
  656SOL    HW2 2622   1.906   3.502   1.082  0.0210 -0.0704 -1.2517
  656SOL    HW3 2623   1.756   3.487   1.071 -0.1562 -0.7268  1.5299
  656SOL    MW4 2624   1.836   3.459   1.052 -0.3701 -0.4720  0.1779
  657SOL     OW 2625   2.028   3.587   1.186 -0.4455 -0.0209 -0.4216
  657SOL    HW2 2626   2.028   3.585   1.282  1.4657  1.2177 -0.3694
  657SOL    HW3 2627   2.116   3.558   1.161 -0.5558  0.7398 -1.7592
  657SOL    MW4 2628   2.039   3.583   1.195 -0.2079  0.2429 -0.5912
  658SOL     OW 2629   2.073   3.878   1.105 -0.6728 -0.4499 -0.4035
  658SOL    HW2 2630   2.011   3.913   1.169  0.0467 -0.1444  0.1367
  658SOL    HW3 2631   2.069   3.783   1.116 -0.4033 -0.3916  0.2484
  658SOL    MW4 2632   2.064   3.870   1.115 -0.5423 -0.4019 -0.2463
  659SOL     OW 2633   1.818   4.230   1.129 -0.6700 -0.4160 -0.2733
  659SOL    HW2 2634   1.741   4.271   1.170 -0.3244 -0.6051  0.5763
  659SOL    HW3 2635   1.825   4.145   1.172  0.0030 -0.4018 -0.3555
  659SOL    MW4 2636   1.809   4.224   1.140 -0.5356 -0.4391 -0.1720
  660SOL     OW 2637   1.378   3.977   0.717  0.3107 -0.2221  0.2633
  660SOL    HW2 2638   1.288   3.945   0.719 -0.2373  1.3074  1.4117
  660SOL    HW3 2639   1.408   3.960   0.628 -1.4695  0.2207 -0.4391
  660SOL    MW4 2640   1.370   3.971   0.706  0.0035  0.0381  0.3221
  661SOL     OW 2641   2.016   4.398   1.170  0.5491 -0.0548 -0.1736
  661SOL    HW2 2642   2.038   4.408   1.262  1.1140  0.7143 -0.3824
  661SOL    HW3 2643   1.953   4.326   1.167 -0.0930  0.4537  0.9063
  661SOL    MW4 2644   2.010   4.390   1.182  0.5389  0.1138 -0.0587
  662SOL     OW 2645   2.432   4.382   1.247 -0.0414  0.7847  0.5858
  662SOL    HW2 2646   2.450   4.466   1.204 -0.7206 -0.1581 -1.5679
  662SOL    HW3 2647   2.358   4.345   1.200  0.9299 -1.5457  0.8024
  662SOL    MW4 2648   2.425   4.388   1.235 -0.0028  0.3529  0.3302
  663SOL     OW 2649   2.251   0.084   1.205  0.3445 -0.1987  0.0877
  663SOL    HW2 2650   2.167   0.049   1.174 -0.1303 -1.3035  2.5116
  663SOL    HW3 2651   2.244   0.178   1.191 -0.2592 -0.5239 -2.0891
  663SOL    MW4 2652   2.239   0.092   1.199  0.2022 -0.3874  0.1203
  664SOL     OW 2653   2.522   0.482   0.687  0.2552 -0.4188 -0.1620
  664SOL    HW2 2654   2.546   0.486   0.595  0.8304 -1.0832 -0.0405
  664SOL    HW3 2655   2.585   0.422   0.727 -0.2431 -0.4666  0.5826
  664SOL    MW4 2656   2.533   0.475   0.680  0.2653 -0.5128 -0.0477
  665SOL     OW 2657   2.285   0.373   1.117  0.5197  0.2166 -0.0202
  665SOL    HW2 2658   2.190   0.378   1.116  0.4063 -1.8640 -1.1708
  665SOL    HW3 2659   2.311   0.384   1.026  1.4740  1.8958  0.4199
  665SOL    MW4 2660   2.276   0.375   1.105  0.6307  0.1636 -0.1140
  666SOL     OW 2661   2.456   0.747   1.072 -0.1987  0.4203 -0.0100
  666SOL    HW2 2662   2.468   0.655   1.094  1.0120  0.4912 -0.3506
  666SOL    HW3 2663   2.476   0.753   0.978  0.5357  1.1701  0.1850
  666SOL    MW4 2664   2.460   0.736   1.062  0.0579  0.5285 -0.0292
  667SOL     OW 2665   2.253   0.846   1.253  0.0023 -0.4334  0.2140
  667SOL    HW2 2666   2.321   0.832   1.187  0.2507  0.4395  0.2724
  667SOL    HW3 2667   2.177   0.801   1.219 -0.1412  0.7886 -1.1384
  667SOL    MW4 2668   2.252   0.838   1.240  0.0161 -0.1570  0.0433
  668SOL     OW 2669   2.288   1.088   1.124  0.2851 -0.4276 -0.1078
  668SOL    HW2 2670   2.279   1.009   1.177 -0.8540 -0.1843  0.0876
  668SOL    HW3 2671   2.371   1.126   1.151  0.2138 -0.8658  0.7529
  668SOL    MW4 2672   2.298   1.082   1.135  0.1254 -0.4533  0.0315
  669SOL     OW 2673   2.516   1.221   1.214  0.1605 -0.1188 -0.1718
  669SOL    HW2 2674   2.592   1.189   1.164 -0.1005  0.6376 -1.0789
  669SOL    HW3 2675   2.504   1.311   1.183 -0.5712  0.0584  0.6137
  669SOL    MW4 2676   2.524   1.229   1.203  0.0295  0.0044 -0.1878
  670SOL     OW 2677   2.486   1.479   1.110 -0.4217 -0.0858  0.2808
  670SOL    HW2 2678   2.423   1.550   1.122  1.0660  1.5842 -1.3277
  670SOL    HW3 2679   2.490   1.466   1.015 -0.5689 -2.2645  0.5432
  670SOL    MW4 2680   2.479   1.487   1.099 -0.2449 -0.1529  0.1032
  671SOL     OW 2681   2.310   1.666   1.205 -0.4118 -0.1089 -0.0011
  671SOL    HW2 2682   2.295   1.756   1.176 -0.5308 -0.0089  0.3717
  671SOL    HW3 2683   2.227   1.622   1.187 -0.1678 -0.2859 -0.7150
  671SOL    MW4 2684   2.297   1.672   1.199 -0.3953 -0.1190 -0.0461
  672SOL     OW 2685   2.305   1.943   1.114  0.2513 -0.0169  0.2978
  672SOL    HW2 2686   2.220   1.983   1.131 -0.1468 -1.1157  0.9286
  672SOL    HW3 2687   2.308   1.934   1.019 -0.5857 -0.5174  0.3186
  672SOL    MW4 2688   2.294   1.947   1.104  0.0883 -0.2279  0.3838
  673SOL     OW 2689   2.514   2.082   1.211  0.2946 -0.0099 -0.0087
  673SOL    HW2 2690   2.584   2.020   1.189  0.9859  1.4246 -2.0226
  673SOL    HW3 2691   2.434   2.038   1.184  0.4391 -1.3954  1.6996
  673SOL    MW4 2692   2.513   2.068   1.205  0.4049 -0.0035 -0.0490
  674SOL     OW 2693   2.473   2.350   1.143 -0.2216  0.0576 -0.5032
  674SOL    HW2 2694   2.488   2.260   1.174 -0.8814  0.6372  1.5689
  674SOL    HW3 2695   2.492   2.346   1.049  3.6016 -1.3579  0.2332
  674SOL    MW4 2696   2.477   2.337   1.134  0.1958 -0.0527 -0.1326
  675SOL     OW 2697   2.226   2.440   1.241  0.0714  0.4748  0.0717
  675SOL    HW2 2698   2.233   2.442   1.337  2.1419  0.5046 -0.0462
  675SOL    HW3 2699   2.311   2.406   1.212  0.1443  2.2100 -1.8457
  675SOL    MW4 2700   2.238   2.436   1.250  0.3542  0.7077 -0.1969
  676SOL     OW 2701   2.280   2.662   1.101  0.2925  0.0790  0.2355
  676SOL    HW2 2702   2.262   2.575   1.134  0.2560 -0.6997 -1.7573
  676SOL    HW3 2703   2.202   2.713   1.122 -0.0437 -0.5988  0.6453
  676SOL    MW4 2704   2.268   2.657   1.108  0.2433 -0.1132  0.0266
  677SOL     OW 2705   2.695   2.710   1.108  0.0650 -0.1054  0.1931
  677SOL    HW2 2706   2.616   2.748   1.147 -0.8822 -0.7006 -1.0886
  677SOL    HW3 2707   2.698   2.621   1.144 -0.8835 -0.7008 -1.1302
  677SOL    MW4 2708   2.685   2.703   1.118 -0.1851 -0.2625 -0.1506
  678SOL     OW 2709   2.476   2.841   1.203  0.0644 -0.0197 -0.3580
  678SOL    HW2 2710   2.405   2.778   1.195  1.1005 -1.0679 -1.5672
  678SOL    HW3 2711   2.483   2.858   1.297 -0.7831 -1.0689 -0.1038
  678SOL    MW4 2712   2.468   2.835   1.214  0.0893 -0.2964 -0.4840
  679SOL     OW 2713   2.218   3.204   1.203  0.0852  0.0432 -0.5152
  679SOL    HW2 2714   2.224   3.288   1.158 -1.5963 -0.1132 -1.0451
  679SOL    HW3 2715   2.142   3.161   1.165  0.3991 -1.3520  0.3844
  679SOL    MW4 2716   2.209   3.210   1.192 -0.0953 -0.1615 -0.4664
  680SOL     OW 2717   2.257   3.451   1.083  0.1646  0.0889  0.1649
  680SOL    HW2 2718   2.324   3.505   1.123  0.3233 -0.3080  0.4382
  680SOL    HW3 2719   2.277   3.452   0.989  1.1817 -0.8988  0.3701
  680SOL    MW4 2720   2.268   3.458   1.076  0.3198 -0.0938  0.2280
  681SOL     OW 2721   2.443   3.586   1.214  0.7443  0.1132  0.0768
  681SOL    HW2 2722   2.428   3.584   1.309  0.2149 -2.3357 -0.0230
  681SOL    HW3 2723   2.442   3.679   1.192 -1.1738  0.6450  2.1639
  681SOL    MW4 2724   2.441   3.598   1.224  0.4214 -0.1397  0.3390
  682SOL     OW 2725   2.471   3.845   1.131  0.1182  0.0065  0.4713
  682SOL    HW2 2726   2.415   3.917   1.160  1.0811  0.5321  1.0480
  682SOL    HW3 2727   2.492   3.867   1.040  0.3487  0.4227  0.6210
  682SOL    MW4 2728   2.466   3.858   1.123  0.2756  0.1307  0.5671
  683SOL     OW 2729   2.281   4.022   1.237 -0.0801 -0.0044 -0.3367
  683SOL    HW2 2730   2.274   4.101   1.184 -0.9736 -0.3462 -0.7391
  683SOL    HW3 2731   2.219   3.961   1.198 -1.0564 -0.1244  1.3580
  683SOL    MW4 2732   2.272   4.024   1.225 -0.3268 -0.0653 -0.1662
  684SOL     OW 2733   1.398   3.620   0.260 -0.1290 -0.0364 -0.1865
  684SOL    HW2 2734   1.458   3.655   0.325  0.0192  0.7284 -0.7237
  684SOL    HW3 2735   1.440   3.539   0.229  0.2347  0.0801  0.0047
  684SOL    MW4 2736   1.411   3.614   0.264 -0.0615  0.0799 -0.2322
  685SOL     OW 2737   2.253   4.246   1.079 -0.0049 -0.1795  0.3628
  685SOL    HW2 2738   2.275   4.243   0.986  0.0431 -0.9639  0.4004
  685SOL    HW3 2739   2.166   4.287   1.081  0.8173  1.6223  0.1202
  685SOL    MW4 2740   2.244   4.251   1.067  0.1099 -0.0452  0.3357
  686SOL     OW 2741   2.922   4.631   1.124  0.0224 -0.1223  0.2659
  686SOL    HW2 2742   2.909   4.544   1.160 -1.7195 -0.1431 -0.3459
  686SOL    HW3 2743   2.914   4.619   1.029 -0.9851  0.8224  0.2278
  686SOL    MW4 2744   2.919   4.618   1.116 -0.3403 -0.0004  0.1802
  687SOL     OW 2745   2.701   0.114   1.160  0.0902  0.2973  0.1919
  687SOL    HW2 2746   2.704   0.143   1.252 -0.9393  2.9408 -0.5518
  687SOL    HW3 2747   2.773   0.051   1.153 -0.3759 -0.6422  3.0236
  687SOL    MW4 2748   2.711   0.110   1.171 -0.1071  0.5221  0.4674
  688SOL     OW 2749   2.508   0.479   1.204 -0.1958  0.4098 -0.2518
  688SOL    HW2 2750   2.424   0.435   1.186  0.0714  0.2350 -1.0969
  688SOL    HW3 2751   2.507   0.494   1.299 -1.2242  0.4899 -0.2646
  688SOL    MW4 2752   2.497   0.475   1.214 -0.2962  0.3973 -0.3650
  689SOL     OW 2753   2.907   0.483   1.200  0.2739 -0.2856 -0.1050
  689SOL    HW2 2754   2.884   0.575   1.187 -1.7824 -0.5349  1.6315
  689SOL    HW3 2755   2.841   0.434   1.152  0.2743 -0.8994  0.5090
  689SOL    MW4 2756   2.896   0.489   1.192  0.0027 -0.3995  0.2051
  690SOL     OW 2757   2.894   0.747   1.190 -0.4315  0.2804 -0.0697
  690SOL    HW2 2758   2.973   0.783   1.230 -0.7544  0.7373  0.1557
  690SOL    HW3 2759   2.826   0.812   1.207 -0.6398  0.3541 -1.1144
  690SOL    MW4 2760   2.896   0.760   1.197 -0.5016  0.3504 -0.1778
  691SOL     OW 2761   2.646   0.889   1.233 -0.0174 -0.1603 -0.1911
  691SOL    HW2 2762   2.658   0.963   1.173 -0.4282  0.3674  0.3736
  691SOL    HW3 2763   2.569   0.843   1.199 -0.7331  0.5959  0.3932
  691SOL    MW4 2764   2.638   0.893   1.220 -0.1661  0.0091 -0.0395
  692SOL     OW 2765   2.710   1.098   1.068 -0.5952 -0.1831  0.6349
  692SOL    HW2 2766   2.785   1.147   1.102 -1.0822  0.7870  0.3379
  692SOL    HW3 2767   2.709   1.118   0.974 -0.7773 -0.7959  0.5061
  692SOL    MW4 2768   2.720   1.107   1.060 -0.6835 -0.1360  0.5787
  693SOL     OW 2769   2.922   1.253   1.171 -0.3755 -0.8207  0.0762
  693SOL    HW2 2770   2.907   1.248   1.266 -0.3037 -1.7783  0.0380
  693SOL    HW3 2771   2.915   1.347   1.151 -0.3474 -0.6087  1.0328
  693SOL    MW4 2772   2.919   1.265   1.181 -0.3623 -0.9190  0.1974
  694SOL     OW 2773   2.913   1.523   1.084 -0.0867  0.1311  0.2410
  694SOL    HW2 2774   2.983   1.571   1.129  0.5240 -0.6983  0.1815
  694SOL    HW3 2775   2.933   1.534   0.991  0.1800 -0.4286  0.2330
  694SOL    MW4 2776   2.925   1.531   1.077  0.0290 -0.0521  0.2321
  695SOL     OW 2777   2.692   1.665   1.202  0.0196  0.5767 -0.1577
  695SOL    HW2 2778   2.769   1.633   1.154  0.7214  2.5078 -0.3592
  695SOL    HW3 2779   2.622   1.603   1.180  1.0753 -0.2128 -1.3461
  695SOL    MW4 2780   2.693   1.653   1.193  0.2515  0.7273 -0.3411
  696SOL     OW 2781   2.716   1.919   1.121 -0.2210 -0.4831 -0.2125
  696SOL    HW2 2782   2.795   1.952   1.164  0.2599 -0.1875 -1.2906
  696SOL    HW3 2783   2.708   1.829   1.152  1.0354 -0.7975 -0.7536
  696SOL    MW4 2784   2.725   1.912   1.131  0.0082 -0.4856 -0.4261
  697SOL     OW 2785   2.937   2.051   1.239  0.1537 -0.2399 -0.3965
  697SOL    HW2 2786   2.951   2.051   1.334 -0.9148 -0.2769 -0.2348
  697SOL    HW3 2787   2.915   2.141   1.217  0.5068 -0.2088 -0.6277
  697SOL    MW4 2788   2.936   2.063   1.249  0.0593 -0.2406 -0.4057
  698SOL     OW 2789   2.895   2.305   1.135  0.2870 -0.1059 -0.3089
  698SOL    HW2 2790   2.970   2.356   1.167  0.2937  0.6546 -1.5108
  698SOL    HW3 2791   2.820   2.361   1.151  0.2330  0.0697 -1.1553
  698SOL    MW4 2792   2.895   2.319   1.142  0.2808  0.0176 -0.5791
  699SOL     OW 2793   2.707   2.467   1.223 -0.0323  0.0832 -0.0269
  699SOL    HW2 2794   2.704   2.475   1.319  0.9306  1.5770 -0.1067
  699SOL    HW3 2795   2.623   2.427   1.200 -0.5963  0.4278  1.3679
  699SOL    MW4 2796   2.696   2.463   1.233  0.0204  0.3258  0.1466
  700SOL     OW 2797   2.715   2.695   0.835  0.0822 -0.1625  0.0095
  700SOL    HW2 2798   2.647   2.752   0.799  0.9349  0.3462 -0.8129
  700SOL    HW3 2799   2.706   2.702   0.930 -1.1285 -0.2423 -0.0906
  700SOL    MW4 2800   2.704   2.703   0.843  0.0350 -0.1059 -0.1122
  701SOL     OW 2801   2.922   2.844   1.182  0.1086 -0.2924 -0.1911
  701SOL    HW2 2802   2.910   2.842   1.277  0.8325  2.9690  0.0197
  701SOL    HW3 2803   2.843   2.803   1.147 -0.6518 -0.5684  1.7994
  701SOL    MW4 2804   2.910   2.839   1.190  0.1038  0.1015  0.0993
  702SOL     OW 2805   2.910   3.121   1.116  0.2026 -0.3173 -0.6668
  702SOL    HW2 2806   2.900   3.030   1.143  0.3647 -0.1770 -0.1252
  702SOL    HW3 2807   2.909   3.118   1.021 -1.3870 -0.7105 -0.6582
  702SOL    MW4 2808   2.909   3.109   1.107  0.0143 -0.3507 -0.5942
  703SOL     OW 2809   2.660   3.230   1.189 -0.2348  0.3522  0.0249
  703SOL    HW2 2810   2.740   3.192   1.153 -0.2864  0.8246 -0.6099
  703SOL    HW3 2811   2.589   3.177   1.152 -0.2898  0.8605 -0.6191
  703SOL    MW4 2812   2.662   3.218   1.179 -0.2488  0.4816 -0.1438
  704SOL     OW 2813   2.681   3.499   1.105  0.5529 -0.2387 -0.1882
  704SOL    HW2 2814   2.671   3.411   1.143 -0.9127 -0.0594 -0.1205
  704SOL    HW3 2815   2.616   3.552   1.151  1.9780  1.0790  0.3352
  704SOL    MW4 2816   2.671   3.494   1.116  0.5475 -0.0412 -0.1102
  705SOL     OW 2817   2.911   3.620   1.216  0.1749  0.4245 -0.2356
  705SOL    HW2 2818   2.991   3.593   1.171  0.6697  0.9217  0.3346
  705SOL    HW3 2819   2.841   3.570   1.174  0.5576  1.2408 -1.8715
  705SOL    MW4 2820   2.912   3.610   1.205  0.2907  0.5978 -0.3762
  706SOL     OW 2821   2.903   3.883   1.116  0.2060 -0.2208 -0.2186
  706SOL    HW2 2822   2.988   3.908   1.151 -0.1304  1.8100 -0.7986
  706SOL    HW3 2823   2.885   3.798   1.157  2.7780 -1.0032 -0.6178
  706SOL    MW4 2824   2.912   3.875   1.126  0.5010 -0.0561 -0.3478
  707SOL     OW 2825   2.680   4.013   1.198 -0.0917 -0.0695  0.2087
  707SOL    HW2 2826   2.759   3.976   1.157 -0.1920 -1.6800  1.4216
  707SOL    HW3 2827   2.618   3.940   1.199 -1.3564  1.0057 -0.1162
  707SOL    MW4 2828   2.683   3.998   1.193 -0.2718 -0.1401  0.3259
  708SOL     OW 2829   2.650   4.249   1.059  0.1810  0.0531  0.4707
  708SOL    HW2 2830   2.659   4.160   1.092  0.3237  0.2973  1.0946
  708SOL    HW3 2831   2.575   4.285   1.106 -1.0335 -0.3462 -1.1389
  708SOL    MW4 2832   2.641   4.242   1.069  0.0396  0.0326  0.3407
  709SOL     OW 2833   2.891   4.373   1.186 -0.4766  0.3476 -0.5616
  709SOL    HW2 2834   2.967   4.330   1.146 -0.1618 -1.4477  1.8697
  709SOL    HW3 2835   2.815   4.330   1.145 -0.1924  0.8505 -1.6335
  709SOL    MW4 2836   2.891   4.361   1.175 -0.3976  0.1771 -0.3822
  710SOL     OW 2837   3.365   0.003   1.066  0.2473  0.3115  0.0909
  710SOL    HW2 2838   3.437   0.040   1.118 -0.7081 -0.6765  2.1967
  710SOL    HW3 2839   3.288   0.053   1.095 -0.3374 -0.4204 -0.1984
  710SOL    MW4 2840   3.365   0.015   1.077  0.0441  0.0846  0.3306
  711SOL     OW 2841   3.138   0.131   1.189 -0.2378  0.3012 -0.3453
  711SOL    HW2 2842   3.160   0.124   1.282  2.2665 -1.0546 -0.9717
  711SOL    HW3 2843   3.077   0.059   1.173  0.4260 -0.3522 -0.0075
  711SOL    MW4 2844   3.133   0.120   1.199  0.1802  0.0361 -0.3834
  712SOL     OW 2845   3.144   0.378   1.083 -0.2494 -0.0058  0.1031
  712SOL    HW2 2846   3.134   0.290   1.117  1.0697  0.1031  0.8056
  712SOL    HW3 2847   3.071   0.427   1.121 -0.9333 -0.7624 -0.2238
  712SOL    MW4 2848   3.133   0.373   1.093 -0.1656 -0.0913  0.1527
  713SOL     OW 2849   3.372   0.488   1.238 -0.1320 -0.4669  0.2283
  713SOL    HW2 2850   3.391   0.566   1.186 -0.3571  0.0686  0.9387
  713SOL    HW3 2851   3.298   0.447   1.193 -1.2308  0.7359  0.8719
  713SOL    MW4 2852   3.365   0.493   1.225 -0.3067 -0.2376  0.4069
  714SOL     OW 2853   3.388   0.750   1.131 -0.0292  0.0723 -0.2936
  714SOL    HW2 2854   3.298   0.777   1.148  0.4149  1.3855  0.0286
  714SOL    HW3 2855   3.398   0.762   1.036 -0.7168 -1.7493 -0.6248
  714SOL    MW4 2856   3.377   0.755   1.121 -0.0613  0.0052 -0.2948
  715SOL     OW 2857   3.159   0.857   1.207  0.4822  0.0030 -0.1149
  715SOL    HW2 2858   3.187   0.875   1.297 -0.2048 -0.6212  0.2278
  715SOL    HW3 2859   3.173   0.939   1.161  1.8425  0.0336  0.3115
  715SOL    MW4 2860   3.165   0.870   1.213  0.5710 -0.0753 -0.0134
  716SOL     OW 2861   2.927   1.294   0.677  0.3668  0.4355  0.5047
  716SOL    HW2 2862   2.915   1.378   0.721 -0.3897 -0.5140  2.1189
  716SOL    HW3 2863   3.002   1.254   0.720  0.6118  0.1799 -0.1422
  716SOL    MW4 2864   2.935   1.300   0.688  0.2993  0.2765  0.6323
  717SOL     OW 2865   3.353   1.231   1.207  0.1935 -0.1663 -0.0102
  717SOL    HW2 2866   3.366   1.243   1.301 -0.8625  0.0653  0.1148
  717SOL    HW3 2867   3.357   1.320   1.171  0.8166 -0.2756 -0.2169
  717SOL    MW4 2868   3.355   1.244   1.214  0.1364 -0.1502 -0.0210
  718SOL     OW 2869   3.588   1.710   1.232 -0.1414  0.0740 -0.3533
  718SOL    HW2 2870   3.670   1.668   1.206 -0.2853 -0.0772 -0.5663
  718SOL    HW3 2871   3.587   1.793   1.184  0.8903  1.0616  1.2609
  718SOL    MW4 2872   3.599   1.716   1.222 -0.0243  0.1844 -0.1685
  719SOL     OW 2873   3.112   1.655   1.223 -0.3357  0.0939  0.0439
  719SOL    HW2 2874   3.126   1.744   1.189  3.1531 -0.4801 -0.1969
  719SOL    HW3 2875   3.135   1.661   1.315  2.7544 -1.1493 -0.6040
  719SOL    MW4 2876   3.117   1.668   1.230  0.5323 -0.1459 -0.0734
  720SOL     OW 2877   3.143   1.919   1.117 -0.1220 -0.0165 -0.2417
  720SOL    HW2 2878   3.226   1.951   1.153 -0.1394 -0.0849 -0.1383
  720SOL    HW3 2879   3.076   1.974   1.158 -0.0765  0.5233 -0.8942
  720SOL    MW4 2880   3.145   1.930   1.127 -0.1183  0.0457 -0.3141
  721SOL     OW 2881   3.367   2.044   1.206 -0.0892 -0.6611 -0.3611
  721SOL    HW2 2882   3.448   2.020   1.160 -0.0289 -1.1264 -0.0141
  721SOL    HW3 2883   3.343   2.129   1.169  0.1759 -0.8492 -0.9691
  721SOL    MW4 2884   3.375   2.052   1.195 -0.0463 -0.7473 -0.3955
  722SOL     OW 2885   3.332   2.311   1.107 -0.4766  0.4675  0.0498
  722SOL    HW2 2886   3.414   2.357   1.125  0.4379 -1.1888  0.1984
  722SOL    HW3 2887   3.264   2.364   1.150  0.4890  1.9229 -0.2037
  722SOL    MW4 2888   3.333   2.324   1.115 -0.2285  0.4410  0.0360
  723SOL     OW 2889   3.099   2.460   1.211  0.4108  0.2262  0.2503
  723SOL    HW2 2890   3.119   2.448   1.304  0.4483 -1.0066  0.1006
  723SOL    HW3 2891   3.141   2.542   1.187  2.3566 -0.5743  0.7954
  723SOL    MW4 2892   3.107   2.469   1.220  0.6725 -0.0421  0.3025
  724SOL     OW 2893   3.149   2.716   1.106  0.5052 -0.0835  0.1009
  724SOL    HW2 2894   3.066   2.752   1.136  0.4898 -0.6989  0.8067
  724SOL    HW3 2895   3.137   2.702   1.012 -1.1943 -2.8589  0.6861
  724SOL    MW4 2896   3.137   2.719   1.098  0.2790 -0.5309  0.2712
  725SOL     OW 2897   3.382   2.814   1.207 -0.1532 -0.1124  0.2991
  725SOL    HW2 2898   3.396   2.899   1.166 -0.4630  0.8155  2.0535
  725SOL    HW3 2899   3.300   2.782   1.169 -1.3427  1.5020  1.3817
  725SOL    MW4 2900   3.373   2.821   1.197 -0.3510  0.2230  0.6734
  726SOL     OW 2901   3.382   3.093   1.096 -0.3744  0.0726 -0.0048
  726SOL    HW2 2902   3.461   3.138   1.126 -1.0146  0.4499  1.1508
  726SOL    HW3 2903   3.314   3.122   1.156 -0.5477 -3.4017  1.5831
  726SOL    MW4 2904   3.384   3.102   1.108 -0.4817 -0.3360  0.3572
  727SOL     OW 2905   3.145   3.218   1.249  0.1709  0.4056  0.1383
  727SOL    HW2 2906   3.134   3.309   1.222  0.2530 -0.2923 -2.4321
  727SOL    HW3 2907   3.065   3.174   1.220  0.5363 -0.5291  0.5084
  727SOL    MW4 2908   3.133   3.224   1.241  0.2299  0.1902 -0.1520
  728SOL     OW 2909   3.145   3.506   1.153 -0.3744  0.0556  0.6222
  728SOL    HW2 2910   3.227   3.547   1.181  0.7226 -1.2641 -0.6106
  728SOL    HW3 2911   3.145   3.517   1.058 -1.5943 -0.0399  0.6081
  728SOL    MW4 2912   3.156   3.513   1.144 -0.3906 -0.1311  0.4577
  729SOL     OW 2913   3.390   3.650   1.233 -0.2177  0.3124 -0.5142
  729SOL    HW2 2914   3.403   3.653   1.327 -0.4845  0.1905 -0.4718
  729SOL    HW3 2915   3.457   3.590   1.201 -0.3257  0.1130 -0.3647
  729SOL    MW4 2916   3.400   3.642   1.241 -0.2672  0.2700 -0.4889
  730SOL     OW 2917   3.373   3.890   1.095 -0.1917 -0.1984  0.2311
  730SOL    HW2 2918   3.290   3.935   1.114  0.3219  0.8873 -0.0851
  730SOL    HW3 2919   3.364   3.805   1.140 -1.1822  0.1906  0.7999
  730SOL    MW4 2920   3.361   3.884   1.103 -0.2546 -0.0038  0.2645
  731SOL     OW 2921   3.138   3.998   1.189  0.1459 -0.0088 -0.1272
  731SOL    HW2 2922   3.148   4.003   1.284 -1.3198 -0.1078  0.0426
  731SOL    HW3 2923   3.133   4.089   1.160  1.5926  0.0425 -0.2257
  731SOL    MW4 2924   3.139   4.011   1.198  0.1434 -0.0151 -0.1178
  732SOL     OW 2925   3.147   4.255   1.102  0.4057 -1.0555  0.1670
  732SOL    HW2 2926   3.215   4.318   1.126  0.0952 -0.6429 -0.0341
  732SOL    HW3 2927   3.153   4.248   1.007 -1.0973  0.4438 -0.0627
  732SOL    MW4 2928   3.157   4.262   1.093  0.1664 -0.8032  0.1102
  733SOL     OW 2929   3.369   4.417   1.178 -0.0020 -0.1304 -0.1683
  733SOL    HW2 2930   3.452   4.372   1.166  0.2961  0.7194 -1.5124
  733SOL    HW3 2931   3.384   4.505   1.143 -1.8956 -0.4287 -1.8955
  733SOL    MW4 2932   3.382   4.423   1.172 -0.2125 -0.0576 -0.5735
  734SOL     OW 2933   3.855   4.618   1.110  0.1145  0.1334  0.0855
  734SOL    HW2 2934   3.845   4.536   1.158 -0.6404 -0.1617 -0.5606
  734SOL    HW3 2935   3.848   4.592   1.018 -2.0961  1.1908 -0.0704
  734SOL    MW4 2936   3.853   4.604   1.104 -0.2768  0.2340 -0.0203
  735SOL     OW 2937   3.600   0.073   1.204  0.3458 -0.1109 -0.0730
  735SOL    HW2 2938   3.606   0.168   1.206 -0.4435 -0.0546 -0.2701
  735SOL    HW3 2939   3.683   0.044   1.168  0.6718  0.4941  0.1872
  735SOL    MW4 2940   3.612   0.081   1.200  0.2847 -0.0236 -0.0646
  736SOL     OW 2941   3.590   0.340   1.148 -0.7881 -0.1354  0.5415
  736SOL    HW2 2942   3.676   0.371   1.179 -0.4847  1.7988 -2.0375
  736SOL    HW3 2943   3.527   0.393   1.197 -0.3588  1.6261 -0.7504
  736SOL    MW4 2944   3.593   0.351   1.159 -0.6914  0.3522  0.0308
  737SOL     OW 2945   3.836   0.473   1.214 -0.1100 -0.0116  0.1776
  737SOL    HW2 2946   3.917   0.445   1.172 -1.0546 -0.5918 -1.2802
  737SOL    HW3 2947   3.823   0.563   1.184  0.5536  0.4611  1.2777
  737SOL    MW4 2948   3.845   0.481   1.205 -0.1471 -0.0258  0.1304
  738SOL     OW 2949   3.817   0.746   1.146 -0.2370  0.1410  0.3912
  738SOL    HW2 2950   3.896   0.796   1.169 -0.8081  1.4944 -0.4816
  738SOL    HW3 2951   3.744   0.802   1.173 -0.9081  0.7976 -2.5225
  738SOL    MW4 2952   3.818   0.760   1.152 -0.4009  0.4062 -0.1084
  739SOL     OW 2953   3.604   0.892   1.224  0.1176 -0.6413 -0.1837
  739SOL    HW2 2954   3.607   0.969   1.168  0.3397  1.1291  2.1964
  739SOL    HW3 2955   3.525   0.845   1.196 -1.0366  1.4003 -0.4490
  739SOL    MW4 2956   3.594   0.896   1.213 -0.0054 -0.1384  0.0953
  740SOL     OW 2957   3.594   1.142   1.092 -0.5650  0.2053  0.1453
  740SOL    HW2 2958   3.666   1.185   1.137 -1.2401  2.9111 -1.2389
  740SOL    HW3 2959   3.515   1.176   1.135 -1.1388  1.3046 -1.6811
  740SOL    MW4 2960   3.593   1.152   1.103 -0.7298  0.7073 -0.2783
  741SOL     OW 2961   3.791   1.280   1.246 -0.5899  0.5153 -0.2342
  741SOL    HW2 2962   3.781   1.267   1.340 -0.1242  0.8146 -0.1419
  741SOL    HW3 2963   3.808   1.374   1.236 -0.6302  0.4853 -0.6163
  741SOL    MW4 2964   3.792   1.291   1.257 -0.5338  0.5509 -0.2724
  742SOL     OW 2965   3.818   1.541   1.163  0.3139 -0.1938 -0.1294
  742SOL    HW2 2966   3.898   1.593   1.175 -0.5486  1.3085 -0.7923
  742SOL    HW3 2967   3.808   1.534   1.068 -0.6604  0.1165 -0.0508
  742SOL    MW4 2968   3.827   1.547   1.152  0.0716  0.0454 -0.2065
  743SOL     OW 2969   3.599   1.943   1.070 -0.5506  0.1463 -0.2745
  743SOL    HW2 2970   3.686   1.980   1.086 -0.3500  0.0513 -1.1158
  743SOL    HW3 2971   3.588   1.949   0.975 -1.7534  0.7970 -0.0976
  743SOL    MW4 2972   3.609   1.948   1.060 -0.6828  0.2196 -0.3622
  744SOL     OW 2973   3.439   4.579   0.436 -0.1285  0.2447 -0.0360
  744SOL    HW2 2974   3.493   4.654   0.461 -0.0876  0.1756  0.0832
  744SOL    HW3 2975   3.349   4.612   0.437 -0.1898  0.0776  0.8264
  744SOL    MW4 2976   3.434   4.593   0.439 -0.1312  0.2135  0.0935
  745SOL     OW 2977   3.819   2.046   1.215  0.0505 -0.1503  0.0124
  745SOL    HW2 2978   3.818   2.056   1.311 -0.0858  1.0428 -0.1067
  745SOL    HW3 2979   3.910   2.023   1.195 -0.6108 -3.7121  0.7205
  745SOL    MW4 2980   3.831   2.044   1.225 -0.0548 -0.4628  0.0901
  746SOL     OW 2981   3.795   2.284   1.081 -0.2486  0.4945 -0.2674
  746SOL    HW2 2982   3.865   2.330   1.128 -1.1739  1.0706  0.5753
  746SOL    HW3 2983   3.790   2.198   1.124 -0.3236  0.6024 -0.0591
  746SOL    MW4 2984   3.804   2.279   1.093 -0.3806  0.5848 -0.1287
  747SOL     OW 2985   3.570   2.405   1.182  0.6574  0.3298  0.3424
  747SOL    HW2 2986   3.585   2.425   1.274  0.3574  1.2554  0.1974
  747SOL    HW3 2987   3.652   2.365   1.152  1.3476  1.5371  0.5974
  747SOL    MW4 2988   3.583   2.402   1.190  0.7088  0.6112  0.3569
  748SOL     OW 2989   3.635   2.683   1.134  0.0474 -0.4198 -0.4645
  748SOL    HW2 2990   3.615   2.594   1.163 -0.7283  0.0936  0.6145
  748SOL    HW3 2991   3.562   2.736   1.167  0.3923  0.5783 -1.2883
  748SOL    MW4 2992   3.623   2.679   1.142 -0.0094 -0.2204 -0.4309
  749SOL     OW 2993   3.858   2.821   1.225  0.1495 -0.7380 -0.0336
  749SOL    HW2 2994   3.856   2.812   1.321 -0.0369  1.5102  0.1861
  749SOL    HW3 2995   3.780   2.773   1.196 -1.5360  1.1476  1.1966
  749SOL    MW4 2996   3.847   2.813   1.234 -0.0975 -0.1926  0.1577
  750SOL     OW 2997   3.841   3.088   1.142 -0.0747 -0.0856 -0.3705
  750SOL    HW2 2998   3.836   2.996   1.166 -1.3645 -0.0958 -0.6017
  750SOL    HW3 2999   3.833   3.089   1.047  1.4676  0.1746 -0.5044
  750SOL    MW4 3000   3.839   3.076   1.133 -0.0414 -0.0527 -0.4187
  751SOL     OW 3001   3.607   3.213   1.232 -0.0402 -0.2181  0.1568
  751SOL    HW2 3002   3.603   3.302   1.197  0.5818 -0.3336 -0.2085
  751SOL    HW3 3003   3.690   3.178   1.200 -0.0816 -0.7819  0.6591
  751SOL    MW4 3004   3.617   3.220   1.223  0.0364 -0.3077  0.1749
  752SOL     OW 3005   3.576   3.484   1.132 -0.2316  0.0597 -0.1514
  752SOL    HW2 3006   3.654   3.538   1.149 -0.0900 -0.2287  0.1308
  752SOL    HW3 3007   3.567   3.485   1.037 -1.2797  2.0457 -0.0549
  752SOL    MW4 3008   3.585   3.491   1.122 -0.3512  0.2837 -0.1014
  753SOL     OW 3009   3.818   3.618   1.166 -0.3243 -0.1919  0.5959
  753SOL    HW2 3010   3.802   3.632   1.259 -1.6091 -0.8856  0.4810
  753SOL    HW3 3011   3.804   3.705   1.127  1.4986  0.3990  1.2031
  753SOL    MW4 3012   3.814   3.631   1.173 -0.2533 -0.2055  0.6608
  754SOL     OW 3013   3.819   3.886   1.127  0.1538 -0.0049 -0.0631
  754SOL    HW2 3014   3.823   3.896   1.032  0.5885 -0.9065 -0.1346
  754SOL    HW3 3015   3.751   3.949   1.154 -0.4589 -0.2350 -1.0353
  754SOL    MW4 3016   3.811   3.896   1.118  0.1303 -0.1542 -0.2008
  755SOL     OW 3017   3.594   4.029   1.225 -0.0904 -0.2711  0.1495
  755SOL    HW2 3018   3.591   3.988   1.311  0.1983 -0.7836 -0.0817
  755SOL    HW3 3019   3.524   3.988   1.176  0.5365 -0.8850 -0.2495
  755SOL    MW4 3020   3.585   4.018   1.230  0.0304 -0.4197  0.0663
  756SOL     OW 3021   3.605   4.290   1.137 -0.1756  0.4386  0.2247
  756SOL    HW2 3022   3.608   4.202   1.175 -1.1589  1.4649  2.7191
  756SOL    HW3 3023   3.602   4.275   1.042  1.6145 -2.1686  0.5450
  756SOL    MW4 3024   3.605   4.276   1.129 -0.0691  0.2300  0.5961
  757SOL     OW 3025   3.858   4.371   1.237 -0.0649  0.2231 -0.5869
  757SOL    HW2 3026   3.857   4.398   1.329  0.4361 -2.2599  0.1707
  757SOL    HW3 3027   3.770   4.336   1.221  0.1958 -0.3655 -0.7439
  757SOL    MW4 3028   3.846   4.370   1.247  0.0356 -0.1821 -0.5077
  758SOL     OW 3029   4.295   4.610   1.131 -0.5132 -0.1370  0.6772
  758SOL    HW2 3030   4.290   4.519   1.159 -0.8922 -0.4110 -0.2533
  758SOL    HW3 3031   4.225   4.655   1.178 -1.6226 -0.7419 -0.3857
  758SOL    MW4 3032   4.285   4.604   1.141 -0.7096 -0.2530  0.4142
  759SOL     OW 3033   4.073   0.105   1.224  0.4328  0.5942 -0.4947
  759SOL    HW2 3034   4.073   0.097   1.319 -0.7769  1.7420 -0.3887
  759SOL    HW3 3035   4.008   0.041   1.194 -0.5699  1.5629 -0.4160
  759SOL    MW4 3036   4.064   0.095   1.233  0.1409  0.8734 -0.4703
  760SOL     OW 3037   4.070   0.356   1.120  0.1805 -0.0399  0.1166
  760SOL    HW2 3038   4.058   0.266   1.151  0.9614 -0.1714  0.0670
  760SOL    HW3 3039   4.089   0.347   1.027  0.8183  0.1319  0.2269
  760SOL    MW4 3040   4.071   0.343   1.112  0.3677 -0.0346  0.1246
  761SOL     OW 3041   4.287   0.497   1.219  0.2367 -0.4558  0.2371
  761SOL    HW2 3042   4.293   0.500   1.314  1.2485 -0.3484  0.1730
  761SOL    HW3 3043   4.205   0.451   1.201 -0.6765  0.7804  1.1611
  761SOL    MW4 3044   4.277   0.491   1.229  0.2497 -0.2785  0.3505
  762SOL     OW 3045   4.264   0.769   1.164  0.0944  0.1811  0.3926
  762SOL    HW2 3046   4.269   0.676   1.189  0.0150  0.2085  0.5090
  762SOL    HW3 3047   4.265   0.767   1.069  1.4930  0.1314  0.3929
  762SOL    MW4 3048   4.265   0.756   1.155  0.2685  0.1782  0.4080
  763SOL     OW 3049   4.030   0.909   1.239  0.2769 -0.4142  0.5122
  763SOL    HW2 3050   4.044   0.906   1.334  0.8561 -0.1652  0.4373
  763SOL    HW3 3051   4.108   0.867   1.202  1.9948  3.0028 -0.0058
  763SOL    MW4 3052   4.042   0.903   1.247  0.5800  0.0695  0.4340
  764SOL     OW 3053   4.014   1.175   1.115 -0.0987 -0.3021 -0.2633
  764SOL    HW2 3054   4.027   1.088   1.153  0.2813  0.0280  0.3623
  764SOL    HW3 3055   3.931   1.204   1.152  0.2194 -0.0244  0.2318
  764SOL    MW4 3056   4.005   1.167   1.125 -0.0066 -0.2219 -0.1155
  765SOL     OW 3057   4.266   1.280   1.205  0.1376  0.2504  0.1457
  765SOL    HW2 3058   4.269   1.304   1.298  1.0076  0.9124 -0.0426
  765SOL    HW3 3059   4.176   1.250   1.191  0.4651 -1.5357  1.6067
  765SOL    MW4 3060   4.254   1.279   1.216  0.2956  0.1021  0.3136
  766SOL     OW 3061   4.277   1.553   1.082  0.0901 -0.3443 -0.2145
  766SOL    HW2 3062   4.294   1.462   1.106  0.2561 -0.0325  0.8724
  766SOL    HW3 3063   4.355   1.600   1.111  0.3030  0.0469 -1.3952
  766SOL    MW4 3064   4.290   1.547   1.089  0.1401 -0.2515 -0.2269
  767SOL     OW 3065   4.061   1.675   1.221 -0.1642  0.0467  0.4825
  767SOL    HW2 3066   4.065   1.650   1.314 -1.4737 -0.4270  0.4299
  767SOL    HW3 3067   4.130   1.624   1.180 -0.0556 -0.3034  1.0847
  767SOL    MW4 3068   4.071   1.665   1.228 -0.3227 -0.0620  0.5551
  768SOL     OW 3069   4.067   1.934   1.129 -0.5939  0.2043  0.3149
  768SOL    HW2 3070   4.052   1.844   1.158  2.4035 -1.0487 -1.8480
  768SOL    HW3 3071   4.061   1.931   1.034  1.3297  1.9151  0.1016
  768SOL    MW4 3072   4.064   1.922   1.120  0.0553  0.2647  0.0014
  769SOL     OW 3073   4.292   2.080   1.203 -0.0988  0.0887  0.0194
  769SOL    HW2 3074   4.284   2.169   1.171 -0.4441  0.2377  0.5134
  769SOL    HW3 3075   4.214   2.035   1.173 -0.5840  0.3171  0.9214
  769SOL    MW4 3076   4.281   2.086   1.195 -0.2084  0.1385  0.2036
  770SOL     OW 3077   4.244   2.345   1.127  0.0822  0.1248  0.4763
  770SOL    HW2 3078   4.161   2.384   1.155  0.7802  0.5248  2.0608
  770SOL    HW3 3079   4.237   2.338   1.032 -2.0690 -0.5364  0.6540
  770SOL    MW4 3080   4.232   2.349   1.118 -0.1095  0.0903  0.7088
  771SOL     OW 3081   4.001   2.432   1.221 -0.0219  0.3819 -0.2430
  771SOL    HW2 3082   4.012   2.450   1.314 -0.8098 -0.5358  0.0439
  771SOL    HW3 3083   3.998   2.518   1.179 -0.7658  0.8293  0.7168
  771SOL    MW4 3084   4.002   2.445   1.227 -0.2240  0.3198 -0.0785
  772SOL     OW 3085   4.057   2.684   1.099 -0.1963  0.2461  0.3932
  772SOL    HW2 3086   3.982   2.730   1.135  1.2223  2.5003  0.5435
  772SOL    HW3 3087   4.043   2.687   1.004 -1.7482 -1.9248  0.5170
  772SOL    MW4 3088   4.045   2.690   1.091 -0.2139  0.2571  0.4294
  773SOL     OW 3089   4.262   2.839   1.276  0.1752  0.0189 -0.7017
  773SOL    HW2 3090   4.272   2.927   1.239  0.3323  0.6082  0.7082
  773SOL    HW3 3091   4.186   2.802   1.231 -1.0338  1.5786  0.0366
  773SOL    MW4 3092   4.253   2.845   1.265  0.0364  0.3024 -0.4183
  774SOL     OW 3093   4.278   3.075   1.155 -0.0640  0.1688  0.2313
  774SOL    HW2 3094   4.203   3.134   1.168 -0.3352  0.2949 -1.7325
  774SOL    HW3 3095   4.274   3.051   1.062  1.4778 -1.0055  0.4453
  774SOL    MW4 3096   4.267   3.080   1.144  0.1036  0.0305  0.0004
  775SOL     OW 3097   4.059   3.241   1.241 -0.0476  0.4907 -0.1490
  775SOL    HW2 3098   4.053   3.226   1.335  0.4223  1.4050  0.0396
  775SOL    HW3 3099   3.993   3.184   1.203 -1.0717  0.9906  0.8385
  775SOL    MW4 3100   4.050   3.232   1.248 -0.1207  0.6773  0.0062
  776SOL     OW 3101   4.071   3.496   1.152 -0.2603 -0.3004  0.2444
  776SOL    HW2 3102   4.070   3.410   1.193  1.3525  0.2618  1.5087
  776SOL    HW3 3103   3.984   3.533   1.169 -1.3493 -2.0916 -1.2605
  776SOL    MW4 3104   4.059   3.490   1.159 -0.1912 -0.4626  0.2127
  777SOL     OW 3105   4.313   3.605   1.221 -0.2880  0.0842  0.0811
  777SOL    HW2 3106   4.239   3.560   1.180 -0.7492  1.3717 -0.5275
  777SOL    HW3 3107   4.391   3.559   1.188 -0.6970  0.4712 -1.4792
  777SOL    MW4 3108   4.314   3.593   1.211 -0.4028  0.3051 -0.2051
  778SOL     OW 3109   4.269   3.845   1.131 -0.4207  0.3483 -0.0499
  778SOL    HW2 3110   4.189   3.881   1.170 -2.2876 -0.1713 -3.1626
  778SOL    HW3 3111   4.288   3.767   1.183 -2.4240  0.0511  0.2786
  778SOL    MW4 3112   4.261   3.839   1.143 -0.9313  0.2405 -0.4172
  779SOL     OW 3113   4.054   3.950   1.251  0.0444  0.4022 -0.3508
  779SOL    HW2 3114   4.075   4.031   1.204 -0.8880  0.9504  0.1633
  779SOL    HW3 3115   3.980   3.913   1.203  0.3657 -0.0710 -0.4880
  779SOL    MW4 3116   4.047   3.956   1.238 -0.0362  0.4121 -0.3011
  780SOL     OW 3117   4.071   4.212   1.118 -0.5464  0.7278 -0.3598
  780SOL    HW2 3118   3.991   4.258   1.144 -0.0877  1.4205 -0.1506
  780SOL    HW3 3119   4.056   4.188   1.027 -1.8648 -1.0601  0.3042
  780SOL    MW4 3120   4.058   4.215   1.109 -0.6598  0.5833 -0.2446
  781SOL     OW 3121   4.291   4.354   1.221 -0.1319  0.0141  0.1432
  781SOL    HW2 3122   4.215   4.305   1.190 -0.8866  1.9082 -1.0503
  781SOL    HW3 3123   4.367   4.305   1.189 -0.8834  0.0087 -1.6630
  781SOL    MW4 3124   4.291   4.341   1.213 -0.3307  0.2633 -0.2526
  782SOL     OW 3125   0.228   4.658   1.588 -0.0086 -0.6192 -0.7514
  782SOL    HW2 3126   0.308   4.692   1.549 -0.6047  1.8363  0.0779
  782SOL    HW3 3127   0.158   4.703   1.541 -0.8585 -1.2720 -0.1323
  782SOL    MW4 3128   0.229   4.668   1.576 -0.1994 -0.3814 -0.5603
  783SOL     OW 3129   0.024   0.118   1.451  0.1508  0.0800 -0.2932
  783SOL    HW2 3130  -0.047   0.057   1.469  1.3473 -1.3189 -0.2086
  783SOL    HW3 3131   0.022   0.130   1.356 -0.1690  0.0013 -0.2961
  783SOL    MW4 3132   0.015   0.112   1.441  0.2665 -0.1149 -0.2824
  784SOL     OW 3133   0.026   0.373   1.590 -0.2870  0.0399  0.1412
  784SOL    HW2 3134   0.013   0.367   1.684 -0.9878 -1.3895 -0.0380
  784SOL    HW3 3135   0.025   0.283   1.559  1.3603  0.4041 -1.0517
  784SOL    MW4 3136   0.024   0.361   1.598 -0.1621 -0.1007 -0.0398
  785SOL     OW 3137   0.240   0.504   1.483  0.7969  0.0673 -0.1230
  785SOL    HW2 3138   0.162   0.454   1.506  1.1641 -0.7123 -0.5419
  785SOL    HW3 3139   0.239   0.510   1.388  0.5430  1.2195 -0.0543
  785SOL    MW4 3140   0.230   0.498   1.474  0.8118  0.1164 -0.1692
  786SOL     OW 3141   0.229   0.742   1.600  0.2426 -0.1269 -0.0471
  786SOL    HW2 3142   0.301   0.796   1.569 -0.4410  0.7214 -0.1659
  786SOL    HW3 3143   0.246   0.656   1.562  0.3154  0.4814 -1.4277
  786SOL    MW4 3144   0.241   0.738   1.591  0.1620  0.0653 -0.2450
  787SOL     OW 3145   4.474   0.868   1.539 -0.1693 -0.0258  0.3664
  787SOL    HW2 3146   4.498   0.960   1.531  1.3468 -0.6298 -3.2694
  787SOL    HW3 3147   4.557   0.824   1.558 -0.3472 -0.9141 -0.8547
  787SOL    MW4 3148   4.488   0.874   1.540  0.0073 -0.2227 -0.2744
  788SOL     OW 3149   0.006   1.167   1.520 -0.1382 -0.6224  0.0415
  788SOL    HW2 3150   0.008   1.154   1.614 -0.6565  0.1532  0.1681
  788SOL    HW3 3151   0.089   1.211   1.500  0.7318 -2.3139 -0.1125
  788SOL    MW4 3152   0.017   1.171   1.529 -0.0918 -0.7432  0.0379
  789SOL     OW 3153   0.227   1.328   1.468 -0.0352 -0.4348 -0.0726
  789SOL    HW2 3154   0.184   1.409   1.496  0.0645  0.5074 -2.5349
  789SOL    HW3 3155   0.229   1.333   1.373  2.7064 -1.9450 -0.1506
  789SOL    MW4 3156   0.221   1.339   1.459  0.3397 -0.5097 -0.4077
  790SOL     OW 3157   0.145   1.568   1.546 -0.1361  0.6593 -0.2722
  790SOL    HW2 3158   0.154   1.548   1.639 -0.0675  0.5075 -0.3118
  790SOL    HW3 3159   0.079   1.637   1.543  1.6842  2.4956  0.1072
  790SOL    MW4 3160   0.138   1.574   1.558  0.1131  0.8815 -0.2274
  791SOL     OW 3161   4.429   1.719   1.465  0.2670 -0.2483 -0.2810
  791SOL    HW2 3162   4.434   1.806   1.506 -0.8192 -0.3812  0.1398
  791SOL    HW3 3163   4.434   1.736   1.371 -0.8252  0.3469 -0.2393
  791SOL    MW4 3164   4.431   1.733   1.458 -0.0204 -0.1873 -0.2200
  792SOL     OW 3165   4.487   1.947   1.600  0.0013 -0.3438 -0.2170
  792SOL    HW2 3166   4.464   1.952   1.693 -0.0973  0.9351 -0.2975
  792SOL    HW3 3167   4.423   2.004   1.557  1.0339  0.3135 -0.8871
  792SOL    MW4 3168   4.475   1.955   1.606  0.1245 -0.0883 -0.3160
  793SOL     OW 3169   0.239   2.042   1.555  0.2855  0.1374 -0.4674
  793SOL    HW2 3170   0.156   2.000   1.575 -0.5207  1.7363 -0.3609
  793SOL    HW3 3171   0.248   2.036   1.460 -1.0634  1.9473 -0.7295
  793SOL    MW4 3172   0.229   2.036   1.545  0.0011  0.5872 -0.4880
  794SOL     OW 3173   0.199   2.307   1.583  0.1351 -0.0513 -0.1745
  794SOL    HW2 3174   0.208   2.317   1.677  1.2430  0.5096 -0.3316
  794SOL    HW3 3175   0.222   2.216   1.566 -0.8148 -0.3671  0.1730
  794SOL    MW4 3176   0.203   2.296   1.593  0.1560 -0.0189 -0.1494
  795SOL     OW 3177   4.479   2.465   1.492 -0.0460  0.1566  0.2010
  795SOL    HW2 3178   4.399   2.421   1.523 -0.4165 -0.0311 -1.0229
  795SOL    HW3 3179   4.550   2.411   1.527 -0.4827 -0.9518 -0.5761
  795SOL    MW4 3180   4.478   2.452   1.501 -0.1525 -0.0144 -0.0630
  796SOL     OW 3181   0.001   2.714   1.601 -0.2374  0.5224  0.2155
  796SOL    HW2 3182  -0.083   2.759   1.591 -0.0062  0.8975 -0.0525
  796SOL    HW3 3183  -0.011   2.630   1.556  0.3942  1.6946 -2.2442
  796SOL    MW4 3184  -0.012   2.709   1.594 -0.1236  0.7266 -0.1444
  797SOL     OW 3185   0.248   2.857   1.501 -0.1867 -0.3431  0.7096
  797SOL    HW2 3186   0.322   2.828   1.555 -0.7680 -1.5320  0.8761
  797SOL    HW3 3187   0.171   2.826   1.548 -0.7339 -0.5727 -0.3221
  797SOL    MW4 3188   0.248   2.849   1.515 -0.3356 -0.5303  0.5955
  798SOL     OW 3189   0.253   3.118   1.590  0.4862  0.1905 -0.4943
  798SOL    HW2 3190   0.164   3.143   1.567 -0.3690 -0.9085  1.4863
  798SOL    HW3 3191   0.261   3.028   1.560  1.6160  0.9098 -2.4279
  798SOL    MW4 3192   0.242   3.109   1.583  0.5225  0.1404 -0.4881
  799SOL     OW 3193   4.489   3.232   1.517 -0.0760  0.2338  0.2315
  799SOL    HW2 3194   4.493   3.324   1.541 -0.2424  0.1839  0.4513
  799SOL    HW3 3195   4.485   3.232   1.421  1.0722  0.4148  0.1872
  799SOL    MW4 3196   4.489   3.244   1.507  0.0536  0.2511  0.2547
  800SOL     OW 3197   0.028   3.497   1.601  0.0158  0.3210 -0.2597
  800SOL    HW2 3198   0.010   3.493   1.694  1.2591 -0.1837 -0.0245
  800SOL    HW3 3199  -0.055   3.524   1.561 -0.2700  1.4601  1.0664
  800SOL    MW4 3200   0.015   3.500   1.608  0.1422  0.4047 -0.0537
  801SOL     OW 3201   0.267   3.617   1.475 -0.0332 -0.2916  0.2123
  801SOL    HW2 3202   0.264   3.710   1.498  0.1747 -0.5288  1.2011
  801SOL    HW3 3203   0.186   3.581   1.509 -0.4128 -0.3567 -0.7339
  801SOL    MW4 3204   0.256   3.625   1.482 -0.0558 -0.3315  0.2179
  802SOL     OW 3205   0.275   3.923   1.564 -0.9684 -0.4265  0.0077
  802SOL    HW2 3206   0.293   3.928   1.658  0.1071 -0.5151 -0.1850
  802SOL    HW3 3207   0.350   3.967   1.523 -2.0395  0.7301 -0.7559
  802SOL    MW4 3208   0.287   3.930   1.571 -0.9678 -0.2856 -0.1185
  803SOL     OW 3209   0.012   4.020   1.474 -0.0628 -0.3973 -0.6531
  803SOL    HW2 3210   0.001   4.111   1.502  0.1728 -0.2567 -1.0159
  803SOL    HW3 3211   0.099   3.995   1.508 -0.8487 -1.0428  0.9568
  803SOL    MW4 3212   0.022   4.029   1.482 -0.1354 -0.4639 -0.4885
  804SOL     OW 3213   4.486   4.276   1.572  0.4582  0.6598 -0.2887
  804SOL    HW2 3214   4.505   4.277   1.666  1.6550 -0.0361 -0.5161
  804SOL    HW3 3215   4.398   4.311   1.565 -0.0117 -0.2033  1.1843
  804SOL    MW4 3216   4.477   4.281   1.584  0.5541  0.4541 -0.1243
  805SOL     OW 3217   0.205   4.413   1.444 -0.0954 -0.1333  0.2672
  805SOL    HW2 3218   0.128   4.374   1.485  0.4168  0.3178  1.6743
  805SOL    HW3 3219   0.218   4.496   1.489  0.7041  0.2027 -0.5487
  805SOL    MW4 3220   0.197   4.419   1.455  0.0777 -0.0295  0.3452
  806SOL     OW 3221   0.667   4.658   1.610 -0.2845 -0.5426 -0.0411
  806SOL    HW2 3222   0.748   4.695   1.575 -1.1744 -0.6909 -2.3582
  806SOL    HW3 3223   0.598   4.694   1.554 -1.7569 -0.9872  1.4454
  806SOL    MW4 3224   0.668   4.668   1.598 -0.5962 -0.6208 -0.1507
  807SOL     OW 3225   0.455   0.112   1.486  0.2373 -0.3169  0.3006
  807SOL    HW2 3226   0.457   0.203   1.514  1.8123 -0.0905 -0.4731
  807SOL    HW3 3227   0.454   0.117   1.390  1.2760 -1.0937  0.2325
  807SOL    MW4 3228   0.455   0.124   1.477  0.5821 -0.3895  0.1895
  808SOL     OW 3229   0.466   0.375   1.602 -0.2186  0.1997  0.2004
  808SOL    HW2 3230   0.542   0.418   1.561  1.1630 -0.4734  1.9718
  808SOL    HW3 3231   0.390   0.419   1.563  1.0622  0.9105 -1.6105
  808SOL    MW4 3232   0.466   0.387   1.591  0.1327  0.2047  0.1952
  809SOL     OW 3233   0.691   0.507   1.493  0.8982 -0.0306 -0.3822
  809SOL    HW2 3234   0.665   0.594   1.524  0.5451 -0.4057  0.3842
  809SOL    HW3 3235   0.717   0.521   1.402  1.9320  1.0990  0.0554
  809SOL    MW4 3236   0.691   0.520   1.485  0.9880  0.0690 -0.2233
  810SOL     OW 3237   0.641   0.758   1.607  0.2150 -0.0688 -0.1050
  810SOL    HW2 3238   0.633   0.788   1.698 -0.9531 -0.0602 -0.2020
  810SOL    HW3 3239   0.714   0.809   1.572 -0.8658  1.7110  0.1398
  810SOL    MW4 3240   0.650   0.769   1.614 -0.0817  0.1672 -0.0855
  811SOL     OW 3241   0.426   0.896   1.513 -0.2565  0.3223 -0.1893
  811SOL    HW2 3242   0.443   0.985   1.542 -0.5295  0.2469  0.2032
  811SOL    HW3 3243   0.505   0.847   1.537 -1.0724 -0.0544  1.7497
  811SOL    MW4 3244   0.439   0.901   1.520 -0.4001  0.2627  0.1183
  812SOL     OW 3245   0.422   1.164   1.584 -0.1591 -0.0501  0.1350
  812SOL    HW2 3246   0.495   1.202   1.535 -0.3027 -0.6665 -0.5704
  812SOL    HW3 3247   0.346   1.218   1.559  0.0028  0.4212  0.6582
  812SOL    MW4 3248   0.421   1.176   1.574 -0.1567 -0.0693  0.1109
  813SOL     OW 3249   0.655   1.268   1.494  0.2292  0.1459 -0.6273
  813SOL    HW2 3250   0.654   1.359   1.522 -0.1131  0.2780 -1.0624
  813SOL    HW3 3251   0.654   1.273   1.398 -1.3681 -0.3339 -0.6534
  813SOL    MW4 3252   0.655   1.280   1.485 -0.0267  0.1000 -0.6882
  814SOL     OW 3253   0.641   1.523   1.579  0.2824  0.0397  0.4018
  814SOL    HW2 3254   0.701   1.586   1.539  1.2089  0.0639  1.7879
  814SOL    HW3 3255   0.554   1.551   1.550  0.7338  1.5301  0.4125
  814SOL    MW4 3256   0.638   1.535   1.570  0.4642  0.2395  0.5861
  815SOL     OW 3257   0.418   1.649   1.489 -0.2739  0.1043 -0.2752
  815SOL    HW2 3258   0.429   1.740   1.514 -0.1396  0.1089 -0.3506
  815SOL    HW3 3259   0.329   1.627   1.517  0.1987 -0.1618  1.0148
  815SOL    MW4 3260   0.408   1.658   1.496 -0.1938  0.0698 -0.1149
  816SOL     OW 3261   0.470   1.907   1.608  0.3680 -0.3034  0.2839
  816SOL    HW2 3262   0.477   1.899   1.703 -0.9428  0.8774  0.5003
  816SOL    HW3 3263   0.388   1.955   1.594  0.8347  0.0307 -1.4223
  816SOL    MW4 3264   0.460   1.912   1.619  0.2566 -0.1035  0.0873
  817SOL     OW 3265   0.677   2.072   1.524 -0.2687 -0.0528 -0.3680
  817SOL    HW2 3266   0.750   2.014   1.545 -0.2804 -0.0115 -0.2155
  817SOL    HW3 3267   0.600   2.027   1.558 -0.4354 -0.5673 -1.4023
  817SOL    MW4 3268   0.677   2.059   1.531 -0.2922 -0.1152 -0.4844
  818SOL     OW 3269   0.653   2.338   1.650  0.0332 -0.0589 -0.2019
  818SOL    HW2 3270   0.566   2.366   1.625 -0.3371 -0.2869  0.7930
  818SOL    HW3 3271   0.651   2.243   1.642 -0.2754 -0.1824  1.2333
  818SOL    MW4 3272   0.641   2.329   1.646 -0.0564 -0.1052  0.1187
  819SOL     OW 3273   0.432   2.442   1.543  0.2867  0.0749  0.0886
  819SOL    HW2 3274   0.411   2.528   1.579  0.6136 -0.1206  0.7458
  819SOL    HW3 3275   0.350   2.393   1.551 -0.4633  0.9080 -2.0441
  819SOL    MW4 3276   0.418   2.447   1.549  0.2309  0.1590 -0.1061
  820SOL     OW 3277   0.424   2.707   1.647  0.2896 -0.3296 -0.4886
  820SOL    HW2 3278   0.441   2.723   1.739  0.5156 -0.2362 -0.5450
  820SOL    HW3 3279   0.505   2.733   1.603  0.0990 -0.1489 -0.7346
  820SOL    MW4 3280   0.437   2.713   1.653  0.2943 -0.2934 -0.5285
  821SOL     OW 3281   0.656   2.803   1.520  0.0812 -0.0228 -0.1673
  821SOL    HW2 3282   0.656   2.898   1.528 -0.2394 -0.0713  0.4451
  821SOL    HW3 3283   0.658   2.787   1.426 -1.1824  0.6013 -0.3135
  821SOL    MW4 3284   0.656   2.813   1.509 -0.1278  0.0531 -0.1058
  822SOL     OW 3285   0.691   3.066   1.591 -0.5962 -0.6754 -0.0641
  822SOL    HW2 3286   0.769   3.101   1.546  0.2718 -1.0533  1.1136
  822SOL    HW3 3287   0.622   3.130   1.573  0.1289 -0.0438 -0.6563
  822SOL    MW4 3288   0.693   3.079   1.583 -0.3860 -0.6419  0.0132
  823SOL     OW 3289   0.489   3.232   1.491 -0.1775 -0.4309 -0.1710
  823SOL    HW2 3290   0.402   3.205   1.520  0.0017 -1.8163 -0.8751
  823SOL    HW3 3291   0.494   3.202   1.401  0.8409  0.1084 -0.2958
  823SOL    MW4 3292   0.478   3.225   1.483 -0.0195 -0.5425 -0.2804
  824SOL     OW 3293   0.473   3.479   1.602 -0.3542 -0.1935  0.1454
  824SOL    HW2 3294   0.480   3.404   1.543  1.8608  0.9004 -1.0583
  824SOL    HW3 3295   0.404   3.533   1.563  1.0123  0.4604 -1.4174
  824SOL    MW4 3296   0.465   3.476   1.589  0.1183  0.0371 -0.2196
  825SOL     OW 3297   0.687   3.599   1.477  0.3354 -0.6486  0.1103
  825SOL    HW2 3298   0.764   3.558   1.519 -0.1439 -1.1011  0.5567
  825SOL    HW3 3299   0.613   3.568   1.529 -0.2131 -0.7315 -0.7236
  825SOL    MW4 3300   0.688   3.589   1.490  0.1998 -0.7193  0.0591
  826SOL     OW 3301   0.686   3.869   1.584 -0.7239 -0.0758  0.5727
  826SOL    HW2 3302   0.771   3.903   1.558 -0.8335  0.5449  1.0193
  826SOL    HW3 3303   0.690   3.775   1.563  0.7482 -0.4320  2.3000
  826SOL    MW4 3304   0.698   3.861   1.578 -0.5442 -0.0409  0.8595
  827SOL     OW 3305   0.506   4.029   1.449 -0.1539 -0.0714 -0.0808
  827SOL    HW2 3306   0.585   3.989   1.485  0.7641  2.4883  0.8402
  827SOL    HW3 3307   0.509   4.010   1.355  0.4965 -1.7005  0.2601
  827SOL    MW4 3308   0.517   4.021   1.441  0.0530  0.0514  0.0857
  828SOL     OW 3309   0.438   4.271   1.559  0.2673  0.0736  0.4322
  828SOL    HW2 3310   0.448   4.185   1.518 -0.1160  0.7648 -1.1466
  828SOL    HW3 3311   0.352   4.301   1.530  0.4973  1.0860  0.7843
  828SOL    MW4 3312   0.428   4.264   1.550  0.2471  0.2984  0.2703
  829SOL     OW 3313   0.683   4.393   1.501 -0.3223 -0.1234  0.5084
  829SOL    HW2 3314   0.597   4.358   1.524 -0.9412  2.2564  2.0170
  829SOL    HW3 3315   0.686   4.479   1.542  1.2744  1.4750 -2.7239
  829SOL    MW4 3316   0.672   4.400   1.509 -0.1933  0.4015  0.2810
  830SOL     OW 3317   1.108   4.609   1.594  0.3358  0.3346 -0.2948
  830SOL    HW2 3318   1.102   4.624   1.688 -0.1245 -1.0043 -0.1032
  830SOL    HW3 3319   1.175   4.671   1.564  0.7150  0.5393  0.9576
  830SOL    MW4 3320   1.116   4.619   1.602  0.3251  0.1850 -0.1043
  831SOL     OW 3321   0.902   0.095   1.496  0.0679 -0.0954  0.1833
  831SOL    HW2 3322   0.908   0.175   1.549 -0.8001 -0.4910  0.8870
  831SOL    HW3 3323   0.950   0.029   1.547  0.0629 -0.2322  0.0100
  831SOL    MW4 3324   0.909   0.097   1.510 -0.0472 -0.1656  0.2533
  832SOL     OW 3325   0.870   0.337   1.613 -0.1142 -0.2611 -0.1717
  832SOL    HW2 3326   0.862   0.342   1.709 -0.9941 -0.5006 -0.2280
  832SOL    HW3 3327   0.791   0.381   1.581 -0.5775 -1.5140 -0.7743
  832SOL    MW4 3328   0.858   0.343   1.622 -0.2914 -0.4580 -0.2586
  833SOL     OW 3329   1.095   0.482   1.513 -0.0504 -0.1741  0.4313
  833SOL    HW2 3330   1.091   0.568   1.554  1.1139  0.0219  0.1461
  833SOL    HW3 3331   1.018   0.435   1.548 -0.4732  0.8361  0.8770
  833SOL    MW4 3332   1.084   0.487   1.523  0.0475 -0.0150  0.4525
  834SOL     OW 3333   1.094   0.737   1.607 -0.2535  0.1973 -0.0008
  834SOL    HW2 3334   1.110   0.739   1.701 -0.3320  0.2412  0.0124
  834SOL    HW3 3335   1.170   0.780   1.568 -0.1850  0.1095  0.0379
  834SOL    MW4 3336   1.106   0.743   1.614 -0.2548  0.1915  0.0061
  835SOL     OW 3337   0.881   0.878   1.507  0.4253  0.3121  0.2398
  835SOL    HW2 3338   0.940   0.815   1.548  1.6159  1.1503 -0.1567
  835SOL    HW3 3339   0.902   0.872   1.413 -0.4462  0.2784  0.0466
  835SOL    MW4 3340   0.892   0.869   1.500  0.4674  0.4183  0.1620
  836SOL     OW 3341   0.888   1.138   1.575 -0.2210  0.1960  0.2223
  836SOL    HW2 3342   0.893   1.045   1.552 -0.3247 -0.1532  1.5962
  836SOL    HW3 3343   0.799   1.163   1.550 -0.5844 -0.3695  0.9181
  836SOL    MW4 3344   0.877   1.129   1.569 -0.2827  0.0753  0.4953
  837SOL     OW 3345   1.109   1.265   1.471  0.0839 -0.2111 -0.4757
  837SOL    HW2 3346   1.194   1.228   1.496 -0.1373  0.5293  1.4399
  837SOL    HW3 3347   1.044   1.207   1.511 -0.3293 -0.5611 -1.6178
  837SOL    MW4 3348   1.111   1.252   1.479  0.0002 -0.1596 -0.3737
  838SOL     OW 3349   1.079   1.522   1.574  0.3433 -0.1079  0.3828
  838SOL    HW2 3350   1.146   1.569   1.525  0.8847 -1.5919 -0.3381
  838SOL    HW3 3351   1.088   1.431   1.546 -1.9197 -0.3599  0.3156
  838SOL    MW4 3352   1.089   1.516   1.564  0.1162 -0.3370  0.2788
  839SOL     OW 3353   0.871   1.664   1.468  0.1714 -0.0355 -0.3330
  839SOL    HW2 3354   0.936   1.607   1.511 -0.0974  0.0840  0.2461
  839SOL    HW3 3355   0.895   1.663   1.376  1.6840  0.9052  0.0337
  839SOL    MW4 3356   0.883   1.656   1.462  0.3355  0.1043 -0.2082
  840SOL     OW 3357   0.906   1.914   1.560  0.2790  0.2004 -0.1341
  840SOL    HW2 3358   0.979   1.949   1.510  0.8901  0.6999  1.0874
  840SOL    HW3 3359   0.893   1.825   1.526  1.0719  0.3224 -0.7508
  840SOL    MW4 3360   0.914   1.907   1.549  0.4643  0.2824 -0.0543
  841SOL     OW 3361   1.132   2.011   1.443 -0.1228  0.2243 -0.2332
  841SOL    HW2 3362   1.211   1.961   1.465 -0.4816 -0.7713 -1.1746
  841SOL    HW3 3363   1.136   2.087   1.501  1.2682 -0.0630  0.0847
  841SOL    MW4 3364   1.143   2.014   1.454  0.0134  0.0550 -0.3155
  842SOL     OW 3365   1.140   2.256   1.568  0.2532  0.2239  0.6656
  842SOL    HW2 3366   1.213   2.310   1.539  0.5012  0.2965  1.4294
  842SOL    HW3 3367   1.065   2.317   1.570  0.8377  0.9102  2.9557
  842SOL    MW4 3368   1.139   2.271   1.564  0.3630  0.3240  1.0685
  843SOL     OW 3369   0.907   2.414   1.551  0.7633 -0.5134  0.7188
  843SOL    HW2 3370   0.907   2.510   1.560  0.0544 -0.3927 -0.4885
  843SOL    HW3 3371   0.825   2.386   1.591 -0.3057 -0.3606 -1.2899
  843SOL    MW4 3372   0.897   2.423   1.557  0.5287 -0.4773  0.2945
  844SOL     OW 3373   0.898   2.683   1.586  0.7082 -0.1940 -0.0878
  844SOL    HW2 3374   0.909   2.685   1.681 -0.9485  0.0450  0.1201
  844SOL    HW3 3375   0.812   2.724   1.572  0.6999 -0.7386 -1.6394
  844SOL    MW4 3376   0.888   2.689   1.597  0.4885 -0.2343 -0.2651
  845SOL     OW 3377   1.111   2.803   1.445 -0.4758  0.3701  0.3067
  845SOL    HW2 3378   1.106   2.893   1.476 -0.9555  0.5076 -0.1712
  845SOL    HW3 3379   1.043   2.756   1.494 -1.4103  0.6424 -0.7131
  845SOL    MW4 3380   1.102   2.809   1.455 -0.6624  0.4242  0.1091
  846SOL     OW 3381   1.155   3.055   1.534 -0.1145 -0.2976 -0.2111
  846SOL    HW2 3382   1.168   3.075   1.627 -0.5038  2.9728 -0.8292
  846SOL    HW3 3383   1.217   3.111   1.488  0.0436 -1.8534 -1.9575
  846SOL    MW4 3384   1.165   3.065   1.541 -0.1450 -0.0714 -0.5230
  847SOL     OW 3385   0.906   3.194   1.475  0.2430  0.5630 -0.5783
  847SOL    HW2 3386   0.980   3.141   1.504 -0.6605 -0.0509  0.6777
  847SOL    HW3 3387   0.915   3.198   1.380  1.2757 -0.4205 -0.5300
  847SOL    MW4 3388   0.917   3.187   1.466  0.2600  0.3523 -0.4062
  848SOL     OW 3389   0.906   3.460   1.556 -0.3038  0.8431 -0.1552
  848SOL    HW2 3390   0.973   3.504   1.503 -1.0760  1.3437 -0.7387
  848SOL    HW3 3391   0.902   3.371   1.522  0.8755  0.4643  0.6570
  848SOL    MW4 3392   0.915   3.454   1.545 -0.2501  0.8592 -0.1250
  849SOL     OW 3393   1.122   3.612   1.454  0.1411 -0.0978  0.2783
  849SOL    HW2 3394   1.190   3.562   1.497  0.4551  0.6812  0.7032
  849SOL    HW3 3395   1.126   3.585   1.362 -1.2096 -2.5117  0.9061
  849SOL    MW4 3396   1.131   3.602   1.447  0.0043 -0.3135  0.4172
  850SOL     OW 3397   1.134   3.862   1.571  0.1178  0.2933  0.1927
  850SOL    HW2 3398   1.218   3.901   1.544  0.3756  0.3513  1.0502
  850SOL    HW3 3399   1.138   3.772   1.539  0.7968  0.0999  0.8050
  850SOL    MW4 3400   1.146   3.855   1.563  0.2414  0.2755  0.3866
  851SOL     OW 3401   0.899   3.975   1.466 -0.5312  0.3055 -0.0087
  851SOL    HW2 3402   0.897   4.062   1.506 -1.8579 -0.4381  1.6747
  851SOL    HW3 3403   0.983   3.938   1.491 -0.8916  0.2796  1.2048
  851SOL    MW4 3404   0.910   3.981   1.475 -0.7538  0.2040  0.3735
  852SOL     OW 3405   0.904   4.235   1.576  0.0091 -0.4667 -0.2761
  852SOL    HW2 3406   0.900   4.259   1.668 -1.5364 -0.9007 -0.2239
  852SOL    HW3 3407   0.833   4.284   1.535  0.8805 -0.0357 -1.3058
  852SOL    MW4 3408   0.894   4.244   1.582 -0.0798 -0.4671 -0.4051
  853SOL     OW 3409   1.158   4.350   1.485  0.0613 -0.0712  0.0371
  853SOL    HW2 3410   1.091   4.293   1.522  1.0501 -0.6563  0.9698
  853SOL    HW3 3411   1.147   4.433   1.531  0.3745 -0.3658  0.6537
  853SOL    MW4 3412   1.148   4.354   1.496  0.2331 -0.1873  0.2415
  854SOL     OW 3413   1.570   4.648   1.604  0.1210  0.2444  0.2378
  854SOL    HW2 3414   1.562   4.650   1.700  0.1906  0.5786  0.2352
  854SOL    HW3 3415   1.495   4.698   1.573  0.4074  0.6112  0.1319
  854SOL    MW4 3416   1.559   4.655   1.613  0.1680  0.3369  0.2235
  855SOL     OW 3417   1.313   0.091   1.497 -0.1203 -0.2004  0.3454
  855SOL    HW2 3418   1.329   0.182   1.523 -0.9387 -0.5452  2.1628
  855SOL    HW3 3419   1.311   0.093   1.401 -1.3337  1.9136  0.3859
  855SOL    MW4 3420   1.315   0.103   1.488 -0.3883  0.0330  0.5905
  856SOL     OW 3421   1.339   0.371   1.589  0.1567 -0.2866  0.2557
  856SOL    HW2 3422   1.417   0.410   1.550  0.2795 -0.2263  0.5644
  856SOL    HW3 3423   1.266   0.423   1.554  0.2140 -0.6155 -0.3784
  856SOL    MW4 3424   1.340   0.383   1.579  0.1805 -0.3220  0.2128
  857SOL     OW 3425   1.554   0.502   1.482  0.0214 -0.3782 -0.8934
  857SOL    HW2 3426   1.641   0.476   1.514  1.0379  3.3733 -0.3068
  857SOL    HW3 3427   1.558   0.488   1.387  1.1564 -0.5796 -0.8244
  857SOL    MW4 3428   1.566   0.497   1.474  0.3053  0.0902 -0.8069
  858SOL     OW 3429   1.558   0.769   1.575 -0.1455  0.0016 -0.1581
  858SOL    HW2 3430   1.568   0.754   1.670  1.6312 -0.1940 -0.3590
  858SOL    HW3 3431   1.542   0.681   1.540 -0.4376  0.0276 -0.0982
  858SOL    MW4 3432   1.557   0.755   1.583  0.0504 -0.0208 -0.1767
  859SOL     OW 3433   1.314   0.865   1.504 -0.6460 -0.4273 -0.2414
  859SOL    HW2 3434   1.398   0.836   1.539 -0.2314  1.1242  0.1249
  859SOL    HW3 3435   1.323   0.855   1.409 -0.2460 -0.8095 -0.1642
  859SOL    MW4 3436   1.327   0.860   1.496 -0.5386 -0.2730 -0.1829
  860SOL     OW 3437   1.343   1.137   1.565 -0.5001 -0.2477  0.6128
  860SOL    HW2 3438   1.373   1.134   1.656  0.9260  0.1823  0.1749
  860SOL    HW3 3439   1.333   1.045   1.540  0.7644 -0.4101  0.6800
  860SOL    MW4 3440   1.346   1.124   1.573 -0.1451 -0.2124  0.5639
  861SOL     OW 3441   1.599   1.242   1.508 -0.4621  0.3767  0.7926
  861SOL    HW2 3442   1.512   1.204   1.517 -1.1297  1.8237  0.5541
  861SOL    HW3 3443   1.613   1.246   1.413 -0.4804  0.9449  0.8172
  861SOL    MW4 3444   1.590   1.237   1.496 -0.5526  0.6426  0.7644
  862SOL     OW 3445   1.563   1.520   1.588 -0.4913 -0.4565 -0.0270
  862SOL    HW2 3446   1.561   1.520   1.683  0.3076 -0.0735 -0.0063
  862SOL    HW3 3447   1.569   1.427   1.564  0.5995 -0.4848  0.3307
  862SOL    MW4 3448   1.564   1.507   1.597 -0.2419 -0.4097  0.0229
  863SOL     OW 3449   1.320   1.638   1.492  0.0791 -0.1668 -0.1609
  863SOL    HW2 3450   1.390   1.583   1.525 -0.2835 -0.1210  0.7083
  863SOL    HW3 3451   1.343   1.655   1.401  0.5145 -1.2245 -0.2518
  863SOL    MW4 3452   1.332   1.633   1.484  0.0887 -0.3003 -0.0582
  864SOL     OW 3453   1.359   1.891   1.563 -0.3008  0.4625  0.0171
  864SOL    HW2 3454   1.370   1.895   1.658 -2.2436  0.5306  0.2642
  864SOL    HW3 3455   1.343   1.799   1.545 -0.2634  0.5001 -0.2084
  864SOL    MW4 3456   1.358   1.879   1.573 -0.5522  0.4764  0.0199
  865SOL     OW 3457   1.571   2.070   1.502  0.0225  0.2854 -0.1032
  865SOL    HW2 3458   1.503   2.004   1.514  1.1527 -0.6733  1.2160
  865SOL    HW3 3459   1.577   2.081   1.407 -0.6760 -1.0062 -0.3119
  865SOL    MW4 3460   1.563   2.063   1.491  0.0795 -0.0115  0.0433
  866SOL     OW 3461   1.586   2.329   1.585  0.3306  0.1317 -0.3437
  866SOL    HW2 3462   1.659   2.370   1.538 -0.0517 -0.6477 -1.6320
  866SOL    HW3 3463   1.593   2.236   1.564 -1.5627  0.1590 -1.2240
  866SOL    MW4 3464   1.597   2.322   1.576  0.0304  0.0325 -0.6298
  867SOL     OW 3465   1.346   2.447   1.521 -0.1915 -0.5639 -0.0812
  867SOL    HW2 3466   1.357   2.538   1.547 -0.6266 -0.9985  1.6735
  867SOL    HW3 3467   1.428   2.404   1.545 -0.8020 -1.0839  1.1273
  867SOL    MW4 3468   1.358   2.453   1.528 -0.3295 -0.6899  0.3098
  868SOL     OW 3469   1.358   2.717   1.562 -0.1675  0.0062  0.1677
  868SOL    HW2 3470   1.420   2.780   1.524  0.2220  0.5613  1.6582
  868SOL    HW3 3471   1.274   2.739   1.523  0.0157  1.2952  0.4718
  868SOL    MW4 3472   1.355   2.728   1.552 -0.0919  0.2495  0.4044
  869SOL     OW 3473   1.560   2.880   1.471  0.3855  0.6692 -0.0478
  869SOL    HW2 3474   1.634   2.829   1.504 -0.5139 -1.1021 -0.6999
  869SOL    HW3 3475   1.578   2.891   1.377 -0.8866 -1.0727 -0.5216
  869SOL    MW4 3476   1.572   2.875   1.463  0.0990  0.2057 -0.1963
  870SOL     OW 3477   1.581   3.138   1.568  0.1728 -0.5146 -0.1873
  870SOL    HW2 3478   1.663   3.155   1.523 -0.0765 -0.8193 -0.7695
  870SOL    HW3 3479   1.563   3.045   1.550 -0.3719 -0.4099 -0.1819
  870SOL    MW4 3480   1.589   3.128   1.560  0.0681 -0.5410 -0.2634
  871SOL     OW 3481   1.356   3.234   1.430  0.1458 -0.1146  0.1991
  871SOL    HW2 3482   1.350   3.327   1.452  0.5539  0.3359 -1.5587
  871SOL    HW3 3483   1.430   3.202   1.483  0.2427  0.6301  0.5258
  871SOL    MW4 3484   1.365   3.242   1.440  0.2124  0.0430  0.0103
  872SOL     OW 3485   1.341   3.478   1.550  0.5121  0.0202 -0.3620
  872SOL    HW2 3486   1.345   3.499   1.643  0.5054 -0.7166 -0.1930
  872SOL    HW3 3487   1.421   3.516   1.513  0.2770  0.7366 -0.1515
  872SOL    MW4 3488   1.352   3.486   1.557  0.4802  0.0175 -0.3119
  873SOL     OW 3489   1.581   3.621   1.444  0.0123  0.3782  0.1700
  873SOL    HW2 3490   1.585   3.712   1.474 -0.1384  0.0299  1.2728
  873SOL    HW3 3491   1.587   3.627   1.349  1.2069  1.4701  0.2966
  873SOL    MW4 3492   1.582   3.634   1.436  0.1501  0.4763  0.3322
  874SOL     OW 3493   1.593   3.877   1.580  0.6826  0.1927 -0.2097
  874SOL    HW2 3494   1.588   3.856   1.673 -0.0844  1.0440 -0.0513
  874SOL    HW3 3495   1.513   3.928   1.563 -0.2122 -1.6825 -1.7667
  874SOL    MW4 3496   1.582   3.881   1.590  0.4633  0.0576 -0.3942
  875SOL     OW 3497   1.369   4.009   1.520  0.2549  0.4586  0.4074
  875SOL    HW2 3498   1.358   4.099   1.551 -0.2114  1.1128 -1.5843
  875SOL    HW3 3499   1.358   4.015   1.425 -0.9154 -1.8778  0.3580
  875SOL    MW4 3500   1.366   4.022   1.512  0.0390  0.2366  0.1381
  876SOL     OW 3501   1.375   4.264   1.624 -0.0869 -0.0846 -0.0019
  876SOL    HW2 3502   1.454   4.310   1.596  0.2375  0.8036  2.2508
  876SOL    HW3 3503   1.305   4.300   1.569  0.8763 -0.0602 -1.2316
  876SOL    MW4 3504   1.376   4.275   1.613  0.0830  0.0358  0.1331
  877SOL     OW 3505   1.597   4.370   1.503  0.4148 -1.0648 -0.2309
  877SOL    HW2 3506   1.676   4.330   1.540  0.4288  0.3314  1.3471
  877SOL    HW3 3507   1.589   4.453   1.550 -1.7018 -0.9515 -0.7425
  877SOL    MW4 3508   1.606   4.376   1.514  0.1374 -0.8656 -0.0902
  878SOL     OW 3509   1.978   4.605   1.583  0.7080  0.1695  0.2413
  878SOL    HW2 3510   1.988   4.615   1.677 -0.3181  1.2308  0.2452
  878SOL    HW3 3511   1.918   4.675   1.557  0.9255 -0.1520 -1.1862
  878SOL    MW4 3512   1.971   4.615   1.592  0.6013  0.2671  0.0535
  879SOL     OW 3513   1.800   0.133   1.507 -0.0446  0.3096 -0.1487
  879SOL    HW2 3514   1.733   0.074   1.542  0.9686 -0.3595  0.7298
  879SOL    HW3 3515   1.791   0.126   1.412 -0.6170 -0.4826 -0.0435
  879SOL    MW4 3516   1.790   0.124   1.499  0.0135  0.1168 -0.0189
  880SOL     OW 3517   1.776   0.380   1.618 -0.3623  0.0444 -0.1009
  880SOL    HW2 3518   1.863   0.413   1.592 -1.2712  1.7791 -1.0284
  880SOL    HW3 3519   1.767   0.298   1.570  0.6454  0.0035 -0.2397
  880SOL    MW4 3520   1.787   0.373   1.608 -0.3492  0.2678 -0.2416
  881SOL     OW 3521   2.015   0.476   1.515  0.0522  0.5075  0.3770
  881SOL    HW2 3522   2.108   0.454   1.509  0.5529  1.8509  2.4967
  881SOL    HW3 3523   2.014   0.565   1.550 -2.0459  0.3365  0.8125
  881SOL    MW4 3524   2.027   0.485   1.519 -0.1586  0.6622  0.7141
  882SOL     OW 3525   1.983   0.720   1.616  0.3100  0.1548  0.0171
  882SOL    HW2 3526   2.065   0.757   1.584 -0.4132  0.3510 -1.6806
  882SOL    HW3 3527   1.915   0.775   1.577 -0.6412 -0.4543  0.7974
  882SOL    MW4 3528   1.985   0.732   1.607  0.0891  0.1003 -0.1039
  883SOL     OW 3529   1.797   0.873   1.485 -0.4218  0.0827  0.1803
  883SOL    HW2 3530   1.807   0.955   1.533  0.7007 -0.6698  1.2940
  883SOL    HW3 3531   1.714   0.836   1.516  0.4505 -0.5548  1.8366
  883SOL    MW4 3532   1.788   0.879   1.496 -0.1586 -0.1007  0.5458
  884SOL     OW 3533   1.849   1.102   1.626 -0.1957  0.7502  0.2278
  884SOL    HW2 3534   1.920   1.158   1.595  0.1261  0.6606  0.7935
  884SOL    HW3 3535   1.769   1.146   1.599  0.0204  2.0882  1.6680
  884SOL    MW4 3536   1.848   1.115   1.619 -0.1247  0.9149  0.4925
  885SOL     OW 3537   2.042   1.243   1.495  1.0294  0.0156  0.2064
  885SOL    HW2 3538   2.055   1.334   1.523 -1.0594  0.3532  0.1882
  885SOL    HW3 3539   2.042   1.248   1.399 -0.1448  0.1750  0.2087
  885SOL    MW4 3540   2.044   1.256   1.486  0.5989  0.0812  0.2043
  886SOL     OW 3541   2.046   1.516   1.568 -0.1317 -0.5976 -0.0295
  886SOL    HW2 3542   2.121   1.574   1.561 -0.7590  0.2552  0.3041
  886SOL    HW3 3543   1.970   1.572   1.553 -0.8441 -0.9584  2.0338
  886SOL    MW4 3544   2.046   1.531   1.565 -0.3085 -0.5327  0.2868
  887SOL     OW 3545   1.796   1.656   1.525 -0.1286 -0.2431  0.0425
  887SOL    HW2 3546   1.715   1.607   1.539  0.0815 -0.5779  0.1134
  887SOL    HW3 3547   1.814   1.647   1.431 -1.6692  2.2124 -0.5319
  887SOL    MW4 3548   1.788   1.648   1.514 -0.3042  0.0367 -0.0239
  888SOL     OW 3549   1.791   1.935   1.604  0.0244 -0.4347  0.4348
  888SOL    HW2 3550   1.773   1.843   1.587 -0.1586 -0.2301 -0.5018
  888SOL    HW3 3551   1.712   1.981   1.575  0.7558  0.1652 -0.6409
  888SOL    MW4 3552   1.778   1.929   1.598  0.0967 -0.3286  0.1693
  889SOL     OW 3553   2.021   2.033   1.473 -0.5323  0.3962  0.9121
  889SOL    HW2 3554   2.101   1.986   1.496  0.4401  1.4436 -0.3051
  889SOL    HW3 3555   1.952   1.985   1.519  0.6729 -1.0552  1.2598
  889SOL    MW4 3556   2.022   2.020   1.482 -0.2450  0.3429  0.7973
  890SOL     OW 3557   1.988   2.289   1.601 -0.6256  0.2121  0.3037
  890SOL    HW2 3558   2.016   2.294   1.693 -1.8054  0.4339  0.6618
  890SOL    HW3 3559   2.001   2.197   1.577  1.0006  0.4344  0.2518
  890SOL    MW4 3560   1.994   2.278   1.610 -0.5667  0.2707  0.3441
  891SOL     OW 3561   1.804   2.438   1.457 -0.7866 -0.2912 -0.2007
  891SOL    HW2 3562   1.870   2.388   1.505 -0.7580 -0.3441 -0.2946
  891SOL    HW3 3563   1.831   2.432   1.366 -0.0805  0.9559 -0.0765
  891SOL    MW4 3564   1.816   2.431   1.451 -0.6896 -0.1337 -0.1967
  892SOL     OW 3565   1.805   2.722   1.539 -0.6395 -0.2262 -0.6130
  892SOL    HW2 3566   1.877   2.746   1.480  0.4815 -0.7110  0.5228
  892SOL    HW3 3567   1.795   2.627   1.527 -1.0022 -0.1753 -0.6928
  892SOL    MW4 3568   1.813   2.713   1.530 -0.5395 -0.2834 -0.4737
  893SOL     OW 3569   2.046   2.817   1.418 -0.0354  0.4155  0.6164
  893SOL    HW2 3570   2.043   2.907   1.450 -2.5152  0.7427 -0.4554
  893SOL    HW3 3571   2.057   2.826   1.323  1.7659 -0.4659  0.7196
  893SOL    MW4 3572   2.047   2.830   1.410 -0.1249  0.3424  0.4886
  894SOL     OW 3573   1.999   3.067   1.523 -0.2478 -0.1690 -0.0528
  894SOL    HW2 3574   1.993   3.058   1.618 -0.4228  1.8958  0.1517
  894SOL    HW3 3575   2.078   3.119   1.509 -0.9597  0.6834 -0.9490
  894SOL    MW4 3576   2.009   3.073   1.534 -0.3648  0.2159 -0.1440
  895SOL     OW 3577   1.790   3.201   1.409 -0.1775 -0.0257  0.3826
  895SOL    HW2 3578   1.771   3.287   1.446 -1.0522 -0.0595  0.0263
  895SOL    HW3 3579   1.876   3.178   1.444  0.5760  1.4900 -0.4318
  895SOL    MW4 3580   1.798   3.210   1.418 -0.1935  0.1698  0.2281
  896SOL     OW 3581   1.768   3.442   1.545  0.6113 -0.0198  0.1821
  896SOL    HW2 3582   1.772   3.444   1.641  0.0988 -1.8081  0.2771
  896SOL    HW3 3583   1.706   3.511   1.522  0.2132 -0.0263  1.1859
  896SOL    MW4 3584   1.760   3.451   1.555  0.4912 -0.2566  0.3271
  897SOL     OW 3585   2.005   3.586   1.458  0.0223  0.1878 -0.0673
  897SOL    HW2 3586   2.080   3.530   1.478  0.2298  0.6255  0.3989
  897SOL    HW3 3587   1.929   3.537   1.489  0.1203 -0.2385 -0.5009
  897SOL    MW4 3588   2.005   3.572   1.465  0.0626  0.1893 -0.0630
  898SOL     OW 3589   2.067   3.822   1.619  0.2168  0.0726 -0.2155
  898SOL    HW2 3590   2.137   3.869   1.572 -1.4698  0.3673 -2.5288
  898SOL    HW3 3591   2.052   3.743   1.567 -1.8353  0.4957 -0.3052
  898SOL    MW4 3592   2.074   3.818   1.606 -0.2765  0.1673 -0.5325
  899SOL     OW 3593   1.856   3.987   1.533 -0.1312 -0.0059  0.4526
  899SOL    HW2 3594   1.930   3.941   1.574  0.8579 -0.4499 -1.7379
  899SOL    HW3 3595   1.783   3.926   1.540  0.6922 -1.1533 -0.7470
  899SOL    MW4 3596   1.856   3.973   1.539  0.1079 -0.2159  0.0053
  900SOL     OW 3597   1.835   4.251   1.598 -0.4020 -0.4037  0.1802
  900SOL    HW2 3598   1.909   4.299   1.561 -0.7048  0.9498  1.2589
  900SOL    HW3 3599   1.847   4.161   1.570 -0.2258  0.4377 -2.5417
  900SOL    MW4 3600   1.846   4.246   1.590 -0.4187 -0.1141 -0.0366
  901SOL     OW 3601   2.023   4.369   1.444 -0.8235  0.0548  0.1157
  901SOL    HW2 3602   2.093   4.324   1.492 -1.1710 -0.4076  0.1939
  901SOL    HW3 3603   2.016   4.454   1.487 -2.3159 -0.9899  2.0435
  901SOL    MW4 3604   2.031   4.374   1.456 -1.0662 -0.1440  0.3803
  902SOL     OW 3605   2.514   4.666   1.559 -0.2280  0.5508  0.0345
  902SOL    HW2 3606   2.502   4.650   1.653  0.0603 -2.3968 -0.3689
  902SOL    HW3 3607   2.427   4.689   1.527 -0.5015  0.7047  0.8743
  902SOL    MW4 3608   2.501   4.667   1.567 -0.2260  0.1822  0.0921
  903SOL     OW 3609   2.252   0.063   1.472 -0.0519  0.1887 -0.3084
  903SOL    HW2 3610   2.167   0.028   1.496 -0.0629 -0.5198 -1.3768
  903SOL    HW3 3611   2.252   0.067   1.377  0.9817  0.5042 -0.3111
  903SOL    MW4 3612   2.241   0.059   1.463  0.0830  0.1369 -0.4498
  904SOL     OW 3613   2.270   0.335   1.550 -0.4863 -0.0608 -0.5597
  904SOL    HW2 3614   2.273   0.323   1.645 -0.6270 -0.8104 -0.6443
  904SOL    HW3 3615   2.278   0.246   1.515  1.9010  0.4021 -1.2918
  904SOL    MW4 3616   2.272   0.322   1.558 -0.1899 -0.0986 -0.6675
  905SOL     OW 3617   2.475   0.503   1.476 -0.3132  0.1409 -0.5795
  905SOL    HW2 3618   2.549   0.454   1.513 -0.6251 -1.2137 -1.7306
  905SOL    HW3 3619   2.400   0.445   1.489 -1.0375  1.1535 -0.1944
  905SOL    MW4 3620   2.475   0.489   1.483 -0.4499  0.0958 -0.6805
  906SOL     OW 3621   2.477   0.739   1.602  0.6350 -0.0637  0.0206
  906SOL    HW2 3622   2.411   0.783   1.549  1.1740  0.4339 -0.2456
  906SOL    HW3 3623   2.479   0.649   1.568  0.3222  0.0057 -0.1825
  906SOL    MW4 3624   2.469   0.733   1.590  0.6648  0.0111 -0.0413
  907SOL     OW 3625   2.224   0.845   1.525  0.2873 -0.1407  0.3982
  907SOL    HW2 3626   2.240   0.936   1.547  0.2298 -0.6812  2.8388
  907SOL    HW3 3627   2.244   0.838   1.432  0.9378  2.1978  0.3497
  907SOL    MW4 3628   2.228   0.856   1.516  0.3655  0.0965  0.7138
  908SOL     OW 3629   2.271   1.122   1.563  0.1730 -0.2864  0.1528
  908SOL    HW2 3630   2.276   1.146   1.655 -0.9284  0.9356 -0.0905
  908SOL    HW3 3631   2.190   1.162   1.532  0.8669 -0.1251 -1.5136
  908SOL    MW4 3632   2.261   1.130   1.571  0.1192 -0.1039 -0.0992
  909SOL     OW 3633   2.484   1.266   1.486 -0.1084 -0.4600  0.0182
  909SOL    HW2 3634   2.407   1.215   1.509  0.4381 -1.1822  0.2992
  909SOL    HW3 3635   2.499   1.246   1.393 -0.4234 -0.1074 -0.1052
  909SOL    MW4 3636   2.476   1.256   1.477 -0.0779 -0.5087  0.0390
  910SOL     OW 3637   2.472   1.523   1.569 -0.3877  1.0021 -0.3361
  910SOL    HW2 3638   2.555   1.560   1.539  0.4007  0.4059  1.0969
  910SOL    HW3 3639   2.471   1.434   1.534  0.1678  0.5758  0.7263
  910SOL    MW4 3640   2.482   1.516   1.561 -0.2104  0.8672 -0.0068
  911SOL     OW 3641   2.252   1.671   1.494  0.3010  0.0917  0.4151
  911SOL    HW2 3642   2.320   1.617   1.536  0.2208 -0.7943 -0.5691
  911SOL    HW3 3643   2.283   1.681   1.404 -0.4810  0.3657  0.1781
  911SOL    MW4 3644   2.265   1.665   1.488  0.1872  0.0110  0.2539
  912SOL     OW 3645   2.291   1.944   1.551  0.0648  0.3420  0.6495
  912SOL    HW2 3646   2.307   1.940   1.646 -0.5397 -2.4732  0.6927
  912SOL    HW3 3647   2.288   1.852   1.524  0.1962  1.1140 -2.1138
  912SOL    MW4 3648   2.293   1.931   1.560  0.0024  0.0724  0.2906
  913SOL     OW 3649   2.521   2.109   1.474 -0.3378 -0.2357 -0.8964
  913SOL    HW2 3650   2.443   2.056   1.494 -0.6392  0.4297 -0.2641
  913SOL    HW3 3651   2.532   2.101   1.380 -1.5077  0.0938 -1.0777
  913SOL    MW4 3652   2.512   2.101   1.464 -0.5319 -0.1044 -0.8369
  914SOL     OW 3653   2.453   2.342   1.599 -0.7596  0.5209  0.1362
  914SOL    HW2 3654   2.477   2.332   1.691 -0.8263  0.9016  0.1926
  914SOL    HW3 3655   2.467   2.255   1.562  0.4613  0.6813  0.2215
  914SOL    MW4 3656   2.458   2.329   1.606 -0.6073  0.5923  0.1549
  915SOL     OW 3657   2.210   2.459   1.528  0.2544 -0.0700 -0.2756
  915SOL    HW2 3658   2.285   2.411   1.564  0.0471 -0.4455 -0.3417
  915SOL    HW3 3659   2.134   2.408   1.554  0.1048 -0.3932 -1.3134
  915SOL    MW4 3660   2.210   2.446   1.536  0.2073 -0.1622 -0.4213
  916SOL     OW 3661   2.243   2.721   1.594  0.4864 -0.0998  0.0949
  916SOL    HW2 3662   2.242   2.626   1.583  0.3552 -0.0399 -0.4002
  916SOL    HW3 3663   2.177   2.754   1.533  0.7701  0.3380  0.0187
  916SOL    MW4 3664   2.234   2.713   1.585  0.5065 -0.0342  0.0195
  917SOL     OW 3665   2.455   2.879   1.474  0.0545 -0.2197  0.5111
  917SOL    HW2 3666   2.467   2.965   1.514 -0.9268 -0.1596  0.6965
  917SOL    HW3 3667   2.385   2.838   1.526 -1.0603 -0.2375 -0.9658
  917SOL    MW4 3668   2.447   2.885   1.486 -0.2220 -0.2141  0.3407
  918SOL     OW 3669   2.478   3.148   1.587  0.0857  0.0032  0.1356
  918SOL    HW2 3670   2.551   3.182   1.535  0.4200 -0.3007  0.3955
  918SOL    HW3 3671   2.401   3.159   1.532  0.3500  0.2241 -0.1880
  918SOL    MW4 3672   2.478   3.154   1.573  0.1647 -0.0078  0.1272
  919SOL     OW 3673   2.236   3.188   1.470 -0.0755 -0.2749 -0.1879
  919SOL    HW2 3674   2.236   3.276   1.508 -2.2750  0.5352 -1.8907
  919SOL    HW3 3675   2.241   3.204   1.375  0.2730 -2.0214 -0.4752
  919SOL    MW4 3676   2.237   3.202   1.462 -0.3197 -0.3985 -0.4504
  920SOL     OW 3677   2.217   3.431   1.581  0.1880 -0.3945 -0.0001
  920SOL    HW2 3678   2.197   3.436   1.675  0.6774  0.2107  0.0721
  920SOL    HW3 3679   2.295   3.485   1.570  0.9863 -1.6260 -0.5161
  920SOL    MW4 3680   2.225   3.439   1.592  0.3579 -0.4771 -0.0586
  921SOL     OW 3681   2.424   3.609   1.490  0.3069  0.0044 -0.3219
  921SOL    HW2 3682   2.504   3.564   1.518 -0.5118 -0.5984  1.0998
  921SOL    HW3 3683   2.436   3.699   1.519  0.1088 -0.2794  0.6564
  921SOL    MW4 3684   2.436   3.615   1.498  0.1727 -0.1125 -0.0053
  922SOL     OW 3685   2.509   3.870   1.576 -0.1897 -0.5456  0.0526
  922SOL    HW2 3686   2.512   3.880   1.671 -1.1494  1.0663 -0.0605
  922SOL    HW3 3687   2.583   3.922   1.544 -0.5859 -0.0881 -0.1337
  922SOL    MW4 3688   2.519   3.878   1.584 -0.3686 -0.2725  0.0131
  923SOL     OW 3689   2.263   3.995   1.502  0.4044 -0.4354 -0.0976
  923SOL    HW2 3690   2.343   3.945   1.518  0.8282  0.7200  1.4965
  923SOL    HW3 3691   2.264   4.012   1.408  0.4998 -2.9607 -0.5928
  923SOL    MW4 3692   2.274   3.990   1.492  0.4729 -0.6161  0.0474
  924SOL     OW 3693   2.230   4.245   1.587  0.0247 -0.3390 -0.0293
  924SOL    HW2 3694   2.316   4.285   1.574 -0.1860  0.9725  2.3143
  924SOL    HW3 3695   2.245   4.152   1.570  1.9018 -0.1294  0.2634
  924SOL    MW4 3696   2.244   4.238   1.583  0.2445 -0.1383  0.3185
  925SOL     OW 3697   2.477   4.370   1.518 -0.1265  0.2443  0.0550
  925SOL    HW2 3698   2.488   4.462   1.542 -0.3004  0.3462 -0.2530
  925SOL    HW3 3699   2.448   4.372   1.427 -0.2603 -0.1104  0.0881
  925SOL    MW4 3700   2.474   4.382   1.509 -0.1671  0.2110  0.0187
  926SOL     OW 3701   2.923   4.656   1.560 -0.6778  0.0184  0.4748
  926SOL    HW2 3702   2.921   4.677   1.653 -1.1466 -0.6806  0.6235
  926SOL    HW3 3703   2.851   4.708   1.523 -0.5307  0.2478  0.5094
  926SOL    MW4 3704   2.913   4.666   1.567 -0.7203 -0.0436  0.4990
  927SOL     OW 3705   2.726   0.144   1.462 -0.0001  0.5937  0.0239
  927SOL    HW2 3706   2.726   0.226   1.511 -0.4256  1.0197 -0.6779
  927SOL    HW3 3707   2.651   0.095   1.496  1.2662 -0.2725  1.6784
  927SOL    MW4 3708   2.716   0.149   1.473  0.1108  0.5356  0.1496
  928SOL     OW 3709   2.704   0.395   1.599  0.5995 -0.3281 -0.5086
  928SOL    HW2 3710   2.689   0.401   1.693  1.0085  1.6024 -0.5571
  928SOL    HW3 3711   2.786   0.443   1.584  0.7909 -1.0239 -1.7910
  928SOL    MW4 3712   2.713   0.402   1.610  0.6787 -0.1652 -0.6842
  929SOL     OW 3713   2.948   0.516   1.473 -0.0044  0.1253  0.0054
  929SOL    HW2 3714   2.938   0.611   1.486  0.4099  0.2729 -0.7226
  929SOL    HW3 3715   2.950   0.506   1.378 -0.4975 -0.6651  0.0815
  929SOL    MW4 3716   2.947   0.527   1.462 -0.0148  0.0405 -0.0806
  930SOL     OW 3717   2.946   0.788   1.564 -0.5441  0.1939  0.0440
  930SOL    HW2 3718   2.955   0.779   1.659  0.0429 -0.4435 -0.0712
  930SOL    HW3 3719   2.859   0.826   1.552 -1.2144 -1.1035  0.7607
  930SOL    MW4 3720   2.936   0.792   1.575 -0.5551 -0.0614  0.1234
  931SOL     OW 3721   2.689   0.865   1.514  0.2435  0.2190  0.1485
  931SOL    HW2 3722   2.603   0.833   1.541  0.2984 -0.3301 -0.3332
  931SOL    HW3 3723   2.679   0.890   1.423  1.0908 -1.7207 -0.5126
  931SOL    MW4 3724   2.677   0.864   1.506  0.3625 -0.1093 -0.0023
  932SOL     OW 3725   2.716   1.144   1.603  0.2792  0.2424  0.2529
  932SOL    HW2 3726   2.712   1.051   1.582  0.0711  0.3916 -0.3927
  932SOL    HW3 3727   2.639   1.181   1.559  0.8930  0.8723 -0.3063
  932SOL    MW4 3728   2.705   1.137   1.594  0.3327  0.3452  0.0940
  933SOL     OW 3729   2.914   1.256   1.457 -0.1846  0.1235  0.6856
  933SOL    HW2 3730   2.994   1.225   1.500 -0.0418 -1.8785 -0.9505
  933SOL    HW3 3731   2.843   1.222   1.512  0.0626  1.1894  1.6769
  933SOL    MW4 3732   2.915   1.247   1.470 -0.1332  0.0000  0.6005
  934SOL     OW 3733   2.947   1.519   1.552  0.4453  0.5514 -0.5135
  934SOL    HW2 3734   2.861   1.559   1.539 -0.6503 -0.7555  2.2344
  934SOL    HW3 3735   2.939   1.433   1.510 -0.3989 -0.4660  1.6422
  934SOL    MW4 3736   2.935   1.513   1.545  0.1894  0.2447  0.1335
  935SOL     OW 3737   2.716   1.641   1.494  0.0914  0.0817  0.1042
  935SOL    HW2 3738   2.742   1.729   1.519  0.4252  0.2069 -0.6579
  935SOL    HW3 3739   2.700   1.646   1.400 -1.4073 -0.3025  0.3089
  935SOL    MW4 3740   2.717   1.653   1.485 -0.0623  0.0475  0.0306
  936SOL     OW 3741   2.736   1.933   1.550 -0.5828 -0.2454 -0.1923
  936SOL    HW2 3742   2.715   1.927   1.643 -0.7859 -1.3785 -0.3079
  936SOL    HW3 3743   2.671   1.995   1.515 -0.5590  0.1148  0.3931
  936SOL    MW4 3744   2.724   1.941   1.557 -0.6064 -0.3474 -0.1303
  937SOL     OW 3745   2.989   2.049   1.513  0.4762 -0.2176  0.1028
  937SOL    HW2 3746   2.985   2.128   1.568  1.3964 -0.8267  1.0596
  937SOL    HW3 3747   2.903   2.008   1.525  0.2094  0.3229  0.0721
  937SOL    MW4 3748   2.977   2.054   1.522  0.5624 -0.2267  0.2250
  938SOL     OW 3749   2.920   2.304   1.601 -0.2792 -0.2237 -0.0532
  938SOL    HW2 3750   2.903   2.313   1.695 -1.0279  2.1163 -0.3636
  938SOL    HW3 3751   2.848   2.353   1.560  0.5975 -0.3909 -1.8032
  938SOL    MW4 3752   2.908   2.312   1.608 -0.2623  0.0630 -0.3251
  939SOL     OW 3753   2.697   2.469   1.508  0.0502 -0.2589 -0.1687
  939SOL    HW2 3754   2.696   2.562   1.534 -0.1780 -0.4272  0.4524
  939SOL    HW3 3755   2.615   2.434   1.544 -0.7894 -0.2661 -2.0646
  939SOL    MW4 3756   2.686   2.477   1.516 -0.0907 -0.2821 -0.3369
  940SOL     OW 3757   2.681   2.741   1.579 -0.4284  0.4238  0.1374
  940SOL    HW2 3758   2.764   2.788   1.571 -0.5491  0.6735  0.3311
  940SOL    HW3 3759   2.621   2.790   1.522 -0.5784  0.5562  0.4124
  940SOL    MW4 3760   2.684   2.754   1.570 -0.4641  0.4742  0.1993
  941SOL     OW 3761   2.908   2.869   1.480  0.2674  0.2483  0.6230
  941SOL    HW2 3762   2.978   2.824   1.526 -0.6588  0.8638  2.7053
  941SOL    HW3 3763   2.922   2.962   1.499 -1.5105  0.3312  1.7136
  941SOL    MW4 3764   2.919   2.875   1.489 -0.0893  0.3405  1.0416
  942SOL     OW 3765   2.922   3.126   1.561 -0.0504  0.5091  0.1568
  942SOL    HW2 3766   2.926   3.101   1.653 -0.5952  0.2608  0.1073
  942SOL    HW3 3767   3.008   3.167   1.544  0.3965 -0.2695  0.5280
  942SOL    MW4 3768   2.934   3.128   1.571 -0.0633  0.3736  0.1992
  943SOL     OW 3769   2.696   3.226   1.451 -0.6051  0.3669 -0.3738
  943SOL    HW2 3770   2.782   3.189   1.470 -1.0827 -0.3328  0.4669
  943SOL    HW3 3771   2.688   3.220   1.355  0.2969  0.4790 -0.4546
  943SOL    MW4 3772   2.706   3.220   1.441 -0.5491  0.2894 -0.2736
  944SOL     OW 3773   2.675   3.487   1.548 -0.3562  0.2652  0.4315
  944SOL    HW2 3774   2.670   3.475   1.643 -0.4213  1.8297  0.6297
  944SOL    HW3 3775   2.686   3.398   1.514 -0.5283 -0.3334  1.8843
  944SOL    MW4 3776   2.676   3.473   1.556 -0.3875  0.3926  0.6493
  945SOL     OW 3777   2.906   3.617   1.487  0.0752 -0.1537  0.1859
  945SOL    HW2 3778   2.821   3.578   1.502 -0.7265  1.4518 -0.0539
  945SOL    HW3 3779   2.916   3.617   1.392 -0.1375  0.6182  0.1569
  945SOL    MW4 3780   2.896   3.612   1.477 -0.0587  0.1600  0.1505
  946SOL     OW 3781   2.929   3.850   1.605  0.1659 -0.2193 -0.4055
  946SOL    HW2 3782   2.865   3.906   1.562  1.6388  1.0127 -1.0440
  946SOL    HW3 3783   2.917   3.764   1.566 -0.4775  0.2246 -1.1875
  946SOL    MW4 3784   2.919   3.846   1.594  0.2753  0.0018 -0.5929
  947SOL     OW 3785   2.736   3.989   1.466 -0.2302 -0.0780  0.1308
  947SOL    HW2 3786   2.735   4.064   1.525 -1.5644 -0.9110  1.1741
  947SOL    HW3 3787   2.724   4.027   1.379  2.9525  1.2774  0.2058
  947SOL    MW4 3788   2.735   4.004   1.462  0.0137 -0.0091  0.2783
  948SOL     OW 3789   2.710   4.230   1.603  0.2080  0.4285 -0.0762
  948SOL    HW2 3790   2.771   4.299   1.576  0.1154  0.1074 -1.1063
  948SOL    HW3 3791   2.623   4.268   1.590  0.1523  0.0472 -0.8503
  948SOL    MW4 3792   2.707   4.244   1.598  0.1884  0.3359 -0.3142
  949SOL     OW 3793   2.901   4.387   1.472 -0.0790  0.2577  0.0135
  949SOL    HW2 3794   2.910   4.482   1.485  2.6013  0.2735 -1.5952
  949SOL    HW3 3795   2.894   4.377   1.377 -3.0241 -1.0031  0.3171
  949SOL    MW4 3796   2.901   4.398   1.461 -0.1139  0.0934 -0.1587
  950SOL     OW 3797   3.342   0.004   1.618 -0.2329 -0.1638 -0.1805
  950SOL    HW2 3798   3.429   0.032   1.590 -0.6875  1.8149  0.3238
  950SOL    HW3 3799   3.324  -0.074   1.565  1.7197 -0.4561 -0.4734
  950SOL    MW4 3800   3.351  -0.003   1.607 -0.0353  0.0587 -0.1526
  951SOL     OW 3801   3.141   0.121   1.470 -0.2504  0.3289  0.2054
  951SOL    HW2 3802   3.210   0.070   1.512  0.8541  0.8150 -0.9542
  951SOL    HW3 3803   3.061   0.071   1.484  0.4909 -0.7099  0.7883
  951SOL    MW4 3804   3.140   0.108   1.477 -0.0069  0.2560  0.1293
  952SOL     OW 3805   3.132   0.361   1.618  0.0822 -0.1734  0.1760
  952SOL    HW2 3806   3.138   0.278   1.571  1.1550  0.3782 -0.6677
  952SOL    HW3 3807   3.071   0.414   1.566  1.4184  0.5068 -0.7122
  952SOL    MW4 3808   3.125   0.357   1.605  0.4001 -0.0109 -0.0525
  953SOL     OW 3809   3.359   0.491   1.523 -0.0914 -0.4055  0.3559
  953SOL    HW2 3810   3.269   0.470   1.549 -0.2851  0.0351  0.0531
  953SOL    HW3 3811   3.355   0.503   1.429  0.5093 -1.4797  0.1871
  953SOL    MW4 3812   3.347   0.490   1.514 -0.0377 -0.4891  0.2937
  954SOL     OW 3813   3.419   0.780   1.597 -0.1903  0.0710  0.3269
  954SOL    HW2 3814   3.406   0.783   1.692 -1.4631 -1.1967  0.2085
  954SOL    HW3 3815   3.408   0.687   1.575  0.4065  0.3185 -1.0157
  954SOL    MW4 3816   3.416   0.768   1.607 -0.2795 -0.0636  0.1341
  955SOL     OW 3817   3.189   0.891   1.497  0.0402  0.3319  0.2232
  955SOL    HW2 3818   3.259   0.840   1.539  0.5803  0.9694  0.0954
  955SOL    HW3 3819   3.108   0.845   1.521  0.3195  0.7646  2.0782
  955SOL    MW4 3820   3.187   0.878   1.505  0.1483  0.4731  0.4511
  956SOL     OW 3821   3.138   1.142   1.609 -0.5265 -0.6914  0.1396
  956SOL    HW2 3822   3.149   1.132   1.704  0.1895  0.2101  0.1644
  956SOL    HW3 3823   3.169   1.059   1.573  0.2651 -0.6191  0.6359
  956SOL    MW4 3824   3.144   1.129   1.617 -0.3276 -0.5629  0.2084
  957SOL     OW 3825   3.347   1.284   1.500 -0.2812  0.1004  0.1912
  957SOL    HW2 3826   3.419   1.234   1.537  0.6705  0.7638 -0.7395
  957SOL    HW3 3827   3.268   1.242   1.535  0.5679  0.0866  2.1427
  957SOL    MW4 3828   3.346   1.272   1.510 -0.0436  0.1861  0.3259
  958SOL     OW 3829   3.398   1.549   1.622  0.0315 -0.5246 -0.0978
  958SOL    HW2 3830   3.378   1.554   1.715  0.1965  0.0677 -0.0888
  958SOL    HW3 3831   3.387   1.457   1.599  0.5244 -0.7650  0.6258
  958SOL    MW4 3832   3.394   1.538   1.631  0.1183 -0.4782 -0.0011
  959SOL     OW 3833   3.183   1.648   1.484  0.2840  0.1702  0.1412
  959SOL    HW2 3834   3.265   1.615   1.523  0.9557  0.8340 -0.6786
  959SOL    HW3 3835   3.116   1.588   1.517  1.3063 -1.2957 -0.3529
  959SOL    MW4 3836   3.185   1.635   1.494  0.5075  0.0643 -0.0321
  960SOL     OW 3837   3.215   1.919   1.598 -0.1108 -0.0495  0.2038
  960SOL    HW2 3838   3.213   1.830   1.562 -0.8532  0.1509 -0.2565
  960SOL    HW3 3839   3.134   1.960   1.566 -0.1845  0.5235  1.1004
  960SOL    MW4 3840   3.204   1.913   1.589 -0.2185  0.0526  0.2614
  961SOL     OW 3841   3.386   2.089   1.480 -0.6078  0.0185  0.3541
  961SOL    HW2 3842   3.332   2.018   1.515 -0.0790 -0.8797 -0.6399
  961SOL    HW3 3843   3.383   2.077   1.385  0.9804  0.2308  0.2732
  961SOL    MW4 3844   3.378   2.078   1.472 -0.3285 -0.0720  0.2123
  962SOL     OW 3845   3.394   2.338   1.591  0.0126 -0.2754 -0.2002
  962SOL    HW2 3846   3.471   2.380   1.554 -0.7007  0.1105 -1.2473
  962SOL    HW3 3847   3.396   2.248   1.557  1.1851 -0.9418  1.5286
  962SOL    MW4 3848   3.404   2.331   1.582  0.0732 -0.3124 -0.1103
  963SOL     OW 3849   3.142   2.431   1.487  0.4153 -0.3925 -0.0593
  963SOL    HW2 3850   3.225   2.397   1.520  0.2332 -0.6445  0.1380
  963SOL    HW3 3851   3.075   2.375   1.527  0.1140  0.2001  0.2609
  963SOL    MW4 3852   3.144   2.419   1.496  0.3515 -0.3475  0.0089
  964SOL     OW 3853   3.114   2.719   1.593  0.0676 -0.0539 -0.4235
  964SOL    HW2 3854   3.189   2.761   1.551  0.5574 -0.1624  0.3294
  964SOL    HW3 3855   3.135   2.625   1.590 -0.0583 -0.0882 -0.2517
  964SOL    MW4 3856   3.127   2.712   1.587  0.1156 -0.0728 -0.3015
  965SOL     OW 3857   3.334   2.851   1.466  0.5414  0.0313 -0.1712
  965SOL    HW2 3858   3.359   2.942   1.479  1.2451 -0.2112  0.2155
  965SOL    HW3 3859   3.340   2.838   1.371  1.2100  0.1726 -0.1516
  965SOL    MW4 3860   3.339   2.861   1.455  0.7225  0.0180 -0.1176
  966SOL     OW 3861   3.365   3.114   1.565 -0.0541 -0.4774 -0.1741
  966SOL    HW2 3862   3.387   3.121   1.658 -1.9551  0.7586  0.2056
  966SOL    HW3 3863   3.438   3.158   1.520  0.8780 -1.0903  0.7137
  966SOL    MW4 3864   3.378   3.121   1.571 -0.1819 -0.3952 -0.0068
  967SOL     OW 3865   3.148   3.263   1.511 -0.2323  0.1601  0.4080
  967SOL    HW2 3866   3.223   3.207   1.530 -0.0608  0.7048  1.3739
  967SOL    HW3 3867   3.150   3.274   1.416  0.3360 -0.6249  0.3261
  967SOL    MW4 3868   3.158   3.257   1.501 -0.1347  0.1284  0.5246
  968SOL     OW 3869   3.139   3.515   1.641 -0.0992 -0.2262 -0.1130
  968SOL    HW2 3870   3.142   3.424   1.612 -1.3527  0.1862 -1.6081
  968SOL    HW3 3871   3.054   3.547   1.610 -0.1830  1.1042  1.4573
  968SOL    MW4 3872   3.128   3.507   1.633 -0.2756  0.0037 -0.1030
  969SOL     OW 3873   3.365   3.646   1.513 -0.0313 -0.1444 -0.1123
  969SOL    HW2 3874   3.433   3.592   1.553 -0.3450  1.4586  2.6936
  969SOL    HW3 3875   3.283   3.608   1.543 -0.3152  0.0601 -0.6125
  969SOL    MW4 3876   3.363   3.634   1.522 -0.1102  0.0941  0.1919
  970SOL     OW 3877   3.352   3.899   1.628  0.3454  0.4631 -0.0237
  970SOL    HW2 3878   3.273   3.934   1.586 -0.3405 -0.1504  0.7336
  970SOL    HW3 3879   3.357   3.808   1.598  0.2759  0.2469  0.6135
  970SOL    MW4 3880   3.342   3.892   1.618  0.2457  0.3536  0.1603
  971SOL     OW 3881   3.132   3.988   1.461 -0.0291 -0.0010 -0.0905
  971SOL    HW2 3882   3.125   4.078   1.492  0.1081  0.1807 -0.5918
  971SOL    HW3 3883   3.069   3.939   1.515 -0.7614  0.5465 -0.4413
  971SOL    MW4 3884   3.123   3.993   1.473 -0.1076  0.0952 -0.2029
  972SOL     OW 3885   3.136   4.244   1.571 -0.5923  0.4221 -0.6126
  972SOL    HW2 3886   3.127   4.250   1.666 -1.0418  0.7076 -0.6694
  972SOL    HW3 3887   3.050   4.271   1.537 -1.1545 -1.8141 -1.0395
  972SOL    MW4 3888   3.123   4.248   1.579 -0.7258  0.1647 -0.6764
  973SOL     OW 3889   3.328   4.449   1.453 -0.2043 -0.3391 -0.2643
  973SOL    HW2 3890   3.256   4.392   1.482 -0.3047 -1.2440 -2.1945
  973SOL    HW3 3891   3.323   4.447   1.357  2.1317 -0.0740 -0.4245
  973SOL    MW4 3892   3.318   4.441   1.444  0.0906 -0.4235 -0.5401
  974SOL     OW 3893   3.837   4.665   1.595  0.4625  0.2105 -0.4586
  974SOL    HW2 3894   3.851   4.666   1.689  0.9096 -0.3062 -0.5149
  974SOL    HW3 3895   3.906   4.721   1.559  0.2462  0.4683 -0.4749
  974SOL    MW4 3896   3.848   4.672   1.602  0.4929  0.1763 -0.4682
  975SOL     OW 3897   3.588   0.072   1.496 -0.0597  0.1288  0.3068
  975SOL    HW2 3898   3.670   0.042   1.534 -0.7194 -2.2219 -0.0215
  975SOL    HW3 3899   3.596   0.052   1.403 -0.7979  0.3516  0.1928
  975SOL    MW4 3900   3.600   0.065   1.489 -0.2442 -0.1519  0.2485
  976SOL     OW 3901   3.581   0.339   1.563  0.0299  0.0753 -0.0358
  976SOL    HW2 3902   3.575   0.253   1.522  0.5866  0.1345 -0.2400
  976SOL    HW3 3903   3.492   0.374   1.556 -0.0841 -0.2784 -0.3962
  976SOL    MW4 3904   3.568   0.332   1.557  0.0883  0.0365 -0.1103
  977SOL     OW 3905   3.797   0.493   1.521  0.0000  0.2801 -0.0275
  977SOL    HW2 3906   3.717   0.444   1.540  0.6984 -0.9859 -0.2557
  977SOL    HW3 3907   3.806   0.490   1.426  0.2617  0.5053 -0.0125
  977SOL    MW4 3908   3.788   0.486   1.511  0.1267  0.1428 -0.0557
  978SOL     OW 3909   3.829   0.756   1.604  0.1315 -0.4370  0.3820
  978SOL    HW2 3910   3.765   0.819   1.573  1.2226  0.2641 -0.4911
  978SOL    HW3 3911   3.795   0.671   1.576  0.3490  0.0606 -1.4473
  978SOL    MW4 3912   3.816   0.753   1.596  0.3042 -0.2788  0.0255
  979SOL     OW 3913   3.633   0.930   1.514 -0.0691  0.5577  0.1139
  979SOL    HW2 3914   3.563   0.870   1.542  0.9605 -0.4726  0.5537
  979SOL    HW3 3915   3.631   0.926   1.419  0.5046 -0.8231  0.1413
  979SOL    MW4 3916   3.623   0.921   1.505  0.1424  0.2396  0.1755
  980SOL     OW 3917   3.576   1.165   1.617 -0.0763  0.2672  0.3934
  980SOL    HW2 3918   3.646   1.221   1.583  0.7650 -0.9873  0.0470
  980SOL    HW3 3919   3.601   1.076   1.592 -0.7409 -0.4246  2.0876
  980SOL    MW4 3920   3.588   1.161   1.609 -0.0530  0.0104  0.5712
  981SOL     OW 3921   3.796   1.299   1.519 -0.0704 -0.1891  0.3622
  981SOL    HW2 3922   3.867   1.264   1.572  0.7787  0.4580 -0.3227
  981SOL    HW3 3923   3.779   1.386   1.556 -1.1141 -0.6841  1.0783
  981SOL    MW4 3924   3.803   1.306   1.531 -0.0961 -0.1690  0.3663
  982SOL     OW 3925   3.803   1.547   1.633  0.2761 -0.0677  0.3270
  982SOL    HW2 3926   3.789   1.559   1.727 -1.3052 -0.1956  0.1213
  982SOL    HW3 3927   3.740   1.606   1.592 -0.0093 -1.0592 -0.6651
  982SOL    MW4 3928   3.793   1.557   1.640  0.0298 -0.2154  0.1690
  983SOL     OW 3929   3.602   1.701   1.517 -0.0247 -0.2177 -0.0058
  983SOL    HW2 3930   3.528   1.647   1.545 -0.7528  0.4182 -0.6589
  983SOL    HW3 3931   3.587   1.715   1.424  0.8927 -0.0287 -0.1313
  983SOL    MW4 3932   3.590   1.696   1.508  0.0003 -0.1089 -0.1086
  984SOL     OW 3933   3.578   1.951   1.644 -0.2157 -0.1758 -0.2400
  984SOL    HW2 3934   3.571   1.869   1.595  2.0489  0.2186 -1.3148
  984SOL    HW3 3935   3.517   2.010   1.601 -1.5452 -1.1549  0.2669
  984SOL    MW4 3936   3.569   1.948   1.632 -0.0923 -0.2529 -0.3149
  985SOL     OW 3937   3.810   2.037   1.486  0.4070  0.1816  0.3921
  985SOL    HW2 3938   3.803   2.127   1.518 -1.4071  0.7116 -1.3740
  985SOL    HW3 3939   3.752   1.987   1.545  1.6061  0.1017  1.5277
  985SOL    MW4 3940   3.801   2.043   1.498  0.3259  0.2410  0.3089
  986SOL     OW 3941   3.774   2.308   1.615 -0.7554  0.1445 -0.3977
  986SOL    HW2 3942   3.783   2.319   1.709 -1.1610  0.7007 -0.4259
  986SOL    HW3 3943   3.851   2.351   1.578 -0.5722 -0.1137 -0.3187
  986SOL    MW4 3944   3.785   2.315   1.622 -0.7848  0.1838 -0.3910
  987SOL     OW 3945   3.606   2.450   1.467 -0.2713 -0.3706 -0.2952
  987SOL    HW2 3946   3.593   2.540   1.496 -2.3679 -0.4818 -0.8141
  987SOL    HW3 3947   3.676   2.416   1.522  1.0825  1.8167 -0.6301
  987SOL    MW4 3948   3.613   2.457   1.478 -0.3693 -0.0967 -0.4079
  988SOL     OW 3949   3.559   2.712   1.570  0.2067 -0.2786 -0.2901
  988SOL    HW2 3950   3.549   2.750   1.657 -0.3827 -1.0069 -0.0309
  988SOL    HW3 3951   3.497   2.760   1.515  1.4761  1.0427 -0.6045
  988SOL    MW4 3952   3.549   2.723   1.574  0.2964 -0.2004 -0.2974
  989SOL     OW 3953   3.814   2.820   1.500  0.2802 -0.1932  0.3167
  989SOL    HW2 3954   3.884   2.786   1.556 -0.4116  0.2987  1.5117
  989SOL    HW3 3955   3.734   2.780   1.533 -0.4691  2.0649  1.3656
  989SOL    MW4 3956   3.813   2.811   1.512  0.0901  0.1696  0.6128
  990SOL     OW 3957   3.812   3.069   1.622  0.0651 -0.1092 -0.3264
  990SOL    HW2 3958   3.887   3.119   1.590  0.5223  1.4383  2.9136
  990SOL    HW3 3959   3.822   2.982   1.583  2.4405  0.6434 -1.4922
  990SOL    MW4 3960   3.823   3.064   1.613  0.4388  0.1943 -0.0527
  991SOL     OW 3961   3.605   3.236   1.509 -0.1205  0.1775 -0.2741
  991SOL    HW2 3962   3.681   3.191   1.546 -0.1634  1.9184  2.0606
  991SOL    HW3 3963   3.616   3.227   1.414  1.3412 -2.2444  0.0567
  991SOL    MW4 3964   3.616   3.229   1.501  0.0667  0.0877  0.0775
  992SOL     OW 3965   3.595   3.503   1.600 -0.1639  0.0031 -0.3296
  992SOL    HW2 3966   3.665   3.556   1.563 -0.4559  0.2163 -0.5839
  992SOL    HW3 3967   3.611   3.415   1.567 -0.2482  0.1331 -0.7206
  992SOL    MW4 3968   3.606   3.498   1.590 -0.2136  0.0484 -0.4147
  993SOL     OW 3969   3.816   3.628   1.448  0.5429  0.5943  0.2555
  993SOL    HW2 3970   3.877   3.562   1.483  1.6965  1.6666  0.2779
  993SOL    HW3 3971   3.836   3.707   1.498 -0.5153  1.0996 -0.1185
  993SOL    MW4 3972   3.826   3.630   1.459  0.5555  0.8024  0.2091
  994SOL     OW 3973   3.779   3.855   1.628  0.1372 -0.5819 -0.2843
  994SOL    HW2 3974   3.856   3.896   1.589 -0.9493  0.7141 -1.1242
  994SOL    HW3 3975   3.705   3.895   1.582 -1.0491 -1.5242  0.7677
  994SOL    MW4 3976   3.779   3.866   1.617 -0.1627 -0.5352 -0.2564
  995SOL     OW 3977   3.589   4.008   1.508  0.3798  0.3472  0.1040
  995SOL    HW2 3978   3.591   4.104   1.506 -0.5187  0.3523 -0.7486
  995SOL    HW3 3979   3.504   3.987   1.547  0.2376 -0.1128 -0.4554
  995SOL    MW4 3980   3.578   4.018   1.513  0.2425  0.2871 -0.0823
  996SOL     OW 3981   3.558   4.297   1.539  0.0410 -0.0804  0.3967
  996SOL    HW2 3982   3.547   4.287   1.633 -0.3256  0.6075  0.4287
  996SOL    HW3 3983   3.480   4.344   1.510 -0.1964 -0.9230 -0.3595
  996SOL    MW4 3984   3.546   4.302   1.547 -0.0387 -0.1008  0.3011
  997SOL     OW 3985   3.826   4.404   1.502  0.2814  0.0806 -0.0948
  997SOL    HW2 3986   3.739   4.365   1.512  0.6147 -0.5716  0.2828
  997SOL    HW3 3987   3.817   4.492   1.539 -0.0675 -0.1913  0.4769
  997SOL    MW4 3988   3.813   4.411   1.509  0.2793 -0.0413  0.0304
  998SOL     OW 3989   4.289   4.655   1.555  0.0513  0.2300 -0.2890
  998SOL    HW2 3990   4.313   4.668   1.647 -0.2022  1.4789 -0.3854
  998SOL    HW3 3991   4.278   4.561   1.545  1.8007 -0.0688  0.5405
  998SOL    MW4 3992   4.291   4.644   1.566  0.2487  0.3554 -0.1923
  999SOL     OW 3993   4.064   0.131   1.507 -0.1498  0.3923 -0.2359
  999SOL    HW2 3994   4.066   0.225   1.527 -0.4134  0.3803 -0.1517
  999SOL    HW3 3995   4.152   0.100   1.529 -0.1420  0.5686 -0.0192
  999SOL    MW4 3996   4.076   0.140   1.512 -0.1835  0.4140 -0.1962
 1000SOL     OW 3997   4.053   0.396   1.596  0.4943  0.1539  0.5385
 1000SOL    HW2 3998   4.066   0.415   1.688  0.2663  0.8912  0.4208
 1000SOL    HW3 3999   3.964   0.427   1.577  0.5122 -0.0577  0.0948
 1000SOL    MW4 4000   4.043   0.403   1.605  0.4665  0.2233  0.4644
 1001SOL     OW 4001   4.290   0.489   1.498  0.2612 -0.0950  0.7532
 1001SOL    HW2 4002   4.210   0.451   1.535  0.4780 -1.5714 -0.2663
 1001SOL    HW3 4003   4.361   0.449   1.548  0.4737 -0.7485 -0.0595
 1001SOL    MW4 4004   4.289   0.479   1.509  0.3178 -0.3760  0.5114
 1002SOL     OW 4005   4.239   0.735   1.648 -0.0234  0.3040 -0.5093
 1002SOL    HW2 4006   4.255   0.662   1.588 -2.1525  0.7588 -1.7074
 1002SOL    HW3 4007   4.299   0.803   1.618  0.9153 -0.4384 -0.3333
 1002SOL    MW4 4008   4.249   0.735   1.636 -0.1805  0.2661 -0.6441
 1003SOL     OW 4009   4.046   0.907   1.513 -0.0176  0.5491 -0.4765
 1003SOL    HW2 4010   4.123   0.860   1.545 -0.7363 -0.0974  0.3178
 1003SOL    HW3 4011   3.972   0.857   1.545 -0.8088  2.2122  0.3727
 1003SOL    MW4 4012   4.047   0.894   1.521 -0.2168  0.6832 -0.2597
 1004SOL     OW 4013   4.031   1.165   1.619 -0.0427  0.3655  0.0059
 1004SOL    HW2 4014   4.031   1.151   1.714 -0.0984 -0.0819 -0.0598
 1004SOL    HW3 4015   4.038   1.077   1.582 -1.8813  0.3777 -0.4304
 1004SOL    MW4 4016   4.032   1.152   1.627 -0.2926  0.3081 -0.0603
 1005SOL     OW 4017   4.244   1.317   1.475 -0.2489  0.1966  0.2942
 1005SOL    HW2 4018   4.181   1.265   1.524  0.1507 -0.3985  0.1772
 1005SOL    HW3 4019   4.330   1.288   1.507  0.0597 -1.1543 -1.7026
 1005SOL    MW4 4020   4.247   1.307   1.486 -0.1555 -0.0602  0.0154
 1006SOL     OW 4021   4.268   1.558   1.609  0.0410  0.2929  0.0501
 1006SOL    HW2 4022   4.270   1.476   1.560 -1.1872  0.4235 -0.2354
 1006SOL    HW3 4023   4.321   1.618   1.557 -1.0415  0.3600 -0.9850
 1006SOL    MW4 4024   4.276   1.555   1.596 -0.2639  0.3190 -0.1241
 1007SOL     OW 4025   4.031   1.627   1.498  0.0016 -0.2376  0.1654
 1007SOL    HW2 4026   4.107   1.608   1.553 -0.4747 -0.7494  0.6581
 1007SOL    HW3 4027   3.957   1.594   1.549 -0.6730  1.3599  0.2416
 1007SOL    MW4 4028   4.031   1.621   1.512 -0.1502 -0.0943  0.2404
 1008SOL     OW 4029   4.035   1.890   1.560  0.0902 -0.1415 -0.2384
 1008SOL    HW2 4030   4.040   1.803   1.521 -1.5472 -0.1467 -0.4891
 1008SOL    HW3 4031   3.958   1.930   1.519  0.0072  0.9013  0.9039
 1008SOL    MW4 4032   4.025   1.884   1.549 -0.1368 -0.0046 -0.1208
 1009SOL     OW 4033   4.255   2.071   1.472 -0.5866 -0.0775 -0.1426
 1009SOL    HW2 4034   4.190   2.001   1.477 -1.0595  0.2594 -1.4304
 1009SOL    HW3 4035   4.267   2.085   1.378  0.5624  0.5914  0.0991
 1009SOL    MW4 4036   4.248   2.064   1.460 -0.4974  0.0552 -0.2806
 1010SOL     OW 4037   4.217   2.370   1.584 -0.4025 -0.2709 -0.0009
 1010SOL    HW2 4038   4.216   2.356   1.678  2.6334  0.0450  0.1228
 1010SOL    HW3 4039   4.219   2.282   1.547 -0.5936 -0.3806  0.2472
 1010SOL    MW4 4040   4.217   2.357   1.591 -0.0272 -0.2437  0.0482
 1011SOL     OW 4041   3.980   2.466   1.507  0.2153 -0.3441 -0.1545
 1011SOL    HW2 4042   3.983   2.547   1.559  0.2692 -0.0387 -0.6288
 1011SOL    HW3 4043   4.053   2.414   1.539 -0.3183 -0.5605  0.7329
 1011SOL    MW4 4044   3.990   2.470   1.519  0.1520 -0.3324 -0.1000
 1012SOL     OW 4045   4.031   2.721   1.627  0.4705 -0.1583 -0.4242
 1012SOL    HW2 4046   4.020   2.733   1.721 -0.5496 -1.2644 -0.4011
 1012SOL    HW3 4047   4.122   2.748   1.610  0.9260 -0.7511  1.0036
 1012SOL    MW4 4048   4.042   2.727   1.637  0.3960 -0.3825 -0.2328
 1013SOL     OW 4049   4.263   2.852   1.559  0.2523 -0.0543 -0.2794
 1013SOL    HW2 4050   4.263   2.940   1.597  1.4524  0.0497 -0.5005
 1013SOL    HW3 4051   4.270   2.866   1.465  1.9937 -0.4038 -0.2227
 1013SOL    MW4 4052   4.264   2.865   1.552  0.6404 -0.0867 -0.3011
 1014SOL     OW 4053   4.277   3.110   1.636  0.3707  0.2666 -0.0033
 1014SOL    HW2 4054   4.278   3.126   1.731 -0.1987  0.9101 -0.1085
 1014SOL    HW3 4055   4.353   3.158   1.603 -0.2941  1.2769 -0.0744
 1014SOL    MW4 4056   4.287   3.118   1.644  0.2079  0.4848 -0.0266
 1015SOL     OW 4057   4.035   3.200   1.513  0.1523 -0.8597 -0.2773
 1015SOL    HW2 4058   4.019   3.290   1.542 -2.0587 -1.4862  0.5673
 1015SOL    HW3 4059   4.111   3.171   1.563  0.7052  0.4250 -0.3545
 1015SOL    MW4 4060   4.043   3.208   1.523 -0.0665 -0.7729 -0.1760
 1016SOL     OW 4061   4.008   3.469   1.573  0.4711  0.2645 -0.3161
 1016SOL    HW2 4062   4.001   3.490   1.666  0.9049  0.3633 -0.3030
 1016SOL    HW3 4063   4.094   3.504   1.547 -0.0047  0.9629 -0.9461
 1016SOL    MW4 4064   4.019   3.476   1.582  0.4656  0.3697 -0.3975
 1017SOL     OW 4065   4.269   3.573   1.495 -0.1363  0.2393 -0.0854
 1017SOL    HW2 4066   4.254   3.666   1.512 -0.9454  0.1145 -0.0818
 1017SOL    HW3 4067   4.289   3.568   1.401 -0.4193  0.3777 -0.1522
 1017SOL    MW4 4068   4.270   3.585   1.485 -0.2804  0.2411 -0.0937
 1018SOL     OW 4069   4.270   3.840   1.555  0.3782  0.2161 -0.2773
 1018SOL    HW2 4070   4.192   3.894   1.551  0.2508  0.0446 -0.1262
 1018SOL    HW3 4071   4.343   3.900   1.538  0.4695  0.9985  2.6842
 1018SOL    MW4 4072   4.270   3.855   1.552  0.3734  0.2967  0.1334
 1019SOL     OW 4073   4.019   3.963   1.538 -0.3574  0.0592  0.0844
 1019SOL    HW2 4074   4.021   4.057   1.555  0.7339  0.0608  0.0185
 1019SOL    HW3 4075   4.050   3.955   1.447  3.0927 -0.5910  1.2291
 1019SOL    MW4 4076   4.023   3.974   1.528  0.2417 -0.0264  0.2268
 1020SOL     OW 4077   4.025   4.228   1.593 -0.0450 -0.0397  0.0227
 1020SOL    HW2 4078   4.056   4.247   1.682 -0.2878 -0.7506  0.2584
 1020SOL    HW3 4079   3.957   4.294   1.576  0.3538  0.4144  0.1680
 1020SOL    MW4 4080   4.020   4.240   1.602 -0.0244 -0.0736  0.0729
 1021SOL     OW 4081   4.238   4.374   1.501 -0.4874 -0.2010  0.3386
 1021SOL    HW2 4082   4.161   4.320   1.518  0.7148 -1.7796  0.8651
 1021SOL    HW3 4083   4.247   4.372   1.405  0.0559 -1.6543  0.4161
 1021SOL    MW4 4084   4.229   4.367   1.490 -0.2571 -0.6011  0.4183
 1022SOL     OW 4085   0.214   4.636   1.869 -0.0157 -0.3377  0.1725
 1022SOL    HW2 4086   0.285   4.694   1.896 -0.2822  0.4457 -0.7659
 1022SOL    HW3 4087   0.215   4.640   1.774 -1.4077 -0.1889  0.1480
 1022SOL    MW4 4088   0.223   4.644   1.860 -0.2345 -0.2147  0.0455
 1023SOL     OW 4089   4.488   0.124   1.969 -0.4348  0.0921 -0.0303
 1023SOL    HW2 4090   4.508   0.210   1.930  0.8533  0.1920  0.8325
 1023SOL    HW3 4091   4.558   0.067   1.937 -2.1624 -1.0653 -1.9013
 1023SOL    MW4 4092   4.499   0.128   1.959 -0.4928 -0.0474 -0.1633
 1024SOL     OW 4093   0.007   0.380   1.862  0.3994  0.7068 -0.5080
 1024SOL    HW2 4094  -0.057   0.443   1.895  0.6162  0.9627 -0.5727
 1024SOL    HW3 4095   0.092   0.416   1.887  0.5320  0.5147 -0.6746
 1024SOL    MW4 4096   0.010   0.393   1.869  0.4455  0.7153 -0.5385
 1025SOL     OW 4097   0.219   0.487   1.983 -0.1716  0.1659 -0.1453
 1025SOL    HW2 4098   0.298   0.448   1.946 -0.1006  0.5213 -0.3706
 1025SOL    HW3 4099   0.223   0.579   1.956 -0.3890  0.3030  0.2958
 1025SOL    MW4 4100   0.230   0.494   1.974 -0.1909  0.2309 -0.1168
 1026SOL     OW 4101   0.237   0.746   1.891 -0.4573  0.1669  0.2905
 1026SOL    HW2 4102   0.310   0.800   1.922 -0.0502  0.3274 -0.9190
 1026SOL    HW3 4103   0.234   0.761   1.797 -2.2925  0.4346  0.3686
 1026SOL    MW4 4104   0.246   0.755   1.883 -0.6457  0.2234  0.1413
 1027SOL     OW 4105   0.032   0.908   1.969  0.5555 -0.2888  0.0115
 1027SOL    HW2 4106  -0.044   0.854   1.947 -0.1475 -0.4666  2.6412
 1027SOL    HW3 4107   0.107   0.858   1.938 -0.2460 -1.5029  0.0102
 1027SOL    MW4 4108   0.032   0.894   1.962  0.3570 -0.4724  0.3583
 1028SOL     OW 4109   0.023   1.138   1.795 -0.3910 -0.4716 -0.1570
 1028SOL    HW2 4110  -0.043   1.194   1.836 -0.9133 -0.3264 -1.1934
 1028SOL    HW3 4111   0.019   1.056   1.845 -0.2783  0.0733  0.7576
 1028SOL    MW4 4112   0.014   1.134   1.807 -0.4451 -0.3806 -0.1731
 1029SOL     OW 4113   0.217   1.295   1.945 -0.6132 -0.0433  0.2295
 1029SOL    HW2 4114   0.192   1.375   1.899 -0.4290 -1.1168 -1.7861
 1029SOL    HW3 4115   0.160   1.228   1.909  0.8966 -1.2973  0.1359
 1029SOL    MW4 4116   0.206   1.297   1.934 -0.3897 -0.3504 -0.0488
 1030SOL     OW 4117   0.158   1.554   1.840 -0.2663  0.3520  0.8355
 1030SOL    HW2 4118   0.246   1.569   1.874 -0.3930  1.8348  0.5516
 1030SOL    HW3 4119   0.106   1.625   1.877 -0.8104  0.8757 -0.9096
 1030SOL    MW4 4120   0.163   1.565   1.849 -0.3548  0.6167  0.5678
 1031SOL     OW 4121   4.446   1.699   1.971 -0.5736 -0.1749  0.5026
 1031SOL    HW2 4122   4.461   1.683   2.064 -1.7320 -1.8433  0.4359
 1031SOL    HW3 4123   4.364   1.653   1.952 -0.5693  0.4961 -1.2471
 1031SOL    MW4 4124   4.437   1.691   1.980 -0.7259 -0.3065  0.2629
 1032SOL     OW 4125   4.464   1.980   1.873 -0.0336  0.4289 -0.3521
 1032SOL    HW2 4126   4.382   2.023   1.898 -0.4341 -0.0919 -0.7541
 1032SOL    HW3 4127   4.456   1.891   1.909  0.6034  0.5464  0.1036
 1032SOL    MW4 4128   4.452   1.974   1.881 -0.0024  0.3757 -0.3450
 1033SOL     OW 4129   0.229   2.039   1.955  0.0506  0.1049  0.1414
 1033SOL    HW2 4130   0.243   2.131   1.932 -0.8102  0.5187  1.2214
 1033SOL    HW3 4131   0.137   2.023   1.934  0.1079 -0.4174  0.2736
 1033SOL    MW4 4132   0.219   2.049   1.949 -0.0555  0.0906  0.3014
 1034SOL     OW 4133   0.250   2.303   1.856  0.3447 -0.5955  0.1977
 1034SOL    HW2 4134   0.326   2.356   1.882  0.6975 -1.0378  0.0724
 1034SOL    HW3 4135   0.174   2.357   1.881  0.6695 -0.8485  1.8356
 1034SOL    MW4 4136   0.250   2.317   1.863  0.4341 -0.6872  0.3973
 1035SOL     OW 4137   0.049   2.474   1.947 -0.2679  0.3986 -0.1691
 1035SOL    HW2 4138   0.029   2.481   2.040  0.3241 -1.3582  0.1186
 1035SOL    HW3 4139   0.036   2.562   1.913 -0.3426  1.0997  1.6012
 1035SOL    MW4 4140   0.045   2.486   1.955 -0.1997  0.2593  0.1025
 1036SOL     OW 4141   4.487   2.748   1.895  0.2404  0.4712  0.0581
 1036SOL    HW2 4142   4.401   2.784   1.918  0.8435  1.4026  0.8761
 1036SOL    HW3 4143   4.482   2.735   1.800 -0.8738  0.3090  0.1240
 1036SOL    MW4 4144   4.475   2.751   1.885  0.1730  0.5726  0.1747
 1037SOL     OW 4145   0.219   2.886   2.019  0.0429 -0.1465 -0.5678
 1037SOL    HW2 4146   0.235   2.966   1.969  2.4750 -0.1942  0.1014
 1037SOL    HW3 4147   0.157   2.837   1.965 -0.1902  1.4136 -1.7836
 1037SOL    MW4 4148   0.213   2.890   2.006  0.3330  0.0531 -0.6399
 1038SOL     OW 4149   0.265   3.137   1.883 -0.3298  0.0365 -0.4582
 1038SOL    HW2 4150   0.353   3.163   1.913  0.3027 -1.7865 -0.6676
 1038SOL    HW3 4151   0.273   3.131   1.788 -0.4648 -0.9469 -0.4038
 1038SOL    MW4 4152   0.278   3.140   1.875 -0.2642 -0.3337 -0.4786
 1039SOL     OW 4153   0.005   3.249   1.984  0.2947 -0.1684  0.4076
 1039SOL    HW2 4154  -0.062   3.191   1.947 -0.1771  0.2136  0.6561
 1039SOL    HW3 4155   0.088   3.210   1.957 -0.0322 -0.4631 -0.1821
 1039SOL    MW4 4156   0.007   3.236   1.975  0.1893 -0.1569  0.3626
 1040SOL     OW 4157   0.001   3.498   1.880 -0.3055 -0.0512 -0.3371
 1040SOL    HW2 4158   0.071   3.536   1.932 -0.2507 -0.0763 -0.3921
 1040SOL    HW3 4159  -0.002   3.406   1.907 -0.7955  0.1178  0.1818
 1040SOL    MW4 4160   0.010   3.491   1.890 -0.3629 -0.0322 -0.2759
 1041SOL     OW 4161   0.228   3.636   1.976  0.1576 -0.1082 -0.0465
 1041SOL    HW2 4162   0.231   3.643   2.071 -1.3401  0.3902 -0.0188
 1041SOL    HW3 4163   0.308   3.590   1.953  0.4648 -0.3658  1.4691
 1041SOL    MW4 4164   0.239   3.631   1.985  0.0005 -0.0764  0.1571
 1042SOL     OW 4165   0.285   3.883   1.862  0.2827 -0.5292  0.6977
 1042SOL    HW2 4166   0.356   3.916   1.917 -0.8641  0.4400  1.6130
 1042SOL    HW3 4167   0.275   3.792   1.889  0.9220 -0.5709  0.8192
 1042SOL    MW4 4168   0.293   3.875   1.873  0.2158 -0.4069  0.8345
 1043SOL     OW 4169   0.041   3.963   1.947 -0.0377  0.0743  0.4555
 1043SOL    HW2 4170   0.028   4.045   1.898 -0.8482 -1.2035 -1.5061
 1043SOL    HW3 4171   0.123   3.928   1.913  0.9047  0.6240  2.1212
 1043SOL    MW4 4172   0.050   3.969   1.936 -0.0203 -0.0218  0.4165
 1044SOL     OW 4173   0.029   4.259   1.843 -0.4308 -0.6432 -0.1954
 1044SOL    HW2 4174  -0.050   4.301   1.878 -0.0839 -0.8879  0.9192
 1044SOL    HW3 4175   0.099   4.292   1.898  0.3080 -0.1226 -1.4384
 1044SOL    MW4 4176   0.028   4.269   1.855 -0.2875 -0.6068 -0.2123
 1045SOL     OW 4177   0.250   4.378   1.981 -0.0662  0.4443 -0.3070
 1045SOL    HW2 4178   0.234   4.395   2.074  2.0893 -0.0830  0.1988
 1045SOL    HW3 4179   0.249   4.465   1.941 -0.0429  0.7756  0.3878
 1045SOL    MW4 4180   0.248   4.392   1.988  0.2213  0.4185 -0.1486
 1046SOL     OW 4181   0.623   4.658   1.891  0.0918 -0.2038  0.5153
 1046SOL    HW2 4182   0.621   4.568   1.923 -1.2099 -0.0019  1.0249
 1046SOL    HW3 4183   0.627   4.650   1.796  3.4053 -0.8098  0.6342
 1046SOL    MW4 4184   0.624   4.645   1.883  0.3572 -0.2572  0.5982
 1047SOL     OW 4185   0.407   0.140   1.966  0.8447  0.1788 -0.4127
 1047SOL    HW2 4186   0.425   0.220   1.918  0.1381  0.2572 -0.5531
 1047SOL    HW3 4187   0.483   0.084   1.950  0.3513 -0.0210 -2.1032
 1047SOL    MW4 4188   0.419   0.143   1.958  0.6863  0.1628 -0.6543
 1048SOL     OW 4189   0.466   0.390   1.880 -0.2116 -0.0362 -0.2719
 1048SOL    HW2 4190   0.530   0.455   1.906  1.2377 -1.1494 -1.0045
 1048SOL    HW3 4191   0.463   0.395   1.785 -1.6114  0.3637 -0.2263
 1048SOL    MW4 4192   0.474   0.399   1.871 -0.2051 -0.1303 -0.3625
 1049SOL     OW 4193   0.672   0.567   1.988  0.2776 -0.2501  0.4937
 1049SOL    HW2 4194   0.684   0.565   2.083 -0.0452 -3.0421  0.4976
 1049SOL    HW3 4195   0.734   0.502   1.954  0.4653  0.7935 -1.2363
 1049SOL    MW4 4196   0.682   0.558   1.996  0.2598 -0.4808  0.2659
 1050SOL     OW 4197   0.654   0.805   1.874 -0.0976  0.0987 -0.1614
 1050SOL    HW2 4198   0.742   0.842   1.870  0.1246 -0.4649 -0.4466
 1050SOL    HW3 4199   0.662   0.730   1.934 -0.1019 -0.7313 -1.1846
 1050SOL    MW4 4200   0.666   0.800   1.882 -0.0688 -0.0852 -0.3341
 1051SOL     OW 4201   0.427   0.930   1.980 -0.0769  0.1617 -0.2111
 1051SOL    HW2 4202   0.435   1.019   1.945 -0.0529  0.3928  0.3751
 1051SOL    HW3 4203   0.507   0.886   1.952  0.7262  0.8448  0.9963
 1051SOL    MW4 4204   0.438   0.936   1.971  0.0322  0.2823  0.0256
 1052SOL     OW 4205   0.465   1.190   1.848  0.1397 -0.7728  0.5583
 1052SOL    HW2 4206   0.385   1.230   1.882 -0.2917 -0.8270 -0.3723
 1052SOL    HW3 4207   0.451   1.185   1.754  1.7668  0.3911  0.2269
 1052SOL    MW4 4208   0.453   1.195   1.840  0.2975 -0.6264  0.3918
 1053SOL     OW 4209   0.699   1.276   1.972  0.2251 -0.1196  0.5071
 1053SOL    HW2 4210   0.678   1.277   2.066  0.0204 -1.8253  0.4953
 1053SOL    HW3 4211   0.617   1.253   1.929  0.9333 -1.9229  0.0990
 1053SOL    MW4 4212   0.685   1.273   1.979  0.2915 -0.5826  0.4517
 1054SOL     OW 4213   0.683   1.557   1.847  0.2187 -0.0033  0.1024
 1054SOL    HW2 4214   0.697   1.470   1.885  0.4339  0.3135  0.7668
 1054SOL    HW3 4215   0.675   1.541   1.753  1.1172 -0.6476  0.1225
 1054SOL    MW4 4216   0.684   1.543   1.840  0.3657 -0.0465  0.1927
 1055SOL     OW 4217   0.430   1.621   1.921 -0.2977  0.0432  0.4704
 1055SOL    HW2 4218   0.442   1.626   2.016  0.4441 -0.5831  0.4214
 1055SOL    HW3 4219   0.516   1.594   1.888 -1.2253 -2.2565 -0.1443
 1055SOL    MW4 4220   0.443   1.618   1.929 -0.3222 -0.3429  0.3828
 1056SOL     OW 4221   0.481   1.917   1.876  0.2766 -0.2878 -0.0484
 1056SOL    HW2 4222   0.473   1.825   1.902  0.4681  0.3911  2.6104
 1056SOL    HW3 4223   0.399   1.958   1.906  1.2787  0.9024  1.1498
 1056SOL    MW4 4224   0.469   1.910   1.883  0.4341 -0.0412  0.4605
 1057SOL     OW 4225   0.689   2.072   1.974  0.0725  0.0803 -0.3761
 1057SOL    HW2 4226   0.686   2.049   2.066 -0.6830 -0.8356 -0.6214
 1057SOL    HW3 4227   0.629   2.010   1.931  0.7545  0.1975 -1.5375
 1057SOL    MW4 4228   0.681   2.061   1.980  0.0628 -0.0251 -0.5617
 1058SOL     OW 4229   0.677   2.352   1.922  0.1936  0.7994  0.3467
 1058SOL    HW2 4230   0.669   2.259   1.943  1.1206  0.5643 -0.3527
 1058SOL    HW3 4231   0.669   2.356   1.827 -3.3869  1.8092  0.6339
 1058SOL    MW4 4232   0.675   2.340   1.912 -0.1565  0.9016  0.2923
 1059SOL     OW 4233   0.439   2.463   1.961  0.1510  0.2174  0.0545
 1059SOL    HW2 4234   0.409   2.463   2.052  0.6799 -0.8797  0.2289
 1059SOL    HW3 4235   0.527   2.424   1.964  0.6240  1.1796 -0.7763
 1059SOL    MW4 4236   0.447   2.458   1.973  0.2832  0.1996 -0.0321
 1060SOL     OW 4237   0.434   2.743   1.922  0.1329 -0.0178 -0.1819
 1060SOL    HW2 4238   0.427   2.648   1.934 -0.0253 -0.1349 -1.1175
 1060SOL    HW3 4239   0.347   2.776   1.944  0.6570  0.1122  1.7893
 1060SOL    MW4 4240   0.422   2.734   1.926  0.1812 -0.0161 -0.0452
 1061SOL     OW 4241   0.692   2.826   1.984 -0.0893  0.0447  0.4474
 1061SOL    HW2 4242   0.697   2.848   2.077  0.9769 -0.0494  0.4197
 1061SOL    HW3 4243   0.606   2.786   1.973  0.2104 -0.9570  1.6216
 1061SOL    MW4 4244   0.681   2.823   1.995  0.0909 -0.0999  0.5986
 1062SOL     OW 4245   0.695   3.094   1.878  0.0842  0.0953  0.0204
 1062SOL    HW2 4246   0.707   3.006   1.913 -1.2818  0.3491  1.1620
 1062SOL    HW3 4247   0.696   3.083   1.783 -0.5725 -1.2254  0.1600
 1062SOL    MW4 4248   0.697   3.081   1.870 -0.1827 -0.0454  0.1894
 1063SOL     OW 4249   0.501   3.246   1.990  0.1573  0.1507  0.1312
 1063SOL    HW2 4250   0.494   3.338   1.965 -1.5309 -0.1403 -0.5658
 1063SOL    HW3 4251   0.583   3.216   1.949 -0.1745  0.8963 -1.1256
 1063SOL    MW4 4252   0.511   3.254   1.981 -0.1092  0.2107 -0.1266
 1064SOL     OW 4253   0.465   3.501   1.881  0.0358 -0.0506 -0.0527
 1064SOL    HW2 4254   0.542   3.552   1.905  0.7209 -1.5720  1.0160
 1064SOL    HW3 4255   0.471   3.491   1.786  0.4963  0.8854 -0.1176
 1064SOL    MW4 4256   0.476   3.506   1.872  0.1869 -0.1278  0.0797
 1065SOL     OW 4257   0.709   3.631   1.960 -0.0032  0.4433  0.4589
 1065SOL    HW2 4258   0.781   3.583   1.919 -1.7372 -0.6967 -1.3600
 1065SOL    HW3 4259   0.720   3.721   1.929  1.2821  0.5453  1.1440
 1065SOL    MW4 4260   0.720   3.637   1.950 -0.0624  0.3064  0.3093
 1066SOL     OW 4261   0.713   3.888   1.856 -0.0400  0.3034  0.2432
 1066SOL    HW2 4262   0.790   3.942   1.874  0.9113 -1.0471  0.2858
 1066SOL    HW3 4263   0.712   3.879   1.761  1.2140 -1.5927  0.3762
 1066SOL    MW4 4264   0.723   3.894   1.846  0.2510 -0.1249  0.2663
 1067SOL     OW 4265   0.506   3.988   1.996 -0.0202  0.6575 -0.5489
 1067SOL    HW2 4266   0.482   4.076   1.966  0.7470  1.2344  0.4995
 1067SOL    HW3 4267   0.571   3.958   1.932 -2.0692 -0.1487 -2.3059
 1067SOL    MW4 4268   0.511   3.996   1.984 -0.1893  0.6272 -0.6424
 1068SOL     OW 4269   0.445   4.234   1.866 -0.2474 -0.3843 -0.3493
 1068SOL    HW2 4270   0.374   4.280   1.911 -1.2759 -3.1483  1.0113
 1068SOL    HW3 4271   0.412   4.221   1.777 -0.1699  1.0065 -0.5907
 1068SOL    MW4 4272   0.431   4.239   1.860 -0.3729 -0.5655 -0.2017
 1069SOL     OW 4273   0.641   4.398   1.938 -0.1979  0.2487  0.0646
 1069SOL    HW2 4274   0.718   4.357   1.897 -0.6343  0.1107 -0.6271
 1069SOL    HW3 4275   0.566   4.350   1.901 -0.6008  0.0728  1.0838
 1069SOL    MW4 4276   0.641   4.386   1.928 -0.3087  0.2073  0.1078
 1070SOL     OW 4277   1.111   4.650   1.871  0.0085 -0.1156 -0.0664
 1070SOL    HW2 4278   1.183   4.699   1.911 -0.0779 -0.0842  0.0528
 1070SOL    HW3 4279   1.110   4.567   1.919 -0.3539  0.0810  0.2739
 1070SOL    MW4 4280   1.121   4.646   1.883 -0.0507 -0.0855 -0.0058
 1071SOL     OW 4281   0.866   0.116   1.965 -0.0650  0.0486 -0.1690
 1071SOL    HW2 4282   0.936   0.077   1.912 -1.8739 -1.2360 -1.6662
 1071SOL    HW3 4283   0.788   0.066   1.943 -1.5804  1.7610  1.1288
 1071SOL    MW4 4284   0.865   0.104   1.955 -0.5036  0.1050 -0.1953
 1072SOL     OW 4285   0.834   0.380   1.884  0.1446 -0.0063  0.3111
 1072SOL    HW2 4286   0.922   0.407   1.910  1.0081 -0.9044 -1.5846
 1072SOL    HW3 4287   0.820   0.296   1.930 -0.1911  0.6797  1.4935
 1072SOL    MW4 4288   0.844   0.372   1.894  0.2143 -0.0343  0.2170
 1073SOL     OW 4289   1.096   0.487   1.980  0.0749 -0.0196 -0.1176
 1073SOL    HW2 4290   1.171   0.446   1.936  1.8311  0.9579  1.8639
 1073SOL    HW3 4291   1.102   0.579   1.955 -1.4824 -0.2087 -1.2832
 1073SOL    MW4 4292   1.107   0.494   1.971  0.1011  0.0844 -0.0099
 1074SOL     OW 4293   1.141   0.753   1.892  0.0204 -0.2030 -0.1958
 1074SOL    HW2 4294   1.219   0.794   1.928 -0.0104 -0.9281  0.7280
 1074SOL    HW3 4295   1.071   0.817   1.904  0.4183  0.3574 -0.8234
 1074SOL    MW4 4296   1.142   0.767   1.898  0.0688 -0.2247 -0.1567
 1075SOL     OW 4297   0.939   0.929   1.938  0.9191  0.4077 -1.1020
 1075SOL    HW2 4298   0.934   0.932   2.033 -0.8029  0.5353 -1.1857
 1075SOL    HW3 4299   0.937   1.021   1.911  0.3920  0.3432 -1.2961
 1075SOL    MW4 4300   0.938   0.941   1.947  0.6224  0.4161 -1.1387
 1076SOL     OW 4301   0.935   1.190   1.855 -0.5182 -0.2435 -0.0101
 1076SOL    HW2 4302   0.847   1.209   1.890 -0.3276 -0.6101  0.6821
 1076SOL    HW3 4303   0.921   1.175   1.762 -1.2823 -0.9029  0.2064
 1076SOL    MW4 4304   0.921   1.191   1.847 -0.5939 -0.3789  0.1098
 1077SOL     OW 4305   1.178   1.312   1.921 -0.3648 -0.3578 -0.4173
 1077SOL    HW2 4306   1.168   1.407   1.918 -1.5251 -0.4407  0.3602
 1077SOL    HW3 4307   1.094   1.278   1.890 -0.2058 -1.1208 -0.0245
 1077SOL    MW4 4308   1.166   1.320   1.917 -0.4969 -0.4694 -0.2629
 1078SOL     OW 4309   1.154   1.571   1.844 -0.0707 -0.1184  0.0418
 1078SOL    HW2 4310   1.075   1.610   1.880  0.4101  1.5999 -0.7177
 1078SOL    HW3 4311   1.132   1.549   1.753 -0.0686 -0.8100  0.2063
 1078SOL    MW4 4312   1.141   1.573   1.837 -0.0070  0.0170 -0.0367
 1079SOL     OW 4313   0.906   1.672   1.945 -0.4797 -0.3647 -0.3514
 1079SOL    HW2 4314   0.910   1.765   1.927 -0.4114 -0.1052  0.9186
 1079SOL    HW3 4315   0.818   1.646   1.918 -2.2116  1.0421  3.4617
 1079SOL    MW4 4316   0.895   1.681   1.939 -0.6992 -0.1449  0.3192
 1080SOL     OW 4317   0.911   1.935   1.867 -0.2326  0.0628  0.1431
 1080SOL    HW2 4318   0.834   1.989   1.878 -0.5264 -0.3464  0.1032
 1080SOL    HW3 4319   0.921   1.926   1.772  0.3668  0.8296  0.1254
 1080SOL    MW4 4320   0.902   1.941   1.856 -0.1923  0.1100  0.1355
 1081SOL     OW 4321   1.160   2.032   1.950 -0.0839  0.4373  0.4635
 1081SOL    HW2 4322   1.153   2.118   1.909 -0.7383 -0.1728 -0.7265
 1081SOL    HW3 4323   1.072   1.995   1.942  0.5677 -0.9564 -0.4070
 1081SOL    MW4 4324   1.147   2.039   1.944 -0.0843  0.1729  0.1916
 1082SOL     OW 4325   1.141   2.291   1.864 -0.1616  0.2501 -0.7024
 1082SOL    HW2 4326   1.210   2.353   1.889 -1.1122  0.9971  0.0946
 1082SOL    HW3 4327   1.156   2.275   1.771  0.3905  1.2970 -0.8004
 1082SOL    MW4 4328   1.152   2.297   1.855 -0.2142  0.4868 -0.6102
 1083SOL     OW 4329   0.916   2.439   2.006 -0.0595  0.1229 -0.7778
 1083SOL    HW2 4330   0.978   2.378   1.966 -1.3425 -0.9216 -1.1960
 1083SOL    HW3 4331   0.830   2.404   1.984 -0.8023  0.7572  0.9965
 1083SOL    MW4 4332   0.913   2.426   1.998 -0.3268  0.0688 -0.5989
 1084SOL     OW 4333   0.917   2.695   1.881  0.3876  0.0332  0.3533
 1084SOL    HW2 4334   0.919   2.612   1.929  0.7787  0.9651  2.0065
 1084SOL    HW3 4335   0.834   2.735   1.906  0.6736  0.6084  0.4029
 1084SOL    MW4 4336   0.907   2.690   1.891  0.4769  0.2320  0.5779
 1085SOL     OW 4337   1.126   2.859   1.951 -0.0137 -0.0779 -0.2752
 1085SOL    HW2 4338   1.140   2.840   2.044  0.0999  1.4250  0.0183
 1085SOL    HW3 4339   1.049   2.807   1.928 -0.7971  0.5117  0.9665
 1085SOL    MW4 4340   1.118   2.849   1.960 -0.1021  0.1982 -0.0727
 1086SOL     OW 4341   1.143   3.099   1.795 -0.3331  0.1413  0.0515
 1086SOL    HW2 4342   1.080   3.157   1.838 -0.7863 -0.0198 -0.4028
 1086SOL    HW3 4343   1.121   3.011   1.827 -0.6149  0.0319 -0.4544
 1086SOL    MW4 4344   1.132   3.095   1.805 -0.4301  0.1056 -0.0752
 1087SOL     OW 4345   0.946   3.235   1.919  0.2809  0.3411  0.0769
 1087SOL    HW2 4346   0.935   3.245   2.014 -0.5871  0.4834 -0.0377
 1087SOL    HW3 4347   0.867   3.190   1.890  0.5527  0.2877 -0.5826
 1087SOL    MW4 4348   0.935   3.230   1.928  0.2022  0.3528 -0.0253
 1088SOL     OW 4349   0.922   3.504   1.843  0.0049 -0.3227 -0.0960
 1088SOL    HW2 4350   0.933   3.411   1.861 -0.6929 -0.4615 -0.3619
 1088SOL    HW3 4351   0.930   3.512   1.747 -1.0728 -0.2887 -0.2007
 1088SOL    MW4 4352   0.924   3.493   1.832 -0.2293 -0.3365 -0.1449
 1089SOL     OW 4353   1.145   3.657   1.931 -0.3221 -0.0968  0.1747
 1089SOL    HW2 4354   1.155   3.645   2.026  1.3085 -1.0115 -0.0893
 1089SOL    HW3 4355   1.063   3.614   1.910  0.3029 -1.6803  0.8804
 1089SOL    MW4 4356   1.136   3.650   1.941 -0.0245 -0.4264  0.2330
 1090SOL     OW 4357   1.165   3.929   1.836  0.1391  0.0671 -0.1478
 1090SOL    HW2 4358   1.174   3.844   1.880  0.3921  0.1232 -0.0863
 1090SOL    HW3 4359   1.148   3.907   1.745  1.2009 -0.0607 -0.3297
 1090SOL    MW4 4360   1.164   3.915   1.830  0.3126  0.0576 -0.1637
 1091SOL     OW 4361   0.925   4.052   1.921  0.0717  0.4868 -0.4189
 1091SOL    HW2 4362   0.932   4.049   2.016  1.1897 -2.3947 -0.5343
 1091SOL    HW3 4363   1.008   4.018   1.890 -0.0007  2.0785 -2.4673
 1091SOL    MW4 4364   0.937   4.047   1.929  0.2097  0.3166 -0.7044
 1092SOL     OW 4365   0.879   4.299   1.846 -0.3318 -0.2570  0.4141
 1092SOL    HW2 4366   0.957   4.347   1.876 -0.9911  0.1296  1.5450
 1092SOL    HW3 4367   0.896   4.208   1.872  0.2522 -0.3840 -0.3865
 1092SOL    MW4 4368   0.892   4.293   1.853 -0.3418 -0.2227  0.4577
 1093SOL     OW 4369   1.092   4.402   1.970 -0.0126 -0.0182  0.0053
 1093SOL    HW2 4370   1.091   4.394   2.065 -2.0057  0.4110  0.0498
 1093SOL    HW3 4371   1.166   4.348   1.942  1.1667  0.6090  1.8396
 1093SOL    MW4 4372   1.101   4.394   1.979 -0.1200  0.1212  0.2532
 1094SOL     OW 4373   1.571   4.616   1.874 -0.0863  0.0303  0.0642
 1094SOL    HW2 4374   1.626   4.659   1.939  1.2357 -0.2905 -0.8414
 1094SOL    HW3 4375   1.576   4.523   1.895  0.2534 -0.0640 -0.4333
 1094SOL    MW4 4376   1.579   4.609   1.886  0.1329 -0.0245 -0.1209
 1095SOL     OW 4377   1.333   0.124   1.956 -0.4137  0.0804 -0.1907
 1095SOL    HW2 4378   1.338   0.112   2.051  1.7718  0.4739 -0.2200
 1095SOL    HW3 4379   1.405   0.072   1.921  0.2711  1.7929 -1.4314
 1095SOL    MW4 4380   1.343   0.116   1.964 -0.0350  0.3582 -0.3583
 1096SOL     OW 4381   1.318   0.386   1.870  0.0588  0.3430  0.0346
 1096SOL    HW2 4382   1.332   0.297   1.904  1.4953  0.9856  1.1638
 1096SOL    HW3 4383   1.330   0.378   1.775 -0.7112 -0.8300  0.0200
 1096SOL    MW4 4384   1.321   0.373   1.862  0.1468  0.2730  0.1817
 1097SOL     OW 4385   1.550   0.511   1.964 -0.3126  0.1123 -0.4992
 1097SOL    HW2 4386   1.625   0.460   1.933 -0.3283  0.5495 -1.2630
 1097SOL    HW3 4387   1.474   0.461   1.935 -0.3211  0.0327 -0.3394
 1097SOL    MW4 4388   1.550   0.498   1.956 -0.3157  0.1595 -0.5789
 1098SOL     OW 4389   1.577   0.751   1.850 -0.0672 -0.0736 -0.1561
 1098SOL    HW2 4390   1.657   0.788   1.888  0.3900 -0.0677 -1.1316
 1098SOL    HW3 4391   1.552   0.681   1.911  0.4736  0.1611  0.3419
 1098SOL    MW4 4392   1.584   0.747   1.863  0.0645 -0.0419 -0.2191
 1099SOL     OW 4393   1.373   0.901   1.967 -0.0975 -0.0599 -0.6808
 1099SOL    HW2 4394   1.392   0.910   2.060  1.4297  0.0881 -1.0020
 1099SOL    HW3 4395   1.449   0.856   1.930 -0.6059  0.0302 -1.8907
 1099SOL    MW4 4396   1.385   0.896   1.974  0.0369 -0.0285 -0.8828
 1100SOL     OW 4397   1.404   1.130   1.830 -0.2771 -0.4398  0.7515
 1100SOL    HW2 4398   1.392   1.044   1.871 -0.8291 -1.0065 -0.5491
 1100SOL    HW3 4399   1.324   1.179   1.852  0.0281 -0.2614  1.4755
 1100SOL    MW4 4400   1.392   1.125   1.838 -0.3096 -0.4910  0.6754
 1101SOL     OW 4401   1.602   1.264   1.972  0.1006  0.0392  0.0973
 1101SOL    HW2 4402   1.585   1.355   1.947  0.2207 -0.1798 -0.7851
 1101SOL    HW3 4403   1.526   1.215   1.938  0.2586 -0.2604  0.1718
 1101SOL    MW4 4404   1.589   1.269   1.964  0.1373 -0.0292 -0.0093
 1102SOL     OW 4405   1.599   1.518   1.870 -0.1629 -0.3369 -0.4345
 1102SOL    HW2 4406   1.682   1.562   1.885 -0.2718  0.1544 -1.2266
 1102SOL    HW3 4407   1.534   1.575   1.912 -0.1779 -0.3225 -0.4766
 1102SOL    MW4 4408   1.601   1.532   1.878 -0.1792 -0.2702 -0.5445
 1103SOL     OW 4409   1.371   1.681   1.968  0.2076 -0.2284  0.5310
 1103SOL    HW2 4410   1.346   1.686   2.060 -0.5889 -0.6634  0.3368
 1103SOL    HW3 4411   1.298   1.636   1.925  0.2172  0.6664 -0.4479
 1103SOL    MW4 4412   1.358   1.676   1.975  0.1038 -0.1677  0.3762
 1104SOL     OW 4413   1.402   1.920   1.829  0.1917 -0.0076 -0.5115
 1104SOL    HW2 4414   1.413   1.830   1.859 -0.0756 -0.2468 -1.1264
 1104SOL    HW3 4415   1.318   1.947   1.865 -0.7430 -0.7313 -2.1005
 1104SOL    MW4 4416   1.392   1.912   1.837  0.0331 -0.1347 -0.8023
 1105SOL     OW 4417   1.604   2.085   1.935 -0.0902 -0.4676  0.0235
 1105SOL    HW2 4418   1.588   2.175   1.908 -0.3671 -0.3003  0.7346
 1105SOL    HW3 4419   1.529   2.036   1.901 -0.7607 -0.1500  1.0200
 1105SOL    MW4 4420   1.592   2.091   1.927 -0.2152 -0.4036  0.2488
 1106SOL     OW 4421   1.591   2.357   1.865 -0.0495 -0.0716  0.2246
 1106SOL    HW2 4422   1.665   2.414   1.886  0.8797 -0.7271 -1.2166
 1106SOL    HW3 4423   1.591   2.352   1.770 -2.3825  0.4654  0.1746
 1106SOL    MW4 4424   1.601   2.364   1.856 -0.2347 -0.0872  0.0278
 1107SOL     OW 4425   1.351   2.489   1.938 -0.2567  0.5139 -0.2356
 1107SOL    HW2 4426   1.350   2.577   1.900 -0.6977  0.5363 -0.1712
 1107SOL    HW3 4427   1.426   2.446   1.896 -0.1273  0.8735 -0.3730
 1107SOL    MW4 4428   1.361   2.495   1.927 -0.2978  0.5643 -0.2452
 1108SOL     OW 4429   1.355   2.753   1.843  0.1219  0.0867 -0.2715
 1108SOL    HW2 4430   1.278   2.799   1.874 -0.3546 -2.2458  2.2531
 1108SOL    HW3 4431   1.344   2.748   1.749 -2.1549  0.9112 -0.0792
 1108SOL    MW4 4432   1.344   2.758   1.835 -0.2414 -0.1123  0.0870
 1109SOL     OW 4433   1.587   2.889   1.951 -0.3262  0.3820  0.2081
 1109SOL    HW2 4434   1.655   2.824   1.934  0.5741  1.0870  1.0752
 1109SOL    HW3 4435   1.507   2.849   1.918 -0.1316 -1.9863  2.4609
 1109SOL    MW4 4436   1.585   2.875   1.944 -0.1817  0.1625  0.6197
 1110SOL     OW 4437   1.576   3.143   1.851 -0.1987  0.3875  0.1440
 1110SOL    HW2 4438   1.582   3.052   1.880  0.2142  0.1464 -0.6724
 1110SOL    HW3 4439   1.578   3.138   1.756 -1.2041  1.1871  0.0696
 1110SOL    MW4 4440   1.577   3.130   1.842 -0.2769  0.4612  0.0265
 1111SOL     OW 4441   1.339   3.251   1.955 -0.4518 -0.1435  0.2490
 1111SOL    HW2 4442   1.428   3.231   1.926 -0.8779  1.2448 -2.1560
 1111SOL    HW3 4443   1.284   3.189   1.907 -0.8676 -0.4220  1.0741
 1111SOL    MW4 4444   1.344   3.240   1.945 -0.5629  0.0029  0.0405
 1112SOL     OW 4445   1.327   3.492   1.821 -0.4038 -0.2591 -0.2550
 1112SOL    HW2 4446   1.300   3.406   1.853 -1.1281  0.3911  0.9166
 1112SOL    HW3 4447   1.255   3.550   1.844  0.0388  0.6512 -1.1256
 1112SOL    MW4 4448   1.314   3.488   1.828 -0.4410 -0.0532 -0.2153
 1113SOL     OW 4449   1.588   3.569   1.948  0.5809 -0.3463  0.1502
 1113SOL    HW2 4450   1.585   3.577   2.043  1.2979 -0.2769  0.1746
 1113SOL    HW3 4451   1.497   3.560   1.921  0.2317  1.3020  0.7019
 1113SOL    MW4 4452   1.576   3.569   1.957  0.6294 -0.1196  0.2262
 1114SOL     OW 4453   1.622   3.827   1.852 -0.2465  0.3057 -0.0243
 1114SOL    HW2 4454   1.680   3.879   1.908 -1.1138  0.6474  0.5750
 1114SOL    HW3 4455   1.620   3.740   1.893  1.5780 -0.3651 -1.2924
 1114SOL    MW4 4456   1.629   3.822   1.865 -0.1202  0.2623 -0.1125
 1115SOL     OW 4457   1.416   4.005   1.947  0.1814 -0.1686  0.3714
 1115SOL    HW2 4458   1.478   3.951   1.899  0.5788  0.5628  0.0458
 1115SOL    HW3 4459   1.330   3.978   1.914  0.4052 -0.2738 -0.1266
 1115SOL    MW4 4460   1.413   3.995   1.936  0.2634 -0.0860  0.2627
 1116SOL     OW 4461   1.331   4.261   1.922 -0.4260 -0.0384  0.1971
 1116SOL    HW2 4462   1.348   4.173   1.955  2.1978  0.6477  0.7820
 1116SOL    HW3 4463   1.333   4.251   1.826 -3.9362 -1.2457  0.1375
 1116SOL    MW4 4464   1.333   4.248   1.913 -0.5430 -0.1072  0.2664
 1117SOL     OW 4465   1.584   4.360   1.949 -0.0681  0.1297 -0.3810
 1117SOL    HW2 4466   1.603   4.369   2.043 -0.3497  0.8872 -0.3974
 1117SOL    HW3 4467   1.494   4.327   1.945 -0.5228  1.3679 -0.4124
 1117SOL    MW4 4468   1.575   4.357   1.961 -0.1652  0.3930 -0.3873
 1118SOL     OW 4469   2.011   4.642   1.865 -0.0592 -0.1447  0.1073
 1118SOL    HW2 4470   2.102   4.673   1.862 -0.0985 -0.0660 -0.2464
 1118SOL    HW3 4471   2.018   4.552   1.897  0.0520  0.2282  1.1292
 1118SOL    MW4 4472   2.024   4.634   1.869 -0.0497 -0.0851  0.1955
 1119SOL     OW 4473   1.788   0.101   1.985  0.0854  0.1648 -0.5654
 1119SOL    HW2 4474   1.793   0.095   2.080  0.9793 -2.7124 -0.7643
 1119SOL    HW3 4475   1.867   0.056   1.954 -0.3801  0.7532 -2.6765
 1119SOL    MW4 4476   1.799   0.095   1.993  0.1419 -0.1372 -0.8702
 1120SOL     OW 4477   1.790   0.385   1.887 -0.5518  0.2713  0.7460
 1120SOL    HW2 4478   1.788   0.293   1.915 -0.6863 -0.0026 -0.1419
 1120SOL    HW3 4479   1.800   0.381   1.792  0.2371  1.1924  0.7841
 1120SOL    MW4 4480   1.791   0.372   1.878 -0.4655  0.3567  0.6339
 1121SOL     OW 4481   2.028   0.485   1.980  0.3049 -0.0850 -0.0820
 1121SOL    HW2 4482   2.032   0.575   1.947  1.2473 -0.4788 -1.0520
 1121SOL    HW3 4483   1.955   0.446   1.932  0.3668 -0.0548 -0.2016
 1121SOL    MW4 4484   2.019   0.492   1.969  0.4374 -0.1330 -0.2257
 1122SOL     OW 4485   2.034   0.757   1.896  0.3618 -0.0231 -0.3282
 1122SOL    HW2 4486   2.116   0.803   1.919 -0.0979  0.2553  0.8071
 1122SOL    HW3 4487   2.031   0.759   1.800  1.9120 -0.4347 -0.3992
 1122SOL    MW4 4488   2.045   0.764   1.886  0.5057 -0.0407 -0.1878
 1123SOL     OW 4489   1.799   0.874   1.973  0.1556  0.0768 -0.0465
 1123SOL    HW2 4490   1.816   0.966   1.957 -0.5788  0.2015 -0.1119
 1123SOL    HW3 4491   1.885   0.832   1.965  0.4053  0.6781 -0.5309
 1123SOL    MW4 4492   1.813   0.880   1.970  0.0916  0.1726 -0.1191
 1124SOL     OW 4493   1.841   1.127   1.926 -0.3082 -0.2459 -0.0557
 1124SOL    HW2 4494   1.760   1.177   1.935 -0.5997 -0.4533 -1.4240
 1124SOL    HW3 4495   1.844   1.103   1.834  0.7190 -1.2569  0.2339
 1124SOL    MW4 4496   1.831   1.130   1.915 -0.2112 -0.4067 -0.1980
 1125SOL     OW 4497   2.066   1.293   1.947  0.0258  0.2763  0.0350
 1125SOL    HW2 4498   2.124   1.236   1.897  0.8473 -0.4822  1.8337
 1125SOL    HW3 4499   1.981   1.248   1.946  0.7395 -1.1486  1.6879
 1125SOL    MW4 4500   2.062   1.280   1.940  0.2284 -0.0118  0.4904
 1126SOL     OW 4501   2.024   1.526   1.828  0.1467  0.0636 -0.0170
 1126SOL    HW2 4502   2.047   1.437   1.854  2.3944  0.6472  0.1071
 1126SOL    HW3 4503   2.023   1.523   1.732  1.1476  0.1160 -0.0333
 1126SOL    MW4 4504   2.027   1.514   1.819  0.5753  0.1475 -0.0028
 1127SOL     OW 4505   1.823   1.657   1.951 -0.4399  0.1489  0.0678
 1127SOL    HW2 4506   1.835   1.750   1.933 -0.3842  0.6574  2.5500
 1127SOL    HW3 4507   1.892   1.613   1.902  0.8696  1.6098  0.5875
 1127SOL    MW4 4508   1.834   1.663   1.943 -0.2598  0.4087  0.4639
 1128SOL     OW 4509   1.829   1.929   1.875  0.2259  0.0583 -0.3971
 1128SOL    HW2 4510   1.748   1.964   1.912  1.0465  0.2189  1.2826
 1128SOL    HW3 4511   1.813   1.928   1.780 -0.9614  2.0389 -0.2458
 1128SOL    MW4 4512   1.816   1.933   1.867  0.1775  0.3408 -0.1556
 1129SOL     OW 4513   2.056   2.067   1.959  0.2789  0.1422  0.0710
 1129SOL    HW2 4514   2.131   2.034   1.909 -0.9028 -0.2910 -1.4223
 1129SOL    HW3 4515   1.981   2.017   1.926 -1.1648  2.6628 -0.5327
 1129SOL    MW4 4516   2.056   2.056   1.948 -0.0675  0.4176 -0.2057
 1130SOL     OW 4517   2.036   2.336   1.873  0.2480  0.3767 -0.4687
 1130SOL    HW2 4518   2.111   2.386   1.906  1.2980  0.0008 -2.1840
 1130SOL    HW3 4519   2.055   2.245   1.898 -1.0548  0.6376  1.5724
 1130SOL    MW4 4520   2.048   2.331   1.881  0.2147  0.3615 -0.4257
 1131SOL     OW 4521   1.851   2.505   1.964  0.0419  0.2555  0.3871
 1131SOL    HW2 4522   1.824   2.491   2.055  0.1806 -1.0517  0.2407
 1131SOL    HW3 4523   1.907   2.430   1.944 -0.0632  0.4851 -0.8110
 1131SOL    MW4 4524   1.855   2.493   1.974  0.0463  0.1133  0.2097
 1132SOL     OW 4525   1.787   2.733   1.839  0.1322 -0.0909 -0.2587
 1132SOL    HW2 4526   1.806   2.648   1.879  1.4666  0.2404 -0.1405
 1132SOL    HW3 4527   1.800   2.719   1.746 -0.0245 -0.1165 -0.2763
 1132SOL    MW4 4528   1.791   2.720   1.832  0.2876 -0.0506 -0.2455
 1133SOL     OW 4529   2.002   2.855   1.975 -0.2457  0.1213 -0.3460
 1133SOL    HW2 4530   1.980   2.849   2.068  0.8302  2.0986  0.0649
 1133SOL    HW3 4531   1.927   2.816   1.930 -1.1069 -0.1810  1.3167
 1133SOL    MW4 4532   1.989   2.849   1.981 -0.2174  0.3423 -0.0724
 1134SOL     OW 4533   2.043   3.076   1.801 -0.2106  0.1595 -0.4822
 1134SOL    HW2 4534   1.970   3.114   1.850  0.6166  0.2447  0.6934
 1134SOL    HW3 4535   2.067   2.998   1.851  1.1153  0.6509 -0.3302
 1134SOL    MW4 4536   2.037   3.071   1.814  0.0735  0.2355 -0.3070
 1135SOL     OW 4537   1.828   3.178   1.961 -0.8132 -0.1205 -0.6128
 1135SOL    HW2 4538   1.809   3.180   2.055  0.7797  1.5033 -0.3122
 1135SOL    HW3 4539   1.742   3.164   1.920 -1.8447  1.3988  0.9687
 1135SOL    MW4 4540   1.814   3.176   1.968 -0.7391  0.2942 -0.3645
 1136SOL     OW 4541   1.807   3.422   1.841 -0.4221  0.0592 -0.1969
 1136SOL    HW2 4542   1.813   3.334   1.879  1.0534  0.9344  1.7091
 1136SOL    HW3 4543   1.727   3.458   1.879  0.3306  0.4377  1.0844
 1136SOL    MW4 4544   1.798   3.415   1.851 -0.1281  0.2246  0.2236
 1137SOL     OW 4545   2.008   3.548   1.989 -0.2520 -0.7357  0.3994
 1137SOL    HW2 4546   2.001   3.637   1.956  1.1806 -0.0990  1.7816
 1137SOL    HW3 4547   1.942   3.499   1.939 -0.3847  0.8762 -1.0485
 1137SOL    MW4 4548   1.998   3.553   1.978 -0.0805 -0.4390  0.3908
 1138SOL     OW 4549   2.035   3.819   1.892 -0.0867  0.2655 -0.0566
 1138SOL    HW2 4550   2.115   3.861   1.923  1.5124 -1.6587 -1.4295
 1138SOL    HW3 4551   2.049   3.804   1.799 -1.4557 -1.3592 -0.0403
 1138SOL    MW4 4552   2.047   3.822   1.884 -0.0564 -0.2027 -0.2356
 1139SOL     OW 4553   1.807   3.985   1.977  0.1211  0.2380  0.2932
 1139SOL    HW2 4554   1.814   4.075   1.946 -1.3341  0.3805  0.3503
 1139SOL    HW3 4555   1.886   3.942   1.945  0.7220  1.4793  0.0933
 1139SOL    MW4 4556   1.819   3.991   1.969  0.0084  0.4206  0.2744
 1140SOL     OW 4557   1.821   4.249   1.883  0.0027  0.0421 -0.0800
 1140SOL    HW2 4558   1.737   4.289   1.906 -0.4775 -0.9005 -0.1290
 1140SOL    HW3 4559   1.824   4.252   1.788 -0.0123  0.0222 -0.0814
 1140SOL    MW4 4560   1.810   4.254   1.874 -0.0626 -0.0848 -0.0867
 1141SOL     OW 4561   2.028   4.392   2.001  0.5297 -0.0757 -0.5237
 1141SOL    HW2 4562   2.104   4.344   1.968  0.9818 -0.7959  1.4596
 1141SOL    HW3 4563   1.953   4.336   1.980  0.8416 -0.6619 -0.0938
 1141SOL    MW4 4564   2.028   4.378   1.994  0.6305 -0.2481 -0.2053
 1142SOL     OW 4565   2.494   4.625   1.838 -0.0739 -0.1197  0.2654
 1142SOL    HW2 4566   2.576   4.656   1.877  1.2782 -1.8788 -1.0849
 1142SOL    HW3 4567   2.457   4.567   1.905  0.9830 -1.1602 -0.0272
 1142SOL    MW4 4568   2.500   4.621   1.852  0.2439 -0.4891  0.0486
 1143SOL     OW 4569   2.257   0.088   1.966  0.1101 -0.5751 -0.0188
 1143SOL    HW2 4570   2.257   0.081   2.061 -0.2649  0.3997  0.0586
 1143SOL    HW3 4571   2.342   0.052   1.939  0.8415  0.5099  0.7976
 1143SOL    MW4 4572   2.268   0.082   1.975  0.1571 -0.3033  0.0992
 1144SOL     OW 4573   2.241   0.332   1.866  0.4627 -0.0402 -0.8076
 1144SOL    HW2 4574   2.231   0.243   1.900  3.1781  0.3128  1.0108
 1144SOL    HW3 4575   2.161   0.377   1.893  1.0554 -0.7126  2.1780
 1144SOL    MW4 4576   2.229   0.326   1.874  0.8991 -0.0824 -0.1738
 1145SOL     OW 4577   2.448   0.471   1.950 -0.2060 -0.0055 -0.0443
 1145SOL    HW2 4578   2.525   0.425   1.916  0.6002  0.2852  1.3335
 1145SOL    HW3 4579   2.373   0.420   1.919  0.6275 -1.6231  0.5391
 1145SOL    MW4 4580   2.448   0.458   1.942  0.0103 -0.1805  0.2145
 1146SOL     OW 4581   2.475   0.734   1.869 -0.3457  0.1301 -0.3736
 1146SOL    HW2 4582   2.456   0.644   1.897 -0.2505  0.0100 -0.6915
 1146SOL    HW3 4583   2.464   0.732   1.774  1.3196  0.0524 -0.5745
 1146SOL    MW4 4584   2.471   0.722   1.860 -0.1134  0.1040 -0.4421
 1147SOL     OW 4585   2.275   0.899   1.974  0.0514 -0.2740  0.2964
 1147SOL    HW2 4586   2.264   0.900   2.069 -0.8921  0.0497  0.1892
 1147SOL    HW3 4587   2.339   0.831   1.958 -0.3340 -0.8353  1.1183
 1147SOL    MW4 4588   2.282   0.890   1.984 -0.1239 -0.3054  0.3907
 1148SOL     OW 4589   2.276   1.133   1.829  0.3362 -0.2024  0.1087
 1148SOL    HW2 4590   2.329   1.188   1.888  0.8871 -0.1278 -0.4541
 1148SOL    HW3 4591   2.275   1.048   1.872  3.0780 -0.9066 -1.1374
 1148SOL    MW4 4592   2.283   1.129   1.843  0.7706 -0.2854 -0.1300
 1149SOL     OW 4593   2.457   1.288   1.945  0.4704  0.2153 -0.0755
 1149SOL    HW2 4594   2.471   1.289   2.039  0.2761  1.2871 -0.0581
 1149SOL    HW3 4595   2.466   1.379   1.918  0.6286 -0.0980 -1.1087
 1149SOL    MW4 4596   2.460   1.300   1.953  0.4656  0.3154 -0.2095
 1150SOL     OW 4597   2.484   1.549   1.851 -0.0451  0.1271  0.3059
 1150SOL    HW2 4598   2.401   1.597   1.857 -1.1620 -1.7012 -0.1700
 1150SOL    HW3 4599   2.491   1.524   1.759  0.9467  0.0909  0.3830
 1150SOL    MW4 4600   2.474   1.552   1.840 -0.0616 -0.1189  0.2533
 1151SOL     OW 4601   2.252   1.704   1.917  0.1888 -0.1018 -0.3950
 1151SOL    HW2 4602   2.251   1.690   2.012  0.9539 -0.4224 -0.4275
 1151SOL    HW3 4603   2.176   1.656   1.885  0.6440 -1.0554 -0.0747
 1151SOL    MW4 4604   2.242   1.696   1.925  0.3498 -0.2699 -0.3570
 1152SOL     OW 4605   2.288   1.982   1.831  0.2369 -0.4824 -0.2291
 1152SOL    HW2 4606   2.359   2.015   1.886 -0.1678  0.5420 -0.3097
 1152SOL    HW3 4607   2.269   1.895   1.865  1.0454 -0.4743  0.2503
 1152SOL    MW4 4608   2.295   1.975   1.843  0.2901 -0.3461 -0.1765
 1153SOL     OW 4609   2.517   2.068   1.957  0.3105  0.0589  0.1278
 1153SOL    HW2 4610   2.582   2.019   1.907 -0.0426 -0.2535 -0.0307
 1153SOL    HW3 4611   2.517   2.155   1.917 -0.1704 -0.2718 -0.6017
 1153SOL    MW4 4612   2.526   2.073   1.945  0.2005 -0.0260  0.0106
 1154SOL     OW 4613   2.511   2.336   1.894 -0.0437 -0.3652 -0.1890
 1154SOL    HW2 4614   2.580   2.390   1.933  0.1745 -0.2421 -0.7388
 1154SOL    HW3 4615   2.429   2.373   1.928  0.1411 -0.2673  0.1569
 1154SOL    MW4 4616   2.509   2.348   1.904  0.0094 -0.3360 -0.2159
 1155SOL     OW 4617   2.275   2.440   1.985 -0.3109  0.1476  0.0192
 1155SOL    HW2 4618   2.276   2.461   2.079  2.4517  0.6083 -0.0804
 1155SOL    HW3 4619   2.257   2.523   1.942 -1.2909 -0.0100  0.1060
 1155SOL    MW4 4620   2.273   2.453   1.992 -0.0757  0.1876  0.0175
 1156SOL     OW 4621   2.211   2.703   1.880 -0.2841 -0.6816  0.3065
 1156SOL    HW2 4622   2.139   2.752   1.919  0.3061  0.1967  0.2960
 1156SOL    HW3 4623   2.198   2.713   1.786  1.4197  1.8438  0.2834
 1156SOL    MW4 4624   2.200   2.711   1.873  0.0186 -0.2325  0.3021
 1157SOL     OW 4625   2.467   2.822   1.960 -1.0753 -0.0383 -1.1001
 1157SOL    HW2 4626   2.454   2.913   1.933 -2.8932 -0.0751 -0.3699
 1157SOL    HW3 4627   2.404   2.772   1.909 -0.2330 -0.8703 -1.3334
 1157SOL    MW4 4628   2.457   2.827   1.950 -1.2040 -0.1529 -1.0346
 1158SOL     OW 4629   2.466   3.103   1.859  0.1415  0.0555 -0.7093
 1158SOL    HW2 4630   2.387   3.150   1.884 -0.3081 -0.3138 -1.3917
 1158SOL    HW3 4631   2.469   3.111   1.763  0.5252 -0.5554 -0.7520
 1158SOL    MW4 4632   2.456   3.110   1.849  0.1328 -0.0738 -0.8050
 1159SOL     OW 4633   2.232   3.213   1.942 -0.1792 -0.0319  0.1374
 1159SOL    HW2 4634   2.206   3.198   2.033 -1.7338  0.6355 -0.1789
 1159SOL    HW3 4635   2.180   3.149   1.892  0.1582  0.0616 -0.3325
 1159SOL    MW4 4636   2.221   3.202   1.947 -0.3398  0.0685  0.0337
 1160SOL     OW 4637   2.234   3.477   1.860 -0.2800  0.2359  0.1300
 1160SOL    HW2 4638   2.237   3.385   1.886  0.1192  0.4109  0.7020
 1160SOL    HW3 4639   2.157   3.512   1.904 -0.3992  0.1909 -0.0412
 1160SOL    MW4 4640   2.224   3.470   1.869 -0.2431  0.2530  0.1829
 1161SOL     OW 4641   2.445   3.629   1.932 -0.0853  0.0845 -0.0225
 1161SOL    HW2 4642   2.461   3.626   2.026  0.1862 -0.6106 -0.0874
 1161SOL    HW3 4643   2.373   3.568   1.917  0.0079  0.0375 -0.2930
 1161SOL    MW4 4644   2.438   3.621   1.942 -0.0372 -0.0135 -0.0667
 1162SOL     OW 4645   2.484   3.903   1.857  0.1556  0.2755  0.1326
 1162SOL    HW2 4646   2.396   3.930   1.882 -0.1073  0.5085 -1.0209
 1162SOL    HW3 4647   2.483   3.807   1.865 -0.4866  0.2055 -0.7638
 1162SOL    MW4 4648   2.472   3.894   1.861  0.0362  0.2970 -0.1378
 1163SOL     OW 4649   2.239   3.987   1.976  0.0220  0.0837 -0.1996
 1163SOL    HW2 4650   2.234   3.990   2.072  2.9737 -0.6294  0.0299
 1163SOL    HW3 4651   2.222   4.077   1.949 -2.1410  0.0363  0.8900
 1163SOL    MW4 4652   2.236   3.999   1.985  0.1261 -0.0166 -0.0256
 1164SOL     OW 4653   2.228   4.250   1.872 -0.1230  0.2108  0.4414
 1164SOL    HW2 4654   2.311   4.286   1.902 -0.1110 -0.3565  1.1316
 1164SOL    HW3 4655   2.219   4.280   1.782  0.7983  0.3217  0.3820
 1164SOL    MW4 4656   2.238   4.259   1.864  0.0002  0.1506  0.5246
 1165SOL     OW 4657   2.458   4.381   1.985  0.2703 -0.3031 -0.6350
 1165SOL    HW2 4658   2.456   4.380   2.080 -0.1429  1.5375 -0.6154
 1165SOL    HW3 4659   2.545   4.348   1.962  0.2811 -0.9966  0.3546
 1165SOL    MW4 4660   2.469   4.376   1.994  0.2172 -0.1517 -0.5019
 1166SOL     OW 4661   2.941   0.000   1.851 -0.2881  0.1750  0.2899
 1166SOL    HW2 4662   3.015   0.046   1.891 -0.3655  0.0905  0.5321
 1166SOL    HW3 4663   2.948  -0.089   1.884 -1.3846  0.5344  1.5351
 1166SOL    MW4 4664   2.952  -0.005   1.861 -0.4430  0.2113  0.4862
 1167SOL     OW 4665   2.698   0.075   1.972  0.0775 -0.2593  0.0772
 1167SOL    HW2 4666   2.721   0.082   2.065  1.8140  0.0255 -0.3618
 1167SOL    HW3 4667   2.780   0.052   1.929 -0.5478  0.4271 -1.5009
 1167SOL    MW4 4668   2.712   0.073   1.979  0.2241 -0.1311 -0.1889
 1168SOL     OW 4669   2.690   0.355   1.883 -0.3664  0.6097  0.2763
 1168SOL    HW2 4670   2.760   0.406   1.922  0.4089 -0.6658  0.5996
 1168SOL    HW3 4671   2.694   0.270   1.928 -2.0354  0.4794  0.2112
 1168SOL    MW4 4672   2.700   0.350   1.894 -0.4843  0.4242  0.3104
 1169SOL     OW 4673   2.899   0.497   1.973  0.5420  0.4966  0.0742
 1169SOL    HW2 4674   2.978   0.445   1.960  1.5637  1.3582  2.5885
 1169SOL    HW3 4675   2.921   0.584   1.940  1.1538  1.1074  2.0097
 1169SOL    MW4 4676   2.912   0.502   1.967  0.7575  0.6909  0.6613
 1170SOL     OW 4677   2.935   0.741   1.847  0.3625 -0.0619  0.2940
 1170SOL    HW2 4678   3.006   0.791   1.888  0.8623 -0.5761  0.0525
 1170SOL    HW3 4679   2.856   0.774   1.890  0.7732  0.2447  0.8322
 1170SOL    MW4 4680   2.934   0.752   1.858  0.4826 -0.0893  0.3331
 1171SOL     OW 4681   2.702   0.880   1.970 -0.0949 -0.4720  0.2623
 1171SOL    HW2 4682   2.705   0.969   1.933  0.9640 -0.8133 -0.5146
 1171SOL    HW3 4683   2.630   0.838   1.922  1.3537 -0.9511 -1.5545
 1171SOL    MW4 4684   2.693   0.886   1.959  0.2359 -0.5802 -0.0799
 1172SOL     OW 4685   2.694   1.151   1.879 -0.0769  0.4508 -0.0706
 1172SOL    HW2 4686   2.617   1.204   1.901 -0.5297 -0.4304  0.4789
 1172SOL    HW3 4687   2.701   1.158   1.784 -1.0269  0.2813 -0.1637
 1172SOL    MW4 4688   2.684   1.159   1.869 -0.2620  0.3122 -0.0104
 1173SOL     OW 4689   2.927   1.289   1.965  0.1162 -0.1373 -0.0167
 1173SOL    HW2 4690   2.917   1.370   1.915 -0.5849  0.1696  0.6076
 1173SOL    HW3 4691   2.853   1.235   1.939  0.0924 -0.2227  0.2219
 1173SOL    MW4 4692   2.916   1.292   1.955  0.0205 -0.1081  0.0971
 1174SOL     OW 4693   2.895   1.538   1.831 -0.2580 -0.0007  0.1364
 1174SOL    HW2 4694   2.977   1.570   1.870 -0.6533  0.3386  0.7075
 1174SOL    HW3 4695   2.917   1.522   1.739  0.5232 -0.1844  0.3428
 1174SOL    MW4 4696   2.909   1.540   1.824 -0.2071  0.0198  0.2390
 1175SOL     OW 4697   2.709   1.671   1.988  0.1597 -0.2508  0.1646
 1175SOL    HW2 4698   2.787   1.642   1.942  0.1658  0.1520 -0.0766
 1175SOL    HW3 4699   2.636   1.634   1.938  0.1916 -0.6892  0.4323
 1175SOL    MW4 4700   2.709   1.662   1.975  0.1647 -0.2555  0.1681
 1176SOL     OW 4701   2.693   1.910   1.820 -0.2358  0.2558  0.1087
 1176SOL    HW2 4702   2.767   1.959   1.856 -0.2107  0.4615 -0.2305
 1176SOL    HW3 4703   2.702   1.823   1.859 -0.2837  0.5180  0.7152
 1176SOL    MW4 4704   2.704   1.905   1.830 -0.2389  0.3175  0.1440
 1177SOL     OW 4705   2.879   2.059   1.948 -0.1468  0.0238 -0.0033
 1177SOL    HW2 4706   2.885   2.064   2.044 -0.5123 -0.5338  0.0494
 1177SOL    HW3 4707   2.963   2.021   1.921  0.0811  0.4706  0.0706
 1177SOL    MW4 4708   2.891   2.055   1.957 -0.1650  0.0092  0.0134
 1178SOL     OW 4709   2.897   2.346   1.863  0.1635 -0.2158  0.0741
 1178SOL    HW2 4710   2.985   2.366   1.897  0.2919  0.9296 -0.9050
 1178SOL    HW3 4711   2.878   2.259   1.896  0.9604  0.2239  1.7469
 1178SOL    MW4 4712   2.906   2.337   1.872  0.2856 -0.0067  0.1656
 1179SOL     OW 4713   2.719   2.519   1.975  0.3881  0.0129  0.4622
 1179SOL    HW2 4714   2.720   2.607   1.937  1.1211  0.6115  1.8203
 1179SOL    HW3 4715   2.792   2.474   1.932 -0.7811 -0.3502 -1.1684
 1179SOL    MW4 4716   2.729   2.525   1.964  0.3305  0.0440  0.4262
 1180SOL     OW 4717   2.704   2.768   1.859  0.1708  0.2842 -0.0854
 1180SOL    HW2 4718   2.621   2.787   1.903  0.8327  0.5133  1.0831
 1180SOL    HW3 4719   2.681   2.760   1.767 -1.2347 -0.1129  0.2818
 1180SOL    MW4 4720   2.690   2.769   1.853  0.0727  0.2620  0.1172
 1181SOL     OW 4721   2.940   2.887   1.965  0.2123  0.1374 -0.2742
 1181SOL    HW2 4722   2.953   2.975   1.929  0.5428 -0.8983 -2.7745
 1181SOL    HW3 4723   2.858   2.857   1.926 -0.2036 -0.4687  1.0196
 1181SOL    MW4 4724   2.931   2.895   1.955  0.2010 -0.0792 -0.4334
 1182SOL     OW 4725   2.935   3.140   1.842  0.3393 -0.1632  0.1366
 1182SOL    HW2 4726   3.010   3.178   1.889 -0.9795  2.0989  0.4551
 1182SOL    HW3 4727   2.858   3.181   1.882 -0.9852 -1.0311 -1.4764
 1182SOL    MW4 4728   2.935   3.150   1.853 -0.0094  0.0208 -0.0342
 1183SOL     OW 4729   2.701   3.232   1.978  0.1146  0.0880  0.3534
 1183SOL    HW2 4730   2.710   3.314   1.929  1.4208 -1.1434 -1.5300
 1183SOL    HW3 4731   2.622   3.192   1.942  1.1198 -0.8556 -0.8759
 1183SOL    MW4 4732   2.692   3.238   1.966  0.4195 -0.1990 -0.0573
 1184SOL     OW 4733   2.668   3.493   1.833 -0.4926  0.3196 -0.0358
 1184SOL    HW2 4734   2.732   3.546   1.882 -1.2739  1.8512 -0.6509
 1184SOL    HW3 4735   2.585   3.539   1.844 -1.0113 -0.2794 -1.3681
 1184SOL    MW4 4736   2.666   3.506   1.841 -0.6641  0.4427 -0.2927
 1185SOL     OW 4737   2.864   3.629   1.982  0.8499 -0.4881  0.3598
 1185SOL    HW2 4738   2.847   3.622   2.076  0.0899 -0.2381  0.2380
 1185SOL    HW3 4739   2.952   3.592   1.972  0.7945 -0.8503  1.1174
 1185SOL    MW4 4740   2.874   3.623   1.993  0.7423 -0.5029  0.4437
 1186SOL     OW 4741   2.927   3.895   1.879 -0.1057  0.3191  0.0160
 1186SOL    HW2 4742   2.897   3.810   1.914  0.5626  0.6372  1.3999
 1186SOL    HW3 4743   2.927   3.882   1.784  0.3122 -1.3523  0.2152
 1186SOL    MW4 4744   2.923   3.882   1.871  0.0376  0.1406  0.2249
 1187SOL     OW 4745   2.709   4.003   2.016  0.4056  0.3567  0.0504
 1187SOL    HW2 4746   2.776   3.970   1.956  0.1780  0.2151 -0.1311
 1187SOL    HW3 4747   2.626   3.979   1.974  0.2228 -2.0664  1.6665
 1187SOL    MW4 4748   2.707   3.995   2.002  0.3515  0.0183  0.2397
 1188SOL     OW 4749   2.722   4.283   1.892  0.8336  0.0911 -0.0623
 1188SOL    HW2 4750   2.708   4.196   1.931  2.5920 -0.5556 -0.8023
 1188SOL    HW3 4751   2.719   4.267   1.798  0.5596  0.9593 -0.2033
 1188SOL    MW4 4752   2.720   4.269   1.885  1.0295  0.1203 -0.1785
 1189SOL     OW 4753   2.955   4.405   1.959 -0.1263  0.0844  0.3390
 1189SOL    HW2 4754   2.940   4.420   2.053  0.1124 -1.1099  0.5752
 1189SOL    HW3 4755   2.878   4.356   1.930 -0.9253  1.7818 -0.4295
 1189SOL    MW4 4756   2.943   4.400   1.968 -0.2002  0.1508  0.2688
 1190SOL     OW 4757   3.380   4.646   1.896  0.2398 -0.0054  0.2397
 1190SOL    HW2 4758   3.383   4.552   1.915 -2.0787 -0.0016  0.7946
 1190SOL    HW3 4759   3.354   4.650   1.804 -0.0983  0.1054  0.3421
 1190SOL    MW4 4760   3.377   4.634   1.886 -0.1107  0.0097  0.3264
 1191SOL     OW 4761   3.148   0.112   1.985 -0.2922  0.5981 -0.1116
 1191SOL    HW2 4762   3.142   0.092   2.079  0.3111  1.0703  0.0306
 1191SOL    HW3 4763   3.231   0.075   1.958 -0.4634  0.4693 -0.4611
 1191SOL    MW4 4764   3.158   0.104   1.994 -0.2352  0.6434 -0.1390
 1192SOL     OW 4765   3.158   0.374   1.887  0.5545 -0.0604 -0.3489
 1192SOL    HW2 4766   3.160   0.289   1.932 -1.5207 -0.0650 -0.1724
 1192SOL    HW3 4767   3.151   0.352   1.794  0.0071 -0.1103 -0.3025
 1192SOL    MW4 4768   3.157   0.360   1.881  0.2085 -0.0676 -0.3195
 1193SOL     OW 4769   3.385   0.515   1.955 -0.3261  0.2681  0.1746
 1193SOL    HW2 4770   3.451   0.459   1.914  0.6446  0.8861  0.8654
 1193SOL    HW3 4771   3.301   0.475   1.932  0.3499 -1.3676  0.4955
 1193SOL    MW4 4772   3.382   0.502   1.947 -0.1088  0.1338  0.3081
 1194SOL     OW 4773   3.395   0.769   1.876 -0.1628 -0.1209 -0.3114
 1194SOL    HW2 4774   3.314   0.812   1.903 -0.8056 -0.9617 -0.9057
 1194SOL    HW3 4775   3.384   0.677   1.902  1.1378  0.0062  0.8036
 1194SOL    MW4 4776   3.383   0.763   1.883 -0.0760 -0.2151 -0.2427
 1195SOL     OW 4777   3.160   0.874   1.966 -0.1229  0.1233  0.3041
 1195SOL    HW2 4778   3.149   0.884   2.061  1.2229  1.7539  0.3165
 1195SOL    HW3 4779   3.150   0.963   1.932 -2.6219 -0.7319 -1.3304
 1195SOL    MW4 4780   3.157   0.887   1.974 -0.2751  0.2256  0.0901
 1196SOL     OW 4781   3.151   1.124   1.884 -0.2347  0.0335  0.3213
 1196SOL    HW2 4782   3.228   1.166   1.923 -1.0197  2.6877 -0.8571
 1196SOL    HW3 4783   3.077   1.176   1.915 -1.5534 -2.2244  1.0789
 1196SOL    MW4 4784   3.152   1.136   1.893 -0.5122  0.0858  0.2658
 1197SOL     OW 4785   3.352   1.278   1.977  0.3066 -0.0216  0.2356
 1197SOL    HW2 4786   3.343   1.292   2.071  0.0775  0.6674  0.1152
 1197SOL    HW3 4787   3.313   1.356   1.937  0.3976 -0.3102 -0.4291
 1197SOL    MW4 4788   3.346   1.290   1.984  0.2884  0.0312  0.1320
 1198SOL     OW 4789   3.330   1.548   1.896  0.1965  0.1775 -0.4619
 1198SOL    HW2 4790   3.411   1.580   1.936 -0.3031  0.6447  0.1931
 1198SOL    HW3 4791   3.261   1.600   1.938 -0.6034 -1.5590  0.3985
 1198SOL    MW4 4792   3.331   1.559   1.907  0.0250  0.0101 -0.2620
 1199SOL     OW 4793   3.089   1.675   1.962 -0.0464 -0.1128 -0.0481
 1199SOL    HW2 4794   3.081   1.691   2.056 -0.9487  0.7034 -0.2609
 1199SOL    HW3 4795   3.106   1.761   1.924 -0.7043 -0.2912 -0.7428
 1199SOL    MW4 4796   3.090   1.688   1.969 -0.2523 -0.0286 -0.1678
 1200SOL     OW 4797   3.114   1.935   1.865 -0.0296  0.1653  0.0633
 1200SOL    HW2 4798   3.183   1.993   1.899  0.8460 -1.4400  1.1241
 1200SOL    HW3 4799   3.136   1.923   1.773  1.0644 -0.2301  0.3646
 1200SOL    MW4 4800   3.126   1.941   1.857  0.2303 -0.0987  0.2431
 1201SOL     OW 4801   3.344   2.076   1.943  0.5267 -0.2777  0.4682
 1201SOL    HW2 4802   3.433   2.042   1.940  0.5807 -0.1593  0.6661
 1201SOL    HW3 4803   3.350   2.162   1.902  0.3476 -0.5988 -0.2294
 1201SOL    MW4 4804   3.357   2.083   1.938  0.5102 -0.3044  0.4023
 1202SOL     OW 4805   3.393   2.343   1.863 -0.0725 -0.0272  0.3842
 1202SOL    HW2 4806   3.309   2.379   1.890 -0.4924  0.0367 -0.9458
 1202SOL    HW3 4807   3.396   2.360   1.769  1.3849 -0.1220  0.4105
 1202SOL    MW4 4808   3.382   2.350   1.854  0.0644 -0.0313  0.2122
 1203SOL     OW 4809   3.145   2.439   1.944 -0.2128  0.0418 -0.6971
 1203SOL    HW2 4810   3.122   2.435   2.037 -1.2090 -2.3708 -1.0198
 1203SOL    HW3 4811   3.145   2.532   1.924 -0.5811  0.5701  1.5822
 1203SOL    MW4 4812   3.142   2.451   1.954 -0.3928 -0.2068 -0.4389
 1204SOL     OW 4813   3.138   2.694   1.870  0.4280  0.3686  0.1313
 1204SOL    HW2 4814   3.076   2.749   1.918  0.6544  1.4382 -0.7847
 1204SOL    HW3 4815   3.118   2.710   1.778  0.1099 -1.5491 -0.1406
 1204SOL    MW4 4816   3.127   2.703   1.864  0.4159  0.2567 -0.0254
 1205SOL     OW 4817   3.349   2.861   1.986  0.2156 -0.3285  0.1211
 1205SOL    HW2 4818   3.354   2.835   2.078 -0.8185 -0.4812  0.1419
 1205SOL    HW3 4819   3.277   2.808   1.950  0.8358 -0.5178 -0.8541
 1205SOL    MW4 4820   3.340   2.851   1.993  0.1610 -0.3737 -0.0048
 1206SOL     OW 4821   3.367   3.120   1.868  0.3898 -0.3579 -0.0044
 1206SOL    HW2 4822   3.449   3.161   1.896  0.6490  0.0051 -1.2757
 1206SOL    HW3 4823   3.376   3.029   1.896  1.1554 -0.2799  0.0266
 1206SOL    MW4 4824   3.379   3.113   1.876  0.5250 -0.2997 -0.1680
 1207SOL     OW 4825   3.142   3.230   1.978  0.1411  0.3299  0.3114
 1207SOL    HW2 4826   3.156   3.324   1.974 -0.5017  0.3946 -0.3759
 1207SOL    HW3 4827   3.222   3.192   1.942  0.4129  0.6071  0.6191
 1207SOL    MW4 4828   3.154   3.237   1.973  0.0922  0.3750  0.2613
 1208SOL     OW 4829   3.117   3.521   1.918 -0.1980 -0.1112  0.2885
 1208SOL    HW2 4830   3.197   3.559   1.955 -0.7141  1.3097 -0.0132
 1208SOL    HW3 4831   3.132   3.520   1.824 -0.3904 -0.1520  0.2580
 1208SOL    MW4 4832   3.130   3.526   1.910 -0.2914  0.0709  0.2447
 1209SOL     OW 4833   3.354   3.594   2.021  0.1159  0.0807 -0.1541
 1209SOL    HW2 4834   3.427   3.566   1.965 -0.1221 -0.7739 -0.0484
 1209SOL    HW3 4835   3.337   3.684   1.995  0.4652 -0.0825 -0.9797
 1209SOL    MW4 4836   3.361   3.602   2.010  0.1305 -0.0536 -0.2491
 1210SOL     OW 4837   3.333   3.863   1.894  0.2864  0.1561 -0.2325
 1210SOL    HW2 4838   3.270   3.926   1.928  0.1016  0.4386 -1.0843
 1210SOL    HW3 4839   3.342   3.886   1.801  0.8446 -0.5430 -0.3546
 1210SOL    MW4 4840   3.326   3.874   1.886  0.3357  0.1012 -0.3610
 1211SOL     OW 4841   3.124   4.014   1.998 -0.1345 -0.2303  0.1132
 1211SOL    HW2 4842   3.110   4.019   2.093 -1.3832  1.8002 -0.1559
 1211SOL    HW3 4843   3.041   3.980   1.964 -0.5566  1.3424 -0.4620
 1211SOL    MW4 4844   3.111   4.010   2.006 -0.3549  0.2451  0.0018
 1212SOL     OW 4845   3.131   4.239   1.837 -0.0685  0.5109 -0.2658
 1212SOL    HW2 4846   3.135   4.162   1.894 -0.7198  0.3098 -0.4926
 1212SOL    HW3 4847   3.068   4.297   1.879 -0.8329  0.2022 -0.9741
 1212SOL    MW4 4848   3.123   4.237   1.850 -0.2553  0.4437 -0.3892
 1213SOL     OW 4849   3.353   4.358   1.943  0.4391  0.2956 -0.0640
 1213SOL    HW2 4850   3.422   4.306   1.902 -0.7668 -0.4350 -1.2152
 1213SOL    HW3 4851   3.271   4.322   1.908 -0.5909  0.3605  2.1771
 1213SOL    MW4 4852   3.351   4.346   1.933  0.1441  0.2078  0.0798
 1214SOL     OW 4853   3.844   4.609   1.859  0.1175 -0.3236  0.5335
 1214SOL    HW2 4854   3.840   4.517   1.886  1.8415 -0.6089 -0.1069
 1214SOL    HW3 4855   3.757   4.644   1.879 -1.1305 -2.5307 -0.7632
 1214SOL    MW4 4856   3.832   4.601   1.865  0.1803 -0.6524  0.2779
 1215SOL     OW 4857   3.626   0.087   1.936 -0.3183 -0.5515  0.0093
 1215SOL    HW2 4858   3.623   0.095   2.031 -0.0707  0.0326 -0.0293
 1215SOL    HW3 4859   3.543   0.047   1.912 -0.4083 -0.6341  0.4663
 1215SOL    MW4 4860   3.615   0.083   1.945 -0.2975 -0.4854  0.0645
 1216SOL     OW 4861   3.588   0.340   1.842 -0.1047  0.8098  0.0315
 1216SOL    HW2 4862   3.617   0.255   1.874 -1.6700  0.1145 -0.3705
 1216SOL    HW3 4863   3.587   0.331   1.747 -2.8396  0.3846  0.0568
 1216SOL    MW4 4864   3.592   0.328   1.834 -0.6720  0.6619 -0.0182
 1217SOL     OW 4865   3.787   0.483   1.958 -0.0801  0.0305 -0.1185
 1217SOL    HW2 4866   3.783   0.572   1.921 -1.1305  0.4054  0.8630
 1217SOL    HW3 4867   3.709   0.439   1.923 -0.9847  0.3325  1.4657
 1217SOL    MW4 4868   3.776   0.489   1.949 -0.3380  0.1198  0.2200
 1218SOL     OW 4869   3.834   0.738   1.874 -0.0122 -0.3898 -0.5514
 1218SOL    HW2 4870   3.766   0.793   1.914 -1.2262 -2.4998  0.3956
 1218SOL    HW3 4871   3.823   0.752   1.780 -1.5637 -0.4510 -0.4037
 1218SOL    MW4 4872   3.823   0.747   1.867 -0.3771 -0.6763 -0.4070
 1219SOL     OW 4873   3.623   0.891   2.002 -0.3930 -0.1841  0.2740
 1219SOL    HW2 4874   3.636   0.971   1.951 -0.1501 -0.1543  0.3826
 1219SOL    HW3 4875   3.552   0.845   1.957  0.5842 -0.7094 -0.7651
 1219SOL    MW4 4876   3.616   0.896   1.989 -0.2320 -0.2494  0.1512
 1220SOL     OW 4877   3.594   1.138   1.889 -0.2010  0.1743 -0.5000
 1220SOL    HW2 4878   3.519   1.188   1.921 -1.6743 -1.3421 -1.4999
 1220SOL    HW3 4879   3.592   1.151   1.794  0.9672  0.3377 -0.5053
 1220SOL    MW4 4880   3.584   1.146   1.881 -0.2413 -0.0042 -0.6326
 1221SOL     OW 4881   3.800   1.273   2.013  0.0357 -0.1912  0.1457
 1221SOL    HW2 4882   3.812   1.273   2.108 -2.8508  2.1219  0.5968
 1221SOL    HW3 4883   3.737   1.203   1.997 -0.6867  0.4326  0.1787
 1221SOL    MW4 4884   3.793   1.264   2.023 -0.4405  0.1963  0.2096
 1222SOL     OW 4885   3.769   1.536   1.922  0.1163  0.5693 -0.1826
 1222SOL    HW2 4886   3.845   1.591   1.942 -0.2081  1.1225 -0.4610
 1222SOL    HW3 4887   3.790   1.451   1.961  1.3760  0.3887 -1.2511
 1222SOL    MW4 4888   3.782   1.532   1.930  0.2397  0.6185 -0.3603
 1223SOL     OW 4889   3.546   1.674   2.007 -0.1541 -0.3480 -0.3044
 1223SOL    HW2 4890   3.558   1.764   1.978  0.5476  0.7556  3.1719
 1223SOL    HW3 4891   3.625   1.628   1.976  0.3883  0.6821 -0.4774
 1223SOL    MW4 4892   3.558   1.680   2.000  0.0100 -0.0665  0.1314
 1224SOL     OW 4893   3.582   1.949   1.915 -0.0216 -0.1062  0.1734
 1224SOL    HW2 4894   3.661   2.000   1.935 -0.8135  1.4349 -0.5053
 1224SOL    HW3 4895   3.585   1.938   1.820 -0.5751 -0.1222  0.1597
 1224SOL    MW4 4896   3.593   1.955   1.905 -0.1991  0.0950  0.0821
 1225SOL     OW 4897   3.815   2.081   1.998  0.1656 -0.3537  0.3397
 1225SOL    HW2 4898   3.874   2.032   1.941  0.7627  0.2003  0.4730
 1225SOL    HW3 4899   3.817   2.170   1.963  1.2199  0.1962  1.7473
 1225SOL    MW4 4900   3.823   2.086   1.986  0.3835 -0.2081  0.5430
 1226SOL     OW 4901   3.792   2.342   1.887  0.0714 -0.1123  0.4122
 1226SOL    HW2 4902   3.871   2.383   1.921  0.2613  0.6038 -0.8691
 1226SOL    HW3 4903   3.720   2.394   1.925  0.2968  1.0527 -0.7074
 1226SOL    MW4 4904   3.793   2.354   1.897  0.1262  0.1359  0.0954
 1227SOL     OW 4905   3.574   2.505   1.981 -0.0606 -0.4591 -0.0774
 1227SOL    HW2 4906   3.576   2.583   1.925 -0.1426  0.4361  1.1465
 1227SOL    HW3 4907   3.509   2.448   1.940 -0.2229  0.2426 -0.8154
 1227SOL    MW4 4908   3.565   2.508   1.968 -0.0929 -0.2484 -0.0133
 1228SOL     OW 4909   3.571   2.751   1.858  0.2424  0.0203 -0.5828
 1228SOL    HW2 4910   3.643   2.788   1.910 -1.1443  0.1978  1.2703
 1228SOL    HW3 4911   3.492   2.787   1.898 -1.0106 -2.4559 -0.7145
 1228SOL    MW4 4912   3.570   2.761   1.870 -0.1059 -0.2830 -0.3557
 1229SOL     OW 4913   3.795   2.816   1.995 -0.2268 -0.0201  0.3451
 1229SOL    HW2 4914   3.816   2.808   2.088  2.8593 -0.0767 -0.2929
 1229SOL    HW3 4915   3.808   2.909   1.976 -2.1272  0.2421  0.2135
 1229SOL    MW4 4916   3.799   2.827   2.005 -0.0703  0.0070  0.2436
 1230SOL     OW 4917   3.824   3.087   1.905  0.2520  0.1303  0.2128
 1230SOL    HW2 4918   3.752   3.144   1.934  0.6330  0.2927  0.8563
 1230SOL    HW3 4919   3.815   3.083   1.810  0.4767  1.6305  0.1149
 1230SOL    MW4 4920   3.813   3.094   1.897  0.3319  0.3497  0.2848
 1231SOL     OW 4921   3.611   3.239   1.989  0.6696 -0.6325 -0.0556
 1231SOL    HW2 4922   3.612   3.231   2.084 -0.2970  0.3149  0.0512
 1231SOL    HW3 4923   3.629   3.332   1.973  1.3479 -0.8861 -0.8224
 1231SOL    MW4 4924   3.613   3.250   1.999  0.6316 -0.5410 -0.1426
 1232SOL     OW 4925   3.606   3.506   1.895 -0.2530 -0.1083 -0.1294
 1232SOL    HW2 4926   3.682   3.546   1.937  0.4197 -1.8512  0.3283
 1232SOL    HW3 4927   3.623   3.514   1.801  0.7260 -0.9229 -0.0228
 1232SOL    MW4 4928   3.618   3.513   1.888 -0.0351 -0.4457 -0.0549
 1233SOL     OW 4929   3.839   3.632   1.978 -0.2296  0.3427  0.1190
 1233SOL    HW2 4930   3.902   3.575   1.935 -0.2550 -0.8272  1.5777
 1233SOL    HW3 4931   3.848   3.716   1.934  1.4465 -0.1652 -0.5335
 1233SOL    MW4 4932   3.849   3.636   1.967 -0.0118  0.1213  0.2254
 1234SOL     OW 4933   3.852   3.903   1.877  0.1798  0.3932 -0.1336
 1234SOL    HW2 4934   3.776   3.926   1.930  0.3341  0.0379  0.2474
 1234SOL    HW3 4935   3.821   3.910   1.787 -0.2834  0.3176  0.0163
 1234SOL    MW4 4936   3.838   3.907   1.872  0.1390  0.3363 -0.0635
 1235SOL     OW 4937   3.575   3.985   1.959  0.2368 -0.0505  0.0363
 1235SOL    HW2 4938   3.588   3.992   2.054  0.0738  0.5271  0.0175
 1235SOL    HW3 4939   3.491   3.940   1.949  0.0401  0.2873  0.1671
 1235SOL    MW4 4940   3.566   3.980   1.970  0.1893  0.0703  0.0511
 1236SOL     OW 4941   3.580   4.251   1.836  0.0243  0.0523  0.0672
 1236SOL    HW2 4942   3.651   4.296   1.881  0.8944 -0.5922 -0.6390
 1236SOL    HW3 4943   3.582   4.162   1.872 -0.2486 -0.0396 -0.1449
 1236SOL    MW4 4944   3.590   4.245   1.847  0.1031 -0.0449 -0.0540
 1237SOL     OW 4945   3.811   4.347   1.949 -0.4488 -0.4177  0.5828
 1237SOL    HW2 4946   3.817   4.355   2.044  0.0661 -1.2604  0.6274
 1237SOL    HW3 4947   3.893   4.304   1.923 -0.5584 -0.1408 -0.2467
 1237SOL    MW4 4948   3.823   4.343   1.958 -0.3953 -0.4923  0.4793
 1238SOL     OW 4949   4.283   0.018   1.829 -0.3001 -0.4717 -0.0122
 1238SOL    HW2 4950   4.198   0.044   1.865 -0.1360  1.5792 -1.0753
 1238SOL    HW3 4951   4.347   0.065   1.883  0.1215 -0.9503 -0.0891
 1238SOL    MW4 4952   4.280   0.028   1.841 -0.2228 -0.2642 -0.1626
 1239SOL     OW 4953   4.049   0.110   1.932  0.2909 -0.5165 -0.1434
 1239SOL    HW2 4954   4.051   0.125   2.026  2.3450 -0.8380 -0.1161
 1239SOL    HW3 4955   3.971   0.055   1.918 -0.5729  0.3402  1.2156
 1239SOL    MW4 4956   4.039   0.105   1.942  0.4479 -0.4459  0.0395
 1240SOL     OW 4957   4.053   0.407   1.900 -0.0471  0.1278 -0.5550
 1240SOL    HW2 4958   4.035   0.313   1.889 -0.8602  0.3004 -0.7546
 1240SOL    HW3 4959   3.966   0.447   1.905  0.2918  0.9549 -1.2429
 1240SOL    MW4 4960   4.039   0.400   1.899 -0.1096  0.2597 -0.6721
 1241SOL     OW 4961   4.286   0.508   1.996 -0.2259 -0.0174  0.1205
 1241SOL    HW2 4962   4.272   0.523   2.090 -0.2630 -2.5831  0.5503
 1241SOL    HW3 4963   4.198   0.489   1.962 -0.1603  0.5580 -0.3732
 1241SOL    MW4 4964   4.272   0.508   2.004 -0.2221 -0.2800  0.1121
 1242SOL     OW 4965   4.294   0.769   1.913  0.6244 -0.3376  0.1481
 1242SOL    HW2 4966   4.287   0.683   1.954  0.1065 -0.9577 -1.2156
 1242SOL    HW3 4967   4.271   0.754   1.822 -0.3180  1.4106  0.0802
 1242SOL    MW4 4968   4.290   0.756   1.907  0.4318 -0.1887 -0.0407
 1243SOL     OW 4969   4.048   0.909   1.960 -0.6389  0.2348  0.0099
 1243SOL    HW2 4970   4.130   0.861   1.947 -0.3062  1.0619 -1.0570
 1243SOL    HW3 4971   3.979   0.845   1.941 -0.1919  0.3973 -2.3127
 1243SOL    MW4 4972   4.050   0.895   1.956 -0.5360  0.3653 -0.4373
 1244SOL     OW 4973   4.037   1.171   1.893 -0.1265  0.0041 -0.3439
 1244SOL    HW2 4974   4.040   1.079   1.921 -0.9205 -0.2457 -1.0545
 1244SOL    HW3 4975   3.948   1.199   1.917  0.1815  0.6492  0.0499
 1244SOL    MW4 4976   4.025   1.163   1.900 -0.1906  0.0562 -0.3857
 1245SOL     OW 4977   4.285   1.277   1.947 -0.0859  0.2140  0.5366
 1245SOL    HW2 4978   4.279   1.283   2.042 -1.6617 -0.9382  0.5190
 1245SOL    HW3 4979   4.204   1.233   1.920  1.4559 -1.7041 -1.1187
 1245SOL    MW4 4980   4.274   1.272   1.956 -0.0904 -0.1911  0.3159
 1246SOL     OW 4981   4.208   1.545   1.880 -0.5012 -0.3773 -0.3290
 1246SOL    HW2 4982   4.233   1.454   1.896 -0.7576 -0.6904 -1.6466
 1246SOL    HW3 4983   4.243   1.565   1.793  0.3866  1.0943  0.3307
 1246SOL    MW4 4984   4.216   1.536   1.871 -0.4179 -0.2245 -0.4158
 1247SOL     OW 4985   3.986   1.688   1.972  0.6677  0.0082 -0.1814
 1247SOL    HW2 4986   4.003   1.688   2.067 -0.4598 -2.1330  0.0538
 1247SOL    HW3 4987   4.055   1.634   1.935  0.4855 -0.0355 -0.4580
 1247SOL    MW4 4988   3.997   1.681   1.980  0.4949 -0.2801 -0.1869
 1248SOL     OW 4989   4.027   1.937   1.847 -0.3583 -0.5271  0.4138
 1248SOL    HW2 4990   4.007   1.856   1.893 -0.0440  0.1070  1.7115
 1248SOL    HW3 4991   4.014   1.917   1.755  1.6467 -2.5980  0.5560
 1248SOL    MW4 4992   4.023   1.924   1.841 -0.0523 -0.7166  0.6038
 1249SOL     OW 4993   4.234   2.107   1.936 -0.5770 -0.1149  0.3896
 1249SOL    HW2 4994   4.231   2.117   2.031 -0.8065 -0.4223  0.4157
 1249SOL    HW3 4995   4.162   2.047   1.916 -0.0072 -0.7141  0.1119
 1249SOL    MW4 4996   4.224   2.100   1.946 -0.5321 -0.2345  0.3564
 1250SOL     OW 4997   4.286   2.369   1.879  0.0863  0.4407 -0.0228
 1250SOL    HW2 4998   4.280   2.275   1.900 -0.7010  0.1124 -1.6962
 1250SOL    HW3 4999   4.376   2.392   1.901  0.3506 -0.7554  0.2029
 1250SOL    MW4 5000   4.297   2.360   1.885  0.0173  0.2396 -0.2138
 1251SOL     OW 5001   4.036   2.410   1.981 -0.2988 -0.2716  0.0933
 1251SOL    HW2 5002   4.038   2.419   2.076  0.6532  0.4632  0.0094
 1251SOL    HW3 5003   4.128   2.404   1.955 -0.5445 -0.3491 -0.7850
 1251SOL    MW4 5004   4.048   2.411   1.990 -0.2056 -0.1849 -0.0337
 1252SOL     OW 5005   4.007   2.666   1.892 -0.3348 -0.6480  0.0456
 1252SOL    HW2 5006   4.015   2.571   1.908 -0.8310 -0.5104  1.1400
 1252SOL    HW3 5007   3.918   2.687   1.919  0.1137  0.3224  0.7867
 1252SOL    MW4 5008   3.997   2.656   1.898 -0.3411 -0.5018  0.2878
 1253SOL     OW 5009   4.229   2.802   1.987  0.0094 -0.1846  0.3461
 1253SOL    HW2 5010   4.218   2.790   2.081  0.5910 -2.1194  0.2046
 1253SOL    HW3 5011   4.152   2.758   1.949 -0.5981  1.2107 -0.0642
 1253SOL    MW4 5012   4.217   2.794   1.994  0.0060 -0.2557  0.2733
 1254SOL     OW 5013   4.273   3.097   1.912  0.2063 -0.1465 -0.0760
 1254SOL    HW2 5014   4.195   3.141   1.946 -0.6131 -1.7155  0.1274
 1254SOL    HW3 5015   4.253   3.003   1.920  1.5649 -0.5585 -1.2866
 1254SOL    MW4 5016   4.260   3.090   1.918  0.2775 -0.4078 -0.2089
 1255SOL     OW 5017   4.044   3.207   2.007  0.0486 -0.1099  0.5111
 1255SOL    HW2 5018   4.037   3.210   2.102 -0.5327  0.3182  0.4585
 1255SOL    HW3 5019   3.961   3.172   1.978  0.3522 -0.5553  0.1739
 1255SOL    MW4 5020   4.032   3.203   2.016  0.0120 -0.1122  0.4597
 1256SOL     OW 5021   4.031   3.468   1.866  0.1229 -0.5129 -0.5081
 1256SOL    HW2 5022   4.106   3.517   1.898  0.0772 -0.4474 -0.5016
 1256SOL    HW3 5023   4.044   3.379   1.900 -0.5128 -0.1685  0.6555
 1256SOL    MW4 5024   4.042   3.462   1.875  0.0330 -0.4589 -0.3537
 1257SOL     OW 5025   4.241   3.609   1.969  0.3073  0.0406  0.1262
 1257SOL    HW2 5026   4.257   3.699   1.941  1.7860 -0.5368 -0.9271
 1257SOL    HW3 5027   4.323   3.563   1.950 -0.1977 -1.3735  1.2938
 1257SOL    MW4 5028   4.254   3.615   1.963  0.4358 -0.2221  0.1413
 1258SOL     OW 5029   4.274   3.851   1.849  0.2598 -0.3649  0.4457
 1258SOL    HW2 5030   4.362   3.886   1.866  0.2023 -0.2576  0.5274
 1258SOL    HW3 5031   4.266   3.851   1.754 -0.1509  0.8762  0.4680
 1258SOL    MW4 5032   4.285   3.856   1.839  0.1980 -0.1870  0.4595
 1259SOL     OW 5033   4.084   4.004   1.978  0.2415  0.3228  0.2503
 1259SOL    HW2 5034   4.148   3.950   1.931 -0.6333 -0.3217 -0.2111
 1259SOL    HW3 5035   4.001   3.985   1.935 -0.4245  0.4270  1.4743
 1259SOL    MW4 5036   4.081   3.994   1.966  0.0382  0.2515  0.3509
 1260SOL     OW 5037   4.068   4.253   1.877 -0.2645 -0.1217  0.0333
 1260SOL    HW2 5038   4.143   4.309   1.898 -0.3409  0.7526 -1.9234
 1260SOL    HW3 5039   4.085   4.172   1.924  0.1081  1.3494  2.5267
 1260SOL    MW4 5040   4.080   4.250   1.886 -0.2254  0.1878  0.1041
 1261SOL     OW 5041   4.298   4.416   1.960  0.6489  0.2476  0.4813
 1261SOL    HW2 5042   4.302   4.417   2.056 -0.6396  1.2289  0.5487
 1261SOL    HW3 5043   4.317   4.506   1.934  2.1804 -0.2817 -0.2594
 1261SOL    MW4 5044   4.301   4.428   1.969  0.6810  0.3072  0.3925
 1262SOL     OW 5045   0.224   4.635   2.342 -0.8662 -0.0079  0.0164
 1262SOL    HW2 5046   0.221   4.646   2.437 -1.6146  2.1163 -0.2339
 1262SOL    HW3 5047   0.303   4.681   2.315  0.0794 -1.7419 -0.2805
 1262SOL    MW4 5048   0.234   4.642   2.351 -0.8402  0.0436 -0.0558
 1263SOL     OW 5049   0.019   0.149   2.247 -0.2657  0.3976  0.5645
 1263SOL    HW2 5050   0.098   0.102   2.275 -0.4831 -0.5788 -0.4101
 1263SOL    HW3 5051   0.011   0.128   2.154 -0.9831  1.5040  0.3683
 1263SOL    MW4 5052   0.029   0.140   2.239 -0.3891  0.4147  0.4101
 1264SOL     OW 5053   4.483   0.397   2.369  0.1683  0.1348 -0.3155
 1264SOL    HW2 5054   4.564   0.442   2.344  0.2787 -0.3484 -0.8388
 1264SOL    HW3 5055   4.492   0.310   2.331  0.0011 -0.3649  0.7806
 1264SOL    MW4 5056   4.495   0.392   2.361  0.1608  0.0051 -0.2400
 1265SOL     OW 5057   0.206   0.538   2.264 -0.5872  0.4354 -0.1378
 1265SOL    HW2 5058   0.288   0.501   2.297 -0.2726  1.0899 -0.1606
 1265SOL    HW3 5059   0.209   0.520   2.170 -1.3402 -1.1587  0.1449
 1265SOL    MW4 5060   0.217   0.531   2.256 -0.6451  0.3114 -0.1035
 1266SOL     OW 5061   0.234   0.790   2.338  0.0528 -0.1792 -0.1707
 1266SOL    HW2 5062   0.217   0.793   2.433 -0.3940  0.4420 -0.2681
 1266SOL    HW3 5063   0.221   0.698   2.315  2.5769 -0.8231  0.8041
 1266SOL    MW4 5064   0.230   0.779   2.348  0.3269 -0.1822 -0.0550
 1267SOL     OW 5065   0.004   0.904   2.247 -0.2246 -0.6087  0.1609
 1267SOL    HW2 5066   0.085   0.857   2.269 -0.3354 -1.0967 -0.4560
 1267SOL    HW3 5067   0.002   0.904   2.151 -0.7702 -0.2675  0.1699
 1267SOL    MW4 5068   0.015   0.898   2.237 -0.3112 -0.6281  0.0807
 1268SOL     OW 5069   4.485   1.159   2.360 -0.4660 -0.6346  0.2380
 1268SOL    HW2 5070   4.494   1.148   2.454 -2.3407 -0.5240  0.4413
 1268SOL    HW3 5071   4.508   1.073   2.324 -0.6597 -0.9513  0.8593
 1268SOL    MW4 5072   4.489   1.146   2.367 -0.7389 -0.6618  0.3468
 1269SOL     OW 5073   0.204   1.319   2.245  0.1057 -0.3815  0.3975
 1269SOL    HW2 5074   0.127   1.279   2.284  0.4363 -1.6969 -0.2781
 1269SOL    HW3 5075   0.193   1.306   2.151  2.0506 -2.2891  0.3908
 1269SOL    MW4 5076   0.193   1.312   2.238  0.4059 -0.8068  0.3075
 1270SOL     OW 5077   0.229   1.589   2.332 -0.1061 -0.3145  0.4816
 1270SOL    HW2 5078   0.235   1.591   2.428  0.2802 -0.6884  0.4643
 1270SOL    HW3 5079   0.235   1.496   2.310  0.9498 -0.1409  0.0177
 1270SOL    MW4 5080   0.230   1.577   2.342  0.0842 -0.3409  0.4181
 1271SOL     OW 5081   4.484   1.684   2.258 -0.2308 -0.0396 -0.0327
 1271SOL    HW2 5082   4.495   1.777   2.279  2.1759  0.0099 -1.4053
 1271SOL    HW3 5083   4.571   1.645   2.270 -0.4939 -1.4976 -2.4295
 1271SOL    MW4 5084   4.497   1.691   2.262  0.0520 -0.2254 -0.5301
 1272SOL     OW 5085   4.484   1.949   2.360  0.2511  0.3306 -0.3808
 1272SOL    HW2 5086   4.408   2.002   2.336 -0.6187 -1.6537 -2.1732
 1272SOL    HW3 5087   4.558   1.992   2.317 -0.4475  0.0969 -1.8464
 1272SOL    MW4 5088   4.484   1.961   2.351  0.0442  0.0379 -0.8106
 1273SOL     OW 5089   0.218   2.035   2.245  0.5600  0.1575  0.1219
 1273SOL    HW2 5090   0.304   2.006   2.276 -0.1536 -1.1335  0.9046
 1273SOL    HW3 5091   0.229   2.044   2.150  0.8351 -2.5857 -0.1379
 1273SOL    MW4 5092   0.231   2.032   2.236  0.5021 -0.3747  0.1909
 1274SOL     OW 5093   0.204   2.290   2.302  0.0435 -0.2158  0.4522
 1274SOL    HW2 5094   0.199   2.288   2.398 -1.2985  0.4420  0.4076
 1274SOL    HW3 5095   0.215   2.199   2.277 -2.3143 -0.7078  1.1179
 1274SOL    MW4 5096   0.205   2.278   2.311 -0.4446 -0.1939  0.5342
 1275SOL     OW 5097   4.479   2.446   2.216  0.0440  0.0109 -0.6271
 1275SOL    HW2 5098   4.479   2.533   2.257 -0.1056 -0.9780  1.5737
 1275SOL    HW3 5099   4.555   2.402   2.254 -0.8530 -1.3853 -0.4071
 1275SOL    MW4 5100   4.489   2.452   2.227 -0.0941 -0.3038 -0.3077
 1276SOL     OW 5101   0.013   2.698   2.349  0.4844  0.2336 -0.3445
 1276SOL    HW2 5102   0.009   2.679   2.443  0.5928 -0.0602 -0.3991
 1276SOL    HW3 5103   0.092   2.750   2.338 -1.1004  2.8348  0.1788
 1276SOL    MW4 5104   0.023   2.702   2.360  0.2896  0.5380 -0.2827
 1277SOL     OW 5105   0.244   2.845   2.280  0.0288 -0.0908 -0.5709
 1277SOL    HW2 5106   0.328   2.803   2.298  0.5050  0.5783 -1.1709
 1277SOL    HW3 5107   0.241   2.852   2.184 -0.3367  0.6200 -0.5132
 1277SOL    MW4 5108   0.255   2.840   2.269  0.0434  0.0912 -0.6424
 1278SOL     OW 5109   0.239   3.101   2.371  0.0391 -0.1938  0.0851
 1278SOL    HW2 5110   0.153   3.134   2.345  0.2688 -0.1249 -0.5836
 1278SOL    HW3 5111   0.241   3.011   2.340  0.4765  0.0208 -0.5130
 1278SOL    MW4 5112   0.228   3.094   2.363  0.1272 -0.1564 -0.0820
 1279SOL     OW 5113   0.012   3.216   2.268 -0.1450  0.0216  0.0844
 1279SOL    HW2 5114   0.019   3.309   2.291 -1.4678 -0.2458  1.6006
 1279SOL    HW3 5115   0.011   3.216   2.172 -0.2636  1.5807  0.0655
 1279SOL    MW4 5116   0.013   3.229   2.258 -0.3352  0.1920  0.2820
 1280SOL     OW 5117   0.003   3.482   2.322  0.1008  0.1607 -0.1791
 1280SOL    HW2 5118  -0.008   3.477   2.417  1.0146 -1.4618 -0.1363
 1280SOL    HW3 5119  -0.077   3.523   2.290 -0.2777  0.5728  1.2833
 1280SOL    MW4 5120  -0.009   3.487   2.330  0.1715  0.0010  0.0195
 1281SOL     OW 5121   0.239   3.628   2.264  0.0054  0.1199 -0.1254
 1281SOL    HW2 5122   0.307   3.578   2.308  0.7241 -0.4897 -1.8791
 1281SOL    HW3 5123   0.157   3.583   2.287  0.4330 -0.5365  0.1039
 1281SOL    MW4 5124   0.237   3.615   2.273  0.1567 -0.0471 -0.3265
 1282SOL     OW 5125   0.254   3.895   2.357 -0.5972  0.0992 -0.4721
 1282SOL    HW2 5126   0.169   3.931   2.330 -0.5570 -0.0974 -0.8622
 1282SOL    HW3 5127   0.254   3.806   2.323 -0.5004 -0.1153  0.0893
 1282SOL    MW4 5128   0.243   3.888   2.349 -0.5791  0.0450 -0.4495
 1283SOL     OW 5129   4.489   3.972   2.236  0.5803  0.0401  0.1720
 1283SOL    HW2 5130   4.492   4.066   2.256 -0.6182  0.3540 -1.0858
 1283SOL    HW3 5131   4.495   3.967   2.141 -0.0385 -1.1338  0.1873
 1283SOL    MW4 5132   4.490   3.984   2.226  0.3405 -0.0734  0.0080
 1284SOL     OW 5133   4.484   4.218   2.339 -0.0143  0.3369 -0.2977
 1284SOL    HW2 5134   4.477   4.218   2.434  0.2900 -1.0336 -0.2756
 1284SOL    HW3 5135   4.558   4.277   2.321 -0.0858  0.6129  0.2976
 1284SOL    MW4 5136   4.493   4.226   2.349  0.0164  0.1925 -0.2163
 1285SOL     OW 5137   0.203   4.380   2.257 -0.3221  0.4798 -0.0110
 1285SOL    HW2 5138   0.289   4.346   2.281 -0.6887 -0.9635 -0.6991
 1285SOL    HW3 5139   0.204   4.471   2.287  0.3731 -0.3574  2.5992
 1285SOL    MW4 5140   0.214   4.387   2.264 -0.2787  0.1789  0.2426
 1286SOL     OW 5141   0.653   4.658   2.306  0.3675 -0.5983  0.3624
 1286SOL    HW2 5142   0.652   4.640   2.400 -0.3342  0.6061  0.6018
 1286SOL    HW3 5143   0.741   4.693   2.290  0.0768  0.3705  0.8183
 1286SOL    MW4 5144   0.664   4.660   2.316  0.2366 -0.3116  0.4542
 1287SOL     OW 5145   0.426   0.138   2.264  0.2560 -0.1549  0.5090
 1287SOL    HW2 5146   0.513   0.103   2.283  0.4757  0.2188  0.1943
 1287SOL    HW3 5147   0.418   0.132   2.169 -0.0182 -0.0904  0.5280
 1287SOL    MW4 5148   0.437   0.133   2.254  0.2488 -0.0971  0.4700
 1288SOL     OW 5149   0.429   0.416   2.365  0.0093  0.1525  0.0933
 1288SOL    HW2 5150   0.421   0.403   2.460  0.7110 -0.8361  0.0212
 1288SOL    HW3 5151   0.445   0.329   2.330 -0.2247  0.5194 -0.9424
 1288SOL    MW4 5152   0.430   0.403   2.373  0.0710  0.0705 -0.0528
 1289SOL     OW 5153   0.673   0.508   2.280  0.3830  0.3673  1.0545
 1289SOL    HW2 5154   0.689   0.598   2.307  1.2229 -0.1304  2.2395
 1289SOL    HW3 5155   0.581   0.492   2.302 -0.1626  1.3706 -0.4403
 1289SOL    MW4 5156   0.663   0.518   2.286  0.4218  0.4340  1.0136
 1290SOL     OW 5157   0.718   0.778   2.328  0.2095  0.2709  0.2323
 1290SOL    HW2 5158   0.715   0.788   2.423 -1.9880 -1.6929  0.4170
 1290SOL    HW3 5159   0.641   0.826   2.298  0.9968  1.0331 -0.5854
 1290SOL    MW4 5160   0.707   0.786   2.337  0.0235  0.1124  0.1488
 1291SOL     OW 5161   0.488   0.902   2.263  0.1277 -0.3846  0.1082
 1291SOL    HW2 5162   0.417   0.851   2.301 -0.2767 -0.7425 -1.0789
 1291SOL    HW3 5163   0.467   0.905   2.169  1.5750 -0.3439 -0.2312
 1291SOL    MW4 5164   0.476   0.896   2.255  0.2653 -0.4265 -0.0932
 1292SOL     OW 5165   0.446   1.184   2.349  0.3768  0.2042  0.0254
 1292SOL    HW2 5166   0.461   1.095   2.319 -0.4931  0.0720 -0.0325
 1292SOL    HW3 5167   0.366   1.211   2.304  0.9612  1.2224 -0.4116
 1292SOL    MW4 5168   0.437   1.176   2.339  0.3391  0.3211 -0.0399
 1293SOL     OW 5169   0.688   1.286   2.249  0.0262  0.1463 -0.1462
 1293SOL    HW2 5170   0.687   1.378   2.273  0.5936  0.4729 -1.3339
 1293SOL    HW3 5171   0.602   1.253   2.277 -0.6453  1.3093 -0.7747
 1293SOL    MW4 5172   0.676   1.294   2.256  0.0124  0.3428 -0.3858
 1294SOL     OW 5173   0.666   1.552   2.326  0.0359  0.6711 -0.1440
 1294SOL    HW2 5174   0.664   1.538   2.420 -0.0377 -0.7313 -0.3470
 1294SOL    HW3 5175   0.745   1.604   2.311 -0.5190  1.8280  0.7890
 1294SOL    MW4 5176   0.676   1.557   2.336 -0.0470  0.6387 -0.0477
 1295SOL     OW 5177   0.456   1.659   2.201  0.5596  0.0871  0.0154
 1295SOL    HW2 5178   0.530   1.625   2.252  0.1644 -0.9177 -0.0656
 1295SOL    HW3 5179   0.378   1.631   2.250  0.1722 -0.9524 -1.1563
 1295SOL    MW4 5180   0.455   1.651   2.214  0.4564 -0.1826 -0.1499
 1296SOL     OW 5181   0.470   1.902   2.334  0.1773  0.0794 -0.1521
 1296SOL    HW2 5182   0.551   1.942   2.303  0.9779 -0.8899  0.6348
 1296SOL    HW3 5183   0.467   1.817   2.290  1.3189 -1.3104  2.3185
 1296SOL    MW4 5184   0.481   1.896   2.324  0.4336 -0.2318  0.2777
 1297SOL     OW 5185   0.680   2.040   2.241 -0.3309 -0.4389  0.1186
 1297SOL    HW2 5186   0.763   1.998   2.265  0.5774  1.1278 -0.2276
 1297SOL    HW3 5187   0.682   2.124   2.287 -0.9315  0.3531 -1.2889
 1297SOL    MW4 5188   0.691   2.046   2.250 -0.2903 -0.1277 -0.1128
 1298SOL     OW 5189   0.656   2.284   2.337 -0.7998  0.3436  0.4472
 1298SOL    HW2 5190   0.651   2.290   2.432  0.1954 -2.2993  0.7045
 1298SOL    HW3 5191   0.736   2.330   2.314 -0.0005 -0.6879  1.1049
 1298SOL    MW4 5192   0.666   2.290   2.347 -0.5630 -0.1412  0.5679
 1299SOL     OW 5193   0.445   2.427   2.256  0.6549 -0.3662 -0.0477
 1299SOL    HW2 5194   0.512   2.365   2.286  1.6107  1.4009  1.5273
 1299SOL    HW3 5195   0.362   2.384   2.277  1.2953 -1.5616  0.1045
 1299SOL    MW4 5196   0.443   2.413   2.263  0.8655 -0.2907  0.1802
 1300SOL     OW 5197   0.499   2.716   2.335  0.2297  0.1523  0.0361
 1300SOL    HW2 5198   0.495   2.715   2.431  0.2286  0.8341  0.0394
 1300SOL    HW3 5199   0.480   2.625   2.310  0.4849 -0.0831  0.6896
 1300SOL    MW4 5200   0.496   2.704   2.344  0.2632  0.2112  0.1228
 1301SOL     OW 5201   0.716   2.890   2.252  0.1825 -0.1728 -0.2649
 1301SOL    HW2 5202   0.792   2.836   2.272  0.0844  0.0774  0.8203
 1301SOL    HW3 5203   0.641   2.834   2.269  0.0765  0.3658  1.0690
 1301SOL    MW4 5204   0.716   2.876   2.257  0.1556 -0.0687  0.0543
 1302SOL     OW 5205   0.680   3.148   2.386 -0.1347  0.0937  0.4465
 1302SOL    HW2 5206   0.607   3.179   2.331 -0.3559  1.0589  1.2758
 1302SOL    HW3 5207   0.694   3.058   2.358 -1.1423  0.1455 -0.2632
 1302SOL    MW4 5208   0.672   3.140   2.375 -0.2968  0.2279  0.4623
 1303SOL     OW 5209   0.456   3.260   2.258 -0.2350  0.2984 -0.2757
 1303SOL    HW2 5210   0.376   3.221   2.291 -0.4908  0.3218 -0.8570
 1303SOL    HW3 5211   0.453   3.245   2.163 -0.0059  1.1117 -0.4187
 1303SOL    MW4 5212   0.445   3.253   2.250 -0.2386  0.4088 -0.3713
 1304SOL     OW 5213   0.474   3.521   2.363  0.3085 -0.1785  0.0295
 1304SOL    HW2 5214   0.548   3.571   2.329 -0.4457  0.8717 -0.1157
 1304SOL    HW3 5215   0.473   3.440   2.311  1.4380 -0.2756  0.1465
 1304SOL    MW4 5216   0.484   3.517   2.352  0.3580 -0.0527  0.0258
 1305SOL     OW 5217   0.715   3.630   2.253  0.4367  0.0200  0.0760
 1305SOL    HW2 5218   0.733   3.717   2.288 -0.4844 -0.1712  1.0127
 1305SOL    HW3 5219   0.724   3.640   2.158  0.8153  1.0147  0.2188
 1305SOL    MW4 5220   0.719   3.642   2.245  0.3651  0.1260  0.2185
 1306SOL     OW 5221   0.747   3.884   2.350 -0.3433 -0.0397 -0.2128
 1306SOL    HW2 5222   0.732   3.872   2.444  1.6198  0.9143  0.2448
 1306SOL    HW3 5223   0.667   3.925   2.318 -1.2123 -0.7735  0.9450
 1306SOL    MW4 5224   0.734   3.888   2.358 -0.1989 -0.0107  0.0004
 1307SOL     OW 5225   0.506   4.003   2.285  0.2996 -0.1065 -0.1014
 1307SOL    HW2 5226   0.421   3.960   2.298  0.5570 -0.7767 -0.6715
 1307SOL    HW3 5227   0.525   3.992   2.192  0.4459  1.0992 -0.2216
 1307SOL    MW4 5228   0.497   3.996   2.275  0.3529 -0.0358 -0.1925
 1308SOL     OW 5229   0.469   4.272   2.341 -0.0038 -0.0157 -0.1848
 1308SOL    HW2 5230   0.550   4.308   2.306 -1.2973  1.3258 -1.9120
 1308SOL    HW3 5231   0.475   4.178   2.325  0.6175  0.2495 -1.5405
 1308SOL    MW4 5232   0.481   4.265   2.335 -0.0925  0.1963 -0.5916
 1309SOL     OW 5233   0.681   4.391   2.220 -0.1475 -0.4158  0.5598
 1309SOL    HW2 5234   0.666   4.481   2.250 -0.5279 -0.2468 -0.1233
 1309SOL    HW3 5235   0.649   4.391   2.130  4.8471  0.1767 -1.3494
 1309SOL    MW4 5236   0.675   4.403   2.212  0.4613 -0.3153  0.2178
 1310SOL     OW 5237   1.121   4.621   2.307  0.5687  0.3449 -1.0514
 1310SOL    HW2 5238   1.121   4.624   2.402  1.6089 -0.5297 -1.0092
 1310SOL    HW3 5239   1.045   4.672   2.281  0.9508  1.5887  0.2161
 1310SOL    MW4 5240   1.111   4.628   2.316  0.7563  0.3936 -0.8786
 1311SOL     OW 5241   0.895   0.097   2.252  0.6319  0.1652 -0.2354
 1311SOL    HW2 5242   0.908   0.188   2.281 -0.7174  0.1647  0.4400
 1311SOL    HW3 5243   0.887   0.103   2.157 -0.1418  0.8581 -0.1404
 1311SOL    MW4 5244   0.895   0.110   2.244  0.3518  0.2566 -0.1338
 1312SOL     OW 5245   0.888   0.362   2.354 -0.0267  0.3258  0.2928
 1312SOL    HW2 5246   0.954   0.419   2.314 -1.2364  1.3927 -0.2497
 1312SOL    HW3 5247   0.805   0.408   2.340 -0.8590 -0.8432  1.2142
 1312SOL    MW4 5248   0.886   0.376   2.347 -0.2961  0.3123  0.3428
 1313SOL     OW 5249   1.085   0.522   2.258 -0.3876 -0.2182  0.2273
 1313SOL    HW2 5250   1.152   0.462   2.292 -0.3406  0.1306  0.7609
 1313SOL    HW3 5251   1.096   0.519   2.163  1.1538  0.6855  0.3495
 1313SOL    MW4 5252   1.096   0.514   2.250 -0.1780 -0.0529  0.3139
 1314SOL     OW 5253   1.125   0.788   2.381 -0.3106  0.1895  0.5381
 1314SOL    HW2 5254   1.057   0.837   2.333 -0.2715 -0.2854 -0.0022
 1314SOL    HW3 5255   1.108   0.697   2.359  0.3808  0.0551  0.5828
 1314SOL    MW4 5256   1.114   0.783   2.372 -0.2142  0.1091  0.4727
 1315SOL     OW 5257   0.935   0.898   2.212  0.0284 -0.1103  0.1066
 1315SOL    HW2 5258   0.911   0.983   2.248  0.4766  0.9068 -1.9425
 1315SOL    HW3 5259   0.864   0.840   2.239  0.3395  0.6136  2.5622
 1315SOL    MW4 5260   0.922   0.901   2.220  0.1286  0.1194  0.1602
 1316SOL     OW 5261   0.912   1.149   2.307  0.2291 -0.0378 -0.1377
 1316SOL    HW2 5262   0.979   1.202   2.265  0.9205  0.1739  1.2020
 1316SOL    HW3 5263   0.829   1.188   2.279  0.7257  1.3579  0.3277
 1316SOL    MW4 5264   0.910   1.161   2.298  0.3858  0.1743  0.1004
 1317SOL     OW 5265   1.142   1.263   2.213 -0.3395  0.2328  0.2901
 1317SOL    HW2 5266   1.216   1.221   2.257 -0.1840  0.3752  0.1658
 1317SOL    HW3 5267   1.168   1.268   2.121 -0.4073  0.4868  0.2828
 1317SOL    MW4 5268   1.155   1.258   2.206 -0.3279  0.2851  0.2727
 1318SOL     OW 5269   1.123   1.505   2.356  0.2515 -0.2120 -0.5647
 1318SOL    HW2 5270   1.033   1.532   2.338  0.4289  0.1121 -0.9927
 1318SOL    HW3 5271   1.137   1.428   2.302  0.4631  0.1699 -1.0592
 1318SOL    MW4 5272   1.113   1.498   2.346  0.3028 -0.1189 -0.6864
 1319SOL     OW 5273   0.907   1.664   2.233  0.6819  0.5367 -0.1662
 1319SOL    HW2 5274   0.901   1.756   2.258  1.0602  0.6178 -0.3611
 1319SOL    HW3 5275   0.907   1.666   2.137  1.3990  0.3872 -0.1753
 1319SOL    MW4 5276   0.906   1.676   2.223  0.8264  0.5277 -0.1931
 1320SOL     OW 5277   0.902   1.907   2.330  0.1344 -0.0688  0.1527
 1320SOL    HW2 5278   0.896   1.910   2.425  0.3108 -1.5804  0.2206
 1320SOL    HW3 5279   0.987   1.947   2.309  2.0651 -3.5922  0.9222
 1320SOL    MW4 5280   0.912   1.913   2.339  0.4124 -0.7331  0.2632
 1321SOL     OW 5281   1.136   2.036   2.225 -0.1985  0.2217 -0.5314
 1321SOL    HW2 5282   1.215   2.006   2.270 -0.8184  0.0986  0.4968
 1321SOL    HW3 5283   1.154   2.021   2.132  0.5150 -0.9388 -0.2183
 1321SOL    MW4 5284   1.149   2.030   2.219 -0.1862  0.0523 -0.3544
 1322SOL     OW 5285   1.155   2.284   2.341  0.2336  0.1345  0.0191
 1322SOL    HW2 5286   1.214   2.339   2.290  0.2756 -0.3216 -0.4364
 1322SOL    HW3 5287   1.150   2.202   2.290 -1.4760  0.4810 -0.3997
 1322SOL    MW4 5288   1.163   2.280   2.327  0.0136  0.1201 -0.0962
 1323SOL     OW 5289   0.904   2.414   2.301  0.2044 -0.8262 -0.0966
 1323SOL    HW2 5290   0.985   2.367   2.322  0.9482  0.5103  0.0722
 1323SOL    HW3 5291   0.905   2.424   2.206  1.5814  1.5261  0.1269
 1323SOL    MW4 5292   0.915   2.409   2.291  0.4842 -0.3395 -0.0448
 1324SOL     OW 5293   0.905   2.692   2.330 -0.2180 -0.3547 -0.0823
 1324SOL    HW2 5294   0.906   2.704   2.425 -0.7956 -1.2446  0.0407
 1324SOL    HW3 5295   0.889   2.599   2.317  0.0956 -0.2867 -1.0561
 1324SOL    MW4 5296   0.903   2.681   2.341 -0.2528 -0.4631 -0.1945
 1325SOL     OW 5297   1.142   2.803   2.232 -0.2577 -0.3087 -0.4192
 1325SOL    HW2 5298   1.224   2.762   2.263  0.3623  0.7948 -0.5739
 1325SOL    HW3 5299   1.073   2.754   2.277  0.4436 -1.7262 -0.8264
 1325SOL    MW4 5300   1.144   2.791   2.242 -0.0834 -0.3501 -0.4933
 1326SOL     OW 5301   1.095   3.058   2.310  0.1887  0.0459  0.2274
 1326SOL    HW2 5302   1.018   3.088   2.261  1.0914  0.8867 -0.6970
 1326SOL    HW3 5303   1.103   2.965   2.287  0.3492  0.3323 -0.8882
 1326SOL    MW4 5304   1.086   3.049   2.301  0.3290  0.1946 -0.0418
 1327SOL     OW 5305   0.907   3.230   2.204  0.2154  0.3353 -0.3950
 1327SOL    HW2 5306   0.931   3.309   2.253 -0.5889  0.3733 -0.0588
 1327SOL    HW3 5307   0.828   3.198   2.247  0.6233 -0.7487 -0.4317
 1327SOL    MW4 5308   0.900   3.236   2.216  0.1631  0.1973 -0.3555
 1328SOL     OW 5309   0.939   3.494   2.345 -0.4673  0.1438  0.1604
 1328SOL    HW2 5310   0.930   3.473   2.438 -0.2790  0.5863  0.2821
 1328SOL    HW3 5311   0.856   3.535   2.321 -1.4943 -2.2619 -0.5017
 1328SOL    MW4 5312   0.927   3.496   2.354 -0.5780 -0.1153  0.0891
 1329SOL     OW 5313   1.163   3.627   2.227 -0.1293 -0.4375 -0.1859
 1329SOL    HW2 5314   1.238   3.580   2.264 -0.2255 -0.2648  0.2319
 1329SOL    HW3 5315   1.087   3.582   2.264 -0.2135  0.9136  1.2957
 1329SOL    MW4 5316   1.163   3.615   2.237 -0.1531 -0.2365  0.0647
 1330SOL     OW 5317   1.183   3.870   2.338 -0.0272  0.5651  0.6836
 1330SOL    HW2 5318   1.261   3.917   2.310  0.6595  0.2484  1.9902
 1330SOL    HW3 5319   1.191   3.784   2.297  0.6692  0.3022  1.3466
 1330SOL    MW4 5320   1.194   3.865   2.329  0.1553  0.4887  0.9434
 1331SOL     OW 5321   0.962   4.008   2.205 -0.0653 -0.4343 -0.3571
 1331SOL    HW2 5322   1.041   3.964   2.235  0.3479  0.4085 -0.1976
 1331SOL    HW3 5323   0.891   3.964   2.252  0.2466 -1.5710 -0.9282
 1331SOL    MW4 5324   0.963   3.996   2.215  0.0304 -0.4731 -0.4114
 1332SOL     OW 5325   0.905   4.243   2.325 -0.3959  0.1871  0.1090
 1332SOL    HW2 5326   0.927   4.163   2.277  1.2114  1.3463 -1.1435
 1332SOL    HW3 5327   0.837   4.284   2.272  0.1962  0.6334 -0.3129
 1332SOL    MW4 5328   0.899   4.238   2.311 -0.1057  0.3989 -0.1119
 1333SOL     OW 5329   1.136   4.362   2.235  0.3463  0.1182  0.5494
 1333SOL    HW2 5330   1.055   4.329   2.275 -1.1429  0.3845 -2.1493
 1333SOL    HW3 5331   1.135   4.456   2.254  0.4605 -0.0035  1.1988
 1333SOL    MW4 5332   1.125   4.370   2.243  0.1649  0.1372  0.2790
 1334SOL     OW 5333   1.576   4.664   2.365  0.0720  0.0129  0.0244
 1334SOL    HW2 5334   1.657   4.701   2.331  0.3557  0.7337  1.4157
 1334SOL    HW3 5335   1.508   4.699   2.308  0.6693 -0.0247 -0.7195
 1334SOL    MW4 5336   1.578   4.674   2.353  0.1882  0.1030  0.1098
 1335SOL     OW 5337   1.351   0.098   2.228  0.0562 -0.0483  0.2671
 1335SOL    HW2 5338   1.349   0.184   2.270 -0.2229 -0.3006  0.7701
 1335SOL    HW3 5339   1.278   0.050   2.266  0.7029 -0.7933  0.5951
 1335SOL    MW4 5340   1.341   0.103   2.238  0.1047 -0.1799  0.3767
 1336SOL     OW 5341   1.317   0.352   2.357  0.3050  0.1469  0.1525
 1336SOL    HW2 5342   1.330   0.347   2.451  0.9439  0.7649  0.0999
 1336SOL    HW3 5343   1.393   0.400   2.324 -0.9995  1.8755 -0.4088
 1336SOL    MW4 5344   1.328   0.358   2.365  0.2171  0.4565  0.0715
 1337SOL     OW 5345   1.540   0.470   2.253  0.1323 -0.0332  0.0054
 1337SOL    HW2 5346   1.617   0.423   2.284  0.6201  0.0918 -0.9748
 1337SOL    HW3 5347   1.549   0.469   2.157 -0.8630  0.3469 -0.0946
 1337SOL    MW4 5348   1.551   0.464   2.244  0.0654  0.0335 -0.1371
 1338SOL     OW 5349   1.572   0.712   2.381 -0.3094  0.0894  0.4094
 1338SOL    HW2 5350   1.648   0.745   2.333 -1.5923  0.9052 -1.0668
 1338SOL    HW3 5351   1.551   0.629   2.338 -0.9382  0.4011  0.1242
 1338SOL    MW4 5352   1.580   0.705   2.369 -0.5616  0.2382  0.1770
 1339SOL     OW 5353   1.370   0.871   2.280 -0.3815 -0.1723  0.2845
 1339SOL    HW2 5354   1.437   0.809   2.309 -0.2713  0.1600  0.7523
 1339SOL    HW3 5355   1.288   0.835   2.314 -0.1450  0.6879  1.8055
 1339SOL    MW4 5356   1.368   0.858   2.288 -0.3358 -0.0149  0.5469
 1340SOL     OW 5357   1.369   1.140   2.335 -0.1494  0.1796  0.1220
 1340SOL    HW2 5358   1.369   1.136   2.431  2.3155  1.0072  0.2055
 1340SOL    HW3 5359   1.369   1.049   2.307 -1.2800 -0.0651  0.9002
 1340SOL    MW4 5360   1.369   1.128   2.344  0.0267  0.2565  0.2357
 1341SOL     OW 5361   1.609   1.262   2.257  0.3827  0.1144 -0.1337
 1341SOL    HW2 5362   1.533   1.215   2.289  1.2211 -1.8862 -1.0250
 1341SOL    HW3 5363   1.598   1.265   2.162  1.1495  0.2905 -0.2193
 1341SOL    MW4 5364   1.598   1.256   2.249  0.5945 -0.1264 -0.2626
 1342SOL     OW 5365   1.588   1.512   2.360  0.3499  0.1334  0.2099
 1342SOL    HW2 5366   1.652   1.574   2.325  0.1071  0.7768  0.8911
 1342SOL    HW3 5367   1.618   1.426   2.330 -0.0906  0.6987 -1.9500
 1342SOL    MW4 5368   1.600   1.509   2.351  0.2598  0.2929  0.0148
 1343SOL     OW 5369   1.347   1.654   2.259 -0.4133 -0.1242  0.1151
 1343SOL    HW2 5370   1.420   1.616   2.307  0.1752 -0.0648 -0.7242
 1343SOL    HW3 5371   1.272   1.600   2.284 -0.0716 -0.2461  0.9066
 1343SOL    MW4 5372   1.347   1.642   2.269 -0.2906 -0.1325  0.1088
 1344SOL     OW 5373   1.353   1.929   2.361 -0.2489  0.4888  0.0547
 1344SOL    HW2 5374   1.436   1.966   2.330  0.0386  0.6194  0.9477
 1344SOL    HW3 5375   1.351   1.841   2.325  0.4632  0.3511  0.3341
 1344SOL    MW4 5376   1.364   1.922   2.352 -0.1170  0.4879  0.2094
 1345SOL     OW 5377   1.582   2.041   2.221 -0.2086  0.2011  0.0091
 1345SOL    HW2 5378   1.658   1.984   2.232 -0.5574 -0.2714 -0.0224
 1345SOL    HW3 5379   1.572   2.050   2.126  0.5396  1.2494  0.0211
 1345SOL    MW4 5380   1.591   2.035   2.210 -0.1559  0.2771  0.0065
 1346SOL     OW 5381   1.576   2.295   2.324  0.0288 -0.1604  0.1705
 1346SOL    HW2 5382   1.564   2.282   2.418 -2.3071  0.2343 -0.0487
 1346SOL    HW3 5383   1.593   2.207   2.290  0.3484 -0.3790  0.8704
 1346SOL    MW4 5384   1.577   2.281   2.332 -0.2373 -0.1372  0.2339
 1347SOL     OW 5385   1.376   2.456   2.231  0.2168 -0.3221 -0.0439
 1347SOL    HW2 5386   1.444   2.393   2.251  0.0504 -0.7199 -0.7154
 1347SOL    HW3 5387   1.385   2.472   2.137  0.2697  0.6657  0.1195
 1347SOL    MW4 5388   1.386   2.450   2.221  0.2018 -0.2442 -0.1109
 1348SOL     OW 5389   1.393   2.692   2.360 -0.1872 -0.2751 -0.0251
 1348SOL    HW2 5390   1.453   2.739   2.301 -0.2196 -0.8413 -0.5159
 1348SOL    HW3 5391   1.384   2.605   2.320 -0.7632 -0.4297  0.4413
 1348SOL    MW4 5392   1.400   2.687   2.347 -0.2675 -0.3702 -0.0283
 1349SOL     OW 5393   1.579   2.833   2.218 -0.0660 -0.4120 -0.3433
 1349SOL    HW2 5394   1.582   2.926   2.243  0.0304 -0.7166  0.7830
 1349SOL    HW3 5395   1.587   2.834   2.123 -0.7212  0.7773 -0.3931
 1349SOL    MW4 5396   1.580   2.846   2.209 -0.1397 -0.2953 -0.2012
 1350SOL     OW 5397   1.549   3.081   2.312  0.1413  0.2933 -0.1576
 1350SOL    HW2 5398   1.546   3.084   2.408 -1.9737  2.1084 -0.2342
 1350SOL    HW3 5399   1.466   3.120   2.285  0.8022 -0.0420 -2.7386
 1350SOL    MW4 5400   1.537   3.087   2.321 -0.0506  0.4885 -0.5082
 1351SOL     OW 5401   1.311   3.211   2.256  0.1964 -0.4501 -0.0828
 1351SOL    HW2 5402   1.223   3.175   2.271  0.6789 -1.0787  1.2589
 1351SOL    HW3 5403   1.318   3.216   2.160 -2.4028  2.3051 -0.2127
 1351SOL    MW4 5404   1.300   3.207   2.245 -0.0829 -0.1695  0.0771
 1352SOL     OW 5405   1.379   3.482   2.335 -0.1435  0.1352  0.0673
 1352SOL    HW2 5406   1.369   3.467   2.429  0.9368  1.8145  0.4647
 1352SOL    HW3 5407   1.360   3.396   2.295  0.9032 -0.9877  1.9028
 1352SOL    MW4 5408   1.375   3.468   2.342  0.1372  0.2086  0.3619
 1353SOL     OW 5409   1.591   3.627   2.223 -0.1495 -0.4616 -0.2748
 1353SOL    HW2 5410   1.615   3.706   2.272  0.6450 -0.7147 -0.2454
 1353SOL    HW3 5411   1.537   3.576   2.284  1.2820 -1.0250  0.5515
 1353SOL    MW4 5412   1.587   3.630   2.238  0.1442 -0.5693 -0.1619
 1354SOL     OW 5413   1.609   3.854   2.377 -0.2367 -0.3384 -0.1491
 1354SOL    HW2 5414   1.592   3.873   2.469  0.7294  1.7383 -0.3870
 1354SOL    HW3 5415   1.673   3.920   2.349 -0.1777 -1.2050 -2.1954
 1354SOL    MW4 5416   1.615   3.865   2.385 -0.1014 -0.1788 -0.4505
 1355SOL     OW 5417   1.399   3.998   2.243  0.0065  0.0187  0.3089
 1355SOL    HW2 5418   1.466   3.945   2.286  0.8586  1.2165  0.4968
 1355SOL    HW3 5419   1.415   3.987   2.150 -0.7123 -1.1649  0.3198
 1355SOL    MW4 5420   1.410   3.990   2.237  0.0241  0.0206  0.3351
 1356SOL     OW 5421   1.384   4.275   2.341  0.1721 -0.7617  0.1717
 1356SOL    HW2 5422   1.392   4.184   2.314 -1.2322 -0.8585  0.0859
 1356SOL    HW3 5423   1.297   4.302   2.313  0.0913  0.2382  1.3282
 1356SOL    MW4 5424   1.374   4.267   2.334 -0.0238 -0.6425  0.3129
 1357SOL     OW 5425   1.598   4.421   2.227 -0.4024 -0.4019  0.3471
 1357SOL    HW2 5426   1.518   4.382   2.261  0.1838 -2.5088 -0.5603
 1357SOL    HW3 5427   1.599   4.510   2.261 -3.1731 -0.3257  0.2858
 1357SOL    MW4 5428   1.588   4.427   2.236 -0.6906 -0.6698  0.2193
 1358SOL     OW 5429   2.026   0.005   2.340  0.2316  0.1586 -0.2640
 1358SOL    HW2 5430   2.114   0.038   2.321 -0.3614  1.2093 -1.2545
 1358SOL    HW3 5431   2.030  -0.088   2.316  1.0402  0.2300 -0.4187
 1358SOL    MW4 5432   2.038  -0.003   2.334  0.2601  0.3066 -0.4151
 1359SOL     OW 5433   1.805   0.111   2.254 -0.1866 -0.1159  0.2409
 1359SOL    HW2 5434   1.800   0.200   2.289 -2.4291  0.1834 -0.7375
 1359SOL    HW3 5435   1.889   0.077   2.284 -1.2499  0.7369  4.4181
 1359SOL    MW4 5436   1.815   0.118   2.262 -0.6228  0.0361  0.6629
 1360SOL     OW 5437   1.769   0.361   2.360  0.0555  0.1195  0.2009
 1360SOL    HW2 5438   1.782   0.363   2.455  0.0185  0.4220  0.2016
 1360SOL    HW3 5439   1.849   0.398   2.324 -0.3705  1.0237  0.1612
 1360SOL    MW4 5440   1.781   0.366   2.368 -0.0056  0.2787  0.1957
 1361SOL     OW 5441   2.015   0.464   2.249  0.4585  0.0661  0.8332
 1361SOL    HW2 5442   2.026   0.557   2.271  1.3700  0.6290 -1.8260
 1361SOL    HW3 5443   2.023   0.461   2.154 -1.2571 -2.5253  0.7274
 1361SOL    MW4 5444   2.017   0.476   2.239  0.3524 -0.2016  0.4684
 1362SOL     OW 5445   2.049   0.717   2.379 -0.0223 -0.1868  0.0289
 1362SOL    HW2 5446   2.123   0.767   2.343 -0.1664  0.5929  0.7930
 1362SOL    HW3 5447   1.972   0.763   2.347 -0.1521  0.3719  1.1357
 1362SOL    MW4 5448   2.049   0.730   2.370 -0.0584 -0.0103  0.2757
 1363SOL     OW 5449   1.803   0.832   2.270  0.4543  0.0359 -0.0750
 1363SOL    HW2 5450   1.803   0.925   2.290  2.3090 -0.0547  0.3905
 1363SOL    HW3 5451   1.819   0.827   2.176  2.0744  0.1576  0.1755
 1363SOL    MW4 5452   1.805   0.843   2.261  0.9127  0.0400  0.0194
 1364SOL     OW 5453   1.828   1.109   2.336 -0.2669  0.5700 -0.0476
 1364SOL    HW2 5454   1.899   1.161   2.298 -0.8315  0.7128 -0.9164
 1364SOL    HW3 5455   1.749   1.161   2.321 -0.6801 -0.0053  0.1031
 1364SOL    MW4 5456   1.827   1.123   2.329 -0.3959  0.5130 -0.1424
 1365SOL     OW 5457   2.036   1.272   2.226  0.0245  0.3956 -0.1632
 1365SOL    HW2 5458   2.023   1.363   2.254  1.4686  0.8419 -0.9100
 1365SOL    HW3 5459   2.052   1.278   2.132  0.6526 -0.5913 -0.1235
 1365SOL    MW4 5460   2.036   1.285   2.217  0.2979  0.3242 -0.2565
 1366SOL     OW 5461   2.025   1.541   2.324 -0.1523 -0.2631 -0.2287
 1366SOL    HW2 5462   2.037   1.565   2.416  1.6572  1.5729 -0.9108
 1366SOL    HW3 5463   1.950   1.592   2.295 -0.3419 -0.3781  0.0589
 1366SOL    MW4 5464   2.017   1.551   2.332  0.0614 -0.0360 -0.2808
 1367SOL     OW 5465   1.791   1.659   2.236  0.0251  0.2068 -0.1198
 1367SOL    HW2 5466   1.809   1.750   2.259 -0.5078  0.3215 -0.1491
 1367SOL    HW3 5467   1.789   1.659   2.140 -1.4134  0.4515 -0.0993
 1367SOL    MW4 5468   1.793   1.671   2.226 -0.2350  0.2542 -0.1209
 1368SOL     OW 5469   1.805   1.907   2.329 -0.0183  0.0487 -0.1848
 1368SOL    HW2 5470   1.781   1.896   2.421 -0.6931  1.0343 -0.2389
 1368SOL    HW3 5471   1.876   1.970   2.331 -1.6556  1.9564 -0.5113
 1368SOL    MW4 5472   1.811   1.913   2.342 -0.3233  0.4304 -0.2350
 1369SOL     OW 5473   2.019   2.054   2.225 -0.2439  0.3377  0.4387
 1369SOL    HW2 5474   2.093   2.001   2.254 -0.7668 -0.2193  0.7649
 1369SOL    HW3 5475   2.031   2.062   2.130 -0.0459 -0.1914  0.4168
 1369SOL    MW4 5476   2.030   2.048   2.216 -0.2867  0.1944  0.4788
 1370SOL     OW 5477   2.022   2.304   2.340  0.1003  0.1351  0.1238
 1370SOL    HW2 5478   2.100   2.342   2.300 -1.4296  1.6239 -1.5382
 1370SOL    HW3 5479   2.015   2.216   2.302  0.2789  0.4626 -0.6701
 1370SOL    MW4 5480   2.032   2.297   2.330 -0.0780  0.3748 -0.2002
 1371SOL     OW 5481   1.792   2.435   2.221  0.1759 -0.1666  0.1664
 1371SOL    HW2 5482   1.870   2.389   2.252 -0.2659 -0.5540  0.7215
 1371SOL    HW3 5483   1.719   2.384   2.257 -0.3726 -1.0776 -2.1559
 1371SOL    MW4 5484   1.793   2.422   2.230  0.0452 -0.3379 -0.0668
 1372SOL     OW 5485   1.762   2.674   2.380  0.2412  0.3718  0.4419
 1372SOL    HW2 5486   1.763   2.593   2.329 -0.2013  0.6608 -0.0263
 1372SOL    HW3 5487   1.681   2.717   2.355 -0.1382  0.3646  1.6274
 1372SOL    MW4 5488   1.752   2.669   2.370  0.1327  0.4090  0.5365
 1373SOL     OW 5489   1.946   2.828   2.250  0.2968  0.5733 -0.4082
 1373SOL    HW2 5490   2.026   2.778   2.267 -0.0407 -0.1631 -0.9874
 1373SOL    HW3 5491   1.879   2.785   2.303  0.1597  0.8671 -0.3395
 1373SOL    MW4 5492   1.948   2.816   2.259  0.2342  0.5149 -0.4755
 1374SOL     OW 5493   1.966   3.073   2.381  0.2894 -0.4656 -0.0651
 1374SOL    HW2 5494   2.046   3.110   2.343 -0.0094 -0.1477 -0.3796
 1374SOL    HW3 5495   1.946   2.997   2.326  0.5883 -0.7736  0.2456
 1374SOL    MW4 5496   1.974   3.068   2.369  0.2894 -0.4643 -0.0656
 1375SOL     OW 5497   1.762   3.230   2.225  0.9106 -0.3020 -0.3101
 1375SOL    HW2 5498   1.832   3.200   2.282  1.0073 -0.1980 -0.3750
 1375SOL    HW3 5499   1.684   3.185   2.257  0.9530 -0.1894 -0.0537
 1375SOL    MW4 5500   1.761   3.220   2.237  0.9289 -0.2734 -0.2848
 1376SOL     OW 5501   1.773   3.478   2.370  0.1470  0.5183 -0.6374
 1376SOL    HW2 5502   1.770   3.396   2.321 -0.7387 -0.0443  0.3544
 1376SOL    HW3 5503   1.720   3.538   2.317 -1.2422 -0.2336 -0.1170
 1376SOL    MW4 5504   1.765   3.475   2.356 -0.1531  0.3448 -0.4379
 1377SOL     OW 5505   1.982   3.643   2.270  0.1756 -0.5431 -0.0090
 1377SOL    HW2 5506   1.917   3.590   2.316  0.7025 -0.9736  0.2345
 1377SOL    HW3 5507   1.966   3.624   2.177 -1.8929  1.4761 -0.1271
 1377SOL    MW4 5508   1.971   3.633   2.264 -0.0278 -0.3335  0.0075
 1378SOL     OW 5509   2.019   3.912   2.331 -0.7178  0.6399 -0.0792
 1378SOL    HW2 5510   2.029   3.901   2.426 -0.1933  1.0800 -0.0810
 1378SOL    HW3 5511   2.009   3.823   2.298  1.0891  0.3132  0.1692
 1378SOL    MW4 5512   2.019   3.899   2.339 -0.4102  0.6549 -0.0466
 1379SOL     OW 5513   1.785   4.022   2.262 -0.1781 -0.2160 -0.1629
 1379SOL    HW2 5514   1.869   3.989   2.294 -0.2812 -1.5381 -1.2124
 1379SOL    HW3 5515   1.789   4.009   2.167 -0.0505  3.2132 -0.6850
 1379SOL    MW4 5516   1.797   4.016   2.253 -0.1749  0.0620 -0.3703
 1380SOL     OW 5517   1.801   4.289   2.364  0.4885 -0.2067 -0.0878
 1380SOL    HW2 5518   1.819   4.211   2.313 -0.2707 -0.4376 -0.0045
 1380SOL    HW3 5519   1.729   4.332   2.319  0.7713  0.3428 -0.0226
 1380SOL    MW4 5520   1.794   4.285   2.351  0.4257 -0.1647 -0.0682
 1381SOL     OW 5521   2.051   4.400   2.274  0.4501  0.5810 -0.5860
 1381SOL    HW2 5522   1.971   4.357   2.306  0.2869  1.3080  0.0100
 1381SOL    HW3 5523   2.050   4.386   2.180  0.6101 -1.0645 -0.3595
 1381SOL    MW4 5524   2.040   4.393   2.266  0.4497  0.4598 -0.4774
 1382SOL     OW 5525   2.516   0.014   2.359 -0.3289 -0.5436 -0.1902
 1382SOL    HW2 5526   2.591   0.050   2.311 -0.7944  0.5581 -0.0795
 1382SOL    HW3 5527   2.514  -0.078   2.332  0.9481 -0.5368 -0.3453
 1382SOL    MW4 5528   2.526   0.006   2.349 -0.2218 -0.3974 -0.1961
 1383SOL     OW 5529   2.275   0.088   2.239 -0.2319  0.2867 -0.0143
 1383SOL    HW2 5530   2.266   0.179   2.269 -2.3303  0.4327 -0.9596
 1383SOL    HW3 5531   2.357   0.058   2.278 -0.2152  2.1345  1.4785
 1383SOL    MW4 5532   2.284   0.096   2.248 -0.5066  0.5497  0.0579
 1384SOL     OW 5533   2.258   0.354   2.345 -0.3577 -0.1171 -0.1165
 1384SOL    HW2 5534   2.324   0.412   2.307 -0.6627 -0.5149 -1.2646
 1384SOL    HW3 5535   2.175   0.399   2.332 -0.3760  0.1571  0.8948
 1384SOL    MW4 5536   2.256   0.367   2.338 -0.4004 -0.1334 -0.1345
 1385SOL     OW 5537   2.480   0.480   2.220 -0.1799 -0.6798 -0.4046
 1385SOL    HW2 5538   2.563   0.442   2.247  0.5033  0.0040 -1.4645
 1385SOL    HW3 5539   2.472   0.456   2.127 -1.0010 -0.4610 -0.3925
 1385SOL    MW4 5540   2.490   0.472   2.211 -0.1981 -0.5607 -0.5428
 1386SOL     OW 5541   2.492   0.748   2.339 -0.2423  0.0180  0.4791
 1386SOL    HW2 5542   2.569   0.792   2.304 -0.0716 -0.7730 -0.1444
 1386SOL    HW3 5543   2.490   0.663   2.295 -1.7259  0.2025  0.1359
 1386SOL    MW4 5544   2.502   0.743   2.328 -0.4155 -0.0620  0.3516
 1387SOL     OW 5545   2.243   0.875   2.261  0.5422  0.7599 -0.8821
 1387SOL    HW2 5546   2.254   0.966   2.289  1.2320  0.3654  0.1394
 1387SOL    HW3 5547   2.327   0.834   2.279 -0.2332 -0.4595  0.0625
 1387SOL    MW4 5548   2.255   0.881   2.267  0.5309  0.5469 -0.6227
 1388SOL     OW 5549   2.264   1.153   2.334  0.0633 -0.1409 -0.1183
 1388SOL    HW2 5550   2.336   1.198   2.288  0.1115 -2.7265 -2.6914
 1388SOL    HW3 5551   2.185   1.194   2.299  0.1880  0.5533  0.3947
 1388SOL    MW4 5552   2.263   1.165   2.323  0.0861 -0.3904 -0.3901
 1389SOL     OW 5553   2.478   1.294   2.229  0.3742  0.2218  0.6252
 1389SOL    HW2 5554   2.565   1.269   2.260 -0.3673 -0.5421  2.0884
 1389SOL    HW3 5555   2.457   1.373   2.278  0.1626  0.3256  0.3686
 1389SOL    MW4 5556   2.487   1.301   2.239  0.2485  0.1347  0.7844
 1390SOL     OW 5557   2.458   1.545   2.357 -0.0155 -0.4686 -0.2932
 1390SOL    HW2 5558   2.472   1.575   2.447  1.3544  0.1490 -0.7040
 1390SOL    HW3 5559   2.536   1.574   2.309 -0.2777 -1.6561 -1.4691
 1390SOL    MW4 5560   2.470   1.553   2.363  0.1306 -0.5438 -0.5025
 1391SOL     OW 5561   2.244   1.664   2.202 -0.6188 -0.2171  0.3561
 1391SOL    HW2 5562   2.313   1.623   2.255 -0.2467 -1.1958 -0.8568
 1391SOL    HW3 5563   2.164   1.622   2.232 -0.3561 -1.1074 -0.1526
 1391SOL    MW4 5564   2.243   1.653   2.213 -0.5351 -0.4637  0.1290
 1392SOL     OW 5565   2.230   1.911   2.329 -0.3743 -0.1935  0.2045
 1392SOL    HW2 5566   2.311   1.952   2.301 -0.5751 -0.7436 -1.2236
 1392SOL    HW3 5567   2.231   1.824   2.289 -1.3448 -0.4610  0.7302
 1392SOL    MW4 5568   2.241   1.905   2.320 -0.5288 -0.3014  0.0855
 1393SOL     OW 5569   2.461   2.041   2.217  0.3780  0.4390  0.3989
 1393SOL    HW2 5570   2.538   1.996   2.251 -0.2199 -0.5097  0.5237
 1393SOL    HW3 5571   2.483   2.063   2.126  0.6298 -0.2179  0.3000
 1393SOL    MW4 5572   2.474   2.038   2.209  0.3323  0.2271  0.4023
 1394SOL     OW 5573   2.490   2.290   2.375  0.2139  0.4363  0.4573
 1394SOL    HW2 5574   2.557   2.329   2.320 -2.0733  1.6137 -1.6009
 1394SOL    HW3 5575   2.470   2.206   2.333  0.9516 -0.2713  1.5122
 1394SOL    MW4 5576   2.496   2.284   2.362  0.0095  0.4983  0.3249
 1395SOL     OW 5577   2.254   2.440   2.276  0.3384 -0.1023 -0.2461
 1395SOL    HW2 5578   2.245   2.532   2.303 -0.2159 -0.0459 -0.6172
 1395SOL    HW3 5579   2.337   2.412   2.315  0.7491  0.6985 -0.5249
 1395SOL    MW4 5580   2.264   2.449   2.285  0.3195  0.0108 -0.3319
 1396SOL     OW 5581   2.194   2.712   2.306  0.2207  0.2209 -0.6002
 1396SOL    HW2 5582   2.210   2.718   2.400  1.5193 -0.0195 -0.7998
 1396SOL    HW3 5583   2.256   2.775   2.268 -0.6292  0.6629 -1.2638
 1396SOL    MW4 5584   2.204   2.721   2.313  0.2799  0.2475 -0.7141
 1397SOL     OW 5585   2.419   2.847   2.229 -0.0327  0.3347 -0.2319
 1397SOL    HW2 5586   2.487   2.798   2.274  1.4249  1.3016 -1.3238
 1397SOL    HW3 5587   2.432   2.826   2.136  0.3628  2.4286 -0.6798
 1397SOL    MW4 5588   2.430   2.838   2.222  0.2118  0.7385 -0.4351
 1398SOL     OW 5589   2.403   3.092   2.344  0.2446 -0.9327 -0.4594
 1398SOL    HW2 5590   2.479   3.130   2.301 -1.1696  0.3333 -1.9372
 1398SOL    HW3 5591   2.401   3.001   2.315 -0.3406 -0.2605 -2.6865
 1398SOL    MW4 5592   2.413   3.085   2.334 -0.0192 -0.6770 -0.9482
 1399SOL     OW 5593   2.175   3.222   2.248 -0.4587 -0.0746  0.3281
 1399SOL    HW2 5594   2.191   3.316   2.254 -0.8029 -0.0970  2.2062
 1399SOL    HW3 5595   2.251   3.182   2.291 -1.2348 -0.5536  1.2790
 1399SOL    MW4 5596   2.187   3.229   2.255 -0.6065 -0.1408  0.7014
 1400SOL     OW 5597   2.223   3.505   2.309  0.2384 -0.2166 -0.6131
 1400SOL    HW2 5598   2.230   3.501   2.404  0.0460 -0.8238 -0.6260
 1400SOL    HW3 5599   2.142   3.553   2.293  0.1667 -0.2907 -0.4714
 1400SOL    MW4 5600   2.213   3.511   2.319  0.2035 -0.3065 -0.5961
 1401SOL     OW 5601   2.463   3.608   2.196  0.1639 -0.1785  0.2395
 1401SOL    HW2 5602   2.484   3.685   2.249 -1.6011  1.6793 -1.6412
 1401SOL    HW3 5603   2.378   3.579   2.229  0.0099 -0.2297 -0.1904
 1401SOL    MW4 5604   2.455   3.614   2.207 -0.0893  0.0598 -0.0654
 1402SOL     OW 5605   2.504   3.844   2.349  0.3708  0.2085 -0.2073
 1402SOL    HW2 5606   2.510   3.851   2.444 -2.6913 -2.2801  0.2629
 1402SOL    HW3 5607   2.432   3.902   2.324  0.4503  0.0409 -0.8622
 1402SOL    MW4 5608   2.495   3.852   2.358 -0.0227 -0.1420 -0.2317
 1403SOL     OW 5609   2.277   4.012   2.259 -0.0548 -0.0213  0.2729
 1403SOL    HW2 5610   2.280   4.099   2.298 -2.3440  0.4361 -0.5011
 1403SOL    HW3 5611   2.199   3.971   2.297 -0.8093 -0.5412 -1.7886
 1403SOL    MW4 5612   2.268   4.018   2.269 -0.4564 -0.0295 -0.1012
 1404SOL     OW 5613   2.286   4.254   2.376 -0.1750 -0.0077 -0.1879
 1404SOL    HW2 5614   2.290   4.265   2.471 -0.2152  1.3343 -0.3374
 1404SOL    HW3 5615   2.205   4.299   2.350  0.1151  0.1029 -0.9184
 1404SOL    MW4 5616   2.276   4.261   2.385 -0.1420  0.1840 -0.3040
 1405SOL     OW 5617   2.495   4.418   2.274 -0.2573  0.0621 -0.3537
 1405SOL    HW2 5618   2.580   4.377   2.291  0.1959  1.4801  0.9352
 1405SOL    HW3 5619   2.432   4.361   2.318  0.0647 -0.6788 -0.8248
 1405SOL    MW4 5620   2.498   4.405   2.282 -0.1550  0.1515 -0.2458
 1406SOL     OW 5621   2.916   4.665   2.367 -0.0323 -0.6919  0.3178
 1406SOL    HW2 5622   3.000   4.709   2.352 -0.4421  0.1750  0.5640
 1406SOL    HW3 5623   2.926   4.581   2.322  0.9278 -0.5551  0.2449
 1406SOL    MW4 5624   2.929   4.660   2.359  0.0403 -0.5594  0.3406
 1407SOL     OW 5625   2.728   0.130   2.232 -0.0665 -0.5604  0.7249
 1407SOL    HW2 5626   2.720   0.222   2.255  0.4488 -0.4202  0.3626
 1407SOL    HW3 5627   2.786   0.093   2.300  0.8580 -0.3077  0.0841
 1407SOL    MW4 5628   2.735   0.137   2.244  0.1235 -0.5086  0.5926
 1408SOL     OW 5629   2.694   0.377   2.349 -0.1190  0.8217  0.5568
 1408SOL    HW2 5630   2.701   0.388   2.444 -0.2632  1.3445  0.5110
 1408SOL    HW3 5631   2.779   0.407   2.315  0.3485 -0.4362  0.6041
 1408SOL    MW4 5632   2.706   0.382   2.357 -0.0763  0.7247  0.5570
 1409SOL     OW 5633   2.925   0.470   2.241 -0.1550 -0.2304 -0.3153
 1409SOL    HW2 5634   2.944   0.557   2.276 -0.9943 -0.0925 -0.1981
 1409SOL    HW3 5635   2.918   0.484   2.146 -1.5507  0.0687 -0.1798
 1409SOL    MW4 5636   2.927   0.484   2.233 -0.4499 -0.1727 -0.2819
 1410SOL     OW 5637   2.945   0.729   2.326 -0.2109 -0.3538 -0.0544
 1410SOL    HW2 5638   2.953   0.749   2.419 -0.2212  1.1045 -0.3497
 1410SOL    HW3 5639   2.871   0.781   2.296  0.1966 -0.2984 -1.0034
 1410SOL    MW4 5640   2.936   0.738   2.334 -0.1585 -0.1541 -0.2186
 1411SOL     OW 5641   2.700   0.891   2.244  0.0360 -0.3783  0.2701
 1411SOL    HW2 5642   2.691   0.985   2.260 -2.5027 -0.5725  0.1501
 1411SOL    HW3 5643   2.699   0.884   2.148 -0.4558 -0.5901  0.2920
 1411SOL    MW4 5644   2.699   0.903   2.233 -0.3639 -0.4319  0.2572
 1412SOL     OW 5645   2.730   1.169   2.350  0.2515 -0.1447 -0.1112
 1412SOL    HW2 5646   2.745   1.156   2.443 -0.3470  0.7929  0.1171
 1412SOL    HW3 5647   2.806   1.219   2.320  1.7776 -2.6869 -0.6797
 1412SOL    MW4 5648   2.742   1.174   2.358  0.3738 -0.3564 -0.1561
 1413SOL     OW 5649   2.948   1.301   2.261 -0.1032 -0.2767 -0.6765
 1413SOL    HW2 5650   3.017   1.238   2.284 -1.9239 -1.7362  0.9737
 1413SOL    HW3 5651   2.942   1.294   2.165  0.9109 -1.3313 -0.6915
 1413SOL    MW4 5652   2.957   1.292   2.251 -0.2096 -0.6084 -0.4607
 1414SOL     OW 5653   2.904   1.556   2.369 -0.5289 -0.2130  0.4189
 1414SOL    HW2 5654   2.915   1.549   2.464  0.1604  1.0016  0.4276
 1414SOL    HW3 5655   2.930   1.469   2.337  0.6956 -0.1585  1.2106
 1414SOL    MW4 5656   2.909   1.543   2.377 -0.2764 -0.0456  0.5245
 1415SOL     OW 5657   2.676   1.673   2.278  0.3957  0.0639 -0.2904
 1415SOL    HW2 5658   2.748   1.616   2.306  0.8043  0.3626 -0.7403
 1415SOL    HW3 5659   2.695   1.693   2.187 -0.9162 -0.8515 -0.7640
 1415SOL    MW4 5660   2.688   1.668   2.270  0.2765 -0.0175 -0.4122
 1416SOL     OW 5661   2.687   1.931   2.384 -0.0216  0.1737  0.5517
 1416SOL    HW2 5662   2.689   1.926   2.479  0.7594 -0.3358  0.5095
 1416SOL    HW3 5663   2.688   1.840   2.354  0.3677  0.3407  0.0419
 1416SOL    MW4 5664   2.687   1.919   2.392  0.1328  0.1285  0.4789
 1417SOL     OW 5665   2.885   2.076   2.229  0.4346  0.1796  0.6266
 1417SOL    HW2 5666   2.969   2.035   2.252 -0.0277 -1.0275  0.1645
 1417SOL    HW3 5667   2.819   2.025   2.276 -0.1637  0.2529 -0.1252
 1417SOL    MW4 5668   2.888   2.064   2.238  0.2947  0.0300  0.4664
 1418SOL     OW 5669   2.911   2.323   2.345  0.6332  0.0169  0.3651
 1418SOL    HW2 5670   2.913   2.315   2.441  1.4611  0.2600  0.3736
 1418SOL    HW3 5671   2.895   2.235   2.314  0.9692 -0.1706  0.7124
 1418SOL    MW4 5672   2.909   2.311   2.354  0.7867  0.0242  0.4120
 1419SOL     OW 5673   2.682   2.437   2.231 -0.3367 -0.1504 -0.0178
 1419SOL    HW2 5674   2.766   2.401   2.260 -0.2896 -0.2203 -0.2363
 1419SOL    HW3 5675   2.702   2.476   2.145  0.0936  2.2175  1.1047
 1419SOL    MW4 5676   2.696   2.437   2.223 -0.2737  0.1528  0.1015
 1420SOL     OW 5677   2.628   2.713   2.352 -0.6508  0.3289  0.2202
 1420SOL    HW2 5678   2.702   2.763   2.319  0.4644 -0.3260  1.6792
 1420SOL    HW3 5679   2.647   2.622   2.328 -1.4973  0.2886 -0.3243
 1420SOL    MW4 5680   2.640   2.707   2.345 -0.6153  0.2372  0.3408
 1421SOL     OW 5681   2.862   2.877   2.265 -0.1922  0.1157  0.2370
 1421SOL    HW2 5682   2.862   2.961   2.313  1.1140  0.5514 -0.5069
 1421SOL    HW3 5683   2.873   2.902   2.174 -0.1438 -0.8630 -0.0241
 1421SOL    MW4 5684   2.864   2.892   2.259 -0.0134  0.0440  0.1044
 1422SOL     OW 5685   2.867   3.150   2.380  0.5396 -0.6490 -0.0598
 1422SOL    HW2 5686   2.942   3.172   2.325  0.1077  0.2866 -0.2770
 1422SOL    HW3 5687   2.791   3.176   2.328  0.1612  1.5185  1.5359
 1422SOL    MW4 5688   2.867   3.156   2.366  0.4327 -0.2396  0.1220
 1423SOL     OW 5689   2.615   3.239   2.248 -0.1929  0.0743  0.1604
 1423SOL    HW2 5690   2.608   3.324   2.290 -1.9023 -0.4595  1.0134
 1423SOL    HW3 5691   2.636   3.258   2.157  2.2848  1.2868  0.9326
 1423SOL    MW4 5692   2.617   3.252   2.241 -0.0916  0.1639  0.3748
 1424SOL     OW 5693   2.642   3.485   2.363  0.0071 -0.3221  0.6550
 1424SOL    HW2 5694   2.730   3.504   2.331 -0.0536 -1.6973 -0.3649
 1424SOL    HW3 5695   2.584   3.542   2.311  0.2586  0.4095  1.1626
 1424SOL    MW4 5696   2.646   3.495   2.352  0.0323 -0.4070  0.5874
 1425SOL     OW 5697   2.894   3.611   2.277  0.0058  0.0368  0.0561
 1425SOL    HW2 5698   2.982   3.574   2.276 -0.4118 -0.9490 -0.3166
 1425SOL    HW3 5699   2.908   3.705   2.289  1.2029  0.1127 -1.6557
 1425SOL    MW4 5700   2.907   3.619   2.278  0.1087 -0.0832 -0.2189
 1426SOL     OW 5701   2.937   3.861   2.362 -0.7978  0.0412  0.1342
 1426SOL    HW2 5702   2.949   3.874   2.456 -0.5287  0.9511 -0.0154
 1426SOL    HW3 5703   2.862   3.916   2.339  0.2521  1.2429 -0.4904
 1426SOL    MW4 5704   2.929   3.870   2.371 -0.6238  0.3198  0.0321
 1427SOL     OW 5705   2.718   3.996   2.281 -0.1039 -0.0831  0.1102
 1427SOL    HW2 5706   2.640   3.942   2.293  0.2140 -0.3714  0.9559
 1427SOL    HW3 5707   2.727   4.006   2.187 -0.6569 -0.7946 -0.0200
 1427SOL    MW4 5708   2.709   3.990   2.270 -0.1349 -0.2150  0.2046
 1428SOL     OW 5709   2.725   4.261   2.368 -0.5887  0.1777 -0.0079
 1428SOL    HW2 5710   2.754   4.264   2.459 -1.5597  0.3666  0.3086
 1428SOL    HW3 5711   2.721   4.167   2.347  0.1364  0.1508 -0.0193
 1428SOL    MW4 5712   2.728   4.249   2.378 -0.6211  0.1991  0.0324
 1429SOL     OW 5713   2.919   4.415   2.253  0.1956  0.5878 -0.3678
 1429SOL    HW2 5714   2.998   4.379   2.294  0.0724 -0.8341 -1.3743
 1429SOL    HW3 5715   2.847   4.362   2.288 -0.2620  1.5195  0.1161
 1429SOL    MW4 5716   2.920   4.403   2.263  0.1190  0.5231 -0.4367
 1430SOL     OW 5717   3.391   4.633   2.315 -0.1938 -0.1100 -0.0198
 1430SOL    HW2 5718   3.415   4.631   2.408 -0.2395  1.0919  0.0275
 1430SOL    HW3 5719   3.461   4.682   2.273 -0.4954 -0.1037 -0.5227
 1430SOL    MW4 5720   3.403   4.639   2.322 -0.2396  0.0494 -0.0799
 1431SOL     OW 5721   3.153   0.105   2.299  0.2111  0.2658  0.4422
 1431SOL    HW2 5722   3.172   0.191   2.337  1.4887  0.6914 -1.0981
 1431SOL    HW3 5723   3.238   0.060   2.298  0.0540 -0.0167 -1.1750
 1431SOL    MW4 5724   3.167   0.110   2.304  0.3590  0.2847  0.0256
 1432SOL     OW 5725   3.172   0.388   2.365  0.0822 -0.0267  0.3034
 1432SOL    HW2 5726   3.243   0.431   2.317  0.2925 -0.8641 -0.1621
 1432SOL    HW3 5727   3.092   0.421   2.324  0.2697 -1.3030 -1.1745
 1432SOL    MW4 5728   3.171   0.398   2.353  0.1347 -0.3056  0.0470
 1433SOL     OW 5729   3.375   0.523   2.241  0.1284  0.1896 -0.1455
 1433SOL    HW2 5730   3.451   0.468   2.261 -0.1427 -0.6190 -1.3082
 1433SOL    HW3 5731   3.362   0.513   2.147  0.2273  2.4361 -0.4380
 1433SOL    MW4 5732   3.384   0.514   2.231  0.1057  0.3793 -0.3375
 1434SOL     OW 5733   3.339   0.775   2.355 -0.2413 -0.2579 -0.3599
 1434SOL    HW2 5734   3.420   0.822   2.335 -0.6935  0.7675  0.1497
 1434SOL    HW3 5735   3.355   0.686   2.326  1.1348 -0.1034 -0.1049
 1434SOL    MW4 5736   3.352   0.770   2.348 -0.1194 -0.1022 -0.2591
 1435SOL     OW 5737   3.138   0.913   2.226 -0.2616  0.1469  0.3404
 1435SOL    HW2 5738   3.204   0.857   2.268 -0.3635 -0.1145  0.1503
 1435SOL    HW3 5739   3.055   0.873   2.250 -0.3060 -0.2805 -0.5140
 1435SOL    MW4 5740   3.136   0.900   2.235 -0.2809  0.0560  0.2026
 1436SOL     OW 5741   3.132   1.140   2.361  0.4307 -0.4038  0.3375
 1436SOL    HW2 5742   3.201   1.199   2.331 -0.5284  0.4251 -0.2766
 1436SOL    HW3 5743   3.134   1.066   2.301  0.3937 -0.0963 -0.0400
 1436SOL    MW4 5744   3.141   1.138   2.349  0.2993 -0.2538  0.2067
 1437SOL     OW 5745   3.324   1.306   2.247 -0.1678 -0.0612 -0.2819
 1437SOL    HW2 5746   3.398   1.257   2.283 -0.7559 -1.0240 -0.3708
 1437SOL    HW3 5747   3.322   1.387   2.298  0.0296 -0.6863  0.7267
 1437SOL    MW4 5748   3.333   1.310   2.259 -0.2194 -0.2707 -0.1606
 1438SOL     OW 5749   3.351   1.571   2.335 -0.2566 -0.0051 -0.1767
 1438SOL    HW2 5750   3.341   1.571   2.430 -0.8515  0.3377 -0.2393
 1438SOL    HW3 5751   3.292   1.640   2.304  0.2174  0.1425 -0.7653
 1438SOL    MW4 5752   3.342   1.580   2.343 -0.2725  0.0596 -0.2626
 1439SOL     OW 5753   3.116   1.702   2.241 -0.0991  0.4954 -0.5080
 1439SOL    HW2 5754   3.114   1.798   2.251 -0.8487  0.4704 -0.3887
 1439SOL    HW3 5755   3.038   1.672   2.287  0.8804 -0.2949  0.6778
 1439SOL    MW4 5756   3.105   1.711   2.249 -0.0688  0.3878 -0.3358
 1440SOL     OW 5757   3.123   1.965   2.323  0.1539 -0.6603  0.5158
 1440SOL    HW2 5758   3.135   1.973   2.417 -1.4608  1.2360  0.5811
 1440SOL    HW3 5759   3.198   2.012   2.286  0.0588 -0.2232  0.8698
 1440SOL    MW4 5760   3.135   1.972   2.330 -0.0717 -0.3525  0.5711
 1441SOL     OW 5761   3.343   2.108   2.221 -0.7159 -0.4550  0.1047
 1441SOL    HW2 5762   3.415   2.051   2.248  0.2438  0.3581 -0.7176
 1441SOL    HW3 5763   3.350   2.112   2.126 -1.2261  0.4367  0.1015
 1441SOL    MW4 5764   3.354   2.101   2.212 -0.6566 -0.2301 -0.0042
 1442SOL     OW 5765   3.361   2.343   2.363  0.2674 -0.0879  0.0912
 1442SOL    HW2 5766   3.279   2.384   2.334  0.2953 -0.3878 -0.4070
 1442SOL    HW3 5767   3.366   2.261   2.313  0.8940 -0.0514  0.0930
 1442SOL    MW4 5768   3.351   2.337   2.353  0.3538 -0.1227  0.0257
 1443SOL     OW 5769   3.130   2.453   2.229  0.2692  0.2342 -0.2883
 1443SOL    HW2 5770   3.110   2.542   2.257  0.5765  0.3823 -0.5439
 1443SOL    HW3 5771   3.058   2.400   2.264  0.3112  0.5173  0.2257
 1443SOL    MW4 5772   3.117   2.458   2.237  0.3153  0.2911 -0.2542
 1444SOL     OW 5773   3.096   2.698   2.363  0.1733  0.1952  0.8639
 1444SOL    HW2 5774   3.108   2.690   2.457  0.5904  0.6319  0.8519
 1444SOL    HW3 5775   3.051   2.782   2.351 -1.3248 -0.6106  0.7825
 1444SOL    MW4 5776   3.091   2.708   2.374  0.0306  0.1465  0.8515
 1445SOL     OW 5777   3.334   2.803   2.263  0.0593  0.1507  0.2088
 1445SOL    HW2 5778   3.335   2.889   2.305 -0.2604  0.6520 -0.7965
 1445SOL    HW3 5779   3.265   2.755   2.308 -1.1680  1.1265 -0.5940
 1445SOL    MW4 5780   3.325   2.808   2.274 -0.1448  0.3456 -0.0297
 1446SOL     OW 5781   3.349   3.049   2.382  0.2014  0.2385 -0.0993
 1446SOL    HW2 5782   3.411   3.090   2.322  0.1442 -2.3752 -1.9940
 1446SOL    HW3 5783   3.263   3.078   2.351  0.2766  0.6942  0.1141
 1446SOL    MW4 5784   3.346   3.058   2.370  0.2038 -0.0462 -0.3211
 1447SOL     OW 5785   3.129   3.207   2.254  0.0759  0.0500  0.0803
 1447SOL    HW2 5786   3.146   3.295   2.288  1.3877 -0.1672 -0.0101
 1447SOL    HW3 5787   3.130   3.217   2.159  0.5539 -0.1262  0.0672
 1447SOL    MW4 5788   3.131   3.220   2.246  0.3120 -0.0019  0.0667
 1448SOL     OW 5789   3.138   3.459   2.348 -0.3219  0.4619 -0.0830
 1448SOL    HW2 5790   3.131   3.443   2.442  0.2418 -0.7934 -0.2380
 1448SOL    HW3 5791   3.212   3.518   2.340  0.2315 -0.1804  0.1993
 1448SOL    MW4 5792   3.147   3.464   2.360 -0.1745  0.2115 -0.0662
 1449SOL     OW 5793   3.375   3.608   2.289 -0.0218  0.1445 -0.0633
 1449SOL    HW2 5794   3.445   3.546   2.312 -2.0936 -1.9899  0.6937
 1449SOL    HW3 5795   3.371   3.605   2.193 -1.0455 -2.0169  0.0200
 1449SOL    MW4 5796   3.384   3.599   2.279 -0.4302 -0.4223  0.0475
 1450SOL     OW 5797   3.372   3.878   2.358 -0.1258 -0.4713 -0.3139
 1450SOL    HW2 5798   3.448   3.913   2.310 -0.3847  1.2371  0.4805
 1450SOL    HW3 5799   3.373   3.784   2.339  1.5080 -0.2872 -1.2566
 1450SOL    MW4 5800   3.383   3.870   2.349  0.0556 -0.2216 -0.3334
 1451SOL     OW 5801   3.146   4.028   2.290  0.4908 -0.5354 -0.1250
 1451SOL    HW2 5802   3.224   3.982   2.320 -0.2462 -0.4400  2.0675
 1451SOL    HW3 5803   3.073   3.972   2.319 -0.2914  0.2381 -0.5777
 1451SOL    MW4 5804   3.146   4.014   2.298  0.2904 -0.4207  0.1045
 1452SOL     OW 5805   3.141   4.288   2.368  0.3332  0.3347  0.0253
 1452SOL    HW2 5806   3.217   4.313   2.316  1.2448 -0.8468  0.7382
 1452SOL    HW3 5807   3.121   4.198   2.340 -0.4432  0.4304  0.2493
 1452SOL    MW4 5808   3.148   4.279   2.358  0.3510  0.1915  0.1489
 1453SOL     OW 5809   3.386   4.354   2.228 -0.1533 -0.0570  0.3632
 1453SOL    HW2 5810   3.387   4.444   2.262  0.7589  0.0164  0.1539
 1453SOL    HW3 5811   3.364   4.364   2.135  0.8491  0.0262  0.1315
 1453SOL    MW4 5812   3.383   4.367   2.220  0.0993 -0.0363  0.3050
 1454SOL     OW 5813   3.804   4.629   2.363  0.8487 -0.1038  0.2146
 1454SOL    HW2 5814   3.801   4.637   2.459 -0.2645  1.1462  0.0959
 1454SOL    HW3 5815   3.874   4.689   2.336  1.8752 -1.2406  0.3070
 1454SOL    MW4 5816   3.813   4.638   2.372  0.8373 -0.0889  0.2111
 1455SOL     OW 5817   3.626   0.115   2.206  0.2530  0.0070 -0.8128
 1455SOL    HW2 5818   3.629   0.202   2.248  1.8312  0.4435 -1.7797
 1455SOL    HW3 5819   3.687   0.062   2.257  0.2816 -0.1688 -1.0292
 1455SOL    MW4 5820   3.634   0.120   2.218  0.4650  0.0414 -0.9689
 1456SOL     OW 5821   3.605   0.359   2.310  0.2827  0.2799 -0.0537
 1456SOL    HW2 5822   3.605   0.359   2.406 -1.1007 -0.0487 -0.0377
 1456SOL    HW3 5823   3.683   0.408   2.286  2.1137 -1.9018  1.2347
 1456SOL    MW4 5824   3.615   0.365   2.320  0.3418 -0.0513  0.1184
 1457SOL     OW 5825   3.833   0.494   2.234 -0.0465  0.2924 -0.1518
 1457SOL    HW2 5826   3.826   0.588   2.255  1.1813  0.4874 -0.5816
 1457SOL    HW3 5827   3.821   0.490   2.139  1.5988  0.2177 -0.3764
 1457SOL    MW4 5828   3.830   0.506   2.224  0.3326  0.3082 -0.2381
 1458SOL     OW 5829   3.828   0.763   2.336 -0.2980  0.0711 -0.0576
 1458SOL    HW2 5830   3.827   0.754   2.431  2.0044 -3.6591 -0.3363
 1458SOL    HW3 5831   3.915   0.799   2.315 -1.4085  2.5453 -0.6976
 1458SOL    MW4 5832   3.839   0.767   2.345 -0.1407 -0.0946 -0.1788
 1459SOL     OW 5833   3.576   0.885   2.273  0.0478 -0.6414  0.1415
 1459SOL    HW2 5834   3.659   0.847   2.300  0.2603 -1.0153 -0.9992
 1459SOL    HW3 5835   3.585   0.898   2.178 -0.4265  1.2418  0.3392
 1459SOL    MW4 5836   3.588   0.882   2.264  0.0132 -0.4422  0.0171
 1460SOL     OW 5837   3.564   1.165   2.352 -0.1715 -0.3172  0.4284
 1460SOL    HW2 5838   3.572   1.156   2.447  1.5716 -0.8202  0.2491
 1460SOL    HW3 5839   3.576   1.077   2.318 -0.2684 -0.0578 -0.2984
 1460SOL    MW4 5840   3.567   1.152   2.360  0.0457 -0.3494  0.3089
 1461SOL     OW 5841   3.810   1.306   2.289  0.1777  0.3784 -0.4163
 1461SOL    HW2 5842   3.815   1.392   2.330  1.7290 -0.0927  0.4415
 1461SOL    HW3 5843   3.726   1.270   2.317  0.2700  0.9409  0.5699
 1461SOL    MW4 5844   3.800   1.312   2.298  0.3945  0.3905 -0.1730
 1462SOL     OW 5845   3.808   1.553   2.399 -0.3178  0.4858 -0.0426
 1462SOL    HW2 5846   3.793   1.557   2.494  0.3725 -0.1939  0.1013
 1462SOL    HW3 5847   3.733   1.600   2.361 -0.2434  1.3539  0.8632
 1462SOL    MW4 5848   3.796   1.560   2.407 -0.2169  0.5107  0.0959
 1463SOL     OW 5849   3.591   1.700   2.285  0.1894 -0.3086 -0.1370
 1463SOL    HW2 5850   3.510   1.650   2.298  0.5852 -0.9025  0.0435
 1463SOL    HW3 5851   3.604   1.701   2.191  0.1996 -0.5765 -0.1386
 1463SOL    MW4 5852   3.582   1.694   2.275  0.2430 -0.4223 -0.1134
 1464SOL     OW 5853   3.559   1.977   2.339  0.0205 -0.1189  0.1487
 1464SOL    HW2 5854   3.646   2.013   2.322 -0.4414  0.3970 -1.1471
 1464SOL    HW3 5855   3.566   1.885   2.312 -0.0896  0.1522 -0.8234
 1464SOL    MW4 5856   3.571   1.969   2.333 -0.0550 -0.0150 -0.1505
 1465SOL     OW 5857   3.818   2.061   2.279  0.0147 -0.1398 -0.4764
 1465SOL    HW2 5858   3.889   1.997   2.293  0.1438 -0.1534 -1.1455
 1465SOL    HW3 5859   3.812   2.067   2.183 -0.2578  0.5660 -0.4093
 1465SOL    MW4 5860   3.827   2.053   2.268 -0.0042 -0.0485 -0.5558
 1466SOL     OW 5861   3.865   2.331   2.381  0.2119  0.3011  0.1543
 1466SOL    HW2 5862   3.779   2.371   2.371 -0.1526 -0.6064 -0.4680
 1466SOL    HW3 5863   3.856   2.245   2.339  1.1448 -0.1766  0.9128
 1466SOL    MW4 5864   3.853   2.325   2.374  0.2869  0.1184  0.1723
 1467SOL     OW 5865   3.597   2.452   2.303 -0.2239 -0.2218  0.0222
 1467SOL    HW2 5866   3.512   2.413   2.324 -0.8626  0.8919 -0.4558
 1467SOL    HW3 5867   3.588   2.481   2.212  0.3448  0.7546  0.2705
 1467SOL    MW4 5868   3.585   2.450   2.294 -0.2331  0.0540 -0.0081
 1468SOL     OW 5869   3.555   2.710   2.405  0.0476  0.1361 -0.2084
 1468SOL    HW2 5870   3.567   2.618   2.382  1.6800  0.1093  0.6238
 1468SOL    HW3 5871   3.475   2.737   2.360 -0.1375 -1.5380 -0.8961
 1468SOL    MW4 5872   3.546   2.702   2.396  0.2385 -0.0883 -0.1893
 1469SOL     OW 5873   3.784   2.840   2.289  0.4706 -0.2907  0.3920
 1469SOL    HW2 5874   3.791   2.931   2.316  1.0990 -0.6163  1.3955
 1469SOL    HW3 5875   3.698   2.813   2.319 -0.4436  0.4651 -1.5087
 1469SOL    MW4 5876   3.774   2.848   2.297  0.4329 -0.2339  0.2736
 1470SOL     OW 5877   3.788   3.110   2.380  0.0670  0.0177  0.0004
 1470SOL    HW2 5878   3.802   3.106   2.475  0.0179  0.2001  0.0155
 1470SOL    HW3 5879   3.871   3.142   2.345  0.3780 -0.8794 -0.0976
 1470SOL    MW4 5880   3.801   3.113   2.388  0.1016 -0.0766 -0.0105
 1471SOL     OW 5881   3.558   3.208   2.257 -0.6733 -0.1078 -0.0170
 1471SOL    HW2 5882   3.568   3.302   2.271 -0.9091 -0.0524 -0.2155
 1471SOL    HW3 5883   3.627   3.168   2.310 -1.1306  0.1265  0.7665
 1471SOL    MW4 5884   3.568   3.215   2.266 -0.7648 -0.0696  0.0602
 1472SOL     OW 5885   3.609   3.471   2.345  0.1004  0.1626  0.5503
 1472SOL    HW2 5886   3.602   3.480   2.440  1.6773  2.2908  0.5187
 1472SOL    HW3 5887   3.689   3.519   2.322 -0.2386 -0.3201 -1.8553
 1472SOL    MW4 5888   3.619   3.478   2.354  0.2637  0.3797  0.2287
 1473SOL     OW 5889   3.831   3.604   2.273 -0.0604 -0.0455 -0.3865
 1473SOL    HW2 5890   3.825   3.694   2.305  0.8428  0.0598 -0.4773
 1473SOL    HW3 5891   3.833   3.613   2.177  0.7320 -0.0998 -0.3835
 1473SOL    MW4 5892   3.831   3.617   2.264  0.1633 -0.0388 -0.3981
 1474SOL     OW 5893   3.819   3.868   2.368  0.2560 -0.6461 -0.0136
 1474SOL    HW2 5894   3.817   3.874   2.464  0.8697 -0.6490  0.0059
 1474SOL    HW3 5895   3.884   3.933   2.342 -2.4884  1.9419 -0.6883
 1474SOL    MW4 5896   3.828   3.878   2.377 -0.0251 -0.3050 -0.1001
 1475SOL     OW 5897   3.603   3.984   2.236  0.5198 -0.1115 -0.2266
 1475SOL    HW2 5898   3.609   4.073   2.272  0.3791 -0.2969  0.2556
 1475SOL    HW3 5899   3.680   3.939   2.272  0.3012 -0.3384 -0.0437
 1475SOL    MW4 5900   3.614   3.990   2.246  0.4724 -0.1659 -0.1389
 1476SOL     OW 5901   3.586   4.238   2.359  0.3451  0.1046  0.7088
 1476SOL    HW2 5902   3.664   4.276   2.321 -0.6129  1.8517  0.4603
 1476SOL    HW3 5903   3.514   4.273   2.308 -0.5842 -2.0187  0.4979
 1476SOL    MW4 5904   3.587   4.248   2.347  0.0961  0.0550  0.6482
 1477SOL     OW 5905   3.789   4.390   2.224 -0.3455  0.1772  0.1774
 1477SOL    HW2 5906   3.871   4.361   2.264 -0.2583 -0.1269 -0.2254
 1477SOL    HW3 5907   3.778   4.480   2.255 -1.3784 -0.7515  2.6550
 1477SOL    MW4 5908   3.799   4.398   2.233 -0.4703  0.0145  0.4512
 1478SOL     OW 5909   4.292   4.637   2.337  0.3437 -0.5562  0.2319
 1478SOL    HW2 5910   4.282   4.637   2.432  0.0338  1.6737  0.2205
 1478SOL    HW3 5911   4.355   4.707   2.319 -1.6435  0.8850 -1.3763
 1478SOL    MW4 5912   4.299   4.646   2.347  0.0406 -0.0719  0.0182
 1479SOL     OW 5913   4.055   0.083   2.221  0.5010 -0.1837  0.3594
 1479SOL    HW2 5914   4.064   0.172   2.255  0.4220 -0.1981  0.4182
 1479SOL    HW3 5915   4.133   0.037   2.254 -0.4013 -0.6365  1.9100
 1479SOL    MW4 5916   4.066   0.089   2.230  0.3715 -0.2454  0.5717
 1480SOL     OW 5917   4.046   0.327   2.316 -0.2009  0.0856 -0.3287
 1480SOL    HW2 5918   4.114   0.394   2.305  0.1760  0.2433  2.4090
 1480SOL    HW3 5919   3.965   0.370   2.288  0.7868 -0.0984 -3.6381
 1480SOL    MW4 5920   4.045   0.342   2.311 -0.0209  0.0821 -0.4041
 1481SOL     OW 5921   4.251   0.510   2.284  0.0258 -0.1037  0.1658
 1481SOL    HW2 5922   4.244   0.587   2.340 -0.7599  0.1047 -0.2106
 1481SOL    HW3 5923   4.332   0.467   2.312  0.2885  0.6712  0.6047
 1481SOL    MW4 5924   4.261   0.514   2.295 -0.0432  0.0261  0.1741
 1482SOL     OW 5925   4.281   0.779   2.391  0.3231  0.1082 -0.1662
 1482SOL    HW2 5926   4.202   0.813   2.349 -0.5896 -1.4889  0.2151
 1482SOL    HW3 5927   4.352   0.831   2.354 -0.8244  1.0192 -1.1226
 1482SOL    MW4 5928   4.280   0.790   2.381  0.0513  0.0177 -0.2421
 1483SOL     OW 5929   4.057   0.890   2.251  0.2734 -0.3839 -0.1221
 1483SOL    HW2 5930   4.045   0.977   2.289 -0.1347 -1.0762  1.3757
 1483SOL    HW3 5931   4.049   0.904   2.157  1.3253  1.3732  0.0166
 1483SOL    MW4 5932   4.055   0.904   2.244  0.3583 -0.2434  0.0938
 1484SOL     OW 5933   4.033   1.144   2.357  0.3865 -0.1182 -0.2076
 1484SOL    HW2 5934   4.038   1.145   2.453  0.0018 -0.8825 -0.1676
 1484SOL    HW3 5935   3.955   1.195   2.337  0.6419  0.2995 -0.1239
 1484SOL    MW4 5936   4.023   1.151   2.367  0.3694 -0.1640 -0.1913
 1485SOL     OW 5937   4.243   1.280   2.233  0.0038 -0.3225 -0.3423
 1485SOL    HW2 5938   4.168   1.237   2.272 -0.6840 -0.5543 -1.8795
 1485SOL    HW3 5939   4.319   1.237   2.272 -0.6544 -0.5683  0.6799
 1485SOL    MW4 5940   4.243   1.269   2.243 -0.1737 -0.3855 -0.4103
 1486SOL     OW 5941   4.260   1.533   2.352  0.1440  0.0275  0.2650
 1486SOL    HW2 5942   4.266   1.448   2.308 -0.6232  0.4112 -0.6242
 1486SOL    HW3 5943   4.336   1.582   2.320  0.0149  0.0324 -0.0402
 1486SOL    MW4 5944   4.271   1.528   2.342  0.0257  0.0788  0.1074
 1487SOL     OW 5945   4.028   1.658   2.249 -0.0295 -0.1396  0.0159
 1487SOL    HW2 5946   4.102   1.608   2.283 -0.6185  0.2527  1.9543
 1487SOL    HW3 5947   3.954   1.631   2.303 -1.0123  0.5361 -0.9655
 1487SOL    MW4 5948   4.028   1.648   2.261 -0.2369  0.0013  0.1422
 1488SOL     OW 5949   4.081   1.932   2.311  0.4310 -0.6038 -0.4866
 1488SOL    HW2 5950   4.074   1.933   2.407  1.6892 -1.2229 -0.3784
 1488SOL    HW3 5951   4.076   1.839   2.288 -1.6056 -0.3526 -1.1785
 1488SOL    MW4 5952   4.079   1.919   2.321  0.3283 -0.6524 -0.5636
 1489SOL     OW 5953   4.284   2.089   2.229 -0.2106  0.3250  0.2952
 1489SOL    HW2 5954   4.264   2.172   2.273 -0.6768  0.1732  0.3723
 1489SOL    HW3 5955   4.211   2.031   2.253 -1.4807  0.8073 -2.2016
 1489SOL    MW4 5956   4.272   2.092   2.238 -0.4396  0.3686 -0.0241
 1490SOL     OW 5957   4.271   2.336   2.373  0.1776 -0.3824  0.0787
 1490SOL    HW2 5958   4.200   2.389   2.336  0.6980  1.0378  1.0799
 1490SOL    HW3 5959   4.346   2.355   2.315  0.4266  0.1814  0.5785
 1490SOL    MW4 5960   4.272   2.346   2.360  0.2791 -0.1206  0.2767
 1491SOL     OW 5961   4.064   2.479   2.253 -0.0725 -0.0608  0.2602
 1491SOL    HW2 5962   4.032   2.568   2.270 -0.5695 -0.2498  0.3222
 1491SOL    HW3 5963   3.994   2.422   2.284 -0.0179 -0.4618 -0.3483
 1491SOL    MW4 5964   4.050   2.483   2.259 -0.1309 -0.1387  0.1881
 1492SOL     OW 5965   4.033   2.734   2.353 -0.4727 -0.3456  0.3552
 1492SOL    HW2 5966   4.044   2.727   2.448  2.0309  0.5648  0.1715
 1492SOL    HW3 5967   3.949   2.778   2.342 -0.3222  0.4576  2.1815
 1492SOL    MW4 5968   4.023   2.739   2.364 -0.1225 -0.1195  0.5719
 1493SOL     OW 5969   4.274   2.831   2.265 -0.2207 -0.3752  0.3424
 1493SOL    HW2 5970   4.211   2.789   2.323  0.9963 -1.4227  0.9372
 1493SOL    HW3 5971   4.357   2.787   2.284  0.8556  1.5064  0.1464
 1493SOL    MW4 5972   4.277   2.820   2.275  0.0819 -0.2651  0.3951
 1494SOL     OW 5973   4.281   3.072   2.372  0.0024  0.4317  0.2113
 1494SOL    HW2 5974   4.274   2.985   2.332 -0.9799  0.2652  0.7145
 1494SOL    HW3 5975   4.351   3.116   2.323 -0.8346  0.0676 -1.3261
 1494SOL    MW4 5976   4.290   3.066   2.361 -0.2376  0.3617  0.0749
 1495SOL     OW 5977   4.050   3.206   2.286  0.4199  0.1273  0.0716
 1495SOL    HW2 5978   4.074   3.295   2.313  1.2911 -0.0172 -0.2348
 1495SOL    HW3 5979   4.112   3.149   2.331 -1.2120 -0.4739  1.6458
 1495SOL    MW4 5980   4.061   3.211   2.296  0.3195  0.0289  0.2389
 1496SOL     OW 5981   4.054   3.468   2.358  0.2530 -0.3426 -0.4983
 1496SOL    HW2 5982   4.126   3.521   2.326  0.3494  0.7288  1.4144
 1496SOL    HW3 5983   3.975   3.517   2.336  0.2202 -0.5242 -0.7836
 1496SOL    MW4 5984   4.053   3.481   2.351  0.2614 -0.2252 -0.2836
 1497SOL     OW 5985   4.256   3.613   2.249 -0.4522  0.5019  0.2250
 1497SOL    HW2 5986   4.250   3.698   2.291  1.1827  0.2683  0.9934
 1497SOL    HW3 5987   4.239   3.631   2.156 -0.2855  1.6332  0.4060
 1497SOL    MW4 5988   4.253   3.627   2.242 -0.2145  0.6203  0.3503
 1498SOL     OW 5989   4.259   3.860   2.344  0.2542 -0.0517 -0.0077
 1498SOL    HW2 5990   4.272   3.860   2.438 -0.9473  0.4543  0.1587
 1498SOL    HW3 5991   4.340   3.899   2.309  0.7075 -0.2606  0.8049
 1498SOL    MW4 5992   4.272   3.865   2.352  0.1555 -0.0125  0.1214
 1499SOL     OW 5993   4.029   4.006   2.256 -0.1201 -0.2595 -0.2611
 1499SOL    HW2 5994   4.095   3.953   2.301  0.0584  1.2497  1.3560
 1499SOL    HW3 5995   4.042   3.988   2.163  0.9579 -1.8369  0.1791
 1499SOL    MW4 5996   4.040   3.997   2.250  0.0457 -0.2685  0.0103
 1500SOL     OW 5997   4.029   4.278   2.311 -0.7954  0.2983  0.2364
 1500SOL    HW2 5998   4.107   4.320   2.274 -0.8721 -0.3855 -0.7338
 1500SOL    HW3 5999   4.033   4.188   2.278 -2.5683  0.5523 -0.7484
 1500SOL    MW4 6000   4.040   4.272   2.302 -1.0394  0.2416 -0.0215
 1501SOL     OW 6001   4.275   4.385   2.232  0.1515  0.0347  0.2448
 1501SOL    HW2 6002   4.301   4.469   2.271  0.8358 -0.3849  0.6916
 1501SOL    HW3 6003   4.341   4.323   2.262 -0.7828 -0.8335  0.5483
 1501SOL    MW4 6004   4.287   4.388   2.241  0.1185 -0.1352  0.3438
 1502SOL     OW 6005   0.236   4.652   2.627  0.2924 -0.3405  0.3073
 1502SOL    HW2 6006   0.267   4.575   2.674  2.4440  0.4336  0.2133
 1502SOL    HW3 6007   0.155   4.677   2.672  0.4173 -1.7165  1.3169
 1502SOL    MW4 6008   0.230   4.645   2.639  0.5928 -0.4199  0.4281
 1503SOL     OW 6009   0.011   0.103   2.722  0.0782  0.1769  0.1529
 1503SOL    HW2 6010  -0.010   0.081   2.813 -3.4181 -1.2882 -0.8926
 1503SOL    HW3 6011   0.019   0.199   2.722 -1.0307  0.3020  1.8207
 1503SOL    MW4 6012   0.009   0.113   2.734 -0.5294  0.0001  0.2350
 1504SOL     OW 6013   4.490   0.373   2.655  0.8631  0.2217  0.1440
 1504SOL    HW2 6014   4.569   0.427   2.666 -0.5754  2.3465  0.4479
 1504SOL    HW3 6015   4.463   0.390   2.564  0.3771  0.0323  0.2558
 1504SOL    MW4 6016   4.497   0.383   2.644  0.6092  0.4771  0.1989
 1505SOL     OW 6017   0.216   0.546   2.709 -0.2987 -0.4081  0.6497
 1505SOL    HW2 6018   0.193   0.532   2.800  0.9900  0.7688  1.1797
 1505SOL    HW3 6019   0.294   0.493   2.695 -1.0383 -1.3205 -0.0319
 1505SOL    MW4 6020   0.224   0.537   2.719 -0.2262 -0.3732  0.6297
 1506SOL     OW 6021   0.235   0.811   2.630  0.1255  0.1295  0.0993
 1506SOL    HW2 6022   0.321   0.849   2.646  0.2760  0.0555 -0.5197
 1506SOL    HW3 6023   0.245   0.718   2.650  0.7513 -0.2730 -1.9819
 1506SOL    MW4 6024   0.248   0.804   2.635  0.2279  0.0667 -0.2570
 1507SOL     OW 6025   0.010   0.901   2.750  0.5094  0.0397 -0.0685
 1507SOL    HW2 6026  -0.062   0.841   2.727 -0.2960  0.5921  0.9651
 1507SOL    HW3 6027   0.088   0.860   2.712 -0.4171 -0.3220 -1.6377
 1507SOL    MW4 6028   0.011   0.888   2.742  0.2809  0.0649 -0.1391
 1508SOL     OW 6029   0.010   1.145   2.633  0.3966 -0.0608 -0.4307
 1508SOL    HW2 6030   0.090   1.184   2.669  0.7151 -0.6505 -0.4857
 1508SOL    HW3 6031   0.003   1.059   2.676 -1.2551  0.7590  0.9937
 1508SOL    MW4 6032   0.020   1.139   2.643  0.2207 -0.0304 -0.2500
 1509SOL     OW 6033   0.243   1.266   2.727  0.2415  0.3941 -0.0507
 1509SOL    HW2 6034   0.329   1.245   2.691  0.5069  0.7661  0.3734
 1509SOL    HW3 6035   0.231   1.359   2.708 -0.6960  0.0133 -1.4214
 1509SOL    MW4 6036   0.253   1.275   2.720  0.1528  0.3929 -0.1756
 1510SOL     OW 6037   0.201   1.521   2.610  0.2542 -0.0739 -0.1734
 1510SOL    HW2 6038   0.269   1.583   2.634  0.2494  0.3329 -1.1897
 1510SOL    HW3 6039   0.119   1.562   2.638  0.1178  1.0380 -2.0951
 1510SOL    MW4 6040   0.199   1.534   2.617  0.2355  0.1265 -0.5611
 1511SOL     OW 6041   4.462   1.645   2.716 -0.4102  0.3351 -0.3693
 1511SOL    HW2 6042   4.475   1.650   2.810  1.3997 -0.4256 -0.5605
 1511SOL    HW3 6043   4.460   1.736   2.687 -1.9691  0.5979  0.5138
 1511SOL    MW4 6044   4.464   1.658   2.724 -0.3771  0.2694 -0.2780
 1512SOL     OW 6045   4.461   1.919   2.643 -0.2653  0.1369  0.3993
 1512SOL    HW2 6046   4.540   1.962   2.677 -0.0726 -0.1312  0.2869
 1512SOL    HW3 6047   4.470   1.923   2.548  0.1917 -0.9699  0.3903
 1512SOL    MW4 6048   4.473   1.925   2.635 -0.1796 -0.0445  0.3833
 1513SOL     OW 6049   0.183   2.058   2.717 -0.2917 -0.2917 -0.2857
 1513SOL    HW2 6050   0.265   2.023   2.683  0.3330  0.4313  0.4452
 1513SOL    HW3 6051   0.168   2.138   2.666  0.1650  0.2945  0.4797
 1513SOL    MW4 6052   0.192   2.064   2.706 -0.1490 -0.1190 -0.0883
 1514SOL     OW 6053   0.200   2.303   2.589 -0.2994 -0.0566 -0.1163
 1514SOL    HW2 6054   0.288   2.335   2.609 -0.5431  0.2759  0.4489
 1514SOL    HW3 6055   0.142   2.362   2.637 -0.7647 -1.2596  0.8210
 1514SOL    MW4 6056   0.204   2.315   2.598 -0.3930 -0.1715  0.0819
 1515SOL     OW 6057   0.014   2.430   2.764  0.2967 -0.1849 -0.2853
 1515SOL    HW2 6058   0.003   2.442   2.859 -0.2439  1.8650 -0.5822
 1515SOL    HW3 6059  -0.056   2.369   2.740 -0.6072  0.5768  0.3741
 1515SOL    MW4 6060   0.003   2.423   2.774  0.1061  0.1861 -0.2374
 1516SOL     OW 6061   0.027   2.675   2.626  0.3074  0.1446  0.2951
 1516SOL    HW2 6062  -0.048   2.733   2.637 -0.1782 -0.4708  0.2240
 1516SOL    HW3 6063   0.009   2.601   2.684  1.4748  0.6011  1.2706
 1516SOL    MW4 6064   0.015   2.673   2.635  0.3974  0.1236  0.4144
 1517SOL     OW 6065   0.264   2.821   2.710 -0.2835 -0.5535 -0.5175
 1517SOL    HW2 6066   0.252   2.911   2.680  0.3831 -0.3059 -0.0452
 1517SOL    HW3 6067   0.191   2.773   2.671 -0.3630  0.0930 -1.1772
 1517SOL    MW4 6068   0.253   2.827   2.701 -0.2060 -0.4355 -0.5423
 1518SOL     OW 6069   0.236   3.090   2.634 -0.3285  0.3574  0.5307
 1518SOL    HW2 6070   0.308   3.146   2.662 -0.2576  0.7184 -0.3473
 1518SOL    HW3 6071   0.234   3.100   2.539  0.8078 -2.4768  0.1595
 1518SOL    MW4 6072   0.246   3.099   2.625 -0.1692  0.0311  0.3658
 1519SOL     OW 6073   4.475   3.231   2.762  0.1161 -0.0521  0.4305
 1519SOL    HW2 6074   4.396   3.192   2.725 -0.3329 -0.3589  1.7041
 1519SOL    HW3 6075   4.544   3.168   2.740 -0.6595 -1.7886  2.7333
 1519SOL    MW4 6076   4.474   3.217   2.754 -0.0455 -0.3217  0.9024
 1520SOL     OW 6077   0.004   3.465   2.624 -0.4611 -0.3934 -0.2624
 1520SOL    HW2 6078   0.081   3.514   2.655  0.2317 -0.3800 -1.9355
 1520SOL    HW3 6079   0.008   3.382   2.672 -0.5118  0.3849  1.1138
 1520SOL    MW4 6080   0.015   3.461   2.635 -0.3764 -0.2889 -0.3016
 1521SOL     OW 6081   0.215   3.620   2.712 -0.1449  0.4895 -0.0570
 1521SOL    HW2 6082   0.220   3.611   2.807 -1.8121 -0.6950 -0.0522
 1521SOL    HW3 6083   0.302   3.597   2.681  0.1731  0.0645  1.1372
 1521SOL    MW4 6084   0.227   3.616   2.721 -0.3229  0.2772  0.1012
 1522SOL     OW 6085   0.188   3.894   2.626 -0.3661  0.4225  0.1645
 1522SOL    HW2 6086   0.196   3.802   2.652 -1.6254  0.3667  0.3834
 1522SOL    HW3 6087   0.217   3.896   2.535 -0.8877 -0.3089 -0.0236
 1522SOL    MW4 6088   0.193   3.882   2.617 -0.6011  0.3186  0.1685
 1523SOL     OW 6089   4.466   4.018   2.737  0.3576  0.4280  0.3110
 1523SOL    HW2 6090   4.479   4.109   2.710  0.4714  0.1786 -0.4681
 1523SOL    HW3 6091   4.531   3.968   2.689  0.0468 -0.1228  0.4490
 1523SOL    MW4 6092   4.476   4.023   2.727  0.3316  0.3224  0.2264
 1524SOL     OW 6093   0.004   4.275   2.630 -0.2669  0.6071 -0.0064
 1524SOL    HW2 6094  -0.064   4.331   2.666  0.6558  0.5639  1.9051
 1524SOL    HW3 6095   0.084   4.305   2.673  0.6876 -0.2862 -1.1351
 1524SOL    MW4 6096   0.006   4.286   2.641 -0.0192  0.4835  0.0969
 1525SOL     OW 6097   0.243   4.382   2.738  0.4591 -0.1539  0.0127
 1525SOL    HW2 6098   0.267   4.395   2.829  0.5759 -0.3734  0.0141
 1525SOL    HW3 6099   0.311   4.324   2.703 -0.4509 -1.3522  0.2001
 1525SOL    MW4 6100   0.255   4.376   2.745  0.3545 -0.3410  0.0376
 1526SOL     OW 6101   0.662   4.640   2.596 -0.2074 -0.0366  0.0809
 1526SOL    HW2 6102   0.740   4.686   2.626  0.9002 -1.8949  0.0825
 1526SOL    HW3 6103   0.589   4.694   2.628  1.0505  2.3856 -1.0103
 1526SOL    MW4 6104   0.662   4.653   2.604  0.1047  0.0378 -0.0629
 1527SOL     OW 6105   0.466   0.109   2.724 -0.6098  0.2996  0.3444
 1527SOL    HW2 6106   0.470   0.095   2.819 -0.5611 -1.0867  0.1529
 1527SOL    HW3 6107   0.380   0.075   2.698 -0.7802  1.0259 -0.0553
 1527SOL    MW4 6108   0.455   0.102   2.733 -0.6259  0.2126  0.2664
 1528SOL     OW 6109   0.423   0.383   2.638  0.0879 -0.1311 -0.0889
 1528SOL    HW2 6110   0.502   0.430   2.667 -0.9764  0.3694  2.0804
 1528SOL    HW3 6111   0.439   0.292   2.663  0.1152 -0.0795  0.0863
 1528SOL    MW4 6112   0.436   0.377   2.645 -0.0489 -0.0583  0.2205
 1529SOL     OW 6113   0.669   0.512   2.693 -0.1584  0.2280 -0.1232
 1529SOL    HW2 6114   0.657   0.520   2.787  0.2463  1.3155 -0.1582
 1529SOL    HW3 6115   0.760   0.484   2.683 -0.5693 -1.1510 -0.1484
 1529SOL    MW4 6116   0.680   0.509   2.704 -0.1592  0.1896 -0.1312
 1530SOL     OW 6117   0.695   0.793   2.602  0.1868  0.2866 -0.0680
 1530SOL    HW2 6118   0.778   0.821   2.640 -0.0626 -1.1411  1.5727
 1530SOL    HW3 6119   0.682   0.705   2.636 -1.9109  0.4332 -0.4654
 1530SOL    MW4 6120   0.704   0.785   2.611 -0.1228  0.1176  0.0960
 1531SOL     OW 6121   0.472   0.904   2.732  0.2421  0.9893 -0.1887
 1531SOL    HW2 6122   0.454   0.985   2.684 -0.0394 -0.0004 -1.7892
 1531SOL    HW3 6123   0.546   0.865   2.686  1.0281  0.8354  1.1966
 1531SOL    MW4 6124   0.479   0.910   2.719  0.3086  0.8384 -0.2171
 1532SOL     OW 6125   0.476   1.172   2.629 -0.6187 -0.5070  0.0953
 1532SOL    HW2 6126   0.567   1.194   2.649 -0.0860 -1.4770 -1.2308
 1532SOL    HW3 6127   0.469   1.181   2.534 -2.0101 -0.0883  0.2288
 1532SOL    MW4 6128   0.487   1.176   2.619 -0.7320 -0.5798 -0.0620
 1533SOL     OW 6129   0.721   1.294   2.714 -0.2546  0.2352 -0.0583
 1533SOL    HW2 6130   0.746   1.310   2.805 -0.4913  1.9126 -0.2895
 1533SOL    HW3 6131   0.803   1.264   2.673  0.0381  0.2358  0.5135
 1533SOL    MW4 6132   0.735   1.292   2.721 -0.2472  0.4566 -0.0134
 1534SOL     OW 6133   0.653   1.548   2.625 -0.1560 -0.1470 -0.5095
 1534SOL    HW2 6134   0.571   1.578   2.666 -0.3612 -0.6155 -0.5746
 1534SOL    HW3 6135   0.670   1.463   2.665 -0.5203 -0.7509 -1.6054
 1534SOL    MW4 6136   0.644   1.541   2.636 -0.2312 -0.2885 -0.6627
 1535SOL     OW 6137   0.415   1.661   2.712  0.0946  0.4096 -0.0253
 1535SOL    HW2 6138   0.415   1.668   2.807  1.0118 -1.0245  0.1024
 1535SOL    HW3 6139   0.397   1.750   2.681 -2.1182  0.5177  1.4824
 1535SOL    MW4 6140   0.413   1.674   2.720 -0.0763  0.2347  0.1905
 1536SOL     OW 6141   0.419   1.925   2.619 -0.0137  0.0520  0.0451
 1536SOL    HW2 6142   0.509   1.941   2.648 -0.3021  1.7051  0.0515
 1536SOL    HW3 6143   0.419   1.947   2.526 -0.3316 -0.2794 -0.0334
 1536SOL    MW4 6144   0.431   1.930   2.611 -0.0937  0.2264  0.0356
 1537SOL     OW 6145   0.663   2.023   2.693  0.0333 -0.4063 -0.0569
 1537SOL    HW2 6146   0.668   2.051   2.785 -0.7531 -1.4878  0.3209
 1537SOL    HW3 6147   0.736   1.963   2.682  0.9732  0.7851 -0.5370
 1537SOL    MW4 6148   0.673   2.019   2.704  0.0535 -0.3918 -0.0704
 1538SOL     OW 6149   0.692   2.303   2.613 -0.8179  0.0443 -0.2064
 1538SOL    HW2 6150   0.759   2.355   2.658 -0.3037  0.6505 -1.6130
 1538SOL    HW3 6151   0.700   2.216   2.651 -0.1871  0.4627  0.6478
 1538SOL    MW4 6152   0.702   2.299   2.624 -0.6668  0.1795 -0.2793
 1539SOL     OW 6153   0.453   2.420   2.690 -0.0137 -0.0874 -0.0004
 1539SOL    HW2 6154   0.456   2.508   2.653 -2.3568 -0.4294 -1.0332
 1539SOL    HW3 6155   0.533   2.377   2.657  1.0981  1.6012  0.4504
 1539SOL    MW4 6156   0.464   2.426   2.681 -0.1761  0.0903 -0.0772
 1540SOL     OW 6157   0.479   2.687   2.623  0.2614  0.2350  0.0662
 1540SOL    HW2 6158   0.557   2.726   2.663 -0.0443  0.2887  0.6239
 1540SOL    HW3 6159   0.407   2.739   2.658 -0.0207  0.1795 -0.4409
 1540SOL    MW4 6160   0.480   2.699   2.633  0.1838  0.2347  0.0728
 1541SOL     OW 6161   0.704   2.852   2.715 -0.3338 -0.3193  0.0866
 1541SOL    HW2 6162   0.692   2.841   2.809 -1.1487 -0.5815 -0.0482
 1541SOL    HW3 6163   0.698   2.947   2.701  2.6858  0.0288  0.6863
 1541SOL    MW4 6164   0.702   2.863   2.726 -0.0430 -0.3080  0.1479
 1542SOL     OW 6165   0.687   3.127   2.667  0.1899  0.3291 -0.5416
 1542SOL    HW2 6166   0.763   3.176   2.698 -0.1074  1.0113 -0.8816
 1542SOL    HW3 6167   0.686   3.142   2.572 -1.2995  1.6786 -0.3414
 1542SOL    MW4 6168   0.697   3.136   2.659 -0.0458  0.5971 -0.5600
 1543SOL     OW 6169   0.444   3.252   2.733 -0.2734 -0.6801 -0.2948
 1543SOL    HW2 6170   0.424   3.245   2.826 -0.0136  2.1655  0.0229
 1543SOL    HW3 6171   0.521   3.196   2.720  0.0001 -0.6851  1.3141
 1543SOL    MW4 6172   0.452   3.244   2.743 -0.2030 -0.3053 -0.0406
 1544SOL     OW 6173   0.464   3.510   2.650 -0.5973  0.2597  0.3142
 1544SOL    HW2 6174   0.455   3.419   2.675  1.1655  0.2122  0.8384
 1544SOL    HW3 6175   0.473   3.508   2.555 -1.1874 -0.0644  0.2672
 1544SOL    MW4 6176   0.464   3.498   2.641 -0.4426  0.2107  0.3771
 1545SOL     OW 6177   0.697   3.629   2.737 -0.1467 -0.0628 -0.3350
 1545SOL    HW2 6178   0.694   3.626   2.832 -0.5028  0.0781 -0.3435
 1545SOL    HW3 6179   0.611   3.597   2.709  0.0952 -0.4710 -0.6149
 1545SOL    MW4 6180   0.685   3.624   2.746 -0.1617 -0.0981 -0.3731
 1546SOL     OW 6181   0.664   3.869   2.623  0.3261  0.4064  0.1280
 1546SOL    HW2 6182   0.579   3.901   2.654  0.0550  0.5416 -0.7372
 1546SOL    HW3 6183   0.678   3.788   2.670 -0.3352  0.3361  0.2071
 1546SOL    MW4 6184   0.654   3.863   2.633  0.2031  0.4149  0.0243
 1547SOL     OW 6185   0.424   3.997   2.741  0.0575 -0.0783  0.2584
 1547SOL    HW2 6186   0.446   4.087   2.716 -0.3055 -0.3342 -1.0171
 1547SOL    HW3 6187   0.336   3.983   2.708 -0.1140 -0.7122  0.9719
 1547SOL    MW4 6188   0.416   4.007   2.734 -0.0130 -0.1957  0.1843
 1548SOL     OW 6189   0.459   4.250   2.620  0.0044  0.1317 -0.4675
 1548SOL    HW2 6190   0.541   4.291   2.643  0.5477 -1.6533  0.8953
 1548SOL    HW3 6191   0.451   4.263   2.525  1.2518  1.3450 -0.4097
 1548SOL    MW4 6192   0.469   4.257   2.610  0.2406  0.0563 -0.2800
 1549SOL     OW 6193   0.665   4.400   2.710  0.6661  0.1218  0.3836
 1549SOL    HW2 6194   0.748   4.366   2.678  0.5607  0.2240 -0.0012
 1549SOL    HW3 6195   0.655   4.484   2.666 -0.5021 -0.7018 -0.9995
 1549SOL    MW4 6196   0.674   4.406   2.700  0.4981  0.0266  0.1504
 1550SOL     OW 6197   1.145   4.632   2.597  0.6177 -0.2179  0.3344
 1550SOL    HW2 6198   1.228   4.670   2.625  0.7258  1.1125 -1.6488
 1550SOL    HW3 6199   1.146   4.543   2.633  1.4614  0.8301  2.9838
 1550SOL    MW4 6200   1.156   4.625   2.605  0.7433  0.0959  0.4223
 1551SOL     OW 6201   0.899   0.080   2.689  0.2435 -0.0484  0.5513
 1551SOL    HW2 6202   0.893   0.092   2.784  0.5327 -2.0525  0.8401
 1551SOL    HW3 6203   0.991   0.055   2.674  0.2270  0.3718 -0.2697
 1551SOL    MW4 6204   0.911   0.078   2.700  0.2795 -0.2574  0.4811
 1552SOL     OW 6205   0.904   0.364   2.627 -0.1177  0.0884 -0.0627
 1552SOL    HW2 6206   0.898   0.271   2.649 -1.3599  0.4907  1.4004
 1552SOL    HW3 6207   0.895   0.366   2.532 -0.6553 -1.2494 -0.0611
 1552SOL    MW4 6208   0.902   0.352   2.617 -0.3525 -0.0350  0.1305
 1553SOL     OW 6209   1.136   0.487   2.740 -0.1433 -0.0013  0.5066
 1553SOL    HW2 6210   1.128   0.579   2.713  1.8203 -0.0129 -0.1884
 1553SOL    HW3 6211   1.055   0.446   2.711  0.2783  0.8322 -1.9644
 1553SOL    MW4 6212   1.125   0.494   2.733  0.1714  0.1072  0.0889
 1554SOL     OW 6213   1.139   0.758   2.645  0.0069 -0.0054  0.0949
 1554SOL    HW2 6214   1.217   0.791   2.690  0.2546 -0.2183 -0.1833
 1554SOL    HW3 6215   1.148   0.788   2.555  1.0061 -2.1102 -0.5559
 1554SOL    MW4 6216   1.151   0.766   2.639  0.1714 -0.3112 -0.0277
 1555SOL     OW 6217   0.931   0.923   2.695 -0.0872 -0.1941  0.0508
 1555SOL    HW2 6218   0.938   0.936   2.789 -0.3940 -0.6150  0.1324
 1555SOL    HW3 6219   1.008   0.870   2.672  0.1369  0.1442  0.0199
 1555SOL    MW4 6220   0.942   0.917   2.704 -0.0981 -0.2050  0.0575
 1556SOL     OW 6221   0.942   1.179   2.595  0.2958 -0.9281 -0.0243
 1556SOL    HW2 6222   0.946   1.089   2.629 -0.2796 -0.9256  0.0517
 1556SOL    HW3 6223   0.935   1.168   2.500  1.0275 -0.9481 -0.0805
 1556SOL    MW4 6224   0.942   1.165   2.587  0.3165 -0.9304 -0.0217
 1557SOL     OW 6225   1.158   1.281   2.730  0.3246  0.2400  0.2060
 1557SOL    HW2 6226   1.150   1.377   2.730  1.9044  0.3873 -0.4857
 1557SOL    HW3 6227   1.078   1.251   2.687 -0.3425  1.2356  0.7310
 1557SOL    MW4 6228   1.146   1.290   2.724  0.4451  0.3908  0.1840
 1558SOL     OW 6229   1.149   1.549   2.641  0.0625 -0.3292  0.5209
 1558SOL    HW2 6230   1.064   1.566   2.681 -0.3415 -2.3934  0.6157
 1558SOL    HW3 6231   1.133   1.553   2.547  0.0360  0.0154  0.5382
 1558SOL    MW4 6232   1.136   1.552   2.634  0.0057 -0.5561  0.5357
 1559SOL     OW 6233   0.902   1.632   2.718 -0.1172  0.2766 -0.1869
 1559SOL    HW2 6234   0.888   1.655   2.810  0.3941  0.0685 -0.0534
 1559SOL    HW3 6235   0.815   1.634   2.679 -0.5601 -1.3508  0.6863
 1559SOL    MW4 6236   0.889   1.635   2.725 -0.1082  0.0345 -0.0540
 1560SOL     OW 6237   0.898   1.889   2.626  0.2389  0.1638  0.2156
 1560SOL    HW2 6238   0.971   1.938   2.663  0.4389 -0.5853  0.8337
 1560SOL    HW3 6239   0.909   1.800   2.660 -0.6337 -0.0896 -0.1447
 1560SOL    MW4 6240   0.909   1.884   2.636  0.1502  0.0315  0.2496
 1561SOL     OW 6241   1.093   2.042   2.742 -0.3372 -0.2893  0.0051
 1561SOL    HW2 6242   1.163   2.003   2.689  1.8129  0.3626  2.2686
 1561SOL    HW3 6243   1.096   2.135   2.720 -0.2199 -0.2059  0.3654
 1561SOL    MW4 6244   1.103   2.049   2.732 -0.0380 -0.1923  0.3512
 1562SOL     OW 6245   1.124   2.302   2.617  0.0910  0.3938 -0.2277
 1562SOL    HW2 6246   1.203   2.348   2.644  0.2967  0.8681 -1.6070
 1562SOL    HW3 6247   1.127   2.303   2.521 -0.4463 -1.5493 -0.2809
 1562SOL    MW4 6248   1.134   2.308   2.608  0.0473  0.2000 -0.4167
 1563SOL     OW 6249   0.892   2.452   2.726 -0.1219  0.1473 -0.0860
 1563SOL    HW2 6250   0.883   2.540   2.689  0.7492  1.0265  1.7670
 1563SOL    HW3 6251   0.965   2.413   2.678 -1.4574 -0.1322 -1.9461
 1563SOL    MW4 6252   0.900   2.459   2.715 -0.1832  0.2264 -0.0869
 1564SOL     OW 6253   0.918   2.703   2.623  0.1629  0.0959 -0.0480
 1564SOL    HW2 6254   0.998   2.747   2.653  0.9992  0.4002 -2.6386
 1564SOL    HW3 6255   0.848   2.762   2.651  0.9760  0.9352  0.2945
 1564SOL    MW4 6256   0.920   2.717   2.631  0.3806  0.2468 -0.3446
 1565SOL     OW 6257   1.155   2.850   2.710 -0.0620 -0.3501 -0.0894
 1565SOL    HW2 6258   1.157   2.839   2.805 -0.6128  0.0937 -0.0247
 1565SOL    HW3 6259   1.237   2.811   2.680  0.8791  0.9437  0.7246
 1565SOL    MW4 6260   1.166   2.844   2.719 -0.0105 -0.1208  0.0265
 1566SOL     OW 6261   1.078   3.113   2.592 -0.3656 -0.1323 -0.0080
 1566SOL    HW2 6262   1.094   3.028   2.633  0.4595 -0.5052 -1.0632
 1566SOL    HW3 6263   1.103   3.100   2.500  0.4171  1.4389 -0.0315
 1566SOL    MW4 6264   1.084   3.100   2.585 -0.1535  0.0258 -0.1503
 1567SOL     OW 6265   0.913   3.247   2.773 -0.3343 -0.3565 -0.4805
 1567SOL    HW2 6266   0.893   3.330   2.730 -0.5473 -0.0663  0.1590
 1567SOL    HW3 6267   0.954   3.194   2.706  0.4118  0.5081 -0.7318
 1567SOL    MW4 6268   0.916   3.251   2.759 -0.2640 -0.2041 -0.4293
 1568SOL     OW 6269   0.887   3.462   2.609  0.0000  0.0000 -0.2203
 1568SOL    HW2 6270   0.961   3.508   2.650  0.0000  0.0000 -0.2039
 1568SOL    HW3 6271   0.810   3.511   2.640  0.0000  0.0000 -0.2484
 1568SOL    MW4 6272   0.887   3.474   2.619  0.0000  0.0000 -0.2219
 1569SOL     OW 6273   1.102   3.599   2.719  0.0000  0.0000 -0.2369
 1569SOL    HW2 6274   1.101   3.626   2.811  0.0000  0.0000 -0.2378
 1569SOL    HW3 6275   1.100   3.681   2.670  0.0000  0.0000 -0.2390
 1569SOL    MW4 6276   1.102   3.613   2.724  0.0000  0.0000 -0.2373
 1570SOL     OW 6277   1.098   3.851   2.599  0.0000  0.0000  0.0770
 1570SOL    HW2 6278   1.178   3.889   2.637  0.0000  0.0000  0.0760
 1570SOL    HW3 6279   1.110   3.859   2.504  0.0000  0.0000  0.0768
 1570SOL    MW4 6280   1.110   3.857   2.591  0.0000  0.0000  0.0768
 1571SOL     OW 6281   0.893   4.008   2.706  0.0000  0.0000 -0.2860
 1571SOL    HW2 6282   0.958   3.964   2.651  0.0000  0.0000 -0.2976
 1571SOL    HW3 6283   0.809   3.971   2.677  0.0000  0.0000 -0.2813
 1571SOL    MW4 6284   0.891   3.997   2.695  0.0000  0.0000 -0.2869
 1572SOL     OW 6285   0.888   4.266   2.591  0.0000  0.0000  0.2751
 1572SOL    HW2 6286   0.892   4.174   2.617  0.0000  0.0000  0.2715
 1572SOL    HW3 6287   0.884   4.265   2.496  0.0000  0.0000  0.2749
 1572SOL    MW4 6288   0.888   4.254   2.582  0.0000  0.0000  0.2746
 1573SOL     OW 6289   1.144   4.351   2.690  0.0000  0.0000  0.4101
 1573SOL    HW2 6290   1.137   4.378   2.781  0.0000  0.0000  0.4111
 1573SOL    HW3 6291   1.055   4.327   2.664  0.0000  0.0000  0.4035
 1573SOL    MW4 6292   1.131   4.351   2.698  0.0000  0.0000  0.4094
 1574SOL     OW 6293   1.593   4.643   2.642  0.0000  0.0000  0.0559
 1574SOL    HW2 6294   1.588   4.549   2.659  0.0000  0.0000  0.0530
 1574SOL    HW3 6295   1.581   4.651   2.547  0.0000  0.0000  0.0560
 1574SOL    MW4 6296   1.591   4.632   2.632  0.0000  0.0000  0.0555
 1575SOL     OW 6297   1.351   0.086   2.713  0.0000  0.0000 -0.4387
 1575SOL    HW2 6298   1.350   0.171   2.668  0.0000  0.0000 -0.4621
 1575SOL    HW3 6299   1.436   0.048   2.689  0.0000  0.0000 -0.3659
 1575SOL    MW4 6300   1.362   0.092   2.704  0.0000  0.0000 -0.4322
 1576SOL     OW 6301   1.360   0.344   2.629  0.0000  0.0000 -0.1737
 1576SOL    HW2 6302   1.437   0.386   2.668  0.0000  0.0000 -0.1760
 1576SOL    HW3 6303   1.286   0.394   2.665  0.0000  0.0000 -0.1627
 1576SOL    MW4 6304   1.360   0.356   2.639  0.0000  0.0000 -0.1725
 1577SOL     OW 6305   1.576   0.475   2.759  0.4198  0.5714  0.0366
 1577SOL    HW2 6306   1.651   0.438   2.713 -0.7047  0.5321 -1.8021
 1577SOL    HW3 6307   1.571   0.565   2.729 -0.8968  0.2738 -0.7008
 1577SOL    MW4 6308   1.585   0.482   2.749  0.0978  0.5269 -0.3033
 1578SOL     OW 6309   1.589   0.727   2.651  0.0480  0.4545  0.2996
 1578SOL    HW2 6310   1.509   0.773   2.675  0.2971  0.3401  1.3638
 1578SOL    HW3 6311   1.585   0.721   2.555 -1.6699 -0.3724  0.3876
 1578SOL    MW4 6312   1.578   0.732   2.642 -0.1458  0.3303  0.4516
 1579SOL     OW 6313   1.364   0.876   2.736 -0.4310 -0.5968 -0.4414
 1579SOL    HW2 6314   1.365   0.885   2.831 -0.5378  0.1069 -0.5046
 1579SOL    HW3 6315   1.356   0.965   2.703 -1.3507 -0.9032 -1.0915
 1579SOL    MW4 6316   1.363   0.889   2.744 -0.5664 -0.5444 -0.5355
 1580SOL     OW 6317   1.379   1.123   2.605 -0.0108  0.1521 -0.0394
 1580SOL    HW2 6318   1.455   1.153   2.655 -0.1080 -0.1594  0.2996
 1580SOL    HW3 6319   1.309   1.184   2.628  0.0225  0.1800 -0.0128
 1580SOL    MW4 6320   1.380   1.135   2.615 -0.0193  0.1147  0.0088
 1581SOL     OW 6321   1.594   1.267   2.717 -0.4496 -0.7777  0.2458
 1581SOL    HW2 6322   1.615   1.257   2.810 -0.8938 -1.5422  0.2602
 1581SOL    HW3 6323   1.673   1.240   2.671  0.2868  0.9911  0.4326
 1581SOL    MW4 6324   1.607   1.262   2.723 -0.4110 -0.6452  0.2724
 1582SOL     OW 6325   1.597   1.543   2.661 -0.0048  0.3603  0.7551
 1582SOL    HW2 6326   1.593   1.454   2.695 -2.1046  0.3393  0.5212
 1582SOL    HW3 6327   1.617   1.532   2.568  1.5228  0.2242  1.0928
 1582SOL    MW4 6328   1.599   1.530   2.653 -0.0803  0.3396  0.7688
 1583SOL     OW 6329   1.369   1.672   2.748 -0.5858 -0.0031 -0.3638
 1583SOL    HW2 6330   1.454   1.637   2.719 -0.7063 -1.2881  0.8235
 1583SOL    HW3 6331   1.305   1.609   2.714 -0.7738 -1.1941  2.1282
 1583SOL    MW4 6332   1.372   1.659   2.739 -0.6265 -0.3298  0.1216
 1584SOL     OW 6333   1.318   1.915   2.639  0.3263 -0.0319 -0.1154
 1584SOL    HW2 6334   1.316   1.824   2.669  1.1243 -0.4422 -1.2294
 1584SOL    HW3 6335   1.328   1.908   2.544  2.2249  1.2116 -0.0347
 1584SOL    MW4 6336   1.319   1.902   2.630  0.6821  0.0780 -0.2518
 1585SOL     OW 6337   1.548   2.035   2.729 -0.2427 -0.4010 -0.1136
 1585SOL    HW2 6338   1.617   1.985   2.685  0.0412 -1.4826  1.4972
 1585SOL    HW3 6339   1.467   1.995   2.698 -0.0596 -0.9092  0.0504
 1585SOL    MW4 6340   1.547   2.023   2.719 -0.1811 -0.6107  0.1206
 1586SOL     OW 6341   1.577   2.266   2.581 -0.2090  0.5047  0.5246
 1586SOL    HW2 6342   1.632   2.331   2.623  0.3919 -0.0464  0.6090
 1586SOL    HW3 6343   1.590   2.186   2.633  0.6472 -0.2177 -0.7723
 1586SOL    MW4 6344   1.586   2.264   2.594 -0.0167  0.3367  0.3646
 1587SOL     OW 6345   1.354   2.405   2.692 -0.1035 -0.7298 -0.1822
 1587SOL    HW2 6346   1.366   2.497   2.664  1.1065 -0.7571  0.2006
 1587SOL    HW3 6347   1.428   2.359   2.652 -0.6642 -1.5306 -0.3013
 1587SOL    MW4 6348   1.366   2.411   2.683 -0.0178 -0.8391 -0.1474
 1588SOL     OW 6349   1.371   2.681   2.637  0.4603  0.3627 -0.3799
 1588SOL    HW2 6350   1.447   2.736   2.654  0.3492  0.9256 -1.5987
 1588SOL    HW3 6351   1.365   2.679   2.541 -0.2396 -0.7993 -0.3114
 1588SOL    MW4 6352   1.380   2.688   2.626  0.3533  0.2837 -0.5317
 1589SOL     OW 6353   1.589   2.835   2.729 -0.5244 -0.2752 -0.1562
 1589SOL    HW2 6354   1.589   2.855   2.822 -0.7674 -0.8774 -0.0254
 1589SOL    HW3 6355   1.674   2.793   2.713 -0.7410 -0.7431 -0.0812
 1589SOL    MW4 6356   1.600   2.832   2.739 -0.5851 -0.4164 -0.1290
 1590SOL     OW 6357   1.579   3.083   2.605  0.2259 -0.1100  0.5222
 1590SOL    HW2 6358   1.642   3.138   2.652 -0.0752  0.2868  0.4598
 1590SOL    HW3 6359   1.586   2.997   2.648  1.0879 -0.1710  0.2589
 1590SOL    MW4 6360   1.588   3.079   2.617  0.2999 -0.0657  0.4792
 1591SOL     OW 6361   1.343   3.214   2.702  0.4667  0.5645  0.0888
 1591SOL    HW2 6362   1.421   3.166   2.673 -0.3804 -0.6371 -0.2766
 1591SOL    HW3 6363   1.269   3.162   2.668 -0.5315  0.3432  2.4396
 1591SOL    MW4 6364   1.343   3.201   2.694  0.2233  0.3767  0.3507
 1592SOL     OW 6365   1.320   3.481   2.616  0.1909  0.2416 -0.0579
 1592SOL    HW2 6366   1.329   3.394   2.655 -0.4074  0.4939  0.6575
 1592SOL    HW3 6367   1.248   3.522   2.665  0.7759  1.3044 -0.0777
 1592SOL    MW4 6368   1.312   3.475   2.628  0.1891  0.4151  0.0339
 1593SOL     OW 6369   1.550   3.641   2.712 -0.1391 -0.3674 -0.0801
 1593SOL    HW2 6370   1.621   3.595   2.667  0.3710 -0.2326  0.5812
 1593SOL    HW3 6371   1.470   3.607   2.671  0.3155 -0.3057 -1.0254
 1593SOL    MW4 6372   1.549   3.630   2.700 -0.0118 -0.3415 -0.1176
 1594SOL     OW 6373   1.581   3.901   2.633 -0.4492 -0.0519  0.3614
 1594SOL    HW2 6374   1.490   3.927   2.648 -0.5333 -0.1836  0.0780
 1594SOL    HW3 6375   1.589   3.815   2.674 -0.3012  0.2080  0.8763
 1594SOL    MW4 6376   1.570   3.893   2.640 -0.4408 -0.0350  0.3920
 1595SOL     OW 6377   1.332   3.965   2.717 -0.3634 -0.5064  0.4945
 1595SOL    HW2 6378   1.342   3.967   2.812  0.1792 -0.3461  0.4329
 1595SOL    HW3 6379   1.326   4.057   2.692 -1.6879 -0.5768  0.4934
 1595SOL    MW4 6380   1.332   3.978   2.726 -0.4665 -0.4945  0.4862
 1596SOL     OW 6381   1.369   4.222   2.621 -0.1827 -0.2157 -0.0583
 1596SOL    HW2 6382   1.295   4.280   2.639  0.7956  1.1237 -0.2680
 1596SOL    HW3 6383   1.392   4.240   2.530  1.7347  0.9493  0.6196
 1596SOL    MW4 6384   1.363   4.232   2.612  0.1993  0.1147  0.0035
 1597SOL     OW 6385   1.560   4.389   2.724 -0.1104 -0.4767 -0.4585
 1597SOL    HW2 6386   1.564   4.365   2.817 -0.5609  0.6672 -0.1420
 1597SOL    HW3 6387   1.502   4.323   2.685  1.6794 -2.1796 -0.3385
 1597SOL    MW4 6388   1.553   4.377   2.731  0.0663 -0.5505 -0.4009
 1598SOL     OW 6389   2.004   0.012   2.608 -0.0267  0.6103 -0.3093
 1598SOL    HW2 6390   2.091   0.048   2.628  0.1935 -0.3376  0.4712
 1598SOL    HW3 6391   2.001   0.011   2.512  1.9602 -1.9619 -0.4041
 1598SOL    MW4 6392   2.015   0.016   2.598  0.2645  0.1459 -0.2188
 1599SOL     OW 6393   1.814   0.089   2.784 -0.0524  0.4164 -0.1646
 1599SOL    HW2 6394   1.881   0.054   2.725 -0.7750 -0.0474 -0.7187
 1599SOL    HW3 6395   1.731   0.054   2.750 -0.6023  1.1797  0.3655
 1599SOL    MW4 6396   1.812   0.080   2.771 -0.2203  0.4559 -0.1678
 1600SOL     OW 6397   1.814   0.335   2.621  0.2497  0.0994 -0.2014
 1600SOL    HW2 6398   1.876   0.389   2.670  0.9159  0.6461 -1.6058
 1600SOL    HW3 6399   1.809   0.253   2.669  0.1973  0.9559  1.2657
 1600SOL    MW4 6400   1.821   0.331   2.634  0.3307  0.2846 -0.1931
 1601SOL     OW 6401   2.031   0.483   2.732  0.2756  0.4240  0.2313
 1601SOL    HW2 6402   2.101   0.421   2.711 -1.3023 -1.6212  0.8459
 1601SOL    HW3 6403   2.052   0.562   2.681  2.0803 -0.7783 -0.9206
 1601SOL    MW4 6404   2.043   0.485   2.722  0.3055 -0.0045  0.1604
 1602SOL     OW 6405   2.058   0.764   2.642 -0.4565 -0.1619  0.1024
 1602SOL    HW2 6406   1.981   0.814   2.669 -0.1167  1.3797 -1.6724
 1602SOL    HW3 6407   2.046   0.751   2.548  1.2447 -0.2829 -0.1072
 1602SOL    MW4 6408   2.046   0.769   2.633 -0.1872  0.0256 -0.1594
 1603SOL     OW 6409   1.803   0.880   2.721 -0.1333  0.0295  0.7232
 1603SOL    HW2 6410   1.800   0.971   2.690  0.3269 -0.0915  0.3139
 1603SOL    HW3 6411   1.721   0.842   2.691  0.4007 -0.1511 -0.5700
 1603SOL    MW4 6412   1.792   0.887   2.713 -0.0021 -0.0103  0.4986
 1604SOL     OW 6413   1.816   1.150   2.599  0.4963 -0.5579 -0.3550
 1604SOL    HW2 6414   1.904   1.182   2.619  0.3943  2.0395 -3.6228
 1604SOL    HW3 6415   1.814   1.145   2.503 -2.9418 -0.5379 -0.3313
 1604SOL    MW4 6416   1.827   1.153   2.589  0.0292 -0.2126 -0.7830
 1605SOL     OW 6417   2.056   1.282   2.713 -0.2521 -0.1107 -0.0023
 1605SOL    HW2 6418   2.055   1.290   2.809 -0.1855  1.1489 -0.0925
 1605SOL    HW3 6419   2.148   1.263   2.692 -0.2648 -0.3771  0.1851
 1605SOL    MW4 6420   2.068   1.281   2.723 -0.2450  0.0203  0.0105
 1606SOL     OW 6421   2.002   1.565   2.618 -0.4160 -0.4203 -0.4137
 1606SOL    HW2 6422   1.926   1.602   2.663 -0.7866 -0.8022 -0.7207
 1606SOL    HW3 6423   2.008   1.476   2.650 -1.2160 -0.9785 -1.7767
 1606SOL    MW4 6424   1.993   1.558   2.628 -0.5704 -0.5443 -0.6340
 1607SOL     OW 6425   1.801   1.688   2.768 -0.7620 -0.8438  0.1548
 1607SOL    HW2 6426   1.818   1.669   2.860  0.6088 -1.4972 -0.2266
 1607SOL    HW3 6427   1.722   1.638   2.747 -0.3807 -1.6559  0.6484
 1607SOL    MW4 6428   1.792   1.679   2.777 -0.5308 -1.0372  0.1696
 1608SOL     OW 6429   1.762   1.909   2.609 -0.4556 -0.0980  0.4777
 1608SOL    HW2 6430   1.844   1.955   2.627 -0.5413  0.9009 -1.5890
 1608SOL    HW3 6431   1.768   1.829   2.661  1.6062  0.2103  0.7536
 1608SOL    MW4 6432   1.773   1.904   2.618 -0.1949  0.0745  0.2414
 1609SOL     OW 6433   1.979   2.054   2.679  0.1213  0.3394 -0.0916
 1609SOL    HW2 6434   1.994   2.046   2.774 -1.6710 -0.6039  0.1316
 1609SOL    HW3 6435   1.982   2.148   2.662  0.5520  0.5099  0.8719
 1609SOL    MW4 6436   1.982   2.066   2.690 -0.0583  0.2375  0.0650
 1610SOL     OW 6437   2.026   2.318   2.611  0.3907  0.0255  0.0223
 1610SOL    HW2 6438   2.108   2.364   2.633  1.0028 -0.7677 -0.5509
 1610SOL    HW3 6439   2.027   2.314   2.515 -0.2118 -0.1883  0.0292
 1610SOL    MW4 6440   2.037   2.323   2.601  0.3920 -0.1074 -0.0524
 1611SOL     OW 6441   1.783   2.448   2.709 -0.3229  0.2964  0.4021
 1611SOL    HW2 6442   1.787   2.431   2.803 -0.7586 -0.8045  0.2228
 1611SOL    HW3 6443   1.865   2.412   2.674 -0.7819 -0.5371  0.1694
 1611SOL    MW4 6444   1.794   2.441   2.717 -0.4409  0.0412  0.3477
 1612SOL     OW 6445   1.837   2.715   2.656 -0.1560  0.3620  0.4551
 1612SOL    HW2 6446   1.814   2.625   2.678 -1.8960  0.5547 -0.4319
 1612SOL    HW3 6447   1.831   2.718   2.560 -1.9568  1.8622  0.5837
 1612SOL    MW4 6448   1.833   2.704   2.646 -0.6231  0.5853  0.3550
 1613SOL     OW 6449   2.079   2.860   2.755 -0.0712 -0.3043  0.1351
 1613SOL    HW2 6450   2.156   2.823   2.712  0.8334  0.0110  1.4342
 1613SOL    HW3 6451   2.005   2.819   2.711  0.8505 -1.0103 -0.7859
 1613SOL    MW4 6452   2.080   2.849   2.744  0.1698 -0.3559  0.1850
 1614SOL     OW 6453   2.002   3.111   2.655  0.3413  0.2419 -0.2275
 1614SOL    HW2 6454   2.028   3.029   2.698  3.2377  1.0750 -0.2353
 1614SOL    HW3 6455   1.987   3.087   2.564 -1.0956 -0.6696  0.2317
 1614SOL    MW4 6456   2.004   3.097   2.649  0.5339  0.2316 -0.1680
 1615SOL     OW 6457   1.773   3.235   2.761 -0.4419  0.0718  0.0405
 1615SOL    HW2 6458   1.788   3.321   2.721 -2.2652 -0.3337 -1.5740
 1615SOL    HW3 6459   1.849   3.183   2.736 -0.7794  0.3144 -1.5601
 1615SOL    MW4 6460   1.785   3.240   2.753 -0.7270  0.0503 -0.3837
 1616SOL     OW 6461   1.797   3.491   2.645  0.3877 -0.0297  0.8879
 1616SOL    HW2 6462   1.873   3.543   2.671 -0.7757  1.8131  0.6880
 1616SOL    HW3 6463   1.797   3.495   2.549 -1.1870  1.8242  0.9418
 1616SOL    MW4 6464   1.807   3.498   2.636  0.0264  0.4581  0.8686
 1617SOL     OW 6465   2.032   3.661   2.715 -0.1424  0.0352  0.2354
 1617SOL    HW2 6466   2.031   3.654   2.810 -0.1371  1.1478  0.3180
 1617SOL    HW3 6467   2.103   3.603   2.688 -0.9567 -1.2508  0.8177
 1617SOL    MW4 6468   2.041   3.652   2.724 -0.2491  0.0123  0.3231
 1618SOL     OW 6469   2.011   3.921   2.628  0.1238  0.7481 -0.0560
 1618SOL    HW2 6470   1.933   3.960   2.667  0.8460  1.3895  0.7584
 1618SOL    HW3 6471   2.007   3.829   2.654  0.1151  0.9769  0.7593
 1618SOL    MW4 6472   2.000   3.914   2.636  0.2179  0.8629  0.1590
 1619SOL     OW 6473   1.793   4.048   2.747  0.4274  0.2504 -0.3152
 1619SOL    HW2 6474   1.797   4.138   2.713 -1.1725  0.7478  0.7617
 1619SOL    HW3 6475   1.720   4.008   2.700  0.2053 -0.0399  0.2794
 1619SOL    MW4 6476   1.784   4.055   2.736  0.1870  0.2777 -0.0947
 1620SOL     OW 6477   1.812   4.308   2.634  0.5821 -0.5403  0.4835
 1620SOL    HW2 6478   1.729   4.344   2.665  0.4097 -0.1137 -0.4515
 1620SOL    HW3 6479   1.799   4.297   2.539  1.9627  0.5343  0.1577
 1620SOL    MW4 6480   1.799   4.311   2.625  0.7415 -0.3423  0.3172
 1621SOL     OW 6481   2.039   4.422   2.731  0.1059 -0.2976  0.1712
 1621SOL    HW2 6482   1.959   4.379   2.700  1.0394 -2.2923  0.4936
 1621SOL    HW3 6483   2.039   4.507   2.687 -2.0070 -0.4176 -0.1022
 1621SOL    MW4 6484   2.028   4.427   2.721 -0.0497 -0.5766  0.1777
 1622SOL     OW 6485   2.502   4.661   2.627  0.2401  0.1285 -0.2702
 1622SOL    HW2 6486   2.571   4.714   2.667  0.0049  0.7186 -0.6412
 1622SOL    HW3 6487   2.502   4.686   2.535  0.7821 -1.2414 -0.6650
 1622SOL    MW4 6488   2.511   4.671   2.621  0.2806  0.0256 -0.3713
 1623SOL     OW 6489   2.257   0.096   2.705 -0.1126  0.0704  0.2979
 1623SOL    HW2 6490   2.261   0.110   2.799 -0.2222 -1.0396  0.4760
 1623SOL    HW3 6491   2.341   0.055   2.683 -0.2224  0.0174 -0.0315
 1623SOL    MW4 6492   2.269   0.092   2.714 -0.1416 -0.0831  0.2780
 1624SOL     OW 6493   2.276   0.362   2.627  0.6024  0.1777 -0.2218
 1624SOL    HW2 6494   2.263   0.270   2.651 -1.5625  0.5910  0.2890
 1624SOL    HW3 6495   2.272   0.362   2.532  1.1588 -0.3396 -0.2464
 1624SOL    MW4 6496   2.274   0.350   2.618  0.3902  0.1640 -0.1576
 1625SOL     OW 6497   2.480   0.493   2.736 -0.2048  0.0328  0.5367
 1625SOL    HW2 6498   2.477   0.582   2.701 -1.0744 -0.5625 -0.9318
 1625SOL    HW3 6499   2.409   0.447   2.692 -1.1967 -0.8045  2.9692
 1625SOL    MW4 6500   2.470   0.499   2.725 -0.4504 -0.1562  0.6639
 1626SOL     OW 6501   2.489   0.753   2.618 -0.1194  0.5960 -0.3155
 1626SOL    HW2 6502   2.419   0.815   2.637  0.2456  1.1260 -0.6961
 1626SOL    HW3 6503   2.497   0.753   2.522 -0.7527 -0.7363 -0.3810
 1626SOL    MW4 6504   2.481   0.761   2.608 -0.1548  0.4901 -0.3743
 1627SOL     OW 6505   2.267   0.926   2.722 -0.1699 -0.6606  0.0356
 1627SOL    HW2 6506   2.263   0.923   2.818  0.2528 -2.5512  0.0114
 1627SOL    HW3 6507   2.194   0.870   2.694  1.0297 -1.8491 -0.7290
 1627SOL    MW4 6508   2.257   0.918   2.731  0.0442 -1.0668 -0.0685
 1628SOL     OW 6509   2.308   1.182   2.608 -0.1877 -0.0915 -0.2638
 1628SOL    HW2 6510   2.309   1.089   2.627 -0.8464 -0.1814 -0.6715
 1628SOL    HW3 6511   2.293   1.188   2.514 -0.4106  0.4295 -0.1989
 1628SOL    MW4 6512   2.306   1.171   2.598 -0.3040 -0.0346 -0.3090
 1629SOL     OW 6513   2.514   1.307   2.732  0.3273 -0.4820  0.2904
 1629SOL    HW2 6514   2.595   1.272   2.694  0.7263  0.3448  0.3662
 1629SOL    HW3 6515   2.444   1.263   2.684  0.8253 -0.0755 -0.8281
 1629SOL    MW4 6516   2.515   1.297   2.721  0.4456 -0.3193  0.1529
 1630SOL     OW 6517   2.479   1.584   2.628 -0.6996  0.5697  0.2986
 1630SOL    HW2 6518   2.389   1.610   2.644 -0.6077  1.1886 -0.1548
 1630SOL    HW3 6519   2.485   1.495   2.663 -1.5698  0.3968  0.0143
 1630SOL    MW4 6520   2.468   1.576   2.635 -0.8023  0.6285  0.2012
 1631SOL     OW 6521   2.229   1.687   2.730  0.2338 -0.5102 -0.3306
 1631SOL    HW2 6522   2.235   1.773   2.688 -2.3460  0.3510  0.9259
 1631SOL    HW3 6523   2.152   1.646   2.690 -0.3966 -0.9558  1.3044
 1631SOL    MW4 6524   2.219   1.693   2.719 -0.1898 -0.4554  0.0509
 1632SOL     OW 6525   2.224   1.927   2.597  0.4385  0.0779  0.3762
 1632SOL    HW2 6526   2.135   1.957   2.618  0.1178 -1.2744  1.0034
 1632SOL    HW3 6527   2.226   1.922   2.502 -0.2792 -0.1949  0.3720
 1632SOL    MW4 6528   2.212   1.930   2.588  0.3015 -0.1365  0.4584
 1633SOL     OW 6529   2.440   2.025   2.729  0.4151  0.0458 -0.3118
 1633SOL    HW2 6530   2.460   2.114   2.700  1.7702 -0.3973 -0.7861
 1633SOL    HW3 6531   2.359   2.001   2.683 -0.4586  1.3589  0.5251
 1633SOL    MW4 6532   2.432   2.033   2.720  0.4786  0.1606 -0.2640
 1634SOL     OW 6533   2.489   2.280   2.675  0.3387  0.3474  0.1203
 1634SOL    HW2 6534   2.563   2.334   2.703  1.1186  0.4193 -1.9547
 1634SOL    HW3 6535   2.492   2.283   2.579 -1.2672 -1.1358 -0.0105
 1634SOL    MW4 6536   2.499   2.288   2.666  0.2297  0.1612 -0.1707
 1635SOL     OW 6537   2.270   2.461   2.690 -0.0266 -0.5471  0.1170
 1635SOL    HW2 6538   2.277   2.475   2.785  1.5048 -0.3496 -0.0178
 1635SOL    HW3 6539   2.336   2.394   2.671  1.0235  0.7991 -1.1054
 1635SOL    MW4 6540   2.280   2.454   2.700  0.3140 -0.3434 -0.0621
 1636SOL     OW 6541   2.261   2.721   2.592 -0.3657  0.4247  0.1899
 1636SOL    HW2 6542   2.347   2.763   2.593 -0.2432  0.1647  1.1799
 1636SOL    HW3 6543   2.278   2.631   2.619 -0.8187  0.0942 -0.5964
 1636SOL    MW4 6544   2.275   2.715   2.596 -0.4093  0.3468  0.2168
 1637SOL     OW 6545   2.485   2.830   2.746 -0.4200  0.3840  0.0398
 1637SOL    HW2 6546   2.552   2.774   2.707 -1.8058 -0.2640 -1.4735
 1637SOL    HW3 6547   2.513   2.919   2.728 -0.0181  0.1131 -0.6684
 1637SOL    MW4 6548   2.498   2.834   2.739 -0.5498  0.2627 -0.2533
 1638SOL     OW 6549   2.457   3.098   2.626  0.0680 -0.7195 -0.5705
 1638SOL    HW2 6550   2.391   3.150   2.673  0.9482 -0.4995  0.4281
 1638SOL    HW3 6551   2.423   3.092   2.536 -2.5546 -2.7135  0.4974
 1638SOL    MW4 6552   2.444   3.104   2.620 -0.1619 -0.9536 -0.2979
 1639SOL     OW 6553   2.230   3.259   2.720  0.2508 -0.0742  0.0770
 1639SOL    HW2 6554   2.232   3.252   2.815 -1.7968  1.6315  0.2699
 1639SOL    HW3 6555   2.147   3.219   2.694 -0.5074  1.9510 -0.7364
 1639SOL    MW4 6556   2.219   3.253   2.729 -0.1194  0.4180 -0.0048
 1640SOL     OW 6557   2.243   3.507   2.595 -0.0189  0.1180 -0.3559
 1640SOL    HW2 6558   2.315   3.552   2.640  1.0586 -0.7189 -1.2120
 1640SOL    HW3 6559   2.238   3.421   2.636 -0.8587  0.3472  0.0305
 1640SOL    MW4 6560   2.252   3.502   2.606  0.0125  0.0378 -0.4179
 1641SOL     OW 6561   2.450   3.643   2.734 -0.5632  0.0785 -0.2682
 1641SOL    HW2 6562   2.433   3.642   2.829  0.0285 -1.7095 -0.1740
 1641SOL    HW3 6563   2.463   3.735   2.714 -3.1287  0.7856  0.9616
 1641SOL    MW4 6564   2.449   3.655   2.744 -0.8236 -0.0641 -0.0935
 1642SOL     OW 6565   2.474   3.896   2.615  0.1841 -0.1897 -0.1206
 1642SOL    HW2 6566   2.554   3.929   2.657  0.4141  0.4754 -1.0615
 1642SOL    HW3 6567   2.405   3.954   2.646  0.1804 -0.3457  0.1623
 1642SOL    MW4 6568   2.476   3.908   2.624  0.2140 -0.1226 -0.2074
 1643SOL     OW 6569   2.254   4.039   2.724 -0.1395  0.1803 -0.1744
 1643SOL    HW2 6570   2.251   4.035   2.819 -2.2632  1.5337 -0.1449
 1643SOL    HW3 6571   2.168   4.008   2.695  0.0578  0.8833 -1.5900
 1643SOL    MW4 6572   2.243   4.035   2.733 -0.3937  0.4516 -0.3573
 1644SOL     OW 6573   2.279   4.306   2.648  0.1104 -0.0432 -0.0196
 1644SOL    HW2 6574   2.264   4.214   2.671  1.2041  0.1266  1.4923
 1644SOL    HW3 6575   2.210   4.353   2.695  0.1393 -0.0069 -0.0136
 1644SOL    MW4 6576   2.268   4.300   2.658  0.2585 -0.0160  0.1806
 1645SOL     OW 6577   2.502   4.422   2.767  0.1852  0.0698  0.3359
 1645SOL    HW2 6578   2.430   4.381   2.720  0.0956  1.4421 -0.7909
 1645SOL    HW3 6579   2.506   4.511   2.731  2.1486  0.1544  0.6788
 1645SOL    MW4 6580   2.493   4.429   2.756  0.4324  0.2620  0.2325
 1646SOL     OW 6581   2.903   4.654   2.650 -0.2316 -0.0128 -0.3027
 1646SOL    HW2 6582   2.991   4.673   2.683 -0.7305  0.7846  0.5830
 1646SOL    HW3 6583   2.909   4.668   2.556  0.4253  0.6719 -0.1606
 1646SOL    MW4 6584   2.916   4.659   2.642 -0.2107  0.1827 -0.1671
 1647SOL     OW 6585   2.701   0.125   2.767  0.2623  0.0870  0.1907
 1647SOL    HW2 6586   2.693   0.116   2.861 -0.3759  1.2462  0.2628
 1647SOL    HW3 6587   2.771   0.064   2.742  1.7341  1.1271  1.6644
 1647SOL    MW4 6588   2.709   0.116   2.776  0.3723  0.3772  0.3947
 1648SOL     OW 6589   2.718   0.384   2.630  0.2492 -0.0051  0.1595
 1648SOL    HW2 6590   2.716   0.294   2.662  0.0127 -0.3169 -0.7147
 1648SOL    HW3 6591   2.644   0.426   2.674  0.1793 -0.3161  0.3458
 1648SOL    MW4 6592   2.708   0.377   2.640  0.2088 -0.0873  0.0688
 1649SOL     OW 6593   2.929   0.514   2.722 -0.1888 -0.1686 -0.1077
 1649SOL    HW2 6594   2.940   0.601   2.683 -0.8092 -0.0393  0.0079
 1649SOL    HW3 6595   2.853   0.477   2.679 -0.1087 -0.5353  0.0646
 1649SOL    MW4 6596   2.921   0.521   2.711 -0.2601 -0.1999 -0.0697
 1650SOL     OW 6597   2.932   0.768   2.607 -0.2710 -0.5631  0.5503
 1650SOL    HW2 6598   3.000   0.795   2.668 -0.2800 -0.9327  0.7278
 1650SOL    HW3 6599   2.854   0.814   2.636  0.0996  0.5545 -0.1886
 1650SOL    MW4 6600   2.931   0.778   2.619 -0.2233 -0.4644  0.4762
 1651SOL     OW 6601   2.708   0.902   2.713  0.0249  0.5764 -0.4894
 1651SOL    HW2 6602   2.700   0.888   2.808 -0.3606 -2.3546 -0.8937
 1651SOL    HW3 6603   2.626   0.868   2.677  1.8883 -2.4092 -2.1907
 1651SOL    MW4 6604   2.697   0.896   2.721  0.2199 -0.2042 -0.7672
 1652SOL     OW 6605   2.748   1.173   2.648  0.3655  0.2865 -0.1954
 1652SOL    HW2 6606   2.816   1.206   2.706  2.1343  1.1462 -2.6959
 1652SOL    HW3 6607   2.740   1.080   2.670  2.2260  0.2292  0.2428
 1652SOL    MW4 6608   2.756   1.165   2.658  0.8443  0.3923 -0.4675
 1653SOL     OW 6609   2.966   1.290   2.777 -0.1021  0.2809  0.2891
 1653SOL    HW2 6610   2.983   1.300   2.870 -0.7901 -0.9141  0.5602
 1653SOL    HW3 6611   3.026   1.221   2.749 -1.3421 -0.8360  0.3143
 1653SOL    MW4 6612   2.976   1.282   2.785 -0.3565 -0.0241  0.3282
 1654SOL     OW 6613   2.922   1.541   2.649 -0.1994 -0.1322  0.1098
 1654SOL    HW2 6614   2.843   1.581   2.687 -1.4962 -0.1122 -2.5213
 1654SOL    HW3 6615   2.931   1.457   2.695 -0.2796  0.9787  2.2005
 1654SOL    MW4 6616   2.913   1.535   2.660 -0.3811  0.0170  0.0385
 1655SOL     OW 6617   2.707   1.680   2.766 -0.2425  0.0631 -0.1115
 1655SOL    HW2 6618   2.693   1.678   2.860  0.6452 -2.3315 -0.0011
 1655SOL    HW3 6619   2.625   1.647   2.729  0.0591 -0.7050 -0.0955
 1655SOL    MW4 6620   2.695   1.676   2.773 -0.0856 -0.3542 -0.0948
 1656SOL     OW 6621   2.694   1.947   2.679 -0.6760  0.5988  0.0576
 1656SOL    HW2 6622   2.701   1.852   2.694 -0.1166  0.8079  1.1635
 1656SOL    HW3 6623   2.602   1.966   2.697 -1.2353 -0.0247 -1.9820
 1656SOL    MW4 6624   2.682   1.937   2.683 -0.6760  0.5442 -0.0656
 1657SOL     OW 6625   2.955   2.033   2.740 -0.0336  0.2247  0.4550
 1657SOL    HW2 6626   2.968   2.120   2.703 -0.1088 -0.1303 -0.4156
 1657SOL    HW3 6627   2.869   2.006   2.709  0.4169 -0.5752 -0.1228
 1657SOL    MW4 6628   2.946   2.041   2.731  0.0159  0.0723  0.2639
 1658SOL     OW 6629   2.946   2.296   2.619  0.2260  0.3088 -0.1104
 1658SOL    HW2 6630   3.022   2.337   2.660 -1.1120 -0.1356  2.9844
 1658SOL    HW3 6631   2.871   2.347   2.650 -0.9189 -0.5280 -1.4212
 1658SOL    MW4 6632   2.946   2.308   2.629 -0.1016  0.1398  0.1250
 1659SOL     OW 6633   2.717   2.428   2.740 -0.3883 -0.2384 -0.0223
 1659SOL    HW2 6634   2.730   2.444   2.833  2.3356 -0.6689 -0.2885
 1659SOL    HW3 6635   2.710   2.515   2.701  1.7504  0.0396  0.1756
 1659SOL    MW4 6636   2.718   2.441   2.747  0.2533 -0.2585 -0.0313
 1660SOL     OW 6637   2.702   2.683   2.628  0.4291 -0.0913 -0.1266
 1660SOL    HW2 6638   2.781   2.731   2.652  0.1961 -0.1503  0.8053
 1660SOL    HW3 6639   2.691   2.698   2.534  1.9879 -0.7478 -0.4233
 1660SOL    MW4 6640   2.711   2.691   2.619  0.6040 -0.1857 -0.0428
 1661SOL     OW 6641   2.933   2.812   2.709 -0.7694  0.2545  0.0412
 1661SOL    HW2 6642   2.927   2.816   2.805  0.1221 -0.6226  0.1494
 1661SOL    HW3 6643   2.943   2.903   2.682  1.5439  0.3348  0.9954
 1661SOL    MW4 6644   2.934   2.824   2.718 -0.3465  0.1494  0.1814
 1662SOL     OW 6645   2.880   3.076   2.655  0.1987  0.1742 -0.1049
 1662SOL    HW2 6646   2.813   3.118   2.709  1.1659  0.6203  0.7540
 1662SOL    HW3 6647   2.877   3.124   2.572  1.9905  2.6736  1.2048
 1662SOL    MW4 6648   2.871   3.088   2.651  0.5627  0.5628  0.1812
 1663SOL     OW 6649   2.668   3.229   2.752 -0.2782  0.1575 -0.2544
 1663SOL    HW2 6650   2.675   3.313   2.706 -2.1845  0.5572  0.1596
 1663SOL    HW3 6651   2.597   3.183   2.706 -0.4174 -0.5133  0.6332
 1663SOL    MW4 6652   2.659   3.234   2.740 -0.5481  0.1217 -0.0826
 1664SOL     OW 6653   2.641   3.486   2.637  0.7195  0.3581  0.0675
 1664SOL    HW2 6654   2.576   3.550   2.667  0.8302 -0.0866  1.2690
 1664SOL    HW3 6655   2.635   3.490   2.541 -0.6657  0.7424  0.1552
 1664SOL    MW4 6656   2.631   3.495   2.628  0.5513  0.3502  0.2376
 1665SOL     OW 6657   2.901   3.633   2.732  0.1779 -0.5564 -0.4225
 1665SOL    HW2 6658   2.914   3.634   2.827 -0.0143 -1.1258 -0.3906
 1665SOL    HW3 6659   2.832   3.569   2.718 -0.7116  0.4856 -0.8307
 1665SOL    MW4 6660   2.894   3.625   2.743  0.0352 -0.4941 -0.4721
 1666SOL     OW 6661   2.940   3.886   2.636  0.0467  0.2410 -0.1794
 1666SOL    HW2 6662   3.015   3.916   2.687  1.0209  0.1362 -1.5230
 1666SOL    HW3 6663   2.920   3.799   2.670  1.5367 -0.3796 -0.8545
 1666SOL    MW4 6664   2.947   3.879   2.647  0.3718  0.1453 -0.4457
 1667SOL     OW 6665   2.687   3.997   2.752 -0.1960 -0.0864  0.1943
 1667SOL    HW2 6666   2.687   4.087   2.721  0.9673 -0.3815 -0.7076
 1667SOL    HW3 6667   2.764   3.957   2.710 -1.3918 -1.8234 -0.4108
 1667SOL    MW4 6668   2.698   4.004   2.742 -0.2003 -0.3545 -0.0045
 1668SOL     OW 6669   2.724   4.262   2.657  0.1351 -0.8693  0.2404
 1668SOL    HW2 6670   2.795   4.317   2.691  0.3527 -0.7138 -0.4503
 1668SOL    HW3 6671   2.644   4.309   2.681  0.3181 -0.3023 -0.2492
 1668SOL    MW4 6672   2.723   4.276   2.665  0.1879 -0.7740  0.0847
 1669SOL     OW 6673   2.938   4.407   2.754 -0.0746  0.3689 -0.2946
 1669SOL    HW2 6674   2.934   4.419   2.849  1.2929  0.2857 -0.2137
 1669SOL    HW3 6675   2.925   4.495   2.718 -3.0650  0.0396 -0.1328
 1669SOL    MW4 6676   2.936   4.420   2.762 -0.2887  0.3145 -0.2626
 1670SOL     OW 6677   3.371   4.620   2.601  0.1888  0.0215 -0.0520
 1670SOL    HW2 6678   3.377   4.528   2.628  1.3757  0.0935 -0.0425
 1670SOL    HW3 6679   3.293   4.653   2.645 -0.3735 -1.0493 -0.2456
 1670SOL    MW4 6680   3.362   4.612   2.611  0.2712 -0.1103 -0.0763
 1671SOL     OW 6681   3.146   0.072   2.746 -0.5916  0.0284 -0.7509
 1671SOL    HW2 6682   3.139   0.073   2.841 -2.0837 -1.3746 -0.8136
 1671SOL    HW3 6683   3.143   0.164   2.721  0.5198  0.4441  0.5875
 1671SOL    MW4 6684   3.144   0.084   2.755 -0.6418 -0.1019 -0.5826
 1672SOL     OW 6685   3.132   0.334   2.642  0.2818 -0.2919 -1.0407
 1672SOL    HW2 6686   3.062   0.392   2.672  0.9834  0.1619 -0.2651
 1672SOL    HW3 6687   3.143   0.355   2.549  0.5647  0.8538 -0.7566
 1672SOL    MW4 6688   3.124   0.344   2.634  0.4117 -0.0809 -0.9009
 1673SOL     OW 6689   3.382   0.472   2.726 -0.2375 -0.0903  0.2174
 1673SOL    HW2 6690   3.369   0.560   2.691  0.5976  0.0331  0.2183
 1673SOL    HW3 6691   3.300   0.426   2.706 -0.7163  0.7117  0.3007
 1673SOL    MW4 6692   3.369   0.478   2.719 -0.1905  0.0318  0.2285
 1674SOL     OW 6693   3.381   0.738   2.622 -0.7778 -0.3949 -0.2325
 1674SOL    HW2 6694   3.458   0.789   2.648 -1.1297 -0.6210  1.3030
 1674SOL    HW3 6695   3.370   0.758   2.529  0.6329  0.2923 -0.2727
 1674SOL    MW4 6696   3.390   0.748   2.614 -0.6381 -0.3341 -0.0352
 1675SOL     OW 6697   3.143   0.881   2.745  0.2234  0.0860 -0.1679
 1675SOL    HW2 6698   3.148   0.887   2.840 -0.8981  0.8252 -0.1516
 1675SOL    HW3 6699   3.226   0.840   2.719 -0.0420 -1.3903  1.2356
 1675SOL    MW4 6700   3.155   0.876   2.754  0.0404 -0.0113  0.0195
 1676SOL     OW 6701   3.155   1.138   2.635  0.7399  0.1258  0.2939
 1676SOL    HW2 6702   3.151   1.045   2.657  2.1234  0.0236  0.1336
 1676SOL    HW3 6703   3.139   1.141   2.541 -1.4757  0.2521  0.6434
 1676SOL    MW4 6704   3.152   1.126   2.626  0.6301  0.1290  0.3188
 1677SOL     OW 6705   3.365   1.285   2.754 -0.3061  0.3333  0.0404
 1677SOL    HW2 6706   3.345   1.273   2.847 -0.1083  0.2578  0.0739
 1677SOL    HW3 6707   3.288   1.250   2.709  0.3530 -1.3244  0.1368
 1677SOL    MW4 6708   3.353   1.279   2.760 -0.1930  0.1046  0.0575
 1678SOL     OW 6709   3.331   1.534   2.615 -0.0911 -0.0781  0.3783
 1678SOL    HW2 6710   3.250   1.574   2.646 -0.1476  0.2916 -0.2522
 1678SOL    HW3 6711   3.340   1.454   2.668 -1.7092 -0.9649 -0.6418
 1678SOL    MW4 6712   3.322   1.529   2.626 -0.3120 -0.1463  0.1605
 1679SOL     OW 6713   3.145   1.690   2.753 -0.1887 -0.4104 -0.1532
 1679SOL    HW2 6714   3.161   1.766   2.698  0.1707 -0.6876 -0.4360
 1679SOL    HW3 6715   3.070   1.646   2.712 -0.9004  0.2154  0.4619
 1679SOL    MW4 6716   3.137   1.694   2.740 -0.2351 -0.3644 -0.1094
 1680SOL     OW 6717   3.165   1.922   2.600 -0.2214 -0.1453  0.0908
 1680SOL    HW2 6718   3.236   1.971   2.641 -1.1068  0.7937  0.5324
 1680SOL    HW3 6719   3.087   1.949   2.649 -0.9270 -0.8993 -0.6141
 1680SOL    MW4 6720   3.164   1.932   2.612 -0.4313 -0.1209  0.0560
 1681SOL     OW 6721   3.385   2.051   2.740 -0.2155  0.1992 -0.4926
 1681SOL    HW2 6722   3.370   2.062   2.833  0.1607 -1.0483 -0.2725
 1681SOL    HW3 6723   3.398   2.140   2.707  1.3532  0.5349  0.9396
 1681SOL    MW4 6724   3.385   2.064   2.748  0.0411  0.0789 -0.2746
 1682SOL     OW 6725   3.388   2.314   2.632 -0.5715  0.3893 -0.0498
 1682SOL    HW2 6726   3.463   2.369   2.652 -0.6870  0.2772  0.7056
 1682SOL    HW3 6727   3.382   2.315   2.536 -0.7649  1.9462 -0.0375
 1682SOL    MW4 6728   3.397   2.322   2.622 -0.6122  0.5799  0.0515
 1683SOL     OW 6729   3.156   2.412   2.730 -0.0894  0.4351  0.3217
 1683SOL    HW2 6730   3.159   2.504   2.702 -0.5631  0.1927 -0.5606
 1683SOL    HW3 6731   3.240   2.376   2.702 -0.0613  0.5093  0.3113
 1683SOL    MW4 6732   3.168   2.420   2.722 -0.1482  0.4129  0.2039
 1684SOL     OW 6733   3.163   2.684   2.643 -0.2700  0.3377  0.5660
 1684SOL    HW2 6734   3.237   2.726   2.689 -0.7838 -0.0983  1.8195
 1684SOL    HW3 6735   3.086   2.734   2.672 -0.6690 -0.3260  0.6527
 1684SOL    MW4 6736   3.163   2.696   2.653 -0.3904  0.1926  0.7428
 1685SOL     OW 6737   3.408   2.826   2.738  0.2000  0.0552 -0.0345
 1685SOL    HW2 6738   3.406   2.820   2.834 -0.7241  0.0542 -0.0536
 1685SOL    HW3 6739   3.487   2.777   2.713 -0.2068 -0.9783  0.6503
 1685SOL    MW4 6740   3.418   2.819   2.748  0.0244 -0.0813  0.0533
 1686SOL     OW 6741   3.348   3.107   2.659  0.6322  0.2895  0.0670
 1686SOL    HW2 6742   3.356   3.017   2.690 -0.9541  0.2040  0.2491
 1686SOL    HW3 6743   3.336   3.098   2.564 -0.6062  0.2376  0.2169
 1686SOL    MW4 6744   3.347   3.094   2.651  0.2595  0.2714  0.1108
 1687SOL     OW 6745   3.114   3.189   2.758 -0.0889 -0.0426  0.2029
 1687SOL    HW2 6746   3.190   3.146   2.717 -0.9616 -1.1430 -0.3034
 1687SOL    HW3 6747   3.039   3.140   2.725 -1.2375  2.8646 -1.5466
 1687SOL    MW4 6748   3.114   3.177   2.749 -0.3556  0.1958 -0.0947
 1688SOL     OW 6749   3.112   3.459   2.653 -0.2729 -0.5341  0.0157
 1688SOL    HW2 6750   3.089   3.378   2.698  0.2326 -0.3751  0.5686
 1688SOL    HW3 6751   3.042   3.520   2.676 -0.2126 -0.5653  0.2809
 1688SOL    MW4 6752   3.100   3.456   2.662 -0.1983 -0.5172  0.1237
 1689SOL     OW 6753   3.343   3.612   2.742 -0.1833 -0.1085 -0.3881
 1689SOL    HW2 6754   3.362   3.612   2.836 -0.3045 -0.9324 -0.3610
 1689SOL    HW3 6755   3.266   3.555   2.733 -0.6687  0.6100 -0.8895
 1689SOL    MW4 6756   3.335   3.604   2.753 -0.2634 -0.1224 -0.4507
 1690SOL     OW 6757   3.399   3.858   2.670  0.1269 -0.0379  0.0201
 1690SOL    HW2 6758   3.368   3.771   2.694 -1.1400 -0.0861 -1.6923
 1690SOL    HW3 6759   3.384   3.864   2.576  2.5028  1.1163 -0.3234
 1690SOL    MW4 6760   3.393   3.847   2.661  0.2732  0.1080 -0.2511
 1691SOL     OW 6761   3.175   3.999   2.771 -0.0981  0.0068  0.4983
 1691SOL    HW2 6762   3.182   4.090   2.741 -1.2485  0.7900  2.5472
 1691SOL    HW3 6763   3.251   3.956   2.731  1.5912  2.3084  1.0849
 1691SOL    MW4 6764   3.186   4.006   2.762 -0.0270  0.4138  0.8460
 1692SOL     OW 6765   3.158   4.254   2.669  0.1217 -0.0691  0.0399
 1692SOL    HW2 6766   3.086   4.309   2.698  1.2575  2.1189 -1.1490
 1692SOL    HW3 6767   3.157   4.260   2.574  2.1210  0.3712  0.0128
 1692SOL    MW4 6768   3.148   4.262   2.661  0.5354  0.2777 -0.1205
 1693SOL     OW 6769   3.406   4.369   2.709 -0.0221  0.3929  0.2240
 1693SOL    HW2 6770   3.411   4.372   2.805  0.8512 -2.6117  0.3183
 1693SOL    HW3 6771   3.320   4.331   2.691  0.3837 -0.3825 -0.1201
 1693SOL    MW4 6772   3.395   4.364   2.720  0.1467 -0.1058  0.1910
 1694SOL     OW 6773   3.802   4.656   2.634 -0.0933  0.1076 -0.1043
 1694SOL    HW2 6774   3.810   4.571   2.678 -0.8508  0.9267  1.6810
 1694SOL    HW3 6775   3.719   4.691   2.667  0.5119  1.8009 -0.3645
 1694SOL    MW4 6776   3.792   4.649   2.644 -0.1134  0.4391  0.0969
 1695SOL     OW 6777   3.579   0.106   2.733  0.2349  0.0980 -0.4762
 1695SOL    HW2 6778   3.582   0.182   2.675 -0.5330 -0.8335 -1.7590
 1695SOL    HW3 6779   3.521   0.044   2.689 -0.8808 -0.3869  1.5967
 1695SOL    MW4 6780   3.572   0.108   2.719 -0.0136 -0.0889 -0.3720
 1696SOL     OW 6781   3.588   0.352   2.595  0.3152  0.6070  0.0405
 1696SOL    HW2 6782   3.663   0.391   2.640  0.4042 -0.2469  0.6505
 1696SOL    HW3 6783   3.513   0.401   2.627  0.2464 -0.7463  2.0344
 1696SOL    MW4 6784   3.588   0.364   2.605  0.3179  0.3158  0.3840
 1697SOL     OW 6785   3.818   0.462   2.692  0.1311 -0.7042 -0.0867
 1697SOL    HW2 6786   3.827   0.490   2.783 -0.3857 -2.9386  0.6784
 1697SOL    HW3 6787   3.904   0.426   2.670 -0.0012 -0.9352 -0.2182
 1697SOL    MW4 6788   3.831   0.461   2.701  0.0455 -1.0295 -0.0031
 1698SOL     OW 6789   3.834   0.732   2.615  0.7032 -0.0597  0.0711
 1698SOL    HW2 6790   3.758   0.777   2.651 -0.0219 -0.7091 -0.6316
 1698SOL    HW3 6791   3.822   0.641   2.639  2.7837  0.2615  2.5323
 1698SOL    MW4 6792   3.823   0.726   2.623  0.8821 -0.1030  0.3031
 1699SOL     OW 6793   3.628   0.878   2.715  0.0898  0.1440  0.5502
 1699SOL    HW2 6794   3.605   0.869   2.807  0.5685  1.2679  0.7830
 1699SOL    HW3 6795   3.611   0.970   2.695 -1.3167 -0.4007 -0.8373
 1699SOL    MW4 6796   3.623   0.889   2.724 -0.0326  0.2204  0.3978
 1700SOL     OW 6797   3.595   1.133   2.638  0.3438 -0.4962  0.0451
 1700SOL    HW2 6798   3.679   1.173   2.657  0.2893  0.0910 -0.9045
 1700SOL    HW3 6799   3.532   1.181   2.691  0.3181  0.5178 -0.8793
 1700SOL    MW4 6800   3.597   1.144   2.647  0.3332 -0.2849 -0.2022
 1701SOL     OW 6801   3.825   1.288   2.746 -0.5774  0.4102 -0.2236
 1701SOL    HW2 6802   3.899   1.249   2.700  0.1395  1.3188  0.1457
 1701SOL    HW3 6803   3.830   1.381   2.726 -0.5779  0.7344  1.2201
 1701SOL    MW4 6804   3.835   1.295   2.738 -0.4829  0.5729  0.0156
 1702SOL     OW 6805   3.821   1.546   2.684  0.0991  0.3764  0.7472
 1702SOL    HW2 6806   3.904   1.590   2.704  0.0770  0.5071  0.5560
 1702SOL    HW3 6807   3.754   1.611   2.705  0.0874  0.6357 -0.0498
 1702SOL    MW4 6808   3.823   1.561   2.689  0.0946  0.4278  0.6168
 1703SOL     OW 6809   3.556   1.654   2.720 -0.2618  0.4145 -0.4402
 1703SOL    HW2 6810   3.562   1.743   2.685 -0.1912  0.2413 -0.8766
 1703SOL    HW3 6811   3.480   1.617   2.675 -0.0633  0.1327 -0.5435
 1703SOL    MW4 6812   3.547   1.661   2.709 -0.2263  0.3545 -0.5114
 1704SOL     OW 6813   3.581   1.910   2.614  0.2076 -0.2152  0.1166
 1704SOL    HW2 6814   3.507   1.960   2.649  1.2276  1.1621  0.3589
 1704SOL    HW3 6815   3.583   1.931   2.521  1.1093  0.8367  0.3612
 1704SOL    MW4 6816   3.571   1.919   2.606  0.4612  0.1053  0.1808
 1705SOL     OW 6817   3.821   2.013   2.714  0.2748 -0.1455  0.1926
 1705SOL    HW2 6818   3.899   1.971   2.680  1.3395  2.7700 -1.1523
 1705SOL    HW3 6819   3.748   1.963   2.677  1.4776 -1.4038 -0.5072
 1705SOL    MW4 6820   3.821   2.001   2.705  0.5740  0.0731 -0.0772
 1706SOL     OW 6821   3.845   2.292   2.667 -0.1206  0.0735  0.1761
 1706SOL    HW2 6822   3.856   2.201   2.693 -1.0780 -0.2869 -0.6182
 1706SOL    HW3 6823   3.848   2.290   2.571  0.3269  0.9412  0.1662
 1706SOL    MW4 6824   3.847   2.280   2.657 -0.1879  0.1405  0.0700
 1707SOL     OW 6825   3.609   2.441   2.729  0.0756 -0.1524  0.0960
 1707SOL    HW2 6826   3.600   2.445   2.825 -2.4275 -0.8271 -0.0806
 1707SOL    HW3 6827   3.684   2.383   2.714 -0.3448 -1.1144  1.6301
 1707SOL    MW4 6828   3.618   2.434   2.740 -0.3101 -0.3684  0.2751
 1708SOL     OW 6829   3.624   2.715   2.659  0.2702 -0.1510 -0.0082
 1708SOL    HW2 6830   3.632   2.624   2.688 -0.4660 -0.0418  0.5572
 1708SOL    HW3 6831   3.597   2.709   2.568 -0.9270 -0.5139  0.3526
 1708SOL    MW4 6832   3.621   2.703   2.651  0.0151 -0.1845  0.1140
 1709SOL     OW 6833   3.865   2.832   2.703  0.4625 -0.5654  0.3193
 1709SOL    HW2 6834   3.942   2.793   2.662  0.4140 -1.1269  0.7641
 1709SOL    HW3 6835   3.792   2.774   2.679  0.1618  0.0146 -0.1802
 1709SOL    MW4 6836   3.865   2.819   2.694  0.4164 -0.5629  0.3121
 1710SOL     OW 6837   3.842   3.113   2.653 -0.2747 -0.0277  0.2717
 1710SOL    HW2 6838   3.757   3.144   2.684 -0.3618  0.4766 -0.4552
 1710SOL    HW3 6839   3.839   3.018   2.667 -1.2013 -0.0927 -0.2878
 1710SOL    MW4 6840   3.830   3.104   2.659 -0.4084  0.0302  0.1020
 1711SOL     OW 6841   3.606   3.224   2.726 -0.0565  0.2343 -0.7149
 1711SOL    HW2 6842   3.597   3.311   2.686  0.8039  0.0489 -1.3187
 1711SOL    HW3 6843   3.536   3.172   2.686 -0.3267  0.5390 -0.6418
 1711SOL    MW4 6844   3.596   3.229   2.715  0.0214  0.2500 -0.7849
 1712SOL     OW 6845   3.584   3.495   2.637  0.4599 -0.1082 -0.2737
 1712SOL    HW2 6846   3.657   3.542   2.676  1.9010 -0.2181 -2.7671
 1712SOL    HW3 6847   3.507   3.527   2.683  1.9702  0.7298  1.7134
 1712SOL    MW4 6848   3.583   3.505   2.648  0.8493 -0.0121 -0.3405
 1713SOL     OW 6849   3.803   3.642   2.760  0.3495 -0.4884  0.1196
 1713SOL    HW2 6850   3.878   3.600   2.717  0.8935  0.5148  0.0549
 1713SOL    HW3 6851   3.792   3.725   2.713 -1.3539 -0.9972 -0.4295
 1713SOL    MW4 6852   3.812   3.648   2.748  0.1965 -0.4232  0.0386
 1714SOL     OW 6853   3.820   3.885   2.631  0.0163 -0.7788 -0.2989
 1714SOL    HW2 6854   3.901   3.935   2.636  0.7894 -2.0334 -0.0999
 1714SOL    HW3 6855   3.765   3.922   2.700  0.4470  0.0261 -0.3857
 1714SOL    MW4 6856   3.823   3.896   2.641  0.1752 -0.8382 -0.2841
 1715SOL     OW 6857   3.614   3.986   2.791  0.2618 -0.3599 -0.0460
 1715SOL    HW2 6858   3.620   4.073   2.751  1.7554 -2.0496 -3.7901
 1715SOL    HW3 6859   3.540   3.944   2.745 -0.5157 -1.0376  1.7921
 1715SOL    MW4 6860   3.605   3.992   2.779  0.3563 -0.6723 -0.2975
 1716SOL     OW 6861   3.631   4.233   2.653  0.0456  0.0399 -0.4160
 1716SOL    HW2 6862   3.547   4.268   2.683 -0.8316 -1.6428 -0.8257
 1716SOL    HW3 6863   3.622   4.228   2.558  0.7006  0.0861 -0.4793
 1716SOL    MW4 6864   3.619   4.237   2.644  0.0163 -0.1760 -0.4784
 1717SOL     OW 6865   3.867   4.400   2.707  0.0367 -0.0925  0.0733
 1717SOL    HW2 6866   3.940   4.365   2.655 -0.9783 -0.9078 -0.8607
 1717SOL    HW3 6867   3.795   4.338   2.690 -0.6784  0.3465  1.4694
 1717SOL    MW4 6868   3.867   4.387   2.698 -0.1916 -0.1422  0.1342
 1718SOL     OW 6869   4.276   4.641   2.627  0.2907 -0.3284 -0.2254
 1718SOL    HW2 6870   4.200   4.680   2.670  0.2621 -0.9876  0.3434
 1718SOL    HW3 6871   4.348   4.700   2.645  0.2785 -0.6096  0.7434
 1718SOL    MW4 6872   4.276   4.654   2.635  0.2853 -0.4525 -0.0225
 1719SOL     OW 6873   4.044   0.093   2.741 -0.1294 -0.0517 -0.2723
 1719SOL    HW2 6874   4.029   0.088   2.835  0.6110 -0.3519 -0.1686
 1719SOL    HW3 6875   3.959   0.073   2.702 -0.4668  0.1893  0.3298
 1719SOL    MW4 6876   4.031   0.090   2.748 -0.0763 -0.0595 -0.1792
 1720SOL     OW 6877   4.067   0.343   2.618 -0.3170 -0.0499 -0.5002
 1720SOL    HW2 6878   4.070   0.256   2.657  0.6089  0.2366  0.0995
 1720SOL    HW3 6879   4.064   0.328   2.524 -3.7271 -0.7726 -0.3260
 1720SOL    MW4 6880   4.067   0.330   2.611 -0.6447 -0.1074 -0.3981
 1721SOL     OW 6881   4.248   0.501   2.747 -0.1491 -0.7156  0.3597
 1721SOL    HW2 6882   4.189   0.445   2.696 -0.2334  0.3165 -0.7034
 1721SOL    HW3 6883   4.336   0.469   2.724 -0.1950 -0.4141 -0.2565
 1721SOL    MW4 6884   4.252   0.489   2.737 -0.1663 -0.5396  0.1381
 1722SOL     OW 6885   4.266   0.772   2.671  0.1623 -0.3538 -0.2089
 1722SOL    HW2 6886   4.254   0.683   2.704  1.5559 -0.6020 -0.3308
 1722SOL    HW3 6887   4.274   0.762   2.577  0.4144 -0.1230 -0.2142
 1722SOL    MW4 6888   4.266   0.759   2.663  0.3795 -0.3561 -0.2257
 1723SOL     OW 6889   4.020   0.887   2.750  0.0429  0.1909 -0.2184
 1723SOL    HW2 6890   4.108   0.861   2.723  0.4224  0.9742  0.2198
 1723SOL    HW3 6891   3.962   0.822   2.710  0.9598 -1.4584  1.0871
 1723SOL    MW4 6892   4.024   0.875   2.741  0.2139  0.0766  0.0117
 1724SOL     OW 6893   4.056   1.145   2.634  0.0098  0.3407 -0.1233
 1724SOL    HW2 6894   4.125   1.183   2.687 -0.4462  0.0371  0.6915
 1724SOL    HW3 6895   4.043   1.057   2.669 -0.0694  0.0156 -0.9414
 1724SOL    MW4 6896   4.063   1.138   2.645 -0.0608  0.2577 -0.1237
 1725SOL     OW 6897   4.272   1.273   2.749  0.2761 -0.0743  0.0422
 1725SOL    HW2 6898   4.261   1.352   2.696 -0.9352 -1.4966 -1.8857
 1725SOL    HW3 6899   4.344   1.225   2.706  0.4816 -0.3974  0.7364
 1725SOL    MW4 6900   4.280   1.277   2.736  0.1434 -0.3046 -0.1206
 1726SOL     OW 6901   4.245   1.513   2.626  0.1917  0.1897  0.3528
 1726SOL    HW2 6902   4.326   1.561   2.647 -0.8924  2.1976  0.0396
 1726SOL    HW3 6903   4.242   1.513   2.530  0.0602 -0.3286  0.3553
 1726SOL    MW4 6904   4.255   1.519   2.616  0.0313  0.3863  0.3118
 1727SOL     OW 6905   4.061   1.672   2.737 -0.2495  0.0327 -0.1649
 1727SOL    HW2 6906   4.095   1.682   2.826  0.2931  0.0304 -0.3705
 1727SOL    HW3 6907   4.126   1.619   2.692 -1.0294 -0.8327 -0.2812
 1727SOL    MW4 6908   4.074   1.667   2.743 -0.2808 -0.0818 -0.2074
 1728SOL     OW 6909   4.049   1.920   2.582  0.4810 -0.2021  0.1573
 1728SOL    HW2 6910   4.109   1.977   2.629 -0.8956  0.9223  0.5836
 1728SOL    HW3 6911   4.043   1.841   2.635 -1.0444  1.0460  1.9227
 1728SOL    MW4 6912   4.056   1.917   2.595  0.0981  0.1109  0.4465
 1729SOL     OW 6913   4.230   2.024   2.753 -0.1598 -0.6235  0.0061
 1729SOL    HW2 6914   4.254   2.112   2.724 -1.0894 -0.2484  0.3518
 1729SOL    HW3 6915   4.305   1.970   2.731  0.7686  0.4250  0.5655
 1729SOL    MW4 6916   4.243   2.028   2.747 -0.1600 -0.4357  0.1255
 1730SOL     OW 6917   4.311   2.269   2.656  0.4474 -0.6902 -0.4896
 1730SOL    HW2 6918   4.242   2.322   2.694  1.1799 -0.1720  0.1368
 1730SOL    HW3 6919   4.313   2.296   2.564  0.9570  0.5447 -0.1357
 1730SOL    MW4 6920   4.302   2.280   2.649  0.6113 -0.4589 -0.3602
 1731SOL     OW 6921   4.085   2.432   2.720 -0.2780 -0.4427  0.7603
 1731SOL    HW2 6922   4.083   2.448   2.815 -2.1956  0.3149  0.6306
 1731SOL    HW3 6923   3.996   2.402   2.700 -0.4092  1.1102 -1.0820
 1731SOL    MW4 6924   4.073   2.430   2.730 -0.5483 -0.1379  0.5001
 1732SOL     OW 6925   4.100   2.688   2.615 -0.3792  0.6673  0.2246
 1732SOL    HW2 6926   4.178   2.730   2.653 -0.1889 -0.7807  1.4903
 1732SOL    HW3 6927   4.092   2.606   2.663 -1.1631 -0.4206 -1.7287
 1732SOL    MW4 6928   4.109   2.683   2.627 -0.4575  0.3327  0.1339
 1733SOL     OW 6929   4.314   2.842   2.726  0.2830 -0.1218  0.0014
 1733SOL    HW2 6930   4.316   2.843   2.822  0.2480  0.2604 -0.0018
 1733SOL    HW3 6931   4.283   2.929   2.702  0.9671  0.0185 -0.3721
 1733SOL    MW4 6932   4.310   2.853   2.736  0.3686 -0.0529 -0.0483
 1734SOL     OW 6933   4.246   3.098   2.657 -0.5863 -0.1441 -0.3540
 1734SOL    HW2 6934   4.171   3.155   2.670 -0.6676 -0.2542 -0.3371
 1734SOL    HW3 6935   4.264   3.101   2.563  0.5455  1.3332 -0.0996
 1734SOL    MW4 6936   4.239   3.106   2.646 -0.4477  0.0363 -0.3182
 1735SOL     OW 6937   4.046   3.256   2.737 -0.3166  0.1595 -0.6222
 1735SOL    HW2 6938   4.031   3.346   2.709 -0.6774 -0.4998 -2.6355
 1735SOL    HW3 6939   3.971   3.207   2.703 -0.2236 -0.8869  0.6090
 1735SOL    MW4 6940   4.034   3.261   2.729 -0.3519 -0.0656 -0.7253
 1736SOL     OW 6941   4.034   3.520   2.648 -0.2302 -0.6831 -0.2155
 1736SOL    HW2 6942   4.113   3.566   2.675 -1.3257  0.7692  0.5800
 1736SOL    HW3 6943   4.049   3.499   2.556  0.9067 -0.0395 -0.1860
 1736SOL    MW4 6944   4.047   3.524   2.640 -0.2248 -0.4066 -0.1066
 1737SOL     OW 6945   4.279   3.602   2.742 -0.7967 -0.1216 -0.2038
 1737SOL    HW2 6946   4.296   3.603   2.836 -1.5231  0.6413 -0.0808
 1737SOL    HW3 6947   4.355   3.557   2.705 -1.7182 -2.7613  0.9845
 1737SOL    MW4 6948   4.291   3.596   2.750 -1.0141 -0.3692 -0.0308
 1738SOL     OW 6949   4.282   3.849   2.628  0.1218 -0.5401 -0.1885
 1738SOL    HW2 6950   4.298   3.770   2.679 -0.2176 -0.3064  0.2816
 1738SOL    HW3 6951   4.330   3.918   2.674 -0.6258 -0.2223  0.1309
 1738SOL    MW4 6952   4.290   3.848   2.641 -0.0216 -0.4673 -0.0844
 1739SOL     OW 6953   4.052   4.001   2.705  0.0752 -0.1358  0.3889
 1739SOL    HW2 6954   4.048   3.996   2.800  1.1702  2.0370  0.5843
 1739SOL    HW3 6955   4.115   3.934   2.680  0.2941 -0.2541  1.2515
 1739SOL    MW4 6956   4.060   3.992   2.714  0.2486  0.1352  0.5285
 1740SOL     OW 6957   4.078   4.263   2.585 -0.0562 -0.1564  0.0398
 1740SOL    HW2 6958   4.049   4.176   2.611 -2.0368  0.5122  0.1226
 1740SOL    HW3 6959   4.076   4.262   2.489  1.4901 -0.6979 -0.0058
 1740SOL    MW4 6960   4.074   4.251   2.576 -0.1135 -0.1396  0.0447
 1741SOL     OW 6961   4.259   4.386   2.751  0.0375 -0.2273 -0.0582
 1741SOL    HW2 6962   4.207   4.342   2.685  1.7742 -0.2346 -1.4506
 1741SOL    HW3 6963   4.263   4.477   2.722  0.8136 -0.2304  0.0274
 1741SOL    MW4 6964   4.253   4.393   2.739  0.3690 -0.2286 -0.2306
 1742SOL     OW 6965   0.225   4.644   3.119  0.6166  0.2214 -0.0590
 1742SOL    HW2 6966   0.212   4.634   3.213  0.0106 -1.7604 -0.3291
 1742SOL    HW3 6967   0.152   4.699   3.090  0.8545  0.9042  0.6342
 1742SOL    MW4 6968   0.213   4.650   3.127  0.5680  0.0500 -0.0032
 1743SOL     OW 6969   0.005   0.089   3.009 -0.2914  0.0782 -0.1750
 1743SOL    HW2 6970  -0.069   0.039   3.043 -0.7160  0.2401 -0.8510
 1743SOL    HW3 6971  -0.008   0.178   3.043  0.4110 -0.2480  0.9450
 1743SOL    MW4 6972  -0.007   0.094   3.018 -0.2548  0.0565 -0.1164
 1744SOL     OW 6973   4.452   0.331   3.134  0.5516 -0.1466 -0.1320
 1744SOL    HW2 6974   4.453   0.351   3.227  0.2479 -0.5173 -0.0436
 1744SOL    HW3 6975   4.381   0.385   3.099 -0.2269 -0.9977  0.0949
 1744SOL    MW4 6976   4.442   0.341   3.142  0.4088 -0.3078 -0.0904
 1745SOL     OW 6977   0.183   0.472   2.979  0.1564 -0.2133  0.3268
 1745SOL    HW2 6978   0.263   0.434   3.014 -0.2641 -0.2937  1.2169
 1745SOL    HW3 6979   0.116   0.452   3.044 -0.5301  0.0952 -0.2737
 1745SOL    MW4 6980   0.184   0.465   2.992  0.0104 -0.1832  0.3650
 1746SOL     OW 6981   0.269   0.739   3.071  0.1210  0.0622 -0.4968
 1746SOL    HW2 6982   0.252   0.744   3.165  0.4827  0.3871 -0.4484
 1746SOL    HW3 6983   0.242   0.650   3.046  1.1359 -0.4381  0.1389
 1746SOL    MW4 6984   0.264   0.728   3.080  0.3026  0.0391 -0.4066
 1747SOL     OW 6985   0.010   0.888   3.022 -0.0582  0.0868 -0.0846
 1747SOL    HW2 6986   0.089   0.835   3.027  1.3459  2.1065  0.0169
 1747SOL    HW3 6987   0.002   0.913   2.930 -1.1252 -0.8927 -0.2665
 1747SOL    MW4 6988   0.019   0.885   3.011 -0.0137  0.2240 -0.0952
 1748SOL     OW 6989   4.489   1.150   3.115  0.7023 -0.3323 -0.1021
 1748SOL    HW2 6990   4.406   1.191   3.093 -0.1830 -1.3649  1.2143
 1748SOL    HW3 6991   4.484   1.062   3.078  1.6203 -0.0688 -0.8773
 1748SOL    MW4 6992   4.478   1.144   3.107  0.7066 -0.4338 -0.0307
 1749SOL     OW 6993   0.238   1.286   3.008  0.2245  0.4043  0.1511
 1749SOL    HW2 6994   0.156   1.251   3.043 -1.1174  1.3786 -1.9339
 1749SOL    HW3 6995   0.234   1.268   2.914  2.0954  1.1041 -0.0886
 1749SOL    MW4 6996   0.227   1.279   3.001  0.2943  0.6252 -0.1556
 1750SOL     OW 6997   0.238   1.562   3.142  0.1524  0.1315  0.2474
 1750SOL    HW2 6998   0.157   1.600   3.107 -0.2308 -1.3387 -0.5093
 1750SOL    HW3 6999   0.238   1.472   3.108  2.1899  0.1823  0.0973
 1750SOL    MW4 7000   0.227   1.555   3.133  0.3706 -0.0558  0.1277
 1751SOL     OW 7001   4.490   1.659   3.017  0.4308  0.4905 -0.2167
 1751SOL    HW2 7002   4.432   1.609   3.074  1.2940 -0.9033 -0.5581
 1751SOL    HW3 7003   4.499   1.744   3.061  0.9925 -0.5219  1.6939
 1751SOL    MW4 7004   4.484   1.664   3.031  0.6188  0.1730 -0.0096
 1752SOL     OW 7005   0.021   1.917   3.129 -0.2221 -0.5648 -0.0895
 1752SOL    HW2 7006  -0.064   1.951   3.101 -0.9159 -1.1657  1.2170
 1752SOL    HW3 7007   0.085   1.974   3.087 -1.3048  0.5584 -0.2388
 1752SOL    MW4 7008   0.018   1.929   3.120 -0.4565 -0.4959  0.0632
 1753SOL     OW 7009   0.197   2.094   3.021  0.1120  0.4097 -0.5932
 1753SOL    HW2 7010   0.205   2.180   3.062 -1.6963  0.4177 -0.2314
 1753SOL    HW3 7011   0.219   2.109   2.929 -1.2763  1.4994 -0.7694
 1753SOL    MW4 7012   0.201   2.108   3.014 -0.3098  0.5545 -0.5687
 1754SOL     OW 7013   0.233   2.346   3.127 -0.5765 -0.0839  0.0764
 1754SOL    HW2 7014   0.237   2.304   3.213 -0.3922 -0.9643 -0.3511
 1754SOL    HW3 7015   0.324   2.361   3.103 -0.6132 -0.1369 -0.1016
 1754SOL    MW4 7016   0.245   2.342   3.135 -0.5570 -0.2071 -0.0035
 1755SOL     OW 7017   4.470   2.460   3.028  0.4639 -0.2193  0.1685
 1755SOL    HW2 7018   4.462   2.547   3.069 -1.1028 -0.1820 -0.1636
 1755SOL    HW3 7019   4.557   2.430   3.052  1.0205  1.4455  0.3038
 1755SOL    MW4 7020   4.480   2.468   3.037  0.3306  0.0053  0.1426
 1756SOL     OW 7021   4.485   2.728   3.125  0.2036 -0.2939  0.3121
 1756SOL    HW2 7022   4.501   2.722   3.220  0.6600 -0.0715  0.2515
 1756SOL    HW3 7023   4.561   2.776   3.091  0.2921 -0.8227 -0.2393
 1756SOL    MW4 7024   4.497   2.734   3.133  0.2755 -0.3343  0.2314
 1757SOL     OW 7025   0.216   2.871   3.021 -0.0755 -0.1847 -0.0092
 1757SOL    HW2 7026   0.306   2.843   3.040  0.3963  0.6710 -0.9263
 1757SOL    HW3 7027   0.208   2.862   2.926 -0.4880  1.1062 -0.1014
 1757SOL    MW4 7028   0.227   2.866   3.011 -0.0677  0.0985 -0.1423
 1758SOL     OW 7029   0.223   3.122   3.166  0.4279  0.3156  0.0154
 1758SOL    HW2 7030   0.148   3.160   3.122  1.4776  0.7757 -1.4326
 1758SOL    HW3 7031   0.222   3.030   3.139  0.8395  0.5050 -0.6476
 1758SOL    MW4 7032   0.213   3.115   3.157  0.6207  0.4013 -0.2632
 1759SOL     OW 7033   4.470   3.226   3.065 -0.1064  0.2470  0.0719
 1759SOL    HW2 7034   4.392   3.175   3.085  0.2365 -0.1711  0.3311
 1759SOL    HW3 7035   4.464   3.242   2.971 -0.6222  0.4122  0.1311
 1759SOL    MW4 7036   4.459   3.222   3.055 -0.1292  0.2136  0.1139
 1760SOL     OW 7037   0.021   3.493   3.170  0.0057 -0.3534  0.1649
 1760SOL    HW2 7038  -0.056   3.541   3.139 -0.9540 -0.9565  1.5365
 1760SOL    HW3 7039   0.007   3.403   3.139  0.3760 -0.3711  0.0456
 1760SOL    MW4 7040   0.009   3.487   3.162 -0.0720 -0.4353  0.3301
 1761SOL     OW 7041   0.216   3.625   2.988  0.2383  0.2315 -0.1649
 1761SOL    HW2 7042   0.202   3.719   3.000 -0.0306  0.2312 -0.4845
 1761SOL    HW3 7043   0.153   3.584   3.048 -0.4878  0.2415 -0.9205
 1761SOL    MW4 7044   0.206   3.632   2.998  0.1070  0.2327 -0.3068
 1762SOL     OW 7045   0.218   3.884   3.084  0.2627  0.4064  0.3303
 1762SOL    HW2 7046   0.221   3.879   3.180  1.5427 -0.6094  0.2524
 1762SOL    HW3 7047   0.307   3.906   3.058 -0.0176  0.4164 -0.6541
 1762SOL    MW4 7048   0.230   3.886   3.093  0.3946  0.2737  0.1901
 1763SOL     OW 7049   4.481   4.030   3.019 -0.3019 -0.3402  0.1728
 1763SOL    HW2 7050   4.553   3.968   3.031 -0.6865 -1.1811 -1.6707
 1763SOL    HW3 7051   4.463   4.028   2.925 -1.4073  1.3642  0.3257
 1763SOL    MW4 7052   4.488   4.022   3.008 -0.4985 -0.2262 -0.0503
 1764SOL     OW 7053   0.048   4.284   3.103  0.0362  0.0185 -0.2753
 1764SOL    HW2 7054   0.048   4.285   3.199  0.9817  0.2623 -0.2698
 1764SOL    HW3 7055   0.031   4.193   3.080  2.9121 -0.6820  0.1688
 1764SOL    MW4 7056   0.046   4.272   3.113  0.5404 -0.0418 -0.2160
 1765SOL     OW 7057   0.288   4.391   3.021 -0.6308 -0.4354 -0.1988
 1765SOL    HW2 7058   0.211   4.336   3.030 -2.6584  2.2645 -0.4226
 1765SOL    HW3 7059   0.263   4.474   3.061  2.4276  0.2828  0.3801
 1765SOL    MW4 7060   0.275   4.395   3.027 -0.4948  0.0156 -0.1519
 1766SOL     OW 7061   0.720   4.640   3.089  0.0949 -0.7499 -0.1735
 1766SOL    HW2 7062   0.729   4.547   3.070 -0.5056 -0.7534 -0.4507
 1766SOL    HW3 7063   0.634   4.664   3.054  0.4353  0.0069 -0.5224
 1766SOL    MW4 7064   0.710   4.631   3.082  0.0605 -0.6505 -0.2561
 1767SOL     OW 7065   0.469   0.075   2.994  0.6563 -0.1444 -0.7446
 1767SOL    HW2 7066   0.468   0.167   3.023  0.0039  0.0125 -1.2601
 1767SOL    HW3 7067   0.390   0.037   3.033  1.4230 -0.7378  0.2567
 1767SOL    MW4 7068   0.459   0.082   3.003  0.6714 -0.2020 -0.6805
 1768SOL     OW 7069   0.436   0.357   3.046 -0.0493  0.0437 -0.1826
 1768SOL    HW2 7070   0.435   0.361   3.142  1.1373 -0.3889 -0.1394
 1768SOL    HW3 7071   0.499   0.424   3.020  0.2983 -0.4386 -0.6094
 1768SOL    MW4 7072   0.444   0.366   3.056  0.1531 -0.0770 -0.2332
 1769SOL     OW 7073   0.637   0.533   2.980 -0.0095  0.0329 -0.2424
 1769SOL    HW2 7074   0.716   0.482   2.996  0.1557  1.0955  2.5969
 1769SOL    HW3 7075   0.659   0.621   3.010 -1.8227  0.6664 -0.7065
 1769SOL    MW4 7076   0.650   0.538   2.986 -0.2270  0.2567  0.0710
 1770SOL     OW 7077   0.705   0.788   3.060  0.2621  0.1785 -0.3497
 1770SOL    HW2 7078   0.701   0.783   3.155 -1.3285 -1.1862 -0.4587
 1770SOL    HW3 7079   0.631   0.844   3.036  0.8875  0.8356 -0.7708
 1770SOL    MW4 7080   0.695   0.795   3.069  0.1348  0.0852 -0.4197
 1771SOL     OW 7081   0.481   0.942   3.002  0.2597  0.2799  0.2589
 1771SOL    HW2 7082   0.413   0.879   3.023  0.6274  0.2351  1.3327
 1771SOL    HW3 7083   0.483   0.944   2.906  0.0955 -1.1785  0.2137
 1771SOL    MW4 7084   0.473   0.934   2.992  0.2865  0.0816  0.3946
 1772SOL     OW 7085   0.489   1.212   3.104  0.4211  0.0232  0.8736
 1772SOL    HW2 7086   0.503   1.122   3.074  1.0516  0.0496  1.0729
 1772SOL    HW3 7087   0.397   1.230   3.086  0.5894 -0.2510 -0.2867
 1772SOL    MW4 7088   0.479   1.203   3.098  0.5265 -0.0095  0.7468
 1773SOL     OW 7089   0.736   1.342   2.994  0.1593 -0.5965 -0.0829
 1773SOL    HW2 7090   0.819   1.305   3.023 -0.6690 -1.9236  0.6601
 1773SOL    HW3 7091   0.670   1.284   3.031 -1.0121 -1.1999 -3.0153
 1773SOL    MW4 7092   0.738   1.330   3.003 -0.1045 -0.8512 -0.3718
 1774SOL     OW 7093   0.694   1.585   3.139 -0.0579  0.0679  0.2973
 1774SOL    HW2 7094   0.683   1.573   3.233  0.8306  0.2145  0.4194
 1774SOL    HW3 7095   0.708   1.496   3.105 -2.5379 -0.2542  0.0024
 1774SOL    MW4 7096   0.695   1.571   3.147 -0.2679  0.0448  0.2745
 1775SOL     OW 7097   0.451   1.683   3.022  0.1856  0.4303 -0.1517
 1775SOL    HW2 7098   0.537   1.653   3.052 -0.2009  0.3318  0.8564
 1775SOL    HW3 7099   0.389   1.645   3.084 -0.5358  1.0846 -0.4685
 1775SOL    MW4 7100   0.455   1.674   3.034  0.0394  0.5036 -0.0605
 1776SOL     OW 7101   0.430   1.953   3.087  0.0846  0.1393 -0.0702
 1776SOL    HW2 7102   0.424   1.865   3.049 -0.8037 -0.3688  1.2402
 1776SOL    HW3 7103   0.347   1.994   3.064  0.8531  0.9663 -1.4500
 1776SOL    MW4 7104   0.418   1.946   3.079  0.0688  0.1814 -0.0794
 1777SOL     OW 7105   0.657   2.068   2.981 -0.2407 -0.1556  0.1137
 1777SOL    HW2 7106   0.728   2.012   3.013 -0.4863 -1.1050 -1.0006
 1777SOL    HW3 7107   0.578   2.032   3.020 -0.2499  0.2863  0.5237
 1777SOL    MW4 7108   0.656   2.056   2.991 -0.2743 -0.2226  0.0208
 1778SOL     OW 7109   0.691   2.312   3.096 -0.9060 -0.2013 -0.1328
 1778SOL    HW2 7110   0.683   2.302   3.190  0.9919 -2.0588 -0.1553
 1778SOL    HW3 7111   0.683   2.224   3.061 -0.7121  0.3679 -1.6560
 1778SOL    MW4 7112   0.689   2.299   3.104 -0.6300 -0.3713 -0.3367
 1779SOL     OW 7113   0.459   2.457   3.001  0.1348  0.4635  0.1359
 1779SOL    HW2 7114   0.550   2.432   3.019  0.6594  1.6765 -0.7914
 1779SOL    HW3 7115   0.449   2.445   2.906 -0.4875  0.9309  0.1392
 1779SOL    MW4 7116   0.470   2.452   2.991  0.1219  0.6852  0.0140
 1780SOL     OW 7117   0.444   2.720   3.082  0.2437  0.2269  0.4232
 1780SOL    HW2 7118   0.512   2.763   3.030  1.7916 -0.1670  2.0567
 1780SOL    HW3 7119   0.442   2.630   3.049  1.7904 -0.2411  1.5466
 1780SOL    MW4 7120   0.453   2.713   3.071  0.6520  0.1132  0.7869
 1781SOL     OW 7121   0.665   2.844   2.983 -0.5008  0.2813 -0.1494
 1781SOL    HW2 7122   0.732   2.796   3.032 -1.5639  0.0708  1.0950
 1781SOL    HW3 7123   0.673   2.934   3.014 -1.0854  0.1734  0.3098
 1781SOL    MW4 7124   0.675   2.849   2.993 -0.7182  0.2393  0.0754
 1782SOL     OW 7125   0.669   3.115   3.081 -0.1866 -0.2846 -0.0508
 1782SOL    HW2 7126   0.661   3.112   3.177 -0.5286  0.2345 -0.0660
 1782SOL    HW3 7127   0.588   3.155   3.051 -0.4181 -1.1717 -0.6158
 1782SOL    MW4 7128   0.657   3.120   3.090 -0.2623 -0.3332 -0.1274
 1783SOL     OW 7129   0.420   3.251   3.009  0.5854  0.4153 -0.1239
 1783SOL    HW2 7130   0.422   3.335   3.056  2.2124  0.4266 -0.1867
 1783SOL    HW3 7131   0.356   3.198   3.056  2.5840  0.2336  2.4620
 1783SOL    MW4 7132   0.412   3.255   3.021  1.0637  0.3928  0.2090
 1784SOL     OW 7133   0.404   3.486   3.119 -0.0771  0.1846 -0.0276
 1784SOL    HW2 7134   0.411   3.483   3.215  1.1475  1.6029 -0.0535
 1784SOL    HW3 7135   0.354   3.565   3.101  0.5526  0.4652 -0.5833
 1784SOL    MW4 7136   0.399   3.496   3.130  0.1676  0.4087 -0.1043
 1785SOL     OW 7137   0.656   3.594   3.025 -0.3022  0.2308  0.5822
 1785SOL    HW2 7138   0.730   3.541   3.055  0.3081 -0.4470 -1.9231
 1785SOL    HW3 7139   0.580   3.537   3.034  0.2007 -0.7504 -1.1378
 1785SOL    MW4 7140   0.656   3.580   3.030 -0.1553  0.0119  0.0247
 1786SOL     OW 7141   0.727   3.868   3.096 -0.4787 -0.2007  0.2010
 1786SOL    HW2 7142   0.692   3.884   3.184 -0.6239 -0.3587  0.1729
 1786SOL    HW3 7143   0.701   3.778   3.076 -0.3106 -0.2186  0.0588
 1786SOL    MW4 7144   0.719   3.858   3.105 -0.4757 -0.2239  0.1785
 1787SOL     OW 7145   0.482   3.979   3.012 -0.5719 -0.5613  0.0993
 1787SOL    HW2 7146   0.570   3.947   3.031  0.2017  2.1753  1.4030
 1787SOL    HW3 7147   0.479   3.983   2.916  1.4643  1.1969  0.0757
 1787SOL    MW4 7148   0.493   3.975   3.002 -0.2012  0.0318  0.2682
 1788SOL     OW 7149   0.516   4.253   3.112  0.3523  0.1427  0.3540
 1788SOL    HW2 7150   0.495   4.178   3.057  2.3531 -0.1371 -0.0312
 1788SOL    HW3 7151   0.441   4.312   3.102 -0.8160 -1.3907 -0.0361
 1788SOL    MW4 7152   0.503   4.251   3.104  0.4622 -0.0965  0.2517
 1789SOL     OW 7153   0.713   4.377   2.972  0.0140  0.5316  0.3711
 1789SOL    HW2 7154   0.633   4.342   3.010 -0.8365  1.9370 -0.1147
 1789SOL    HW3 7155   0.694   4.387   2.879  1.8352 -2.1674 -0.3735
 1789SOL    MW4 7156   0.700   4.374   2.965  0.1420  0.3609  0.2088
 1790SOL     OW 7157   1.134   4.651   3.073 -0.4991  0.1464  0.3693
 1790SOL    HW2 7158   1.215   4.689   3.037  0.3990 -0.5605  1.5722
 1790SOL    HW3 7159   1.064   4.702   3.034  0.6248  2.2199  0.9461
 1790SOL    MW4 7160   1.136   4.663   3.063 -0.2323  0.3267  0.6041
 1791SOL     OW 7161   0.917   0.119   2.957  0.0452  0.0680  0.4623
 1791SOL    HW2 7162   0.895   0.211   2.977 -1.9148  0.0569 -1.5462
 1791SOL    HW3 7163   0.849   0.068   3.002 -0.3015 -0.2719 -0.4356
 1791SOL    MW4 7164   0.905   0.125   2.966 -0.2592  0.0217  0.0789
 1792SOL     OW 7165   0.863   0.389   3.060 -0.4339 -0.6057  0.2852
 1792SOL    HW2 7166   0.857   0.395   3.156 -1.4124  1.4507  0.1221
 1792SOL    HW3 7167   0.951   0.423   3.040 -0.8661  0.5913  0.3537
 1792SOL    MW4 7168   0.874   0.394   3.070 -0.6200 -0.1765  0.2727
 1793SOL     OW 7169   1.109   0.498   3.031 -0.1161 -0.7114 -0.2053
 1793SOL    HW2 7170   1.182   0.448   3.069  0.6283  0.8230  0.4162
 1793SOL    HW3 7171   1.122   0.490   2.937  1.3769  0.2552 -0.1046
 1793SOL    MW4 7172   1.121   0.490   3.024  0.1791 -0.3814 -0.1100
 1794SOL     OW 7173   1.130   0.781   3.092 -0.5111 -0.3091  0.0309
 1794SOL    HW2 7174   1.123   0.788   3.187  0.4153 -0.9002  0.1589
 1794SOL    HW3 7175   1.129   0.686   3.076  3.1681 -0.3872 -0.1813
 1794SOL    MW4 7176   1.129   0.769   3.103  0.0965 -0.3974  0.0198
 1795SOL     OW 7177   0.929   0.943   2.985  0.2693 -0.1986  0.0829
 1795SOL    HW2 7178   1.001   0.891   3.022  0.4617 -0.8374 -1.1612
 1795SOL    HW3 7179   0.850   0.893   3.006  0.2272  0.2651  1.0418
 1795SOL    MW4 7180   0.928   0.929   2.993  0.2891 -0.2217  0.0453
 1796SOL     OW 7181   0.939   1.187   3.102 -0.0448 -0.3363 -0.3064
 1796SOL    HW2 7182   1.027   1.216   3.078  0.6587 -1.5377  0.8064
 1796SOL    HW3 7183   0.920   1.116   3.041  0.7657 -1.7582  1.0943
 1796SOL    MW4 7184   0.948   1.182   3.091  0.1550 -0.6824  0.0252
 1797SOL     OW 7185   1.182   1.256   3.005 -0.0929 -0.3366  0.1847
 1797SOL    HW2 7186   1.264   1.212   3.027  1.0677  1.8058  0.1795
 1797SOL    HW3 7187   1.178   1.253   2.910 -0.6500 -1.5216  0.2298
 1797SOL    MW4 7188   1.192   1.249   2.996 -0.0132 -0.2103  0.1899
 1798SOL     OW 7189   1.145   1.502   3.111  0.6277  0.2523  0.4033
 1798SOL    HW2 7190   1.226   1.550   3.095  0.0503  0.7149 -1.2761
 1798SOL    HW3 7191   1.160   1.415   3.074  0.4315  0.2700  0.2816
 1798SOL    MW4 7192   1.157   1.497   3.104  0.5257  0.3156  0.1657
 1799SOL     OW 7193   0.908   1.671   2.999  0.1252  0.5354 -0.4654
 1799SOL    HW2 7194   0.983   1.623   3.034 -0.6504  0.1301  0.6697
 1799SOL    HW3 7195   0.834   1.642   3.052 -0.7276  1.4103 -1.1568
 1799SOL    MW4 7196   0.908   1.661   3.010 -0.0896  0.5974 -0.4069
 1800SOL     OW 7197   0.856   1.923   3.084 -0.2560 -0.0435 -0.3696
 1800SOL    HW2 7198   0.844   1.910   3.178 -2.2846 -2.4193 -0.8699
 1800SOL    HW3 7199   0.902   1.845   3.054  0.6806  0.8479 -1.3086
 1800SOL    MW4 7200   0.860   1.911   3.092 -0.4001 -0.2393 -0.5595
 1801SOL     OW 7201   1.101   2.046   3.021  0.2416  0.2909 -0.0051
 1801SOL    HW2 7202   1.014   2.023   3.053  0.8461 -0.1331  1.4027
 1801SOL    HW3 7203   1.100   2.022   2.928 -1.1769  0.4210 -0.0393
 1801SOL    MW4 7204   1.089   2.040   3.013  0.1342  0.2521  0.1761
 1802SOL     OW 7205   1.130   2.319   3.085 -0.0639  0.4278  0.4236
 1802SOL    HW2 7206   1.045   2.359   3.067  0.3997  1.2423 -0.0007
 1802SOL    HW3 7207   1.118   2.227   3.062 -0.5529  0.7354 -0.6194
 1802SOL    MW4 7208   1.118   2.312   3.079 -0.0673  0.5759  0.2300
 1803SOL     OW 7209   0.896   2.466   3.003  0.2906  0.3449  0.6000
 1803SOL    HW2 7210   0.822   2.410   3.028 -0.3086  1.3203  1.0547
 1803SOL    HW3 7211   0.902   2.457   2.908 -0.3723  0.2077  0.5706
 1803SOL    MW4 7212   0.887   2.458   2.994  0.1241  0.4555  0.6561
 1804SOL     OW 7213   0.890   2.731   3.075 -0.8280  0.7365  0.0811
 1804SOL    HW2 7214   0.868   2.734   3.168  2.0198  0.2813  0.8190
 1804SOL    HW3 7215   0.905   2.638   3.057  0.8283  1.0448 -0.2556
 1804SOL    MW4 7216   0.889   2.719   3.085 -0.2338  0.7171  0.1340
 1805SOL     OW 7217   1.127   2.847   2.979 -0.0407  0.1113  0.2464
 1805SOL    HW2 7218   1.125   2.932   3.023  0.2671  0.3042 -0.1151
 1805SOL    HW3 7219   1.040   2.810   2.994 -0.3909  0.7736 -0.1535
 1805SOL    MW4 7220   1.115   2.853   2.987 -0.0463  0.2242  0.1460
 1806SOL     OW 7221   1.161   3.089   3.125 -0.0749 -0.1556 -0.0536
 1806SOL    HW2 7222   1.224   3.148   3.083 -0.8116  0.1601 -0.7251
 1806SOL    HW3 7223   1.076   3.123   3.099 -0.5617  0.1749  1.8554
 1806SOL    MW4 7224   1.158   3.101   3.116 -0.2363 -0.0703  0.1097
 1807SOL     OW 7225   0.929   3.232   3.037 -0.3150  0.4717  0.0315
 1807SOL    HW2 7226   0.847   3.188   3.059  0.3604 -0.9676 -0.3080
 1807SOL    HW3 7227   0.936   3.225   2.942  0.2146  0.5778  0.0617
 1807SOL    MW4 7228   0.919   3.225   3.028 -0.1561  0.2958 -0.0093
 1808SOL     OW 7229   0.894   3.493   3.119 -0.3213 -0.2422 -0.1031
 1808SOL    HW2 7230   0.967   3.544   3.086  0.7652  0.1585  2.7968
 1808SOL    HW3 7231   0.908   3.405   3.085  0.7918  0.1413 -0.6285
 1808SOL    MW4 7232   0.905   3.488   3.111 -0.0311 -0.1387  0.2102
 1809SOL     OW 7233   1.099   3.626   2.995  0.2921 -0.4044  0.3524
 1809SOL    HW2 7234   1.179   3.585   3.026  0.1404 -1.3566 -0.5026
 1809SOL    HW3 7235   1.106   3.717   3.023  1.7110 -0.4627  0.1860
 1809SOL    MW4 7236   1.110   3.632   3.003  0.4593 -0.5377  0.2177
 1810SOL     OW 7237   1.153   3.892   3.087  0.1497 -0.7398  0.2547
 1810SOL    HW2 7238   1.130   3.899   3.180 -0.8520 -0.3308 -0.0098
 1810SOL    HW3 7239   1.086   3.944   3.042  0.7692 -0.7308 -0.6797
 1810SOL    MW4 7240   1.141   3.900   3.093  0.0992 -0.6847  0.0965
 1811SOL     OW 7241   0.927   4.012   2.975 -0.1004 -0.5847  0.2973
 1811SOL    HW2 7242   0.851   3.969   3.013 -0.7541  0.6032  0.3830
 1811SOL    HW3 7243   0.908   4.015   2.881  0.9694 -2.4609  0.0053
 1811SOL    MW4 7244   0.915   4.007   2.967 -0.0455 -0.6756  0.2701
 1812SOL     OW 7245   0.926   4.247   3.103 -0.3167  0.2747  0.0725
 1812SOL    HW2 7246   0.937   4.159   3.068  0.6005 -0.7539  2.8276
 1812SOL    HW3 7247   0.841   4.276   3.068  0.7318 -0.4896 -3.2493
 1812SOL    MW4 7248   0.916   4.239   3.094 -0.0574  0.0382 -0.0023
 1813SOL     OW 7249   1.127   4.396   2.973 -0.0384 -0.1975 -0.3348
 1813SOL    HW2 7250   1.048   4.353   3.006  1.1668 -1.9083  0.4339
 1813SOL    HW3 7251   1.137   4.473   3.030  0.5109 -1.6436  1.6013
 1813SOL    MW4 7252   1.118   4.401   2.985  0.1931 -0.6140  0.0221
 1814SOL     OW 7253   1.575   4.623   3.080 -0.2349  0.1273  0.1814
 1814SOL    HW2 7254   1.569   4.627   3.175 -0.2859 -0.9928  0.2389
 1814SOL    HW3 7255   1.499   4.671   3.048 -1.8166 -1.9284  0.7460
 1814SOL    MW4 7256   1.564   4.630   3.088 -0.4503 -0.2917  0.2634
 1815SOL     OW 7257   1.357   0.107   2.992  0.0919  0.2391 -0.1436
 1815SOL    HW2 7258   1.370   0.198   3.019  1.1133 -0.1229  0.6024
 1815SOL    HW3 7259   1.361   0.110   2.896 -2.3572  1.3377 -0.2704
 1815SOL    MW4 7260   1.359   0.119   2.983 -0.0965  0.3363 -0.0619
 1816SOL     OW 7261   1.344   0.366   3.093 -0.2719  0.0225  0.2863
 1816SOL    HW2 7262   1.353   0.366   3.189  0.9789  2.2658  0.2032
 1816SOL    HW3 7263   1.431   0.390   3.062 -0.4202 -1.6291 -1.4694
 1816SOL    MW4 7264   1.357   0.369   3.102 -0.1264  0.1006  0.0437
 1817SOL     OW 7265   1.609   0.476   3.041  0.4124 -0.0170  0.2353
 1817SOL    HW2 7266   1.600   0.568   3.064 -1.1926 -0.2786  0.7815
 1817SOL    HW3 7267   1.619   0.475   2.946  1.5414  0.7774  0.3484
 1817SOL    MW4 7268   1.609   0.488   3.031  0.3496  0.0533  0.3223
 1818SOL     OW 7269   1.616   0.741   3.082  0.0119  0.3859  0.2165
 1818SOL    HW2 7270   1.609   0.754   3.176 -1.2968 -0.2049  0.2212
 1818SOL    HW3 7271   1.534   0.775   3.047  0.1566 -0.1015 -0.6210
 1818SOL    MW4 7272   1.604   0.747   3.090 -0.1417  0.2436  0.1066
 1819SOL     OW 7273   1.390   0.859   3.001  0.2409 -0.2375  0.5206
 1819SOL    HW2 7274   1.399   0.947   3.037 -0.2738 -0.2751  0.7391
 1819SOL    HW3 7275   1.306   0.828   3.033 -0.0437 -0.4200 -0.3891
 1819SOL    MW4 7276   1.380   0.867   3.010  0.1354 -0.2666  0.4294
 1820SOL     OW 7277   1.400   1.110   3.107 -0.4109  0.4676 -0.8669
 1820SOL    HW2 7278   1.400   1.119   3.202 -1.7653 -1.8237 -0.6000
 1820SOL    HW3 7279   1.471   1.166   3.077  0.7995  0.2957  1.5818
 1820SOL    MW4 7280   1.409   1.119   3.115 -0.4299  0.1426 -0.5086
 1821SOL     OW 7281   1.610   1.275   3.001  0.5260  0.1129  0.4375
 1821SOL    HW2 7282   1.691   1.247   3.044 -0.1845 -0.2828  1.5140
 1821SOL    HW3 7283   1.585   1.355   3.047  0.2302  0.1688  0.1807
 1821SOL    MW4 7284   1.617   1.282   3.013  0.3933  0.0681  0.5457
 1822SOL     OW 7285   1.562   1.517   3.111  0.0886 -0.0072  0.1031
 1822SOL    HW2 7286   1.636   1.573   3.086  0.6506 -0.3635  0.9389
 1822SOL    HW3 7287   1.487   1.577   3.113  0.4807  0.4980 -0.0868
 1822SOL    MW4 7288   1.562   1.533   3.108  0.2145  0.0125  0.1883
 1823SOL     OW 7289   1.344   1.680   3.031  0.4670  0.0724  0.4305
 1823SOL    HW2 7290   1.349   1.775   3.043 -1.2821  0.2521 -0.1293
 1823SOL    HW3 7291   1.344   1.668   2.937  2.3305 -0.6009  0.5029
 1823SOL    MW4 7292   1.345   1.691   3.021  0.4821  0.0073  0.3662
 1824SOL     OW 7293   1.355   1.946   3.093  0.1708 -0.3432  0.3497
 1824SOL    HW2 7294   1.349   1.935   3.187  0.8687  1.7980  0.6748
 1824SOL    HW3 7295   1.268   1.977   3.067  0.2980  0.1290  0.4708
 1824SOL    MW4 7296   1.343   1.949   3.102  0.2796  0.0016  0.4085
 1825SOL     OW 7297   1.571   2.087   3.005  0.4927  0.3136 -0.5007
 1825SOL    HW2 7298   1.494   2.037   3.034  0.6543 -0.3161 -1.1619
 1825SOL    HW3 7299   1.565   2.087   2.910  0.1313  2.1298 -0.5011
 1825SOL    MW4 7300   1.560   2.081   2.997  0.4664  0.4702 -0.5880
 1826SOL     OW 7301   1.541   2.344   3.089 -0.0135 -0.4359 -0.2937
 1826SOL    HW2 7302   1.456   2.379   3.062  0.3588  0.1303 -0.7462
 1826SOL    HW3 7303   1.538   2.252   3.063  0.0422 -0.0811 -1.5906
 1826SOL    MW4 7304   1.529   2.336   3.082  0.0430 -0.3144 -0.5245
 1827SOL     OW 7305   1.327   2.473   2.976  0.3806 -0.2283 -0.3058
 1827SOL    HW2 7306   1.243   2.434   3.001  0.2996  0.4031  0.4036
 1827SOL    HW3 7307   1.329   2.465   2.881  0.4666 -2.1998 -0.1741
 1827SOL    MW4 7308   1.316   2.467   2.967  0.3813 -0.4051 -0.1948
 1828SOL     OW 7309   1.355   2.728   3.104 -0.0867  0.1675 -0.0356
 1828SOL    HW2 7310   1.363   2.648   3.053  1.1055 -0.0255  0.4575
 1828SOL    HW3 7311   1.279   2.772   3.066  0.5963 -0.1129 -1.7833
 1828SOL    MW4 7312   1.346   2.723   3.092  0.1607  0.1050 -0.2011
 1829SOL     OW 7313   1.582   2.869   3.000 -0.1793 -0.1126  0.0756
 1829SOL    HW2 7314   1.656   2.830   3.046  0.1137 -0.2758 -0.5179
 1829SOL    HW3 7315   1.506   2.823   3.033  0.0908 -0.6625 -0.0616
 1829SOL    MW4 7316   1.582   2.858   3.010 -0.1050 -0.2067 -0.0208
 1830SOL     OW 7317   1.583   3.122   3.088  0.1629 -0.2328  0.0380
 1830SOL    HW2 7318   1.569   3.118   3.183 -0.9256 -1.7834 -0.1758
 1830SOL    HW3 7319   1.591   3.031   3.060 -0.7177  0.1469 -1.5368
 1830SOL    MW4 7320   1.582   3.109   3.097 -0.0969 -0.3873 -0.1980
 1831SOL     OW 7321   1.356   3.228   2.983 -0.1986 -0.0554 -0.0369
 1831SOL    HW2 7322   1.442   3.197   3.010  0.4409  1.0203 -0.7694
 1831SOL    HW3 7323   1.357   3.219   2.887 -0.3560  1.2508 -0.1780
 1831SOL    MW4 7324   1.368   3.223   2.974 -0.1350  0.2588 -0.1522
 1832SOL     OW 7325   1.339   3.499   3.069  0.2821  0.0805 -0.0572
 1832SOL    HW2 7326   1.351   3.469   3.159  0.9683 -0.8184 -0.4419
 1832SOL    HW3 7327   1.353   3.420   3.015  1.7388  0.9896 -1.0543
 1832SOL    MW4 7328   1.343   3.484   3.074  0.5648  0.0819 -0.2395
 1833SOL     OW 7329   1.573   3.626   2.988  0.4065 -0.2615 -0.4895
 1833SOL    HW2 7330   1.491   3.596   3.026  0.3775 -1.2938 -1.3511
 1833SOL    HW3 7331   1.556   3.630   2.894  0.6811  1.6204 -0.4697
 1833SOL    MW4 7332   1.560   3.622   2.981  0.4389 -0.1494 -0.6005
 1834SOL     OW 7333   1.605   3.872   3.128  0.0251 -0.3759 -0.0419
 1834SOL    HW2 7334   1.682   3.907   3.084 -0.5954 -0.2760 -1.0842
 1834SOL    HW3 7335   1.595   3.784   3.093 -0.2079 -0.4628  0.2388
 1834SOL    MW4 7336   1.614   3.865   3.117 -0.0875 -0.3742 -0.1424
 1835SOL     OW 7337   1.404   3.984   2.989  0.0338  0.4455 -0.0206
 1835SOL    HW2 7338   1.483   3.962   3.039 -0.5027  1.6454  1.3775
 1835SOL    HW3 7339   1.335   3.933   3.030  0.3437 -2.0183 -2.3834
 1835SOL    MW4 7340   1.405   3.974   3.001  0.0039  0.2787 -0.1479
 1836SOL     OW 7341   1.342   4.250   3.098  0.0962 -0.5215 -0.2562
 1836SOL    HW2 7342   1.348   4.158   3.073  0.6280 -0.4441 -0.4147
 1836SOL    HW3 7343   1.253   4.275   3.073 -0.1839 -1.0992  0.1652
 1836SOL    MW4 7344   1.331   4.241   3.091  0.1294 -0.5875 -0.2215
 1837SOL     OW 7345   1.578   4.353   3.007 -0.3484  0.7292 -0.0888
 1837SOL    HW2 7346   1.496   4.321   3.044 -1.0850  0.5014 -1.9131
 1837SOL    HW3 7347   1.581   4.446   3.032 -0.6995  0.5235  0.7490
 1837SOL    MW4 7348   1.568   4.361   3.015 -0.4919  0.6720 -0.2190
 1838SOL     OW 7349   2.094   4.635   3.117 -0.2084 -0.0739  0.9296
 1838SOL    HW2 7350   2.100   4.651   3.211  0.5197  0.1131  0.8544
 1838SOL    HW3 7351   2.006   4.665   3.093  0.3553  1.8585  1.1753
 1838SOL    MW4 7352   2.083   4.641   3.126 -0.0380  0.2057  0.9521
 1839SOL     OW 7353   1.831   0.054   3.049  0.3166  0.3719  0.0713
 1839SOL    HW2 7354   1.740   0.036   3.075  0.7431 -2.4429 -0.2054
 1839SOL    HW3 7355   1.826   0.077   2.957 -0.2753  1.7122  0.4356
 1839SOL    MW4 7356   1.818   0.054   3.040  0.2947  0.1774  0.0828
 1840SOL     OW 7357   1.862   0.327   3.065  0.4948 -0.4221  0.1424
 1840SOL    HW2 7358   1.850   0.234   3.048  1.7462 -0.3735 -1.0692
 1840SOL    HW3 7359   1.776   0.366   3.053 -0.0151 -1.4013  0.5764
 1840SOL    MW4 7360   1.849   0.320   3.061  0.5926 -0.5449  0.0398
 1841SOL     OW 7361   2.041   0.525   3.010 -0.4017  0.6647  0.0021
 1841SOL    HW2 7362   1.988   0.449   3.034 -2.6291  2.5285  1.1825
 1841SOL    HW3 7363   2.027   0.535   2.916  0.5294 -0.7971 -0.3236
 1841SOL    MW4 7364   2.032   0.516   3.001 -0.5727  0.7177  0.1149
 1842SOL     OW 7365   2.028   0.787   3.118 -0.1038  0.1402 -0.1329
 1842SOL    HW2 7366   1.950   0.814   3.069 -0.8076 -1.0587  0.3200
 1842SOL    HW3 7367   2.044   0.697   3.089  1.5006  0.5847 -0.7025
 1842SOL    MW4 7368   2.020   0.779   3.107  0.0150  0.0407 -0.1483
 1843SOL     OW 7369   1.813   0.912   2.993  0.1992  0.7286 -0.3182
 1843SOL    HW2 7370   1.739   0.857   3.018  0.2942  0.9383  0.4250
 1843SOL    HW3 7371   1.810   0.913   2.897  0.4382 -0.8925 -0.3577
 1843SOL    MW4 7372   1.803   0.905   2.984  0.2432  0.5424 -0.2253
 1844SOL     OW 7373   1.817   1.148   3.113 -0.2161 -0.1318  0.2340
 1844SOL    HW2 7374   1.814   1.136   3.208  2.6741  0.6332  0.4803
 1844SOL    HW3 7375   1.805   1.060   3.077  1.2652 -0.8431  1.4102
 1844SOL    MW4 7376   1.815   1.135   3.121  0.3607 -0.1247  0.4217
 1845SOL     OW 7377   2.027   1.295   2.983 -0.1961 -0.6885 -0.3089
 1845SOL    HW2 7378   2.096   1.256   3.037 -0.6027  1.5958  1.9278
 1845SOL    HW3 7379   1.948   1.246   3.005  0.0560 -1.2220 -0.5499
 1845SOL    MW4 7380   2.026   1.283   2.993 -0.2165 -0.4575 -0.0456
 1846SOL     OW 7381   2.022   1.540   3.114  0.6631  0.3643 -0.0127
 1846SOL    HW2 7382   2.021   1.532   3.210  0.0217  1.0639  0.0390
 1846SOL    HW3 7383   2.014   1.449   3.083 -0.4066  0.2381  0.5989
 1846SOL    MW4 7384   2.020   1.527   3.123  0.4373  0.4400  0.0748
 1847SOL     OW 7385   1.786   1.666   3.046  0.2142  0.0238 -0.0152
 1847SOL    HW2 7386   1.803   1.757   3.071  0.0336  0.1194 -0.2438
 1847SOL    HW3 7387   1.867   1.620   3.068  0.1044  0.1292  0.6426
 1847SOL    MW4 7388   1.799   1.672   3.052  0.1759  0.0503  0.0414
 1848SOL     OW 7389   1.770   1.936   3.096 -0.0855 -0.6886  0.0252
 1848SOL    HW2 7390   1.848   1.978   3.059 -0.8063  0.6356 -0.0235
 1848SOL    HW3 7391   1.696   1.985   3.058 -0.9756 -2.4173 -0.5353
 1848SOL    MW4 7392   1.770   1.948   3.086 -0.2980 -0.7420 -0.0552
 1849SOL     OW 7393   2.008   2.079   2.964 -0.2506  0.0805  0.1175
 1849SOL    HW2 7394   2.069   2.021   3.009  0.1077  0.6390  0.3541
 1849SOL    HW3 7395   2.026   2.166   3.000 -0.0410  0.5118 -1.0019
 1849SOL    MW4 7396   2.019   2.083   2.974 -0.1756  0.2111  0.0010
 1850SOL     OW 7397   2.065   2.337   3.089  0.3411 -0.3406  0.0687
 1850SOL    HW2 7398   2.148   2.360   3.049  0.5099 -0.5340  0.3060
 1850SOL    HW3 7399   2.000   2.386   3.039  0.6230  0.0275  0.0602
 1850SOL    MW4 7400   2.067   2.347   3.077  0.4006 -0.3175  0.0989
 1851SOL     OW 7401   1.816   2.462   2.995  0.0095  0.0062 -0.2037
 1851SOL    HW2 7402   1.829   2.551   3.026  0.1936 -0.3183  0.6636
 1851SOL    HW3 7403   1.730   2.437   3.030  0.1458 -0.3041 -0.0867
 1851SOL    MW4 7404   1.806   2.470   3.004  0.0518 -0.0775 -0.0738
 1852SOL     OW 7405   1.784   2.721   3.111  0.2997 -0.0970  0.1279
 1852SOL    HW2 7406   1.777   2.721   3.206  1.2365  0.3513  0.1968
 1852SOL    HW3 7407   1.872   2.752   3.093 -0.4350  1.4654 -0.9179
 1852SOL    MW4 7408   1.794   2.725   3.121  0.3264  0.1683 -0.0010
 1853SOL     OW 7409   2.028   2.837   3.028 -0.9709  0.2348 -0.5670
 1853SOL    HW2 7410   2.022   2.928   3.058 -1.6923 -0.1854  0.6346
 1853SOL    HW3 7411   2.040   2.843   2.934  0.1404  1.6007 -0.3477
 1853SOL    MW4 7412   2.028   2.850   3.020 -0.9194  0.3596 -0.3795
 1854SOL     OW 7413   1.989   3.099   3.082  0.2670 -0.0399 -0.7970
 1854SOL    HW2 7414   1.996   3.098   3.178  1.0754 -1.8807 -0.8382
 1854SOL    HW3 7415   1.931   3.172   3.063  0.6459  0.7928  1.0626
 1854SOL    MW4 7416   1.983   3.108   3.092  0.4237 -0.1729 -0.5571
 1855SOL     OW 7417   1.782   3.286   3.027 -0.1760 -0.2819  0.2566
 1855SOL    HW2 7418   1.713   3.229   3.062 -0.5670  0.2344  0.3276
 1855SOL    HW3 7419   1.772   3.279   2.932  0.4763 -1.1807  0.2426
 1855SOL    MW4 7420   1.771   3.277   3.019 -0.1415 -0.3324  0.2641
 1856SOL     OW 7421   1.817   3.547   3.095 -0.4827  0.7083 -0.0881
 1856SOL    HW2 7422   1.815   3.454   3.073  0.0653  0.9279 -1.1204
 1856SOL    HW3 7423   1.728   3.578   3.076 -0.5237  0.4972 -0.2487
 1856SOL    MW4 7424   1.805   3.539   3.089 -0.4158  0.7094 -0.2455
 1857SOL     OW 7425   2.029   3.678   2.985 -0.4042  0.1009 -0.6681
 1857SOL    HW2 7426   2.052   3.742   3.052 -1.3448  0.4362 -0.6616
 1857SOL    HW3 7427   1.944   3.644   3.012  0.2732 -1.4488 -0.4605
 1857SOL    MW4 7428   2.021   3.682   2.997 -0.4389 -0.0593 -0.6399
 1858SOL     OW 7429   2.069   3.886   3.164  0.4999 -0.2439  0.1930
 1858SOL    HW2 7430   2.062   3.865   3.257  0.0824  0.1869  0.2618
 1858SOL    HW3 7431   1.981   3.911   3.138  0.4772 -1.0379 -0.4903
 1858SOL    MW4 7432   2.057   3.887   3.173  0.4418 -0.2918  0.1119
 1859SOL     OW 7433   1.830   3.981   3.011 -0.0228 -0.3924 -0.7321
 1859SOL    HW2 7434   1.828   4.069   3.049  1.4035 -0.8026  0.3545
 1859SOL    HW3 7435   1.801   3.994   2.920 -1.6782  0.8868 -0.0622
 1859SOL    MW4 7436   1.826   3.995   3.004 -0.0530 -0.2777 -0.5003
 1860SOL     OW 7437   1.800   4.252   3.134 -0.6314  0.4193  0.6595
 1860SOL    HW2 7438   1.866   4.303   3.087 -0.3512 -0.6188 -0.0952
 1860SOL    HW3 7439   1.720   4.266   3.085 -0.2795 -0.8918 -0.3255
 1860SOL    MW4 7440   1.798   4.260   3.122 -0.5480  0.1093  0.4300
 1861SOL     OW 7441   2.004   4.379   3.007 -0.5608  0.4130 -0.0928
 1861SOL    HW2 7442   2.009   4.470   3.036 -1.7891  0.3018  0.5110
 1861SOL    HW3 7443   2.014   4.384   2.912 -0.9907  1.2268 -0.1037
 1861SOL    MW4 7444   2.006   4.391   2.998 -0.7796  0.5057 -0.0146
 1862SOL     OW 7445   2.485   4.631   3.152 -0.0485 -0.4132  0.1573
 1862SOL    HW2 7446   2.497   4.542   3.121  2.3064  0.7102 -2.2800
 1862SOL    HW3 7447   2.426   4.671   3.088  3.5547  1.4347 -2.1802
 1862SOL    MW4 7448   2.479   4.625   3.140  0.7376 -0.0211 -0.4727
 1863SOL     OW 7449   2.312   0.106   2.990 -0.5894 -0.0868 -0.0957
 1863SOL    HW2 7450   2.293   0.196   3.018  0.1440  0.5991 -1.7288
 1863SOL    HW3 7451   2.243   0.053   3.031 -3.6074  1.8022 -2.5189
 1863SOL    MW4 7452   2.300   0.111   2.999 -0.8908  0.2529 -0.6309
 1864SOL     OW 7453   2.260   0.368   3.095  0.2215  0.6877 -0.1847
 1864SOL    HW2 7454   2.243   0.370   3.189 -2.8898 -1.3384 -0.6545
 1864SOL    HW3 7455   2.198   0.431   3.058  1.5953  1.6554 -0.8817
 1864SOL    MW4 7456   2.250   0.377   3.102 -0.0078  0.5480 -0.3387
 1865SOL     OW 7457   2.496   0.510   3.011  0.2083  0.6767  0.0384
 1865SOL    HW2 7458   2.410   0.494   3.048 -0.1739  1.8194 -0.3377
 1865SOL    HW3 7459   2.486   0.489   2.918  0.8125 -0.9073  0.3176
 1865SOL    MW4 7460   2.483   0.505   3.003  0.2376  0.6184  0.0256
 1866SOL     OW 7461   2.477   0.765   3.100  0.1852  0.0133 -0.3253
 1866SOL    HW2 7462   2.545   0.808   3.048  0.1387  1.0053  0.4185
 1866SOL    HW3 7463   2.474   0.675   3.066 -1.1374  1.1165 -3.3290
 1866SOL    MW4 7464   2.485   0.759   3.089  0.0045  0.2897 -0.6235
 1867SOL     OW 7465   2.238   0.909   3.000 -0.5632 -0.4832 -0.0260
 1867SOL    HW2 7466   2.320   0.863   3.021  0.2712 -0.1877 -2.4000
 1867SOL    HW3 7467   2.170   0.862   3.047  0.7404 -1.9931  0.3648
 1867SOL    MW4 7468   2.240   0.897   3.009 -0.2811 -0.6434 -0.2877
 1868SOL     OW 7469   2.268   1.177   3.104 -0.0775 -0.0868 -0.1180
 1868SOL    HW2 7470   2.263   1.167   3.199 -1.0747  0.9645 -0.0576
 1868SOL    HW3 7471   2.274   1.087   3.071  2.5930 -0.3923  1.0532
 1868SOL    MW4 7472   2.268   1.164   3.112  0.1433  0.0116  0.0445
 1869SOL     OW 7473   2.492   1.291   3.012 -0.1976 -0.3146 -0.2123
 1869SOL    HW2 7474   2.412   1.245   3.038  0.7810 -1.9947 -0.1176
 1869SOL    HW3 7475   2.482   1.306   2.918 -0.0302 -1.7554 -0.4705
 1869SOL    MW4 7476   2.480   1.287   3.003 -0.0464 -0.7264 -0.2339
 1870SOL     OW 7477   2.482   1.563   3.114 -0.0102  0.1727 -0.0468
 1870SOL    HW2 7478   2.410   1.611   3.072 -1.1677  0.2365  1.9025
 1870SOL    HW3 7479   2.474   1.474   3.082 -0.7525  0.2646 -0.1357
 1870SOL    MW4 7480   2.471   1.558   3.104 -0.2609  0.1932  0.1987
 1871SOL     OW 7481   2.268   1.673   2.994 -0.5893 -0.3919 -0.3894
 1871SOL    HW2 7482   2.191   1.623   3.020 -0.3833 -0.3371  0.3531
 1871SOL    HW3 7483   2.260   1.684   2.899 -1.6101 -0.1845 -0.2785
 1871SOL    MW4 7484   2.257   1.668   2.985 -0.6968 -0.3573 -0.2768
 1872SOL     OW 7485   2.205   1.934   3.105  0.4386 -0.0521  0.0704
 1872SOL    HW2 7486   2.284   1.986   3.090  0.7159 -0.6302 -0.5073
 1872SOL    HW3 7487   2.222   1.851   3.061 -0.4003 -0.2689  0.1409
 1872SOL    MW4 7488   2.217   1.930   3.097  0.3645 -0.1570  0.0035
 1873SOL     OW 7489   2.432   2.067   3.017  0.4458 -0.1839 -0.0724
 1873SOL    HW2 7490   2.510   2.027   3.055  2.0516  2.1412 -0.8147
 1873SOL    HW3 7491   2.440   2.052   2.923  0.4971  0.9147 -0.2460
 1873SOL    MW4 7492   2.443   2.060   3.010  0.6644  0.2678 -0.1933
 1874SOL     OW 7493   2.445   2.327   3.098  0.1200  0.5862  0.2171
 1874SOL    HW2 7494   2.463   2.311   3.191 -1.2419 -0.1972  0.3677
 1874SOL    HW3 7495   2.434   2.240   3.060 -1.0261  0.9490 -0.3160
 1874SOL    MW4 7496   2.446   2.313   3.105 -0.2109  0.5307  0.1666
 1875SOL     OW 7497   2.276   2.498   2.968  0.4565 -0.3830 -0.3637
 1875SOL    HW2 7498   2.271   2.579   3.019  0.6722  0.5752 -1.8391
 1875SOL    HW3 7499   2.339   2.444   3.015 -0.1318  0.0529  0.9663
 1875SOL    MW4 7500   2.283   2.502   2.981  0.4073 -0.1990 -0.3829
 1876SOL     OW 7501   2.241   2.713   3.138  0.0003 -0.2575 -0.2235
 1876SOL    HW2 7502   2.319   2.758   3.106 -0.1586 -0.9270 -1.6073
 1876SOL    HW3 7503   2.168   2.756   3.092 -0.3490 -0.2998  0.2929
 1876SOL    MW4 7504   2.241   2.725   3.127 -0.0668 -0.3514 -0.3379
 1877SOL     OW 7505   2.451   2.829   3.022 -0.7035 -0.0262 -0.1857
 1877SOL    HW2 7506   2.447   2.923   3.044  1.3431  0.1717 -0.5268
 1877SOL    HW3 7507   2.429   2.825   2.929 -0.5947  0.1557 -0.2208
 1877SOL    MW4 7508   2.448   2.841   3.013 -0.4191  0.0239 -0.2354
 1878SOL     OW 7509   2.491   3.109   3.101  0.5621  0.1792 -0.0974
 1878SOL    HW2 7510   2.571   3.149   3.067  0.6094  1.3176  1.3546
 1878SOL    HW3 7511   2.421   3.155   3.055  0.6777  0.6693  0.2090
 1878SOL    MW4 7512   2.492   3.120   3.090  0.5836  0.3941  0.1346
 1879SOL     OW 7513   2.229   3.222   3.006  0.0075 -0.4062  0.4120
 1879SOL    HW2 7514   2.221   3.308   3.047  1.5467 -0.1299  0.1473
 1879SOL    HW3 7515   2.149   3.176   3.032 -0.6480  0.9624  0.8709
 1879SOL    MW4 7516   2.217   3.227   3.015  0.1241 -0.1892  0.4376
 1880SOL     OW 7517   2.216   3.486   3.096  0.2068 -0.3999 -0.8151
 1880SOL    HW2 7518   2.292   3.540   3.078  0.0684 -0.9360 -3.1886
 1880SOL    HW3 7519   2.142   3.536   3.062 -0.4218 -0.1854  0.8527
 1880SOL    MW4 7520   2.216   3.500   3.089  0.1056 -0.4423 -0.9082
 1881SOL     OW 7521   2.413   3.659   3.017  0.1838 -0.4421  0.3396
 1881SOL    HW2 7522   2.501   3.625   3.037  1.0148  0.5805 -1.4275
 1881SOL    HW3 7523   2.412   3.747   3.054 -0.2250 -0.5830  0.6660
 1881SOL    MW4 7524   2.425   3.666   3.024  0.2395 -0.3258  0.1495
 1882SOL     OW 7525   2.470   3.917   3.131  0.0661  0.4001  0.9911
 1882SOL    HW2 7526   2.468   3.904   3.226  0.8979  0.3913  1.0163
 1882SOL    HW3 7527   2.562   3.938   3.112  0.6582 -2.8705 -0.1991
 1882SOL    MW4 7528   2.482   3.918   3.141  0.2540 -0.0326  0.8374
 1883SOL     OW 7529   2.260   4.028   3.020 -0.2529  0.2332  0.1307
 1883SOL    HW2 7530   2.341   3.991   3.056 -0.2223  0.5070  0.3465
 1883SOL    HW3 7531   2.191   3.976   3.060 -0.1520 -0.7256 -0.8924
 1883SOL    MW4 7532   2.262   4.016   3.030 -0.2355  0.1428  0.0242
 1884SOL     OW 7533   2.232   4.296   3.135  0.4356  0.0363 -0.2143
 1884SOL    HW2 7534   2.245   4.215   3.086  0.2142 -0.5453  0.6842
 1884SOL    HW3 7535   2.149   4.330   3.103 -0.0150 -0.6662  0.2073
 1884SOL    MW4 7536   2.223   4.290   3.124  0.3470 -0.1331 -0.0401
 1885SOL     OW 7537   2.476   4.385   3.052 -0.0603 -0.0395  0.0490
 1885SOL    HW2 7538   2.389   4.356   3.079 -0.1427  0.2237  0.0733
 1885SOL    HW3 7539   2.477   4.372   2.957  0.2027 -0.8933  0.1702
 1885SOL    MW4 7540   2.465   4.379   3.043 -0.0364 -0.1174  0.0682
 1886SOL     OW 7541   2.945   4.654   3.165 -0.1875 -0.4009 -0.2875
 1886SOL    HW2 7542   3.008   4.702   3.112  0.0954  0.4942  0.8739
 1886SOL    HW3 7543   2.942   4.567   3.125  0.4980  0.0755 -1.3869
 1886SOL    MW4 7544   2.953   4.649   3.152 -0.0598 -0.2199 -0.2793
 1887SOL     OW 7545   2.701   0.087   3.050  0.0821 -0.4373  0.4278
 1887SOL    HW2 7546   2.781   0.049   3.085 -0.2231 -1.3849  0.1244
 1887SOL    HW3 7547   2.631   0.031   3.084 -0.0993 -2.5258 -3.1730
 1887SOL    MW4 7548   2.702   0.075   3.059  0.0179 -0.8379 -0.0873
 1888SOL     OW 7549   2.727   0.388   3.099 -0.2201 -0.0658  0.0838
 1888SOL    HW2 7550   2.708   0.295   3.087 -1.3325  0.2742 -0.8501
 1888SOL    HW3 7551   2.649   0.433   3.069  0.7625  1.2343 -0.5857
 1888SOL    MW4 7552   2.714   0.382   3.094 -0.2372  0.1506 -0.1278
 1889SOL     OW 7553   2.939   0.539   3.002 -0.0889 -0.5159 -0.1613
 1889SOL    HW2 7554   2.863   0.493   3.036 -0.0839  0.7088  1.5543
 1889SOL    HW3 7555   2.936   0.524   2.908 -1.7952 -1.4493  0.0281
 1889SOL    MW4 7556   2.929   0.531   2.994 -0.3134 -0.4775  0.0900
 1890SOL     OW 7557   2.919   0.776   3.130 -0.1808  0.4432 -0.2756
 1890SOL    HW2 7558   2.922   0.772   3.226 -0.9945 -0.5863 -0.2727
 1890SOL    HW3 7559   2.932   0.685   3.103  1.3737  0.9355 -1.1963
 1890SOL    MW4 7560   2.921   0.763   3.139 -0.0830  0.3723 -0.3967
 1891SOL     OW 7561   2.703   0.900   2.990  0.4357 -0.4878  0.1732
 1891SOL    HW2 7562   2.708   0.988   3.028  1.2541 -0.4706  0.0511
 1891SOL    HW3 7563   2.772   0.851   3.035  0.6832 -0.7727 -0.5033
 1891SOL    MW4 7564   2.713   0.905   3.001  0.5763 -0.5231  0.0678
 1892SOL     OW 7565   2.699   1.144   3.110  0.1692  0.3283  0.1394
 1892SOL    HW2 7566   2.780   1.183   3.078  1.3137 -1.8871  0.2133
 1892SOL    HW3 7567   2.630   1.204   3.082  1.7211  1.5961 -1.0207
 1892SOL    MW4 7568   2.701   1.157   3.102  0.5250  0.2033 -0.0039
 1893SOL     OW 7569   2.919   1.318   3.045  0.1453 -0.2811  0.6732
 1893SOL    HW2 7570   2.990   1.272   3.089 -0.0183  1.5270  2.9295
 1893SOL    HW3 7571   2.916   1.404   3.087 -1.4064  0.7701 -1.4738
 1893SOL    MW4 7572   2.928   1.323   3.056 -0.0810  0.0962  0.6876
 1894SOL     OW 7573   2.931   1.574   3.177 -0.3198 -0.0987 -0.1218
 1894SOL    HW2 7574   2.944   1.586   3.271 -1.2750  1.8495 -0.2103
 1894SOL    HW3 7575   3.005   1.620   3.137 -0.8230  0.5175 -0.3493
 1894SOL    MW4 7576   2.943   1.582   3.184 -0.5122  0.2396 -0.1635
 1895SOL     OW 7577   2.715   1.695   3.029  0.1205  0.1392 -0.1110
 1895SOL    HW2 7578   2.794   1.662   3.072 -0.5909 -0.8211  0.4719
 1895SOL    HW3 7579   2.644   1.642   3.065 -0.5139 -0.5731 -2.3271
 1895SOL    MW4 7580   2.716   1.684   3.039 -0.0570 -0.0814 -0.3265
 1896SOL     OW 7581   2.676   1.954   3.100 -0.1265 -0.0487  0.2068
 1896SOL    HW2 7582   2.757   1.993   3.067 -0.4548  1.3735  1.0465
 1896SOL    HW3 7583   2.672   1.867   3.059  0.0773  1.2006 -2.5391
 1896SOL    MW4 7584   2.686   1.947   3.090 -0.1429  0.3038 -0.0447
 1897SOL     OW 7585   2.911   2.060   3.025  0.3307  0.2117 -0.0020
 1897SOL    HW2 7586   2.900   2.152   3.050  0.3529 -0.0006  0.8164
 1897SOL    HW3 7587   2.925   2.062   2.931  0.3393  1.0514  0.0133
 1897SOL    MW4 7588   2.911   2.073   3.016  0.3347  0.2945  0.1080
 1898SOL     OW 7589   2.896   2.311   3.136 -0.2849 -0.1804  0.4275
 1898SOL    HW2 7590   2.974   2.345   3.094  0.6248 -2.3604  0.3263
 1898SOL    HW3 7591   2.824   2.358   3.094  0.8379  0.4751 -0.7946
 1898SOL    MW4 7592   2.896   2.322   3.125 -0.0168 -0.3816  0.2529
 1899SOL     OW 7593   2.696   2.470   3.011 -0.1099  0.2816 -0.5225
 1899SOL    HW2 7594   2.714   2.557   3.048 -0.3724 -0.3566  1.1296
 1899SOL    HW3 7595   2.603   2.455   3.030  0.0490 -0.5474 -0.4097
 1899SOL    MW4 7596   2.686   2.480   3.018 -0.1236  0.0880 -0.2896
 1900SOL     OW 7597   2.701   2.720   3.133 -0.1531 -0.5755  0.0542
 1900SOL    HW2 7598   2.694   2.724   3.228  0.1305 -2.0906  0.1418
 1900SOL    HW3 7599   2.621   2.764   3.102  0.2988  0.9234  0.9679
 1900SOL    MW4 7600   2.689   2.727   3.141 -0.0561 -0.5777  0.1863
 1901SOL     OW 7601   2.899   2.857   2.994 -0.8330  0.3991  0.0023
 1901SOL    HW2 7602   2.966   2.797   3.026 -0.4766  0.8320  0.0595
 1901SOL    HW3 7603   2.818   2.828   3.037 -0.5634  0.2955  0.4396
 1901SOL    MW4 7604   2.897   2.845   3.004 -0.7504  0.4425  0.0676
 1902SOL     OW 7605   2.904   3.103   3.122 -0.1486  0.5607  0.1081
 1902SOL    HW2 7606   2.834   3.165   3.100 -0.3723  0.3730  0.2830
 1902SOL    HW3 7607   2.889   3.029   3.063 -2.7062 -1.3650  2.9937
 1902SOL    MW4 7608   2.893   3.101   3.111 -0.5156  0.2819  0.5119
 1903SOL     OW 7609   2.711   3.282   3.027 -0.0606  0.1482  0.4074
 1903SOL    HW2 7610   2.702   3.375   3.047  1.6176  0.2393  0.8283
 1903SOL    HW3 7611   2.706   3.278   2.931  0.1662  0.7184  0.3660
 1903SOL    MW4 7612   2.709   3.294   3.017  0.1907  0.2354  0.4574
 1904SOL     OW 7613   2.678   3.541   3.087 -0.1862 -0.1792 -0.0140
 1904SOL    HW2 7614   2.674   3.539   3.183  0.3771  0.8475  0.0447
 1904SOL    HW3 7615   2.755   3.595   3.068  0.5310 -1.5474 -1.0440
 1904SOL    MW4 7616   2.688   3.548   3.097 -0.0173 -0.2243 -0.1422
 1905SOL     OW 7617   2.939   3.641   3.027 -0.2615 -0.1807  0.3808
 1905SOL    HW2 7618   3.007   3.585   3.066  2.0320  1.2921 -1.3925
 1905SOL    HW3 7619   2.947   3.724   3.075 -1.2312 -0.1934  0.5671
 1905SOL    MW4 7620   2.949   3.644   3.039 -0.0868  0.0119  0.1714
 1906SOL     OW 7621   2.957   3.896   3.124  0.0566 -0.2535 -0.5087
 1906SOL    HW2 7622   2.947   3.876   3.217 -0.6000 -0.0851 -0.5434
 1906SOL    HW3 7623   2.875   3.938   3.100  0.6716  0.7123 -0.9040
 1906SOL    MW4 7624   2.945   3.899   3.133  0.0511 -0.1038 -0.5654
 1907SOL     OW 7625   2.714   4.000   3.046 -0.2466 -0.3440  0.3943
 1907SOL    HW2 7626   2.723   4.089   3.078  0.1787 -0.9558  1.9934
 1907SOL    HW3 7627   2.691   4.010   2.953 -3.7700  1.4797  1.3536
 1907SOL    MW4 7628   2.712   4.013   3.038 -0.6553 -0.1841  0.7318
 1908SOL     OW 7629   2.725   4.266   3.131  0.2385 -0.2554  0.0624
 1908SOL    HW2 7630   2.725   4.275   3.226 -0.3055 -3.6207  0.4367
 1908SOL    HW3 7631   2.640   4.302   3.104 -0.1823 -0.5256  0.9935
 1908SOL    MW4 7632   2.714   4.272   3.140  0.1112 -0.7350  0.2347
 1909SOL     OW 7633   2.940   4.403   3.038 -0.1446  0.0833 -0.1288
 1909SOL    HW2 7634   3.018   4.353   3.061 -0.9567 -1.0547  0.2292
 1909SOL    HW3 7635   2.867   4.345   3.061 -1.0942  1.1476 -0.4002
 1909SOL    MW4 7636   2.941   4.389   3.044 -0.3771  0.0736 -0.1174
 1910SOL     OW 7637   3.387   4.624   3.077 -0.1984 -0.1502 -0.3599
 1910SOL    HW2 7638   3.463   4.671   3.043 -0.5617 -0.5179 -1.6869
 1910SOL    HW3 7639   3.396   4.535   3.045  0.1980 -0.8886  1.7081
 1910SOL    MW4 7640   3.398   4.619   3.069 -0.1941 -0.2961 -0.2621
 1911SOL     OW 7641   3.154   0.103   3.020 -0.2304 -0.3966  0.3172
 1911SOL    HW2 7642   3.170   0.197   3.030 -0.4159 -0.3300 -0.0114
 1911SOL    HW3 7643   3.236   0.061   3.046  0.2977 -0.0919 -0.8383
 1911SOL    MW4 7644   3.167   0.110   3.025 -0.1852 -0.3476  0.1214
 1912SOL     OW 7645   3.152   0.380   3.092  0.2461 -0.0925 -0.2990
 1912SOL    HW2 7646   3.232   0.428   3.070 -0.1755  0.4884 -0.5683
 1912SOL    HW3 7647   3.083   0.426   3.046 -0.3027 -0.3688  0.2420
 1912SOL    MW4 7648   3.154   0.392   3.083  0.1180 -0.0523 -0.2632
 1913SOL     OW 7649   3.367   0.526   2.996 -0.6216  0.1754 -0.4542
 1913SOL    HW2 7650   3.453   0.493   3.023 -1.2729 -1.4284 -0.2792
 1913SOL    HW3 7651   3.360   0.504   2.903 -0.4954  1.0654 -0.6751
 1913SOL    MW4 7652   3.377   0.519   2.987 -0.6909  0.0813 -0.4602
 1914SOL     OW 7653   3.372   0.784   3.114 -0.1240  0.1306 -0.3414
 1914SOL    HW2 7654   3.352   0.780   3.207 -1.2976 -0.0165 -0.5929
 1914SOL    HW3 7655   3.360   0.694   3.083  0.5380  0.1233 -0.5837
 1914SOL    MW4 7656   3.367   0.772   3.122 -0.1915  0.1102 -0.4066
 1915SOL     OW 7657   3.149   0.908   3.028  0.1843  0.1694  0.8193
 1915SOL    HW2 7658   3.223   0.861   3.066  0.2467  0.9745  1.7405
 1915SOL    HW3 7659   3.072   0.865   3.065  0.2427  0.8360  1.7566
 1915SOL    MW4 7660   3.149   0.896   3.038  0.2002  0.3636  1.0645
 1916SOL     OW 7661   3.135   1.159   3.147 -0.1893  0.2884 -0.1970
 1916SOL    HW2 7662   3.210   1.204   3.109  0.0063 -0.6323 -0.9127
 1916SOL    HW3 7663   3.137   1.071   3.109 -0.9437 -0.1262  0.6846
 1916SOL    MW4 7664   3.145   1.153   3.137 -0.2630  0.1122 -0.1751
 1917SOL     OW 7665   3.351   1.286   3.034 -0.0590  0.3074 -0.2854
 1917SOL    HW2 7666   3.424   1.230   3.062 -0.4974 -0.0177  0.2374
 1917SOL    HW3 7667   3.371   1.372   3.071 -0.6212 -0.1140  1.0663
 1917SOL    MW4 7668   3.363   1.290   3.043 -0.1910  0.2089 -0.0381
 1918SOL     OW 7669   3.386   1.535   3.155  0.2874 -0.4811 -0.1386
 1918SOL    HW2 7670   3.393   1.549   3.250 -0.2148 -0.0843 -0.1617
 1918SOL    HW3 7671   3.455   1.591   3.118 -1.4152  1.6139 -0.2028
 1918SOL    MW4 7672   3.396   1.544   3.163 -0.0035 -0.1523 -0.1501
 1919SOL     OW 7673   3.178   1.693   3.048  0.0645 -0.1110  0.1574
 1919SOL    HW2 7674   3.247   1.634   3.079  0.3202 -0.3714 -0.9205
 1919SOL    HW3 7675   3.194   1.702   2.954 -0.8020  0.5818  0.0750
 1919SOL    MW4 7676   3.190   1.686   3.040 -0.0161 -0.0540  0.0043
 1920SOL     OW 7677   3.143   1.964   3.127  0.2872  0.6497 -0.3164
 1920SOL    HW2 7678   3.151   1.875   3.092 -1.0568  0.4610 -0.1874
 1920SOL    HW3 7679   3.055   1.991   3.101 -0.1313  1.1244  1.5086
 1920SOL    MW4 7680   3.132   1.956   3.119  0.0547  0.6874 -0.0586
 1921SOL     OW 7681   3.386   2.083   3.028  0.3177 -0.0030  0.5581
 1921SOL    HW2 7682   3.461   2.035   3.062  0.6315  0.1139  0.0359
 1921SOL    HW3 7683   3.310   2.037   3.064  0.6361 -0.2539  0.9109
 1921SOL    MW4 7684   3.386   2.071   3.037  0.4011 -0.0206  0.5358
 1922SOL     OW 7685   3.379   2.351   3.106 -0.5571 -0.2086 -0.0466
 1922SOL    HW2 7686   3.389   2.357   3.201  1.1950  0.6399 -0.2758
 1922SOL    HW3 7687   3.373   2.257   3.088 -0.2724 -0.3964  0.8319
 1922SOL    MW4 7688   3.379   2.339   3.116 -0.2883 -0.1214  0.0391
 1923SOL     OW 7689   3.126   2.431   3.017 -0.5881 -0.4540  0.0753
 1923SOL    HW2 7690   3.214   2.411   3.049 -1.0117 -0.9458  0.9389
 1923SOL    HW3 7691   3.132   2.418   2.922 -0.0843 -1.8641  0.2865
 1923SOL    MW4 7692   3.139   2.427   3.009 -0.5775 -0.7049  0.2171
 1924SOL     OW 7693   3.096   2.706   3.092  0.3956  0.0821  0.0766
 1924SOL    HW2 7694   3.121   2.712   3.184  1.3693  1.3744 -0.2549
 1924SOL    HW3 7695   3.098   2.613   3.073  1.0313 -0.1355  1.1521
 1924SOL    MW4 7696   3.100   2.695   3.102  0.6079  0.2239  0.1747
 1925SOL     OW 7697   3.363   2.788   3.012  0.1278  0.2864 -0.2059
 1925SOL    HW2 7698   3.359   2.879   3.042 -1.4870  0.1128  0.1209
 1925SOL    HW3 7699   3.275   2.753   3.027  0.4989 -1.0869 -1.1161
 1925SOL    MW4 7700   3.351   2.795   3.018 -0.0363  0.0823 -0.2829
 1926SOL     OW 7701   3.606   3.212   3.011  0.5436  0.3605  0.1802
 1926SOL    HW2 7702   3.543   3.144   3.034  0.7242  0.3698  0.7019
 1926SOL    HW3 7703   3.600   3.218   2.915 -1.4201  1.4961  0.3589
 1926SOL    MW4 7704   3.597   3.204   3.001  0.3084  0.5116  0.2726
 1927SOL     OW 7705   3.146   3.201   3.027 -0.4047 -0.2227  0.2443
 1927SOL    HW2 7706   3.066   3.171   3.071 -0.2777  0.2220  0.8009
 1927SOL    HW3 7707   3.128   3.191   2.934 -1.3867  0.5459  0.3412
 1927SOL    MW4 7708   3.133   3.196   3.021 -0.5175 -0.0626  0.3306
 1928SOL     OW 7709   3.130   3.454   3.121 -0.0573 -0.6317  0.2733
 1928SOL    HW2 7710   3.211   3.495   3.091 -0.3996  0.1894  0.4563
 1928SOL    HW3 7711   3.133   3.365   3.085  0.3766 -0.2388 -0.6757
 1928SOL    MW4 7712   3.141   3.447   3.113 -0.0452 -0.4716  0.1722
 1929SOL     OW 7713   3.350   3.606   3.039  0.0913  0.2198 -0.0159
 1929SOL    HW2 7714   3.418   3.543   3.064 -0.9617  0.0908  2.6489
 1929SOL    HW3 7715   3.379   3.689   3.075  0.0088  0.6628 -0.9589
 1929SOL    MW4 7716   3.363   3.608   3.047 -0.0585  0.2613  0.2112
 1930SOL     OW 7717   3.415   3.845   3.151 -0.3016  0.4560 -0.0105
 1930SOL    HW2 7718   3.397   3.840   3.245 -0.9249 -2.1381 -0.2323
 1930SOL    HW3 7719   3.337   3.886   3.114 -1.1843 -0.8821  0.3188
 1930SOL    MW4 7720   3.402   3.850   3.159 -0.5003 -0.0628  0.0037
 1931SOL     OW 7721   3.206   3.992   3.033  0.0096 -0.0060 -0.0403
 1931SOL    HW2 7722   3.121   3.960   3.063  1.2497 -2.6402  0.8346
 1931SOL    HW3 7723   3.202   3.987   2.937 -0.8589  0.0326 -0.0070
 1931SOL    MW4 7724   3.194   3.987   3.024  0.0586 -0.3485  0.0795
 1932SOL     OW 7725   3.161   4.253   3.108  0.3560 -0.1858  0.1293
 1932SOL    HW2 7726   3.127   4.240   3.197 -0.6097  0.2868 -0.1604
 1932SOL    HW3 7727   3.161   4.165   3.070  1.0780 -0.4332  0.7082
 1932SOL    MW4 7728   3.156   4.240   3.115  0.3238 -0.1561  0.1675
 1933SOL     OW 7729   3.372   4.379   2.973 -0.1063  0.4874  0.3317
 1933SOL    HW2 7730   3.452   4.346   3.014 -0.2851 -0.1999  0.1360
 1933SOL    HW3 7731   3.302   4.351   3.031 -0.4444 -1.3074 -0.9013
 1933SOL    MW4 7732   3.374   4.371   2.986 -0.1745  0.1599  0.1432
 1934SOL     OW 7733   3.826   4.615   3.155  0.2363  0.5597  0.6635
 1934SOL    HW2 7734   3.852   4.537   3.106  2.2434  1.5206  0.1397
 1934SOL    HW3 7735   3.762   4.658   3.099 -1.6539 -1.2118  1.4111
 1934SOL    MW4 7736   3.821   4.611   3.141  0.2517  0.4527  0.6930
 1935SOL     OW 7737   3.634   0.110   3.002 -0.3134  0.0424  0.0765
 1935SOL    HW2 7738   3.638   0.204   3.023 -1.4576  0.6172 -2.1781
 1935SOL    HW3 7739   3.622   0.107   2.907 -1.4311 -2.3888  0.2710
 1935SOL    MW4 7740   3.633   0.122   2.992 -0.6118 -0.2025 -0.1953
 1936SOL     OW 7741   3.604   0.376   3.070 -0.1071 -0.3237 -0.1143
 1936SOL    HW2 7742   3.607   0.372   3.166  1.1677 -1.3134 -0.1767
 1936SOL    HW3 7743   3.675   0.435   3.046  0.4632 -1.1646 -0.5074
 1936SOL    MW4 7744   3.614   0.384   3.080  0.1363 -0.5652 -0.1744
 1937SOL     OW 7745   3.834   0.522   2.964 -0.5097 -0.5366  0.0606
 1937SOL    HW2 7746   3.895   0.462   3.008 -1.9986 -1.8020  0.4357
 1937SOL    HW3 7747   3.827   0.597   3.023  1.4172  0.0720 -0.4412
 1937SOL    MW4 7748   3.841   0.524   2.977 -0.4520 -0.6232  0.0439
 1938SOL     OW 7749   3.834   0.764   3.091 -0.0773 -0.3799  0.2030
 1938SOL    HW2 7750   3.839   0.776   3.186 -0.5864  0.0566  0.1822
 1938SOL    HW3 7751   3.911   0.808   3.057 -0.5683  0.5894  0.3245
 1938SOL    MW4 7752   3.845   0.771   3.099 -0.2092 -0.1944  0.2163
 1939SOL     OW 7753   3.591   0.886   2.991  0.2997 -0.2530 -0.2676
 1939SOL    HW2 7754   3.664   0.830   3.016 -0.4228 -1.6630 -1.2020
 1939SOL    HW3 7755   3.515   0.846   3.032 -0.0593  0.7787  0.0925
 1939SOL    MW4 7756   3.590   0.874   3.000  0.1570 -0.3029 -0.3434
 1940SOL     OW 7757   3.568   1.147   3.127 -0.0344 -0.2239  0.2446
 1940SOL    HW2 7758   3.656   1.179   3.108  0.4758 -1.1691  0.9504
 1940SOL    HW3 7759   3.565   1.060   3.088 -0.2926 -0.6193  1.1133
 1940SOL    MW4 7760   3.579   1.140   3.120 -0.0012 -0.4007  0.4523
 1941SOL     OW 7761   3.806   1.275   3.021  0.6509  0.4996 -0.2008
 1941SOL    HW2 7762   3.807   1.367   3.047 -0.1080 -0.0712  1.9383
 1941SOL    HW3 7763   3.814   1.277   2.926 -1.8242  2.9050 -0.4364
 1941SOL    MW4 7764   3.807   1.287   3.012  0.2242  0.7416  0.0504
 1942SOL     OW 7765   3.829   1.529   3.101 -0.2564 -0.5951 -0.4314
 1942SOL    HW2 7766   3.826   1.533   3.196 -0.2622  0.3883 -0.4681
 1942SOL    HW3 7767   3.745   1.563   3.072  0.3322  0.5596 -0.8173
 1942SOL    MW4 7768   3.818   1.534   3.110 -0.1795 -0.3130 -0.4871
 1943SOL     OW 7769   3.584   1.683   3.017 -0.0722  0.0896  0.3038
 1943SOL    HW2 7770   3.609   1.773   3.035  2.4774 -0.4124 -0.4677
 1943SOL    HW3 7771   3.556   1.683   2.926 -2.6571  0.5888  1.0738
 1943SOL    MW4 7772   3.584   1.695   3.008 -0.0769  0.0892  0.3036
 1944SOL     OW 7773   3.611   1.938   3.101 -0.2566  0.2972 -0.2070
 1944SOL    HW2 7774   3.635   1.923   3.193  2.2312  2.5982 -0.4290
 1944SOL    HW3 7775   3.689   1.977   3.062 -2.4732  2.7257 -2.4125
 1944SOL    MW4 7776   3.624   1.941   3.108 -0.2208  0.9212 -0.5273
 1945SOL     OW 7777   3.840   2.049   2.978  0.2175  0.2851  0.7607
 1945SOL    HW2 7778   3.833   2.142   2.998 -1.1373  0.1906  0.7700
 1945SOL    HW3 7779   3.822   2.042   2.885  0.0407  0.0054  0.8137
 1945SOL    MW4 7780   3.837   2.060   2.969  0.0154  0.2357  0.7689
 1946SOL     OW 7781   3.842   2.318   3.085 -0.0034  0.0701 -0.1788
 1946SOL    HW2 7782   3.844   2.301   3.179  0.7073  2.5633  0.3003
 1946SOL    HW3 7783   3.772   2.382   3.073  0.7354  0.7182 -1.1477
 1946SOL    MW4 7784   3.833   2.325   3.096  0.1878  0.4845 -0.2434
 1947SOL     OW 7785   3.613   2.454   3.007 -0.7057 -0.3250  0.4025
 1947SOL    HW2 7786   3.613   2.543   3.043 -0.5222 -0.5379  0.9312
 1947SOL    HW3 7787   3.534   2.414   3.041 -0.1527 -0.7687  1.1756
 1947SOL    MW4 7788   3.603   2.461   3.016 -0.6085 -0.4116  0.5742
 1948SOL     OW 7789   3.611   2.721   3.101 -0.1165  0.0604  0.3505
 1948SOL    HW2 7790   3.674   2.759   3.040 -0.2746  0.2329  0.2952
 1948SOL    HW3 7791   3.525   2.740   3.062 -0.1563 -1.5663 -0.3944
 1948SOL    MW4 7792   3.608   2.728   3.088 -0.1426 -0.1315  0.2449
 1949SOL     OW 7793   3.831   2.846   2.977  0.2492 -0.1247  0.3388
 1949SOL    HW2 7794   3.850   2.932   3.016  0.8454 -0.0512 -0.0904
 1949SOL    HW3 7795   3.841   2.861   2.883  0.3114 -0.6542  0.2620
 1949SOL    MW4 7796   3.835   2.859   2.970  0.3361 -0.1848  0.2721
 1950SOL     OW 7797   3.830   3.113   3.383 -0.2079  0.3206 -0.3218
 1950SOL    HW2 7798   3.913   3.144   3.420  0.0199 -2.0120  1.2322
 1950SOL    HW3 7799   3.852   3.087   3.294  0.6272  0.1522 -0.0701
 1950SOL    MW4 7800   3.844   3.114   3.376 -0.0676 -0.0094 -0.0836
 1951SOL     OW 7801   3.863   3.092   3.099  0.2181 -0.0953  0.1323
 1951SOL    HW2 7802   3.782   3.137   3.074 -0.1545 -0.4551  0.6735
 1951SOL    HW3 7803   3.932   3.157   3.088 -0.2938  0.5539  0.7303
 1951SOL    MW4 7804   3.861   3.106   3.094  0.1014 -0.0572  0.2826
 1952SOL     OW 7805   3.556   3.452   3.139  0.8641 -0.2633 -0.4723
 1952SOL    HW2 7806   3.630   3.507   3.112  1.4437 -1.0331 -0.4705
 1952SOL    HW3 7807   3.571   3.368   3.096  0.8852 -0.9551  0.8597
 1952SOL    MW4 7808   3.568   3.448   3.130  0.9434 -0.4562 -0.2963
 1953SOL     OW 7809   3.783   3.602   3.053  0.0986  0.2872  0.5225
 1953SOL    HW2 7810   3.772   3.689   3.091  0.8869  0.2416  0.8621
 1953SOL    HW3 7811   3.806   3.618   2.962  2.4686  0.4975  1.1262
 1953SOL    MW4 7812   3.784   3.615   3.046  0.5153  0.3089  0.6470
 1954SOL     OW 7813   3.809   3.867   3.135  0.1462  0.0350 -0.7804
 1954SOL    HW2 7814   3.837   3.883   3.225  1.0479 -0.0339 -1.0417
 1954SOL    HW3 7815   3.766   3.948   3.108 -0.7077 -0.1755 -0.0733
 1954SOL    MW4 7816   3.807   3.880   3.143  0.1525 -0.0019 -0.7216
 1955SOL     OW 7817   3.594   4.026   3.061  0.0808  0.2557 -0.2641
 1955SOL    HW2 7818   3.523   3.972   3.096  1.1589 -0.6359  0.5824
 1955SOL    HW3 7819   3.596   4.006   2.967 -0.8955  0.4283 -0.3274
 1955SOL    MW4 7820   3.585   4.017   3.053  0.0942  0.1608 -0.1608
 1956SOL     OW 7821   3.613   4.304   3.092 -0.0913  0.2266 -0.2465
 1956SOL    HW2 7822   3.696   4.339   3.058 -0.5715  1.1390 -0.4953
 1956SOL    HW3 7823   3.623   4.209   3.085  0.9317  0.3259 -0.2779
 1956SOL    MW4 7824   3.625   4.296   3.086 -0.0197  0.3601 -0.2835
 1957SOL     OW 7825   3.875   4.370   3.002 -0.3645  0.1922 -0.5948
 1957SOL    HW2 7826   3.931   4.305   3.044  0.4707  1.3599  0.1168
 1957SOL    HW3 7827   3.892   4.359   2.908 -0.8762 -1.1905 -0.5380
 1957SOL    MW4 7828   3.885   4.360   2.995 -0.3218  0.1638 -0.4934
 1958SOL     OW 7829   4.260   4.635   3.090  0.2267 -0.3839 -0.1833
 1958SOL    HW2 7830   4.254   4.647   3.185 -1.2230 -0.1517 -0.3042
 1958SOL    HW3 7831   4.258   4.540   3.078 -0.5481 -0.3854 -0.0475
 1958SOL    MW4 7832   4.259   4.624   3.101 -0.0668 -0.3535 -0.1813
 1959SOL     OW 7833   4.030   0.108   3.039  0.0023  0.0121  0.1899
 1959SOL    HW2 7834   4.114   0.065   3.056 -0.6244 -0.9749  0.7795
 1959SOL    HW3 7835   3.965   0.054   3.083 -0.8558  1.3027  0.5506
 1959SOL    MW4 7836   4.033   0.095   3.047 -0.1936  0.0521  0.3153
 1960SOL     OW 7837   4.017   0.374   3.133  0.1028  0.0547 -0.4771
 1960SOL    HW2 7838   4.102   0.406   3.102 -0.2586  0.6573 -0.8510
 1960SOL    HW3 7839   4.016   0.282   3.107  0.2340  0.2941 -1.3580
 1960SOL    MW4 7840   4.028   0.366   3.125  0.0724  0.1658 -0.6426
 1961SOL     OW 7841   4.250   0.500   3.041  0.2190 -0.4386 -0.3452
 1961SOL    HW2 7842   4.265   0.590   3.071  2.0539 -1.0353  0.5561
 1961SOL    HW3 7843   4.267   0.503   2.947 -0.1135  0.2369 -0.3882
 1961SOL    MW4 7844   4.254   0.512   3.033  0.4172 -0.4282 -0.2320
 1962SOL     OW 7845   4.296   0.763   3.126 -0.0737  0.0851 -0.2850
 1962SOL    HW2 7846   4.235   0.803   3.064 -0.1587  0.4155  0.0066
 1962SOL    HW3 7847   4.380   0.806   3.108 -0.1137  0.2299 -0.1260
 1962SOL    MW4 7848   4.299   0.774   3.116 -0.0902  0.1478 -0.2256
 1963SOL     OW 7849   4.077   0.888   3.016 -0.1877 -0.3481 -0.0059
 1963SOL    HW2 7850   4.081   0.979   3.046 -1.6799 -0.2753  0.0558
 1963SOL    HW3 7851   4.062   0.894   2.922  1.7233 -0.5547 -0.3308
 1963SOL    MW4 7852   4.075   0.901   3.008 -0.1324 -0.3658 -0.0406
 1964SOL     OW 7853   4.046   1.151   3.109 -0.2330 -0.1096  0.0396
 1964SOL    HW2 7854   4.036   1.152   3.204 -0.7752  2.1050 -0.0314
 1964SOL    HW3 7855   3.958   1.166   3.075 -0.0393 -0.8633 -0.8426
 1964SOL    MW4 7856   4.033   1.153   3.117 -0.2790  0.0831 -0.0861
 1965SOL     OW 7857   4.284   1.300   3.025 -0.3382  0.0588 -0.3495
 1965SOL    HW2 7858   4.198   1.269   3.055  0.0744 -1.4862 -0.7551
 1965SOL    HW3 7859   4.280   1.295   2.930  1.3911 -3.4032 -0.3238
 1965SOL    MW4 7860   4.272   1.295   3.017 -0.0556 -0.6018 -0.3996
 1966SOL     OW 7861   4.291   1.543   3.155 -0.5242  0.7244 -0.6723
 1966SOL    HW2 7862   4.229   1.597   3.105  0.2653  1.6455 -0.6779
 1966SOL    HW3 7863   4.285   1.456   3.115 -0.4169  1.2790 -1.9294
 1966SOL    MW4 7864   4.282   1.539   3.143 -0.4059  0.9191 -0.8389
 1967SOL     OW 7865   4.092   1.677   3.026  0.4995  0.2124  0.5585
 1967SOL    HW2 7866   4.065   1.764   3.054  0.5741  0.2605  0.4839
 1967SOL    HW3 7867   4.015   1.622   3.037  0.3927  0.3326  0.4143
 1967SOL    MW4 7868   4.078   1.681   3.031  0.4953  0.2346  0.5297
 1968SOL     OW 7869   4.062   1.956   3.156  0.1380 -0.0863  0.1234
 1968SOL    HW2 7870   4.145   1.983   3.117  0.4269 -1.4851 -0.2776
 1968SOL    HW3 7871   3.996   2.000   3.103  0.5167 -2.0048 -2.0654
 1968SOL    MW4 7872   4.065   1.965   3.143  0.2261 -0.5239 -0.2183
 1969SOL     OW 7873   4.279   2.038   3.015 -0.0168 -0.0066 -0.3265
 1969SOL    HW2 7874   4.277   2.133   3.027 -0.7373 -0.0381 -0.1824
 1969SOL    HW3 7875   4.248   2.024   2.926 -0.7754 -0.1638 -0.0356
 1969SOL    MW4 7876   4.275   2.049   3.005 -0.2120 -0.0315 -0.2691
 1970SOL     OW 7877   4.275   2.301   3.102  0.0822  0.2218 -0.4258
 1970SOL    HW2 7878   4.200   2.356   3.079  0.6253  0.2089 -2.2803
 1970SOL    HW3 7879   4.351   2.357   3.084  0.5682 -0.4123 -0.3201
 1970SOL    MW4 7880   4.275   2.316   3.097  0.2180  0.1364 -0.6565
 1971SOL     OW 7881   4.068   2.453   2.992  0.0708 -0.0759  0.2796
 1971SOL    HW2 7882   4.068   2.536   3.039  1.2384 -1.5197  2.9599
 1971SOL    HW3 7883   3.987   2.410   3.019  0.6707 -0.8424  0.9188
 1971SOL    MW4 7884   4.058   2.458   3.002  0.3040 -0.3675  0.7176
 1972SOL     OW 7885   4.037   2.706   3.094  0.0844 -0.3663  0.3020
 1972SOL    HW2 7886   4.031   2.715   3.189  1.1409  0.8720  0.2639
 1972SOL    HW3 7887   3.963   2.757   3.060  0.3348  0.0920  0.4346
 1972SOL    MW4 7888   4.026   2.714   3.102  0.2568 -0.1425  0.3145
 1973SOL     OW 7889   4.265   2.844   3.003 -0.5015  0.0483 -0.1974
 1973SOL    HW2 7890   4.185   2.791   3.011 -0.3373  0.0089  1.3107
 1973SOL    HW3 7891   4.326   2.804   3.064 -0.7731  2.6799  1.9247
 1973SOL    MW4 7892   4.262   2.832   3.012 -0.5156  0.3903  0.2816
 1974SOL     OW 7893   4.246   3.104   3.140 -0.1980  0.2238 -0.1380
 1974SOL    HW2 7894   4.177   3.158   3.101 -0.0467 -0.1392 -0.9283
 1974SOL    HW3 7895   4.239   3.020   3.094  0.6617  0.1280 -0.1110
 1974SOL    MW4 7896   4.236   3.100   3.129 -0.0647  0.1633 -0.2387
 1975SOL     OW 7897   4.078   3.258   3.011 -0.0114  0.4490  0.0079
 1975SOL    HW2 7898   4.071   3.351   3.034 -0.1696  0.4794 -0.1574
 1975SOL    HW3 7899   4.068   3.256   2.915  1.1688  0.3786 -0.1147
 1975SOL    MW4 7900   4.076   3.270   3.001  0.1234  0.4437 -0.0301
 1976SOL     OW 7901   4.075   3.523   3.132 -0.2363  0.3963 -0.0315
 1976SOL    HW2 7902   4.077   3.487   3.221 -0.1706 -0.0276 -0.2040
 1976SOL    HW3 7903   3.985   3.553   3.121  0.0004  1.3339  0.5255
 1976SOL    MW4 7904   4.063   3.522   3.143 -0.1964  0.4641  0.0192
 1977SOL     OW 7905   4.312   3.620   3.022  0.3916  0.7489  0.2026
 1977SOL    HW2 7906   4.322   3.713   3.039  0.9208  0.6439  0.4802
 1977SOL    HW3 7907   4.229   3.596   3.064  0.7325  0.8931  0.9756
 1977SOL    MW4 7908   4.302   3.629   3.030  0.5064  0.7541  0.3412
 1978SOL     OW 7909   4.294   3.872   3.124  0.4350  0.3125 -0.2016
 1978SOL    HW2 7910   4.215   3.879   3.070  1.1400 -0.9947 -1.4337
 1978SOL    HW3 7911   4.349   3.944   3.093  0.9318 -0.5701 -1.4115
 1978SOL    MW4 7912   4.290   3.883   3.113  0.5936  0.0235 -0.5238
 1979SOL     OW 7913   4.046   3.931   2.990  0.5426  0.5665  0.0510
 1979SOL    HW2 7914   4.062   4.010   3.043 -0.7443  1.2033 -0.5006
 1979SOL    HW3 7915   3.976   3.885   3.036  1.6419 -0.5514  0.6572
 1979SOL    MW4 7916   4.039   3.936   3.003  0.5178  0.5030  0.0582
 1980SOL     OW 7917   4.046   4.194   3.104  0.0825 -0.1632  0.2104
 1980SOL    HW2 7918   4.024   4.207   3.196  2.1514 -1.1996  0.8975
 1980SOL    HW3 7919   4.122   4.250   3.089 -0.5868  0.4305 -1.0279
 1980SOL    MW4 7920   4.054   4.203   3.114  0.2672 -0.2216  0.1377
 1981SOL     OW 7921   4.275   4.357   3.033 -0.6547 -0.3152 -0.0407
 1981SOL    HW2 7922   4.365   4.336   3.057 -0.7036  0.2305  0.6270
 1981SOL    HW3 7923   4.277   4.364   2.938  0.6891  2.7358  0.1452
 1981SOL    MW4 7924   4.287   4.355   3.024 -0.4838  0.1593  0.0719
 1982SOL     OW 7925   0.238   4.662   3.407 -0.8395 -0.0599 -0.2905
 1982SOL    HW2 7926   0.331   4.678   3.424 -0.6458 -0.5910 -0.7993
 1982SOL    HW3 7927   0.221   4.576   3.444 -0.8411 -0.4605 -1.1918
 1982SOL    MW4 7928   0.248   4.653   3.414 -0.8141 -0.1828 -0.4766
 1983SOL     OW 7929   0.003   0.091   3.510  0.2943 -0.1217  0.3120
 1983SOL    HW2 7930  -0.009   0.186   3.515 -1.1247 -0.1787 -1.3639
 1983SOL    HW3 7931   0.082   0.079   3.458 -0.1486  0.1445 -0.4295
 1983SOL    MW4 7932   0.011   0.102   3.504  0.0486 -0.0941 -0.0070
 1984SOL     OW 7933   4.473   0.379   3.415 -0.3174  0.1384 -0.4552
 1984SOL    HW2 7934   4.401   0.434   3.446 -0.0399  0.0074  0.4286
 1984SOL    HW3 7935   4.552   0.430   3.432 -0.1903  0.2425 -1.3408
 1984SOL    MW4 7936   4.474   0.393   3.421 -0.2640  0.1349 -0.4554
 1985SOL     OW 7937   0.244   0.489   3.461  0.1011  0.4407  0.2056
 1985SOL    HW2 7938   0.308   0.433   3.417  1.3674  1.6528  0.4787
 1985SOL    HW3 7939   0.234   0.564   3.402  1.2347  1.7110  1.6085
 1985SOL    MW4 7940   0.251   0.492   3.447  0.4177  0.7682  0.4267
 1986SOL     OW 7941   0.221   0.753   3.360  0.1541 -0.7121  0.1073
 1986SOL    HW2 7942   0.285   0.811   3.403  1.1513 -0.1958 -2.0420
 1986SOL    HW3 7943   0.143   0.760   3.415  1.7424 -0.9294  2.4771
 1986SOL    MW4 7944   0.219   0.762   3.373  0.4952 -0.6727  0.1364
 1987SOL     OW 7945   4.477   0.859   3.478 -0.4374  0.2543  0.1122
 1987SOL    HW2 7946   4.491   0.864   3.572  0.2567  1.5915 -0.0395
 1987SOL    HW3 7947   4.505   0.945   3.445  0.9764 -0.7849 -1.5118
 1987SOL    MW4 7948   4.483   0.871   3.486 -0.1593  0.2936 -0.1221
 1988SOL     OW 7949   0.025   1.120   3.403 -0.3817  0.1575  0.0659
 1988SOL    HW2 7950   0.089   1.183   3.436  0.6834 -0.3331 -1.0404
 1988SOL    HW3 7951   0.019   1.139   3.310  0.0172 -1.4520 -0.2864
 1988SOL    MW4 7952   0.032   1.131   3.395 -0.1885 -0.1196 -0.1266
 1989SOL     OW 7953   0.222   1.300   3.513  1.3304 -0.1487 -0.1825
 1989SOL    HW2 7954   0.301   1.258   3.481  2.2409  0.3583  1.3429
 1989SOL    HW3 7955   0.226   1.289   3.608  0.6187  1.6792  0.0827
 1989SOL    MW4 7956   0.233   1.293   3.522  1.3566  0.1594  0.0537
 1990SOL     OW 7957   0.214   1.571   3.420 -0.0362  0.0978 -0.2259
 1990SOL    HW2 7958   0.207   1.478   3.440 -0.9801  0.1313 -0.3775
 1990SOL    HW3 7959   0.230   1.575   3.326  1.2679  0.0545 -0.0218
 1990SOL    MW4 7960   0.216   1.560   3.410  0.0113  0.0965 -0.2190
 1991SOL     OW 7961   0.007   1.681   3.538 -0.1413 -0.2812  0.1187
 1991SOL    HW2 7962  -0.067   1.636   3.498  0.0007 -0.8500  0.4854
 1991SOL    HW3 7963   0.083   1.651   3.488 -0.2281  0.7495 -0.6278
 1991SOL    MW4 7964   0.007   1.671   3.527 -0.1340 -0.2202  0.0686
 1992SOL     OW 7965   4.481   1.941   3.409  0.2390 -0.3864  0.3145
 1992SOL    HW2 7966   4.473   1.851   3.440 -1.0853 -0.3853  0.0234
 1992SOL    HW3 7967   4.484   1.934   3.313 -0.2967 -0.1005  0.2726
 1992SOL    MW4 7968   4.480   1.928   3.400 -0.0064 -0.3485  0.2706
 1993SOL     OW 7969   0.201   2.064   3.524  0.2562 -0.3401  0.1496
 1993SOL    HW2 7970   0.125   2.037   3.472  0.1046 -0.6717  0.5396
 1993SOL    HW3 7971   0.276   2.036   3.473  0.1013 -1.0667  0.3209
 1993SOL    MW4 7972   0.201   2.057   3.510  0.2158 -0.4797  0.2237
 1994SOL     OW 7973   0.205   2.296   3.396 -0.1191  0.4280  0.2483
 1994SOL    HW2 7974   0.124   2.340   3.422  0.7759  1.8663  0.6230
 1994SOL    HW3 7975   0.208   2.218   3.451 -0.7266  0.9024  0.9709
 1994SOL    MW4 7976   0.195   2.292   3.406 -0.0812  0.6804  0.3930
 1995SOL     OW 7977   4.483   2.450   3.477  0.3567 -0.3042 -0.3366
 1995SOL    HW2 7978   4.476   2.431   3.571 -2.4329  1.5519 -0.0998
 1995SOL    HW3 7979   4.413   2.398   3.437 -0.5102  1.3133 -0.9562
 1995SOL    MW4 7980   4.473   2.441   3.484 -0.1258  0.1541 -0.3871
 1996SOL     OW 7981   4.486   2.710   3.412  0.1096 -0.4550 -0.1920
 1996SOL    HW2 7982   4.563   2.753   3.448  0.1641 -2.0194  1.6561
 1996SOL    HW3 7983   4.501   2.617   3.428 -1.4009 -0.9205 -1.3253
 1996SOL    MW4 7984   4.498   2.703   3.419 -0.0825 -0.7228 -0.0977
 1997SOL     OW 7985   0.224   2.825   3.510  0.0014 -0.5670  0.2732
 1997SOL    HW2 7986   0.301   2.788   3.467  0.5511  0.5256  0.3054
 1997SOL    HW3 7987   0.215   2.913   3.473 -0.8160 -0.4381  0.7716
 1997SOL    MW4 7988   0.233   2.832   3.500 -0.0339 -0.4059  0.3432
 1998SOL     OW 7989   0.205   3.099   3.443  0.0169  0.4839 -0.2192
 1998SOL    HW2 7990   0.121   3.133   3.475 -0.1276 -0.1892  0.1362
 1998SOL    HW3 7991   0.203   3.117   3.349 -0.7680 -0.0160 -0.3057
 1998SOL    MW4 7992   0.194   3.106   3.435 -0.1057  0.3292 -0.1838
 1999SOL     OW 7993   4.474   3.219   3.538 -0.2298  0.6431 -0.3607
 1999SOL    HW2 7994   4.396   3.181   3.498 -0.6159  1.1883 -0.1314
 1999SOL    HW3 7995   4.474   3.311   3.508  0.6426  0.4958 -0.8385
 1999SOL    MW4 7996   4.464   3.226   3.528 -0.1657  0.6956 -0.3935
 2000SOL     OW 7997   4.473   3.480   3.451  0.0615  0.0630 -0.1287
 2000SOL    HW2 7998   4.396   3.536   3.466  1.2177  1.4913  0.5838
 2000SOL    HW3 7999   4.490   3.489   3.357 -0.2106  0.3095 -0.1571
 2000SOL    MW4 8000   4.465   3.489   3.441  0.1782  0.2840 -0.0384
 2001SOL     OW 8001   0.214   3.636   3.499 -0.1206  0.0772 -0.4558
 2001SOL    HW2 8002   0.208   3.629   3.595 -0.6762  0.5121 -0.4535
 2001SOL    HW3 8003   0.152   3.571   3.466 -0.4258  0.3964 -0.5118
 2001SOL    MW4 8004   0.205   3.627   3.508 -0.2342  0.1767 -0.4629
 2002SOL     OW 8005   0.213   3.869   3.387 -0.1704  0.0977 -0.5407
 2002SOL    HW2 8006   0.144   3.924   3.426 -0.4038  0.6608 -1.7429
 2002SOL    HW3 8007   0.198   3.783   3.426 -1.1458  0.3675 -0.2791
 2002SOL    MW4 8008   0.202   3.865   3.397 -0.3299  0.2076 -0.6648
 2003SOL     OW 8009   0.006   4.036   3.487  0.3555 -0.0072 -0.2154
 2003SOL    HW2 8010   0.015   4.041   3.582 -0.4352  0.5938 -0.1652
 2003SOL    HW3 8011   0.013   4.127   3.457  1.0754 -0.2423 -0.7772
 2003SOL    MW4 8012   0.008   4.049   3.495  0.3461  0.0411 -0.2829
 2004SOL     OW 8013   4.252   4.380   3.477  0.3535  0.0380  0.1173
 2004SOL    HW2 8014   4.183   4.330   3.434  0.5162  0.5739 -0.7972
 2004SOL    HW3 8015   4.217   4.402   3.563 -1.1164  1.4126 -0.8202
 2004SOL    MW4 8016   4.238   4.376   3.483  0.1810  0.2901 -0.1271
 2005SOL     OW 8017   0.234   4.395   3.528  0.3662  0.1705 -0.2919
 2005SOL    HW2 8018   0.244   4.373   3.621 -1.5342 -0.7492 -0.2892
 2005SOL    HW3 8019   0.316   4.367   3.488  0.4998 -1.0686  0.8109
 2005SOL    MW4 8020   0.246   4.389   3.535  0.1331 -0.1143 -0.1461
 2006SOL     OW 8021   0.717   4.618   3.374  0.2204 -0.1260 -0.4631
 2006SOL    HW2 8022   0.776   4.686   3.406 -0.3271  0.6951 -1.1813
 2006SOL    HW3 8023   0.742   4.606   3.282  0.7191 -1.3264 -0.1772
 2006SOL    MW4 8024   0.728   4.625   3.366  0.2139 -0.1761 -0.5202
 2007SOL     OW 8025   0.492   0.112   3.451  0.1285  0.1331 -0.0751
 2007SOL    HW2 8026   0.483   0.118   3.546  0.9705  1.6670 -0.0707
 2007SOL    HW3 8027   0.570   0.058   3.438 -0.2969 -0.5270  0.0924
 2007SOL    MW4 8028   0.501   0.106   3.462  0.1835  0.2484 -0.0524
 2008SOL     OW 8029   0.431   0.350   3.322 -0.0806 -0.0548 -0.2042
 2008SOL    HW2 8030   0.497   0.412   3.353  1.2528 -1.1253 -0.8894
 2008SOL    HW3 8031   0.452   0.267   3.365 -1.0069 -0.3997 -0.3939
 2008SOL    MW4 8032   0.442   0.347   3.332 -0.0269 -0.2416 -0.3196
 2009SOL     OW 8033   0.643   0.485   3.408  0.5753  0.4549  0.0132
 2009SOL    HW2 8034   0.651   0.492   3.504  1.6237 -0.1148 -0.0209
 2009SOL    HW3 8035   0.723   0.440   3.381 -0.0558 -0.0358 -1.0683
 2009SOL    MW4 8036   0.655   0.480   3.417  0.6303  0.3150 -0.1340
 2010SOL     OW 8037   0.691   0.772   3.334  0.4884  0.0914  0.2924
 2010SOL    HW2 8038   0.629   0.821   3.388  1.2162 -0.3105  1.5227
 2010SOL    HW3 8039   0.673   0.680   3.355 -0.9876 -0.2143 -2.1301
 2010SOL    MW4 8040   0.680   0.766   3.344  0.3897 -0.0019  0.1351
 2011SOL     OW 8041   0.452   0.901   3.464 -0.1525 -0.0975  0.8563
 2011SOL    HW2 8042   0.429   0.888   3.556  1.2089  0.4374  1.2845
 2011SOL    HW3 8043   0.440   0.995   3.448  1.0509  0.0769  0.9108
 2011SOL    MW4 8044   0.447   0.912   3.474  0.1859 -0.0039  0.9200
 2012SOL     OW 8045   0.441   1.198   3.379 -0.7120 -0.0976  0.2352
 2012SOL    HW2 8046   0.525   1.235   3.406 -0.7217 -0.3673  0.6381
 2012SOL    HW3 8047   0.437   1.214   3.285 -0.0998 -0.2944  0.1705
 2012SOL    MW4 8048   0.452   1.205   3.370 -0.6325 -0.1591  0.2798
 2013SOL     OW 8049   0.704   1.294   3.477 -0.0559 -0.1122  0.1992
 2013SOL    HW2 8050   0.780   1.266   3.426  0.3458 -0.8459  1.1847
 2013SOL    HW3 8051   0.697   1.388   3.459  0.9932 -0.0647 -0.0187
 2013SOL    MW4 8052   0.713   1.303   3.468  0.1355 -0.2027  0.3005
 2014SOL     OW 8053   0.672   1.567   3.418 -0.1689 -0.1358 -0.1334
 2014SOL    HW2 8054   0.743   1.602   3.471 -0.7257  1.5230 -0.4469
 2014SOL    HW3 8055   0.595   1.618   3.444 -0.9484 -0.9640 -0.7883
 2014SOL    MW4 8056   0.671   1.578   3.428 -0.3452 -0.0262 -0.2612
 2015SOL     OW 8057   0.453   1.716   3.494  0.0421 -0.1736 -0.0561
 2015SOL    HW2 8058   0.461   1.707   3.589 -0.0074 -0.0147 -0.0364
 2015SOL    HW3 8059   0.374   1.666   3.471 -0.6290  0.7915  0.1427
 2015SOL    MW4 8060   0.444   1.708   3.503 -0.0529 -0.0253 -0.0273
 2016SOL     OW 8061   0.428   1.963   3.374 -0.6818 -0.7404  0.3650
 2016SOL    HW2 8062   0.427   1.877   3.416  0.6763 -1.0424 -0.1746
 2016SOL    HW3 8063   0.441   1.944   3.281 -0.2895  0.0369  0.2547
 2016SOL    MW4 8064   0.430   1.949   3.367 -0.4509 -0.6777  0.2792
 2017SOL     OW 8065   0.668   2.073   3.469 -0.3893  0.5508 -0.0533
 2017SOL    HW2 8066   0.660   2.065   3.564  0.0897 -0.7209 -0.1054
 2017SOL    HW3 8067   0.584   2.041   3.435 -0.4220  0.6503 -0.0647
 2017SOL    MW4 8068   0.656   2.067   3.477 -0.3305  0.3961 -0.0617
 2018SOL     OW 8069   0.642   2.315   3.359 -0.2797  0.0699 -0.4614
 2018SOL    HW2 8070   0.718   2.369   3.379  0.3406 -0.5891 -1.0103
 2018SOL    HW3 8071   0.662   2.230   3.398 -0.6524 -0.1612 -0.7705
 2018SOL    MW4 8072   0.655   2.311   3.367 -0.2470 -0.0475 -0.5746
 2019SOL     OW 8073   0.427   2.443   3.482 -0.6589  0.6328  0.1238
 2019SOL    HW2 8074   0.496   2.392   3.439 -1.5951 -0.1933 -0.4082
 2019SOL    HW3 8075   0.346   2.397   3.461 -1.1345  0.1230  2.8645
 2019SOL    MW4 8076   0.426   2.430   3.474 -0.8452  0.4566  0.4152
 2020SOL     OW 8077   0.438   2.721   3.360  1.1205 -0.2180  0.2915
 2020SOL    HW2 8078   0.436   2.631   3.393  0.0562  0.1213  1.1758
 2020SOL    HW3 8079   0.436   2.711   3.265  0.4836 -1.1218  0.3886
 2020SOL    MW4 8080   0.437   2.708   3.352  0.8961 -0.2924  0.4210
 2021SOL     OW 8081   0.653   2.845   3.471 -0.1828  0.0134 -0.7371
 2021SOL    HW2 8082   0.726   2.797   3.432  1.6055  0.3320  2.1337
 2021SOL    HW3 8083   0.575   2.802   3.436  1.3689 -1.6696 -2.2278
 2021SOL    MW4 8084   0.652   2.833   3.461  0.2579 -0.1666 -0.5550
 2022SOL     OW 8085   0.643   3.108   3.365 -0.1499 -0.0106  0.3260
 2022SOL    HW2 8086   0.572   3.155   3.410  0.2841 -0.3584  1.3799
 2022SOL    HW3 8087   0.641   3.020   3.403  0.5185 -0.1698 -0.0118
 2022SOL    MW4 8088   0.633   3.103   3.376 -0.0044 -0.0775  0.4205
 2023SOL     OW 8089   0.440   3.223   3.515  0.3939  0.1128  0.0309
 2023SOL    HW2 8090   0.434   3.218   3.610 -1.2737  2.1450  0.0906
 2023SOL    HW3 8091   0.356   3.190   3.484  0.3224  0.8902 -0.6425
 2023SOL    MW4 8092   0.428   3.218   3.524  0.1644  0.4835 -0.0501
 2024SOL     OW 8093   0.425   3.471   3.389 -0.3047  0.1925  0.3318
 2024SOL    HW2 8094   0.422   3.383   3.429 -0.1348  0.5086  1.0633
 2024SOL    HW3 8095   0.361   3.522   3.438 -0.1036  0.5869  0.1880
 2024SOL    MW4 8096   0.416   3.466   3.401 -0.2557  0.2862  0.4094
 2025SOL     OW 8097   0.647   3.627   3.473  0.2233 -0.1600  0.0314
 2025SOL    HW2 8098   0.724   3.571   3.464 -0.8181 -2.0199  1.8872
 2025SOL    HW3 8099   0.578   3.580   3.426 -0.4933 -0.0700  0.9810
 2025SOL    MW4 8100   0.648   3.613   3.466 -0.0087 -0.3935  0.4015
 2026SOL     OW 8101   0.663   3.884   3.379  0.1232 -0.1717  0.2289
 2026SOL    HW2 8102   0.587   3.918   3.425 -2.1924 -1.7304 -2.3190
 2026SOL    HW3 8103   0.664   3.790   3.400 -0.1035 -0.6186 -1.6709
 2026SOL    MW4 8104   0.653   3.876   3.388 -0.2122 -0.4363 -0.3579
 2027SOL     OW 8105   0.436   3.991   3.491 -0.3890  0.3247  0.3899
 2027SOL    HW2 8106   0.443   4.074   3.442  0.3544 -0.9138 -1.6663
 2027SOL    HW3 8107   0.368   3.942   3.444  0.8292 -1.1642  0.1566
 2027SOL    MW4 8108   0.428   3.996   3.478 -0.1302 -0.0352  0.0878
 2028SOL     OW 8109   0.478   4.261   3.381 -0.3696 -0.2450 -0.4635
 2028SOL    HW2 8110   0.558   4.293   3.423 -1.1437  1.5416 -0.2945
 2028SOL    HW3 8111   0.506   4.236   3.293  0.4402  0.0578 -0.2978
 2028SOL    MW4 8112   0.492   4.262   3.375 -0.3649  0.0307 -0.4193
 2029SOL     OW 8113   0.690   4.369   3.511  0.0045  0.1338 -0.4429
 2029SOL    HW2 8114   0.757   4.308   3.480 -0.1089  0.1721 -0.7682
 2029SOL    HW3 8115   0.707   4.450   3.462 -0.5654  0.0011 -0.8660
 2029SOL    MW4 8116   0.701   4.372   3.500 -0.0857  0.1213 -0.5416
 2030SOL     OW 8117   1.163   4.632   3.347  0.1591 -0.2749 -0.0197
 2030SOL    HW2 8118   1.249   4.669   3.370  1.1279 -2.1303 -0.5198
 2030SOL    HW3 8119   1.156   4.646   3.252 -1.0455  1.7489  0.3425
 2030SOL    MW4 8120   1.174   4.639   3.337  0.1280 -0.2527 -0.0379
 2031SOL     OW 8121   0.931   0.118   3.452 -0.4672  0.4987  0.7367
 2031SOL    HW2 8122   0.944   0.106   3.546 -1.2025  0.1431  0.7985
 2031SOL    HW3 8123   1.004   0.072   3.412 -0.3828  0.2878  1.1279
 2031SOL    MW4 8124   0.942   0.110   3.459 -0.5531  0.4240  0.7964
 2032SOL     OW 8125   0.879   0.359   3.346  0.6263 -0.3684  0.2884
 2032SOL    HW2 8126   0.963   0.402   3.366 -0.1643  0.4512  1.9375
 2032SOL    HW3 8127   0.889   0.271   3.382  1.0089 -0.4919 -0.1062
 2032SOL    MW4 8128   0.892   0.353   3.354  0.5725 -0.2766  0.4539
 2033SOL     OW 8129   1.128   0.492   3.448  0.4375  0.2288 -0.2640
 2033SOL    HW2 8130   1.122   0.495   3.543  2.0255 -0.1129 -0.1474
 2033SOL    HW3 8131   1.116   0.583   3.420 -0.3451  0.2807  0.2289
 2033SOL    MW4 8132   1.125   0.505   3.457  0.5438  0.1906 -0.1836
 2034SOL     OW 8133   1.112   0.765   3.370  0.4725  0.0297  0.0660
 2034SOL    HW2 8134   1.185   0.816   3.405 -0.7654  0.2512  2.4812
 2034SOL    HW3 8135   1.034   0.806   3.407 -0.7518 -1.4146 -0.8434
 2034SOL    MW4 8136   1.111   0.777   3.380  0.1477 -0.1317  0.2647
 2035SOL     OW 8137   0.890   0.907   3.466  0.0233 -0.2709 -0.1543
 2035SOL    HW2 8138   0.910   0.992   3.425  0.9482 -0.6042 -0.4055
 2035SOL    HW3 8139   0.835   0.862   3.402  1.4929 -0.8022 -1.0642
 2035SOL    MW4 8140   0.885   0.912   3.452  0.3392 -0.3850 -0.3075
 2036SOL     OW 8141   0.941   1.161   3.374  0.1128 -0.4956 -0.4891
 2036SOL    HW2 8142   1.001   1.232   3.399 -0.1539 -0.8601  1.2849
 2036SOL    HW3 8143   0.929   1.171   3.280  0.4839  1.5128 -0.3393
 2036SOL    MW4 8144   0.947   1.172   3.365  0.1265 -0.2787 -0.2353
 2037SOL     OW 8145   1.160   1.322   3.468  0.2189  0.1901  0.0964
 2037SOL    HW2 8146   1.156   1.318   3.564 -1.1218 -0.2403  0.0282
 2037SOL    HW3 8147   1.136   1.413   3.447 -1.1192 -0.1536  0.0976
 2037SOL    MW4 8148   1.157   1.334   3.478 -0.1345  0.0879  0.0876
 2038SOL     OW 8149   1.110   1.574   3.371 -0.2509 -0.2404  0.3893
 2038SOL    HW2 8150   1.199   1.602   3.392 -0.1483 -0.8130  0.7310
 2038SOL    HW3 8151   1.115   1.540   3.282  0.1208 -1.3324  0.8154
 2038SOL    MW4 8152   1.122   1.573   3.362 -0.1883 -0.4600  0.4906
 2039SOL     OW 8153   0.905   1.696   3.509  0.2605  0.0266 -0.5478
 2039SOL    HW2 8154   0.876   1.760   3.444  1.0235  0.4159 -0.5039
 2039SOL    HW3 8155   0.983   1.656   3.471  0.0771 -0.5278 -0.3513
 2039SOL    MW4 8156   0.911   1.699   3.495  0.3370  0.0048 -0.5161
 2040SOL     OW 8157   0.840   1.905   3.354 -0.4430  0.1651  0.2995
 2040SOL    HW2 8158   0.925   1.936   3.385 -0.7066  1.0545  0.1370
 2040SOL    HW3 8159   0.776   1.957   3.402 -0.8788  0.3569 -0.4701
 2040SOL    MW4 8160   0.843   1.916   3.364 -0.5353  0.3078  0.1765
 2041SOL     OW 8161   1.067   2.025   3.445 -0.3176  0.3169 -0.1060
 2041SOL    HW2 8162   1.155   1.990   3.429 -1.0989 -0.4517 -3.1773
 2041SOL    HW3 8163   1.067   2.110   3.400 -1.0182  0.4925  0.2236
 2041SOL    MW4 8164   1.079   2.032   3.437 -0.5131  0.2386 -0.4677
 2042SOL     OW 8165   1.101   2.290   3.358  0.5666  0.1063  0.0395
 2042SOL    HW2 8166   1.166   2.345   3.403  0.9915 -0.4762  0.1444
 2042SOL    HW3 8167   1.120   2.302   3.265  0.8586 -0.0980  0.0705
 2042SOL    MW4 8168   1.112   2.299   3.352  0.6612  0.0025  0.0574
 2043SOL     OW 8169   0.882   2.447   3.428  0.0226  0.0223 -0.4699
 2043SOL    HW2 8170   0.887   2.442   3.523  0.1048  0.2260 -0.4634
 2043SOL    HW3 8171   0.961   2.403   3.397 -1.3927 -2.5670 -0.5088
 2043SOL    MW4 8172   0.893   2.441   3.436 -0.1533 -0.2925 -0.4742
 2044SOL     OW 8173   0.858   2.705   3.339 -0.0888 -0.8812 -0.3488
 2044SOL    HW2 8174   0.936   2.743   3.380  0.6153 -1.3326 -1.2627
 2044SOL    HW3 8175   0.857   2.614   3.368 -1.3368 -0.4064  1.1916
 2044SOL    MW4 8176   0.868   2.698   3.348 -0.1605 -0.8781 -0.2661
 2045SOL     OW 8177   1.079   2.808   3.462 -0.2338  0.7157  0.1017
 2045SOL    HW2 8178   1.094   2.814   3.557  1.7839 -0.8923 -0.0687
 2045SOL    HW3 8179   1.160   2.770   3.428 -1.2359  0.5752 -2.1928
 2045SOL    MW4 8180   1.092   2.804   3.470 -0.0998  0.4850 -0.2235
 2046SOL     OW 8181   1.103   3.081   3.391 -0.5418  0.2602  0.0459
 2046SOL    HW2 8182   1.082   2.990   3.408  1.7461 -0.1318  1.0238
 2046SOL    HW3 8183   1.138   3.082   3.301 -1.0013  0.2505 -0.1317
 2046SOL    MW4 8184   1.105   3.069   3.381 -0.3005  0.2072  0.1515
 2047SOL     OW 8185   0.885   3.218   3.481  0.1038 -0.0848  0.0103
 2047SOL    HW2 8186   0.964   3.170   3.455 -0.1981 -1.1617  1.0779
 2047SOL    HW3 8187   0.814   3.173   3.436 -0.0145  0.3439 -0.2394
 2047SOL    MW4 8188   0.886   3.206   3.471  0.0484 -0.1703  0.1182
 2048SOL     OW 8189   0.865   3.487   3.392 -0.4711 -0.8392  0.0596
 2048SOL    HW2 8190   0.861   3.393   3.409  1.3511 -0.9892 -0.3148
 2048SOL    HW3 8191   0.865   3.494   3.296 -0.6324 -0.4553  0.0857
 2048SOL    MW4 8192   0.864   3.476   3.381 -0.2519 -0.8084  0.0136
 2049SOL     OW 8193   1.105   3.574   3.465 -0.1322  0.3671  0.1770
 2049SOL    HW2 8194   1.110   3.576   3.561 -1.4085 -1.4988  0.3186
 2049SOL    HW3 8195   1.019   3.535   3.446  0.1517  0.6196 -1.7187
 2049SOL    MW4 8196   1.094   3.569   3.475 -0.2631  0.1543 -0.0545
 2050SOL     OW 8197   1.103   3.857   3.386  0.3567 -0.2997 -0.0232
 2050SOL    HW2 8198   1.185   3.892   3.421  0.9844 -2.0924  0.3893
 2050SOL    HW3 8199   1.102   3.765   3.415 -1.3263 -0.5665 -0.8484
 2050SOL    MW4 8200   1.114   3.849   3.394  0.2175 -0.5714 -0.0776
 2051SOL     OW 8201   0.887   4.007   3.490 -0.6336  0.3073  0.2626
 2051SOL    HW2 8202   0.965   3.957   3.465 -0.1571  0.5684  1.2124
 2051SOL    HW3 8203   0.814   3.957   3.453 -0.2567 -1.7544  2.2071
 2051SOL    MW4 8204   0.888   3.994   3.482 -0.5210  0.0698  0.6445
 2052SOL     OW 8205   0.921   4.245   3.385  0.1318  0.3079  0.0766
 2052SOL    HW2 8206   0.924   4.151   3.405 -1.2649  0.2607  0.1135
 2052SOL    HW3 8207   0.941   4.250   3.292  0.3657 -0.0243  0.1087
 2052SOL    MW4 8208   0.924   4.233   3.376 -0.0216  0.2579  0.0857
 2053SOL     OW 8209   1.155   4.378   3.495  0.2011 -0.2323 -0.2393
 2053SOL    HW2 8210   1.078   4.327   3.470 -1.3774  0.6192  2.5653
 2053SOL    HW3 8211   1.144   4.462   3.449  0.2321 -0.6543 -1.0182
 2053SOL    MW4 8212   1.143   4.383   3.486 -0.0031 -0.1756  0.0279
 2054SOL     OW 8213   1.614   4.635   3.356 -0.2841 -0.3950 -0.3365
 2054SOL    HW2 8214   1.612   4.558   3.413 -0.2349  0.2664  0.5663
 2054SOL    HW3 8215   1.533   4.682   3.375  0.4580  0.6445  0.3544
 2054SOL    MW4 8216   1.603   4.631   3.366 -0.1797 -0.1706 -0.1262
 2055SOL     OW 8217   1.395   0.101   3.430  0.1166  0.0363 -0.2746
 2055SOL    HW2 8218   1.368   0.126   3.518  0.6117 -0.2273 -0.0455
 2055SOL    HW3 8219   1.376   0.179   3.376 -2.0700 -0.5115 -0.3383
 2055SOL    MW4 8220   1.389   0.115   3.434 -0.1066 -0.0707 -0.2528
 2056SOL     OW 8221   1.349   0.369   3.363 -0.1005  0.0329  0.0055
 2056SOL    HW2 8222   1.416   0.426   3.402 -0.5113  0.7833 -0.3806
 2056SOL    HW3 8223   1.267   0.399   3.402 -0.5670  1.0431 -1.7235
 2056SOL    MW4 8224   1.347   0.380   3.374 -0.2163  0.2652 -0.2736
 2057SOL     OW 8225   1.582   0.503   3.421  0.4176  0.0143 -0.0000
 2057SOL    HW2 8226   1.580   0.483   3.515  2.6763  1.3120  0.3525
 2057SOL    HW3 8227   1.657   0.454   3.388  0.0156  0.0764 -1.0210
 2057SOL    MW4 8228   1.591   0.494   3.429  0.6626  0.1937 -0.0882
 2058SOL     OW 8229   1.597   0.774   3.361 -0.1405  0.1533  0.0783
 2058SOL    HW2 8230   1.507   0.803   3.374 -0.1583  0.1174  0.0347
 2058SOL    HW3 8231   1.595   0.681   3.383  0.3189  0.5956  2.0757
 2058SOL    MW4 8232   1.585   0.766   3.366 -0.0822  0.2069  0.3361
 2059SOL     OW 8233   1.335   0.902   3.420  0.0527 -0.1026 -0.2187
 2059SOL    HW2 8234   1.336   0.912   3.515  0.1661  0.7669 -0.3033
 2059SOL    HW3 8235   1.343   0.992   3.387  1.2032 -0.4935 -1.0453
 2059SOL    MW4 8236   1.336   0.915   3.428  0.2194 -0.0395 -0.3390
 2060SOL     OW 8237   1.368   1.177   3.376 -0.0894 -0.0236  0.4258
 2060SOL    HW2 8238   1.442   1.221   3.419  0.8803  0.3670 -1.5886
 2060SOL    HW3 8239   1.291   1.222   3.410  0.7060  0.7469  1.2298
 2060SOL    MW4 8240   1.368   1.189   3.386  0.1435  0.1296  0.2661
 2061SOL     OW 8241   1.582   1.292   3.480  0.0829 -0.3291 -0.0978
 2061SOL    HW2 8242   1.667   1.252   3.464  0.6971  0.7306  0.5019
 2061SOL    HW3 8243   1.578   1.302   3.575 -0.9785 -0.9446 -0.0649
 2061SOL    MW4 8244   1.593   1.288   3.491  0.0239 -0.2705 -0.0144
 2062SOL     OW 8245   1.615   1.550   3.374  0.0050  0.1922 -0.2214
 2062SOL    HW2 8246   1.597   1.464   3.411 -1.3060  0.4321 -0.2803
 2062SOL    HW3 8247   1.601   1.539   3.280 -0.1389  0.4568 -0.2313
 2062SOL    MW4 8248   1.611   1.537   3.366 -0.1869  0.2588 -0.2305
 2063SOL     OW 8249   1.361   1.659   3.438  0.4034 -0.1193 -0.0073
 2063SOL    HW2 8250   1.353   1.668   3.533 -2.8646 -1.4960 -0.1025
 2063SOL    HW3 8251   1.448   1.622   3.425  0.1193 -1.8128  2.5895
 2063SOL    MW4 8252   1.371   1.655   3.449 -0.0653 -0.5244  0.3227
 2064SOL     OW 8253   1.333   1.933   3.378 -0.1922 -0.1464  0.1766
 2064SOL    HW2 8254   1.396   1.986   3.425 -0.7935 -0.2250  1.0814
 2064SOL    HW3 8255   1.362   1.843   3.391  0.4497 -0.0944 -0.8057
 2064SOL    MW4 8256   1.345   1.928   3.386 -0.1868 -0.1499  0.1664
 2065SOL     OW 8257   1.533   2.107   3.486  0.0043  0.0989 -0.2184
 2065SOL    HW2 8258   1.601   2.059   3.438  0.1453  0.6424 -0.5594
 2065SOL    HW3 8259   1.543   2.198   3.458 -0.5510  0.2596  0.1016
 2065SOL    MW4 8260   1.543   2.113   3.476 -0.0504  0.1919 -0.2212
 2066SOL     OW 8261   1.549   2.361   3.369  0.0776 -0.0183 -0.7131
 2066SOL    HW2 8262   1.475   2.415   3.394 -0.0276 -0.5151  0.0648
 2066SOL    HW3 8263   1.543   2.356   3.273  0.3694  1.7137 -0.8352
 2066SOL    MW4 8264   1.538   2.367   3.360  0.1022  0.1447 -0.6266
 2067SOL     OW 8265   1.278   2.484   3.464 -0.2913  0.1635  0.4484
 2067SOL    HW2 8266   1.287   2.469   3.558 -0.8093  1.1687  0.6687
 2067SOL    HW3 8267   1.305   2.576   3.451 -0.5689  0.1466 -0.3260
 2067SOL    MW4 8268   1.283   2.494   3.474 -0.3963  0.2939  0.3753
 2068SOL     OW 8269   1.339   2.735   3.384  0.1034  0.2996 -0.8325
 2068SOL    HW2 8270   1.421   2.778   3.407 -0.1063  0.8737 -1.1331
 2068SOL    HW3 8271   1.346   2.720   3.289 -0.1903  0.4538 -0.8774
 2068SOL    MW4 8272   1.351   2.738   3.374  0.0370  0.3957 -0.8781
 2069SOL     OW 8273   1.571   2.853   3.482  0.0319 -0.0300  0.3269
 2069SOL    HW2 8274   1.650   2.816   3.442 -0.2194 -0.1587 -0.0548
 2069SOL    HW3 8275   1.577   2.947   3.463  0.4768  0.0773  0.9647
 2069SOL    MW4 8276   1.582   2.860   3.474  0.0575 -0.0328  0.3607
 2070SOL     OW 8277   1.582   3.108   3.371  0.1504  0.1653  0.1675
 2070SOL    HW2 8278   1.657   3.164   3.390 -0.0052  0.0530  1.1557
 2070SOL    HW3 8279   1.509   3.150   3.416 -0.3985  0.3186 -0.8507
 2070SOL    MW4 8280   1.582   3.121   3.379  0.0574  0.1707  0.1635
 2071SOL     OW 8281   1.354   3.205   3.472  0.7667 -0.4872  0.1221
 2071SOL    HW2 8282   1.349   3.213   3.567  2.2020 -1.3865  0.2859
 2071SOL    HW3 8283   1.275   3.157   3.448  0.7587 -0.8872  0.9372
 2071SOL    MW4 8284   1.343   3.200   3.481  0.9550 -0.6586  0.2513
 2072SOL     OW 8285   1.350   3.466   3.390 -0.1273  0.2237 -0.2607
 2072SOL    HW2 8286   1.349   3.374   3.417  0.9451 -0.1130 -1.2826
 2072SOL    HW3 8287   1.261   3.497   3.402 -0.4978 -0.9695  0.0593
 2072SOL    MW4 8288   1.338   3.458   3.395 -0.0347  0.0218 -0.3533
 2073SOL     OW 8289   1.572   3.588   3.457 -0.2999 -0.2731  0.1178
 2073SOL    HW2 8290   1.555   3.600   3.550 -1.1954  0.1929 -0.0989
 2073SOL    HW3 8291   1.494   3.542   3.425  0.2993 -1.0248 -0.2732
 2073SOL    MW4 8292   1.559   3.583   3.465 -0.3390 -0.3108  0.0376
 2074SOL     OW 8293   1.597   3.879   3.405  0.1424 -0.2171 -0.2452
 2074SOL    HW2 8294   1.609   3.788   3.434  1.9091 -0.5071 -1.7863
 2074SOL    HW3 8295   1.604   3.874   3.310  1.8973  1.7910 -0.2368
 2074SOL    MW4 8296   1.599   3.866   3.396  0.6071  0.0096 -0.4475
 2075SOL     OW 8297   1.349   3.994   3.459 -0.1979  0.2075 -0.4334
 2075SOL    HW2 8298   1.355   4.089   3.449 -1.0273  0.0463 -2.8582
 2075SOL    HW3 8299   1.434   3.961   3.431 -0.2277  0.1832 -0.4963
 2075SOL    MW4 8300   1.361   4.002   3.454 -0.3113  0.1830 -0.7616
 2076SOL     OW 8301   1.369   4.262   3.385 -0.5760 -0.5702 -0.4862
 2076SOL    HW2 8302   1.298   4.310   3.428 -1.0033 -1.0807 -0.6143
 2076SOL    HW3 8303   1.347   4.262   3.292  0.5481  0.8608 -0.7643
 2076SOL    MW4 8304   1.357   4.268   3.379 -0.4841 -0.4487 -0.5398
 2077SOL     OW 8305   1.599   4.361   3.485  0.7149 -0.3247  0.0039
 2077SOL    HW2 8306   1.674   4.331   3.433  0.2236 -0.0381 -0.8667
 2077SOL    HW3 8307   1.523   4.320   3.444  0.2079  0.8247 -0.1982
 2077SOL    MW4 8308   1.599   4.351   3.473  0.5832 -0.1352 -0.1377
 2078SOL     OW 8309   2.092   4.657   3.396  0.3366 -0.0206  0.0315
 2078SOL    HW2 8310   2.162   4.714   3.428  0.4884 -0.3343  0.2662
 2078SOL    HW3 8311   2.012   4.709   3.406  0.6560  0.7046 -1.1726
 2078SOL    MW4 8312   2.090   4.671   3.402  0.3988  0.0337 -0.0964
 2079SOL     OW 8313   1.840   0.102   3.459  0.0420  0.6178  0.1373
 2079SOL    HW2 8314   1.825   0.119   3.552  1.6829 -0.3344  0.5809
 2079SOL    HW3 8315   1.763   0.051   3.432 -0.1667  0.4225  1.0874
 2079SOL    MW4 8316   1.828   0.098   3.467  0.2310  0.4664  0.3212
 2080SOL     OW 8317   1.813   0.351   3.340  0.7199  0.1714 -0.2717
 2080SOL    HW2 8318   1.822   0.262   3.375 -1.9663 -0.3345 -0.7492
 2080SOL    HW3 8319   1.834   0.342   3.247  1.5723  0.2741 -0.0946
 2080SOL    MW4 8320   1.817   0.338   3.333  0.4780  0.1182 -0.3113
 2081SOL     OW 8321   2.023   0.475   3.458 -0.7281 -0.9409 -0.3814
 2081SOL    HW2 8322   2.013   0.570   3.445  0.8529 -0.8714 -1.1378
 2081SOL    HW3 8323   1.939   0.438   3.431 -1.6135  0.3089  0.5992
 2081SOL    MW4 8324   2.011   0.483   3.453 -0.6363 -0.7668 -0.3518
 2082SOL     OW 8325   1.998   0.741   3.402  0.5277  0.2100 -0.0439
 2082SOL    HW2 8326   2.075   0.789   3.433 -0.2534  0.8415  0.9411
 2082SOL    HW3 8327   1.992   0.763   3.309  2.1345 -0.6650 -0.3794
 2082SOL    MW4 8328   2.007   0.750   3.394  0.6366  0.1779  0.0418
 2083SOL     OW 8329   1.797   0.904   3.481 -0.3240 -0.3369 -0.0191
 2083SOL    HW2 8330   1.868   0.843   3.464 -0.3562 -0.3451 -0.1256
 2083SOL    HW3 8331   1.722   0.867   3.434 -0.8325 -1.2013  1.4200
 2083SOL    MW4 8332   1.796   0.891   3.473 -0.3953 -0.4521  0.1567
 2084SOL     OW 8333   1.787   1.152   3.386 -0.1297  0.1009 -0.5785
 2084SOL    HW2 8334   1.875   1.183   3.409 -0.0288 -0.6625  0.0595
 2084SOL    HW3 8335   1.784   1.062   3.419 -0.8564 -0.1545 -1.3458
 2084SOL    MW4 8336   1.798   1.145   3.393 -0.2123 -0.0336 -0.5956
 2085SOL     OW 8337   2.032   1.287   3.451  0.0387  0.0152 -0.4318
 2085SOL    HW2 8338   2.024   1.273   3.545  1.0596  0.3614 -0.2802
 2085SOL    HW3 8339   2.029   1.383   3.441  0.3903 -0.0029 -0.7046
 2085SOL    MW4 8340   2.031   1.298   3.462  0.2198  0.0585 -0.4478
 2086SOL     OW 8341   2.051   1.559   3.398  0.2190 -0.0883  0.0771
 2086SOL    HW2 8342   2.126   1.609   3.428  0.7165 -1.0672  0.5024
 2086SOL    HW3 8343   1.977   1.619   3.405  0.8588  0.6802  0.2634
 2086SOL    MW4 8344   2.051   1.573   3.403  0.3690 -0.1161  0.1578
 2087SOL     OW 8345   1.825   1.708   3.443  0.0268 -0.0100 -0.2993
 2087SOL    HW2 8346   1.784   1.790   3.416 -0.4394 -0.2989 -0.4800
 2087SOL    HW3 8347   1.760   1.641   3.423  0.9766 -0.5887 -1.5391
 2087SOL    MW4 8348   1.811   1.710   3.437  0.0906 -0.1245 -0.4867
 2088SOL     OW 8349   1.741   1.962   3.375  0.1387  0.2141 -0.1775
 2088SOL    HW2 8350   1.819   1.996   3.418  0.6714 -1.2212  0.0264
 2088SOL    HW3 8351   1.761   1.967   3.281  0.6980 -0.6562 -0.1072
 2088SOL    MW4 8352   1.754   1.967   3.368  0.2828 -0.0901 -0.1413
 2089SOL     OW 8353   1.968   2.069   3.476  0.8795 -0.0618  0.0991
 2089SOL    HW2 8354   2.047   2.020   3.452  1.0127  0.0417  0.3175
 2089SOL    HW3 8355   1.986   2.159   3.449  0.9793  0.0300  0.4644
 2089SOL    MW4 8356   1.981   2.075   3.470  0.9103 -0.0360  0.1761
 2090SOL     OW 8357   2.025   2.311   3.383 -0.0866  0.3094 -0.4844
 2090SOL    HW2 8358   2.107   2.332   3.427 -0.3970  0.4805  0.0261
 2090SOL    HW3 8359   2.049   2.294   3.293  0.5058  0.3951 -0.3431
 2090SOL    MW4 8360   2.039   2.311   3.377 -0.0494  0.3433 -0.3984
 2091SOL     OW 8361   1.795   2.467   3.464  0.8091  0.2721 -0.4940
 2091SOL    HW2 8362   1.865   2.429   3.411  0.3330  0.3788 -1.2077
 2091SOL    HW3 8363   1.715   2.425   3.432  0.4450  0.8147 -0.3068
 2091SOL    MW4 8364   1.794   2.457   3.452  0.6983  0.3578 -0.5635
 2092SOL     OW 8365   1.815   2.724   3.378  0.1943  0.2570 -0.0331
 2092SOL    HW2 8366   1.897   2.761   3.411 -0.3805  0.7657  0.8296
 2092SOL    HW3 8367   1.804   2.643   3.427 -1.6074  1.9245  2.4062
 2092SOL    MW4 8368   1.825   2.718   3.389 -0.1193  0.5441  0.4026
 2093SOL     OW 8369   2.044   2.847   3.484  0.2138 -0.0380  0.2923
 2093SOL    HW2 8370   2.019   2.854   3.576 -1.2771 -0.1285 -0.0827
 2093SOL    HW3 8371   2.034   2.935   3.449 -0.6475 -0.2890 -0.1158
 2093SOL    MW4 8372   2.039   2.859   3.491 -0.0965 -0.0830  0.1890
 2094SOL     OW 8373   2.034   3.102   3.371 -0.2267 -0.4659  0.0389
 2094SOL    HW2 8374   2.110   3.151   3.402  0.1181 -1.2859  0.4948
 2094SOL    HW3 8375   1.959   3.151   3.406  0.0570  0.8076 -1.1059
 2094SOL    MW4 8376   2.034   3.115   3.380 -0.1437 -0.4061 -0.0520
 2095SOL     OW 8377   1.810   3.229   3.478  0.3687  0.0962  0.0765
 2095SOL    HW2 8378   1.828   3.222   3.572  2.5610 -0.1596 -0.3338
 2095SOL    HW3 8379   1.800   3.323   3.463 -1.1097  0.0659  0.7299
 2095SOL    MW4 8380   1.811   3.241   3.488  0.4629  0.0584  0.1086
 2096SOL     OW 8381   1.815   3.493   3.375 -0.5745 -0.1534 -0.5109
 2096SOL    HW2 8382   1.730   3.523   3.408  0.1756  0.7262  0.6421
 2096SOL    HW3 8383   1.807   3.501   3.280 -2.0866 -0.9112 -0.4719
 2096SOL    MW4 8384   1.803   3.498   3.367 -0.6751 -0.1373 -0.3536
 2097SOL     OW 8385   2.007   3.581   3.534  0.0429  0.4808  0.4546
 2097SOL    HW2 8386   2.089   3.546   3.498  0.3825  1.7028  0.0324
 2097SOL    HW3 8387   1.940   3.551   3.473  0.3647  0.8115 -0.0589
 2097SOL    MW4 8388   2.009   3.572   3.521  0.1301  0.6856  0.3311
 2098SOL     OW 8389   2.019   3.844   3.446  0.2863 -0.2013 -0.0396
 2098SOL    HW2 8390   1.958   3.894   3.500  0.4715  0.0455 -0.0595
 2098SOL    HW3 8391   2.024   3.758   3.489  0.1227 -0.1401  0.1051
 2098SOL    MW4 8392   2.011   3.839   3.459  0.2892 -0.1607 -0.0231
 2099SOL     OW 8393   1.824   4.019   3.529  0.2516 -0.0945  0.1441
 2099SOL    HW2 8394   1.810   4.001   3.622  0.2342 -0.9630 -0.0212
 2099SOL    HW3 8395   1.752   3.974   3.485  0.3173  0.2329 -0.2979
 2099SOL    MW4 8396   1.813   4.011   3.536  0.2580 -0.1659  0.0640
 2100SOL     OW 8397   1.835   4.272   3.396  0.0783 -0.1597  0.2308
 2100SOL    HW2 8398   1.851   4.186   3.435  0.2041  0.1342  0.8377
 2100SOL    HW3 8399   1.833   4.255   3.302 -0.7060 -0.9541  0.3807
 2100SOL    MW4 8400   1.837   4.258   3.389 -0.0086 -0.2257  0.3307
 2101SOL     OW 8401   2.030   4.427   3.524 -0.3998  0.5796 -0.3080
 2101SOL    HW2 8402   1.951   4.396   3.481 -0.9794  0.4504  0.8435
 2101SOL    HW3 8403   2.053   4.507   3.476 -0.4336 -0.1167 -1.5270
 2101SOL    MW4 8404   2.023   4.434   3.512 -0.4807  0.4707 -0.3169
 2102SOL     OW 8405   2.450   4.622   3.425 -0.1154 -0.2044 -0.3867
 2102SOL    HW2 8406   2.431   4.533   3.457 -1.2238  0.0897 -0.2209
 2102SOL    HW3 8407   2.468   4.610   3.332  1.5619 -0.8493  0.0047
 2102SOL    MW4 8408   2.450   4.608   3.417 -0.0404 -0.2507 -0.3132
 2103SOL     OW 8409   2.263   0.142   3.534 -0.4705 -0.2223  0.0166
 2103SOL    HW2 8410   2.284   0.227   3.497 -1.1233 -0.1763 -0.2564
 2103SOL    HW3 8411   2.332   0.084   3.502  1.2707  0.6580  2.0308
 2103SOL    MW4 8412   2.275   0.145   3.525 -0.3269 -0.1001  0.2463
 2104SOL     OW 8413   2.264   0.372   3.380  0.3551 -0.4330 -0.1053
 2104SOL    HW2 8414   2.329   0.418   3.433  1.8528 -1.4141 -1.0510
 2104SOL    HW3 8415   2.180   0.408   3.408  1.1958 -0.1049  2.1260
 2104SOL    MW4 8416   2.261   0.383   3.391  0.6636 -0.5192  0.0643
 2105SOL     OW 8417   2.463   0.505   3.510 -0.4884  0.3234  0.0321
 2105SOL    HW2 8418   2.540   0.460   3.474  0.1173  0.6411  0.8868
 2105SOL    HW3 8419   2.469   0.594   3.476 -0.0867  0.5379  0.6424
 2105SOL    MW4 8420   2.474   0.510   3.501 -0.3555  0.3936  0.2254
 2106SOL     OW 8421   2.481   0.755   3.396  0.2026 -0.0797 -0.1126
 2106SOL    HW2 8422   2.563   0.798   3.419  1.5729 -1.7084 -1.8156
 2106SOL    HW3 8423   2.477   0.759   3.301 -0.0770 -2.8842 -0.2682
 2106SOL    MW4 8424   2.491   0.761   3.387  0.3465 -0.6646 -0.3578
 2107SOL     OW 8425   2.249   0.893   3.479 -0.3956  0.0820 -0.0721
 2107SOL    HW2 8426   2.253   0.987   3.461  0.0136 -0.0404 -0.6511
 2107SOL    HW3 8427   2.327   0.857   3.437 -1.3034 -0.7152 -1.1222
 2107SOL    MW4 8428   2.260   0.900   3.471 -0.4614 -0.0393 -0.2870
 2108SOL     OW 8429   2.258   1.150   3.393  0.6748  0.4432 -0.4529
 2108SOL    HW2 8430   2.338   1.201   3.407  1.2004 -0.1608 -1.2075
 2108SOL    HW3 8431   2.187   1.211   3.411  1.3091  0.8093  0.8430
 2108SOL    MW4 8432   2.259   1.165   3.397  0.8278  0.4118 -0.3815
 2109SOL     OW 8433   2.474   1.282   3.482 -0.3709 -0.0444 -0.1089
 2109SOL    HW2 8434   2.478   1.292   3.577 -1.7515 -0.0394 -0.0519
 2109SOL    HW3 8435   2.555   1.234   3.460  1.6205  2.8069  0.6711
 2109SOL    MW4 8436   2.485   1.277   3.492 -0.2903  0.3324  0.0016
 2110SOL     OW 8437   2.449   1.541   3.389 -0.3354 -0.3436  0.1849
 2110SOL    HW2 8438   2.443   1.447   3.404 -1.4306 -0.2680  0.2977
 2110SOL    HW3 8439   2.456   1.549   3.294  0.5056 -0.5684  0.2264
 2110SOL    MW4 8440   2.449   1.530   3.378 -0.3689 -0.3633  0.2052
 2111SOL     OW 8441   2.265   1.706   3.494 -0.4263 -0.3077 -0.0496
 2111SOL    HW2 8442   2.282   1.687   3.586  0.0370  0.2705 -0.0080
 2111SOL    HW3 8443   2.332   1.657   3.446  0.0857  0.3388 -0.0049
 2111SOL    MW4 8444   2.276   1.697   3.500 -0.2976 -0.1461 -0.0382
 2112SOL     OW 8445   2.206   1.952   3.387 -0.2623 -0.2232 -0.0923
 2112SOL    HW2 8446   2.207   1.863   3.423 -1.0652 -0.0358  0.3896
 2112SOL    HW3 8447   2.201   1.940   3.292  0.0685 -0.6948 -0.0515
 2112SOL    MW4 8448   2.206   1.939   3.379 -0.3246 -0.2607 -0.0233
 2113SOL     OW 8449   2.449   2.047   3.475 -0.0098  0.2595  0.0872
 2113SOL    HW2 8450   2.438   2.041   3.570 -0.1933 -0.6971  0.0140
 2113SOL    HW3 8451   2.362   2.028   3.440  0.0930  0.4593 -0.2728
 2113SOL    MW4 8452   2.436   2.044   3.483 -0.0204  0.1596  0.0301
 2114SOL     OW 8453   2.493   2.303   3.360 -0.0069 -0.4301  0.3755
 2114SOL    HW2 8454   2.573   2.345   3.393 -0.8920  1.0409  0.7356
 2114SOL    HW3 8455   2.498   2.213   3.390  0.5451  0.1825  2.1906
 2114SOL    MW4 8456   2.504   2.297   3.368 -0.0508 -0.1552  0.6625
 2115SOL     OW 8457   2.254   2.399   3.519  0.5682  0.0409  0.0420
 2115SOL    HW2 8458   2.232   2.485   3.483 -0.1267 -0.1690 -0.0413
 2115SOL    HW3 8459   2.325   2.367   3.463  0.4953  0.3492 -0.2306
 2115SOL    MW4 8460   2.261   2.406   3.507  0.4669  0.0539 -0.0050
 2116SOL     OW 8461   2.227   2.652   3.420 -0.1047  0.4974 -0.3777
 2116SOL    HW2 8462   2.164   2.717   3.452  0.2519  0.4884  0.3706
 2116SOL    HW3 8463   2.224   2.660   3.325 -2.5182 -0.7185 -0.4456
 2116SOL    MW4 8464   2.218   2.662   3.412 -0.3761  0.3358 -0.2880
 2117SOL     OW 8465   2.436   2.805   3.510 -0.4722  0.1059  0.4714
 2117SOL    HW2 8466   2.428   2.887   3.461  0.3096 -0.0851  0.0117
 2117SOL    HW3 8467   2.373   2.745   3.469  1.7013 -0.7338 -1.7312
 2117SOL    MW4 8468   2.427   2.808   3.498 -0.0823 -0.0301  0.1201
 2118SOL     OW 8469   2.458   3.066   3.376 -0.0466 -0.4415  0.0201
 2118SOL    HW2 8470   2.527   3.112   3.424 -0.5353  1.0469 -0.6535
 2118SOL    HW3 8471   2.469   3.095   3.285 -1.6982  0.0323 -0.0586
 2118SOL    MW4 8472   2.468   3.076   3.370 -0.3290 -0.1826 -0.0792
 2119SOL     OW 8473   2.255   3.220   3.471  0.2335  0.7162 -0.5289
 2119SOL    HW2 8474   2.243   3.202   3.564  0.4206 -0.2147 -0.6732
 2119SOL    HW3 8475   2.331   3.167   3.446  0.9608  1.9356 -0.9342
 2119SOL    MW4 8476   2.263   3.211   3.480  0.3542  0.7542 -0.6014
 2120SOL     OW 8477   2.251   3.496   3.382  0.0075  0.8756 -0.4782
 2120SOL    HW2 8478   2.249   3.404   3.405 -1.3399  1.5506  2.3062
 2120SOL    HW3 8479   2.220   3.499   3.291  1.1977 -1.4838 -0.9842
 2120SOL    MW4 8480   2.247   3.484   3.373 -0.0133  0.6534 -0.1776
 2121SOL     OW 8481   2.470   3.611   3.514  0.1697  0.3661 -0.0701
 2121SOL    HW2 8482   2.477   3.696   3.471 -0.5720  0.5509  0.1573
 2121SOL    HW3 8483   2.390   3.572   3.477 -0.1431  0.2716  0.6918
 2121SOL    MW4 8484   2.460   3.617   3.504  0.0306  0.3780  0.0604
 2122SOL     OW 8485   2.472   3.877   3.396 -0.1546 -0.5315 -0.3915
 2122SOL    HW2 8486   2.557   3.914   3.420  0.0105 -0.4449 -1.0965
 2122SOL    HW3 8487   2.409   3.932   3.442  0.1688 -0.5669  0.0976
 2122SOL    MW4 8488   2.475   3.889   3.405 -0.0902 -0.5248 -0.4200
 2123SOL     OW 8489   2.255   3.987   3.539 -0.6890 -0.5363 -0.2683
 2123SOL    HW2 8490   2.243   4.074   3.502 -0.5004 -0.7037 -0.7291
 2123SOL    HW3 8491   2.184   3.935   3.501 -0.3288 -0.7777 -0.6191
 2123SOL    MW4 8492   2.244   3.992   3.529 -0.6166 -0.5902 -0.3754
 2124SOL     OW 8493   2.208   4.237   3.408 -0.0974 -0.6052  0.2736
 2124SOL    HW2 8494   2.137   4.290   3.443  0.2130 -0.2696  0.3996
 2124SOL    HW3 8495   2.217   4.265   3.317  0.6010  0.1368  0.5644
 2124SOL    MW4 8496   2.200   4.247   3.400  0.0357 -0.4630  0.3286
 2125SOL     OW 8497   2.437   4.355   3.509  0.0292  0.4591  0.4758
 2125SOL    HW2 8498   2.428   4.348   3.604 -0.0221 -1.1201  0.3570
 2125SOL    HW3 8499   2.359   4.314   3.474  0.6771 -0.1488 -0.2677
 2125SOL    MW4 8500   2.426   4.349   3.517  0.1079  0.1705  0.3620
 2126SOL     OW 8501   2.920   4.637   3.442  0.0177 -0.3094 -0.2579
 2126SOL    HW2 8502   2.841   4.689   3.456  1.6721  2.0707  0.4614
 2126SOL    HW3 8503   2.936   4.643   3.347 -0.3030 -0.2916 -0.3114
 2126SOL    MW4 8504   2.912   4.644   3.431  0.1937  0.0070 -0.1700
 2127SOL     OW 8505   2.679   0.110   3.484 -1.2803  0.5397 -0.4345
 2127SOL    HW2 8506   2.678   0.200   3.449  0.6529  0.2887 -1.2101
 2127SOL    HW3 8507   2.592   0.076   3.464 -2.2628  2.4425  0.4232
 2127SOL    MW4 8508   2.667   0.118   3.476 -1.1549  0.7577 -0.4236
 2128SOL     OW 8509   2.695   0.371   3.388 -0.3296 -0.2633 -0.3452
 2128SOL    HW2 8510   2.767   0.429   3.416 -0.6013 -0.1751  0.1789
 2128SOL    HW3 8511   2.697   0.376   3.293  0.9288 -0.9462 -0.3721
 2128SOL    MW4 8512   2.705   0.379   3.379 -0.1994 -0.3418 -0.2796
 2129SOL     OW 8513   2.952   0.497   3.453  0.2646 -0.3041  0.3442
 2129SOL    HW2 8514   2.947   0.492   3.549  0.7587 -0.5027  0.3625
 2129SOL    HW3 8515   2.947   0.590   3.433 -0.7890 -0.3267  0.5076
 2129SOL    MW4 8516   2.951   0.508   3.463  0.1908 -0.3333  0.3682
 2130SOL     OW 8517   2.933   0.773   3.407 -0.0479 -0.2615 -0.1276
 2130SOL    HW2 8518   2.998   0.828   3.451 -0.6257  0.4811 -0.1975
 2130SOL    HW3 8519   2.849   0.813   3.428 -0.4588 -0.9454 -0.4307
 2130SOL    MW4 8520   2.931   0.785   3.416 -0.1783 -0.2538 -0.1768
 2131SOL     OW 8521   2.700   0.909   3.479 -0.3690  0.1248 -0.1742
 2131SOL    HW2 8522   2.685   0.901   3.573  1.2920 -1.3140 -0.0000
 2131SOL    HW3 8523   2.716   1.003   3.465  1.2988  0.0782  1.3029
 2131SOL    MW4 8524   2.700   0.921   3.489  0.0702 -0.0712  0.0437
 2132SOL     OW 8525   2.720   1.176   3.404  0.7058  0.6827  0.0933
 2132SOL    HW2 8526   2.793   1.220   3.447  2.1021 -1.5455  0.1019
 2132SOL    HW3 8527   2.748   1.167   3.313 -0.1760  1.0814 -0.2227
 2132SOL    MW4 8528   2.733   1.180   3.398  0.7737  0.4413  0.0528
 2133SOL     OW 8529   2.903   1.345   3.480 -0.0580  0.2906  0.1947
 2133SOL    HW2 8530   2.888   1.342   3.574 -0.7100 -1.6940  0.0580
 2133SOL    HW3 8531   2.991   1.308   3.468 -0.4813 -0.6449 -0.0644
 2133SOL    MW4 8532   2.913   1.340   3.491 -0.1999 -0.0947  0.1425
 2134SOL     OW 8533   2.947   1.612   3.447  0.1152 -0.0865  0.1304
 2134SOL    HW2 8534   2.860   1.643   3.472 -0.3526 -1.4856  0.2933
 2134SOL    HW3 8535   2.949   1.521   3.476  0.8877 -0.6788 -1.6901
 2134SOL    MW4 8536   2.936   1.604   3.454  0.1554 -0.3493 -0.0883
 2135SOL     OW 8537   2.668   1.681   3.512 -0.0875  0.1402 -0.1650
 2135SOL    HW2 8538   2.677   1.761   3.460 -0.1355 -0.5391 -1.2317
 2135SOL    HW3 8539   2.591   1.637   3.476 -1.3387  0.6368  1.8145
 2135SOL    MW4 8540   2.659   1.686   3.501 -0.2589  0.1161 -0.0446
 2136SOL     OW 8541   2.672   1.912   3.385 -0.4051 -0.7372  0.1204
 2136SOL    HW2 8542   2.586   1.950   3.403 -0.8396 -1.6822  0.0911
 2136SOL    HW3 8543   2.680   1.916   3.289 -0.3021 -0.4168  0.1410
 2136SOL    MW4 8544   2.661   1.918   3.375 -0.4488 -0.8196  0.1192
 2137SOL     OW 8545   2.884   2.063   3.476 -0.6581  0.1967 -0.5343
 2137SOL    HW2 8546   2.871   2.063   3.571  0.6887  0.5885 -0.3396
 2137SOL    HW3 8547   2.812   2.010   3.442 -1.8645  1.0778  0.6015
 2137SOL    MW4 8548   2.873   2.056   3.484 -0.6396  0.3646 -0.3588
 2138SOL     OW 8549   2.959   2.338   3.412 -0.4727  0.0071 -0.0770
 2138SOL    HW2 8550   2.951   2.247   3.442  0.2508 -0.3458 -0.9392
 2138SOL    HW3 8551   2.943   2.334   3.318 -0.7903  0.8260 -0.0570
 2138SOL    MW4 8552   2.956   2.326   3.404 -0.4191  0.0686 -0.1881
 2139SOL     OW 8553   2.719   2.451   3.489  0.6420 -0.0271 -0.3480
 2139SOL    HW2 8554   2.688   2.435   3.579 -0.2873 -1.4379 -0.9021
 2139SOL    HW3 8555   2.805   2.411   3.486  0.7645  0.2087 -0.0198
 2139SOL    MW4 8556   2.726   2.444   3.501  0.5355 -0.1821 -0.3778
 2140SOL     OW 8557   2.666   2.695   3.410 -0.4610 -0.5268 -0.5084
 2140SOL    HW2 8558   2.683   2.609   3.448  0.8209 -0.4372 -0.8554
 2140SOL    HW3 8559   2.576   2.716   3.437 -0.4207 -1.5158  0.4294
 2140SOL    MW4 8560   2.656   2.686   3.419 -0.2866 -0.6455 -0.4304
 2141SOL     OW 8561   2.896   2.806   3.490 -0.1271  0.1638 -0.4638
 2141SOL    HW2 8562   2.891   2.814   3.585 -0.3254  0.8950 -0.5303
 2141SOL    HW3 8563   2.818   2.756   3.466  0.0791 -0.2767 -0.2152
 2141SOL    MW4 8564   2.885   2.800   3.499 -0.1261  0.2021 -0.4398
 2142SOL     OW 8565   2.910   3.082   3.406  0.0912  0.0464  0.3446
 2142SOL    HW2 8566   2.902   2.987   3.412 -0.9625  0.1109  0.0882
 2142SOL    HW3 8567   2.904   3.101   3.312  1.9797  0.2366  0.2448
 2142SOL    MW4 8568   2.908   3.072   3.394  0.2013  0.0800  0.2976
 2143SOL     OW 8569   2.682   3.218   3.488  0.7915 -0.0794  0.0725
 2143SOL    HW2 8570   2.683   3.218   3.584 -0.8841 -0.6408  0.1019
 2143SOL    HW3 8571   2.753   3.158   3.464  0.4449 -0.8836  0.9942
 2143SOL    MW4 8572   2.691   3.210   3.498  0.5247 -0.2596  0.1980
 2144SOL     OW 8573   2.682   3.487   3.368  0.1060  0.0313  0.4595
 2144SOL    HW2 8574   2.666   3.400   3.404  0.1752 -0.5747 -0.9269
 2144SOL    HW3 8575   2.615   3.542   3.407 -1.5677 -1.1905 -0.6125
 2144SOL    MW4 8576   2.671   3.482   3.378 -0.1057 -0.2099  0.1351
 2145SOL     OW 8577   2.890   3.601   3.519  0.4520  0.2154 -0.0079
 2145SOL    HW2 8578   2.898   3.688   3.480 -0.9061  0.7179  0.8219
 2145SOL    HW3 8579   2.818   3.560   3.471 -0.1449  0.2430  0.8514
 2145SOL    MW4 8580   2.882   3.607   3.507  0.1941  0.2853  0.2149
 2146SOL     OW 8581   2.925   3.845   3.385 -0.4323 -1.0848  0.3148
 2146SOL    HW2 8582   3.001   3.885   3.426 -0.4275  0.3650 -1.0809
 2146SOL    HW3 8583   2.850   3.890   3.423 -0.4102  0.6560 -1.6168
 2146SOL    MW4 8584   2.925   3.856   3.396 -0.4288 -0.6638 -0.1242
 2147SOL     OW 8585   2.712   3.983   3.483 -0.3139  0.1427  0.1110
 2147SOL    HW2 8586   2.698   3.989   3.578  0.8679  2.4257  0.1801
 2147SOL    HW3 8587   2.714   4.074   3.454  1.5839 -0.4787 -1.7749
 2147SOL    MW4 8588   2.710   3.996   3.492  0.0924  0.3619 -0.1287
 2148SOL     OW 8589   2.675   4.271   3.404 -0.2810 -0.0271  0.1263
 2148SOL    HW2 8590   2.747   4.314   3.451 -0.9988  0.9469  0.3284
 2148SOL    HW3 8591   2.596   4.308   3.442 -0.8761  0.6913 -1.7902
 2148SOL    MW4 8592   2.674   4.281   3.415 -0.4542  0.1962 -0.0999
 2149SOL     OW 8593   2.901   4.370   3.511 -0.2447 -0.0642  0.5697
 2149SOL    HW2 8594   2.903   4.369   3.607  0.2417  1.5031  0.5866
 2149SOL    HW3 8595   2.914   4.461   3.488 -1.1017 -0.3185 -0.9921
 2149SOL    MW4 8596   2.903   4.382   3.521 -0.2936  0.1090  0.3659
 2150SOL     OW 8597   3.362   4.624   3.379  0.4720 -0.1217  0.1945
 2150SOL    HW2 8598   3.280   4.659   3.413  1.3528  1.0809  1.1041
 2150SOL    HW3 8599   3.363   4.649   3.286 -0.2053 -0.1827  0.1746
 2150SOL    MW4 8600   3.352   4.632   3.371  0.4988  0.0289  0.3119
 2151SOL     OW 8601   3.161   0.107   3.490  0.2695 -0.2849  0.1657
 2151SOL    HW2 8602   3.156   0.196   3.455 -1.2516 -0.5339 -0.2521
 2151SOL    HW3 8603   3.073   0.071   3.480  0.7283 -1.6546  0.8415
 2151SOL    MW4 8604   3.149   0.114   3.484  0.1294 -0.4985  0.1997
 2152SOL     OW 8605   3.166   0.359   3.365 -0.3730 -0.3597 -0.4567
 2152SOL    HW2 8606   3.096   0.411   3.405  0.4683  0.3204  0.1406
 2152SOL    HW3 8607   3.141   0.352   3.273 -0.8239  0.5565 -0.4070
 2152SOL    MW4 8608   3.154   0.365   3.358 -0.3215 -0.1491 -0.3714
 2153SOL     OW 8609   3.381   0.507   3.477 -0.3146  0.0971 -0.0793
 2153SOL    HW2 8610   3.379   0.507   3.573  1.5740 -2.2940  0.0037
 2153SOL    HW3 8611   3.305   0.456   3.451  0.5246 -1.3455  0.2391
 2153SOL    MW4 8612   3.371   0.501   3.486  0.0453 -0.4087 -0.0264
 2154SOL     OW 8613   3.347   0.769   3.394 -0.7602 -0.1363 -0.1565
 2154SOL    HW2 8614   3.420   0.816   3.434  0.2690 -0.7510 -1.2670
 2154SOL    HW3 8615   3.365   0.676   3.412 -0.0007 -0.4695 -2.4093
 2154SOL    MW4 8616   3.359   0.763   3.402 -0.5242 -0.2614 -0.6002
 2155SOL     OW 8617   3.112   0.951   3.531  0.6260  0.2050 -0.0678
 2155SOL    HW2 8618   3.113   1.041   3.499  0.2310  0.0383 -0.5521
 2155SOL    HW3 8619   3.194   0.913   3.499  0.2745  0.0647 -0.8117
 2155SOL    MW4 8620   3.123   0.958   3.523  0.5275  0.1645 -0.2299
 2156SOL     OW 8621   3.121   1.205   3.435  0.4474 -0.0054  0.6496
 2156SOL    HW2 8622   3.210   1.239   3.447  0.2129  0.4579  1.1300
 2156SOL    HW3 8623   3.115   1.187   3.342  0.5384  1.4239  0.3585
 2156SOL    MW4 8624   3.132   1.207   3.425  0.4285  0.2443  0.6746
 2157SOL     OW 8625   3.352   1.323   3.512  0.0696 -0.6322  0.2991
 2157SOL    HW2 8626   3.426   1.272   3.480  0.4324 -0.1805  0.4059
 2157SOL    HW3 8627   3.357   1.405   3.464 -0.5249 -0.7054  0.1092
 2157SOL    MW4 8628   3.362   1.327   3.502  0.0391 -0.5823  0.2882
 2158SOL     OW 8629   3.383   1.580   3.425  0.1158 -0.2875 -0.1628
 2158SOL    HW2 8630   3.454   1.618   3.477 -0.7693 -0.1555  0.9549
 2158SOL    HW3 8631   3.308   1.636   3.443 -0.2443 -0.3516 -1.4481
 2158SOL    MW4 8632   3.383   1.593   3.434 -0.0485 -0.2785 -0.1849
 2159SOL     OW 8633   3.163   1.751   3.515 -0.2400  0.0703  0.7546
 2159SOL    HW2 8634   3.157   1.834   3.468  1.6958  0.6835  1.5185
 2159SOL    HW3 8635   3.081   1.706   3.495 -0.1692  0.9917 -1.8893
 2159SOL    MW4 8636   3.152   1.756   3.506  0.0248  0.2728  0.5066
 2160SOL     OW 8637   3.135   1.984   3.393  0.0731 -0.0782 -0.3389
 2160SOL    HW2 8638   3.050   2.007   3.429 -0.3611 -0.1728 -1.2907
 2160SOL    HW3 8639   3.127   2.000   3.299  1.1667  0.1003 -0.4133
 2160SOL    MW4 8640   3.123   1.989   3.385  0.1601 -0.0671 -0.4743
 2161SOL     OW 8641   3.377   2.052   3.490 -0.2316 -0.1932 -0.2943
 2161SOL    HW2 8642   3.384   2.144   3.463 -1.5809  0.8309  2.6139
 2161SOL    HW3 8643   3.292   2.024   3.457 -0.4739  0.0722  0.0971
 2161SOL    MW4 8644   3.367   2.061   3.482 -0.4416 -0.0230  0.1410
 2162SOL     OW 8645   3.423   2.325   3.407  0.2484 -0.1393 -0.0529
 2162SOL    HW2 8646   3.504   2.367   3.437 -0.5745  0.5549  1.2494
 2162SOL    HW3 8647   3.353   2.375   3.449 -0.8595 -0.7880 -1.0915
 2162SOL    MW4 8648   3.424   2.337   3.416 -0.0064 -0.1333 -0.0181
 2163SOL     OW 8649   3.188   2.491   3.462 -0.3669 -0.2442  0.0163
 2163SOL    HW2 8650   3.174   2.573   3.413 -1.2834 -0.1814  0.3687
 2163SOL    HW3 8651   3.106   2.443   3.451 -0.5841 -0.2246  1.5073
 2163SOL    MW4 8652   3.175   2.496   3.454 -0.5165 -0.2333  0.2595
 2164SOL     OW 8653   3.143   2.742   3.363 -0.0807  0.0283 -0.2624
 2164SOL    HW2 8654   3.214   2.788   3.408 -1.3008  1.0043  0.7051
 2164SOL    HW3 8655   3.064   2.768   3.411 -1.1893 -0.3560 -1.8580
 2164SOL    MW4 8656   3.142   2.752   3.375 -0.3879  0.1064 -0.3453
 2165SOL     OW 8657   3.365   2.859   3.491 -0.0503  0.1599 -0.4267
 2165SOL    HW2 8658   3.435   2.804   3.456  0.3977 -0.1359  0.9090
 2165SOL    HW3 8659   3.378   2.944   3.450  1.8838  0.4741  0.8236
 2165SOL    MW4 8660   3.376   2.863   3.481  0.2640  0.1623 -0.0855
 2166SOL     OW 8661   3.385   3.049   3.093  0.2720  0.1304 -0.0296
 2166SOL    HW2 8662   3.406   3.066   3.185 -0.9200 -0.3289  0.3400
 2166SOL    HW3 8663   3.298   3.086   3.082  0.0760 -0.5456 -0.7631
 2166SOL    MW4 8664   3.376   3.056   3.104  0.0889 -0.0194 -0.0776
 2167SOL     OW 8665   3.156   3.185   3.504  0.5338  0.0139 -0.0566
 2167SOL    HW2 8666   3.153   3.277   3.475  2.4428  0.7866  2.0766
 2167SOL    HW3 8667   3.084   3.143   3.456 -1.5280  3.0102  0.2586
 2167SOL    MW4 8668   3.146   3.192   3.494  0.5136  0.5112  0.2664
 2168SOL     OW 8669   3.123   3.464   3.403 -0.0962 -0.2313  0.1966
 2168SOL    HW2 8670   3.036   3.493   3.432  0.4747  1.5371  0.2376
 2168SOL    HW3 8671   3.117   3.461   3.308  0.2231  1.4163  0.1043
 2168SOL    MW4 8672   3.111   3.468   3.394  0.0213  0.2194  0.1898
 2169SOL     OW 8673   3.357   3.571   3.508 -0.1394  0.3642  0.5541
 2169SOL    HW2 8674   3.365   3.656   3.465 -0.0187  0.4915  0.8298
 2169SOL    HW3 8675   3.281   3.531   3.467 -0.2627  0.6501  0.5010
 2169SOL    MW4 8676   3.348   3.577   3.497 -0.1397  0.4187  0.5835
 2170SOL     OW 8677   3.360   3.841   3.433  0.2871 -0.2765  0.2581
 2170SOL    HW2 8678   3.432   3.900   3.454 -0.9511  1.3288  0.0587
 2170SOL    HW3 8679   3.281   3.889   3.458 -0.6580 -2.8277  2.4551
 2170SOL    MW4 8680   3.359   3.855   3.439 -0.0010 -0.4013  0.5217
 2171SOL     OW 8681   3.131   3.991   3.505 -0.2291 -0.4777  0.4306
 2171SOL    HW2 8682   3.162   4.008   3.594 -0.1202  0.8284  0.1557
 2171SOL    HW3 8683   3.120   4.078   3.467  1.0669 -1.0439 -1.3015
 2171SOL    MW4 8684   3.133   4.005   3.512 -0.0437 -0.3801  0.1658
 2172SOL     OW 8685   3.106   4.231   3.389  0.1665 -0.1394  0.1718
 2172SOL    HW2 8686   3.188   4.273   3.418  0.1188 -0.5304  0.8597
 2172SOL    HW3 8687   3.038   4.275   3.439  0.1197 -1.0726  0.9518
 2172SOL    MW4 8688   3.108   4.243   3.399  0.1541 -0.3141  0.3654
 2173SOL     OW 8689   3.322   4.361   3.474  0.2620  0.0248  0.3386
 2173SOL    HW2 8690   3.325   4.374   3.569  1.4716 -1.3351  0.4988
 2173SOL    HW3 8691   3.334   4.448   3.437 -0.2998  0.5741  1.4237
 2173SOL    MW4 8692   3.324   4.374   3.482  0.3475 -0.0821  0.5029
 2174SOL     OW 8693   3.811   4.651   3.443 -0.2884  0.0430  0.1805
 2174SOL    HW2 8694   3.735   4.705   3.464 -1.2520 -1.5989  1.0823
 2174SOL    HW3 8695   3.801   4.628   3.351 -0.1988  0.8767 -0.0373
 2174SOL    MW4 8696   3.800   4.655   3.434 -0.4037 -0.0637  0.2707
 2175SOL     OW 8697   3.573   0.123   3.510  0.0033  0.6010  0.2891
 2175SOL    HW2 8698   3.567   0.205   3.460  0.6595  0.5950  0.1858
 2175SOL    HW3 8699   3.504   0.068   3.474 -0.6876  1.2400  0.6134
 2175SOL    MW4 8700   3.563   0.127   3.498 -0.0012  0.6845  0.3183
 2176SOL     OW 8701   3.582   0.348   3.346 -0.2114  0.2391  0.0811
 2176SOL    HW2 8702   3.669   0.381   3.368 -0.1405 -0.8780  1.6441
 2176SOL    HW3 8703   3.521   0.406   3.391 -0.2711  0.9066 -0.8554
 2176SOL    MW4 8704   3.585   0.360   3.355 -0.2099  0.1798  0.1637
 2177SOL     OW 8705   3.779   0.497   3.475  0.1570 -0.5686 -0.2596
 2177SOL    HW2 8706   3.849   0.435   3.453 -0.7989 -1.4322 -0.9044
 2177SOL    HW3 8707   3.786   0.508   3.570  1.6478 -0.0543 -0.4155
 2177SOL    MW4 8708   3.789   0.490   3.485  0.2276 -0.6147 -0.3652
 2178SOL     OW 8709   3.815   0.766   3.358 -0.5187 -0.5538 -0.4041
 2178SOL    HW2 8710   3.890   0.805   3.404 -1.0382  1.1320 -0.9426
 2178SOL    HW3 8711   3.802   0.681   3.400  1.4503 -0.7003 -0.0508
 2178SOL    MW4 8712   3.823   0.760   3.370 -0.3275 -0.3507 -0.4286
 2179SOL     OW 8713   3.567   0.907   3.472  0.2868 -0.4369  0.4639
 2179SOL    HW2 8714   3.556   0.898   3.566  0.2684 -0.7620  0.4294
 2179SOL    HW3 8715   3.653   0.868   3.454 -0.4568 -1.9479  0.1049
 2179SOL    MW4 8716   3.577   0.901   3.482  0.1863 -0.6791  0.4120
 2180SOL     OW 8717   3.571   1.181   3.409 -0.0913 -0.2026  0.4157
 2180SOL    HW2 8718   3.583   1.094   3.447 -0.5926 -0.5871 -0.2952
 2180SOL    HW3 8719   3.558   1.165   3.316  0.5773  0.6962  0.1636
 2180SOL    MW4 8720   3.571   1.168   3.402 -0.0692 -0.1347  0.2886
 2181SOL     OW 8721   3.798   1.311   3.489 -0.5638  0.0582  0.1722
 2181SOL    HW2 8722   3.806   1.308   3.584 -1.3357 -0.6033  0.2280
 2181SOL    HW3 8723   3.716   1.264   3.471  0.3077 -1.0962 -0.9037
 2181SOL    MW4 8724   3.788   1.304   3.499 -0.5507 -0.1814  0.0376
 2182SOL     OW 8725   3.830   1.566   3.374 -0.7345 -0.8706  0.7489
 2182SOL    HW2 8726   3.905   1.599   3.423 -0.2685  0.2821 -0.7262
 2182SOL    HW3 8727   3.802   1.488   3.423  1.7912 -1.6773  0.9701
 2182SOL    MW4 8728   3.836   1.560   3.387 -0.3398 -0.8249  0.5835
 2183SOL     OW 8729   3.626   1.687   3.523  0.1085  0.4553  0.0106
 2183SOL    HW2 8730   3.619   1.771   3.478  2.1772  1.0556  0.7690
 2183SOL    HW3 8731   3.680   1.633   3.466  1.8921  0.8829  1.2696
 2183SOL    MW4 8732   3.632   1.691   3.510  0.6168  0.5909  0.2768
 2184SOL     OW 8733   3.606   1.935   3.386  0.1138 -0.3365  0.3881
 2184SOL    HW2 8734   3.666   2.002   3.419 -0.0705  0.8576 -1.6534
 2184SOL    HW3 8735   3.520   1.963   3.417  0.1909 -0.3196  0.5899
 2184SOL    MW4 8736   3.603   1.948   3.395  0.0997 -0.1767  0.1453
 2185SOL     OW 8737   3.807   2.099   3.496 -0.1893  0.4276  0.0252
 2185SOL    HW2 8738   3.805   2.091   3.591  0.5784  0.9011  0.0846
 2185SOL    HW3 8739   3.878   2.041   3.468 -0.4411  0.2549 -0.2602
 2185SOL    MW4 8740   3.816   2.090   3.504 -0.1212  0.4673 -0.0046
 2186SOL     OW 8741   3.842   2.334   3.351 -0.0768  0.1147 -0.0754
 2186SOL    HW2 8742   3.913   2.377   3.399  0.3983 -0.3439 -0.3525
 2186SOL    HW3 8743   3.837   2.247   3.389  0.3821 -0.2928 -0.9191
 2186SOL    MW4 8744   3.851   2.329   3.362  0.0465  0.0004 -0.2233
 2187SOL     OW 8745   3.647   2.467   3.501 -0.2241 -0.2981 -0.1579
 2187SOL    HW2 8746   3.630   2.547   3.451  1.4883 -0.6932 -1.3888
 2187SOL    HW3 8747   3.728   2.432   3.464  0.2255 -1.4430  1.8361
 2187SOL    MW4 8748   3.655   2.473   3.490  0.0611 -0.5013 -0.0572
 2188SOL     OW 8749   3.580   2.699   3.378  0.3265 -0.0038  0.3594
 2188SOL    HW2 8750   3.657   2.745   3.410  1.1866 -0.7511 -0.6251
 2188SOL    HW3 8751   3.584   2.706   3.283 -1.9080  1.7004  0.3442
 2188SOL    MW4 8752   3.591   2.706   3.370  0.1452  0.1224  0.2275
 2189SOL     OW 8753   3.800   2.839   3.466 -0.0669 -0.0774 -0.3597
 2189SOL    HW2 8754   3.808   2.833   3.561 -2.1200 -0.0598 -0.1705
 2189SOL    HW3 8755   3.801   2.933   3.448  1.4457 -0.1050 -0.4740
 2189SOL    MW4 8756   3.801   2.851   3.476 -0.1382 -0.0788 -0.3498
 2190SOL     OW 8757   3.406   3.098   3.368  0.2625 -0.1723  0.1498
 2190SOL    HW2 8758   3.327   3.126   3.415  0.3810  0.3774  0.0214
 2190SOL    HW3 8759   3.477   3.145   3.410  0.3715  0.3148 -0.5660
 2190SOL    MW4 8760   3.405   3.107   3.380  0.2925 -0.0355  0.0384
 2191SOL     OW 8761   3.601   3.229   3.487 -0.0265 -0.0420  0.5150
 2191SOL    HW2 8762   3.611   3.321   3.464 -0.3884 -0.5009 -1.5978
 2191SOL    HW3 8763   3.680   3.186   3.452 -0.3704 -0.6901  0.5183
 2191SOL    MW4 8764   3.613   3.235   3.479 -0.1196 -0.1880  0.2367
 2192SOL     OW 8765   3.610   3.506   3.416  0.0980 -0.1039 -0.2802
 2192SOL    HW2 8766   3.523   3.525   3.450  0.2380  0.7334 -0.3935
 2192SOL    HW3 8767   3.597   3.489   3.323 -0.2822 -2.3732  0.1593
 2192SOL    MW4 8768   3.597   3.506   3.408  0.0663 -0.2928 -0.2371
 2193SOL     OW 8769   3.839   3.645   3.520 -0.0924 -0.0610 -0.1872
 2193SOL    HW2 8770   3.849   3.619   3.611 -0.4747  0.2884 -0.0436
 2193SOL    HW3 8771   3.756   3.605   3.493 -1.4219  2.1911  0.4647
 2193SOL    MW4 8772   3.829   3.636   3.528 -0.3182  0.2823 -0.0823
 2194SOL     OW 8773   3.850   3.901   3.409 -0.3399  0.1242  0.2084
 2194SOL    HW2 8774   3.764   3.939   3.426 -0.4474 -0.9622  2.2116
 2194SOL    HW3 8775   3.848   3.816   3.452  1.5620 -0.1402 -0.1798
 2194SOL    MW4 8776   3.839   3.895   3.417 -0.1032 -0.0540  0.4215
 2195SOL     OW 8777   3.596   3.990   3.466 -0.0377  0.1264  0.0384
 2195SOL    HW2 8778   3.612   3.995   3.560  0.4721  0.9538 -0.0900
 2195SOL    HW3 8779   3.586   4.081   3.438 -0.5874 -0.1358 -0.6414
 2195SOL    MW4 8780   3.596   4.002   3.475 -0.0430  0.2010 -0.0683
 2196SOL     OW 8781   3.577   4.274   3.383  0.1758 -0.0398 -0.4775
 2196SOL    HW2 8782   3.487   4.295   3.408  0.4913  1.3427 -0.4691
 2196SOL    HW3 8783   3.578   4.283   3.288  0.2591 -0.2410 -0.4956
 2196SOL    MW4 8784   3.565   4.278   3.374  0.2284  0.1161 -0.4788
 2197SOL     OW 8785   3.823   4.359   3.491  0.1873  0.0430 -0.1506
 2197SOL    HW2 8786   3.746   4.321   3.449  0.7403 -0.5620 -0.6209
 2197SOL    HW3 8787   3.813   4.453   3.480 -0.2015 -0.0657 -0.6992
 2197SOL    MW4 8788   3.811   4.367   3.484  0.2090 -0.0512 -0.2851
 2198SOL     OW 8789   4.258   4.638   3.374 -0.0836 -0.0158  0.0802
 2198SOL    HW2 8790   4.256   4.551   3.414  1.1730 -1.0571 -2.0252
 2198SOL    HW3 8791   4.333   4.681   3.415 -1.4300  0.5396  2.0079
 2198SOL    MW4 8792   4.267   4.632   3.384 -0.0955 -0.0799  0.0567
 2199SOL     OW 8793   4.061   0.100   3.501 -0.0579  0.0110 -0.3396
 2199SOL    HW2 8794   4.134   0.057   3.458  1.4692 -0.3086  2.4762
 2199SOL    HW3 8795   3.983   0.058   3.463  1.1400  0.3819 -3.3747
 2199SOL    MW4 8796   4.060   0.089   3.490  0.3017  0.0177 -0.3685
 2200SOL     OW 8797   3.997   0.345   3.426 -0.1765  0.8224  0.3080
 2200SOL    HW2 8798   4.023   0.263   3.467 -0.1051  0.6629 -0.0537
 2200SOL    HW3 8799   4.019   0.334   3.334 -0.4968  1.1103  0.1946
 2200SOL    MW4 8800   4.003   0.332   3.419 -0.2093  0.8394  0.2453
 2201SOL     OW 8801   4.226   0.524   3.515 -0.2282  0.4485  0.1812
 2201SOL    HW2 8802   4.226   0.608   3.470 -0.0083 -0.1484 -0.9302
 2201SOL    HW3 8803   4.141   0.485   3.494 -0.2025  0.2519  0.4331
 2201SOL    MW4 8804   4.215   0.530   3.507 -0.1958  0.3438  0.0678
 2202SOL     OW 8805   4.239   0.754   3.399  0.1762  0.2352  0.1563
 2202SOL    HW2 8806   4.315   0.805   3.427  1.1583 -0.5260 -1.0501
 2202SOL    HW3 8807   4.238   0.763   3.303 -0.1125 -1.3149 -0.0075
 2202SOL    MW4 8808   4.249   0.762   3.390  0.2677 -0.0698 -0.0245
 2203SOL     OW 8809   4.018   0.887   3.506  0.5527  0.3147  0.3278
 2203SOL    HW2 8810   4.099   0.848   3.473  0.4024  0.8416 -0.7134
 2203SOL    HW3 8811   4.017   0.975   3.467 -0.8004  0.1033 -0.1317
 2203SOL    MW4 8812   4.029   0.893   3.496  0.3544  0.3563  0.1298
 2204SOL     OW 8813   4.024   1.133   3.396  0.2282  0.0617  0.5831
 2204SOL    HW2 8814   4.105   1.174   3.427 -0.5912  0.8940  1.6766
 2204SOL    HW3 8815   3.955   1.191   3.428 -0.7731 -0.4056 -0.7245
 2204SOL    MW4 8816   4.026   1.146   3.405 -0.0120  0.1098  0.5549
 2205SOL     OW 8817   4.263   1.274   3.492  0.6636  0.4271 -0.2745
 2205SOL    HW2 8818   4.267   1.369   3.499 -0.0980  0.4030  0.4937
 2205SOL    HW3 8819   4.347   1.250   3.453  0.3490  1.5075 -1.6523
 2205SOL    MW4 8820   4.275   1.283   3.488  0.5216  0.5665 -0.3549
 2206SOL     OW 8821   4.263   1.560   3.435  0.1189  0.0471  0.4896
 2206SOL    HW2 8822   4.184   1.602   3.468  0.6489  0.7493  0.8608
 2206SOL    HW3 8823   4.250   1.557   3.340  0.4853  1.8996  0.3625
 2206SOL    MW4 8824   4.251   1.565   3.427  0.2372  0.3841  0.5218
 2207SOL     OW 8825   4.037   1.670   3.517 -0.0223  0.4834 -0.4602
 2207SOL    HW2 8826   4.046   1.676   3.612 -1.7603 -1.1658 -0.1688
 2207SOL    HW3 8827   4.007   1.757   3.491 -0.5986  0.6366  0.6458
 2207SOL    MW4 8828   4.034   1.683   3.526 -0.3276  0.2861 -0.2758
 2208SOL     OW 8829   4.003   1.938   3.412  0.7171 -0.2312  0.2809
 2208SOL    HW2 8830   4.078   1.982   3.450 -0.0904  2.1654 -0.7910
 2208SOL    HW3 8831   4.017   1.943   3.318 -0.3379 -0.5534  0.0968
 2208SOL    MW4 8832   4.014   1.945   3.405  0.4714  0.0425  0.1152
 2209SOL     OW 8833   4.241   2.049   3.511  0.5341  0.3333 -0.0351
 2209SOL    HW2 8834   4.244   2.138   3.476  0.8311  0.1968 -0.3618
 2209SOL    HW3 8835   4.319   2.007   3.476 -0.3426 -0.4784 -1.0246
 2209SOL    MW4 8836   4.252   2.055   3.502  0.4576  0.2082 -0.2088
 2210SOL     OW 8837   4.256   2.303   3.385 -0.1363  0.2967 -0.0623
 2210SOL    HW2 8838   4.183   2.358   3.415  0.4944  0.4578  1.2274
 2210SOL    HW3 8839   4.245   2.299   3.290 -0.5242  2.1853 -0.1254
 2210SOL    MW4 8840   4.245   2.310   3.377 -0.1042  0.5671  0.0996
 2211SOL     OW 8841   4.052   2.461   3.476  0.2872  0.2560  0.2229
 2211SOL    HW2 8842   4.053   2.472   3.571  2.5600  0.0244  0.2501
 2211SOL    HW3 8843   4.042   2.550   3.442  0.1817  0.4153  0.6714
 2211SOL    MW4 8844   4.050   2.474   3.484  0.5731  0.2464  0.2857
 2212SOL     OW 8845   4.027   2.713   3.369  0.3648 -0.2080  0.0120
 2212SOL    HW2 8846   4.096   2.769   3.405 -0.5345  0.5974  0.5099
 2212SOL    HW3 8847   3.945   2.755   3.396 -0.3443 -0.0585 -2.2707
 2212SOL    MW4 8848   4.025   2.726   3.378  0.1526 -0.0820 -0.2235
 2213SOL     OW 8849   4.253   2.823   3.480 -0.2292  0.4056  0.3062
 2213SOL    HW2 8850   4.256   2.820   3.576 -1.9300  1.5511  0.4265
 2213SOL    HW3 8851   4.330   2.774   3.452  0.8085  0.8534  2.2675
 2213SOL    MW4 8852   4.263   2.816   3.489 -0.3167  0.6158  0.5808
 2214SOL     OW 8853   4.259   3.096   3.428 -0.2772  0.2317  0.1801
 2214SOL    HW2 8854   4.271   3.002   3.444  1.8186  0.4601  0.1244
 2214SOL    HW3 8855   4.269   3.105   3.334  0.2783  0.6083  0.2746
 2214SOL    MW4 8856   4.262   3.085   3.418  0.0726  0.3115  0.1853
 2215SOL     OW 8857   4.036   3.232   3.540 -0.3439  0.2084 -0.0622
 2215SOL    HW2 8858   4.030   3.322   3.507  0.5331  0.2285 -0.1808
 2215SOL    HW3 8859   4.102   3.191   3.485 -1.9037 -0.9949 -1.0749
 2215SOL    MW4 8860   4.044   3.239   3.528 -0.4340  0.0523 -0.2114
 2216SOL     OW 8861   4.058   3.473   3.415  0.0703  0.5866 -0.0754
 2216SOL    HW2 8862   4.134   3.526   3.437 -0.1784  1.5168 -1.3740
 2216SOL    HW3 8863   3.983   3.533   3.424 -0.4230 -0.0893  0.3858
 2216SOL    MW4 8864   4.058   3.488   3.419 -0.0276  0.6202 -0.1859
 2217SOL     OW 8865   4.254   3.642   3.519 -0.0993 -0.0147 -0.1599
 2217SOL    HW2 8866   4.266   3.661   3.612 -0.1958 -0.2421 -0.1001
 2217SOL    HW3 8867   4.262   3.727   3.475  0.4076  0.0229  0.0085
 2217SOL    MW4 8868   4.257   3.656   3.525 -0.0452 -0.0397 -0.1298
 2218SOL     OW 8869   4.261   3.908   3.425 -0.3614  0.5087  0.5403
 2218SOL    HW2 8870   4.335   3.959   3.459  0.4044 -0.6891  0.7046
 2218SOL    HW3 8871   4.283   3.893   3.333  0.0792 -0.6426  0.8150
 2218SOL    MW4 8872   4.274   3.912   3.418 -0.2022  0.1987  0.5982
 2219SOL     OW 8873   4.046   4.012   3.548 -0.1444  0.1021 -0.0682
 2219SOL    HW2 8874   4.124   3.970   3.512 -0.0398 -0.2493  0.5635
 2219SOL    HW3 8875   3.974   3.973   3.499 -0.0612 -0.9203  0.6018
 2219SOL    MW4 8876   4.047   4.001   3.537 -0.1196 -0.0791  0.1035
 2220SOL     OW 8877   4.043   4.246   3.377  0.1399 -0.2191 -0.2046
 2220SOL    HW2 8878   4.049   4.164   3.426 -0.1333 -0.5850 -0.7788
 2220SOL    HW3 8879   3.983   4.300   3.429 -0.0528 -0.5568 -0.0738
 2220SOL    MW4 8880   4.036   4.242   3.391  0.0784 -0.3119 -0.2631
 2221SOL     OW 8881   0.005   4.290   3.375 -0.3956 -0.0481 -0.1516
 2221SOL    HW2 8882   0.079   4.328   3.423  0.8595  0.1441 -2.1469
 2221SOL    HW3 8883  -0.072   4.317   3.424  0.8538 -0.2310  1.9705
 2221SOL    MW4 8884   0.005   4.299   3.388 -0.0652 -0.0469 -0.1348
 2222SOL     OW 8885   0.261   0.006   3.871  0.0888 -0.8641 -0.0313
 2222SOL    HW2 8886   0.253  -0.014   3.964  0.3273  0.0457  0.1944
 2222SOL    HW3 8887   0.171   0.011   3.839  0.0242 -1.9271 -0.0174
 2222SOL    MW4 8888   0.248   0.004   3.879  0.1118 -0.8843  0.0003
 2223SOL     OW 8889   0.001   0.073   3.787  0.4589 -0.5509 -0.4717
 2223SOL    HW2 8890  -0.004   0.167   3.805 -0.0153 -0.7425  0.4343
 2223SOL    HW3 8891   0.015   0.067   3.693 -1.9866  0.3651 -0.9110
 2223SOL    MW4 8892   0.003   0.085   3.777  0.0737 -0.4553 -0.4101
 2224SOL     OW 8893   4.471   0.340   3.838  0.2578 -0.2415  0.0733
 2224SOL    HW2 8894   4.397   0.399   3.826 -0.2981 -1.1663 -1.1820
 2224SOL    HW3 8895   4.546   0.390   3.804 -0.4989 -0.8909 -2.7185
 2224SOL    MW4 8896   4.471   0.355   3.832  0.0846 -0.4492 -0.4606
 2225SOL     OW 8897   0.087   1.526   4.894 -0.2728 -0.3063 -0.0141
 2225SOL    HW2 8898   0.099   1.615   4.927  0.6483 -0.6665  0.6386
 2225SOL    HW3 8899   0.167   1.479   4.920  0.9224 -0.3589 -3.5301
 2225SOL    MW4 8900   0.099   1.531   4.902  0.0064 -0.3607 -0.3919
 2226SOL     OW 8901   0.251   0.745   3.835 -0.0501  0.5532 -0.4121
 2226SOL    HW2 8902   0.246   0.658   3.797  0.6496  1.1542 -1.9162
 2226SOL    HW3 8903   0.164   0.782   3.822 -0.3325  0.1123  0.1821
 2226SOL    MW4 8904   0.239   0.739   3.828  0.0050  0.5744 -0.5321
 2227SOL     OW 8905   4.486   0.843   3.755 -0.0525 -0.2058 -0.3542
 2227SOL    HW2 8906   4.402   0.817   3.793  1.2647 -0.1609  2.6872
 2227SOL    HW3 8907   4.507   0.926   3.797  1.1265  0.2295 -1.7527
 2227SOL    MW4 8908   4.477   0.851   3.765  0.2768 -0.1424 -0.1374
 2228SOL     OW 8909   0.012   1.095   3.857  0.1676 -0.3535  0.4562
 2228SOL    HW2 8910  -0.066   1.130   3.813 -0.2716  0.0241  1.5220
 2228SOL    HW3 8911   0.084   1.152   3.827  0.2389 -1.4032 -1.4131
 2228SOL    MW4 8912   0.011   1.107   3.847  0.1191 -0.4422  0.3502
 2229SOL     OW 8913   0.243   1.241   3.789 -0.1615 -0.2722 -0.8515
 2229SOL    HW2 8914   0.242   1.332   3.820  0.3560 -0.4191 -0.3878
 2229SOL    HW3 8915   0.318   1.202   3.834 -0.6620 -1.0523 -0.6844
 2229SOL    MW4 8916   0.253   1.248   3.799 -0.1593 -0.3945 -0.7683
 2230SOL     OW 8917   0.217   1.485   3.914  0.1775 -0.3519 -0.1704
 2230SOL    HW2 8918   0.201   1.440   3.997  0.1561 -0.3031 -0.1476
 2230SOL    HW3 8919   0.143   1.545   3.905  0.0589 -0.5214 -0.3367
 2230SOL    MW4 8920   0.205   1.487   3.924  0.1590 -0.3678 -0.1893
 2231SOL     OW 8921   0.010   1.657   3.835  0.2894  0.1415 -0.1715
 2231SOL    HW2 8922   0.006   1.752   3.851 -0.5449  0.0556  0.1424
 2231SOL    HW3 8923   0.038   1.650   3.743  0.4835  0.6849 -0.1589
 2231SOL    MW4 8924   0.013   1.669   3.825  0.2049  0.2019 -0.1284
 2232SOL     OW 8925   0.038   1.933   3.870 -0.7193 -0.3318 -0.4702
 2232SOL    HW2 8926  -0.035   1.975   3.825 -0.1815  1.4400  0.2854
 2232SOL    HW3 8927   0.115   1.984   3.845 -0.1021 -0.6600  0.7134
 2232SOL    MW4 8928   0.038   1.945   3.860 -0.5669 -0.1413 -0.2143
 2233SOL     OW 8929   0.266   2.073   3.792  0.4402  0.2949 -0.0001
 2233SOL    HW2 8930   0.238   2.059   3.701  1.1085  1.4029 -0.3852
 2233SOL    HW3 8931   0.263   2.168   3.804  0.6685  0.1787  1.0393
 2233SOL    MW4 8932   0.262   2.084   3.781  0.5585  0.4258  0.0862
 2234SOL     OW 8933   0.197   2.340   3.860  0.1500 -0.8555  0.3015
 2234SOL    HW2 8934   0.203   2.371   3.950  1.1218  0.0533 -0.0762
 2234SOL    HW3 8935   0.114   2.375   3.828 -0.3196 -1.3902  0.9127
 2234SOL    MW4 8936   0.186   2.349   3.867  0.2163 -0.8062  0.3323
 2235SOL     OW 8937   4.445   2.444   3.763  0.4626  0.0246  0.4465
 2235SOL    HW2 8938   4.387   2.381   3.805  0.0007 -0.0642 -0.3179
 2235SOL    HW3 8939   4.436   2.524   3.815  1.7698 -0.7975  1.9932
 2235SOL    MW4 8940   4.436   2.446   3.776  0.5742 -0.0956  0.5497
 2236SOL     OW 8941   0.001   2.693   3.897  0.1703 -0.0355 -0.4723
 2236SOL    HW2 8942   0.088   2.715   3.865  1.3572 -2.2948  1.0526
 2236SOL    HW3 8943  -0.008   2.741   3.979 -0.8128  1.7011 -1.5712
 2236SOL    MW4 8944   0.011   2.702   3.904  0.1972 -0.1045 -0.4161
 2237SOL     OW 8945   0.263   2.807   3.788 -0.8123 -0.3964  0.3735
 2237SOL    HW2 8946   0.345   2.766   3.815  0.0052  1.0956  0.2025
 2237SOL    HW3 8947   0.261   2.795   3.693 -0.6703 -0.2234  0.3481
 2237SOL    MW4 8948   0.273   2.800   3.779 -0.6857 -0.1767  0.3476
 2238SOL     OW 8949   0.238   3.059   3.895 -0.1365 -0.0608 -0.0237
 2238SOL    HW2 8950   0.239   2.967   3.867 -0.1854 -0.7811  2.2433
 2238SOL    HW3 8951   0.283   3.059   3.979 -2.1316  1.6264  1.0977
 2238SOL    MW4 8952   0.244   3.047   3.903 -0.4062  0.0667  0.4234
 2239SOL     OW 8953   0.010   3.189   3.824 -0.4296  0.3948 -0.4369
 2239SOL    HW2 8954   0.090   3.143   3.849 -0.6734  0.0668 -0.2389
 2239SOL    HW3 8955   0.007   3.183   3.729  0.4603  1.5716 -0.5444
 2239SOL    MW4 8956   0.020   3.182   3.815 -0.3443  0.5068 -0.4249
 2240SOL     OW 8957   0.006   3.468   3.890 -0.2884  0.3408 -0.6205
 2240SOL    HW2 8958   0.076   3.516   3.847 -0.5692 -0.2328 -1.7322
 2240SOL    HW3 8959   0.021   3.377   3.866 -1.4302  0.2119 -0.8918
 2240SOL    MW4 8960   0.017   3.462   3.881 -0.4761  0.2481 -0.8029
 2241SOL     OW 8961   0.212   3.614   3.782  0.0064  0.1188 -0.3255
 2241SOL    HW2 8962   0.285   3.583   3.836 -1.7192  0.1871  2.1335
 2241SOL    HW3 8963   0.206   3.707   3.801  0.0714  0.3809 -1.5296
 2241SOL    MW4 8964   0.221   3.622   3.792 -0.2127  0.1624 -0.1599
 2242SOL     OW 8965   0.225   3.891   3.852  0.0978 -0.3936 -0.3784
 2242SOL    HW2 8966   0.187   3.921   3.934 -0.1004  0.0117 -0.6204
 2242SOL    HW3 8967   0.308   3.938   3.845  0.9963 -1.7963  0.4975
 2242SOL    MW4 8968   0.231   3.901   3.862  0.1902 -0.5252 -0.2947
 2243SOL     OW 8969   0.015   4.041   3.771 -0.3136 -0.4870  0.0603
 2243SOL    HW2 8970  -0.049   3.979   3.807 -0.2352 -0.3796  0.3895
 2243SOL    HW3 8971   0.097   3.991   3.770 -0.3087 -0.4791  0.0658
 2243SOL    MW4 8972   0.018   4.026   3.776 -0.3026 -0.4718  0.1045
 2244SOL     OW 8973   4.466   4.307   3.873 -0.4016  0.4007 -0.4586
 2244SOL    HW2 8974   4.548   4.355   3.871  0.1138 -0.3993  0.8681
 2244SOL    HW3 8975   4.487   4.221   3.836 -0.3335 -0.2284  0.9973
 2244SOL    MW4 8976   4.479   4.302   3.868 -0.3246  0.2122 -0.0915
 2245SOL     OW 8977   0.242   4.390   3.815 -0.2161  0.1264 -0.0240
 2245SOL    HW2 8978   0.314   4.352   3.865 -0.6823 -0.3569  0.2811
 2245SOL    HW3 8979   0.261   4.484   3.813 -0.0058  0.1034  0.7476
 2245SOL    MW4 8980   0.254   4.398   3.821 -0.2498  0.0596  0.1180
 2246SOL     OW 8981   0.899   0.115   3.716  0.1433 -0.0367  0.1800
 2246SOL    HW2 8982   0.970   0.072   3.764 -0.2697 -0.1084  0.7448
 2246SOL    HW3 8983   0.819   0.073   3.750 -0.1165 -0.5727 -1.0901
 2246SOL    MW4 8984   0.898   0.104   3.727  0.0545 -0.1169  0.0869
 2247SOL     OW 8985   0.475   0.147   3.726  0.1783  0.1998 -0.2952
 2247SOL    HW2 8986   0.485   0.241   3.737 -0.9163  0.4760 -1.4546
 2247SOL    HW3 8987   0.407   0.122   3.788 -0.2497  0.3492 -0.7040
 2247SOL    MW4 8988   0.468   0.156   3.735 -0.0226  0.2559 -0.5021
 2248SOL     OW 8989   0.213   0.470   3.738 -0.0850  0.3822  0.1151
 2248SOL    HW2 8990   0.304   0.454   3.763  0.0545 -0.4985 -0.8951
 2248SOL    HW3 8991   0.219   0.504   3.648 -0.7611  0.0553 -0.0565
 2248SOL    MW4 8992   0.226   0.473   3.729 -0.1558  0.2229 -0.0408
 2249SOL     OW 8993   0.698   0.527   3.679  0.2610 -0.0820 -0.2445
 2249SOL    HW2 8994   0.777   0.498   3.724  0.5631 -0.5266 -1.0594
 2249SOL    HW3 8995   0.680   0.613   3.716  1.4933  0.3056 -0.5260
 2249SOL    MW4 8996   0.706   0.534   3.690  0.4634 -0.0896 -0.3891
 2250SOL     OW 8997   0.613   0.769   3.802  0.0277 -0.4906  0.1606
 2250SOL    HW2 8998   0.690   0.825   3.803  0.6352 -1.3367  0.8152
 2250SOL    HW3 8999   0.539   0.830   3.793  0.7447  0.3290 -0.1904
 2250SOL    MW4 9000   0.613   0.785   3.801  0.2025 -0.4941  0.2006
 2251SOL     OW 9001   0.425   0.939   3.744  0.3622  0.1431 -0.5909
 2251SOL    HW2 9002   0.437   1.005   3.811  2.0031 -0.1341 -0.6071
 2251SOL    HW3 9003   0.361   0.878   3.782  0.1955  0.7611  0.1287
 2251SOL    MW4 9004   0.418   0.939   3.758  0.5567  0.1881 -0.4981
 2252SOL     OW 9005   0.486   1.155   3.929  0.1378 -0.7188  0.5615
 2252SOL    HW2 9006   0.557   1.189   3.874  0.7948 -0.5173  1.5197
 2252SOL    HW3 9007   0.508   1.186   4.017 -0.5511 -1.5957  1.0406
 2252SOL    MW4 9008   0.499   1.164   3.934  0.1336 -0.8079  0.7511
 2253SOL     OW 9009   0.668   1.264   3.744  0.4685  0.3368  0.1768
 2253SOL    HW2 9010   0.748   1.216   3.765  0.8195  0.4046 -0.9789
 2253SOL    HW3 9011   0.670   1.274   3.648 -2.0556 -1.7125 -0.1609
 2253SOL    MW4 9012   0.679   1.259   3.734  0.1818  0.0753 -0.0202
 2254SOL     OW 9013   0.667   1.523   3.874 -0.2794 -0.4414 -0.4939
 2254SOL    HW2 9014   0.738   1.574   3.834  0.1102 -1.4531 -1.1150
 2254SOL    HW3 9015   0.670   1.439   3.828  1.3572 -2.3319  2.9242
 2254SOL    MW4 9016   0.677   1.519   3.863 -0.0121 -0.8243 -0.1249
 2255SOL     OW 9017   0.433   1.662   3.776  0.1296 -0.0300 -0.4651
 2255SOL    HW2 9018   0.507   1.606   3.799  0.0348  0.2142  0.4353
 2255SOL    HW3 9019   0.356   1.615   3.806  0.0098  0.3372 -0.1941
 2255SOL    MW4 9020   0.433   1.649   3.783  0.1013  0.0507 -0.3105
 2256SOL     OW 9021   0.484   1.918   3.887  0.0093  0.4995 -0.1687
 2256SOL    HW2 9022   0.476   1.825   3.866  0.3120  0.4441 -0.0387
 2256SOL    HW3 9023   0.394   1.952   3.879  0.0452  0.3804 -1.0676
 2256SOL    MW4 9024   0.471   1.910   3.883  0.0540  0.4765 -0.2701
 2257SOL     OW 9025   0.681   2.061   3.751 -0.0902 -0.0768 -0.4798
 2257SOL    HW2 9026   0.681   2.150   3.786 -0.9978  0.5494 -2.0447
 2257SOL    HW3 9027   0.618   2.014   3.804  0.5573  0.1441  0.4985
 2257SOL    MW4 9028   0.673   2.066   3.763 -0.1245  0.0350 -0.5572
 2258SOL     OW 9029   0.695   2.343   3.863 -0.3480  0.2924 -0.1754
 2258SOL    HW2 9030   0.758   2.372   3.797 -0.5677  0.1438 -0.4545
 2258SOL    HW3 9031   0.615   2.393   3.842 -0.1770  0.8581  0.4834
 2258SOL    MW4 9032   0.693   2.354   3.851 -0.3544  0.3474 -0.1253
 2259SOL     OW 9033   0.448   2.450   3.766  0.3330 -0.0523  0.2702
 2259SOL    HW2 9034   0.375   2.397   3.798 -2.3618  1.4388 -3.0882
 2259SOL    HW3 9035   0.437   2.451   3.671  4.1548  1.1250 -0.2486
 2259SOL    MW4 9036   0.437   2.443   3.758  0.4817  0.2998 -0.2414
 2260SOL     OW 9037   0.486   2.698   3.915  0.2249  0.0798 -0.6321
 2260SOL    HW2 9038   0.563   2.745   3.883 -0.4727  1.2345 -0.6399
 2260SOL    HW3 9039   0.485   2.617   3.865  0.4512  0.8405 -1.8966
 2260SOL    MW4 9040   0.496   2.694   3.904  0.1627  0.3325 -0.8000
 2261SOL     OW 9041   0.669   2.831   3.778 -0.8772  0.1017  0.0534
 2261SOL    HW2 9042   0.747   2.781   3.801 -0.9263  0.1981  0.4360
 2261SOL    HW3 9043   0.660   2.820   3.684 -0.4127  0.0774  0.0130
 2261SOL    MW4 9044   0.678   2.823   3.769 -0.8224  0.1112  0.0986
 2262SOL     OW 9045   0.688   3.101   3.854 -0.2604  0.6688  0.3805
 2262SOL    HW2 9046   0.685   3.094   3.949  3.4507 -0.3183  0.4828
 2262SOL    HW3 9047   0.679   3.011   3.822  0.5471  0.7642 -0.1249
 2262SOL    MW4 9048   0.686   3.088   3.862  0.3358  0.5512  0.3273
 2263SOL     OW 9049   0.443   3.216   3.809 -0.1846 -0.6132 -0.2697
 2263SOL    HW2 9050   0.532   3.183   3.817 -0.0493 -0.0269  0.7271
 2263SOL    HW3 9051   0.387   3.140   3.826  0.1188 -0.7187  0.2480
 2263SOL    MW4 9052   0.447   3.202   3.812 -0.1267 -0.5498 -0.0699
 2264SOL     OW 9053   0.424   3.480   3.886 -0.1891 -0.7007  0.3074
 2264SOL    HW2 9054   0.501   3.512   3.839 -0.6660 -0.9477 -0.6530
 2264SOL    HW3 9055   0.417   3.388   3.862 -1.2247 -0.4934 -0.2099
 2264SOL    MW4 9056   0.433   3.472   3.877 -0.3886 -0.7059  0.1124
 2265SOL     OW 9057   0.667   3.585   3.750  0.0712  0.2315 -0.6289
 2265SOL    HW2 9058   0.662   3.669   3.795  0.6997  0.2154 -0.5248
 2265SOL    HW3 9059   0.662   3.607   3.657  1.5150  0.4980 -0.6553
 2265SOL    MW4 9060   0.666   3.599   3.744  0.3446  0.2645 -0.6187
 2266SOL     OW 9061   0.678   3.848   3.844  0.2452  0.2849 -0.1420
 2266SOL    HW2 9062   0.660   3.871   3.935 -0.7615 -0.6305 -0.0917
 2266SOL    HW3 9063   0.756   3.897   3.822  0.4993  0.5284  1.2227
 2266SOL    MW4 9064   0.686   3.857   3.853  0.1459  0.1962  0.0447
 2267SOL     OW 9065   0.460   4.010   3.785 -0.1611 -0.1707  0.3338
 2267SOL    HW2 9066   0.539   3.955   3.788  0.3678  0.5465 -0.2121
 2267SOL    HW3 9067   0.433   4.008   3.693 -0.3896  0.1299  0.3921
 2267SOL    MW4 9068   0.467   4.002   3.773 -0.1215 -0.0364  0.2694
 2268SOL     OW 9069   0.477   4.263   3.910 -0.1948  0.3953  0.1413
 2268SOL    HW2 9070   0.520   4.307   3.837 -1.0697  0.3498 -0.4194
 2268SOL    HW3 9071   0.462   4.174   3.879 -0.7403  0.4287  0.2968
 2268SOL    MW4 9072   0.480   4.257   3.897 -0.3822  0.3937  0.0879
 2269SOL     OW 9073   0.659   4.418   3.780 -0.1058 -0.7437 -0.6003
 2269SOL    HW2 9074   0.734   4.366   3.812  0.3765  0.6517  0.5764
 2269SOL    HW3 9075   0.671   4.421   3.685  1.2211 -0.7306 -0.4445
 2269SOL    MW4 9076   0.671   4.411   3.771  0.1329 -0.5579 -0.4245
 2270SOL     OW 9077   0.817   4.242   4.637 -0.5953 -0.5797 -0.2794
 2270SOL    HW2 9078   0.724   4.259   4.625 -0.8264  0.2129  2.3465
 2270SOL    HW3 9079   0.861   4.295   4.570 -1.9593 -0.0191 -0.7357
 2270SOL    MW4 9080   0.811   4.251   4.627 -0.8058 -0.4011  0.0069
 2271SOL     OW 9081   1.107   0.011   3.840 -0.4108 -0.1086 -0.8797
 2271SOL    HW2 9082   1.188   0.046   3.804 -0.3177  0.0847 -0.4861
 2271SOL    HW3 9083   1.116  -0.084   3.833  0.3904 -0.1310  0.3209
 2271SOL    MW4 9084   1.119   0.003   3.834 -0.2928 -0.0861 -0.6693
 2272SOL     OW 9085   0.917   0.381   3.811  0.0671 -0.1893  0.2848
 2272SOL    HW2 9086   0.898   0.377   3.905 -2.0064 -0.0664 -0.1062
 2272SOL    HW3 9087   0.902   0.292   3.779  1.4593 -0.3968  0.1807
 2272SOL    MW4 9088   0.912   0.369   3.819 -0.0228 -0.2005  0.2195
 2273SOL     OW 9089   1.124   0.503   3.717  0.1714  0.7817  0.1249
 2273SOL    HW2 9090   1.195   0.459   3.765  0.3942 -0.3157 -1.1934
 2273SOL    HW3 9091   1.044   0.460   3.747  0.3880 -0.5296 -1.1509
 2273SOL    MW4 9092   1.123   0.491   3.728  0.2293  0.4639 -0.2174
 2274SOL     OW 9093   1.119   0.768   3.820  0.3084  0.6159 -0.2787
 2274SOL    HW2 9094   1.137   0.761   3.913  0.0056 -0.0950 -0.2680
 2274SOL    HW3 9095   1.109   0.677   3.790 -0.3100  0.8653 -0.8535
 2274SOL    MW4 9096   1.120   0.755   3.828  0.1869  0.5550 -0.3531
 2275SOL     OW 9097   0.867   0.874   3.752 -0.2254 -0.4321 -0.0150
 2275SOL    HW2 9098   0.943   0.832   3.791  1.0960  0.9411 -1.0643
 2275SOL    HW3 9099   0.879   0.863   3.657  0.2484  2.3873 -0.3233
 2275SOL    MW4 9100   0.879   0.867   3.745  0.0114  0.1211 -0.1941
 2276SOL     OW 9101   0.924   1.149   3.783  0.5231  0.2049  0.4402
 2276SOL    HW2 9102   0.933   1.134   3.877  1.3757 -0.9313  0.1849
 2276SOL    HW3 9103   0.928   1.062   3.745 -0.6259  0.5955 -0.5951
 2276SOL    MW4 9104   0.926   1.136   3.791  0.4840  0.1066  0.2699
 2277SOL     OW 9105   1.165   1.314   3.741  0.0448 -0.0346 -0.1649
 2277SOL    HW2 9106   1.152   1.397   3.786 -0.8504 -0.7690  0.9484
 2277SOL    HW3 9107   1.082   1.268   3.751  1.1677 -1.8659  0.8909
 2277SOL    MW4 9108   1.152   1.319   3.748  0.0749 -0.3731  0.1213
 2278SOL     OW 9109   1.147   1.571   3.833 -0.0809  0.1573 -0.2598
 2278SOL    HW2 9110   1.157   1.601   3.924  1.5668 -1.9463  0.2942
 2278SOL    HW3 9111   1.220   1.611   3.786  0.0555 -0.1208 -0.2866
 2278SOL    MW4 9112   1.158   1.580   3.839  0.1545 -0.1569 -0.1903
 2279SOL     OW 9113   0.892   1.943   3.872  0.1090 -0.1720 -0.3621
 2279SOL    HW2 9114   0.821   1.993   3.831 -0.6318 -1.2421 -0.3972
 2279SOL    HW3 9115   0.873   1.852   3.850 -0.6951 -0.8579  2.9006
 2279SOL    MW4 9116   0.880   1.938   3.864 -0.0949 -0.4037  0.0637
 2280SOL     OW 9117   0.906   1.364   4.672 -0.4764 -0.3338  0.3290
 2280SOL    HW2 9118   0.964   1.289   4.675 -0.5177 -0.4064 -0.5267
 2280SOL    HW3 9119   0.819   1.326   4.660 -0.6107 -0.1964  0.8880
 2280SOL    MW4 9120   0.902   1.349   4.671 -0.4996 -0.3253  0.2899
 2281SOL     OW 9121   1.127   1.995   3.728  0.2432 -0.2180 -0.4762
 2281SOL    HW2 9122   1.049   1.966   3.775 -0.4070 -1.2837 -2.1514
 2281SOL    HW3 9123   1.099   1.998   3.636  1.6686  1.1447 -0.8774
 2281SOL    MW4 9124   1.113   1.992   3.722  0.3454 -0.1789 -0.7502
 2282SOL     OW 9125   1.087   2.267   3.823  0.3289  0.1511  0.4895
 2282SOL    HW2 9126   1.053   2.272   3.912 -0.2078  1.0347  0.2378
 2282SOL    HW3 9127   1.085   2.173   3.802 -2.7868  0.2584  0.1653
 2282SOL    MW4 9128   1.082   2.255   3.832 -0.1530  0.2818  0.4135
 2283SOL     OW 9129   0.889   2.441   3.699  0.1970  0.2018 -0.3275
 2283SOL    HW2 9130   0.884   2.528   3.739 -1.7816 -0.2250  0.4106
 2283SOL    HW3 9131   0.956   2.395   3.751  0.7649  1.0566 -0.2886
 2283SOL    MW4 9132   0.897   2.447   3.711  0.0108  0.2583 -0.2250
 2284SOL     OW 9133   0.886   2.667   3.826 -0.5553 -0.2718  0.1573
 2284SOL    HW2 9134   0.897   2.650   3.919 -0.0179  0.3064  0.2057
 2284SOL    HW3 9135   0.966   2.713   3.800 -0.2624 -1.3195 -0.8129
 2284SOL    MW4 9136   0.898   2.671   3.835 -0.4458 -0.3337  0.0356
 2285SOL     OW 9137   1.095   2.821   3.745  0.3790 -0.2328 -0.2215
 2285SOL    HW2 9138   1.178   2.779   3.767  0.2013 -0.7267 -0.4968
 2285SOL    HW3 9139   1.107   2.913   3.770  0.1358 -0.7917  2.1096
 2285SOL    MW4 9140   1.107   2.828   3.751  0.3235 -0.3717  0.0498
 2286SOL     OW 9141   1.145   3.071   3.837  0.1291  0.4151  0.3000
 2286SOL    HW2 9142   1.221   3.120   3.806  0.2633 -0.2313 -0.4039
 2286SOL    HW3 9143   1.071   3.109   3.789  0.3066 -0.4344 -0.6554
 2286SOL    MW4 9144   1.145   3.083   3.826  0.1702  0.2177  0.0811
 2287SOL     OW 9145   0.924   3.197   3.755 -0.0675  0.7307 -0.4115
 2287SOL    HW2 9146   0.902   3.202   3.662  1.0936  1.3830 -0.6632
 2287SOL    HW3 9147   0.842   3.172   3.797 -0.7109  0.8272 -1.5671
 2287SOL    MW4 9148   0.910   3.195   3.748  0.0008  0.8295 -0.5972
 2288SOL     OW 9149   0.894   3.450   3.832 -0.0919  0.4772  0.0737
 2288SOL    HW2 9150   0.903   3.360   3.802 -0.3690 -0.2447  2.1389
 2288SOL    HW3 9151   0.813   3.481   3.791 -1.0194 -0.8316  0.8946
 2288SOL    MW4 9152   0.884   3.442   3.822 -0.2508  0.2093  0.4545
 2289SOL     OW 9153   1.124   3.555   3.756 -0.3784  0.1650 -0.0515
 2289SOL    HW2 9154   1.104   3.642   3.792 -0.4172 -0.6514  1.9820
 2289SOL    HW3 9155   1.053   3.499   3.788  1.0606 -1.1709  0.9114
 2289SOL    MW4 9156   1.112   3.559   3.765 -0.1937 -0.1189  0.3438
 2290SOL     OW 9157   1.130   3.833   3.824  0.7871 -0.2454  0.0432
 2290SOL    HW2 9158   1.204   3.889   3.800  1.1303 -0.2968  0.9628
 2290SOL    HW3 9159   1.124   3.841   3.919  0.2646 -1.0585  0.0813
 2290SOL    MW4 9160   1.139   3.842   3.834  0.7634 -0.3595  0.1696
 2291SOL     OW 9161   0.899   3.984   3.768  0.7004 -0.1904  0.1116
 2291SOL    HW2 9162   0.976   3.928   3.777  0.0542 -1.0791  0.1758
 2291SOL    HW3 9163   0.891   3.998   3.673  1.0470  0.0540  0.1191
 2291SOL    MW4 9164   0.908   3.978   3.756  0.6609 -0.2754  0.1211
 2292SOL     OW 9165   0.868   4.266   3.877 -0.1257 -0.0321  0.5186
 2292SOL    HW2 9166   0.859   4.283   3.971 -0.3125  0.2109  0.4574
 2292SOL    HW3 9167   0.895   4.175   3.872 -2.1621 -0.6636  0.7213
 2292SOL    MW4 9168   0.870   4.256   3.889 -0.4190 -0.0833  0.5373
 2293SOL     OW 9169   1.104   4.403   3.777  0.1958 -0.0820 -0.4350
 2293SOL    HW2 9170   1.029   4.346   3.793 -1.9404  2.9803  1.0790
 2293SOL    HW3 9171   1.123   4.395   3.684 -1.3190 -1.7191 -0.6066
 2293SOL    MW4 9172   1.097   4.394   3.767 -0.2859  0.1060 -0.2579
 2294SOL     OW 9173   1.582   0.003   3.820 -0.0403 -0.0114 -0.4705
 2294SOL    HW2 9174   1.570   0.010   3.915 -0.3294  0.3683 -0.5341
 2294SOL    HW3 9175   1.578  -0.091   3.803 -0.7590 -0.0338 -0.2040
 2294SOL    MW4 9176   1.580  -0.009   3.830 -0.1733  0.0358 -0.4437
 2295SOL     OW 9177   1.345   0.132   3.716  0.6622 -0.3394 -0.2320
 2295SOL    HW2 9178   1.338   0.221   3.749  1.7580 -0.6634  0.9339
 2295SOL    HW3 9179   1.430   0.101   3.748  0.4122 -1.7000 -0.8438
 2295SOL    MW4 9180   1.355   0.139   3.725  0.7738 -0.5616 -0.1589
 2296SOL     OW 9181   1.348   0.374   3.832 -0.0751 -0.0809 -0.2425
 2296SOL    HW2 9182   1.363   0.361   3.926 -2.0395  0.9339  0.2391
 2296SOL    HW3 9183   1.423   0.426   3.803  0.0627  0.4082  0.9530
 2296SOL    MW4 9184   1.360   0.379   3.841 -0.3161  0.1175 -0.0212
 2297SOL     OW 9185   1.552   0.522   3.709  0.3331  0.2434  0.1444
 2297SOL    HW2 9186   1.617   0.477   3.763 -0.0405  0.1907  0.5588
 2297SOL    HW3 9187   1.547   0.610   3.746  0.7731  0.4989 -0.4122
 2297SOL    MW4 9188   1.560   0.528   3.721  0.3419  0.2701  0.1256
 2298SOL     OW 9189   1.519   0.768   3.797 -0.0007  0.5093 -0.0994
 2298SOL    HW2 9190   1.597   0.823   3.790 -0.3707  0.8876 -1.3780
 2298SOL    HW3 9191   1.446   0.825   3.771 -0.8380  0.4229  1.9387
 2298SOL    MW4 9192   1.520   0.783   3.793 -0.1600  0.5478  0.0008
 2299SOL     OW 9193   1.314   0.940   3.708  0.3186  0.2945 -0.1431
 2299SOL    HW2 9194   1.318   1.017   3.765  0.5731  0.4399 -0.3547
 2299SOL    HW3 9195   1.244   0.886   3.745  1.6506 -0.4530  1.3878
 2299SOL    MW4 9196   1.306   0.943   3.720  0.5279  0.2151  0.0310
 2300SOL     OW 9197   1.366   1.178   3.869  0.0807 -0.1540  0.3737
 2300SOL    HW2 9198   1.444   1.215   3.826 -0.3017  0.3187  0.0812
 2300SOL    HW3 9199   1.292   1.219   3.823 -0.3386 -0.3956  0.8342
 2300SOL    MW4 9200   1.367   1.188   3.857 -0.0251 -0.1235  0.3959
 2301SOL     OW 9201   1.774   1.168   3.872 -0.1678 -0.2067 -0.4254
 2301SOL    HW2 9202   1.768   1.076   3.845  1.4562 -0.6450  0.6317
 2301SOL    HW3 9203   1.778   1.165   3.967 -1.7552  1.0869 -0.2958
 2301SOL    MW4 9204   1.774   1.156   3.881 -0.1630 -0.0938 -0.2689
 2302SOL     OW 9205   4.092   0.837   4.516  0.5531  0.1573 -0.2920
 2302SOL    HW2 9206   4.174   0.887   4.516  0.8343 -0.2434  2.5334
 2302SOL    HW3 9207   4.120   0.746   4.503  0.4025  0.1914 -0.8895
 2302SOL    MW4 9208   4.107   0.831   4.514  0.5703  0.1089  0.0019
 2303SOL     OW 9209   1.367   1.681   3.711 -0.5068  0.1443  0.0878
 2303SOL    HW2 9210   1.376   1.773   3.736  0.5492 -0.2160  1.1069
 2303SOL    HW3 9211   1.432   1.636   3.765 -0.0463 -1.0199 -1.4038
 2303SOL    MW4 9212   1.377   1.687   3.722 -0.3067 -0.0569  0.0254
 2304SOL     OW 9213   1.358   1.927   3.852 -0.1035  0.4099  0.6297
 2304SOL    HW2 9214   1.277   1.950   3.807 -1.1402 -1.0995  1.6491
 2304SOL    HW3 9215   1.345   1.956   3.942  1.0583  1.3947  0.4954
 2304SOL    MW4 9216   1.345   1.933   3.858 -0.0870  0.3407  0.7465
 2305SOL     OW 9217   1.551   2.100   3.767 -0.0769 -0.2408  0.0723
 2305SOL    HW2 9218   1.482   2.041   3.796 -0.7916  0.7392  0.4038
 2305SOL    HW3 9219   1.542   2.102   3.672 -2.9392  2.7448  0.3277
 2305SOL    MW4 9220   1.541   2.093   3.758 -0.5488  0.2824  0.1498
 2306SOL     OW 9221   1.553   2.356   3.862 -0.3657 -0.1312  0.0708
 2306SOL    HW2 9222   1.562   2.265   3.833  0.0549  0.2544 -0.9900
 2306SOL    HW3 9223   1.633   2.399   3.835 -0.9089  0.7623 -0.1423
 2306SOL    MW4 9224   1.564   2.350   3.855 -0.3819  0.0375 -0.0973
 2307SOL     OW 9225   1.313   2.442   3.743  0.0002  0.1654  0.1222
 2307SOL    HW2 9226   1.245   2.378   3.765  0.6778 -1.1125 -1.3408
 2307SOL    HW3 9227   1.391   2.409   3.787  0.6072 -0.6390 -1.5225
 2307SOL    MW4 9228   1.314   2.429   3.751  0.1697 -0.1093 -0.2878
 2308SOL     OW 9229   1.318   2.693   3.841 -0.2406  0.0359  0.0861
 2308SOL    HW2 9230   1.280   2.686   3.929  0.3766  0.0201  0.3590
 2308SOL    HW3 9231   1.313   2.604   3.806  0.3354 -0.1505  0.4626
 2308SOL    MW4 9232   1.312   2.680   3.848 -0.0832  0.0092  0.1718
 2309SOL     OW 9233   1.540   2.844   3.768 -0.2006  0.1866 -0.6378
 2309SOL    HW2 9234   1.462   2.798   3.799 -0.6589  1.6446  0.4301
 2309SOL    HW3 9235   1.534   2.840   3.673 -0.8924 -0.8464 -0.5559
 2309SOL    MW4 9236   1.529   2.838   3.760 -0.3523  0.2427 -0.4861
 2310SOL     OW 9237   1.575   3.101   3.836  0.4012  0.3274 -0.3786
 2310SOL    HW2 9238   1.572   3.113   3.931  1.3528  2.4308 -0.5836
 2310SOL    HW3 9239   1.560   3.008   3.823 -1.6890  0.3361  1.7271
 2310SOL    MW4 9240   1.573   3.090   3.847  0.2510  0.6061 -0.1278
 2311SOL     OW 9241   1.350   3.241   3.761 -0.1384  0.6206  0.1047
 2311SOL    HW2 9242   1.347   3.323   3.810 -0.4911 -0.3368  1.7477
 2311SOL    HW3 9243   1.421   3.191   3.802 -1.2420 -0.6936  0.4741
 2311SOL    MW4 9244   1.359   3.245   3.773 -0.3305  0.3209  0.3702
 2312SOL     OW 9245   1.348   3.497   3.869  0.2252  0.0876 -0.0887
 2312SOL    HW2 9246   1.411   3.541   3.812  0.2572 -0.8666 -0.7999
 2312SOL    HW3 9247   1.263   3.516   3.831  0.2551 -0.6573 -0.5301
 2312SOL    MW4 9248   1.345   3.505   3.857  0.2334 -0.1366 -0.2408
 2313SOL     OW 9249   1.551   3.607   3.735 -0.0555  0.2527  0.2021
 2313SOL    HW2 9250   1.623   3.568   3.785 -1.6858  0.4602  2.7610
 2313SOL    HW3 9251   1.531   3.689   3.781 -1.0737  0.8418 -1.2577
 2313SOL    MW4 9252   1.558   3.613   3.748 -0.4050  0.3578  0.3471
 2314SOL     OW 9253   1.545   3.857   3.853 -0.1393 -0.5581 -0.4383
 2314SOL    HW2 9254   1.523   3.862   3.946  1.6892  0.2736 -0.0167
 2314SOL    HW3 9255   1.479   3.909   3.809  2.2603  4.0110  1.0183
 2314SOL    MW4 9256   1.534   3.864   3.860  0.4185  0.1545 -0.1905
 2315SOL     OW 9257   1.353   4.004   3.734 -0.2906  0.0231 -0.2544
 2315SOL    HW2 9258   1.337   4.095   3.759  0.5630 -0.1739  1.0804
 2315SOL    HW3 9259   1.354   4.006   3.639 -1.6071  1.1730 -0.2671
 2315SOL    MW4 9260   1.351   4.017   3.725 -0.3517  0.1488 -0.0799
 2316SOL     OW 9261   1.348   4.274   3.869 -0.4061  0.3971 -0.1943
 2316SOL    HW2 9262   1.422   4.326   3.839 -0.4762  0.8956  0.5054
 2316SOL    HW3 9263   1.271   4.315   3.829 -0.1973 -0.9956 -2.1341
 2316SOL    MW4 9264   1.347   4.286   3.860 -0.3878  0.2791 -0.3579
 2317SOL     OW 9265   1.586   4.402   3.776 -0.6282 -0.2270  0.4375
 2317SOL    HW2 9266   1.663   4.354   3.806  0.0860  0.1258 -0.7834
 2317SOL    HW3 9267   1.581   4.382   3.682 -1.5591  0.3795  0.3575
 2317SOL    MW4 9268   1.596   4.393   3.768 -0.6568 -0.1004  0.2659
 2318SOL     OW 9269   2.000   0.037   3.896 -0.1845 -0.5138 -0.0190
 2318SOL    HW2 9270   2.092   0.057   3.877 -0.3924  0.2773 -0.2262
 2318SOL    HW3 9271   1.990  -0.055   3.872  0.4742 -0.5227 -0.2857
 2318SOL    MW4 9272   2.011   0.028   3.890 -0.1250 -0.4106 -0.0815
 2319SOL     OW 9273   1.814   0.146   3.740 -0.1364 -0.2965 -0.5965
 2319SOL    HW2 9274   1.874   0.107   3.804  0.5728 -0.7184 -1.5004
 2319SOL    HW3 9275   1.729   0.106   3.759  0.1928 -0.8470 -0.2767
 2319SOL    MW4 9276   1.810   0.135   3.751  0.0006 -0.4248 -0.6735
 2320SOL     OW 9277   1.776   0.403   3.856  0.1567  0.1220  0.1423
 2320SOL    HW2 9278   1.781   0.392   3.951  1.7196  0.9013  0.1621
 2320SOL    HW3 9279   1.784   0.315   3.820  0.1440 -0.1130  0.7243
 2320SOL    MW4 9280   1.778   0.390   3.864  0.3612  0.1938  0.2217
 2321SOL     OW 9281   1.995   0.530   3.758  0.4042  0.1696  0.5354
 2321SOL    HW2 9282   1.915   0.488   3.790  0.7241 -0.5495  0.3921
 2321SOL    HW3 9283   1.992   0.518   3.663  0.0982  1.1776  0.4082
 2321SOL    MW4 9284   1.984   0.523   3.750  0.4061  0.2077  0.4997
 2322SOL     OW 9285   2.011   0.781   3.861  0.8250  0.4210  0.0664
 2322SOL    HW2 9286   1.997   0.775   3.955 -1.0410  0.2089 -0.1936
 2322SOL    HW3 9287   2.023   0.691   3.833 -1.0208  0.2324 -0.2053
 2322SOL    MW4 9288   2.010   0.768   3.870  0.3353  0.3681 -0.0038
 2323SOL     OW 9289   1.766   0.902   3.762 -0.0012 -0.1072  0.1245
 2323SOL    HW2 9290   1.850   0.869   3.792  0.2277 -0.6987 -1.1163
 2323SOL    HW3 9291   1.771   0.898   3.666 -1.4918 -0.2934  0.0345
 2323SOL    MW4 9292   1.778   0.897   3.753 -0.1677 -0.2098 -0.0511
 2324SOL     OW 9293   1.578   1.306   3.745 -0.0324 -0.1134 -0.3030
 2324SOL    HW2 9294   1.578   1.392   3.788 -0.6753 -0.2760  0.0381
 2324SOL    HW3 9295   1.644   1.255   3.793  0.7090  0.3363 -0.8261
 2324SOL    MW4 9296   1.587   1.311   3.757 -0.0194 -0.0755 -0.3270
 2325SOL     OW 9297   2.004   1.260   3.727 -0.2318 -0.1948 -0.7931
 2325SOL    HW2 9298   2.081   1.240   3.781  0.8758  0.5049 -2.0756
 2325SOL    HW3 9299   1.930   1.230   3.779  0.5298  3.2953  2.5200
 2325SOL    MW4 9300   2.005   1.253   3.741  0.0148  0.3580 -0.5252
 2326SOL     OW 9301   2.010   1.511   3.839  0.0323 -0.4765  0.4088
 2326SOL    HW2 9302   1.939   1.563   3.801  0.1596 -0.6732 -0.1032
 2326SOL    HW3 9303   2.005   1.427   3.793  0.9369 -0.3003 -0.0057
 2326SOL    MW4 9304   2.000   1.507   3.828  0.1685 -0.4792  0.2865
 2327SOL     OW 9305   1.577   1.551   3.865  0.3431 -0.0837 -0.4495
 2327SOL    HW2 9306   1.655   1.587   3.822 -0.9614  0.6751 -2.2033
 2327SOL    HW3 9307   1.587   1.577   3.957  1.5273  1.1285 -0.8983
 2327SOL    MW4 9308   1.589   1.560   3.872  0.3272  0.1763 -0.7401
 2328SOL     OW 9309   1.812   1.667   3.739 -0.1119  0.0312 -0.0208
 2328SOL    HW2 9310   1.793   1.752   3.780 -1.3951  0.1175 -0.7898
 2328SOL    HW3 9311   1.840   1.689   3.650  1.6205 -0.2308  0.4313
 2328SOL    MW4 9312   1.813   1.681   3.733 -0.0527  0.0080 -0.0626
 2329SOL     OW 9313   1.974   2.064   3.753 -0.0245  0.1518  0.3847
 2329SOL    HW2 9314   1.897   2.025   3.796 -0.3946 -0.0219 -0.4265
 2329SOL    HW3 9315   1.958   2.050   3.660  0.8616  0.3703  0.2028
 2329SOL    MW4 9316   1.961   2.057   3.747  0.0436  0.1577  0.2537
 2330SOL     OW 9317   2.002   2.304   3.872  0.0441  0.0847 -0.0567
 2330SOL    HW2 9318   1.928   2.352   3.837 -0.0915  0.1597  0.3328
 2330SOL    HW3 9319   2.005   2.223   3.820 -0.9750 -0.4134  0.6446
 2330SOL    MW4 9320   1.993   2.299   3.861 -0.1083  0.0289  0.0872
 2331SOL     OW 9321   1.784   2.455   3.751 -0.0683 -0.2091 -0.6407
 2331SOL    HW2 9322   1.760   2.542   3.782  0.7549 -0.0749 -0.3703
 2331SOL    HW3 9323   1.781   2.461   3.655  0.3789  0.2242 -0.6241
 2331SOL    MW4 9324   1.781   2.467   3.742  0.0993 -0.1342 -0.6028
 2332SOL     OW 9325   1.772   2.743   3.859 -0.0074  0.4118 -0.0276
 2332SOL    HW2 9326   1.773   2.728   3.953  0.4754 -0.9275 -0.2397
 2332SOL    HW3 9327   1.685   2.778   3.841 -0.1740  0.4719  0.8796
 2332SOL    MW4 9328   1.761   2.746   3.869  0.0343  0.2430  0.0641
 2333SOL     OW 9329   1.980   2.860   3.746 -0.3697 -0.0697 -0.0657
 2333SOL    HW2 9330   2.053   2.804   3.770 -0.6632 -0.3789  0.1074
 2333SOL    HW3 9331   1.905   2.824   3.793 -0.3010  1.2348  1.0536
 2333SOL    MW4 9332   1.980   2.848   3.755 -0.3993  0.0616  0.1048
 2334SOL     OW 9333   1.814   3.216   3.759  0.0690 -0.6241 -0.0596
 2334SOL    HW2 9334   1.883   3.177   3.812  0.2775 -0.0479  0.0956
 2334SOL    HW3 9335   1.739   3.158   3.770  0.0907 -0.4671  0.9134
 2334SOL    MW4 9336   1.813   3.203   3.767  0.0993 -0.5273  0.0893
 2335SOL     OW 9337   1.749   3.474   3.874  0.0541 -0.2573 -0.4042
 2335SOL    HW2 9338   1.829   3.527   3.864 -1.7126  2.3184 -1.4802
 2335SOL    HW3 9339   1.775   3.386   3.845  3.0423 -0.0077  1.2885
 2335SOL    MW4 9340   1.763   3.469   3.869  0.2152  0.1155 -0.3229
 2336SOL     OW 9341   2.708   2.708   4.507  0.0940 -0.1570 -0.4378
 2336SOL    HW2 9342   2.619   2.714   4.472  0.5900  0.0443 -1.6709
 2336SOL    HW3 9343   2.762   2.753   4.442  1.1564 -0.6430  0.1095
 2336SOL    MW4 9344   2.703   2.715   4.494  0.2996 -0.1946 -0.5283
 2337SOL     OW 9345   2.009   3.613   3.815 -0.2240 -0.0077  0.1502
 2337SOL    HW2 9346   2.085   3.556   3.823  0.8955  1.4580  0.0614
 2337SOL    HW3 9347   1.998   3.624   3.720 -0.5958 -0.2468  0.1599
 2337SOL    MW4 9348   2.017   3.607   3.803 -0.1254  0.1541  0.1397
 2338SOL     OW 9349   2.025   3.868   3.940  0.3988 -0.1565 -0.6273
 2338SOL    HW2 9350   2.095   3.917   3.896 -0.2935  0.6095 -0.9067
 2338SOL    HW3 9351   2.025   3.783   3.897  0.3109  0.2863 -1.5334
 2338SOL    MW4 9352   2.034   3.864   3.928  0.2958  0.0030 -0.7837
 2339SOL     OW 9353   1.811   4.004   3.820  0.2215  0.0794 -0.0979
 2339SOL    HW2 9354   1.878   3.945   3.853 -0.5846 -1.0020 -0.3810
 2339SOL    HW3 9355   1.728   3.959   3.837 -0.3015  0.1864 -2.1702
 2339SOL    MW4 9356   1.808   3.991   3.826  0.0461 -0.0492 -0.4087
 2340SOL     OW 9357   1.818   4.282   3.910 -0.2700  0.1979 -0.1034
 2340SOL    HW2 9358   1.892   4.329   3.874  0.4952 -1.2122 -0.3815
 2340SOL    HW3 9359   1.825   4.194   3.874 -0.5302 -0.7119  2.0006
 2340SOL    MW4 9360   1.828   4.277   3.901 -0.2034 -0.1082  0.1375
 2341SOL     OW 9361   2.031   4.447   3.813  0.0066 -0.0767  0.2960
 2341SOL    HW2 9362   2.087   4.381   3.855  0.2689 -0.0234  0.0301
 2341SOL    HW3 9363   2.044   4.434   3.719 -1.2217 -0.7312  0.2084
 2341SOL    MW4 9364   2.040   4.437   3.806 -0.1208 -0.1560  0.2493
 2342SOL     OW 9365   2.484   4.623   3.878  0.1443  0.1004 -0.0588
 2342SOL    HW2 9366   2.487   4.600   3.971 -0.2357  0.9940  0.1791
 2342SOL    HW3 9367   2.560   4.680   3.865  1.6940 -2.0928 -0.8822
 2342SOL    MW4 9368   2.495   4.627   3.889  0.2986 -0.0711 -0.1360
 2343SOL     OW 9369   2.245   0.111   3.792 -0.3989 -0.1043 -0.2955
 2343SOL    HW2 9370   2.312   0.050   3.822 -0.9635 -0.9288 -0.7100
 2343SOL    HW3 9371   2.259   0.118   3.698  1.1496  2.2155  0.0606
 2343SOL    MW4 9372   2.255   0.104   3.784 -0.2691  0.0930 -0.3032
 2344SOL     OW 9373   2.232   0.391   3.832 -0.2329  0.3663  0.0964
 2344SOL    HW2 9374   2.210   0.298   3.829 -1.4152  0.4948  2.7774
 2344SOL    HW3 9375   2.150   0.437   3.815 -0.1386  0.8787  0.9374
 2344SOL    MW4 9376   2.218   0.385   3.830 -0.3765  0.4509  0.5611
 2345SOL     OW 9377   2.460   0.548   3.803  0.1015 -0.6563 -0.3586
 2345SOL    HW2 9378   2.385   0.495   3.831 -0.3939  0.8300  1.2146
 2345SOL    HW3 9379   2.456   0.544   3.707 -3.1777  0.9263 -0.3810
 2345SOL    MW4 9380   2.449   0.541   3.794 -0.3965 -0.2514 -0.1540
 2346SOL     OW 9381   2.439   0.795   3.908 -0.0833  0.2591  0.1095
 2346SOL    HW2 9382   2.369   0.833   3.855 -0.9604 -0.9050  0.4105
 2346SOL    HW3 9383   2.443   0.704   3.879  0.3451 -0.0433  1.1128
 2346SOL    MW4 9384   2.431   0.788   3.897 -0.1425  0.0656  0.2816
 2347SOL     OW 9385   2.247   0.904   3.754  0.0644 -0.2474 -0.4933
 2347SOL    HW2 9386   2.161   0.877   3.787 -0.7076  1.4506 -1.0512
 2347SOL    HW3 9387   2.242   0.893   3.659  0.2174  0.5036 -0.5928
 2347SOL    MW4 9388   2.235   0.899   3.746 -0.0173  0.0757 -0.5800
 2348SOL     OW 9389   2.247   1.160   3.842 -0.8450 -0.3958 -0.6078
 2348SOL    HW2 9390   2.252   1.165   3.937  2.4332 -0.3795 -0.7291
 2348SOL    HW3 9391   2.248   1.066   3.823  2.3103 -0.3844 -0.7207
 2348SOL    MW4 9392   2.248   1.148   3.852  0.0039 -0.3922 -0.6387
 2349SOL     OW 9393   2.495   1.303   3.770 -0.1843  0.7541 -0.3252
 2349SOL    HW2 9394   2.504   1.381   3.824  0.0716  1.3804 -1.2627
 2349SOL    HW3 9395   2.407   1.270   3.789 -0.1442  1.0401  0.3674
 2349SOL    MW4 9396   2.485   1.309   3.780 -0.1452  0.8745 -0.3575
 2350SOL     OW 9397   2.487   1.537   3.902 -0.0451  0.4373 -0.0872
 2350SOL    HW2 9398   2.551   1.573   3.840 -0.3247  1.5437  0.2579
 2350SOL    HW3 9399   2.405   1.578   3.877 -1.3088 -3.3086 -2.5330
 2350SOL    MW4 9400   2.485   1.547   3.890 -0.2487  0.0891 -0.3644
 2351SOL     OW 9401   2.258   1.677   3.791 -0.3387 -0.1738 -0.8602
 2351SOL    HW2 9402   2.238   1.767   3.816  0.6330  0.1726 -1.3150
 2351SOL    HW3 9403   2.174   1.631   3.798 -0.8854  0.8129 -0.8343
 2351SOL    MW4 9404   2.244   1.683   3.795 -0.2826  0.0021 -0.9168
 2352SOL     OW 9405   2.205   1.948   3.882 -0.7064 -0.1310  0.0424
 2352SOL    HW2 9406   2.204   1.961   3.977  0.0867  0.0090  0.0348
 2352SOL    HW3 9407   2.127   1.994   3.851 -0.7671  0.1406  0.5867
 2352SOL    MW4 9408   2.195   1.955   3.891 -0.6097 -0.0767  0.1132
 2353SOL     OW 9409   2.430   2.043   3.750 -0.4081 -0.0936 -0.6335
 2353SOL    HW2 9410   2.428   2.129   3.792  0.0344 -0.0757 -0.6466
 2353SOL    HW3 9411   2.358   1.994   3.791  0.4718 -0.3112  0.6568
 2353SOL    MW4 9412   2.420   2.048   3.761 -0.2336 -0.1200 -0.4649
 2354SOL     OW 9413   2.435   2.278   3.867 -0.0570  0.0716 -0.2059
 2354SOL    HW2 9414   2.512   2.332   3.846  0.2618 -0.0364  0.6622
 2354SOL    HW3 9415   2.360   2.331   3.839  0.1482  1.8945  2.5181
 2354SOL    MW4 9416   2.435   2.292   3.861  0.0121  0.2978  0.2680
 2355SOL     OW 9417   2.232   2.456   3.799  0.1555 -0.1106  0.0854
 2355SOL    HW2 9418   2.160   2.403   3.833 -0.4812  0.1021 -0.9042
 2355SOL    HW3 9419   2.229   2.442   3.705 -0.1097  1.7698 -0.2079
 2355SOL    MW4 9420   2.222   2.447   3.791  0.0365  0.1655 -0.0839
 2356SOL     OW 9421   2.199   2.728   3.870  0.4483 -0.1461 -0.1012
 2356SOL    HW2 9422   2.184   2.726   3.965 -1.6807 -0.9620 -0.4305
 2356SOL    HW3 9423   2.215   2.637   3.846  0.5361 -0.0035 -0.5917
 2356SOL    MW4 9424   2.199   2.715   3.879  0.1790 -0.2349 -0.2094
 2357SOL     OW 9425   2.451   2.815   3.791 -0.3784  0.2241  0.2459
 2357SOL    HW2 9426   2.364   2.789   3.822 -0.9126  1.1862 -0.4295
 2357SOL    HW3 9427   2.445   2.809   3.696  0.4241 -0.0922  0.2150
 2357SOL    MW4 9428   2.438   2.811   3.783 -0.3430  0.3093  0.1527
 2358SOL     OW 9429   2.484   3.072   3.868 -0.4330  0.5411  0.4364
 2358SOL    HW2 9430   2.523   3.070   3.955 -1.0903 -1.5750  0.7091
 2358SOL    HW3 9431   2.487   2.981   3.838 -3.2608  0.6475 -0.3509
 2358SOL    MW4 9432   2.489   3.060   3.875 -0.8928  0.2759  0.3685
 2359SOL     OW 9433   2.235   3.181   3.748  0.1853  0.0794  0.4500
 2359SOL    HW2 9434   2.236   3.272   3.777  1.6772  0.7641 -1.6192
 2359SOL    HW3 9435   2.304   3.139   3.799  0.3937  0.4371  0.4658
 2359SOL    MW4 9436   2.244   3.187   3.758  0.4096  0.2169  0.1791
 2360SOL     OW 9437   2.238   3.469   3.862  0.3100 -0.0510 -0.1842
 2360SOL    HW2 9438   2.248   3.450   3.955  0.4654 -1.4135 -0.4663
 2360SOL    HW3 9439   2.316   3.521   3.840  0.0669  0.6186  0.5290
 2360SOL    MW4 9440   2.250   3.473   3.871  0.2984 -0.1425 -0.1273
 2361SOL     OW 9441   2.458   3.633   3.797 -0.0658 -0.2714  0.1072
 2361SOL    HW2 9442   2.546   3.604   3.822  0.1430  0.3907  0.1689
 2361SOL    HW3 9443   2.456   3.626   3.702  0.0800 -0.2165  0.1000
 2361SOL    MW4 9444   2.469   3.628   3.788 -0.0190 -0.1768  0.1144
 2362SOL     OW 9445   2.460   3.881   3.906  0.2719  0.2637 -0.1906
 2362SOL    HW2 9446   2.522   3.925   3.847  0.4555 -0.2421 -0.3801
 2362SOL    HW3 9447   2.455   3.791   3.873 -0.6126  0.3176 -0.2047
 2362SOL    MW4 9448   2.468   3.875   3.894  0.1794  0.2041 -0.2175
 2363SOL     OW 9449   2.221   4.002   3.809  0.2738 -0.2667 -0.1472
 2363SOL    HW2 9450   2.293   3.954   3.849 -0.6308 -0.4559  1.2838
 2363SOL    HW3 9451   2.247   4.012   3.717  2.3195  0.0610  0.4446
 2363SOL    MW4 9452   2.234   3.997   3.802  0.4243 -0.2484  0.1197
 2364SOL     OW 9453   2.202   4.262   3.925 -0.2321 -0.0737  0.0929
 2364SOL    HW2 9454   2.222   4.261   4.018  1.1294  0.9749 -0.1697
 2364SOL    HW3 9455   2.203   4.170   3.899  1.4092 -0.2450  0.7027
 2364SOL    MW4 9456   2.205   4.249   3.934  0.1641  0.0420  0.1387
 2365SOL     OW 9457   2.430   4.350   3.795 -0.1784 -0.1473 -0.8200
 2365SOL    HW2 9458   2.364   4.314   3.853 -0.6410 -0.4338 -1.5236
 2365SOL    HW3 9459   2.429   4.444   3.813 -0.1647 -0.2633 -0.2114
 2365SOL    MW4 9460   2.421   4.358   3.805 -0.2376 -0.2004 -0.8325
 2366SOL     OW 9461   2.949   0.001   3.842 -0.5900  0.3056 -0.0659
 2366SOL    HW2 9462   2.956  -0.006   3.938 -1.2773 -0.8011 -0.0754
 2366SOL    HW3 9463   3.031   0.040   3.814  0.7298 -1.7487  0.7705
 2366SOL    MW4 9464   2.961   0.005   3.851 -0.5065 -0.1115  0.0432
 2367SOL     OW 9465   2.678   0.141   3.763 -0.0107  0.0799 -0.0888
 2367SOL    HW2 9466   2.765   0.102   3.774  0.0140  0.0958 -0.2216
 2367SOL    HW3 9467   2.658   0.129   3.670  0.0429  0.4751 -0.1531
 2367SOL    MW4 9468   2.687   0.134   3.752 -0.0003  0.1341 -0.1148
 2368SOL     OW 9469   2.737   0.401   3.834  0.1212  0.2948 -0.8745
 2368SOL    HW2 9470   2.703   0.314   3.813  0.6219  0.3407 -1.8720
 2368SOL    HW3 9471   2.660   0.458   3.831 -0.1976 -0.0911 -0.2780
 2368SOL    MW4 9472   2.722   0.397   3.831  0.1452  0.2499 -0.9274
 2369SOL     OW 9473   2.962   0.507   3.727 -0.0820  0.1867  0.1266
 2369SOL    HW2 9474   3.037   0.460   3.763  0.8173 -0.0919 -1.9919
 2369SOL    HW3 9475   2.886   0.469   3.771  0.9622  0.0422  1.8496
 2369SOL    MW4 9476   2.962   0.495   3.737  0.1744  0.1309  0.0744
 2370SOL     OW 9477   2.898   0.746   3.837  0.1171 -0.3623 -0.1148
 2370SOL    HW2 9478   2.972   0.805   3.824 -0.2815  0.3567  0.8359
 2370SOL    HW3 9479   2.926   0.663   3.797  0.2949  0.7243 -2.3076
 2370SOL    MW4 9480   2.912   0.743   3.830  0.0880 -0.1241 -0.2787
 2371SOL     OW 9481   2.662   0.886   3.756  0.1175  0.0668 -0.0419
 2371SOL    HW2 9482   2.737   0.837   3.791 -0.2492 -1.5824 -1.5220
 2371SOL    HW3 9483   2.594   0.876   3.822 -0.0161 -1.5944 -0.4153
 2371SOL    MW4 9484   2.663   0.878   3.770  0.0515 -0.3700 -0.2864
 2372SOL     OW 9485   2.710   1.148   3.852  0.0839  0.0081 -0.4819
 2372SOL    HW2 9486   2.698   1.060   3.818  1.8448 -0.4912  0.0878
 2372SOL    HW3 9487   2.628   1.193   3.834 -0.6299 -1.5803 -1.2840
 2372SOL    MW4 9488   2.698   1.142   3.845  0.2221 -0.2673 -0.5126
 2373SOL     OW 9489   2.899   1.332   3.751  0.2391  0.0353 -0.0193
 2373SOL    HW2 9490   2.907   1.410   3.805  0.1783 -0.2645  0.4287
 2373SOL    HW3 9491   2.829   1.281   3.792  0.0524 -0.1033 -0.4967
 2373SOL    MW4 9492   2.891   1.336   3.763  0.2065 -0.0226 -0.0232
 2374SOL     OW 9493   2.906   1.584   3.884  0.1540  0.4065 -0.3410
 2374SOL    HW2 9494   2.924   1.581   3.978  1.0065  0.7134 -0.4916
 2374SOL    HW3 9495   2.986   1.619   3.845  0.4039 -1.2782 -1.3615
 2374SOL    MW4 9496   2.919   1.589   3.891  0.2995  0.2247 -0.4955
 2375SOL     OW 9497   2.691   1.694   3.773  0.4990 -0.1830 -0.5306
 2375SOL    HW2 9498   2.776   1.660   3.797 -0.4943 -1.3685  1.3851
 2375SOL    HW3 9499   2.687   1.684   3.677  2.6270  0.2449 -0.6789
 2375SOL    MW4 9500   2.701   1.689   3.763  0.6487 -0.2830 -0.2974
 2376SOL     OW 9501   2.654   1.955   3.855 -0.2972 -0.4208 -0.1708
 2376SOL    HW2 9502   2.670   1.867   3.821  0.8827  0.5044 -2.0772
 2376SOL    HW3 9503   2.575   1.985   3.809 -0.7608 -0.5189  0.5548
 2376SOL    MW4 9504   2.645   1.948   3.845 -0.2027 -0.3117 -0.3266
 2377SOL     OW 9505   2.902   2.057   3.750 -0.2110 -0.1141  0.1505
 2377SOL    HW2 9506   2.908   2.147   3.781  0.5731 -0.5200  1.2221
 2377SOL    HW3 9507   2.827   2.021   3.797  0.2859 -0.3983  0.7384
 2377SOL    MW4 9508   2.893   2.064   3.760 -0.0420 -0.2051  0.3695
 2378SOL     OW 9509   2.899   2.309   3.860 -0.0175 -0.2915 -0.3606
 2378SOL    HW2 9510   2.893   2.344   3.949 -1.6920 -1.5204  0.0381
 2378SOL    HW3 9511   2.979   2.347   3.824  0.0053  1.2124  1.2359
 2378SOL    MW4 9512   2.909   2.319   3.867 -0.2354 -0.2552 -0.0974
 2379SOL     OW 9513   2.659   2.421   3.782  0.5523 -0.1213 -0.1684
 2379SOL    HW2 9514   2.668   2.510   3.817  0.8732 -0.3844  0.4085
 2379SOL    HW3 9515   2.746   2.383   3.790  0.3218 -0.6248 -0.0665
 2379SOL    MW4 9516   2.671   2.428   3.787  0.5642 -0.2224 -0.0788
 2380SOL     OW 9517   2.688   2.704   3.885 -0.1622  0.0247  0.1573
 2380SOL    HW2 9518   2.694   2.715   3.980 -1.9729 -1.6688  0.4990
 2380SOL    HW3 9519   2.611   2.754   3.860 -0.7041 -0.9546 -0.1607
 2380SOL    MW4 9520   2.679   2.712   3.895 -0.4726 -0.3280  0.1604
 2381SOL     OW 9521   2.917   2.860   3.775 -0.1599  1.0007  0.1017
 2381SOL    HW2 9522   2.912   2.945   3.818  0.7019  0.9599  0.2815
 2381SOL    HW3 9523   2.859   2.803   3.828  0.5291  1.0660  0.9368
 2381SOL    MW4 9524   2.909   2.863   3.788  0.0447  1.0039  0.2356
 2382SOL     OW 9525   2.903   3.099   3.909 -0.2163  0.2466  0.0707
 2382SOL    HW2 9526   2.991   3.132   3.891 -0.5458  0.9722 -0.2654
 2382SOL    HW3 9527   2.900   3.087   4.004  0.2937  0.0905  0.0637
 2382SOL    MW4 9528   2.914   3.102   3.919 -0.1925  0.3218  0.0254
 2383SOL     OW 9529   2.692   3.220   3.755 -0.3869 -0.3967 -0.1503
 2383SOL    HW2 9530   2.771   3.198   3.805 -0.5309 -0.6198 -0.0240
 2383SOL    HW3 9531   2.625   3.161   3.788 -0.7189  0.0937  0.0516
 2383SOL    MW4 9532   2.694   3.210   3.766 -0.4497 -0.3614 -0.1070
 2384SOL     OW 9533   2.693   3.501   3.880 -0.0120 -0.3296 -0.0496
 2384SOL    HW2 9534   2.779   3.538   3.863 -0.3876  0.3045 -0.5816
 2384SOL    HW3 9535   2.698   3.411   3.846  0.5906 -0.4606  0.3777
 2384SOL    MW4 9536   2.705   3.494   3.873  0.0179 -0.2632 -0.0634
 2385SOL     OW 9537   2.946   3.616   3.811  0.3378 -0.3423  0.6608
 2385SOL    HW2 9538   3.016   3.565   3.851  1.9193  1.6179  0.4853
 2385SOL    HW3 9539   2.946   3.590   3.719  0.9668 -0.2124  0.6243
 2385SOL    MW4 9540   2.955   3.606   3.804  0.6294 -0.0665  0.6328
 2386SOL     OW 9541   2.893   3.878   3.884 -0.0402 -0.2432 -0.3615
 2386SOL    HW2 9542   2.882   3.869   3.979 -1.6636 -1.4862 -0.6410
 2386SOL    HW3 9543   2.905   3.789   3.853  1.0627  0.2177 -1.2686
 2386SOL    MW4 9544   2.893   3.865   3.893 -0.1089 -0.3464 -0.5181
 2387SOL     OW 9545   2.663   4.001   3.757  0.0210 -0.2199  0.2973
 2387SOL    HW2 9546   2.651   4.088   3.795  0.2739  0.2970 -0.7801
 2387SOL    HW3 9547   2.744   3.969   3.797  0.5807  0.5396 -0.2156
 2387SOL    MW4 9548   2.672   4.008   3.767  0.1282 -0.0515  0.0875
 2388SOL     OW 9549   2.684   4.247   3.876  0.6099 -0.5006 -0.2656
 2388SOL    HW2 9550   2.756   4.285   3.826  0.2374  0.2920 -0.2002
 2388SOL    HW3 9551   2.606   4.290   3.842  0.3866  0.3602  1.2990
 2388SOL    MW4 9552   2.683   4.258   3.865  0.5313 -0.2824 -0.0505
 2389SOL     OW 9553   2.919   4.388   3.786 -0.1970 -0.0901  0.4597
 2389SOL    HW2 9554   3.011   4.367   3.801  0.3800  0.4086 -2.0673
 2389SOL    HW3 9555   2.913   4.483   3.796 -0.3592 -0.0813  0.2868
 2389SOL    MW4 9556   2.930   4.398   3.789 -0.1423 -0.0231  0.1035
 2390SOL     OW 9557   3.415   4.646   3.873  0.1965  0.3464 -0.1943
 2390SOL    HW2 9558   3.504   4.676   3.852 -0.1875  2.1334  0.6230
 2390SOL    HW3 9559   3.404   4.670   3.965  0.2326 -3.2964  0.8648
 2390SOL    MW4 9560   3.426   4.653   3.883  0.1506  0.1016  0.0533
 2391SOL     OW 9561   3.199   0.099   3.773 -0.2994  0.4956  0.0258
 2391SOL    HW2 9562   3.280   0.057   3.803 -0.5185 -0.5317 -0.8176
 2391SOL    HW3 9563   3.199   0.088   3.678 -1.2674  0.7978 -0.0183
 2391SOL    MW4 9564   3.210   0.092   3.764 -0.4560  0.3999 -0.0913
 2392SOL     OW 9565   3.172   0.371   3.838  0.4046  0.4859 -0.3250
 2392SOL    HW2 9566   3.165   0.359   3.933  1.5583 -1.3873 -0.4654
 2392SOL    HW3 9567   3.171   0.283   3.802  1.6918  1.1111 -1.9504
 2392SOL    MW4 9568   3.171   0.358   3.846  0.7267  0.3213 -0.5580
 2393SOL     OW 9569   3.378   0.540   3.762 -0.0146  0.7130  0.7499
 2393SOL    HW2 9570   3.443   0.499   3.819 -0.0623 -0.1622  0.1744
 2393SOL    HW3 9571   3.302   0.482   3.765  0.4583 -0.0419 -1.2533
 2393SOL    MW4 9572   3.376   0.527   3.770  0.0415  0.4979  0.4097
 2394SOL     OW 9573   3.347   0.799   3.891 -0.0983  0.0363  0.6493
 2394SOL    HW2 9574   3.341   0.798   3.986  0.3879 -1.0452  0.6765
 2394SOL    HW3 9575   3.339   0.708   3.865 -3.5771  0.6488 -0.6013
 2394SOL    MW4 9576   3.345   0.787   3.900 -0.4931 -0.0256  0.4879
 2395SOL     OW 9577   3.109   0.925   3.794 -0.3875 -0.1423 -0.4208
 2395SOL    HW2 9578   3.196   0.888   3.807 -0.5691 -0.2379  0.5654
 2395SOL    HW3 9579   3.101   0.935   3.699  0.7978  0.1169 -0.4998
 2395SOL    MW4 9580   3.119   0.921   3.783 -0.2551 -0.1207 -0.3011
 2396SOL     OW 9581   3.118   1.200   3.844 -0.1768  0.2515  0.0653
 2396SOL    HW2 9582   3.117   1.108   3.821 -1.1048 -0.0166  1.1305
 2396SOL    HW3 9583   3.043   1.237   3.798  0.1137  0.4421 -0.2526
 2396SOL    MW4 9584   3.108   1.193   3.835 -0.2609  0.2413  0.1639
 2397SOL     OW 9585   3.385   1.324   3.811 -0.4293  0.0507  0.0850
 2397SOL    HW2 9586   3.294   1.299   3.826 -0.9907  2.4003  0.8294
 2397SOL    HW3 9587   3.391   1.336   3.716 -1.1118  0.6696  0.1190
 2397SOL    MW4 9588   3.374   1.322   3.800 -0.5934  0.4424  0.1877
 2398SOL     OW 9589   3.401   1.601   3.882 -0.7067 -0.1578 -0.0202
 2398SOL    HW2 9590   3.322   1.643   3.848 -0.9903 -0.2868  0.4641
 2398SOL    HW3 9591   3.382   1.507   3.876 -0.0036 -0.2383 -1.2755
 2398SOL    MW4 9592   3.388   1.594   3.877 -0.6513 -0.1855 -0.1219
 2399SOL     OW 9593   3.139   1.696   3.786  0.6896 -0.3577 -0.0739
 2399SOL    HW2 9594   3.142   1.786   3.817  1.7417 -0.7751  1.0945
 2399SOL    HW3 9595   3.154   1.702   3.692 -1.5058  0.8470 -0.3751
 2399SOL    MW4 9596   3.141   1.708   3.778  0.5387 -0.2539  0.0405
 2400SOL     OW 9597   3.129   1.976   3.862  0.2650 -0.3665 -0.0644
 2400SOL    HW2 9598   3.091   1.957   3.947  0.7460 -0.8183  0.0508
 2400SOL    HW3 9599   3.055   2.005   3.808  0.0642  0.5618  0.6894
 2400SOL    MW4 9600   3.114   1.978   3.866  0.3019 -0.3036  0.0503
 2401SOL     OW 9601   3.381   2.045   3.782  0.1508  0.0377 -0.3140
 2401SOL    HW2 9602   3.292   2.020   3.807 -0.8126  2.3138 -1.2679
 2401SOL    HW3 9603   3.381   2.042   3.687  0.3657  2.2534 -0.4214
 2401SOL    MW4 9604   3.369   2.041   3.773  0.0521  0.6304 -0.4540
 2402SOL     OW 9605   3.369   2.327   3.823  0.0911 -0.0185  0.7124
 2402SOL    HW2 9606   3.286   2.372   3.809  0.0727 -0.4022 -0.4562
 2402SOL    HW3 9607   3.353   2.237   3.796  1.5629  0.4728 -1.9333
 2402SOL    MW4 9608   3.356   2.321   3.818  0.2829 -0.0043  0.2091
 2403SOL     OW 9609   3.121   2.435   3.740 -0.1993 -0.1386  0.2128
 2403SOL    HW2 9610   3.108   2.517   3.788  2.4470  0.9570 -0.8661
 2403SOL    HW3 9611   3.151   2.462   3.653 -4.7060 -2.1084 -2.1020
 2403SOL    MW4 9612   3.123   2.449   3.735 -0.4447 -0.2540 -0.2350
 2404SOL     OW 9613   3.128   2.701   3.849 -0.3054  0.0065 -0.2148
 2404SOL    HW2 9614   3.072   2.776   3.830  1.5145  1.8395  1.3269
 2404SOL    HW3 9615   3.211   2.721   3.805  0.4567 -0.6895  0.8458
 2404SOL    MW4 9616   3.132   2.714   3.841  0.0353  0.1565  0.1285
 2405SOL     OW 9617   3.389   2.821   3.776  0.7156  0.2546 -0.1489
 2405SOL    HW2 9618   3.374   2.896   3.833 -1.5589  0.0888 -0.4742
 2405SOL    HW3 9619   3.383   2.856   3.687  1.2628 -0.0200 -0.2959
 2405SOL    MW4 9620   3.386   2.836   3.771  0.4877  0.1965 -0.2112
 2406SOL     OW 9621   3.334   2.830   4.290 -0.1143 -0.0258  0.0729
 2406SOL    HW2 9622   3.344   2.830   4.386  1.8069  2.3437 -0.0800
 2406SOL    HW3 9623   3.406   2.775   4.259 -0.9525 -1.0892 -0.0167
 2406SOL    MW4 9624   3.345   2.823   4.299  0.0286  0.1466  0.0409
 2407SOL     OW 9625   3.148   3.178   3.805  0.2559 -0.0794  0.2579
 2407SOL    HW2 9626   3.229   3.131   3.825 -0.3776 -1.3693 -0.1254
 2407SOL    HW3 9627   3.152   3.196   3.712  0.0277 -0.3162  0.1992
 2407SOL    MW4 9628   3.159   3.174   3.796  0.1422 -0.2808  0.1996
 2408SOL     OW 9629   3.159   3.431   3.923  0.6631 -0.0896  0.2448
 2408SOL    HW2 9630   3.219   3.488   3.874 -0.3351  1.6589  1.0002
 2408SOL    HW3 9631   3.168   3.346   3.881  0.3692  1.1883 -2.5576
 2408SOL    MW4 9632   3.168   3.427   3.911  0.4927  0.3097 -0.0253
 2409SOL     OW 9633   3.332   3.592   3.791 -0.2162 -0.2438 -0.6615
 2409SOL    HW2 9634   3.346   3.683   3.818  2.0327 -0.4098 -1.1541
 2409SOL    HW3 9635   3.345   3.593   3.696 -0.1886 -1.0707 -0.6666
 2409SOL    MW4 9636   3.336   3.604   3.782  0.0841 -0.3748 -0.7271
 2410SOL     OW 9637   3.372   3.848   3.863  0.4171 -0.4276 -0.3199
 2410SOL    HW2 9638   3.436   3.912   3.833 -0.9338  1.2492  0.2646
 2410SOL    HW3 9639   3.287   3.886   3.838 -0.5277 -0.9176  1.9792
 2410SOL    MW4 9640   3.369   3.862   3.856  0.1142 -0.2710  0.0606
 2411SOL     OW 9641   3.138   4.005   3.796 -0.3926  0.4841 -0.5376
 2411SOL    HW2 9642   3.145   4.097   3.822 -0.9306  0.8373 -1.6104
 2411SOL    HW3 9643   3.051   3.979   3.827  0.5464 -0.2449  1.5332
 2411SOL    MW4 9644   3.127   4.014   3.804 -0.3397  0.4345 -0.4059
 2412SOL     OW 9645   3.167   4.258   3.872  0.1614 -0.1588  0.1947
 2412SOL    HW2 9646   3.171   4.290   3.963  0.6362  1.0287 -0.2383
 2412SOL    HW3 9647   3.227   4.315   3.824 -2.5652  1.3710 -1.5206
 2412SOL    MW4 9648   3.176   4.270   3.878 -0.1357  0.1997 -0.0888
 2413SOL     OW 9649   3.355   4.403   3.754 -0.3337  0.3083 -0.5627
 2413SOL    HW2 9650   3.424   4.343   3.782 -1.2777 -0.9043 -0.7787
 2413SOL    HW3 9651   3.376   4.485   3.798  1.5508  0.1200 -1.0503
 2413SOL    MW4 9652   3.367   4.406   3.764 -0.2096  0.1235 -0.6556
 2414SOL     OW 9653   3.775   4.631   3.881  0.2080  0.4171 -0.0390
 2414SOL    HW2 9654   3.843   4.676   3.830 -0.0653  0.6261 -0.2181
 2414SOL    HW3 9655   3.773   4.542   3.845  0.5231  0.3486  0.1010
 2414SOL    MW4 9656   3.784   4.625   3.870  0.2135  0.4356 -0.0442
 2415SOL     OW 9657   3.614   0.181   3.782 -0.3876 -0.1034  0.5484
 2415SOL    HW2 9658   3.670   0.112   3.817 -1.1326 -0.5584  0.8544
 2415SOL    HW3 9659   3.603   0.159   3.690 -0.9392 -0.6105  0.7325
 2415SOL    MW4 9660   3.620   0.169   3.775 -0.5587 -0.2303  0.6130
 2416SOL     OW 9661   3.579   0.420   3.929  0.3886 -0.5930 -0.1406
 2416SOL    HW2 9662   3.653   0.469   3.893  0.6424 -1.0080 -0.1808
 2416SOL    HW3 9663   3.585   0.334   3.889  0.1011 -0.7437  0.1398
 2416SOL    MW4 9664   3.590   0.415   3.919  0.3842 -0.6676 -0.1089
 2417SOL     OW 9665   3.808   0.544   3.738  0.5947 -0.3049  0.3957
 2417SOL    HW2 9666   3.886   0.508   3.780  0.4368 -0.9058  0.1706
 2417SOL    HW3 9667   3.795   0.629   3.781  2.1449  0.3939 -0.4748
 2417SOL    MW4 9668   3.817   0.551   3.749  0.7784 -0.2920  0.2511
 2418SOL     OW 9669   3.785   0.796   3.853  0.4536  0.1425 -0.1871
 2418SOL    HW2 9670   3.713   0.847   3.814  0.1690  1.4977  2.0272
 2418SOL    HW3 9671   3.863   0.848   3.835  0.4087  0.4269  0.4157
 2418SOL    MW4 9672   3.786   0.810   3.845  0.4101  0.3588  0.1846
 2419SOL     OW 9673   3.559   0.921   3.759  0.2638  0.3193  0.4325
 2419SOL    HW2 9674   3.562   1.004   3.807 -0.5317  0.4257  0.3039
 2419SOL    HW3 9675   3.480   0.879   3.790  0.3479 -0.1235  0.0423
 2419SOL    MW4 9676   3.549   0.927   3.770  0.1700  0.2749  0.3641
 2420SOL     OW 9677   3.600   1.172   3.869  0.2244 -0.2400  0.0293
 2420SOL    HW2 9678   3.674   1.208   3.820 -0.0303  1.4267  0.8362
 2420SOL    HW3 9679   3.532   1.239   3.862 -0.4955 -0.8596  1.0096
 2420SOL    MW4 9680   3.601   1.185   3.862  0.0958 -0.1019  0.2651
 2421SOL     OW 9681   3.799   1.305   3.755  0.1456  0.2619  0.3824
 2421SOL    HW2 9682   3.881   1.265   3.785 -0.3761  0.1008  1.6573
 2421SOL    HW3 9683   3.798   1.391   3.798 -0.6667 -0.0071  0.8995
 2421SOL    MW4 9684   3.810   1.311   3.765 -0.0304  0.2051  0.6188
 2422SOL     OW 9685   3.829   1.539   3.887  0.0219  0.1337  0.2988
 2422SOL    HW2 9686   3.836   1.539   3.982  2.1927  0.8305  0.1523
 2422SOL    HW3 9687   3.762   1.605   3.868  1.1948  1.6274  1.2472
 2422SOL    MW4 9688   3.821   1.547   3.897  0.4630  0.4227  0.4046
 2423SOL     OW 9689   3.648   1.708   3.792 -0.6650  0.5788 -0.0509
 2423SOL    HW2 9690   3.570   1.666   3.829 -0.6039 -0.2634 -0.8718
 2423SOL    HW3 9691   3.642   1.691   3.698 -0.3524  1.9316 -0.3359
 2423SOL    MW4 9692   3.637   1.700   3.785 -0.6157  0.6462 -0.1968
 2424SOL     OW 9693   3.640   1.979   3.906  0.5670 -0.4730 -0.0790
 2424SOL    HW2 9694   3.632   1.896   3.858 -0.3985 -0.2555 -0.3147
 2424SOL    HW3 9695   3.564   2.030   3.877  1.1292  0.4772  0.1001
 2424SOL    MW4 9696   3.629   1.975   3.896  0.5138 -0.3189 -0.0865
 2425SOL     OW 9697   3.855   2.066   3.773  0.4285  0.1902  0.5758
 2425SOL    HW2 9698   3.930   2.015   3.805 -1.4087 -2.7298  0.4786
 2425SOL    HW3 9699   3.780   2.027   3.817 -1.2206  1.8992 -0.6797
 2425SOL    MW4 9700   3.855   2.054   3.783 -0.0315  0.0305  0.3974
 2426SOL     OW 9701   3.870   2.325   3.889  0.1219 -0.7091 -0.6043
 2426SOL    HW2 9702   3.791   2.369   3.859  0.7219  0.4906 -0.4587
 2426SOL    HW3 9703   3.866   2.238   3.849 -0.9386 -0.4265 -1.1228
 2426SOL    MW4 9704   3.859   2.319   3.880  0.0612 -0.5135 -0.6535
 2427SOL     OW 9705   3.619   2.436   3.797  0.5489  0.2080  0.1265
 2427SOL    HW2 9706   3.531   2.404   3.816  0.0128  1.8337  0.4527
 2427SOL    HW3 9707   3.620   2.449   3.702  0.6515 -0.4059  0.0406
 2427SOL    MW4 9708   3.607   2.433   3.787  0.4917  0.3415  0.1582
 2428SOL     OW 9709   3.612   2.689   3.898 -0.2976 -0.1185 -0.6660
 2428SOL    HW2 9710   3.616   2.600   3.862  1.2454  0.3289 -1.6633
 2428SOL    HW3 9711   3.544   2.733   3.847  0.1837 -0.2098 -1.3880
 2428SOL    MW4 9712   3.604   2.683   3.887 -0.0306 -0.0715 -0.8928
 2429SOL     OW 9713   3.809   2.831   3.760  0.0547 -0.1266 -0.1587
 2429SOL    HW2 9714   3.893   2.791   3.784  0.1424  0.6305  0.8593
 2429SOL    HW3 9715   3.744   2.778   3.805  0.1661  0.8098  1.1328
 2429SOL    MW4 9716   3.812   2.819   3.769  0.0810  0.0968  0.1460
 2430SOL     OW 9717   3.587   3.219   3.784  0.0138  0.0115 -0.4088
 2430SOL    HW2 9718   3.575   3.309   3.815 -0.3455  0.6113 -2.2404
 2430SOL    HW3 9719   3.586   3.226   3.689  1.1115 -1.7919 -0.5740
 2430SOL    MW4 9720   3.585   3.232   3.776  0.1112 -0.1473 -0.6722
 2431SOL     OW 9721   3.402   3.075   3.907  0.2183  0.0889 -0.1065
 2431SOL    HW2 9722   3.413   3.091   4.001 -2.8552  0.6026  0.2093
 2431SOL    HW3 9723   3.475   3.122   3.867  0.8102  0.9945  1.9410
 2431SOL    MW4 9724   3.413   3.083   3.914 -0.1091  0.2761  0.2053
 2432SOL     OW 9725   3.570   3.462   3.896  0.6101  0.5890  0.2116
 2432SOL    HW2 9726   3.571   3.451   3.991 -0.5686  0.6745  0.2427
 2432SOL    HW3 9727   3.490   3.512   3.879  0.8865  0.6860 -0.8141
 2432SOL    MW4 9728   3.559   3.467   3.906  0.4911  0.6131  0.0804
 2433SOL     OW 9729   3.820   3.588   3.798 -0.3274  0.0269 -0.2277
 2433SOL    HW2 9730   3.813   3.678   3.832  0.5085 -0.1355  0.3797
 2433SOL    HW3 9731   3.735   3.549   3.817 -0.6907  0.6813 -0.4782
 2433SOL    MW4 9732   3.808   3.595   3.805 -0.2651  0.0918 -0.1806
 2434SOL     OW 9733   3.795   3.852   3.882 -0.1482 -0.1951 -0.2669
 2434SOL    HW2 9734   3.820   3.840   3.973  0.6282  0.8815 -0.3322
 2434SOL    HW3 9735   3.870   3.894   3.841 -1.2536  1.1962 -0.9353
 2434SOL    MW4 9736   3.808   3.856   3.889 -0.1916  0.1305 -0.3637
 2435SOL     OW 9737   3.585   3.994   3.752  0.3413  0.1757 -0.2789
 2435SOL    HW2 9738   3.570   4.071   3.807  1.7313  0.6636 -0.5643
 2435SOL    HW3 9739   3.650   3.942   3.800  0.2009 -0.2964 -0.5901
 2435SOL    MW4 9740   3.592   3.997   3.766  0.5062  0.1778 -0.3576
 2436SOL     OW 9741   3.564   4.235   3.864 -0.1500 -0.0077 -0.0046
 2436SOL    HW2 9742   3.648   4.268   3.831 -0.1245  0.1377  0.2059
 2436SOL    HW3 9743   3.575   4.233   3.959 -0.3888  0.0241  0.0235
 2436SOL    MW4 9744   3.577   4.239   3.872 -0.1781  0.0157  0.0269
 2437SOL     OW 9745   3.781   4.380   3.755  0.4357  0.3511  0.2612
 2437SOL    HW2 9746   3.863   4.347   3.791  0.1573 -0.1551  0.4300
 2437SOL    HW3 9747   3.784   4.357   3.662 -0.1527 -0.9395  0.5571
 2437SOL    MW4 9748   3.792   4.373   3.747  0.3213  0.1140  0.3225
 2438SOL     OW 9749   4.228   4.655   3.882 -0.0746  0.1262  0.3611
 2438SOL    HW2 9750   4.246   4.632   3.973  0.2513 -0.9885  0.0290
 2438SOL    HW3 9751   4.304   4.706   3.854  0.1729 -0.1635  0.4990
 2438SOL    MW4 9752   4.240   4.658   3.890  0.0011 -0.0591  0.3355
 2439SOL     OW 9753   3.997   0.108   3.766 -0.2120 -0.0432 -0.4862
 2439SOL    HW2 9754   4.072   0.061   3.803 -0.8567 -0.7582 -0.0766
 2439SOL    HW3 9755   4.014   0.112   3.672  0.7357  0.5072 -0.2911
 2439SOL    MW4 9756   4.009   0.102   3.759 -0.1720 -0.0649 -0.4064
 2440SOL     OW 9757   4.002   0.388   3.844  0.0044 -0.0228 -0.1637
 2440SOL    HW2 9758   4.012   0.381   3.939 -1.2836 -0.0240 -0.0258
 2440SOL    HW3 9759   3.993   0.298   3.814 -1.3298  0.0780 -0.0870
 2440SOL    MW4 9760   4.002   0.375   3.853 -0.3415 -0.0097 -0.1354
 2441SOL     OW 9761   4.243   0.508   3.799  0.3625 -0.0182 -0.3643
 2441SOL    HW2 9762   4.169   0.451   3.818  0.5611 -0.1897 -0.1068
 2441SOL    HW3 9763   4.242   0.517   3.703 -0.5294  0.7162 -0.2918
 2441SOL    MW4 9764   4.233   0.502   3.789  0.2710  0.0561 -0.3207
 2442SOL     OW 9765   4.248   0.764   3.869  0.4526 -0.1583  0.3844
 2442SOL    HW2 9766   4.178   0.810   3.822 -1.3491 -1.4063  1.7842
 2442SOL    HW3 9767   4.239   0.673   3.842  1.3149 -0.3856  0.8468
 2442SOL    MW4 9768   4.238   0.758   3.859  0.3287 -0.3529  0.6301
 2443SOL     OW 9769   4.038   0.918   3.797 -0.1197 -0.1838  0.1258
 2443SOL    HW2 9770   4.040   1.013   3.807 -2.1967 -0.1862  0.7853
 2443SOL    HW3 9771   4.021   0.904   3.704 -3.4676  0.1825  0.6261
 2443SOL    MW4 9772   4.036   0.929   3.786 -0.8355 -0.1358  0.2788
 2444SOL     OW 9773   4.048   1.194   3.850 -0.1539  0.1502  0.0535
 2444SOL    HW2 9774   4.048   1.183   3.945 -0.1736 -1.9817 -0.1791
 2444SOL    HW3 9775   4.140   1.209   3.828 -0.1172  0.4048  0.3634
 2444SOL    MW4 9776   4.060   1.195   3.860 -0.1517 -0.0975  0.0637
 2445SOL     OW 9777   4.302   1.254   3.756 -0.3873 -0.6755  0.3810
 2445SOL    HW2 9778   4.295   1.344   3.788 -1.4493 -0.6806  0.2073
 2445SOL    HW3 9779   4.290   1.262   3.661  2.0113 -0.7353  0.0461
 2445SOL    MW4 9780   4.299   1.267   3.747 -0.2110 -0.6841  0.3139
 2446SOL     OW 9781   4.273   1.511   3.813 -0.0523  0.0999  0.4024
 2446SOL    HW2 9782   4.198   1.569   3.802  0.8447  1.4394  1.1956
 2446SOL    HW3 9783   4.349   1.570   3.815  0.9967 -1.1994 -0.0416
 2446SOL    MW4 9784   4.273   1.526   3.812  0.2044  0.1052  0.4485
 2447SOL     OW 9785   4.054   1.678   3.788  0.3985  0.9963  0.2405
 2447SOL    HW2 9786   4.058   1.762   3.832 -1.0881  1.6939 -0.9101
 2447SOL    HW3 9787   3.975   1.636   3.822  0.9293  0.2159  0.5387
 2447SOL    MW4 9788   4.044   1.683   3.798  0.2724  0.9854  0.1280
 2448SOL     OW 9789   4.056   1.931   3.889  0.3110  0.0341  0.3925
 2448SOL    HW2 9790   4.075   1.929   3.982  0.4319 -0.6233  0.3576
 2448SOL    HW3 9791   4.133   1.972   3.849 -1.0291  3.1288  0.8748
 2448SOL    MW4 9792   4.069   1.936   3.896  0.1502  0.3557  0.4516
 2449SOL     OW 9793   4.285   2.032   3.778  0.5814  0.0901  0.4169
 2449SOL    HW2 9794   4.283   2.117   3.820  1.2734  0.3896 -0.1472
 2449SOL    HW3 9795   4.266   2.051   3.686  0.8217 -0.3578  0.2758
 2449SOL    MW4 9796   4.282   2.046   3.771  0.7044  0.0705  0.3239
 2450SOL     OW 9797   4.248   2.293   3.887 -0.2526 -0.0475  0.1166
 2450SOL    HW2 9798   4.237   2.333   3.973 -1.1464 -1.9072  0.8893
 2450SOL    HW3 9799   4.187   2.341   3.831 -0.7185  0.2173  0.8407
 2450SOL    MW4 9800   4.238   2.305   3.891 -0.4320 -0.2579  0.3141
 2451SOL     OW 9801   4.063   2.430   3.749  0.2688  0.4990  0.1352
 2451SOL    HW2 9802   4.066   2.511   3.800  0.1644  1.4451 -1.3367
 2451SOL    HW3 9803   3.993   2.379   3.788  0.5469  0.9782  1.2763
 2451SOL    MW4 9804   4.054   2.434   3.761  0.2917  0.6870  0.0916
 2452SOL     OW 9805   4.051   2.707   3.868  0.1205  0.0472 -0.3919
 2452SOL    HW2 9806   4.138   2.737   3.841  0.0065  0.3932 -0.3792
 2452SOL    HW3 9807   4.050   2.719   3.963  0.4559 -0.9995 -0.2513
 2452SOL    MW4 9808   4.062   2.713   3.877  0.1497 -0.0453 -0.3717
 2453SOL     OW 9809   4.281   2.805   3.755  0.5532 -0.4879  0.3063
 2453SOL    HW2 9810   4.284   2.889   3.801  0.5837 -0.0154 -0.5448
 2453SOL    HW3 9811   4.355   2.756   3.790  0.8698  0.0498  0.4098
 2453SOL    MW4 9812   4.291   2.810   3.766  0.5990 -0.3546  0.2077
 2454SOL     OW 9813   4.283   3.048   3.922  0.1235 -0.2024 -0.1221
 2454SOL    HW2 9814   4.358   3.090   3.881 -0.5221 -0.6144 -1.7866
 2454SOL    HW3 9815   4.208   3.102   3.895 -0.1967  0.2379  1.5592
 2454SOL    MW4 9816   4.283   3.061   3.913 -0.0039 -0.1987 -0.1199
 2455SOL     OW 9817   3.803   3.085   3.890  0.0849  0.4505  0.0212
 2455SOL    HW2 9818   3.793   3.004   3.840  0.4786  0.5224 -0.1697
 2455SOL    HW3 9819   3.738   3.144   3.852 -1.5973 -0.4082  1.4609
 2455SOL    MW4 9820   3.793   3.082   3.878 -0.0851  0.3467  0.1860
 2456SOL     OW 9821   4.069   3.165   3.807  0.5543 -0.5212 -0.3381
 2456SOL    HW2 9822   4.069   3.182   3.713  1.4478 -0.9727 -0.4219
 2456SOL    HW3 9823   3.981   3.130   3.825  0.3812 -0.4318 -0.9967
 2456SOL    MW4 9824   4.057   3.163   3.797  0.6494 -0.5690 -0.4360
 2457SOL     OW 9825   4.273   3.645   3.798  0.0051 -0.0525 -0.4837
 2457SOL    HW2 9826   4.189   3.607   3.822 -0.2675  0.9738  0.2051
 2457SOL    HW3 9827   4.338   3.580   3.827 -0.4923 -0.3182  0.0352
 2457SOL    MW4 9828   4.271   3.631   3.805 -0.0965  0.0478 -0.3244
 2458SOL     OW 9829   4.287   3.906   3.888 -0.0886 -0.3615 -0.3738
 2458SOL    HW2 9830   4.206   3.953   3.865 -0.1538  1.0788  2.4824
 2458SOL    HW3 9831   4.275   3.818   3.853 -1.7678  0.5654 -2.2427
 2458SOL    MW4 9832   4.275   3.901   3.880 -0.3187 -0.0492 -0.2435
 2459SOL     OW 9833   4.025   3.973   3.823  0.4676  0.5829  0.0958
 2459SOL    HW2 9834   4.018   4.068   3.829 -2.1750  0.3610  1.1837
 2459SOL    HW3 9835   4.054   3.957   3.733 -0.7681  2.3577 -0.6376
 2459SOL    MW4 9836   4.028   3.984   3.812 -0.0441  0.7878  0.1426
 2460SOL     OW 9837   3.998   4.250   3.857 -0.1582  0.0426 -0.0359
 2460SOL    HW2 9838   4.013   4.253   3.951 -0.3470  2.0589 -0.0544
 2460SOL    HW3 9839   4.067   4.304   3.820 -1.4439  1.1406 -0.8770
 2460SOL    MW4 9840   4.009   4.257   3.864 -0.3528  0.4535 -0.1493
 2461SOL     OW 9841   4.225   4.411   3.746 -0.0042  0.3363  0.0923
 2461SOL    HW2 9842   4.217   4.498   3.784  2.5027  1.2748 -1.3819
 2461SOL    HW3 9843   4.315   4.384   3.766 -0.0060 -0.9132 -1.4338
 2461SOL    MW4 9844   4.236   4.419   3.753  0.3263  0.2953 -0.3036
 2462SOL     OW 9845   0.720   0.439   4.328  0.1303 -0.5643  0.2939
 2462SOL    HW2 9846   0.626   0.430   4.313  0.4729 -0.4892 -2.0650
 2462SOL    HW3 9847   0.744   0.360   4.377 -0.7622 -1.7582 -1.1481
 2462SOL    MW4 9848   0.711   0.427   4.332  0.0578 -0.7119 -0.2076
 2463SOL     OW 9849   0.309   0.305   4.446 -0.2402 -0.7835 -0.2246
 2463SOL    HW2 9850   0.307   0.284   4.539 -1.2862 -0.0052 -0.0546
 2463SOL    HW3 9851   0.328   0.222   4.402  0.0203 -1.1967  0.6685
 2463SOL    MW4 9852   0.312   0.291   4.452 -0.3438 -0.7353 -0.0843
 2464SOL     OW 9853   0.475   0.401   3.825 -0.0880  0.2265 -0.0834
 2464SOL    HW2 9854   0.467   0.448   3.908 -0.5342  0.8228 -0.4603
 2464SOL    HW3 9855   0.548   0.443   3.780  0.6885 -0.6375  0.3569
 2464SOL    MW4 9856   0.483   0.412   3.830 -0.0444  0.1912 -0.0750
 2465SOL     OW 9857   1.368   0.353   4.106  0.0087  0.6928 -0.3010
 2465SOL    HW2 9858   1.333   0.291   4.170 -1.3194  0.0019 -1.6747
 2465SOL    HW3 9859   1.421   0.413   4.158 -0.0437 -0.5986  1.2785
 2465SOL    MW4 9860   1.370   0.353   4.121 -0.1734  0.4313 -0.2738
 2466SOL     OW 9861   0.660   0.765   4.081  0.3376 -0.0929  0.3423
 2466SOL    HW2 9862   0.644   0.801   3.994  1.0611  1.3138  0.7733
 2466SOL    HW3 9863   0.596   0.809   4.138  0.6720 -0.0972  0.7262
 2466SOL    MW4 9864   0.650   0.775   4.077  0.4772  0.0921  0.4498
 2467SOL     OW 9865   3.726   3.889   4.403 -0.2536  0.1708 -0.2438
 2467SOL    HW2 9866   3.650   3.941   4.376 -0.8980 -0.4622  0.3370
 2467SOL    HW3 9867   3.734   3.904   4.497  1.0936  1.1978 -0.5113
 2467SOL    MW4 9868   3.717   3.898   4.412 -0.1608  0.2228 -0.2024
 2468SOL     OW 9869   4.028   0.924   4.263  0.3918  0.4083  0.3786
 2468SOL    HW2 9870   4.046   0.883   4.348 -0.9471 -1.5876 -0.2530
 2468SOL    HW3 9871   3.945   0.884   4.234  1.2952  0.3481 -2.2875
 2468SOL    MW4 9872   4.019   0.913   4.270  0.3343  0.1370 -0.0565
 2469SOL     OW 9873   3.121   1.035   4.482 -0.0193  0.1126  0.0612
 2469SOL    HW2 9874   3.109   0.985   4.401 -0.4628 -1.6601  1.1850
 2469SOL    HW3 9875   3.213   1.060   4.482 -0.2742  1.1321 -1.5424
 2469SOL    MW4 9876   3.131   1.032   4.471 -0.1115  0.0132 -0.0021
 2470SOL     OW 9877   3.182   4.325   4.141  0.1832 -0.0691 -0.0444
 2470SOL    HW2 9878   3.266   4.366   4.161  0.7507 -1.2070 -0.0902
 2470SOL    HW3 9879   3.191   4.234   4.168 -0.5991 -0.5172 -1.1985
 2470SOL    MW4 9880   3.194   4.319   4.147  0.1548 -0.2784 -0.2027
 2471SOL     OW 9881   3.120   4.046   4.430  0.1470 -0.7005 -0.6176
 2471SOL    HW2 9882   3.122   4.019   4.339 -0.4407  0.6521 -1.0358
 2471SOL    HW3 9883   3.199   4.100   4.440 -0.3371  0.0014 -0.5925
 2471SOL    MW4 9884   3.131   4.050   4.420  0.0056 -0.4294 -0.6695
 2472SOL     OW 9885   2.249   0.362   4.121 -0.2367 -0.4515  0.0424
 2472SOL    HW2 9886   2.249   0.383   4.027 -0.3728  0.8074  0.3133
 2472SOL    HW3 9887   2.212   0.274   4.126  0.3567 -0.7869 -1.1391
 2472SOL    MW4 9888   2.244   0.353   4.109 -0.1764 -0.3297 -0.0778
 2473SOL     OW 9889   2.683   0.920   4.532  0.3812  0.1178 -0.0850
 2473SOL    HW2 9890   2.689   0.926   4.437 -0.3177  1.0487 -0.0701
 2473SOL    HW3 9891   2.685   1.010   4.563 -0.5936 -0.1180  0.7099
 2473SOL    MW4 9892   2.684   0.933   4.524  0.1603  0.2095  0.0218
 2474SOL     OW 9893   0.530   2.004   4.142  0.2112 -0.1545  0.4087
 2474SOL    HW2 9894   0.602   2.065   4.130 -0.2619  0.4236  0.5070
 2474SOL    HW3 9895   0.508   1.975   4.054  1.1246 -0.9912  0.4418
 2474SOL    MW4 9896   0.537   2.008   4.129  0.2693 -0.1886  0.4260
 2475SOL     OW 9897   0.072   1.941   4.149 -0.2854 -0.3404 -0.2125
 2475SOL    HW2 9898  -0.005   1.983   4.189  0.0050  0.8624 -0.8897
 2475SOL    HW3 9899   0.054   1.942   4.055 -0.5010 -2.2324 -0.2207
 2475SOL    MW4 9900   0.059   1.947   4.142 -0.2755 -0.4313 -0.3030
 2476SOL     OW 9901   1.896   0.740   4.511 -0.0729  0.6463  0.2132
 2476SOL    HW2 9902   1.923   0.650   4.494 -1.1511  0.1890  0.8113
 2476SOL    HW3 9903   1.977   0.790   4.513  0.4294 -0.0721 -1.4750
 2476SOL    MW4 9904   1.910   0.734   4.509 -0.1489  0.4912  0.0694
 2477SOL     OW 9905   0.038   2.503   4.485  0.1079 -0.2120 -0.4888
 2477SOL    HW2 9906   0.002   2.581   4.527  0.8426  0.1018 -0.4308
 2477SOL    HW3 9907   0.092   2.462   4.553  1.0037  0.1002 -1.0006
 2477SOL    MW4 9908   0.040   2.508   4.500  0.3230 -0.1294 -0.5487
 2478SOL     OW 9909   0.268   1.092   4.871 -0.1425  0.0144  0.5247
 2478SOL    HW2 9910   0.350   1.079   4.822 -0.2692  0.4943  0.1809
 2478SOL    HW3 9911   0.209   1.025   4.837  0.4003 -0.9288  1.4285
 2478SOL    MW4 9912   0.271   1.082   4.860 -0.0876 -0.0467  0.5986
 2479SOL     OW 9913   3.391   3.098   4.191  0.1064  0.8036 -0.1620
 2479SOL    HW2 9914   3.314   3.152   4.208 -0.1438  0.5639 -0.5359
 2479SOL    HW3 9915   3.371   3.013   4.230 -0.2799  0.3962 -1.2314
 2479SOL    MW4 9916   3.378   3.094   4.198  0.0224  0.7183 -0.3524
 2480SOL     OW 9917   4.434   3.562   4.142  0.0019  0.0543  0.1539
 2480SOL    HW2 9918   4.348   3.520   4.142 -0.2803  0.6069 -0.8225
 2480SOL    HW3 9919   4.477   3.530   4.063  1.0845 -0.9770  1.1491
 2480SOL    MW4 9920   4.429   3.552   4.132  0.1075 -0.0088  0.1564
 2481SOL     OW 9921   1.915   3.484   4.971 -0.0619  0.2363  0.0529
 2481SOL    HW2 9922   1.843   3.462   5.030  1.2618  0.3026  1.7496
 2481SOL    HW3 9923   1.922   3.579   4.976  0.5995  0.1722  0.4815
 2481SOL    MW4 9924   1.907   3.493   4.980  0.2000  0.2366  0.3333
 2482SOL     OW 9925   0.414   3.591   4.159  0.0426  0.1275  0.1595
 2482SOL    HW2 9926   0.330   3.629   4.184  0.9626  2.4436 -0.1760
 2482SOL    HW3 9927   0.397   3.551   4.073 -0.5774  1.1248 -0.1950
 2482SOL    MW4 9928   0.400   3.591   4.151  0.0822  0.5646  0.0685
 2483SOL     OW 9929   3.954   1.420   4.644 -0.0989 -0.0415 -0.3795
 2483SOL    HW2 9930   3.904   1.494   4.610 -1.4697 -0.5661  0.4774
 2483SOL    HW3 9931   3.912   1.343   4.605 -0.1293 -0.4988  0.5579
 2483SOL    MW4 9932   3.942   1.419   4.634 -0.2838 -0.1711 -0.1427
 2484SOL     OW 9933   0.733   2.802   4.232  0.3140 -0.2165  0.0962
 2484SOL    HW2 9934   0.797   2.792   4.302 -0.9702  0.1256  1.3515
 2484SOL    HW3 9935   0.669   2.733   4.248  0.8318 -1.1517 -1.6962
 2484SOL    MW4 9936   0.733   2.791   4.243  0.2129 -0.2948  0.0253
 2485SOL     OW 9937   2.799   0.306   4.639 -0.1584  0.0663 -0.0351
 2485SOL    HW2 9938   2.748   0.256   4.575  1.4015 -0.1885 -1.0963
 2485SOL    HW3 9939   2.833   0.381   4.590 -0.6441  1.0053  1.0112
 2485SOL    MW4 9940   2.796   0.310   4.624 -0.0167  0.1566 -0.0371
 2486SOL     OW 9941   0.683   0.004   3.871  0.2574 -0.0916  0.7221
 2486SOL    HW2 9942   0.625   0.047   3.809 -1.3099  0.0672  2.2413
 2486SOL    HW3 9943   0.656  -0.088   3.870  1.1905 -0.3599  0.1114
 2486SOL    MW4 9944   0.672  -0.002   3.863  0.1737 -0.1060  0.8419
 2487SOL     OW 9945   1.240   4.227   4.563  0.0195  0.0506 -0.2723
 2487SOL    HW2 9946   1.291   4.151   4.536  0.9777  0.0875  1.4039
 2487SOL    HW3 9947   1.300   4.301   4.549 -0.6318  0.4278 -1.1330
 2487SOL    MW4 9948   1.255   4.227   4.557  0.0600  0.1052 -0.1647
 2488SOL     OW 9949   0.548   4.297   4.555  0.1686  0.3409 -0.2286
 2488SOL    HW2 9950   0.562   4.318   4.463  0.7142  1.3552  0.0828
 2488SOL    HW3 9951   0.478   4.356   4.583  0.7732  0.8175  0.2948
 2488SOL    MW4 9952   0.541   4.307   4.547  0.3203  0.5376 -0.1185
 2489SOL     OW 9953   0.637   1.270   4.613  0.7961 -0.3676  0.2445
 2489SOL    HW2 9954   0.588   1.344   4.648  1.0657  0.0049 -0.1602
 2489SOL    HW3 9955   0.608   1.195   4.665  0.2638 -0.0391  0.4258
 2489SOL    MW4 9956   0.626   1.270   4.624  0.7614 -0.2751  0.2150
 2490SOL     OW 9957   2.231   1.668   4.260  0.1653  0.3190  0.0109
 2490SOL    HW2 9958   2.160   1.627   4.210  0.5091  0.8310 -0.9040
 2490SOL    HW3 9959   2.223   1.631   4.348 -0.1999 -0.8833 -0.5253
 2490SOL    MW4 9960   2.220   1.658   4.265  0.1625  0.2279 -0.1806
 2491SOL     OW 9961   1.043   0.015   4.112 -0.1539  0.1531 -0.2623
 2491SOL    HW2 9962   1.064  -0.071   4.147  1.7215  1.0349  0.8767
 2491SOL    HW3 9963   1.075   0.012   4.021  0.7829 -0.0462  0.0676
 2491SOL    MW4 9964   1.050   0.003   4.105  0.2171  0.2431 -0.0685
 2492SOL     OW 9965   0.895   2.775   4.456 -0.4810  0.2414  0.1337
 2492SOL    HW2 9966   0.828   2.820   4.508 -0.6404 -1.2453  1.2539
 2492SOL    HW3 9967   0.902   2.688   4.496  0.3419 -0.4812 -1.5215
 2492SOL    MW4 9968   0.887   2.769   4.468 -0.3934 -0.0501  0.0631
 2493SOL     OW 9969   0.298   2.034   4.282 -0.0041  0.2052  0.3610
 2493SOL    HW2 9970   0.225   2.003   4.228 -0.6633  1.6746  0.3816
 2493SOL    HW3 9971   0.376   2.017   4.228 -0.4212 -0.6503  0.0151
 2493SOL    MW4 9972   0.299   2.028   4.267 -0.1461  0.2862  0.3181
 2494SOL     OW 9973   0.171   0.635   4.072 -0.3065  0.1435  0.1365
 2494SOL    HW2 9974   0.186   0.689   3.995 -1.2902 -0.1724 -0.2906
 2494SOL    HW3 9975   0.257   0.601   4.096  0.1558  1.0645 -0.2125
 2494SOL    MW4 9976   0.184   0.637   4.065 -0.3753  0.2233  0.0341
 2495SOL     OW 9977   0.248   0.003   4.584 -0.0217 -0.0571  0.2126
 2495SOL    HW2 9978   0.154  -0.014   4.575 -0.0161  0.1173 -0.1888
 2495SOL    HW3 9979   0.277   0.022   4.495  0.0495  1.6656  0.5789
 2495SOL    MW4 9980   0.239   0.003   4.571 -0.0115  0.1932  0.2080
 2496SOL     OW 9981   1.466   2.001   4.730 -0.6133 -0.2717 -0.3994
 2496SOL    HW2 9982   1.435   2.018   4.641 -0.6447 -1.1764 -0.5714
 2496SOL    HW3 9983   1.397   2.036   4.787 -0.3519  0.7743 -0.7187
 2496SOL    MW4 9984   1.453   2.008   4.726 -0.5830 -0.2531 -0.4642
 2497SOL     OW 9985   0.472   2.600   4.603 -0.0478  0.1039 -0.3644
 2497SOL    HW2 9986   0.485   2.687   4.639 -0.4222  0.6927 -1.6321
 2497SOL    HW3 9987   0.492   2.609   4.510 -0.6308 -1.0378 -0.6124
 2497SOL    MW4 9988   0.477   2.612   4.595 -0.1741  0.0309 -0.5644
 2498SOL     OW 9989   0.737   1.544   4.843  0.0753  0.0196  0.0146
 2498SOL    HW2 9990   0.737   1.537   4.939 -0.0502  1.3100  0.1137
 2498SOL    HW3 9991   0.807   1.484   4.815  0.3782 -0.0732  0.9363
 2498SOL    MW4 9992   0.746   1.535   4.852  0.0987  0.1776  0.1493
 2499SOL     OW 9993   4.479   0.913   4.275  0.1249  0.0053  0.0121
 2499SOL    HW2 9994   4.483   1.000   4.234 -1.1641 -0.0159 -0.1613
 2499SOL    HW3 9995   4.404   0.871   4.234 -0.2438 -0.5897  1.3007
 2499SOL    MW4 9996   4.470   0.919   4.264 -0.0938 -0.0760  0.1592
 2500SOL     OW 9997   1.802   2.319   4.453  0.4618  0.6260 -0.0667
 2500SOL    HW2 9998   1.869   2.360   4.507  0.7242  1.5213 -1.0564
 2500SOL    HW3 9999   1.788   2.380   4.381 -1.8881  0.7620  0.4587
 2500SOL    MW410000   1.809   2.332   4.451  0.1864  0.7621 -0.1280
 2501SOL     OW10001   0.640   4.657   4.321 -0.4240  0.2428 -0.0041
 2501SOL    HW210002   0.666   4.565   4.314  0.0634  0.2427  1.6793
 2501SOL    HW310003   0.690   4.701   4.252 -0.9223 -0.7879 -1.0539
 2501SOL    MW410004   0.650   4.651   4.311 -0.4254  0.1068  0.0795
 2502SOL     OW10005   0.784   1.774   4.511  0.0654  0.1401 -0.4297
 2502SOL    HW210006   0.767   1.782   4.417 -0.7134 -2.2041 -0.5262
 2502SOL    HW310007   0.854   1.709   4.516 -0.4281 -0.3002  0.6583
 2502SOL    MW410008   0.791   1.766   4.499 -0.1025 -0.2273 -0.2989
 2503SOL     OW10009   1.002   3.628   4.476 -0.1115 -0.3065 -0.2058
 2503SOL    HW210010   1.038   3.626   4.388 -0.1723 -0.5579 -0.2254
 2503SOL    HW310011   1.056   3.692   4.523 -0.8601  0.7566 -0.7687
 2503SOL    MW410012   1.014   3.636   4.471 -0.2183 -0.1994 -0.2827
 2504SOL     OW10013   0.515   2.654   4.339  0.6981  0.7002 -0.0768
 2504SOL    HW210014   0.435   2.661   4.287 -0.2549 -0.4523  1.1693
 2504SOL    HW310015   0.549   2.567   4.319  1.2398  0.9054 -0.0445
 2504SOL    MW410016   0.509   2.644   4.330  0.6438  0.5752  0.0919
 2505SOL     OW10017   0.916   3.475   4.115 -0.0865 -0.5787 -0.2349
 2505SOL    HW210018   0.911   3.458   4.021  0.1130 -1.1592 -0.1472
 2505SOL    HW310019   0.899   3.389   4.155 -0.9789 -0.1784  0.2735
 2505SOL    MW410020   0.913   3.461   4.108 -0.1779 -0.6025 -0.1563
 2506SOL     OW10021   1.366   0.187   4.602  0.1292 -0.0948 -0.0839
 2506SOL    HW210022   1.321   0.111   4.565  0.0381 -0.2082  0.2647
 2506SOL    HW310023   1.387   0.162   4.692 -0.3240  0.4783  0.1802
 2506SOL    MW410024   1.363   0.173   4.609  0.0574 -0.0342 -0.0031
 2507SOL     OW10025   0.160   3.710   4.233 -0.0740 -0.0684  0.2297
 2507SOL    HW210026   0.160   3.728   4.327 -0.7104  0.2306  0.1732
 2507SOL    HW310027   0.077   3.666   4.216 -0.6547  1.2554 -0.4480
 2507SOL    MW410028   0.149   3.707   4.243 -0.2346  0.1457  0.1329
 2508SOL     OW10029   0.665   3.923   4.117  0.0827 -0.4129 -0.0467
 2508SOL    HW210030   0.677   3.830   4.137 -0.1899 -0.6253 -0.8613
 2508SOL    HW310031   0.594   3.951   4.175 -0.8843 -1.0916 -0.8881
 2508SOL    MW410032   0.657   3.914   4.128 -0.0809 -0.5305 -0.2652
 2509SOL     OW10033   0.208   4.552   4.142  0.4051  0.2393  0.3428
 2509SOL    HW210034   0.197   4.468   4.188 -0.3087 -0.3174 -0.8027
 2509SOL    HW310035   0.146   4.611   4.185 -1.1706 -0.6192 -0.6822
 2509SOL    MW410036   0.198   4.548   4.154  0.1030  0.0526  0.0565
 2510SOL     OW10037   2.640   4.014   4.547 -0.0525 -0.5053 -0.1096
 2510SOL    HW210038   2.656   4.093   4.599  0.8125 -1.5090  1.1654
 2510SOL    HW310039   2.545   4.004   4.547 -0.1276  0.1540  0.2965
 2510SOL    MW410040   2.629   4.023   4.554  0.0517 -0.5507  0.1122
 2511SOL     OW10041   2.463   1.101   4.958 -0.2368 -0.6977 -0.4101
 2511SOL    HW210042   2.436   1.147   4.879 -0.0934 -1.3047 -0.8121
 2511SOL    HW310043   2.381   1.082   5.004 -0.2956 -0.0133 -0.2180
 2511SOL    MW410044   2.449   1.105   4.954 -0.2257 -0.6875 -0.4378
 2512SOL     OW10045   0.321   1.933   4.545  0.0657  0.0909  0.3104
 2512SOL    HW210046   0.308   1.949   4.451  0.4271 -2.7786 -0.2914
 2512SOL    HW310047   0.351   1.842   4.549 -0.9384 -0.1505  3.2932
 2512SOL    MW410048   0.323   1.923   4.533 -0.0191 -0.3196  0.6245
 2513SOL     OW10049   3.577   4.636   4.515  0.4681  0.6274  0.1605
 2513SOL    HW210050   3.594   4.670   4.427  1.7738  0.5475  0.3741
 2513SOL    HW310051   3.599   4.709   4.573 -1.4390  1.0496  0.3685
 2513SOL    MW410052   3.582   4.650   4.511  0.3888  0.6725  0.2161
 2514SOL     OW10053   1.147   1.646   4.099  0.1644  0.0111 -0.0750
 2514SOL    HW210054   1.121   1.602   4.180  0.3841  2.0568  1.1444
 2514SOL    HW310055   1.090   1.723   4.095 -1.4389 -1.2133 -3.0670
 2514SOL    MW410056   1.136   1.650   4.109 -0.0182  0.1194 -0.3089
 2515SOL     OW10057   0.835   0.374   4.084  0.0566 -0.1721  0.1482
 2515SOL    HW210058   0.791   0.421   4.155  0.8253  0.2434  0.3462
 2515SOL    HW310059   0.810   0.283   4.097 -0.8642  0.0742  0.1819
 2515SOL    MW410060   0.826   0.368   4.095  0.0366 -0.0848  0.1788
 2516SOL     OW10061   1.246   4.641   4.484 -0.2027 -0.3153 -0.0921
 2516SOL    HW210062   1.288   4.556   4.471 -0.4690 -0.5854  0.7722
 2516SOL    HW310063   1.175   4.623   4.545  0.4688  0.7441  1.0319
 2516SOL    MW410064   1.242   4.628   4.490 -0.1492 -0.2111  0.1702
 2517SOL     OW10065   0.075   4.209   4.746  0.2405  0.2114  0.0597
 2517SOL    HW210066   0.106   4.120   4.758  0.8406  0.2748 -1.0160
 2517SOL    HW310067   0.150   4.257   4.711  0.0121  1.2123  0.9031
 2517SOL    MW410068   0.089   4.204   4.743  0.2896  0.3518  0.0290
 2518SOL     OW10069   1.927   1.381   4.851  0.3090  0.0636  0.3930
 2518SOL    HW210070   1.967   1.427   4.777 -0.5060  1.3699  0.7490
 2518SOL    HW310071   1.834   1.378   4.831  0.3001 -1.1017  0.5643
 2518SOL    MW410072   1.920   1.387   4.839  0.2003  0.0822  0.4626
 2519SOL     OW10073   1.388   2.008   4.451 -0.1576  0.0386  0.0555
 2519SOL    HW210074   1.379   1.913   4.450  1.5285 -0.1538  1.1201
 2519SOL    HW310075   1.469   2.026   4.403 -0.2788  0.9096  0.1605
 2519SOL    MW410076   1.397   1.998   4.445  0.0489  0.1281  0.2098
 2520SOL     OW10077   0.725   1.813   4.234  0.1106 -0.2321  0.2903
 2520SOL    HW210078   0.808   1.849   4.203 -0.1419 -0.1564 -0.3038
 2520SOL    HW310079   0.658   1.861   4.186 -0.2090 -2.4077 -1.5471
 2520SOL    MW410080   0.727   1.824   4.224  0.0351 -0.5091 -0.0305
 2521SOL     OW10081   1.509   3.100   4.616 -0.0125  0.0197 -0.1869
 2521SOL    HW210082   1.520   3.051   4.534  1.9936  0.7243 -0.3606
 2521SOL    HW310083   1.462   3.179   4.591 -0.0144 -0.0963 -0.5500
 2521SOL    MW410084   1.504   3.104   4.602  0.2519  0.0973 -0.2577
 2522SOL     OW10085   1.348   2.034   4.106 -0.4384 -0.0653  0.0542
 2522SOL    HW210086   1.380   1.949   4.135 -0.8323 -0.8642 -1.7584
 2522SOL    HW310087   1.265   2.047   4.153  0.2112 -0.1304  1.2192
 2522SOL    MW410088   1.341   2.025   4.116 -0.4046 -0.1793 -0.0313
 2523SOL     OW10089   2.691   1.985   4.613  0.3955 -0.0324 -0.2456
 2523SOL    HW210090   2.704   2.034   4.532  3.2002  0.6108  0.5267
 2523SOL    HW310091   2.722   1.897   4.593  0.7995  0.0467  0.0196
 2523SOL    MW410092   2.697   1.980   4.600  0.8188  0.0629 -0.1087
 2524SOL     OW10093   2.357   1.984   4.553  0.2551 -0.1898 -0.4080
 2524SOL    HW210094   2.415   2.033   4.611  0.1991  0.2720 -0.7402
 2524SOL    HW310095   2.369   2.024   4.467 -0.8634  0.1955 -0.4040
 2524SOL    MW410096   2.366   1.996   4.550  0.1001 -0.0781 -0.4513
 2525SOL     OW10097   1.326   2.414   4.259 -0.0906 -0.5097 -0.3158
 2525SOL    HW210098   1.394   2.367   4.211  0.1572  0.4519 -0.9289
 2525SOL    HW310099   1.366   2.438   4.342  0.0926 -0.5328 -0.3987
 2525SOL    MW410100   1.340   2.411   4.264 -0.0337 -0.3859 -0.4076
 2526SOL     OW10101   0.312   2.685   4.161  0.2639 -0.2938 -0.0502
 2526SOL    HW210102   0.267   2.603   4.142 -1.0510  0.1908  0.8707
 2526SOL    HW310103   0.372   2.697   4.088 -1.0697 -0.9900 -1.2987
 2526SOL    MW410104   0.314   2.676   4.149 -0.0855 -0.3217 -0.0934
 2527SOL     OW10105   1.386   3.543   4.466  0.0370 -0.4246 -0.0378
 2527SOL    HW210106   1.437   3.561   4.387 -0.6550 -1.3706 -0.7180
 2527SOL    HW310107   1.450   3.544   4.537  0.4079  2.0859 -0.3661
 2527SOL    MW410108   1.401   3.545   4.465 -0.0054 -0.2182 -0.1708
 2528SOL     OW10109   1.766   3.160   4.963  0.4441  0.0896 -0.5357
 2528SOL    HW210110   1.770   3.069   4.935  0.7558  0.0813 -0.4743
 2528SOL    HW310111   1.776   3.210   4.883 -2.9555  0.1025 -1.0263
 2528SOL    MW410112   1.768   3.155   4.949  0.0367  0.0902 -0.5923
 2529SOL     OW10113   1.764   3.206   4.555  0.0030 -0.2951 -0.3387
 2529SOL    HW210114   1.788   3.267   4.624 -0.3864  1.1474 -1.4404
 2529SOL    HW310115   1.681   3.167   4.584  0.6611 -0.8891  0.7380
 2529SOL    MW410116   1.756   3.209   4.568  0.0384 -0.1832 -0.3420
 2530SOL     OW10117   2.200   0.078   4.166  0.3851  0.2590  0.0456
 2530SOL    HW210118   2.114   0.037   4.163 -0.9365  2.9937 -0.3295
 2530SOL    HW310119   2.261   0.004   4.161 -1.9039 -1.6930 -0.1545
 2530SOL    MW410120   2.197   0.062   4.165 -0.0913  0.3623 -0.0303
 2531SOL     OW10121   1.089   3.678   4.215 -0.3025 -0.4761  0.1374
 2531SOL    HW210122   1.024   3.613   4.186  0.1904 -1.3958  1.0946
 2531SOL    HW310123   1.173   3.637   4.197  0.0334  0.6179 -0.8670
 2531SOL    MW410124   1.091   3.664   4.209 -0.1931 -0.4531  0.1311
 2532SOL     OW10125   1.078   3.906   4.081 -0.0023 -0.2522 -0.4559
 2532SOL    HW210126   1.076   3.821   4.126 -0.1126 -1.0259 -1.9164
 2532SOL    HW310127   1.014   3.959   4.129  0.4828 -0.7934  0.8293
 2532SOL    MW410128   1.069   3.902   4.094  0.0472 -0.4257 -0.4790
 2533SOL     OW10129   1.171   0.542   4.414 -0.7973 -0.6735  0.2692
 2533SOL    HW210130   1.101   0.590   4.459  0.4148  1.5503 -0.1727
 2533SOL    HW310131   1.145   0.541   4.322  0.4562  1.5097 -0.1443
 2533SOL    MW410132   1.159   0.548   4.408 -0.4720 -0.0921  0.1563
 2534SOL     OW10133   1.742   0.108   4.228 -0.5494  0.2726  0.4645
 2534SOL    HW210134   1.696   0.135   4.307  0.0384 -0.0597  0.9170
 2534SOL    HW310135   1.763   0.190   4.183  0.3608  0.5276  1.3516
 2534SOL    MW410136   1.739   0.122   4.232 -0.3518  0.2624  0.6412
 2535SOL     OW10137   1.271   0.123   4.246 -0.2639  0.2201  0.5458
 2535SOL    HW210138   1.273   0.070   4.325 -1.5731 -0.1106  0.3708
 2535SOL    HW310139   1.197   0.089   4.196  0.1020  0.9053 -0.4831
 2535SOL    MW410140   1.261   0.112   4.250 -0.3884  0.2669  0.3870
 2536SOL     OW10141   1.597   0.510   4.237  0.1508 -0.1426 -0.1424
 2536SOL    HW210142   1.591   0.535   4.329  0.0268  1.6018 -0.5973
 2536SOL    HW310143   1.590   0.593   4.189  2.0796 -0.8202 -1.6636
 2536SOL    MW410144   1.595   0.524   4.243  0.3890 -0.0019 -0.4031
 2537SOL     OW10145   0.895   0.894   4.189  0.0163 -0.1722 -0.1743
 2537SOL    HW210146   0.969   0.838   4.165 -0.3455 -0.1864 -1.2805
 2537SOL    HW310147   0.818   0.847   4.159 -0.5181 -0.5296  1.6992
 2537SOL    MW410148   0.895   0.880   4.182 -0.1020 -0.2212 -0.0730
 2538SOL     OW10149   0.964   1.142   4.065  0.0333 -0.1443  0.2573
 2538SOL    HW210150   0.918   1.072   4.112  0.0309 -0.7422 -0.6147
 2538SOL    HW310151   1.055   1.112   4.060  0.1887  0.2754  0.5543
 2538SOL    MW410152   0.970   1.129   4.070  0.0535 -0.1678  0.1814
 2539SOL     OW10153   1.110   0.493   4.147  0.0493  0.4274  0.3406
 2539SOL    HW210154   1.179   0.439   4.110 -0.0606  0.2085  0.4557
 2539SOL    HW310155   1.029   0.444   4.132  0.0423  0.1647  1.1831
 2539SOL    MW410156   1.108   0.479   4.140  0.0339  0.3639  0.4669
 2540SOL     OW10157   0.724   3.610   4.457  0.3440 -0.2860 -0.5028
 2540SOL    HW210158   0.717   3.620   4.362 -0.3801  0.0443 -0.4164
 2540SOL    HW310159   0.818   3.606   4.474  0.4603 -1.4720 -1.3483
 2540SOL    MW410160   0.736   3.611   4.447  0.2638 -0.3989 -0.6029
 2541SOL     OW10161   1.359   0.878   4.197  0.0774 -0.2148 -0.0988
 2541SOL    HW210162   1.339   0.965   4.164 -1.3789 -0.3141  0.4741
 2541SOL    HW310163   1.379   0.891   4.290  0.5659 -0.4055 -0.1734
 2541SOL    MW410164   1.359   0.891   4.205 -0.0503 -0.2531 -0.0331
 2542SOL     OW10165   1.687   0.993   4.492  0.3097 -0.1837  0.7779
 2542SOL    HW210166   1.681   1.088   4.493 -2.1379 -0.2933  1.0368
 2542SOL    HW310167   1.720   0.970   4.579  1.3836  0.4320  0.5430
 2542SOL    MW410168   1.690   1.002   4.503  0.1284 -0.1170  0.7811
 2543SOL     OW10169   3.822   1.326   4.905 -0.0449  0.0463  0.3694
 2543SOL    HW210170   3.830   1.410   4.950 -0.3202  0.1402  0.2425
 2543SOL    HW310171   3.861   1.341   4.819  1.4575 -0.4286  0.9504
 2543SOL    MW410172   3.829   1.339   4.900  0.1170 -0.0040  0.4293
 2544SOL     OW10173   4.221   1.415   4.677  0.1008 -0.3469 -0.6826
 2544SOL    HW210174   4.126   1.420   4.669  0.2439  0.9606 -1.8737
 2544SOL    HW310175   4.247   1.501   4.711  0.6710 -1.5083  2.0052
 2544SOL    MW410176   4.212   1.427   4.680  0.1949 -0.3276 -0.4851
 2545SOL     OW10177   0.894   0.961   4.473 -0.1718  0.1055 -0.1996
 2545SOL    HW210178   0.801   0.980   4.471 -0.8231 -2.8034  0.0983
 2545SOL    HW310179   0.917   0.944   4.382  0.2343  1.4532 -0.3609
 2545SOL    MW410180   0.885   0.961   4.461 -0.2041 -0.1005 -0.1816
 2546SOL     OW10181   1.302   1.303   4.327  0.4322  0.1108  0.0798
 2546SOL    HW210182   1.247   1.379   4.342  0.4462  0.2340 -0.4671
 2546SOL    HW310183   1.299   1.254   4.409 -0.6127  0.0310 -0.0102
 2546SOL    MW410184   1.295   1.307   4.340  0.2962  0.1166 -0.0042
 2547SOL     OW10185   0.866   2.828   4.856 -0.0413 -0.1311 -0.4532
 2547SOL    HW210186   0.921   2.751   4.844 -1.3345 -1.3138  0.9801
 2547SOL    HW310187   0.928   2.901   4.857  1.1502 -1.0642 -2.3713
 2547SOL    MW410188   0.882   2.827   4.855 -0.0547 -0.4102 -0.5171
 2548SOL     OW10189   1.212   2.646   4.107  0.2714  0.4218  0.4449
 2548SOL    HW210190   1.212   2.705   4.183 -1.7247 -0.8897  1.5212
 2548SOL    HW310191   1.260   2.569   4.136 -0.4629 -0.0674  0.3802
 2548SOL    MW410192   1.218   2.644   4.121 -0.0888  0.1842  0.5783
 2549SOL     OW10193   1.948   2.737   4.304 -0.2288  0.1084 -0.1858
 2549SOL    HW210194   1.921   2.734   4.395  2.0000 -0.5289  0.4809
 2549SOL    HW310195   1.945   2.830   4.281  0.2670  0.3901  0.8693
 2549SOL    MW410196   1.944   2.749   4.313  0.1307  0.0615  0.0414
 2550SOL     OW10197   2.166   3.539   4.851  0.3993  0.7642  0.1562
 2550SOL    HW210198   2.089   3.492   4.884  1.3756 -0.7152  0.3668
 2550SOL    HW310199   2.148   3.631   4.871 -1.1186  0.3881  0.5911
 2550SOL    MW410200   2.154   3.545   4.858  0.3279  0.5194  0.2413
 2551SOL     OW10201   1.951   3.016   4.635  0.1827 -0.1438  0.4872
 2551SOL    HW210202   1.917   2.940   4.587 -0.5053 -0.8279  2.0182
 2551SOL    HW310203   1.898   3.089   4.604  2.1891  0.1270 -2.5103
 2551SOL    MW410204   1.939   3.015   4.625  0.3567 -0.1983  0.2937
 2552SOL     OW10205   4.248   2.352   4.161 -0.3465  0.0101  0.2124
 2552SOL    HW210206   4.319   2.411   4.184 -0.2642  0.3515 -0.8873
 2552SOL    HW310207   4.169   2.395   4.193  0.0131 -0.8263  2.3104
 2552SOL    MW410208   4.247   2.365   4.168 -0.2882 -0.0552  0.3441
 2553SOL     OW10209   1.766   3.446   4.154  0.2428 -0.3522  0.1287
 2553SOL    HW210210   1.850   3.489   4.169 -0.7829  1.8607 -0.1570
 2553SOL    HW310211   1.750   3.456   4.060 -0.7275  0.0190  0.3265
 2553SOL    MW410212   1.775   3.453   4.144 -0.0206 -0.0112  0.1171
 2554SOL     OW10213   1.501   2.852   4.776 -0.3891  0.0547 -0.0419
 2554SOL    HW210214   1.586   2.874   4.814 -0.5708  1.0042 -0.1728
 2554SOL    HW310215   1.469   2.934   4.740 -0.5229 -0.6983 -1.6660
 2554SOL    MW410216   1.508   2.866   4.776 -0.4307  0.0806 -0.2735
 2555SOL     OW10217   1.089   3.167   4.571  0.2085  0.3158 -0.0532
 2555SOL    HW210218   0.995   3.183   4.573  0.4654  1.9294  0.7360
 2555SOL    HW310219   1.098   3.073   4.560 -1.4884  0.2356 -0.9352
 2555SOL    MW410220   1.078   3.157   4.570  0.0185  0.5181 -0.0654
 2556SOL     OW10221   0.865   4.272   4.156 -0.1002  0.6249  0.7107
 2556SOL    HW210222   0.947   4.310   4.188  0.5023  0.5478 -0.6878
 2556SOL    HW310223   0.872   4.179   4.176  0.2145  0.5955  0.4596
 2556SOL    MW410224   0.877   4.265   4.163  0.0208  0.6108  0.4930
 2557SOL     OW10225   1.334   4.271   4.146  0.1915  0.2589  0.1065
 2557SOL    HW210226   1.404   4.334   4.165 -1.0419  1.9639 -0.8789
 2557SOL    HW310227   1.332   4.267   4.050 -1.5518  0.7654  0.1219
 2557SOL    MW410228   1.343   4.279   4.136 -0.2012  0.5507 -0.0214
 2558SOL     OW10229   1.962   4.620   4.154  0.6906  0.0052  1.1310
 2558SOL    HW210230   1.880   4.661   4.183 -1.5052 -3.4334  0.1510
 2558SOL    HW310231   1.973   4.651   4.064  0.6191  0.7150  1.3628
 2558SOL    MW410232   1.952   4.629   4.146  0.3914 -0.3548  1.0323
 2559SOL     OW10233   1.528   0.001   4.104 -0.0213  0.6489  0.3333
 2559SOL    HW210234   1.602   0.036   4.154  0.2537 -0.6395  0.8299
 2559SOL    HW310235   1.450   0.038   4.146  0.3125  1.6577  0.0781
 2559SOL    MW410236   1.527   0.011   4.116  0.0590  0.6120  0.3652
 2560SOL     OW10237   1.805   0.346   4.118  0.0826  0.1984 -0.2334
 2560SOL    HW210238   1.736   0.394   4.164 -0.4869 -1.4024  0.6420
 2560SOL    HW310239   1.886   0.389   4.145 -0.4535  1.0054  0.1131
 2560SOL    MW410240   1.806   0.358   4.128 -0.0633  0.0937 -0.0722
 2561SOL     OW10241   2.705   0.636   4.903  0.0869  0.4490 -0.2350
 2561SOL    HW210242   2.677   0.603   4.817  0.4427  1.3757 -0.7063
 2561SOL    HW310243   2.630   0.686   4.935 -0.4486 -0.7874  0.4761
 2561SOL    MW410244   2.691   0.638   4.896  0.0632  0.4082 -0.2034
 2562SOL     OW10245   1.978   0.779   4.143 -0.2674 -0.1155 -0.3994
 2562SOL    HW210246   1.905   0.834   4.170 -0.5928 -0.9427  0.4365
 2562SOL    HW310247   1.964   0.696   4.189  1.8108  0.0788  0.6532
 2562SOL    MW410248   1.967   0.775   4.153 -0.0361 -0.1990 -0.1503
 2563SOL     OW10249   1.566   0.738   4.085 -0.0452 -0.3332  0.5034
 2563SOL    HW210250   1.497   0.786   4.132  0.6346  1.1151  0.0499
 2563SOL    HW310251   1.545   0.750   3.993  0.9150  0.3014  0.3573
 2563SOL    MW410252   1.555   0.746   4.079  0.1712 -0.0584  0.4243
 2564SOL     OW10253   1.749   0.913   4.225  0.3300 -0.1361  0.3445
 2564SOL    HW210254   1.730   0.913   4.319 -0.3301 -1.2429  0.2187
 2564SOL    HW310255   1.684   0.854   4.187 -0.7352  1.8884 -1.1024
 2564SOL    MW410256   1.738   0.905   4.232  0.1023 -0.0150  0.1370
 2565SOL     OW10257   1.739   1.965   4.622  0.3744 -0.3242 -0.4346
 2565SOL    HW210258   1.654   1.967   4.667  0.7364  0.2494  0.2325
 2565SOL    HW310259   1.796   2.019   4.676  1.4803 -1.6419 -0.2366
 2565SOL    MW410260   1.735   1.972   4.635  0.5681 -0.4224 -0.3204
 2566SOL     OW10261   1.694   0.746   4.721  0.0002  0.3581 -0.4651
 2566SOL    HW210262   1.726   0.829   4.755  2.6102 -1.3261  1.4003
 2566SOL    HW310263   1.749   0.728   4.645 -0.5298  0.2944 -0.8387
 2566SOL    MW410264   1.705   0.754   4.716  0.2746  0.1275 -0.2683
 2567SOL     OW10265   4.411   1.305   4.841  0.0675 -0.4112  0.1554
 2567SOL    HW210266   4.346   1.330   4.775  0.5129  1.4407  0.3746
 2567SOL    HW310267   4.465   1.384   4.852  1.6736 -1.5633  0.7624
 2567SOL    MW410268   4.410   1.319   4.834  0.3382 -0.3189  0.2644
 2568SOL     OW10269   2.221   1.935   4.178  0.2492 -0.5120 -0.2259
 2568SOL    HW210270   2.233   1.846   4.211 -0.3065 -0.1901  0.8640
 2568SOL    HW310271   2.141   1.966   4.221  0.5756  0.5984 -0.4041
 2568SOL    MW410272   2.212   1.927   4.188  0.2189 -0.3231 -0.1056
 2569SOL     OW10273   1.747   1.914   3.870  0.4257 -0.3820  0.2036
 2569SOL    HW210274   1.769   1.928   3.962  2.2797  1.3558 -0.4792
 2569SOL    HW310275   1.685   1.984   3.849  0.5376 -0.3564 -0.0441
 2569SOL    MW410276   1.742   1.925   3.880  0.6851 -0.1494  0.0809
 2570SOL     OW10277   2.188   2.407   4.242 -0.3163  0.1955 -0.4966
 2570SOL    HW210278   2.268   2.381   4.195 -0.2458 -0.2131 -0.1484
 2570SOL    HW310279   2.207   2.389   4.334 -0.1655  1.7270 -0.2186
 2570SOL    MW410280   2.201   2.401   4.248 -0.2871  0.3437 -0.4140
 2571SOL     OW10281   1.728   2.686   4.136  0.1823 -0.1162 -0.2822
 2571SOL    HW210282   1.807   2.707   4.186 -0.3757  1.8389 -0.1774
 2571SOL    HW310283   1.704   2.598   4.165  1.0751  0.1502  1.3415
 2571SOL    MW410284   1.735   2.677   4.147  0.2265  0.1769 -0.0541
 2572SOL     OW10285   1.576   3.067   4.119  0.3203 -0.1299 -0.1647
 2572SOL    HW210286   1.487   3.101   4.133  0.3400  0.1688 -0.7301
 2572SOL    HW310287   1.632   3.120   4.175  0.0156 -0.9712  0.9379
 2572SOL    MW410288   1.571   3.079   4.128  0.2827 -0.2015 -0.0938
 2573SOL     OW10289   1.460   2.967   4.369  0.6403  0.2603 -0.2161
 2573SOL    HW210290   1.377   2.934   4.335  0.0438  1.7205 -0.2078
 2573SOL    HW310291   1.510   2.992   4.290  1.6184 -1.8564 -0.2930
 2573SOL    MW410292   1.456   2.966   4.354  0.6906  0.1737 -0.2252
 2574SOL     OW10293   2.030   3.076   3.900 -0.1016  0.1384 -0.2757
 2574SOL    HW210294   2.104   3.107   3.848  0.9587 -0.2638  0.9795
 2574SOL    HW310295   2.009   2.990   3.863  0.1843  0.1735 -0.5186
 2574SOL    MW410296   2.037   3.069   3.888  0.0760  0.0900 -0.1422
 2575SOL     OW10297   1.701   3.386   5.118 -0.2209 -0.0547  0.3022
 2575SOL    HW210298   1.627   3.423   5.070  1.1081  1.6005 -0.5520
 2575SOL    HW310299   1.708   3.296   5.086 -1.5048 -0.0562 -0.0129
 2575SOL    MW410300   1.692   3.379   5.107 -0.2150  0.1635  0.1479
 2576SOL     OW10301   2.004   3.545   4.244 -0.3143 -0.0672  0.5116
 2576SOL    HW210302   2.081   3.496   4.215 -0.0879  1.0715 -0.8949
 2576SOL    HW310303   2.031   3.637   4.239 -1.1751  0.2687  1.7820
 2576SOL    MW410304   2.017   3.551   4.240 -0.3980  0.1273  0.4936
 2577SOL     OW10305   2.236   3.413   4.142  0.0163 -0.4737 -0.3836
 2577SOL    HW210306   2.244   3.335   4.198 -1.4471  0.0439  0.5787
 2577SOL    HW310307   2.293   3.478   4.184 -0.4865 -0.3278  0.0773
 2577SOL    MW410308   2.245   3.411   4.155 -0.2431 -0.3862 -0.1958
 2578SOL     OW10309   2.002   3.840   4.218 -0.4637 -0.0212  0.4731
 2578SOL    HW210310   2.007   3.861   4.125  0.7903  1.9659  0.9470
 2578SOL    HW310311   1.927   3.890   4.250  0.3732  0.9847  0.9123
 2578SOL    MW410312   1.993   3.850   4.210 -0.1878  0.3737  0.5935
 2579SOL     OW10313   1.766   4.001   4.275  0.1276  0.0780  0.3124
 2579SOL    HW210314   1.726   4.000   4.362  1.3924  0.0459  0.9051
 2579SOL    HW310315   1.771   4.093   4.252  1.3598  0.1969  1.0192
 2579SOL    MW410316   1.761   4.013   4.284  0.4570  0.0895  0.4838
 2580SOL     OW10317   1.772   4.258   4.205 -0.3019  0.0557  0.2950
 2580SOL    HW210318   1.853   4.296   4.238 -1.4624  2.7342  0.1534
 2580SOL    HW310319   1.780   4.260   4.110 -0.1007 -0.6899  0.2899
 2580SOL    MW410320   1.783   4.263   4.197 -0.4285  0.3108  0.2757
 2581SOL     OW10321   0.772   1.545   4.138  0.5065  0.5408  0.6528
 2581SOL    HW210322   0.748   1.635   4.160 -0.5802  0.1611  1.0825
 2581SOL    HW310323   0.725   1.528   4.057 -1.1721 -0.3937  1.7850
 2581SOL    MW410324   0.762   1.555   4.130  0.1416  0.3674  0.8589
 2582SOL     OW10325   2.955   4.216   4.593  0.3171 -0.4537 -0.0128
 2582SOL    HW210326   3.014   4.227   4.667 -0.2533 -0.5890  0.4632
 2582SOL    HW310327   3.009   4.178   4.524  0.4369 -1.9466  0.8996
 2582SOL    MW410328   2.970   4.213   4.593  0.2576 -0.6685  0.1704
 2583SOL     OW10329   2.446   4.584   4.182 -0.0836  0.1512  0.2538
 2583SOL    HW210330   2.521   4.642   4.189 -0.8430  1.1918 -0.0871
 2583SOL    HW310331   2.472   4.506   4.230  0.9113  0.8076  0.8123
 2583SOL    MW410332   2.459   4.581   4.190 -0.0525  0.3751  0.2825
 2584SOL     OW10333   2.011   0.494   4.232  0.0011  0.0804 -0.0117
 2584SOL    HW210334   2.014   0.478   4.326 -0.6334 -0.4670 -0.0799
 2584SOL    HW310335   2.094   0.459   4.199  0.3411  0.5136  0.3766
 2584SOL    MW410336   2.023   0.487   4.240 -0.0378  0.0654  0.0305
 2585SOL     OW10337   2.475   0.492   4.227 -0.3742 -0.2413  0.1796
 2585SOL    HW210338   2.553   0.460   4.182  0.6211  0.5828  1.2771
 2585SOL    HW310339   2.404   0.435   4.197  0.0202  0.9989 -3.2828
 2585SOL    MW410340   2.476   0.480   4.217 -0.1909  0.0311 -0.1324
 2586SOL     OW10341   2.423   0.779   4.178  0.0444 -0.1483 -0.0549
 2586SOL    HW210342   2.440   0.685   4.190 -0.3642  0.0012  1.8299
 2586SOL    HW310343   2.415   0.789   4.083 -0.4544 -2.1200 -0.2626
 2586SOL    MW410344   2.424   0.768   4.167 -0.0753 -0.3887  0.1664
 2587SOL     OW10345   2.200   0.888   4.293 -0.4797  0.1296 -0.1096
 2587SOL    HW210346   2.282   0.850   4.261  0.0722 -0.2397  1.7039
 2587SOL    HW310347   2.132   0.844   4.242  0.3728 -0.5133 -0.7030
 2587SOL    MW410348   2.202   0.877   4.282 -0.2944 -0.0039  0.0514
 2588SOL     OW10349   1.584   1.337   4.278  0.0533 -0.5549 -0.3307
 2588SOL    HW210350   1.491   1.335   4.300 -0.1973 -2.0654 -1.4544
 2588SOL    HW310351   1.596   1.420   4.233 -0.2916  0.6378  1.7402
 2588SOL    MW410352   1.574   1.348   4.275 -0.0253 -0.5968 -0.2057
 2589SOL     OW10353   2.313   1.561   4.501 -0.8364  0.6090 -0.2263
 2589SOL    HW210354   2.368   1.630   4.539  0.2106  0.8885 -2.2186
 2589SOL    HW310355   2.369   1.484   4.500 -1.3527  0.2247  0.1301
 2589SOL    MW410356   2.327   1.560   4.506 -0.7664  0.5952 -0.4421
 2590SOL     OW10357   2.481   1.554   4.204  0.5126  0.2525 -0.6313
 2590SOL    HW210358   2.399   1.597   4.229  0.5285 -0.4861  0.7460
 2590SOL    HW310359   2.473   1.539   4.110 -2.1594 -2.3512 -0.0617
 2590SOL    MW410360   2.469   1.558   4.195  0.1622 -0.1885 -0.3744
 2591SOL     OW10361   1.835   2.760   4.550 -0.0932  0.0875  0.2874
 2591SOL    HW210362   1.856   2.705   4.625 -1.2743  0.5066  0.9498
 2591SOL    HW310363   1.739   2.756   4.543 -0.2148  2.0580  0.3694
 2591SOL    MW410364   1.825   2.752   4.559 -0.2651  0.4028  0.3856
 2592SOL     OW10365   1.984   1.555   4.129  0.3125 -0.2497 -0.0175
 2592SOL    HW210366   2.009   1.467   4.159  2.8804  0.0099 -1.2834
 2592SOL    HW310367   1.985   1.549   4.034  0.6837  1.2081 -0.1057
 2592SOL    MW410368   1.987   1.542   4.121  0.7003 -0.0231 -0.1961
 2593SOL     OW10369   2.432   2.317   4.152 -0.0275  0.0984 -0.0682
 2593SOL    HW210370   2.440   2.299   4.059  0.7663  1.0935 -0.2005
 2593SOL    HW310371   2.443   2.232   4.194  1.2735 -0.1087 -0.8061
 2593SOL    MW410372   2.434   2.303   4.145  0.2489  0.2023 -0.1830
 2594SOL     OW10373   2.639   2.481   4.262  0.1014  0.2105 -0.1252
 2594SOL    HW210374   2.577   2.415   4.233 -0.7909  2.0040 -2.4645
 2594SOL    HW310375   2.725   2.446   4.238 -0.3138 -0.3982 -0.7275
 2594SOL    MW410376   2.642   2.468   4.255 -0.0711  0.3668 -0.5133
 2595SOL     OW10377   2.455   1.267   4.231  0.0959  0.1707 -0.2053
 2595SOL    HW210378   2.455   1.358   4.204 -0.6943  0.3389  0.3290
 2595SOL    HW310379   2.543   1.235   4.212  0.2038  0.8861 -0.9099
 2595SOL    MW410380   2.466   1.275   4.225  0.0059  0.2873 -0.2278
 2596SOL     OW10381   2.184   2.689   4.160  0.0392 -0.5303 -0.0517
 2596SOL    HW210382   2.105   2.694   4.214  0.1407 -0.7576  0.1201
 2596SOL    HW310383   2.216   2.600   4.173  0.2960 -0.4551 -0.1647
 2596SOL    MW410384   2.178   2.678   4.169  0.0864 -0.5504 -0.0439
 2597SOL     OW10385   1.979   3.012   4.192  0.4704 -0.2288 -0.3355
 2597SOL    HW210386   1.916   3.074   4.228  1.2715 -0.0558  0.7827
 2597SOL    HW310387   2.001   3.048   4.106 -0.4413  0.0680 -0.4499
 2597SOL    MW410388   1.973   3.025   4.185  0.4558 -0.1669 -0.2031
 2598SOL     OW10389   2.581   3.023   4.147 -0.2057  0.6563  0.3298
 2598SOL    HW210390   2.495   2.988   4.172 -0.3358  0.2460 -0.6497
 2598SOL    HW310391   2.637   2.946   4.141  0.1779  0.9034  0.7625
 2598SOL    MW410392   2.577   3.008   4.149 -0.1723  0.6347  0.2576
 2599SOL     OW10393   2.409   3.600   4.236  0.4439 -0.5193  0.1604
 2599SOL    HW210394   2.403   3.695   4.223  0.3637 -0.3477  1.3562
 2599SOL    HW310395   2.491   3.575   4.194 -0.4492 -0.2203 -1.7898
 2599SOL    MW410396   2.419   3.610   4.229  0.3155 -0.4572  0.0608
 2600SOL     OW10397   2.898   4.477   4.500  0.0641  0.7271 -0.3090
 2600SOL    HW210398   2.924   4.392   4.536  0.9347  0.9219 -0.4731
 2600SOL    HW310399   2.806   4.486   4.525  0.2322  0.1681  0.5473
 2600SOL    MW410400   2.889   4.467   4.508  0.2011  0.6791 -0.2177
 2601SOL     OW10401   0.513   1.239   4.194 -0.0418 -0.0904 -0.4244
 2601SOL    HW210402   0.583   1.214   4.255  0.2883  1.8412  0.0245
 2601SOL    HW310403   0.441   1.266   4.250 -1.3010 -2.3520 -0.8848
 2601SOL    MW410404   0.513   1.240   4.209 -0.1644 -0.1339 -0.4259
 2602SOL     OW10405   2.461   3.865   4.174 -0.1100 -0.4180  0.0945
 2602SOL    HW210406   2.545   3.894   4.209 -0.4190  0.2050  0.3217
 2602SOL    HW310407   2.470   3.876   4.079  0.2395 -0.8159  0.0807
 2602SOL    MW410408   2.473   3.870   4.166 -0.1047 -0.3883  0.1227
 2603SOL     OW10409   2.238   3.976   4.293 -0.5258  0.2523  0.2997
 2603SOL    HW210410   2.319   3.938   4.258 -0.2164  0.7171  0.4922
 2603SOL    HW310411   2.168   3.933   4.245 -0.1254  0.5439 -0.5692
 2603SOL    MW410412   2.240   3.965   4.282 -0.4321  0.3521  0.2104
 2604SOL     OW10413   2.236   4.241   4.216 -0.0777 -0.1007 -0.0332
 2604SOL    HW210414   2.226   4.148   4.235 -0.2841  0.1294  1.0036
 2604SOL    HW310415   2.157   4.281   4.250  0.1878  0.5095 -0.1281
 2604SOL    MW410416   2.224   4.234   4.223 -0.0699  0.0102  0.0911
 2605SOL     OW10417   2.481   4.314   4.325  0.3941  0.1804 -0.0129
 2605SOL    HW210418   2.400   4.280   4.289  0.9341 -2.2338  0.9275
 2605SOL    HW310419   2.548   4.292   4.259  0.4584  1.2310 -0.3102
 2605SOL    MW410420   2.479   4.307   4.311  0.4739  0.0005  0.0720
 2606SOL     OW10421   2.942   0.002   4.143 -0.6434  0.0064  0.3679
 2606SOL    HW210422   3.005   0.037   4.206 -0.8203  0.8289  0.0880
 2606SOL    HW310423   2.938  -0.092   4.163  1.4782 -0.2705 -0.2910
 2606SOL    MW410424   2.950  -0.006   4.154 -0.3868  0.0784  0.2440
 2607SOL     OW10425   2.676   0.114   4.163  0.3068  1.0362 -0.1483
 2607SOL    HW210426   2.761   0.074   4.148 -0.7477 -2.3401  2.2762
 2607SOL    HW310427   2.684   0.202   4.126  4.1281  0.0923 -1.8032
 2607SOL    MW410428   2.688   0.121   4.156  0.6718  0.4662 -0.0467
 2608SOL     OW10429   2.713   0.387   4.114  0.4502  0.5512  0.1829
 2608SOL    HW210430   2.780   0.441   4.156  0.8239  1.2664 -1.2874
 2608SOL    HW310431   2.729   0.397   4.020 -1.5415  0.4886 -0.1896
 2608SOL    MW410432   2.724   0.395   4.107  0.2368  0.6373 -0.0602
 2609SOL     OW10433   2.920   0.515   4.252 -0.0070  0.3137  0.2857
 2609SOL    HW210434   2.920   0.529   4.346  0.2732  0.6251  0.2434
 2609SOL    HW310435   2.916   0.604   4.215 -0.6938  0.1702  0.0053
 2609SOL    MW410436   2.920   0.529   4.259 -0.0606  0.3358  0.2431
 2610SOL     OW10437   2.871   0.771   4.133 -0.2398 -0.4746 -0.0849
 2610SOL    HW210438   2.928   0.837   4.173 -0.6974 -0.6248  0.8026
 2610SOL    HW310439   2.891   0.777   4.039  0.1833  0.4844  0.0604
 2610SOL    MW410440   2.881   0.780   4.126 -0.2444 -0.3679  0.0514
 2611SOL     OW10441   2.005   1.125   4.927 -0.1650  0.3349 -0.4944
 2611SOL    HW210442   1.977   1.216   4.931 -0.1359  0.3853 -1.2990
 2611SOL    HW310443   2.037   1.114   4.838  1.6905  0.0593  0.1945
 2611SOL    MW410444   2.005   1.135   4.916  0.0836  0.3052 -0.5096
 2612SOL     OW10445   2.708   1.156   4.148 -0.0794  0.1804  0.5561
 2612SOL    HW210446   2.705   1.074   4.197  1.7594 -0.1167  0.1792
 2612SOL    HW310447   2.706   1.130   4.056  1.4317  0.5148  0.4262
 2612SOL    MW410448   2.707   1.142   4.142  0.3626  0.1854  0.4892
 2613SOL     OW10449   2.900   1.340   4.243 -0.2703  0.1918 -0.6982
 2613SOL    HW210450   2.827   1.279   4.230 -0.4357  0.2556 -0.1052
 2613SOL    HW310451   2.977   1.291   4.214 -0.0406 -1.2957  2.1762
 2613SOL    MW410452   2.901   1.325   4.238 -0.2618  0.0040 -0.2407
 2614SOL     OW10453   1.785   0.341   4.623  0.2893  0.3975 -0.1909
 2614SOL    HW210454   1.825   0.282   4.688  1.0704  0.5232 -0.5518
 2614SOL    HW310455   1.714   0.384   4.671 -1.2993 -1.9762 -0.3517
 2614SOL    MW410456   1.781   0.339   4.638  0.1828  0.1009 -0.2597
 2615SOL     OW10457   2.920   1.619   4.163 -0.0938 -0.1831 -0.3043
 2615SOL    HW210458   2.892   1.534   4.197  0.0150  0.0252  0.3241
 2615SOL    HW310459   3.002   1.638   4.209 -0.3932  0.5003 -0.0306
 2615SOL    MW410460   2.927   1.610   4.174 -0.1189 -0.0654 -0.1853
 2616SOL     OW10461   2.635   1.976   4.126  0.0973  0.1826  0.0677
 2616SOL    HW210462   2.650   1.888   4.162 -0.3300 -0.0585 -0.3321
 2616SOL    HW310463   2.630   1.962   4.031  1.8811  0.9135 -0.1408
 2616SOL    MW410464   2.636   1.962   4.118  0.2763  0.2472 -0.0126
 2617SOL     OW10465   2.429   2.089   4.286  0.1473 -0.1023 -0.1349
 2617SOL    HW210466   2.510   2.053   4.250 -0.1682  0.9845 -2.0157
 2617SOL    HW310467   2.360   2.040   4.241 -0.2470  0.1941  0.1478
 2617SOL    MW410468   2.430   2.078   4.275  0.0537  0.0802 -0.3458
 2618SOL     OW10469   2.931   1.546   4.580 -0.1316  0.1785  0.6948
 2618SOL    HW210470   2.952   1.456   4.554 -1.6957  0.1097 -0.4068
 2618SOL    HW310471   2.992   1.565   4.651  0.7216 -1.4883  0.4409
 2618SOL    MW410472   2.942   1.536   4.586 -0.2254 -0.0505  0.5160
 2619SOL     OW10473   3.740   2.493   4.603 -0.5749 -0.4103  0.5075
 2619SOL    HW210474   3.723   2.410   4.647 -0.4664 -1.4073 -1.2867
 2619SOL    HW310475   3.817   2.477   4.549 -0.3142  0.9741  0.4534
 2619SOL    MW410476   3.748   2.480   4.602 -0.5262 -0.3592  0.2636
 2620SOL     OW10477   0.668   3.053   4.120 -0.7309  0.1019  0.7620
 2620SOL    HW210478   0.733   3.111   4.159  0.6087 -0.2157 -0.9592
 2620SOL    HW310479   0.690   2.966   4.154 -0.6151  0.0814  0.6339
 2620SOL    MW410480   0.679   3.049   4.130 -0.5389  0.0573  0.5180
 2621SOL     OW10481   2.921   3.069   4.190 -0.0156  0.1078  0.2018
 2621SOL    HW210482   2.909   2.995   4.249  1.8074  0.0247  0.4919
 2621SOL    HW310483   2.849   3.128   4.211  0.0115 -0.4072  1.7909
 2621SOL    MW410484   2.910   3.067   4.201  0.2285  0.0289  0.4497
 2622SOL     OW10485   2.703   3.240   4.255  0.0225  0.5026 -0.0245
 2622SOL    HW210486   2.647   3.171   4.220 -0.5104  1.7596 -1.6784
 2622SOL    HW310487   2.679   3.246   4.348 -0.8587 -0.6143 -0.1710
 2622SOL    MW410488   2.693   3.232   4.263 -0.1641  0.5211 -0.2620
 2623SOL     OW10489   2.670   3.495   4.161 -0.3826 -0.2056  0.0221
 2623SOL    HW210490   2.670   3.404   4.190  5.3766 -0.2880  0.2220
 2623SOL    HW310491   2.693   3.490   4.068  1.1918  1.0662  0.3287
 2623SOL    MW410492   2.673   3.482   4.152  0.5850 -0.0487  0.0890
 2624SOL     OW10493   2.924   3.572   4.231  0.1815  0.5390  0.2190
 2624SOL    HW210494   2.837   3.540   4.209  0.7846 -0.8507 -0.1918
 2624SOL    HW310495   2.925   3.578   4.326 -0.7193  1.6302  0.1762
 2624SOL    MW410496   2.913   3.569   4.241  0.1423  0.4996  0.1591
 2625SOL     OW10497   4.042   0.375   4.138  0.0235 -0.5684  0.6617
 2625SOL    HW210498   4.117   0.402   4.191 -0.9362  0.0909  1.7326
 2625SOL    HW310499   3.967   0.421   4.178 -0.8906 -0.9479 -0.5836
 2625SOL    MW410500   4.042   0.384   4.150 -0.2237 -0.5315  0.6387
 2626SOL     OW10501   2.931   3.834   4.154  0.0128 -0.5286  0.1035
 2626SOL    HW210502   2.862   3.873   4.207  0.7610 -0.8627  1.3395
 2626SOL    HW310503   2.924   3.740   4.172 -0.6941 -0.8198 -1.5611
 2626SOL    MW410504   2.921   3.826   4.163  0.0182 -0.6111  0.0469
 2627SOL     OW10505   2.722   3.975   4.260  0.0333 -0.5754  0.1777
 2627SOL    HW210506   2.690   3.991   4.348 -2.8805 -0.2475 -0.8802
 2627SOL    HW310507   2.722   4.062   4.218 -0.5862 -1.0123 -0.7542
 2627SOL    MW410508   2.718   3.989   4.266 -0.4329 -0.5898 -0.0849
 2628SOL     OW10509   2.708   4.231   4.158  0.1185  0.6201 -0.2566
 2628SOL    HW210510   2.696   4.239   4.063  2.6280 -0.7609 -0.7228
 2628SOL    HW310511   2.782   4.287   4.178  0.8437 -0.5945  0.5562
 2628SOL    MW410512   2.716   4.239   4.148  0.5453  0.2777 -0.2108
 2629SOL     OW10513   3.133   4.545   4.890 -0.0488  0.4489 -0.1775
 2629SOL    HW210514   3.124   4.607   4.818  1.6915  1.5543  0.5495
 2629SOL    HW310515   3.196   4.584   4.949 -1.6328 -0.3254  2.1218
 2629SOL    MW410516   3.140   4.558   4.888 -0.0282  0.4926  0.2218
 2630SOL     OW10517   2.461   3.654   4.506 -0.0694  0.3391 -0.1968
 2630SOL    HW210518   2.450   3.621   4.417 -1.2776  0.8168 -0.2251
 2630SOL    HW310519   2.459   3.576   4.561  0.5225  0.0565 -0.5570
 2630SOL    MW410520   2.460   3.640   4.501 -0.1507  0.3648 -0.2481
 2631SOL     OW10521   3.658   1.087   4.844 -0.0630 -0.2521  0.0887
 2631SOL    HW210522   3.697   1.160   4.892  0.7839 -1.0309  0.5955
 2631SOL    HW310523   3.568   1.082   4.877  0.2040 -0.1304  0.8509
 2631SOL    MW410524   3.651   1.096   4.854  0.0839 -0.3388  0.2561
 2632SOL     OW10525   3.135   0.374   4.126  0.2855  0.6724 -0.0782
 2632SOL    HW210526   3.066   0.431   4.160  0.6366  1.3216 -0.4499
 2632SOL    HW310527   3.216   0.411   4.162  0.3108 -1.1517  1.8355
 2632SOL    MW410528   3.136   0.387   4.135  0.3352  0.5174  0.1252
 2633SOL     OW10529   3.058   0.240   4.537 -0.1193 -0.1101  0.2652
 2633SOL    HW210530   3.087   0.313   4.592  0.8963  1.3032 -2.0847
 2633SOL    HW310531   2.963   0.240   4.546 -0.0214  0.5216  1.4757
 2633SOL    MW410532   3.049   0.250   4.545  0.0276  0.1597  0.1148
 2634SOL     OW10533   3.290   0.800   4.164  0.3203  0.0121 -0.4990
 2634SOL    HW210534   3.367   0.850   4.192  0.1404  0.1368 -0.2203
 2634SOL    HW310535   3.307   0.711   4.195  0.3577  0.0375 -0.4460
 2634SOL    MW410536   3.302   0.795   4.172  0.3015  0.0319 -0.4552
 2635SOL     OW10537   3.052   0.945   4.238 -0.0351  0.0870 -0.2320
 2635SOL    HW210538   3.127   0.894   4.206  0.8992  0.5052  1.2243
 2635SOL    HW310539   3.062   1.030   4.195  0.3048  0.1333 -0.0636
 2635SOL    MW410540   3.064   0.950   4.228  0.1330  0.1483 -0.0176
 2636SOL     OW10541   3.118   1.214   4.119  0.2914  0.0865  0.6354
 2636SOL    HW210542   3.213   1.225   4.130  0.2503  0.8141  0.3276
 2636SOL    HW310543   3.106   1.205   4.025 -0.0492  1.1310  0.5713
 2636SOL    MW410544   3.129   1.214   4.108  0.2410  0.3203  0.5863
 2637SOL     OW10545   3.370   1.299   4.173 -0.0773  0.3272  0.1601
 2637SOL    HW210546   3.388   1.393   4.172 -2.2636  0.8536  2.9452
 2637SOL    HW310547   3.456   1.258   4.164  1.1836  2.5996  1.3836
 2637SOL    MW410548   3.383   1.306   4.172 -0.1994  0.6965  0.6890
 2638SOL     OW10549   3.405   1.594   4.167  0.4597 -0.1466 -0.0045
 2638SOL    HW210550   3.398   1.614   4.074 -0.8183 -0.6056 -0.0179
 2638SOL    HW310551   3.483   1.641   4.196  0.6019  0.3713 -1.2031
 2638SOL    MW410552   3.415   1.602   4.158  0.3098 -0.1388 -0.1644
 2639SOL     OW10553   3.167   1.702   4.293 -0.0314  0.1235  0.2128
 2639SOL    HW210554   3.249   1.674   4.252  0.0248  1.5039 -0.6424
 2639SOL    HW310555   3.184   1.697   4.387  0.9968  0.3084  0.0406
 2639SOL    MW410556   3.180   1.698   4.300  0.1117  0.3300  0.0772
 2640SOL     OW10557   2.888   2.388   4.146 -0.5872  0.4149 -0.4875
 2640SOL    HW210558   2.965   2.425   4.190 -0.1479 -0.9899 -0.0525
 2640SOL    HW310559   2.906   2.294   4.142 -1.3339  0.3302 -2.2711
 2640SOL    MW410560   2.901   2.381   4.151 -0.6277  0.2184 -0.6655
 2641SOL     OW10561   3.235   2.367   4.749 -0.1936 -0.3124 -0.0885
 2641SOL    HW210562   3.230   2.422   4.671 -1.1964 -0.4048 -0.0980
 2641SOL    HW310563   3.281   2.421   4.813 -0.2852  0.1583 -0.4142
 2641SOL    MW410564   3.241   2.381   4.747 -0.3380 -0.2625 -0.1327
 2642SOL     OW10565   3.350   2.349   4.114  0.3265 -0.3540 -0.0293
 2642SOL    HW210566   3.371   2.343   4.021 -0.4594 -2.2089 -0.1005
 2642SOL    HW310567   3.433   2.372   4.156  0.9481 -0.7069 -1.0569
 2642SOL    MW410568   3.364   2.351   4.108  0.3048 -0.6453 -0.1743
 2643SOL     OW10569   2.757   2.190   4.422  0.1669  0.1289  0.0958
 2643SOL    HW210570   2.818   2.154   4.357 -0.4891  0.1104 -0.5162
 2643SOL    HW310571   2.794   2.275   4.445  0.3362  0.1913 -0.4018
 2643SOL    MW410572   2.770   2.196   4.417  0.1027  0.1347 -0.0506
 2644SOL     OW10573   3.102   2.769   4.140 -0.3280 -0.7594 -0.2871
 2644SOL    HW210574   3.115   2.759   4.045 -1.3773 -0.7730 -0.4293
 2644SOL    HW310575   3.183   2.809   4.170 -0.3100  0.0185 -1.3231
 2644SOL    MW410576   3.115   2.773   4.131 -0.4640 -0.6586 -0.4426
 2645SOL     OW10577   2.493   2.088   4.818  0.2247 -0.2668 -0.7020
 2645SOL    HW210578   2.484   1.999   4.852 -0.5406  0.0973  0.0686
 2645SOL    HW310579   2.571   2.084   4.762  0.5645 -1.2691 -0.1808
 2645SOL    MW410580   2.502   2.076   4.815  0.1685 -0.3510 -0.5315
 2646SOL     OW10581   3.439   2.155   4.491 -0.6465  0.3113  0.0917
 2646SOL    HW210582   3.385   2.116   4.561  0.0220  0.3685  0.6455
 2646SOL    HW310583   3.443   2.248   4.514  0.8962  0.0632  0.8582
 2646SOL    MW410584   3.432   2.162   4.504 -0.3548  0.2861  0.2659
 2647SOL     OW10585   2.673   2.733   4.174 -0.0850  0.4889 -0.0262
 2647SOL    HW210586   2.758   2.751   4.213  1.1593 -2.5435 -1.2018
 2647SOL    HW310587   2.648   2.647   4.208 -2.0072  0.7174 -0.8010
 2647SOL    MW410588   2.681   2.724   4.183 -0.1745  0.1189 -0.2836
 2648SOL     OW10589   3.173   3.474   4.203  0.5836 -0.1577 -0.0460
 2648SOL    HW210590   3.090   3.523   4.207 -0.5271 -2.0075  0.0001
 2648SOL    HW310591   3.189   3.461   4.110  0.1901 -0.8350 -0.0232
 2648SOL    MW410592   3.164   3.479   4.191  0.3851 -0.4911 -0.0369
 2649SOL     OW10593   3.415   3.605   4.279  0.3128  0.0131  0.6522
 2649SOL    HW210594   3.398   3.658   4.357 -1.2896  0.2706  0.1335
 2649SOL    HW310595   3.333   3.558   4.263  0.3403  0.6353 -1.3921
 2649SOL    MW410596   3.402   3.606   4.287  0.1050  0.1292  0.3141
 2650SOL     OW10597   3.508   4.048   4.322  0.0328  0.5104 -0.3529
 2650SOL    HW210598   3.455   3.979   4.282  0.0449  0.7602 -0.8019
 2650SOL    HW310599   3.448   4.096   4.379 -0.3692  1.1829 -1.3395
 2650SOL    MW410600   3.493   4.045   4.325 -0.0186  0.6321 -0.5423
 2651SOL     OW10601   3.151   4.006   4.154  0.2545 -0.2542 -0.2404
 2651SOL    HW210602   3.225   3.949   4.131  0.3453 -0.5511  0.7390
 2651SOL    HW310603   3.073   3.957   4.126  0.3418 -0.7728  0.4117
 2651SOL    MW410604   3.151   3.992   4.147  0.2780 -0.3618 -0.0252
 2652SOL     OW10605   3.752   4.408   4.542  0.1694 -0.6040 -0.1126
 2652SOL    HW210606   3.689   4.479   4.537 -0.9856 -1.5507  0.7141
 2652SOL    HW310607   3.776   4.391   4.451  0.2092  0.6079 -0.3393
 2652SOL    MW410608   3.747   4.415   4.530  0.0222 -0.5690 -0.0334
 2653SOL     OW10609   3.401   4.459   4.237  0.0237  0.1068 -0.1206
 2653SOL    HW210610   3.414   4.544   4.194  2.5022 -0.6364 -0.9376
 2653SOL    HW310611   3.364   4.481   4.322 -0.8746  1.8975 -0.9335
 2653SOL    MW410612   3.398   4.473   4.242  0.2322  0.2450 -0.3356
 2654SOL     OW10613   3.014   3.180   4.686 -0.1666 -0.4510  0.1366
 2654SOL    HW210614   3.058   3.191   4.771  1.1798 -3.5711 -0.0982
 2654SOL    HW310615   2.954   3.107   4.700 -0.9783 -0.0448 -1.2154
 2654SOL    MW410616   3.012   3.172   4.699 -0.0960 -0.8090 -0.0727
 2655SOL     OW10617   2.708   1.211   4.584 -0.6146  0.4727  0.0233
 2655SOL    HW210618   2.710   1.225   4.678  0.2705 -0.4312  0.1511
 2655SOL    HW310619   2.792   1.243   4.553 -0.9293  0.8263 -0.4729
 2655SOL    MW410620   2.719   1.217   4.592 -0.5393  0.4001 -0.0253
 2656SOL     OW10621   3.640   0.399   4.201  0.3403 -0.0914  0.1323
 2656SOL    HW210622   3.714   0.452   4.231 -0.7979  1.0593  0.9238
 2656SOL    HW310623   3.629   0.424   4.109  1.6755 -1.1514 -0.3441
 2656SOL    MW410624   3.649   0.409   4.193  0.3663 -0.0794  0.1739
 2657SOL     OW10625   3.871   0.540   4.277 -0.3059  0.2987 -0.4414
 2657SOL    HW210626   3.867   0.534   4.372  1.0026  1.0360 -0.3269
 2657SOL    HW310627   3.838   0.627   4.257  0.0621  0.3966 -0.6178
 2657SOL    MW410628   3.866   0.551   4.287 -0.0847  0.4088 -0.4495
 2658SOL     OW10629   2.460   1.734   4.661  0.3623  0.7895  0.4849
 2658SOL    HW210630   2.535   1.695   4.617 -1.2255 -0.6744 -1.0117
 2658SOL    HW310631   2.440   1.812   4.610 -0.4246  0.0139 -0.4281
 2658SOL    MW410632   2.467   1.739   4.648  0.0490  0.4941  0.1670
 2659SOL     OW10633   3.849   1.304   4.298 -0.3027 -0.2926  0.2063
 2659SOL    HW210634   3.921   1.257   4.255  0.9876  1.7623  0.0925
 2659SOL    HW310635   3.855   1.277   4.389  0.2612 -0.5465  0.0992
 2659SOL    MW410636   3.859   1.294   4.304 -0.0580 -0.0550  0.1772
 2660SOL     OW10637   4.349   0.338   4.574  0.7764  0.3318 -0.1223
 2660SOL    HW210638   4.407   0.324   4.499 -0.3491 -0.4374 -0.8567
 2660SOL    HW310639   4.300   0.256   4.582  0.6648  0.5195  1.2670
 2660SOL    MW410640   4.350   0.325   4.565  0.6132  0.2551 -0.0359
 2661SOL     OW10641   3.804   0.516   4.560 -0.2121  0.0447 -0.2059
 2661SOL    HW210642   3.716   0.546   4.583 -0.8647 -1.2846 -0.9431
 2661SOL    HW310643   3.862   0.571   4.613 -1.4828  0.7638  0.4712
 2661SOL    MW410644   3.800   0.527   4.570 -0.4659 -0.0358 -0.2139
 2662SOL     OW10645   3.856   1.539   4.160 -0.3193  0.6913 -0.2770
 2662SOL    HW210646   3.849   1.459   4.212  1.0645 -0.6873 -2.1408
 2662SOL    HW310647   3.791   1.599   4.198 -1.5493 -1.3958  0.9711
 2662SOL    MW410648   3.847   1.537   4.172 -0.2990  0.2340 -0.3583
 2663SOL     OW10649   3.810   1.622   4.528  0.0045 -0.0209  0.7508
 2663SOL    HW210650   3.757   1.694   4.562  0.0429 -0.0003  0.7669
 2663SOL    HW310651   3.885   1.665   4.486  0.0969 -0.0558  0.8768
 2663SOL    MW410652   3.813   1.638   4.527  0.0217 -0.0228  0.7696
 2664SOL     OW10653   3.354   2.085   4.223  0.6062 -0.0215 -0.2735
 2664SOL    HW210654   3.383   2.113   4.310 -0.6577 -0.8689  0.4180
 2664SOL    HW310655   3.371   2.161   4.167  0.9418  0.7038  0.8032
 2664SOL    MW410656   3.360   2.099   4.227  0.4838 -0.0376 -0.0402
 2665SOL     OW10657   2.761   3.761   4.860 -0.1548 -0.5179  0.0144
 2665SOL    HW210658   2.857   3.769   4.860  0.0988 -3.1983 -0.4771
 2665SOL    HW310659   2.738   3.754   4.768 -0.9495  1.1655  0.0696
 2665SOL    MW410660   2.771   3.761   4.848 -0.2262 -0.6494 -0.0432
 2666SOL     OW10661   3.716   2.116   4.516  0.0056  0.2938  0.3455
 2666SOL    HW210662   3.627   2.109   4.483  0.0857 -1.4064  0.4857
 2666SOL    HW310663   3.771   2.101   4.439  0.1808 -0.4342  0.6145
 2666SOL    MW410664   3.712   2.113   4.501  0.0393 -0.0266  0.3995
 2667SOL     OW10665   1.308   1.155   4.558 -0.2735 -0.1301 -0.3102
 2667SOL    HW210666   1.365   1.081   4.541 -0.0343  0.1518 -0.7472
 2667SOL    HW310667   1.349   1.200   4.632  1.0447  1.0566 -1.7270
 2667SOL    MW410668   1.321   1.151   4.566 -0.0680  0.0637 -0.5548
 2668SOL     OW10669   2.096   1.096   4.675 -0.4889 -0.1137 -0.3838
 2668SOL    HW210670   2.118   1.017   4.625 -1.1565 -0.1937 -0.5656
 2668SOL    HW310671   2.051   1.152   4.611 -1.4094 -0.2475  0.1478
 2668SOL    MW410672   2.093   1.093   4.660 -0.6984 -0.1419 -0.3376
 2669SOL     OW10673   1.057   4.160   4.791  0.0131 -0.3667  0.0058
 2669SOL    HW210674   1.126   4.184   4.730  1.2219  2.1745  2.2320
 2669SOL    HW310675   0.978   4.201   4.756  0.2070 -0.8640 -1.0323
 2669SOL    MW410676   1.056   4.169   4.779  0.1981 -0.0970  0.1626
 2670SOL     OW10677   1.122   2.911   4.520 -0.3043 -0.4017 -0.1326
 2670SOL    HW210678   1.180   2.846   4.559 -2.4278 -0.6795  2.6938
 2670SOL    HW310679   1.045   2.861   4.493  0.2728  0.1232 -3.0006
 2670SOL    MW410680   1.120   2.896   4.521 -0.5083 -0.3691 -0.1381
 2671SOL     OW10681   2.672   3.203   4.529  0.0675  0.1515 -0.0843
 2671SOL    HW210682   2.722   3.272   4.574 -1.0555  1.0439 -0.1896
 2671SOL    HW310683   2.583   3.213   4.561 -0.1419 -1.1624 -0.2339
 2671SOL    MW410684   2.667   3.214   4.539 -0.1083  0.0959 -0.1179
 2672SOL     OW10685   3.644   3.441   4.170  0.2356 -0.1742 -0.3531
 2672SOL    HW210686   3.573   3.487   4.215 -1.1643 -0.5583 -2.1073
 2672SOL    HW310687   3.723   3.486   4.197 -0.8099  1.1047  0.6107
 2672SOL    MW410688   3.645   3.453   4.179 -0.0870 -0.0562 -0.4574
 2673SOL     OW10689   4.409   3.942   4.410 -0.0852 -0.1229 -0.5087
 2673SOL    HW210690   4.376   3.900   4.330 -0.0426  0.8261 -1.0288
 2673SOL    HW310691   4.350   4.016   4.425  0.7225  0.5216 -0.4375
 2673SOL    MW410692   4.397   3.946   4.402  0.0270  0.0873 -0.5680
 2674SOL     OW10693   3.854   3.815   4.173 -0.1695  0.1909  0.0923
 2674SOL    HW210694   3.890   3.729   4.189 -1.3970 -0.4660 -0.5652
 2674SOL    HW310695   3.815   3.841   4.256  0.5986  0.3122  0.4152
 2674SOL    MW410696   3.853   3.807   4.186 -0.2301  0.1202  0.0482
 2675SOL     OW10697   1.837   2.621   4.816 -0.1311  0.6513 -0.0438
 2675SOL    HW210698   1.903   2.559   4.844 -0.1929  0.7374  0.2896
 2675SOL    HW310699   1.755   2.573   4.820 -0.0076  0.3314 -1.1253
 2675SOL    MW410700   1.835   2.607   4.820 -0.1229  0.6205 -0.1425
 2676SOL     OW10701   3.604   0.122   4.268  0.0977  0.0972  0.5973
 2676SOL    HW210702   3.676   0.069   4.233  0.5937 -0.2645  2.1326
 2676SOL    HW310703   3.627   0.212   4.245 -0.1848 -0.2370 -1.0414
 2676SOL    MW410704   3.616   0.127   4.260  0.1259  0.0054  0.5836
 2677SOL     OW10705   3.781   4.364   4.268 -0.4404 -0.0454 -0.0213
 2677SOL    HW210706   3.796   4.444   4.218  1.8587 -0.7003 -0.4462
 2677SOL    HW310707   3.695   4.333   4.239  0.2103  0.3684 -2.4545
 2677SOL    MW410708   3.771   4.371   4.258 -0.0512 -0.0772 -0.3984
 2678SOL     OW10709   4.067   4.259   4.139  0.0768 -0.3690 -0.3217
 2678SOL    HW210710   3.985   4.292   4.177 -0.3101  0.2537 -1.6669
 2678SOL    HW310711   4.068   4.166   4.162 -0.7403 -0.2674  0.1579
 2678SOL    MW410712   4.056   4.251   4.147 -0.0820 -0.2734 -0.4359
 2679SOL     OW10713   3.522   0.626   4.596 -0.1812 -0.0826 -0.6263
 2679SOL    HW210714   3.538   0.713   4.559 -0.8396  0.4782  0.3982
 2679SOL    HW310715   3.494   0.643   4.686 -0.4813 -1.3491 -0.4767
 2679SOL    MW410716   3.521   0.640   4.603 -0.3076 -0.1757 -0.4714
 2680SOL     OW10717   3.327   4.501   4.526 -0.3721 -0.1703  0.1424
 2680SOL    HW210718   3.259   4.554   4.568 -0.8161 -0.7346  0.1551
 2680SOL    HW310719   3.408   4.550   4.539 -0.8608  0.7630 -0.3261
 2680SOL    MW410720   3.328   4.514   4.533 -0.4951 -0.1216  0.0823
 2681SOL     OW10721   3.816   4.623   4.157 -0.0232 -0.1473 -0.1677
 2681SOL    HW210722   3.814   4.630   4.061 -0.0479 -0.0575 -0.1607
 2681SOL    HW310723   3.901   4.660   4.181  0.2907 -0.8323 -0.2099
 2681SOL    MW410724   3.827   4.629   4.147  0.0149 -0.2258 -0.1724
 2682SOL     OW10725   0.375   0.072   4.320  0.3652  0.0215  0.3594
 2682SOL    HW210726   0.465   0.041   4.336 -0.2486 -2.1026 -0.2205
 2682SOL    HW310727   0.333   0.001   4.271 -0.6929  2.3523 -2.2195
 2682SOL    MW410728   0.382   0.058   4.316  0.1446  0.0487 -0.0574
 2683SOL     OW10729   3.547   0.905   4.251  0.1158  0.3378 -0.0951
 2683SOL    HW210730   3.578   0.990   4.222  0.6563 -0.3357 -1.5673
 2683SOL    HW310731   3.542   0.912   4.346  0.1620  1.9938 -0.1997
 2683SOL    MW410732   3.550   0.917   4.260  0.1932  0.4674 -0.3031
 2684SOL     OW10733   4.255   0.800   4.147 -0.0848 -0.1440  0.2557
 2684SOL    HW210734   4.241   0.799   4.052 -0.6946 -1.3785  0.3457
 2684SOL    HW310735   4.176   0.838   4.183 -0.0887 -0.1964  0.3022
 2684SOL    MW410736   4.243   0.805   4.139 -0.1657 -0.3138  0.2737
 2685SOL     OW10737   0.153   1.396   4.198 -0.0038 -0.2359  0.3397
 2685SOL    HW210738   0.214   1.349   4.255  0.6213 -0.6333 -0.6325
 2685SOL    HW310739   0.144   1.482   4.238  0.7811 -0.3625  0.8026
 2685SOL    MW410740   0.160   1.401   4.210  0.1822 -0.3051  0.2725
 2686SOL     OW10741   0.892   1.677   3.788 -0.2418  0.0560  0.4371
 2686SOL    HW210742   0.971   1.630   3.815 -0.1624 -0.4952 -0.7304
 2686SOL    HW310743   0.897   1.678   3.693 -0.9049  1.3071  0.4198
 2686SOL    MW410744   0.903   1.671   3.779 -0.3188  0.1483  0.2808
 2687SOL     OW10745   2.511   2.415   4.542 -0.2805  0.0660 -0.1910
 2687SOL    HW210746   2.573   2.342   4.543 -0.0940  0.2275  0.5470
 2687SOL    HW310747   2.527   2.459   4.458 -0.0620 -0.4587 -0.4259
 2687SOL    MW410748   2.521   2.411   4.531 -0.2271  0.0181 -0.1246
 2688SOL     OW10749   4.314   2.071   4.233 -0.2185 -0.0010  0.6758
 2688SOL    HW210750   4.235   2.021   4.211 -0.0977  0.4399 -0.7436
 2688SOL    HW310751   4.295   2.160   4.206  0.2067  0.4071  1.6962
 2688SOL    MW410752   4.301   2.076   4.227 -0.1464  0.1110  0.6232
 2689SOL     OW10753   4.325   0.982   4.532  0.0648  0.9352  0.8107
 2689SOL    HW210754   4.365   0.974   4.446 -0.0007  0.1920  0.8538
 2689SOL    HW310755   4.273   1.063   4.526 -0.6658  0.4025 -0.1369
 2689SOL    MW410756   4.323   0.992   4.520 -0.0402  0.7669  0.6914
 2690SOL     OW10757   3.809   2.320   4.158  0.4454  0.5943 -0.2095
 2690SOL    HW210758   3.881   2.373   4.193  0.2899  0.0283  1.0113
 2690SOL    HW310759   3.831   2.306   4.066  0.5078  2.7361 -0.5451
 2690SOL    MW410760   3.821   2.325   4.151  0.4332  0.8022 -0.0927
 2691SOL     OW10761   3.589   2.720   4.174  0.4302  0.5943  0.2313
 2691SOL    HW210762   3.606   2.721   4.079 -0.5235  1.0662  0.0640
 2691SOL    HW310763   3.610   2.631   4.201 -0.1472  0.2086 -0.5807
 2691SOL    MW410764   3.594   2.708   4.165  0.2282  0.6056  0.1021
 2692SOL     OW10765   4.020   2.486   4.234 -0.2453 -0.0668  0.5517
 2692SOL    HW210766   4.005   2.506   4.327 -0.2937 -1.1230  0.7790
 2692SOL    HW310767   4.030   2.572   4.193 -3.0225  0.5424  1.0375
 2692SOL    MW410768   4.020   2.500   4.241 -0.6181 -0.1258  0.6458
 2693SOL     OW10769   0.977   1.868   4.143  0.0395  0.5866  0.1028
 2693SOL    HW210770   0.965   1.912   4.059  1.2484 -0.0277 -0.4037
 2693SOL    HW310771   1.021   1.933   4.198 -0.8505  1.0265  0.2917
 2693SOL    MW410772   0.982   1.882   4.139  0.0816  0.5636  0.0609
 2694SOL     OW10773   3.105   3.787   4.588 -0.3418 -0.0678 -0.3775
 2694SOL    HW210774   3.109   3.876   4.553 -2.9440  0.5567  0.7322
 2694SOL    HW310775   3.091   3.799   4.682  1.1114 -1.6838  0.0683
 2694SOL    MW410776   3.103   3.801   4.595 -0.4934 -0.1986 -0.1723
 2695SOL     OW10777   4.049   2.743   4.142  0.0542  0.3074 -0.3296
 2695SOL    HW210778   3.967   2.766   4.186  0.0678  0.5972 -0.4522
 2695SOL    HW310779   4.109   2.813   4.166  0.6059 -0.5117  0.6957
 2695SOL    MW410780   4.046   2.755   4.151  0.1288  0.2376 -0.2105
 2696SOL     OW10781   2.474   0.413   4.487  0.1709  0.0760 -0.2670
 2696SOL    HW210782   2.471   0.454   4.401 -0.9214  0.3083 -0.1295
 2696SOL    HW310783   2.516   0.328   4.472  1.3718  0.7602 -0.7557
 2696SOL    MW410784   2.479   0.407   4.474  0.1852  0.1969 -0.3133
 2697SOL     OW10785   4.081   3.463   3.880 -0.0594 -0.1286  0.0289
 2697SOL    HW210786   4.091   3.368   3.868 -0.3426 -0.1416 -0.1035
 2697SOL    HW310787   3.992   3.482   3.850  0.8304  0.5599 -2.2445
 2697SOL    MW410788   4.071   3.453   3.875  0.0206 -0.0395 -0.2885
 2698SOL     OW10789   1.036   3.079   4.859  0.1585 -0.0945 -0.2668
 2698SOL    HW210790   1.065   3.115   4.775 -1.2144 -0.4317 -0.9056
 2698SOL    HW310791   0.987   3.151   4.899 -2.7798 -1.2499 -1.6419
 2698SOL    MW410792   1.033   3.093   4.853 -0.4103 -0.2914 -0.5325
 2699SOL     OW10793   4.093   3.964   4.142  0.2171  0.0625  0.3836
 2699SOL    HW210794   4.158   3.894   4.142  0.2338  0.0781  0.5197
 2699SOL    HW310795   4.011   3.920   4.168  0.4441  0.3000  1.4992
 2699SOL    MW410796   4.091   3.949   4.145  0.2493  0.0959  0.5488
 2700SOL     OW10797   4.352   4.311   4.128 -0.1471  0.0583  0.1017
 2700SOL    HW210798   4.264   4.274   4.122  0.4232 -1.2872 -0.1927
 2700SOL    HW310799   4.390   4.294   4.042  1.2365 -1.5290  1.0136
 2700SOL    MW410800   4.345   4.304   4.116  0.1107 -0.3286  0.1832
 2701SOL     OW10801   3.212   2.744   4.933 -0.0193  0.1386 -0.0131
 2701SOL    HW210802   3.264   2.665   4.920  0.5515  0.4996  0.0250
 2701SOL    HW310803   3.124   2.720   4.905 -0.2141 -0.9920  1.5384
 2701SOL    MW410804   3.207   2.730   4.927  0.0303  0.0370  0.1966
 2702SOL     OW10805   4.421   2.786   4.155 -0.3781 -0.3135 -0.0497
 2702SOL    HW210806   4.348   2.849   4.159  0.9626  1.1387  2.1980
 2702SOL    HW310807   4.499   2.839   4.167  0.8865 -2.2331  0.3556
 2702SOL    MW410808   4.421   2.802   4.157 -0.0343 -0.3752  0.3003
 2703SOL     OW10809   4.274   0.528   4.204 -0.0513  0.2856 -0.0488
 2703SOL    HW210810   4.275   0.615   4.164 -0.1488  0.1682 -0.3079
 2703SOL    HW310811   4.353   0.485   4.170  0.4929  0.5947  0.7999
 2703SOL    MW410812   4.285   0.533   4.194  0.0076  0.3109  0.0290
 2704SOL     OW10813   4.373   4.352   4.581 -0.2159  0.6731 -0.1338
 2704SOL    HW210814   4.310   4.287   4.550 -1.2136  0.5872  2.0018
 2704SOL    HW310815   4.430   4.304   4.642  0.8362  1.1497 -0.7179
 2704SOL    MW410816   4.372   4.337   4.585 -0.2088  0.7246  0.0709
 2705SOL     OW10817   2.482   0.026   4.585  0.0610 -0.4717 -0.3175
 2705SOL    HW210818   2.484   0.051   4.678 -0.1770  0.1603 -0.4825
 2705SOL    HW310819   2.398   0.058   4.553 -0.3973 -1.7673 -0.4597
 2705SOL    MW410820   2.472   0.033   4.593 -0.0309 -0.5593 -0.3580
 2706SOL     OW10821   3.459   3.868   4.721  0.1186  0.1106 -0.1124
 2706SOL    HW210822   3.550   3.898   4.720  0.5885 -1.2426  1.1969
 2706SOL    HW310823   3.461   3.784   4.768 -1.7591 -0.0632 -0.2948
 2706SOL    MW410824   3.471   3.861   4.727 -0.0672 -0.0908  0.0363
 2707SOL     OW10825   1.469   0.616   4.458 -0.0130 -0.4895  0.3878
 2707SOL    HW210826   1.497   0.588   4.545 -1.0144 -2.7894  0.0282
 2707SOL    HW310827   1.382   0.577   4.447 -0.0103 -0.0264 -1.5320
 2707SOL    MW410828   1.461   0.607   4.468 -0.1448 -0.7318  0.0871
 2708SOL     OW10829   0.920   2.627   4.090 -0.0323 -0.2154 -0.5442
 2708SOL    HW210830   1.013   2.649   4.102 -0.0964  0.1202 -0.6536
 2708SOL    HW310831   0.873   2.696   4.137 -0.2627  0.6620 -2.0395
 2708SOL    MW410832   0.926   2.639   4.098 -0.0712 -0.0553 -0.7559
 2709SOL     OW10833   1.547   3.860   4.163  0.5383 -0.4189  0.0673
 2709SOL    HW210834   1.473   3.917   4.181 -0.5811 -1.1407 -2.0789
 2709SOL    HW310835   1.624   3.911   4.189 -0.6405  0.6318  1.5569
 2709SOL    MW410836   1.547   3.874   4.169  0.2351 -0.3755 -0.0194
 2710SOL     OW10837   1.046   1.136   4.641  0.0972 -0.5407  0.1065
 2710SOL    HW210838   0.996   1.074   4.586  0.8892 -0.2868 -0.9123
 2710SOL    HW310839   1.133   1.137   4.602  0.5298  0.0346  1.0826
 2710SOL    MW410840   1.051   1.128   4.628  0.2588 -0.4313  0.1008
 2711SOL     OW10841   1.825   2.890   4.833 -0.4318 -0.2103 -0.0006
 2711SOL    HW210842   1.874   2.932   4.763  0.5632 -1.0404  0.1767
 2711SOL    HW310843   1.852   2.798   4.829 -1.0625 -0.4448  0.8782
 2711SOL    MW410844   1.835   2.883   4.823 -0.3837 -0.3508  0.1387
 2712SOL     OW10845   2.648   3.504   4.862  0.5101  0.1506 -0.5099
 2712SOL    HW210846   2.687   3.591   4.870  0.2273  0.2242  0.0822
 2712SOL    HW310847   2.707   3.457   4.803  1.0096  0.5433 -0.3250
 2712SOL    MW410848   2.661   3.509   4.855  0.5387  0.2121 -0.4074
 2713SOL     OW10849   3.877   4.206   4.901  0.3185 -0.0159 -0.2966
 2713SOL    HW210850   3.953   4.152   4.920  0.9094  1.4029  1.5385
 2713SOL    HW310851   3.911   4.296   4.899 -1.1799  0.5784 -0.1429
 2713SOL    MW410852   3.891   4.211   4.903  0.1988  0.2497 -0.0342
 2714SOL     OW10853   4.034   1.191   4.148  0.1878  0.1220 -0.2639
 2714SOL    HW210854   4.116   1.240   4.152  0.4309 -0.2573 -0.5654
 2714SOL    HW310855   4.052   1.112   4.199 -0.9156  1.3629  2.1347
 2714SOL    MW410856   4.047   1.187   4.156  0.0743  0.2357  0.0128
 2715SOL     OW10857   2.887   2.098   4.201 -0.4748  0.3012 -0.3718
 2715SOL    HW210858   2.811   2.058   4.160 -0.6889 -0.3977  0.6586
 2715SOL    HW310859   2.960   2.039   4.178 -0.4031  0.4973 -0.6434
 2715SOL    MW410860   2.887   2.085   4.193 -0.4936  0.2348 -0.2717
 2716SOL     OW10861   3.409   4.142   4.748 -0.0176 -0.0168 -0.1894
 2716SOL    HW210862   3.420   4.048   4.763 -0.1309 -0.0027 -0.0238
 2716SOL    HW310863   3.495   4.172   4.720  0.0785 -0.1268 -0.0137
 2716SOL    MW410864   3.422   4.133   4.746 -0.0199 -0.0295 -0.1444
 2717SOL     OW10865   0.518   0.964   4.216 -0.4042  0.2578  0.1133
 2717SOL    HW210866   0.430   0.927   4.206 -0.4283  0.3156  0.1136
 2717SOL    HW310867   0.506   1.058   4.202  0.0771 -0.0489 -2.5893
 2717SOL    MW410868   0.504   0.971   4.213 -0.3439  0.2250 -0.2432
 2718SOL     OW10869   0.017   0.021   4.280  0.0395 -0.1359  0.1736
 2718SOL    HW210870  -0.016  -0.008   4.365 -0.5004 -0.7546 -0.2460
 2718SOL    HW310871   0.040   0.113   4.294  0.4844 -0.3855  1.1386
 2718SOL    MW410872   0.016   0.030   4.293  0.0270 -0.2505  0.2456
 2719SOL     OW10873   4.039   2.168   4.843  0.3125 -0.4442  0.2045
 2719SOL    HW210874   4.018   2.125   4.926  0.1377 -1.4560 -0.3512
 2719SOL    HW310875   4.129   2.139   4.824  0.2260 -0.4917 -0.1278
 2719SOL    MW410876   4.048   2.158   4.852  0.2780 -0.5840  0.0874
 2720SOL     OW10877   1.639   1.344   4.771 -0.2231 -0.3959  0.1928
 2720SOL    HW210878   1.649   1.328   4.677  2.1461 -0.8655  0.4930
 2720SOL    HW310879   1.550   1.315   4.791 -1.2322  0.9503 -2.1355
 2720SOL    MW410880   1.628   1.338   4.761 -0.0436 -0.2803 -0.0748
 2721SOL     OW10881   1.044   2.639   4.748 -0.0176 -0.2266 -0.4827
 2721SOL    HW210882   1.019   2.583   4.674  0.4690 -1.2680  0.1226
 2721SOL    HW310883   1.131   2.670   4.726 -1.0816  1.9615 -1.7632
 2721SOL    MW410884   1.052   2.636   4.735 -0.0938 -0.0753 -0.5718
 2722SOL     OW10885   1.947   3.780   4.937  0.1924 -0.5671  0.1065
 2722SOL    HW210886   1.897   3.787   4.855  0.4275  0.9156  0.0725
 2722SOL    HW310887   2.025   3.834   4.922  1.2544 -1.9384  0.5761
 2722SOL    MW410888   1.951   3.788   4.924  0.3636 -0.5524  0.1639
 2723SOL     OW10889   2.842   3.403   4.677 -0.2497  0.3507  0.1694
 2723SOL    HW210890   2.876   3.464   4.612 -1.1967 -1.2931 -1.9515
 2723SOL    HW310891   2.903   3.330   4.675 -0.1320  0.4172  1.3396
 2723SOL    MW410892   2.854   3.401   4.668 -0.3591  0.1426  0.0440
 2724SOL     OW10893   3.832   2.822   4.295 -0.2692 -0.3176 -0.1762
 2724SOL    HW210894   3.745   2.800   4.264 -1.5801  1.9386  1.6880
 2724SOL    HW310895   3.842   2.915   4.273  1.3688 -0.3759  0.2507
 2724SOL    MW410896   3.822   2.832   4.288 -0.2260 -0.0276  0.1261
 2725SOL     OW10897   0.725   1.831   4.774  0.3502 -0.6189 -0.1838
 2725SOL    HW210898   0.716   1.741   4.805  0.6988 -0.7861 -0.5604
 2725SOL    HW310899   0.753   1.822   4.683  0.0098 -0.1311 -0.3354
 2725SOL    MW410900   0.728   1.818   4.766  0.3513 -0.5766 -0.2535
 2726SOL     OW10901   0.817   3.170   4.470  0.3443 -0.0968  0.6559
 2726SOL    HW210902   0.741   3.228   4.465  0.5686  0.2298  0.9755
 2726SOL    HW310903   0.782   3.089   4.506  0.3420  0.4204  1.8432
 2726SOL    MW410904   0.803   3.167   4.474  0.3736  0.0145  0.8547
 2727SOL     OW10905   3.084   2.784   4.520 -0.0271  0.0928  0.0386
 2727SOL    HW210906   3.060   2.766   4.612 -1.0232  1.7401  0.1315
 2727SOL    HW310907   3.134   2.865   4.524  0.9840 -0.4864 -0.7603
 2727SOL    MW410908   3.087   2.792   4.533 -0.0251  0.2337 -0.0545
 2728SOL     OW10909   2.513   1.844   4.919 -0.4778 -0.1853  0.2950
 2728SOL    HW210910   2.493   1.809   4.832 -2.4258 -0.7651  0.9679
 2728SOL    HW310911   2.478   1.780   4.980 -1.0374  1.2481  1.5286
 2728SOL    MW410912   2.506   1.831   4.916 -0.8087 -0.0727  0.5465
 2729SOL     OW10913   0.906   1.346   4.261  0.6119 -0.0355 -0.5058
 2729SOL    HW210914   0.861   1.421   4.222  0.1496 -0.5770 -1.0282
 2729SOL    HW310915   0.922   1.287   4.188  1.1230 -0.3759 -0.1246
 2729SOL    MW410916   0.902   1.348   4.246  0.6183 -0.1519 -0.5245
 2730SOL     OW10917   0.581   3.324   4.465 -0.2445 -0.1212  0.3369
 2730SOL    HW210918   0.512   3.325   4.398 -1.0257  0.4398  1.1294
 2730SOL    HW310919   0.628   3.406   4.452  0.9476 -0.9755 -0.8724
 2730SOL    MW410920   0.578   3.335   4.454 -0.1903 -0.1599  0.2819
 2731SOL     OW10921   3.910   0.706   4.726  0.4129 -0.3340 -0.1719
 2731SOL    HW210922   3.975   0.751   4.672  1.2496 -1.6114 -0.2481
 2731SOL    HW310923   3.916   0.750   4.811  0.4530  0.4137 -0.5559
 2731SOL    MW410924   3.920   0.718   4.730  0.5286 -0.4039 -0.2326
 2732SOL     OW10925   1.149   2.056   4.312 -0.6052  0.3065  0.0021
 2732SOL    HW210926   1.110   2.142   4.330  1.3210  1.2924 -0.4127
 2732SOL    HW310927   1.232   2.057   4.359 -0.4280 -1.2242 -0.2691
 2732SOL    MW410928   1.155   2.068   4.320 -0.3277  0.2346 -0.0884
 2733SOL     OW10929   0.868   3.983   4.574  0.2424  0.7794 -0.2001
 2733SOL    HW210930   0.852   4.074   4.599 -0.3948  0.6740 -0.2127
 2733SOL    HW310931   0.921   3.947   4.645  1.0046  1.3291 -0.4879
 2733SOL    MW410932   0.872   3.990   4.586  0.2589  0.8380 -0.2397
 2734SOL     OW10933   0.957   0.681   4.538 -0.8336 -0.3153 -0.0617
 2734SOL    HW210934   0.954   0.772   4.508 -1.3978 -0.5933 -0.8688
 2734SOL    HW310935   0.865   0.656   4.544 -0.6666 -0.9398 -0.1589
 2734SOL    MW410936   0.944   0.690   4.535 -0.8860 -0.4344 -0.1810
 2735SOL     OW10937   0.385   3.109   4.139  0.3355 -0.2464 -0.1865
 2735SOL    HW210938   0.391   3.199   4.171 -0.6308 -0.9796  2.1444
 2735SOL    HW310939   0.472   3.072   4.154  0.4990  0.0400 -0.4174
 2735SOL    MW410940   0.397   3.116   4.145  0.2296 -0.3053  0.0906
 2736SOL     OW10941   0.175   2.922   4.213  0.2288  0.1498  0.1456
 2736SOL    HW210942   0.228   2.997   4.185  0.1459 -0.1162 -0.7297
 2736SOL    HW310943   0.232   2.846   4.198  0.9088  0.1517  2.5057
 2736SOL    MW410944   0.189   2.922   4.208  0.3076  0.1150  0.3415
 2737SOL     OW10945   1.792   1.967   4.135 -0.3117 -0.2211 -0.0472
 2737SOL    HW210946   1.880   2.001   4.147  0.2976 -1.8711  0.3360
 2737SOL    HW310947   1.745   1.992   4.214  0.2386 -0.6159  0.4042
 2737SOL    MW410948   1.798   1.974   4.147 -0.1587 -0.4909  0.0629
 2738SOL     OW10949   3.602   1.947   4.161 -0.2130 -0.0938 -0.2833
 2738SOL    HW210950   3.515   1.975   4.192  0.2374  1.0855 -0.0554
 2738SOL    HW310951   3.606   1.978   4.070 -0.6841 -1.6482 -0.8551
 2738SOL    MW410952   3.591   1.955   4.153 -0.2157 -0.1433 -0.3287
 2739SOL     OW10953   2.014   2.449   4.602 -0.4975 -0.5520 -0.4167
 2739SOL    HW210954   2.047   2.458   4.691  0.0306  1.4964 -0.7864
 2739SOL    HW310955   2.091   2.431   4.549 -0.2414  1.9072 -0.9492
 2739SOL    MW410956   2.029   2.448   4.607 -0.3940  0.0427 -0.5358
 2740SOL     OW10957   1.380   4.000   4.493  0.3852  0.1696  0.1385
 2740SOL    HW210958   1.467   3.972   4.521 -0.5259 -2.5491  0.3488
 2740SOL    HW310959   1.384   3.999   4.397  0.6098  0.1762  0.1487
 2740SOL    MW410960   1.392   3.996   4.484  0.2946 -0.1882  0.1676
 2741SOL     OW10961   0.700   3.643   4.181 -0.2860  0.3202  0.1820
 2741SOL    HW210962   0.609   3.617   4.173 -0.1580 -0.5176  1.3384
 2741SOL    HW310963   0.749   3.569   4.145 -0.0043 -0.0304  1.2749
 2741SOL    MW410964   0.695   3.630   4.175 -0.2319  0.1634  0.4788
 2742SOL     OW10965   0.386   3.340   4.281  0.2723  0.3505 -0.2023
 2742SOL    HW210966   0.297   3.329   4.314  0.3867  0.8657  0.2724
 2742SOL    HW310967   0.394   3.433   4.261  0.6369  0.2682 -0.4550
 2742SOL    MW410968   0.376   3.351   4.283  0.3355  0.4076 -0.1730
 2743SOL     OW10969   4.318   1.541   4.104  0.4878  0.1576 -0.0417
 2743SOL    HW210970   4.245   1.579   4.152  0.9967  0.0825  0.8018
 2743SOL    HW310971   4.293   1.550   4.012 -0.3833  0.5245  0.2215
 2743SOL    MW410972   4.305   1.547   4.098  0.4400  0.1961  0.1043
 2744SOL     OW10973   3.682   4.194   4.699 -0.3191  0.4000 -0.1406
 2744SOL    HW210974   3.715   4.267   4.645  0.6326 -1.1019 -1.6427
 2744SOL    HW310975   3.738   4.195   4.776 -1.5876  2.4784  0.8031
 2744SOL    MW410976   3.694   4.204   4.702 -0.3609  0.4760 -0.2143
 2745SOL     OW10977   2.181   3.110   4.540 -0.3654  0.2059 -0.0828
 2745SOL    HW210978   2.098   3.066   4.557 -0.9276  1.0192 -0.6956
 2745SOL    HW310979   2.174   3.140   4.449  1.5671 -1.8623 -0.9798
 2745SOL    MW410980   2.169   3.108   4.530 -0.1846  0.0403 -0.2820
 2746SOL     OW10981   1.994   0.476   4.512 -0.0300  0.6308  0.2763
 2746SOL    HW210982   1.917   0.432   4.550  0.1845  0.3316  0.3725
 2746SOL    HW310983   2.068   0.435   4.557  0.0923  2.4623  1.7787
 2746SOL    MW410984   1.993   0.465   4.523  0.0145  0.8330  0.4872
 2747SOL     OW10985   4.239   0.590   4.459  0.0402  0.4096  0.1807
 2747SOL    HW210986   4.276   0.572   4.372  1.1309  0.2084  0.6707
 2747SOL    HW310987   4.271   0.518   4.514 -0.2050  0.8140  0.8637
 2747SOL    MW410988   4.248   0.578   4.455  0.1518  0.4364  0.3355
 2748SOL     OW10989   2.968   2.408   4.809 -0.1385  0.3246  0.1222
 2748SOL    HW210990   2.936   2.356   4.883 -0.8862 -0.0573 -0.4606
 2748SOL    HW310991   3.058   2.379   4.796 -0.6224 -1.0263 -0.3606
 2748SOL    MW410992   2.976   2.397   4.817 -0.3010  0.0960 -0.0184
 2749SOL     OW10993   1.549   3.598   4.248  0.0121  0.2453 -0.0721
 2749SOL    HW210994   1.624   3.546   4.218  0.0280 -0.2425  0.8050
 2749SOL    HW310995   1.570   3.687   4.220  1.0737  0.1612  0.4294
 2749SOL    MW410996   1.562   3.603   4.240  0.1543  0.1698  0.1098
 2750SOL     OW10997   3.892   1.170   4.527  0.2370  0.0823  0.0885
 2750SOL    HW210998   3.864   1.088   4.567 -0.6417  0.5996  0.5641
 2750SOL    HW310999   3.987   1.161   4.515  0.3029 -0.5777  1.1145
 2750SOL    MW411000   3.901   1.158   4.531  0.1297  0.0635  0.2866
 2751SOL     OW11001   0.790   0.386   4.685 -0.3804  0.3619  0.0414
 2751SOL    HW211002   0.698   0.409   4.677  0.3054  3.0554 -0.8996
 2751SOL    HW311003   0.807   0.327   4.611 -1.6267 -1.2018  0.9921
 2751SOL    MW411004   0.780   0.381   4.674 -0.4543  0.5110  0.0426
 2752SOL     OW11005   0.621   3.844   4.573  0.1817  0.2167  0.0619
 2752SOL    HW211006   0.660   3.775   4.519 -0.7392  0.1419 -0.5131
 2752SOL    HW311007   0.693   3.905   4.589  0.8978 -0.6649  0.2278
 2752SOL    MW411008   0.636   3.843   4.568  0.1547  0.0905  0.0079
 2753SOL     OW11009   3.674   3.213   4.584  0.5333  0.4166 -0.0798
 2753SOL    HW211010   3.593   3.174   4.616  0.3759  1.1684  0.4335
 2753SOL    HW311011   3.663   3.215   4.488  0.7597 -1.2679 -0.1638
 2753SOL    MW411012   3.662   3.208   4.575  0.5424  0.2935 -0.0231
 2754SOL     OW11013   3.366   3.740   4.490 -0.2005 -0.0053 -0.1119
 2754SOL    HW211014   3.273   3.744   4.516 -0.5445  0.6121 -1.3596
 2754SOL    HW311015   3.413   3.770   4.568 -1.2640  2.8031 -0.4626
 2754SOL    MW411016   3.360   3.745   4.504 -0.3862  0.4467 -0.3228
 2755SOL     OW11017   0.993   1.599   4.564  0.1047  0.1235 -0.2459
 2755SOL    HW211018   1.043   1.623   4.642  0.3477 -1.0176 -0.0429
 2755SOL    HW311019   0.954   1.514   4.585 -0.9957  0.4759 -0.8290
 2755SOL    MW411020   0.994   1.591   4.577 -0.0084  0.0195 -0.2960
 2756SOL     OW11021   3.222   2.519   4.503  0.0563 -0.2570  0.0356
 2756SOL    HW211022   3.196   2.611   4.509 -0.6376 -0.4545  0.1313
 2756SOL    HW311023   3.182   2.488   4.422  0.6533 -0.3575 -0.2172
 2756SOL    MW411024   3.213   2.527   4.493  0.0436 -0.2963  0.0149
 2757SOL     OW11025   0.886   4.009   4.259 -0.0849  0.0500  0.3196
 2757SOL    HW211026   0.896   3.979   4.349  0.3587  0.9160  0.5633
 2757SOL    HW311027   0.811   3.960   4.225  0.6213 -1.3155  0.7010
 2757SOL    MW411028   0.877   3.999   4.266  0.0668 -0.0159  0.4021
 2758SOL     OW11029   2.163   0.834   4.553  0.0003 -0.3520 -0.1116
 2758SOL    HW211030   2.247   0.838   4.598 -0.3765 -0.3428  0.5998
 2758SOL    HW311031   2.185   0.844   4.460  0.6608  0.9519  0.1740
 2758SOL    MW411032   2.177   0.835   4.546  0.0377 -0.1788  0.0199
 2759SOL     OW11033   0.606   0.909   4.480  0.0870 -0.2367 -0.1899
 2759SOL    HW211034   0.640   0.820   4.488 -0.0309 -0.3117 -0.4989
 2759SOL    HW311035   0.573   0.914   4.390  0.0707  0.1114 -0.1660
 2759SOL    MW411036   0.606   0.898   4.469  0.0693 -0.2007 -0.2275
 2760SOL     OW11037   1.419   2.504   4.518  0.0535  0.2596 -0.2606
 2760SOL    HW211038   1.475   2.576   4.488  0.7725  0.4927  1.6001
 2760SOL    HW311039   1.476   2.450   4.573 -0.7083 -1.2627 -0.9250
 2760SOL    MW411040   1.434   2.506   4.521  0.0478  0.0895 -0.1028
 2761SOL     OW11041   1.381   1.769   4.196  0.1342 -0.1565  0.1803
 2761SOL    HW211042   1.304   1.730   4.153 -1.0488 -0.1489  2.2110
 2761SOL    HW311043   1.369   1.749   4.289  2.4630  0.1065  0.5739
 2761SOL    MW411044   1.369   1.761   4.202  0.2854 -0.1208  0.5002
 2762SOL     OW11045   3.302   3.021   4.921 -0.1071  0.0084  0.1761
 2762SOL    HW211046   3.229   3.071   4.958 -2.2831 -1.3003 -2.0994
 2762SOL    HW311047   3.276   2.930   4.932  1.9783 -0.5274  0.7853
 2762SOL    MW411048   3.289   3.016   4.927 -0.1190 -0.2349 -0.0437
 2763SOL     OW11049   0.516   1.028   4.710  0.5373  0.2908  0.1860
 2763SOL    HW211050   0.542   0.981   4.631 -1.9593 -1.3614  0.2875
 2763SOL    HW311051   0.547   0.973   4.782  0.7852  0.6192  0.3299
 2763SOL    MW411052   0.523   1.015   4.709  0.2406  0.1161  0.2184
 2764SOL     OW11053   3.435   3.063   4.665  0.2780 -0.2406  0.3030
 2764SOL    HW211054   3.360   3.073   4.606  1.1246 -0.5393 -0.8533
 2764SOL    HW311055   3.397   3.057   4.752 -0.8818  2.4446  0.0210
 2764SOL    MW411056   3.420   3.064   4.669  0.2367  0.0743  0.1133
 2765SOL     OW11057   1.323   3.540   4.137  0.3934 -0.7708 -0.2873
 2765SOL    HW211058   1.404   3.581   4.167 -0.3249 -0.1612  0.8568
 2765SOL    HW311059   1.337   3.523   4.044  1.2333  0.7943 -0.4575
 2765SOL    MW411060   1.335   3.543   4.129  0.4094 -0.4839 -0.1588
 2766SOL     OW11061   0.952   2.467   4.538 -0.0937  0.1355  0.4408
 2766SOL    HW211062   0.865   2.428   4.550 -0.4456  0.6499 -0.4082
 2766SOL    HW311063   0.986   2.425   4.459 -0.6975  1.9205 -0.7934
 2766SOL    MW411064   0.945   2.456   4.529 -0.2198  0.4389  0.1659
 2767SOL     OW11065   0.196   2.423   4.125 -0.0989 -0.2921  0.1718
 2767SOL    HW211066   0.243   2.384   4.198  2.3148  0.0802 -1.1084
 2767SOL    HW311067   0.113   2.452   4.162  0.5993 -1.1530  2.4826
 2767SOL    MW411068   0.191   2.422   4.139  0.3117 -0.3565  0.3078
 2768SOL     OW11069   1.007   4.345   4.450 -0.0287 -0.1819  0.4214
 2768SOL    HW211070   1.016   4.416   4.513  1.8039  1.7508 -1.9277
 2768SOL    HW311071   1.081   4.287   4.468  0.0250 -0.0676  0.5648
 2768SOL    MW411072   1.018   4.347   4.461  0.2202  0.0882  0.1304
 2769SOL     OW11073   2.349   2.901   4.260  0.0050 -0.0808 -0.0583
 2769SOL    HW211074   2.293   2.836   4.217  0.6904 -0.1442 -0.8655
 2769SOL    HW311075   2.395   2.852   4.328 -0.4769 -0.1572  0.2084
 2769SOL    MW411076   2.348   2.886   4.263  0.0319 -0.0992 -0.1296
 2770SOL     OW11077   0.213   3.971   4.733 -0.1718  0.4005  0.4528
 2770SOL    HW211078   0.260   3.896   4.770  1.7630  1.1583 -0.3879
 2770SOL    HW311079   0.274   4.008   4.669 -2.3629  0.7680 -1.4818
 2770SOL    MW411080   0.227   3.966   4.730 -0.2056  0.5490  0.0866
 2771SOL     OW11081   1.118   0.765   4.094 -0.1589 -0.1171 -0.1295
 2771SOL    HW211082   1.201   0.786   4.137  0.7445 -1.4201 -1.1929
 2771SOL    HW311083   1.106   0.671   4.108 -0.1629 -0.4430 -2.1086
 2771SOL    MW411084   1.127   0.756   4.101 -0.0403 -0.3320 -0.5310
 2772SOL     OW11085   1.411   4.441   4.464 -0.3630 -0.6503 -0.2213
 2772SOL    HW211086   1.464   4.439   4.384 -0.8560 -2.0352 -0.5253
 2772SOL    HW311087   1.475   4.446   4.535  0.0694  1.0533 -0.6964
 2772SOL    MW411088   1.427   4.442   4.463 -0.3710 -0.6083 -0.3241
 2773SOL     OW11089   3.136   1.669   4.771  0.0841  0.7610  0.2901
 2773SOL    HW211090   3.053   1.673   4.818  0.0437  1.3703  0.1793
 2773SOL    HW311091   3.198   1.630   4.832 -0.7837 -1.6907 -0.3716
 2773SOL    MW411092   3.133   1.665   4.785 -0.0357  0.5179  0.1882
 2774SOL     OW11093   2.680   2.758   4.779 -0.2071  0.2032  0.0695
 2774SOL    HW211094   2.655   2.669   4.805  2.8804 -0.4589  0.9104
 2774SOL    HW311095   2.681   2.755   4.683 -0.3572 -0.5860  0.0863
 2774SOL    MW411096   2.677   2.746   4.770  0.1805  0.0117  0.1827
 2775SOL     OW11097   0.455   4.266   4.189 -0.1861  0.1229 -0.0492
 2775SOL    HW211098   0.453   4.173   4.214  2.0741  0.1125  0.1807
 2775SOL    HW311099   0.471   4.265   4.095 -0.5595  0.2895 -0.1160
 2775SOL    MW411100   0.457   4.254   4.180  0.0628  0.1435 -0.0276
 2776SOL     OW11101   3.156   3.196   4.268 -0.6419  0.5616 -0.2911
 2776SOL    HW211102   3.141   3.289   4.249  0.3037  0.6875 -0.4583
 2776SOL    HW311103   3.085   3.151   4.223 -0.6457  1.1477 -0.8863
 2776SOL    MW411104   3.144   3.202   4.259 -0.5177  0.6555 -0.3917
 2777SOL     OW11105   1.111   4.421   4.189  0.2114 -0.6490 -0.0969
 2777SOL    HW211106   1.190   4.371   4.169  1.2553  0.3771  1.2939
 2777SOL    HW311107   1.097   4.405   4.283 -1.0521 -0.5645 -0.2684
 2777SOL    MW411108   1.120   4.412   4.199  0.1825 -0.5025  0.0640
 2778SOL     OW11109   2.445   0.813   4.662  0.2229 -0.5361  0.3807
 2778SOL    HW211110   2.522   0.858   4.629  0.0881 -0.9250 -0.4766
 2778SOL    HW311111   2.456   0.813   4.757  0.5224  0.7483  0.3487
 2778SOL    MW411112   2.457   0.819   4.670  0.2446 -0.4179  0.2633
 2779SOL     OW11113   3.824   4.558   4.807  0.2752 -0.0406  0.0143
 2779SOL    HW211114   3.824   4.515   4.722  0.3851  0.3336 -0.1791
 2779SOL    HW311115   3.908   4.533   4.846  0.0342 -0.5675  0.1972
 2779SOL    MW411116   3.835   4.549   4.801  0.2579 -0.0607  0.0129
 2780SOL     OW11117   0.013   0.394   4.106 -0.0974  0.0738 -0.3986
 2780SOL    HW211118   0.058   0.478   4.096  1.9124 -1.0268 -0.6332
 2780SOL    HW311119   0.003   0.362   4.016  1.4235 -1.1267 -0.1502
 2780SOL    MW411120   0.017   0.401   4.092  0.3684 -0.2298 -0.3967
 2781SOL     OW11121   3.490   2.423   4.504  0.2768  0.0007 -0.0131
 2781SOL    HW211122   3.410   2.476   4.509 -0.1898 -0.5954 -0.8864
 2781SOL    HW311123   3.554   2.470   4.556 -0.1618  1.3790 -0.6962
 2781SOL    MW411124   3.488   2.436   4.511  0.1574  0.1039 -0.2185
 2782SOL     OW11125   1.928   1.779   4.529  0.0132 -0.0174 -0.0733
 2782SOL    HW211126   1.889   1.765   4.442 -1.5689  1.5053  0.3627
 2782SOL    HW311127   1.875   1.848   4.568  1.7492  0.4718  1.4764
 2782SOL    MW411128   1.916   1.786   4.522  0.0335  0.2480  0.1887
 2783SOL     OW11129   1.772   3.187   4.272  0.2188  0.1192 -0.2328
 2783SOL    HW211130   1.763   3.195   4.367  2.8597  0.3734  0.0282
 2783SOL    HW311131   1.760   3.277   4.239  0.2647  0.1931 -0.0486
 2783SOL    MW411132   1.769   3.200   4.280  0.5733  0.1625 -0.1740
 2784SOL     OW11133   0.947   2.344   4.083  0.5041 -0.3599  0.1921
 2784SOL    HW211134   0.865   2.296   4.096 -0.0405  0.5602  0.2591
 2784SOL    HW311135   0.919   2.434   4.064  1.3975 -0.6342 -2.6773
 2784SOL    MW411136   0.932   2.350   4.082  0.5501 -0.2747 -0.1777
 2785SOL     OW11137   0.786   0.106   4.108  0.1431 -0.1449 -0.3278
 2785SOL    HW211138   0.875   0.071   4.105  0.0532 -0.4372  0.2935
 2785SOL    HW311139   0.740   0.062   4.037 -0.0943 -1.6521  0.7420
 2785SOL    MW411140   0.792   0.096   4.098  0.0999 -0.3823 -0.1047
 2786SOL     OW11141   1.298   2.722   4.648  0.3635 -0.3101 -0.2824
 2786SOL    HW211142   1.334   2.651   4.593  0.3058 -1.0110  0.5705
 2786SOL    HW311143   1.373   2.753   4.699  0.2521 -0.1942 -0.1884
 2786SOL    MW411144   1.313   2.716   4.648  0.3412 -0.3873 -0.1575
 2787SOL     OW11145   3.141   0.137   4.263  0.3759 -0.0662  0.3599
 2787SOL    HW211146   3.110   0.166   4.349 -0.2870 -0.6160  0.3139
 2787SOL    HW311147   3.135   0.214   4.208 -0.8921 -0.1561  0.3639
 2787SOL    MW411148   3.136   0.151   4.267  0.1212 -0.1506  0.3544
 2788SOL     OW11149   3.972   3.866   4.803 -0.2758 -0.1358 -0.2541
 2788SOL    HW211150   4.029   3.926   4.852  0.5289 -2.3916  1.6564
 2788SOL    HW311151   4.031   3.797   4.772 -1.4388 -0.7655 -1.0934
 2788SOL    MW411152   3.987   3.865   4.805 -0.3231 -0.5165 -0.1127
 2789SOL     OW11153   0.151   3.775   4.493  0.4503  0.2999  0.0904
 2789SOL    HW211154   0.087   3.845   4.493  0.5364  0.3841 -0.4709
 2789SOL    HW311155   0.187   3.775   4.582 -0.8494 -0.2422  0.6305
 2789SOL    MW411156   0.148   3.784   4.505  0.2902  0.2395  0.0876
 2790SOL     OW11157   2.228   3.142   4.239  0.4324 -0.3563  0.3430
 2790SOL    HW211158   2.148   3.091   4.230  0.4586 -0.8971  2.8037
 2790SOL    HW311159   2.297   3.077   4.248  1.0147  0.1185 -0.5683
 2790SOL    MW411160   2.226   3.127   4.239  0.5127 -0.3651  0.5474
 2791SOL     OW11161   1.553   4.429   4.217 -0.0853  0.0740 -0.3580
 2791SOL    HW211162   1.568   4.503   4.158 -0.3373  0.9597  0.6824
 2791SOL    HW311163   1.637   4.382   4.219  0.5886  1.2713  0.2682
 2791SOL    MW411164   1.566   4.433   4.209 -0.0296  0.3488 -0.1381
 2792SOL     OW11165   1.305   4.001   4.191  0.0067  0.1517 -0.3165
 2792SOL    HW211166   1.316   4.092   4.162 -0.2325 -0.3319 -1.9087
 2792SOL    HW311167   1.218   3.976   4.163 -0.9178  0.2118  2.3235
 2792SOL    MW411168   1.295   4.010   4.184 -0.1468  0.0958 -0.1783
 2793SOL     OW11169   4.297   4.586   4.129 -0.2087 -0.3958  0.5141
 2793SOL    HW211170   4.319   4.493   4.130  1.2083 -0.0685  0.6085
 2793SOL    HW311171   4.373   4.629   4.167 -0.7655  0.8284  0.2680
 2793SOL    MW411172   4.310   4.579   4.134 -0.0952 -0.1911  0.4941
 2794SOL     OW11173   2.905   4.419   4.232  0.5076 -0.9243  0.2775
 2794SOL    HW211174   2.997   4.401   4.213  0.5332  1.5284 -2.1919
 2794SOL    HW311175   2.904   4.442   4.325  2.3602 -1.2825  0.3987
 2794SOL    MW411176   2.917   4.420   4.242  0.7554 -0.6479 -0.0323
 2795SOL     OW11177   2.631   4.427   4.564  0.3295 -0.1081 -0.3140
 2795SOL    HW211178   2.560   4.491   4.567  0.1890 -0.2244 -1.0294
 2795SOL    HW311179   2.607   4.369   4.491  1.0168 -0.3084 -0.3784
 2795SOL    MW411180   2.618   4.428   4.555  0.4017 -0.1499 -0.4169
 2796SOL     OW11181   0.737   2.913   4.620 -0.2493  0.3522  0.1540
 2796SOL    HW211182   0.772   2.888   4.706  0.1086 -1.2422 -0.4362
 2796SOL    HW311183   0.642   2.912   4.632 -0.1859  1.3793  0.8564
 2796SOL    MW411184   0.730   2.910   4.633 -0.1937  0.2773  0.1688
 2797SOL     OW11185   2.016   4.386   4.305  0.4716  0.4453  0.0249
 2797SOL    HW211186   2.006   4.468   4.258 -0.8859 -0.5986 -1.5793
 2797SOL    HW311187   2.031   4.412   4.396  1.0650  2.4606 -0.6232
 2797SOL    MW411188   2.017   4.400   4.311  0.3708  0.5735 -0.2723
 2798SOL     OW11189   2.218   1.045   5.070 -0.5112 -0.2582  0.1492
 2798SOL    HW211190   2.218   0.952   5.049 -0.6344 -0.0281 -0.9014
 2798SOL    HW311191   2.138   1.079   5.030  0.6309  0.7061 -1.3851
 2798SOL    MW411192   2.208   1.037   5.062 -0.3768 -0.1006 -0.1919
 2799SOL     OW11193   3.590   2.444   4.242  0.1616 -0.2484 -0.0047
 2799SOL    HW211194   3.581   2.435   4.337  1.4709  0.7172  0.2272
 2799SOL    HW311195   3.675   2.404   4.223 -0.0875 -0.4102 -0.7628
 2799SOL    MW411196   3.600   2.438   4.252  0.3015 -0.1423 -0.0742
 2800SOL     OW11197   0.282   4.377   4.607  0.3878  0.0961  0.4305
 2800SOL    HW211198   0.272   4.364   4.513  1.3845 -1.0021  0.4627
 2800SOL    HW311199   0.271   4.471   4.620 -1.1453  0.0680 -0.5992
 2800SOL    MW411200   0.280   4.387   4.596  0.3171 -0.0525  0.2989
 2801SOL     OW11201   2.493   0.817   4.956  0.2947  0.3626 -0.3083
 2801SOL    HW211202   2.487   0.910   4.975 -1.4183  0.3811 -0.8051
 2801SOL    HW311203   2.405   0.783   4.975  0.6274 -0.9673 -1.0650
 2801SOL    MW411204   2.480   0.825   4.961  0.1126  0.1895 -0.4737
 2802SOL     OW11205   1.701   1.259   4.508  0.6905 -0.1137  0.0285
 2802SOL    HW211206   1.793   1.286   4.508  0.0789  2.0777 -0.9877
 2802SOL    HW311207   1.670   1.280   4.420 -0.6053 -1.5448  0.1198
 2802SOL    MW411208   1.709   1.265   4.496  0.4388 -0.0134 -0.0935
 2803SOL     OW11209   1.586   1.576   4.152 -0.0141  0.6360 -0.0318
 2803SOL    HW211210   1.657   1.624   4.194  0.7771  0.3559 -1.0194
 2803SOL    HW311211   1.508   1.630   4.168  0.4425  1.0270  0.9180
 2803SOL    MW411212   1.585   1.590   4.159  0.1506  0.6507 -0.0368
 2804SOL     OW11213   2.421   3.480   4.714  0.1203  0.6771 -0.0982
 2804SOL    HW211214   2.485   3.478   4.785 -0.0416  1.5685  0.0854
 2804SOL    HW311215   2.339   3.506   4.756 -0.8115 -2.2022 -0.0197
 2804SOL    MW411216   2.418   3.483   4.729 -0.0240  0.4148 -0.0636
 2805SOL     OW11217   3.858   1.605   4.998  0.0274  0.2355  0.0365
 2805SOL    HW211218   3.945   1.645   5.001  0.3509 -0.4001 -0.4803
 2805SOL    HW311219   3.798   1.678   4.986  0.4890  0.6846  0.4258
 2805SOL    MW411220   3.862   1.620   4.997  0.1310  0.2109  0.0196
 2806SOL     OW11221   0.712   2.210   4.126 -0.2394  0.4139  0.0898
 2806SOL    HW211222   0.669   2.277   4.180 -0.3196  0.2546  0.2228
 2806SOL    HW311223   0.688   2.234   4.036 -1.1732 -0.0637  0.2027
 2806SOL    MW411224   0.703   2.222   4.121 -0.3732  0.3298  0.1223
 2807SOL     OW11225   1.769   3.362   4.767  0.4793 -0.3154 -0.0328
 2807SOL    HW211226   1.700   3.425   4.747 -0.3145 -0.8873  0.8900
 2807SOL    HW311227   1.828   3.410   4.826 -0.5943 -0.7078  1.3807
 2807SOL    MW411228   1.768   3.377   4.772  0.2329 -0.4426  0.2755
 2808SOL     OW11229   1.637   0.172   4.476  0.2075 -0.0641 -0.1284
 2808SOL    HW211230   1.556   0.172   4.527  0.1411 -0.5124 -0.2305
 2808SOL    HW311231   1.691   0.240   4.517  0.1351 -0.3842  0.5090
 2808SOL    MW411232   1.633   0.181   4.488  0.1892 -0.1655 -0.0578
 2809SOL     OW11233   3.916   3.551   4.256  0.0954 -0.2782  0.4508
 2809SOL    HW211234   3.922   3.518   4.346  0.4181 -0.2573  0.4363
 2809SOL    HW311235   3.995   3.519   4.213  0.6249  0.8796  0.5600
 2809SOL    MW411236   3.927   3.542   4.263  0.2078 -0.1227  0.4633
 2810SOL     OW11237   1.801   1.709   4.259 -0.5372 -0.2464 -0.2223
 2810SOL    HW211238   1.811   1.797   4.223  2.3484 -0.6315 -0.4939
 2810SOL    HW311239   1.867   1.657   4.214 -0.6848 -2.0440  1.5632
 2810SOL    MW411240   1.811   1.713   4.249 -0.1760 -0.5344 -0.0226
 2811SOL     OW11241   4.332   3.819   4.150 -0.0316  0.3063  0.1151
 2811SOL    HW211242   4.313   3.859   4.065 -0.2037 -0.0985 -0.0359
 2811SOL    HW311243   4.366   3.732   4.129 -1.0983 -0.2127  0.4926
 2811SOL    MW411244   4.334   3.813   4.136 -0.1951  0.1845  0.1450
 2812SOL     OW11245   3.968   2.028   5.095 -0.2775 -0.4399 -0.3782
 2812SOL    HW211246   4.022   1.952   5.117 -0.1763  0.0301  1.0110
 2812SOL    HW311247   3.925   2.052   5.176 -2.1823 -0.4744 -1.3509
 2812SOL    MW411248   3.970   2.021   5.108 -0.5154 -0.3825 -0.3232
 2813SOL     OW11249   3.730   3.928   4.674  0.3415 -0.1793 -0.2668
 2813SOL    HW211250   3.730   4.024   4.677  0.8050 -0.1525 -1.0779
 2813SOL    HW311251   3.812   3.903   4.716  0.3863 -0.2052 -0.3688
 2813SOL    MW411252   3.741   3.937   4.680  0.4086 -0.1792 -0.3873
 2814SOL     OW11253   2.639   0.191   4.439  0.1306  0.2554 -0.7350
 2814SOL    HW211254   2.663   0.155   4.354 -2.4107 -0.2927 -1.2455
 2814SOL    HW311255   2.587   0.122   4.480  0.3713  0.9675  0.8077
 2814SOL    MW411256   2.635   0.177   4.433 -0.1729  0.2770 -0.5988
 2815SOL     OW11257   1.763   1.006   4.804  0.1375  0.1894  0.2434
 2815SOL    HW211258   1.845   1.042   4.839 -1.0085  2.1320  1.0284
 2815SOL    HW311259   1.704   1.082   4.799 -2.0519 -1.4106  1.0413
 2815SOL    MW411260   1.766   1.021   4.808 -0.3026  0.2346  0.4522
 2816SOL     OW11261   2.665   0.908   4.253  0.1753 -0.1933 -0.2449
 2816SOL    HW211262   2.734   0.853   4.215  0.0585 -0.7652  0.3532
 2816SOL    HW311263   2.584   0.873   4.215  0.3689  2.2487 -3.1253
 2816SOL    MW411264   2.663   0.896   4.243  0.1855  0.0535 -0.5461
 2817SOL     OW11265   2.027   1.299   4.247  0.5549  0.2043 -0.3794
 2817SOL    HW211266   1.943   1.271   4.210 -0.1722  2.1162 -0.1952
 2817SOL    HW311267   2.088   1.228   4.223 -1.3505 -1.8173  0.5718
 2817SOL    MW411268   2.024   1.286   4.239  0.2075  0.1898 -0.2296
 2818SOL     OW11269   0.303   0.240   4.712 -0.1727 -0.1920 -0.2320
 2818SOL    HW211270   0.219   0.265   4.752 -0.2481 -1.5294  0.4644
 2818SOL    HW311271   0.287   0.153   4.675  0.5082  0.1439 -1.3309
 2818SOL    MW411272   0.290   0.232   4.713 -0.0928 -0.3242 -0.2851
 2819SOL     OW11273   1.930   2.098   4.755  0.0654 -0.4433  0.0952
 2819SOL    HW211274   2.000   2.107   4.820  0.8532 -1.1922 -0.6349
 2819SOL    HW311275   1.866   2.165   4.779  0.0540 -1.1211  1.9987
 2819SOL    MW411276   1.931   2.108   4.766  0.1678 -0.6315  0.2500
 2820SOL     OW11277   4.446   4.609   4.524 -0.2994  0.2433  0.3442
 2820SOL    HW211278   4.428   4.516   4.532 -1.0216  0.3436 -0.0912
 2820SOL    HW311279   4.371   4.652   4.566  1.1543  0.6030  2.6741
 2820SOL    MW411280   4.434   4.603   4.531 -0.2029  0.3040  0.5942
 2821SOL     OW11281   3.790   0.942   4.642  0.0141  0.0022  0.3151
 2821SOL    HW211282   3.812   0.853   4.672  1.7129  0.6969  1.1802
 2821SOL    HW311283   3.744   0.981   4.716  0.8476  0.4389  0.6058
 2821SOL    MW411284   3.787   0.935   4.656  0.3482  0.1515  0.4676
 2822SOL     OW11285   0.660   4.384   4.314 -0.0372 -0.0363  0.2886
 2822SOL    HW211286   0.587   4.351   4.262  0.3475 -1.9702  0.9637
 2822SOL    HW311287   0.738   4.347   4.273  0.3764 -0.1930  1.2037
 2822SOL    MW411288   0.660   4.375   4.302  0.0681 -0.3121  0.4984
 2823SOL     OW11289   1.792   1.183   4.153 -0.1871  0.2872  0.4033
 2823SOL    HW211290   1.781   1.091   4.177  1.6350  0.0287  0.3025
 2823SOL    HW311291   1.711   1.225   4.182 -0.5565 -1.1345  1.5014
 2823SOL    MW411292   1.780   1.177   4.160  0.0046  0.0655  0.5349
 2824SOL     OW11293   0.453   0.506   4.322  0.3072  0.0933 -0.1567
 2824SOL    HW211294   0.393   0.437   4.349  0.8418  0.0744  1.0186
 2824SOL    HW311295   0.441   0.575   4.387  1.4262  0.1675 -0.0097
 2824SOL    MW411296   0.444   0.506   4.334  0.5254  0.1006  0.0177
 2825SOL     OW11297   4.155   3.475   4.154  0.7168  0.0228  0.3314
 2825SOL    HW211298   4.130   3.389   4.188 -2.0963  0.8688  0.5391
 2825SOL    HW311299   4.129   3.472   4.061  1.8043  0.2027  0.0180
 2825SOL    MW411300   4.148   3.463   4.146  0.4891  0.1581  0.3174
 2826SOL     OW11301   2.924   3.607   4.512 -0.2415 -0.1724  0.8358
 2826SOL    HW211302   2.999   3.663   4.532 -0.5516  0.3567  0.5061
 2826SOL    HW311303   2.848   3.655   4.544 -0.6399  0.1921 -0.6135
 2826SOL    MW411304   2.924   3.621   4.519 -0.3350 -0.0545  0.6011
 2827SOL     OW11305   2.962   2.685   4.769  0.2797 -0.1369 -0.1474
 2827SOL    HW211306   2.871   2.706   4.790  0.4873  0.8703 -0.2393
 2827SOL    HW311307   2.965   2.589   4.770 -0.5977 -0.1631  0.6364
 2827SOL    MW411308   2.950   2.675   4.772  0.1913 -0.0075 -0.0561
 2828SOL     OW11309   3.122   1.950   4.171  0.3316  0.4023 -0.4074
 2828SOL    HW211310   3.130   1.864   4.213 -1.0272  0.2265 -0.4783
 2828SOL    HW311311   3.204   1.995   4.193 -0.2458  0.2375  2.2629
 2828SOL    MW411312   3.134   1.944   4.179  0.0762  0.3574 -0.0644
 2829SOL     OW11313   1.050   3.891   4.763  0.0084 -0.2126  0.2590
 2829SOL    HW211314   1.075   3.983   4.771 -0.3488  0.0876 -1.8543
 2829SOL    HW311315   1.121   3.851   4.712 -1.5063 -0.3525 -1.7855
 2829SOL    MW411316   1.063   3.898   4.757 -0.2386 -0.1915 -0.2895
 2830SOL     OW11317   2.069   4.524   4.524 -0.0107 -0.1782  0.2261
 2830SOL    HW211318   1.981   4.549   4.551 -0.1149 -0.8124  0.4783
 2830SOL    HW311319   2.110   4.488   4.602  0.2939 -0.3687 -0.0169
 2830SOL    MW411320   2.063   4.523   4.538  0.0158 -0.2870  0.2273
 2831SOL     OW11321   0.246   4.349   4.340 -0.1940 -0.2494 -0.0086
 2831SOL    HW211322   0.322   4.330   4.285  0.2679  0.9623  0.1983
 2831SOL    HW311323   0.190   4.272   4.331  0.2785 -0.4377 -1.4716
 2831SOL    MW411324   0.249   4.336   4.332 -0.0707 -0.1144 -0.1743
 2832SOL     OW11325   1.534   2.274   4.130  0.2228  0.2767  0.4452
 2832SOL    HW211326   1.499   2.186   4.117  0.8883  0.0107  0.4062
 2832SOL    HW311327   1.548   2.307   4.041  1.2996 -0.1278  0.4472
 2832SOL    MW411328   1.531   2.267   4.116  0.4526  0.1882  0.4403
 2833SOL     OW11329   1.960   2.324   4.149 -0.0736  0.5273 -0.0628
 2833SOL    HW211330   2.042   2.366   4.175 -0.2977  1.1500 -0.3577
 2833SOL    HW311331   1.965   2.318   4.054  0.2926 -0.8168  0.0191
 2833SOL    MW411332   1.972   2.328   4.140 -0.0549  0.4321 -0.0909
 2834SOL     OW11333   4.055   0.082   4.195  0.1123 -0.2481 -0.5580
 2834SOL    HW211334   4.135   0.049   4.154  0.6598  0.0327  0.2819
 2834SOL    HW311335   4.057   0.176   4.179 -0.3535 -0.3127 -1.0417
 2834SOL    MW411336   4.065   0.090   4.187  0.1231 -0.2196 -0.5110
 2835SOL     OW11337   3.716   1.835   4.994 -0.1644  0.4178 -0.1244
 2835SOL    HW211338   3.654   1.861   4.925 -1.7695 -2.3780  0.1946
 2835SOL    HW311339   3.780   1.906   4.995 -1.9729  2.2047 -2.1681
 2835SOL    MW411340   3.716   1.848   4.985 -0.6148  0.2847 -0.3520
 2836SOL     OW11341   3.653   1.693   4.274  0.2041  0.5827 -0.3752
 2836SOL    HW211342   3.647   1.785   4.250 -0.3432  0.3323 -1.1938
 2836SOL    HW311343   3.653   1.694   4.370 -3.0116  1.2600 -0.3149
 2836SOL    MW411344   3.652   1.705   4.284 -0.2923  0.6390 -0.4752
 2837SOL     OW11345   0.086   1.659   4.195  0.2467  0.6841  0.2974
 2837SOL    HW211346  -0.004   1.644   4.165  0.5159 -2.2880  0.8312
 2837SOL    HW311347   0.101   1.752   4.180 -2.0473  0.7261 -2.1619
 2837SOL    MW411348   0.076   1.669   4.189 -0.0204  0.2975  0.0433
 2838SOL     OW11349   2.550   2.496   4.802 -0.2118 -0.2789  0.1145
 2838SOL    HW211350   2.533   2.457   4.717 -0.6296 -0.8020  0.4355
 2838SOL    HW311351   2.573   2.422   4.858 -0.0619  0.0495  0.4875
 2838SOL    MW411352   2.551   2.481   4.798 -0.2472 -0.3046  0.2061
 2839SOL     OW11353   1.580   0.497   4.700  0.4676  0.3817 -0.1384
 2839SOL    HW211354   1.491   0.487   4.733  0.3144 -0.0576 -0.7001
 2839SOL    HW311355   1.613   0.575   4.746 -0.2768  0.6776 -0.0986
 2839SOL    MW411356   1.573   0.506   4.711  0.3492  0.3628 -0.2073
 2840SOL     OW11357   0.721   1.176   4.367 -0.0620 -0.0347  0.2263
 2840SOL    HW211358   0.697   1.208   4.454  0.6365  0.4865  0.2363
 2840SOL    HW311359   0.798   1.227   4.344  0.8154 -1.4131  0.0452
 2840SOL    MW411360   0.728   1.187   4.376  0.1459 -0.1478  0.2037
 2841SOL     OW11361   3.376   0.038   4.128 -0.0059 -0.0362  0.3787
 2841SOL    HW211362   3.303   0.084   4.169  0.4652  0.0131  1.1968
 2841SOL    HW311363   3.454   0.071   4.175  0.5189 -0.1821 -0.3844
 2841SOL    MW411364   3.377   0.048   4.140  0.1255 -0.0489  0.3860
 2842SOL     OW11365   0.512   0.456   4.696 -0.3630  0.1821  0.0226
 2842SOL    HW211366   0.452   0.518   4.652 -0.1975  1.3185  1.3578
 2842SOL    HW311367   0.460   0.377   4.706 -0.5977  0.0830 -1.6855
 2842SOL    MW411368   0.497   0.454   4.691 -0.3721  0.3190 -0.0266
 2843SOL     OW11369   3.194   3.053   4.512 -0.4487  0.4817 -0.3304
 2843SOL    HW211370   3.139   3.105   4.571 -0.1841  0.1734  0.1951
 2843SOL    HW311371   3.174   3.086   4.425  2.3092  4.0326  0.2366
 2843SOL    MW411372   3.184   3.064   4.509 -0.0499  0.9095 -0.1863
 2844SOL     OW11373   1.433   0.907   4.455 -0.2049 -0.0355 -0.1810
 2844SOL    HW211374   1.527   0.921   4.469  0.6311 -1.4622 -3.9139
 2844SOL    HW311375   1.420   0.813   4.470 -1.1555  0.2199  0.6994
 2844SOL    MW411376   1.444   0.896   4.459 -0.2200 -0.1900 -0.5574
 2845SOL     OW11377   2.235   0.085   4.454 -0.0254  0.1670  0.1942
 2845SOL    HW211378   2.218   0.109   4.363 -0.8415 -0.5917  0.1435
 2845SOL    HW311379   2.193  -0.000   4.465  0.3420  0.1059  1.1931
 2845SOL    MW411380   2.228   0.077   4.444 -0.0846  0.0588  0.3193
 2846SOL     OW11381   2.207   0.164   4.793  0.3648  0.4683  0.0337
 2846SOL    HW211382   2.293   0.134   4.822  0.4450 -1.4660 -2.0994
 2846SOL    HW311383   2.226   0.232   4.728  0.3139 -0.5313 -1.0391
 2846SOL    MW411384   2.221   0.169   4.789  0.3687  0.0812 -0.3893
 2847SOL     OW11385   3.635   1.170   4.180 -0.0670  0.1287  0.5908
 2847SOL    HW211386   3.638   1.170   4.084  0.6428 -2.6514  0.5476
 2847SOL    HW311387   3.719   1.207   4.207 -0.5487  1.5564  0.1586
 2847SOL    MW411388   3.647   1.175   4.171 -0.0369 -0.0497  0.5281
 2848SOL     OW11389   1.241   1.133   4.128 -0.2110  0.1307  0.3207
 2848SOL    HW211390   1.294   1.170   4.057  2.2000 -0.7943  1.5457
 2848SOL    HW311391   1.248   1.197   4.199  2.1405 -1.5100  1.6604
 2848SOL    MW411392   1.249   1.146   4.128  0.4174 -0.2078  0.6591
 2849SOL     OW11393   1.917   0.145   4.763 -0.0048  0.2166 -0.0984
 2849SOL    HW211394   1.886   0.068   4.716  0.9578  1.0557 -2.1447
 2849SOL    HW311395   2.011   0.130   4.775 -0.1643  0.2096  1.1781
 2849SOL    MW411396   1.925   0.133   4.758  0.1012  0.3264 -0.1999
 2850SOL     OW11397   2.715   3.767   4.592  0.2506  0.3984 -0.6414
 2850SOL    HW211398   2.689   3.858   4.584  1.1537  0.6134 -1.2407
 2850SOL    HW311399   2.638   3.717   4.562 -0.1872  0.9616 -0.4578
 2850SOL    MW411400   2.701   3.772   4.587  0.3120  0.5011 -0.6963
 2851SOL     OW11401   2.348   1.229   4.736  0.6847  0.3436  0.7886
 2851SOL    HW211402   2.259   1.195   4.727  0.4892  0.8463  0.8056
 2851SOL    HW311403   2.372   1.257   4.648  0.8528  0.1431  0.7714
 2851SOL    MW411404   2.339   1.228   4.724  0.6811  0.3834  0.7886
 2852SOL     OW11405   4.207   2.973   4.164  0.0140  0.6012 -0.0384
 2852SOL    HW211406   4.232   2.988   4.072  1.9310  1.5998  0.6188
 2852SOL    HW311407   4.174   3.057   4.194  2.5636  1.2349  1.1308
 2852SOL    MW411408   4.206   2.986   4.156  0.6033  0.8166  0.2026
 2853SOL     OW11409   3.388   3.864   4.146  0.1993 -0.2144  0.0266
 2853SOL    HW211410   3.387   3.852   4.051  0.2890 -0.1253  0.0137
 2853SOL    HW311411   3.398   3.776   4.181  2.8136 -0.0115 -0.1103
 2853SOL    MW411412   3.389   3.851   4.138  0.5561 -0.1759  0.0068
 2854SOL     OW11413   2.608   0.584   4.649  0.1042 -0.2861 -0.0381
 2854SOL    HW211414   2.563   0.516   4.600  0.3500  0.6837 -1.6575
 2854SOL    HW311415   2.547   0.658   4.649 -0.3802 -0.6322  2.1452
 2854SOL    MW411416   2.594   0.585   4.643  0.0727 -0.2038  0.0363
 2855SOL     OW11417   0.388   2.155   4.707  0.1495  0.0887  0.1212
 2855SOL    HW211418   0.369   2.073   4.663  1.5564 -0.7334  1.0247
 2855SOL    HW311419   0.446   2.131   4.779 -1.9892  1.4051  2.3632
 2855SOL    MW411420   0.393   2.141   4.711  0.0529  0.1539  0.5362
 2856SOL     OW11421   4.085   3.219   4.237  0.3832  0.1448 -0.0615
 2856SOL    HW211422   4.005   3.176   4.206 -0.2744  0.9711  0.4820
 2856SOL    HW311423   4.079   3.214   4.332  1.4172 -0.5901 -0.0295
 2856SOL    MW411424   4.074   3.212   4.245  0.4328  0.1569  0.0145
 2857SOL     OW11425   2.594   2.286   4.990  0.0508  0.4625  0.4234
 2857SOL    HW211426   2.685   2.255   4.986  0.0960  0.6881 -0.5295
 2857SOL    HW311427   2.543   2.216   4.949 -0.2039  0.3554  0.9172
 2857SOL    MW411428   2.599   2.273   4.984  0.0231  0.4782  0.3628
 2858SOL     OW11429   1.626   4.413   4.642  0.6869 -0.1444  0.6782
 2858SOL    HW211430   1.663   4.341   4.591  1.5901  1.0665 -0.4351
 2858SOL    HW311431   1.598   4.373   4.724 -0.6086 -2.1084 -0.6736
 2858SOL    MW411432   1.627   4.399   4.646  0.6351 -0.2438  0.3530
 2859SOL     OW11433   4.454   2.505   4.224  0.4974 -0.3588  0.2120
 2859SOL    HW211434   4.471   2.499   4.318 -0.0648 -1.7295  0.2434
 2859SOL    HW311435   4.419   2.593   4.211 -1.9199 -1.0436  1.7219
 2859SOL    MW411436   4.452   2.516   4.235  0.1043 -0.6300  0.4153
 2860SOL     OW11437   3.804   0.302   4.769 -0.1585 -0.1460 -0.3415
 2860SOL    HW211438   3.734   0.245   4.737  0.8371 -1.0052 -1.0219
 2860SOL    HW311439   3.814   0.368   4.700 -1.2923  0.8497  0.4345
 2860SOL    MW411440   3.796   0.304   4.755 -0.1768 -0.1280 -0.3289
 2861SOL     OW11441   0.875   3.223   4.204  0.1608 -0.4518  0.3717
 2861SOL    HW211442   0.876   3.217   4.300  0.6752 -0.8591  0.3375
 2861SOL    HW311443   0.946   3.167   4.175  0.9568  0.8317 -0.1923
 2861SOL    MW411444   0.884   3.215   4.213  0.3337 -0.3362  0.2928
 2862SOL     OW11445   3.294   1.726   4.568 -0.6862  0.2509 -0.0902
 2862SOL    HW211446   3.270   1.818   4.562 -0.8609  0.1400 -1.1685
 2862SOL    HW311447   3.238   1.691   4.637 -1.5759  0.6582 -0.5947
 2862SOL    MW411448   3.283   1.733   4.576 -0.8266  0.2900 -0.2990
 2863SOL     OW11449   1.724   2.427   4.216  0.0118 -0.1689 -0.2888
 2863SOL    HW211450   1.807   2.386   4.196  0.1825  1.0342 -2.1364
 2863SOL    HW311451   1.658   2.362   4.192  0.3692 -0.6452  0.0120
 2863SOL    MW411452   1.726   2.413   4.210  0.0815 -0.0730 -0.4929
 2864SOL     OW11453   3.858   3.085   4.157 -0.1997  0.2824  0.6490
 2864SOL    HW211454   3.836   3.092   4.065  0.1062  0.2771  0.5736
 2864SOL    HW311455   3.789   3.134   4.202 -0.4598  0.1148  0.4345
 2864SOL    MW411456   3.846   3.092   4.151 -0.1936  0.2596  0.6108
 2865SOL     OW11457   3.164   4.279   4.798 -0.8574 -0.1848 -0.2172
 2865SOL    HW211458   3.163   4.369   4.831 -2.4093  0.5516 -2.2410
 2865SOL    HW311459   3.257   4.258   4.791 -0.4465  1.8480 -1.2828
 2865SOL    MW411460   3.176   4.288   4.802 -1.0079  0.1806 -0.6248
 2866SOL     OW11461   4.290   1.300   4.235 -0.4504 -0.3773  0.1697
 2866SOL    HW211462   4.356   1.238   4.204  0.0435  0.8920 -1.3478
 2866SOL    HW311463   4.311   1.382   4.191 -0.8684  0.9909  2.4212
 2866SOL    MW411464   4.302   1.303   4.225 -0.4404 -0.0293  0.2666
 2867SOL     OW11465   2.218   1.121   4.155 -0.3134  0.3941  0.1760
 2867SOL    HW211466   2.293   1.159   4.200  1.2290 -2.1895 -0.1515
 2867SOL    HW311467   2.202   1.038   4.199 -2.7118  0.6970 -0.0518
 2867SOL    MW411468   2.226   1.115   4.167 -0.4264  0.0932  0.1028
 2868SOL     OW11469   1.310   0.420   4.758  0.2062 -0.3348 -0.0119
 2868SOL    HW211470   1.218   0.445   4.765 -0.0148 -1.2439  0.3495
 2868SOL    HW311471   1.311   0.347   4.696  0.9922  1.3098 -2.0126
 2868SOL    MW411472   1.298   0.414   4.751  0.2808 -0.2378 -0.2282
 2869SOL     OW11473   3.618   1.797   4.572  0.2791  0.2783 -0.2348
 2869SOL    HW211474   3.525   1.780   4.586  0.6008 -0.1202  1.5084
 2869SOL    HW311475   3.638   1.870   4.630  1.1516  0.0977 -0.3072
 2869SOL    MW411476   3.608   1.804   4.581  0.4366  0.2019 -0.0143
 2870SOL     OW11477   3.365   0.521   4.213 -0.0730 -0.4421 -0.3806
 2870SOL    HW211478   3.449   0.476   4.210 -0.5276 -1.3130 -0.1282
 2870SOL    HW311479   3.345   0.529   4.306 -0.1380  0.0041 -0.4323
 2870SOL    MW411480   3.373   0.516   4.224 -0.1415 -0.4982 -0.3541
 2871SOL     OW11481   2.739   1.711   4.534  0.2334  0.1104  0.1869
 2871SOL    HW211482   2.810   1.647   4.544  0.1568  0.1180  0.7692
 2871SOL    HW311483   2.725   1.715   4.439  0.9572  0.0474  0.0694
 2871SOL    MW411484   2.747   1.703   4.523  0.3188  0.1031  0.2482
 2872SOL     OW11485   1.664   2.073   4.369 -0.2528 -0.3253  0.1468
 2872SOL    HW211486   1.696   2.163   4.362  1.3756 -0.9182 -0.1250
 2872SOL    HW311487   1.693   2.044   4.456 -0.4814 -0.7135  0.0953
 2872SOL    MW411488   1.672   2.081   4.380 -0.0681 -0.4548  0.1041
 2873SOL     OW11489   1.975   1.294   4.516 -0.1970 -0.1078  0.1443
 2873SOL    HW211490   1.992   1.298   4.422  0.8787 -0.5343  0.3099
 2873SOL    HW311491   2.009   1.378   4.550  0.8626 -0.6144  0.3627
 2873SOL    MW411492   1.982   1.306   4.508  0.0847 -0.2309  0.1949
 2874SOL     OW11493   2.244   2.346   4.493 -0.0613 -0.1776 -0.8908
 2874SOL    HW211494   2.337   2.348   4.516 -0.4795 -0.9601  0.9619
 2874SOL    HW311495   2.218   2.254   4.505 -1.7530  0.5537  1.5609
 2874SOL    MW411496   2.253   2.334   4.498 -0.3397 -0.1843 -0.3229
 2875SOL     OW11497   2.714   4.218   4.711  0.1820 -0.1090 -0.2368
 2875SOL    HW211498   2.696   4.308   4.683 -0.1354 -0.3066 -0.6670
 2875SOL    HW311499   2.803   4.200   4.680 -0.0624 -0.2288 -0.8602
 2875SOL    MW411500   2.723   4.227   4.704  0.1079 -0.1509 -0.3758
 2876SOL     OW11501   1.070   2.332   4.322 -0.3789  0.4337  0.1448
 2876SOL    HW211502   1.037   2.340   4.233 -0.4112 -1.2400 -0.0245
 2876SOL    HW311503   1.157   2.371   4.319 -0.7258  1.1755 -0.3993
 2876SOL    MW411504   1.077   2.338   4.310 -0.4289  0.3108  0.0507
 2877SOL     OW11505   1.226   3.748   4.589 -0.1839 -0.1789 -0.4399
 2877SOL    HW211506   1.277   3.825   4.564 -0.9293  0.1058 -1.0943
 2877SOL    HW311507   1.272   3.674   4.549 -0.4603  0.1057 -1.2789
 2877SOL    MW411508   1.239   3.749   4.581 -0.3187 -0.1038 -0.6370
 2878SOL     OW11509   0.405   4.047   4.554  0.2412 -0.1725 -0.3613
 2878SOL    HW211510   0.476   3.989   4.582  0.7009  0.6773  0.2751
 2878SOL    HW311511   0.448   4.133   4.544 -0.3991  0.0388 -1.4008
 2878SOL    MW411512   0.420   4.051   4.556  0.2174 -0.0325 -0.4144
 2879SOL     OW11513   2.415   3.219   4.632 -0.3655 -0.3674 -0.1708
 2879SOL    HW211514   2.399   3.309   4.659 -0.2069 -1.2092  2.9820
 2879SOL    HW311515   2.329   3.185   4.608 -0.6457  0.1924  0.0298
 2879SOL    MW411516   2.402   3.226   4.632 -0.3815 -0.4046  0.2717
 2880SOL     OW11517   2.006   2.065   4.277 -0.4007 -0.2329  0.5088
 2880SOL    HW211518   1.999   2.153   4.242  1.2024 -0.1860  0.2598
 2880SOL    HW311519   2.024   2.078   4.370  0.2500 -0.2922  0.3911
 2880SOL    MW411520   2.007   2.078   4.285 -0.1034 -0.2345  0.4604
 2881SOL     OW11521   1.610   2.402   4.675 -0.0990  0.5637 -0.6606
 2881SOL    HW211522   1.674   2.407   4.605  0.6495  0.7741  0.0290
 2881SOL    HW311523   1.643   2.333   4.733  0.2249  1.6030  0.4057
 2881SOL    MW411524   1.623   2.394   4.674  0.0425  0.7286 -0.4289
 2882SOL     OW11525   1.057   0.256   4.374  0.2817 -0.4985  0.6843
 2882SOL    HW211526   1.099   0.340   4.393  0.3788  0.0889 -1.9480
 2882SOL    HW311527   1.125   0.205   4.329 -0.8031 -0.7084 -0.7550
 2882SOL    MW411528   1.072   0.260   4.370  0.1514 -0.4487  0.1471
 2883SOL     OW11529   1.109   3.097   4.129 -0.4001 -0.6673 -0.6947
 2883SOL    HW211530   1.129   3.111   4.036 -0.8168  1.7872 -0.4631
 2883SOL    HW311531   1.162   3.162   4.175 -0.3581 -1.7173  0.7875
 2883SOL    MW411532   1.118   3.108   4.123 -0.4496 -0.4820 -0.4686
 2884SOL     OW11533   2.067   1.557   4.630  0.1539 -0.3614  0.6052
 2884SOL    HW211534   2.154   1.559   4.590  0.2315  0.7491  0.8239
 2884SOL    HW311535   2.024   1.636   4.598 -0.3573 -0.2952  1.4438
 2884SOL    MW411536   2.073   1.567   4.620  0.0967 -0.2061  0.7447
 2885SOL     OW11537   2.941   0.824   4.568 -0.3664 -0.2864 -0.1593
 2885SOL    HW211538   2.853   0.851   4.543 -0.4948  0.3515  0.9670
 2885SOL    HW311539   2.998   0.894   4.537 -0.4268  0.0525  0.4851
 2885SOL    MW411540   2.937   0.836   4.561 -0.3913 -0.1575  0.0743
 2886SOL     OW11541   0.334   2.317   4.335 -0.8110 -0.0499 -0.6904
 2886SOL    HW211542   0.313   2.332   4.427  0.4708  0.9559 -0.5440
 2886SOL    HW311543   0.319   2.224   4.322 -3.1252  0.1910 -0.0449
 2886SOL    MW411544   0.329   2.307   4.346 -0.9472  0.1146 -0.5859
 2887SOL     OW11545   0.174   3.970   4.120 -0.1806 -0.0775 -0.4432
 2887SOL    HW211546   0.125   4.030   4.176  1.6146 -1.0898  2.3282
 2887SOL    HW311547   0.143   3.883   4.145  1.4996 -0.6072 -0.1426
 2887SOL    MW411548   0.164   3.967   4.131  0.2779 -0.2809 -0.0379
 2888SOL     OW11549   0.020   1.161   4.130 -0.1725  0.4391  0.4000
 2888SOL    HW211550   0.071   1.240   4.149  1.3891 -0.4789  0.1247
 2888SOL    HW311551   0.015   1.158   4.035 -0.8769  0.5990  0.4291
 2888SOL    MW411552   0.026   1.171   4.120 -0.0594  0.3391  0.3675
 2889SOL     OW11553   2.473   1.335   4.494  0.0468 -0.5483 -0.3227
 2889SOL    HW211554   2.473   1.306   4.403 -0.7399 -0.1854 -0.4371
 2889SOL    HW311555   2.561   1.314   4.526 -0.7229 -3.7555 -0.1691
 2889SOL    MW411556   2.485   1.329   4.486 -0.1586 -0.9236 -0.3176
 2890SOL     OW11557   3.571   4.242   4.143 -0.1028 -0.1947 -0.3261
 2890SOL    HW211558   3.547   4.170   4.200 -1.3965  0.0437 -0.5495
 2890SOL    HW311559   3.505   4.309   4.160  1.2283  1.0406  0.0662
 2890SOL    MW411560   3.560   4.241   4.152 -0.0979 -0.0002 -0.3038
 2891SOL     OW11561   2.223   0.343   4.594  0.1912  0.3867  0.2418
 2891SOL    HW211562   2.308   0.379   4.567  0.4544  0.2497  0.8955
 2891SOL    HW311563   2.218   0.259   4.549  0.7805  0.0046  0.8771
 2891SOL    MW411564   2.234   0.337   4.584  0.3037  0.3182  0.4119
 2892SOL     OW11565   2.897   0.839   4.834  0.0113 -0.0287 -0.0248
 2892SOL    HW211566   2.832   0.771   4.847 -1.0502  1.2263  1.4511
 2892SOL    HW311567   2.904   0.849   4.739 -0.7434 -1.3139 -0.2179
 2892SOL    MW411568   2.889   0.832   4.823 -0.2283 -0.0327  0.1444
 2893SOL     OW11569   4.067   1.945   4.179 -0.4016  0.1953  0.2655
 2893SOL    HW211570   4.061   1.855   4.211  0.5621  0.0335  0.0043
 2893SOL    HW311571   3.982   1.984   4.200 -1.8617 -1.5636 -2.0390
 2893SOL    MW411572   4.055   1.938   4.186 -0.4671 -0.0581 -0.0730
 2894SOL     OW11573   3.780   2.780   4.577  0.1792  0.0892  0.4257
 2894SOL    HW211574   3.809   2.795   4.487 -0.2928 -1.1828  0.0637
 2894SOL    HW311575   3.779   2.685   4.587  0.1824  0.2213  1.7621
 2894SOL    MW411576   3.784   2.770   4.566  0.1174 -0.0612  0.5542
 2895SOL     OW11577   1.337   3.283   4.498  0.0732  0.1351 -0.4211
 2895SOL    HW211578   1.246   3.259   4.516 -0.0836 -0.4675 -1.9586
 2895SOL    HW311579   1.334   3.377   4.483 -0.1790  0.2314  0.1951
 2895SOL    MW411580   1.325   3.292   4.499  0.0192  0.0683 -0.5427
 2896SOL     OW11581   1.822   4.614   4.577  0.1185  0.4611 -0.7679
 2896SOL    HW211582   1.752   4.554   4.602 -0.0834  1.4701  1.1447
 2896SOL    HW311583   1.776   4.688   4.536  0.0498  1.1957  0.6316
 2896SOL    MW411584   1.807   4.616   4.575  0.0828  0.6911 -0.3309
 2897SOL     OW11585   3.341   4.207   4.500 -1.1199 -0.2686 -0.0852
 2897SOL    HW211586   3.352   4.175   4.590  0.9022 -1.4295 -0.7238
 2897SOL    HW311587   3.347   4.302   4.508 -1.7647 -0.3175  1.1110
 2897SOL    MW411588   3.343   4.215   4.513 -0.9382 -0.4282 -0.0117
 2898SOL     OW11589   1.572   3.548   4.684  0.1965 -0.4312 -0.0398
 2898SOL    HW211590   1.518   3.505   4.750  0.6855  1.9265  1.9884
 2898SOL    HW311591   1.580   3.638   4.715  1.5702  0.3950 -2.6440
 2898SOL    MW411592   1.566   3.554   4.697  0.4423 -0.0111 -0.1158
 2899SOL     OW11593   2.733   1.125   4.860  0.2390 -0.1772 -0.2788
 2899SOL    HW211594   2.762   1.034   4.850 -0.1844 -0.1991 -1.2930
 2899SOL    HW311595   2.652   1.119   4.910  0.1870 -0.3479 -0.3862
 2899SOL    MW411596   2.726   1.112   4.865  0.1763 -0.2026 -0.4268
 2900SOL     OW11597   2.897   2.808   4.320  0.1532 -0.3123 -0.5371
 2900SOL    HW211598   2.958   2.790   4.249  0.1316 -0.5347 -0.4997
 2900SOL    HW311599   2.949   2.798   4.400 -0.1400 -1.3667 -0.4691
 2900SOL    MW411600   2.912   2.805   4.321  0.1116 -0.4807 -0.5232
 2901SOL     OW11601   1.116   1.499   4.327 -0.1601  0.6881 -0.1528
 2901SOL    HW211602   1.048   1.434   4.308 -0.7253  0.9169  1.0266
 2901SOL    HW311603   1.083   1.547   4.403  1.2263  0.9563  0.2966
 2901SOL    MW411604   1.103   1.497   4.334 -0.0517  0.7537  0.0621
 2902SOL     OW11605   2.851   2.418   4.541 -0.1771  0.5060  0.1564
 2902SOL    HW211606   2.810   2.504   4.548  0.0690  0.6538 -0.2070
 2902SOL    HW311607   2.889   2.402   4.627  0.9312  1.3463 -0.1615
 2902SOL    MW411608   2.850   2.427   4.553  0.0016  0.6364  0.0665
 2903SOL     OW11609   3.129   2.496   4.245  0.4303  0.0024 -0.0565
 2903SOL    HW211610   3.201   2.455   4.196  0.8519  0.7174 -0.0378
 2903SOL    HW311611   3.129   2.587   4.215  1.1185  0.6171  1.7623
 2903SOL    MW411612   3.138   2.502   4.234  0.5767  0.1778  0.1859
 2904SOL     OW11613   2.096   2.118   4.537 -0.0281 -0.1541 -0.2721
 2904SOL    HW211614   2.033   2.132   4.607 -0.5464 -0.0482 -0.7537
 2904SOL    HW311615   2.140   2.036   4.559  0.1519  0.1285  0.4226
 2904SOL    MW411616   2.094   2.109   4.549 -0.0727 -0.1029 -0.2440
 2905SOL     OW11617   1.054   0.501   4.751 -0.0595 -0.4176  0.1562
 2905SOL    HW211618   0.978   0.454   4.715 -0.0610 -0.3519  0.0727
 2905SOL    HW311619   1.059   0.581   4.699 -0.1798 -0.2304  0.4296
 2905SOL    MW411620   1.044   0.506   4.739 -0.0756 -0.3842  0.1813
 2906SOL     OW11621   4.469   0.994   4.806  0.2605 -0.0888  0.2632
 2906SOL    HW211622   4.438   0.990   4.715  0.7746 -0.7718  0.1114
 2906SOL    HW311623   4.441   1.080   4.837 -0.6002 -0.1604 -0.2948
 2906SOL    MW411624   4.461   1.005   4.798  0.2148 -0.1884  0.1695
 2907SOL     OW11625   4.038   3.227   4.499  0.8958  0.0027 -0.1904
 2907SOL    HW211626   3.998   3.156   4.550 -0.4519 -0.6909 -2.1669
 2907SOL    HW311627   3.978   3.301   4.511  1.1420  0.1525  0.1045
 2907SOL    MW411628   4.025   3.228   4.507  0.7505 -0.0691 -0.4123
 2908SOL     OW11629   0.055   0.271   4.358 -0.0363  0.5012  0.0073
 2908SOL    HW211630   0.048   0.311   4.271  0.2982  3.8255  1.4176
 2908SOL    HW311631   0.146   0.288   4.385 -0.2317 -0.2014  1.1500
 2908SOL    MW411632   0.066   0.279   4.350 -0.0180  0.8471  0.3441
 2909SOL     OW11633   3.478   2.810   4.538  0.1374 -0.5649  0.1988
 2909SOL    HW211634   3.462   2.899   4.569  0.5494 -0.7672  1.0058
 2909SOL    HW311635   3.573   2.798   4.547 -0.1224 -1.6884  1.7493
 2909SOL    MW411636   3.488   2.820   4.543  0.1575 -0.7398  0.5098
 2910SOL     OW11637   0.258   0.863   4.222 -0.2657 -0.2562 -0.5740
 2910SOL    HW211638   0.237   0.793   4.160 -0.9456  0.2011 -0.8704
 2910SOL    HW311639   0.173   0.897   4.249  0.0358 -0.3639  0.5100
 2910SOL    MW411640   0.244   0.858   4.217 -0.3156 -0.2101 -0.4701
 2911SOL     OW11641   3.835   2.068   4.263  0.1234 -0.0429  0.3540
 2911SOL    HW211642   3.829   2.154   4.222  0.0910 -0.4742 -0.5682
 2911SOL    HW311643   3.758   2.020   4.230  1.6516 -1.3607 -1.4134
 2911SOL    MW411644   3.824   2.073   4.253  0.3207 -0.2737 -0.0009
 2912SOL     OW11645   2.383   3.939   4.521  0.2811 -0.4955 -0.6548
 2912SOL    HW211646   2.316   3.945   4.453  0.0510 -2.7865 -0.6688
 2912SOL    HW311647   2.415   3.849   4.516  0.2356 -0.7302  2.2682
 2912SOL    MW411648   2.378   3.928   4.511  0.2447 -0.8287 -0.2710
 2913SOL     OW11649   1.655   3.965   4.540  0.0772  0.1617  0.5823
 2913SOL    HW211650   1.680   4.049   4.579 -0.8927  1.1881 -0.9348
 2913SOL    HW311651   1.678   3.900   4.605  0.3556  1.6672  2.0082
 2913SOL    MW411652   1.661   3.968   4.553 -0.0140  0.4958  0.5703
 2914SOL     OW11653   3.645   3.211   4.309 -0.1980 -0.5513  0.2550
 2914SOL    HW211654   3.566   3.163   4.281 -0.7451 -0.1556  1.1046
 2914SOL    HW311655   3.650   3.286   4.249 -0.4998 -0.5448  0.2357
 2914SOL    MW411656   3.635   3.214   4.297 -0.3100 -0.4982  0.3646
 2915SOL     OW11657   1.217   2.879   4.276  0.2994  0.1735  0.2920
 2915SOL    HW211658   1.182   2.901   4.362 -1.1714 -2.0263  0.2922
 2915SOL    HW311659   1.169   2.937   4.216 -0.3674  0.0872  0.7290
 2915SOL    MW411660   1.206   2.890   4.279  0.0174 -0.1281  0.3497
 2916SOL     OW11661   0.504   1.468   4.742 -0.4444  0.2692 -0.1984
 2916SOL    HW211662   0.595   1.493   4.762  0.8060 -2.7043 -1.8171
 2916SOL    HW311663   0.481   1.522   4.667 -0.4187  1.8424  0.9112
 2916SOL    MW411664   0.513   1.478   4.735 -0.2761  0.0845 -0.2656
 2917SOL     OW11665   0.801   0.218   4.465 -0.0343 -0.2041  0.2144
 2917SOL    HW211666   0.877   0.220   4.407 -1.2850 -0.8492 -1.4797
 2917SOL    HW311667   0.764   0.131   4.455 -1.0074  0.0961  1.0320
 2917SOL    MW411668   0.806   0.207   4.456 -0.3277 -0.2496  0.0988
 2918SOL     OW11669   3.546   0.901   4.529 -0.3304  0.2776  0.2254
 2918SOL    HW211670   3.495   0.982   4.538 -0.1486  0.6027 -1.5023
 2918SOL    HW311671   3.633   0.924   4.562 -0.1418  0.9384 -0.7153
 2918SOL    MW411672   3.551   0.915   4.535 -0.2816  0.4077 -0.1267
 2919SOL     OW11673   0.422   4.013   4.264 -0.3565 -0.1532 -0.0709
 2919SOL    HW211674   0.336   3.989   4.230  0.6265 -2.9796 -0.6979
 2919SOL    HW311675   0.413   4.002   4.359 -0.7987 -0.1185 -0.1065
 2919SOL    MW411676   0.409   4.008   4.272 -0.2852 -0.5216 -0.1583
 2920SOL     OW11677   3.267   0.562   4.484  0.0927  0.1461 -0.2255
 2920SOL    HW211678   3.213   0.540   4.560  1.4157  1.2837  1.0916
 2920SOL    HW311679   3.354   0.581   4.521  1.5556 -2.1093 -2.3361
 2920SOL    MW411680   3.272   0.562   4.499  0.4603 -0.0014 -0.3302
 2921SOL     OW11681   3.834   0.132   4.980 -0.6947 -0.3577 -0.0031
 2921SOL    HW211682   3.849   0.205   4.920 -0.6480  0.1160  0.5737
 2921SOL    HW311683   3.809   0.059   4.924  0.8329 -0.3377 -0.7252
 2921SOL    MW411684   3.832   0.132   4.965 -0.4870 -0.2926 -0.0222
 2922SOL     OW11685   0.048   4.154   4.280  0.2681 -0.0700 -0.1298
 2922SOL    HW211686  -0.013   4.095   4.323 -0.7900  0.9805 -0.1627
 2922SOL    HW311687  -0.007   4.217   4.234  1.3845 -0.3846 -1.9491
 2922SOL    MW411688   0.033   4.155   4.280  0.2758  0.0271 -0.3742
 2923SOL     OW11689   0.597   2.406   4.277  0.3702  0.2859  0.0339
 2923SOL    HW211690   0.632   2.384   4.363 -0.5505  0.0697  0.3628
 2923SOL    HW311691   0.507   2.372   4.278  0.6203 -0.4673 -1.3138
 2923SOL    MW411692   0.590   2.398   4.289  0.2817  0.1580 -0.1005
 2924SOL     OW11693   2.870   0.554   4.531  0.0661  0.0018 -0.0556
 2924SOL    HW211694   2.908   0.640   4.546  0.2110 -0.1004  0.1659
 2924SOL    HW311695   2.776   0.568   4.541 -0.1964  0.7968 -3.1819
 2924SOL    MW411696   2.863   0.567   4.534  0.0506  0.0932 -0.4389
 2925SOL     OW11697   4.092   1.659   4.242 -0.6319 -0.2696 -0.5940
 2925SOL    HW211698   4.008   1.614   4.229 -0.5924 -0.6940  0.5980
 2925SOL    HW311699   4.085   1.698   4.329  0.2666 -0.0040 -0.6432
 2925SOL    MW411700   4.080   1.658   4.252 -0.5082 -0.2906 -0.4432
 2926SOL     OW11701   0.591   2.062   4.893  0.3350 -0.0569 -0.2006
 2926SOL    HW211702   0.669   2.116   4.901  0.1280  0.2303 -0.1006
 2926SOL    HW311703   0.622   1.981   4.853  0.5503  0.3439 -0.8450
 2926SOL    MW411704   0.605   2.058   4.889  0.3361  0.0338 -0.2724
 2927SOL     OW11705   0.289   1.358   4.956  0.3591 -0.0801 -0.2247
 2927SOL    HW211706   0.255   1.269   4.942 -0.0182  0.1505 -0.7897
 2927SOL    HW311707   0.365   1.364   4.899  0.2211  0.0561 -0.3932
 2927SOL    MW411708   0.294   1.347   4.947  0.2911 -0.0317 -0.3215
 2928SOL     OW11709   0.449   0.553   4.049  0.8156 -0.5362 -0.3454
 2928SOL    HW211710   0.507   0.625   4.022  0.9409 -0.6520 -0.3839
 2928SOL    HW311711   0.466   0.542   4.142 -0.3876  0.5755  0.0238
 2928SOL    MW411712   0.459   0.561   4.058  0.6734 -0.4048 -0.3017
 2929SOL     OW11713   3.787   0.789   4.174 -0.5422  0.1454  0.2212
 2929SOL    HW211714   3.792   0.805   4.080  1.4970  0.6217  0.3888
 2929SOL    HW311715   3.696   0.808   4.197 -1.6163 -2.0293 -2.0139
 2929SOL    MW411716   3.776   0.793   4.165 -0.4148 -0.0787 -0.0516
 2930SOL     OW11717   0.036   0.316   4.782 -0.1842 -0.3814 -0.1586
 2930SOL    HW211718   0.012   0.394   4.833  0.7610 -0.1460 -0.0632
 2930SOL    HW311719  -0.018   0.322   4.703 -0.7132 -0.0577  0.2240
 2930SOL    MW411720   0.026   0.327   4.778 -0.1293 -0.3076 -0.0955
 2931SOL     OW11721   0.276   2.396   4.616 -0.3425  0.2509  0.1052
 2931SOL    HW211722   0.306   2.319   4.664 -0.3636 -0.6085 -1.2222
 2931SOL    HW311723   0.350   2.457   4.621  0.7978 -0.9553 -1.1718
 2931SOL    MW411724   0.290   2.394   4.623 -0.1949 -0.0216 -0.2384
 2932SOL     OW11725   3.879   3.038   4.660 -0.0798  0.1675  0.5797
 2932SOL    HW211726   3.799   3.089   4.643 -0.9006 -1.5400 -0.8443
 2932SOL    HW311727   3.849   2.947   4.662  1.8385 -0.4903  0.0758
 2932SOL    MW411728   3.864   3.033   4.658  0.0650 -0.1446  0.3253
 2933SOL     OW11729   4.180   1.205   4.471 -0.7774  0.0111 -0.3922
 2933SOL    HW211730   4.194   1.242   4.384  0.6835  0.8883  0.2031
 2933SOL    HW311731   4.203   1.275   4.532  0.1619 -1.2351  0.7267
 2933SOL    MW411732   4.185   1.219   4.468 -0.4607 -0.0376 -0.1660
 2934SOL     OW11733   1.585   2.712   4.415 -0.0955 -0.2138 -0.5184
 2934SOL    HW211734   1.550   2.796   4.385 -1.3811 -1.2568 -2.0363
 2934SOL    HW311735   1.646   2.686   4.345 -0.4484 -1.0173 -0.5232
 2934SOL    MW411736   1.589   2.720   4.402 -0.3117 -0.4574 -0.7193
 2935SOL     OW11737   1.294   3.263   4.223  0.3616  0.3424 -0.2719
 2935SOL    HW211738   1.320   3.271   4.315 -1.3000 -0.5606  0.2925
 2935SOL    HW311739   1.329   3.342   4.182  0.2245  1.2788  1.3628
 2935SOL    MW411740   1.302   3.275   4.230  0.1243  0.3468  0.0183
 2936SOL     OW11741   2.811   2.998   4.683 -0.0035  0.2466  0.5670
 2936SOL    HW211742   2.772   2.919   4.720 -0.8235  0.1459 -0.4978
 2936SOL    HW311743   2.742   3.036   4.629  0.9848  0.7126 -0.3717
 2936SOL    MW411744   2.797   2.992   4.681  0.0187  0.2948  0.3027
 2937SOL     OW11745   3.112   4.650   4.632  0.0146 -0.1700  0.6264
 2937SOL    HW211746   3.043   4.588   4.610  0.0535  0.4532 -1.3253
 2937SOL    HW311747   3.079   4.734   4.600  1.8792  0.0598 -0.7350
 2937SOL    MW411748   3.098   4.653   4.625  0.2657 -0.0574  0.1893
 2938SOL     OW11749   2.691   1.736   4.256  0.4716 -0.3774  0.5669
 2938SOL    HW211750   2.779   1.708   4.229  0.5784  0.0528  0.4580
 2938SOL    HW311751   2.633   1.665   4.226  0.5642  0.1856 -1.0186
 2938SOL    MW411752   2.695   1.723   4.248  0.4979 -0.2464  0.3433
 2939SOL     OW11753   3.765   2.234   4.768  0.2565 -0.4213  0.4792
 2939SOL    HW211754   3.857   2.215   4.784  0.7088  0.1464 -1.4198
 2939SOL    HW311755   3.744   2.190   4.686 -0.9522  0.1023  0.4874
 2939SOL    MW411756   3.774   2.226   4.760  0.1567 -0.2773  0.2297
 2940SOL     OW11757   2.971   1.288   4.495 -0.1758  0.3488 -0.2100
 2940SOL    HW211758   2.960   1.313   4.404 -1.7026 -0.8903 -0.4064
 2940SOL    HW311759   3.006   1.199   4.492 -1.3158 -0.1379  0.3810
 2940SOL    MW411760   2.974   1.279   4.483 -0.5276  0.1211 -0.1579
 2941SOL     OW11761   0.689   0.628   4.539  0.6303 -0.2258  0.1596
 2941SOL    HW211762   0.717   0.565   4.473  1.0343 -0.5763  0.6621
 2941SOL    HW311763   0.632   0.579   4.597  2.6383 -0.7021  1.7902
 2941SOL    MW411764   0.685   0.613   4.538  0.9485 -0.3349  0.4410
   4.49070   4.66690  10.00000
