Gromacs Runs On Most of All Computer Systems in water
11524
    1DMSO    SD    1   0.045   1.637   4.678 -0.0281  0.4080 -0.0385
    1DMSO   CD1    2   0.151   1.501   4.702  0.1058 -0.3600  0.2259
    1DMSO    OD    3  -0.078   1.591   4.601  0.6221 -0.1974 -0.4170
    1DMSO   CD2    4  -0.009   1.666   4.847 -0.5293  0.0595 -0.6365
    2SOL     OW    5   3.950   2.491   1.685 -0.3223 -0.2081  0.1084
    2SOL    HW2    6   3.911   2.416   1.730  0.8451 -0.1475  1.2365
    2SOL    HW3    7   3.908   2.568   1.725 -0.4815 -0.2038 -0.0631
    2SOL    MW4    8   3.939   2.491   1.696 -0.1892 -0.1995  0.2346
    3SOL     OW    9   3.716   1.230   0.587  0.3982 -0.3127  0.0951
    3SOL    HW2   10   3.800   1.189   0.607  1.4038  0.1598 -2.8833
    3SOL    HW3   11   3.739   1.320   0.562 -1.1038  0.1321  0.2619
    3SOL    MW4   12   3.730   1.237   0.586  0.3327 -0.1917 -0.2758
    4SOL     OW   13   4.270   1.686   0.870  0.3790 -0.2585  0.0013
    4SOL    HW2   14   4.256   1.613   0.809 -0.9129  0.4967 -0.6245
    4SOL    HW3   15   4.202   1.749   0.848  1.4492  1.1269  0.5878
    4SOL    MW4   16   4.259   1.685   0.859  0.3497  0.0239 -0.0039
    5SOL     OW   17   2.034   1.939   1.162 -0.4776 -0.2302 -0.2866
    5SOL    HW2   18   1.952   1.987   1.172 -0.8989 -1.3169  1.6244
    5SOL    HW3   19   2.009   1.858   1.117 -0.8820 -1.6340  2.3787
    5SOL    MW4   20   2.020   1.935   1.157 -0.5865 -0.5588  0.3172
    6SOL     OW   21   3.322   2.443   1.666  0.3439 -0.1195  0.2360
    6SOL    HW2   22   3.391   2.506   1.685  0.0544  0.1210  0.4896
    6SOL    HW3   23   3.241   2.488   1.689  0.2013 -0.9353  1.3854
    6SOL    MW4   24   3.320   2.457   1.671  0.2869 -0.1954  0.4211
    7SOL     OW   25   1.042   4.360   1.108  0.4701 -0.4920 -0.0380
    7SOL    HW2   26   1.107   4.392   1.171 -1.0815  0.5246  1.0967
    7SOL    HW3   27   0.960   4.358   1.158 -0.6113 -0.5134 -1.7977
    7SOL    MW4   28   1.040   4.364   1.123  0.1227 -0.3607 -0.1205
    8SOL     OW   29   0.659   1.574   1.489  0.0583 -0.1828  0.5097
    8SOL    HW2   30   0.596   1.551   1.421  0.0926 -0.9931  0.7506
    8SOL    HW3   31   0.641   1.513   1.561  0.3577  0.3320  1.0327
    8SOL    MW4   32   0.648   1.563   1.490  0.1023 -0.2218  0.6105
    9SOL     OW   33   0.066   4.605   2.108  0.7172  0.6248 -0.2836
    9SOL    HW2   34  -0.029   4.612   2.103  0.4656 -1.8755  0.1624
    9SOL    HW3   35   0.091   4.663   2.179 -0.9554 -1.8222  2.4380
    9SOL    MW4   36   0.057   4.613   2.117  0.4633 -0.0279  0.1343
   10SOL     OW   37   4.108   3.545   0.961 -0.3486 -0.1859 -0.3212
   10SOL    HW2   38   4.155   3.463   0.978 -0.6652 -0.3838 -0.3953
   10SOL    HW3   39   4.167   3.595   0.905 -0.5966 -0.8036 -1.1483
   10SOL    MW4   40   4.122   3.541   0.956 -0.4231 -0.2935 -0.4401
   11SOL     OW   41   2.618   1.607   1.031 -0.0919  0.4483 -0.0328
   11SOL    HW2   42   2.654   1.526   1.068 -0.7816  0.0232 -0.2774
   11SOL    HW3   43   2.631   1.672   1.100  1.8883  0.5049 -0.4402
   11SOL    MW4   44   2.624   1.605   1.045  0.0784  0.3997 -0.1188
   12SOL     OW   45   2.769   1.452   1.615  0.2315 -0.1335  0.2233
   12SOL    HW2   46   2.691   1.503   1.638 -0.8018 -1.6954  0.3341
   12SOL    HW3   47   2.806   1.426   1.700  1.0448  0.8540  0.1722
   12SOL    MW4   48   2.763   1.455   1.629  0.2024 -0.2093  0.2312
   13SOL     OW   49   4.465   1.130   1.814  0.0346  0.6343 -0.3208
   13SOL    HW2   50   4.453   1.166   1.727 -0.8942  1.1185 -0.0016
   13SOL    HW3   51   4.537   1.180   1.852  0.9647 -0.1083 -1.0876
   13SOL    MW4   52   4.473   1.141   1.808  0.0348  0.6002 -0.3799
   14SOL     OW   53   0.745   2.829   2.113 -0.0790 -0.3934 -0.0784
   14SOL    HW2   54   0.655   2.800   2.127  0.5293 -1.4401  1.9005
   14SOL    HW3   55   0.796   2.780   2.177  1.8954  0.2629 -1.1091
   14SOL    MW4   56   0.740   2.819   2.124  0.2617 -0.4449  0.0467
   15SOL     OW   57   1.351   0.826   1.397  0.2887  0.7066  0.1531
   15SOL    HW2   58   1.359   0.787   1.310  0.2675 -0.1533  0.5301
   15SOL    HW3   59   1.436   0.866   1.413  0.1277  1.3202 -0.4685
   15SOL    MW4   60   1.363   0.826   1.387  0.2647  0.6741  0.1208
   16SOL     OW   61   2.781   3.181   1.938  0.5465 -0.1264 -0.1428
   16SOL    HW2   62   2.728   3.207   2.013  0.1213  0.6358 -0.7019
   16SOL    HW3   63   2.871   3.177   1.972  0.2120 -0.8982  0.6751
   16SOL    MW4   64   2.786   3.184   1.952  0.4463 -0.1277 -0.1086
   17SOL     OW   65   3.936   3.738   1.826  0.8806 -0.6630  0.5333
   17SOL    HW2   66   3.942   3.709   1.735  0.3198  1.8331 -0.3387
   17SOL    HW3   67   4.023   3.722   1.862  1.1416 -1.5736 -0.4803
   17SOL    MW4   68   3.948   3.732   1.819  0.8411 -0.4538  0.2845
   18SOL     OW   69   3.130   1.914   1.966  0.3338  0.5576  0.1711
   18SOL    HW2   70   3.057   1.860   1.934  0.5438  1.4966 -2.0120
   18SOL    HW3   71   3.206   1.880   1.919  0.7419  1.7067 -0.0015
   18SOL    MW4   72   3.130   1.902   1.955  0.4154  0.8331 -0.1397
   19SOL     OW   73   3.753   3.332   0.319  0.3996 -0.5468 -0.3045
   19SOL    HW2   74   3.767   3.427   0.317  1.3270 -0.6853 -0.7929
   19SOL    HW3   75   3.808   3.298   0.247 -0.2560 -1.4076 -0.4094
   19SOL    MW4   76   3.762   3.340   0.309  0.4355 -0.6786 -0.3828
   20SOL     OW   77   3.785   1.628   0.813 -0.3705  0.6707 -0.3711
   20SOL    HW2   78   3.860   1.582   0.773  0.3701  2.1796 -0.7931
   20SOL    HW3   79   3.776   1.589   0.899  1.9520  1.5273  0.3094
   20SOL    MW4   80   3.794   1.617   0.819  0.0336  0.9828 -0.3370
   21SOL     OW   81   2.657   4.256   1.791 -0.4257 -0.6164  0.4723
   21SOL    HW2   82   2.584   4.229   1.735  0.1037 -0.1573 -0.4326
   21SOL    HW3   83   2.703   4.174   1.811 -0.3582 -0.7290 -0.1257
   21SOL    MW4   84   2.653   4.241   1.786 -0.3469 -0.5707  0.2740
   22SOL     OW   85   1.769   1.284   1.499  0.3857  0.5076  0.1292
   22SOL    HW2   86   1.772   1.321   1.587  0.1269  0.6924  0.0630
   22SOL    HW3   87   1.703   1.337   1.454 -0.0658 -0.1058  0.0634
   22SOL    MW4   88   1.760   1.296   1.505  0.2920  0.4511  0.1118
   23SOL     OW   89   3.193   2.753   1.568 -0.1439  0.1375  0.2080
   23SOL    HW2   90   3.182   2.848   1.572 -2.7197  0.0075 -2.4482
   23SOL    HW3   91   3.212   2.734   1.476 -0.2590 -1.9894  0.5869
   23SOL    MW4   92   3.194   2.763   1.556 -0.4990 -0.1603 -0.0925
   24SOL     OW   93   3.193   1.122   2.283  0.0175  0.4342 -0.1451
   24SOL    HW2   94   3.252   1.168   2.224 -0.3472  0.8185 -0.2126
   24SOL    HW3   95   3.191   1.032   2.250 -0.2122  0.6588 -0.7375
   24SOL    MW4   96   3.201   1.116   2.271 -0.0609  0.5145 -0.2322
   25SOL     OW   97   0.562   2.278   1.189 -0.2047 -0.1363  0.4742
   25SOL    HW2   98   0.528   2.295   1.277 -0.7656  0.0134  0.2281
   25SOL    HW3   99   0.548   2.359   1.141 -1.5993 -0.8058 -0.2857
   25SOL    MW4  100   0.556   2.291   1.194 -0.4627 -0.2049  0.3415
   26SOL     OW  101   2.163   0.254   1.760 -0.1130 -0.3191  0.3623
   26SOL    HW2  102   2.159   0.169   1.804  0.4318 -0.3753  0.3076
   26SOL    HW3  103   2.257   0.270   1.748 -0.0890  1.3055  2.3593
   26SOL    MW4  104   2.175   0.245   1.764 -0.0380 -0.1122  0.6186
   27SOL     OW  105   4.030   2.367   2.297  0.9085  0.2335  0.4037
   27SOL    HW2  106   4.044   2.291   2.240  0.4439  0.5441 -0.1285
   27SOL    HW3  107   4.086   2.435   2.259  0.5581  0.4578  0.2956
   27SOL    MW4  108   4.039   2.366   2.284  0.8010  0.3041  0.3192
   28SOL     OW  109   4.107   3.099   0.237  0.1970  0.1008 -1.1249
   28SOL    HW2  110   4.201   3.088   0.254  0.1323  2.4579  0.9308
   28SOL    HW3  111   4.067   3.021   0.276  1.0918  0.1603 -0.0443
   28SOL    MW4  112   4.114   3.087   0.244  0.3065  0.4196 -0.7111
   29SOL     OW  113   2.248   4.410   1.826  0.3623  0.4467  0.4820
   29SOL    HW2  114   2.202   4.489   1.854 -0.5407 -0.1671  0.7437
   29SOL    HW3  115   2.198   4.338   1.865  0.3944 -0.3171 -0.8686
   29SOL    MW4  116   2.235   4.411   1.835  0.2474  0.2649  0.3384
   30SOL     OW  117   3.444   2.178   1.650  0.0820  0.3418 -0.2514
   30SOL    HW2  118   3.508   2.186   1.579  1.3954  0.5551  0.9425
   30SOL    HW3  119   3.401   2.264   1.653 -2.0267 -0.5685 -2.6695
   30SOL    MW4  120   3.446   2.191   1.641 -0.0229  0.2499 -0.4129
   31SOL     OW  121   4.451   3.183   0.813  0.1681 -0.6936  0.1013
   31SOL    HW2  122   4.455   3.257   0.752 -1.9392 -0.0451  0.7176
   31SOL    HW3  123   4.410   3.112   0.763  0.2992 -0.8044  0.1491
   31SOL    MW4  124   4.446   3.183   0.798 -0.0926 -0.6226  0.1889
   32SOL     OW  125   1.178   2.019   1.230  0.0834 -0.1864  0.1632
   32SOL    HW2  126   1.188   2.055   1.141  1.5698  0.0252  0.4073
   32SOL    HW3  127   1.204   1.927   1.221 -2.7631 -1.0017 -0.2520
   32SOL    MW4  128   1.183   2.012   1.217 -0.0960 -0.2661  0.1406
   33SOL     OW  129   0.015   2.245   2.180 -0.6809  0.2041 -0.1040
   33SOL    HW2  130   0.038   2.227   2.089  0.9569 -1.8211  0.6596
   33SOL    HW3  131  -0.050   2.178   2.203  0.3889 -0.5613  0.7724
   33SOL    MW4  132   0.010   2.233   2.171 -0.3237 -0.1641  0.1124
   34SOL     OW  133   3.705   4.412   2.028  0.1434 -0.0998 -0.4937
   34SOL    HW2  134   3.684   4.365   2.109  0.0332  0.2721 -0.3064
   34SOL    HW3  135   3.666   4.498   2.040  0.9927  0.2940 -0.5210
   34SOL    MW4  136   3.697   4.417   2.041  0.2409  0.0012 -0.4726
   35SOL     OW  137   3.315   3.393   1.399 -0.1163 -0.3264 -0.4419
   35SOL    HW2  138   3.403   3.430   1.394  0.1118 -0.8396 -0.2885
   35SOL    HW3  139   3.256   3.468   1.390  0.3374  0.0324 -0.4079
   35SOL    MW4  140   3.318   3.408   1.397 -0.0264 -0.3468 -0.4171
   36SOL     OW  141   2.675   0.140   0.385 -0.4912 -0.7067  0.0855
   36SOL    HW2  142   2.727   0.065   0.354  1.0946  0.3952  0.0043
   36SOL    HW3  143   2.724   0.217   0.355 -1.1682  0.3713  1.6609
   36SOL    MW4  144   2.688   0.140   0.377 -0.3713 -0.4191  0.2826
   37SOL     OW  145   0.684   3.420   1.392 -0.0301  0.5134 -0.2820
   37SOL    HW2  146   0.642   3.450   1.311 -0.3824  1.7482  0.3431
   37SOL    HW3  147   0.666   3.326   1.395  1.7092  0.0726 -2.6329
   37SOL    MW4  148   0.676   3.411   1.382  0.1529  0.6181 -0.5097
   38SOL     OW  149   2.428   3.852   2.545  0.1413  0.2030  0.1154
   38SOL    HW2  150   2.364   3.902   2.595  0.4886 -0.2653  1.0348
   38SOL    HW3  151   2.512   3.873   2.585  0.4918  0.3143 -0.6727
   38SOL    MW4  152   2.430   3.861   2.557  0.2334  0.1559  0.1327
   39SOL     OW  153   1.856   3.212   2.155  0.0119  0.7429  0.4379
   39SOL    HW2  154   1.882   3.202   2.064  2.4593 -1.5903  1.3336
   39SOL    HW3  155   1.783   3.152   2.166  2.0316 -1.7159  0.8595
   39SOL    MW4  156   1.850   3.203   2.145  0.6013  0.1106  0.6117
   40SOL     OW  157   0.967   0.481   1.280 -0.4233 -0.0195 -0.4819
   40SOL    HW2  158   0.875   0.457   1.286 -0.2455 -0.4492  0.8033
   40SOL    HW3  159   0.972   0.567   1.322 -0.3296  0.2722 -1.0822
   40SOL    MW4  160   0.955   0.489   1.287 -0.3875 -0.0377 -0.3916
   41SOL     OW  161   0.133   0.304   1.154 -0.2990 -0.4050  0.3662
   41SOL    HW2  162   0.190   0.345   1.219 -1.1380  0.3268  0.6395
   41SOL    HW3  163   0.101   0.376   1.101  0.7971 -1.0467 -1.2201
   41SOL    MW4  164   0.137   0.319   1.156 -0.2651 -0.3931  0.1930
   42SOL     OW  165   0.296   3.870   2.259 -0.2250  0.2430  0.4880
   42SOL    HW2  166   0.264   3.780   2.255  1.7610 -0.3857 -2.5175
   42SOL    HW3  167   0.249   3.914   2.188 -0.0816  1.2410  1.0073
   42SOL    MW4  168   0.285   3.864   2.249  0.0560  0.2917  0.1600
   43SOL     OW  169   0.949   1.333   0.549  0.4226 -0.0814  0.1643
   43SOL    HW2  170   0.956   1.324   0.644  1.3208  0.0565  0.1215
   43SOL    HW3  171   0.968   1.426   0.533 -1.0180  0.1784 -0.0397
   43SOL    MW4  172   0.953   1.344   0.560  0.3510 -0.0289  0.1317
   44SOL     OW  173   2.287   1.118   1.711 -0.0581 -0.4955  0.4927
   44SOL    HW2  174   2.228   1.071   1.770 -0.7423  0.6114  0.7168
   44SOL    HW3  175   2.264   1.087   1.624 -1.9788  0.9489  0.4436
   44SOL    MW4  176   2.276   1.108   1.708 -0.4018 -0.1589  0.5158
   45SOL     OW  177   3.817   2.685   0.648 -0.0111  0.7061 -0.2443
   45SOL    HW2  178   3.797   2.723   0.563 -2.3307  0.9781  0.3840
   45SOL    HW3  179   3.889   2.738   0.683 -0.7099  2.1385 -0.9792
   45SOL    MW4  180   3.824   2.697   0.642 -0.4093  0.9310 -0.2583
   46SOL     OW  181   0.414   2.062   1.083 -0.2165  0.0313  0.5004
   46SOL    HW2  182   0.337   2.107   1.048  0.4469  0.4963 -0.3917
   46SOL    HW3  183   0.479   2.131   1.096  0.4671 -0.5219  0.0613
   46SOL    MW4  184   0.412   2.077   1.080 -0.0388  0.0197  0.3247
   47SOL     OW  185   2.234   1.773   1.961 -0.1811 -0.3579 -0.2441
   47SOL    HW2  186   2.309   1.830   1.943  0.7343 -1.3019  0.5121
   47SOL    HW3  187   2.254   1.733   2.046 -0.1519 -2.8471 -1.3856
   47SOL    MW4  188   2.246   1.775   1.970 -0.0564 -0.8109 -0.2949
   48SOL     OW  189   4.426   4.640   1.507 -0.0587  0.1506 -0.1607
   48SOL    HW2  190   4.486   4.659   1.580 -0.0550  2.2134 -0.6839
   48SOL    HW3  191   4.475   4.578   1.452  0.4052 -0.4956  0.9583
   48SOL    MW4  192   4.441   4.634   1.509  0.0030  0.3375 -0.0821
   49SOL     OW  193   1.819   1.004   1.862  0.1887  0.2636 -0.1988
   49SOL    HW2  194   1.788   0.962   1.782  0.5692 -0.3081 -0.0496
   49SOL    HW3  195   1.768   1.085   1.868 -1.6215 -0.8868  0.2961
   49SOL    MW4  196   1.808   1.009   1.853  0.0001  0.0364 -0.1138
   50SOL     OW  197   2.594   1.776   1.237  0.0936 -0.0691 -0.2387
   50SOL    HW2  198   2.531   1.752   1.305  0.3659  1.9134  0.7257
   50SOL    HW3  199   2.551   1.845   1.187  0.9857  0.3754 -0.3991
   50SOL    MW4  200   2.580   1.782   1.239  0.2472  0.2511 -0.1326
   51SOL     OW  201   1.559   2.309   2.340  0.4431  0.0490  0.0733
   51SOL    HW2  202   1.642   2.354   2.325  0.2350  0.3757 -0.0983
   51SOL    HW3  203   1.546   2.311   2.434  0.2777  0.6323  0.0402
   51SOL    MW4  204   1.568   2.315   2.350  0.3938  0.1691  0.0463
   52SOL     OW  205   2.579   3.450   0.504 -0.2346 -0.2304 -0.0211
   52SOL    HW2  206   2.675   3.452   0.498 -0.2707  2.8147 -0.7682
   52SOL    HW3  207   2.549   3.440   0.414 -0.5807  1.6652 -0.1535
   52SOL    MW4  208   2.588   3.449   0.491 -0.2850  0.4215 -0.1372
   53SOL     OW  209   0.941   3.266   0.442 -0.0675  0.0245  0.1829
   53SOL    HW2  210   0.854   3.247   0.407  0.4162  1.4595 -1.8727
   53SOL    HW3  211   0.993   3.189   0.421 -0.6524 -0.5785  0.8767
   53SOL    MW4  212   0.936   3.254   0.435 -0.0809  0.1343  0.0032
   54SOL     OW  213   2.907   1.684   0.695 -0.0359 -0.1766 -0.4265
   54SOL    HW2  214   2.997   1.692   0.663  0.3814 -0.2392  0.7025
   54SOL    HW3  215   2.916   1.670   0.789 -1.2298 -0.2477 -0.3102
   54SOL    MW4  216   2.920   1.683   0.703 -0.1384 -0.1943 -0.2622
   55SOL     OW  217   1.468   0.594   0.201  0.4830  0.6682  0.4308
   55SOL    HW2  218   1.418   0.513   0.212  1.3519  0.0561 -0.0802
   55SOL    HW3  219   1.560   0.567   0.210  0.8859  1.2384 -1.6775
   55SOL    MW4  220   1.474   0.580   0.203  0.6508  0.6627  0.0852
   56SOL     OW  221   1.140   0.532   1.085  0.2631 -0.0491 -0.1529
   56SOL    HW2  222   1.080   0.511   1.156  0.3355  0.1902 -0.0232
   56SOL    HW3  223   1.083   0.565   1.015  0.3182  0.9103  0.2456
   56SOL    MW4  224   1.124   0.533   1.085  0.2799  0.1090 -0.0832
   57SOL     OW  225   2.665   1.816   0.685 -0.0212 -0.2326 -0.2940
   57SOL    HW2  226   2.756   1.791   0.673  0.4604  1.3183  0.0919
   57SOL    HW3  227   2.651   1.890   0.625 -0.4927  0.7418  0.9950
   57SOL    MW4  228   2.675   1.822   0.675 -0.0198  0.1006 -0.0730
   58SOL     OW  229   1.643   4.392   1.925 -0.0262 -0.1376 -0.1079
   58SOL    HW2  230   1.620   4.480   1.897  1.1896  1.0539  2.4847
   58SOL    HW3  231   1.634   4.393   2.020  2.2316 -2.1175  0.2041
   58SOL    MW4  232   1.639   4.404   1.934  0.4321 -0.2416  0.2753
   59SOL     OW  233   0.274   3.358   0.470  0.5350 -0.2132 -0.0134
   59SOL    HW2  234   0.237   3.401   0.547 -0.2150 -1.0934  0.1235
   59SOL    HW3  235   0.347   3.415   0.444 -0.1548  0.8948  0.4287
   59SOL    MW4  236   0.279   3.371   0.477  0.3450 -0.1832  0.0630
   60SOL     OW  237   2.994   4.104   0.596  0.4630 -0.0287 -0.0181
   60SOL    HW2  238   2.962   4.077   0.510  0.0106  1.1919 -0.2400
   60SOL    HW3  239   3.046   4.183   0.579  2.2808 -1.0712  0.5463
   60SOL    MW4  240   2.997   4.111   0.582  0.6431 -0.0052  0.0271
   61SOL     OW  241   0.960   4.525   0.724  0.2439  0.2934 -0.5652
   61SOL    HW2  242   0.877   4.568   0.705  0.4526  0.4462 -1.1624
   61SOL    HW3  243   0.936   4.445   0.772 -0.2816  0.0922 -1.1572
   61SOL    MW4  244   0.946   4.520   0.728  0.2021  0.2870 -0.7221
   62SOL     OW  245   2.116   1.523   1.042  0.3764  0.0029 -0.0178
   62SOL    HW2  246   2.163   1.510   0.960  0.5217  1.0978 -0.1134
   62SOL    HW3  247   2.071   1.439   1.057  0.4504 -0.2477 -1.1382
   62SOL    MW4  248   2.116   1.510   1.033  0.4053  0.1143 -0.1782
   63SOL     OW  249   2.646   1.848   1.781 -0.1036 -0.1030 -0.2253
   63SOL    HW2  250   2.620   1.763   1.744 -0.7215 -0.4113  0.8815
   63SOL    HW3  251   2.719   1.826   1.840 -1.1128 -0.0784  1.0717
   63SOL    MW4  252   2.653   1.834   1.784 -0.3182 -0.1404  0.0918
   64SOL     OW  253   1.487   4.532   1.572 -0.6768 -0.2587 -0.2842
   64SOL    HW2  254   1.422   4.469   1.542 -0.1411  0.2777 -2.6895
   64SOL    HW3  255   1.485   4.602   1.507  0.7045  0.8752  0.8404
   64SOL    MW4  256   1.478   4.533   1.560 -0.4239 -0.0383 -0.4532
   65SOL     OW  257   3.284   4.129   1.460  0.4232 -0.4381 -0.2040
   65SOL    HW2  258   3.225   4.170   1.396  0.0563 -1.1552 -0.3313
   65SOL    HW3  259   3.254   4.161   1.544  0.1772 -0.3903 -0.3098
   65SOL    MW4  260   3.272   4.138   1.463  0.3424 -0.5264 -0.2347
   66SOL     OW  261   0.111   3.551   1.616 -0.0565 -0.0951 -0.0413
   66SOL    HW2  262   0.203   3.574   1.601 -0.0814 -1.2369 -2.1087
   66SOL    HW3  263   0.066   3.582   1.537 -1.3962  0.1410  0.8107
   66SOL    MW4  264   0.117   3.558   1.603 -0.2365 -0.2146 -0.2016
   67SOL     OW  265   3.473   1.791   2.109  0.4532  0.0997 -0.0018
   67SOL    HW2  266   3.452   1.707   2.151  0.7813 -0.6820 -1.3770
   67SOL    HW3  267   3.437   1.784   2.021  1.2553  1.0759 -0.4201
   67SOL    MW4  268   3.465   1.779   2.103  0.6023  0.1254 -0.2385
   68SOL     OW  269   1.840   1.586   0.579 -0.7778 -0.4987  0.0449
   68SOL    HW2  270   1.873   1.624   0.498  1.6362 -0.0688  1.1733
   68SOL    HW3  271   1.871   1.496   0.578  2.4809  0.5089  2.1237
   68SOL    MW4  272   1.848   1.579   0.568 -0.0294 -0.3090  0.4680
   69SOL     OW  273   2.387   1.701   1.425  0.5308  0.0466 -0.7776
   69SOL    HW2  274   2.313   1.761   1.417  0.2239 -0.2984 -0.5206
   69SOL    HW3  275   2.360   1.622   1.378  1.2127  0.3698 -1.7235
   69SOL    MW4  276   2.374   1.698   1.418  0.5803  0.0437 -0.8685
   70SOL     OW  277   3.450   4.452   0.515 -0.6402  0.3480  0.2979
   70SOL    HW2  278   3.510   4.379   0.523  0.5318  1.2770  0.1485
   70SOL    HW3  279   3.428   4.455   0.422 -1.8185 -0.6873  0.5328
   70SOL    MW4  280   3.455   4.443   0.504 -0.6411  0.3340  0.3092
   71SOL     OW  281   2.955   1.042   1.438  0.0380 -0.0670 -0.0962
   71SOL    HW2  282   2.875   1.063   1.485 -0.7769 -0.0356 -1.4616
   71SOL    HW3  283   3.014   1.115   1.457  0.3496 -0.8797  2.2230
   71SOL    MW4  284   2.953   1.055   1.447 -0.0284 -0.1701  0.0296
   72SOL     OW  285   2.685   3.331   1.298 -0.0624 -0.1991  0.2854
   72SOL    HW2  286   2.649   3.342   1.210  0.8692  1.6507  0.1217
   72SOL    HW3  287   2.609   3.341   1.355 -0.3059  0.7790 -0.2022
   72SOL    MW4  288   2.670   3.334   1.294  0.0284  0.1740  0.1994
   73SOL     OW  289   2.489   3.587   2.124 -0.0329  0.2433  0.0546
   73SOL    HW2  290   2.486   3.669   2.173 -0.4670  0.5823 -0.5336
   73SOL    HW3  291   2.507   3.613   2.034 -0.7517 -0.2596 -0.2411
   73SOL    MW4  292   2.491   3.601   2.119 -0.1850  0.2217 -0.0620
   74SOL     OW  293   0.287   0.207   1.543  0.2732  0.3131  0.3016
   74SOL    HW2  294   0.261   0.291   1.506  1.6462 -0.0383 -1.5276
   74SOL    HW3  295   0.374   0.222   1.580  0.5165 -0.2881 -0.0083
   74SOL    MW4  296   0.295   0.220   1.543  0.4865  0.1874  0.0194
   75SOL     OW  297   3.228   0.989   1.918 -0.0824  0.0367 -0.0293
   75SOL    HW2  298   3.229   0.945   2.003 -1.2600 -0.6480 -0.3605
   75SOL    HW3  299   3.199   0.922   1.857  1.0484  0.4400 -1.0390
   75SOL    MW4  300   3.225   0.974   1.922 -0.0886 -0.0005 -0.2062
   76SOL     OW  301   2.195   0.544   0.534 -0.1811  0.0038  0.1538
   76SOL    HW2  302   2.182   0.451   0.516 -1.2907  0.1460  0.1958
   76SOL    HW3  303   2.287   0.551   0.559 -0.0739 -1.0729  0.0714
   76SOL    MW4  304   2.205   0.533   0.535 -0.3133 -0.1195  0.1485
   77SOL     OW  305   2.307   3.834   1.057  0.0737 -0.7020 -0.3358
   77SOL    HW2  306   2.214   3.819   1.037 -0.2074  1.8147 -1.1157
   77SOL    HW3  307   2.305   3.897   1.129  1.1865 -1.2356  0.1631
   77SOL    MW4  308   2.294   3.840   1.064  0.1834 -0.4404 -0.3729
   78SOL     OW  309   0.888   2.444   2.147 -0.0555 -0.1693 -0.1544
   78SOL    HW2  310   0.800   2.407   2.156 -0.7656  1.0254 -1.8638
   78SOL    HW3  311   0.920   2.410   2.064  0.8716 -0.1379  0.1893
   78SOL    MW4  312   0.880   2.435   2.137 -0.0268 -0.0075 -0.3346
   79SOL     OW  313   1.833   2.643   1.782  1.1167 -0.4693 -0.2193
   79SOL    HW2  314   1.823   2.694   1.701 -0.9004  1.3060  1.0902
   79SOL    HW3  315   1.900   2.578   1.761  1.3687  0.6041 -2.9959
   79SOL    MW4  316   1.841   2.642   1.768  0.8838 -0.0935 -0.4129
   80SOL     OW  317   1.013   2.398   1.070 -0.2172  0.7128 -0.3129
   80SOL    HW2  318   1.043   2.368   0.984  0.3441  0.3896 -0.0118
   80SOL    HW3  319   1.084   2.373   1.129 -0.1285  1.8660  0.0780
   80SOL    MW4  320   1.027   2.391   1.067 -0.1314  0.8223 -0.2216
   81SOL     OW  321   3.209   2.689   0.635 -0.1539  0.1251 -0.5389
   81SOL    HW2  322   3.200   2.695   0.540  1.9133  0.8274 -0.7312
   81SOL    HW3  323   3.269   2.616   0.649  1.0424  1.1931  0.0912
   81SOL    MW4  324   3.216   2.680   0.624  0.2767  0.3587 -0.4812
   82SOL     OW  325   2.141   1.042   1.467 -0.2946 -0.0000 -0.4825
   82SOL    HW2  326   2.136   1.050   1.372  1.1862  0.3562 -0.5394
   82SOL    HW3  327   2.134   0.948   1.483 -1.0820 -0.0205 -0.8986
   82SOL    MW4  328   2.140   1.030   1.457 -0.2031  0.0443 -0.5449
   83SOL     OW  329   1.471   1.924   1.992 -0.2406  0.5080  0.5579
   83SOL    HW2  330   1.544   1.963   2.041  0.4448 -1.2172  0.9307
   83SOL    HW3  331   1.512   1.861   1.933 -1.3752 -0.0588  0.3590
   83SOL    MW4  332   1.486   1.921   1.991 -0.2999  0.2056  0.5809
   84SOL     OW  333   0.141   1.508   0.496  0.7581 -0.4662  0.0492
   84SOL    HW2  334   0.201   1.434   0.490  1.6516  0.2258  0.2645
   84SOL    HW3  335   0.195   1.584   0.474 -0.0592  0.1536  0.1766
   84SOL    MW4  336   0.156   1.509   0.493  0.7682 -0.2931  0.0944
   85SOL     OW  337   4.367   4.330   1.733 -0.0382  0.1505  0.2979
   85SOL    HW2  338   4.327   4.365   1.654  0.1166 -0.3151  0.0133
   85SOL    HW3  339   4.295   4.326   1.797 -0.7855 -2.0915 -0.6568
   85SOL    MW4  340   4.352   4.334   1.731 -0.1163 -0.2068  0.1344
   86SOL     OW  341   2.952   3.586   0.726 -0.0401  0.3798 -0.3606
   86SOL    HW2  342   3.020   3.558   0.787  2.1533  1.6999 -2.1268
   86SOL    HW3  343   2.937   3.678   0.747 -1.4211  0.0632  0.1140
   86SOL    MW4  344   2.959   3.594   0.737  0.0671  0.5122 -0.5310
   87SOL     OW  345   1.592   0.507   2.182 -0.0568  0.1180  0.0244
   87SOL    HW2  346   1.604   0.494   2.088  0.7498  1.1513 -0.0347
   87SOL    HW3  347   1.572   0.600   2.191 -0.9340 -0.1404  0.8100
   87SOL    MW4  348   1.591   0.517   2.171 -0.0661  0.2202  0.1203
   88SOL     OW  349   0.227   0.426   1.832 -0.5165  0.0108 -0.3203
   88SOL    HW2  350   0.147   0.375   1.847 -0.7374  0.9173  1.7664
   88SOL    HW3  351   0.294   0.361   1.813 -0.9025 -1.0453  1.8181
   88SOL    MW4  352   0.225   0.411   1.832 -0.5965 -0.0089  0.2372
   89SOL     OW  353   1.363   0.717   1.142 -0.1160 -0.0511 -0.1768
   89SOL    HW2  354   1.307   0.642   1.125 -0.2244  0.1448 -0.7032
   89SOL    HW3  355   1.305   0.793   1.135 -0.1369  0.0425  0.9710
   89SOL    MW4  356   1.348   0.717   1.139 -0.1330 -0.0129 -0.0948
   90SOL     OW  357   3.602   4.215   0.869 -0.5610  0.1378 -0.1193
   90SOL    HW2  358   3.626   4.214   0.777  0.0082 -0.2870  0.0343
   90SOL    HW3  359   3.580   4.123   0.889  1.3668 -0.1638  0.7046
   90SOL    MW4  360   3.602   4.202   0.860 -0.2316  0.0420  0.0097
   91SOL     OW  361   0.581   0.732   1.614  0.1856 -0.1421  0.4728
   91SOL    HW2  362   0.610   0.712   1.525 -0.1199 -0.1399  0.3737
   91SOL    HW3  363   0.502   0.679   1.626 -0.2713  0.5253  0.4317
   91SOL    MW4  364   0.575   0.722   1.604  0.0850 -0.0538  0.4543
   92SOL     OW  365   1.618   2.427   1.076  0.0586  0.1164  0.1554
   92SOL    HW2  366   1.701   2.382   1.060  0.0546 -0.0931  0.7292
   92SOL    HW3  367   1.590   2.456   0.989  0.6214 -0.0025 -0.0709
   92SOL    MW4  368   1.625   2.425   1.062  0.1323  0.0731  0.2012
   93SOL     OW  369   2.437   0.298   1.721  0.2349 -0.4690  0.3669
   93SOL    HW2  370   2.476   0.230   1.774  1.7089  0.3363  0.3451
   93SOL    HW3  371   2.478   0.288   1.635  0.2848  0.2914  0.2988
   93SOL    MW4  372   2.448   0.288   1.716  0.4359 -0.2624  0.3550
   94SOL     OW  373   3.205   4.306   0.561  0.0290 -0.4643 -0.2773
   94SOL    HW2  374   3.290   4.348   0.576  0.4333 -1.0255 -0.9504
   94SOL    HW3  375   3.175   4.343   0.478 -1.4892  1.4996  1.1165
   94SOL    MW4  376   3.213   4.316   0.552 -0.1180 -0.2793 -0.1822
   95SOL     OW  377   2.677   1.159   2.306  0.4491 -0.2726 -0.7772
   95SOL    HW2  378   2.676   1.139   2.399 -1.5063  1.3855 -0.4010
   95SOL    HW3  379   2.766   1.191   2.289  0.7918 -0.5105  0.5068
   95SOL    MW4  380   2.689   1.160   2.316  0.2364 -0.0852 -0.5581
   96SOL     OW  381   0.547   2.904   0.891  0.1387  0.1342 -0.1959
   96SOL    HW2  382   0.595   2.968   0.944  1.4533 -0.2208 -0.9451
   96SOL    HW3  383   0.611   2.874   0.826 -1.1135 -0.3181 -1.2287
   96SOL    MW4  384   0.562   2.908   0.889  0.1469  0.0277 -0.4310
   97SOL     OW  385   1.487   1.469   2.284  0.5609 -0.0162 -0.1539
   97SOL    HW2  386   1.479   1.380   2.249 -1.9330 -0.1028  0.5691
   97SOL    HW3  387   1.417   1.518   2.241  0.7000  1.1169  0.8880
   97SOL    MW4  388   1.477   1.464   2.274  0.2502  0.1219  0.0789
   98SOL     OW  389   2.338   3.896   0.781  0.1564  0.0857 -0.2295
   98SOL    HW2  390   2.347   3.889   0.876  1.7044  1.7687 -0.2204
   98SOL    HW3  391   2.424   3.869   0.747 -0.4268 -0.6307 -1.1597
   98SOL    MW4  392   2.351   3.891   0.789  0.2837  0.2133 -0.3510
   99SOL     OW  393   1.370   3.377   1.576  0.2448 -0.7114 -0.1566
   99SOL    HW2  394   1.372   3.456   1.522  0.3123  0.4688  1.5142
   99SOL    HW3  395   1.443   3.324   1.545  0.2909 -0.0561 -1.1939
   99SOL    MW4  396   1.380   3.381   1.565  0.2598 -0.4692 -0.0730
  100SOL     OW  397   4.274   0.736   1.782  0.9867  0.3300 -0.3897
  100SOL    HW2  398   4.208   0.776   1.839  0.5315 -1.3283  0.2649
  100SOL    HW3  399   4.355   0.783   1.802  0.4775  0.8980  0.3752
  100SOL    MW4  400   4.276   0.748   1.792  0.8595  0.1861 -0.2024
  101SOL     OW  401   1.749   4.196   0.874  0.1014  0.0340 -0.2267
  101SOL    HW2  402   1.700   4.203   0.956  0.5771 -0.2174  0.0839
  101SOL    HW3  403   1.685   4.165   0.810  0.1761 -1.6376  0.4823
  101SOL    MW4  404   1.734   4.193   0.876  0.1740 -0.2197 -0.0922
  102SOL     OW  405   2.458   0.764   2.219  0.0795 -0.2922  0.0915
  102SOL    HW2  406   2.463   0.680   2.173 -2.3794 -0.6362  0.3930
  102SOL    HW3  407   2.376   0.803   2.189  0.1788  1.0666  1.5162
  102SOL    MW4  408   2.448   0.758   2.209 -0.2318 -0.1583  0.3193
  103SOL     OW  409   3.779   3.908   1.129  0.4835  0.0495  0.2622
  103SOL    HW2  410   3.802   3.836   1.069  1.0373 -1.3691  2.1479
  103SOL    HW3  411   3.734   3.865   1.202  0.5802  1.6591  1.2826
  103SOL    MW4  412   3.776   3.893   1.130  0.5693  0.0747  0.6457
  104SOL     OW  413   4.224   0.352   1.036  0.2150  0.4194 -0.4718
  104SOL    HW2  414   4.277   0.275   1.013  0.3535  0.8254 -1.5570
  104SOL    HW3  415   4.226   0.355   1.131  2.2371  0.4705 -0.4916
  104SOL    MW4  416   4.231   0.342   1.045  0.5000  0.4797 -0.6176
  105SOL     OW  417   0.117   2.389   1.134 -0.0523  0.2740 -0.1812
  105SOL    HW2  418   0.031   2.382   1.176  0.1114  0.2430  0.1480
  105SOL    HW3  419   0.137   2.299   1.106 -0.1991  0.3093 -0.4059
  105SOL    MW4  420   0.108   2.376   1.136 -0.0500  0.2745 -0.1674
  106SOL     OW  421   0.180   0.785   2.023  0.4064 -0.0347 -0.2328
  106SOL    HW2  422   0.264   0.829   2.030  0.5796 -0.4257  0.1736
  106SOL    HW3  423   0.200   0.692   2.039 -0.3142  0.0521  1.2032
  106SOL    MW4  424   0.194   0.778   2.026  0.3341 -0.0748  0.0103
  107SOL     OW  425   3.136   1.220   1.020  0.2846  0.0956 -0.0156
  107SOL    HW2  426   3.153   1.208   0.926 -1.1175 -1.2461 -0.1112
  107SOL    HW3  427   3.121   1.314   1.030 -1.7424 -0.0329 -1.5299
  107SOL    MW4  428   3.136   1.231   1.009 -0.1679 -0.0983 -0.2280
  108SOL     OW  429   3.170   3.035   1.585  0.0355  0.0925 -0.1069
  108SOL    HW2  430   3.215   3.117   1.603  0.4737 -0.0547 -0.5253
  108SOL    HW3  431   3.082   3.062   1.559 -0.0427  0.3929  0.4696
  108SOL    MW4  432   3.164   3.049   1.584  0.0830  0.1127 -0.0860
  109SOL     OW  433   2.936   2.150   1.987 -0.4122 -0.4944  0.0327
  109SOL    HW2  434   2.977   2.236   1.986 -1.8902  0.2240 -1.2126
  109SOL    HW3  435   3.005   2.090   1.957  0.1071  0.5048 -0.7999
  109SOL    MW4  436   2.950   2.154   1.983 -0.5387 -0.2678 -0.2414
  110SOL     OW  437   2.059   4.214   1.943 -0.1792  0.6254  0.1365
  110SOL    HW2  438   2.111   4.146   1.898 -1.7276 -0.5214  0.0438
  110SOL    HW3  439   1.988   4.234   1.882 -1.2675  0.3622  1.2971
  110SOL    MW4  440   2.057   4.208   1.929 -0.5271  0.4393  0.2774
  111SOL     OW  441   3.816   3.999   1.838  0.4038 -0.5972 -0.2842
  111SOL    HW2  442   3.784   3.982   1.749  0.2651 -0.3603 -0.2788
  111SOL    HW3  443   3.853   3.916   1.866 -0.0782 -0.8324 -0.3423
  111SOL    MW4  444   3.817   3.986   1.830  0.3219 -0.5970 -0.2912
  112SOL     OW  445   3.589   4.012   2.190  0.6072  0.1168 -0.4900
  112SOL    HW2  446   3.659   3.948   2.208 -0.5282 -0.9670  0.1120
  112SOL    HW3  447   3.545   3.977   2.113 -0.1527  0.0589 -0.0290
  112SOL    MW4  448   3.593   3.999   2.182  0.3571 -0.0338 -0.3498
  113SOL     OW  449   1.343   0.333   1.115  0.3833  0.3461  1.0115
  113SOL    HW2  450   1.359   0.317   1.022  2.5214 -1.5583  1.6628
  113SOL    HW3  451   1.274   0.399   1.117 -0.6920 -0.6389 -1.9118
  113SOL    MW4  452   1.336   0.340   1.103  0.5235 -0.0351  0.7117
  114SOL     OW  453   0.680   4.422   2.117 -0.0402  0.1715  0.5467
  114SOL    HW2  454   0.605   4.384   2.162  0.0394  0.8085  1.2370
  114SOL    HW3  455   0.681   4.514   2.147  0.8703  0.2232  0.3641
  114SOL    MW4  456   0.670   4.429   2.127  0.0904  0.2624  0.6137
  115SOL     OW  457   3.391   4.620   1.554 -0.0678 -0.1515 -0.1092
  115SOL    HW2  458   3.403   4.600   1.646  0.5220  1.8696  0.2841
  115SOL    HW3  459   3.456   4.566   1.508 -0.2969 -1.0793  0.6505
  115SOL    MW4  460   3.401   4.610   1.560 -0.0202 -0.0072  0.0429
  116SOL     OW  461   1.509   3.238   1.182  0.2403  0.5721  0.3924
  116SOL    HW2  462   1.590   3.216   1.135 -1.4473 -3.6796 -0.7470
  116SOL    HW3  463   1.457   3.286   1.117  0.7158  0.9349  0.2675
  116SOL    MW4  464   1.513   3.242   1.167  0.0804  0.0590  0.2256
  117SOL     OW  465   0.418   3.821   1.419 -0.0082 -0.0271  0.3615
  117SOL    HW2  466   0.429   3.740   1.468  0.8726  0.0886  0.3536
  117SOL    HW3  467   0.326   3.845   1.433  0.1399 -0.1759  1.6610
  117SOL    MW4  468   0.407   3.814   1.427  0.1276 -0.0315  0.5319
  118SOL     OW  469   3.857   2.243   1.769 -0.1245 -0.3523  0.2731
  118SOL    HW2  470   3.832   2.155   1.740 -2.6403  0.3450  0.1931
  118SOL    HW3  471   3.774   2.291   1.774  1.2592  2.2083 -0.3027
  118SOL    MW4  472   3.842   2.238   1.766 -0.2738  0.0776  0.1866
  119SOL     OW  473   2.750   2.247   1.333  0.0324  0.0152 -0.2535
  119SOL    HW2  474   2.806   2.303   1.387 -0.1425 -0.1859  0.1397
  119SOL    HW3  475   2.774   2.158   1.358  0.6684 -0.0983 -1.2461
  119SOL    MW4  476   2.761   2.243   1.344  0.0933 -0.0263 -0.3326
  120SOL     OW  477   1.506   4.206   1.505  0.0575  0.5803  0.0966
  120SOL    HW2  478   1.486   4.216   1.598  1.0510 -1.5689  0.5701
  120SOL    HW3  479   1.559   4.127   1.500 -2.1264 -0.8129 -2.6061
  120SOL    MW4  480   1.510   4.197   1.517 -0.0996  0.1129 -0.1975
  121SOL     OW  481   3.116   0.828   1.714  0.3509  0.8082 -0.0350
  121SOL    HW2  482   3.077   0.742   1.729  0.8094  0.5976 -0.0339
  121SOL    HW3  483   3.167   0.818   1.634  1.6200  0.6572  0.7801
  121SOL    MW4  484   3.118   0.815   1.706  0.5788  0.7605  0.0727
  122SOL     OW  485   0.039   0.524   0.994 -0.3985  0.2703 -0.9196
  122SOL    HW2  486  -0.046   0.564   0.981 -0.7222 -0.0128  0.2088
  122SOL    HW3  487   0.084   0.532   0.910 -1.5430  0.4035 -1.5184
  122SOL    MW4  488   0.034   0.530   0.981 -0.5922  0.2506 -0.8497
  123SOL     OW  489   2.466   1.647   0.806 -0.3882 -0.2419 -0.3928
  123SOL    HW2  490   2.496   1.628   0.895  0.1997  0.3097 -0.4733
  123SOL    HW3  491   2.535   1.701   0.768 -1.7367  1.5283 -0.3721
  123SOL    MW4  492   2.479   1.651   0.813 -0.4886  0.0645 -0.4007
  124SOL     OW  493   0.603   3.800   0.755  0.3594 -0.9031  0.2839
  124SOL    HW2  494   0.666   3.731   0.735 -0.5500 -1.6680  0.0059
  124SOL    HW3  495   0.551   3.809   0.675 -0.5489 -1.0202  0.8492
  124SOL    MW4  496   0.604   3.792   0.742  0.1196 -1.0195  0.3218
  125SOL     OW  497   3.364   3.693   0.428 -0.5152  0.4582  0.0228
  125SOL    HW2  498   3.310   3.692   0.508  0.6939 -0.7433  0.8527
  125SOL    HW3  499   3.414   3.612   0.433  0.0505  0.6996 -1.6499
  125SOL    MW4  500   3.363   3.682   0.439 -0.2810  0.3315 -0.0884
  126SOL     OW  501   2.949   4.393   2.107  0.4836  0.4579  0.2248
  126SOL    HW2  502   2.881   4.346   2.155  0.9497  0.4834  0.9124
  126SOL    HW3  503   2.966   4.471   2.160  0.0027  1.2123 -0.7043
  126SOL    MW4  504   2.942   4.397   2.120  0.4817  0.5608  0.1930
  127SOL     OW  505   1.383   3.586   0.531 -0.0760  0.0780 -0.7827
  127SOL    HW2  506   1.369   3.506   0.582 -1.8217 -0.1052 -1.5218
  127SOL    HW3  507   1.478   3.598   0.531  0.0356 -0.6024  1.4491
  127SOL    MW4  508   1.394   3.577   0.538 -0.2916 -0.0359 -0.5858
  128SOL     OW  509   3.722   3.049   0.706  0.1744 -0.6440 -0.4380
  128SOL    HW2  510   3.816   3.053   0.723 -0.2550  1.0494  1.7447
  128SOL    HW3  511   3.692   3.139   0.719 -1.9305 -1.4015  0.0571
  128SOL    MW4  512   3.730   3.062   0.710 -0.1600 -0.5205 -0.0847
  129SOL     OW  513   1.096   2.900   2.232 -0.4064 -0.5421 -0.6663
  129SOL    HW2  514   1.075   2.902   2.139  0.4130 -1.2548 -0.8624
  129SOL    HW3  515   1.043   2.829   2.268 -2.0188  0.8193 -0.2613
  129SOL    MW4  516   1.086   2.891   2.225 -0.5110 -0.4565 -0.6387
  130SOL     OW  517   0.903   2.647   0.411  0.1284  0.2506  0.3058
  130SOL    HW2  518   0.941   2.559   0.415 -0.3172 -0.1304 -2.6056
  130SOL    HW3  519   0.964   2.697   0.357 -0.7121  1.1076  0.1285
  130SOL    MW4  520   0.916   2.642   0.404 -0.0413  0.3134 -0.1017
  131SOL     OW  521   0.167   3.954   2.017 -0.1183 -0.1013  0.2947
  131SOL    HW2  522   0.156   4.035   1.967  0.0097 -0.7643 -0.8086
  131SOL    HW3  523   0.154   3.884   1.953 -2.5320 -1.0036  1.6937
  131SOL    MW4  524   0.164   3.955   2.002 -0.4199 -0.3078  0.3337
  132SOL     OW  525   2.205   1.674   0.400 -0.2233  0.4622  0.3386
  132SOL    HW2  526   2.117   1.710   0.392  0.0393  0.8364 -1.1284
  132SOL    HW3  527   2.258   1.747   0.431 -0.3840  0.2968  1.0099
  132SOL    MW4  528   2.200   1.688   0.403 -0.2099  0.4897  0.2336
  133SOL     OW  529   3.319   3.564   1.926 -0.3323  0.4180 -0.0153
  133SOL    HW2  530   3.260   3.489   1.916 -0.7348  0.8775 -1.0576
  133SOL    HW3  531   3.356   3.553   2.014 -0.8506 -0.6716  0.0745
  133SOL    MW4  532   3.316   3.552   1.937 -0.4538  0.3349 -0.1410
  134SOL     OW  533   4.217   0.939   1.599  0.3561  0.1668 -0.2201
  134SOL    HW2  534   4.239   0.865   1.656 -0.3339 -0.3313 -0.6051
  134SOL    HW3  535   4.216   0.903   1.511 -0.7575  0.4564 -0.3351
  134SOL    MW4  536   4.220   0.925   1.595  0.1181  0.1393 -0.2861
  135SOL     OW  537   3.244   0.408   1.890  0.2472  0.1490 -0.4680
  135SOL    HW2  538   3.264   0.447   1.975  0.6927 -1.9206  0.3835
  135SOL    HW3  539   3.323   0.425   1.838  1.2279 -1.2794  0.5108
  135SOL    MW4  540   3.257   0.416   1.894  0.4354 -0.3125 -0.2265
  136SOL     OW  541   1.008   2.351   0.775  0.1654  0.1109  0.4060
  136SOL    HW2  542   0.920   2.361   0.812  0.5003  0.3184  1.1524
  136SOL    HW3  543   1.014   2.258   0.752  0.1934 -0.1664  1.4925
  136SOL    MW4  544   0.997   2.340   0.777  0.2133  0.1017  0.6478
  137SOL     OW  545   0.696   0.383   1.942  0.0447 -0.1072 -0.4446
  137SOL    HW2  546   0.613   0.378   1.989 -0.3315 -0.8177 -1.1573
  137SOL    HW3  547   0.688   0.460   1.887  0.2554  0.3919  0.2164
  137SOL    MW4  548   0.684   0.392   1.941  0.0229 -0.1351 -0.4515
  138SOL     OW  549   2.811   0.248   0.658 -0.4676 -0.0993 -0.2145
  138SOL    HW2  550   2.794   0.210   0.571 -1.9108 -0.3738  0.1900
  138SOL    HW3  551   2.861   0.180   0.703  2.9598  1.2051 -1.8204
  138SOL    MW4  552   2.816   0.234   0.652 -0.2058  0.0366 -0.3730
  139SOL     OW  553   0.104   4.373   0.766 -0.2946 -0.2622 -0.3382
  139SOL    HW2  554   0.194   4.342   0.754 -0.3357  0.1737 -1.7923
  139SOL    HW3  555   0.093   4.376   0.861  0.5746 -2.1892 -0.1638
  139SOL    MW4  556   0.115   4.370   0.777 -0.1853 -0.4589 -0.5071
  140SOL     OW  557   2.306   4.254   2.229  0.1655  0.5336  0.0608
  140SOL    HW2  558   2.388   4.304   2.222 -0.4993  1.7137  0.4980
  140SOL    HW3  559   2.306   4.221   2.319  0.1876  0.4995  0.0482
  140SOL    MW4  560   2.317   4.256   2.240  0.0807  0.6848  0.1168
  141SOL     OW  561   3.936   0.084   1.233 -0.4262 -0.1899  0.3231
  141SOL    HW2  562   3.941   0.128   1.148 -2.5417 -0.5386 -0.0032
  141SOL    HW3  563   4.016   0.031   1.237 -0.8781 -1.0808 -1.9590
  141SOL    MW4  564   3.947   0.083   1.222 -0.7649 -0.3534 -0.0211
  142SOL     OW  565   0.307   4.473   1.147 -0.4584 -0.0573 -0.3141
  142SOL    HW2  566   0.353   4.523   1.081 -0.8211  0.4660 -0.1731
  142SOL    HW3  567   0.364   4.475   1.224 -0.6251  0.4154 -0.2046
  142SOL    MW4  568   0.320   4.480   1.149 -0.5283  0.0741 -0.2811
  143SOL     OW  569   0.662   1.887   1.213  0.5700  0.0571 -0.5073
  143SOL    HW2  570   0.727   1.956   1.203  2.6908 -1.9515 -1.0732
  143SOL    HW3  571   0.646   1.883   1.307  1.2063  0.6284 -0.3658
  143SOL    MW4  572   0.668   1.896   1.224  0.9338 -0.1326 -0.5633
  144SOL     OW  573   3.058   3.764   1.597 -0.0462  0.3388 -0.0855
  144SOL    HW2  574   3.000   3.831   1.562 -0.4072  0.5789  0.9668
  144SOL    HW3  575   3.049   3.691   1.536  2.4907  2.2138 -2.8422
  144SOL    MW4  576   3.050   3.763   1.584  0.2409  0.6179 -0.3104
  145SOL     OW  577   4.324   4.092   0.521 -0.0971 -0.3518 -0.0866
  145SOL    HW2  578   4.249   4.124   0.571 -0.2188 -0.6008 -0.1079
  145SOL    HW3  579   4.400   4.112   0.577 -0.2327 -0.6236  0.1964
  145SOL    MW4  580   4.324   4.099   0.535 -0.1310 -0.4205 -0.0520
  146SOL     OW  581   1.388   2.246   0.737  0.4628  0.3743  0.3749
  146SOL    HW2  582   1.473   2.208   0.713  0.3820 -1.0881  2.3473
  146SOL    HW3  583   1.344   2.260   0.653  2.5723  1.0191 -0.6731
  146SOL    MW4  584   1.394   2.243   0.722  0.7304  0.2664  0.4969
  147SOL     OW  585   1.385   0.289   1.499  0.6239 -0.2888  0.0593
  147SOL    HW2  586   1.445   0.226   1.461  1.1252  0.1998  0.0334
  147SOL    HW3  587   1.298   0.262   1.467  1.0651  0.2914 -1.7221
  147SOL    MW4  588   1.381   0.277   1.490  0.7483 -0.1478 -0.1792
  148SOL     OW  589   1.787   2.444   2.240  0.2633 -0.2523 -0.1988
  148SOL    HW2  590   1.772   2.401   2.155 -0.3353  1.0577 -0.7662
  148SOL    HW3  591   1.860   2.395   2.279 -0.2932 -1.6821 -0.8961
  148SOL    MW4  592   1.794   2.432   2.234  0.1109 -0.2681 -0.3657
  149SOL     OW  593   3.579   3.450   1.449 -0.2964 -0.1377 -0.3867
  149SOL    HW2  594   3.598   3.380   1.511  0.2236  1.0288  0.7783
  149SOL    HW3  595   3.570   3.529   1.502  0.1365  0.8839 -1.7827
  149SOL    MW4  596   3.580   3.451   1.464 -0.1707  0.1510 -0.4172
  150SOL     OW  597   0.678   1.668   2.044  0.4323 -0.3983 -0.2786
  150SOL    HW2  598   0.639   1.755   2.049 -0.0572 -0.5643 -1.1058
  150SOL    HW3  599   0.622   1.613   2.099 -0.2557 -0.5452 -1.1187
  150SOL    MW4  600   0.665   1.672   2.052  0.2769 -0.4396 -0.4986
  151SOL     OW  601   0.116   1.479   0.768 -0.4009  0.1675 -0.3694
  151SOL    HW2  602   0.127   1.481   0.673  1.0561  0.0517 -0.2214
  151SOL    HW3  603   0.041   1.422   0.783 -0.3131 -0.2248 -1.4237
  151SOL    MW4  604   0.108   1.472   0.758 -0.1971  0.1004 -0.4890
  152SOL     OW  605   3.022   2.801   1.955 -0.0702  0.1378  0.0568
  152SOL    HW2  606   3.027   2.726   1.896 -1.4494 -0.9052  1.2186
  152SOL    HW3  607   2.935   2.838   1.939 -0.6454 -0.4186  1.6868
  152SOL    MW4  608   3.011   2.796   1.945 -0.3281 -0.0732  0.4252
  153SOL     OW  609   2.424   4.159   1.027 -0.3545 -0.0506 -0.0646
  153SOL    HW2  610   2.331   4.183   1.029 -0.1577  0.7657 -0.4137
  153SOL    HW3  611   2.441   4.120   1.112 -0.2160  2.9086  1.3414
  153SOL    MW4  612   2.414   4.157   1.039 -0.3103  0.4475  0.0748
  154SOL     OW  613   0.992   2.070   0.680 -0.2003 -0.1298 -0.8556
  154SOL    HW2  614   0.904   2.060   0.643 -1.0311 -1.1910  1.2943
  154SOL    HW3  615   0.979   2.056   0.774  2.2263  0.0124 -0.4887
  154SOL    MW4  616   0.978   2.067   0.688  0.0103 -0.2510 -0.5235
  155SOL     OW  617   0.970   1.127   1.468  0.0789  0.1206  0.0408
  155SOL    HW2  618   0.905   1.079   1.520 -1.4032  0.4365 -1.4521
  155SOL    HW3  619   0.924   1.206   1.439  1.1200  0.3370 -1.0811
  155SOL    MW4  620   0.955   1.131   1.471  0.0207  0.1908 -0.3042
  156SOL     OW  621   1.803   1.611   1.953  0.1820 -0.0238 -0.1498
  156SOL    HW2  622   1.740   1.651   1.894  0.3666 -0.8959 -0.9494
  156SOL    HW3  623   1.880   1.668   1.948 -0.6170  1.1837  1.0252
  156SOL    MW4  624   1.805   1.624   1.944  0.1009  0.0204 -0.1003
  157SOL     OW  625   2.728   2.253   0.766 -0.1417 -0.0091 -0.4074
  157SOL    HW2  626   2.721   2.325   0.828  0.9002  1.2965 -1.7734
  157SOL    HW3  627   2.661   2.271   0.700 -0.2606 -0.5935 -0.4491
  157SOL    MW4  628   2.719   2.265   0.765 -0.0200  0.0861 -0.5931
  158SOL     OW  629   0.741   4.626   1.677 -0.1243 -0.2889  0.4001
  158SOL    HW2  630   0.822   4.638   1.726  0.4379 -1.1192 -0.3210
  158SOL    HW3  631   0.682   4.582   1.739  0.5466 -1.2308  0.3767
  158SOL    MW4  632   0.744   4.622   1.692  0.0384 -0.5227  0.3018
  159SOL     OW  633   3.227   2.636   1.275  0.2461 -0.2540 -0.1306
  159SOL    HW2  634   3.200   2.632   1.184 -2.0048 -0.4842  0.5227
  159SOL    HW3  635   3.221   2.546   1.307  0.8457 -0.1507  0.2938
  159SOL    MW4  636   3.223   2.623   1.268  0.0282 -0.2707  0.0116
  160SOL     OW  637   0.434   3.200   1.591  0.4519  0.0742  0.1159
  160SOL    HW2  638   0.429   3.121   1.644  0.7917 -0.1425 -0.1796
  160SOL    HW3  639   0.346   3.238   1.598  0.1887 -0.5010 -0.0155
  160SOL    MW4  640   0.422   3.195   1.599  0.4620 -0.0303  0.0596
  161SOL     OW  641   2.505   4.378   1.182 -0.1586 -0.3266  0.2084
  161SOL    HW2  642   2.483   4.323   1.106 -0.5103  0.5198 -0.3100
  161SOL    HW3  643   2.592   4.412   1.161 -0.3749  0.1337  0.0486
  161SOL    MW4  644   2.514   4.375   1.169 -0.2336 -0.1542  0.1189
  162SOL     OW  645   0.677   1.550   0.998  0.0095 -0.1343  0.1855
  162SOL    HW2  646   0.615   1.568   1.068  1.1225  0.7401  0.9750
  162SOL    HW3  647   0.723   1.471   1.026 -0.8957 -0.9198 -0.5132
  162SOL    MW4  648   0.675   1.542   1.011  0.0369 -0.1226  0.1975
  163SOL     OW  649   2.419   3.603   1.107  0.0649  0.0190  0.2912
  163SOL    HW2  650   2.380   3.689   1.094  0.7953  0.2863 -0.1300
  163SOL    HW3  651   2.367   3.544   1.052 -2.0964 -0.2871  2.5274
  163SOL    MW4  652   2.407   3.607   1.098 -0.1239  0.0139  0.5307
  164SOL     OW  653   1.750   1.302   1.159  0.2270 -0.0669 -0.5071
  164SOL    HW2  654   1.693   1.237   1.117 -1.4153  0.8795  0.2347
  164SOL    HW3  655   1.764   1.268   1.247 -0.4062  0.4468 -0.2090
  164SOL    MW4  656   1.745   1.289   1.165 -0.0732  0.1258 -0.3699
  165SOL     OW  657   0.577   1.396   1.685 -0.0091  0.4870 -0.1025
  165SOL    HW2  658   0.518   1.342   1.738 -0.5508  0.7404 -0.4407
  165SOL    HW3  659   0.616   1.457   1.747 -1.0955  1.1814 -0.0763
  165SOL    MW4  660   0.574   1.397   1.700 -0.2239  0.6120 -0.1437
  166SOL     OW  661   1.260   3.725   0.726 -0.2857 -0.6148  0.0793
  166SOL    HW2  662   1.292   3.699   0.640 -0.5489  0.5094 -0.3649
  166SOL    HW3  663   1.332   3.774   0.764  0.1831 -1.8927  0.8894
  166SOL    MW4  664   1.274   3.728   0.720 -0.2586 -0.6351  0.1276
  167SOL     OW  665   2.083   1.448   1.500  0.2241  0.1929 -0.0711
  167SOL    HW2  666   2.013   1.409   1.448 -0.5676  2.6857 -0.9228
  167SOL    HW3  667   2.159   1.446   1.443  0.4834 -1.0899  0.2969
  167SOL    MW4  668   2.084   1.442   1.486  0.1539  0.3525 -0.1349
  168SOL     OW  669   2.553   2.638   1.132 -0.1916 -0.2394  0.9376
  168SOL    HW2  670   2.552   2.658   1.226 -0.6150  0.0568  0.8756
  168SOL    HW3  671   2.528   2.721   1.090 -1.8070 -0.8622  0.6555
  168SOL    MW4  672   2.550   2.652   1.139 -0.4606 -0.2825  0.8922
  169SOL     OW  673   2.143   2.218   1.189 -0.0416  0.2212 -0.2224
  169SOL    HW2  674   2.232   2.211   1.155  0.2102 -0.1298  0.4925
  169SOL    HW3  675   2.155   2.243   1.281 -0.6740  0.0887 -0.1037
  169SOL    MW4  676   2.156   2.220   1.197 -0.0918  0.1574 -0.1124
  170SOL     OW  677   3.290   0.446   0.623  0.1260  0.6458  0.0923
  170SOL    HW2  678   3.199   0.434   0.648  0.2534 -0.2317  0.1350
  170SOL    HW3  679   3.340   0.394   0.686  0.5521 -0.2243 -0.9535
  170SOL    MW4  680   3.285   0.438   0.634  0.1990  0.4152 -0.0400
  171SOL     OW  681   4.041   1.784   0.540  0.3726 -0.5563  0.1375
  171SOL    HW2  682   4.027   1.798   0.446  1.1846 -0.1736  0.0701
  171SOL    HW3  683   3.980   1.845   0.582 -1.3478 -2.0426 -0.1140
  171SOL    MW4  684   4.031   1.794   0.533  0.2527 -0.7019  0.0954
  172SOL     OW  685   4.314   0.540   0.660 -0.0022  0.1609 -0.1355
  172SOL    HW2  686   4.378   0.551   0.590  0.2462  0.8359  0.1860
  172SOL    HW3  687   4.300   0.446   0.666 -0.6093  0.1491 -1.6040
  172SOL    MW4  688   4.321   0.529   0.652 -0.0495  0.2484 -0.2868
  173SOL     OW  689   2.695   3.038   1.275 -0.5529  0.8354  0.7406
  173SOL    HW2  690   2.712   3.019   1.182  2.4146  0.6034  1.2862
  173SOL    HW3  691   2.687   3.133   1.278 -1.3568  0.7967  0.1599
  173SOL    MW4  692   2.696   3.048   1.263 -0.2674  0.7997  0.7360
  174SOL     OW  693   0.487   2.314   1.723  0.0323 -0.0609 -0.3037
  174SOL    HW2  694   0.459   2.235   1.678  0.7820 -0.4611 -0.0796
  174SOL    HW3  695   0.567   2.288   1.769  0.3895  0.8697 -0.3890
  174SOL    MW4  696   0.494   2.300   1.723  0.1784  0.0090 -0.2854
  175SOL     OW  697   3.395   0.927   1.279 -0.2126  0.2831 -0.5852
  175SOL    HW2  698   3.371   0.887   1.196  1.1088 -1.9820  0.0765
  175SOL    HW3  699   3.399   1.021   1.261  0.3359 -0.2003 -3.1222
  175SOL    MW4  700   3.392   0.934   1.266  0.0341 -0.0795 -0.8326
  176SOL     OW  701   2.774   2.986   1.012 -0.1409 -0.2813  0.4075
  176SOL    HW2  702   2.839   2.918   0.995  0.0251 -0.4274  1.5740
  176SOL    HW3  703   2.824   3.068   1.007 -0.0996 -0.3227  0.1499
  176SOL    MW4  704   2.790   2.988   1.009 -0.1136 -0.3060  0.5274
  177SOL     OW  705   0.274   2.511   1.336 -0.3150 -0.0397  0.0658
  177SOL    HW2  706   0.364   2.486   1.356  0.4808  2.7068  0.0407
  177SOL    HW3  707   0.244   2.445   1.274  1.0424 -2.0397  1.4791
  177SOL    MW4  708   0.282   2.499   1.331 -0.0309  0.0588  0.2490
  178SOL     OW  709   0.878   2.523   1.732 -0.0962 -0.0436  0.4372
  178SOL    HW2  710   0.914   2.608   1.709 -0.8719 -0.1856 -1.3873
  178SOL    HW3  711   0.870   2.477   1.649 -1.3461 -1.2341  1.1909
  178SOL    MW4  712   0.882   2.528   1.718 -0.3634 -0.2194  0.2959
  179SOL     OW  713   1.576   0.817   0.437  0.3109  0.0833  0.2506
  179SOL    HW2  714   1.648   0.759   0.461 -1.1627 -1.9132 -0.0897
  179SOL    HW3  715   1.533   0.774   0.364 -2.1578  0.4760  1.4219
  179SOL    MW4  716   1.580   0.804   0.430 -0.2092 -0.1283  0.3602
  180SOL     OW  717   0.464   4.288   2.223 -0.1369 -0.1964  0.4429
  180SOL    HW2  718   0.370   4.304   2.214  0.1137  0.5038 -1.1651
  180SOL    HW3  719   0.475   4.196   2.198 -0.1344  0.3079 -1.4652
  180SOL    MW4  720   0.453   4.278   2.218 -0.1035 -0.0375 -0.0210
  181SOL     OW  721   1.034   0.152   0.953  0.4802  0.2809 -0.0978
  181SOL    HW2  722   1.108   0.137   1.013 -0.9206  1.8997  2.1122
  181SOL    HW3  723   0.960   0.106   0.995 -0.0678 -0.2786 -1.6512
  181SOL    MW4  724   1.034   0.144   0.967  0.2231  0.4206 -0.0111
  182SOL     OW  725   1.085   0.283   1.456 -0.2425 -0.2421  0.0619
  182SOL    HW2  726   1.052   0.290   1.545 -0.0297  1.2638  0.0354
  182SOL    HW3  727   1.039   0.351   1.408  0.5712 -0.2156 -0.6891
  182SOL    MW4  728   1.075   0.293   1.462 -0.1070 -0.0399 -0.0407
  183SOL     OW  729   3.899   0.994   1.442 -0.1744 -0.1136 -0.2073
  183SOL    HW2  730   3.930   1.079   1.473 -0.1784  0.4362 -1.6930
  183SOL    HW3  731   3.861   1.011   1.356  0.9751 -1.8153 -1.0955
  183SOL    MW4  732   3.898   1.007   1.435 -0.0233 -0.2656 -0.5205
  184SOL     OW  733   0.518   4.406   1.315  0.0509 -0.2813  0.5016
  184SOL    HW2  734   0.507   4.354   1.394  0.5268 -0.5527  0.3916
  184SOL    HW3  735   0.593   4.366   1.270 -0.4894 -0.4087 -0.2983
  184SOL    MW4  736   0.526   4.394   1.319  0.0424 -0.3339  0.3816
  185SOL     OW  737   1.189   1.751   0.433 -0.0759  0.3122 -0.5187
  185SOL    HW2  738   1.269   1.793   0.466 -0.6155  0.8863  0.0884
  185SOL    HW3  739   1.134   1.824   0.404 -0.3596 -0.0792 -0.9716
  185SOL    MW4  740   1.192   1.766   0.434 -0.1845  0.3363 -0.4984
  186SOL     OW  741   0.927   2.675   2.269  0.0361  0.7935  0.2205
  186SOL    HW2  742   0.927   2.600   2.210 -1.6623  2.2984 -1.7783
  186SOL    HW3  743   0.896   2.640   2.353  2.4121 -1.3627  0.2394
  186SOL    MW4  744   0.923   2.660   2.272  0.1255  0.7075 -0.0407
  187SOL     OW  745   0.295   2.796   0.784  0.0318 -0.1202 -0.5222
  187SOL    HW2  746   0.381   2.835   0.803 -0.6351  1.1702 -0.1184
  187SOL    HW3  747   0.247   2.801   0.867 -0.3444 -1.1138 -0.6654
  187SOL    MW4  748   0.300   2.802   0.798 -0.1059 -0.0810 -0.4878
  188SOL     OW  749   0.019   0.572   0.460 -0.3051 -0.3707  0.0769
  188SOL    HW2  750   0.105   0.547   0.427 -0.4816 -0.9139  0.0152
  188SOL    HW3  751   0.012   0.666   0.444  0.1604 -0.3841 -0.1801
  188SOL    MW4  752   0.029   0.581   0.454 -0.2670 -0.4441  0.0349
  189SOL     OW  753   3.132   3.595   1.380 -0.0511  0.2252  0.1158
  189SOL    HW2  754   3.153   3.680   1.342 -1.8582  0.4273 -0.4935
  189SOL    HW3  755   3.102   3.542   1.305  1.4743 -1.1011  0.4061
  189SOL    MW4  756   3.131   3.599   1.365 -0.0882  0.0769  0.0737
  190SOL     OW  757   1.819   0.348   1.556 -0.1102  0.1874  0.3009
  190SOL    HW2  758   1.837   0.258   1.531  0.5565  0.0088  1.3835
  190SOL    HW3  759   1.726   0.361   1.536 -0.0523 -0.5399 -0.4318
  190SOL    MW4  760   1.809   0.338   1.550 -0.0146  0.0679  0.3471
  191SOL     OW  761   1.428   3.389   0.977 -0.3569  0.2626 -0.0649
  191SOL    HW2  762   1.484   3.459   0.942 -0.9042  0.3917 -0.6766
  191SOL    HW3  763   1.340   3.426   0.977 -0.8954 -0.9734 -1.8732
  191SOL    MW4  764   1.424   3.403   0.973 -0.5002  0.1166 -0.3842
  192SOL     OW  765   2.508   0.276   1.434  0.6878 -0.0356  0.3077
  192SOL    HW2  766   2.452   0.297   1.360 -1.4070  0.9640  2.0920
  192SOL    HW3  767   2.548   0.360   1.459  0.3274 -0.0944  1.1150
  192SOL    MW4  768   2.506   0.290   1.428  0.3638  0.0885  0.6496
  193SOL     OW  769   3.418   0.540   1.410 -0.1096  0.7205  0.1798
  193SOL    HW2  770   3.342   0.487   1.387  0.7202 -0.5428  0.2772
  193SOL    HW3  771   3.382   0.625   1.434 -1.5679 -0.1099  1.0265
  193SOL    MW4  772   3.404   0.544   1.410 -0.1925  0.4443  0.3044
  194SOL     OW  773   1.398   0.100   1.880 -0.2634 -0.6033  0.3595
  194SOL    HW2  774   1.331   0.043   1.843 -1.8524  0.3754  1.6701
  194SOL    HW3  775   1.378   0.187   1.844  1.1723 -0.5585 -0.3648
  194SOL    MW4  776   1.386   0.104   1.870 -0.2836 -0.4683  0.4369
  195SOL     OW  777   4.260   1.920   0.681 -0.3925  0.1533 -0.1575
  195SOL    HW2  778   4.197   1.879   0.621  0.0706  1.1310 -1.3413
  195SOL    HW3  779   4.345   1.908   0.638  0.0661 -0.0060  0.7884
  195SOL    MW4  780   4.263   1.913   0.667 -0.2709  0.2613 -0.1888
  196SOL     OW  781   4.392   4.033   1.656 -0.5752 -0.0751  0.2246
  196SOL    HW2  782   4.350   3.983   1.726  0.6162  0.6198  1.4826
  196SOL    HW3  783   4.390   4.124   1.688  0.1657  0.2184 -0.5417
  196SOL    MW4  784   4.386   4.039   1.670 -0.3203  0.0553  0.2895
  197SOL     OW  785   3.458   2.257   1.254 -0.1211 -0.0259  0.1446
  197SOL    HW2  786   3.400   2.182   1.240 -3.0045  2.2446 -0.6465
  197SOL    HW3  787   3.405   2.320   1.303  1.0157  2.8917 -2.1883
  197SOL    MW4  788   3.443   2.255   1.258 -0.3515  0.6586 -0.2676
  198SOL     OW  789   2.194   2.643   1.322  0.4351  0.0907  0.2835
  198SOL    HW2  790   2.114   2.677   1.283  0.8325 -0.2089 -0.8313
  198SOL    HW3  791   2.172   2.554   1.349  1.1729 -1.0980 -2.7517
  198SOL    MW4  792   2.181   2.636   1.320  0.5849 -0.1056 -0.2640
  199SOL     OW  793   0.957   2.414   1.468 -0.1037 -0.1101 -0.3196
  199SOL    HW2  794   1.024   2.353   1.499 -0.7415 -0.7235 -0.1507
  199SOL    HW3  795   0.905   2.364   1.405  0.2392  0.6758 -1.2600
  199SOL    MW4  796   0.959   2.400   1.464 -0.1426 -0.0873 -0.4214
  200SOL     OW  797   3.850   2.035   1.348 -0.0689 -0.0408 -0.3594
  200SOL    HW2  798   3.838   1.953   1.396  1.9171 -0.2576 -0.2136
  200SOL    HW3  799   3.778   2.091   1.378 -1.3409 -1.6638 -0.3354
  200SOL    MW4  800   3.839   2.032   1.358  0.0253 -0.2836 -0.3370
  201SOL     OW  801   4.410   1.282   0.831 -0.2479 -0.4707  0.3895
  201SOL    HW2  802   4.385   1.275   0.923 -1.0000 -0.7849  0.1637
  201SOL    HW3  803   4.342   1.338   0.792  0.6746  0.5812  0.2553
  201SOL    MW4  804   4.398   1.289   0.838 -0.2254 -0.3734  0.3420
  202SOL     OW  805   1.552   0.663   1.704 -0.3152 -0.0799 -0.6794
  202SOL    HW2  806   1.557   0.594   1.639 -1.1150  1.2154 -2.1370
  202SOL    HW3  807   1.626   0.720   1.684 -0.7059  0.4528 -0.6139
  202SOL    MW4  808   1.562   0.662   1.693 -0.4723  0.1613 -0.8630
  203SOL     OW  809   0.315   1.992   1.338 -0.3622  0.2416  0.4476
  203SOL    HW2  810   0.368   2.007   1.260  0.3708  0.4144  0.9781
  203SOL    HW3  811   0.300   1.897   1.339 -0.5952  0.2706 -0.0408
  203SOL    MW4  812   0.320   1.981   1.328 -0.2962  0.2682  0.4532
  204SOL     OW  813   4.107   2.659   1.503  0.5761  0.3993  0.1541
  204SOL    HW2  814   4.135   2.719   1.572  1.6512 -0.8765  0.8312
  204SOL    HW3  815   4.078   2.581   1.549  0.2226 -0.0371 -0.7863
  204SOL    MW4  816   4.107   2.657   1.518  0.6713  0.1734  0.1194
  205SOL     OW  817   3.979   1.558   1.743 -0.0647  0.3419  0.3234
  205SOL    HW2  818   3.901   1.556   1.798  0.1301  1.1790  0.6481
  205SOL    HW3  819   3.952   1.520   1.660 -0.5307 -0.3536  0.7970
  205SOL    MW4  820   3.965   1.553   1.740 -0.1005  0.3606  0.4287
  206SOL     OW  821   0.065   2.185   1.890 -0.3287  0.4292 -0.2568
  206SOL    HW2  822  -0.006   2.197   1.826 -1.7394  1.0463  1.3775
  206SOL    HW3  823   0.109   2.270   1.893  0.3788  0.0907 -1.1653
  206SOL    MW4  824   0.061   2.198   1.882 -0.4214  0.4659 -0.1611
  207SOL     OW  825   0.028   0.878   1.817 -0.1579 -0.7469  0.4775
  207SOL    HW2  826   0.003   0.970   1.828  0.1705 -0.6305  0.2582
  207SOL    HW3  827   0.092   0.862   1.886  0.2902 -0.6223  0.0886
  207SOL    MW4  828   0.033   0.888   1.828 -0.0555 -0.7151  0.3972
  208SOL     OW  829   1.137   4.621   1.475 -0.5397  0.5830  0.4368
  208SOL    HW2  830   1.062   4.563   1.485  1.7070 -2.4253  0.7986
  208SOL    HW3  831   1.178   4.622   1.562  0.7510  0.8320 -0.1660
  208SOL    MW4  832   1.133   4.614   1.488 -0.0730  0.2190  0.4050
  209SOL     OW  833   1.171   0.680   0.445 -0.5353  0.0627 -0.1980
  209SOL    HW2  834   1.149   0.632   0.366 -0.4330  0.2850 -0.3606
  209SOL    HW3  835   1.221   0.756   0.415  0.1190 -0.2301  0.1329
  209SOL    MW4  836   1.175   0.684   0.431 -0.4354  0.0534 -0.1758
  210SOL     OW  837   0.525   2.397   1.440  0.0705 -0.1265  0.5311
  210SOL    HW2  838   0.547   2.360   1.525 -0.2978  1.3861  1.3017
  210SOL    HW3  839   0.584   2.472   1.431  0.2873 -0.4242 -0.6741
  210SOL    MW4  840   0.536   2.402   1.450  0.0505  0.0338  0.4738
  211SOL     OW  841   1.207   0.943   0.336  0.2149 -0.0005  0.1880
  211SOL    HW2  842   1.203   1.007   0.266 -0.4010  0.7135  0.8639
  211SOL    HW3  843   1.247   0.989   0.410 -0.1479 -0.4121  0.6505
  211SOL    MW4  844   1.212   0.957   0.337  0.0858  0.0394  0.3382
  212SOL     OW  845   4.018   2.259   1.413 -0.3582 -0.0698  0.4962
  212SOL    HW2  846   3.946   2.321   1.411 -1.5136 -1.3425  1.3930
  212SOL    HW3  847   3.977   2.175   1.389  0.8647 -0.7603  0.8008
  212SOL    MW4  848   4.003   2.256   1.410 -0.3493 -0.3288  0.6547
  213SOL     OW  849   1.111   2.308   2.259  0.4358  0.1422  0.2686
  213SOL    HW2  850   1.191   2.352   2.230  1.2072 -1.4172 -0.0006
  213SOL    HW3  851   1.041   2.348   2.207  0.9066  2.1095  1.1029
  213SOL    MW4  852   1.112   2.319   2.249  0.5997  0.1961  0.3432
  214SOL     OW  853   3.478   2.889   1.857 -0.1031 -0.2712  0.2485
  214SOL    HW2  854   3.392   2.917   1.887 -0.1611 -1.0507  0.8448
  214SOL    HW3  855   3.536   2.963   1.876 -0.8329  0.6545 -1.1235
  214SOL    MW4  856   3.474   2.902   1.864 -0.2070 -0.2519  0.1462
  215SOL     OW  857   2.923   3.210   0.988 -0.4461 -0.1036  0.4835
  215SOL    HW2  858   3.000   3.199   1.044  0.4727  0.0508 -0.7405
  215SOL    HW3  859   2.912   3.305   0.982  1.0608 -0.0285 -1.7324
  215SOL    MW4  860   2.932   3.221   0.995 -0.1260 -0.0733  0.0297
  216SOL     OW  861   4.065   0.426   1.956  0.1364  0.2909 -0.1871
  216SOL    HW2  862   4.028   0.436   2.044 -0.0809 -1.3915 -0.0698
  216SOL    HW3  863   4.081   0.332   1.947  0.7504  0.5211 -1.7162
  216SOL    MW4  864   4.062   0.415   1.967  0.1888  0.0993 -0.3734
  217SOL     OW  865   3.574   4.607   0.701  0.3192  0.0009 -0.3294
  217SOL    HW2  866   3.558   4.554   0.778  1.6833  1.8558  1.2704
  217SOL    HW3  867   3.537   4.556   0.629 -0.0052 -2.2569  1.3793
  217SOL    MW4  868   3.567   4.594   0.701  0.4563 -0.0522  0.1071
  218SOL     OW  869   1.043   1.806   1.898  0.3742  0.1943 -0.1518
  218SOL    HW2  870   0.996   1.781   1.978  1.3001 -0.6326  0.1506
  218SOL    HW3  871   1.080   1.892   1.919 -1.7723  1.2949 -0.7394
  218SOL    MW4  872   1.042   1.814   1.912  0.2131  0.2304 -0.1894
  219SOL     OW  873   4.396   2.110   1.185 -0.8250 -0.1529 -0.3188
  219SOL    HW2  874   4.369   2.181   1.242 -0.2087  0.3418 -0.6425
  219SOL    HW3  875   4.321   2.095   1.128 -0.8398  0.4448 -0.4591
  219SOL    MW4  876   4.383   2.117   1.185 -0.7457 -0.0088 -0.3800
  220SOL     OW  877   1.426   3.428   1.856  0.5449  0.3543  0.5161
  220SOL    HW2  878   1.395   3.341   1.883  3.2171 -0.6945  0.3069
  220SOL    HW3  879   1.407   3.431   1.762 -0.6180  0.4855  0.7421
  220SOL    MW4  880   1.419   3.417   1.847  0.7440  0.2332  0.5184
  221SOL     OW  881   3.365   2.275   0.727  0.0111 -0.6137 -0.1890
  221SOL    HW2  882   3.372   2.321   0.810 -0.4336  0.4466 -0.7315
  221SOL    HW3  883   3.281   2.230   0.731 -1.5320  2.0556 -1.3450
  221SOL    MW4  884   3.355   2.275   0.738 -0.2511 -0.1216 -0.4131
  222SOL     OW  885   3.210   2.971   1.868 -0.1205 -0.0274 -0.3572
  222SOL    HW2  886   3.144   2.908   1.897  0.7833 -0.2498  1.2694
  222SOL    HW3  887   3.197   2.977   1.773 -1.5412 -1.1258 -0.2562
  222SOL    MW4  888   3.200   2.963   1.860 -0.1887 -0.2016 -0.1293
  223SOL     OW  889   0.051   4.137   0.665 -0.3259 -0.0341 -0.0424
  223SOL    HW2  890   0.046   4.213   0.722 -1.6224 -0.1568  0.0236
  223SOL    HW3  891   0.106   4.166   0.592  2.0884 -0.1585  1.6608
  223SOL    MW4  892   0.057   4.151   0.663 -0.1784 -0.0667  0.1910
  224SOL     OW  893   0.482   2.731   2.074 -0.1162 -0.4839 -0.1138
  224SOL    HW2  894   0.422   2.683   2.131 -1.1394  0.4387 -0.3869
  224SOL    HW3  895   0.520   2.665   2.017 -1.3707 -0.9984 -0.3700
  224SOL    MW4  896   0.479   2.716   2.074 -0.4167 -0.4301 -0.1836
  225SOL     OW  897   1.770   0.057   0.576 -0.2137 -0.5180  0.4621
  225SOL    HW2  898   1.744  -0.035   0.578  3.3934 -1.6046  1.4709
  225SOL    HW3  899   1.808   0.074   0.662 -1.1936  2.0795  0.4420
  225SOL    MW4  900   1.772   0.047   0.587  0.1329 -0.3187  0.5926
  226SOL     OW  901   3.182   4.413   1.951 -0.1640  0.0537 -0.6295
  226SOL    HW2  902   3.103   4.389   2.001 -0.1213 -1.0691 -1.0791
  226SOL    HW3  903   3.149   4.472   1.883 -0.7902 -1.1838 -1.4217
  226SOL    MW4  904   3.167   4.417   1.949 -0.2410 -0.2577 -0.7933
  227SOL     OW  905   2.832   0.495   1.342 -0.0977  0.4452 -0.6361
  227SOL    HW2  906   2.824   0.582   1.303 -0.2195  0.2709 -0.9952
  227SOL    HW3  907   2.767   0.494   1.412 -0.2343  0.5720 -0.7627
  227SOL    MW4  908   2.823   0.506   1.346 -0.1318  0.4390 -0.7002
  228SOL     OW  909   1.927   0.403   1.097  0.1910 -0.3275 -0.0231
  228SOL    HW2  910   1.831   0.414   1.094  0.3675  1.0821 -0.9953
  228SOL    HW3  911   1.959   0.488   1.127  1.2704 -0.1119 -1.7432
  228SOL    MW4  912   1.918   0.416   1.101  0.3567 -0.1131 -0.3783
  229SOL     OW  913   3.987   4.249   2.311 -0.2959 -0.0196  0.2722
  229SOL    HW2  914   3.956   4.326   2.264  1.7717  0.4533 -0.3715
  229SOL    HW3  915   3.973   4.176   2.250 -2.9593 -0.2965  1.1762
  229SOL    MW4  916   3.981   4.249   2.297 -0.3745  0.0062  0.3065
  230SOL     OW  917   3.593   0.256   0.937  0.8469 -0.2900 -0.4867
  230SOL    HW2  918   3.635   0.332   0.977 -0.6054  0.0733  0.3710
  230SOL    HW3  919   3.587   0.191   1.007  0.1762 -0.4090 -0.6445
  230SOL    MW4  920   3.597   0.258   0.951  0.5668 -0.2578 -0.3944
  231SOL     OW  921   0.863   1.705   1.136  0.1953 -0.0465 -0.3887
  231SOL    HW2  922   0.819   1.626   1.105  0.4850  0.2408 -1.5690
  231SOL    HW3  923   0.794   1.771   1.144 -0.0157 -0.3550  0.4151
  231SOL    MW4  924   0.848   1.703   1.133  0.2057 -0.0493 -0.4384
  232SOL     OW  925   4.378   1.591   0.453 -0.6374  0.4174  0.4382
  232SOL    HW2  926   4.403   1.683   0.461 -1.2322  0.6420 -0.1720
  232SOL    HW3  927   4.460   1.543   0.448 -0.3284  1.0910 -1.0706
  232SOL    MW4  928   4.392   1.597   0.454 -0.6751  0.5359  0.1586
  233SOL     OW  929   3.033   0.540   1.770 -0.5006  0.1543  0.2474
  233SOL    HW2  930   3.036   0.512   1.678  1.0699  1.9177 -0.2665
  233SOL    HW3  931   3.109   0.497   1.810  0.4335  1.6022  0.0518
  233SOL    MW4  932   3.044   0.531   1.763 -0.1701  0.5780  0.1538
  234SOL     OW  933   3.636   0.283   0.415  0.2066  0.0419  0.1679
  234SOL    HW2  934   3.724   0.314   0.395  0.5237  0.2185  1.8004
  234SOL    HW3  935   3.640   0.256   0.506 -2.1751  2.7352  1.1366
  234SOL    MW4  936   3.648   0.284   0.424 -0.0658  0.4205  0.5111
  235SOL     OW  937   4.489   3.852   1.206 -0.5478 -0.1606 -0.1419
  235SOL    HW2  938   4.534   3.935   1.191 -1.1983  0.4426  1.1297
  235SOL    HW3  939   4.485   3.811   1.120 -1.1276  1.5882 -0.9720
  235SOL    MW4  940   4.494   3.858   1.193 -0.7101  0.1497 -0.0837
  236SOL     OW  941   2.691   0.910   2.132  0.0578  0.1723  0.1278
  236SOL    HW2  942   2.690   0.988   2.187  1.8544  0.1000  0.2911
  236SOL    HW3  943   2.622   0.854   2.169  0.7483  0.4234  1.8691
  236SOL    MW4  944   2.682   0.913   2.144  0.3859  0.1959  0.3791
  237SOL     OW  945   1.324   3.169   1.947 -0.2888 -0.1313 -0.2852
  237SOL    HW2  946   1.230   3.154   1.948 -0.3526  0.2101 -0.7445
  237SOL    HW3  947   1.344   3.209   2.032 -0.8013  1.2032 -0.7785
  237SOL    MW4  948   1.314   3.172   1.958 -0.3649  0.0898 -0.4109
  238SOL     OW  949   1.694   2.287   2.017 -0.1858  0.3394 -0.2518
  238SOL    HW2  950   1.603   2.305   1.997 -0.4694 -0.5491  0.1954
  238SOL    HW3  951   1.694   2.198   2.052  1.1352 -0.4909 -2.2868
  238SOL    MW4  952   1.682   2.278   2.019 -0.0489  0.1126 -0.4613
  239SOL     OW  953   4.334   1.506   1.737 -0.2543  0.6873  0.1130
  239SOL    HW2  954   4.292   1.442   1.794 -0.1810  0.4149 -0.1356
  239SOL    HW3  955   4.427   1.488   1.745 -0.2116  0.9995  0.3199
  239SOL    MW4  956   4.341   1.495   1.746 -0.2390  0.6926  0.1075
  240SOL     OW  957   1.586   4.206   1.085  0.2523 -0.2696 -0.7569
  240SOL    HW2  958   1.532   4.227   1.009  0.3331 -0.7025 -0.9335
  240SOL    HW3  959   1.572   4.280   1.145 -0.1667 -0.1516 -0.9961
  240SOL    MW4  960   1.577   4.219   1.083  0.2077 -0.3111 -0.8117
  241SOL     OW  961   1.760   0.137   1.238 -0.1333 -0.0147  0.2743
  241SOL    HW2  962   1.703   0.209   1.209 -2.0917 -1.0211  1.5836
  241SOL    HW3  963   1.765   0.079   1.162  0.4594  0.8703 -0.3762
  241SOL    MW4  964   1.753   0.139   1.224 -0.3135 -0.0307  0.3612
  242SOL     OW  965   4.030   3.664   1.222 -0.1979  0.3021  0.2845
  242SOL    HW2  966   4.056   3.601   1.156  1.7691  1.3184  0.0570
  242SOL    HW3  967   4.084   3.741   1.205 -1.0681  1.2989  1.8461
  242SOL    MW4  968   4.041   3.666   1.211 -0.0532  0.5677  0.4605
  243SOL     OW  969   1.141   0.494   0.254  0.3238  0.6195  0.4615
  243SOL    HW2  970   1.207   0.435   0.292  0.7908 -0.6357 -2.2096
  243SOL    HW3  971   1.083   0.436   0.205 -1.0872  2.0576  0.4313
  243SOL    MW4  972   1.142   0.478   0.253  0.1993  0.6437  0.1051
  244SOL     OW  973   0.924   2.003   0.937 -0.1590  0.3615 -0.4209
  244SOL    HW2  974   0.939   2.028   1.028  0.4072 -0.2182 -0.3542
  244SOL    HW3  975   0.870   1.924   0.942 -0.5572  0.6215 -0.5979
  244SOL    MW4  976   0.919   1.996   0.949 -0.1369  0.3193 -0.4355
  245SOL     OW  977   3.021   1.519   1.571 -0.2251 -0.6132 -0.0878
  245SOL    HW2  978   3.038   1.607   1.603  0.3012 -1.1797  1.2303
  245SOL    HW3  979   2.931   1.500   1.600 -0.5437 -0.3160 -0.8531
  245SOL    MW4  980   3.011   1.528   1.579 -0.1977 -0.6487 -0.0149
  246SOL     OW  981   0.776   2.778   0.769 -0.3850 -0.2601 -0.2564
  246SOL    HW2  982   0.817   2.746   0.849 -1.3434  1.5023  0.9959
  246SOL    HW3  983   0.714   2.710   0.745 -1.4901  0.0275  1.6407
  246SOL    MW4  984   0.773   2.765   0.777 -0.6573  0.0104  0.1591
  247SOL     OW  985   4.489   1.846   0.539  0.4731 -0.1240  0.1207
  247SOL    HW2  986   4.543   1.925   0.542  0.9333 -0.4299 -0.0772
  247SOL    HW3  987   4.511   1.800   0.621  0.8180 -0.4469 -0.1518
  247SOL    MW4  988   4.499   1.851   0.550  0.5793 -0.2070  0.0586
  248SOL     OW  989   1.616   0.357   1.155 -0.0620  0.1354  0.1043
  248SOL    HW2  990   1.618   0.444   1.195 -1.0701  0.6480 -0.9345
  248SOL    HW3  991   1.523   0.340   1.139  0.3554  0.4226 -2.9882
  248SOL    MW4  992   1.604   0.367   1.158 -0.1399  0.2409 -0.4408
  249SOL     OW  993   2.309   4.548   0.405 -0.3899  0.4643  0.0718
  249SOL    HW2  994   2.353   4.631   0.423 -0.4374  0.2550  1.1845
  249SOL    HW3  995   2.266   4.525   0.487  0.0645 -0.9249 -0.0602
  249SOL    MW4  996   2.309   4.556   0.418 -0.3363  0.2534  0.2012
  250SOL     OW  997   4.134   2.644   0.530 -0.1374  0.0894 -0.7450
  250SOL    HW2  998   4.229   2.629   0.530 -0.0259  0.7137  1.0124
  250SOL    HW3  999   4.097   2.558   0.549  0.0873 -0.0513 -0.9368
  250SOL    MW4 1000   4.141   2.630   0.532 -0.0930  0.1532 -0.5384
  251SOL     OW 1001   3.107   2.113   1.021 -0.2186  0.2053  0.2968
  251SOL    HW2 1002   3.073   2.191   1.065 -0.9633  0.2293 -0.3185
  251SOL    HW3 1003   3.047   2.043   1.047  0.0382 -0.0196  0.2825
  251SOL    MW4 1004   3.095   2.114   1.030 -0.2830  0.1788  0.2137
  252SOL     OW 1005   1.130   0.498   1.830 -0.0549  0.4039 -0.1482
  252SOL    HW2 1006   1.206   0.442   1.815 -1.1492 -1.3302  0.6920
  252SOL    HW3 1007   1.122   0.502   1.926 -2.5177 -1.4850 -0.2400
  252SOL    MW4 1008   1.139   0.491   1.841 -0.5242 -0.0741 -0.0494
  253SOL     OW 1009   4.214   2.182   1.578  0.4589 -0.0037 -0.7506
  253SOL    HW2 1010   4.182   2.198   1.666  2.0436  3.6528 -0.7352
  253SOL    HW3 1011   4.152   2.226   1.521  2.0480  1.8992 -1.0843
  253SOL    MW4 1012   4.202   2.190   1.582  0.8777  0.7298 -0.7926
  254SOL     OW 1013   0.131   2.880   0.999 -0.4125 -0.2236 -0.0972
  254SOL    HW2 1014   0.040   2.876   0.970 -1.0529  0.0040  1.8268
  254SOL    HW3 1015   0.136   2.815   1.069  0.8722 -0.0900 -0.0583
  254SOL    MW4 1016   0.120   2.871   1.004 -0.3275 -0.1759  0.1618
  255SOL     OW 1017   1.327   0.863   2.117 -0.4503 -0.1597  0.0560
  255SOL    HW2 1018   1.306   0.952   2.087  1.0444  0.4211  0.6951
  255SOL    HW3 1019   1.338   0.813   2.036  0.4556  0.6676 -0.3514
  255SOL    MW4 1020   1.326   0.868   2.102 -0.1336  0.0261  0.0866
  256SOL     OW 1021   3.778   4.456   0.176  0.1814  0.1988 -0.3808
  256SOL    HW2 1022   3.859   4.425   0.216 -0.9528  0.0912  1.9711
  256SOL    HW3 1023   3.766   4.544   0.213 -0.6817  0.2677 -0.8224
  256SOL    MW4 1024   3.787   4.463   0.186 -0.0821  0.1937 -0.1287
  257SOL     OW 1025   3.979   0.916   0.885 -0.0100 -0.1153 -0.2160
  257SOL    HW2 1026   3.983   1.012   0.887  0.5911 -0.1615  1.5103
  257SOL    HW3 1027   3.921   0.896   0.811 -0.0047  1.5747 -0.6899
  257SOL    MW4 1028   3.972   0.926   0.875  0.0700  0.1016 -0.0508
  258SOL     OW 1029   0.037   1.088   2.348  0.5220  0.3586 -0.2587
  258SOL    HW2 1030   0.047   0.995   2.325 -0.7166 -0.1237  1.0835
  258SOL    HW3 1031   0.014   1.087   2.441  0.8177  2.0419 -0.1576
  258SOL    MW4 1032   0.035   1.076   2.358  0.3976  0.5171 -0.0683
  259SOL     OW 1033   1.778   2.848   1.588 -0.0118  0.1569  0.0928
  259SOL    HW2 1034   1.703   2.818   1.536 -0.5891 -1.3204  1.7509
  259SOL    HW3 1035   1.747   2.928   1.631  0.1726  0.8810 -1.0937
  259SOL    MW4 1036   1.764   2.855   1.587 -0.0636  0.0575  0.1550
  260SOL     OW 1037   2.431   3.615   0.674  0.4633  0.1649 -0.2748
  260SOL    HW2 1038   2.340   3.619   0.644 -0.0594  0.5398  1.3316
  260SOL    HW3 1039   2.471   3.549   0.616 -1.3583 -1.5590  0.3374
  260SOL    MW4 1040   2.424   3.607   0.662  0.1540 -0.0131  0.0179
  261SOL     OW 1041   3.351   2.972   1.348  0.2215 -0.3471 -0.4369
  261SOL    HW2 1042   3.296   2.993   1.424  0.4481 -1.2952 -0.0008
  261SOL    HW3 1043   3.298   2.997   1.273 -0.4443 -0.4130  0.0041
  261SOL    MW4 1044   3.337   2.978   1.348  0.1635 -0.4809 -0.3212
  262SOL     OW 1045   0.778   0.329   1.037 -0.4506  0.6887 -0.1356
  262SOL    HW2 1046   0.791   0.236   1.055  0.7790  0.9275  0.2208
  262SOL    HW3 1047   0.852   0.373   1.079 -1.4047  1.9045  0.3083
  262SOL    MW4 1048   0.790   0.322   1.045 -0.4142  0.8806 -0.0300
  263SOL     OW 1049   0.674   4.455   1.053  0.2933  0.3400  0.0166
  263SOL    HW2 1050   0.745   4.394   1.073  0.2102  0.3729  0.4123
  263SOL    HW3 1051   0.599   4.400   1.033 -0.3595  0.3186  2.4517
  263SOL    MW4 1052   0.674   4.440   1.053  0.1962  0.3415  0.3901
  264SOL     OW 1053   0.695   4.045   1.210 -0.1644  0.1560  0.0122
  264SOL    HW2 1054   0.670   4.085   1.293 -0.0718  0.1160  0.0591
  264SOL    HW3 1055   0.627   3.979   1.193 -0.1300  0.0977  0.1040
  264SOL    MW4 1056   0.683   4.041   1.218 -0.1476  0.1430  0.0305
  265SOL     OW 1057   1.747   3.163   1.100  0.3261  0.2865  0.0837
  265SOL    HW2 1058   1.794   3.239   1.066  1.6788 -0.5356  0.0753
  265SOL    HW3 1059   1.800   3.134   1.175 -1.0574  0.3330  1.1040
  265SOL    MW4 1060   1.760   3.170   1.106  0.3220  0.1841  0.2172
  266SOL     OW 1061   1.270   4.173   1.376 -0.0909 -0.0764  0.1499
  266SOL    HW2 1062   1.261   4.261   1.338  0.8439 -1.3269 -3.1442
  266SOL    HW3 1063   1.357   4.173   1.416 -0.5535  0.8518  1.1789
  266SOL    MW4 1064   1.280   4.185   1.376 -0.0286 -0.1189 -0.1490
  267SOL     OW 1065   1.555   1.044   1.424  0.2775  0.4942  0.2175
  267SOL    HW2 1066   1.506   1.087   1.354  1.9452 -0.3473 -1.4944
  267SOL    HW3 1067   1.554   1.108   1.496 -0.6770  1.7541 -0.8763
  267SOL    MW4 1068   1.548   1.058   1.424  0.3716  0.5494 -0.1527
  268SOL     OW 1069   2.642   0.539   0.944 -0.8750 -0.1728  0.0990
  268SOL    HW2 1070   2.690   0.606   0.896 -0.3724 -0.2871  0.4345
  268SOL    HW3 1071   2.709   0.475   0.970 -1.4175 -1.0588 -0.6330
  268SOL    MW4 1072   2.657   0.539   0.941 -0.8803 -0.3048  0.0467
  269SOL     OW 1073   0.891   4.300   0.882  0.4529 -0.0682 -0.0102
  269SOL    HW2 1074   0.956   4.338   0.941 -1.1063  0.5797  1.3422
  269SOL    HW3 1075   0.861   4.221   0.928 -1.5279  1.0001  0.6208
  269SOL    MW4 1076   0.896   4.295   0.896 -0.0141  0.1582  0.2515
  270SOL     OW 1077   1.776   4.486   0.264 -0.2447  0.5588 -0.0361
  270SOL    HW2 1078   1.777   4.467   0.170  0.6550  0.1598  0.0441
  270SOL    HW3 1079   1.861   4.528   0.281 -0.0485 -0.1255  0.7432
  270SOL    MW4 1080   1.787   4.489   0.254 -0.1001  0.4159  0.0773
  271SOL     OW 1081   0.434   0.187   2.146 -0.4188 -0.3511 -0.7068
  271SOL    HW2 1082   0.461   0.275   2.174 -0.6056  0.0540 -1.7522
  271SOL    HW3 1083   0.514   0.135   2.151 -0.3197 -0.1362 -0.0123
  271SOL    MW4 1084   0.448   0.192   2.150 -0.4303 -0.2693 -0.7531
  272SOL     OW 1085   2.497   2.786   0.711  0.3365 -0.3312  0.2986
  272SOL    HW2 1086   2.485   2.798   0.805 -1.0188 -1.9280  0.3533
  272SOL    HW3 1087   2.445   2.709   0.690  1.4896 -0.6275 -1.5770
  272SOL    MW4 1088   2.489   2.778   0.721  0.3098 -0.5810  0.0584
  273SOL     OW 1089   0.495   3.865   0.497  0.1031  0.0758 -0.0630
  273SOL    HW2 1090   0.573   3.825   0.457 -0.1070 -0.9639  0.5489
  273SOL    HW3 1091   0.512   3.959   0.493  0.6671 -0.0688 -1.4031
  273SOL    MW4 1092   0.508   3.872   0.492  0.1498 -0.0805 -0.1591
  274SOL     OW 1093   0.905   4.472   1.500  0.5477  0.0926 -0.2171
  274SOL    HW2 1094   0.852   4.523   1.562  0.3711 -0.9486  0.5055
  274SOL    HW3 1095   0.913   4.386   1.541  1.1230 -0.3618 -1.2681
  274SOL    MW4 1096   0.899   4.467   1.514  0.6003 -0.1047 -0.2605
  275SOL     OW 1097   4.435   0.512   1.541 -0.2534  0.0826  0.5959
  275SOL    HW2 1098   4.388   0.501   1.623 -1.3237  1.3160  0.1726
  275SOL    HW3 1099   4.380   0.467   1.476  0.2286 -0.2869  0.4426
  275SOL    MW4 1100   4.421   0.505   1.543 -0.3310  0.1966  0.5198
  276SOL     OW 1101   3.348   1.267   2.117 -0.3187 -0.2350  0.0677
  276SOL    HW2 1102   3.426   1.220   2.147 -0.8670 -0.4313  1.2037
  276SOL    HW3 1103   3.359   1.356   2.151  0.1037  0.1416 -1.0104
  276SOL    MW4 1104   3.360   1.273   2.125 -0.3353 -0.2112  0.0753
  277SOL     OW 1105   2.488   3.922   1.449 -0.4252  0.2442 -0.7501
  277SOL    HW2 1106   2.425   3.851   1.462 -1.2943  1.2755  0.8814
  277SOL    HW3 1107   2.563   3.880   1.408 -0.7249 -1.7132  0.6248
  277SOL    MW4 1108   2.489   3.907   1.445 -0.5794  0.1220 -0.3534
  278SOL     OW 1109   3.819   2.894   1.987 -0.7383 -0.1643  0.1395
  278SOL    HW2 1110   3.831   2.812   2.036 -1.8443  0.1931  1.0303
  278SOL    HW3 1111   3.906   2.913   1.950  0.0869 -0.5180  1.8436
  278SOL    MW4 1112   3.832   2.886   1.989 -0.7753 -0.1638  0.4818
  279SOL     OW 1113   3.541   2.722   2.087  0.2583 -0.6102  0.3566
  279SOL    HW2 1114   3.583   2.645   2.049  0.2389 -1.2614  1.6169
  279SOL    HW3 1115   3.514   2.774   2.012  2.7122 -0.4977 -0.4950
  279SOL    MW4 1116   3.543   2.719   2.072  0.5795 -0.6813  0.4106
  280SOL     OW 1117   4.011   3.864   0.744 -0.0012 -0.3124 -0.1106
  280SOL    HW2 1118   4.085   3.811   0.772  0.5758  0.1981 -0.6543
  280SOL    HW3 1119   3.987   3.828   0.658  0.8215  0.7268 -0.7895
  280SOL    MW4 1120   4.018   3.853   0.736  0.1835 -0.1079 -0.2719
  281SOL     OW 1121   0.917   2.699   1.348 -0.1232 -0.5262  0.5801
  281SOL    HW2 1122   0.835   2.673   1.390  0.2818 -2.0054  0.4806
  281SOL    HW3 1123   0.979   2.630   1.372  1.1688  0.7128  0.8624
  281SOL    MW4 1124   0.915   2.686   1.357  0.1007 -0.5579  0.6042
  282SOL     OW 1125   0.807   0.035   1.056 -0.0653  0.3747  0.1115
  282SOL    HW2 1126   0.838   0.046   1.146  1.0874 -0.2475 -0.2000
  282SOL    HW3 1127   0.764  -0.051   1.056  0.9772 -0.1568 -0.2072
  282SOL    MW4 1128   0.805   0.025   1.068  0.2243  0.2225  0.0283
  283SOL     OW 1129   2.315   3.454   0.878 -0.3595 -0.0045 -0.2297
  283SOL    HW2 1130   2.372   3.495   0.813  1.2263 -0.3975  0.8747
  283SOL    HW3 1131   2.304   3.364   0.847  1.3048 -0.5089  0.6034
  283SOL    MW4 1132   2.321   3.448   0.865  0.0693 -0.1229  0.0259
  284SOL     OW 1133   3.062   1.583   1.909 -0.1543  0.4218  0.8063
  284SOL    HW2 1134   3.066   1.572   2.005  1.7489 -1.6139  0.5400
  284SOL    HW3 1135   3.014   1.506   1.879  2.2213 -0.7574 -0.1118
  284SOL    MW4 1136   3.056   1.571   1.918  0.4102 -0.0024  0.6500
  285SOL     OW 1137   1.992   1.504   2.276 -0.1792  0.0418  0.1146
  285SOL    HW2 1138   1.994   1.498   2.371  0.9813 -0.8243  0.0421
  285SOL    HW3 1139   1.905   1.539   2.256 -0.9309 -1.0280  1.4220
  285SOL    MW4 1140   1.981   1.508   2.286 -0.1253 -0.2137  0.2775
  286SOL     OW 1141   1.240   2.122   0.985 -0.0287 -0.5660 -0.0340
  286SOL    HW2 1142   1.262   2.164   0.902 -0.7578  1.9270  0.9662
  286SOL    HW3 1143   1.324   2.118   1.032  0.0694 -0.3457 -0.1859
  286SOL    MW4 1144   1.254   2.127   0.980 -0.1119 -0.2080  0.0779
  287SOL     OW 1145   2.870   1.384   1.869 -0.3174 -0.1340  0.1933
  287SOL    HW2 1146   2.790   1.382   1.923  0.8635 -1.5295  1.9458
  287SOL    HW3 1147   2.916   1.303   1.891  1.6481  0.7003 -0.7178
  287SOL    MW4 1148   2.865   1.373   1.879  0.0977 -0.2080  0.3043
  288SOL     OW 1149   3.208   4.394   0.914 -0.1415  0.5816 -0.1147
  288SOL    HW2 1150   3.133   4.415   0.968  0.2781  0.7750  0.3981
  288SOL    HW3 1151   3.208   4.298   0.909 -0.6541  0.5980 -0.4552
  288SOL    MW4 1152   3.198   4.384   0.920 -0.1538  0.6093 -0.0920
  289SOL     OW 1153   2.955   2.789   0.946 -0.4533  0.2016 -0.1382
  289SOL    HW2 1154   2.988   2.707   0.909 -2.0678 -0.3461 -0.4266
  289SOL    HW3 1155   3.020   2.855   0.922  1.6176 -1.2284  1.3265
  289SOL    MW4 1156   2.968   2.787   0.938 -0.3931 -0.0594  0.0170
  290SOL     OW 1157   1.198   3.905   1.479 -0.2356 -0.3891  0.1167
  290SOL    HW2 1158   1.227   3.976   1.422 -0.7506 -0.6875 -0.5232
  290SOL    HW3 1159   1.123   3.867   1.433 -0.4665 -0.8202  0.8515
  290SOL    MW4 1160   1.192   3.909   1.465 -0.3340 -0.4853  0.1292
  291SOL     OW 1161   2.853   0.850   1.630  0.1003  0.1085  0.1147
  291SOL    HW2 1162   2.948   0.854   1.631  0.1274 -0.5770  0.5819
  291SOL    HW3 1163   2.826   0.897   1.709  0.1003 -0.8449  0.6876
  291SOL    MW4 1164   2.862   0.857   1.641  0.1039 -0.1077  0.2520
  292SOL     OW 1165   0.261   4.616   1.885  0.3035 -0.0975 -0.2978
  292SOL    HW2 1166   0.206   4.620   1.963  1.3592  0.6630  0.4263
  292SOL    HW3 1167   0.229   4.540   1.837 -0.9388 -0.0518  0.4347
  292SOL    MW4 1168   0.250   4.607   1.889  0.2789  0.0089 -0.1056
  293SOL     OW 1169   1.702   2.357   0.439  0.2297 -0.1846 -0.0264
  293SOL    HW2 1170   1.796   2.343   0.438  0.0450 -1.4831  0.0463
  293SOL    HW3 1171   1.682   2.387   0.528  0.7041  1.1177 -0.3464
  293SOL    MW4 1172   1.712   2.359   0.451  0.2679 -0.1841 -0.0591
  294SOL     OW 1173   0.418   1.745   1.140  0.4536 -0.3651  0.0788
  294SOL    HW2 1174   0.494   1.804   1.136  0.7012 -0.7638 -1.6628
  294SOL    HW3 1175   0.369   1.765   1.060 -1.7347  0.4570  1.5551
  294SOL    MW4 1176   0.421   1.756   1.129  0.1975 -0.3093  0.0438
  295SOL     OW 1177   2.412   4.140   0.676  0.1419  0.1671  0.1340
  295SOL    HW2 1178   2.394   4.060   0.726 -1.4734 -0.1590 -0.9523
  295SOL    HW3 1179   2.407   4.210   0.741 -0.7344 -0.3861  0.6776
  295SOL    MW4 1180   2.409   4.139   0.691 -0.1868  0.0511  0.0624
  296SOL     OW 1181   4.292   1.602   1.304  0.6916 -0.3074  0.4125
  296SOL    HW2 1182   4.309   1.680   1.357  1.6372 -0.2869  0.0926
  296SOL    HW3 1183   4.340   1.617   1.222 -0.4168 -0.5225 -0.2941
  296SOL    MW4 1184   4.300   1.614   1.300  0.6701 -0.3331  0.2771
  297SOL     OW 1185   3.189   0.110   1.910  0.0408  0.2909  0.4219
  297SOL    HW2 1186   3.229   0.196   1.901  0.8880 -0.0029  1.2525
  297SOL    HW3 1187   3.245   0.051   1.860 -0.5998  0.2290 -0.2383
  297SOL    MW4 1188   3.201   0.113   1.903  0.0681  0.2440  0.4444
  298SOL     OW 1189   4.242   3.375   1.771 -0.2297 -0.0063 -0.0948
  298SOL    HW2 1190   4.310   3.332   1.823 -0.0222 -0.1457 -0.4757
  298SOL    HW3 1191   4.234   3.463   1.809 -0.7552 -0.4248  0.7776
  298SOL    MW4 1192   4.250   3.381   1.783 -0.2716 -0.0799 -0.0299
  299SOL     OW 1193   0.738   3.689   1.156  0.0392 -0.3550  0.8105
  299SOL    HW2 1194   0.787   3.714   1.234  2.5875 -0.7170 -0.6273
  299SOL    HW3 1195   0.805   3.666   1.092 -2.0536 -2.4051 -0.7151
  299SOL    MW4 1196   0.753   3.689   1.158  0.0993 -0.6733  0.4195
  300SOL     OW 1197   1.779   0.795   1.646 -0.1861 -0.5003 -0.0296
  300SOL    HW2 1198   1.811   0.864   1.588 -0.7068  0.5230  0.8751
  300SOL    HW3 1199   1.826   0.717   1.619 -0.3689 -0.0171 -1.7723
  300SOL    MW4 1200   1.789   0.794   1.635 -0.2789 -0.3015 -0.1401
  301SOL     OW 1201   1.611   0.636   1.261  0.0171  0.5173  0.1241
  301SOL    HW2 1202   1.661   0.711   1.231 -0.4477  1.3290  1.3555
  301SOL    HW3 1203   1.520   0.658   1.239  0.0321 -0.2892 -0.7573
  301SOL    MW4 1204   1.605   0.649   1.254 -0.0422  0.5180  0.1703
  302SOL     OW 1205   1.427   1.115   1.195  0.4262  0.0003 -0.3161
  302SOL    HW2 1206   1.357   1.058   1.160  0.2244  0.2769 -0.3632
  302SOL    HW3 1207   1.501   1.100   1.138  0.7372 -1.0928  0.3591
  302SOL    MW4 1208   1.427   1.105   1.183  0.4406 -0.1074 -0.2332
  303SOL     OW 1209   2.561   0.519   1.800 -0.0866  0.3309 -0.5851
  303SOL    HW2 1210   2.512   0.443   1.768 -0.5204  0.5100 -0.3442
  303SOL    HW3 1211   2.650   0.485   1.814 -0.3301 -0.1947 -0.2693
  303SOL    MW4 1212   2.566   0.504   1.798 -0.1759  0.2852 -0.5117
  304SOL     OW 1213   2.790   3.763   1.762 -0.9473  0.4189  0.4600
  304SOL    HW2 1214   2.827   3.773   1.674 -0.2636 -0.1469  0.6673
  304SOL    HW3 1215   2.806   3.846   1.805 -0.6641  0.4632  0.2689
  304SOL    MW4 1216   2.797   3.775   1.756 -0.8197  0.3501  0.4621
  305SOL     OW 1217   0.127   0.047   0.995  0.1465  0.2191  0.0155
  305SOL    HW2 1218   0.124   0.139   1.023  0.4713  0.3644 -0.4272
  305SOL    HW3 1219   0.181   0.048   0.916 -0.5260 -0.2293 -0.4551
  305SOL    MW4 1220   0.133   0.059   0.988  0.1006  0.1791 -0.1050
  306SOL     OW 1221   0.191   3.526   0.681 -0.0009 -0.3585  0.0725
  306SOL    HW2 1222   0.195   3.530   0.777  0.6143  0.3688  0.0181
  306SOL    HW3 1223   0.221   3.612   0.652  2.7554 -1.5704 -0.8594
  306SOL    MW4 1224   0.196   3.537   0.690  0.4439 -0.4224 -0.0577
  307SOL     OW 1225   3.854   0.066   1.881 -0.1119 -0.0096 -0.5593
  307SOL    HW2 1226   3.826   0.114   1.803  0.1452 -0.0796 -0.6936
  307SOL    HW3 1227   3.940   0.103   1.903 -0.1988  0.0380 -0.2855
  307SOL    MW4 1228   3.862   0.077   1.874 -0.0895 -0.0126 -0.5409
  308SOL     OW 1229   0.111   2.710   1.225 -0.0677  0.6105  0.7891
  308SOL    HW2 1230   0.179   2.647   1.252 -0.6819 -0.1463  0.5856
  308SOL    HW3 1231   0.038   2.693   1.284 -0.8474 -0.0007 -0.3267
  308SOL    MW4 1232   0.111   2.699   1.236 -0.2516  0.4301  0.6151
  309SOL     OW 1233   3.303   2.128   2.015  0.2321  0.4727 -0.0956
  309SOL    HW2 1234   3.243   2.053   2.007  1.2617 -0.5606  1.6148
  309SOL    HW3 1235   3.249   2.204   1.993 -0.7721 -0.7790 -2.0885
  309SOL    MW4 1236   3.288   2.128   2.011  0.2354  0.1712 -0.1329
  310SOL     OW 1237   3.820   3.446   1.275  0.3914 -0.3700 -0.2213
  310SOL    HW2 1238   3.854   3.533   1.298  0.3769 -0.7331  1.2237
  310SOL    HW3 1239   3.731   3.446   1.309 -1.5075  0.9301 -4.8495
  310SOL    MW4 1240   3.813   3.458   1.283  0.1390 -0.2464 -0.6413
  311SOL     OW 1241   2.789   1.457   0.561  0.3703  0.5467 -0.2258
  311SOL    HW2 1242   2.711   1.466   0.506  0.1613  0.1567  0.0054
  311SOL    HW3 1243   2.800   1.543   0.601 -0.3418  0.4086  0.2756
  311SOL    MW4 1244   2.780   1.470   0.559  0.2488  0.4770 -0.1291
  312SOL     OW 1245   3.489   1.587   0.527  0.3614 -0.3802 -0.0577
  312SOL    HW2 1246   3.413   1.602   0.471  0.2403  0.6850  0.3682
  312SOL    HW3 1247   3.517   1.675   0.553 -1.2406 -0.8909  3.7132
  312SOL    MW4 1248   3.483   1.601   0.523  0.1341 -0.3071  0.4960
  313SOL     OW 1249   0.586   1.212   1.198  0.2482  0.1075 -0.0217
  313SOL    HW2 1250   0.523   1.281   1.222  1.2554  0.6451  1.1414
  313SOL    HW3 1251   0.589   1.155   1.275  1.2551  0.1412 -0.0319
  313SOL    MW4 1252   0.578   1.214   1.212  0.5140  0.1829  0.1304
  314SOL     OW 1253   0.346   3.117   2.018  0.0980 -0.2182  0.5007
  314SOL    HW2 1254   0.307   3.085   2.099  1.3650 -1.3624  0.6800
  314SOL    HW3 1255   0.345   3.041   1.960  0.4789  0.2132 -0.0749
  314SOL    MW4 1256   0.340   3.103   2.021  0.3154 -0.3122  0.4484
  315SOL     OW 1257   0.924   0.743   1.652 -0.2568 -0.3556 -0.0836
  315SOL    HW2 1258   0.981   0.799   1.704 -0.8777  0.1388  0.0776
  315SOL    HW3 1259   0.900   0.671   1.710 -1.1639  0.3374  0.4053
  315SOL    MW4 1260   0.928   0.741   1.666 -0.4584 -0.1989  0.0021
  316SOL     OW 1261   3.120   2.388   1.974 -0.1855 -0.1835  0.1834
  316SOL    HW2 1262   3.160   2.454   1.917  1.1670 -1.0137  0.1429
  316SOL    HW3 1263   3.137   2.419   2.063  1.6635 -1.1335  0.1939
  316SOL    MW4 1264   3.128   2.400   1.978  0.2369 -0.4184  0.1794
  317SOL     OW 1265   0.832   2.290   1.269  0.5354 -0.1594 -0.0226
  317SOL    HW2 1266   0.740   2.280   1.247  0.4296  0.5257  0.1109
  317SOL    HW3 1267   0.869   2.341   1.198  0.2987  1.6171  1.0976
  317SOL    MW4 1268   0.825   2.295   1.257  0.4902  0.1654  0.1428
  318SOL     OW 1269   1.702   1.267   1.926 -0.4761 -0.2629  0.2873
  318SOL    HW2 1270   1.753   1.294   2.003 -1.0870  0.6726  0.3693
  318SOL    HW3 1271   1.744   1.314   1.853 -1.4177  0.7738  0.4016
  318SOL    MW4 1272   1.715   1.277   1.926 -0.6809 -0.0027  0.3132
  319SOL     OW 1273   0.373   0.339   0.732  0.4354  0.4542 -0.0352
  319SOL    HW2 1274   0.293   0.391   0.739  0.0235 -0.2411  0.4720
  319SOL    HW3 1275   0.425   0.364   0.808 -0.3521 -0.8614  0.9508
  319SOL    MW4 1276   0.369   0.349   0.743  0.2771  0.1889  0.1618
  320SOL     OW 1277   3.131   4.581   0.694 -0.4793 -0.3553  0.0097
  320SOL    HW2 1278   3.111   4.557   0.604 -1.4503 -0.4656  0.2477
  320SOL    HW3 1279   3.163   4.500   0.734  1.9657  0.1944 -0.7924
  320SOL    MW4 1280   3.133   4.567   0.688 -0.2848 -0.2974 -0.0647
  321SOL     OW 1281   4.171   1.935   1.950 -0.1637  0.1289  0.3773
  321SOL    HW2 1282   4.227   1.875   1.902 -0.0998 -0.7222  1.4957
  321SOL    HW3 1283   4.226   1.970   2.020 -0.6638  0.2390  0.7255
  321SOL    MW4 1284   4.186   1.932   1.953 -0.2212  0.0312  0.5708
  322SOL     OW 1285   2.400   1.132   1.152  0.3257 -0.2555  0.4960
  322SOL    HW2 1286   2.437   1.055   1.109 -1.2640 -1.2428  0.8751
  322SOL    HW3 1287   2.307   1.111   1.164 -0.1544  1.7694  0.4794
  322SOL    MW4 1288   2.392   1.119   1.148  0.0526 -0.1186  0.5438
  323SOL     OW 1289   4.255   1.482   0.680  0.1481  0.1716 -0.0232
  323SOL    HW2 1290   4.296   1.505   0.597  0.8141  2.0779  0.8147
  323SOL    HW3 1291   4.161   1.487   0.663  0.2627 -0.9864 -1.0638
  323SOL    MW4 1292   4.248   1.486   0.667  0.2511  0.2704 -0.0500
  324SOL     OW 1293   0.160   1.839   1.028  0.0433  0.5111 -0.1108
  324SOL    HW2 1294   0.187   1.931   1.017  0.1596  0.5300  0.3225
  324SOL    HW3 1295   0.126   1.814   0.942  1.5394  0.4605 -0.7126
  324SOL    MW4 1296   0.159   1.848   1.015  0.2561  0.5069 -0.1330
  325SOL     OW 1297   3.345   2.921   0.739 -0.2022 -0.2749 -0.0075
  325SOL    HW2 1298   3.385   2.955   0.659  1.1777 -0.2818  0.6480
  325SOL    HW3 1299   3.292   2.847   0.711  0.7995 -0.6952 -0.8473
  325SOL    MW4 1300   3.343   2.916   0.725  0.1120 -0.3312 -0.0318
  326SOL     OW 1301   2.126   1.374   1.769  0.2409 -0.0569  0.3703
  326SOL    HW2 1302   2.133   1.386   1.674 -0.2532  1.5219  0.5185
  326SOL    HW3 1303   2.145   1.281   1.783 -0.8167 -0.5554 -1.3781
  326SOL    MW4 1304   2.130   1.363   1.758  0.0362  0.0856  0.1591
  327SOL     OW 1305   2.208   3.192   0.809  0.3190  0.5366  0.1826
  327SOL    HW2 1306   2.121   3.212   0.774 -0.2524 -0.7019  0.8761
  327SOL    HW3 1307   2.246   3.130   0.746 -0.0472 -0.3833  0.8607
  327SOL    MW4 1308   2.202   3.187   0.796  0.1953  0.2519  0.3636
  328SOL     OW 1309   1.701   1.607   1.025 -0.1072 -0.2919  0.1853
  328SOL    HW2 1310   1.708   1.524   1.073 -0.8921 -0.3152  0.2742
  328SOL    HW3 1311   1.790   1.643   1.025 -0.0262 -0.4711  1.3439
  328SOL    MW4 1312   1.714   1.601   1.032 -0.2001 -0.3186  0.3499
  329SOL     OW 1313   3.584   1.034   0.441 -0.0121  0.3166 -0.1352
  329SOL    HW2 1314   3.596   1.118   0.485 -0.0721  0.1220  0.2528
  329SOL    HW3 1315   3.496   1.039   0.404  0.3555  0.8106 -0.9550
  329SOL    MW4 1316   3.574   1.046   0.442  0.0285  0.3561 -0.1922
  330SOL     OW 1317   4.422   0.350   0.286 -0.0806 -0.0331  0.5527
  330SOL    HW2 1318   4.465   0.435   0.297 -0.0754  0.5495 -3.3501
  330SOL    HW3 1319   4.492   0.286   0.296  0.4856  0.5754  0.5556
  330SOL    MW4 1320   4.437   0.353   0.289 -0.0052  0.1241  0.0382
  331SOL     OW 1321   1.802   3.893   0.573  0.0480 -0.1913  0.4026
  331SOL    HW2 1322   1.765   3.804   0.572 -0.0971 -0.1293  0.0172
  331SOL    HW3 1323   1.895   3.880   0.558 -0.2101 -0.1777 -1.3082
  331SOL    MW4 1324   1.809   3.879   0.571 -0.0052 -0.1813  0.1260
  332SOL     OW 1325   2.269   1.469   0.812 -0.0556 -0.5020 -0.2768
  332SOL    HW2 1326   2.345   1.526   0.799 -0.6622  0.3469 -0.1530
  332SOL    HW3 1327   2.306   1.389   0.848  0.6427  0.4237  1.1393
  332SOL    MW4 1328   2.284   1.466   0.815 -0.0435 -0.2678 -0.0736
  333SOL     OW 1329   0.850   0.374   0.750  0.0827  0.4140 -0.6436
  333SOL    HW2 1330   0.941   0.342   0.748 -0.5855 -1.5094 -1.3352
  333SOL    HW3 1331   0.821   0.358   0.840 -0.0766 -0.4431 -0.8454
  333SOL    MW4 1332   0.859   0.367   0.762 -0.0265  0.0471 -0.7615
  334SOL     OW 1333   3.948   2.442   0.601  0.1036  0.0691 -0.0788
  334SOL    HW2 1334   3.899   2.524   0.609  1.3977  0.9073 -0.4640
  334SOL    HW3 1335   3.953   2.408   0.690  0.5124  0.9848  0.2526
  334SOL    MW4 1336   3.942   2.449   0.614  0.3283  0.3005 -0.0859
  335SOL     OW 1337   1.981   1.698   1.567  0.1878  0.1844  0.3633
  335SOL    HW2 1338   2.023   1.612   1.571 -0.1803  0.0684  1.7934
  335SOL    HW3 1339   2.044   1.753   1.521 -0.2057 -1.2083 -1.9703
  335SOL    MW4 1340   1.995   1.694   1.561  0.0873 -0.0147  0.2441
  336SOL     OW 1341   0.534   2.779   1.157 -0.4146 -0.5036 -0.2866
  336SOL    HW2 1342   0.544   2.817   1.070 -0.6786  0.4184  0.0821
  336SOL    HW3 1343   0.493   2.848   1.209 -0.6549 -1.2010  0.4597
  336SOL    MW4 1344   0.530   2.793   1.153 -0.4811 -0.4740 -0.1395
  337SOL     OW 1345   3.797   2.990   2.413 -0.4277  0.0555  0.3429
  337SOL    HW2 1346   3.769   2.900   2.397 -1.7895  0.3257  1.1637
  337SOL    HW3 1347   3.740   3.043   2.358  0.3686  0.4378 -0.1312
  337SOL    MW4 1348   3.786   2.985   2.404 -0.5023  0.1416  0.3887
  338SOL     OW 1349   1.593   3.238   1.451  0.0168 -0.3207 -0.2329
  338SOL    HW2 1350   1.683   3.271   1.448 -0.4142  0.9574  0.4457
  338SOL    HW3 1351   1.561   3.246   1.361  0.6286 -0.9376 -0.5093
  338SOL    MW4 1352   1.601   3.243   1.438  0.0407 -0.2335 -0.1798
  339SOL     OW 1353   1.790   0.342   1.833 -0.1943  0.0835 -0.3338
  339SOL    HW2 1354   1.871   0.392   1.849 -0.5521  0.2781  0.8866
  339SOL    HW3 1355   1.782   0.341   1.737  0.2671  1.6691 -0.4163
  339SOL    MW4 1356   1.800   0.349   1.822 -0.1806  0.3183 -0.1837
  340SOL     OW 1357   3.852   1.336   1.256  0.0183  0.4343  0.3524
  340SOL    HW2 1358   3.929   1.330   1.200  0.4754 -1.4216  1.1424
  340SOL    HW3 1359   3.795   1.400   1.212  1.6608  1.2501 -0.6265
  340SOL    MW4 1360   3.854   1.343   1.243  0.2953  0.2971  0.3275
  341SOL     OW 1361   0.293   1.301   1.056  0.7146 -0.2712 -0.4586
  341SOL    HW2 1362   0.273   1.217   1.098 -0.5730 -0.6254 -1.7319
  341SOL    HW3 1363   0.217   1.356   1.077  1.2856  0.3971 -0.1263
  341SOL    MW4 1364   0.280   1.297   1.065  0.6201 -0.2298 -0.5828
  342SOL     OW 1365   4.032   3.183   0.994 -0.0607 -0.0562 -0.8421
  342SOL    HW2 1366   4.114   3.225   1.021 -0.3256 -1.4065  2.2720
  342SOL    HW3 1367   3.965   3.249   1.010 -0.0606 -0.4104  0.7534
  342SOL    MW4 1368   4.034   3.197   1.000 -0.0957 -0.2811 -0.2207
  343SOL     OW 1369   4.258   0.152   0.436 -0.5183 -0.4116  0.4283
  343SOL    HW2 1370   4.318   0.215   0.399 -0.0253 -1.3648 -0.4321
  343SOL    HW3 1371   4.178   0.161   0.384 -1.4465  1.4324  2.1008
  343SOL    MW4 1372   4.255   0.161   0.424 -0.5757 -0.2941  0.5355
  344SOL     OW 1373   0.158   1.491   1.750 -0.4046 -0.4017  0.4831
  344SOL    HW2 1374   0.160   1.409   1.799 -0.5859 -0.4890  0.3461
  344SOL    HW3 1375   0.201   1.554   1.807  0.9443 -0.8872  0.0338
  344SOL    MW4 1376   0.164   1.488   1.764 -0.2505 -0.4772  0.4057
  345SOL     OW 1377   1.440   1.290   1.878  0.1004  0.0853 -0.1049
  345SOL    HW2 1378   1.425   1.385   1.877 -1.3309 -0.0774  1.9491
  345SOL    HW3 1379   1.535   1.280   1.885  0.3423  1.3392 -1.3367
  345SOL    MW4 1380   1.450   1.301   1.879 -0.0566  0.2293  0.0036
  346SOL     OW 1381   0.102   0.083   1.702 -0.3329 -0.5195 -0.1259
  346SOL    HW2 1382   0.151   0.035   1.769  0.8074  0.3900 -0.2861
  346SOL    HW3 1383   0.170   0.121   1.645 -1.2454  0.0714 -0.8438
  346SOL    MW4 1384   0.118   0.082   1.703 -0.3028 -0.3216 -0.2418
  347SOL     OW 1385   2.369   4.405   0.798 -0.5034  0.1287  0.1626
  347SOL    HW2 1386   2.310   4.369   0.864  0.0539  1.5536  1.4492
  347SOL    HW3 1387   2.312   4.454   0.739 -0.9579 -0.8454 -0.2163
  347SOL    MW4 1388   2.354   4.407   0.799 -0.4898  0.1882  0.2823
  348SOL     OW 1389   0.227   3.097   1.168  0.0023 -0.2787  0.5732
  348SOL    HW2 1390   0.170   3.094   1.245 -2.1744  0.5366 -0.9707
  348SOL    HW3 1391   0.203   3.019   1.117  1.0125 -0.4961  0.4196
  348SOL    MW4 1392   0.217   3.086   1.171 -0.1516 -0.1998  0.3492
  349SOL     OW 1393   2.457   4.153   1.625  0.2036  0.4616  0.5019
  349SOL    HW2 1394   2.490   4.224   1.571 -1.6595  0.5036 -0.6499
  349SOL    HW3 1395   2.465   4.075   1.570 -1.2878  0.4286  0.2979
  349SOL    MW4 1396   2.462   4.152   1.610 -0.2390  0.4628  0.3230
  350SOL     OW 1397   0.360   4.295   0.713 -0.1797 -0.3038 -0.5513
  350SOL    HW2 1398   0.408   4.269   0.792 -0.4697 -0.3868 -0.4015
  350SOL    HW3 1399   0.400   4.244   0.643 -1.0098 -1.4518 -0.2009
  350SOL    MW4 1400   0.372   4.285   0.715 -0.3275 -0.4662 -0.4853
  351SOL     OW 1401   1.682   3.848   1.989  0.5372  0.4718 -0.2784
  351SOL    HW2 1402   1.683   3.757   1.960  1.5838 -0.1550  1.6679
  351SOL    HW3 1403   1.770   3.881   1.970  0.9252  0.3405  1.2486
  351SOL    MW4 1404   1.693   3.841   1.982  0.7265  0.3718  0.1799
  352SOL     OW 1405   2.411   1.262   0.919  0.2249  0.3059  0.1040
  352SOL    HW2 1406   2.405   1.221   1.005  0.3741 -0.8464 -0.4295
  352SOL    HW3 1407   2.495   1.232   0.884  1.1575  2.4526  0.4080
  352SOL    MW4 1408   2.421   1.253   0.926  0.3676  0.4371  0.0737
  353SOL     OW 1409   3.168   3.820   1.197  0.2559  0.1482  0.1239
  353SOL    HW2 1410   3.224   3.896   1.214  0.0258  0.7287 -1.6177
  353SOL    HW3 1411   3.104   3.851   1.133  0.4720 -1.6415 -1.0000
  353SOL    MW4 1412   3.167   3.834   1.191  0.2540 -0.0113 -0.2542
  354SOL     OW 1413   0.542   0.412   0.943  0.5908  0.0559 -0.1459
  354SOL    HW2 1414   0.553   0.507   0.955  2.3627 -0.2717  1.2458
  354SOL    HW3 1415   0.613   0.374   0.995 -1.7079 -2.1251  1.5277
  354SOL    MW4 1416   0.553   0.420   0.952  0.5213 -0.2751  0.2585
  355SOL     OW 1417   1.830   3.685   1.253 -0.2336  0.1773 -0.8181
  355SOL    HW2 1418   1.747   3.644   1.227 -0.5438 -0.0795  0.5473
  355SOL    HW3 1419   1.893   3.613   1.253  0.2463  0.5578 -2.8743
  355SOL    MW4 1420   1.827   3.670   1.249 -0.2112  0.1936 -0.9093
  356SOL     OW 1421   3.136   1.611   1.303  0.1562 -0.0366 -0.4119
  356SOL    HW2 1422   3.165   1.695   1.339  2.6599 -0.6124 -0.9688
  356SOL    HW3 1423   3.076   1.576   1.369  0.6056  1.3148  0.7463
  356SOL    MW4 1424   3.132   1.618   1.317  0.5459  0.0657 -0.3325
  357SOL     OW 1425   2.337   4.004   2.113 -0.2356 -0.4908 -0.4775
  357SOL    HW2 1426   2.248   3.970   2.111  0.3697 -2.1858  0.7436
  357SOL    HW3 1427   2.330   4.088   2.157 -0.9481 -1.5374  1.4686
  357SOL    MW4 1428   2.324   4.011   2.118 -0.2497 -0.8525 -0.0597
  358SOL     OW 1429   2.477   2.789   2.186 -0.0635  0.5221 -0.1724
  358SOL    HW2 1430   2.404   2.735   2.220  1.5249 -0.4831  1.7686
  358SOL    HW3 1431   2.485   2.762   2.095  0.3260 -2.1952  0.5990
  358SOL    MW4 1432   2.468   2.778   2.179  0.1975  0.0310  0.1855
  359SOL     OW 1433   2.502   0.606   1.179 -0.6615 -0.1630  0.6431
  359SOL    HW2 1434   2.467   0.517   1.188 -1.7973  0.1363 -0.6348
  359SOL    HW3 1435   2.545   0.606   1.094 -2.4268  1.0762 -0.2800
  359SOL    MW4 1436   2.503   0.594   1.169 -1.0443  0.0399  0.3527
  360SOL     OW 1437   2.901   1.947   1.097 -0.1429  0.3604  0.1227
  360SOL    HW2 1438   2.820   1.958   1.047  0.0254  1.1330  0.0133
  360SOL    HW3 1439   2.873   1.950   1.189 -0.2783  0.2777  0.0844
  360SOL    MW4 1440   2.887   1.949   1.103 -0.1386  0.4514  0.1032
  361SOL     OW 1441   0.783   0.983   1.605  0.0314  0.0421 -0.0283
  361SOL    HW2 1442   0.714   0.984   1.539  0.0140 -0.7182 -0.0188
  361SOL    HW3 1443   0.813   0.892   1.608  0.2648  0.1381  0.7661
  361SOL    MW4 1444   0.778   0.971   1.597  0.0599 -0.0455  0.0778
  362SOL     OW 1445   1.163   2.280   1.569 -0.0710 -0.1080  0.2569
  362SOL    HW2 1446   1.205   2.292   1.484 -0.3780 -0.0377  0.1169
  362SOL    HW3 1447   1.183   2.361   1.616 -0.7086  0.2472 -0.0865
  362SOL    MW4 1448   1.171   2.293   1.564 -0.1956 -0.0519  0.1931
  363SOL     OW 1449   3.303   4.428   0.244  0.3515  0.3589 -0.4545
  363SOL    HW2 1450   3.371   4.375   0.202 -0.4113  0.0568 -1.3274
  363SOL    HW3 1451   3.226   4.371   0.244 -0.0748  0.9409 -0.0690
  363SOL    MW4 1452   3.302   4.413   0.238  0.1946  0.3958 -0.5188
  364SOL     OW 1453   2.949   0.167   1.547 -0.4258  0.0706 -1.1620
  364SOL    HW2 1454   2.999   0.247   1.529 -1.3811  0.7245 -0.9407
  364SOL    HW3 1455   2.940   0.166   1.642  1.1403 -1.2679 -1.0015
  364SOL    MW4 1456   2.955   0.177   1.557 -0.3452 -0.0197 -1.1116
  365SOL     OW 1457   2.206   0.250   0.509 -0.3211 -0.0193 -0.1503
  365SOL    HW2 1458   2.147   0.194   0.459  0.3618 -0.6217 -0.2915
  365SOL    HW3 1459   2.291   0.205   0.505  0.0913  0.7158  0.2438
  365SOL    MW4 1460   2.210   0.237   0.502 -0.1766 -0.0018 -0.1169
  366SOL     OW 1461   0.923   3.502   2.009  0.0749  0.0794  0.1021
  366SOL    HW2 1462   0.925   3.421   2.061  2.2999  0.6002  0.8808
  366SOL    HW3 1463   0.845   3.548   2.040  1.3253  0.3739  3.0061
  366SOL    MW4 1464   0.913   3.497   2.020  0.5334  0.1870  0.5880
  367SOL     OW 1465   0.647   1.526   0.538 -0.0433  0.3761  0.0019
  367SOL    HW2 1466   0.585   1.501   0.470 -0.5083  1.3172  0.0719
  367SOL    HW3 1467   0.605   1.497   0.620  0.1999 -0.1349 -0.0519
  367SOL    MW4 1468   0.633   1.519   0.540 -0.0726  0.4328  0.0040
  368SOL     OW 1469   1.352   0.354   1.765  0.3363 -0.2887 -0.1564
  368SOL    HW2 1470   1.426   0.403   1.801 -0.8128  2.0835 -0.9908
  368SOL    HW3 1471   1.371   0.346   1.672 -0.5655  0.5556 -0.4204
  368SOL    MW4 1472   1.364   0.359   1.758  0.0657  0.1357 -0.3013
  369SOL     OW 1473   3.644   0.781   1.321  0.0508  0.0901 -0.0266
  369SOL    HW2 1474   3.577   0.849   1.316 -0.8992 -0.8412 -0.2461
  369SOL    HW3 1475   3.667   0.776   1.414 -1.7253 -1.0200  0.3858
  369SOL    MW4 1476   3.638   0.789   1.333 -0.3089 -0.1792 -0.0011
  370SOL     OW 1477   3.688   4.616   1.008 -0.0099  0.1771 -0.0658
  370SOL    HW2 1478   3.620   4.563   0.968 -0.8485  0.7755  0.5473
  370SOL    HW3 1479   3.642   4.671   1.071  1.0630  0.4405  0.5119
  370SOL    MW4 1480   3.673   4.616   1.011  0.0210  0.2908  0.0913
  371SOL     OW 1481   1.870   1.306   0.521  0.6874 -0.6591 -0.2140
  371SOL    HW2 1482   1.959   1.276   0.501  0.4703 -0.4229 -1.6353
  371SOL    HW3 1483   1.815   1.230   0.503  0.5278 -0.5902 -0.0178
  371SOL    MW4 1484   1.874   1.292   0.516  0.6377 -0.6189 -0.3756
  372SOL     OW 1485   2.472   3.111   1.597 -0.3499  0.1356  0.2014
  372SOL    HW2 1486   2.419   3.039   1.561 -0.7099  0.8380 -0.6826
  372SOL    HW3 1487   2.451   3.186   1.541  1.2123  0.5397  0.1560
  372SOL    MW4 1488   2.462   3.111   1.585 -0.1913  0.2816  0.0788
  373SOL     OW 1489   1.980   2.782   0.561  0.2659 -0.2061  0.0067
  373SOL    HW2 1490   2.016   2.861   0.521  1.0916 -0.5567  0.0455
  373SOL    HW3 1491   1.967   2.806   0.653 -1.9435  0.7020 -0.5149
  373SOL    MW4 1492   1.983   2.796   0.568  0.0833 -0.1325 -0.0570
  374SOL     OW 1493   2.627   2.309   1.989 -0.4209 -0.5031  0.0524
  374SOL    HW2 1494   2.653   2.354   2.070 -0.6565 -0.8746  0.3393
  374SOL    HW3 1495   2.683   2.232   1.985 -0.7276 -0.7305  0.1050
  374SOL    MW4 1496   2.638   2.305   1.999 -0.4924 -0.5821  0.0972
  375SOL     OW 1497   1.043   0.713   1.422  0.1066  0.2754  0.2892
  375SOL    HW2 1498   1.138   0.724   1.424  0.0680  0.5008  1.0423
  375SOL    HW3 1499   1.017   0.717   1.514 -0.8227  1.8017 -0.0314
  375SOL    MW4 1500   1.052   0.715   1.435 -0.0211  0.5065  0.3463
  376SOL     OW 1501   2.481   2.278   1.402 -0.2362 -0.0892 -0.2813
  376SOL    HW2 1502   2.473   2.349   1.466  1.1167  0.4209 -0.6697
  376SOL    HW3 1503   2.571   2.285   1.369 -1.0462 -0.0731 -2.5777
  376SOL    MW4 1504   2.492   2.288   1.406 -0.1646 -0.0198 -0.6356
  377SOL     OW 1505   4.185   2.483   1.009  0.1268 -0.4533  0.3199
  377SOL    HW2 1506   4.127   2.428   0.957  0.8160 -0.4999 -0.4050
  377SOL    HW3 1507   4.258   2.504   0.950 -0.6622  2.1226  0.2272
  377SOL    MW4 1508   4.187   2.478   0.995  0.1136 -0.1196  0.2120
  378SOL     OW 1509   2.095   3.029   0.474 -0.0867  0.2258  0.0587
  378SOL    HW2 1510   2.179   3.010   0.517  0.2601 -1.9521 -1.4812
  378SOL    HW3 1511   2.119   3.061   0.387 -0.8387 -0.6802 -0.4952
  378SOL    MW4 1512   2.109   3.031   0.468 -0.1402 -0.1811 -0.2175
  379SOL     OW 1513   4.228   0.858   1.068  0.1380  0.1631  0.3985
  379SOL    HW2 1514   4.184   0.912   1.003  1.3703  0.8734  0.1439
  379SOL    HW3 1515   4.258   0.781   1.020  0.8017  0.5556  0.1802
  379SOL    MW4 1516   4.226   0.855   1.053  0.3881  0.3086  0.3361
  380SOL     OW 1517   1.255   1.742   1.210 -0.2919  0.2785  0.2072
  380SOL    HW2 1518   1.179   1.699   1.249  0.1943 -2.6073 -1.8879
  380SOL    HW3 1519   1.236   1.742   1.116  2.1367 -0.1792 -0.3096
  380SOL    MW4 1520   1.242   1.737   1.203  0.0927 -0.1626 -0.1374
  381SOL     OW 1521   1.372   2.440   2.184 -0.4088 -0.0665  0.4363
  381SOL    HW2 1522   1.443   2.401   2.235 -1.3533 -1.4141  0.7367
  381SOL    HW3 1523   1.401   2.430   2.093  0.5775  0.9722  0.6210
  381SOL    MW4 1524   1.385   2.433   2.178 -0.4033 -0.1072  0.5003
  382SOL     OW 1525   2.512   4.666   0.778  0.7731  0.0868  0.1066
  382SOL    HW2 1526   2.472   4.584   0.807 -1.6243  1.2779  0.2812
  382SOL    HW3 1527   2.500   4.725   0.853  2.4650  0.6067 -0.0276
  382SOL    MW4 1528   2.505   4.663   0.792  0.6800  0.3125  0.1119
  383SOL     OW 1529   1.727   1.062   0.537 -0.2588  0.1095 -0.2803
  383SOL    HW2 1530   1.720   1.032   0.628  1.2859 -0.3205 -0.2991
  383SOL    HW3 1531   1.669   1.003   0.489 -0.3492 -0.2708  0.2802
  383SOL    MW4 1532   1.718   1.050   0.543 -0.0669  0.0026 -0.2088
  384SOL     OW 1533   1.747   1.110   2.283 -0.5228  0.1965  0.0366
  384SOL    HW2 1534   1.811   1.169   2.243 -0.4595  0.0352 -0.0990
  384SOL    HW3 1535   1.769   1.024   2.249 -0.3061  0.0186  0.6316
  384SOL    MW4 1536   1.758   1.107   2.273 -0.4859  0.1518  0.0972
  385SOL     OW 1537   0.663   2.332   2.224  0.1055  0.3237  0.4799
  385SOL    HW2 1538   0.651   2.289   2.309 -0.5770 -0.0144  0.2138
  385SOL    HW3 1539   0.574   2.341   2.189  0.3091  1.2475  0.1899
  385SOL    MW4 1540   0.649   2.328   2.231  0.0423  0.4010  0.4065
  386SOL     OW 1541   1.441   4.317   0.622  0.2285  0.4079 -0.3173
  386SOL    HW2 1542   1.506   4.247   0.620  1.7001  1.7371  0.1404
  386SOL    HW3 1543   1.490   4.396   0.599 -0.8787  1.6906  1.5617
  386SOL    MW4 1544   1.456   4.318   0.619  0.2766  0.7525 -0.0090
  387SOL     OW 1545   3.318   3.241   1.627  0.1666 -0.2172 -0.0938
  387SOL    HW2 1546   3.313   3.296   1.548 -0.8954 -0.3793 -0.1554
  387SOL    HW3 1547   3.411   3.234   1.646  0.4003  0.2886 -1.0166
  387SOL    MW4 1548   3.329   3.248   1.619  0.0573 -0.1718 -0.2237
  388SOL     OW 1549   1.232   1.341   1.190 -0.1182 -0.1963  0.2642
  388SOL    HW2 1550   1.303   1.276   1.189  0.8883  0.9087 -0.4741
  388SOL    HW3 1551   1.242   1.386   1.273  0.7364  0.7149 -0.3307
  388SOL    MW4 1552   1.243   1.338   1.201  0.1274  0.0697  0.0883
  389SOL     OW 1553   4.037   1.803   1.597 -0.2960  0.0351 -0.0536
  389SOL    HW2 1554   4.130   1.824   1.585 -0.5795  2.0934  1.0514
  389SOL    HW3 1555   4.037   1.729   1.658  0.6202  0.1099  0.0449
  389SOL    MW4 1556   4.049   1.796   1.603 -0.2125  0.3166  0.1052
  390SOL     OW 1557   4.314   3.007   1.470 -0.0577  0.1376 -0.2019
  390SOL    HW2 1558   4.306   2.927   1.522  0.8479  0.4357  0.4031
  390SOL    HW3 1559   4.310   2.976   1.379  0.2317 -0.5920  0.0279
  390SOL    MW4 1560   4.312   2.992   1.465  0.0999  0.0807 -0.0917
  391SOL     OW 1561   4.132   0.275   2.335  0.0562  0.5512 -0.1784
  391SOL    HW2 1562   4.056   0.321   2.300 -0.7441 -1.4880 -1.1965
  391SOL    HW3 1563   4.201   0.341   2.339 -1.2086  1.9441 -1.0985
  391SOL    MW4 1564   4.131   0.290   2.331 -0.2163  0.4659 -0.4342
  392SOL     OW 1565   2.938   2.783   2.231  0.0441 -0.0905  0.2613
  392SOL    HW2 1566   3.014   2.761   2.286  0.1130  0.4662  0.3868
  392SOL    HW3 1567   2.970   2.773   2.141  0.1020 -0.4136  0.3162
  392SOL    MW4 1568   2.953   2.779   2.226  0.0609 -0.0597  0.2851
  393SOL     OW 1569   2.739   0.100   1.378  0.6813  0.0877 -0.0956
  393SOL    HW2 1570   2.668   0.164   1.385  1.1593  0.5257  0.8714
  393SOL    HW3 1571   2.811   0.138   1.427  1.4337 -0.5789 -0.6575
  393SOL    MW4 1572   2.739   0.113   1.385  0.8436  0.0576 -0.0421
  394SOL     OW 1573   1.254   2.706   0.576  0.1146  0.0358 -0.1640
  394SOL    HW2 1574   1.166   2.742   0.581  0.4705  0.7056  2.0168
  394SOL    HW3 1575   1.308   2.769   0.624  1.8006 -0.3189 -1.5380
  394SOL    MW4 1576   1.250   2.719   0.583  0.3840  0.0774 -0.0575
  395SOL     OW 1577   1.471   1.596   0.896 -0.0594 -0.1148 -0.4650
  395SOL    HW2 1578   1.558   1.598   0.937 -0.5295  0.9706  0.5085
  395SOL    HW3 1579   1.489   1.573   0.805  1.1884 -0.5774 -0.1266
  395SOL    MW4 1580   1.485   1.593   0.890  0.0432 -0.0326 -0.2919
  396SOL     OW 1581   1.457   0.059   1.021  0.0478 -0.5872  0.2542
  396SOL    HW2 1582   1.373   0.072   1.067 -0.5935  1.2423 -1.3732
  396SOL    HW3 1583   1.432   0.037   0.932  1.3072  0.7866 -0.4496
  396SOL    MW4 1584   1.442   0.058   1.016  0.1294 -0.1646 -0.0534
  397SOL     OW 1585   1.384   1.889   0.581  0.5600  0.5028 -0.0195
  397SOL    HW2 1586   1.473   1.855   0.572  1.2214  1.9780  0.7772
  397SOL    HW3 1587   1.366   1.885   0.675 -0.2275  0.1895 -0.1803
  397SOL    MW4 1588   1.393   1.884   0.592  0.5433  0.6561  0.0644
  398SOL     OW 1589   4.028   0.195   0.300  0.3081 -0.0739 -0.2528
  398SOL    HW2 1590   3.983   0.276   0.324 -0.2726 -0.7359  0.9119
  398SOL    HW3 1591   4.066   0.214   0.214 -1.9333  0.6023 -1.1397
  398SOL    MW4 1592   4.027   0.209   0.292 -0.0642 -0.0720 -0.2161
  399SOL     OW 1593   1.952   3.883   1.906 -0.5961 -0.1756 -0.4604
  399SOL    HW2 1594   1.983   3.913   1.992 -0.1502  1.2245 -1.0936
  399SOL    HW3 1595   1.987   3.795   1.897 -0.4383 -0.2412  0.6889
  399SOL    MW4 1596   1.960   3.876   1.917 -0.5164  0.0005 -0.3923
  400SOL     OW 1597   0.532   3.414   1.135  0.4704  0.1386 -0.7520
  400SOL    HW2 1598   0.474   3.348   1.098 -0.6704  0.2568  0.7813
  400SOL    HW3 1599   0.533   3.485   1.070  0.6373 -0.7972 -1.7758
  400SOL    MW4 1600   0.525   3.415   1.121  0.3419  0.0307 -0.6848
  401SOL     OW 1601   2.050   3.527   0.900  0.3364 -0.0400  0.1429
  401SOL    HW2 1602   2.145   3.518   0.893  0.4761  1.7184 -0.5827
  401SOL    HW3 1603   2.037   3.616   0.933 -1.0358 -0.6270  1.2137
  401SOL    MW4 1604   2.061   3.538   0.904  0.1738  0.1146  0.1885
  402SOL     OW 1605   3.257   0.064   1.169  0.2183  0.0256 -0.1155
  402SOL    HW2 1606   3.284  -0.027   1.177 -2.5065 -0.8515 -0.5330
  402SOL    HW3 1607   3.205   0.081   1.247 -0.7175  0.6878 -0.8655
  402SOL    MW4 1608   3.254   0.054   1.180 -0.2647 -0.0028 -0.2696
  403SOL     OW 1609   3.565   1.028   1.040  0.2241  0.5385  0.1214
  403SOL    HW2 1610   3.588   1.064   1.126 -0.7323 -0.5161  0.8330
  403SOL    HW3 1611   3.588   0.935   1.047  1.0409  0.6374 -1.0982
  403SOL    MW4 1612   3.571   1.020   1.053  0.2057  0.4124  0.0544
  404SOL     OW 1613   3.689   2.385   0.904 -0.0394 -0.5436 -0.1030
  404SOL    HW2 1614   3.732   2.302   0.885 -0.0840 -0.6233  0.1436
  404SOL    HW3 1615   3.744   2.426   0.971 -0.6840 -0.9269  0.6683
  404SOL    MW4 1616   3.702   2.379   0.910 -0.1304 -0.6047  0.0313
  405SOL     OW 1617   0.396   3.588   1.554 -0.0662 -0.2875  0.2716
  405SOL    HW2 1618   0.473   3.559   1.602  0.3421 -0.7594 -0.6423
  405SOL    HW3 1619   0.375   3.515   1.496 -1.3628 -0.2663  0.6957
  405SOL    MW4 1620   0.403   3.574   1.552 -0.1834 -0.3470  0.2070
  406SOL     OW 1621   2.708   2.959   1.623 -0.4835 -0.3624 -0.2749
  406SOL    HW2 1622   2.631   3.014   1.609  0.4898  0.6064 -2.0049
  406SOL    HW3 1623   2.714   2.905   1.544  1.4879  0.7013 -0.9003
  406SOL    MW4 1624   2.699   2.959   1.610 -0.0950 -0.0942 -0.5857
  407SOL     OW 1625   4.198   4.414   1.503 -0.1420  0.1571 -0.3682
  407SOL    HW2 1626   4.228   4.499   1.471 -1.0799  0.7826  0.3710
  407SOL    HW3 1627   4.115   4.400   1.457  0.0019 -0.3406 -0.4721
  407SOL    MW4 1628   4.191   4.424   1.493 -0.2468  0.1739 -0.2843
  408SOL     OW 1629   4.428   0.962   1.220  0.4208  0.0669 -0.3370
  408SOL    HW2 1630   4.434   0.922   1.307 -0.3577 -0.3581 -0.4735
  408SOL    HW3 1631   4.340   0.940   1.189  0.0738  1.6570 -0.5328
  408SOL    MW4 1632   4.417   0.954   1.227  0.2723  0.2206 -0.3809
  409SOL     OW 1633   3.093   1.824   2.304 -0.1694 -0.1918 -0.5327
  409SOL    HW2 1634   3.092   1.818   2.400 -1.6394 -0.9106 -0.5746
  409SOL    HW3 1635   3.035   1.898   2.284 -0.5113 -0.5509 -0.8874
  409SOL    MW4 1636   3.085   1.833   2.314 -0.4085 -0.3340 -0.5851
  410SOL     OW 1637   0.783   1.896   0.329  0.0857 -0.6669  0.4385
  410SOL    HW2 1638   0.804   1.806   0.303  0.4435 -0.9333  1.5962
  410SOL    HW3 1639   0.863   1.945   0.311 -0.2818 -0.4625 -0.6839
  410SOL    MW4 1640   0.796   1.890   0.323  0.0844 -0.6751  0.4431
  411SOL     OW 1641   4.452   1.867   1.322 -0.8638 -0.1312 -0.1588
  411SOL    HW2 1642   4.538   1.826   1.315 -1.6111 -1.4329 -1.8603
  411SOL    HW3 1643   4.455   1.939   1.259 -1.2062 -0.5132 -0.6119
  411SOL    MW4 1644   4.464   1.871   1.313 -1.0076 -0.3533 -0.4430
  412SOL     OW 1645   1.742   2.946   0.946  0.1534  0.1085 -0.3462
  412SOL    HW2 1646   1.752   3.017   1.010  1.7492 -0.5101  0.1378
  412SOL    HW3 1647   1.670   2.893   0.980  0.3080  0.3611  0.3912
  412SOL    MW4 1648   1.734   2.949   0.959  0.3843  0.0602 -0.1851
  413SOL     OW 1649   1.073   4.121   1.778  0.6393  0.1674  0.1169
  413SOL    HW2 1650   1.047   4.139   1.688  0.0733  0.3733  0.3204
  413SOL    HW3 1651   0.995   4.085   1.820  1.2965 -1.2605  0.1570
  413SOL    MW4 1652   1.059   4.118   1.772  0.6513  0.0062  0.1491
  414SOL     OW 1653   2.937   3.549   1.851  0.1849  0.1105 -0.1730
  414SOL    HW2 1654   2.960   3.565   1.942 -0.5712 -1.2161  0.2558
  414SOL    HW3 1655   2.883   3.624   1.826  0.9470  0.8124  0.2608
  414SOL    MW4 1656   2.933   3.561   1.860  0.1857  0.0281 -0.0592
  415SOL     OW 1657   1.268   4.429   1.293 -0.1651  0.2208  0.7138
  415SOL    HW2 1658   1.338   4.458   1.233 -1.7307  0.4245 -1.0703
  415SOL    HW3 1659   1.224   4.510   1.320 -0.4499  0.0064  0.8909
  415SOL    MW4 1660   1.272   4.444   1.288 -0.4092  0.2194  0.5018
  416SOL     OW 1661   2.937   1.197   2.249 -0.0349  0.2282  0.0718
  416SOL    HW2 1662   3.020   1.181   2.293 -0.8879 -2.3844  0.7941
  416SOL    HW3 1663   2.954   1.175   2.157 -0.3049 -1.7864  0.4812
  416SOL    MW4 1664   2.950   1.192   2.243 -0.1831 -0.3823  0.2211
  417SOL     OW 1665   1.912   3.502   0.654  0.5201 -0.0492  0.0868
  417SOL    HW2 1666   1.913   3.413   0.620 -0.5728 -0.5643  1.3458
  417SOL    HW3 1667   1.958   3.497   0.737 -0.0005  0.4508  0.4113
  417SOL    MW4 1668   1.918   3.490   0.660  0.3072 -0.0512  0.2957
  418SOL     OW 1669   4.113   0.154   1.896 -0.4450 -0.3068 -0.1384
  418SOL    HW2 1670   4.137   0.149   1.803  1.5127  0.7353  0.2933
  418SOL    HW3 1671   4.176   0.097   1.940  0.3985  1.3668  0.8560
  418SOL    MW4 1672   4.124   0.145   1.890 -0.0754  0.0515  0.0498
  419SOL     OW 1673   1.383   0.331   0.833  0.0617 -0.2374  0.0959
  419SOL    HW2 1674   1.392   0.240   0.805  1.4259  0.3890 -1.5574
  419SOL    HW3 1675   1.301   0.360   0.795 -0.4426 -0.8021  0.7355
  419SOL    MW4 1676   1.374   0.323   0.824  0.1751 -0.2292 -0.0378
  420SOL     OW 1677   1.189   2.979   1.186 -0.3386  0.0461  0.0809
  420SOL    HW2 1678   1.106   2.984   1.234  0.1131  0.3770  0.8383
  420SOL    HW3 1679   1.180   2.903   1.129 -1.8633  1.1302 -1.1542
  420SOL    MW4 1680   1.177   2.970   1.185 -0.4802  0.2328  0.0179
  421SOL     OW 1681   4.051   1.623   1.182  0.0263 -0.0936 -0.5093
  421SOL    HW2 1682   4.128   1.622   1.238 -1.4670 -1.4700  1.5975
  421SOL    HW3 1683   4.041   1.533   1.153 -1.3790 -0.1532  0.1009
  421SOL    MW4 1684   4.060   1.611   1.186 -0.3561 -0.2830 -0.1508
  422SOL     OW 1685   1.200   1.225   0.406  0.1052  0.3648  0.1711
  422SOL    HW2 1686   1.241   1.308   0.382 -0.6079 -0.0063 -2.4516
  422SOL    HW3 1687   1.115   1.251   0.444 -0.1195  0.8406 -0.6460
  422SOL    MW4 1688   1.194   1.239   0.408 -0.0185  0.3786 -0.2827
  423SOL     OW 1689   2.703   1.221   0.861  0.3031 -0.1283  0.6677
  423SOL    HW2 1690   2.781   1.278   0.855  0.9093 -1.0568 -0.4951
  423SOL    HW3 1691   2.737   1.138   0.895 -0.9226  0.8162  4.3742
  423SOL    MW4 1692   2.718   1.218   0.865  0.2214 -0.1262  1.0033
  424SOL     OW 1693   2.113   0.862   0.953 -0.2699  0.1821  0.4017
  424SOL    HW2 1694   2.165   0.782   0.944  0.8682  0.7150  2.0547
  424SOL    HW3 1695   2.164   0.929   0.907 -0.9582  0.1003 -0.5082
  424SOL    MW4 1696   2.127   0.860   0.945 -0.2105  0.2416  0.4997
  425SOL     OW 1697   3.425   2.375   0.978  0.2683 -0.2693 -0.1202
  425SOL    HW2 1698   3.515   2.384   0.944  0.4109  0.5774  0.4861
  425SOL    HW3 1699   3.436   2.339   1.065 -0.0206 -0.7940 -0.2977
  425SOL    MW4 1700   3.439   2.371   0.985  0.2490 -0.2268 -0.0636
  426SOL     OW 1701   3.153   3.763   1.866 -0.5649  0.3256  0.0633
  426SOL    HW2 1702   3.114   3.751   1.780 -2.3789 -1.5694  1.0896
  426SOL    HW3 1703   3.203   3.684   1.882 -1.4917 -0.0225  1.3601
  426SOL    MW4 1704   3.154   3.751   1.857 -0.9265  0.0297  0.3698
  427SOL     OW 1705   4.206   2.811   1.699  0.3059 -0.0656  0.1682
  427SOL    HW2 1706   4.170   2.883   1.751 -0.6396  0.6558 -1.4531
  427SOL    HW3 1707   4.258   2.760   1.762  1.7632  2.5290  1.1722
  427SOL    MW4 1708   4.208   2.814   1.714  0.3734  0.3719  0.0868
  428SOL     OW 1709   1.969   3.217   0.668  0.2377  0.0444 -0.1028
  428SOL    HW2 1710   1.996   3.153   0.603 -1.4112 -0.2462 -0.5189
  428SOL    HW3 1711   1.875   3.228   0.654  0.0709  0.8126  1.4911
  428SOL    MW4 1712   1.960   3.210   0.658 -0.0019  0.1074  0.0526
  429SOL     OW 1713   3.239   1.264   0.747 -0.2373 -0.0496 -0.0206
  429SOL    HW2 1714   3.293   1.340   0.770  0.8873 -0.3778 -1.5098
  429SOL    HW3 1715   3.300   1.190   0.749 -0.7663 -0.5268 -1.0504
  429SOL    MW4 1716   3.255   1.264   0.750 -0.1587 -0.1558 -0.3530
  430SOL     OW 1717   1.007   3.829   0.749 -0.5117 -0.1693 -0.1894
  430SOL    HW2 1718   1.031   3.920   0.767 -0.4422 -0.4222  1.0416
  430SOL    HW3 1719   1.090   3.785   0.733 -0.4217 -0.3029  0.6045
  430SOL    MW4 1720   1.021   3.835   0.750 -0.4906 -0.2203  0.0778
  431SOL     OW 1721   0.472   0.481   2.204 -0.5051  0.4625  0.2139
  431SOL    HW2 1722   0.385   0.504   2.171 -1.9322 -3.2099  1.1387
  431SOL    HW3 1723   0.458   0.461   2.297  1.0926 -1.2026  0.1332
  431SOL    MW4 1724   0.459   0.482   2.212 -0.4826 -0.2417  0.3253
  432SOL     OW 1725   3.698   0.267   2.282  0.1028  0.0520 -0.3008
  432SOL    HW2 1726   3.652   0.274   2.366 -2.4725  0.1728 -1.6819
  432SOL    HW3 1727   3.706   0.173   2.267 -1.1208  0.0237 -0.8078
  432SOL    MW4 1728   3.693   0.256   2.291 -0.3984  0.0642 -0.5499
  433SOL     OW 1729   3.556   3.694   1.575  0.0568 -0.3730 -0.5748
  433SOL    HW2 1730   3.569   3.695   1.669 -0.2588  0.2477 -0.5300
  433SOL    HW3 1731   3.470   3.733   1.562  0.3422  0.0908 -1.1486
  433SOL    MW4 1732   3.547   3.700   1.585  0.0528 -0.2299 -0.6446
  434SOL     OW 1733   0.548   1.488   2.245 -0.0081  0.2890  0.2443
  434SOL    HW2 1734   0.575   1.504   2.336  0.5473 -3.1979  0.7725
  434SOL    HW3 1735   0.597   1.410   2.219 -0.7071  0.8304 -2.8395
  434SOL    MW4 1736   0.558   1.480   2.254 -0.0271 -0.0997 -0.0929
  435SOL     OW 1737   4.451   4.003   0.298 -0.6751 -0.1412 -0.0517
  435SOL    HW2 1738   4.389   3.991   0.225 -1.8743  2.4356  0.4893
  435SOL    HW3 1739   4.400   4.047   0.366  1.0832 -0.3320  1.4252
  435SOL    MW4 1740   4.436   4.007   0.297 -0.6013  0.1736  0.2146
  436SOL     OW 1741   3.813   1.210   1.908 -0.4517 -0.0733  0.5444
  436SOL    HW2 1742   3.786   1.302   1.907 -0.0977  0.0348  1.1922
  436SOL    HW3 1743   3.774   1.174   1.828  0.1111  0.8334 -0.1469
  436SOL    MW4 1744   3.804   1.218   1.897 -0.3307  0.0606  0.5386
  437SOL     OW 1745   2.098   3.913   0.576  0.2615  0.6232  0.4425
  437SOL    HW2 1746   2.135   3.973   0.511  1.2569 -0.8278 -0.3617
  437SOL    HW3 1747   2.170   3.898   0.637  0.0075  0.2666  0.6491
  437SOL    MW4 1748   2.113   3.919   0.575  0.3593  0.3847  0.3636
  438SOL     OW 1749   2.918   2.872   0.560 -0.3399 -0.5998 -0.0723
  438SOL    HW2 1750   2.987   2.930   0.593 -1.4867  0.7254  0.0791
  438SOL    HW3 1751   2.899   2.814   0.633  0.3806 -0.7490  0.0011
  438SOL    MW4 1752   2.924   2.872   0.574 -0.3961 -0.4447 -0.0427
  439SOL     OW 1753   2.422   2.865   1.006  0.8025 -0.2413 -0.6492
  439SOL    HW2 1754   2.427   2.954   0.973  1.8168  0.5982  1.6603
  439SOL    HW3 1755   2.331   2.854   1.033  0.5501 -0.1020 -1.4385
  439SOL    MW4 1756   2.411   2.875   1.005  0.9030 -0.1122 -0.4486
  440SOL     OW 1757   2.157   0.729   1.807 -0.6855 -0.4382 -0.1331
  440SOL    HW2 1758   2.249   0.746   1.828 -0.5592 -2.2164  0.8890
  440SOL    HW3 1759   2.152   0.740   1.713  0.4535  0.2906 -0.1210
  440SOL    MW4 1760   2.169   0.732   1.798 -0.5186 -0.5767  0.0034
  441SOL     OW 1761   1.520   0.064   1.364 -0.1156 -0.0008  0.1943
  441SOL    HW2 1762   1.456   0.066   1.293 -0.3812  2.3672  0.4637
  441SOL    HW3 1763   1.605   0.064   1.320 -0.2857  0.2187 -0.1344
  441SOL    MW4 1764   1.523   0.064   1.349 -0.1731  0.3406  0.1865
  442SOL     OW 1765   3.868   2.804   1.486 -0.1326 -0.7412  0.4285
  442SOL    HW2 1766   3.953   2.763   1.468 -0.3324 -1.1350  0.3650
  442SOL    HW3 1767   3.842   2.769   1.571 -0.0249 -0.2823  0.6449
  442SOL    MW4 1768   3.876   2.794   1.495 -0.1448 -0.7326  0.4487
  443SOL     OW 1769   3.845   0.556   1.802  0.5533  0.1596  0.4661
  443SOL    HW2 1770   3.905   0.516   1.864 -1.4894 -1.3765  1.4994
  443SOL    HW3 1771   3.831   0.645   1.836 -0.9891 -0.8422  2.5713
  443SOL    MW4 1772   3.851   0.563   1.815  0.0803 -0.1753  0.8802
  444SOL     OW 1773   4.128   1.308   1.779  0.2236 -0.0328 -0.5939
  444SOL    HW2 1774   4.067   1.381   1.779  0.9314  0.5602  0.2690
  444SOL    HW3 1775   4.089   1.245   1.719 -1.8109 -0.1288  0.7637
  444SOL    MW4 1776   4.115   1.309   1.771  0.0486  0.0328 -0.3010
  445SOL     OW 1777   1.040   1.643   1.345  0.4775  0.5440  0.1782
  445SOL    HW2 1778   0.966   1.665   1.289  0.5536  0.7990  0.1772
  445SOL    HW3 1779   1.014   1.562   1.389  0.4942  0.2410 -0.3652
  445SOL    MW4 1780   1.027   1.635   1.343  0.4897  0.5377  0.1064
  446SOL     OW 1781   3.060   0.525   0.962  0.5992 -0.2851 -0.0341
  446SOL    HW2 1782   3.035   0.608   1.003  2.0471 -0.1615  0.6270
  446SOL    HW3 1783   3.136   0.495   1.012  0.3836 -1.7798 -0.5692
  446SOL    MW4 1784   3.067   0.532   0.974  0.7618 -0.4660 -0.0175
  447SOL     OW 1785   3.504   3.440   0.454  0.0229  0.2692 -0.1772
  447SOL    HW2 1786   3.564   3.402   0.390  0.0180 -0.8699  0.4780
  447SOL    HW3 1787   3.433   3.377   0.461 -1.0799  1.4261 -0.6574
  447SOL    MW4 1788   3.503   3.427   0.447 -0.1232  0.2716 -0.1541
  448SOL     OW 1789   3.083   3.431   1.167 -0.3765 -0.2024 -0.2348
  448SOL    HW2 1790   3.173   3.398   1.170 -0.0946  0.6510  1.5950
  448SOL    HW3 1791   3.034   3.372   1.223 -0.8990 -0.4930 -0.9994
  448SOL    MW4 1792   3.089   3.419   1.174 -0.4082 -0.1282 -0.0942
  449SOL     OW 1793   3.748   2.813   0.394 -0.0435  0.1899 -0.2913
  449SOL    HW2 1794   3.666   2.765   0.380  0.3850 -0.1431 -1.6634
  449SOL    HW3 1795   3.721   2.904   0.405 -0.6245  0.0249 -0.3503
  449SOL    MW4 1796   3.734   2.819   0.394 -0.0636  0.1242 -0.4801
  450SOL     OW 1797   2.494   1.546   2.233 -0.3190 -0.1525  0.4984
  450SOL    HW2 1798   2.482   1.456   2.202 -1.0161  0.1930 -0.2516
  450SOL    HW3 1799   2.487   1.540   2.328 -1.0382 -0.7938  0.4059
  450SOL    MW4 1800   2.492   1.533   2.242 -0.5059 -0.1915  0.3873
  451SOL     OW 1801   2.672   3.719   1.016  0.2928  0.4452 -0.6689
  451SOL    HW2 1802   2.655   3.764   0.932 -1.9094  0.3566 -0.3003
  451SOL    HW3 1803   2.588   3.677   1.037  1.3942 -1.0994  0.6475
  451SOL    MW4 1804   2.658   3.720   1.007  0.1475  0.2298 -0.4466
  452SOL     OW 1805   2.710   1.218   1.476 -0.0547  0.4513  0.1329
  452SOL    HW2 1806   2.735   1.298   1.523  1.3042  0.7108 -1.0165
  452SOL    HW3 1807   2.642   1.246   1.415 -0.2491  0.5462  0.3935
  452SOL    MW4 1808   2.704   1.232   1.474  0.0989  0.4981  0.0156
  453SOL     OW 1809   2.846   4.580   0.383  0.2029 -0.1624  0.0657
  453SOL    HW2 1810   2.805   4.562   0.467 -0.1707  0.2430 -0.0294
  453SOL    HW3 1811   2.823   4.504   0.329 -1.4606  0.6301 -0.3629
  453SOL    MW4 1812   2.838   4.567   0.387 -0.0659 -0.0043 -0.0034
  454SOL     OW 1813   2.247   4.123   0.447  0.4693 -0.0432  0.3771
  454SOL    HW2 1814   2.281   4.179   0.378  0.4382 -1.3698 -0.7461
  454SOL    HW3 1815   2.306   4.137   0.521  0.7658  1.0665 -0.0667
  454SOL    MW4 1816   2.259   4.132   0.447  0.5043 -0.0718  0.1703
  455SOL     OW 1817   3.046   0.202   0.354 -0.2953  0.3180  0.1592
  455SOL    HW2 1818   3.133   0.239   0.371 -0.1780 -0.3191  0.9602
  455SOL    HW3 1819   3.054   0.110   0.379 -1.0492  0.1298 -0.2813
  455SOL    MW4 1820   3.059   0.195   0.359 -0.3793  0.2091  0.2068
  456SOL     OW 1821   1.392   1.224   0.641  0.5010  0.0022 -0.0376
  456SOL    HW2 1822   1.354   1.233   0.554 -0.6315  0.7904  0.5368
  456SOL    HW3 1823   1.405   1.130   0.652  0.5052 -0.1130 -0.9921
  456SOL    MW4 1824   1.389   1.213   0.631  0.3522  0.0910 -0.0877
  457SOL     OW 1825   3.683   2.515   1.990 -0.3703 -0.2241 -0.4585
  457SOL    HW2 1826   3.673   2.432   2.035  1.5351 -1.2871 -1.9006
  457SOL    HW3 1827   3.769   2.547   2.016 -1.0464  1.2702  0.0196
  457SOL    MW4 1828   3.693   2.508   1.999 -0.2081 -0.1672 -0.5857
  458SOL     OW 1829   0.359   2.590   2.278 -0.3304  0.3489 -0.1993
  458SOL    HW2 1830   0.287   2.652   2.261 -0.1538  0.7887  0.6098
  458SOL    HW3 1831   0.399   2.622   2.359  1.9323  1.1887 -1.5934
  458SOL    MW4 1832   0.355   2.603   2.286 -0.0085  0.5178 -0.2765
  459SOL     OW 1833   4.432   1.018   0.728 -0.2596  0.1471  0.2165
  459SOL    HW2 1834   4.426   1.106   0.766  0.6393 -0.0685  0.8649
  459SOL    HW3 1835   4.465   0.963   0.799  0.5443 -0.4439 -0.5991
  459SOL    MW4 1836   4.435   1.022   0.742 -0.0350  0.0407  0.1945
  460SOL     OW 1837   0.660   2.630   1.403  0.3318 -0.0346 -0.0760
  460SOL    HW2 1838   0.620   2.691   1.342 -1.6680 -0.7860  0.4380
  460SOL    HW3 1839   0.660   2.676   1.487 -0.6048 -0.4926  0.1809
  460SOL    MW4 1840   0.655   2.644   1.406 -0.0556 -0.1941  0.0257
  461SOL     OW 1841   2.545   2.779   1.928  0.0333  0.0907 -0.4195
  461SOL    HW2 1842   2.623   2.834   1.941 -0.3823  0.3910  0.8611
  461SOL    HW3 1843   2.481   2.837   1.888 -0.0464  0.2524 -0.0575
  461SOL    MW4 1844   2.547   2.794   1.925 -0.0321  0.1517 -0.2028
  462SOL     OW 1845   1.174   1.791   1.555 -0.0206 -0.4497  0.0028
  462SOL    HW2 1846   1.135   1.759   1.474 -1.1132  0.3742  0.1785
  462SOL    HW3 1847   1.167   1.718   1.616 -0.5161 -0.5985 -0.2297
  462SOL    MW4 1848   1.168   1.777   1.553 -0.2301 -0.3607 -0.0047
  463SOL     OW 1849   3.485   1.499   1.835 -0.0431  0.1248  0.6678
  463SOL    HW2 1850   3.509   1.491   1.742 -0.3551 -0.2286  0.6165
  463SOL    HW3 1851   3.406   1.446   1.844 -0.3917  0.6966  0.9984
  463SOL    MW4 1852   3.478   1.491   1.824 -0.1303  0.1536  0.7046
  464SOL     OW 1853   3.842   1.974   1.709  0.5214 -0.0605 -0.1384
  464SOL    HW2 1854   3.903   1.913   1.667  1.1081  1.1190 -1.0215
  464SOL    HW3 1855   3.844   1.949   1.802  2.6297  0.1867 -0.0882
  464SOL    MW4 1856   3.850   1.962   1.716  0.8770  0.1277 -0.2483
  465SOL     OW 1857   1.618   2.976   0.668  0.4826  0.0686 -0.0399
  465SOL    HW2 1858   1.662   2.917   0.607  0.5377  1.3971 -1.3013
  465SOL    HW3 1859   1.663   2.962   0.751  1.8905 -0.1162 -0.8264
  465SOL    MW4 1860   1.630   2.966   0.671  0.6756  0.2195 -0.3101
  466SOL     OW 1861   1.901   4.464   1.522 -0.4042  0.5022 -0.0423
  466SOL    HW2 1862   1.917   4.556   1.503 -0.0350  0.8536  1.8817
  466SOL    HW3 1863   1.989   4.425   1.530 -0.5547  0.0816 -0.4190
  466SOL    MW4 1864   1.915   4.471   1.521 -0.3753  0.4931  0.1619
  467SOL     OW 1865   0.620   0.726   2.236 -0.3338  0.2925  0.3481
  467SOL    HW2 1866   0.586   0.639   2.216  0.5525 -0.1707  0.8184
  467SOL    HW3 1867   0.623   0.729   2.332  1.6698  0.0195  0.3208
  467SOL    MW4 1868   0.616   0.715   2.246  0.0475  0.1954  0.4066
  468SOL     OW 1869   4.047   0.205   1.467  0.4414 -0.3375  0.6042
  468SOL    HW2 1870   4.010   0.161   1.391  0.4889 -1.1712  1.0591
  468SOL    HW3 1871   3.972   0.222   1.524  0.3129  0.8549  0.0993
  468SOL    MW4 1872   4.033   0.202   1.465  0.4307 -0.2902  0.5976
  469SOL     OW 1873   1.341   1.492   0.409 -0.4099  0.5381  0.1267
  469SOL    HW2 1874   1.288   1.571   0.419 -1.5497 -0.3272  1.0981
  469SOL    HW3 1875   1.399   1.492   0.486 -0.1792  0.6082 -0.0478
  469SOL    MW4 1876   1.342   1.502   0.421 -0.5299  0.4332  0.2318
  470SOL     OW 1877   3.805   3.572   2.211 -0.5904 -0.1961  0.4729
  470SOL    HW2 1878   3.789   3.569   2.117 -0.8019 -1.0480  0.5350
  470SOL    HW3 1879   3.736   3.518   2.250  0.0691 -0.6363  1.0425
  470SOL    MW4 1880   3.794   3.564   2.204 -0.5313 -0.3666  0.5562
  471SOL     OW 1881   0.660   3.596   2.105  0.1022 -0.4107 -0.2165
  471SOL    HW2 1882   0.688   3.674   2.152 -1.4696  0.1621 -0.2061
  471SOL    HW3 1883   0.639   3.627   2.017  1.1294 -1.1317 -0.7281
  471SOL    MW4 1884   0.660   3.610   2.100  0.0304 -0.4303 -0.2826
  472SOL     OW 1885   0.457   1.171   1.819 -0.4661 -0.7367  0.2534
  472SOL    HW2 1886   0.507   1.096   1.852 -0.4520 -0.7529  0.1953
  472SOL    HW3 1887   0.441   1.151   1.727 -0.3277 -0.5981  0.1975
  472SOL    MW4 1888   0.462   1.159   1.811 -0.4460 -0.7206  0.2383
  473SOL     OW 1889   1.366   2.125   1.836  0.5692 -0.4723 -0.1340
  473SOL    HW2 1890   1.351   2.074   1.756 -1.6389  0.2035 -0.2077
  473SOL    HW3 1891   1.410   2.065   1.895  1.7344 -1.1668 -1.6550
  473SOL    MW4 1892   1.370   2.110   1.833  0.4316 -0.4748 -0.3444
  474SOL     OW 1893   3.281   3.261   0.488 -0.2480 -0.1308  0.2995
  474SOL    HW2 1894   3.277   3.242   0.582 -0.2173 -1.9709 -0.0520
  474SOL    HW3 1895   3.190   3.274   0.462 -0.1039  2.3513  0.9521
  474SOL    MW4 1896   3.269   3.260   0.497 -0.2250 -0.0461  0.3392
  475SOL     OW 1897   1.434   2.740   1.903 -0.2858 -0.3872  0.2230
  475SOL    HW2 1898   1.490   2.673   1.865 -0.2928 -0.0823 -0.3282
  475SOL    HW3 1899   1.368   2.692   1.952  0.1140 -0.7626  0.4001
  475SOL    MW4 1900   1.433   2.725   1.905 -0.2340 -0.3965  0.1737
  476SOL     OW 1901   4.130   2.486   1.990  0.2414  0.2753 -0.7611
  476SOL    HW2 1902   4.142   2.441   1.906  2.4857 -0.4612 -0.0679
  476SOL    HW3 1903   4.184   2.565   1.983  0.8760 -0.0645  0.1821
  476SOL    MW4 1904   4.139   2.491   1.978  0.6212  0.1333 -0.5452
  477SOL     OW 1905   2.266   3.280   1.815 -0.0681  0.1458  0.3001
  477SOL    HW2 1906   2.188   3.265   1.762 -0.6628  1.7682  0.6872
  477SOL    HW3 1907   2.232   3.296   1.904  0.8697 -1.7906  1.0197
  477SOL    MW4 1908   2.251   3.280   1.820 -0.0228  0.1044  0.4461
  478SOL     OW 1909   3.573   1.931   1.672  0.3374 -0.3112 -0.1018
  478SOL    HW2 1910   3.526   2.014   1.669  2.4452  0.8913 -2.2869
  478SOL    HW3 1911   3.665   1.956   1.680  0.9144 -2.4748  0.4192
  478SOL    MW4 1912   3.579   1.945   1.673  0.6916 -0.4380 -0.3214
  479SOL     OW 1913   2.027   3.248   1.692  0.2266  0.0515 -0.1013
  479SOL    HW2 1914   1.984   3.195   1.759  0.4145  1.1680  0.9165
  479SOL    HW3 1915   1.955   3.286   1.642  0.0790 -2.3557 -1.8466
  479SOL    MW4 1916   2.012   3.246   1.695  0.2319 -0.1188 -0.1973
  480SOL     OW 1917   3.404   4.570   1.807  0.1763  0.2630 -0.1937
  480SOL    HW2 1918   3.473   4.603   1.865 -0.0342  0.5080 -0.0801
  480SOL    HW3 1919   3.411   4.475   1.814  1.4556  0.2620 -1.3205
  480SOL    MW4 1920   3.414   4.562   1.816  0.3173  0.2952 -0.3274
  481SOL     OW 1921   1.617   2.093   0.702 -0.2391  0.0433 -0.4482
  481SOL    HW2 1922   1.597   2.038   0.778  0.8907 -0.2550 -0.3456
  481SOL    HW3 1923   1.712   2.084   0.691 -0.2094  1.1043 -1.1106
  481SOL    MW4 1924   1.627   2.084   0.711 -0.0861  0.1440 -0.5221
  482SOL     OW 1925   3.843   1.128   2.166 -0.3887 -0.1937  0.2057
  482SOL    HW2 1926   3.927   1.165   2.190 -0.3669 -0.4464  0.5283
  482SOL    HW3 1927   3.834   1.146   2.073 -0.2240  0.3113  0.2873
  482SOL    MW4 1928   3.853   1.135   2.157 -0.3641 -0.1604  0.2590
  483SOL     OW 1929   3.249   2.369   1.410 -0.2615  0.4133  0.0111
  483SOL    HW2 1930   3.162   2.331   1.421 -0.5921  1.1810  0.0673
  483SOL    HW3 1931   3.276   2.395   1.498  0.5547 -0.9471  0.1833
  483SOL    MW4 1932   3.241   2.368   1.423 -0.1975  0.3351  0.0412
  484SOL     OW 1933   3.258   3.233   0.755 -0.7606 -0.0283  0.1102
  484SOL    HW2 1934   3.325   3.210   0.820 -1.0147 -1.1012 -0.0054
  484SOL    HW3 1935   3.205   3.300   0.798  1.4199  2.1206 -0.4153
  484SOL    MW4 1936   3.260   3.239   0.770 -0.5064  0.1137  0.0256
  485SOL     OW 1937   2.769   3.471   0.916  0.2095  0.5583  0.4210
  485SOL    HW2 1938   2.823   3.499   0.842 -0.6573  1.3260  0.0666
  485SOL    HW3 1939   2.734   3.552   0.953 -0.8652  0.0696  0.5164
  485SOL    MW4 1940   2.771   3.485   0.911 -0.0467  0.5951  0.3868
  486SOL     OW 1941   3.317   0.138   0.688  0.0252 -0.1587 -0.1491
  486SOL    HW2 1942   3.284   0.051   0.669  1.0297 -0.5648 -0.0990
  486SOL    HW3 1943   3.412   0.127   0.693  0.0998  0.7739  0.7118
  486SOL    MW4 1944   3.325   0.125   0.686  0.1675 -0.0893 -0.0289
  487SOL     OW 1945   1.917   1.700   0.343 -0.0208  0.4901 -0.2636
  487SOL    HW2 1946   1.859   1.667   0.274  0.1205 -0.5852  0.1297
  487SOL    HW3 1947   1.908   1.796   0.338 -0.6686  0.3840 -1.2016
  487SOL    MW4 1948   1.908   1.709   0.333 -0.0876  0.3343 -0.3354
  488SOL     OW 1949   1.154   2.745   1.046  0.2584  0.2138  0.1809
  488SOL    HW2 1950   1.171   2.706   0.961 -0.2102 -0.8053  0.5480
  488SOL    HW3 1951   1.060   2.735   1.059  0.1988  1.0798  0.4735
  488SOL    MW4 1952   1.144   2.739   1.037  0.1887  0.1936  0.2679
  489SOL     OW 1953   3.511   1.734   1.454  0.1979  0.0998 -0.1924
  489SOL    HW2 1954   3.545   1.793   1.521 -0.7759 -0.1868  0.5618
  489SOL    HW3 1955   3.423   1.766   1.436  1.2445  1.5408 -2.9832
  489SOL    MW4 1956   3.504   1.746   1.460  0.2075  0.2521 -0.4611
  490SOL     OW 1957   3.734   0.439   1.088  0.2909 -0.0979  0.0389
  490SOL    HW2 1958   3.703   0.441   1.178  0.4859 -1.0472  0.1249
  490SOL    HW3 1959   3.779   0.523   1.077 -0.9601  0.6247  0.3853
  490SOL    MW4 1960   3.736   0.451   1.098  0.1516 -0.1278  0.0960
  491SOL     OW 1961   1.047   3.321   1.246 -0.8374  0.0170  0.0617
  491SOL    HW2 1962   1.057   3.246   1.305 -0.5391  0.4217  0.5270
  491SOL    HW3 1963   0.965   3.303   1.199 -1.3931 -0.0212  1.0153
  491SOL    MW4 1964   1.037   3.309   1.247 -0.8714  0.0654  0.2489
  492SOL     OW 1965   1.531   2.829   2.174  0.0591 -0.1808 -0.5254
  492SOL    HW2 1966   1.511   2.830   2.080 -0.4698  0.5883 -0.4116
  492SOL    HW3 1967   1.449   2.803   2.215  0.2392 -0.3288 -0.2603
  492SOL    MW4 1968   1.518   2.825   2.167  0.0131 -0.0989 -0.4754
  493SOL     OW 1969   2.093   0.991   1.868  0.0160  0.2040  0.4437
  493SOL    HW2 1970   2.106   0.898   1.848  0.0862  0.1324  0.8226
  493SOL    HW3 1971   2.000   1.006   1.848 -0.0421  0.0093  0.5614
  493SOL    MW4 1972   2.082   0.980   1.862  0.0176  0.1689  0.5092
  494SOL     OW 1973   2.703   2.687   2.305 -0.1787  0.5690 -0.1137
  494SOL    HW2 1974   2.639   2.733   2.250 -1.3952 -1.4276 -0.4312
  494SOL    HW3 1975   2.788   2.715   2.271 -0.8717  2.8251 -0.0703
  494SOL    MW4 1976   2.706   2.697   2.293 -0.4306  0.6032 -0.1498
  495SOL     OW 1977   3.801   2.724   1.746  0.0248  0.2426  0.1577
  495SOL    HW2 1978   3.810   2.786   1.818  1.4978 -0.7209  0.8211
  495SOL    HW3 1979   3.707   2.720   1.730 -0.2806  0.7817  1.7433
  495SOL    MW4 1980   3.790   2.732   1.753  0.1788  0.1866  0.4544
  496SOL     OW 1981   3.854   0.506   1.542 -0.0831  0.1746  0.3934
  496SOL    HW2 1982   3.879   0.525   1.632  1.7071  0.1477 -0.0730
  496SOL    HW3 1983   3.927   0.538   1.490 -0.6259 -0.7603 -0.9827
  496SOL    MW4 1984   3.867   0.513   1.547  0.0815  0.0477  0.1503
  497SOL     OW 1985   2.357   3.030   1.887  0.4689  0.4009  0.2649
  497SOL    HW2 1986   2.347   3.098   1.821 -1.2088 -0.1950 -0.1316
  497SOL    HW3 1987   2.332   3.072   1.969 -0.5470  0.2925  0.0239
  497SOL    MW4 1988   2.352   3.044   1.889  0.1135  0.3080  0.1808
  498SOL     OW 1989   0.475   4.341   1.611  0.2279  0.4224 -0.4251
  498SOL    HW2 1990   0.450   4.261   1.657  1.0690  0.0247 -0.6308
  498SOL    HW3 1991   0.505   4.400   1.681 -0.5335  0.6189 -0.2581
  498SOL    MW4 1992   0.476   4.338   1.627  0.2384  0.3958 -0.4302
  499SOL     OW 1993   1.177   4.637   0.580 -0.3896 -0.1079  0.1924
  499SOL    HW2 1994   1.212   4.588   0.505  0.8377 -0.6457  1.0977
  499SOL    HW3 1995   1.103   4.585   0.611 -0.5784 -0.1519 -0.3244
  499SOL    MW4 1996   1.172   4.624   0.574 -0.2526 -0.1847  0.2437
  500SOL     OW 1997   4.299   1.388   1.480 -0.4518  0.2901  0.3402
  500SOL    HW2 1998   4.301   1.458   1.415  1.3981  0.6049  0.7097
  500SOL    HW3 1999   4.302   1.434   1.564  0.0455 -0.1911  0.5934
  500SOL    MW4 2000   4.300   1.403   1.483 -0.1421  0.2682  0.4223
  501SOL     OW 2001   0.899   0.639   0.425  0.4381 -0.2635  0.3756
  501SOL    HW2 2002   0.923   0.595   0.344 -0.4791  0.9413 -0.5751
  501SOL    HW3 2003   0.981   0.644   0.475  1.1388 -0.4525 -0.7470
  501SOL    MW4 2004   0.913   0.634   0.421  0.4096 -0.1295  0.1020
  502SOL     OW 2005   3.652   0.434   1.360 -0.2963 -0.3175 -0.1503
  502SOL    HW2 2006   3.570   0.479   1.379  0.5156  0.3300  1.9213
  502SOL    HW3 2007   3.711   0.460   1.430  1.7041 -0.7644 -1.6064
  502SOL    MW4 2008   3.649   0.444   1.372  0.0748 -0.2910 -0.0691
  503SOL     OW 2009   0.546   1.060   0.538 -0.0063 -0.1451 -0.3552
  503SOL    HW2 2010   0.609   1.110   0.486  0.1622 -1.3956 -1.3740
  503SOL    HW3 2011   0.462   1.104   0.524  0.4258  0.7996  0.0325
  503SOL    MW4 2012   0.543   1.072   0.529  0.0730 -0.1855 -0.4384
  504SOL     OW 2013   2.404   2.954   1.343  0.3432 -0.2497 -0.0633
  504SOL    HW2 2014   2.425   2.863   1.361 -0.4683 -0.9831 -2.6417
  504SOL    HW3 2015   2.483   2.989   1.302  0.0361 -0.2732 -0.6736
  504SOL    MW4 2016   2.417   2.947   1.340  0.1956 -0.3496 -0.4840
  505SOL     OW 2017   2.925   3.860   0.763 -0.2498  0.2810 -0.1967
  505SOL    HW2 2018   2.936   3.931   0.700  0.2042 -0.0946 -0.5444
  505SOL    HW3 2019   2.952   3.898   0.847  0.5255  0.3614 -0.4762
  505SOL    MW4 2020   2.930   3.875   0.766 -0.0876  0.2421 -0.2794
  506SOL     OW 2021   3.959   3.241   1.435 -0.1722 -0.1623 -0.6617
  506SOL    HW2 2022   4.046   3.280   1.432 -0.3382  0.3699  0.7553
  506SOL    HW3 2023   3.918   3.265   1.352  0.0901  1.8570 -0.2193
  506SOL    MW4 2024   3.965   3.249   1.424 -0.1595  0.1744 -0.4163
  507SOL     OW 2025   1.306   2.647   1.436 -0.0450 -0.2574  0.2847
  507SOL    HW2 2026   1.275   2.737   1.444  1.1765  0.3058 -1.0493
  507SOL    HW3 2027   1.272   2.603   1.513 -2.4033  0.8271 -0.0852
  507SOL    MW4 2028   1.297   2.653   1.447 -0.1950 -0.0400  0.0599
  508SOL     OW 2029   2.683   0.685   0.523  0.4637 -0.0477  0.5836
  508SOL    HW2 2030   2.774   0.658   0.513  0.6758  1.3944 -1.7424
  508SOL    HW3 2031   2.686   0.781   0.519 -1.0633  0.0511  1.3880
  508SOL    MW4 2032   2.696   0.694   0.521  0.2902  0.1556  0.3828
  509SOL     OW 2033   1.052   2.757   1.676  0.1329 -0.3533  0.3868
  509SOL    HW2 2034   1.012   2.800   1.752  0.2573 -0.9760  0.8047
  509SOL    HW3 2035   1.093   2.829   1.627  0.8561 -0.0665  1.4006
  509SOL    MW4 2036   1.052   2.772   1.679  0.2447 -0.3976  0.5757
  510SOL     OW 2037   3.695   1.110   1.249  0.0831 -0.5362 -0.2825
  510SOL    HW2 2038   3.756   1.184   1.245 -1.6612  0.9126 -0.9241
  510SOL    HW3 2039   3.658   1.115   1.337 -0.0205 -0.6554 -0.3194
  510SOL    MW4 2040   3.698   1.120   1.260 -0.1607 -0.3608 -0.3720
  511SOL     OW 2041   2.402   0.360   1.198  0.2637 -0.2392 -0.6604
  511SOL    HW2 2042   2.312   0.327   1.197  1.4071 -3.6092  0.8392
  511SOL    HW3 2043   2.450   0.300   1.143  2.2562 -0.5349  1.3305
  511SOL    MW4 2044   2.396   0.348   1.191  0.6775 -0.7228 -0.1999
  512SOL     OW 2045   2.122   1.182   0.475 -0.2557  0.0539  0.0875
  512SOL    HW2 2046   2.197   1.128   0.499 -1.4880 -1.1330  1.3512
  512SOL    HW3 2047   2.151   1.272   0.492  0.1963 -0.5221  2.5784
  512SOL    MW4 2048   2.136   1.187   0.481 -0.3586 -0.1787  0.5829
  513SOL     OW 2049   3.901   0.018   0.828 -0.2382 -0.3341  0.2036
  513SOL    HW2 2050   3.834  -0.009   0.890 -0.8609  1.2213  0.2263
  513SOL    HW3 2051   3.958   0.077   0.878 -0.8159  1.0293 -0.7143
  513SOL    MW4 2052   3.900   0.022   0.843 -0.3966  0.0510  0.0855
  514SOL     OW 2053   4.187   0.325   0.080  0.2915  0.2718  0.5434
  514SOL    HW2 2054   4.252   0.356   0.143  0.7508 -0.8988  0.6672
  514SOL    HW3 2055   4.218   0.357  -0.005  0.2678  0.9151  0.7767
  514SOL    MW4 2056   4.200   0.333   0.077  0.3490  0.2023  0.5905
  515SOL     OW 2057   3.145   2.099   0.737 -0.3036 -0.0824  0.4108
  515SOL    HW2 2058   3.136   2.095   0.832  0.2260  1.8639  0.5590
  515SOL    HW3 2059   3.155   2.007   0.710 -1.7235 -0.7475  2.0843
  515SOL    MW4 2060   3.145   2.086   0.746 -0.4210  0.0867  0.6511
  516SOL     OW 2061   0.183   1.251   1.424  0.1507 -0.1125 -0.2332
  516SOL    HW2 2062   0.190   1.195   1.346 -1.1627 -0.9754  0.2497
  516SOL    HW3 2063   0.107   1.217   1.471  0.0881  1.2990  0.7136
  516SOL    MW4 2064   0.174   1.239   1.420 -0.0309 -0.0401 -0.0446
  517SOL     OW 2065   0.490   4.168   0.491 -0.0097  0.1651  0.0514
  517SOL    HW2 2066   0.478   4.217   0.410 -0.4090 -0.0867 -0.0450
  517SOL    HW3 2067   0.585   4.167   0.505 -0.0381  1.5830  0.4467
  517SOL    MW4 2068   0.501   4.174   0.482 -0.0661  0.3189  0.0908
  518SOL     OW 2069   0.477   3.464   2.260  0.3707  0.2174  0.0979
  518SOL    HW2 2070   0.547   3.518   2.223 -0.2337  0.7493 -0.2731
  518SOL    HW3 2071   0.397   3.509   2.235 -0.1975 -1.4914 -1.2472
  518SOL    MW4 2072   0.476   3.477   2.252  0.2160  0.0621 -0.1285
  519SOL     OW 2073   2.951   4.441   1.345 -0.6673 -0.1015  0.1275
  519SOL    HW2 2074   2.992   4.523   1.374  1.0628 -0.1901 -1.9409
  519SOL    HW3 2075   3.008   4.409   1.275 -1.0684 -3.3530  1.2282
  519SOL    MW4 2076   2.964   4.448   1.339 -0.4919 -0.5422 -0.0001
  520SOL     OW 2077   2.183   4.520   0.638 -0.4064  0.3935 -0.2572
  520SOL    HW2 2078   2.093   4.488   0.637 -0.9685  1.9582 -0.8407
  520SOL    HW3 2079   2.186   4.582   0.711 -0.0429  1.0063 -0.7845
  520SOL    MW4 2080   2.172   4.524   0.647 -0.4326  0.6808 -0.4038
  521SOL     OW 2081   1.566   0.776   2.254  0.4867 -0.1131 -0.0300
  521SOL    HW2 2082   1.494   0.835   2.233  0.4454 -0.0576  0.2668
  521SOL    HW3 2083   1.644   0.832   2.256  0.3830  0.0084  0.6845
  521SOL    MW4 2084   1.567   0.791   2.252  0.4676 -0.0898  0.1034
  522SOL     OW 2085   4.023   2.967   1.823 -0.2902  0.0825  0.5243
  522SOL    HW2 2086   4.046   3.049   1.866  2.0261 -0.0702 -0.3218
  522SOL    HW3 2087   3.986   2.994   1.739  0.4830  0.2974  0.2395
  522SOL    MW4 2088   4.021   2.981   1.817  0.1174  0.0907  0.3751
  523SOL     OW 2089   0.740   0.389   1.588  0.2587 -0.2063 -0.0283
  523SOL    HW2 2090   0.666   0.338   1.622  0.3947  0.2006  0.8929
  523SOL    HW3 2091   0.719   0.403   1.496 -1.3405  0.8128  0.4609
  523SOL    MW4 2092   0.728   0.384   1.580  0.0656 -0.0182  0.1578
  524SOL     OW 2093   3.495   2.674   1.695 -0.5553 -0.0739 -0.1880
  524SOL    HW2 2094   3.485   2.753   1.748 -1.2438 -0.8020  0.7864
  524SOL    HW3 2095   3.469   2.701   1.607 -1.4298  0.6216  0.2692
  524SOL    MW4 2096   3.491   2.688   1.690 -0.7615 -0.0782  0.0009
  525SOL     OW 2097   2.227   1.640   2.204 -0.5062 -0.2563  0.2993
  525SOL    HW2 2098   2.309   1.590   2.200  0.0301  0.7263 -1.4785
  525SOL    HW3 2099   2.162   1.576   2.233  0.4271 -1.6670 -0.6272
  525SOL    MW4 2100   2.229   1.625   2.207 -0.3123 -0.3128 -0.0575
  526SOL     OW 2101   0.661   4.140   1.473 -0.0944  0.1673 -0.1484
  526SOL    HW2 2102   0.614   4.204   1.527 -0.1618 -0.6553  0.7874
  526SOL    HW3 2103   0.675   4.066   1.532  2.2075  0.3278 -0.4730
  526SOL    MW4 2104   0.657   4.139   1.488  0.2004  0.0800 -0.0677
  527SOL     OW 2105   3.844   3.702   0.945  0.3198  0.1512  0.3151
  527SOL    HW2 2106   3.905   3.763   0.903 -0.1763  0.1816 -0.3633
  527SOL    HW3 2107   3.894   3.620   0.953  0.0329 -0.2181 -1.4404
  527SOL    MW4 2108   3.859   3.699   0.941  0.2165  0.1065 -0.0060
  528SOL     OW 2109   3.949   0.665   1.033 -0.3893  0.3138  0.6670
  528SOL    HW2 2110   3.978   0.749   0.998 -0.4498  0.3743  0.7644
  528SOL    HW3 2111   3.964   0.671   1.127 -0.4120  0.2230  0.6768
  528SOL    MW4 2112   3.955   0.677   1.041 -0.4003  0.3098  0.6812
  529SOL     OW 2113   4.180   3.252   0.581  0.3382  0.4473 -0.2357
  529SOL    HW2 2114   4.138   3.325   0.537 -0.7084 -0.2891 -0.4917
  529SOL    HW3 2115   4.264   3.286   0.610  0.4281  1.3624 -1.5202
  529SOL    MW4 2116   4.186   3.266   0.579  0.2120  0.4709 -0.4389
  530SOL     OW 2117   2.831   4.205   1.392  0.0204  0.0770 -0.5632
  530SOL    HW2 2118   2.877   4.289   1.389 -0.2106  0.2358  0.2724
  530SOL    HW3 2119   2.748   4.225   1.436 -0.6647 -0.2953 -1.6616
  530SOL    MW4 2120   2.826   4.219   1.397 -0.1004  0.0489 -0.5979
  531SOL     OW 2121   4.266   3.321   1.037  0.3359  0.7703 -0.4370
  531SOL    HW2 2122   4.336   3.279   0.987  1.0025 -0.7987  1.6895
  531SOL    HW3 2123   4.306   3.341   1.122 -0.7249  3.3954 -0.5158
  531SOL    MW4 2124   4.280   3.318   1.042  0.2839  0.9096 -0.1668
  532SOL     OW 2125   2.203   1.146   2.244 -0.5280  0.3174 -0.4957
  532SOL    HW2 2126   2.205   1.060   2.203  1.5780 -0.1357  0.4763
  532SOL    HW3 2127   2.288   1.185   2.222 -0.6008  1.2869  0.8688
  532SOL    MW4 2128   2.214   1.140   2.235 -0.2597  0.3855 -0.1875
  533SOL     OW 2129   4.465   4.199   2.276 -0.0606  0.1544  0.4566
  533SOL    HW2 2130   4.481   4.211   2.370  0.8912  1.5538  0.1284
  533SOL    HW3 2131   4.397   4.262   2.255 -1.1434 -1.0042  0.4393
  533SOL    MW4 2132   4.458   4.209   2.286 -0.0779  0.1862  0.4110
  534SOL     OW 2133   3.623   1.463   0.969  0.3268  0.0647  0.2112
  534SOL    HW2 2134   3.660   1.377   0.952 -1.3585 -0.5631 -0.4491
  534SOL    HW3 2135   3.620   1.470   1.065  1.3088 -0.2249  0.2637
  534SOL    MW4 2136   3.627   1.453   0.979  0.2340 -0.0564  0.1310
  535SOL     OW 2137   0.109   1.911   1.806 -0.4873 -0.2080 -0.0520
  535SOL    HW2 2138   0.102   1.995   1.851 -2.6317 -0.7866  0.7524
  535SOL    HW3 2139   0.020   1.878   1.802  0.1962 -1.9915 -1.2563
  535SOL    MW4 2140   0.097   1.918   1.812 -0.6800 -0.5196 -0.1048
  536SOL     OW 2141   0.746   1.821   0.853 -0.3561  0.9969  0.1198
  536SOL    HW2 2142   0.762   1.801   0.761  1.2574  0.4478  0.5014
  536SOL    HW3 2143   0.762   1.738   0.898 -0.0752  1.5349  1.0104
  536SOL    MW4 2144   0.750   1.807   0.847 -0.1062  0.9954  0.2877
  537SOL     OW 2145   0.555   4.498   1.845  0.2558  0.3486  0.2758
  537SOL    HW2 2146   0.599   4.449   1.915 -0.8421 -0.2417  0.5561
  537SOL    HW3 2147   0.482   4.542   1.888 -0.8211 -0.5450 -0.5933
  537SOL    MW4 2148   0.551   4.497   1.860 -0.0311  0.1528  0.1981
  538SOL     OW 2149   0.189   4.213   1.918 -0.2898 -0.1381 -0.2425
  538SOL    HW2 2150   0.182   4.292   1.864  1.3390 -0.3455 -0.7813
  538SOL    HW3 2151   0.200   4.245   2.007  0.2823  0.2417 -0.4506
  538SOL    MW4 2152   0.190   4.228   1.922  0.0006 -0.1154 -0.3410
  539SOL     OW 2153   1.546   0.541   0.725  0.0960  0.0259 -0.6385
  539SOL    HW2 2154   1.516   0.609   0.785 -1.5014  0.0417 -1.4437
  539SOL    HW3 2155   1.503   0.461   0.756  0.3710 -0.2345 -0.9203
  539SOL    MW4 2156   1.537   0.539   0.737 -0.0785 -0.0064 -0.7819
  540SOL     OW 2157   1.003   1.602   0.576  0.4572 -0.3173 -0.5331
  540SOL    HW2 2158   1.061   1.649   0.516 -0.3692  0.1681 -0.9679
  540SOL    HW3 2159   0.921   1.650   0.572  0.4247 -0.2167  1.0894
  540SOL    MW4 2160   1.000   1.614   0.568  0.3439 -0.2400 -0.3764
  541SOL     OW 2161   1.450   3.888   0.816  0.1716  0.1929 -0.6952
  541SOL    HW2 2162   1.523   3.860   0.872  0.4509  0.8646 -0.7146
  541SOL    HW3 2163   1.399   3.946   0.871 -0.3178 -0.2266 -0.7061
  541SOL    MW4 2164   1.453   3.892   0.830  0.1439  0.2262 -0.6992
  542SOL     OW 2165   0.793   2.970   0.244 -0.1484  0.3491 -0.2260
  542SOL    HW2 2166   0.742   3.049   0.264  0.4260  0.7361 -0.2971
  542SOL    HW3 2167   0.774   2.910   0.316 -0.9160  0.3927 -0.3870
  542SOL    MW4 2168   0.784   2.973   0.256 -0.1739  0.4059 -0.2567
  543SOL     OW 2169   0.611   2.548   0.681 -0.2420  0.3426 -0.4847
  543SOL    HW2 2170   0.675   2.496   0.730  1.3728  2.3741 -0.3201
  543SOL    HW3 2171   0.537   2.490   0.667  0.4743 -1.1897  1.8613
  543SOL    MW4 2172   0.610   2.534   0.686  0.0656  0.4085 -0.1534
  544SOL     OW 2173   1.012   1.603   0.853 -0.2366  0.0229 -0.2574
  544SOL    HW2 2174   1.086   1.550   0.882 -0.7748 -0.0804  0.9735
  544SOL    HW3 2175   1.031   1.624   0.762  0.6373 -1.1438 -0.3484
  544SOL    MW4 2176   1.024   1.599   0.845 -0.1923 -0.1447 -0.1070
  545SOL     OW 2177   0.236   3.095   0.825  0.0442 -0.1870  0.0207
  545SOL    HW2 2178   0.212   3.013   0.869  0.4302 -1.1515 -1.5390
  545SOL    HW3 2179   0.153   3.143   0.817 -0.0572 -0.0654  1.6343
  545SOL    MW4 2180   0.222   3.091   0.830  0.0817 -0.2982  0.0278
  546SOL     OW 2181   3.649   3.298   0.799 -0.2989 -1.0467  0.1276
  546SOL    HW2 2182   3.687   3.318   0.885 -1.9849 -0.0744  0.6677
  546SOL    HW3 2183   3.663   3.378   0.748 -1.9276 -0.5333  0.4558
  546SOL    MW4 2184   3.656   3.311   0.803 -0.7363 -0.8507  0.2422
  547SOL     OW 2185   3.905   3.872   0.434  0.0393 -0.3720  0.0508
  547SOL    HW2 2186   3.908   3.968   0.429 -0.7640 -0.4032 -1.0371
  547SOL    HW3 2187   3.970   3.843   0.370  0.5006 -0.5568  0.5982
  547SOL    MW4 2188   3.914   3.881   0.425 -0.0058 -0.4005 -0.0205
  548SOL     OW 2189   2.389   2.529   0.711 -0.7513  0.0363  0.2018
  548SOL    HW2 2190   2.295   2.523   0.696 -1.0214 -0.3683  2.0316
  548SOL    HW3 2191   2.400   2.519   0.805  1.2587 -1.7129 -0.1797
  548SOL    MW4 2192   2.378   2.527   0.721 -0.5218 -0.2479  0.3929
  549SOL     OW 2193   0.140   4.205   0.395 -0.2644 -0.0632  0.3766
  549SOL    HW2 2194   0.218   4.247   0.359  0.7415 -1.9229  0.3187
  549SOL    HW3 2195   0.104   4.155   0.322  0.1486 -1.5212  1.1410
  549SOL    MW4 2196   0.146   4.204   0.380 -0.0772 -0.5010  0.4698
  550SOL     OW 2197   3.370   1.431   1.332  0.4047  0.3931  0.2342
  550SOL    HW2 2198   3.294   1.488   1.337  0.6175  0.7552 -0.5527
  550SOL    HW3 2199   3.336   1.348   1.299  0.1522  0.1654  1.0581
  550SOL    MW4 2200   3.356   1.427   1.328  0.3995  0.4109  0.2391
  551SOL     OW 2201   0.480   1.453   0.331  0.3487 -0.0575 -0.2358
  551SOL    HW2 2202   0.468   1.366   0.369  2.1597 -0.2069  0.0273
  551SOL    HW3 2203   0.540   1.440   0.258 -0.2541  0.8007 -0.8913
  551SOL    MW4 2204   0.486   1.440   0.326  0.5081  0.0360 -0.2876
  552SOL     OW 2205   0.292   1.290   0.784 -0.3578 -0.3796 -0.1024
  552SOL    HW2 2206   0.303   1.275   0.878 -0.5303 -1.1051 -0.1970
  552SOL    HW3 2207   0.224   1.357   0.779 -0.8795 -0.8731  0.2714
  552SOL    MW4 2208   0.284   1.297   0.796 -0.4494 -0.5405 -0.0656
  553SOL     OW 2209   0.586   1.000   1.018 -0.0526 -0.0046 -0.0630
  553SOL    HW2 2210   0.634   1.039   0.944  1.1609  0.9143  1.1760
  553SOL    HW3 2211   0.561   1.075   1.072  1.1189 -0.8103  1.6459
  553SOL    MW4 2212   0.589   1.015   1.015  0.2621  0.0103  0.3260
  554SOL     OW 2213   0.923   2.956   1.284  0.2566  0.4605 -0.2591
  554SOL    HW2 2214   0.917   2.861   1.295 -1.0244  0.5753  0.0944
  554SOL    HW3 2215   0.869   2.975   1.207  1.8149  0.7257 -1.3029
  554SOL    MW4 2216   0.915   2.946   1.275  0.2932  0.5107 -0.3502
  555SOL     OW 2217   3.237   0.317   1.347  0.2645  0.9721  0.0745
  555SOL    HW2 2218   3.261   0.347   1.259  1.2031 -1.9067 -0.7017
  555SOL    HW3 2219   3.321   0.291   1.386 -0.5664 -1.2602  0.4256
  555SOL    MW4 2220   3.251   0.317   1.340  0.2787  0.2978  0.0184
  556SOL     OW 2221   1.023   2.362   1.919 -0.1713 -0.0092  0.0464
  556SOL    HW2 2222   1.047   2.270   1.910  0.1040 -0.1868  2.3997
  556SOL    HW3 2223   0.956   2.376   1.852  1.3681 -1.3314 -1.8086
  556SOL    MW4 2224   1.017   2.352   1.909  0.0681 -0.2071  0.1122
  557SOL     OW 2225   2.442   1.271   2.175  0.4731  0.0988 -0.0276
  557SOL    HW2 2226   2.494   1.282   2.095  2.2740  2.3535  1.3568
  557SOL    HW3 2227   2.501   1.226   2.235  1.2249  3.3442  1.8094
  557SOL    MW4 2228   2.457   1.267   2.172  0.8099  0.8245  0.3974
  558SOL     OW 2229   2.031   3.785   1.026  0.1081  0.2675 -0.1762
  558SOL    HW2 2230   1.969   3.774   1.097  0.7773  1.5922  0.6403
  558SOL    HW3 2231   1.982   3.828   0.957  0.2360  1.7746  0.6597
  558SOL    MW4 2232   2.017   3.789   1.026  0.2133  0.6411  0.0418
  559SOL     OW 2233   2.233   2.508   1.779 -0.1211  0.0024  0.0163
  559SOL    HW2 2234   2.278   2.450   1.842 -2.9097 -1.6336  0.6147
  559SOL    HW3 2235   2.241   2.595   1.817 -0.6617 -0.7932  2.0482
  559SOL    MW4 2236   2.240   2.512   1.793 -0.5603 -0.3184  0.3633
  560SOL     OW 2237   2.016   2.805   2.216 -0.3248  0.2744 -0.0449
  560SOL    HW2 2238   2.046   2.799   2.126  0.1457 -1.7547  0.2157
  560SOL    HW3 2239   1.921   2.790   2.211 -0.7548  2.8917 -0.4613
  560SOL    MW4 2240   2.007   2.802   2.204 -0.3194  0.3520 -0.0655
  561SOL     OW 2241   3.444   3.176   0.942 -0.1755 -0.6190  0.4487
  561SOL    HW2 2242   3.516   3.213   0.891 -1.8609  0.6064 -1.0850
  561SOL    HW3 2243   3.474   3.088   0.965  1.9706  0.0209  0.2037
  561SOL    MW4 2244   3.458   3.169   0.938 -0.1147 -0.3729  0.2140
  562SOL     OW 2245   2.241   1.053   0.816 -0.1223  0.1425  0.3247
  562SOL    HW2 2246   2.295   1.131   0.830 -1.9275  1.7027 -1.0985
  562SOL    HW3 2247   2.253   1.032   0.723 -0.0579 -0.9747  0.5827
  562SOL    MW4 2248   2.250   1.061   0.806 -0.3520  0.2010  0.1710
  563SOL     OW 2249   3.040   0.775   1.079 -0.1093  0.0811 -0.1617
  563SOL    HW2 2250   2.988   0.776   1.159 -0.9510  1.1647 -0.7228
  563SOL    HW3 2251   3.129   0.797   1.108 -0.6069  1.4614  0.3267
  563SOL    MW4 2252   3.045   0.778   1.094 -0.2860  0.4062 -0.1713
  564SOL     OW 2253   0.820   1.625   0.311 -0.0881  0.2437  0.3001
  564SOL    HW2 2254   0.787   1.617   0.401  0.4696  1.5723  0.6299
  564SOL    HW3 2255   0.815   1.536   0.276 -1.3355 -0.0909  1.2887
  564SOL    MW4 2256   0.815   1.612   0.318 -0.1791  0.3749  0.4740
  565SOL     OW 2257   3.634   2.432   1.744  0.2377  0.3507 -0.0035
  565SOL    HW2 2258   3.622   2.510   1.690 -1.4700  1.7791  2.3535
  565SOL    HW3 2259   3.645   2.465   1.833 -1.4813 -2.1007  1.2029
  565SOL    MW4 2260   3.634   2.446   1.749 -0.2144  0.2157  0.4667
  566SOL     OW 2261   4.436   2.575   0.559 -0.0322 -0.1889  0.3577
  566SOL    HW2 2262   4.490   2.653   0.569 -1.0329  0.6233 -0.5223
  566SOL    HW3 2263   4.499   2.505   0.542  0.7023  0.8829 -1.4767
  566SOL    MW4 2264   4.451   2.576   0.558 -0.0673  0.0597 -0.0004
  567SOL     OW 2265   3.190   0.866   2.161  0.0550 -0.1124  0.0548
  567SOL    HW2 2266   3.244   0.825   2.229  0.9122 -1.2437 -1.2641
  567SOL    HW3 2267   3.106   0.822   2.167  0.5986 -1.2694 -0.5644
  567SOL    MW4 2268   3.186   0.855   2.171  0.2398 -0.4143 -0.2009
  568SOL     OW 2269   1.200   2.589   0.832  0.2887  0.0593  0.4104
  568SOL    HW2 2270   1.133   2.521   0.829  0.2015  0.1510  0.2782
  568SOL    HW3 2271   1.209   2.617   0.741  0.2998  0.2464  0.4697
  568SOL    MW4 2272   1.192   2.584   0.820  0.2786  0.0961  0.4008
  569SOL     OW 2273   3.802   2.013   1.990 -0.1186 -0.1797  0.1360
  569SOL    HW2 2274   3.791   1.942   2.054 -0.0446  0.0986  0.4614
  569SOL    HW3 2275   3.721   2.063   1.996  0.2315  0.3372  0.6278
  569SOL    MW4 2276   3.790   2.010   2.000 -0.0627 -0.0748  0.2439
  570SOL     OW 2277   1.953   0.698   1.208 -0.2550  0.2796 -0.1012
  570SOL    HW2 2278   1.926   0.721   1.119  1.1209 -0.2974 -0.6741
  570SOL    HW3 2279   2.048   0.707   1.208 -0.2738  0.8081  1.4752
  570SOL    MW4 2280   1.962   0.702   1.197 -0.0759  0.2732  0.0312
  571SOL     OW 2281   4.251   2.914   1.198 -0.3936  0.2243  0.0248
  571SOL    HW2 2282   4.274   2.882   1.111 -0.1242  0.5818 -0.0370
  571SOL    HW3 2283   4.158   2.936   1.193 -0.7551 -1.2231  0.2717
  571SOL    MW4 2284   4.242   2.913   1.186 -0.4057  0.0805  0.0492
  572SOL     OW 2285   1.281   1.432   1.450 -0.6324 -0.4495 -0.0009
  572SOL    HW2 2286   1.307   1.354   1.499 -1.2181 -0.5819  0.0985
  572SOL    HW3 2287   1.358   1.490   1.455 -0.3139 -0.8836  0.1939
  572SOL    MW4 2288   1.295   1.429   1.457 -0.6677 -0.5242  0.0379
  573SOL     OW 2289   1.819   0.375   2.307  0.0691  0.0563 -0.7081
  573SOL    HW2 2290   1.746   0.426   2.271  0.5754 -0.2491 -2.2236
  573SOL    HW3 2291   1.897   0.423   2.281  0.4714 -0.4037 -0.3627
  573SOL    MW4 2292   1.819   0.388   2.299  0.1890 -0.0447 -0.8625
  574SOL     OW 2293   0.480   1.505   1.280  0.2648 -0.1074 -0.0867
  574SOL    HW2 2294   0.416   1.497   1.350 -1.1543 -0.5671 -1.4018
  574SOL    HW3 2295   0.460   1.588   1.237  0.3306 -0.4047 -0.7043
  574SOL    MW4 2296   0.469   1.515   1.284  0.0862 -0.2073 -0.3417
  575SOL     OW 2297   3.841   2.002   0.612 -0.1043  0.6041  0.0881
  575SOL    HW2 2298   3.758   1.955   0.611  0.8990 -1.1897 -0.7593
  575SOL    HW3 2299   3.836   2.061   0.537  0.1538 -0.8834 -1.1139
  575SOL    MW4 2300   3.829   2.004   0.602  0.0621  0.1711 -0.1823
  576SOL     OW 2301   4.412   3.948   2.140 -0.2397 -0.0207 -0.0404
  576SOL    HW2 2302   4.421   4.033   2.184  0.7583  0.4175 -1.0293
  576SOL    HW3 2303   4.498   3.933   2.101 -0.0645 -2.0414  1.0554
  576SOL    MW4 2304   4.425   3.957   2.140 -0.0849 -0.2295 -0.0263
  577SOL     OW 2305   1.377   0.955   0.585  0.4299 -0.2488  0.3749
  577SOL    HW2 2306   1.350   0.900   0.658 -0.2558 -1.4274 -0.7525
  577SOL    HW3 2307   1.444   0.903   0.539 -0.5708 -0.3577 -0.9755
  577SOL    MW4 2308   1.383   0.941   0.588  0.2074 -0.4186  0.0480
  578SOL     OW 2309   3.637   3.092   2.000 -0.4053  0.1424 -0.5395
  578SOL    HW2 2310   3.705   3.027   2.018 -0.5142  0.2574  0.2990
  578SOL    HW3 2311   3.605   3.117   2.087 -1.0950  0.5352 -0.9099
  578SOL    MW4 2312   3.642   3.086   2.014 -0.5107  0.2094 -0.4778
  579SOL     OW 2313   4.191   0.065   1.642  0.2656 -0.3029 -0.2961
  579SOL    HW2 2314   4.142   0.111   1.574  1.6326  1.9631  0.2027
  579SOL    HW3 2315   4.277   0.048   1.603  1.6313  2.4697  1.3483
  579SOL    MW4 2316   4.196   0.069   1.628  0.6262  0.3619 -0.0134
  580SOL     OW 2317   0.441   0.393   1.214 -0.0608 -0.3747 -0.5029
  580SOL    HW2 2318   0.443   0.401   1.118  0.7617  0.8293 -0.3926
  580SOL    HW3 2319   0.442   0.299   1.230 -0.2451 -0.5864 -1.6848
  580SOL    MW4 2320   0.442   0.382   1.203  0.0234 -0.2438 -0.6443
  581SOL     OW 2321   3.313   0.450   2.145  0.1672 -0.4633 -0.3130
  581SOL    HW2 2322   3.239   0.415   2.195  1.1360  1.0461  2.2889
  581SOL    HW3 2323   3.374   0.377   2.137 -1.1736 -1.4549 -1.6525
  581SOL    MW4 2324   3.311   0.436   2.150  0.1181 -0.3950 -0.1464
  582SOL     OW 2325   0.639   0.731   1.325 -0.2243 -0.0123  0.5185
  582SOL    HW2 2326   0.550   0.716   1.296 -0.1268  0.0731  0.1681
  582SOL    HW3 2327   0.687   0.753   1.245 -0.1842  1.3059  0.8873
  582SOL    MW4 2328   0.634   0.732   1.311 -0.2061  0.1729  0.5209
  583SOL     OW 2329   0.460   1.872   0.879 -0.2670  0.0579 -0.3041
  583SOL    HW2 2330   0.458   1.945   0.940 -0.1237 -0.3246  0.1692
  583SOL    HW3 2331   0.553   1.858   0.862 -0.2601 -0.3980  0.0846
  583SOL    MW4 2332   0.472   1.880   0.885 -0.2472 -0.0527 -0.1904
  584SOL     OW 2333   1.122   0.357   0.751 -0.1763 -0.2558  0.0278
  584SOL    HW2 2334   1.138   0.321   0.663 -1.2032  0.2310 -0.3751
  584SOL    HW3 2335   1.100   0.281   0.804  0.9448 -0.6168 -0.0128
  584SOL    MW4 2336   1.121   0.342   0.746 -0.1639 -0.2392 -0.0307
  585SOL     OW 2337   0.213   1.746   1.339 -0.2847  0.0029 -0.2199
  585SOL    HW2 2338   0.227   1.665   1.388  0.7525  0.5410  0.3869
  585SOL    HW3 2339   0.262   1.734   1.258  0.6107  0.3819  0.2639
  585SOL    MW4 2340   0.221   1.734   1.334 -0.0297  0.1239 -0.0760
  586SOL     OW 2341   0.986   3.708   1.025 -0.5717 -0.3414 -0.6555
  586SOL    HW2 2342   0.986   3.758   0.943  0.0417  0.7293 -0.0192
  586SOL    HW3 2343   0.984   3.775   1.093  1.7869 -1.1293  0.2426
  586SOL    MW4 2344   0.986   3.724   1.023 -0.1796 -0.3041 -0.4530
  587SOL     OW 2345   1.597   3.528   1.222  0.1108 -0.1281  0.0637
  587SOL    HW2 2346   1.523   3.544   1.281  0.4218 -0.6113  0.5954
  587SOL    HW3 2347   1.585   3.437   1.195  0.1465 -0.0027 -0.3742
  587SOL    MW4 2348   1.585   3.518   1.227  0.1566 -0.1753  0.0760
  588SOL     OW 2349   1.473   0.768   0.882 -0.1729  0.0019  0.0536
  588SOL    HW2 2350   1.447   0.750   0.972  0.6588 -2.1103 -0.1000
  588SOL    HW3 2351   1.392   0.757   0.831 -0.0691 -1.5052  0.2074
  588SOL    MW4 2352   1.459   0.764   0.887 -0.0495 -0.4756  0.0536
  589SOL     OW 2353   1.523   1.723   1.237 -0.0442 -0.3536  0.6799
  589SOL    HW2 2354   1.428   1.729   1.221 -0.0276  0.0417  0.7027
  589SOL    HW3 2355   1.558   1.681   1.160  0.1422  2.2416 -0.7105
  589SOL    MW4 2356   1.515   1.719   1.225 -0.0174  0.0409  0.4994
  590SOL     OW 2357   1.911   2.548   0.841  0.0951  0.4363  0.5069
  590SOL    HW2 2358   1.929   2.642   0.850  2.7812  0.0758 -0.5729
  590SOL    HW3 2359   1.947   2.509   0.920 -2.4208  0.4426  1.7024
  590SOL    MW4 2360   1.918   2.556   0.853  0.1176  0.3896  0.5221
  591SOL     OW 2361   0.628   2.988   0.572 -0.1899 -0.6418  0.4731
  591SOL    HW2 2362   0.535   3.007   0.581  0.1208  1.4227 -0.3688
  591SOL    HW3 2363   0.632   2.893   0.559 -2.0479 -0.9402  1.8943
  591SOL    MW4 2364   0.616   2.978   0.571 -0.3941 -0.4088  0.5496
  592SOL     OW 2365   4.107   1.105   2.287 -0.0468  0.0004  0.7833
  592SOL    HW2 2366   4.174   1.165   2.255  1.8978 -1.7714  1.4510
  592SOL    HW3 2367   4.099   1.126   2.380  0.0704 -0.2528  0.8503
  592SOL    MW4 2368   4.115   1.116   2.295  0.2252 -0.2668  0.8802
  593SOL     OW 2369   0.122   2.571   1.569  0.0570 -0.3917 -0.8485
  593SOL    HW2 2370   0.180   2.537   1.500 -0.1244 -1.2057 -0.6120
  593SOL    HW3 2371   0.048   2.510   1.569  0.3256 -0.7254  0.4556
  593SOL    MW4 2372   0.120   2.558   1.560  0.0685 -0.5432 -0.6452
  594SOL     OW 2373   2.855   3.932   1.495 -0.1552 -0.3531  0.4569
  594SOL    HW2 2374   2.878   4.021   1.470  0.2436 -0.7258 -0.5467
  594SOL    HW3 2375   2.804   3.899   1.421 -0.6656 -0.8147  1.0111
  594SOL    MW4 2376   2.851   3.939   1.482 -0.1699 -0.4632  0.3976
  595SOL     OW 2377   3.099   0.809   0.785 -0.0156  0.4891 -0.3099
  595SOL    HW2 2378   3.169   0.783   0.726  0.7231  0.9882  0.3335
  595SOL    HW3 2379   3.134   0.793   0.872 -1.0678 -0.1590 -0.0026
  595SOL    MW4 2380   3.113   0.804   0.789 -0.0570  0.4695 -0.1845
  596SOL     OW 2381   0.124   2.643   1.849 -0.7241  0.2257 -0.2609
  596SOL    HW2 2382   0.172   2.565   1.876 -0.0193  0.6144 -0.3775
  596SOL    HW3 2383   0.111   2.632   1.754 -3.9436 -1.5480  0.2983
  596SOL    MW4 2384   0.129   2.631   1.840 -1.0559  0.0430 -0.2025
  597SOL     OW 2385   2.699   1.344   1.130  0.3398 -0.0617 -0.4341
  597SOL    HW2 2386   2.686   1.315   1.039 -1.3037 -2.8430  0.6254
  597SOL    HW3 2387   2.770   1.290   1.163  0.5811  0.5846  0.1238
  597SOL    MW4 2388   2.706   1.333   1.122  0.1548 -0.3434 -0.2207
  598SOL     OW 2389   2.691   3.245   2.197 -0.2011  0.1442  0.3528
  598SOL    HW2 2390   2.611   3.201   2.226 -0.8416  2.6712  2.6133
  598SOL    HW3 2391   2.762   3.187   2.225 -1.1301 -1.1373  0.1061
  598SOL    MW4 2392   2.690   3.231   2.204 -0.4082  0.3085  0.6185
  599SOL     OW 2393   1.942   2.752   1.212 -0.5688 -0.0172 -0.1420
  599SOL    HW2 2394   1.904   2.835   1.241 -0.0755  0.1415  0.0688
  599SOL    HW3 2395   1.871   2.689   1.219 -0.6767  0.1851  0.6514
  599SOL    MW4 2396   1.928   2.755   1.217 -0.5179  0.0304 -0.0095
  600SOL     OW 2397   2.091   4.645   1.125  0.3073  0.2132  0.0211
  600SOL    HW2 2398   2.177   4.618   1.156 -0.1964 -1.1235  0.2816
  600SOL    HW3 2399   2.047   4.564   1.099 -0.6694  0.9298 -0.6564
  600SOL    MW4 2400   2.096   4.631   1.125  0.1120  0.1314 -0.0339
  601SOL     OW 2401   3.823   3.601   0.410 -0.0744 -0.3919 -0.3762
  601SOL    HW2 2402   3.788   3.584   0.498 -1.0016 -0.9850 -0.8500
  601SOL    HW3 2403   3.838   3.696   0.408  0.0218 -0.3912  0.4505
  601SOL    MW4 2404   3.820   3.611   0.421 -0.1840 -0.4701 -0.3297
  602SOL     OW 2405   2.131   0.576   0.854 -0.3938 -0.6082  0.1094
  602SOL    HW2 2406   2.056   0.585   0.795  0.8168  0.0919 -1.3751
  602SOL    HW3 2407   2.179   0.501   0.820  0.8121  0.3681 -0.4163
  602SOL    MW4 2408   2.127   0.568   0.842 -0.0750 -0.3870 -0.1558
  603SOL     OW 2409   0.896   3.924   0.512  0.2571 -0.2954  0.0623
  603SOL    HW2 2410   0.863   3.846   0.467 -0.5252  0.0802 -0.0130
  603SOL    HW3 2411   0.921   3.892   0.599  1.9473 -1.0657 -0.6624
  603SOL    MW4 2412   0.895   3.909   0.517  0.3769 -0.3475 -0.0433
  604SOL     OW 2413   0.181   3.380   1.167 -0.1105 -0.2191  0.3115
  604SOL    HW2 2414   0.183   3.287   1.142 -1.8423 -0.3660  0.6503
  604SOL    HW3 2415   0.088   3.400   1.176  0.2660  1.4824  0.5403
  604SOL    MW4 2416   0.169   3.370   1.165 -0.2893 -0.0140  0.3864
  605SOL     OW 2417   2.718   0.345   2.484  0.1468  0.2557 -0.4956
  605SOL    HW2 2418   2.647   0.389   2.529 -0.6824  0.0353 -1.5616
  605SOL    HW3 2419   2.710   0.253   2.510  0.4687  0.3457 -0.0742
  605SOL    MW4 2420   2.708   0.339   2.493  0.0799  0.2385 -0.5807
  606SOL     OW 2421   0.519   3.831   1.158  0.0990 -0.2463 -0.1276
  606SOL    HW2 2422   0.599   3.778   1.160 -1.8296 -3.4167 -1.6950
  606SOL    HW3 2423   0.481   3.820   1.245  1.4548  1.4503  0.6949
  606SOL    MW4 2424   0.524   3.822   1.169  0.0234 -0.4407 -0.2259
  607SOL     OW 2425   3.663   0.764   1.028  0.6991  0.2121 -0.1270
  607SOL    HW2 2426   3.680   0.762   1.123  0.0365  2.0451  0.0472
  607SOL    HW3 2427   3.750   0.768   0.989  0.9907 -0.9017  0.3839
  607SOL    MW4 2428   3.677   0.765   1.036  0.6501  0.3070 -0.0366
  608SOL     OW 2429   1.971   0.696   0.654 -0.3433 -0.0576 -0.0186
  608SOL    HW2 2430   1.978   0.784   0.619 -0.7922 -0.2031 -0.4775
  608SOL    HW3 2431   2.033   0.644   0.603 -0.4749 -0.1202 -0.1153
  608SOL    MW4 2432   1.980   0.701   0.643 -0.4199 -0.0851 -0.0919
  609SOL     OW 2433   1.697   4.000   1.224  0.3430  0.1404  0.2499
  609SOL    HW2 2434   1.662   3.997   1.313  1.1889  0.0008  0.5917
  609SOL    HW3 2435   1.646   4.067   1.180  1.7173  2.1593  1.6374
  609SOL    MW4 2436   1.686   4.008   1.230  0.6359  0.3884  0.4781
  610SOL     OW 2437   2.332   1.528   1.888  0.1768 -0.3230 -0.1017
  610SOL    HW2 2438   2.259   1.477   1.853  0.1291 -1.4093  1.5393
  610SOL    HW3 2439   2.294   1.615   1.904  0.0280 -0.0035 -2.0104
  610SOL    MW4 2440   2.317   1.533   1.885  0.1509 -0.4241 -0.1371
  611SOL     OW 2441   0.896   1.063   2.260  0.2027  0.2860  0.2263
  611SOL    HW2 2442   0.810   1.100   2.239  0.4821  0.5859 -0.4025
  611SOL    HW3 2443   0.892   0.974   2.225  0.2171  0.3682  0.0128
  611SOL    MW4 2444   0.884   1.056   2.252  0.2415  0.3364  0.1152
  612SOL     OW 2445   4.451   1.626   1.082 -0.2054 -0.3054 -0.1459
  612SOL    HW2 2446   4.391   1.639   1.008  0.1570  0.7199 -0.2630
  612SOL    HW3 2447   4.502   1.706   1.085  0.3626 -0.7021  0.6952
  612SOL    MW4 2448   4.450   1.638   1.072 -0.0826 -0.2225 -0.0504
  613SOL     OW 2449   4.021   2.855   0.346 -0.1361  0.3051 -0.1586
  613SOL    HW2 2450   4.061   2.775   0.380 -1.4881 -0.1732  0.3168
  613SOL    HW3 2451   3.927   2.839   0.348 -0.4568  2.1016  0.4513
  613SOL    MW4 2452   4.014   2.843   0.351 -0.3568  0.4790 -0.0154
  614SOL     OW 2453   1.850   3.548   1.716  0.1371  0.1217  0.8086
  614SOL    HW2 2454   1.937   3.560   1.755  0.1591  0.9129  0.5063
  614SOL    HW3 2455   1.789   3.556   1.789  0.2838  0.0660  0.9369
  614SOL    MW4 2456   1.854   3.550   1.731  0.1593  0.2188  0.7857
  615SOL     OW 2457   0.295   2.512   0.915  0.2883 -0.5753 -0.0119
  615SOL    HW2 2458   0.205   2.496   0.945  0.5000  0.3936  1.2170
  615SOL    HW3 2459   0.287   2.584   0.853  0.3695  0.5464  1.2464
  615SOL    MW4 2460   0.282   2.519   0.911  0.3269 -0.2995  0.3163
  616SOL     OW 2461   3.789   3.302   1.042  0.6631 -0.0681  0.3829
  616SOL    HW2 2462   3.773   3.216   1.080 -2.4758 -0.0148 -0.7008
  616SOL    HW3 2463   3.808   3.359   1.117  0.4849 -1.2190  1.3103
  616SOL    MW4 2464   3.790   3.298   1.057  0.2254 -0.2129  0.3623
  617SOL     OW 2465   3.869   1.722   1.388 -0.0800  0.0324  0.6752
  617SOL    HW2 2466   3.932   1.748   1.454 -0.6542  0.3407  1.1130
  617SOL    HW3 2467   3.921   1.684   1.318  0.6716  1.1874  0.5893
  617SOL    MW4 2468   3.884   1.721   1.387 -0.0566  0.2255  0.7216
  618SOL     OW 2469   2.777   2.923   1.891 -0.1501  0.5083 -0.1563
  618SOL    HW2 2470   2.753   2.920   1.799  0.7430 -0.2480 -0.3720
  618SOL    HW3 2471   2.779   3.016   1.912 -1.2381  0.6543 -0.6596
  618SOL    MW4 2472   2.775   2.935   1.882 -0.1758  0.4278 -0.2512
  619SOL     OW 2473   3.582   0.508   0.707 -0.1752 -0.3684 -0.2793
  619SOL    HW2 2474   3.601   0.414   0.706 -3.8807 -1.1904 -0.3573
  619SOL    HW3 2475   3.581   0.533   0.615 -0.8825 -0.6560 -0.3552
  619SOL    MW4 2476   3.584   0.499   0.695 -0.7574 -0.5148 -0.2996
  620SOL     OW 2477   3.114   1.213   0.503 -0.0322 -0.3894  0.1278
  620SOL    HW2 2478   3.041   1.160   0.536 -0.5663  0.8268  0.9055
  620SOL    HW3 2479   3.158   1.244   0.582 -0.3463  1.1897 -0.3067
  620SOL    MW4 2480   3.110   1.210   0.518 -0.1441 -0.0206  0.1731
  621SOL     OW 2481   0.965   2.143   1.708  0.0835 -0.1027 -0.3358
  621SOL    HW2 2482   1.035   2.186   1.659  0.4233 -1.0434 -0.6832
  621SOL    HW3 2483   0.950   2.061   1.662 -0.5078 -0.4013  0.3727
  621SOL    MW4 2484   0.972   2.138   1.695  0.0503 -0.2662 -0.2882
  622SOL     OW 2485   2.584   0.073   1.852  0.0086 -0.5450  0.6791
  622SOL    HW2 2486   2.535  -0.004   1.883  0.8461 -1.0169  0.8456
  622SOL    HW3 2487   2.622   0.045   1.769 -2.1626  0.6895 -0.7909
  622SOL    MW4 2488   2.583   0.059   1.845 -0.1673 -0.4444  0.5071
  623SOL     OW 2489   3.566   4.281   2.260  0.2724 -0.0997  0.4226
  623SOL    HW2 2490   3.488   4.315   2.216  0.3864 -0.2234  0.1222
  623SOL    HW3 2491   3.571   4.189   2.232  2.6769  0.8821 -2.6413
  623SOL    MW4 2492   3.556   4.273   2.250  0.6047  0.0135 -0.0213
  624SOL     OW 2493   2.963   2.358   1.493 -0.2471  0.2917 -0.3075
  624SOL    HW2 2494   2.936   2.437   1.541 -0.9735 -0.2645  0.2056
  624SOL    HW3 2495   2.957   2.288   1.558  2.2916  0.1234 -0.2097
  624SOL    MW4 2496   2.959   2.359   1.508 -0.0080  0.1961 -0.2269
  625SOL     OW 2497   1.125   2.073   1.931 -0.5248  0.1408 -0.2543
  625SOL    HW2 2498   1.069   2.082   1.854  1.0459 -2.6395 -1.8086
  625SOL    HW3 2499   1.212   2.099   1.900 -0.4550  2.1010  1.4864
  625SOL    MW4 2500   1.129   2.078   1.917 -0.3084  0.0326 -0.2297
  626SOL     OW 2501   0.087   4.334   1.057 -0.3916  0.1235  0.1766
  626SOL    HW2 2502   0.010   4.378   1.094 -1.7278 -2.9714  1.2245
  626SOL    HW3 2503   0.162   4.380   1.094 -1.6474  4.1903 -2.0457
  626SOL    MW4 2504   0.087   4.346   1.067 -0.7336  0.2517  0.0217
  627SOL     OW 2505   3.528   2.018   0.806 -0.2944  0.0194 -0.7132
  627SOL    HW2 2506   3.480   1.965   0.870 -1.0844  0.6171 -0.8004
  627SOL    HW3 2507   3.464   2.081   0.774  0.6248  1.0010 -0.6521
  627SOL    MW4 2508   3.513   2.019   0.810 -0.2774  0.2278 -0.7166
  628SOL     OW 2509   3.599   3.441   2.319  0.1117 -0.3322 -0.0731
  628SOL    HW2 2510   3.536   3.496   2.272 -0.0009 -0.2948  0.1204
  628SOL    HW3 2511   3.577   3.453   2.412  1.1107  0.5356  0.0569
  628SOL    MW4 2512   3.587   3.450   2.325  0.2287 -0.2128 -0.0304
  629SOL     OW 2513   0.150   0.176   0.319  0.2075  0.1356  0.1961
  629SOL    HW2 2514   0.193   0.093   0.338  0.1252  0.1808  0.5853
  629SOL    HW3 2515   0.221   0.236   0.299  0.4347  0.6116  2.3699
  629SOL    MW4 2516   0.165   0.173   0.319  0.2266  0.2044  0.5343
  630SOL     OW 2517   2.591   4.144   0.464  0.0266 -0.0219  0.0699
  630SOL    HW2 2518   2.531   4.124   0.536 -0.0746  1.1175  0.3057
  630SOL    HW3 2519   2.584   4.239   0.452  1.6363  0.0974 -0.0315
  630SOL    MW4 2520   2.582   4.154   0.472  0.2256  0.1442  0.0876
  631SOL     OW 2521   3.422   1.864   1.031  0.1131  0.2835 -0.0681
  631SOL    HW2 2522   3.487   1.822   1.087  0.4274  1.5388  0.5246
  631SOL    HW3 2523   3.358   1.795   1.013  0.3234 -0.2946  1.3533
  631SOL    MW4 2524   3.422   1.850   1.036  0.1823  0.3728  0.1977
  632SOL     OW 2525   1.255   2.315   0.505 -0.0131 -0.1387 -0.3913
  632SOL    HW2 2526   1.295   2.393   0.466 -0.7164 -0.4660 -1.8144
  632SOL    HW3 2527   1.271   2.245   0.441 -0.1759 -0.9574  0.4550
  632SOL    MW4 2528   1.262   2.316   0.491 -0.1274 -0.2899 -0.4674
  633SOL     OW 2529   0.896   1.873   1.655 -0.0707  0.0500 -0.5973
  633SOL    HW2 2530   0.924   1.838   1.740  0.2019 -0.7644 -1.0087
  633SOL    HW3 2531   0.955   1.830   1.592 -2.2327 -1.7088 -1.4837
  633SOL    MW4 2532   0.908   1.862   1.658 -0.3200 -0.2895 -0.7685
  634SOL     OW 2533   0.213   3.041   2.249  0.0881  0.1389 -0.3618
  634SOL    HW2 2534   0.193   2.950   2.272 -0.2017  0.0921 -0.8116
  634SOL    HW3 2535   0.128   3.082   2.235  0.2045  0.5460  0.0784
  634SOL    MW4 2536   0.200   3.034   2.250  0.0652  0.1864 -0.3631
  635SOL     OW 2537   1.205   4.353   1.868  0.0425 -0.0501  0.3909
  635SOL    HW2 2538   1.293   4.318   1.851 -0.2174 -0.5971  0.1476
  635SOL    HW3 2539   1.148   4.276   1.865 -0.5410  0.3959 -0.1282
  635SOL    MW4 2540   1.209   4.338   1.866 -0.0688 -0.0634  0.2903
  636SOL     OW 2541   2.257   3.764   1.494 -0.0590 -0.1531 -0.1124
  636SOL    HW2 2542   2.269   3.778   1.588  1.3019  0.7050 -0.3952
  636SOL    HW3 2543   2.166   3.789   1.478 -0.1935  0.0529  0.9076
  636SOL    MW4 2544   2.247   3.769   1.504  0.1028 -0.0127 -0.0152
  637SOL     OW 2545   0.022   4.463   0.517 -0.7859 -0.4419  0.2517
  637SOL    HW2 2546   0.021   4.454   0.612  0.4339 -0.0246  0.3182
  637SOL    HW3 2547   0.053   4.378   0.485 -1.1443 -0.5644  0.2291
  637SOL    MW4 2548   0.026   4.450   0.525 -0.6722 -0.4030  0.2575
  638SOL     OW 2549   1.745   0.600   0.525  0.0717 -0.3999  0.2439
  638SOL    HW2 2550   1.678   0.578   0.589  0.0258  1.0862  0.7237
  638SOL    HW3 2551   1.820   0.628   0.577  0.7947 -1.2762 -0.3089
  638SOL    MW4 2552   1.746   0.601   0.540  0.1611 -0.3194  0.2343
  639SOL     OW 2553   4.084   1.748   2.173 -0.6078  0.2137  0.2881
  639SOL    HW2 2554   4.105   1.798   2.094 -0.1349  0.1442  0.3709
  639SOL    HW3 2555   4.052   1.813   2.235 -0.5311  0.3322  0.2021
  639SOL    MW4 2556   4.083   1.763   2.170 -0.5353  0.2201  0.2877
  640SOL     OW 2557   2.269   0.315   0.782  0.5139  0.5902 -0.5290
  640SOL    HW2 2558   2.247   0.295   0.692 -0.3476  0.7266 -0.3499
  640SOL    HW3 2559   2.364   0.302   0.787  0.3042 -1.1843 -0.9826
  640SOL    MW4 2560   2.279   0.311   0.771  0.3726  0.3741 -0.5652
  641SOL     OW 2561   3.537   0.111   1.163 -0.0401  0.1892 -0.6080
  641SOL    HW2 2562   3.554   0.125   1.256  0.3596 -3.3152 -0.1010
  641SOL    HW3 2563   3.442   0.101   1.157  0.0096 -0.3844 -0.4513
  641SOL    MW4 2564   3.526   0.112   1.174  0.0192 -0.3488 -0.5204
  642SOL     OW 2565   1.048   3.478   1.697 -0.0551  0.1269  0.0021
  642SOL    HW2 2566   1.022   3.385   1.700 -1.7446  0.6131  1.4089
  642SOL    HW3 2567   1.008   3.512   1.617 -0.3396 -0.1094  0.0419
  642SOL    MW4 2568   1.039   3.470   1.687 -0.3155  0.1599  0.1929
  643SOL     OW 2569   3.619   1.788   1.211 -0.4461  0.3398  0.2518
  643SOL    HW2 2570   3.633   1.793   1.306 -1.6153  1.4644  0.3813
  643SOL    HW3 2571   3.688   1.842   1.173  0.6262 -0.9104  0.3970
  643SOL    MW4 2572   3.630   1.796   1.219 -0.4589  0.3232  0.2880
  644SOL     OW 2573   4.191   4.639   1.281 -0.2485 -0.2689 -0.3361
  644SOL    HW2 2574   4.266   4.692   1.304  0.0639 -0.3341 -1.1993
  644SOL    HW3 2575   4.228   4.562   1.237 -0.8539  0.0011 -1.3312
  644SOL    MW4 2576   4.205   4.636   1.278 -0.2871 -0.2419 -0.5813
  645SOL     OW 2577   4.212   3.888   1.218 -0.2382 -0.2253 -0.3378
  645SOL    HW2 2578   4.203   3.977   1.184  1.4922  0.5553  1.1993
  645SOL    HW3 2579   4.304   3.865   1.202  0.1444 -0.5300  2.1095
  645SOL    MW4 2580   4.223   3.897   1.211  0.0406 -0.1625  0.1879
  646SOL     OW 2581   2.570   4.364   1.467  0.0325  0.0634 -0.3344
  646SOL    HW2 2582   2.568   4.453   1.502  3.3037  0.1100 -0.1420
  646SOL    HW3 2583   2.554   4.374   1.374  0.2086  0.8551 -0.2796
  646SOL    MW4 2584   2.568   4.377   1.460  0.4873  0.1740 -0.3018
  647SOL     OW 2585   0.013   3.740   0.389 -0.3051 -0.1019 -0.4732
  647SOL    HW2 2586   0.093   3.730   0.440 -0.0225 -1.4680 -1.1553
  647SOL    HW3 2587   0.018   3.829   0.353  0.1170  0.3912  0.7833
  647SOL    MW4 2588   0.024   3.750   0.391 -0.2121 -0.2171 -0.3974
  648SOL     OW 2589   4.388   0.859   0.396 -0.3450 -0.4125 -0.0548
  648SOL    HW2 2590   4.324   0.904   0.451  0.0589 -1.2495  1.1217
  648SOL    HW3 2591   4.336   0.818   0.327 -0.8741  0.5415 -0.2236
  648SOL    MW4 2592   4.373   0.859   0.394 -0.3615 -0.3971  0.0782
  649SOL     OW 2593   4.143   0.869   1.328  0.4223 -0.0765 -0.0873
  649SOL    HW2 2594   4.144   0.869   1.233  1.0234  0.9995 -0.0912
  649SOL    HW3 2595   4.068   0.923   1.352  0.8334  0.4290  0.0513
  649SOL    MW4 2596   4.133   0.876   1.319  0.5558  0.1322 -0.0695
  650SOL     OW 2597   3.766   0.025   0.358 -0.5341 -0.3816 -0.1123
  650SOL    HW2 2598   3.702   0.096   0.350 -2.1207 -1.5800  1.6824
  650SOL    HW3 2599   3.851   0.070   0.357 -1.4900  1.4876  0.3775
  650SOL    MW4 2600   3.769   0.041   0.357 -0.8696 -0.2931  0.1891
  651SOL     OW 2601   0.422   1.104   2.226 -0.3722  0.3696 -0.0042
  651SOL    HW2 2602   0.336   1.142   2.209 -0.0922  1.2959  0.6481
  651SOL    HW3 2603   0.415   1.014   2.192 -1.3019  0.7182 -0.7605
  651SOL    MW4 2604   0.410   1.097   2.219 -0.4580  0.5378 -0.0180
  652SOL     OW 2605   4.302   1.921   1.556  0.4416  0.0984 -0.5168
  652SOL    HW2 2606   4.343   1.915   1.470  1.6137 -0.5964  0.0898
  652SOL    HW3 2607   4.252   2.003   1.552  1.6029  0.7885 -1.3707
  652SOL    MW4 2608   4.301   1.931   1.544  0.7494  0.0978 -0.5494
  653SOL     OW 2609   0.719   1.092   0.782 -0.3320  0.4944 -0.2275
  653SOL    HW2 2610   0.773   1.171   0.788 -0.7179  0.7416 -0.0343
  653SOL    HW3 2611   0.647   1.116   0.724 -0.5818  0.3580  0.0297
  653SOL    MW4 2612   0.717   1.105   0.775 -0.4159  0.5090 -0.1681
  654SOL     OW 2613   0.649   2.723   0.473 -0.2607  0.0534 -0.4179
  654SOL    HW2 2614   0.731   2.687   0.439 -0.0116  0.0082  0.2158
  654SOL    HW3 2615   0.620   2.659   0.537 -1.0624 -0.1788 -1.0025
  654SOL    MW4 2616   0.656   2.710   0.477 -0.3336  0.0168 -0.4115
  655SOL     OW 2617   4.272   0.617   0.932  0.1605  0.3557 -0.3566
  655SOL    HW2 2618   4.242   0.529   0.954  0.3457  0.2828 -0.3953
  655SOL    HW3 2619   4.307   0.608   0.843  1.0282  0.2704 -0.0084
  655SOL    MW4 2620   4.273   0.604   0.923  0.2994  0.3348 -0.3157
  656SOL     OW 2621   3.315   4.014   0.660 -0.7166 -0.4824  0.1991
  656SOL    HW2 2622   3.279   4.077   0.597 -1.7080 -0.3100  0.9286
  656SOL    HW3 2623   3.402   3.993   0.625 -0.3179  1.3679 -0.0017
  656SOL    MW4 2624   3.322   4.020   0.647 -0.7948 -0.2155  0.2689
  657SOL     OW 2625   4.410   2.932   0.708  0.2681 -0.1547 -0.4086
  657SOL    HW2 2626   4.337   2.947   0.648  0.1933  1.7029  0.1169
  657SOL    HW3 2627   4.482   2.902   0.652 -0.4175 -0.4412 -1.1399
  657SOL    MW4 2628   4.410   2.930   0.693  0.1678  0.0526 -0.4358
  658SOL     OW 2629   4.255   1.163   1.987 -0.2400  0.2826  0.2425
  658SOL    HW2 2630   4.331   1.136   1.937  1.0785  1.2901  1.6775
  658SOL    HW3 2631   4.191   1.191   1.921  0.3244 -1.2695 -0.9906
  658SOL    MW4 2632   4.256   1.163   1.971  0.0084  0.2107  0.2691
  659SOL     OW 2633   3.345   4.412   2.173  0.7664  0.4113 -0.0239
  659SOL    HW2 2634   3.357   4.501   2.204 -1.0330  0.5988  0.2098
  659SOL    HW3 2635   3.293   4.420   2.093 -0.4140 -0.4636  0.6238
  659SOL    MW4 2636   3.339   4.425   2.167  0.3732  0.3206  0.0924
  660SOL     OW 2637   2.241   0.732   1.209 -0.3763  0.1526 -0.2135
  660SOL    HW2 2638   2.317   0.697   1.162 -1.4722 -1.0765 -1.0946
  660SOL    HW3 2639   2.274   0.748   1.298  0.6442 -1.3246 -0.3117
  660SOL    MW4 2640   2.256   0.730   1.215 -0.3862 -0.2044 -0.3427
  661SOL     OW 2641   4.335   1.238   1.082 -0.2199  0.3252 -0.3340
  661SOL    HW2 2642   4.370   1.150   1.098 -0.9417 -0.1528 -1.3650
  661SOL    HW3 2643   4.402   1.297   1.118  1.1839 -0.5928 -1.3819
  661SOL    MW4 2644   4.349   1.234   1.089 -0.1299  0.1410 -0.6083
  662SOL     OW 2645   0.326   0.589   1.640 -0.3698  0.3034  0.1817
  662SOL    HW2 2646   0.280   0.541   1.708  0.0072  0.9476  0.9011
  662SOL    HW3 2647   0.281   0.673   1.636 -0.4421  0.2373 -0.4222
  662SOL    MW4 2648   0.314   0.594   1.648 -0.3296  0.3797  0.1970
  663SOL     OW 2649   2.807   0.699   0.793  0.2938 -0.2168  0.0890
  663SOL    HW2 2650   2.902   0.699   0.796  0.4063 -2.1760 -1.6853
  663SOL    HW3 2651   2.786   0.683   0.700 -1.7410 -0.2650  0.5226
  663SOL    MW4 2652   2.817   0.697   0.781  0.0402 -0.4817 -0.0879
  664SOL     OW 2653   3.457   0.216   1.504  0.3750  0.0258 -0.1734
  664SOL    HW2 2654   3.546   0.218   1.471  0.1878  0.9425 -0.6502
  664SOL    HW3 2655   3.441   0.125   1.527  1.7573  0.0271  0.8121
  664SOL    MW4 2656   3.466   0.204   1.503  0.5327  0.1469 -0.1063
  665SOL     OW 2657   2.747   2.714   1.468 -0.3149 -0.3369 -0.0542
  665SOL    HW2 2658   2.800   2.679   1.396  0.2256 -0.9233  0.6313
  665SOL    HW3 2659   2.658   2.715   1.433 -0.1492 -1.2061 -0.5187
  665SOL    MW4 2660   2.742   2.710   1.454 -0.2217 -0.5290 -0.0250
  666SOL     OW 2661   3.121   1.512   1.041 -0.1034 -0.8160  0.1347
  666SOL    HW2 2662   3.050   1.574   1.023  1.2322  0.8952  0.6155
  666SOL    HW3 2663   3.144   1.527   1.133  1.2410 -0.9184 -0.1619
  666SOL    MW4 2664   3.115   1.522   1.051  0.2502 -0.6038  0.1590
  667SOL     OW 2665   3.694   1.043   1.720 -0.5785 -0.5592  0.1371
  667SOL    HW2 2666   3.677   1.070   1.629 -1.3439 -0.4985  0.2954
  667SOL    HW3 2667   3.608   1.019   1.754 -0.2716 -0.6973  0.8127
  667SOL    MW4 2668   3.680   1.044   1.712 -0.6390 -0.5694  0.2471
  668SOL     OW 2669   0.278   1.708   1.885  0.3799  0.3271 -0.4450
  668SOL    HW2 2670   0.228   1.786   1.862 -0.0266  0.2251  0.0985
  668SOL    HW3 2671   0.255   1.690   1.976  1.3504  0.2342 -0.2178
  668SOL    MW4 2672   0.268   1.716   1.894  0.4543  0.3014 -0.3434
  669SOL     OW 2673   0.119   2.818   0.560  0.4507 -0.3329  0.3121
  669SOL    HW2 2674   0.153   2.850   0.477 -0.5666  0.7587  0.3010
  669SOL    HW3 2675   0.189   2.834   0.623  0.2145  1.3044  0.1745
  669SOL    MW4 2676   0.133   2.824   0.557  0.2853  0.0271  0.2925
  670SOL     OW 2677   1.712   2.752   0.510  0.2136  0.1594  0.2686
  670SOL    HW2 2678   1.807   2.762   0.510  0.2569 -0.1286 -1.0432
  670SOL    HW3 2679   1.697   2.670   0.557  0.7761 -1.0366 -1.5977
  670SOL    MW4 2680   1.723   2.742   0.516  0.2935 -0.0364 -0.1507
  671SOL     OW 2681   3.038   2.546   0.816  0.1503 -0.2804 -0.0410
  671SOL    HW2 2682   3.076   2.599   0.746 -0.1518  0.2028  0.1559
  671SOL    HW3 2683   3.020   2.461   0.775  0.2317 -0.0903 -0.4744
  671SOL    MW4 2684   3.040   2.542   0.801  0.1212 -0.1915 -0.0722
  672SOL     OW 2685   0.367   0.652   1.287 -0.4566 -0.1080  0.2662
  672SOL    HW2 2686   0.274   0.669   1.274 -0.0384 -0.0798 -3.3423
  672SOL    HW3 2687   0.377   0.558   1.271  0.4431  0.3052 -1.7518
  672SOL    MW4 2688   0.356   0.642   1.283 -0.2828 -0.0497 -0.4762
  673SOL     OW 2689   1.619   1.976   0.978 -0.5645  0.0260  0.0978
  673SOL    HW2 2690   1.532   1.947   0.952 -0.4173  0.3926 -0.8257
  673SOL    HW3 2691   1.648   1.910   1.041 -1.6448  0.0909  0.6733
  673SOL    MW4 2692   1.611   1.963   0.983 -0.6876  0.0829  0.0519
  674SOL     OW 2693   2.751   4.520   1.161  0.0008  0.0221 -0.2135
  674SOL    HW2 2694   2.816   4.510   1.230 -1.2724  1.1853  1.1953
  674SOL    HW3 2695   2.763   4.610   1.130 -1.4834  0.5376  0.6618
  674SOL    MW4 2696   2.761   4.530   1.166 -0.3630  0.2436  0.0878
  675SOL     OW 2697   4.096   3.515   0.507  0.0104  0.1297 -0.4198
  675SOL    HW2 2698   4.175   3.532   0.456 -0.3543  1.1150 -0.6759
  675SOL    HW3 2699   4.026   3.555   0.456 -0.4430  0.5761  0.5471
  675SOL    MW4 2700   4.097   3.522   0.494 -0.0976  0.3186 -0.3260
  676SOL     OW 2701   1.318   2.072   0.381 -0.5827 -0.1109 -0.4005
  676SOL    HW2 2702   1.403   2.095   0.343 -0.1504 -1.7274 -0.4555
  676SOL    HW3 2703   1.340   2.016   0.455 -1.5432  0.8266  0.6031
  676SOL    MW4 2704   1.332   2.068   0.386 -0.6524 -0.2005 -0.2753
  677SOL     OW 2705   4.351   0.090   0.921 -0.2726 -0.2521  0.2730
  677SOL    HW2 2706   4.295   0.014   0.933 -0.6947 -0.0696 -0.4704
  677SOL    HW3 2707   4.435   0.064   0.958  0.3066 -1.9672 -2.1447
  677SOL    MW4 2708   4.354   0.077   0.927 -0.2519 -0.4543 -0.1441
  678SOL     OW 2709   0.507   0.452   0.519  0.1010 -0.0438  0.4508
  678SOL    HW2 2710   0.566   0.525   0.539 -1.0339  0.6362  1.3847
  678SOL    HW3 2711   0.462   0.434   0.601  0.0017 -1.4650  0.0933
  678SOL    MW4 2712   0.509   0.459   0.532 -0.0618 -0.1416  0.5269
  679SOL     OW 2713   3.254   2.761   0.340  0.0157  0.5204 -0.5332
  679SOL    HW2 2714   3.289   2.847   0.363 -0.6728  0.2672  1.5919
  679SOL    HW3 2715   3.331   2.705   0.331  0.4274  1.1871 -1.2679
  679SOL    MW4 2716   3.269   2.765   0.342 -0.0208  0.5750 -0.3498
  680SOL     OW 2717   1.722   2.583   1.270 -0.0821  0.1697  0.4189
  680SOL    HW2 2718   1.661   2.539   1.210  1.7648 -0.3487 -1.1282
  680SOL    HW3 2719   1.667   2.645   1.318 -1.7875 -0.0209 -1.2026
  680SOL    MW4 2720   1.706   2.586   1.268 -0.0634  0.0762  0.0008
  681SOL     OW 2721   2.808   0.409   1.843  0.1580 -0.2250 -0.2120
  681SOL    HW2 2722   2.829   0.316   1.834  1.6224  0.0793 -0.0572
  681SOL    HW3 2723   2.889   0.454   1.819 -0.0621  0.9729  1.2394
  681SOL    MW4 2724   2.821   0.402   1.839  0.3222 -0.0268 -0.0001
  682SOL     OW 2725   3.525   0.865   0.652  0.4087 -0.2404  0.2099
  682SOL    HW2 2726   3.542   0.920   0.576  1.3994  0.1105  0.6819
  682SOL    HW3 2727   3.446   0.815   0.629 -0.3474  1.1828 -0.3133
  682SOL    MW4 2728   3.516   0.866   0.639  0.4396 -0.0063  0.2031
  683SOL     OW 2729   3.114   4.575   0.408 -0.2204 -0.3744 -0.0705
  683SOL    HW2 2730   3.163   4.538   0.335 -0.7080 -0.2072 -0.4886
  683SOL    HW3 2731   3.022   4.563   0.383 -0.3881 -0.3479  0.5301
  683SOL    MW4 2732   3.108   4.568   0.395 -0.3068 -0.3488 -0.0464
  684SOL     OW 2733   3.858   2.200   0.430 -0.4623 -0.0649 -0.0778
  684SOL    HW2 2734   3.782   2.256   0.448  0.3492  0.3536  2.2029
  684SOL    HW3 2735   3.934   2.257   0.443  0.3359 -1.3918  1.2101
  684SOL    MW4 2736   3.858   2.215   0.434 -0.2500 -0.1848  0.3931
  685SOL     OW 2737   2.804   2.461   0.495 -0.0406 -0.1552 -0.3900
  685SOL    HW2 2738   2.843   2.511   0.423  0.6099  0.0969  0.1271
  685SOL    HW3 2739   2.878   2.416   0.536 -0.3737 -0.1411  0.2406
  685SOL    MW4 2740   2.819   2.462   0.491  0.0013 -0.1201 -0.2386
  686SOL     OW 2741   0.381   1.090   1.539  0.1165  0.1320 -0.0883
  686SOL    HW2 2742   0.344   1.003   1.553  2.1072 -0.6231  0.6150
  686SOL    HW3 2743   0.304   1.147   1.526 -1.2662 -1.4478  0.9272
  686SOL    MW4 2744   0.366   1.086   1.539  0.1967 -0.1761  0.1384
  687SOL     OW 2745   1.599   4.070   0.659 -0.2097 -0.1168  0.2566
  687SOL    HW2 2746   1.672   4.016   0.629  0.0570  0.0870  0.5342
  687SOL    HW3 2747   1.536   4.008   0.695 -0.2148 -0.2991 -0.0656
  687SOL    MW4 2748   1.600   4.055   0.660 -0.1752 -0.1140  0.2507
  688SOL     OW 2749   2.828   4.151   1.124  0.2252 -0.6944 -0.2478
  688SOL    HW2 2750   2.823   4.159   1.219 -0.3704  1.0336 -0.4236
  688SOL    HW3 2751   2.886   4.222   1.096 -1.4456  0.2606 -1.3897
  688SOL    MW4 2752   2.835   4.161   1.132 -0.0739 -0.3404 -0.4216
  689SOL     OW 2753   3.089   4.251   0.284  0.1435  0.2281 -0.6463
  689SOL    HW2 2754   3.003   4.277   0.252 -0.6560 -1.6150 -0.0310
  689SOL    HW3 2755   3.090   4.156   0.278  2.0577  0.2104 -0.4365
  689SOL    MW4 2756   3.078   4.242   0.279  0.2905 -0.0174 -0.5374
  690SOL     OW 2757   0.352   0.873   1.068 -0.2113  0.4168 -0.3456
  690SOL    HW2 2758   0.439   0.901   1.040 -0.4766  2.0503  0.3766
  690SOL    HW3 2759   0.366   0.789   1.111  0.8223  0.0617 -1.3680
  690SOL    MW4 2760   0.365   0.866   1.070 -0.1099  0.5855 -0.3852
  691SOL     OW 2761   0.944   3.532   1.436 -0.3793 -0.3247 -0.2395
  691SOL    HW2 2762   0.997   3.485   1.372 -1.2623 -0.0733 -1.1668
  691SOL    HW3 2763   0.857   3.492   1.429 -0.6489  0.1586  0.3206
  691SOL    MW4 2764   0.939   3.521   1.427 -0.5314 -0.2278 -0.2880
  692SOL     OW 2765   0.768   3.343   1.860 -0.3961  0.1168  0.0103
  692SOL    HW2 2766   0.700   3.317   1.921 -1.6740  1.7559 -0.6559
  692SOL    HW3 2767   0.822   3.406   1.909 -0.1797 -0.1491  0.1116
  692SOL    MW4 2768   0.766   3.348   1.874 -0.5362  0.2980 -0.0643
  693SOL     OW 2769   1.214   2.316   1.257  0.0075 -0.5497  0.0442
  693SOL    HW2 2770   1.284   2.373   1.227  0.1316  0.0029  1.3153
  693SOL    HW3 2771   1.251   2.228   1.254  0.2859 -0.4133 -0.6019
  693SOL    MW4 2772   1.228   2.312   1.253  0.0606 -0.4588  0.1266
  694SOL     OW 2773   1.149   4.013   1.161  0.1511  0.2082  0.0646
  694SOL    HW2 2774   1.196   4.063   1.227  0.5332 -1.0142  0.7446
  694SOL    HW3 2775   1.201   4.022   1.082  0.1751  0.9355  0.1628
  694SOL    MW4 2776   1.162   4.021   1.159  0.2046  0.1429  0.1672
  695SOL     OW 2777   0.938   3.530   0.331 -0.2507 -1.0185  0.0827
  695SOL    HW2 2778   1.029   3.558   0.336 -0.2770 -0.4584 -2.1207
  695SOL    HW3 2779   0.937   3.444   0.374  1.0098 -0.3922  1.4197
  695SOL    MW4 2780   0.950   3.522   0.337 -0.0878 -0.8620 -0.0316
  696SOL     OW 2781   3.966   0.279   0.654  0.0788  0.1680  0.0652
  696SOL    HW2 2782   3.920   0.211   0.704  0.0735  1.2216  1.5016
  696SOL    HW3 2783   4.056   0.277   0.686 -0.4867  2.5363  1.9739
  696SOL    MW4 2784   3.972   0.270   0.665  0.0035  0.6195  0.5065
  697SOL     OW 2785   1.181   4.535   0.926  0.3447  0.0181  0.0003
  697SOL    HW2 2786   1.127   4.481   0.985 -0.4517 -0.0364 -0.7680
  697SOL    HW3 2787   1.118   4.574   0.865  0.8801  2.0454  0.7118
  697SOL    MW4 2788   1.165   4.533   0.926  0.3103  0.2784 -0.0072
  698SOL     OW 2789   1.439   4.225   1.766  0.1642 -0.0651  0.1236
  698SOL    HW2 2790   1.501   4.274   1.820 -0.9707  0.3363  1.0872
  698SOL    HW3 2791   1.432   4.140   1.809  0.9927 -0.5633 -0.7029
  698SOL    MW4 2792   1.446   4.221   1.778  0.1238 -0.0779  0.1417
  699SOL     OW 2793   1.672   0.933   0.792 -0.7179 -0.3736  0.2167
  699SOL    HW2 2794   1.747   0.881   0.823 -0.3520 -0.6593 -1.1270
  699SOL    HW3 2795   1.596   0.878   0.808 -0.4665 -0.7724  0.0481
  699SOL    MW4 2796   1.672   0.919   0.798 -0.6365 -0.4639  0.0172
  700SOL     OW 2797   3.250   2.607   0.991  0.0436 -0.0179  0.3389
  700SOL    HW2 2798   3.185   2.574   0.929 -0.2953  0.0692  0.6493
  700SOL    HW3 2799   3.321   2.543   0.987  1.7577  1.8972 -2.9763
  700SOL    MW4 2800   3.251   2.595   0.982  0.2250  0.2463 -0.0575
  701SOL     OW 2801   4.078   1.186   1.511 -0.3160 -0.0682 -0.2119
  701SOL    HW2 2802   4.149   1.237   1.471 -0.4256  0.1201 -0.1682
  701SOL    HW3 2803   4.123   1.115   1.557 -0.2111 -0.4760 -0.9373
  701SOL    MW4 2804   4.093   1.183   1.512 -0.3166 -0.0971 -0.3018
  702SOL     OW 2805   2.245   2.782   1.821 -0.1466  0.2046  0.2641
  702SOL    HW2 2806   2.231   2.805   1.729 -1.2789  0.6471  0.5330
  702SOL    HW3 2807   2.280   2.862   1.860  1.2256 -0.2740  0.0240
  702SOL    MW4 2808   2.248   2.796   1.814 -0.1150  0.1998  0.2679
  703SOL     OW 2809   0.872   2.640   1.056  0.0966 -0.5459  0.1669
  703SOL    HW2 2810   0.871   2.661   1.149  2.9945 -0.1624  0.1589
  703SOL    HW3 2811   0.917   2.556   1.050 -0.0478 -0.5647 -0.8955
  703SOL    MW4 2812   0.878   2.632   1.067  0.4599 -0.4978  0.0257
  704SOL     OW 2813   0.366   4.101   1.728 -0.4475 -0.3557 -0.7313
  704SOL    HW2 2814   0.445   4.069   1.773  0.7829  1.1550 -1.7305
  704SOL    HW3 2815   0.309   4.131   1.799  0.1458 -0.8682 -0.0250
  704SOL    MW4 2816   0.369   4.101   1.744 -0.2069 -0.2240 -0.7699
  705SOL     OW 2817   0.502   0.794   0.716 -0.6279  0.6384  0.4137
  705SOL    HW2 2818   0.526   0.884   0.696 -2.1049  1.1335  0.7815
  705SOL    HW3 2819   0.579   0.742   0.692  1.2733  2.2746  2.7386
  705SOL    MW4 2820   0.515   0.799   0.711 -0.5720  0.9196  0.7690
  706SOL     OW 2821   0.691   3.084   2.252 -0.0992  0.1267  0.2821
  706SOL    HW2 2822   0.641   3.155   2.212 -0.5667 -0.4075 -0.0911
  706SOL    HW3 2823   0.678   3.009   2.193  0.7564 -0.1476  0.4312
  706SOL    MW4 2824   0.682   3.083   2.239 -0.0480  0.0200  0.2526
  707SOL     OW 2825   2.774   0.955   0.902 -0.0999  0.0412  0.3804
  707SOL    HW2 2826   2.800   0.876   0.854  0.6712  0.7707 -0.4249
  707SOL    HW3 2827   2.841   0.964   0.970 -0.0055  0.1807  0.2687
  707SOL    MW4 2828   2.786   0.946   0.904  0.0143  0.1558  0.2594
  708SOL     OW 2829   4.315   2.395   1.237  0.6983  0.9259 -0.2683
  708SOL    HW2 2830   4.259   2.425   1.166  0.9068  0.4910 -0.6191
  708SOL    HW3 2831   4.348   2.476   1.277  1.0255  1.1688 -1.0206
  708SOL    MW4 2832   4.312   2.410   1.233  0.7690  0.9005 -0.4138
  709SOL     OW 2833   3.101   4.463   1.647 -0.6697 -0.6462 -0.5083
  709SOL    HW2 2834   3.007   4.475   1.650 -0.5125  0.4084  0.5138
  709SOL    HW3 2835   3.126   4.490   1.558 -1.1855  0.1897 -0.4053
  709SOL    MW4 2836   3.092   4.468   1.636 -0.7170 -0.3968 -0.3598
  710SOL     OW 2837   0.251   4.606   0.423 -0.0328  0.4684  0.2548
  710SOL    HW2 2838   0.182   4.549   0.457  0.0792  0.7339  0.9326
  710SOL    HW3 2839   0.330   4.581   0.471  0.5252 -0.3649 -1.0589
  710SOL    MW4 2840   0.253   4.595   0.434  0.0556  0.3935  0.1709
  711SOL     OW 2841   1.988   0.958   0.604  0.0932 -0.0492  0.2380
  711SOL    HW2 2842   2.030   1.022   0.546  0.4442 -1.3911 -1.0258
  711SOL    HW3 2843   1.894   0.972   0.591  0.1539 -1.1850 -1.6602
  711SOL    MW4 2844   1.981   0.969   0.595  0.1475 -0.3761 -0.1792
  712SOL     OW 2845   0.673   2.127   0.880 -0.1853  0.9253  0.1432
  712SOL    HW2 2846   0.754   2.088   0.913  1.1070  4.0295  0.8366
  712SOL    HW3 2847   0.678   2.116   0.785  0.4231 -0.0803  0.2900
  712SOL    MW4 2848   0.684   2.121   0.871  0.0655  1.2022  0.2540
  713SOL     OW 2849   0.731   0.619   0.640 -0.3570  0.3413 -0.4941
  713SOL    HW2 2850   0.777   0.552   0.690 -0.7032  0.8478  0.5255
  713SOL    HW3 2851   0.772   0.618   0.554 -0.3571 -1.1753 -0.4882
  713SOL    MW4 2852   0.742   0.610   0.636 -0.4027  0.2080 -0.3588
  714SOL     OW 2853   3.444   3.971   1.948 -0.2207  0.1367  0.1249
  714SOL    HW2 2854   3.503   3.901   1.920 -0.8124 -0.3905  0.1735
  714SOL    HW3 2855   3.367   3.961   1.893 -0.4198  0.5830  0.3201
  714SOL    MW4 2856   3.442   3.960   1.937 -0.3250  0.1261  0.1571
  715SOL     OW 2857   3.994   4.548   1.741 -0.0943  0.6334 -0.0261
  715SOL    HW2 2858   4.067   4.604   1.714  1.5327 -0.2493  2.4029
  715SOL    HW3 2859   3.939   4.606   1.795 -1.8018  1.5938 -2.7339
  715SOL    MW4 2860   3.997   4.563   1.745 -0.1049  0.6436 -0.0629
  716SOL     OW 2861   3.416   3.891   0.235 -0.0135 -0.2130 -0.1554
  716SOL    HW2 2862   3.388   3.822   0.296  0.1292  0.5589  0.8030
  716SOL    HW3 2863   3.488   3.852   0.186 -0.9120 -1.2634 -0.6927
  716SOL    MW4 2864   3.422   3.877   0.237 -0.1133 -0.2498 -0.0999
  717SOL     OW 2865   3.323   3.863   1.546 -0.3801  0.5413 -0.0280
  717SOL    HW2 2866   3.326   3.956   1.522 -0.0486  0.3938 -0.5439
  717SOL    HW3 2867   3.230   3.840   1.539 -0.2377  0.3984 -1.5354
  717SOL    MW4 2868   3.311   3.872   1.542 -0.3176  0.5030 -0.2949
  718SOL     OW 2869   2.368   4.610   1.209 -0.2403 -0.2707 -0.5866
  718SOL    HW2 2870   2.420   4.532   1.194  1.1377  0.5295 -0.0729
  718SOL    HW3 2871   2.375   4.626   1.303 -0.4335  0.5094 -0.7004
  718SOL    MW4 2872   2.376   4.602   1.219 -0.0840 -0.0622 -0.5338
  719SOL     OW 2873   0.240   0.433   0.400 -0.2970  0.5540 -0.3656
  719SOL    HW2 2874   0.196   0.382   0.467 -1.2079  0.0689 -1.3238
  719SOL    HW3 2875   0.328   0.449   0.436  0.3717 -2.5735 -0.4705
  719SOL    MW4 2876   0.246   0.429   0.414 -0.3289  0.0774 -0.5059
  720SOL     OW 2877   0.535   3.459   0.423  0.7498  0.2712  0.2781
  720SOL    HW2 2878   0.564   3.424   0.507  2.4662  0.5108 -0.2116
  720SOL    HW3 2879   0.593   3.533   0.406  0.1829  0.4475 -0.9660
  720SOL    MW4 2880   0.546   3.464   0.432  0.9015  0.3261  0.0494
  721SOL     OW 2881   0.755   4.161   0.573  0.2857  0.1310  0.7360
  721SOL    HW2 2882   0.803   4.085   0.540  0.0720  0.4177 -0.2331
  721SOL    HW3 2883   0.772   4.161   0.667  1.7723 -0.0536  0.4674
  721SOL    MW4 2884   0.763   4.151   0.581  0.4536  0.1445  0.5727
  722SOL     OW 2885   0.056   1.385   1.199  0.5598 -0.5290 -0.2851
  722SOL    HW2 2886   0.104   1.378   1.282  2.6021  0.7538 -1.3081
  722SOL    HW3 2887   0.052   1.479   1.182 -0.9171 -0.7203 -1.0506
  722SOL    MW4 2888   0.062   1.396   1.208  0.6344 -0.3850 -0.5211
  723SOL     OW 2889   0.798   3.305   1.105 -0.0764  0.0452  0.3358
  723SOL    HW2 2890   0.712   3.344   1.122  0.3383  1.0097  0.2634
  723SOL    HW3 2891   0.831   3.353   1.030  0.0493 -1.1033 -0.3551
  723SOL    MW4 2892   0.791   3.316   1.098 -0.0051  0.0210  0.2351
  724SOL     OW 2893   2.808   4.328   0.240  0.0494  0.4609  0.1005
  724SOL    HW2 2894   2.819   4.271   0.316 -0.8183 -0.9513 -0.8031
  724SOL    HW3 2895   2.714   4.347   0.238  0.0926  0.6299 -0.5207
  724SOL    MW4 2896   2.797   4.323   0.250 -0.0594  0.2969 -0.1007
  725SOL     OW 2897   2.933   4.391   0.982 -0.1044  0.5801 -0.2550
  725SOL    HW2 2898   2.901   4.393   0.892  0.7327  0.0492 -0.5697
  725SOL    HW3 2899   2.878   4.455   1.028 -0.6516  0.7306 -1.0957
  725SOL    MW4 2900   2.921   4.400   0.976 -0.0662  0.5299 -0.4074
  726SOL     OW 2901   0.812   1.357   1.158  0.5908  0.2872  0.2428
  726SOL    HW2 2902   0.736   1.302   1.178  1.5007 -1.3211 -0.6264
  726SOL    HW3 2903   0.876   1.297   1.121  1.8089  1.8607 -0.2584
  726SOL    MW4 2904   0.811   1.342   1.156  0.8716  0.2826  0.0620
  727SOL     OW 2905   0.245   3.600   2.202  0.1718 -0.0339  0.1676
  727SOL    HW2 2906   0.266   3.614   2.110  1.4014  0.2412  0.4802
  727SOL    HW3 2907   0.165   3.548   2.201  0.0724  0.1382 -1.0554
  727SOL    MW4 2908   0.237   3.595   2.190  0.3209  0.0251  0.0475
  728SOL     OW 2909   4.466   2.314   1.562 -0.2243  0.1535 -0.4615
  728SOL    HW2 2910   4.534   2.247   1.553 -0.5685 -0.4434  1.2853
  728SOL    HW3 2911   4.384   2.264   1.562 -0.5636  0.7115 -0.5883
  728SOL    MW4 2912   4.464   2.298   1.561 -0.3145  0.1484 -0.2478
  729SOL     OW 2913   1.569   1.523   1.432 -0.7250 -0.6493  0.7449
  729SOL    HW2 2914   1.621   1.572   1.495 -0.7934 -1.1010  1.1541
  729SOL    HW3 2915   1.544   1.587   1.366  1.6832 -0.7425 -0.2956
  729SOL    MW4 2916   1.573   1.538   1.431 -0.4163 -0.7212  0.6616
  730SOL     OW 2917   3.527   0.299   2.064  0.2136  0.4511 -0.4318
  730SOL    HW2 2918   3.580   0.285   2.142 -1.8508 -2.0417  0.5764
  730SOL    HW3 2919   3.558   0.383   2.029  3.0925  0.2470  1.4596
  730SOL    MW4 2920   3.538   0.308   2.070  0.3211  0.0953 -0.0492
  731SOL     OW 2921   1.955   0.150   0.399 -0.0704  0.2569  0.1647
  731SOL    HW2 2922   1.933   0.243   0.397  1.5060  0.6271 -1.0160
  731SOL    HW3 2923   1.893   0.111   0.461 -0.4961  2.1461  0.9343
  731SOL    MW4 2924   1.944   0.157   0.407  0.0814  0.5550  0.1104
  732SOL     OW 2925   1.995   3.917   1.462  0.3229  0.2291  0.1851
  732SOL    HW2 2926   1.938   3.937   1.536  0.8910  0.5180  0.5491
  732SOL    HW3 2927   1.942   3.862   1.405 -1.3166  2.8206 -0.8869
  732SOL    MW4 2928   1.980   3.912   1.464  0.1815  0.6091  0.0917
  733SOL     OW 2929   2.789   4.019   1.864 -0.5055  0.1387  0.1942
  733SOL    HW2 2930   2.766   3.986   1.951 -0.2512  0.0458  0.2245
  733SOL    HW3 2931   2.884   4.031   1.867 -0.8085  2.6580  0.8280
  733SOL    MW4 2932   2.798   4.017   1.876 -0.5119  0.4588  0.2818
  734SOL     OW 2933   3.753   1.480   0.473 -0.0057 -0.3528  0.4707
  734SOL    HW2 2934   3.672   1.525   0.496  0.3379 -0.5818  2.1670
  734SOL    HW3 2935   3.744   1.460   0.380 -1.5899  0.2388  0.4924
  734SOL    MW4 2936   3.741   1.483   0.464 -0.1694 -0.3049  0.6974
  735SOL     OW 2937   3.368   1.785   1.842 -0.2528  0.1210 -0.1613
  735SOL    HW2 2938   3.394   1.693   1.836  0.0936  0.1026  1.6235
  735SOL    HW3 2939   3.440   1.832   1.799 -0.4445 -0.4204 -1.1096
  735SOL    MW4 2940   3.381   1.779   1.835 -0.2324  0.0472 -0.0509
  736SOL     OW 2941   2.905   3.147   1.582 -0.1501  0.1947  0.4984
  736SOL    HW2 2942   2.840   3.077   1.573  0.1054  0.0564 -0.3766
  736SOL    HW3 2943   2.859   3.218   1.626 -0.4232 -0.5130  1.3621
  736SOL    MW4 2944   2.891   3.147   1.586 -0.1524  0.0831  0.4969
  737SOL     OW 2945   1.693   3.676   1.496 -0.3020  0.4237 -0.1303
  737SOL    HW2 2946   1.749   3.634   1.560 -0.6073  0.0880 -0.0852
  737SOL    HW3 2947   1.743   3.672   1.414 -0.2102  0.2289 -0.0652
  737SOL    MW4 2948   1.707   3.670   1.493 -0.3302  0.3537 -0.1158
  738SOL     OW 2949   1.389   0.335   0.332 -0.4931  0.1818 -0.0017
  738SOL    HW2 2950   1.414   0.282   0.257  0.4311  2.3608 -1.2652
  738SOL    HW3 2951   1.442   0.302   0.404  1.8435  0.9533 -1.3360
  738SOL    MW4 2952   1.399   0.324   0.332 -0.0629  0.5711 -0.3444
  739SOL     OW 2953   3.663   3.945   0.587 -0.0529 -0.1072 -0.1761
  739SOL    HW2 2954   3.624   4.011   0.529  0.7583 -0.6595 -1.3620
  739SOL    HW3 2955   3.749   3.928   0.549  0.5877 -0.3018  1.3428
  739SOL    MW4 2956   3.669   3.952   0.574  0.1387 -0.2058 -0.1321
  740SOL     OW 2957   1.158   2.762   0.276 -0.3533  0.0721 -0.5385
  740SOL    HW2 2958   1.215   2.706   0.328  0.4007  0.3807 -1.0177
  740SOL    HW3 2959   1.198   2.764   0.189 -1.8860 -0.8731 -1.2949
  740SOL    MW4 2960   1.170   2.755   0.272 -0.4561 -0.0119 -0.7015
  741SOL     OW 2961   0.189   2.846   1.540  0.3850 -0.2251  0.5551
  741SOL    HW2 2962   0.248   2.861   1.466  0.1381  1.9364  0.7521
  741SOL    HW3 2963   0.173   2.752   1.539 -0.3320 -0.1324 -2.7001
  741SOL    MW4 2964   0.195   2.836   1.530  0.2579  0.0723  0.1516
  742SOL     OW 2965   1.783   2.067   1.266 -0.1720 -0.0853  0.1252
  742SOL    HW2 2966   1.718   2.017   1.315 -1.8020  1.9495  0.0772
  742SOL    HW3 2967   1.800   2.144   1.319  0.7509  0.3698 -0.8024
  742SOL    MW4 2968   1.777   2.071   1.279 -0.2653  0.2432 -0.0035
  743SOL     OW 2969   3.559   3.613   1.095  0.1285 -0.4106  0.2110
  743SOL    HW2 2970   3.633   3.597   1.036 -0.7607  0.4975 -1.1925
  743SOL    HW3 2971   3.510   3.530   1.096 -1.4468  0.3988 -2.6868
  743SOL    MW4 2972   3.562   3.600   1.087 -0.1966 -0.1840 -0.3565
  744SOL     OW 2973   1.670   3.084   1.698 -0.6770 -0.4765 -0.1568
  744SOL    HW2 2974   1.650   3.161   1.646 -0.0041  1.5004  2.3812
  744SOL    HW3 2975   1.585   3.053   1.730 -0.7656  0.6637  0.7422
  744SOL    MW4 2976   1.656   3.090   1.696 -0.5999 -0.0653  0.2966
  745SOL     OW 2977   3.956   0.259   1.007 -0.1514  0.7208  0.2191
  745SOL    HW2 2978   4.040   0.299   1.028  0.1613 -0.1213  0.5704
  745SOL    HW3 2979   3.891   0.326   1.030  0.3372  0.8246  1.3376
  745SOL    MW4 2980   3.959   0.273   1.013 -0.0457  0.6234  0.4130
  746SOL     OW 2981   0.084   0.827   2.274  0.1562  0.3754  0.0258
  746SOL    HW2 2982   0.147   0.781   2.328  0.1865  1.1819  0.6798
  746SOL    HW3 2983   0.116   0.816   2.185 -0.3302 -1.6497  0.0673
  746SOL    MW4 2984   0.096   0.819   2.269  0.0960  0.2146  0.1176
  747SOL     OW 2985   2.125   2.556   0.658 -0.3513  0.4670 -0.2015
  747SOL    HW2 2986   2.102   2.636   0.611 -0.3120  2.3714  2.8585
  747SOL    HW3 2987   2.057   2.547   0.725  0.1439 -1.5806  0.0780
  747SOL    MW4 2988   2.113   2.565   0.661 -0.2808  0.4481  0.2391
  748SOL     OW 2989   3.138   4.666   1.417  0.1607  0.2404 -0.0575
  748SOL    HW2 2990   3.223   4.666   1.462 -0.2648 -0.7626  0.7841
  748SOL    HW3 2991   3.078   4.706   1.480  0.1888  1.8025 -1.0176
  748SOL    MW4 2992   3.141   4.671   1.432  0.1083  0.3142 -0.0732
  749SOL     OW 2993   1.356   1.863   2.249  0.0140  0.1975 -0.1426
  749SOL    HW2 2994   1.284   1.926   2.256  0.9246  1.2364 -0.1246
  749SOL    HW3 2995   1.404   1.890   2.171 -0.3450 -1.2748 -0.8988
  749SOL    MW4 2996   1.353   1.875   2.240  0.0868  0.1403 -0.2400
  750SOL     OW 2997   4.103   0.700   0.612  0.2073  0.0386 -0.4562
  750SOL    HW2 2998   4.182   0.658   0.646  0.4649 -0.6761 -1.9110
  750SOL    HW3 2999   4.032   0.667   0.667  1.1054  2.0389  2.0147
  750SOL    MW4 3000   4.104   0.690   0.624  0.3598  0.2082 -0.3221
  751SOL     OW 3001   2.839   3.570   1.479  0.7787 -0.2837 -0.2773
  751SOL    HW2 3002   2.887   3.505   1.428  0.8430 -0.6400  0.2239
  751SOL    HW3 3003   2.777   3.518   1.530  0.4636  0.0995 -0.2730
  751SOL    MW4 3004   2.837   3.555   1.479  0.7456 -0.2802 -0.2106
  752SOL     OW 3005   2.918   1.365   0.784 -0.0063  0.8085 -0.1631
  752SOL    HW2 3006   3.012   1.356   0.766 -0.1935  1.8999 -1.8006
  752SOL    HW3 3007   2.879   1.383   0.699 -1.6184  1.1223  0.6211
  752SOL    MW4 3008   2.925   1.366   0.771 -0.2437  0.9939 -0.2757
  753SOL     OW 3009   3.927   0.417   2.210 -0.1448 -0.0882  0.5734
  753SOL    HW2 3010   3.915   0.502   2.251 -1.5794  0.0183 -0.0279
  753SOL    HW3 3011   3.843   0.372   2.224  0.0280 -0.7702 -0.5493
  753SOL    MW4 3012   3.914   0.422   2.217 -0.3113 -0.1641  0.3460
  754SOL     OW 3013   3.818   3.284   1.896  0.1257  0.3783 -0.4611
  754SOL    HW2 3014   3.809   3.281   1.801 -0.0500  0.5516 -0.4500
  754SOL    HW3 3015   3.751   3.223   1.928 -0.7499  1.3505 -0.3954
  754SOL    MW4 3016   3.808   3.275   1.888 -0.0130  0.5294 -0.4510
  755SOL     OW 3017   3.940   4.096   1.308 -0.3222  0.5581 -0.1954
  755SOL    HW2 3018   3.960   4.011   1.347  1.0235  0.7109 -0.5306
  755SOL    HW3 3019   3.889   4.075   1.230  1.2836 -0.0545 -1.1161
  755SOL    MW4 3020   3.936   4.082   1.303  0.0672  0.4974 -0.3611
  756SOL     OW 3021   3.050   3.066   0.752 -0.5009  0.2602  0.5095
  756SOL    HW2 3022   2.999   3.132   0.798 -0.1778 -0.0256  1.2857
  756SOL    HW3 3023   3.140   3.101   0.751 -0.4333  0.0866  0.4413
  756SOL    MW4 3024   3.055   3.079   0.758 -0.4494  0.1996  0.6029
  757SOL     OW 3025   0.888   1.348   0.828  0.8240  0.7109 -0.0518
  757SOL    HW2 3026   0.920   1.438   0.826  0.3951  0.8655  0.1046
  757SOL    HW3 3027   0.941   1.305   0.896  0.2917  1.1223  0.6250
  757SOL    MW4 3028   0.899   1.354   0.837  0.6972  0.7856  0.0581
  758SOL     OW 3029   0.118   4.171   1.404 -0.0283  0.1193  0.1201
  758SOL    HW2 3030   0.146   4.093   1.452 -0.2208 -0.7329 -1.1188
  758SOL    HW3 3031   0.023   4.170   1.408 -0.1088 -0.7909 -1.5352
  758SOL    MW4 3032   0.109   4.161   1.410 -0.0643 -0.1133 -0.2618
  759SOL     OW 3033   0.360   3.401   1.368  0.1107  0.2363 -0.2829
  759SOL    HW2 3034   0.290   3.394   1.303 -0.3974  2.2980  0.0237
  759SOL    HW3 3035   0.438   3.371   1.321 -0.2799  1.5501 -1.8228
  759SOL    MW4 3036   0.361   3.396   1.353 -0.0079  0.6816 -0.4456
  760SOL     OW 3037   4.364   0.683   2.354 -0.2790  0.7575  0.0886
  760SOL    HW2 3038   4.449   0.721   2.332 -0.4238  0.8796 -0.2634
  760SOL    HW3 3039   4.302   0.731   2.299 -0.6044  0.8403  0.5217
  760SOL    MW4 3040   4.367   0.695   2.344 -0.3410  0.7846  0.0993
  761SOL     OW 3041   0.091   0.239   0.569 -0.3220  0.1140 -0.3756
  761SOL    HW2 3042   0.085   0.172   0.636  1.3125  0.5089  0.2092
  761SOL    HW3 3043   0.113   0.191   0.489  1.6166 -0.0204  0.1966
  761SOL    MW4 3044   0.093   0.224   0.567  0.1494  0.1483 -0.2229
  762SOL     OW 3045   2.331   2.320   1.972 -0.4325 -0.1518  0.0047
  762SOL    HW2 3046   2.308   2.344   2.062 -1.2012 -0.1532 -0.1854
  762SOL    HW3 3047   2.425   2.302   1.975 -0.1780  1.2114  0.5165
  762SOL    MW4 3048   2.340   2.321   1.984 -0.5003  0.0279  0.0471
  763SOL     OW 3049   2.297   0.041   2.146 -0.4967  0.0749 -0.1971
  763SOL    HW2 3050   2.377   0.008   2.187  0.1308  1.5959 -0.1542
  763SOL    HW3 3051   2.226  -0.010   2.186  0.5584 -2.4786 -1.4684
  763SOL    MW4 3052   2.298   0.030   2.156 -0.2747 -0.0613 -0.3592
  764SOL     OW 3053   2.100   4.178   0.690 -0.0646  0.1776  0.1807
  764SOL    HW2 3054   2.084   4.085   0.701  0.6276 -0.0220 -0.4280
  764SOL    HW3 3055   2.158   4.183   0.613  1.3853  0.9753  1.3117
  764SOL    MW4 3056   2.105   4.166   0.681  0.2180  0.2565  0.2496
  765SOL     OW 3057   1.204   3.542   0.955 -0.0133  0.0346  0.7853
  765SOL    HW2 3058   1.211   3.592   0.874 -1.8467 -2.0697 -0.7385
  765SOL    HW3 3059   1.156   3.599   1.014 -1.2331  0.4751 -0.5985
  765SOL    MW4 3060   1.199   3.556   0.952 -0.4162 -0.1849  0.4016
  766SOL     OW 3061   2.700   0.952   0.502 -0.3081  0.2009  0.0638
  766SOL    HW2 3062   2.792   0.966   0.525 -0.0397 -0.2050 -0.7700
  766SOL    HW3 3063   2.656   1.032   0.531  0.2554  0.2641  0.7512
  766SOL    MW4 3064   2.706   0.964   0.509 -0.1983  0.1557  0.0445
  767SOL     OW 3065   3.703   4.268   1.780 -0.3219 -0.2747  0.1838
  767SOL    HW2 3066   3.729   4.176   1.789  0.2665 -0.2101 -0.7375
  767SOL    HW3 3067   3.717   4.305   1.867 -2.6570 -1.5525  1.1511
  767SOL    MW4 3068   3.708   4.261   1.793 -0.5524 -0.4348  0.1898
  768SOL     OW 3069   2.953   0.577   0.494  0.0928 -0.0034 -0.1331
  768SOL    HW2 3070   2.982   0.525   0.569  0.9776 -0.2540 -0.6388
  768SOL    HW3 3071   2.911   0.514   0.436  0.2654  0.0262 -0.2891
  768SOL    MW4 3072   2.951   0.562   0.496  0.2323 -0.0326 -0.2204
  769SOL     OW 3073   3.889   0.391   0.425 -0.1480 -0.0318 -0.2097
  769SOL    HW2 3074   3.936   0.356   0.500 -1.0480  0.8984  0.7971
  769SOL    HW3 3075   3.932   0.474   0.406 -0.4816  0.1530 -0.1645
  769SOL    MW4 3076   3.901   0.398   0.432 -0.3108  0.1153 -0.0709
  770SOL     OW 3077   2.704   4.526   0.630 -0.0615  0.5994 -0.4856
  770SOL    HW2 3078   2.661   4.581   0.695  0.7281  0.8739 -0.1871
  770SOL    HW3 3079   2.746   4.457   0.681  1.1774  1.2303 -0.6270
  770SOL    MW4 3080   2.704   4.525   0.645  0.2062  0.7188 -0.4649
  771SOL     OW 3081   1.341   2.576   1.171 -0.2728 -0.2652  0.0283
  771SOL    HW2 3082   1.335   2.601   1.263  1.1745  0.0827  0.0390
  771SOL    HW3 3083   1.268   2.621   1.129  0.7956  1.9756  0.4905
  771SOL    MW4 3084   1.331   2.585   1.178  0.0592  0.0764  0.0907
  772SOL     OW 3085   0.379   2.363   0.702 -0.2826  0.0056  0.6870
  772SOL    HW2 3086   0.349   2.392   0.789  0.6031 -1.9208  1.6809
  772SOL    HW3 3087   0.397   2.270   0.714 -0.8342 -0.4311 -1.7862
  772SOL    MW4 3088   0.378   2.355   0.715 -0.2385 -0.3062  0.4919
  773SOL     OW 3089   1.419   3.620   1.430  0.5137 -0.0268 -0.4542
  773SOL    HW2 3090   1.500   3.635   1.479  0.3048 -0.5043  0.0460
  773SOL    HW3 3091   1.385   3.708   1.412  0.9978  0.1682 -0.4270
  773SOL    MW4 3092   1.426   3.634   1.434  0.5500 -0.0641 -0.3847
  774SOL     OW 3093   2.826   4.312   0.732 -0.4169  0.0694  0.6183
  774SOL    HW2 3094   2.773   4.271   0.801 -0.7520  0.4339  0.5807
  774SOL    HW3 3095   2.866   4.238   0.686 -0.8177 -0.2087  0.7073
  774SOL    MW4 3096   2.824   4.297   0.735 -0.5140  0.0808  0.6251
  775SOL     OW 3097   4.252   3.285   1.498 -0.2088 -0.2436  0.3589
  775SOL    HW2 3098   4.250   3.309   1.591 -0.2207 -1.0995  0.5807
  775SOL    HW3 3099   4.272   3.191   1.498 -0.5211 -0.3103 -0.4897
  775SOL    MW4 3100   4.254   3.276   1.510 -0.2516 -0.3653  0.2762
  776SOL     OW 3101   2.982   1.128   1.985  0.3196  0.3795 -0.1117
  776SOL    HW2 3102   2.921   1.059   1.957 -0.1766  1.5054 -1.9359
  776SOL    HW3 3103   3.066   1.103   1.948  0.3252  0.3073 -0.0496
  776SOL    MW4 3104   2.985   1.116   1.976  0.2549  0.5185 -0.3442
  777SOL     OW 3105   0.915   0.894   0.705 -0.4875  0.2445  0.1828
  777SOL    HW2 3106   0.924   0.915   0.612  0.3237 -0.6673  0.0475
  777SOL    HW3 3107   0.858   0.963   0.740 -1.5021  0.1188 -1.1697
  777SOL    MW4 3108   0.908   0.906   0.697 -0.5143  0.1076 -0.0135
  778SOL     OW 3109   3.057   4.024   1.902  0.0105 -0.2256 -0.2081
  778SOL    HW2 3110   3.082   3.932   1.896 -1.4019 -0.6475  0.2386
  778SOL    HW3 3111   3.102   4.066   1.828  0.7889 -1.2373 -0.3196
  778SOL    MW4 3112   3.067   4.017   1.891 -0.0731 -0.4147 -0.1639
  779SOL     OW 3113   1.473   1.182   2.263 -0.0939 -0.1807  0.0618
  779SOL    HW2 3114   1.428   1.150   2.341 -0.1621  0.3332  0.2372
  779SOL    HW3 3115   1.564   1.155   2.275 -0.0077  0.3097  0.5511
  779SOL    MW4 3116   1.479   1.174   2.275 -0.0916 -0.0482  0.1495
  780SOL     OW 3117   2.833   3.736   0.350  0.5419 -0.0657 -0.0482
  780SOL    HW2 3118   2.861   3.655   0.393  0.7772  0.3836  0.6532
  780SOL    HW3 3119   2.756   3.711   0.299  0.4009 -0.6552  0.4457
  780SOL    MW4 3120   2.827   3.722   0.349  0.5544 -0.0842  0.1095
  781SOL     OW 3121   0.599   1.029   1.409  0.2507  0.0310 -0.1431
  781SOL    HW2 3122   0.516   1.046   1.454  0.6978 -0.6117  0.9466
  781SOL    HW3 3123   0.583   0.948   1.361  0.8478 -1.1941  1.6633
  781SOL    MW4 3124   0.586   1.020   1.409  0.3885 -0.2154  0.2390
  782SOL     OW 3125   0.205   3.549   0.941  0.5810  0.1124  0.3254
  782SOL    HW2 3126   0.212   3.478   1.005 -1.0185 -1.7977 -1.5194
  782SOL    HW3 3127   0.290   3.593   0.943  1.8570 -2.3199  0.9871
  782SOL    MW4 3128   0.217   3.546   0.950  0.5383 -0.4605  0.1693
  783SOL     OW 3129   1.841   3.356   1.510  0.0924  0.0256 -0.7305
  783SOL    HW2 3130   1.890   3.398   1.440  0.1556  0.3194 -0.5087
  783SOL    HW3 3131   1.833   3.423   1.578 -0.0826 -0.2161 -0.5113
  783SOL    MW4 3132   1.847   3.370   1.509  0.0776  0.0325 -0.6723
  784SOL     OW 3133   2.686   0.356   2.204 -0.8004  0.1341  0.2932
  784SOL    HW2 3134   2.771   0.385   2.169 -0.8464 -0.5924 -0.4456
  784SOL    HW3 3135   2.698   0.359   2.299 -0.2315  0.8708  0.2060
  784SOL    MW4 3136   2.699   0.360   2.212 -0.7314  0.1354  0.1842
  785SOL     OW 3137   2.225   2.113   1.787 -0.5134  0.1052  0.0239
  785SOL    HW2 3138   2.262   2.193   1.826  0.9960 -1.2346  1.4070
  785SOL    HW3 3139   2.147   2.095   1.841 -0.1855 -0.0090  0.4630
  785SOL    MW4 3140   2.219   2.122   1.800 -0.2710 -0.0866  0.2643
  786SOL     OW 3141   4.443   3.055   0.304  0.4744 -0.1944  0.0554
  786SOL    HW2 3142   4.531   3.018   0.297  1.7879  2.5606  1.1613
  786SOL    HW3 3143   4.408   3.018   0.386  1.9204  1.2121  1.3517
  786SOL    MW4 3144   4.450   3.045   0.314  0.8385  0.3546  0.3723
  787SOL     OW 3145   0.961   0.327   0.112  0.1418  0.6777 -0.0059
  787SOL    HW2 3146   0.936   0.269   0.183 -0.6680  0.0447 -0.7995
  787SOL    HW3 3147   1.004   0.270   0.048  1.2610  1.3149  0.1631
  787SOL    MW4 3148   0.963   0.312   0.113  0.1826  0.6783 -0.0883
  788SOL     OW 3149   1.311   0.727   1.859  0.2818 -0.2138  0.0007
  788SOL    HW2 3150   1.258   0.648   1.852  0.7684 -0.4050 -2.0754
  788SOL    HW3 3151   1.389   0.708   1.807  1.1927  1.0006  0.8942
  788SOL    MW4 3152   1.314   0.714   1.851  0.4662 -0.0788 -0.1554
  789SOL     OW 3153   2.740   1.657   2.195 -0.0382 -0.1039 -0.0669
  789SOL    HW2 3154   2.654   1.618   2.213 -0.0198  0.2992  0.9036
  789SOL    HW3 3155   2.802   1.601   2.241  0.2813 -0.6933 -1.1832
  789SOL    MW4 3156   2.737   1.644   2.203  0.0064 -0.1285 -0.0861
  790SOL     OW 3157   3.817   4.212   1.035 -0.1264  0.3373  0.0710
  790SOL    HW2 3158   3.864   4.295   1.045  1.7214 -0.7128  0.2616
  790SOL    HW3 3159   3.752   4.229   0.966  1.3757  1.4472 -1.0944
  790SOL    MW4 3160   3.815   4.226   1.027  0.3156  0.3452 -0.0576
  791SOL     OW 3161   1.210   3.615   1.962  0.2206  0.1035  0.0148
  791SOL    HW2 3162   1.160   3.561   1.901  0.4374  2.2584 -2.1314
  791SOL    HW3 3163   1.300   3.584   1.953  0.1036 -0.2143 -0.0604
  791SOL    MW4 3164   1.215   3.604   1.953  0.2338  0.3459 -0.2783
  792SOL     OW 3165   0.915   4.060   1.035  0.2048 -0.3950 -0.3002
  792SOL    HW2 3166   0.998   4.053   1.081  0.0797 -0.3926 -0.0740
  792SOL    HW3 3167   0.849   4.042   1.102 -0.0460  1.1183 -0.1273
  792SOL    MW4 3168   0.917   4.057   1.050  0.1552 -0.1950 -0.2475
  793SOL     OW 3169   3.316   0.802   1.026  0.0979 -0.1026 -0.1540
  793SOL    HW2 3170   3.337   0.873   0.965  1.8264  0.4723  1.0577
  793SOL    HW3 3171   3.360   0.725   0.990 -0.8263 -0.3039 -0.8627
  793SOL    MW4 3172   3.325   0.801   1.014  0.2040 -0.0533 -0.0876
  794SOL     OW 3173   0.736   3.024   1.056 -0.2263 -0.3849 -0.8020
  794SOL    HW2 3174   0.797   3.024   0.982  3.1042  0.6827  1.8491
  794SOL    HW3 3175   0.738   3.114   1.090 -3.9072 -0.1038 -1.0665
  794SOL    MW4 3176   0.744   3.036   1.051 -0.2725 -0.2070 -0.4871
  795SOL     OW 3177   1.484   2.165   1.132 -0.2835 -0.1101  0.1007
  795SOL    HW2 3178   1.520   2.252   1.115 -2.4246  0.5436 -1.1762
  795SOL    HW3 3179   1.551   2.105   1.099  0.5391  1.0503 -0.3691
  795SOL    MW4 3180   1.498   2.169   1.126 -0.4575  0.1292 -0.1297
  796SOL     OW 3181   4.075   1.326   1.097 -0.2473 -0.0822  0.2263
  796SOL    HW2 3182   4.163   1.293   1.118 -0.8749 -1.8429  0.2108
  796SOL    HW3 3183   4.061   1.300   1.006 -0.2950  1.3081 -0.1630
  796SOL    MW4 3184   4.085   1.318   1.088 -0.3364 -0.1311  0.1729
  797SOL     OW 3185   2.054   0.441   2.153 -0.2203  0.0409 -0.5154
  797SOL    HW2 3186   2.145   0.412   2.163 -0.0414  0.5284 -0.7355
  797SOL    HW3 3187   2.041   0.447   2.058 -0.1415  1.0496 -0.4609
  797SOL    MW4 3188   2.064   0.438   2.142 -0.1863  0.2383 -0.5372
  798SOL     OW 3189   1.158   3.175   1.004 -0.1015 -0.7830  0.3825
  798SOL    HW2 3190   1.134   3.246   1.062  1.2848 -0.4887  0.6147
  798SOL    HW3 3191   1.180   3.102   1.062 -0.4130 -1.0439  0.1784
  798SOL    MW4 3192   1.158   3.175   1.019  0.0403 -0.7786  0.3862
  799SOL     OW 3193   0.631   3.140   1.424  0.2291 -0.0717  0.2524
  799SOL    HW2 3194   0.702   3.111   1.481  0.7911  0.6768 -0.0665
  799SOL    HW3 3195   0.558   3.159   1.485  0.8527  0.8061  0.7450
  799SOL    MW4 3196   0.631   3.139   1.440  0.3855  0.1428  0.2753
  800SOL     OW 3197   4.322   2.691   1.922  0.2261  0.0712 -0.1055
  800SOL    HW2 3198   4.319   2.746   2.000 -0.0016  0.3360 -0.2974
  800SOL    HW3 3199   4.413   2.699   1.891 -0.0358  1.0800 -0.6503
  800SOL    MW4 3200   4.334   2.700   1.928  0.1615  0.2392 -0.2027
  801SOL     OW 3201   3.646   0.208   0.681 -0.0679  0.2642  0.5036
  801SOL    HW2 3202   3.661   0.114   0.684  1.2278  0.4057 -1.0017
  801SOL    HW3 3203   3.636   0.234   0.773 -1.5706 -1.5000  0.8689
  801SOL    MW4 3204   3.647   0.199   0.693 -0.0952  0.0501  0.3532
  802SOL     OW 3205   0.726   4.629   0.586  0.1621  0.7111 -0.2047
  802SOL    HW2 3206   0.706   4.708   0.535  0.3251 -1.0739 -3.1748
  802SOL    HW3 3207   0.641   4.601   0.620 -0.3077  0.7638 -1.2930
  802SOL    MW4 3208   0.712   4.636   0.584  0.1216  0.4825 -0.7402
  803SOL     OW 3209   1.612   4.616   1.792  0.3198 -0.6627 -0.3230
  803SOL    HW2 3210   1.541   4.671   1.825  1.1575  0.4689 -0.3525
  803SOL    HW3 3211   1.578   4.579   1.711 -0.6610 -1.0791  0.2648
  803SOL    MW4 3212   1.598   4.619   1.786  0.3009 -0.5683 -0.2493
  804SOL     OW 3213   3.992   2.942   1.142  0.4020 -0.2069 -0.8087
  804SOL    HW2 3214   3.998   2.861   1.091  2.3220 -0.0272 -0.8949
  804SOL    HW3 3215   4.005   3.012   1.079  1.3232  0.0736 -0.3054
  804SOL    MW4 3216   3.994   2.940   1.127  0.7768 -0.1462 -0.7537
  805SOL     OW 3217   3.474   4.652   2.274 -0.3884 -0.0843  0.1188
  805SOL    HW2 3218   3.467   4.643   2.369  0.0992 -1.5324  0.0151
  805SOL    HW3 3219   3.559   4.614   2.251  0.1764  1.6269 -0.7285
  805SOL    MW4 3220   3.484   4.646   2.283 -0.2495 -0.0496 -0.0067
  806SOL     OW 3221   2.573   1.152   1.729 -0.1364 -0.3275 -0.0982
  806SOL    HW2 3222   2.608   1.155   1.641 -1.9736  0.1114 -0.8322
  806SOL    HW3 3223   2.478   1.147   1.718 -0.3310 -2.1217  1.8149
  806SOL    MW4 3224   2.565   1.152   1.716 -0.4044 -0.5063  0.0574
  807SOL     OW 3225   2.443   2.469   1.598  0.5613  0.0520 -0.6784
  807SOL    HW2 3226   2.356   2.495   1.630  0.5991 -2.4606  1.5947
  807SOL    HW3 3227   2.504   2.499   1.664  0.9617 -2.2329  0.0360
  807SOL    MW4 3228   2.439   2.476   1.611  0.6191 -0.5810 -0.2843
  808SOL     OW 3229   3.074   1.473   0.466  0.4399 -0.1251  0.8247
  808SOL    HW2 3230   3.083   1.379   0.450 -1.3414 -0.3496  1.0524
  808SOL    HW3 3231   2.984   1.484   0.498  0.5980  1.6660  0.7291
  808SOL    MW4 3232   3.063   1.462   0.468  0.2257  0.0816  0.8421
  809SOL     OW 3233   3.528   0.871   2.219  0.5055 -0.4663 -0.4619
  809SOL    HW2 3234   3.623   0.857   2.213  0.3838 -0.7288 -2.0033
  809SOL    HW3 3235   3.519   0.960   2.253  1.3042 -0.3377 -0.5755
  809SOL    MW4 3236   3.540   0.881   2.223  0.5949 -0.4840 -0.6803
  810SOL     OW 3237   2.214   1.448   0.542  0.1525  0.3711  0.5589
  810SOL    HW2 3238   2.216   1.529   0.490 -0.2224  0.4214  0.6167
  810SOL    HW3 3239   2.217   1.478   0.633 -0.8720  0.3718  0.6053
  810SOL    MW4 3240   2.215   1.463   0.547 -0.0321  0.3779  0.5727
  811SOL     OW 3241   2.998   3.973   1.011  0.3569  0.0891  0.2780
  811SOL    HW2 3242   2.927   4.026   1.049 -0.8544  0.2776 -2.1399
  811SOL    HW3 3243   3.062   4.037   0.981  0.3350  0.0378  0.1228
  811SOL    MW4 3244   2.997   3.989   1.012  0.1942  0.1072 -0.0615
  812SOL     OW 3245   3.554   3.166   1.296 -0.5731  0.0769  0.5517
  812SOL    HW2 3246   3.632   3.127   1.257 -0.2571  1.2191  0.0413
  812SOL    HW3 3247   3.491   3.094   1.300  0.5890 -0.9219  1.2281
  812SOL    MW4 3248   3.556   3.151   1.291 -0.3781  0.0958  0.5736
  813SOL     OW 3249   1.672   3.651   0.607 -0.3554  0.0872  0.5863
  813SOL    HW2 3250   1.753   3.600   0.610  0.0064  0.6473  0.3483
  813SOL    HW3 3251   1.634   3.639   0.694 -1.4011 -2.3884 -0.1832
  813SOL    MW4 3252   1.678   3.643   0.619 -0.4456 -0.1655  0.4534
  814SOL     OW 3253   2.285   3.540   1.349 -0.1034  0.3200  0.0154
  814SOL    HW2 3254   2.332   3.565   1.269  0.3163  0.0095  0.1620
  814SOL    HW3 3255   2.292   3.616   1.406 -1.2208  0.9001 -0.6027
  814SOL    MW4 3256   2.292   3.553   1.346 -0.1954  0.3556 -0.0468
  815SOL     OW 3257   2.122   3.642   1.883  0.5289 -0.2448 -0.1887
  815SOL    HW2 3258   2.174   3.593   1.947 -0.9699  0.4122  1.5735
  815SOL    HW3 3259   2.187   3.695   1.836  1.7735 -1.5131  0.0494
  815SOL    MW4 3260   2.137   3.643   1.885  0.4954 -0.3255  0.0752
  816SOL     OW 3261   2.475   0.125   1.031 -0.0006  0.0202  0.2971
  816SOL    HW2 3262   2.444   0.055   1.088 -1.4281 -0.0954 -0.5893
  816SOL    HW3 3263   2.571   0.118   1.035 -0.1067 -1.3881  0.9391
  816SOL    MW4 3264   2.484   0.115   1.039 -0.2029 -0.1808  0.2648
  817SOL     OW 3265   1.892   0.070   1.883  0.0595  0.2942  0.4859
  817SOL    HW2 3266   1.870   0.155   1.845 -0.0874 -0.0136 -0.1200
  817SOL    HW3 3267   1.822   0.011   1.853  0.0139  0.0192  1.1198
  817SOL    MW4 3268   1.880   0.073   1.874  0.0341  0.2173  0.4896
  818SOL     OW 3269   2.042   3.080   2.327  0.0725 -0.4227 -0.4779
  818SOL    HW2 3270   2.035   2.990   2.295 -0.2348 -0.6699  0.2840
  818SOL    HW3 3271   1.976   3.129   2.277 -0.8536 -0.9340  0.2366
  818SOL    MW4 3272   2.033   3.075   2.316 -0.0902 -0.5228 -0.2831
  819SOL     OW 3273   3.167   2.688   2.374  0.4289 -0.1518  0.0342
  819SOL    HW2 3274   3.166   2.664   2.466 -0.2950 -0.4465 -0.0396
  819SOL    HW3 3275   3.253   2.727   2.359  0.6212 -0.2890  0.7831
  819SOL    MW4 3276   3.178   2.690   2.384  0.3588 -0.2088  0.1233
  820SOL     OW 3277   2.081   3.104   1.480  0.0029 -0.0464 -0.0993
  820SOL    HW2 3278   2.061   3.152   1.560  1.4170  1.3743 -0.5646
  820SOL    HW3 3279   2.136   3.164   1.429 -0.9070 -0.8914 -2.1561
  820SOL    MW4 3280   2.086   3.119   1.484  0.0694  0.0295 -0.4321
  821SOL     OW 3281   2.897   1.679   0.984  0.0205 -0.0268 -0.1971
  821SOL    HW2 3282   2.804   1.657   0.992  0.0066 -0.0257 -0.3546
  821SOL    HW3 3283   2.905   1.765   1.024 -0.0287 -0.0669 -0.0995
  821SOL    MW4 3284   2.886   1.687   0.991  0.0122 -0.0320 -0.2050
  822SOL     OW 3285   0.229   0.858   1.629 -0.2893  0.0416 -0.0457
  822SOL    HW2 3286   0.171   0.842   1.554 -1.0804 -0.6028  0.7019
  822SOL    HW3 3287   0.170   0.873   1.702  0.4679 -2.1429  1.0482
  822SOL    MW4 3288   0.214   0.858   1.629 -0.2938 -0.3317  0.1973
  823SOL     OW 3289   2.059   4.353   2.181 -0.7066  0.1810 -0.3224
  823SOL    HW2 3290   2.050   4.306   2.098 -1.8300  1.6398 -1.0527
  823SOL    HW3 3291   2.137   4.316   2.221  0.4894  0.2389 -2.5453
  823SOL    MW4 3292   2.068   4.342   2.176 -0.6970  0.3811 -0.7120
  824SOL     OW 3293   1.524   2.795   1.032 -0.1434 -0.2581 -0.2487
  824SOL    HW2 3294   1.509   2.708   1.069 -0.7939 -0.8137 -1.7588
  824SOL    HW3 3295   1.490   2.856   1.097 -1.6693 -1.2290 -0.1240
  824SOL    MW4 3296   1.518   2.792   1.045 -0.4305 -0.4595 -0.4315
  825SOL     OW 3297   0.604   2.558   1.841  0.1659  0.3886  0.3006
  825SOL    HW2 3298   0.679   2.500   1.835  0.6957  1.2031 -1.1257
  825SOL    HW3 3299   0.530   2.504   1.814  0.2393 -0.3586  1.5278
  825SOL    MW4 3300   0.604   2.543   1.837  0.2455  0.3974  0.2743
  826SOL     OW 3301   0.452   4.541   0.626 -0.3420 -0.2144 -0.4533
  826SOL    HW2 3302   0.411   4.603   0.687  0.4619 -0.9127  0.8257
  826SOL    HW3 3303   0.427   4.455   0.659  1.5292 -0.6357 -0.0534
  826SOL    MW4 3304   0.443   4.538   0.639  0.0110 -0.3621 -0.2318
  827SOL     OW 3305   2.440   1.956   1.929 -0.4977  0.1835 -0.2012
  827SOL    HW2 3306   2.390   2.006   1.866  0.7108  1.0715 -0.4838
  827SOL    HW3 3307   2.506   1.910   1.877  0.4469  0.8470  0.3763
  827SOL    MW4 3308   2.442   1.956   1.914 -0.2136  0.3882 -0.1623
  828SOL     OW 3309   3.150   4.250   2.269 -0.4274 -0.4563  0.2746
  828SOL    HW2 3310   3.067   4.288   2.239 -0.1685  0.6465  0.9203
  828SOL    HW3 3311   3.215   4.317   2.250  0.1321 -0.8086  0.9229
  828SOL    MW4 3312   3.148   4.264   2.263 -0.3194 -0.3573  0.4454
  829SOL     OW 3313   0.604   4.376   0.197 -0.5950  0.3158 -0.0190
  829SOL    HW2 3314   0.643   4.363   0.110 -0.7834 -0.2648 -0.0190
  829SOL    HW3 3315   0.679   4.392   0.254 -0.3930 -0.2070 -0.1291
  829SOL    MW4 3316   0.619   4.376   0.193 -0.5932  0.1703 -0.0336
  830SOL     OW 3317   1.900   0.095   0.813  0.1171 -0.3327 -0.0069
  830SOL    HW2 3318   1.996   0.090   0.809  0.1476 -0.6146  0.7919
  830SOL    HW3 3319   1.880   0.188   0.803  0.3784 -0.4449 -1.7156
  830SOL    MW4 3320   1.910   0.107   0.811  0.1556 -0.3847 -0.1269
  831SOL     OW 3321   1.241   0.103   1.243 -0.5254  0.4252  0.0715
  831SOL    HW2 3322   1.261   0.196   1.233 -0.2574  0.3874  0.2424
  831SOL    HW3 3323   1.177   0.099   1.314  0.0152  0.4197  0.5676
  831SOL    MW4 3324   1.235   0.115   1.251 -0.4187  0.4195  0.1595
  832SOL     OW 3325   4.107   0.904   1.964  0.2521  0.6435 -0.0403
  832SOL    HW2 3326   4.119   0.863   2.049 -0.6223  0.5232  0.0273
  832SOL    HW3 3327   4.159   0.985   1.969  2.7278 -0.8703 -0.4987
  832SOL    MW4 3328   4.116   0.910   1.976  0.4634  0.4279 -0.0918
  833SOL     OW 3329   2.877   3.491   0.482  0.3848 -0.0587 -0.2467
  833SOL    HW2 3330   2.908   3.400   0.476  0.4270 -0.0384 -0.3332
  833SOL    HW3 3331   2.910   3.521   0.567  0.4706 -0.0867 -0.2701
  833SOL    MW4 3332   2.886   3.483   0.493  0.4017 -0.0597 -0.2612
  834SOL     OW 3333   1.287   4.076   0.918  0.2811 -0.3780 -0.9018
  834SOL    HW2 3334   1.314   4.165   0.939 -0.9004 -0.5480  1.4287
  834SOL    HW3 3335   1.225   4.086   0.846 -0.7793  0.8069  0.1582
  834SOL    MW4 3336   1.283   4.089   0.911 -0.0147 -0.2441 -0.4544
  835SOL     OW 3337   2.386   2.468   1.002  0.4523  0.3013  0.1659
  835SOL    HW2 3338   2.395   2.376   1.026  1.2747 -0.0611 -1.4544
  835SOL    HW3 3339   2.450   2.513   1.057 -0.4200  0.0015  1.4452
  835SOL    MW4 3340   2.396   2.462   1.012  0.4457  0.2139  0.1209
  836SOL     OW 3341   0.133   2.763   2.272 -0.3001 -0.1589 -0.6448
  836SOL    HW2 3342   0.052   2.775   2.223  0.0952  2.5441 -0.7336
  836SOL    HW3 3343   0.105   2.737   2.360 -1.2470  0.5545 -0.7350
  836SOL    MW4 3344   0.119   2.761   2.277 -0.3729  0.2918 -0.6684
  837SOL     OW 3345   1.169   0.252   0.495 -0.1083  0.1505  0.4364
  837SOL    HW2 3346   1.193   0.159   0.501  0.9512  0.2525 -1.5480
  837SOL    HW3 3347   1.244   0.293   0.451 -0.9761  1.7749  0.4225
  837SOL    MW4 3348   1.182   0.245   0.490 -0.0830  0.3783  0.1727
  838SOL     OW 3349   1.958   1.766   0.756 -0.3428 -0.0555 -0.2974
  838SOL    HW2 3350   2.045   1.738   0.730 -0.1392  0.9931 -0.7434
  838SOL    HW3 3351   1.898   1.714   0.701 -0.0882 -2.3399  1.4798
  838SOL    MW4 3352   1.961   1.755   0.746 -0.2824 -0.2186 -0.1218
  839SOL     OW 3353   4.142   2.204   1.849  0.2091  0.5090 -0.0682
  839SOL    HW2 3354   4.149   2.116   1.885  0.0905  0.6231  0.2345
  839SOL    HW3 3355   4.051   2.211   1.819  0.2976  0.4270 -0.3529
  839SOL    MW4 3356   4.131   2.194   1.850  0.2052  0.5132 -0.0658
  840SOL     OW 3357   3.188   4.197   1.718  0.0998  0.1411  0.0224
  840SOL    HW2 3358   3.253   4.228   1.781 -0.3629 -0.5020  0.8406
  840SOL    HW3 3359   3.142   4.275   1.689  0.1209  0.4174  0.7232
  840SOL    MW4 3360   3.191   4.211   1.723  0.0416  0.0927  0.2228
  841SOL     OW 3361   1.907   4.384   0.701  0.3520 -0.1532 -0.5499
  841SOL    HW2 3362   1.858   4.347   0.774  1.0288 -0.6413 -0.3507
  841SOL    HW3 3363   1.970   4.317   0.676  1.0866  0.5639 -0.6658
  841SOL    MW4 3364   1.909   4.371   0.707  0.5382 -0.1230 -0.5389
  842SOL     OW 3365   3.955   4.362   1.350  0.1190  0.0487  0.1571
  842SOL    HW2 3366   3.956   4.267   1.338  0.7164  0.0537  0.1618
  842SOL    HW3 3367   3.881   4.378   1.409  0.3976 -0.4751  0.6554
  842SOL    MW4 3368   3.946   4.352   1.356  0.2346 -0.0198  0.2235
  843SOL     OW 3369   0.229   3.368   1.881  0.0506 -0.2025  0.6589
  843SOL    HW2 3370   0.209   3.335   1.793  2.2201  0.5858 -0.1551
  843SOL    HW3 3371   0.270   3.294   1.926 -3.1021 -1.3410  1.8311
  843SOL    MW4 3372   0.232   3.354   1.875 -0.0792 -0.2487  0.7062
  844SOL     OW 3373   1.269   2.936   1.511 -0.4692  0.4727 -0.4698
  844SOL    HW2 3374   1.214   3.014   1.509 -1.2516 -0.0653 -0.1371
  844SOL    HW3 3375   1.324   2.948   1.588 -0.8370  0.5247 -0.2147
  844SOL    MW4 3376   1.269   2.948   1.521 -0.6210  0.4086 -0.3922
  845SOL     OW 3377   0.784   3.591   0.707  0.1691 -0.1035  0.0726
  845SOL    HW2 3378   0.711   3.529   0.706 -0.6561  0.8700 -0.4048
  845SOL    HW3 3379   0.851   3.548   0.760  0.3872 -2.2952 -1.8973
  845SOL    MW4 3380   0.783   3.577   0.714  0.0890 -0.2643 -0.2503
  846SOL     OW 3381   0.212   1.065   1.210  0.8603 -0.1425  0.5285
  846SOL    HW2 3382   0.248   0.985   1.172  3.2333  1.7841 -1.5040
  846SOL    HW3 3383   0.120   1.065   1.183  1.0779 -1.6826 -0.2662
  846SOL    MW4 3384   0.204   1.055   1.201  1.2021 -0.0915  0.1555
  847SOL     OW 3385   3.818   2.441   1.441 -0.0548 -0.1000  0.3714
  847SOL    HW2 3386   3.866   2.462   1.521 -2.2858 -0.4319  1.8680
  847SOL    HW3 3387   3.788   2.525   1.408  3.0465  0.3041 -1.6247
  847SOL    MW4 3388   3.820   2.455   1.447  0.0601 -0.0905  0.3055
  848SOL     OW 3389   0.489   0.030   1.006  0.3663  0.0984 -0.2292
  848SOL    HW2 3390   0.579  -0.002   1.008  0.0431 -0.7963  0.7427
  848SOL    HW3 3391   0.477   0.074   1.090  0.3164  1.4465 -0.9241
  848SOL    MW4 3392   0.499   0.031   1.017  0.3171  0.1582 -0.1926
  849SOL     OW 3393   1.579   0.479   1.509  0.3028 -0.2434  0.2338
  849SOL    HW2 3394   1.497   0.437   1.481  1.0649 -1.5330 -0.1337
  849SOL    HW3 3395   1.603   0.536   1.437 -0.6762  0.7576  0.6770
  849SOL    MW4 3396   1.571   0.481   1.496  0.2742 -0.2815  0.2438
  850SOL     OW 3397   4.327   2.684   1.341 -0.5402 -0.1023 -0.4399
  850SOL    HW2 3398   4.300   2.754   1.282  0.4485  1.9807  1.5082
  850SOL    HW3 3399   4.247   2.658   1.386 -0.7908  0.2554 -0.6782
  850SOL    MW4 3400   4.313   2.690   1.339 -0.4428  0.2197 -0.2143
  851SOL     OW 3401   1.873   0.762   0.924  0.4430 -0.1179  0.3930
  851SOL    HW2 3402   1.889   0.712   0.843  1.4695  0.0523  0.4846
  851SOL    HW3 3403   1.948   0.821   0.931 -0.4032  0.9457  0.6679
  851SOL    MW4 3404   1.885   0.763   0.914  0.4668  0.0449  0.4414
  852SOL     OW 3405   3.549   1.185   1.498 -0.1007 -0.4767 -0.2909
  852SOL    HW2 3406   3.457   1.181   1.523 -0.0941  1.8098  0.2073
  852SOL    HW3 3407   3.580   1.269   1.533  1.9325 -0.7876 -1.2539
  852SOL    MW4 3408   3.541   1.195   1.506  0.1684 -0.2161 -0.3523
  853SOL     OW 3409   0.700   0.253   0.541 -0.2797 -0.6190  0.0512
  853SOL    HW2 3410   0.624   0.310   0.529 -0.7152 -1.3396 -0.6262
  853SOL    HW3 3411   0.740   0.283   0.622  0.0198  1.2750 -0.7723
  853SOL    MW4 3412   0.695   0.265   0.550 -0.2977 -0.4642 -0.1469
  854SOL     OW 3413   1.516   0.128   0.488  0.3924 -0.0538  0.3647
  854SOL    HW2 3414   1.507   0.066   0.416 -0.1689  1.4300 -0.8594
  854SOL    HW3 3415   1.610   0.126   0.509  0.3543 -1.4302  0.4580
  854SOL    MW4 3416   1.527   0.120   0.482  0.3133 -0.0396  0.2155
  855SOL     OW 3417   1.379   2.883   0.772 -0.0034 -0.2171 -0.3152
  855SOL    HW2 3418   1.456   2.929   0.739 -0.9471  1.4092 -0.2950
  855SOL    HW3 3419   1.413   2.826   0.841  1.0159  1.4484  0.5824
  855SOL    MW4 3420   1.394   2.882   0.777  0.0066  0.2172 -0.1941
  856SOL     OW 3421   3.176   2.432   2.238 -0.2349 -0.2878 -0.0462
  856SOL    HW2 3422   3.093   2.404   2.278  0.5120  0.3672  2.0426
  856SOL    HW3 3423   3.184   2.525   2.261  1.4359 -0.5354  0.4873
  856SOL    MW4 3424   3.166   2.440   2.247  0.0841 -0.2340  0.2998
  857SOL     OW 3425   4.357   0.402   2.354 -0.1394 -0.4917  0.0524
  857SOL    HW2 3426   4.418   0.371   2.287 -1.9544 -0.6713 -1.5826
  857SOL    HW3 3427   4.351   0.496   2.340 -1.1732 -0.6504 -0.6066
  857SOL    MW4 3428   4.364   0.410   2.343 -0.5153 -0.5363 -0.2502
  858SOL     OW 3429   0.718   3.171   0.777 -0.0075 -0.6093 -0.0020
  858SOL    HW2 3430   0.806   3.155   0.811  0.0482  0.8007  0.5559
  858SOL    HW3 3431   0.708   3.107   0.707  0.9548 -1.6672  0.8061
  858SOL    MW4 3432   0.729   3.161   0.772  0.1269 -0.5628  0.1782
  859SOL     OW 3433   3.069   3.173   1.992  0.0632 -0.2133 -0.1316
  859SOL    HW2 3434   3.115   3.098   1.955  0.6121 -0.6414  1.3595
  859SOL    HW3 3435   3.102   3.248   1.943  0.6130 -0.7847 -0.6485
  859SOL    MW4 3436   3.080   3.173   1.981  0.2081 -0.3452 -0.0031
  860SOL     OW 3437   1.590   1.749   1.808  0.2401 -0.1855  0.4566
  860SOL    HW2 3438   1.527   1.678   1.823  0.3776 -0.7277 -1.3961
  860SOL    HW3 3439   1.629   1.728   1.723 -0.0378  2.3419 -0.3199
  860SOL    MW4 3440   1.587   1.736   1.798  0.2216  0.0764  0.1097
  861SOL     OW 3441   2.010   2.377   0.451  0.0225 -0.3242 -0.2701
  861SOL    HW2 3442   2.050   2.406   0.369 -1.3793  1.3224 -0.4094
  861SOL    HW3 3443   2.045   2.438   0.517  0.3856 -1.0286  0.1923
  861SOL    MW4 3444   2.020   2.389   0.449 -0.1146 -0.1999 -0.2275
  862SOL     OW 3445   0.016   0.276   1.873 -0.3950 -0.7797  0.0093
  862SOL    HW2 3446  -0.051   0.331   1.833  0.3884  0.6212  0.5909
  862SOL    HW3 3447   0.030   0.206   1.810 -0.3418  0.5039 -1.4436
  862SOL    MW4 3448   0.009   0.274   1.860 -0.2846 -0.4255 -0.1056
  863SOL     OW 3449   1.245   4.477   0.367 -0.1298 -0.2592  0.2767
  863SOL    HW2 3450   1.209   4.391   0.385  0.2107 -0.5802 -0.5478
  863SOL    HW3 3451   1.179   4.520   0.313 -0.3016  0.0002  0.6913
  863SOL    MW4 3452   1.232   4.472   0.362 -0.1076 -0.2673  0.2226
  864SOL     OW 3453   3.948   3.851   1.453  0.1276  0.2834  0.1085
  864SOL    HW2 3454   3.948   3.779   1.391  0.0344  0.5431 -0.1974
  864SOL    HW3 3455   4.040   3.862   1.477  0.1711  0.2151 -0.0262
  864SOL    MW4 3456   3.960   3.843   1.448  0.1210  0.3086  0.0504
  865SOL     OW 3457   3.137   3.449   0.888 -0.0921  0.8871 -0.0981
  865SOL    HW2 3458   3.098   3.458   0.975 -0.7978  3.5134 -0.6551
  865SOL    HW3 3459   3.217   3.502   0.892  0.3122  0.3311 -0.7851
  865SOL    MW4 3460   3.143   3.457   0.900 -0.1318  1.1603 -0.2622
  866SOL     OW 3461   1.203   3.685   0.309  0.3425  0.0252 -0.3056
  866SOL    HW2 3462   1.260   3.645   0.375 -1.5486 -1.3843  0.5144
  866SOL    HW3 3463   1.245   3.664   0.226  1.0958 -0.8894  0.2865
  866SOL    MW4 3464   1.216   3.677   0.307  0.1924 -0.2814 -0.1193
  867SOL     OW 3465   0.437   0.864   2.081  0.1463  0.1382  0.2266
  867SOL    HW2 3466   0.493   0.808   2.135  0.4855 -1.4672 -1.7550
  867SOL    HW3 3467   0.488   0.880   2.001 -0.5170  2.1469  0.1604
  867SOL    MW4 3468   0.451   0.859   2.078  0.1035  0.1914 -0.0436
  868SOL     OW 3469   0.205   1.735   2.164 -0.0609 -0.1622 -0.1806
  868SOL    HW2 3470   0.219   1.652   2.210  1.6749  0.3365  0.2413
  868SOL    HW3 3471   0.265   1.796   2.206 -0.9308  1.1832 -0.8510
  868SOL    MW4 3472   0.215   1.732   2.175  0.0533  0.0811 -0.2134
  869SOL     OW 3473   1.699   4.368   1.379 -0.6065 -0.2270 -0.1260
  869SOL    HW2 3474   1.756   4.408   1.444 -2.2453  2.2077 -0.1522
  869SOL    HW3 3475   1.623   4.337   1.429 -1.6291  1.1842 -0.7904
  869SOL    MW4 3476   1.697   4.369   1.394 -0.9576  0.2804 -0.2171
  870SOL     OW 3477   2.563   2.023   0.538 -0.4456 -0.2228 -0.1276
  870SOL    HW2 3478   2.560   2.118   0.528 -0.5408 -0.2213 -0.0755
  870SOL    HW3 3479   2.474   1.993   0.518 -0.8626 -0.1477  1.5758
  870SOL    MW4 3480   2.551   2.031   0.534 -0.5132 -0.2127  0.1040
  871SOL     OW 3481   4.460   3.387   0.617  0.0365  0.2193  0.8362
  871SOL    HW2 3482   4.519   3.461   0.636 -0.6609  0.8710  0.4975
  871SOL    HW3 3483   4.464   3.377   0.522 -0.0427 -0.0397  0.8607
  871SOL    MW4 3484   4.469   3.396   0.607 -0.0660  0.2711  0.7948
  872SOL     OW 3485   4.141   3.766   0.299  0.0834 -0.1205 -0.2082
  872SOL    HW2 3486   4.183   3.794   0.380 -1.3666  0.5023  0.3464
  872SOL    HW3 3487   4.163   3.673   0.291 -0.8086 -0.4988  1.5604
  872SOL    MW4 3488   4.149   3.758   0.309 -0.2256 -0.0883  0.0983
  873SOL     OW 3489   3.719   3.941   1.580 -0.4109  0.0299 -0.2153
  873SOL    HW2 3490   3.802   3.919   1.538 -0.8771  0.3212 -1.2965
  873SOL    HW3 3491   3.674   3.857   1.590  0.7546 -0.3649  2.0047
  873SOL    MW4 3492   3.724   3.927   1.576 -0.3187  0.0162 -0.0650
  874SOL     OW 3493   3.714   4.311   0.601  0.0398  0.3350  0.0841
  874SOL    HW2 3494   3.769   4.255   0.547  0.5758 -1.2165  2.1745
  874SOL    HW3 3495   3.766   4.390   0.614  0.7567 -0.1295  0.0401
  874SOL    MW4 3496   3.728   4.314   0.596  0.2051  0.0690  0.3541
  875SOL     OW 3497   0.401   1.697   0.679 -0.4239 -0.4897 -0.4984
  875SOL    HW2 3498   0.433   1.617   0.721  0.0291 -0.7667 -1.3688
  875SOL    HW3 3499   0.393   1.759   0.751 -2.0500 -1.6995  0.3868
  875SOL    MW4 3500   0.404   1.695   0.694 -0.5787 -0.6858 -0.4964
  876SOL     OW 3501   1.991   1.770   1.834  0.0356 -0.7856  0.1434
  876SOL    HW2 3502   2.083   1.763   1.859 -0.1059 -0.6849  0.7001
  876SOL    HW3 3503   1.987   1.730   1.747  0.9900  1.1015 -0.8120
  876SOL    MW4 3504   2.003   1.764   1.826  0.1428 -0.5233  0.0908
  877SOL     OW 3505   1.901   2.034   0.679 -0.0231 -0.1477  0.4110
  877SOL    HW2 3506   1.910   1.947   0.718  0.1878 -1.0243 -1.5554
  877SOL    HW3 3507   1.949   2.092   0.739 -0.1392 -1.3716  1.7193
  877SOL    MW4 3508   1.908   2.030   0.692 -0.0106 -0.4248  0.3242
  878SOL     OW 3509   1.163   1.238   0.785  0.1272  0.1060 -0.3842
  878SOL    HW2 3510   1.239   1.212   0.734  0.2234 -0.7138  0.1519
  878SOL    HW3 3511   1.192   1.313   0.836  0.8601 -0.7588  0.4917
  878SOL    MW4 3512   1.177   1.244   0.785  0.2366 -0.1162 -0.1979
  879SOL     OW 3513   1.576   2.558   1.764  0.3349 -0.1120 -0.2409
  879SOL    HW2 3514   1.660   2.598   1.785  0.7710 -1.2379  0.1707
  879SOL    HW3 3515   1.597   2.488   1.702 -0.4528  0.4233 -1.1377
  879SOL    MW4 3516   1.590   2.554   1.758  0.2885 -0.1899 -0.3049
  880SOL     OW 3517   0.997   4.608   0.274 -0.4105  0.1030 -0.8923
  880SOL    HW2 3518   0.970   4.696   0.301  1.4786  0.0613  1.2776
  880SOL    HW3 3519   0.928   4.551   0.306 -0.1939  0.4982  0.2976
  880SOL    MW4 3520   0.984   4.612   0.282 -0.1327  0.1497 -0.4490
  881SOL     OW 3521   3.431   2.524   0.613 -0.1272 -0.3588 -0.1587
  881SOL    HW2 3522   3.427   2.432   0.638  0.3807 -0.8945 -1.9544
  881SOL    HW3 3523   3.490   2.564   0.677  0.9515 -1.6194 -0.3644
  881SOL    MW4 3524   3.438   2.517   0.625  0.0821 -0.5958 -0.4228
  882SOL     OW 3525   4.003   2.172   2.093 -0.6269  0.1461  0.2685
  882SOL    HW2 3526   4.057   2.199   2.018 -0.5325  0.8654  0.5911
  882SOL    HW3 3527   3.940   2.110   2.056 -0.7755  0.7274 -0.4809
  882SOL    MW4 3528   4.002   2.168   2.078 -0.6340  0.3177  0.2121
  883SOL     OW 3529   2.602   3.170   0.596  0.0896 -0.6595  0.3585
  883SOL    HW2 3530   2.581   3.262   0.579  1.3123 -0.7087 -1.5778
  883SOL    HW3 3531   2.655   3.143   0.521 -0.9515 -3.1809  0.4617
  883SOL    MW4 3532   2.606   3.179   0.584  0.1136 -0.9986  0.1166
  884SOL     OW 3533   4.429   1.149   1.538  0.3412  0.4450 -0.3324
  884SOL    HW2 3534   4.383   1.231   1.520 -0.0718  0.3036  0.0781
  884SOL    HW3 3535   4.360   1.086   1.555  0.6637  0.0237 -0.5911
  884SOL    MW4 3536   4.414   1.152   1.538  0.3292  0.3708 -0.3123
  885SOL     OW 3537   0.841   3.998   1.883  0.5632 -0.6605 -0.1185
  885SOL    HW2 3538   0.865   3.914   1.846 -1.5086 -1.7465  0.8931
  885SOL    HW3 3539   0.852   3.987   1.977  2.0514  0.8102 -0.1047
  885SOL    MW4 3540   0.845   3.986   1.890  0.4862 -0.6097  0.0168
  886SOL     OW 3541   3.094   0.316   2.269  0.8249  0.0819 -0.2283
  886SOL    HW2 3542   3.033   0.349   2.203 -0.4259 -0.2509  0.7609
  886SOL    HW3 3543   3.121   0.230   2.235  1.2391  0.4915 -0.9664
  886SOL    MW4 3544   3.090   0.309   2.256  0.7146  0.0920 -0.1951
  887SOL     OW 3545   0.879   0.096   1.324  0.0364  0.5185 -0.3224
  887SOL    HW2 3546   0.922   0.127   1.404  1.2402 -1.5376 -0.1241
  887SOL    HW3 3547   0.786   0.093   1.347  0.5003 -1.3254  1.4702
  887SOL    MW4 3548   0.872   0.100   1.338  0.2564  0.0040 -0.0597
  888SOL     OW 3549   2.495   1.978   1.078 -0.4060  0.2642 -0.0119
  888SOL    HW2 3550   2.562   1.992   1.010  1.4147 -1.3308  1.3642
  888SOL    HW3 3551   2.413   1.972   1.030  1.0130 -2.2387 -2.2775
  888SOL    MW4 3552   2.493   1.979   1.062  0.0215 -0.2765 -0.1292
  889SOL     OW 3553   1.260   3.132   0.750 -0.4543  0.0284 -0.3064
  889SOL    HW2 3554   1.270   3.037   0.747 -0.5045  0.0593 -1.5753
  889SOL    HW3 3555   1.243   3.151   0.842  0.4662 -1.0926  0.1035
  889SOL    MW4 3556   1.259   3.122   0.762 -0.3395 -0.1154 -0.4197
  890SOL     OW 3557   2.355   3.036   0.610  0.0095 -0.0527 -0.0129
  890SOL    HW2 3558   2.426   3.098   0.594  1.2900 -1.4721  0.0602
  890SOL    HW3 3559   2.399   2.958   0.645 -1.7396 -0.4029  1.4926
  890SOL    MW4 3560   2.370   3.034   0.613 -0.0523 -0.2862  0.1954
  891SOL     OW 3561   2.508   4.474   1.929  0.0220 -0.2950 -0.2743
  891SOL    HW2 3562   2.559   4.415   1.874  0.5628 -0.3130  0.2447
  891SOL    HW3 3563   2.418   4.462   1.899  0.2899 -0.4122 -1.0541
  891SOL    MW4 3564   2.503   4.464   1.918  0.1287 -0.3129 -0.3088
  892SOL     OW 3565   1.868   3.941   0.840 -0.1732  0.8015 -0.2405
  892SOL    HW2 3566   1.843   3.923   0.750 -1.3766 -1.5786  0.5292
  892SOL    HW3 3567   1.841   4.031   0.855 -1.2175  0.7682 -1.8352
  892SOL    MW4 3568   1.861   3.950   0.830 -0.4697  0.4831 -0.3493
  893SOL     OW 3569   3.479   4.470   0.909 -0.3096 -0.5742 -0.6900
  893SOL    HW2 3570   3.386   4.457   0.894 -0.4890 -0.6763  0.4743
  893SOL    HW3 3571   3.516   4.382   0.909 -0.5125 -0.6712  0.7088
  893SOL    MW4 3572   3.472   4.457   0.907 -0.3601 -0.6005 -0.3518
  894SOL     OW 3573   4.032   2.331   0.840 -0.4057 -0.5636 -0.3573
  894SOL    HW2 3574   4.102   2.285   0.794 -0.0410 -1.3300  0.9358
  894SOL    HW3 3575   3.990   2.264   0.894 -1.7081  0.0261 -0.6187
  894SOL    MW4 3576   4.036   2.316   0.841 -0.5294 -0.5869 -0.2212
  895SOL     OW 3577   0.595   3.697   1.857 -0.1596 -0.1814  0.1182
  895SOL    HW2 3578   0.509   3.667   1.885 -1.3079  1.3346 -1.6501
  895SOL    HW3 3579   0.616   3.644   1.781  0.1966 -0.1257  0.1747
  895SOL    MW4 3580   0.586   3.686   1.851 -0.2641  0.0260 -0.1077
  896SOL     OW 3581   2.100   3.613   2.294 -0.1253 -0.0453 -0.0047
  896SOL    HW2 3582   2.147   3.580   2.371 -0.0299  0.3528  0.1088
  896SOL    HW3 3583   2.015   3.570   2.298  0.5276 -1.4639 -0.6948
  896SOL    MW4 3584   2.095   3.603   2.305 -0.0265 -0.1799 -0.0808
  897SOL     OW 3585   3.673   3.725   1.311  0.3537 -0.4350 -0.1873
  897SOL    HW2 3586   3.633   3.682   1.236 -0.7756  2.7158 -1.4839
  897SOL    HW3 3587   3.609   3.715   1.382  0.2684 -1.1875 -0.3718
  897SOL    MW4 3588   3.659   3.718   1.311  0.1934 -0.1186 -0.3827
  898SOL     OW 3589   0.412   2.958   1.343 -0.3043  0.4941  0.0927
  898SOL    HW2 3590   0.361   2.999   1.273 -0.5364 -1.5460 -0.9914
  898SOL    HW3 3591   0.488   3.014   1.355  0.3683  0.2381 -2.6723
  898SOL    MW4 3592   0.415   2.971   1.335 -0.2462  0.1912 -0.4151
  899SOL     OW 3593   3.992   1.202   0.865  0.4686 -0.1755  0.1942
  899SOL    HW2 3594   3.898   1.214   0.880  0.5479  0.7370  0.0089
  899SOL    HW3 3595   4.001   1.204   0.770  0.5910 -0.9647  0.1880
  899SOL    MW4 3596   3.981   1.204   0.855  0.4952 -0.1592  0.1689
  900SOL     OW 3597   1.153   3.961   0.410 -1.0192 -0.2763  0.2585
  900SOL    HW2 3598   1.183   3.884   0.362 -0.2602 -0.0801  0.4161
  900SOL    HW3 3599   1.061   3.943   0.429 -1.4230 -0.2449 -1.5002
  900SOL    MW4 3600   1.144   3.949   0.406 -0.9723 -0.2463  0.0473
  901SOL     OW 3601   2.171   4.664   1.898  0.2624  0.2061  0.0881
  901SOL    HW2 3602   2.081   4.687   1.920 -0.0275  0.9422 -1.7185
  901SOL    HW3 3603   2.224   4.700   1.969 -0.8476  0.0066  1.0200
  901SOL    MW4 3604   2.166   4.672   1.910  0.0777  0.2769 -0.0273
  902SOL     OW 3605   0.763   2.390   0.868  0.1722 -0.2703 -0.2318
  902SOL    HW2 3606   0.739   2.424   0.954  0.8640 -0.6735  0.1167
  902SOL    HW3 3607   0.725   2.302   0.866 -0.7975  0.1461 -0.7708
  902SOL    MW4 3608   0.755   2.383   0.879  0.1356 -0.2686 -0.2569
  903SOL     OW 3609   3.999   4.402   0.349  0.4691  0.6941 -0.2083
  903SOL    HW2 3610   3.950   4.460   0.407  0.1105  1.6122 -1.4291
  903SOL    HW3 3611   4.081   4.449   0.333 -0.4865  1.6527 -2.5164
  903SOL    MW4 3612   4.004   4.416   0.355  0.2957  0.9417 -0.6739
  904SOL     OW 3613   3.581   3.178   1.564 -0.2126 -0.8091 -0.3778
  904SOL    HW2 3614   3.658   3.129   1.593 -1.3215 -1.4004  1.6318
  904SOL    HW3 3615   3.575   3.159   1.470  2.2885 -0.4567 -0.6510
  904SOL    MW4 3616   3.591   3.169   1.555 -0.0289 -0.8407 -0.1487
  905SOL     OW 3617   3.118   1.580   2.176  0.3803 -0.1527 -0.2035
  905SOL    HW2 3618   3.103   1.667   2.214  1.8964 -0.0615  0.2344
  905SOL    HW3 3619   3.056   1.523   2.222 -0.3718  0.6271 -0.2356
  905SOL    MW4 3620   3.108   1.584   2.187  0.4811 -0.0378 -0.1500
  906SOL     OW 3621   4.126   4.482   0.700 -0.6068 -0.0951 -0.0220
  906SOL    HW2 3622   4.172   4.498   0.618 -0.7211  0.1592 -0.0392
  906SOL    HW3 3623   4.034   4.494   0.678 -0.7423 -1.3162 -0.1549
  906SOL    MW4 3624   4.120   4.486   0.686 -0.6398 -0.2227 -0.0418
  907SOL     OW 3625   4.320   4.190   1.368 -0.4096 -0.4012  0.3825
  907SOL    HW2 3626   4.306   4.218   1.278  0.8247  1.4817  0.7474
  907SOL    HW3 3627   4.266   4.248   1.420 -0.0395 -0.5625  0.9513
  907SOL    MW4 3628   4.311   4.201   1.363 -0.1979 -0.1741  0.5057
  908SOL     OW 3629   0.940   3.782   1.317 -0.0817  0.3290  0.6463
  908SOL    HW2 3630   0.941   3.699   1.363 -1.2269  0.4035  0.8085
  908SOL    HW3 3631   0.897   3.843   1.377  3.0110  1.6736  1.6019
  908SOL    MW4 3632   0.935   3.779   1.331  0.1753  0.5162  0.7938
  909SOL     OW 3633   0.973   2.358   0.483 -0.2005  0.2932 -0.4252
  909SOL    HW2 3634   0.990   2.370   0.577 -0.0359  0.7510 -0.5135
  909SOL    HW3 3635   1.058   2.332   0.447  0.0958  1.6333 -0.7048
  909SOL    MW4 3636   0.987   2.356   0.491 -0.1397  0.5304 -0.4738
  910SOL     OW 3637   2.698   1.988   0.893  0.2219  0.9637 -0.1365
  910SOL    HW2 3638   2.716   2.063   0.835 -0.9271  1.6126  0.3209
  910SOL    HW3 3639   2.686   1.914   0.834  0.1173  1.4055 -0.6731
  910SOL    MW4 3640   2.699   1.988   0.878  0.0565  1.1076 -0.1469
  911SOL     OW 3641   3.708   1.207   0.892  0.0568  0.2986 -0.4725
  911SOL    HW2 3642   3.663   1.212   0.808  1.5156 -1.9880 -1.4546
  911SOL    HW3 3643   3.665   1.135   0.938  0.8368 -0.0259 -0.2480
  911SOL    MW4 3644   3.697   1.198   0.887  0.3522 -0.0459 -0.5724
  912SOL     OW 3645   4.247   3.049   2.603  0.1501  0.1399  0.4592
  912SOL    HW2 3646   4.174   3.047   2.541  0.5301 -0.0969  0.0146
  912SOL    HW3 3647   4.215   3.102   2.676  0.1742  1.5423 -0.5353
  912SOL    MW4 3648   4.233   3.056   2.605  0.2034  0.2937  0.2693
  913SOL     OW 3649   0.742   2.251   1.850  0.2614 -0.2102  0.2038
  913SOL    HW2 3650   0.808   2.218   1.789  1.6001  0.1379  1.4076
  913SOL    HW3 3651   0.750   2.193   1.926  0.2618  0.7808  0.9649
  913SOL    MW4 3652   0.752   2.239   1.852  0.4380 -0.0335  0.4630
  914SOL     OW 3653   2.873   1.127   1.166 -0.1787  0.4358 -0.2026
  914SOL    HW2 3654   2.901   1.091   1.251 -0.0353  1.1030  0.0390
  914SOL    HW3 3655   2.955   1.148   1.121 -0.2315 -0.9332 -0.9615
  914SOL    MW4 3656   2.888   1.125   1.172 -0.1668  0.3432 -0.2708
  915SOL     OW 3657   4.293   0.468   1.764 -0.1071  0.2180  0.0415
  915SOL    HW2 3658   4.214   0.435   1.808 -1.3609  0.6093 -1.8604
  915SOL    HW3 3659   4.289   0.562   1.776 -0.7314  0.3790 -1.3043
  915SOL    MW4 3660   4.282   0.476   1.771 -0.3549  0.2909 -0.3870
  916SOL     OW 3661   0.549   0.675   0.975 -0.2533 -0.0689 -0.1667
  916SOL    HW2 3662   0.636   0.706   0.999 -0.6143  1.2557 -0.4801
  916SOL    HW3 3663   0.533   0.715   0.889 -0.5564 -1.5385 -0.8070
  916SOL    MW4 3664   0.558   0.684   0.967 -0.3409 -0.0881 -0.2925
  917SOL     OW 3665   2.283   1.473   1.315  0.4830 -1.0504 -0.1423
  917SOL    HW2 3666   2.260   1.474   1.223  1.4694  0.1622 -0.3909
  917SOL    HW3 3667   2.369   1.432   1.318  1.1257  0.2824  0.0562
  917SOL    MW4 3668   2.291   1.468   1.304  0.6979 -0.7146 -0.1489
  918SOL     OW 3669   4.237   4.536   0.439 -0.2474  0.2510 -0.0259
  918SOL    HW2 3670   4.327   4.504   0.444 -0.0154  0.6922 -1.3556
  918SOL    HW3 3671   4.245   4.631   0.426 -0.9108  0.3748  0.3975
  918SOL    MW4 3672   4.250   4.544   0.438 -0.3043  0.3256 -0.1455
  919SOL     OW 3673   4.306   1.547   2.256 -0.4692 -0.0968 -0.2333
  919SOL    HW2 3674   4.310   1.454   2.233  1.3896  0.6928 -3.2688
  919SOL    HW3 3675   4.222   1.577   2.220 -0.3770 -0.2568 -0.5827
  919SOL    MW4 3676   4.295   1.539   2.249 -0.2118 -0.0137 -0.6799
  920SOL     OW 3677   0.421   0.125   1.253 -0.2299  0.1572  0.3813
  920SOL    HW2 3678   0.489   0.095   1.314  0.2138 -0.2587 -0.2944
  920SOL    HW3 3679   0.339   0.104   1.296  0.0779 -0.8693  0.5018
  920SOL    MW4 3680   0.419   0.118   1.267 -0.1308 -0.0331  0.3081
  921SOL     OW 3681   3.200   0.212   0.926  0.1447  0.0094  0.3105
  921SOL    HW2 3682   3.226   0.147   0.991  0.2720 -0.0261  0.2257
  921SOL    HW3 3683   3.244   0.184   0.846  0.0106  0.0679  0.2160
  921SOL    MW4 3684   3.209   0.199   0.924  0.1438  0.0124  0.2869
  922SOL     OW 3685   3.119   1.257   1.484  0.0761  0.3042  0.2824
  922SOL    HW2 3686   3.085   1.340   1.516 -1.1020 -0.4823  1.1472
  922SOL    HW3 3687   3.174   1.224   1.556  0.5444  0.3385 -0.0574
  922SOL    MW4 3688   3.122   1.263   1.498 -0.0176  0.2050  0.3517
  923SOL     OW 3689   1.821   0.369   0.829 -0.5766  0.2942 -0.1263
  923SOL    HW2 3690   1.755   0.438   0.836  0.2143  0.9630  0.8747
  923SOL    HW3 3691   1.872   0.376   0.910 -0.0242 -0.9876 -0.3510
  923SOL    MW4 3692   1.819   0.379   0.841 -0.3994  0.2134 -0.0239
  924SOL     OW 3693   1.524   4.474   1.175 -0.0984 -0.0664  0.2836
  924SOL    HW2 3694   1.602   4.491   1.228 -1.0694  0.9120  1.4310
  924SOL    HW3 3695   1.515   4.552   1.120  0.1376 -0.4958 -0.3738
  924SOL    MW4 3696   1.533   4.487   1.174 -0.1954  0.0060  0.3483
  925SOL     OW 3697   2.555   4.404   0.386  0.4140 -0.4710 -0.1965
  925SOL    HW2 3698   2.473   4.450   0.371 -0.3292 -1.6386  0.2550
  925SOL    HW3 3699   2.595   4.450   0.460 -0.8106 -1.1599  0.9160
  925SOL    MW4 3700   2.550   4.416   0.394  0.1544 -0.7159  0.0098
  926SOL     OW 3701   3.555   4.086   1.398 -0.4251  0.0130  0.0647
  926SOL    HW2 3702   3.475   4.109   1.445 -0.6151  0.7452 -0.6114
  926SOL    HW3 3703   3.617   4.062   1.467 -1.0119  0.1178  0.6315
  926SOL    MW4 3704   3.553   4.086   1.413 -0.5276  0.1234  0.0502
  927SOL     OW 3705   2.494   1.396   0.540  0.0869 -0.3450  0.3080
  927SOL    HW2 3706   2.400   1.410   0.528 -0.0564 -0.7174  1.0219
  927SOL    HW3 3707   2.514   1.434   0.625  0.3663 -1.2856  0.6701
  927SOL    MW4 3708   2.484   1.403   0.549  0.1049 -0.5182  0.4500
  928SOL     OW 3709   0.967   0.031   1.827  0.2409  0.6597  0.5490
  928SOL    HW2 3710   0.960   0.035   1.922 -0.4948 -0.9798  0.5687
  928SOL    HW3 3711   0.963   0.123   1.799  1.9482  1.2742  2.1808
  928SOL    MW4 3712   0.966   0.044   1.836  0.3691  0.5245  0.7669
  929SOL     OW 3713   1.669   3.579   1.916  0.4809  0.1203  0.3540
  929SOL    HW2 3714   1.673   3.584   2.012  1.0305 -1.5481  0.4205
  929SOL    HW3 3715   1.585   3.538   1.898  0.3598  0.4727  0.1197
  929SOL    MW4 3716   1.659   3.575   1.926  0.5374 -0.0533  0.3318
  930SOL     OW 3717   3.152   1.819   0.633 -0.5079  0.6460  0.2280
  930SOL    HW2 3718   3.194   1.789   0.552 -2.6171 -0.0544 -0.6305
  930SOL    HW3 3719   3.213   1.793   0.702  0.3353 -0.6271 -0.9643
  930SOL    MW4 3720   3.166   1.811   0.632 -0.6749  0.3856 -0.0426
  931SOL     OW 3721   2.899   1.469   2.311  0.0303 -0.1243  0.1321
  931SOL    HW2 3722   2.898   1.376   2.287  0.2436 -0.5428  1.7047
  931SOL    HW3 3723   2.903   1.469   2.407  0.1146  1.5101  0.1375
  931SOL    MW4 3724   2.899   1.457   2.321  0.0696  0.0361  0.3403
  932SOL     OW 3725   3.594   2.635   0.808  0.3119 -0.6571  0.2576
  932SOL    HW2 3726   3.621   2.550   0.844 -0.8848 -0.6587  1.1780
  932SOL    HW3 3727   3.666   2.659   0.750  2.4933 -0.5007  2.8724
  932SOL    MW4 3728   3.607   2.627   0.805  0.4418 -0.6367  0.7241
  933SOL     OW 3729   3.976   1.519   0.632  0.3823  0.3063 -0.0253
  933SOL    HW2 3730   3.898   1.490   0.586 -0.2567  1.8535  0.0692
  933SOL    HW3 3731   3.978   1.614   0.620  0.4254  0.7085  2.7797
  933SOL    MW4 3732   3.966   1.527   0.624  0.3037  0.5635  0.3572
  934SOL     OW 3733   2.967   2.942   1.309 -0.1314  0.3106 -0.0737
  934SOL    HW2 3734   2.960   2.848   1.329  0.6775  0.3573  0.4418
  934SOL    HW3 3735   2.876   2.971   1.299 -0.3361 -0.9854 -2.4383
  934SOL    MW4 3736   2.954   2.933   1.310 -0.0517  0.1458 -0.3176
  935SOL     OW 3737   1.705   3.271   0.658 -0.1882 -0.0149 -0.0448
  935SOL    HW2 3738   1.624   3.316   0.684  0.2094 -0.2265  1.6078
  935SOL    HW3 3739   1.689   3.180   0.681  0.9883  0.1453  1.4419
  935SOL    MW4 3740   1.692   3.265   0.664  0.0195 -0.0216  0.3694
  936SOL     OW 3741   2.649   3.905   0.794 -0.0079 -0.1797 -0.6773
  936SOL    HW2 3742   2.667   3.986   0.841  1.4988 -1.1707  0.4812
  936SOL    HW3 3743   2.734   3.873   0.766 -0.7924 -0.1493 -3.2169
  936SOL    MW4 3744   2.662   3.911   0.797  0.0874 -0.3065 -0.8595
  937SOL     OW 3745   4.237   2.986   0.504  0.1375  0.2715  0.0294
  937SOL    HW2 3746   4.185   2.923   0.455  0.9483 -0.1717 -0.2691
  937SOL    HW3 3747   4.187   3.068   0.499 -0.1856  0.0206 -0.8268
  937SOL    MW4 3748   4.223   2.988   0.497  0.2019  0.1799 -0.1230
  938SOL     OW 3749   1.153   4.243   0.507  0.4255  0.1009  0.1327
  938SOL    HW2 3750   1.242   4.259   0.538  1.5730 -2.1889 -1.7095
  938SOL    HW3 3751   1.162   4.166   0.449 -2.8974 -0.7510  0.6472
  938SOL    MW4 3752   1.166   4.235   0.503  0.1385 -0.3136 -0.0425
  939SOL     OW 3753   2.475   2.686   1.396 -0.4239  0.3718  0.6561
  939SOL    HW2 3754   2.483   2.618   1.462  2.4905 -0.0342 -0.0795
  939SOL    HW3 3755   2.391   2.668   1.353 -1.3054 -0.6584  2.7635
  939SOL    MW4 3756   2.465   2.675   1.399 -0.1557  0.1823  0.8371
  940SOL     OW 3757   2.824   4.432   1.678  0.5464  0.2299 -0.6174
  940SOL    HW2 3758   2.764   4.363   1.704 -0.2177  1.0304 -0.2543
  940SOL    HW3 3759   2.769   4.499   1.637  1.0668  1.3230  0.4189
  940SOL    MW4 3760   2.809   4.432   1.676  0.5142  0.4797 -0.4328
  941SOL     OW 3761   3.573   2.176   1.919  0.3702  0.1826  0.2309
  941SOL    HW2 3762   3.484   2.160   1.949  0.4965 -0.1051  0.4546
  941SOL    HW3 3763   3.565   2.193   1.825  0.0679  0.2822  0.2760
  941SOL    MW4 3764   3.561   2.176   1.911  0.3470  0.1578  0.2664
  942SOL     OW 3765   3.277   1.177   1.247 -0.0059 -0.5363 -0.1108
  942SOL    HW2 3766   3.235   1.198   1.164  2.0524  0.4744 -0.9320
  942SOL    HW3 3767   3.208   1.188   1.312 -0.7877  2.1398 -1.2949
  942SOL    MW4 3768   3.262   1.182   1.245  0.1625 -0.0499 -0.3753
  943SOL     OW 3769   2.242   1.803   0.746 -0.3734 -0.2079  0.2322
  943SOL    HW2 3770   2.314   1.761   0.793 -0.6109  0.2149  0.9821
  943SOL    HW3 3771   2.205   1.864   0.809  0.0860  1.2751 -0.9183
  943SOL    MW4 3772   2.247   1.805   0.760 -0.3441  0.0436  0.1793
  944SOL     OW 3773   2.294   4.049   1.852  0.2133 -0.4194 -0.4392
  944SOL    HW2 3774   2.368   4.074   1.795  0.9009  1.0280  1.0559
  944SOL    HW3 3775   2.332   4.043   1.939 -0.8989 -2.3666 -0.0438
  944SOL    MW4 3776   2.309   4.051   1.856  0.1573 -0.4854 -0.1898
  945SOL     OW 3777   4.077   4.220   0.642  0.2750  0.5379  0.7161
  945SOL    HW2 3778   4.067   4.168   0.721  0.2608 -0.4892  0.0521
  945SOL    HW3 3779   4.105   4.306   0.673 -0.8676  0.4924  1.9047
  945SOL    MW4 3780   4.079   4.224   0.656  0.1224  0.3964  0.7853
  946SOL     OW 3781   1.405   4.351   0.882 -0.5284 -0.4448  0.7083
  946SOL    HW2 3782   1.414   4.355   0.787 -0.4754  0.2975  0.7354
  946SOL    HW3 3783   1.343   4.421   0.903 -1.2730 -1.2235  1.1339
  946SOL    MW4 3784   1.398   4.361   0.873 -0.6197 -0.4496  0.7681
  947SOL     OW 3785   0.120   2.369   0.568  0.1671 -0.4113 -0.3816
  947SOL    HW2 3786   0.114   2.279   0.535  1.0555 -1.0149  1.0359
  947SOL    HW3 3787   0.210   2.376   0.602 -0.0508  0.8502 -0.0353
  947SOL    MW4 3788   0.131   2.358   0.568  0.2556 -0.3245 -0.1489
  948SOL     OW 3789   1.001   0.941   1.266  0.0752 -0.3587  0.0315
  948SOL    HW2 3790   1.009   0.860   1.317 -0.5025 -1.1170 -1.0737
  948SOL    HW3 3791   0.990   1.009   1.332  0.3166 -1.2071  0.9678
  948SOL    MW4 3792   1.001   0.939   1.282  0.0308 -0.5707  0.0092
  949SOL     OW 3793   0.010   0.780   1.456 -0.1386 -0.4671 -0.1518
  949SOL    HW2 3794   0.031   0.740   1.371 -2.0475  0.8160 -1.2819
  949SOL    HW3 3795  -0.018   0.707   1.511 -1.0753 -1.0480 -1.3629
  949SOL    MW4 3796   0.009   0.765   1.452 -0.5141 -0.3744 -0.4607
  950SOL     OW 3797   4.198   0.952   0.564 -0.7678  0.0566 -0.1303
  950SOL    HW2 3798   4.172   0.864   0.593  0.3179 -0.1833  0.1465
  950SOL    HW3 3799   4.254   0.984   0.635 -0.2638  0.5290 -0.7453
  950SOL    MW4 3800   4.202   0.944   0.578 -0.5581  0.0873 -0.1749
  951SOL     OW 3801   1.924   0.438   0.369  0.6036 -0.4603 -0.1056
  951SOL    HW2 3802   1.949   0.502   0.303  1.3415 -0.6678 -0.0424
  951SOL    HW3 3803   1.852   0.478   0.417  1.6009  0.6813  0.4655
  951SOL    MW4 3804   1.918   0.452   0.367  0.8326 -0.3371 -0.0219
  952SOL     OW 3805   1.169   3.195   1.505 -0.3108 -0.4448  0.0700
  952SOL    HW2 3806   1.239   3.260   1.518 -0.5959 -0.4898  1.9245
  952SOL    HW3 3807   1.105   3.215   1.573 -1.7747 -0.8671 -1.1693
  952SOL    MW4 3808   1.170   3.206   1.516 -0.5415 -0.5065  0.1512
  953SOL     OW 3809   2.100   2.431   1.019  0.1985 -0.0281  0.1843
  953SOL    HW2 3810   2.096   2.360   1.083 -0.3180 -0.5572 -0.4291
  953SOL    HW3 3811   2.192   2.459   1.020  0.2932 -0.3472  0.8043
  953SOL    MW4 3812   2.112   2.426   1.028  0.1428 -0.1400  0.1852
  954SOL     OW 3813   1.923   4.431   1.029  0.0584 -0.0624 -0.0141
  954SOL    HW2 3814   1.902   4.360   1.089 -0.6365 -0.1205 -0.3180
  954SOL    HW3 3815   1.847   4.490   1.034  0.3947  0.3935 -0.1538
  954SOL    MW4 3816   1.910   4.430   1.037  0.0111 -0.0099 -0.0726
  955SOL     OW 3817   3.854   3.057   1.608  0.2868  0.0535 -0.3613
  955SOL    HW2 3818   3.847   2.975   1.558  1.0886  0.9759 -2.0212
  955SOL    HW3 3819   3.889   3.120   1.545 -2.2438  2.2195  0.2925
  955SOL    MW4 3820   3.857   3.054   1.593  0.0587  0.4610 -0.4941
  956SOL     OW 3821   2.459   3.357   1.462  0.4122 -0.4653  0.0540
  956SOL    HW2 3822   2.405   3.428   1.428 -0.7715 -0.9309  0.9340
  956SOL    HW3 3823   2.473   3.379   1.554 -0.5460 -1.7185  0.5068
  956SOL    MW4 3824   2.454   3.369   1.470  0.1296 -0.6921  0.2298
  957SOL     OW 3825   4.029   4.099   0.891  0.4710 -0.0192  0.3639
  957SOL    HW2 3826   4.000   4.013   0.859  0.1843  0.3653 -0.4186
  957SOL    HW3 3827   3.953   4.134   0.937  0.9247 -0.6263  1.6001
  957SOL    MW4 3828   4.015   4.092   0.893  0.4930 -0.0486  0.4237
  958SOL     OW 3829   1.434   3.987   1.939 -0.0478 -0.1568  0.1576
  958SOL    HW2 3830   1.513   3.934   1.947 -0.6738 -1.2559 -0.7301
  958SOL    HW3 3831   1.374   3.932   1.888 -0.8708  1.2309 -0.3858
  958SOL    MW4 3832   1.436   3.973   1.934 -0.2390 -0.1187 -0.0312
  959SOL     OW 3833   1.662   2.340   1.600  0.1297 -0.2449  0.3880
  959SOL    HW2 3834   1.700   2.294   1.674  0.9771 -0.8768 -0.4290
  959SOL    HW3 3835   1.733   2.346   1.536  0.0276  2.1350  0.4331
  959SOL    MW4 3836   1.676   2.335   1.601  0.2280 -0.0143  0.2861
  960SOL     OW 3837   4.012   3.417   2.339 -0.2797 -0.0439  0.0951
  960SOL    HW2 3838   4.006   3.323   2.322  2.9437  0.1104 -2.3065
  960SOL    HW3 3839   3.937   3.455   2.293 -0.1073 -1.1967 -1.1747
  960SOL    MW4 3840   4.001   3.409   2.331  0.1684 -0.1756 -0.3893
  961SOL     OW 3841   1.804   2.212   1.034 -0.1429 -0.3157 -0.2152
  961SOL    HW2 3842   1.809   2.159   1.113 -1.0179  0.1542  0.1657
  961SOL    HW3 3843   1.743   2.166   0.977  0.1002 -0.3948 -0.4105
  961SOL    MW4 3844   1.797   2.199   1.037 -0.2263 -0.2641 -0.1907
  962SOL     OW 3845   3.203   0.076   2.180 -0.3485 -0.1812 -0.5093
  962SOL    HW2 3846   3.196   0.073   2.084  1.0576  0.1012 -0.6409
  962SOL    HW3 3847   3.298   0.076   2.196 -0.5624  1.0869  0.8359
  962SOL    MW4 3848   3.215   0.076   2.169 -0.1912  0.0234 -0.3492
  963SOL     OW 3849   0.377   0.207   1.877 -0.5864 -0.2728 -0.2140
  963SOL    HW2 3850   0.394   0.207   1.971 -0.2884 -1.6431 -0.2476
  963SOL    HW3 3851   0.347   0.118   1.858  0.1834 -0.2717 -1.5455
  963SOL    MW4 3852   0.376   0.195   1.887 -0.4455 -0.4535 -0.3941
  964SOL     OW 3853   2.965   2.669   0.353 -0.3079 -0.2980 -0.1795
  964SOL    HW2 3854   3.054   2.679   0.320 -0.0746 -1.1105  0.1786
  964SOL    HW3 3855   2.955   2.738   0.419  0.1744 -0.4181  0.0218
  964SOL    MW4 3856   2.975   2.679   0.357 -0.2135 -0.4211 -0.1057
  965SOL     OW 3857   4.164   4.560   0.965 -0.2562 -0.2459  0.5986
  965SOL    HW2 3858   4.086   4.538   1.016 -1.0063  0.3177 -0.2818
  965SOL    HW3 3859   4.139   4.542   0.874 -0.0586  1.8243  0.1053
  965SOL    MW4 3860   4.150   4.555   0.960 -0.3291  0.1016  0.4173
  966SOL     OW 3861   0.287   1.262   0.495  0.4759 -0.1909  0.3349
  966SOL    HW2 3862   0.297   1.262   0.590  0.6239 -0.7315  0.3224
  966SOL    HW3 3863   0.212   1.204   0.479  0.1505  0.2791  0.1505
  966SOL    MW4 3864   0.278   1.254   0.506  0.4525 -0.2002  0.3089
  967SOL     OW 3865   0.248   2.972   0.364 -0.2012 -0.3769  0.3748
  967SOL    HW2 3866   0.315   2.941   0.302 -0.5838 -0.4181 -0.0162
  967SOL    HW3 3867   0.297   3.029   0.424  0.0594  0.1733 -0.3426
  967SOL    MW4 3868   0.264   2.976   0.364 -0.2173 -0.3097  0.2285
  968SOL     OW 3869   3.614   4.512   1.397  0.2329 -0.4088  0.0428
  968SOL    HW2 3870   3.610   4.443   1.331  0.5467  0.4664 -0.9042
  968SOL    HW3 3871   3.660   4.472   1.470 -1.3964 -1.8521  0.3226
  968SOL    MW4 3872   3.619   4.498   1.398  0.0593 -0.4838 -0.0452
  969SOL     OW 3873   0.845   3.023   1.535  0.0080  0.3592 -0.3008
  969SOL    HW2 3874   0.807   2.943   1.572 -1.7416  1.6743  0.8643
  969SOL    HW3 3875   0.887   2.996   1.454 -0.7628 -1.6921 -0.0235
  969SOL    MW4 3876   0.846   3.009   1.529 -0.3246  0.2620 -0.1105
  970SOL     OW 3877   2.034   4.576   0.313 -0.0658 -0.3296  0.1062
  970SOL    HW2 3878   2.020   4.666   0.342 -1.0611 -0.0589 -1.2048
  970SOL    HW3 3879   2.126   4.559   0.334  0.4386  1.3550 -0.6452
  970SOL    MW4 3880   2.044   4.586   0.320 -0.1306 -0.0717 -0.1659
  971SOL     OW 3881   4.214   3.815   2.289 -0.1708 -0.3677  0.3536
  971SOL    HW2 3882   4.303   3.833   2.260 -0.1969  0.2103  0.6323
  971SOL    HW3 3883   4.217   3.825   2.384 -0.6654  0.2103  0.3114
  971SOL    MW4 3884   4.226   3.819   2.298 -0.2395 -0.2152  0.3848
  972SOL     OW 3885   2.181   0.048   0.836 -0.1104  0.3594 -0.0466
  972SOL    HW2 3886   2.148   0.042   0.926  0.5392 -0.0534  0.1699
  972SOL    HW3 3887   2.210   0.138   0.828 -0.3116  0.4400  0.1086
  972SOL    MW4 3888   2.180   0.059   0.847 -0.0512  0.3156  0.0024
  973SOL     OW 3889   2.402   0.690   1.441  0.5420  0.1806 -0.0013
  973SOL    HW2 3890   2.429   0.697   1.350  1.0995  0.6584  0.1953
  973SOL    HW3 3891   2.469   0.738   1.490 -0.0598  0.4234  0.6020
  973SOL    MW4 3892   2.415   0.697   1.436  0.5361  0.2757  0.1042
  974SOL     OW 3893   2.867   0.782   1.289 -0.1117 -0.1550  0.2753
  974SOL    HW2 3894   2.782   0.827   1.287 -0.9478 -1.7101  0.2392
  974SOL    HW3 3895   2.894   0.787   1.381 -1.4025 -1.7466  0.7734
  974SOL    MW4 3896   2.859   0.789   1.301 -0.3923 -0.5702  0.3362
  975SOL     OW 3897   3.559   3.713   1.860 -0.4218  0.0537 -0.2140
  975SOL    HW2 3898   3.476   3.678   1.891 -0.6739  0.3106 -0.6007
  975SOL    HW3 3899   3.625   3.653   1.895 -0.5331  1.4538  2.5124
  975SOL    MW4 3900   3.557   3.701   1.869 -0.4697  0.2723  0.0947
  976SOL     OW 3901   1.563   0.478   1.902 -0.3719 -0.1091 -0.6857
  976SOL    HW2 3902   1.632   0.421   1.869  0.4123  0.5469 -0.2048
  976SOL    HW3 3903   1.567   0.556   1.846 -0.0801  0.3348 -0.0595
  976SOL    MW4 3904   1.573   0.481   1.890 -0.2300  0.0360 -0.5396
  977SOL     OW 3905   0.375   3.102   0.579 -0.3880  0.2933  0.3673
  977SOL    HW2 3906   0.347   3.193   0.566 -0.8525  0.1439  0.3286
  977SOL    HW3 3907   0.331   3.075   0.659  1.1804  0.6856  1.4003
  977SOL    MW4 3908   0.366   3.111   0.588 -0.2423  0.3254  0.4985
  978SOL     OW 3909   0.346   4.351   0.269  0.0025 -0.0588  0.2428
  978SOL    HW2 3910   0.429   4.358   0.222 -0.7479 -1.0134 -1.2766
  978SOL    HW3 3911   0.330   4.439   0.302  1.6488  0.1172  0.6159
  978SOL    MW4 3912   0.355   4.363   0.267  0.1207 -0.1615  0.0916
  979SOL     OW 3913   1.015   1.212   1.071 -0.2255  0.0447 -0.2262
  979SOL    HW2 3914   1.049   1.138   1.021  0.3859 -0.0977  0.3923
  979SOL    HW3 3915   1.090   1.242   1.123 -0.9452 -0.0572  0.8934
  979SOL    MW4 3916   1.030   1.206   1.071 -0.2398  0.0125  0.0031
  980SOL     OW 3917   4.329   1.273   2.222  0.2426 -0.6745  0.6923
  980SOL    HW2 3918   4.313   1.244   2.132 -0.4057 -1.9765  1.2157
  980SOL    HW3 3919   4.377   1.201   2.262  0.8099  0.0366  1.3014
  980SOL    MW4 3920   4.333   1.260   2.215  0.2319 -0.7524  0.8417
  981SOL     OW 3921   2.744   2.645   0.706 -0.4731 -0.0407 -0.1831
  981SOL    HW2 3922   2.766   2.600   0.625  0.3079  0.6372 -0.3604
  981SOL    HW3 3923   2.664   2.694   0.686  0.2165  0.8485 -0.8308
  981SOL    MW4 3924   2.737   2.646   0.693 -0.2791  0.1660 -0.2920
  982SOL     OW 3925   2.865   1.777   1.949  0.1953 -0.0522 -0.3434
  982SOL    HW2 3926   2.919   1.705   1.916 -0.5864 -0.7138 -0.2125
  982SOL    HW3 3927   2.852   1.756   2.042  0.8179  0.8051 -0.0591
  982SOL    MW4 3928   2.870   1.765   1.957  0.1743 -0.0264 -0.2886
  983SOL     OW 3929   4.000   0.634   0.361 -0.2360 -0.0528 -0.1867
  983SOL    HW2 3930   3.929   0.698   0.368  0.8064  1.1625 -0.4307
  983SOL    HW3 3931   4.056   0.652   0.436  0.0886 -0.6561 -0.2824
  983SOL    MW4 3932   3.998   0.645   0.372 -0.0556  0.0279 -0.2315
  984SOL     OW 3933   1.863   1.002   1.494 -0.6961  0.3503 -0.1424
  984SOL    HW2 3934   1.829   1.091   1.504 -0.6403  0.2016  1.5868
  984SOL    HW3 3935   1.957   1.014   1.484 -0.4609  0.4208  1.8949
  984SOL    MW4 3936   1.871   1.016   1.494 -0.6577  0.3400  0.3546
  985SOL     OW 3937   3.594   0.020   1.988 -0.0408 -0.3778  0.2813
  985SOL    HW2 3938   3.557   0.100   2.023 -0.2163  0.0139 -0.7635
  985SOL    HW3 3939   3.681   0.044   1.957 -0.4519 -0.3614 -0.8873
  985SOL    MW4 3940   3.600   0.033   1.988 -0.1182 -0.3239 -0.0107
  986SOL     OW 3941   2.935   2.648   1.230 -0.3289 -0.1355 -0.2797
  986SOL    HW2 3942   2.941   2.703   1.152  0.9709  0.6676  0.3621
  986SOL    HW3 3943   2.958   2.560   1.200 -1.0340 -0.0733 -1.0312
  986SOL    MW4 3944   2.939   2.644   1.216 -0.2504 -0.0213 -0.2942
  987SOL     OW 3945   3.849   0.836   1.874 -0.3104  0.2427 -0.3072
  987SOL    HW2 3946   3.799   0.913   1.847  0.4094  0.8187 -0.0254
  987SOL    HW3 3947   3.938   0.870   1.889  0.5582 -1.0482 -2.3300
  987SOL    MW4 3948   3.854   0.851   1.872 -0.1008  0.1484 -0.5369
  988SOL     OW 3949   3.785   0.853   2.167 -0.0381 -0.1279 -0.1911
  988SOL    HW2 3950   3.791   0.824   2.075 -0.1185  0.1680 -0.2907
  988SOL    HW3 3951   3.803   0.947   2.163 -0.9497  0.0576 -0.0213
  988SOL    MW4 3952   3.788   0.861   2.154 -0.1690 -0.0644 -0.1819
  989SOL     OW 3953   0.984   3.774   1.779 -0.0324  0.1783 -0.1307
  989SOL    HW2 3954   0.966   3.680   1.785 -1.8808  0.4605 -0.7434
  989SOL    HW3 3955   1.073   3.784   1.813 -0.0943 -1.6879  0.6577
  989SOL    MW4 3956   0.993   3.763   1.784 -0.2845 -0.0307 -0.1075
  990SOL     OW 3957   3.235   4.112   0.903  0.2996 -0.0109 -0.3167
  990SOL    HW2 3958   3.296   4.080   0.970 -1.0293 -1.6911  0.1071
  990SOL    HW3 3959   3.268   4.075   0.822  0.9235  0.6282 -0.3599
  990SOL    MW4 3960   3.248   4.103   0.902  0.2066 -0.1483 -0.2665
  991SOL     OW 3961   0.480   3.652   0.970 -0.2869 -0.1968  0.5819
  991SOL    HW2 3962   0.476   3.709   1.046  0.4397  1.1737 -0.3922
  991SOL    HW3 3963   0.529   3.702   0.904  0.6962 -2.0810 -0.1612
  991SOL    MW4 3964   0.486   3.666   0.971 -0.0613 -0.2646  0.3553
  992SOL     OW 3965   0.259   1.503   1.488  0.2339 -0.1946  0.5090
  992SOL    HW2 3966   0.231   1.510   1.579 -1.7777 -0.8575 -0.0410
  992SOL    HW3 3967   0.222   1.420   1.458 -0.5181  0.8072 -1.3987
  992SOL    MW4 3968   0.250   1.493   1.496 -0.1307 -0.1499  0.1848
  993SOL     OW 3969   2.579   0.856   1.558  0.2473  0.3894  0.2786
  993SOL    HW2 3970   2.584   0.890   1.469  0.3202 -1.1818 -0.3248
  993SOL    HW3 3971   2.663   0.814   1.573 -1.1424 -2.7382 -0.3314
  993SOL    MW4 3972   2.591   0.855   1.548  0.0735 -0.2306  0.1185
  994SOL     OW 3973   0.911   1.408   1.722  0.3595 -0.0543 -0.2925
  994SOL    HW2 3974   0.866   1.492   1.729  0.2749 -0.0877 -0.4408
  994SOL    HW3 3975   0.906   1.385   1.629  0.1457 -0.3506 -0.2117
  994SOL    MW4 3976   0.904   1.416   1.711  0.3201 -0.0978 -0.3014
  995SOL     OW 3977   1.266   0.716   0.721  0.1914  0.1053  0.7904
  995SOL    HW2 3978   1.253   0.691   0.629  1.8133  0.6643  0.4045
  995SOL    HW3 3979   1.184   0.689   0.764 -1.2425  1.2924 -1.0999
  995SOL    MW4 3980   1.253   0.709   0.714  0.2162  0.3357  0.4901
  996SOL     OW 3981   3.258   1.694   0.877 -0.0072  0.1232  0.1985
  996SOL    HW2 3982   3.203   1.641   0.935  0.6651  0.9458  1.6109
  996SOL    HW3 3983   3.320   1.631   0.839  0.2799 -0.2376  1.2463
  996SOL    MW4 3984   3.259   1.678   0.880  0.1194  0.1841  0.5231
  997SOL     OW 3985   1.927   0.601   1.493  0.2717  0.2455  0.1258
  997SOL    HW2 3986   1.925   0.612   1.398  0.3303  0.7045  0.1760
  997SOL    HW3 3987   1.897   0.512   1.508 -0.7661  0.5172 -0.2719
  997SOL    MW4 3988   1.923   0.591   1.483  0.1425  0.3419  0.0800
  998SOL     OW 3989   0.743   3.679   0.440  0.1499 -0.3594  0.3247
  998SOL    HW2 3990   0.808   3.645   0.380  1.4599  3.1820 -0.4094
  998SOL    HW3 3991   0.767   3.644   0.526  0.7644 -2.0631 -0.5375
  998SOL    MW4 3992   0.755   3.670   0.444  0.4038 -0.1169  0.1141
  999SOL     OW 3993   4.334   2.808   0.944 -0.7488 -0.1241 -0.1009
  999SOL    HW2 3994   4.388   2.729   0.953  1.4687  1.3983  0.4231
  999SOL    HW3 3995   4.335   2.826   0.850 -0.6384 -0.3057 -0.1363
  999SOL    MW4 3996   4.342   2.800   0.933 -0.4417  0.0528 -0.0365
 1000SOL     OW 3997   0.557   2.511   1.056 -0.5375 -0.1037  0.3959
 1000SOL    HW2 3998   0.474   2.512   1.009 -1.1932  0.0087  1.5250
 1000SOL    HW3 3999   0.573   2.603   1.077 -0.7730 -0.2631  1.2816
 1000SOL    MW4 4000   0.548   2.524   1.053 -0.6551 -0.1099  0.6618
 1001SOL     OW 4001   1.348   2.547   0.364 -0.1695 -0.3125 -0.3043
 1001SOL    HW2 4002   1.440   2.558   0.337 -0.0382 -0.4812  0.0701
 1001SOL    HW3 4003   1.339   2.603   0.441 -0.2410 -0.7018 -0.0293
 1001SOL    MW4 4004   1.359   2.556   0.370 -0.1616 -0.3861 -0.2186
 1002SOL     OW 4005   4.345   2.840   2.148 -0.2345 -0.0904 -0.1670
 1002SOL    HW2 4006   4.320   2.792   2.227 -2.1627 -0.6442 -1.0936
 1002SOL    HW3 4007   4.280   2.910   2.141  0.2918  0.3322 -0.9345
 1002SOL    MW4 4008   4.333   2.843   2.158 -0.4194 -0.1077 -0.3905
 1003SOL     OW 4009   0.864   1.417   1.428  0.2855 -0.8621 -0.3456
 1003SOL    HW2 4010   0.847   1.394   1.336 -1.2193 -1.5856  0.0905
 1003SOL    HW3 4011   0.799   1.483   1.449  0.9743 -0.3060  0.0505
 1003SOL    MW4 4012   0.853   1.422   1.418  0.1778 -0.8841 -0.2358
 1004SOL     OW 4013   4.480   3.328   0.343 -0.0998 -0.1328 -0.0239
 1004SOL    HW2 4014   4.451   3.247   0.302  0.1951 -1.0431  1.5128
 1004SOL    HW3 4015   4.576   3.323   0.341 -0.0797 -0.4597  1.2552
 1004SOL    MW4 4016   4.489   3.316   0.338 -0.0582 -0.2960  0.3476
 1005SOL     OW 4017   4.215   0.372   1.317 -0.0739  0.0238 -0.4513
 1005SOL    HW2 4018   4.293   0.318   1.334 -0.3692 -0.2474  0.0737
 1005SOL    HW3 4019   4.146   0.331   1.369 -0.0193  1.6278  0.9461
 1005SOL    MW4 4020   4.216   0.359   1.326 -0.1057  0.1997 -0.1976
 1006SOL     OW 4021   0.466   3.229   0.943  0.3162  0.1075 -0.0996
 1006SOL    HW2 4022   0.393   3.174   0.916  0.2550  0.4285 -0.5940
 1006SOL    HW3 4023   0.543   3.186   0.909  0.1961  0.7890 -1.2494
 1006SOL    MW4 4024   0.466   3.216   0.935  0.2922  0.2398 -0.3165
 1007SOL     OW 4025   2.221   0.775   0.397 -0.3307  0.1235 -0.8722
 1007SOL    HW2 4026   2.272   0.758   0.318 -0.7798 -0.0774 -1.1224
 1007SOL    HW3 4027   2.218   0.690   0.442 -0.1736  0.2108 -0.6936
 1007SOL    MW4 4028   2.228   0.761   0.393 -0.3692  0.1085 -0.8816
 1008SOL     OW 4029   4.452   2.579   0.840  0.8826  0.7758 -0.0115
 1008SOL    HW2 4030   4.434   2.591   0.747 -1.9773  0.5826  0.4813
 1008SOL    HW3 4031   4.470   2.485   0.849 -1.4598  0.3004  0.0060
 1008SOL    MW4 4032   4.452   2.568   0.829  0.1962  0.6876  0.0558
 1009SOL     OW 4033   3.490   0.944   1.943  0.1811 -0.6454 -0.0847
 1009SOL    HW2 4034   3.503   0.896   2.025 -0.4614  0.6026  0.7574
 1009SOL    HW3 4035   3.400   0.975   1.947  0.8676  1.4720 -0.1599
 1009SOL    MW4 4036   3.480   0.942   1.954  0.1869 -0.2014  0.0164
 1010SOL     OW 4037   0.853   1.233   1.932  0.0716  0.2545  0.6602
 1010SOL    HW2 4038   0.880   1.300   1.869 -0.3622 -0.2260 -0.0449
 1010SOL    HW3 4039   0.923   1.232   1.997  0.6753  0.5476  0.0214
 1010SOL    MW4 4040   0.866   1.241   1.932  0.0940  0.2298  0.4829
 1011SOL     OW 4041   0.089   3.040   1.727 -0.0076 -0.2287 -0.1909
 1011SOL    HW2 4042   0.119   3.114   1.675 -0.8754 -0.4336 -1.0062
 1011SOL    HW3 4043   0.116   2.962   1.678 -1.7847 -0.4142 -0.9274
 1011SOL    MW4 4044   0.096   3.039   1.714 -0.3566 -0.2802 -0.3956
 1012SOL     OW 4045   4.292   3.547   0.317 -0.0895  0.0509 -0.1374
 1012SOL    HW2 4046   4.344   3.468   0.304  1.7808  0.9626  1.5945
 1012SOL    HW3 4047   4.357   3.616   0.333 -1.7295  1.7341 -0.5951
 1012SOL    MW4 4048   4.308   3.546   0.317 -0.0591  0.3933  0.0307
 1013SOL     OW 4049   1.548   1.495   0.615  0.4083  0.4495  0.0605
 1013SOL    HW2 4050   1.642   1.489   0.601  0.5244 -0.7443  1.2395
 1013SOL    HW3 4051   1.519   1.404   0.624 -0.5990  0.8642  1.2280
 1013SOL    MW4 4052   1.556   1.482   0.615  0.2907  0.3467  0.3701
 1014SOL     OW 4053   2.848   1.915   1.634 -0.1796 -0.3777  0.0587
 1014SOL    HW2 4054   2.910   1.852   1.670 -2.2843 -1.9927  0.9331
 1014SOL    HW3 4055   2.764   1.894   1.676 -1.3075  1.8427 -0.9866
 1014SOL    MW4 4056   2.845   1.904   1.644 -0.6061 -0.2978  0.0362
 1015SOL     OW 4057   3.278   0.724   0.606 -0.5616 -0.0246  0.2019
 1015SOL    HW2 4058   3.299   0.632   0.621  0.3584  0.1399  0.0063
 1015SOL    HW3 4059   3.230   0.724   0.523  0.6723 -0.1877 -0.5231
 1015SOL    MW4 4060   3.275   0.712   0.597 -0.2774 -0.0244  0.0805
 1016SOL     OW 4061   0.831   4.315   1.276  0.3429  0.0277 -0.3278
 1016SOL    HW2 4062   0.877   4.235   1.299  1.5406  0.5348 -0.8807
 1016SOL    HW3 4063   0.835   4.369   1.355 -0.5540 -0.4902  0.0772
 1016SOL    MW4 4064   0.838   4.312   1.289  0.3826  0.0263 -0.3473
 1017SOL     OW 4065   3.709   2.663   1.313 -0.1405 -0.0895  0.5019
 1017SOL    HW2 4066   3.768   2.726   1.354  1.4233 -0.4929 -1.0636
 1017SOL    HW3 4067   3.621   2.696   1.333  0.6201  1.0217  2.0976
 1017SOL    MW4 4068   3.705   2.676   1.321  0.1661  0.0039  0.5059
 1018SOL     OW 4069   2.480   3.442   1.749  0.0064 -0.0090  0.6881
 1018SOL    HW2 4070   2.408   3.383   1.771 -0.1845 -0.6118 -1.4536
 1018SOL    HW3 4071   2.559   3.390   1.764 -0.0861 -0.0982  0.8630
 1018SOL    MW4 4072   2.481   3.428   1.754 -0.0310 -0.1003  0.4286
 1019SOL     OW 4073   1.533   4.618   0.278  0.0005  0.3427  0.4997
 1019SOL    HW2 4074   1.471   4.547   0.296  0.7651 -0.6953 -0.8771
 1019SOL    HW3 4075   1.618   4.576   0.274  0.4374  1.2948 -0.5997
 1019SOL    MW4 4076   1.536   4.603   0.280  0.1590  0.3313  0.1730
 1020SOL     OW 4077   3.406   2.987   0.444  0.1627  0.2308  0.1865
 1020SOL    HW2 4078   3.353   3.066   0.448  0.3471  0.2931  1.6809
 1020SOL    HW3 4079   3.496   3.019   0.441  0.2025  0.0904 -0.1390
 1020SOL    MW4 4080   3.411   3.002   0.444  0.1923  0.2205  0.3407
 1021SOL     OW 4081   3.305   1.175   1.667  0.5731 -0.1583 -0.1420
 1021SOL    HW2 4082   3.297   1.244   1.733  1.3098 -0.9689  0.8063
 1021SOL    HW3 4083   3.335   1.099   1.716  1.0625 -0.7878 -1.4133
 1021SOL    MW4 4084   3.308   1.174   1.682  0.7348 -0.3483 -0.1846
 1022SOL     OW 4085   2.078   3.208   1.085  0.2293  0.1728 -0.3115
 1022SOL    HW2 4086   2.117   3.230   1.000  0.4256 -1.4541 -0.6657
 1022SOL    HW3 4087   2.152   3.210   1.146  0.8832 -2.7637 -0.9547
 1022SOL    MW4 4088   2.093   3.211   1.082  0.3415 -0.4293 -0.4431
 1023SOL     OW 4089   4.245   3.732   0.809  0.2673 -0.0690  0.3325
 1023SOL    HW2 4090   4.327   3.753   0.853  0.2023 -1.5922  1.2249
 1023SOL    HW3 4091   4.268   3.730   0.716  0.8572  1.1650  0.4425
 1023SOL    MW4 4092   4.259   3.735   0.802  0.3366 -0.1072  0.4648
 1024SOL     OW 4093   2.315   0.984   0.550  0.1761  0.5198 -0.5207
 1024SOL    HW2 4094   2.407   0.962   0.565 -0.7726 -2.0639  2.0553
 1024SOL    HW3 4095   2.280   0.910   0.500 -1.0556  0.2412  0.6969
 1024SOL    MW4 4096   2.322   0.971   0.546 -0.1116  0.1421 -0.0202
 1025SOL     OW 4097   1.718   1.725   1.569  0.0015  0.0248  0.2369
 1025SOL    HW2 4098   1.813   1.713   1.559  0.0474  0.2437  0.4024
 1025SOL    HW3 4099   1.704   1.818   1.549 -0.2644 -0.1567 -0.4088
 1025SOL    MW4 4100   1.729   1.736   1.565 -0.0275  0.0297  0.1735
 1026SOL     OW 4101   2.606   0.505   1.519  0.2234  0.2641  0.3995
 1026SOL    HW2 4102   2.555   0.572   1.472  0.3610  0.4722  0.5456
 1026SOL    HW3 4103   2.599   0.530   1.611  1.3548  0.8154  0.3383
 1026SOL    MW4 4104   2.598   0.517   1.525  0.3909  0.3643  0.4107
 1027SOL     OW 4105   3.996   3.101   0.722  0.3348 -0.4577 -0.2114
 1027SOL    HW2 4106   4.043   3.165   0.669 -3.5103  0.8982 -2.1104
 1027SOL    HW3 4107   4.004   3.135   0.812  1.5133  0.6272 -0.7014
 1027SOL    MW4 4108   4.003   3.114   0.727 -0.0170 -0.1357 -0.5266
 1028SOL     OW 4109   3.300   0.321   0.364 -0.6936  0.3312 -0.2092
 1028SOL    HW2 4110   3.310   0.355   0.453 -1.3188  0.7763 -0.3039
 1028SOL    HW3 4111   3.365   0.251   0.358  0.1336  1.0523  0.2158
 1028SOL    MW4 4112   3.310   0.316   0.375 -0.6669  0.4850 -0.1656
 1029SOL     OW 4113   3.476   0.555   0.959  0.4352 -0.0793  0.1950
 1029SOL    HW2 4114   3.554   0.599   0.993  1.7108 -2.1212  0.0475
 1029SOL    HW3 4115   3.500   0.531   0.869 -0.2271 -1.0053  0.2591
 1029SOL    MW4 4116   3.490   0.558   0.951  0.5161 -0.4709  0.1840
 1030SOL     OW 4117   1.181   2.634   1.965  0.0302  0.3268 -0.2931
 1030SOL    HW2 4118   1.099   2.683   1.967 -0.7321 -0.8626 -1.3141
 1030SOL    HW3 4119   1.154   2.543   1.956  1.4722 -0.0856 -0.5891
 1030SOL    MW4 4120   1.167   2.628   1.964  0.1199  0.1155 -0.4669
 1031SOL     OW 4121   3.624   1.805   0.665 -0.0827  0.5100  0.9139
 1031SOL    HW2 4122   3.672   1.746   0.723  0.9748  1.1495  0.7031
 1031SOL    HW3 4123   3.588   1.872   0.724  1.1976  1.2984  0.8266
 1031SOL    MW4 4124   3.625   1.806   0.681  0.2257  0.6984  0.8746
 1032SOL     OW 4125   3.576   1.486   1.571  0.3416  0.1633 -0.5713
 1032SOL    HW2 4126   3.667   1.466   1.547  0.4365  0.1348 -0.1776
 1032SOL    HW3 4127   3.551   1.557   1.511  0.2458 -0.6095 -1.4708
 1032SOL    MW4 4128   3.585   1.493   1.560  0.3415  0.0576 -0.6380
 1033SOL     OW 4129   4.435   3.636   1.393 -0.2825  0.3998 -0.5055
 1033SOL    HW2 4130   4.359   3.662   1.446 -0.6965 -0.9461 -0.4133
 1033SOL    HW3 4131   4.463   3.717   1.350 -0.0470  1.4670  1.6215
 1033SOL    MW4 4132   4.428   3.650   1.394 -0.3060  0.3630 -0.2127
 1034SOL     OW 4133   3.389   4.462   1.191  0.2254 -0.0917  0.0620
 1034SOL    HW2 4134   3.410   4.476   1.099 -1.0258 -1.1982 -0.4134
 1034SOL    HW3 4135   3.451   4.396   1.220  0.9800  0.6624  0.1579
 1034SOL    MW4 4136   3.400   4.455   1.183  0.1599 -0.1382  0.0119
 1035SOL     OW 4137   1.730   1.625   2.215  0.0027 -0.2318  0.6144
 1035SOL    HW2 4138   1.744   1.621   2.120  0.7435  0.1595  0.7082
 1035SOL    HW3 4139   1.657   1.564   2.231 -0.3363 -0.0536 -0.2430
 1035SOL    MW4 4140   1.722   1.616   2.205  0.0557 -0.1567  0.5137
 1036SOL     OW 4141   3.923   2.649   2.097  0.5895  0.2763 -0.1057
 1036SOL    HW2 4142   3.977   2.580   2.058  0.6254  0.1814  0.1131
 1036SOL    HW3 4143   3.956   2.658   2.186 -0.0507 -0.0934  0.1685
 1036SOL    MW4 4144   3.935   2.641   2.103  0.5098  0.2150 -0.0406
 1037SOL     OW 4145   3.366   3.044   2.388  0.3060 -0.1248 -0.3765
 1037SOL    HW2 4146   3.304   3.086   2.328  0.9001 -0.2332 -1.0789
 1037SOL    HW3 4147   3.333   3.065   2.475 -1.6076 -1.4977 -0.7334
 1037SOL    MW4 4148   3.354   3.052   2.391  0.1319 -0.3202 -0.5162
 1038SOL     OW 4149   0.424   2.064   0.695 -0.1055  0.1458  0.2416
 1038SOL    HW2 4150   0.477   2.048   0.617  1.2586  0.9157  0.9841
 1038SOL    HW3 4151   0.449   1.995   0.756  0.6715  0.9967  0.8984
 1038SOL    MW4 4152   0.435   2.053   0.692  0.1770  0.3596  0.4262
 1039SOL     OW 4153   2.980   2.324   0.673  0.1950 -0.0863  0.0256
 1039SOL    HW2 4154   3.045   2.253   0.669 -0.2568 -0.4942 -0.1408
 1039SOL    HW3 4155   2.907   2.287   0.723  0.6850  0.8522  1.4646
 1039SOL    MW4 4156   2.979   2.309   0.679  0.2001 -0.0163  0.1935
 1040SOL     OW 4157   2.428   0.782   1.821 -0.0483  0.6709  0.2213
 1040SOL    HW2 4158   2.488   0.707   1.814 -0.3816  0.4676 -0.5042
 1040SOL    HW3 4159   2.458   0.843   1.754  0.2624  1.2290  0.8550
 1040SOL    MW4 4160   2.440   0.780   1.811 -0.0513  0.7177  0.2092
 1041SOL     OW 4161   3.794   0.789   0.708 -0.0170 -0.1737 -0.0610
 1041SOL    HW2 4162   3.801   0.694   0.708  0.4487 -0.1569  1.5046
 1041SOL    HW3 4163   3.700   0.806   0.702 -0.1684 -0.7597  0.5355
 1041SOL    MW4 4164   3.783   0.779   0.707  0.0244 -0.2488  0.2243
 1042SOL     OW 4165   3.022   0.425   0.699 -0.0723  0.7248  0.0477
 1042SOL    HW2 4166   3.022   0.450   0.791 -0.8040  0.2114  0.1907
 1042SOL    HW3 4167   2.949   0.364   0.690  1.4236 -1.0805 -0.3577
 1042SOL    MW4 4168   3.013   0.420   0.710  0.0285  0.4189  0.0131
 1043SOL     OW 4169   0.117   3.768   1.814 -0.1627 -0.1080  0.2759
 1043SOL    HW2 4170   0.077   3.691   1.774 -2.6835  0.8301  0.8861
 1043SOL    HW3 4171   0.162   3.812   1.742  1.2014 -2.0630 -0.0966
 1043SOL    MW4 4172   0.118   3.764   1.800 -0.3153 -0.2422  0.3073
 1044SOL     OW 4173   2.765   2.475   0.955 -0.0015  0.4280 -0.0441
 1044SOL    HW2 4174   2.770   2.544   0.888  0.5686 -0.1325 -0.5764
 1044SOL    HW3 4175   2.696   2.505   1.014 -0.5606  0.8986 -0.9161
 1044SOL    MW4 4176   2.756   2.488   0.954 -0.0000  0.4161 -0.2294
 1045SOL     OW 4177   0.185   3.963   1.570  0.5521  0.4761 -0.1849
 1045SOL    HW2 4178   0.108   3.983   1.622  0.8294 -0.6853  0.6916
 1045SOL    HW3 4179   0.255   4.015   1.608  0.0999  2.0122 -1.3691
 1045SOL    MW4 4180   0.184   3.972   1.582  0.5290  0.5256 -0.2255
 1046SOL     OW 4181   1.411   3.266   2.200  0.1862 -0.3388  0.0993
 1046SOL    HW2 4182   1.488   3.213   2.220 -0.6466 -0.6378  2.6309
 1046SOL    HW3 4183   1.340   3.227   2.251 -1.5190  0.3746 -1.6185
 1046SOL    MW4 4184   1.411   3.254   2.209 -0.1487 -0.2841  0.2067
 1047SOL     OW 4185   2.990   0.959   0.549 -0.1478 -0.5147 -0.2364
 1047SOL    HW2 4186   3.036   0.914   0.478 -1.6915 -1.4391 -0.6791
 1047SOL    HW3 4187   3.027   0.922   0.629  1.0752 -0.0078 -0.5707
 1047SOL    MW4 4188   3.001   0.948   0.550 -0.1901 -0.5698 -0.3389
 1048SOL     OW 4189   2.456   0.597   0.636 -0.1355 -0.4080  0.8342
 1048SOL    HW2 4190   2.536   0.640   0.605 -0.6676 -0.0414 -0.0655
 1048SOL    HW3 4191   2.484   0.509   0.660  0.4014 -0.5351 -0.2103
 1048SOL    MW4 4192   2.470   0.591   0.635 -0.1348 -0.3764  0.5777
 1049SOL     OW 4193   1.734   4.634   0.993  0.1950 -0.4395  0.4482
 1049SOL    HW2 4194   1.784   4.670   0.920 -2.0691 -0.0322 -0.9731
 1049SOL    HW3 4195   1.647   4.675   0.985  0.4903  1.2310  4.6503
 1049SOL    MW4 4196   1.729   4.644   0.982 -0.0648 -0.1654  0.8151
 1050SOL     OW 4197   4.294   3.815   0.538  0.0872 -0.0671 -0.3588
 1050SOL    HW2 4198   4.362   3.771   0.487 -0.0292 -0.2569 -0.3523
 1050SOL    HW3 4199   4.312   3.908   0.527  0.5894 -0.1250 -0.0251
 1050SOL    MW4 4200   4.305   3.821   0.530  0.1381 -0.0998 -0.3139
 1051SOL     OW 4201   4.006   2.704   0.998  0.5126 -0.0322 -0.0233
 1051SOL    HW2 4202   4.021   2.750   0.916  0.0801 -0.8257 -0.5521
 1051SOL    HW3 4203   4.075   2.638   1.001  1.6012  1.1344  1.1003
 1051SOL    MW4 4204   4.017   2.702   0.988  0.5992  0.0170  0.0552
 1052SOL     OW 4205   0.570   1.988   0.467  0.0018 -0.5425  0.2177
 1052SOL    HW2 4206   0.642   1.954   0.415 -0.4881 -0.7884 -0.3069
 1052SOL    HW3 4207   0.492   1.974   0.413 -0.7602 -2.4015  1.6983
 1052SOL    MW4 4208   0.569   1.981   0.453 -0.1634 -0.8202  0.3438
 1053SOL     OW 4209   0.776   0.819   1.109 -0.1387  0.3804  0.4304
 1053SOL    HW2 4210   0.726   0.890   1.069 -0.2576  0.8516  1.3971
 1053SOL    HW3 4211   0.860   0.858   1.132  0.6105 -0.3537 -0.9854
 1053SOL    MW4 4212   0.781   0.833   1.107 -0.0555  0.3458  0.3712
 1054SOL     OW 4213   1.393   1.564   1.874  0.0007  0.0584 -0.2303
 1054SOL    HW2 4214   1.312   1.565   1.824  0.3625  0.4411 -0.8198
 1054SOL    HW3 4215   1.366   1.581   1.964 -0.7692 -1.6340 -0.1061
 1054SOL    MW4 4216   1.379   1.566   1.879 -0.0531 -0.1144 -0.2917
 1055SOL     OW 4217   0.963   2.832   1.955 -0.4430  0.4576 -0.6534
 1055SOL    HW2 4218   0.884   2.831   2.009  0.5388 -0.6163  0.7975
 1055SOL    HW3 4219   0.991   2.923   1.955 -0.4465  0.4665  0.6613
 1055SOL    MW4 4220   0.956   2.844   1.962 -0.3139  0.3171 -0.2885
 1056SOL     OW 4221   4.301   2.418   2.194 -0.2704  0.2936  0.1624
 1056SOL    HW2 4222   4.257   2.425   2.108 -0.8246 -0.2520  0.3978
 1056SOL    HW3 4223   4.374   2.359   2.179 -0.5561 -0.0546  0.1378
 1056SOL    MW4 4224   4.305   2.411   2.180 -0.3812  0.1757  0.1902
 1057SOL     OW 4225   1.614   2.582   0.311 -0.1513  0.4171  0.2829
 1057SOL    HW2 4226   1.669   2.508   0.335  0.3498  0.3352 -1.0471
 1057SOL    HW3 4227   1.649   2.655   0.361 -1.3487 -0.4649  2.4367
 1057SOL    MW4 4228   1.626   2.582   0.320 -0.2432  0.2899  0.3916
 1058SOL     OW 4229   0.658   3.504   1.649 -0.3355  0.1002 -0.1077
 1058SOL    HW2 4230   0.656   3.473   1.559 -0.8743  1.4644 -0.5754
 1058SOL    HW3 4231   0.713   3.441   1.695  1.0495  0.1384 -1.6827
 1058SOL    MW4 4232   0.665   3.492   1.643 -0.2239  0.2852 -0.3772
 1059SOL     OW 4233   1.295   1.127   2.060 -0.6201  0.6365  0.3855
 1059SOL    HW2 4234   1.361   1.157   2.122  0.1695  1.5786 -0.8727
 1059SOL    HW3 4235   1.315   1.174   1.979 -0.3058 -2.1408 -1.2139
 1059SOL    MW4 4236   1.306   1.137   2.057 -0.4745  0.3944  0.0085
 1060SOL     OW 4237   1.126   0.982   0.855  0.0819 -0.3314 -0.2494
 1060SOL    HW2 4238   1.153   1.066   0.817 -0.0921 -0.1458  0.0360
 1060SOL    HW3 4239   1.066   0.945   0.791  0.0424 -0.1663 -0.3083
 1060SOL    MW4 4240   1.122   0.988   0.842  0.0537 -0.2851 -0.2195
 1061SOL     OW 4241   2.514   0.933   1.025 -0.3125 -0.0900 -0.0419
 1061SOL    HW2 4242   2.455   0.865   0.991  1.2208 -1.1474 -0.6616
 1061SOL    HW3 4243   2.597   0.916   0.981  1.0069  0.1312  2.2722
 1061SOL    MW4 4244   2.517   0.922   1.015  0.0639 -0.2003  0.1817
 1062SOL     OW 4245   1.034   2.991   0.381  0.6559  0.3764  0.2430
 1062SOL    HW2 4246   1.100   2.928   0.352 -0.3442 -0.1574 -0.9147
 1062SOL    HW3 4247   0.969   2.992   0.311 -0.1017  1.5875  0.9409
 1062SOL    MW4 4248   1.034   2.982   0.368  0.4240  0.4658  0.1823
 1063SOL     OW 4249   3.790   2.119   0.857 -0.1541 -0.2178  0.3811
 1063SOL    HW2 4250   3.703   2.083   0.844  0.5642 -1.5439 -0.9395
 1063SOL    HW3 4251   3.833   2.110   0.771  1.4238 -0.0027  1.1216
 1063SOL    MW4 4252   3.784   2.113   0.844  0.1489 -0.3644  0.3045
 1064SOL     OW 4253   1.071   3.313   0.677 -0.0059  0.1314  0.4634
 1064SOL    HW2 4254   1.126   3.237   0.693 -0.4443 -0.1176  0.8092
 1064SOL    HW3 4255   1.027   3.294   0.594 -1.4095 -0.7705  1.3936
 1064SOL    MW4 4256   1.073   3.301   0.668 -0.2490 -0.0204  0.6318
 1065SOL     OW 4257   3.763   3.550   1.936 -0.0441 -0.1778  0.7818
 1065SOL    HW2 4258   3.792   3.459   1.935  1.6000  0.3201  0.8988
 1065SOL    HW3 4259   3.837   3.598   1.899 -1.0168  1.0684  0.4611
 1065SOL    MW4 4260   3.777   3.544   1.931  0.0445  0.0523  0.7549
 1066SOL     OW 4261   3.139   3.104   1.169  0.3567  0.4098  0.0248
 1066SOL    HW2 4262   3.081   3.055   1.228 -0.5131  0.5179 -0.7257
 1066SOL    HW3 4263   3.173   3.037   1.108 -1.3108  0.8137 -1.3844
 1066SOL    MW4 4264   3.136   3.089   1.168  0.0219  0.4773 -0.2601
 1067SOL     OW 4265   4.041   0.595   1.351 -0.0043 -0.2833  0.3529
 1067SOL    HW2 4266   4.103   0.530   1.318 -0.6459 -0.4795 -0.4818
 1067SOL    HW3 4267   4.090   0.677   1.353  0.2538 -0.4160 -0.4223
 1067SOL    MW4 4268   4.055   0.598   1.347 -0.0549 -0.3267  0.1405
 1068SOL     OW 4269   0.146   3.287   1.616 -0.1840 -0.5439  0.5390
 1068SOL    HW2 4270   0.114   3.377   1.617 -1.3673 -0.9377  2.6636
 1068SOL    HW3 4271   0.117   3.252   1.531 -1.3111  0.5422  0.4609
 1068SOL    MW4 4272   0.138   3.294   1.605 -0.4888 -0.4526  0.8090
 1069SOL     OW 4273   0.770   1.182   0.414  0.4621  0.4195  0.0184
 1069SOL    HW2 4274   0.827   1.105   0.413 -0.6112 -0.3932  0.4936
 1069SOL    HW3 4275   0.823   1.251   0.454  0.5902 -0.7670  1.9551
 1069SOL    MW4 4276   0.784   1.181   0.419  0.3374  0.1557  0.3366
 1070SOL     OW 4277   3.864   4.558   0.579 -0.5163  0.0284  0.1744
 1070SOL    HW2 4278   3.812   4.617   0.524  0.8118  0.5824 -0.5057
 1070SOL    HW3 4279   3.858   4.596   0.667 -0.6558  0.5107 -0.0418
 1070SOL    MW4 4280   3.857   4.571   0.583 -0.3594  0.1651  0.0561
 1071SOL     OW 4281   1.021   2.843   0.658 -0.0411 -0.2333 -0.1123
 1071SOL    HW2 4282   0.992   2.888   0.579  1.4329  1.5868  0.3666
 1071SOL    HW3 4283   0.940   2.811   0.698 -0.9993  0.9044 -1.0991
 1071SOL    MW4 4284   1.006   2.844   0.653  0.0270  0.1569 -0.1793
 1072SOL     OW 4285   2.757   3.345   1.727 -0.2077 -0.5162 -0.4055
 1072SOL    HW2 4286   2.814   3.406   1.774  0.1868 -0.4016 -1.0237
 1072SOL    HW3 4287   2.747   3.271   1.786 -1.3361  0.4733  0.6909
 1072SOL    MW4 4288   2.763   3.344   1.741 -0.3045 -0.3706 -0.3424
 1073SOL     OW 4289   2.268   3.222   1.281 -0.3352  0.4321  0.6023
 1073SOL    HW2 4290   2.322   3.143   1.292 -1.9256 -0.8008 -0.2240
 1073SOL    HW3 4291   2.317   3.291   1.326  2.3789 -0.4517 -0.8807
 1073SOL    MW4 4292   2.282   3.220   1.288 -0.1869  0.1528  0.2976
 1074SOL     OW 4293   4.427   0.228   1.385 -0.0534 -0.6772  0.1888
 1074SOL    HW2 4294   4.451   0.158   1.445 -0.2553 -1.6103 -0.7904
 1074SOL    HW3 4295   4.492   0.222   1.314 -0.2034 -0.0237 -0.0058
 1074SOL    MW4 4296   4.438   0.218   1.383 -0.0998 -0.7141  0.0340
 1075SOL     OW 4297   0.575   3.269   2.072  0.1828  0.2896 -0.4780
 1075SOL    HW2 4298   0.506   3.207   2.048  0.5292  0.4895 -2.0394
 1075SOL    HW3 4299   0.533   3.328   2.135 -0.3230 -1.1319  0.5620
 1075SOL    MW4 4300   0.560   3.269   2.077  0.1618  0.1284 -0.5468
 1076SOL     OW 4301   1.849   2.233   1.798  0.0325  0.3834 -0.3222
 1076SOL    HW2 4302   1.900   2.159   1.830 -0.7722 -0.0701 -0.1023
 1076SOL    HW3 4303   1.807   2.270   1.876 -1.5873 -0.4691 -0.7705
 1076SOL    MW4 4304   1.850   2.228   1.812 -0.2874  0.2111 -0.3523
 1077SOL     OW 4305   1.849   2.353   1.377  0.1406 -0.1424  0.0712
 1077SOL    HW2 4306   1.945   2.355   1.379  0.1666 -1.1634  0.6374
 1077SOL    HW3 4307   1.824   2.432   1.330  1.3615 -1.2818 -2.6145
 1077SOL    MW4 4308   1.859   2.363   1.371  0.3051 -0.4275 -0.2085
 1078SOL     OW 4309   2.009   3.446   1.279 -0.0507 -0.0621 -0.5424
 1078SOL    HW2 4310   2.097   3.483   1.283 -0.0908  0.0148 -0.3525
 1078SOL    HW3 4311   2.016   3.372   1.219 -0.2364  1.0044 -1.8970
 1078SOL    MW4 4312   2.022   3.441   1.272 -0.0805  0.0887 -0.6961
 1079SOL     OW 4313   3.744   3.049   1.147 -0.2605  0.0961  0.0113
 1079SOL    HW2 4314   3.693   3.003   1.080 -0.0858  0.8773 -0.6710
 1079SOL    HW3 4315   3.826   3.001   1.152 -0.2601  0.0591 -0.3631
 1079SOL    MW4 4316   3.748   3.036   1.139 -0.2374  0.1943 -0.1281
 1080SOL     OW 4317   1.820   3.368   0.920  0.1059  0.3802 -0.0441
 1080SOL    HW2 4318   1.900   3.422   0.920  1.0785 -1.0258 -1.4090
 1080SOL    HW3 4319   1.826   3.316   0.840 -3.4961  2.0872 -1.5340
 1080SOL    MW4 4320   1.832   3.369   0.910 -0.2410  0.4199 -0.4207
 1081SOL     OW 4321   1.123   0.914   1.757 -0.1548  0.3562  0.5666
 1081SOL    HW2 4322   1.145   0.960   1.676  0.5120  0.9047  1.0520
 1081SOL    HW3 4323   1.198   0.856   1.772 -1.4323 -1.6531 -0.5744
 1081SOL    MW4 4324   1.136   0.913   1.748 -0.2353  0.1634  0.4801
 1082SOL     OW 4325   3.170   3.994   2.167  0.3210  0.1013 -0.0878
 1082SOL    HW2 4326   3.118   4.009   2.088  1.7578 -0.3407 -1.1080
 1082SOL    HW3 4327   3.158   4.075   2.218 -0.7710  0.3019 -0.6345
 1082SOL    MW4 4328   3.161   4.007   2.164  0.3665  0.0695 -0.2945
 1083SOL     OW 4329   0.947   0.912   0.440 -0.0295 -0.3883  0.2394
 1083SOL    HW2 4330   1.036   0.927   0.408 -0.7043  0.7168 -1.1490
 1083SOL    HW3 4331   0.931   0.819   0.424  0.8314 -0.5666  0.4088
 1083SOL    MW4 4332   0.957   0.902   0.434 -0.0049 -0.2661  0.0785
 1084SOL     OW 4333   2.445   2.046   2.213  0.1191  0.4258 -0.2276
 1084SOL    HW2 4334   2.527   2.014   2.250 -0.4804 -0.1357  0.6440
 1084SOL    HW3 4335   2.441   2.005   2.126  0.6158  0.2174 -0.1568
 1084SOL    MW4 4336   2.455   2.036   2.206  0.1056  0.3242 -0.1033
 1085SOL     OW 4337   2.983   3.234   0.506  0.0116 -0.3143 -0.7525
 1085SOL    HW2 4338   2.979   3.191   0.591  0.9140 -1.6386 -1.3741
 1085SOL    HW3 4339   2.924   3.184   0.450  0.7234 -0.4783 -1.3624
 1085SOL    MW4 4340   2.975   3.222   0.510  0.2246 -0.5106 -0.9150
 1086SOL     OW 4341   3.929   3.266   0.102 -0.2117 -0.1719 -0.2779
 1086SOL    HW2 4342   3.975   3.280   0.018  0.9645  0.3084  0.4269
 1086SOL    HW3 4343   3.984   3.204   0.148 -1.0783 -0.7467 -0.0202
 1086SOL    MW4 4344   3.943   3.260   0.097 -0.1708 -0.1843 -0.1509
 1087SOL     OW 4345   3.342   0.692   2.314  0.1533  0.2820  0.1760
 1087SOL    HW2 4346   3.348   0.623   2.248 -1.7265 -0.2189  0.4806
 1087SOL    HW3 4347   3.410   0.755   2.290  2.1876 -1.8503  0.1245
 1087SOL    MW4 4348   3.352   0.691   2.302  0.1737 -0.0654  0.2094
 1088SOL     OW 4349   3.485   0.757   1.736 -0.2297  0.7419  0.2264
 1088SOL    HW2 4350   3.498   0.804   1.819 -0.8341  0.6789  0.3592
 1088SOL    HW3 4351   3.571   0.759   1.694 -0.4338  2.6734 -0.1304
 1088SOL    MW4 4352   3.498   0.764   1.742 -0.3364  0.9884  0.1969
 1089SOL     OW 4353   3.335   0.604   0.280 -0.4225  0.1005  0.2769
 1089SOL    HW2 4354   3.310   0.511   0.287  1.6509 -0.4238  1.1645
 1089SOL    HW3 4355   3.415   0.611   0.332 -1.0461  2.6054  0.9596
 1089SOL    MW4 4356   3.342   0.592   0.288 -0.2312  0.3619  0.4841
 1090SOL     OW 4357   2.388   0.695   0.896  0.2923  0.0319  0.0518
 1090SOL    HW2 4358   2.431   0.672   0.814 -0.3007  1.7566 -0.7581
 1090SOL    HW3 4359   2.302   0.653   0.892 -0.2915  1.3003 -0.8520
 1090SOL    MW4 4360   2.383   0.686   0.885  0.1371  0.4268 -0.1743
 1091SOL     OW 4361   2.208   0.915   2.121 -1.0164  0.1251 -0.1320
 1091SOL    HW2 4362   2.179   0.963   2.044 -0.9844 -0.5365 -0.5555
 1091SOL    HW3 4363   2.135   0.859   2.144 -1.6195  1.4436  1.2544
 1091SOL    MW4 4364   2.195   0.914   2.114 -1.0918  0.2118 -0.0050
 1092SOL     OW 4365   2.436   0.120   0.519 -0.0630 -0.0740  0.3224
 1092SOL    HW2 4366   2.518   0.139   0.475 -1.0382 -0.9594 -1.9556
 1092SOL    HW3 4367   2.461   0.067   0.595  1.4614 -0.4427 -0.4114
 1092SOL    MW4 4368   2.450   0.115   0.523  0.0095 -0.2394 -0.0750
 1093SOL     OW 4369   1.998   1.276   1.039  0.2028  0.2927 -0.3479
 1093SOL    HW2 4370   1.909   1.288   1.074  0.1710  1.3625 -0.8029
 1093SOL    HW3 4371   1.984   1.234   0.954  0.2960 -2.6920  1.0214
 1093SOL    MW4 4372   1.984   1.272   1.033  0.2109  0.0400 -0.2273
 1094SOL     OW 4373   0.581   4.056   1.899  0.4742 -0.2299  0.2607
 1094SOL    HW2 4374   0.552   4.052   1.990  0.6253 -0.8789  0.2866
 1094SOL    HW3 4375   0.676   4.046   1.903  0.4922 -0.1511  0.0419
 1094SOL    MW4 4376   0.590   4.054   1.912  0.4965 -0.3051  0.2352
 1095SOL     OW 4377   3.527   2.623   0.362 -0.5093  0.0956 -0.3589
 1095SOL    HW2 4378   3.494   2.600   0.449 -0.2243 -0.7263 -0.4625
 1095SOL    HW3 4379   3.526   2.540   0.313 -0.6444  0.5459 -1.1308
 1095SOL    MW4 4380   3.523   2.609   0.367 -0.4895  0.0466 -0.4744
 1096SOL     OW 4381   2.563   3.327   1.054  0.1642  0.0703  0.2933
 1096SOL    HW2 4382   2.620   3.377   0.996  1.1996 -0.3840  0.9198
 1096SOL    HW3 4383   2.542   3.248   1.004 -0.0045  0.2859  0.0216
 1096SOL    MW4 4384   2.568   3.323   1.040  0.2786  0.0388  0.3401
 1097SOL     OW 4385   0.512   1.821   1.800  0.5973 -0.6557 -0.0443
 1097SOL    HW2 4386   0.426   1.785   1.824  0.4313  1.3619  2.6206
 1097SOL    HW3 4387   0.493   1.881   1.727 -0.1708 -0.7667  0.0569
 1097SOL    MW4 4388   0.498   1.824   1.793  0.4741 -0.4041  0.3207
 1098SOL     OW 4389   0.014   3.761   0.930 -0.3006  0.5843  0.2896
 1098SOL    HW2 4390   0.071   3.829   0.893 -0.3614 -0.3816 -1.6128
 1098SOL    HW3 4391   0.064   3.680   0.920 -0.3145  0.3003  2.3725
 1098SOL    MW4 4392   0.028   3.759   0.924 -0.3105  0.4194  0.3134
 1099SOL     OW 4393   2.787   4.192   2.222  0.3450  0.3016 -0.5295
 1099SOL    HW2 4394   2.781   4.103   2.188  0.7635  0.3350 -0.6997
 1099SOL    HW3 4395   2.775   4.183   2.316 -0.9127  0.2191 -0.6982
 1099SOL    MW4 4396   2.785   4.179   2.230  0.2343  0.2951 -0.5742
 1100SOL     OW 4397   2.633   0.937   1.287 -0.3583 -0.0180  0.5014
 1100SOL    HW2 4398   2.678   1.021   1.297  1.4578 -0.7857 -0.8600
 1100SOL    HW3 4399   2.595   0.941   1.199 -0.6349 -0.4496  0.6036
 1100SOL    MW4 4400   2.634   0.949   1.276 -0.1551 -0.1762  0.3353
 1101SOL     OW 4401   4.269   4.643   2.051 -0.4552  0.0469 -0.1672
 1101SOL    HW2 4402   4.226   4.649   2.136 -1.5341  0.3836 -0.7328
 1101SOL    HW3 4403   4.266   4.550   2.029 -1.5033  0.1612 -0.5184
 1101SOL    MW4 4404   4.263   4.632   2.059 -0.7358  0.1064 -0.2882
 1102SOL     OW 4405   1.069   4.106   0.752 -0.0741 -0.1526  0.0654
 1102SOL    HW2 4406   1.099   4.156   0.677  0.8330  0.6287  0.9392
 1102SOL    HW3 4407   0.990   4.152   0.782 -0.0281 -0.0460  0.0228
 1102SOL    MW4 4408   1.063   4.119   0.746  0.0516 -0.0355  0.1750
 1103SOL     OW 4409   0.967   3.205   1.725 -0.2324  0.3352 -0.3212
 1103SOL    HW2 4410   0.929   3.140   1.666 -2.0968  0.3483  0.8496
 1103SOL    HW3 4411   0.895   3.231   1.782  1.0697  1.7612  0.6999
 1103SOL    MW4 4412   0.953   3.200   1.725 -0.3066  0.5251 -0.0320
 1104SOL     OW 4413   2.140   1.044   1.177  0.2047  0.2605  0.1071
 1104SOL    HW2 4414   2.143   0.985   1.102  0.0465  0.5874 -0.1596
 1104SOL    HW3 4415   2.081   1.115   1.150 -0.7707 -0.2140  0.9798
 1104SOL    MW4 4416   2.133   1.046   1.164  0.0551  0.2410  0.1870
 1105SOL     OW 4417   0.589   0.905   1.844 -0.6579 -0.4267 -0.5215
 1105SOL    HW2 4418   0.578   0.872   1.755  2.9576 -1.6340 -0.6419
 1105SOL    HW3 4419   0.682   0.930   1.849 -0.8185 -0.2131  2.8240
 1105SOL    MW4 4420   0.600   0.904   1.833 -0.2021 -0.5578 -0.0960
 1106SOL     OW 4421   2.148   2.908   1.068  0.1805 -0.6524  0.1515
 1106SOL    HW2 4422   2.098   2.839   1.111  1.4551 -1.1185  0.8973
 1106SOL    HW3 4423   2.104   2.989   1.094  0.3017 -1.0025  1.4639
 1106SOL    MW4 4424   2.136   2.910   1.077  0.3647 -0.7601  0.4231
 1107SOL     OW 4425   3.418   1.555   2.221  0.1392  0.3744  0.0707
 1107SOL    HW2 4426   3.324   1.563   2.210 -0.0852 -2.1032 -0.0708
 1107SOL    HW3 4427   3.429   1.525   2.312  0.7926  0.5529  0.0564
 1107SOL    MW4 4428   3.407   1.552   2.232  0.1958  0.0711  0.0501
 1108SOL     OW 4429   3.430   4.285   1.845  0.1498 -0.0068 -0.4862
 1108SOL    HW2 4430   3.435   4.208   1.901  2.4174  1.5713  1.6107
 1108SOL    HW3 4431   3.520   4.298   1.815  0.0446  2.5093  0.1778
 1108SOL    MW4 4432   3.443   4.277   1.848  0.4351  0.5334 -0.1219
 1109SOL     OW 4433   2.557   2.343   0.579 -0.0592  0.0895 -0.2951
 1109SOL    HW2 4434   2.638   2.386   0.552  0.1237  0.6713  1.1362
 1109SOL    HW3 4435   2.506   2.411   0.621 -0.9538 -0.4665 -0.4635
 1109SOL    MW4 4436   2.561   2.357   0.581 -0.1531  0.0929 -0.1285
 1110SOL     OW 4437   2.557   3.674   1.864 -0.0345 -0.0471 -0.0555
 1110SOL    HW2 4438   2.632   3.697   1.810 -0.6285  1.6433 -0.2034
 1110SOL    HW3 4439   2.522   3.594   1.825  0.7404  0.0361 -0.9297
 1110SOL    MW4 4440   2.562   3.666   1.852 -0.0106  0.1869 -0.1903
 1111SOL     OW 4441   0.785   1.764   0.590  0.3529  0.0579 -0.0397
 1111SOL    HW2 4442   0.720   1.696   0.570  0.4211 -0.2037  0.6215
 1111SOL    HW3 4443   0.754   1.841   0.543 -2.3907  0.9711  3.0975
 1111SOL    MW4 4444   0.773   1.765   0.581 -0.0000  0.1439  0.4615
 1112SOL     OW 4445   0.678   3.201   0.377  0.5247  0.0589 -0.0737
 1112SOL    HW2 4446   0.621   3.141   0.425  0.3479 -0.6384 -1.1220
 1112SOL    HW3 4447   0.625   3.279   0.364  0.5282  0.1993  0.7398
 1112SOL    MW4 4448   0.664   3.203   0.381  0.5018 -0.0146 -0.1047
 1113SOL     OW 4449   3.168   3.374   1.815  0.2776 -0.6305  0.0304
 1113SOL    HW2 4450   3.231   3.320   1.768 -1.1250 -1.6199 -0.7481
 1113SOL    HW3 4451   3.103   3.399   1.749 -1.1812 -1.2158  1.2109
 1113SOL    MW4 4452   3.167   3.370   1.800 -0.0999 -0.8382  0.0834
 1114SOL     OW 4453   2.140   2.381   1.453  0.5018  0.0416  0.0418
 1114SOL    HW2 4454   2.187   2.299   1.470  0.6703  0.1915  0.3215
 1114SOL    HW3 4455   2.085   2.393   1.530 -0.5333 -0.4962 -0.6080
 1114SOL    MW4 4456   2.139   2.372   1.466  0.3875 -0.0096 -0.0070
 1115SOL     OW 4457   0.524   4.244   0.936  0.0148  0.5251 -0.3178
 1115SOL    HW2 4458   0.605   4.195   0.926  0.0396  0.6436 -0.7013
 1115SOL    HW3 4459   0.460   4.180   0.969  0.6341  0.7573  1.4146
 1115SOL    MW4 4460   0.526   4.229   0.939  0.0998  0.5713 -0.1399
 1116SOL     OW 4461   0.528   1.463   0.781  0.1104 -0.2550 -0.4717
 1116SOL    HW2 4462   0.464   1.394   0.804 -0.0930 -0.0392 -0.3907
 1116SOL    HW3 4463   0.567   1.488   0.864  0.2059 -0.2927 -0.5054
 1116SOL    MW4 4464   0.524   1.457   0.795  0.0961 -0.2315 -0.4654
 1117SOL     OW 4465   1.237   1.465   0.939  0.4497  0.0523  0.5637
 1117SOL    HW2 4466   1.323   1.501   0.917  0.4479 -0.0509  0.3872
 1117SOL    HW3 4467   1.249   1.423   1.024  0.6011 -0.0585  0.4870
 1117SOL    MW4 4468   1.250   1.465   0.947  0.4694  0.0241  0.5303
 1118SOL     OW 4469   4.203   3.568   2.201 -0.2632  0.5995  0.1882
 1118SOL    HW2 4470   4.136   3.517   2.247 -0.1642 -0.5595 -0.9047
 1118SOL    HW3 4471   4.201   3.654   2.241 -2.0047  0.3908  0.5530
 1118SOL    MW4 4472   4.194   3.572   2.212 -0.4799  0.4190  0.0921
 1119SOL     OW 4473   0.464   2.038   1.580 -0.2111 -0.6643  0.8158
 1119SOL    HW2 4474   0.540   1.988   1.551 -0.1847  0.6668 -1.5441
 1119SOL    HW3 4475   0.405   2.040   1.504 -1.2237  0.8952  1.6005
 1119SOL    MW4 4476   0.466   2.032   1.566 -0.3412 -0.2829  0.6080
 1120SOL     OW 4477   3.951   4.472   2.106  0.0727 -0.1932  0.2250
 1120SOL    HW2 4478   3.873   4.437   2.063 -0.2775 -0.5741  1.1468
 1120SOL    HW3 4479   4.023   4.450   2.047 -0.5554  0.4916 -0.8167
 1120SOL    MW4 4480   3.950   4.464   2.093 -0.0564 -0.1531  0.2091
 1121SOL     OW 4481   4.291   2.037   2.168 -0.2683 -0.0761  0.0161
 1121SOL    HW2 4482   4.211   2.052   2.218 -0.5156 -0.2066 -0.3398
 1121SOL    HW3 4483   4.338   1.970   2.217 -0.0664  0.4669  0.5803
 1121SOL    MW4 4484   4.287   2.030   2.181 -0.2743 -0.0217  0.0436
 1122SOL     OW 4485   3.712   0.107   1.405  0.2523 -0.2208 -0.0362
 1122SOL    HW2 4486   3.700   0.012   1.403 -0.2216 -0.1963  1.1810
 1122SOL    HW3 4487   3.780   0.124   1.341  0.7134 -1.4448  0.1230
 1122SOL    MW4 4488   3.719   0.097   1.397  0.2506 -0.3791  0.1454
 1123SOL     OW 4489   1.136   1.583   1.754 -0.3199  0.2443  0.1994
 1123SOL    HW2 4490   1.079   1.506   1.747 -0.9763  0.7604 -0.1000
 1123SOL    HW3 4491   1.093   1.640   1.817  0.5938  0.0023  1.0575
 1123SOL    MW4 4492   1.123   1.580   1.761 -0.2859  0.2805  0.2731
 1124SOL     OW 4493   4.463   3.174   2.171  0.3690  0.0189  0.7522
 1124SOL    HW2 4494   4.465   3.257   2.218  0.1719 -0.7045  2.0406
 1124SOL    HW3 4495   4.472   3.199   2.079 -0.8225  1.5476  1.0303
 1124SOL    MW4 4496   4.464   3.188   2.165  0.1858  0.1252  0.9589
 1125SOL     OW 4497   3.595   3.167   2.276  0.1120 -0.3617  0.1670
 1125SOL    HW2 4498   3.568   3.259   2.273  0.7894  0.1250  4.6093
 1125SOL    HW3 4499   3.527   3.124   2.327  2.4117 -1.1744  2.7082
 1125SOL    MW4 4500   3.583   3.174   2.282  0.5048 -0.4047  1.0884
 1126SOL     OW 4501   4.001   1.190   0.590 -0.1154 -0.3670 -0.1716
 1126SOL    HW2 4502   4.060   1.258   0.556 -0.2114  0.2032  0.7819
 1126SOL    HW3 4503   4.045   1.108   0.569 -0.3388 -0.0437 -1.9755
 1126SOL    MW4 4504   4.015   1.188   0.583 -0.1576 -0.2491 -0.2838
 1127SOL     OW 4505   3.063   0.444   1.515  0.0589  0.0088  0.6884
 1127SOL    HW2 4506   3.001   0.482   1.453 -0.0718  1.1833  1.5264
 1127SOL    HW3 4507   3.130   0.403   1.460  0.0026  1.1361 -0.2306
 1127SOL    MW4 4508   3.064   0.443   1.499  0.0342  0.3125  0.6777
 1128SOL     OW 4509   1.143   1.824   0.959 -0.1423  0.5059 -0.5340
 1128SOL    HW2 4510   1.098   1.907   0.944 -1.0211 -0.0641 -1.0261
 1128SOL    HW3 4511   1.098   1.761   0.904 -0.0496 -0.4996  0.5124
 1128SOL    MW4 4512   1.131   1.826   0.950 -0.2460  0.2981 -0.4609
 1129SOL     OW 4513   0.295   1.937   0.333 -0.2131 -0.3228 -0.7066
 1129SOL    HW2 4514   0.306   1.958   0.241  0.7616 -0.3905 -0.6157
 1129SOL    HW3 4515   0.326   1.846   0.341 -1.1149 -0.6165 -0.4682
 1129SOL    MW4 4516   0.301   1.928   0.322 -0.2035 -0.3705 -0.6631
 1130SOL     OW 4517   3.105   0.768   0.386 -0.5220  0.1022 -0.0246
 1130SOL    HW2 4518   3.151   0.725   0.314 -0.7565  0.2990 -0.2870
 1130SOL    HW3 4519   3.049   0.699   0.423 -0.9686  0.2101 -0.5061
 1130SOL    MW4 4520   3.104   0.753   0.382 -0.6118  0.1424 -0.1227
 1131SOL     OW 4521   3.408   1.486   0.774 -0.4210 -0.7188  0.4266
 1131SOL    HW2 4522   3.475   1.495   0.842 -0.1774  1.0308 -0.0249
 1131SOL    HW3 4523   3.449   1.524   0.696 -2.2075  1.0343  0.3137
 1131SOL    MW4 4524   3.423   1.492   0.772 -0.6245 -0.2566  0.3521
 1132SOL     OW 4525   3.551   3.961   0.970 -0.0392  0.6875 -0.1001
 1132SOL    HW2 4526   3.629   3.961   1.025 -0.5873 -0.8623  0.7115
 1132SOL    HW3 4527   3.563   3.888   0.910 -0.4205  1.0574 -0.6353
 1132SOL    MW4 4528   3.563   3.952   0.970 -0.1618  0.5319 -0.0636
 1133SOL     OW 4529   1.452   0.181   0.109  0.3089  0.0805  0.2071
 1133SOL    HW2 4530   1.443   0.174   0.014  1.1203 -3.2000  0.3342
 1133SOL    HW3 4531   1.505   0.106   0.134  0.8244  1.3795  3.1814
 1133SOL    MW4 4532   1.458   0.170   0.100  0.4839 -0.1809  0.6163
 1134SOL     OW 4533   1.006   0.639   0.832 -0.5895  0.0258  0.0077
 1134SOL    HW2 4534   0.978   0.574   0.768 -1.2866  1.6218 -1.3534
 1134SOL    HW3 4535   0.950   0.715   0.815  0.3569  1.0659  1.4150
 1134SOL    MW4 4536   0.995   0.641   0.821 -0.5566  0.3736  0.0138
 1135SOL     OW 4537   0.325   0.074   0.793 -0.0815 -0.2160 -0.2106
 1135SOL    HW2 4538   0.343   0.161   0.757  0.2421 -0.7305 -1.3159
 1135SOL    HW3 4539   0.373   0.071   0.875  1.5007 -0.0466 -1.1089
 1135SOL    MW4 4540   0.333   0.085   0.799  0.1700 -0.2615 -0.4749
 1136SOL     OW 4541   4.220   3.608   1.932 -0.0484 -0.1621 -0.0667
 1136SOL    HW2 4542   4.205   3.587   2.024 -2.8009  0.9650 -0.2232
 1136SOL    HW3 4543   4.261   3.694   1.933  0.2809 -0.3167  0.0933
 1136SOL    MW4 4544   4.224   3.616   1.944 -0.3681 -0.0338 -0.0662
 1137SOL     OW 4545   0.738   2.183   0.604 -0.1204  0.3377 -0.2133
 1137SOL    HW2 4546   0.753   2.273   0.575  1.5478  0.0160 -0.3910
 1137SOL    HW3 4547   0.697   2.140   0.530 -1.4044  1.0777  0.0540
 1137SOL    MW4 4548   0.734   2.189   0.591 -0.0697  0.3929 -0.2014
 1138SOL     OW 4549   2.159   1.867   1.424 -0.1514  0.2774  0.1634
 1138SOL    HW2 4550   2.107   1.890   1.348  0.8697  0.0145 -0.6247
 1138SOL    HW3 4551   2.191   1.950   1.458 -1.0549  0.4349  0.6275
 1138SOL    MW4 4552   2.157   1.881   1.419 -0.1359  0.2635  0.1207
 1139SOL     OW 4553   2.313   0.327   2.199 -0.2042  0.2202 -0.4732
 1139SOL    HW2 4554   2.367   0.370   2.134  2.4217 -0.3563  1.2381
 1139SOL    HW3 4555   2.288   0.243   2.159 -0.4859  0.8125 -1.5547
 1139SOL    MW4 4556   2.317   0.321   2.185  0.1051  0.2223 -0.3901
 1140SOL     OW 4557   0.106   0.725   1.201  0.4266  0.2720 -0.2903
 1140SOL    HW2 4558   0.082   0.816   1.182 -0.4187  0.0448 -0.3469
 1140SOL    HW3 4559   0.070   0.676   1.127 -0.2239 -0.2613  0.3840
 1140SOL    MW4 4560   0.098   0.731   1.188  0.2292  0.1717 -0.2088
 1141SOL     OW 4561   2.528   1.157   0.647  0.1424 -0.2460 -0.2573
 1141SOL    HW2 4562   2.517   1.227   0.584  0.7419 -0.2569 -0.3753
 1141SOL    HW3 4563   2.611   1.176   0.691  0.2163 -0.7768 -0.1590
 1141SOL    MW4 4564   2.537   1.169   0.645  0.2312 -0.3175 -0.2599
 1142SOL     OW 4565   3.439   0.436   1.666  0.2310 -0.1968  0.2405
 1142SOL    HW2 4566   3.409   0.485   1.589  0.5103 -0.1850  0.1399
 1142SOL    HW3 4567   3.448   0.346   1.635  0.4323 -0.1752  0.2369
 1142SOL    MW4 4568   3.436   0.431   1.652  0.2944 -0.1924  0.2268
 1143SOL     OW 4569   1.413   2.971   1.746 -0.3624 -0.0090  0.2154
 1143SOL    HW2 4570   1.416   2.892   1.800  0.9912 -0.1136 -0.0030
 1143SOL    HW3 4571   1.388   3.040   1.808 -1.1465 -0.5228  0.4876
 1143SOL    MW4 4572   1.410   2.970   1.761 -0.2872 -0.0906  0.2225
 1144SOL     OW 4573   1.674   4.479   0.550  0.2250 -0.0878 -0.0907
 1144SOL    HW2 4574   1.689   4.472   0.456  0.7711 -0.8807  0.0489
 1144SOL    HW3 4575   1.747   4.430   0.589 -1.2906 -1.7766  0.6799
 1144SOL    MW4 4576   1.686   4.472   0.543  0.0971 -0.4153  0.0294
 1145SOL     OW 4577   4.157   4.136   1.136  0.0041  0.1340 -0.0462
 1145SOL    HW2 4578   4.113   4.118   1.053 -0.4200  0.7685  0.0345
 1145SOL    HW3 4579   4.089   4.128   1.202 -0.1412  1.7015  0.0167
 1145SOL    MW4 4580   4.142   4.133   1.134 -0.0710  0.4245 -0.0272
 1146SOL     OW 4581   3.608   1.507   1.235  0.0858 -0.2395  0.2934
 1146SOL    HW2 4582   3.517   1.479   1.249  0.0729 -0.2401  0.2096
 1146SOL    HW3 4583   3.604   1.602   1.236  0.2317 -0.2395  1.2546
 1146SOL    MW4 4584   3.595   1.516   1.237  0.1033 -0.2396  0.4092
 1147SOL     OW 4585   2.929   2.030   2.237  0.2114  0.0436  0.1734
 1147SOL    HW2 4586   2.846   2.003   2.276 -0.0090  0.5691  0.0801
 1147SOL    HW3 4587   2.910   2.042   2.144  0.9814 -2.1716 -0.2797
 1147SOL    MW4 4588   2.916   2.028   2.230  0.2839 -0.1793  0.1013
 1148SOL     OW 4589   1.399   1.237   1.610  0.4503 -0.2894  0.8079
 1148SOL    HW2 4590   1.339   1.165   1.594 -0.5244  0.3112  1.7111
 1148SOL    HW3 4591   1.401   1.245   1.706  0.4074  0.9972  0.7014
 1148SOL    MW4 4592   1.391   1.228   1.621  0.3160 -0.0404  0.9130
 1149SOL     OW 4593   1.209   4.608   1.753 -0.0577  0.2334 -0.5665
 1149SOL    HW2 4594   1.225   4.520   1.787  1.4307  0.2505 -1.1500
 1149SOL    HW3 4595   1.123   4.633   1.787  0.4043 -0.6399  1.2885
 1149SOL    MW4 4596   1.200   4.600   1.762  0.1996  0.1205 -0.3987
 1150SOL     OW 4597   3.580   0.534   1.908  0.2939  0.3301  0.0703
 1150SOL    HW2 4598   3.518   0.563   1.841  0.3912  1.3077  0.4013
 1150SOL    HW3 4599   3.663   0.523   1.861 -0.1788 -1.2141 -0.4213
 1150SOL    MW4 4600   3.583   0.537   1.893  0.2443  0.2553  0.0491
 1151SOL     OW 4601   2.160   3.606   0.562 -0.4241 -0.1237 -0.1370
 1151SOL    HW2 4602   2.136   3.688   0.520 -2.3714 -0.4585  0.2939
 1151SOL    HW3 4603   2.078   3.571   0.596  0.4997 -1.8690  0.3674
 1151SOL    MW4 4604   2.146   3.612   0.561 -0.5591 -0.3982 -0.0136
 1152SOL     OW 4605   0.947   3.430   0.897 -0.0696 -0.5264 -0.1315
 1152SOL    HW2 4606   0.979   3.381   0.821  1.2422 -0.6113  0.4652
 1152SOL    HW3 4607   1.025   3.468   0.936 -0.7172 -0.5586  1.2355
 1152SOL    MW4 4608   0.962   3.429   0.892  0.0180 -0.5418  0.1276
 1153SOL     OW 4609   3.820   0.223   1.649  0.0028 -0.1502  0.2227
 1153SOL    HW2 4610   3.815   0.317   1.633  0.9722 -0.3397 -1.2849
 1153SOL    HW3 4611   3.759   0.185   1.585  0.6772 -0.6364 -0.1319
 1153SOL    MW4 4612   3.811   0.230   1.638  0.2197 -0.2394 -0.0230
 1154SOL     OW 4613   0.119   0.867   0.901  0.1432  0.2496 -0.2016
 1154SOL    HW2 4614   0.153   0.827   0.821 -1.5795 -0.8894 -0.3974
 1154SOL    HW3 4615   0.197   0.896   0.949  1.3423 -1.6601 -0.9430
 1154SOL    MW4 4616   0.134   0.865   0.897  0.0741 -0.1526 -0.3252
 1155SOL     OW 4617   0.919   0.216   0.346 -0.2834 -0.1694  0.2190
 1155SOL    HW2 4618   0.848   0.240   0.406 -0.9754 -2.2170  0.2584
 1155SOL    HW3 4619   0.997   0.220   0.400 -0.7501 -0.7886  0.9588
 1155SOL    MW4 4620   0.920   0.220   0.361 -0.4363 -0.5213  0.3218
 1156SOL     OW 4621   3.296   2.044   1.211  0.2554  0.3494  0.0842
 1156SOL    HW2 4622   3.218   2.070   1.162  0.1924  0.0415  0.0242
 1156SOL    HW3 4623   3.350   1.997   1.147 -0.7914 -1.9698  0.8633
 1156SOL    MW4 4624   3.293   2.042   1.196  0.1090  0.0027  0.1791
 1157SOL     OW 4625   4.210   3.875   1.497 -0.5194 -0.0803 -0.0117
 1157SOL    HW2 4626   4.265   3.940   1.540 -0.2715 -0.2832 -0.0237
 1157SOL    HW3 4627   4.229   3.886   1.404 -0.0451 -0.5658  0.0283
 1157SOL    MW4 4628   4.220   3.885   1.490 -0.4241 -0.1711 -0.0080
 1158SOL     OW 4629   2.001   2.039   1.924 -0.1492 -0.3051 -0.0162
 1158SOL    HW2 4630   2.016   1.948   1.900  1.3094 -0.0931  0.0206
 1158SOL    HW3 4631   2.001   2.039   2.020  1.5223 -0.0347  0.0028
 1158SOL    MW4 4632   2.003   2.027   1.933  0.2637 -0.2414 -0.0089
 1159SOL     OW 4633   2.548   0.363   0.747 -0.3763  0.2433  0.4544
 1159SOL    HW2 4634   2.616   0.301   0.719 -0.8629  0.4170 -1.1796
 1159SOL    HW3 4635   2.581   0.399   0.829  1.2778 -0.0409 -0.0565
 1159SOL    MW4 4636   2.562   0.359   0.754 -0.2223  0.2287  0.1714
 1160SOL     OW 4637   1.885   0.093   1.482  0.0577 -0.0200 -0.0420
 1160SOL    HW2 4638   1.841   0.097   1.397  0.3937  1.1224 -0.1635
 1160SOL    HW3 4639   1.975   0.123   1.464 -0.1160  1.0778  0.8749
 1160SOL    MW4 4640   1.891   0.097   1.468  0.0791  0.2756  0.0629
 1161SOL     OW 4641   1.988   2.821   1.938 -0.3653 -0.0883  0.2590
 1161SOL    HW2 4642   1.915   2.773   1.899 -1.1392  0.9989  0.3143
 1161SOL    HW3 4643   2.064   2.798   1.886 -0.3588 -2.7379  1.3771
 1161SOL    MW4 4644   1.988   2.812   1.926 -0.4666 -0.2945  0.4138
 1162SOL     OW 4645   1.648   3.836   0.981  0.2711 -0.3771 -0.5027
 1162SOL    HW2 4646   1.675   3.858   1.070 -0.0595  0.5414 -0.6312
 1162SOL    HW3 4647   1.723   3.862   0.927  0.2060 -0.3279 -0.5683
 1162SOL    MW4 4648   1.661   3.842   0.986  0.2189 -0.2494 -0.5283
 1163SOL     OW 4649   2.329   4.023   1.260  0.1485  0.1398  0.4805
 1163SOL    HW2 4650   2.251   4.063   1.298  0.6830  1.0251  0.6722
 1163SOL    HW3 4651   2.385   4.001   1.335  0.4874  0.3831  0.3055
 1163SOL    MW4 4652   2.326   4.026   1.275  0.2637  0.2887  0.4827
 1164SOL     OW 4653   3.123   3.976   0.230 -0.2364 -0.7203 -0.4261
 1164SOL    HW2 4654   3.217   3.963   0.221 -0.1378 -1.0953  0.9183
 1164SOL    HW3 4655   3.087   3.887   0.234 -0.4580 -0.5917  0.6961
 1164SOL    MW4 4656   3.130   3.963   0.229 -0.2527 -0.7528 -0.1007
 1165SOL     OW 4657   0.978   0.278   1.720 -0.3271 -0.0578 -0.2370
 1165SOL    HW2 4658   0.902   0.319   1.679 -0.6118 -0.5412 -0.1966
 1165SOL    HW3 4659   1.028   0.351   1.757 -0.1408  0.3794 -1.3149
 1165SOL    MW4 4660   0.975   0.293   1.719 -0.3401 -0.0639 -0.3739
 1166SOL     OW 4661   0.169   2.072   0.550  0.3215  0.5263  0.4254
 1166SOL    HW2 4662   0.233   2.057   0.619  1.1428  0.0720 -0.4234
 1166SOL    HW3 4663   0.208   2.033   0.472  0.4044  2.9155 -0.7789
 1166SOL    MW4 4664   0.182   2.065   0.549  0.4408  0.7816  0.1545
 1167SOL     OW 4665   3.605   2.944   0.935  0.0753 -0.3441 -0.0366
 1167SOL    HW2 4666   3.557   2.869   0.902 -0.1303 -0.6358  0.8981
 1167SOL    HW3 4667   3.628   2.995   0.857 -0.5627 -0.9078 -0.5943
 1167SOL    MW4 4668   3.602   2.941   0.921 -0.0360 -0.4569  0.0132
 1168SOL     OW 4669   4.082   3.208   1.935  0.0159  0.3853  0.1204
 1168SOL    HW2 4670   3.990   3.234   1.938 -0.8029 -2.2715 -0.1848
 1168SOL    HW3 4671   4.115   3.245   1.853 -1.0126  0.6657 -0.1741
 1168SOL    MW4 4672   4.074   3.216   1.925 -0.2278  0.0718  0.0413
 1169SOL     OW 4673   1.067   1.489   2.274  0.5499  0.0003 -0.0551
 1169SOL    HW2 4674   1.068   1.420   2.208 -0.7501 -0.3279  0.2478
 1169SOL    HW3 4675   1.015   1.559   2.235 -1.4279 -0.7656  1.1601
 1169SOL    MW4 4676   1.060   1.489   2.260  0.1174 -0.1440  0.1452
 1170SOL     OW 4677   0.205   3.952   0.810  0.0538  0.3417  0.0563
 1170SOL    HW2 4678   0.162   4.027   0.768 -1.2909 -0.6764 -0.4249
 1170SOL    HW3 4679   0.271   3.991   0.868 -0.8468  1.8937  0.0519
 1170SOL    MW4 4680   0.208   3.967   0.812 -0.2424  0.4121 -0.0077
 1171SOL     OW 4681   3.760   2.470   2.339 -0.2143  0.3571 -0.5441
 1171SOL    HW2 4682   3.851   2.448   2.359 -0.1820  1.6561  0.8214
 1171SOL    HW3 4683   3.736   2.410   2.268  1.4751 -0.4805 -0.4371
 1171SOL    MW4 4684   3.769   2.459   2.333  0.0128  0.4180 -0.3498
 1172SOL     OW 4685   4.353   1.794   1.782  0.1759 -0.0047  0.0995
 1172SOL    HW2 4686   4.339   1.827   1.693  3.1804 -1.3239 -0.9270
 1172SOL    HW3 4687   4.344   1.699   1.774  2.6619 -0.3155  0.7273
 1172SOL    MW4 4688   4.350   1.786   1.769  0.9003 -0.2198  0.0469
 1173SOL     OW 4689   1.470   2.955   1.247  0.0831  0.1932 -0.1307
 1173SOL    HW2 4690   1.375   2.956   1.239  0.1679  1.4806 -1.1065
 1173SOL    HW3 4691   1.498   3.043   1.223  1.4002  0.3427  1.8421
 1173SOL    MW4 4692   1.461   2.967   1.243  0.2680  0.3828  0.0008
 1174SOL     OW 4693   3.926   4.453   1.076 -0.3313  0.2347  0.1160
 1174SOL    HW2 4694   3.843   4.496   1.058 -1.9353 -2.0316  1.8982
 1174SOL    HW3 4695   3.933   4.451   1.171  1.7430  0.3138 -0.0077
 1174SOL    MW4 4696   3.916   4.458   1.086 -0.2693 -0.0539  0.3348
 1175SOL     OW 4697   2.773   0.986   1.869 -0.5134 -0.2782 -0.1757
 1175SOL    HW2 4698   2.734   0.955   1.950  0.5311  0.4808  0.6371
 1175SOL    HW3 4699   2.706   1.043   1.830 -0.1050  1.3194  1.3955
 1175SOL    MW4 4700   2.759   0.990   1.875 -0.3217  0.0327  0.1389
 1176SOL     OW 4701   1.862   3.005   1.318  0.2028  0.0352 -0.1059
 1176SOL    HW2 4702   1.820   2.940   1.375  1.5828 -0.8315 -0.0634
 1176SOL    HW3 4703   1.923   3.051   1.376  0.9625 -0.2426 -0.6940
 1176SOL    MW4 4704   1.864   3.002   1.333  0.4851 -0.1158 -0.1779
 1177SOL     OW 4705   2.514   1.608   1.669  0.4587 -0.0097  0.1241
 1177SOL    HW2 4706   2.455   1.643   1.602  0.9425  0.7481  0.0869
 1177SOL    HW3 4707   2.457   1.557   1.726  0.2308 -1.7356 -1.5790
 1177SOL    MW4 4708   2.498   1.606   1.668  0.4925 -0.1374 -0.1055
 1178SOL     OW 4709   4.047   3.111   2.417 -0.2681  0.3286 -0.0179
 1178SOL    HW2 4710   4.082   3.080   2.334 -1.9468  2.7146 -1.6949
 1178SOL    HW3 4711   3.965   3.063   2.429  1.0992 -1.7256  1.4924
 1178SOL    MW4 4712   4.041   3.101   2.408 -0.3092  0.3724 -0.0399
 1179SOL     OW 4713   2.145   0.780   1.529  0.0887 -0.4064  0.7655
 1179SOL    HW2 4714   2.084   0.710   1.505  1.2406 -1.4033  0.6365
 1179SOL    HW3 4715   2.231   0.740   1.518  0.7981  1.3233 -0.1768
 1179SOL    MW4 4716   2.148   0.765   1.524  0.3343 -0.3097  0.6242
 1180SOL     OW 4717   2.562   3.090   0.874 -0.0737 -0.9750 -0.1502
 1180SOL    HW2 4718   2.575   3.110   0.782 -0.7903 -0.4369 -0.1384
 1180SOL    HW3 4719   2.643   3.045   0.901  0.4214 -0.5079 -0.8592
 1180SOL    MW4 4720   2.575   3.087   0.866 -0.1029 -0.8423 -0.2422
 1181SOL     OW 4721   1.467   2.485   0.851  0.0272  0.3136 -0.1689
 1181SOL    HW2 4722   1.384   2.530   0.866 -0.2974 -0.9033  1.9355
 1181SOL    HW3 4723   1.443   2.402   0.810  0.3270  0.5061 -0.7417
 1181SOL    MW4 4724   1.453   2.480   0.848  0.0240  0.1785  0.0332
 1182SOL     OW 4725   3.845   2.502   1.094  0.0577 -0.3287 -0.1286
 1182SOL    HW2 4726   3.780   2.544   1.150  1.1438 -0.4451  1.2460
 1182SOL    HW3 4727   3.890   2.574   1.051  0.8133 -0.1237  0.9765
 1182SOL    MW4 4728   3.842   2.517   1.096  0.3007 -0.3170  0.1985
 1183SOL     OW 4729   0.148   0.486   0.734 -0.1312 -0.6157  0.1466
 1183SOL    HW2 4730   0.161   0.565   0.682  1.1642 -0.5378  0.5627
 1183SOL    HW3 4731   0.123   0.419   0.671  1.5953 -0.5596 -0.6238
 1183SOL    MW4 4732   0.146   0.488   0.719  0.2675 -0.5980  0.0999
 1184SOL     OW 4733   1.437   2.366   1.919  0.2365 -0.1736  0.1463
 1184SOL    HW2 4734   1.402   2.289   1.874  0.5405 -0.0920 -0.2259
 1184SOL    HW3 4735   1.477   2.419   1.851  0.2915  0.1749  0.4446
 1184SOL    MW4 4736   1.438   2.363   1.904  0.2839 -0.1169  0.1365
 1185SOL     OW 4737   3.305   1.002   0.440 -0.0466 -0.1604  0.1578
 1185SOL    HW2 4738   3.241   1.069   0.463 -0.0727 -0.3249  0.5705
 1185SOL    HW3 4739   3.254   0.936   0.393  0.1906  0.6474 -1.2811
 1185SOL    MW4 4740   3.290   1.002   0.437 -0.0187 -0.0755  0.0224
 1186SOL     OW 4741   3.372   3.366   1.119 -0.0133 -0.2883  0.1241
 1186SOL    HW2 4742   3.396   3.334   1.206  1.8973  0.6080 -0.0533
 1186SOL    HW3 4743   3.374   3.288   1.063  1.5297 -0.4077  0.3291
 1186SOL    MW4 4744   3.375   3.352   1.123  0.4424 -0.1858  0.1278
 1187SOL     OW 4745   0.626   4.663   1.399 -0.7451  0.3899  0.3837
 1187SOL    HW2 4746   0.595   4.577   1.370  1.0109  0.0548 -0.5750
 1187SOL    HW3 4747   0.664   4.647   1.485 -0.1166  0.1254  0.0624
 1187SOL    MW4 4748   0.627   4.650   1.406 -0.4305  0.3108  0.2148
 1188SOL     OW 4749   3.976   2.277   1.153 -0.6197 -0.0186 -0.1411
 1188SOL    HW2 4750   3.947   2.367   1.137 -0.0129  0.2224  0.1004
 1188SOL    HW3 4751   4.004   2.276   1.244 -0.5310 -0.4309 -0.1701
 1188SOL    MW4 4752   3.976   2.289   1.163 -0.5279 -0.0412 -0.1131
 1189SOL     OW 4753   4.027   1.844   1.022 -0.0395  0.1413 -0.5867
 1189SOL    HW2 4754   4.042   1.769   1.079 -1.5871  0.4355  0.2343
 1189SOL    HW3 4755   3.932   1.857   1.023 -0.0510  0.4178 -2.9035
 1189SOL    MW4 4756   4.017   1.836   1.030 -0.2452  0.2166 -0.7841
 1190SOL     OW 4757   2.076   2.085   0.474  0.0112  0.3375  0.1921
 1190SOL    HW2 4758   2.074   2.181   0.470  1.6587  0.3551 -0.2465
 1190SOL    HW3 4759   2.010   2.063   0.541 -0.1799  1.7805  0.4962
 1190SOL    MW4 4760   2.067   2.095   0.482  0.2033  0.5302  0.1744
 1191SOL     OW 4761   3.584   0.563   0.435  0.2301  0.1281 -0.1576
 1191SOL    HW2 4762   3.656   0.619   0.406  1.5098 -0.5969  1.5279
 1191SOL    HW3 4763   3.607   0.476   0.402 -0.5897  0.1489 -0.7979
 1191SOL    MW4 4764   3.596   0.559   0.427  0.2907  0.0352 -0.0197
 1192SOL     OW 4765   0.701   2.787   1.646  0.1580 -0.2657 -0.0327
 1192SOL    HW2 4766   0.716   2.730   1.721 -1.0136  1.6651  1.7012
 1192SOL    HW3 4767   0.613   2.822   1.659  0.5146  1.2590 -1.5115
 1192SOL    MW4 4768   0.691   2.784   1.657  0.0505  0.1902  0.0010
 1193SOL     OW 4769   3.190   4.260   1.202 -0.3226  0.1788  0.2775
 1193SOL    HW2 4770   3.263   4.321   1.212  0.0208  0.0163 -1.1801
 1193SOL    HW3 4771   3.229   4.181   1.166 -1.2091  0.0633 -0.4523
 1193SOL    MW4 4772   3.205   4.258   1.199 -0.3942  0.1421 -0.0111
 1194SOL     OW 4773   0.223   0.759   0.650 -0.1689  0.6596  0.4635
 1194SOL    HW2 4774   0.315   0.770   0.675  0.6279 -1.2349 -1.4852
 1194SOL    HW3 4775   0.201   0.841   0.605  1.7851 -0.3419 -2.4742
 1194SOL    MW4 4776   0.233   0.772   0.647  0.1941  0.2775 -0.1812
 1195SOL     OW 4777   3.255   1.681   0.403 -0.3327 -0.2514  0.1785
 1195SOL    HW2 4778   3.184   1.618   0.418 -0.1856 -0.4126  0.1942
 1195SOL    HW3 4779   3.243   1.708   0.312 -0.2153 -0.5292  0.0794
 1195SOL    MW4 4780   3.244   1.676   0.393 -0.2978 -0.3093  0.1675
 1196SOL     OW 4781   2.188   4.414   1.546  0.5526 -0.1825 -0.7022
 1196SOL    HW2 4782   2.211   4.417   1.639  0.2724 -1.7289 -0.5706
 1196SOL    HW3 4783   2.219   4.328   1.517 -0.7466 -0.3264 -1.6771
 1196SOL    MW4 4784   2.195   4.403   1.555  0.3443 -0.4055 -0.8135
 1197SOL     OW 4785   0.772   1.359   0.212  0.8775  0.2053 -0.5918
 1197SOL    HW2 4786   0.790   1.319   0.127  1.3769  1.8508 -1.2860
 1197SOL    HW3 4787   0.784   1.288   0.275  0.9123 -0.9345 -1.8567
 1197SOL    MW4 4788   0.776   1.345   0.209  0.9480  0.2720 -0.8503
 1198SOL     OW 4789   2.692   3.789   1.312 -0.3856  0.2435 -0.3383
 1198SOL    HW2 4790   2.690   3.760   1.221 -0.5022  1.2305 -0.6550
 1198SOL    HW3 4791   2.741   3.720   1.358  0.1097 -0.0095 -1.2360
 1198SOL    MW4 4792   2.698   3.776   1.306 -0.3356  0.3403 -0.4985
 1199SOL     OW 4793   2.315   1.913   0.492  0.0756  0.3119  0.2345
 1199SOL    HW2 4794   2.245   1.978   0.483 -0.0952  0.1593  0.4335
 1199SOL    HW3 4795   2.288   1.860   0.568  0.3141  0.1372  0.1973
 1199SOL    MW4 4796   2.302   1.914   0.501  0.0845  0.2687  0.2558
 1200SOL     OW 4797   3.671   3.067   0.431 -0.0512 -0.3190 -0.6996
 1200SOL    HW2 4798   3.711   3.075   0.517  1.4035 -2.1293 -1.1821
 1200SOL    HW3 4799   3.697   3.146   0.385  0.2669  0.0286  0.0695
 1200SOL    MW4 4800   3.679   3.078   0.436  0.1827 -0.5120 -0.6618
 1201SOL     OW 4801   0.315   2.854   1.902  0.2357  0.1351  0.0697
 1201SOL    HW2 4802   0.375   2.804   1.957 -0.7577  0.1369  1.1682
 1201SOL    HW3 4803   0.237   2.799   1.894  0.8132 -0.3945 -2.3524
 1201SOL    MW4 4804   0.313   2.840   1.908  0.1808  0.0654 -0.1049
 1202SOL     OW 4805   0.257   0.020   2.516 -0.8501 -0.4053 -0.0526
 1202SOL    HW2 4806   0.266  -0.074   2.530  1.2826  0.1228  2.5474
 1202SOL    HW3 4807   0.184   0.047   2.571 -0.1967 -0.2553  0.7569
 1202SOL    MW4 4808   0.249   0.011   2.525 -0.4825 -0.3158  0.3973
 1203SOL     OW 4809   2.740   3.933   2.121 -0.5504  0.1060  0.1135
 1203SOL    HW2 4810   2.667   3.891   2.166 -0.0754  0.5301  1.2823
 1203SOL    HW3 4811   2.818   3.902   2.166  0.0733 -0.9968 -1.6624
 1203SOL    MW4 4812   2.741   3.923   2.133 -0.4054  0.0164  0.0334
 1204SOL     OW 4813   0.055   0.325   2.161 -0.0454  0.0701 -0.0783
 1204SOL    HW2 4814   0.014   0.285   2.084  1.3444  0.3293 -0.9623
 1204SOL    HW3 4815   0.101   0.252   2.203  1.6666  0.5151 -1.1453
 1204SOL    MW4 4816   0.056   0.310   2.157  0.3639  0.1630 -0.3357
 1205SOL     OW 4817   0.191   0.446   1.443 -0.7053 -0.6297 -0.1511
 1205SOL    HW2 4818   0.102   0.461   1.477 -0.2762  0.5326  0.4683
 1205SOL    HW3 4819   0.246   0.505   1.493  0.6819 -2.4874  0.5684
 1205SOL    MW4 4820   0.186   0.456   1.454 -0.4657 -0.7215  0.0256
 1206SOL     OW 4821   0.942   3.239   2.150  0.5113 -0.4569 -0.3984
 1206SOL    HW2 4822   0.861   3.197   2.178  0.4404 -0.0281  0.0434
 1206SOL    HW3 4823   0.976   3.280   2.229 -0.4953  2.0877 -1.2385
 1206SOL    MW4 4824   0.936   3.239   2.164  0.3691 -0.0646 -0.4510
 1207SOL     OW 4825   2.148   0.254   1.218  0.0408  0.1055 -0.0518
 1207SOL    HW2 4826   2.124   0.168   1.183 -0.7285 -0.0114  0.7406
 1207SOL    HW3 4827   2.088   0.315   1.174  0.9376  0.3038 -1.0045
 1207SOL    MW4 4828   2.137   0.251   1.207  0.0576  0.1162 -0.0730
 1208SOL     OW 4829   1.922   1.198   0.784  0.0486  0.0861 -0.2456
 1208SOL    HW2 4830   1.973   1.121   0.759 -0.6376 -0.7650  0.9342
 1208SOL    HW3 4831   1.913   1.248   0.702 -1.1083 -2.0109 -1.4548
 1208SOL    MW4 4832   1.927   1.195   0.770 -0.1946 -0.3028 -0.2495
 1209SOL     OW 4833   0.743   1.624   1.783 -0.4942 -0.1262 -0.1236
 1209SOL    HW2 4834   0.730   1.631   1.878 -1.4989  2.2873 -0.4055
 1209SOL    HW3 4835   0.682   1.687   1.746  0.6937 -0.2300 -2.3277
 1209SOL    MW4 4836   0.733   1.633   1.791 -0.4701  0.1785 -0.4516
 1210SOL     OW 4837   0.399   1.898   2.304  0.2667 -0.0562  0.6158
 1210SOL    HW2 4838   0.353   1.981   2.313  0.1226 -0.2821  2.1139
 1210SOL    HW3 4839   0.461   1.913   2.232  0.5132  1.4752  1.1275
 1210SOL    MW4 4840   0.401   1.911   2.296  0.2802  0.1160  0.8810
 1211SOL     OW 4841   0.628   3.879   1.586 -0.3246  0.1880  0.1300
 1211SOL    HW2 4842   0.609   3.829   1.665  0.6290 -0.5309 -0.0810
 1211SOL    HW3 4843   0.555   3.860   1.527 -1.1027  0.8307  0.8854
 1211SOL    MW4 4844   0.616   3.870   1.589 -0.3015  0.1780  0.2018
 1212SOL     OW 4845   3.735   1.842   2.190  0.1148  0.2264  0.3104
 1212SOL    HW2 4846   3.784   1.760   2.181  0.1100  0.1701  0.7932
 1212SOL    HW3 4847   3.644   1.816   2.174  0.2255  0.3118 -0.4805
 1212SOL    MW4 4848   3.730   1.827   2.187  0.1288  0.2302  0.2698
 1213SOL     OW 4849   0.125   2.118   1.017 -0.2433  0.0974 -0.2957
 1213SOL    HW2 4850   0.085   2.178   0.954 -0.3984 -0.6160 -0.8852
 1213SOL    HW3 4851   0.059   2.108   1.085  0.2463  1.5072  0.3975
 1213SOL    MW4 4852   0.111   2.124   1.017 -0.1992  0.1893 -0.2820
 1214SOL     OW 4853   0.201   2.264   2.520  0.1374 -0.4650 -0.1830
 1214SOL    HW2 4854   0.118   2.308   2.507  0.3729 -0.4063 -1.6379
 1214SOL    HW3 4855   0.263   2.333   2.541 -0.0725 -0.4532  0.4105
 1214SOL    MW4 4856   0.199   2.279   2.521  0.1408 -0.4557 -0.2966
 1215SOL     OW 4857   0.281   2.149   2.290  0.1942  0.2561  0.0072
 1215SOL    HW2 4858   0.276   2.183   2.380 -1.2541 -2.7758  1.1552
 1215SOL    HW3 4859   0.197   2.173   2.251  0.9177  1.7854 -0.6679
 1215SOL    MW4 4860   0.269   2.157   2.297  0.0986  0.0578  0.0696
 1216SOL     OW 4861   4.144   4.390   1.918 -0.1635 -0.2564  0.0585
 1216SOL    HW2 4862   4.100   4.424   1.840  0.4401 -1.3196 -0.7635
 1216SOL    HW3 4863   4.117   4.299   1.923 -1.9222  0.3410  2.3616
 1216SOL    MW4 4864   4.135   4.383   1.908 -0.3159 -0.3178  0.2539
 1217SOL     OW 4865   3.772   1.488   1.922 -0.2011  0.5288  0.2094
 1217SOL    HW2 4866   3.678   1.507   1.926  0.1216  2.0820  0.5875
 1217SOL    HW3 4867   3.800   1.488   2.013  0.2608  0.5078  0.0650
 1217SOL    MW4 4868   3.763   1.490   1.934 -0.0976  0.7309  0.2403
 1218SOL     OW 4869   1.687   2.546   0.684  0.1331  0.2250 -0.5458
 1218SOL    HW2 4870   1.760   2.549   0.746  0.3915 -1.0421 -0.7639
 1218SOL    HW3 4871   1.609   2.536   0.739  0.4313 -1.6858 -0.4420
 1218SOL    MW4 4872   1.686   2.545   0.699  0.2065 -0.1943 -0.5609
 1219SOL     OW 4873   0.374   4.028   1.022  0.1579  0.2154  0.0252
 1219SOL    HW2 4874   0.300   4.051   1.079  1.6946  2.2772  1.2784
 1219SOL    HW3 4875   0.411   3.950   1.062 -1.8439 -1.4111 -1.1502
 1219SOL    MW4 4876   0.369   4.021   1.035  0.0965  0.2728  0.0355
 1220SOL     OW 4877   4.256   2.165   0.821 -0.2792  0.2609  0.6672
 1220SOL    HW2 4878   4.210   2.149   0.904 -0.9815  0.7863  0.3894
 1220SOL    HW3 4879   4.249   2.083   0.773  0.4803 -0.1759  1.2929
 1220SOL    MW4 4880   4.249   2.152   0.826 -0.2716  0.2726  0.7131
 1221SOL     OW 4881   0.710   3.811   2.278 -0.2417  0.3340 -0.1592
 1221SOL    HW2 4882   0.780   3.864   2.238  0.3478  0.5834  1.1785
 1221SOL    HW3 4883   0.686   3.860   2.357 -0.2310 -0.9901  0.6831
 1221SOL    MW4 4884   0.716   3.825   2.283 -0.1625  0.1922  0.1284
 1222SOL     OW 4885   2.849   0.370   1.052  0.3841  0.3018 -0.0896
 1222SOL    HW2 4886   2.850   0.388   1.146 -0.2236  0.0701 -0.0341
 1222SOL    HW3 4887   2.932   0.404   1.020 -0.8981  3.5549 -0.0823
 1222SOL    MW4 4888   2.860   0.377   1.061  0.1348  0.7005 -0.0813
 1223SOL     OW 4889   0.712   0.633   1.843  0.3966  0.0354 -0.6127
 1223SOL    HW2 4890   0.716   0.714   1.894  1.1476 -0.3322 -0.0786
 1223SOL    HW3 4891   0.671   0.659   1.761  0.2606  0.8770 -0.2888
 1223SOL    MW4 4892   0.707   0.648   1.839  0.4777  0.0979 -0.4995
 1224SOL     OW 4893   3.536   4.312   0.140 -0.2699 -0.2009  0.7683
 1224SOL    HW2 4894   3.530   4.273   0.053  1.6971 -2.9667  1.7914
 1224SOL    HW3 4895   3.626   4.346   0.145 -0.8884  1.3913  1.1348
 1224SOL    MW4 4896   3.547   4.311   0.129 -0.0920 -0.3557  0.9516
 1225SOL     OW 4897   0.199   0.121   2.269 -0.5615  0.3579  0.4145
 1225SOL    HW2 4898   0.282   0.137   2.225 -1.1504 -2.4022 -1.8511
 1225SOL    HW3 4899   0.223   0.076   2.351  0.3681  3.1743  1.7366
 1225SOL    MW4 4900   0.213   0.117   2.274 -0.5166  0.3653  0.2900
 1226SOL     OW 4901   0.652   4.659   2.216  0.2687 -0.3948 -0.0581
 1226SOL    HW2 4902   0.658   4.657   2.311 -1.0961  0.5686  0.0672
 1226SOL    HW3 4903   0.741   4.680   2.186  0.7764 -1.0545  0.9772
 1226SOL    MW4 4904   0.664   4.662   2.224  0.1556 -0.3548  0.0950
 1227SOL     OW 4905   1.606   2.100   0.424  0.0023  0.2603 -0.1053
 1227SOL    HW2 4906   1.580   2.057   0.505  1.2627  0.7436  0.5644
 1227SOL    HW3 4907   1.628   2.189   0.450  1.8689 -0.0013 -0.7234
 1227SOL    MW4 4908   1.605   2.106   0.438  0.4149  0.2896 -0.0985
 1228SOL     OW 4909   0.811   4.435   0.394 -0.0606  0.1110 -0.2361
 1228SOL    HW2 4910   0.809   4.354   0.445  0.0918  1.0084  1.2347
 1228SOL    HW3 4911   0.790   4.503   0.457  0.0113  1.2410 -1.4175
 1228SOL    MW4 4912   0.808   4.433   0.409 -0.0310  0.3785 -0.1979
 1229SOL     OW 4913   0.695   0.460   1.324  0.1800 -0.0850 -0.6664
 1229SOL    HW2 4914   0.682   0.555   1.332 -1.7754 -0.5221  1.9140
 1229SOL    HW3 4915   0.609   0.427   1.297  0.7263 -1.1962 -1.0658
 1229SOL    MW4 4916   0.682   0.468   1.321 -0.0059 -0.2893 -0.3786
 1230SOL     OW 4917   0.230   0.521   2.074  0.1004  0.0672  0.2590
 1230SOL    HW2 4918   0.179   0.458   2.124  0.0319 -0.8663 -0.9602
 1230SOL    HW3 4919   0.234   0.484   1.985  1.2187  1.0985 -0.1385
 1230SOL    MW4 4920   0.224   0.508   2.069  0.2389  0.0801  0.0457
 1231SOL     OW 4921   3.401   1.036   0.825  0.3373  0.2274 -0.1867
 1231SOL    HW2 4922   3.463   1.044   0.899 -0.9997 -0.3868  1.0262
 1231SOL    HW3 4923   3.440   0.969   0.769  0.8216 -0.1269  0.5512
 1231SOL    MW4 4924   3.415   1.028   0.828  0.2248  0.0996  0.0707
 1232SOL     OW 4925   0.183   1.244   2.184 -0.7444 -0.0173 -0.1032
 1232SOL    HW2 4926   0.200   1.330   2.224 -1.0676 -0.0186  0.0369
 1232SOL    HW3 4927   0.134   1.196   2.251  1.2919 -1.0685  0.6588
 1232SOL    MW4 4928   0.179   1.249   2.198 -0.5183 -0.1562  0.0158
 1233SOL     OW 4929   1.834   1.420   1.730  0.4408 -0.4219 -0.3837
 1233SOL    HW2 4930   1.927   1.402   1.744  0.6709 -0.1306 -1.4481
 1233SOL    HW3 4931   1.812   1.489   1.792  1.5547  1.2370 -1.7801
 1233SOL    MW4 4932   1.843   1.427   1.740  0.6182 -0.1646 -0.7083
 1234SOL     OW 4933   0.677   1.261   2.175  0.1166  0.4234  0.0386
 1234SOL    HW2 4934   0.719   1.260   2.089 -0.3684  2.3529 -0.2509
 1234SOL    HW3 4935   0.593   1.217   2.161  1.0351 -1.4030  0.0975
 1234SOL    MW4 4936   0.671   1.255   2.162  0.1738  0.4370  0.0082
 1235SOL     OW 4937   1.224   0.937   1.117  0.1159 -0.1739  0.1520
 1235SOL    HW2 4938   1.193   0.947   1.027 -0.8665  0.0630  0.5037
 1235SOL    HW3 4939   1.143   0.932   1.169  0.6753 -0.2545  1.0214
 1235SOL    MW4 4940   1.209   0.937   1.112  0.0601 -0.1533  0.3131
 1236SOL     OW 4941   0.557   1.941   2.065  0.6824 -0.4526 -0.4627
 1236SOL    HW2 4942   0.540   1.928   1.971  2.3981 -0.6924 -0.7564
 1236SOL    HW3 4943   0.630   2.003   2.067  1.6293 -1.5953  0.6852
 1236SOL    MW4 4944   0.565   1.948   2.053  1.0337 -0.6350 -0.3500
 1237SOL     OW 4945   0.653   1.853   1.520  0.0101  0.2781 -0.8678
 1237SOL    HW2 4946   0.652   1.758   1.516  0.8261  0.3169 -2.6191
 1237SOL    HW3 4947   0.731   1.875   1.571 -1.5390  0.0071  1.7372
 1237SOL    MW4 4948   0.663   1.844   1.526 -0.0866  0.2475 -0.7552
 1238SOL     OW 4949   1.231   2.533   1.675  0.6030 -0.4354  0.4542
 1238SOL    HW2 4950   1.172   2.607   1.689  0.3422 -0.7935  1.2947
 1238SOL    HW3 4951   1.308   2.553   1.729  0.3789 -0.9433  0.9715
 1238SOL    MW4 4952   1.233   2.545   1.684  0.5390 -0.5496  0.6334
 1239SOL     OW 4953   1.328   2.008   1.586 -0.4008  0.8945  0.4068
 1239SOL    HW2 4954   1.250   1.954   1.577  0.1843  0.1127 -0.0424
 1239SOL    HW3 4955   1.311   2.084   1.530 -1.3806  1.3719  1.3266
 1239SOL    MW4 4956   1.315   2.011   1.577 -0.4529  0.8544  0.4689
 1240SOL     OW 4957   0.272   1.487   2.294 -0.3765 -0.2168 -0.0993
 1240SOL    HW2 4958   0.365   1.483   2.271 -0.1592  3.1089 -0.0933
 1240SOL    HW3 4959   0.270   1.483   2.389 -0.3815 -1.8095 -0.1520
 1240SOL    MW4 4960   0.284   1.486   2.303 -0.3485  0.0119 -0.1054
 1241SOL     OW 4961   3.797   3.855   2.277  0.0234 -0.5211  0.7731
 1241SOL    HW2 4962   3.819   3.764   2.259  0.3137 -0.6383  1.7084
 1241SOL    HW3 4963   3.798   3.862   2.373 -1.5505  0.0685  0.7654
 1241SOL    MW4 4964   3.800   3.844   2.287 -0.1460 -0.4588  0.8955
 1242SOL     OW 4965   4.467   3.245   1.900  0.2546 -0.0647  0.2254
 1242SOL    HW2 4966   4.544   3.303   1.902  0.4950 -0.3492 -0.5731
 1242SOL    HW3 4967   4.491   3.176   1.839 -1.3196  0.8203 -1.4363
 1242SOL    MW4 4968   4.480   3.244   1.892  0.0786  0.0145 -0.0992
 1243SOL     OW 4969   3.807   4.438   1.584 -0.2945 -0.2222 -0.2382
 1243SOL    HW2 4970   3.783   4.376   1.654 -2.7606  0.5103 -0.3735
 1243SOL    HW3 4971   3.886   4.482   1.617  0.5690 -2.3066  0.5472
 1243SOL    MW4 4972   3.814   4.436   1.598 -0.5060 -0.4006 -0.1524
 1244SOL     OW 4973   3.392   3.585   2.178 -0.2931  0.0394  0.0258
 1244SOL    HW2 4974   3.307   3.547   2.200 -0.5874  0.0177 -1.0932
 1244SOL    HW3 4975   3.382   3.679   2.195 -0.4997  0.0173  0.0236
 1244SOL    MW4 4976   3.379   3.592   2.183 -0.3592  0.0336 -0.1221
 1245SOL     OW 4977   4.456   3.452   2.267 -0.1906  0.0069  0.3955
 1245SOL    HW2 4978   4.384   3.510   2.244 -0.4082 -0.0506  0.9198
 1245SOL    HW3 4979   4.469   3.466   2.361  0.4209 -0.0467  0.3207
 1245SOL    MW4 4980   4.449   3.461   2.276 -0.1386 -0.0078  0.4548
 1246SOL     OW 4981   0.518   4.008   2.198 -0.5013 -0.0634 -0.2103
 1246SOL    HW2 4982   0.581   3.940   2.221 -0.4070  0.3991  0.9795
 1246SOL    HW3 4983   0.433   3.965   2.202 -0.5473  0.1555  1.7580
 1246SOL    MW4 4984   0.515   3.994   2.202 -0.4949  0.0265  0.2064
 1247SOL     OW 4985   1.592   1.936   1.432 -0.0438 -0.0920 -0.0394
 1247SOL    HW2 4986   1.520   1.961   1.490  0.4488  0.2281  0.4367
 1247SOL    HW3 4987   1.557   1.863   1.381 -1.1881  0.9699 -0.8019
 1247SOL    MW4 4988   1.578   1.929   1.433 -0.1298  0.0903 -0.0772
 1248SOL     OW 4989   2.857   2.573   1.673  0.6179  0.3895  0.1311
 1248SOL    HW2 4990   2.816   2.631   1.608 -0.0094  0.8403  0.9156
 1248SOL    HW3 4991   2.784   2.543   1.727  1.1472  0.0796  0.6697
 1248SOL    MW4 4992   2.842   2.577   1.671  0.6049  0.4081  0.3056
 1249SOL     OW 4993   1.127   4.355   2.145  0.1099  0.3747 -0.5354
 1249SOL    HW2 4994   1.149   4.375   2.054 -0.4004 -0.6540 -0.8854
 1249SOL    HW3 4995   1.100   4.439   2.182 -0.5520  0.6207 -1.5738
 1249SOL    MW4 4996   1.126   4.369   2.138 -0.0448  0.2714 -0.7185
 1250SOL     OW 4997   0.908   0.037   2.095 -0.4399 -0.3296  0.1246
 1250SOL    HW2 4998   0.996   0.020   2.130 -0.3228  1.6702  0.9280
 1250SOL    HW3 4999   0.898   0.132   2.102 -1.4821 -0.1701 -2.8673
 1250SOL    MW4 5000   0.918   0.048   2.101 -0.5619 -0.0447 -0.1642
 1251SOL     OW 5001   0.089   3.095   1.424 -0.0059 -0.0194 -0.1282
 1251SOL    HW2 5002  -0.003   3.091   1.452 -0.1102  0.2208 -0.4355
 1251SOL    HW3 5003   0.123   3.008   1.442 -0.2090 -0.0131  0.2928
 1251SOL    MW4 5004   0.081   3.083   1.430 -0.0465  0.0131 -0.1132
 1252SOL     OW 5005   0.910   0.318   2.133  0.0491  0.5780  0.5878
 1252SOL    HW2 5006   0.990   0.364   2.109  0.3344 -0.2257 -0.0352
 1252SOL    HW3 5007   0.842   0.358   2.078  0.1148  0.9341  0.7674
 1252SOL    MW4 5008   0.912   0.329   2.122  0.0954  0.5189  0.5293
 1253SOL     OW 5009   2.832   0.379   0.335  0.0959  0.0537  0.0476
 1253SOL    HW2 5010   2.906   0.319   0.344 -0.6792 -0.8804  0.2558
 1253SOL    HW3 5011   2.844   0.418   0.248 -0.2718 -1.5970 -0.7624
 1253SOL    MW4 5012   2.844   0.376   0.325 -0.0549 -0.2874 -0.0318
 1254SOL     OW 5013   1.155   0.483   2.114  0.1125 -0.6586  0.4294
 1254SOL    HW2 5014   1.150   0.563   2.166 -0.3502  0.1171 -0.7866
 1254SOL    HW3 5015   1.212   0.424   2.165  0.3382  0.3830  1.3911
 1254SOL    MW4 5016   1.162   0.485   2.128  0.0812 -0.4188  0.3959
 1255SOL     OW 5017   0.890   0.798   2.167 -0.3494  0.0534 -0.0701
 1255SOL    HW2 5018   0.806   0.766   2.200  0.2523  0.6056  2.1282
 1255SOL    HW3 5019   0.872   0.826   2.078 -2.2938 -0.6662  0.0763
 1255SOL    MW4 5020   0.877   0.798   2.160 -0.5265  0.0313  0.2393
 1256SOL     OW 5021   3.074   1.759   1.695 -0.3732 -0.2790 -0.0044
 1256SOL    HW2 5022   3.136   1.829   1.674  0.3960 -0.9617 -0.0431
 1256SOL    HW3 5023   3.115   1.713   1.770  0.4614 -2.3539 -1.6762
 1256SOL    MW4 5024   3.088   1.762   1.702 -0.1616 -0.6429 -0.2301
 1257SOL     OW 5025   1.060   1.243   2.126  0.2117  0.0591  0.1434
 1257SOL    HW2 5026   1.139   1.199   2.097 -0.3188 -1.0805  0.3906
 1257SOL    HW3 5027   1.018   1.181   2.185 -1.9627 -0.2743 -1.6616
 1257SOL    MW4 5028   1.065   1.229   2.130 -0.1452 -0.1352 -0.0621
 1258SOL     OW 5029   0.890   1.968   2.286 -0.2701 -0.1864  0.4216
 1258SOL    HW2 5030   0.865   1.942   2.375  0.7433 -1.8079  0.2519
 1258SOL    HW3 5031   0.983   1.989   2.294 -0.1981 -0.2590 -0.2415
 1258SOL    MW4 5032   0.899   1.968   2.299 -0.1269 -0.4099  0.3117
 1259SOL     OW 5033   0.899   2.027   1.220  0.4458  0.0741 -0.6343
 1259SOL    HW2 5034   0.992   2.011   1.236  0.1779 -0.1209  0.8082
 1259SOL    HW3 5035   0.888   2.121   1.236  0.1782 -0.1185  0.3465
 1259SOL    MW4 5036   0.910   2.037   1.224  0.3751  0.0229 -0.3146
 1260SOL     OW 5037   0.401   2.350   2.146  0.1080 -0.4271 -0.2374
 1260SOL    HW2 5038   0.359   2.276   2.188  0.1094 -0.3297 -0.0627
 1260SOL    HW3 5039   0.382   2.424   2.203  0.4028 -0.3586 -0.2265
 1260SOL    MW4 5040   0.393   2.350   2.159  0.1471 -0.4052 -0.2129
 1261SOL     OW 5041   3.854   3.436   1.582 -0.3927  0.0561 -0.3372
 1261SOL    HW2 5042   3.790   3.478   1.525  0.0116 -0.8161 -1.4756
 1261SOL    HW3 5043   3.888   3.363   1.529  0.5647 -0.2929  0.7379
 1261SOL    MW4 5044   3.850   3.432   1.568 -0.2131 -0.1050 -0.3455
 1262SOL     OW 5045   1.153   2.049   2.229  0.0961 -0.7052 -0.3272
 1262SOL    HW2 5046   1.141   2.047   2.134  2.1895 -0.5143 -0.6335
 1262SOL    HW3 5047   1.164   2.142   2.249 -2.7496 -0.4973  0.4728
 1262SOL    MW4 5048   1.153   2.061   2.219 -0.0032 -0.6525 -0.2620
 1263SOL     OW 5049   1.318   2.717   2.306  0.2399 -0.0682 -0.2822
 1263SOL    HW2 5050   1.313   2.637   2.253 -1.5271 -0.8960  1.0838
 1263SOL    HW3 5051   1.251   2.774   2.270  0.3839  0.1604 -0.1923
 1263SOL    MW4 5052   1.309   2.714   2.294  0.0258 -0.1472 -0.0901
 1264SOL     OW 5053   0.965   3.048   0.854  0.0149 -0.0024  0.2976
 1264SOL    HW2 5054   1.041   3.094   0.888  0.7650 -0.7787 -0.3166
 1264SOL    HW3 5055   1.000   2.982   0.794 -1.2381  0.7100 -1.2625
 1264SOL    MW4 5056   0.979   3.045   0.851 -0.0515 -0.0109  0.0107
 1265SOL     OW 5057   1.563   2.748   1.426 -0.1188  0.8194  0.4251
 1265SOL    HW2 5058   1.481   2.699   1.433  0.6916 -0.4090  1.7399
 1265SOL    HW3 5059   1.540   2.827   1.378 -1.4304 -0.9376 -1.9467
 1265SOL    MW4 5060   1.549   2.752   1.420 -0.1849  0.4255  0.2856
 1266SOL     OW 5061   1.206   3.144   2.316  0.1200 -0.0040 -0.1171
 1266SOL    HW2 5062   1.146   3.216   2.336 -0.2485 -0.5273  0.7167
 1266SOL    HW3 5063   1.152   3.079   2.272  0.2071 -0.2142  0.0810
 1266SOL    MW4 5064   1.191   3.145   2.313  0.0829 -0.1008  0.0191
 1267SOL     OW 5065   3.774   0.802   0.414 -0.5494 -0.0957 -0.0470
 1267SOL    HW2 5066   3.803   0.801   0.506  0.6228  0.7987 -0.3951
 1267SOL    HW3 5067   3.718   0.879   0.408 -0.2655  0.1022 -0.1828
 1267SOL    MW4 5068   3.771   0.812   0.426 -0.3573  0.0484 -0.1108
 1268SOL     OW 5069   1.028   3.375   2.368  0.3166 -0.1146  0.0737
 1268SOL    HW2 5070   1.062   3.454   2.325  2.7013 -1.6361 -0.9655
 1268SOL    HW3 5071   0.979   3.408   2.443  0.8116  2.3826 -0.6463
 1268SOL    MW4 5072   1.026   3.390   2.372  0.6965  0.0142 -0.1584
 1269SOL     OW 5073   1.154   3.614   2.229  0.3897  0.8723 -0.3546
 1269SOL    HW2 5074   1.244   3.588   2.249  0.4080  0.1394 -1.3099
 1269SOL    HW3 5075   1.155   3.633   2.135 -0.9046 -1.1694 -0.8324
 1269SOL    MW4 5076   1.166   3.613   2.219  0.2213  0.5063 -0.5437
 1270SOL     OW 5077   1.144   3.882   2.253  0.1431  0.3738 -0.0844
 1270SOL    HW2 5078   1.228   3.923   2.233  0.7963 -1.1756 -0.5843
 1270SOL    HW3 5079   1.160   3.788   2.245 -1.6761  0.0569 -0.3615
 1270SOL    MW4 5080   1.157   3.875   2.249 -0.0107  0.1276 -0.1869
 1271SOL     OW 5081   0.901   3.974   2.162  0.1049 -0.0220  0.2758
 1271SOL    HW2 5082   0.987   3.946   2.194  0.2157  1.3214  1.1998
 1271SOL    HW3 5083   0.911   4.069   2.148 -0.1410 -0.4076 -3.1273
 1271SOL    MW4 5084   0.914   3.983   2.164  0.0871  0.1043 -0.0513
 1272SOL     OW 5085   0.882   4.257   2.207 -0.0397 -0.3218  0.0294
 1272SOL    HW2 5086   0.968   4.298   2.191  0.8698 -2.3262 -0.3708
 1272SOL    HW3 5087   0.819   4.320   2.173  1.3454  0.4948 -1.1069
 1272SOL    MW4 5088   0.885   4.270   2.201  0.2630 -0.4785 -0.1733
 1273SOL     OW 5089   1.151   4.636   2.235 -0.2781 -0.7226 -0.2485
 1273SOL    HW2 5090   1.243   4.650   2.212 -0.3776 -0.5397 -0.5439
 1273SOL    HW3 5091   1.151   4.627   2.330  0.0994 -1.1498 -0.2892
 1273SOL    MW4 5092   1.163   4.637   2.245 -0.2414 -0.7548 -0.2928
 1274SOL     OW 5093   1.612   4.657   2.298  0.3440 -0.4076  0.3509
 1274SOL    HW2 5094   1.688   4.708   2.270 -0.2323  0.2640  0.0014
 1274SOL    HW3 5095   1.539   4.693   2.249 -0.0084 -1.8650 -0.2333
 1274SOL    MW4 5096   1.613   4.668   2.288  0.2215 -0.5113  0.2277
 1275SOL     OW 5097   1.390   0.069   2.148  0.5960 -0.3565 -0.0126
 1275SOL    HW2 5098   1.388   0.159   2.180 -0.1115 -0.0199 -0.9760
 1275SOL    HW3 5099   1.387   0.077   2.053 -1.7163 -1.4185 -0.0757
 1275SOL    MW4 5100   1.389   0.082   2.140  0.1975 -0.4522 -0.1481
 1276SOL     OW 5101   1.369   0.330   2.240  0.0683  0.4160  0.3270
 1276SOL    HW2 5102   1.373   0.329   2.335  1.0131 -1.9522  0.3183
 1276SOL    HW3 5103   1.446   0.381   2.213  0.1315  0.5781  0.8176
 1276SOL    MW4 5104   1.380   0.336   2.249  0.2013  0.1249  0.3906
 1277SOL     OW 5105   0.131   4.084   1.149 -0.1247 -0.9219  0.4652
 1277SOL    HW2 5106   0.138   4.106   1.242 -1.3987 -0.4036  0.4520
 1277SOL    HW3 5107   0.109   4.167   1.106  1.5539 -0.9367 -0.4539
 1277SOL    MW4 5108   0.129   4.098   1.156 -0.0713 -0.8555  0.3422
 1278SOL     OW 5109   1.043   1.996   0.392 -0.1416  0.4546  1.0913
 1278SOL    HW2 5110   1.128   2.039   0.381 -1.0593  1.9615 -0.3439
 1278SOL    HW3 5111   1.020   2.010   0.484  0.4598  1.3671  1.1072
 1278SOL    MW4 5112   1.051   2.004   0.403 -0.1833  0.7738  0.9040
 1279SOL     OW 5113   1.142   0.719   2.256  0.0764 -0.1819 -0.5777
 1279SOL    HW2 5114   1.055   0.739   2.222 -0.2761  1.7575  1.3717
 1279SOL    HW3 5115   1.201   0.777   2.207  0.1365 -0.6667 -1.0833
 1279SOL    MW4 5116   1.139   0.729   2.245  0.0378  0.0100 -0.3872
 1280SOL     OW 5117   1.226   1.034   1.533  0.1342 -0.3137 -0.6881
 1280SOL    HW2 5118   1.266   0.977   1.468  0.9228  1.4326 -1.7712
 1280SOL    HW3 5119   1.143   1.061   1.494 -1.1075 -2.1261  0.5974
 1280SOL    MW4 5120   1.220   1.030   1.519  0.0744 -0.3224 -0.6614
 1281SOL     OW 5121   2.922   0.156   1.812 -0.4293 -0.0506  0.4169
 1281SOL    HW2 5122   2.878   0.080   1.849 -0.0081  0.4901  2.0481
 1281SOL    HW3 5123   3.012   0.150   1.844 -0.0608  0.4385 -0.4956
 1281SOL    MW4 5124   2.928   0.145   1.821 -0.3251  0.0852  0.5117
 1282SOL     OW 5125   3.244   1.860   1.408 -0.0660  0.0478 -0.1815
 1282SOL    HW2 5126   3.217   1.911   1.485 -1.1828 -0.6286 -0.1050
 1282SOL    HW3 5127   3.260   1.925   1.340 -1.5079  0.5163 -0.0925
 1282SOL    MW4 5128   3.242   1.875   1.409 -0.4036  0.0204 -0.1597
 1283SOL     OW 5129   0.870   0.955   1.910  0.2979  0.2460  0.1753
 1283SOL    HW2 5130   0.852   1.047   1.930  0.8157  0.1470  1.0894
 1283SOL    HW3 5131   0.958   0.955   1.872  0.0388  0.2071 -0.4286
 1283SOL    MW4 5132   0.879   0.967   1.907  0.3320  0.2278  0.2162
 1284SOL     OW 5133   1.619   3.570   0.893  0.1743 -0.2057  0.0760
 1284SOL    HW2 5134   1.633   3.631   0.965  0.7390  1.7509 -1.6667
 1284SOL    HW3 5135   1.689   3.505   0.903 -0.7627 -0.9170  2.2552
 1284SOL    MW4 5136   1.630   3.569   0.904  0.1252 -0.0414  0.1336
 1285SOL     OW 5137   1.647   3.946   1.518  0.6265 -0.6169  0.6816
 1285SOL    HW2 5138   1.701   3.960   1.596 -0.6736 -2.1559  1.9059
 1285SOL    HW3 5139   1.655   3.852   1.501  1.2489 -0.2236 -1.3349
 1285SOL    MW4 5140   1.655   3.935   1.526  0.5371 -0.7681  0.5771
 1286SOL     OW 5141   1.615   2.082   2.159 -0.0401 -0.2406 -0.8577
 1286SOL    HW2 5142   1.584   2.147   2.221 -0.6095 -0.4555 -0.9097
 1286SOL    HW3 5143   1.672   2.024   2.210  1.2833  0.8897 -1.0394
 1286SOL    MW4 5144   1.618   2.083   2.174  0.0593 -0.1198 -0.8885
 1287SOL     OW 5145   1.850   4.311   1.758  0.1481  0.2894 -0.3415
 1287SOL    HW2 5146   1.857   4.376   1.688 -0.9987  1.6777  0.7997
 1287SOL    HW3 5147   1.775   4.340   1.810 -0.7663 -2.3180 -0.1656
 1287SOL    MW4 5148   1.841   4.324   1.756 -0.1239  0.1286 -0.1677
 1288SOL     OW 5149   2.161   0.158   1.496 -0.1218  0.0082  0.3654
 1288SOL    HW2 5150   2.160   0.218   1.570  0.8063 -0.5178  0.8085
 1288SOL    HW3 5151   2.180   0.214   1.420  0.5316  0.3136  0.7475
 1288SOL    MW4 5152   2.164   0.173   1.496  0.0868 -0.0209  0.4743
 1289SOL     OW 5153   1.078   2.280   2.541 -0.2711 -0.5312  0.1346
 1289SOL    HW2 5154   1.144   2.334   2.585  0.9259 -0.9612 -1.1088
 1289SOL    HW3 5155   1.090   2.299   2.448 -1.2449 -1.3675 -0.1714
 1289SOL    MW4 5156   1.088   2.290   2.534 -0.2416 -0.6983 -0.0698
 1290SOL     OW 5157   2.940   2.353   1.144  0.2188 -0.5690 -0.2239
 1290SOL    HW2 5158   2.885   2.313   1.211  0.6390  0.6390  0.8712
 1290SOL    HW3 5159   2.877   2.389   1.080 -0.2033 -0.8501  0.0315
 1290SOL    MW4 5160   2.924   2.353   1.144  0.2185 -0.4467 -0.0457
 1291SOL     OW 5161   1.625   3.079   2.245  0.2667 -0.3798  0.2238
 1291SOL    HW2 5162   1.596   3.081   2.336 -2.9727 -0.0429 -0.7469
 1291SOL    HW3 5163   1.605   2.990   2.215  0.1176 -0.1159 -0.4885
 1291SOL    MW4 5164   1.618   3.068   2.253 -0.1804 -0.3006  0.0017
 1292SOL     OW 5165   1.414   3.506   2.340  0.1219 -0.0413  0.1236
 1292SOL    HW2 5166   1.394   3.485   2.431  1.2730 -0.2393  0.3378
 1292SOL    HW3 5167   1.407   3.423   2.293  0.8495 -0.1907  0.2753
 1292SOL    MW4 5168   1.410   3.492   2.346  0.3698 -0.0871  0.1719
 1293SOL     OW 5169   1.633   3.607   2.206 -0.2693  0.1028  0.3278
 1293SOL    HW2 5170   1.564   3.568   2.258 -1.1470 -0.2876 -1.1120
 1293SOL    HW3 5171   1.632   3.700   2.230 -2.2250  0.3668 -0.7022
 1293SOL    MW4 5172   1.624   3.614   2.216 -0.6432  0.0862  0.0019
 1294SOL     OW 5173   1.601   3.862   2.316 -0.1332 -0.0994  0.5106
 1294SOL    HW2 5174   1.593   3.865   2.411 -1.3268  1.7303  0.3682
 1294SOL    HW3 5175   1.688   3.899   2.298 -0.4705  0.8586  0.8206
 1294SOL    MW4 5176   1.612   3.867   2.326 -0.3352  0.2684  0.5327
 1295SOL     OW 5177   1.372   4.003   2.208  0.3950 -0.0776  0.2102
 1295SOL    HW2 5178   1.445   3.952   2.245  0.6881 -0.0820 -0.3738
 1295SOL    HW3 5179   1.385   3.998   2.114  0.6339  1.3916  0.1561
 1295SOL    MW4 5180   1.384   3.996   2.201  0.4652  0.1157  0.1260
 1296SOL     OW 5181   1.341   4.273   2.288  0.5780  0.0524 -0.0695
 1296SOL    HW2 5182   1.350   4.185   2.253  0.5195 -0.6688  1.6640
 1296SOL    HW3 5183   1.267   4.311   2.240  1.5213 -0.3131 -1.8299
 1296SOL    MW4 5184   1.332   4.266   2.277  0.6948 -0.0910 -0.0730
 1297SOL     OW 5185   1.604   4.402   2.197 -0.3070  0.4112  0.4723
 1297SOL    HW2 5186   1.520   4.368   2.226 -1.4489  1.6976 -1.2664
 1297SOL    HW3 5187   1.607   4.492   2.228 -0.6303  1.1304 -1.5074
 1297SOL    MW4 5188   1.593   4.409   2.205 -0.5003  0.6758 -0.0183
 1298SOL     OW 5189   2.537   4.598   2.282  0.2262 -0.6235 -0.6128
 1298SOL    HW2 5190   2.552   4.508   2.255  0.7637 -0.3660 -1.1862
 1298SOL    HW3 5191   2.601   4.649   2.233 -1.1770  0.2676 -1.5607
 1298SOL    MW4 5192   2.547   4.593   2.272  0.1120 -0.4720 -0.8135
 1299SOL     OW 5193   3.367   4.044   1.172  0.1285 -0.2039  0.2248
 1299SOL    HW2 5194   3.418   4.001   1.103 -1.4141 -0.2728 -0.8903
 1299SOL    HW3 5195   3.421   4.035   1.250  0.9270 -2.0445 -0.5096
 1299SOL    MW4 5196   3.381   4.037   1.173  0.0303 -0.4559 -0.0192
 1300SOL     OW 5197   1.834   0.116   2.198 -0.1528  0.0108  0.5320
 1300SOL    HW2 5198   1.839   0.205   2.233 -0.5214 -0.1685  1.0608
 1300SOL    HW3 5199   1.842   0.126   2.104 -0.1212  0.5998  0.5967
 1300SOL    MW4 5200   1.836   0.129   2.190 -0.1973  0.0648  0.6103
 1301SOL     OW 5201   2.226   2.010   0.962  0.5040 -0.0819  0.4091
 1301SOL    HW2 5202   2.171   2.062   0.903  0.9763  0.1368  0.1649
 1301SOL    HW3 5203   2.165   1.977   1.028  0.2771  1.0769  0.7760
 1301SOL    MW4 5204   2.211   2.012   0.963  0.5364  0.0998  0.4253
 1302SOL     OW 5205   1.968   2.838   0.838 -0.1911  0.5473 -0.2070
 1302SOL    HW2 5206   1.893   2.876   0.883  1.7571  2.8601  1.2113
 1302SOL    HW3 5207   2.043   2.857   0.894  1.5385 -1.4675 -1.7048
 1302SOL    MW4 5208   1.968   2.845   0.851  0.2942  0.5866 -0.2175
 1303SOL     OW 5209   2.056   4.605   2.260  0.2470 -0.2110 -0.3524
 1303SOL    HW2 5210   2.037   4.519   2.222 -1.0672  0.0341 -0.2773
 1303SOL    HW3 5211   1.975   4.654   2.249  0.4627  0.4831  1.0809
 1303SOL    MW4 5212   2.043   4.600   2.254  0.1021 -0.0871 -0.1534
 1304SOL     OW 5213   1.953   1.249   2.133  0.1117  0.1668  0.2981
 1304SOL    HW2 5214   2.030   1.209   2.174 -0.0245  0.7877  1.1611
 1304SOL    HW3 5215   1.965   1.343   2.147 -0.0721  0.3635 -0.8518
 1304SOL    MW4 5216   1.965   1.256   2.140  0.0695  0.2747  0.2603
 1305SOL     OW 5217   2.840   4.046   0.376 -0.3016  0.4545  0.6843
 1305SOL    HW2 5218   2.751   4.078   0.391 -0.4338  1.2645 -1.6821
 1305SOL    HW3 5219   2.831   3.950   0.380 -1.5744  0.4857 -1.0752
 1305SOL    MW4 5220   2.827   4.037   0.379 -0.4870  0.5655  0.1400
 1306SOL     OW 5221   1.996   2.020   2.207 -1.1648  0.2150 -0.2395
 1306SOL    HW2 5222   2.055   1.963   2.256 -0.9317  0.2966 -0.4256
 1306SOL    HW3 5223   1.908   1.986   2.226 -1.0402 -0.0668 -0.1718
 1306SOL    MW4 5224   1.992   2.008   2.216 -1.1176  0.1886 -0.2551
 1307SOL     OW 5225   1.759   1.907   2.318 -0.5288  0.4996  0.2308
 1307SOL    HW2 5226   1.763   1.911   2.413 -0.6205  0.1449  0.2501
 1307SOL    HW3 5227   1.762   1.813   2.298 -0.2409  0.5852 -0.1258
 1307SOL    MW4 5228   1.760   1.895   2.328 -0.5029  0.4641  0.1863
 1308SOL     OW 5229   1.294   1.600   2.145 -0.2059 -0.5904  0.4651
 1308SOL    HW2 5230   1.297   1.687   2.185 -0.0974 -0.0114 -0.8014
 1308SOL    HW3 5231   1.233   1.551   2.200  1.7864 -0.5544  2.8271
 1308SOL    MW4 5232   1.286   1.605   2.158  0.0713 -0.5093  0.6097
 1309SOL     OW 5233   2.604   2.530   1.821 -0.1098 -0.5385 -0.1073
 1309SOL    HW2 5234   2.606   2.450   1.873 -4.7711 -0.5227  0.3337
 1309SOL    HW3 5235   2.589   2.600   1.884  0.7222  0.2958 -0.8222
 1309SOL    MW4 5236   2.602   2.528   1.836 -0.6150 -0.4264 -0.1434
 1310SOL     OW 5237   2.250   2.374   2.247  0.1037 -0.0660  0.0728
 1310SOL    HW2 5238   2.338   2.358   2.281  0.5451 -0.8161 -1.3956
 1310SOL    HW3 5239   2.232   2.465   2.272  0.3266 -0.6224  2.4305
 1310SOL    MW4 5240   2.260   2.384   2.255  0.1914 -0.2384  0.1901
 1311SOL     OW 5241   3.719   0.770   1.578  0.3987 -0.2315  0.3484
 1311SOL    HW2 5242   3.756   0.682   1.569  1.4484  0.4154 -1.8923
 1311SOL    HW3 5243   3.795   0.828   1.581 -0.3433  0.8987 -1.8879
 1311SOL    MW4 5244   3.734   0.766   1.577  0.4393  0.0030 -0.2423
 1312SOL     OW 5245   1.755   2.717   2.310 -0.0671 -0.2599 -0.3601
 1312SOL    HW2 5246   1.762   2.632   2.265 -1.8035  0.2902 -1.7383
 1312SOL    HW3 5247   1.672   2.753   2.279  0.1800  1.5091  0.9934
 1312SOL    MW4 5248   1.745   2.710   2.300 -0.2636  0.0460 -0.3634
 1313SOL     OW 5249   1.646   1.810   0.509  0.3497 -0.1692 -0.5103
 1313SOL    HW2 5250   1.711   1.740   0.505 -0.2644 -0.6996 -1.2130
 1313SOL    HW3 5251   1.677   1.874   0.444  0.0865 -0.4945 -0.9579
 1313SOL    MW4 5252   1.659   1.809   0.500  0.2339 -0.2821 -0.6621
 1314SOL     OW 5253   2.223   3.188   2.112 -0.0563 -0.4769  0.2212
 1314SOL    HW2 5254   2.226   3.282   2.126  1.5960 -0.4947  0.0852
 1314SOL    HW3 5255   2.170   3.154   2.184  1.0581  0.3431  1.4428
 1314SOL    MW4 5256   2.216   3.196   2.123  0.3087 -0.3711  0.3644
 1315SOL     OW 5257   0.234   4.422   1.469 -0.3230  0.1212 -0.3237
 1315SOL    HW2 5258   0.197   4.337   1.448 -0.6582  0.6474 -1.8929
 1315SOL    HW3 5259   0.319   4.403   1.509  0.1762 -0.8949 -1.8691
 1315SOL    MW4 5260   0.240   4.408   1.472 -0.3014  0.0566 -0.7347
 1316SOL     OW 5261   1.846   3.469   2.294 -0.0962 -0.0490  0.6404
 1316SOL    HW2 5262   1.770   3.519   2.264  0.9450  0.3661 -1.4394
 1316SOL    HW3 5263   1.844   3.388   2.242  1.4848  0.4707 -0.2847
 1316SOL    MW4 5264   1.836   3.465   2.283  0.2498  0.0743  0.2440
 1317SOL     OW 5265   2.674   4.162   0.911  0.0524  0.0866 -0.3933
 1317SOL    HW2 5266   2.582   4.154   0.935  0.0472  0.2672 -0.3499
 1317SOL    HW3 5267   2.720   4.164   0.995  0.2264 -1.5384 -0.4528
 1317SOL    MW4 5268   2.668   4.161   0.926  0.0747 -0.1040 -0.3954
 1318SOL     OW 5269   1.853   4.016   2.328  0.2082  0.1488 -0.1775
 1318SOL    HW2 5270   1.889   3.984   2.411  1.9909  0.4338 -0.8300
 1318SOL    HW3 5271   1.829   4.107   2.346  1.4307  0.4854 -0.2146
 1318SOL    MW4 5272   1.855   4.023   2.342  0.6047  0.2308 -0.2685
 1319SOL     OW 5273   1.856   4.007   1.685 -0.2737 -0.1292  0.1823
 1319SOL    HW2 5274   1.906   3.968   1.756  0.7471 -0.0022 -0.4666
 1319SOL    HW3 5275   1.855   4.101   1.706  0.1257 -0.0779 -0.0388
 1319SOL    MW4 5276   1.862   4.014   1.697 -0.0863 -0.1057  0.0675
 1320SOL     OW 5277   1.826   4.285   2.350  0.3175 -0.0350  0.4299
 1320SOL    HW2 5278   1.902   4.318   2.302  0.4394 -0.6842  0.1655
 1320SOL    HW3 5279   1.751   4.328   2.309  0.4302 -0.5165 -0.2875
 1320SOL    MW4 5280   1.826   4.295   2.338  0.3485 -0.1842  0.3003
 1321SOL     OW 5281   2.485   0.509   2.083 -0.1554 -0.0259  0.0039
 1321SOL    HW2 5282   2.557   0.458   2.121  1.0299  1.2864 -0.4407
 1321SOL    HW3 5283   2.510   0.520   1.991 -0.6778  0.8624 -0.0351
 1321SOL    MW4 5284   2.498   0.504   2.076 -0.0679  0.2644 -0.0599
 1322SOL     OW 5285   2.941   3.328   1.366  0.2089 -0.2916  0.8244
 1322SOL    HW2 5286   2.942   3.258   1.431 -1.4499 -0.7237  0.3921
 1322SOL    HW3 5287   2.854   3.325   1.327  0.3448  1.5634  0.3047
 1322SOL    MW4 5288   2.930   3.318   1.369  0.0079 -0.1039  0.6988
 1323SOL     OW 5289   1.859   1.975   0.358  0.2630  0.3309  0.4389
 1323SOL    HW2 5290   1.939   2.022   0.381  0.2199  0.4622  0.3247
 1323SOL    HW3 5291   1.790   2.042   0.364  0.1627  0.2202  0.5305
 1323SOL    MW4 5292   1.860   1.990   0.362  0.2441  0.3336  0.4359
 1324SOL     OW 5293   2.791   3.060   0.385  0.1527 -0.1009 -0.2901
 1324SOL    HW2 5294   2.799   3.010   0.303  0.3936 -1.7620  0.7326
 1324SOL    HW3 5295   2.827   3.003   0.452 -0.6219  0.9992  1.0942
 1324SOL    MW4 5296   2.797   3.046   0.383  0.0823 -0.1750  0.0275
 1325SOL     OW 5297   3.279   3.743   0.698  0.2843  0.5024 -1.0364
 1325SOL    HW2 5298   3.273   3.736   0.793 -0.0553 -1.9492 -1.1950
 1325SOL    HW3 5299   3.263   3.835   0.679 -1.6508  0.6569  1.1512
 1325SOL    MW4 5300   3.276   3.754   0.708 -0.0158  0.1993 -0.7687
 1326SOL     OW 5301   2.020   0.466   1.893  0.0832  0.2540 -0.0665
 1326SOL    HW2 5302   2.068   0.407   1.835 -0.5140 -0.9485  0.6387
 1326SOL    HW3 5303   2.057   0.553   1.876  2.0192 -0.5505 -0.0297
 1326SOL    MW4 5304   2.031   0.470   1.883  0.2598 -0.0108  0.0314
 1327SOL     OW 5305   2.770   0.095   1.023  0.4400 -0.4887  0.7484
 1327SOL    HW2 5306   2.796   0.175   1.069 -2.0270  0.4011  0.6572
 1327SOL    HW3 5307   2.828   0.091   0.947 -0.5687  2.1984 -0.2253
 1327SOL    MW4 5308   2.781   0.105   1.019 -0.0186 -0.0168  0.6079
 1328SOL     OW 5309   2.036   0.720   2.235  0.6184 -0.1935  0.2759
 1328SOL    HW2 5310   2.053   0.626   2.237 -0.6334 -0.4776 -1.5895
 1328SOL    HW3 5311   2.043   0.748   2.326  0.2626 -2.2178  0.9358
 1328SOL    MW4 5312   2.039   0.711   2.247  0.4063 -0.4981  0.1169
 1329SOL     OW 5313   2.856   4.580   1.908 -0.1367  0.1272  0.0400
 1329SOL    HW2 5314   2.840   4.519   1.836  1.2618  0.0289 -0.1945
 1329SOL    HW3 5315   2.891   4.525   1.979  0.9310  0.6274 -0.1007
 1329SOL    MW4 5316   2.858   4.565   1.908  0.1887  0.1802 -0.0095
 1330SOL     OW 5317   2.017   2.192   0.866  0.2574  0.3392  0.2851
 1330SOL    HW2 5318   1.952   2.194   0.936  1.4973 -0.9929  1.4964
 1330SOL    HW3 5319   2.066   2.273   0.876  1.2651 -0.4395  1.7813
 1330SOL    MW4 5320   2.015   2.203   0.876  0.5539  0.0607  0.6423
 1331SOL     OW 5321   2.689   1.914   2.329 -0.5765 -0.2278  0.1052
 1331SOL    HW2 5322   2.681   1.922   2.424 -0.6753  2.5771 -0.1052
 1331SOL    HW3 5323   2.702   1.820   2.314  2.8675 -0.3212  3.1116
 1331SOL    MW4 5324   2.689   1.903   2.340 -0.1351  0.1299  0.4741
 1332SOL     OW 5325   2.207   1.879   2.336 -0.4516 -0.2179  0.3454
 1332SOL    HW2 5326   2.222   1.789   2.307  1.3685 -0.5989  2.3362
 1332SOL    HW3 5327   2.272   1.931   2.289  0.0910 -0.3060  0.9921
 1332SOL    MW4 5328   2.217   1.874   2.326 -0.1399 -0.2798  0.6934
 1333SOL     OW 5329   2.914   2.296   2.338  0.0657  0.0271  0.2726
 1333SOL    HW2 5330   2.912   2.308   2.433  1.0593  0.5042  0.2399
 1333SOL    HW3 5331   2.926   2.202   2.326  1.9536  0.2101  0.6485
 1333SOL    MW4 5332   2.915   2.285   2.349  0.4459  0.1142  0.3179
 1334SOL     OW 5333   2.488   2.279   2.351 -0.3207  0.1219  0.3485
 1334SOL    HW2 5334   2.575   2.295   2.313 -0.4874  0.8424  0.2631
 1334SOL    HW3 5335   2.464   2.192   2.319  0.1529  0.1287 -0.0429
 1334SOL    MW4 5336   2.496   2.269   2.342 -0.2802  0.2178  0.2856
 1335SOL     OW 5337   2.003   2.268   2.327  0.2983  0.1325  0.0883
 1335SOL    HW2 5338   2.083   2.307   2.291 -0.5381  0.2425 -1.6896
 1335SOL    HW3 5339   1.996   2.182   2.286 -0.1203 -0.1747  0.7848
 1335SOL    MW4 5340   2.012   2.262   2.317  0.1327  0.1065 -0.0544
 1336SOL     OW 5341   2.230   2.644   2.323  0.3861  0.1505  0.0346
 1336SOL    HW2 5342   2.155   2.697   2.297 -0.0468 -0.6381 -0.3232
 1336SOL    HW3 5343   2.227   2.643   2.418  1.1198  1.8099  0.0988
 1336SOL    MW4 5344   2.220   2.651   2.332  0.4258  0.2654 -0.0041
 1337SOL     OW 5345   3.645   2.287   2.154 -0.2620  0.0035  0.6895
 1337SOL    HW2 5346   3.560   2.265   2.191  0.2125 -1.6599  0.8359
 1337SOL    HW3 5347   3.650   2.237   2.073 -0.2839  1.7452 -0.4167
 1337SOL    MW4 5348   3.635   2.277   2.149 -0.2023  0.0138  0.5629
 1338SOL     OW 5349   2.446   3.080   2.265  0.3292 -0.3455  0.0679
 1338SOL    HW2 5350   2.373   3.106   2.209 -0.1585 -1.8027 -0.0154
 1338SOL    HW3 5351   2.459   2.987   2.244  1.0875 -0.5324  1.3339
 1338SOL    MW4 5352   2.438   3.071   2.255  0.3649 -0.5624  0.2240
 1339SOL     OW 5353   1.992   2.436   1.687 -0.3968  0.6630  0.3774
 1339SOL    HW2 5354   2.079   2.439   1.726  0.4343 -2.4764 -1.0675
 1339SOL    HW3 5355   1.948   2.363   1.730 -0.6293 -0.7306 -2.1167
 1339SOL    MW4 5356   1.998   2.427   1.697 -0.3178  0.0650 -0.1423
 1340SOL     OW 5357   2.076   3.907   2.171 -0.2503  0.1341 -0.4212
 1340SOL    HW2 5358   2.000   3.953   2.207 -0.6332 -0.2646 -0.7273
 1340SOL    HW3 5359   2.071   3.819   2.209 -0.1782 -0.0252 -0.7836
 1340SOL    MW4 5360   2.065   3.902   2.181 -0.2913  0.0605 -0.5094
 1341SOL     OW 5361   0.558   0.184   1.656 -0.2147  0.3071  0.2515
 1341SOL    HW2 5362   0.638   0.132   1.662 -1.0976 -0.8998  1.8002
 1341SOL    HW3 5363   0.523   0.187   1.745 -1.2790  1.8170 -0.1837
 1341SOL    MW4 5364   0.564   0.178   1.669 -0.4716  0.3471  0.3984
 1342SOL     OW 5365   2.249   3.465   2.099  0.1238 -0.1504  0.1630
 1342SOL    HW2 5366   2.196   3.513   2.162  1.0504  1.1174  0.0180
 1342SOL    HW3 5367   2.335   3.507   2.104  0.3861 -0.4583 -1.4614
 1342SOL    MW4 5368   2.254   3.477   2.108  0.2807 -0.0237 -0.0704
 1343SOL     OW 5369   2.509   1.319   1.326  0.2652 -0.1922 -0.2630
 1343SOL    HW2 5370   2.586   1.340   1.273  0.8522 -1.1834  0.1902
 1343SOL    HW3 5371   2.468   1.245   1.281  0.7362 -1.0009  0.6267
 1343SOL    MW4 5372   2.513   1.312   1.313  0.4048 -0.4297 -0.0858
 1344SOL     OW 5373   2.573   4.356   2.173 -0.4941  0.2870  0.0498
 1344SOL    HW2 5374   2.557   4.370   2.079 -0.7133  0.0618  0.0528
 1344SOL    HW3 5375   2.651   4.301   2.176  0.3387  1.4542  0.0383
 1344SOL    MW4 5376   2.581   4.350   2.161 -0.4131  0.4113  0.0487
 1345SOL     OW 5377   2.952   4.624   2.239 -0.4472  0.4240 -0.1773
 1345SOL    HW2 5378   2.881   4.676   2.202 -0.6243 -0.8994 -1.7851
 1345SOL    HW3 5379   3.032   4.663   2.203 -0.5016  0.4967 -0.2175
 1345SOL    MW4 5380   2.953   4.636   2.230 -0.4778  0.2590 -0.3947
 1346SOL     OW 5381   2.713   0.078   2.136 -0.4958 -0.6136  0.0004
 1346SOL    HW2 5382   2.683   0.167   2.157  1.6000 -0.2164  1.4890
 1346SOL    HW3 5383   2.702   0.071   2.041  1.2870  2.0438 -0.4695
 1346SOL    MW4 5384   2.708   0.089   2.127  0.0160 -0.2106  0.1348
 1347SOL     OW 5385   0.322   3.628   1.928 -0.0165  0.2310 -0.2694
 1347SOL    HW2 5386   0.270   3.696   1.886  1.8467  1.4545 -0.6344
 1347SOL    HW3 5387   0.284   3.546   1.896 -1.9444  1.0715 -0.2338
 1347SOL    MW4 5388   0.310   3.626   1.918 -0.0250  0.5033 -0.3129
 1348SOL     OW 5389   1.625   1.079   1.041  0.4640  0.3255  0.2079
 1348SOL    HW2 5390   1.678   1.008   1.078 -0.3154 -0.1441  0.4407
 1348SOL    HW3 5391   1.629   1.066   0.947  2.2337  1.3606  0.1197
 1348SOL    MW4 5392   1.632   1.068   1.034  0.5946  0.4001  0.2270
 1349SOL     OW 5393   3.563   3.763   0.777 -0.0934 -0.0828  0.3478
 1349SOL    HW2 5394   3.471   3.768   0.754  0.2849  1.5502 -0.9740
 1349SOL    HW3 5395   3.608   3.813   0.708  1.9788 -2.4896 -0.1325
 1349SOL    MW4 5396   3.557   3.770   0.765  0.2299 -0.1849  0.1100
 1350SOL     OW 5397   0.028   2.301   0.849 -0.1941  0.1545  0.6289
 1350SOL    HW2 5398   0.061   2.289   0.760 -0.2316 -2.0923  0.8814
 1350SOL    HW3 5399  -0.056   2.255   0.849 -0.6355  0.9358  1.5814
 1350SOL    MW4 5400   0.021   2.293   0.837 -0.2573 -0.0389  0.7879
 1351SOL     OW 5401   2.311   3.798   1.763 -0.2212 -0.1076 -0.4530
 1351SOL    HW2 5402   2.304   3.892   1.779  1.5866  0.1559 -1.1630
 1351SOL    HW3 5403   2.397   3.774   1.797 -1.2760 -1.8121  1.1269
 1351SOL    MW4 5404   2.322   3.807   1.770 -0.1218 -0.2977 -0.3382
 1352SOL     OW 5405   1.249   3.895   1.770 -0.5011 -0.5119  0.7598
 1352SOL    HW2 5406   1.207   3.981   1.782  0.1124  0.0469 -0.9753
 1352SOL    HW3 5407   1.256   3.885   1.675  2.4070 -1.0153  0.9743
 1352SOL    MW4 5408   1.244   3.905   1.759 -0.0365 -0.5046  0.5592
 1353SOL     OW 5409   3.178   2.019   1.631  0.2586 -0.0715 -0.3375
 1353SOL    HW2 5410   3.107   2.080   1.652 -1.0409 -1.0893 -1.6296
 1353SOL    HW3 5411   3.258   2.068   1.650 -0.7761  1.1255  1.0757
 1353SOL    MW4 5412   3.179   2.034   1.636 -0.0493 -0.0479 -0.3215
 1354SOL     OW 5413   2.248   2.118   1.489 -0.0996  0.3833 -0.0924
 1354SOL    HW2 5414   2.333   2.157   1.469 -0.0622  1.2328  1.6006
 1354SOL    HW3 5415   2.248   2.110   1.584 -1.3676 -0.8967 -0.1916
 1354SOL    MW4 5416   2.259   2.123   1.499 -0.2620  0.3265  0.1179
 1355SOL     OW 5417   1.815   0.878   2.141 -0.2584 -0.0556 -1.0695
 1355SOL    HW2 5418   1.818   0.894   2.047 -1.0458  1.3242 -0.8712
 1355SOL    HW3 5419   1.883   0.813   2.156 -0.2016 -0.3691 -2.6082
 1355SOL    MW4 5420   1.824   0.872   2.130 -0.3548  0.0851 -1.2463
 1356SOL     OW 5421   3.253   2.917   1.008  0.5034  0.2002  0.2738
 1356SOL    HW2 5422   3.258   2.825   1.034  0.4622  0.1038 -0.0665
 1356SOL    HW3 5423   3.281   2.918   0.917  0.7980  0.5652  0.3642
 1356SOL    MW4 5424   3.258   2.905   1.000  0.5368  0.2357  0.2409
 1357SOL     OW 5425   0.234   3.767   0.576  0.1738  0.2161  0.5652
 1357SOL    HW2 5426   0.232   3.832   0.647 -1.9798  0.9396 -0.1358
 1357SOL    HW3 5427   0.302   3.801   0.516 -2.0577  2.8054 -0.6350
 1357SOL    MW4 5428   0.243   3.780   0.577 -0.4047  0.6532  0.3144
 1358SOL     OW 5429   0.067   4.582   1.261 -0.3665 -0.5427 -0.2243
 1358SOL    HW2 5430   0.133   4.517   1.287 -0.3358 -0.5592 -0.3429
 1358SOL    HW3 5431   0.101   4.618   1.179 -0.7006 -0.8288 -0.4903
 1358SOL    MW4 5432   0.081   4.578   1.253 -0.4066 -0.5826 -0.2750
 1359SOL     OW 5433   2.902   3.062   2.285 -0.1299  0.7277 -0.0939
 1359SOL    HW2 5434   2.919   2.973   2.255  1.7384  0.4520  1.7185
 1359SOL    HW3 5435   2.981   3.111   2.262 -0.8501  1.7796 -0.4193
 1359SOL    MW4 5436   2.914   3.057   2.278  0.0216  0.8301  0.1023
 1360SOL     OW 5437   2.714   2.436   2.203  0.5549 -0.0785 -0.1460
 1360SOL    HW2 5438   2.793   2.401   2.245  0.1630  1.1713  1.6954
 1360SOL    HW3 5439   2.695   2.516   2.252 -1.6599 -0.1847 -0.7998
 1360SOL    MW4 5440   2.722   2.442   2.215  0.2110  0.0724  0.0107
 1361SOL     OW 5441   0.118   2.068   1.594  0.2644 -0.3889  0.6205
 1361SOL    HW2 5442   0.130   2.012   1.671  2.0909 -0.4147  0.3426
 1361SOL    HW3 5443   0.148   2.015   1.521  1.4887  0.7441  0.2844
 1361SOL    MW4 5444   0.123   2.054   1.595  0.6669 -0.2428  0.5395
 1362SOL     OW 5445   2.718   3.505   2.243  0.1084 -0.4691 -0.1240
 1362SOL    HW2 5446   2.644   3.547   2.200  0.1190 -0.7480 -0.4210
 1362SOL    HW3 5447   2.703   3.411   2.230  2.2128 -0.4594 -3.0881
 1362SOL    MW4 5448   2.706   3.498   2.235  0.3874 -0.5047 -0.5543
 1363SOL     OW 5449   2.962   0.078   0.824  0.1649 -0.6080 -0.2466
 1363SOL    HW2 5450   3.011   0.014   0.772  0.0639 -0.3680 -0.6454
 1363SOL    HW3 5451   3.026   0.146   0.845  0.1498 -0.5897 -0.2599
 1363SOL    MW4 5452   2.977   0.079   0.820  0.1496 -0.5739 -0.3009
 1364SOL     OW 5453   4.228   0.735   0.211 -0.1039 -0.3765 -0.1493
 1364SOL    HW2 5454   4.203   0.802   0.147 -0.5516  0.9741  1.4077
 1364SOL    HW3 5455   4.146   0.696   0.239 -0.1305  0.7129  1.3727
 1364SOL    MW4 5456   4.214   0.739   0.206 -0.1665 -0.0546  0.2569
 1365SOL     OW 5457   1.417   3.361   0.703  0.2523 -0.3917 -0.0177
 1365SOL    HW2 5458   1.362   3.283   0.689 -0.0822  0.1795 -2.1840
 1365SOL    HW3 5459   1.416   3.375   0.797 -0.4646 -2.4531  0.3159
 1365SOL    MW4 5460   1.410   3.352   0.713  0.1136 -0.5883 -0.2595
 1366SOL     OW 5461   2.962   3.846   2.265 -0.0748  0.6258 -0.2714
 1366SOL    HW2 5462   3.043   3.897   2.259 -0.0941  0.3996 -2.7431
 1366SOL    HW3 5463   2.941   3.848   2.359  2.7781  0.6829  0.4421
 1366SOL    MW4 5464   2.970   3.853   2.277  0.2991  0.6035 -0.5033
 1367SOL     OW 5465   1.904   4.224   1.260  0.5082 -0.1231  0.0078
 1367SOL    HW2 5466   1.853   4.284   1.314 -0.2779 -0.6065 -0.1717
 1367SOL    HW3 5467   1.848   4.146   1.252  0.9710 -0.3855 -0.7919
 1367SOL    MW4 5468   1.890   4.222   1.266  0.4655 -0.2215 -0.1214
 1368SOL     OW 5469   3.916   0.539   0.760 -0.1565  0.2336  0.3810
 1368SOL    HW2 5470   3.919   0.537   0.855 -0.6609  1.2015  0.4294
 1368SOL    HW3 5471   3.935   0.449   0.733  1.4535  0.2775  1.3378
 1368SOL    MW4 5472   3.919   0.527   0.769 -0.0106  0.3671  0.5136
 1369SOL     OW 5473   1.397   0.055   0.751 -0.0151 -0.1111  0.1516
 1369SOL    HW2 5474   1.309   0.026   0.727 -0.8201  1.9137  0.5490
 1369SOL    HW3 5475   1.443   0.064   0.667 -0.7349  0.5352 -0.1772
 1369SOL    MW4 5476   1.392   0.052   0.737 -0.2163  0.2413  0.1606
 1370SOL     OW 5477   2.916   0.482   2.099  0.1489  0.2305 -0.1745
 1370SOL    HW2 5478   2.917   0.576   2.118  0.5358 -0.1102  1.5294
 1370SOL    HW3 5479   2.876   0.477   2.012 -0.4000  1.9307 -0.0567
 1370SOL    MW4 5480   2.911   0.494   2.090  0.1275  0.4099  0.0659
 1371SOL     OW 5481   4.162   0.819   2.238  0.0061 -0.1132 -0.4608
 1371SOL    HW2 5482   4.087   0.769   2.269 -1.0123  0.5844 -1.7578
 1371SOL    HW3 5483   4.151   0.905   2.278  1.3899 -0.6974  1.2215
 1371SOL    MW4 5484   4.151   0.824   2.247  0.0543 -0.0983 -0.4100
 1372SOL     OW 5485   3.133   0.351   2.545 -0.0606  0.0368  0.1260
 1372SOL    HW2 5486   3.109   0.360   2.453  1.4949  2.5860 -0.0845
 1372SOL    HW3 5487   3.068   0.404   2.592 -0.1886 -0.3440  0.3727
 1372SOL    MW4 5488   3.121   0.359   2.539  0.1278  0.3229  0.1308
 1373SOL     OW 5489   2.967   3.592   2.130  0.5053  0.1401 -0.3087
 1373SOL    HW2 5490   2.973   3.679   2.169  0.4565 -0.9755  2.3086
 1373SOL    HW3 5491   2.878   3.563   2.151  0.4195 -0.4442 -1.4265
 1373SOL    MW4 5492   2.956   3.599   2.138  0.4875 -0.0842 -0.1108
 1374SOL     OW 5493   0.604   3.390   0.711 -0.0463 -0.2070 -0.3151
 1374SOL    HW2 5494   0.514   3.377   0.740 -0.4566 -0.9736 -1.8779
 1374SOL    HW3 5495   0.645   3.305   0.720  0.5218  0.1321  0.3539
 1374SOL    MW4 5496   0.598   3.377   0.716 -0.0255 -0.2634 -0.4330
 1375SOL     OW 5497   0.045   1.735   0.796 -0.2924 -0.3160  0.2394
 1375SOL    HW2 5498   0.085   1.648   0.802  0.3362  0.0309  1.1660
 1375SOL    HW3 5499  -0.048   1.719   0.812 -0.7375 -1.2600 -2.8928
 1375SOL    MW4 5500   0.038   1.721   0.799 -0.2682 -0.3948 -0.0516
 1376SOL     OW 5501   3.779   1.971   1.089 -0.1731 -0.2759 -0.0252
 1376SOL    HW2 5502   3.802   2.028   1.163 -0.1579 -1.2269  0.7076
 1376SOL    HW3 5503   3.794   2.025   1.012 -0.5273  0.8501  0.6766
 1376SOL    MW4 5504   3.784   1.986   1.089 -0.2178 -0.2528  0.1641
 1377SOL     OW 5505   2.176   2.852   1.561 -0.3720  0.2474 -0.4075
 1377SOL    HW2 5506   2.175   2.807   1.476  1.0192  1.9604 -1.3771
 1377SOL    HW3 5507   2.148   2.941   1.541 -0.0036  0.6730  0.9270
 1377SOL    MW4 5508   2.172   2.858   1.547 -0.1399  0.5296 -0.3594
 1378SOL     OW 5509   2.353   4.622   1.483  0.0500 -0.3387  0.1500
 1378SOL    HW2 5510   2.297   4.546   1.498  0.7526 -0.9085 -0.0696
 1378SOL    HW3 5511   2.292   4.696   1.475 -0.5135 -0.4991  2.6786
 1378SOL    MW4 5512   2.337   4.622   1.484  0.0684 -0.4351  0.4546
 1379SOL     OW 5513   3.456   2.734   1.412 -0.0931  0.1177  0.3301
 1379SOL    HW2 5514   3.429   2.823   1.390  0.3803  0.0608 -0.4816
 1379SOL    HW3 5515   3.394   2.678   1.365 -0.4582  0.0144  0.9272
 1379SOL    MW4 5516   3.444   2.739   1.403 -0.0788  0.0966  0.3018
 1380SOL     OW 5517   0.205   1.238   1.908 -0.1926 -0.0477 -0.0468
 1380SOL    HW2 5518   0.206   1.249   2.003 -0.4078 -0.1831 -0.0283
 1380SOL    HW3 5519   0.298   1.230   1.884 -0.1882 -1.1093  0.2895
 1380SOL    MW4 5520   0.218   1.238   1.917 -0.2204 -0.2056  0.0000
 1381SOL     OW 5521   3.323   1.980   2.262 -0.2244  0.1081  0.9001
 1381SOL    HW2 5522   3.362   1.918   2.200 -1.1277 -0.0317  0.4771
 1381SOL    HW3 5523   3.240   1.940   2.287 -0.0885  0.3975  1.8334
 1381SOL    MW4 5524   3.317   1.966   2.257 -0.3256  0.1278  0.9674
 1382SOL     OW 5525   3.411   2.244   2.303 -0.6999  0.3179 -0.2988
 1382SOL    HW2 5526   3.387   2.153   2.282 -0.3888  0.4637 -1.3157
 1382SOL    HW3 5527   3.347   2.297   2.256 -0.7851  0.6212  0.1676
 1382SOL    MW4 5528   3.400   2.239   2.294 -0.6701  0.3771 -0.3715
 1383SOL     OW 5529   3.437   2.770   2.332 -0.3836  0.4164 -0.1298
 1383SOL    HW2 5530   3.415   2.864   2.331 -0.4265  0.4087 -1.0167
 1383SOL    HW3 5531   3.486   2.757   2.251 -1.8923 -0.6840 -0.8971
 1383SOL    MW4 5532   3.440   2.781   2.321 -0.5883  0.2702 -0.3481
 1384SOL     OW 5533   1.437   2.215   1.434 -0.1201 -0.4629 -0.4152
 1384SOL    HW2 5534   1.511   2.239   1.490 -0.4452 -0.4659  0.0189
 1384SOL    HW3 5535   1.478   2.182   1.354  0.3814 -1.7831  0.3603
 1384SOL    MW4 5536   1.452   2.214   1.431 -0.0969 -0.6375 -0.2556
 1385SOL     OW 5537   3.165   3.171   2.244  0.6363  0.2815 -0.1472
 1385SOL    HW2 5538   3.174   3.265   2.258 -1.2938  0.3992  0.3854
 1385SOL    HW3 5539   3.137   3.163   2.153  2.4234  0.1217 -0.6923
 1385SOL    MW4 5540   3.163   3.182   2.234  0.6174  0.2760 -0.1489
 1386SOL     OW 5541   1.012   4.175   1.516 -0.2812 -0.2484 -0.6205
 1386SOL    HW2 5542   0.966   4.091   1.509  0.3925 -0.6143 -0.6994
 1386SOL    HW3 5543   1.097   4.159   1.476 -0.3249  0.6141 -1.0802
 1386SOL    MW4 5544   1.017   4.162   1.510 -0.1981 -0.1829 -0.6916
 1387SOL     OW 5545   4.266   3.937   1.900 -0.1226  0.1774  0.0635
 1387SOL    HW2 5546   4.193   3.995   1.920 -1.1908 -1.7231  1.8642
 1387SOL    HW3 5547   4.326   3.947   1.974 -0.5755 -1.3922  0.6550
 1387SOL    MW4 5548   4.264   3.946   1.912 -0.3233 -0.2805  0.3791
 1388SOL     OW 5549   3.158   3.441   2.265 -0.3317  0.2354  0.2246
 1388SOL    HW2 5550   3.076   3.484   2.237  0.2956  0.8098 -0.7776
 1388SOL    HW3 5551   3.158   3.449   2.360 -1.0162  1.0449  0.1693
 1388SOL    MW4 5552   3.147   3.448   2.274 -0.3392  0.4180  0.0851
 1389SOL     OW 5553   3.306   0.783   1.505  0.4575  0.5070  0.6713
 1389SOL    HW2 5554   3.331   0.829   1.425  1.5353 -1.7863 -0.3717
 1389SOL    HW3 5555   3.387   0.781   1.557  0.3416  0.1066  0.8375
 1389SOL    MW4 5556   3.320   0.789   1.501  0.5844  0.1516  0.5556
 1390SOL     OW 5557   3.371   3.839   2.276  0.3596  0.1450  0.0368
 1390SOL    HW2 5558   3.288   3.876   2.246  0.1656  1.3595  1.9534
 1390SOL    HW3 5559   3.436   3.906   2.255  0.8022 -0.6548 -1.1456
 1390SOL    MW4 5560   3.369   3.853   2.270  0.3924  0.1997  0.1337
 1391SOL     OW 5561   0.890   3.928   1.542  0.1831 -0.7072  0.1846
 1391SOL    HW2 5562   0.948   3.892   1.609  0.1380 -2.2726 -0.6024
 1391SOL    HW3 5563   0.803   3.893   1.563 -0.1498  0.1809  0.3102
 1391SOL    MW4 5564   0.886   3.919   1.554  0.1332 -0.7965  0.0973
 1392SOL     OW 5565   1.741   0.901   1.246  0.4559  0.1873 -0.2151
 1392SOL    HW2 5566   1.817   0.875   1.297 -0.7510 -2.0849  0.4809
 1392SOL    HW3 5567   1.685   0.947   1.309 -0.1928 -0.9865  0.0789
 1392SOL    MW4 5568   1.743   0.904   1.261  0.2111 -0.2673 -0.0845
 1393SOL     OW 5569   4.239   0.263   0.694 -0.1399  0.1365 -0.0426
 1393SOL    HW2 5570   4.265   0.201   0.763  2.7634  0.2319 -0.9938
 1393SOL    HW3 5571   4.257   0.217   0.612 -0.5478  1.2242 -0.7550
 1393SOL    MW4 5572   4.245   0.248   0.693  0.1893  0.2926 -0.2621
 1394SOL     OW 5573   3.771   4.647   2.247 -0.1106  0.2312 -0.2239
 1394SOL    HW2 5574   3.811   4.617   2.329  0.5039 -0.6847 -0.8553
 1394SOL    HW3 5575   3.835   4.626   2.180 -1.4785 -0.8813 -1.2052
 1394SOL    MW4 5576   3.785   4.640   2.249 -0.2100 -0.0364 -0.4367
 1395SOL     OW 5577   0.139   4.419   1.743  0.0216  0.0913 -0.0898
 1395SOL    HW2 5578   0.047   4.392   1.743 -0.4230  1.5359  0.3462
 1395SOL    HW3 5579   0.164   4.419   1.651  0.2022 -2.2978 -0.0560
 1395SOL    MW4 5580   0.130   4.416   1.731 -0.0133 -0.0333 -0.0278
 1396SOL     OW 5581   1.943   1.729   1.021 -0.4725  0.2143 -0.4355
 1396SOL    HW2 5582   1.937   1.740   0.926  0.5977  0.0935 -0.5270
 1396SOL    HW3 5583   1.999   1.652   1.032 -0.0214  0.6433  0.2951
 1396SOL    MW4 5584   1.950   1.721   1.010 -0.2718  0.2550 -0.3512
 1397SOL     OW 5585   4.163   4.653   2.314 -0.2282  0.5581 -0.0897
 1397SOL    HW2 5586   4.192   4.631   2.402  0.0587 -1.1384 -0.5980
 1397SOL    HW3 5587   4.141   4.746   2.318  0.3580  0.6236  1.6109
 1397SOL    MW4 5588   4.164   4.663   2.326 -0.1130  0.3429  0.0676
 1398SOL     OW 5589   2.574   1.348   1.945 -0.0204  0.4578 -0.3049
 1398SOL    HW2 5590   2.509   1.412   1.917 -0.1628  0.0325 -0.9485
 1398SOL    HW3 5591   2.580   1.286   1.873  0.8957  0.3330 -0.1309
 1398SOL    MW4 5592   2.566   1.348   1.932  0.0817  0.3852 -0.3669
 1399SOL     OW 5593   4.041   2.835   0.756 -0.1327  0.0315  0.5072
 1399SOL    HW2 5594   4.050   2.929   0.738 -0.8144  0.2244  1.1048
 1399SOL    HW3 5595   4.108   2.793   0.703 -0.7766  0.7313 -0.8836
 1399SOL    MW4 5596   4.051   2.842   0.747 -0.3076  0.1493  0.4025
 1400SOL     OW 5597   2.622   4.602   1.593  0.1028 -0.5882  0.0299
 1400SOL    HW2 5598   2.659   4.643   1.515  1.2006  2.6589  2.1482
 1400SOL    HW3 5599   2.528   4.617   1.586  0.2291 -0.0223 -0.4948
 1400SOL    MW4 5600   2.614   4.609   1.582  0.2643 -0.0851  0.2402
 1401SOL     OW 5601   3.556   1.162   2.255 -0.4531  0.1358 -0.2128
 1401SOL    HW2 5602   3.560   1.198   2.343 -0.5448 -2.0402  0.6995
 1401SOL    HW3 5603   3.647   1.162   2.225 -0.4488  1.0676 -0.2098
 1401SOL    MW4 5604   3.569   1.167   2.262 -0.4646 -0.0284 -0.0920
 1402SOL     OW 5605   3.849   1.592   2.181 -0.2357  0.4200 -0.1917
 1402SOL    HW2 5606   3.936   1.630   2.172  0.4872 -1.2365 -0.1696
 1402SOL    HW3 5607   3.838   1.575   2.274 -0.4596  0.3156 -0.2348
 1402SOL    MW4 5608   3.859   1.595   2.192 -0.1699  0.1877 -0.1944
 1403SOL     OW 5609   3.640   2.204   1.447  0.1632 -0.1727  0.2225
 1403SOL    HW2 5610   3.579   2.216   1.374 -2.3809  1.5008  2.5408
 1403SOL    HW3 5611   3.691   2.285   1.449 -0.0557 -0.0436  0.5617
 1403SOL    MW4 5612   3.639   2.216   1.438 -0.2013  0.0652  0.5731
 1404SOL     OW 5613   3.535   1.939   2.474  0.2958  0.4918  0.0097
 1404SOL    HW2 5614   3.498   1.949   2.386  0.9352 -2.6939 -0.6676
 1404SOL    HW3 5615   3.469   1.978   2.532 -1.0718  0.8121 -1.6978
 1404SOL    MW4 5616   3.521   1.946   2.470  0.1997  0.1137 -0.3049
 1405SOL     OW 5617   3.861   1.459   1.502 -0.0036 -0.3599  0.1008
 1405SOL    HW2 5618   3.879   1.407   1.424  3.5689 -0.1731  0.7035
 1405SOL    HW3 5619   3.848   1.548   1.470  2.0751 -0.1722 -0.2489
 1405SOL    MW4 5620   3.861   1.464   1.488  0.7420 -0.3105  0.1342
 1406SOL     OW 5621   0.732   4.038   0.836 -0.0431  0.8768 -0.2823
 1406SOL    HW2 5622   0.791   4.004   0.903  0.7586 -0.4347 -1.6081
 1406SOL    HW3 5623   0.683   3.961   0.807  0.3705  1.2027 -1.9090
 1406SOL    MW4 5624   0.734   4.023   0.841  0.1172  0.7467 -0.6719
 1407SOL     OW 5625   3.303   3.698   0.967 -0.2536  0.1599  0.2028
 1407SOL    HW2 5626   3.395   3.690   0.994 -0.7976 -4.4399  0.9818
 1407SOL    HW3 5627   3.256   3.718   1.048 -0.2022  0.6022  0.1273
 1407SOL    MW4 5628   3.309   3.700   0.981 -0.3186 -0.3886  0.2957
 1408SOL     OW 5629   4.398   3.392   1.266  0.2781  0.3626  0.1347
 1408SOL    HW2 5630   4.413   3.480   1.300 -1.1643  0.1618  1.3616
 1408SOL    HW3 5631   4.341   3.350   1.332 -0.7535 -0.7785 -1.4424
 1408SOL    MW4 5632   4.392   3.398   1.279 -0.0483  0.1856  0.0885
 1409SOL     OW 5633   0.920   1.723   2.142  0.1076  0.5112 -0.4619
 1409SOL    HW2 5634   0.836   1.704   2.101 -0.2105 -0.0680  0.4536
 1409SOL    HW3 5635   0.905   1.802   2.194 -0.0791 -0.0391  0.3255
 1409SOL    MW4 5636   0.907   1.731   2.143  0.0410  0.3621 -0.2372
 1410SOL     OW 5637   4.065   4.128   1.924  0.0879 -0.5758 -0.1611
 1410SOL    HW2 5638   3.988   4.106   1.871 -0.1255 -0.4248  0.0859
 1410SOL    HW3 5639   4.037   4.112   2.014  0.2128 -0.1145 -0.0415
 1410SOL    MW4 5640   4.051   4.123   1.929  0.0762 -0.4950 -0.1128
 1411SOL     OW 5641   1.906   3.092   1.885 -0.1421  0.2734  0.2798
 1411SOL    HW2 5642   1.832   3.073   1.827 -0.7357  0.6157  0.9169
 1411SOL    HW3 5643   1.945   3.007   1.902 -0.8932 -0.0108  0.6037
 1411SOL    MW4 5644   1.901   3.078   1.880 -0.3195  0.2811  0.4066
 1412SOL     OW 5645   3.564   3.458   2.602  0.0577  0.2035 -0.2306
 1412SOL    HW2 5646   3.500   3.528   2.612  0.5870  0.5705  0.5512
 1412SOL    HW3 5647   3.648   3.498   2.623  0.2583 -0.8840  1.0695
 1412SOL    MW4 5648   3.566   3.472   2.606  0.1540  0.1085  0.0441
 1413SOL     OW 5649   0.268   2.390   1.908  0.1304  0.0570 -0.3465
 1413SOL    HW2 5650   0.328   2.361   1.840  1.2228  1.3357  0.0677
 1413SOL    HW3 5651   0.307   2.359   1.990 -0.2043  0.1568 -0.1471
 1413SOL    MW4 5652   0.281   2.382   1.910  0.2303  0.2389 -0.2655
 1414SOL     OW 5653   4.312   2.652   2.337  0.0444  0.2850  0.2520
 1414SOL    HW2 5654   4.386   2.640   2.396 -0.2663 -1.7325  0.2759
 1414SOL    HW3 5655   4.298   2.566   2.298 -1.7354  0.8416 -0.4108
 1414SOL    MW4 5656   4.320   2.639   2.340 -0.2314  0.0922  0.1677
 1415SOL     OW 5657   0.186   4.334   2.156  0.1925 -0.1024 -0.1639
 1415SOL    HW2 5658   0.132   4.282   2.215 -0.6364 -0.1702 -0.9695
 1415SOL    HW3 5659   0.139   4.416   2.146  0.5078  0.0494 -0.4453
 1415SOL    MW4 5660   0.173   4.338   2.162  0.1248 -0.0913 -0.3073
 1416SOL     OW 5661   0.357   1.682   0.396 -0.2295 -0.2130  0.0343
 1416SOL    HW2 5662   0.403   1.600   0.378  0.9378  0.2957  0.6328
 1416SOL    HW3 5663   0.362   1.692   0.491  0.0118  0.7657 -0.0764
 1416SOL    MW4 5664   0.364   1.673   0.406 -0.0436 -0.0168  0.0987
 1417SOL     OW 5665   3.598   4.291   1.240 -0.1971  0.6144  0.4881
 1417SOL    HW2 5666   3.671   4.266   1.183 -1.3910  0.0918 -0.8494
 1417SOL    HW3 5667   3.578   4.211   1.289 -0.1566  0.6288  0.5276
 1417SOL    MW4 5668   3.605   4.277   1.239 -0.3493  0.5473  0.3169
 1418SOL     OW 5669   2.799   1.939   1.357  0.5347  0.1337 -0.0207
 1418SOL    HW2 5670   2.808   1.894   1.440 -0.1979 -0.2768 -0.1581
 1418SOL    HW3 5671   2.731   1.890   1.310 -0.6844  1.6994  0.0517
 1418SOL    MW4 5672   2.791   1.927   1.362  0.2772  0.2861 -0.0293
 1419SOL     OW 5673   4.247   4.391   2.236 -0.1841 -0.3539 -0.0081
 1419SOL    HW2 5674   4.216   4.470   2.279 -0.3632  0.6361 -1.9170
 1419SOL    HW3 5675   4.173   4.331   2.239  0.0809 -0.6283  1.7974
 1419SOL    MW4 5676   4.233   4.393   2.242 -0.1728 -0.2595 -0.0217
 1420SOL     OW 5677   3.680   3.525   0.648  0.0184  0.3458  0.1830
 1420SOL    HW2 5678   3.640   3.596   0.699 -1.8168 -1.4683  1.3721
 1420SOL    HW3 5679   3.608   3.489   0.597  1.5742  1.2400 -2.7169
 1420SOL    MW4 5680   3.665   3.530   0.648 -0.0185  0.2244 -0.0428
 1421SOL     OW 5681   4.298   4.393   1.123  0.0211 -0.3015  0.2296
 1421SOL    HW2 5682   4.255   4.315   1.087  0.4962 -0.3052 -0.3254
 1421SOL    HW3 5683   4.283   4.461   1.058  0.0691 -0.0643  0.4653
 1421SOL    MW4 5684   4.290   4.392   1.110  0.0901 -0.2707  0.1875
 1422SOL     OW 5685   4.233   0.693   2.617 -0.5914 -0.8129 -0.6650
 1422SOL    HW2 5686   4.221   0.601   2.642 -1.0060 -1.2353 -2.3205
 1422SOL    HW3 5687   4.275   0.689   2.531 -0.4623  0.5482 -0.6756
 1422SOL    MW4 5688   4.237   0.680   2.609 -0.6291 -0.6891 -0.8848
 1423SOL     OW 5689   3.243   1.358   1.862 -0.3617  0.2147 -0.5434
 1423SOL    HW2 5690   3.243   1.313   1.947  0.2454  2.0891  0.4754
 1423SOL    HW3 5691   3.189   1.436   1.877 -1.2905 -0.0863 -2.2401
 1423SOL    MW4 5692   3.236   1.362   1.875 -0.4042  0.4223 -0.6328
 1424SOL     OW 5693   2.171   4.274   0.952 -0.0493  0.3831  0.1557
 1424SOL    HW2 5694   2.141   4.208   0.890 -0.5371 -2.1222  2.9440
 1424SOL    HW3 5695   2.091   4.321   0.978 -0.0898  0.2746  0.2237
 1424SOL    MW4 5696   2.157   4.272   0.948 -0.1190  0.0383  0.5325
 1425SOL     OW 5697   3.927   0.680   2.325  0.5458 -0.2067  0.1222
 1425SOL    HW2 5698   3.872   0.732   2.266 -0.8998 -1.5859  0.2257
 1425SOL    HW3 5699   3.888   0.692   2.411  0.1744 -1.4888  0.1396
 1425SOL    MW4 5700   3.914   0.688   2.328  0.3061 -0.5579  0.1381
 1426SOL     OW 5701   3.825   2.110   2.350 -0.0324  0.2259 -0.2478
 1426SOL    HW2 5702   3.825   2.169   2.274  1.3383 -1.0797 -1.3010
 1426SOL    HW3 5703   3.784   2.029   2.318  1.2611 -0.6069  0.1677
 1426SOL    MW4 5704   3.820   2.107   2.336  0.3191 -0.0562 -0.3319
 1427SOL     OW 5705   4.450   1.817   2.264 -0.1057  0.2025  0.0745
 1427SOL    HW2 5706   4.396   1.738   2.267  0.1482  0.0764  1.3870
 1427SOL    HW3 5707   4.539   1.784   2.249 -0.0258  0.2553  0.4451
 1427SOL    MW4 5708   4.455   1.802   2.262 -0.0617  0.1929  0.2966
 1428SOL     OW 5709   2.137   4.152   1.408  0.2378  0.5346  0.4558
 1428SOL    HW2 5710   2.070   4.179   1.346 -0.3979  0.0349  0.9115
 1428SOL    HW3 5711   2.103   4.071   1.447  0.1972  1.3297  2.1131
 1428SOL    MW4 5712   2.124   4.145   1.405  0.1486  0.5736  0.7346
 1429SOL     OW 5713   1.390   1.866   0.890  0.3712 -0.2761  0.4232
 1429SOL    HW2 5714   1.302   1.883   0.925  0.0686 -0.0645 -0.4068
 1429SOL    HW3 5715   1.395   1.771   0.883  0.0197 -0.2687  0.0215
 1429SOL    MW4 5716   1.379   1.856   0.893  0.2849 -0.2472  0.2607
 1430SOL     OW 5717   4.066   1.973   2.346  0.0568  0.0716  0.0105
 1430SOL    HW2 5718   4.050   1.937   2.433 -2.8071 -0.0892 -0.5365
 1430SOL    HW3 5719   3.993   2.033   2.330  0.1019 -0.4811 -2.5933
 1430SOL    MW4 5720   4.055   1.976   2.355 -0.3151 -0.0225 -0.4052
 1431SOL     OW 5721   4.171   3.073   2.168  0.2201  0.1409  0.0808
 1431SOL    HW2 5722   4.264   3.095   2.167  0.0561  0.7681 -1.5933
 1431SOL    HW3 5723   4.133   3.121   2.094 -1.2220 -1.0240  0.0331
 1431SOL    MW4 5724   4.178   3.082   2.158  0.0082  0.0700 -0.1464
 1432SOL     OW 5725   4.032   2.674   2.368 -0.3883  0.4240  0.2321
 1432SOL    HW2 5726   4.126   2.670   2.354 -0.2148  1.0268  1.1829
 1432SOL    HW3 5727   4.021   2.727   2.448 -1.4443 -1.0810  1.1105
 1432SOL    MW4 5728   4.043   2.681   2.377 -0.5048  0.3049  0.4735
 1433SOL     OW 5729   1.052   3.084   1.961  0.2677 -0.1425 -0.0904
 1433SOL    HW2 5730   1.038   3.121   1.873 -0.6686  1.1117  0.5659
 1433SOL    HW3 5731   1.020   3.152   2.021 -0.9276 -1.7650  1.1747
 1433SOL    MW4 5732   1.046   3.098   1.957 -0.0136 -0.1911  0.1631
 1434SOL     OW 5733   2.948   2.158   1.705  0.1685 -0.7524  0.1582
 1434SOL    HW2 5734   2.915   2.169   1.794 -0.1889 -0.7552  0.0256
 1434SOL    HW3 5735   2.904   2.080   1.672  1.3977 -1.5950  0.4897
 1434SOL    MW4 5736   2.938   2.149   1.712  0.2835 -0.8640  0.1845
 1435SOL     OW 5737   4.012   4.003   2.168  0.4313  0.4561 -0.5979
 1435SOL    HW2 5738   4.083   3.970   2.222  0.5898 -0.6452 -1.4447
 1435SOL    HW3 5739   3.939   3.943   2.186  0.2423  0.5664 -0.9866
 1435SOL    MW4 5740   4.012   3.991   2.177  0.4273  0.3254 -0.7609
 1436SOL     OW 5741   4.156   2.081   1.063 -0.0637 -0.2747  0.7327
 1436SOL    HW2 5742   4.098   2.144   1.106 -1.4514 -0.6928 -0.4960
 1436SOL    HW3 5743   4.105   2.000   1.061 -0.0441 -0.2542 -1.7307
 1436SOL    MW4 5744   4.142   2.078   1.069 -0.2442 -0.3272  0.2456
 1437SOL     OW 5745   3.491   4.131   0.418  0.2114  0.6200 -0.0058
 1437SOL    HW2 5746   3.468   4.063   0.354 -2.1659  0.9335  0.4932
 1437SOL    HW3 5747   3.522   4.204   0.365 -0.1833  0.2872 -0.7080
 1437SOL    MW4 5748   3.492   4.131   0.403 -0.1543  0.6174 -0.0326
 1438SOL     OW 5749   3.109   2.605   1.777 -0.1494  0.4137 -0.3289
 1438SOL    HW2 5750   3.143   2.670   1.716 -2.2132  0.6708 -1.2683
 1438SOL    HW3 5751   3.018   2.593   1.750 -0.1464 -1.9577  0.6055
 1438SOL    MW4 5752   3.101   2.612   1.765 -0.4213  0.1347 -0.3295
 1439SOL     OW 5753   3.894   4.153   0.450 -0.0992  0.0205  0.1044
 1439SOL    HW2 5754   3.902   4.218   0.380 -0.0537 -0.0644  0.0301
 1439SOL    HW3 5755   3.963   4.176   0.512  0.6540 -0.6395 -0.4781
 1439SOL    MW4 5756   3.904   4.164   0.449  0.0062 -0.0778  0.0177
 1440SOL     OW 5757   2.403   2.226   1.149 -0.1734 -0.3238 -0.0100
 1440SOL    HW2 5758   2.453   2.148   1.122  0.4528 -0.3836  1.2890
 1440SOL    HW3 5759   2.415   2.230   1.244 -1.2412  0.6517  0.0874
 1440SOL    MW4 5760   2.412   2.216   1.158 -0.2317 -0.2030  0.1743
 1441SOL     OW 5761   3.280   0.423   1.088 -0.3421 -0.3328  0.1101
 1441SOL    HW2 5762   3.358   0.472   1.064  0.8900 -1.6089  1.3959
 1441SOL    HW3 5763   3.266   0.362   1.015 -0.5320  0.3515 -0.4270
 1441SOL    MW4 5764   3.288   0.421   1.075 -0.2046 -0.4109  0.2089
 1442SOL     OW 5765   0.028   0.073   2.650 -0.1409  0.1294 -0.4567
 1442SOL    HW2 5766   0.005   0.164   2.634  0.1809  0.2161 -0.4210
 1442SOL    HW3 5767   0.033   0.066   2.745 -0.2981  0.0426 -0.4547
 1442SOL    MW4 5768   0.025   0.084   2.661 -0.1192  0.1294 -0.4518
 1443SOL     OW 5769   0.047   0.070   2.920 -0.3479  0.2996  0.3931
 1443SOL    HW2 5770   0.054   0.151   2.971 -2.7622 -0.2533  1.6793
 1443SOL    HW3 5771  -0.043   0.040   2.935 -0.6938 -0.6357 -3.0976
 1443SOL    MW4 5772   0.036   0.076   2.928 -0.7120  0.1033  0.1022
 1444SOL     OW 5773   4.459   0.335   2.612 -0.2546  0.5499  0.2013
 1444SOL    HW2 5774   4.545   0.375   2.605 -1.1352  2.9560  2.2443
 1444SOL    HW3 5775   4.417   0.352   2.528  0.4738  1.3491 -0.0025
 1444SOL    MW4 5776   4.465   0.343   2.600 -0.2746  0.9728  0.4440
 1445SOL     OW 5777   0.215   0.462   2.569  0.0644  0.4575  0.5390
 1445SOL    HW2 5778   0.223   0.473   2.663  0.1448  2.6449  0.3063
 1445SOL    HW3 5779   0.293   0.413   2.543  0.1759  0.0928  1.5753
 1445SOL    MW4 5780   0.227   0.457   2.578  0.0897  0.6980  0.6450
 1446SOL     OW 5781   0.231   0.736   2.486 -0.6516  0.3885 -0.0058
 1446SOL    HW2 5782   0.304   0.765   2.540 -1.5403  1.3907  0.6677
 1446SOL    HW3 5783   0.226   0.642   2.502  0.9900  0.1661 -0.6810
 1446SOL    MW4 5784   0.240   0.727   2.495 -0.5522  0.4914 -0.0060
 1447SOL     OW 5785   0.002   0.811   2.681  0.0921 -0.3490  0.1796
 1447SOL    HW2 5786  -0.084   0.783   2.652 -0.4122  1.0126  0.2903
 1447SOL    HW3 5787   0.063   0.769   2.620 -0.4775 -3.0768  1.4238
 1447SOL    MW4 5788  -0.001   0.802   2.669 -0.0496 -0.5292  0.3584
 1448SOL     OW 5789   4.472   1.080   2.616 -0.2003  0.3196  0.2662
 1448SOL    HW2 5790   4.556   1.125   2.625 -0.8893  1.8287 -0.6736
 1448SOL    HW3 5791   4.491   0.989   2.640  1.4572  0.8633  1.1076
 1448SOL    MW4 5792   4.486   1.074   2.620 -0.0725  0.5904  0.2532
 1449SOL     OW 5793   0.217   1.223   2.629  0.2630  0.2669  0.5580
 1449SOL    HW2 5794   0.287   1.187   2.575  0.5366  0.8547  0.5205
 1449SOL    HW3 5795   0.219   1.317   2.612  0.0884  0.4053  1.2769
 1449SOL    MW4 5796   0.227   1.230   2.620  0.2761  0.3627  0.6479
 1450SOL     OW 5797   0.245   1.484   2.565 -0.0294 -0.0096 -0.0600
 1450SOL    HW2 5798   0.315   1.530   2.613  0.1927  1.2123 -1.5057
 1450SOL    HW3 5799   0.164   1.523   2.598  0.1446  1.1880 -1.0374
 1450SOL    MW4 5800   0.244   1.495   2.576  0.0228  0.3096 -0.3797
 1451SOL     OW 5801   0.019   1.651   2.613 -0.3180  0.3456  0.5601
 1451SOL    HW2 5802   0.008   1.663   2.707  0.6212  2.1904  0.4566
 1451SOL    HW3 5803   0.007   1.739   2.576 -0.8069 -0.3780 -1.0557
 1451SOL    MW4 5804   0.016   1.664   2.621 -0.2586  0.4936  0.3333
 1452SOL     OW 5805   4.440   1.914   2.551  0.0125  0.0803  0.1018
 1452SOL    HW2 5806   4.525   1.953   2.573 -0.3784 -0.2857  2.3331
 1452SOL    HW3 5807   4.446   1.897   2.457  1.6940  1.8057 -0.1537
 1452SOL    MW4 5808   4.452   1.917   2.541  0.1828  0.2596  0.3625
 1453SOL     OW 5809   0.196   2.018   2.636 -0.4546  0.2274 -0.5175
 1453SOL    HW2 5810   0.276   1.971   2.611  0.5816  1.5117  0.3092
 1453SOL    HW3 5811   0.209   2.107   2.603 -1.1330  0.6836  0.4077
 1453SOL    MW4 5812   0.208   2.024   2.629 -0.4074  0.4570 -0.2863
 1454SOL     OW 5813   0.421   2.407   2.627  0.2444  0.0119  0.1267
 1454SOL    HW2 5814   0.433   2.491   2.582 -1.8367 -0.4817 -1.4082
 1454SOL    HW3 5815   0.484   2.348   2.585  0.4193  0.3314 -0.0619
 1454SOL    MW4 5816   0.431   2.410   2.615 -0.0071 -0.0111 -0.1007
 1455SOL     OW 5817   4.452   2.395   2.539  0.3352 -0.3747 -0.1399
 1455SOL    HW2 5818   4.465   2.384   2.633  0.0794  1.0135  0.0585
 1455SOL    HW3 5819   4.366   2.356   2.522  1.0484 -2.0392 -0.0781
 1455SOL    MW4 5820   4.443   2.388   2.549  0.3955 -0.4111 -0.1056
 1456SOL     OW 5821   0.037   2.663   2.511  0.1781 -0.3231 -0.4058
 1456SOL    HW2 5822  -0.025   2.702   2.572  0.6293 -1.4358  0.7918
 1456SOL    HW3 5823   0.028   2.569   2.524 -1.1636 -0.6801 -3.5180
 1456SOL    MW4 5824   0.028   2.656   2.521  0.0606 -0.5170 -0.6584
 1457SOL     OW 5825   0.269   2.814   2.630 -0.0015  0.2081  0.1524
 1457SOL    HW2 5826   0.235   2.892   2.586 -0.0204 -1.1274 -2.2960
 1457SOL    HW3 5827   0.202   2.747   2.616  0.4255 -0.5129  1.4539
 1457SOL    MW4 5828   0.256   2.816   2.622  0.0524 -0.0632  0.0011
 1458SOL     OW 5829   0.187   3.059   2.522  0.9615 -0.3046 -0.1005
 1458SOL    HW2 5830   0.261   3.105   2.562  0.0174 -0.5384  1.9785
 1458SOL    HW3 5831   0.205   3.062   2.428  3.7507 -0.6012  0.3756
 1458SOL    MW4 5832   0.199   3.065   2.514  1.2049 -0.3746  0.2366
 1459SOL     OW 5833   4.463   3.491   2.539  0.5558  0.3421 -0.0282
 1459SOL    HW2 5834   4.464   3.401   2.573  2.6340  0.5202  0.5080
 1459SOL    HW3 5835   4.552   3.522   2.555  0.1794  2.1049 -1.2841
 1459SOL    MW4 5836   4.475   3.483   2.546  0.7803  0.5982 -0.1231
 1460SOL     OW 5837   0.230   3.593   2.604  0.0435 -0.3057 -0.5423
 1460SOL    HW2 5838   0.315   3.564   2.570  0.0447 -1.2103  0.1932
 1460SOL    HW3 5839   0.236   3.578   2.699 -0.5284  0.6799 -0.3452
 1460SOL    MW4 5840   0.242   3.587   2.612 -0.0318 -0.2950 -0.4193
 1461SOL     OW 5841   0.250   3.567   2.892 -1.0530 -0.2408  0.0259
 1461SOL    HW2 5842   0.171   3.537   2.937  0.2015 -0.6007  2.0311
 1461SOL    HW3 5843   0.259   3.659   2.916  0.0782 -0.6473  1.2339
 1461SOL    MW4 5844   0.241   3.575   2.901 -0.7382 -0.3419  0.4498
 1462SOL     OW 5845   0.469   3.450   2.545  0.4714 -0.5396 -0.3106
 1462SOL    HW2 5846   0.445   3.364   2.579  2.0498 -0.5004  0.9886
 1462SOL    HW3 5847   0.478   3.438   2.451  0.5782 -1.7650 -0.1477
 1462SOL    MW4 5848   0.467   3.437   2.537  0.6937 -0.6961 -0.1177
 1463SOL     OW 5849   0.232   3.871   2.533 -0.4787 -0.8075 -0.3305
 1463SOL    HW2 5850   0.227   3.775   2.539 -0.6667 -0.7935 -0.2784
 1463SOL    HW3 5851   0.260   3.888   2.443 -1.0551 -0.8872 -0.5216
 1463SOL    MW4 5852   0.235   3.860   2.522 -0.5796 -0.8162 -0.3488
 1464SOL     OW 5853   0.030   4.258   2.534  0.0263  0.0795 -0.4210
 1464SOL    HW2 5854   0.113   4.304   2.546  0.9369 -1.8336  0.7415
 1464SOL    HW3 5855  -0.030   4.300   2.596  0.7979 -0.1367  0.4840
 1464SOL    MW4 5856   0.033   4.270   2.544  0.2483 -0.2014 -0.1482
 1465SOL     OW 5857   0.271   4.412   2.571  0.0921  0.1789 -0.3868
 1465SOL    HW2 5858   0.291   4.437   2.662 -0.1402 -1.3450  0.0956
 1465SOL    HW3 5859   0.348   4.363   2.542 -0.3209 -0.3370 -0.6211
 1465SOL    MW4 5860   0.283   4.409   2.579  0.0070 -0.0903 -0.3541
 1466SOL     OW 5861   0.698   4.660   2.498  0.0506 -0.0227  0.1083
 1466SOL    HW2 5862   0.776   4.702   2.532 -0.2086  1.0528 -0.5864
 1466SOL    HW3 5863   0.625   4.704   2.542 -0.1653 -1.4643  1.2468
 1466SOL    MW4 5864   0.699   4.671   2.508 -0.0121 -0.0710  0.1668
 1467SOL     OW 5865   0.496   0.122   2.605 -0.4116 -0.1814  0.0045
 1467SOL    HW2 5866   0.474   0.117   2.698 -0.6795 -1.9128 -0.1348
 1467SOL    HW3 5867   0.420   0.085   2.560 -0.1893  0.4285 -0.8975
 1467SOL    MW4 5868   0.483   0.117   2.611 -0.4176 -0.3294 -0.1329
 1468SOL     OW 5869   0.471   0.372   2.479  0.0049 -0.4714  0.1776
 1468SOL    HW2 5870   0.478   0.286   2.522 -1.0876 -0.8435 -0.3545
 1468SOL    HW3 5871   0.551   0.417   2.502  0.2536 -1.3621  1.0963
 1468SOL    MW4 5872   0.482   0.366   2.488 -0.1064 -0.6380  0.2286
 1469SOL     OW 5873   0.725   0.486   2.552 -0.2326 -0.1433 -0.2053
 1469SOL    HW2 5874   0.742   0.473   2.645 -0.4998  0.8637 -0.0087
 1469SOL    HW3 5875   0.805   0.457   2.508  0.4167  0.6928  0.4282
 1469SOL    MW4 5876   0.738   0.480   2.558 -0.1822  0.0999 -0.0958
 1470SOL     OW 5877   0.672   0.747   2.504 -0.1919 -0.7893  0.1037
 1470SOL    HW2 5878   0.757   0.787   2.521 -0.6817  0.2809  0.0715
 1470SOL    HW3 5879   0.688   0.653   2.509  0.5831 -0.5796  2.1443
 1470SOL    MW4 5880   0.685   0.740   2.507 -0.1543 -0.6204  0.3687
 1471SOL     OW 5881   0.450   0.851   2.609  0.1009 -0.6146  0.1846
 1471SOL    HW2 5882   0.431   0.937   2.571 -1.0286 -0.5780  0.8055
 1471SOL    HW3 5883   0.536   0.828   2.574 -0.4474 -0.1206 -1.5572
 1471SOL    MW4 5884   0.458   0.860   2.599 -0.1205 -0.5446  0.0367
 1472SOL     OW 5885   0.429   1.097   2.510 -0.6301  0.5345 -0.1836
 1472SOL    HW2 5886   0.507   1.148   2.532 -0.3859  0.0115  0.1728
 1472SOL    HW3 5887   0.426   1.098   2.415 -0.2680  0.6767 -0.1935
 1472SOL    MW4 5888   0.439   1.104   2.501 -0.5501  0.4842 -0.1379
 1473SOL     OW 5889   0.640   1.252   2.634  0.1691  0.7331 -0.0194
 1473SOL    HW2 5890   0.642   1.235   2.728 -0.6507  1.4837  0.1343
 1473SOL    HW3 5891   0.723   1.215   2.601  0.7654  1.0754  1.0927
 1473SOL    MW4 5892   0.651   1.245   2.642  0.1396  0.8773  0.1476
 1474SOL     OW 5893   0.632   1.509   2.512 -1.0673 -0.2972 -0.3959
 1474SOL    HW2 5894   0.589   1.558   2.582 -0.4026 -0.0240 -0.1773
 1474SOL    HW3 5895   0.639   1.420   2.547  0.9889  0.2587  0.6669
 1474SOL    MW4 5896   0.627   1.503   2.526 -0.7083 -0.1878 -0.2268
 1475SOL     OW 5897   0.457   1.599   2.708  0.0335 -0.7232  0.3448
 1475SOL    HW2 5898   0.423   1.586   2.797  0.9272 -1.6802  0.5622
 1475SOL    HW3 5899   0.422   1.684   2.681 -0.4643 -0.5431  1.5124
 1475SOL    MW4 5900   0.448   1.608   2.716  0.0857 -0.8257  0.5276
 1476SOL     OW 5901   0.398   1.832   2.583  0.1825 -0.1928 -0.0227
 1476SOL    HW2 5902   0.475   1.880   2.612 -1.2029  2.0134  0.1717
 1476SOL    HW3 5903   0.392   1.851   2.489  0.1603 -0.7741 -0.1395
 1476SOL    MW4 5904   0.407   1.841   2.574 -0.0032  0.0216 -0.0124
 1477SOL     OW 5905   0.620   2.038   2.945  0.2280  0.0660 -0.1672
 1477SOL    HW2 5906   0.696   1.991   2.979 -0.2058  1.3016  2.6402
 1477SOL    HW3 5907   0.544   1.989   2.977 -0.2001  1.8311  1.6299
 1477SOL    MW4 5908   0.620   2.026   2.954  0.1143  0.4619  0.4403
 1478SOL     OW 5909   0.610   1.994   2.658  0.1225 -0.1056  0.1250
 1478SOL    HW2 5910   0.699   1.975   2.627 -0.0608 -0.4655 -0.1893
 1478SOL    HW3 5911   0.619   2.005   2.753  0.6014  0.4677  0.0204
 1478SOL    MW4 5912   0.623   1.993   2.666  0.1615 -0.0774  0.0698
 1479SOL     OW 5913   0.407   2.420   2.908 -0.0045 -0.1266 -0.3536
 1479SOL    HW2 5914   0.417   2.415   2.812 -1.2183 -2.3247 -0.3994
 1479SOL    HW3 5915   0.473   2.359   2.941  1.4423  1.7567  0.3103
 1479SOL    MW4 5916   0.417   2.411   2.900  0.0263 -0.1681 -0.2721
 1480SOL     OW 5917   0.471   2.919   1.676 -0.0248 -0.4056 -0.3841
 1480SOL    HW2 5918   0.417   2.888   1.748  1.8553 -0.8180  0.8896
 1480SOL    HW3 5919   0.417   2.906   1.598 -1.5242 -1.3321  0.7805
 1480SOL    MW4 5920   0.457   2.914   1.675  0.0255 -0.5822 -0.0624
 1481SOL     OW 5921   0.476   2.669   2.517 -0.0123 -0.0848  0.0309
 1481SOL    HW2 5922   0.563   2.701   2.540 -0.0369  1.5399 -1.9499
 1481SOL    HW3 5923   0.416   2.736   2.549 -0.4905 -0.7964  0.6501
 1481SOL    MW4 5924   0.479   2.682   2.524 -0.0787  0.0357 -0.1488
 1482SOL     OW 5925   0.683   2.808   2.641  0.5762  0.2030 -0.0029
 1482SOL    HW2 5926   0.680   2.809   2.737 -1.3515 -0.8239 -0.0184
 1482SOL    HW3 5927   0.655   2.895   2.615  1.9672  0.7716  0.3688
 1482SOL    MW4 5928   0.679   2.820   2.651  0.5054  0.1425  0.0441
 1483SOL     OW 5929   0.655   3.079   2.516 -0.0622  0.2848  0.0729
 1483SOL    HW2 5930   0.735   3.107   2.559 -0.1883 -0.3886  0.7702
 1483SOL    HW3 5931   0.674   3.083   2.423  0.3521  1.3693  0.2054
 1483SOL    MW4 5932   0.668   3.083   2.509 -0.0242  0.3390  0.1824
 1484SOL     OW 5933   0.413   3.183   2.627  0.1160  0.1275 -0.0758
 1484SOL    HW2 5934   0.437   3.200   2.718  1.7791  2.4331 -0.9124
 1484SOL    HW3 5935   0.488   3.135   2.591 -0.4865 -0.6743 -0.2762
 1484SOL    MW4 5936   0.426   3.179   2.634  0.2559  0.3259 -0.2126
 1485SOL     OW 5937   0.673   3.631   2.660  0.7713  0.0522 -0.0224
 1485SOL    HW2 5938   0.673   3.607   2.752  1.5834 -0.7385 -0.2211
 1485SOL    HW3 5939   0.601   3.582   2.622 -1.4595  2.6149  0.7338
 1485SOL    MW4 5940   0.664   3.621   2.667  0.5841  0.2860  0.0511
 1486SOL     OW 5941   0.661   3.891   2.554  0.1405  0.0074  0.0469
 1486SOL    HW2 5942   0.591   3.939   2.598 -0.9050 -1.4656 -0.0074
 1486SOL    HW3 5943   0.656   3.802   2.589  0.9784 -0.5084 -1.1077
 1486SOL    MW4 5944   0.651   3.886   2.564  0.1131 -0.2550 -0.1126
 1487SOL     OW 5945   0.449   4.030   2.663  0.3654  0.1394  0.1792
 1487SOL    HW2 5946   0.454   4.107   2.607  1.2857 -1.2298 -1.6423
 1487SOL    HW3 5947   0.385   3.973   2.620  1.0167 -0.8841  0.5458
 1487SOL    MW4 5948   0.441   4.032   2.650  0.5728 -0.1763 -0.0127
 1488SOL     OW 5949   0.504   4.245   2.503 -0.2372 -0.4407  0.2654
 1488SOL    HW2 5950   0.562   4.315   2.532 -0.1942 -0.3532 -0.0316
 1488SOL    HW3 5951   0.515   4.243   2.408 -0.6522 -0.4810  0.2184
 1488SOL    MW4 5952   0.513   4.254   2.495 -0.2862 -0.4345  0.2200
 1489SOL     OW 5953   0.697   4.398   2.638 -0.2365 -0.4640  0.2181
 1489SOL    HW2 5954   0.761   4.347   2.588  1.4507  0.3655  1.4772
 1489SOL    HW3 5955   0.708   4.488   2.605 -0.9156 -0.3609  0.2732
 1489SOL    MW4 5956   0.707   4.403   2.627 -0.1035 -0.3409  0.3915
 1490SOL     OW 5957   1.130   4.610   2.503 -0.3316  0.0996 -0.2041
 1490SOL    HW2 5958   1.210   4.647   2.540  1.4312 -1.2008 -2.5786
 1490SOL    HW3 5959   1.122   4.524   2.545 -0.0315 -0.1025 -0.5586
 1490SOL    MW4 5960   1.140   4.604   2.514 -0.0594 -0.0987 -0.5642
 1491SOL     OW 5961   0.928   0.099   2.574  0.1059 -0.1653 -0.2624
 1491SOL    HW2 5962   0.928   0.099   2.670 -0.8801 -0.9812 -0.2452
 1491SOL    HW3 5963   1.006   0.050   2.550  0.8124  0.7749  0.1174
 1491SOL    MW4 5964   0.938   0.092   2.584  0.0690 -0.1489 -0.2100
 1492SOL     OW 5965   0.947   0.351   2.442  0.0914  0.8849 -0.4977
 1492SOL    HW2 5966   0.933   0.264   2.480  1.0560  1.3315  0.9209
 1492SOL    HW3 5967   0.945   0.336   2.347 -1.8252 -0.3272 -0.2908
 1492SOL    MW4 5968   0.945   0.337   2.434 -0.0342  0.7839 -0.2833
 1493SOL     OW 5969   1.134   0.468   2.626  0.2733  0.2240 -0.0522
 1493SOL    HW2 5970   1.133   0.562   2.611 -1.9924  0.7580  3.0559
 1493SOL    HW3 5971   1.061   0.434   2.575  0.2023  0.3519 -0.0341
 1493SOL    MW4 5972   1.124   0.476   2.617 -0.0350  0.3114  0.3603
 1494SOL     OW 5973   1.152   0.728   2.538  0.0019 -0.2048 -0.3500
 1494SOL    HW2 5974   1.240   0.756   2.563 -0.2806 -0.0472  0.4911
 1494SOL    HW3 5975   1.155   0.720   2.443  0.8184  0.1666 -0.3566
 1494SOL    MW4 5976   1.164   0.731   2.529  0.0724 -0.1350 -0.2399
 1495SOL     OW 5977   0.894   0.832   2.610 -0.0231  0.2756  0.3590
 1495SOL    HW2 5978   0.894   0.827   2.706  0.4937 -0.3194  0.3308
 1495SOL    HW3 5979   0.986   0.823   2.585 -0.2594 -0.5238 -0.2380
 1495SOL    MW4 5980   0.906   0.830   2.620  0.0139  0.0916  0.2765
 1496SOL     OW 5981   0.885   1.106   2.530  0.0998 -0.1230  0.5068
 1496SOL    HW2 5982   0.871   1.013   2.551  0.7067 -0.5448 -0.8995
 1496SOL    HW3 5983   0.901   1.107   2.436  3.0861  1.0514  0.9677
 1496SOL    MW4 5984   0.885   1.093   2.521  0.5739 -0.0237  0.3821
 1497SOL     OW 5985   1.124   1.223   2.608  0.1649  0.1068  0.1120
 1497SOL    HW2 5986   1.088   1.308   2.581 -1.1832  0.2859  2.4047
 1497SOL    HW3 5987   1.051   1.162   2.599 -0.3182  0.1516  3.1248
 1497SOL    MW4 5988   1.110   1.226   2.603 -0.0767  0.1363  0.8120
 1498SOL     OW 5989   1.069   1.508   2.563  0.4374 -0.2300 -0.2937
 1498SOL    HW2 5990   0.992   1.563   2.580 -0.0539 -1.1692  0.5514
 1498SOL    HW3 5991   1.069   1.496   2.468 -0.9923 -0.9620 -0.2295
 1498SOL    MW4 5992   1.059   1.514   2.553  0.1840 -0.4505 -0.1737
 1499SOL     OW 5993   0.852   1.647   2.628 -0.0071  0.2352 -0.0153
 1499SOL    HW2 5994   0.843   1.634   2.722  3.4679  0.1275  0.3519
 1499SOL    HW3 5995   0.787   1.588   2.589 -0.3714 -0.9077  2.2591
 1499SOL    MW4 5996   0.842   1.638   2.635  0.4033  0.0702  0.3333
 1500SOL     OW 5997   0.769   2.122   2.080  0.3048  0.7722  0.0460
 1500SOL    HW2 5998   0.808   2.059   2.140 -1.8136  0.0617  0.7152
 1500SOL    HW3 5999   0.730   2.189   2.137  0.4306  1.4027 -0.5963
 1500SOL    MW4 6000   0.769   2.122   2.095  0.0419  0.7617  0.0495
 1501SOL     OW 6001   0.858   1.930   2.563  0.1638  0.3378  0.0752
 1501SOL    HW2 6002   0.856   1.838   2.589 -0.4503  0.6525  1.1572
 1501SOL    HW3 6003   0.948   1.958   2.583  1.0034 -0.5687 -2.2330
 1501SOL    MW4 6004   0.870   1.921   2.569  0.1936  0.2597 -0.0866
 1502SOL     OW 6005   1.117   2.015   2.642 -0.2543  0.3408 -0.8121
 1502SOL    HW2 6006   1.201   1.977   2.615 -0.1921 -0.3544  0.3157
 1502SOL    HW3 6007   1.129   2.109   2.633  1.3368  0.3579  1.2364
 1502SOL    MW4 6008   1.130   2.022   2.637 -0.0361  0.2514 -0.3931
 1503SOL     OW 6009   0.828   2.401   2.636 -0.1635  0.2056  0.2218
 1503SOL    HW2 6010   0.903   2.353   2.599 -1.6800 -1.3633 -0.8891
 1503SOL    HW3 6011   0.848   2.493   2.618  1.7584 -0.1383  0.4380
 1503SOL    MW4 6012   0.841   2.407   2.629 -0.1100 -0.0467  0.1038
 1504SOL     OW 6013   0.900   2.656   2.563  0.4372  0.2127 -0.1121
 1504SOL    HW2 6014   0.981   2.690   2.603 -0.1490  0.1545  1.1690
 1504SOL    HW3 6015   0.835   2.724   2.580 -0.0157 -0.1803 -0.2722
 1504SOL    MW4 6016   0.902   2.670   2.571  0.3001  0.1532  0.0358
 1505SOL     OW 6017   1.125   2.784   2.670  0.1211 -0.1915  0.3771
 1505SOL    HW2 6018   1.120   2.795   2.765 -0.2932 -0.1846  0.3539
 1505SOL    HW3 6019   1.213   2.750   2.654  0.0153 -0.6611  0.8056
 1505SOL    MW4 6020   1.136   2.781   2.680  0.0525 -0.2525  0.4306
 1506SOL     OW 6021   1.131   3.044   2.577 -0.5846  0.1991  0.0553
 1506SOL    HW2 6022   1.114   2.951   2.593  0.5650  0.0278  0.3157
 1506SOL    HW3 6023   1.167   3.048   2.489  0.3539  0.2676  0.4302
 1506SOL    MW4 6024   1.133   3.033   2.568 -0.3091  0.1855  0.1391
 1507SOL     OW 6025   0.899   3.171   2.650  0.1093 -0.1451 -0.4513
 1507SOL    HW2 6026   0.987   3.147   2.623  0.0997  0.5596 -1.1117
 1507SOL    HW3 6027   0.885   3.258   2.614 -0.1219  0.5711  1.3246
 1507SOL    MW4 6028   0.909   3.179   2.642  0.0775  0.0423 -0.3041
 1508SOL     OW 6029   0.887   3.462   2.581  0.0000  0.0000 -0.0102
 1508SOL    HW2 6030   0.961   3.508   2.621  0.0000  0.0000  0.0467
 1508SOL    HW3 6031   0.810   3.512   2.609  0.0000  0.0000 -0.0916
 1508SOL    MW4 6032   0.887   3.475   2.590  0.0000  0.0000 -0.0134
 1509SOL     OW 6033   1.102   3.599   2.647  0.0000  0.0000  0.2793
 1509SOL    HW2 6034   1.101   3.626   2.738  0.0000  0.0000  0.2789
 1509SOL    HW3 6035   1.100   3.681   2.597  0.0000  0.0000  0.2782
 1509SOL    MW4 6036   1.102   3.613   2.652  0.0000  0.0000  0.2791
 1510SOL     OW 6037   1.098   3.851   2.526  0.0000  0.0000  0.0490
 1510SOL    HW2 6038   1.178   3.889   2.564  0.0000  0.0000  0.0477
 1510SOL    HW3 6039   1.110   3.859   2.431  0.0000  0.0000  0.0486
 1510SOL    MW4 6040   1.110   3.857   2.518  0.0000  0.0000  0.0488
 1511SOL     OW 6041   0.893   4.008   2.608  0.0000  0.0000 -0.7326
 1511SOL    HW2 6042   0.957   3.963   2.553  0.0000  0.0000 -0.7215
 1511SOL    HW3 6043   0.809   3.969   2.582  0.0000  0.0000 -0.7321
 1511SOL    MW4 6044   0.890   3.997   2.598  0.0000  0.0000 -0.7311
 1512SOL     OW 6045   0.888   4.266   2.480  0.0000  0.0000 -0.0832
 1512SOL    HW2 6046   0.892   4.174   2.505  0.0000  0.0000 -0.0882
 1512SOL    HW3 6047   0.884   4.265   2.385  0.0000  0.0000 -0.0832
 1512SOL    MW4 6048   0.888   4.254   2.471  0.0000  0.0000 -0.0839
 1513SOL     OW 6049   1.144   4.351   2.628  0.0000  0.0000  0.2731
 1513SOL    HW2 6050   1.137   4.378   2.720  0.0000  0.0000  0.2737
 1513SOL    HW3 6051   1.055   4.327   2.603  0.0000  0.0000  0.2768
 1513SOL    MW4 6052   1.131   4.351   2.637  0.0000  0.0000  0.2737
 1514SOL     OW 6053   1.593   4.643   2.589  0.0000  0.0000 -0.3627
 1514SOL    HW2 6054   1.588   4.549   2.606  0.0000  0.0000 -0.3612
 1514SOL    HW3 6055   1.581   4.652   2.495  0.0000  0.0000 -0.3630
 1514SOL    MW4 6056   1.591   4.632   2.579  0.0000  0.0000 -0.3625
 1515SOL     OW 6057   1.351   0.086   2.652  0.0000  0.0000  0.0156
 1515SOL    HW2 6058   1.350   0.170   2.606  0.0000  0.0000  0.0648
 1515SOL    HW3 6059   1.437   0.049   2.631  0.0000  0.0000 -0.0344
 1515SOL    MW4 6060   1.362   0.092   2.643  0.0000  0.0000  0.0155
 1516SOL     OW 6061   1.360   0.344   2.527  0.0000  0.0000 -0.0580
 1516SOL    HW2 6062   1.437   0.387   2.567  0.0000  0.0000 -0.0360
 1516SOL    HW3 6063   1.286   0.396   2.560  0.0000  0.0000 -0.1113
 1516SOL    MW4 6064   1.360   0.356   2.537  0.0000  0.0000 -0.0621
 1517SOL     OW 6065   1.588   0.439   2.655  0.1463  0.8955 -0.2622
 1517SOL    HW2 6066   1.670   0.391   2.640  0.5932  0.7905  2.2964
 1517SOL    HW3 6067   1.598   0.520   2.606  0.2642 -0.6249 -2.9087
 1517SOL    MW4 6068   1.600   0.443   2.647  0.2208  0.6810 -0.2738
 1518SOL     OW 6069   1.592   0.712   2.524  0.2239  0.1544  0.6575
 1518SOL    HW2 6070   1.512   0.758   2.547  0.3789  0.6867  0.1634
 1518SOL    HW3 6071   1.591   0.709   2.428  2.2721  2.8443  0.5076
 1518SOL    MW4 6072   1.581   0.717   2.514  0.5146  0.5795  0.5725
 1519SOL     OW 6073   1.381   0.848   2.638  0.3117  0.7162 -0.2759
 1519SOL    HW2 6074   1.360   0.848   2.732 -2.5572  0.7086 -0.8657
 1519SOL    HW3 6075   1.359   0.937   2.609 -1.0354  0.0504 -1.3613
 1519SOL    MW4 6076   1.375   0.860   2.647 -0.2445  0.6273 -0.4969
 1520SOL     OW 6077   1.527   1.219   2.650  0.3068 -0.3865 -0.0204
 1520SOL    HW2 6078   1.598   1.162   2.620 -0.2132 -1.4777  0.7867
 1520SOL    HW3 6079   1.530   1.212   2.746 -0.0041  0.6442  0.0664
 1520SOL    MW4 6080   1.537   1.210   2.659  0.1972 -0.3945  0.0976
 1521SOL     OW 6081   1.342   1.089   2.499 -0.2210  0.2187 -0.6788
 1521SOL    HW2 6082   1.406   1.136   2.553  0.4764 -0.0649 -1.2523
 1521SOL    HW3 6083   1.258   1.133   2.518 -0.0131  0.0088  0.7471
 1521SOL    MW4 6084   1.339   1.101   2.508 -0.1015  0.1536 -0.5663
 1522SOL     OW 6085   1.552   1.483   2.552  0.0862  0.4733 -0.2855
 1522SOL    HW2 6086   1.557   1.394   2.585 -1.9659  0.1022 -0.9556
 1522SOL    HW3 6087   1.540   1.473   2.458 -1.1962  1.4453 -0.2296
 1522SOL    MW4 6088   1.551   1.470   2.544 -0.3537  0.5526 -0.3665
 1523SOL     OW 6089   1.324   1.583   2.670 -0.0505 -0.0855  0.3400
 1523SOL    HW2 6090   1.394   1.548   2.614 -0.6421 -0.6479 -0.0486
 1523SOL    HW3 6091   1.244   1.541   2.638 -0.6290  0.8691  0.5107
 1523SOL    MW4 6092   1.323   1.573   2.658 -0.2049 -0.0338  0.3112
 1524SOL     OW 6093   1.343   1.846   2.550 -0.3427  0.8420 -0.3002
 1524SOL    HW2 6094   1.344   1.756   2.583  0.6504  1.3628  1.1039
 1524SOL    HW3 6095   1.331   1.836   2.455  0.8551 -0.8167 -0.2936
 1524SOL    MW4 6096   1.341   1.833   2.542 -0.0536  0.6919 -0.1141
 1525SOL     OW 6097   1.523   2.013   2.661  0.1184  0.0921  0.1127
 1525SOL    HW2 6098   1.604   1.974   2.626 -0.0598  0.6659 -0.9765
 1525SOL    HW3 6099   1.453   1.957   2.627  0.0427 -0.2513  0.8393
 1525SOL    MW4 6100   1.525   2.000   2.652  0.0849  0.1225  0.0648
 1526SOL     OW 6101   1.502   2.276   2.607  0.4954 -0.4049 -0.0390
 1526SOL    HW2 6102   1.571   2.309   2.665  0.8841 -1.2100 -0.0291
 1526SOL    HW3 6103   1.500   2.182   2.624 -1.6720 -0.1794  1.0733
 1526SOL    MW4 6104   1.511   2.268   2.617  0.2607 -0.4813  0.1090
 1527SOL     OW 6105   1.353   2.686   2.577 -0.3946 -0.6285  0.1896
 1527SOL    HW2 6106   1.424   2.738   2.614 -0.1975 -0.3082 -0.6339
 1527SOL    HW3 6107   1.363   2.695   2.483 -2.4250  0.6232  0.0621
 1527SOL    MW4 6108   1.364   2.694   2.570 -0.6365 -0.4211  0.0641
 1528SOL     OW 6109   1.551   2.844   2.666  0.8546 -0.4445 -0.0717
 1528SOL    HW2 6110   1.558   2.828   2.760  1.0803 -1.3194 -0.2290
 1528SOL    HW3 6111   1.624   2.795   2.628  0.3805 -0.6291 -0.7560
 1528SOL    MW4 6112   1.561   2.835   2.673  0.8218 -0.5843 -0.1827
 1529SOL     OW 6113   1.536   2.811   2.943  0.3142  0.3763  0.3385
 1529SOL    HW2 6114   1.463   2.757   2.971  0.8805  0.2236  1.5432
 1529SOL    HW3 6115   1.613   2.773   2.986  1.1758  0.2856 -1.2211
 1529SOL    MW4 6116   1.537   2.799   2.952  0.5026  0.3442  0.2917
 1530SOL     OW 6117   1.552   3.073   2.511 -0.1534 -0.0406  0.0841
 1530SOL    HW2 6118   1.641   3.102   2.531  0.2957 -0.0542 -1.7677
 1530SOL    HW3 6119   1.546   2.985   2.550  0.6661 -0.0576  0.1709
 1530SOL    MW4 6120   1.563   3.065   2.519  0.0140 -0.0447 -0.1488
 1531SOL     OW 6121   1.344   3.167   2.701  0.0366  0.2470 -0.1083
 1531SOL    HW2 6122   1.424   3.146   2.653  0.0672  2.6128 -1.1840
 1531SOL    HW3 6123   1.277   3.113   2.660  0.7895 -0.5784 -0.2663
 1531SOL    MW4 6124   1.346   3.157   2.689  0.1400  0.4503 -0.2711
 1532SOL     OW 6125   1.349   3.426   2.608  0.3060  0.1782 -0.2754
 1532SOL    HW2 6126   1.337   3.340   2.649 -0.6719  0.3561 -0.1753
 1532SOL    HW3 6127   1.267   3.473   2.627  0.1890  0.5696 -1.6896
 1532SOL    MW4 6128   1.336   3.421   2.616  0.1616  0.2533 -0.4488
 1533SOL     OW 6129   1.557   3.580   2.719 -0.4880  0.2952 -0.0705
 1533SOL    HW2 6130   1.633   3.534   2.681 -0.3154  0.4501  0.0882
 1533SOL    HW3 6131   1.482   3.526   2.693 -0.1789 -0.7709  1.1706
 1533SOL    MW4 6132   1.557   3.567   2.710 -0.4244  0.1750  0.1142
 1534SOL     OW 6133   1.560   3.826   2.593  0.0225  0.2710 -0.0573
 1534SOL    HW2 6134   1.479   3.869   2.620  0.1002 -0.6828  1.7784
 1534SOL    HW3 6135   1.563   3.746   2.645  1.8786  0.0282 -0.5027
 1534SOL    MW4 6136   1.550   3.821   2.604  0.2776  0.1131  0.1261
 1535SOL     OW 6137   1.307   3.968   2.650  0.1507  0.1970 -0.3540
 1535SOL    HW2 6138   1.327   3.980   2.743 -1.2544 -0.1002 -0.0004
 1535SOL    HW3 6139   1.317   4.055   2.612  2.3492  0.0130 -0.2539
 1535SOL    MW4 6140   1.311   3.981   2.658  0.2554  0.1335 -0.2942
 1536SOL     OW 6141   1.367   4.221   2.559 -0.1960  0.6970  0.0145
 1536SOL    HW2 6142   1.294   4.265   2.604 -1.3375 -0.3404 -0.7797
 1536SOL    HW3 6143   1.353   4.241   2.466 -0.0141 -0.2965 -0.2321
 1536SOL    MW4 6144   1.355   4.230   2.553 -0.3226  0.4291 -0.1228
 1537SOL     OW 6145   1.585   4.372   2.652  0.0110 -0.4536 -0.0345
 1537SOL    HW2 6146   1.585   4.359   2.747 -1.0305 -1.3924 -0.1457
 1537SOL    HW3 6147   1.503   4.332   2.623  0.0004  0.4351 -1.2511
 1537SOL    MW4 6148   1.574   4.365   2.660 -0.1278 -0.4602 -0.2097
 1538SOL     OW 6149   2.068   4.594   2.524  0.0597 -0.5806  0.1369
 1538SOL    HW2 6150   2.136   4.658   2.542 -0.5621  0.5408 -1.3707
 1538SOL    HW3 6151   2.073   4.579   2.430 -0.2295 -2.2785  0.3729
 1538SOL    MW4 6152   2.077   4.600   2.514 -0.0605 -0.6567 -0.0308
 1539SOL     OW 6153   1.853   0.077   2.628 -0.7129  0.2766 -0.0010
 1539SOL    HW2 6154   1.928   0.019   2.616 -1.1956 -0.5362  0.8215
 1539SOL    HW3 6155   1.778   0.024   2.602 -1.2896  0.0729  1.9715
 1539SOL    MW4 6156   1.853   0.062   2.623 -0.8527  0.1425  0.3678
 1540SOL     OW 6157   1.834   0.343   2.583  0.3724 -0.2833  0.3966
 1540SOL    HW2 6158   1.817   0.349   2.489  0.0475 -0.3592  0.4471
 1540SOL    HW3 6159   1.831   0.249   2.601 -0.4053 -0.2207  0.6271
 1540SOL    MW4 6160   1.831   0.331   2.573  0.2269 -0.2851  0.4337
 1541SOL     OW 6161   2.055   0.492   2.606  0.3849 -0.2374 -0.0962
 1541SOL    HW2 6162   1.967   0.455   2.604  0.1254  0.4043 -0.7116
 1541SOL    HW3 6163   2.109   0.429   2.560  0.3579 -0.9153  0.7889
 1541SOL    MW4 6164   2.050   0.479   2.600  0.3471 -0.2422 -0.0606
 1542SOL     OW 6165   2.077   0.752   2.517  0.2572 -0.0987 -0.4790
 1542SOL    HW2 6166   1.989   0.786   2.536  0.3649  0.1862 -0.4838
 1542SOL    HW3 6167   2.076   0.662   2.550 -0.0505 -0.1096 -0.5181
 1542SOL    MW4 6168   2.065   0.745   2.524  0.2308 -0.0625 -0.4848
 1543SOL     OW 6169   1.847   0.850   2.608 -0.1706 -0.0811 -0.2177
 1543SOL    HW2 6170   1.826   0.943   2.597  0.1481  0.0808  0.4669
 1543SOL    HW3 6171   1.764   0.805   2.593  0.1650  0.1283 -2.8472
 1543SOL    MW4 6172   1.833   0.857   2.605 -0.0843 -0.0321 -0.4743
 1544SOL     OW 6173   1.759   1.103   2.569 -0.0231 -0.3332  0.5576
 1544SOL    HW2 6174   1.829   1.158   2.603 -0.8146  1.5895 -0.8709
 1544SOL    HW3 6175   1.760   1.118   2.475  0.5728 -3.7563 -0.0734
 1544SOL    MW4 6176   1.769   1.112   2.561 -0.0489 -0.5311  0.2858
 1545SOL     OW 6177   1.956   1.278   2.660 -0.2469 -0.1235  0.4081
 1545SOL    HW2 6178   1.968   1.267   2.754 -0.1566  1.7362  0.6362
 1545SOL    HW3 6179   2.031   1.233   2.621 -0.8985 -1.9008  1.1542
 1545SOL    MW4 6180   1.967   1.271   2.667 -0.3209 -0.1126  0.5367
 1546SOL     OW 6181   1.970   1.547   2.553 -0.5225  0.0409  0.3339
 1546SOL    HW2 6182   1.889   1.594   2.574 -2.0461 -1.4257 -1.9858
 1546SOL    HW3 6183   1.957   1.459   2.590 -0.8115 -0.7709 -1.6382
 1546SOL    MW4 6184   1.957   1.542   2.561 -0.7616 -0.2597 -0.2323
 1547SOL     OW 6185   1.739   1.642   2.702 -0.0849  0.2289  0.2114
 1547SOL    HW2 6186   1.732   1.621   2.795 -1.9992 -1.1010 -0.1691
 1547SOL    HW3 6187   1.676   1.582   2.661  0.8337  0.7158 -1.9365
 1547SOL    MW4 6188   1.730   1.631   2.709 -0.2163  0.1177 -0.1222
 1548SOL     OW 6189   1.780   1.899   2.606 -0.0799  0.2830  0.4162
 1548SOL    HW2 6190   1.866   1.920   2.643  0.1811 -0.0172 -0.0111
 1548SOL    HW3 6191   1.759   1.812   2.641 -0.8433  0.9446  1.6288
 1548SOL    MW4 6192   1.789   1.890   2.616 -0.1462  0.3307  0.5198
 1549SOL     OW 6193   2.034   1.988   2.709 -0.7062 -0.3250 -0.3696
 1549SOL    HW2 6194   2.019   1.984   2.804  1.8262  0.6915  0.1242
 1549SOL    HW3 6195   2.023   2.081   2.687  0.2620 -0.3013 -0.7754
 1549SOL    MW4 6196   2.031   2.000   2.719 -0.2444 -0.1878 -0.3580
 1550SOL     OW 6197   1.996   2.296   2.613 -0.1209 -0.8424 -0.5162
 1550SOL    HW2 6198   2.073   2.348   2.638  0.5197 -2.2563  0.5362
 1550SOL    HW3 6199   2.007   2.280   2.519 -0.1101  0.5628 -0.7524
 1550SOL    MW4 6200   2.008   2.300   2.604 -0.0350 -0.8435 -0.4085
 1551SOL     OW 6201   1.742   2.430   2.683  0.0066 -0.9875  0.4599
 1551SOL    HW2 6202   1.757   2.447   2.776  0.2782  0.4786  0.1522
 1551SOL    HW3 6203   1.796   2.353   2.664 -0.8526 -1.9338  1.7414
 1551SOL    MW4 6204   1.751   2.422   2.693 -0.0709 -0.9189  0.5884
 1552SOL     OW 6205   1.763   2.680   2.574 -0.0413 -0.1276 -0.9310
 1552SOL    HW2 6206   1.751   2.587   2.592  0.7023 -0.3852 -1.7415
 1552SOL    HW3 6207   1.743   2.689   2.481  2.0840  0.1052 -1.3986
 1552SOL    MW4 6208   1.759   2.669   2.564  0.3372 -0.1309 -1.0996
 1553SOL     OW 6209   1.968   2.811   2.700  0.3504  0.0893 -0.1154
 1553SOL    HW2 6210   1.891   2.765   2.666  0.5934 -0.3142 -0.1132
 1553SOL    HW3 6211   2.042   2.771   2.654  0.5794  0.3307  0.0443
 1553SOL    MW4 6212   1.968   2.800   2.689  0.4127  0.0679 -0.0940
 1554SOL     OW 6213   1.991   3.057   2.597 -0.3352  0.0086  0.1776
 1554SOL    HW2 6214   1.983   2.965   2.621 -1.8079 -0.1756 -0.8864
 1554SOL    HW3 6215   2.003   3.056   2.502 -0.2170  0.8966  0.1782
 1554SOL    MW4 6216   1.991   3.045   2.587 -0.5139  0.1014  0.0373
 1555SOL     OW 6217   1.754   3.212   2.670  0.3417  0.0594  0.0102
 1555SOL    HW2 6218   1.756   3.296   2.624  0.1692 -0.2972 -0.6573
 1555SOL    HW3 6219   1.841   3.175   2.657 -0.0270 -0.5007 -0.9007
 1555SOL    MW4 6220   1.766   3.218   2.663  0.2703 -0.0615 -0.1981
 1556SOL     OW 6221   1.807   3.476   2.562 -0.1633  0.2377  0.1632
 1556SOL    HW2 6222   1.880   3.532   2.587  0.3580 -0.0460 -0.7122
 1556SOL    HW3 6223   1.817   3.464   2.468 -1.3926  0.2790  0.0177
 1556SOL    MW4 6224   1.818   3.482   2.553 -0.2567  0.2057  0.0285
 1557SOL     OW 6225   1.989   3.657   2.653 -0.2424 -0.2830 -0.0500
 1557SOL    HW2 6226   1.991   3.667   2.748  1.5213 -0.1025 -0.0937
 1557SOL    HW3 6227   2.064   3.601   2.633 -0.3233  0.0729 -1.3831
 1557SOL    MW4 6228   1.999   3.651   2.663 -0.0204 -0.2122 -0.2317
 1558SOL     OW 6229   1.922   3.921   2.581  0.0156 -0.1884  0.0779
 1558SOL    HW2 6230   1.836   3.940   2.619 -0.0069 -0.9170  0.4008
 1558SOL    HW3 6231   1.937   3.829   2.603  1.5372  0.3365  1.2853
 1558SOL    MW4 6232   1.912   3.911   2.589  0.2134 -0.2153  0.2798
 1559SOL     OW 6233   1.690   4.010   2.752  0.6869  0.0603 -0.0501
 1559SOL    HW2 6234   1.729   4.073   2.691 -0.4997 -0.4468 -1.3669
 1559SOL    HW3 6235   1.640   3.951   2.696 -2.6668  1.1758  1.6369
 1559SOL    MW4 6236   1.689   4.011   2.737  0.0879  0.1406 -0.0012
 1560SOL     OW 6237   1.823   4.225   2.626  0.5845  0.3515  0.2183
 1560SOL    HW2 6238   1.744   4.278   2.629 -0.4785 -1.2496  2.3627
 1560SOL    HW3 6239   1.858   4.238   2.538 -2.7599  0.1295 -1.2322
 1560SOL    MW4 6240   1.817   4.233   2.615  0.0030  0.1110  0.3098
 1561SOL     OW 6241   2.089   4.347   2.684 -0.4095  0.5014  0.4078
 1561SOL    HW2 6242   1.995   4.332   2.680 -0.1758 -0.7435 -0.3615
 1561SOL    HW3 6243   2.101   4.434   2.644 -1.3244  1.1221  1.4390
 1561SOL    MW4 6244   2.078   4.357   2.678 -0.4994  0.4190  0.4424
 1562SOL     OW 6245   2.444   4.624   2.532  0.4249  0.5314 -0.8368
 1562SOL    HW2 6246   2.519   4.676   2.561 -0.7122  1.2467  0.9331
 1562SOL    HW3 6247   2.455   4.616   2.437  2.8886  0.3507 -0.5668
 1562SOL    MW4 6248   2.455   4.630   2.523  0.5999  0.6020 -0.5677
 1563SOL     OW 6249   2.261   0.102   2.657 -0.1153 -0.4558 -0.0221
 1563SOL    HW2 6250   2.238   0.055   2.737  0.6580 -2.5138 -0.9688
 1563SOL    HW3 6251   2.329   0.048   2.616  2.1500  2.4151 -0.2530
 1563SOL    MW4 6252   2.267   0.089   2.662  0.2856 -0.3486 -0.1774
 1564SOL     OW 6253   2.248   0.339   2.477  0.2782  0.0428 -0.0864
 1564SOL    HW2 6254   2.289   0.321   2.392 -0.2917 -1.1751 -0.1096
 1564SOL    HW3 6255   2.248   0.255   2.522  0.1359  0.5865  0.9352
 1564SOL    MW4 6256   2.254   0.326   2.472  0.1842 -0.0461  0.0454
 1565SOL     OW 6257   2.470   0.478   2.602 -0.2477  0.0676 -0.1635
 1565SOL    HW2 6258   2.477   0.567   2.566  0.0227  0.0164 -0.2375
 1565SOL    HW3 6259   2.386   0.446   2.568 -0.0128  0.0340 -0.7228
 1565SOL    MW4 6260   2.460   0.486   2.593 -0.1810  0.0564 -0.2471
 1566SOL     OW 6261   2.498   0.741   2.486  0.1965 -0.7020 -0.0764
 1566SOL    HW2 6262   2.426   0.788   2.528 -0.7415 -1.7001 -0.5571
 1566SOL    HW3 6263   2.488   0.759   2.393  0.1846 -1.3700 -0.2067
 1566SOL    MW4 6264   2.487   0.749   2.479  0.0712 -0.9218 -0.1570
 1567SOL     OW 6265   2.295   0.885   2.631 -0.1728 -0.2627 -0.0164
 1567SOL    HW2 6266   2.311   0.883   2.726 -0.1379 -1.3865 -0.0433
 1567SOL    HW3 6267   2.216   0.833   2.619 -1.2854  1.4844 -0.4053
 1567SOL    MW4 6268   2.287   0.878   2.642 -0.3150 -0.1805 -0.0712
 1568SOL     OW 6269   2.221   1.141   2.520  0.1461 -0.2692 -0.0861
 1568SOL    HW2 6270   2.245   1.058   2.562  0.9442 -0.1854 -0.3606
 1568SOL    HW3 6271   2.223   1.121   2.426  0.5492  0.1132 -0.1603
 1568SOL    MW4 6272   2.225   1.127   2.513  0.3045 -0.2077 -0.1321
 1569SOL     OW 6273   2.448   1.270   2.617  0.1154  0.2560 -0.7747
 1569SOL    HW2 6274   2.509   1.203   2.587 -1.1908 -0.7203 -1.2668
 1569SOL    HW3 6275   2.362   1.236   2.594 -0.6272  1.5479  0.0794
 1569SOL    MW4 6276   2.445   1.257   2.610 -0.1549  0.2977 -0.7269
 1570SOL     OW 6277   2.468   1.516   2.517 -0.1520 -0.1562  0.8725
 1570SOL    HW2 6278   2.388   1.556   2.553 -0.2698  1.5734 -1.2377
 1570SOL    HW3 6279   2.468   1.427   2.554 -2.3576  0.2348  1.9379
 1570SOL    MW4 6280   2.457   1.509   2.527 -0.4586  0.1236  0.7346
 1571SOL     OW 6281   2.245   1.617   2.639  0.1363  0.4874 -0.6517
 1571SOL    HW2 6282   2.254   1.712   2.643 -1.3327  0.6143 -0.1001
 1571SOL    HW3 6283   2.153   1.602   2.617  0.4728 -0.7978 -1.2557
 1571SOL    MW4 6284   2.234   1.627   2.637 -0.0131  0.3346 -0.6586
 1572SOL     OW 6285   2.276   1.891   2.612  0.7727  0.1992 -0.5195
 1572SOL    HW2 6286   2.202   1.930   2.659  0.8948 -0.3947  0.1886
 1572SOL    HW3 6287   2.244   1.878   2.523  0.6378  1.6131 -0.6739
 1572SOL    MW4 6288   2.262   1.894   2.606  0.7710  0.3074 -0.4464
 1573SOL     OW 6289   2.478   2.060   2.729 -0.3437 -0.0671 -0.2472
 1573SOL    HW2 6290   2.474   2.147   2.689 -0.0213 -0.2539 -0.6909
 1573SOL    HW3 6291   2.409   2.011   2.684 -1.1363  0.2202  0.6429
 1573SOL    MW4 6292   2.469   2.065   2.718 -0.4057 -0.0538 -0.1883
 1574SOL     OW 6293   2.482   2.321   2.632  0.4648 -0.1897 -0.2008
 1574SOL    HW2 6294   2.560   2.366   2.664  0.1181 -0.9572  1.8536
 1574SOL    HW3 6295   2.486   2.329   2.537  2.5368  0.6123 -0.0704
 1574SOL    MW4 6296   2.493   2.328   2.624  0.6924 -0.1852  0.0875
 1575SOL     OW 6297   2.235   2.426   2.694  0.1458  0.3475  0.1556
 1575SOL    HW2 6298   2.222   2.414   2.789 -0.7541 -0.8749 -0.1137
 1575SOL    HW3 6299   2.322   2.389   2.677  0.7105  1.4121  0.6460
 1575SOL    MW4 6300   2.245   2.420   2.705  0.1015  0.3267  0.1848
 1576SOL     OW 6301   2.184   2.693   2.591 -0.4945 -0.1593  0.9263
 1576SOL    HW2 6302   2.259   2.748   2.613 -0.6764  0.5021 -0.0667
 1576SOL    HW3 6303   2.205   2.607   2.628  1.0278 -0.1380  0.1427
 1576SOL    MW4 6304   2.196   2.689   2.599 -0.3177 -0.0692  0.6919
 1577SOL     OW 6305   2.435   2.817   2.652 -0.1241 -0.3166  0.1838
 1577SOL    HW2 6306   2.517   2.776   2.624  0.1952 -0.8619  1.8231
 1577SOL    HW3 6307   2.437   2.904   2.612 -0.4741 -1.5885 -2.7480
 1577SOL    MW4 6308   2.446   2.823   2.643 -0.1281 -0.5564  0.0133
 1578SOL     OW 6309   2.412   3.078   2.557  0.3368  0.0810 -0.0996
 1578SOL    HW2 6310   2.337   3.133   2.580  0.5300  0.3610 -0.1313
 1578SOL    HW3 6311   2.410   3.074   2.461 -1.3668 -2.3493 -0.0008
 1578SOL    MW4 6312   2.402   3.085   2.547  0.1375 -0.2027 -0.0908
 1579SOL     OW 6313   2.204   3.236   2.641  0.4035 -0.4367 -0.0639
 1579SOL    HW2 6314   2.228   3.232   2.733  0.2749 -2.1827 -0.0904
 1579SOL    HW3 6315   2.126   3.181   2.634 -0.0052  0.2634 -1.0835
 1579SOL    MW4 6316   2.197   3.228   2.652  0.3326 -0.5747 -0.2019
 1580SOL     OW 6317   2.184   3.486   2.544  0.1906 -0.0320 -0.0880
 1580SOL    HW2 6318   2.270   3.525   2.562 -0.0003  0.4072 -0.1384
 1580SOL    HW3 6319   2.188   3.400   2.587  0.3694  0.3034  0.5693
 1580SOL    MW4 6320   2.196   3.480   2.552  0.1890  0.0702 -0.0079
 1581SOL     OW 6321   2.422   3.580   2.606 -0.0018 -0.0579 -0.0129
 1581SOL    HW2 6322   2.414   3.582   2.702  1.9575  0.6138  0.1628
 1581SOL    HW3 6323   2.410   3.671   2.579 -1.9969 -0.4602 -0.5678
 1581SOL    MW4 6324   2.419   3.592   2.615 -0.0065 -0.0223 -0.0629
 1582SOL     OW 6325   2.509   3.832   2.254  0.3021  0.0463  0.1999
 1582SOL    HW2 6326   2.489   3.838   2.347 -0.4394  0.2017  0.0294
 1582SOL    HW3 6327   2.442   3.885   2.211 -1.3888 -2.7533 -0.6834
 1582SOL    MW4 6328   2.498   3.840   2.260 -0.0188 -0.3025  0.0609
 1583SOL     OW 6329   2.183   3.967   2.654  0.3494  0.4814 -0.0767
 1583SOL    HW2 6330   2.165   3.959   2.747  0.1901 -0.8275 -0.2042
 1583SOL    HW3 6331   2.098   3.955   2.612  0.8210 -1.5969 -0.4943
 1583SOL    MW4 6332   2.169   3.964   2.661  0.3906  0.0345 -0.1486
 1584SOL     OW 6333   2.276   4.201   2.504 -0.0297 -0.1315 -0.2884
 1584SOL    HW2 6334   2.255   4.111   2.528  0.0627  0.1212  0.7638
 1584SOL    HW3 6335   2.212   4.254   2.552 -0.3965  0.3441 -1.2783
 1584SOL    MW4 6336   2.265   4.196   2.514 -0.0659 -0.0354 -0.2802
 1585SOL     OW 6337   2.511   4.353   2.585 -0.3095 -0.2514 -0.1782
 1585SOL    HW2 6338   2.441   4.309   2.538  0.6727 -0.3399 -1.5779
 1585SOL    HW3 6339   2.502   4.446   2.562  2.0112 -0.6604 -3.0466
 1585SOL    MW4 6340   2.501   4.360   2.576  0.1263 -0.3170 -0.7413
 1586SOL     OW 6341   2.945   4.585   2.525  0.3068  0.0625 -0.0487
 1586SOL    HW2 6342   3.027   4.626   2.549  1.3648 -1.2586 -1.2912
 1586SOL    HW3 6343   2.940   4.595   2.430 -0.9411  0.0942  0.0096
 1586SOL    MW4 6344   2.955   4.592   2.515  0.2818 -0.1076 -0.2050
 1587SOL     OW 6345   2.699   0.077   2.565 -0.0809 -0.2514  0.1419
 1587SOL    HW2 6346   2.704   0.092   2.659  0.3349  1.7506 -0.1563
 1587SOL    HW3 6347   2.751  -0.002   2.549  0.2696 -0.3019  1.5229
 1587SOL    MW4 6348   2.706   0.069   2.575  0.0202  0.0061  0.2848
 1588SOL     OW 6349   2.906   0.535   2.573  0.1990 -0.3381 -0.0465
 1588SOL    HW2 6350   2.863   0.465   2.524 -0.9123 -0.2228  0.7593
 1588SOL    HW3 6351   2.929   0.600   2.506 -1.8580  0.1024 -0.3687
 1588SOL    MW4 6352   2.904   0.534   2.558 -0.2190 -0.2648  0.0173
 1589SOL     OW 6353   2.977   0.775   2.435  0.6056  0.3900 -0.0048
 1589SOL    HW2 6354   2.895   0.792   2.482  0.9164 -2.7993  1.8282
 1589SOL    HW3 6355   3.045   0.786   2.501  1.3106 -0.9068 -0.5007
 1589SOL    MW4 6356   2.975   0.778   2.450  0.7397 -0.2019  0.1716
 1590SOL     OW 6357   2.939   0.763   2.162  0.1724 -0.1684  0.7329
 1590SOL    HW2 6358   2.949   0.765   2.257  1.1354  2.1496  0.6048
 1590SOL    HW3 6359   2.863   0.819   2.145  1.3644  1.2575 -0.0014
 1590SOL    MW4 6360   2.930   0.771   2.172  0.4567  0.3255  0.6191
 1591SOL     OW 6361   2.749   0.836   2.574 -0.0183  0.3793  0.0134
 1591SOL    HW2 6362   2.737   0.841   2.669  0.9119 -1.0074  0.2175
 1591SOL    HW3 6363   2.662   0.813   2.540 -0.6106  1.9660  0.4165
 1591SOL    MW4 6364   2.736   0.833   2.582  0.0263  0.4057  0.0935
 1592SOL     OW 6365   2.651   1.095   2.584  0.0293  0.1490  0.5855
 1592SOL    HW2 6366   2.731   1.135   2.618 -0.6980  2.3812 -0.2355
 1592SOL    HW3 6367   2.671   1.001   2.579  2.4824  0.6337  0.6288
 1592SOL    MW4 6368   2.664   1.088   2.588  0.2570  0.5075  0.4829
 1593SOL     OW 6369   2.901   1.202   2.654  0.1345 -0.4104  0.5740
 1593SOL    HW2 6370   2.914   1.221   2.746  0.5293  0.5707  0.3152
 1593SOL    HW3 6371   2.987   1.171   2.624  0.5469  1.1712  0.0764
 1593SOL    MW4 6372   2.914   1.200   2.662  0.2410 -0.0722  0.4742
 1594SOL     OW 6373   2.937   1.486   2.619  0.5370  0.6425  0.2141
 1594SOL    HW2 6374   2.849   1.523   2.632  0.1111  0.4252 -1.8387
 1594SOL    HW3 6375   2.927   1.393   2.639  0.7737  0.9614  1.8889
 1594SOL    MW4 6376   2.924   1.479   2.623  0.5120  0.6559  0.1642
 1595SOL     OW 6377   2.697   1.628   2.663 -0.5040 -0.4625  0.3561
 1595SOL    HW2 6378   2.672   1.615   2.754 -0.9009  1.6512  0.5568
 1595SOL    HW3 6379   2.624   1.590   2.613 -0.5214 -1.1581  0.8948
 1595SOL    MW4 6380   2.684   1.621   2.668 -0.5587 -0.2754  0.4536
 1596SOL     OW 6381   2.674   1.911   2.604 -0.1364  0.3026  0.4552
 1596SOL    HW2 6382   2.654   1.820   2.626 -0.5727  0.9758  3.0162
 1596SOL    HW3 6383   2.602   1.961   2.641  0.4867  1.7733 -0.2761
 1596SOL    MW4 6384   2.662   1.905   2.611 -0.1118  0.5855  0.6966
 1597SOL     OW 6385   2.922   2.001   2.696 -0.7497  0.1467  0.1533
 1597SOL    HW2 6386   2.909   2.084   2.651 -0.0129  0.0632 -0.2230
 1597SOL    HW3 6387   2.841   1.952   2.682  0.0509 -0.4949 -2.4006
 1597SOL    MW4 6388   2.910   2.005   2.689 -0.5469  0.0510 -0.2333
 1598SOL     OW 6389   2.889   2.285   2.620  0.0588  0.1000  0.4761
 1598SOL    HW2 6390   2.973   2.324   2.646  0.2210  0.8558 -1.1187
 1598SOL    HW3 6391   2.823   2.346   2.651  0.2334  0.8466 -0.6162
 1598SOL    MW4 6392   2.892   2.298   2.628  0.1032  0.2982  0.1215
 1599SOL     OW 6393   2.697   2.461   2.697 -0.4878 -0.1512  0.2241
 1599SOL    HW2 6394   2.722   2.470   2.789 -0.1358  0.7543  0.0453
 1599SOL    HW3 6395   2.695   2.551   2.664  0.6291 -0.5643 -0.9904
 1599SOL    MW4 6396   2.700   2.474   2.705 -0.2940 -0.0862  0.0403
 1600SOL     OW 6397   2.699   2.718   2.586 -0.2716 -0.0847  0.0419
 1600SOL    HW2 6398   2.781   2.756   2.618 -1.6817  3.1458  0.0701
 1600SOL    HW3 6399   2.704   2.729   2.491 -0.9425  0.7667  0.0979
 1600SOL    MW4 6400   2.710   2.725   2.578 -0.5462  0.4539  0.0530
 1601SOL     OW 6401   2.945   2.799   2.688 -0.3276 -0.6253 -0.1455
 1601SOL    HW2 6402   2.929   2.813   2.782  1.8985 -1.1452  0.3470
 1601SOL    HW3 6403   2.931   2.885   2.649  1.0193  0.1576  1.0314
 1601SOL    MW4 6404   2.941   2.813   2.696  0.1439 -0.5906  0.0748
 1602SOL     OW 6405   2.882   3.042   2.557  0.2502  0.4822 -0.0176
 1602SOL    HW2 6406   2.796   3.074   2.586 -1.1218 -1.7310 -1.4812
 1602SOL    HW3 6407   2.879   3.047   2.462  1.4337 -0.3771 -0.1177
 1602SOL    MW4 6408   2.870   3.047   2.548  0.2253  0.0768 -0.2239
 1603SOL     OW 6409   2.656   3.190   2.612 -0.0078 -0.0490 -0.2844
 1603SOL    HW2 6410   2.668   3.269   2.559 -2.4475  1.5162  1.3876
 1603SOL    HW3 6411   2.568   3.159   2.589 -0.1019 -0.7906  1.0082
 1603SOL    MW4 6412   2.646   3.196   2.602 -0.3421  0.0596  0.1067
 1604SOL     OW 6413   2.714   3.472   2.533  0.0098 -0.4422 -0.3496
 1604SOL    HW2 6414   2.631   3.505   2.567 -0.0838 -0.7978 -0.2283
 1604SOL    HW3 6415   2.712   3.491   2.440  0.6135  1.2801 -0.0227
 1604SOL    MW4 6416   2.703   3.479   2.525  0.0771 -0.2619 -0.2904
 1605SOL     OW 6417   2.929   3.578   2.667 -0.0800  0.5036  0.0219
 1605SOL    HW2 6418   2.908   3.594   2.759 -1.0221  0.8621 -0.2494
 1605SOL    HW3 6419   2.860   3.519   2.637  0.0744  0.5974 -0.5249
 1605SOL    MW4 6420   2.917   3.572   2.675 -0.1839  0.5633 -0.0860
 1606SOL     OW 6421   2.938   3.829   2.548  0.1931 -0.0014  0.2333
 1606SOL    HW2 6422   3.009   3.875   2.592 -1.4838  0.5133  2.4999
 1606SOL    HW3 6423   2.944   3.739   2.578 -0.0272  0.0052  0.2988
 1606SOL    MW4 6424   2.948   3.824   2.557 -0.0572  0.0674  0.5410
 1607SOL     OW 6425   2.694   3.945   2.624  0.0080 -0.1643 -0.2549
 1607SOL    HW2 6426   2.701   4.029   2.579  0.7045  0.3141  0.7185
 1607SOL    HW3 6427   2.777   3.901   2.605 -0.8343 -1.1421 -1.7479
 1607SOL    MW4 6428   2.706   3.950   2.616 -0.0112 -0.2302 -0.3235
 1608SOL     OW 6429   2.723   4.195   2.498 -0.0765 -0.4994 -0.0303
 1608SOL    HW2 6430   2.647   4.248   2.523 -0.9933 -1.2058 -1.2549
 1608SOL    HW3 6431   2.798   4.242   2.535 -0.9151  1.3049 -0.5542
 1608SOL    MW4 6432   2.723   4.208   2.506 -0.3081 -0.3546 -0.2610
 1609SOL     OW 6433   2.926   4.330   2.635  0.0361  0.1328  0.5379
 1609SOL    HW2 6434   2.908   4.337   2.729  0.6279 -0.5545  0.7071
 1609SOL    HW3 6435   2.935   4.420   2.605 -1.2954  0.4098  0.9141
 1609SOL    MW4 6436   2.925   4.343   2.643 -0.0615  0.0786  0.6099
 1610SOL     OW 6437   3.411   4.600   2.543  0.5614  0.6898 -0.1979
 1610SOL    HW2 6438   3.333   4.644   2.577 -0.1457  0.4549 -1.4870
 1610SOL    HW3 6439   3.408   4.513   2.583  0.0240  0.5966 -0.4306
 1610SOL    MW4 6440   3.400   4.594   2.553  0.3972  0.6465 -0.3987
 1611SOL     OW 6441   3.170   0.072   2.615  0.1959  0.2844  0.1345
 1611SOL    HW2 6442   3.146   0.086   2.706 -1.9396 -1.8352 -0.0510
 1611SOL    HW3 6443   3.153   0.156   2.572  0.7905  1.1560  1.5809
 1611SOL    MW4 6444   3.165   0.085   2.621 -0.0074  0.1198  0.3008
 1612SOL     OW 6445   3.375   0.411   2.638 -0.3040  0.0427 -0.2123
 1612SOL    HW2 6446   3.288   0.378   2.615 -0.5159  0.8524 -0.5598
 1612SOL    HW3 6447   3.385   0.492   2.588 -0.1350  1.0082  1.3485
 1612SOL    MW4 6448   3.365   0.417   2.628 -0.3097  0.2769 -0.0522
 1613SOL     OW 6449   3.645   0.313   2.556  0.1366  0.2420  0.2587
 1613SOL    HW2 6450   3.705   0.377   2.593 -1.1415  1.4835  0.2547
 1613SOL    HW3 6451   3.558   0.342   2.584 -0.8635  0.9948 -3.2985
 1613SOL    MW4 6452   3.641   0.325   2.564 -0.1640  0.5051 -0.2112
 1614SOL     OW 6453   3.357   0.701   2.586 -0.4226  0.1395  0.1540
 1614SOL    HW2 6454   3.443   0.743   2.597 -0.3001  0.0402 -0.4187
 1614SOL    HW3 6455   3.348   0.690   2.491 -0.6884 -0.6432  0.2702
 1614SOL    MW4 6456   3.367   0.705   2.575 -0.4415  0.0231  0.0938
 1615SOL     OW 6457   3.154   0.874   2.649  0.3818 -0.2634  0.2018
 1615SOL    HW2 6458   3.154   0.886   2.744  1.6260  1.0894  0.0554
 1615SOL    HW3 6459   3.227   0.814   2.633  0.3286 -0.2961  0.0830
 1615SOL    MW4 6460   3.164   0.867   2.659  0.5389 -0.0893  0.1668
 1616SOL     OW 6461   3.178   1.136   2.582  0.0552  0.2000 -0.3655
 1616SOL    HW2 6462   3.178   1.044   2.607 -1.2405  0.0649 -0.8394
 1616SOL    HW3 6463   3.176   1.135   2.487  1.9671  0.7280 -0.4396
 1616SOL    MW4 6464   3.178   1.124   2.573  0.1365  0.2518 -0.4378
 1617SOL     OW 6465   3.401   1.294   2.675 -0.2995 -0.2480  0.0233
 1617SOL    HW2 6466   3.394   1.274   2.768 -3.2576  0.5238  0.0152
 1617SOL    HW3 6467   3.321   1.260   2.636  0.0013  1.1418 -1.9154
 1617SOL    MW4 6468   3.390   1.287   2.682 -0.6501  0.0372 -0.2336
 1618SOL     OW 6469   3.395   1.503   2.508  0.2094 -0.2560 -0.2909
 1618SOL    HW2 6470   3.326   1.557   2.546 -0.3278 -0.6164 -0.7476
 1618SOL    HW3 6471   3.403   1.429   2.568 -0.2440 -0.5340 -0.5660
 1618SOL    MW4 6472   3.387   1.500   2.521  0.0787 -0.3402 -0.3874
 1619SOL     OW 6473   3.194   1.603   2.665 -0.6525  0.0030  0.0121
 1619SOL    HW2 6474   3.181   1.697   2.651  2.2286  0.5984  1.1403
 1619SOL    HW3 6475   3.106   1.565   2.654 -1.8994  2.8359 -0.1719
 1619SOL    MW4 6476   3.180   1.610   2.661 -0.4369  0.4553  0.1367
 1620SOL     OW 6477   3.126   1.868   2.588  0.0440 -0.5400 -0.8607
 1620SOL    HW2 6478   3.206   1.918   2.601 -0.1284 -0.6383  0.6633
 1620SOL    HW3 6479   3.061   1.911   2.644 -0.8182 -0.8012 -1.6513
 1620SOL    MW4 6480   3.128   1.880   2.597 -0.0925 -0.5874 -0.7639
 1621SOL     OW 6481   3.327   2.044   2.628 -0.1712 -0.4312  0.3111
 1621SOL    HW2 6482   3.359   2.044   2.718 -0.6188 -0.5217  0.4717
 1621SOL    HW3 6483   3.332   2.136   2.601  2.6217 -0.7693 -0.5362
 1621SOL    MW4 6484   3.332   2.056   2.637  0.1382 -0.4878  0.2205
 1622SOL     OW 6485   3.331   2.303   2.573 -0.3694  0.3587 -0.3750
 1622SOL    HW2 6486   3.405   2.353   2.606  0.3879 -1.4252  0.6820
 1622SOL    HW3 6487   3.342   2.303   2.478  0.4945  0.8333 -0.2750
 1622SOL    MW4 6488   3.342   2.310   2.565 -0.1555  0.1859 -0.2223
 1623SOL     OW 6489   3.137   2.381   2.758  0.4069 -0.0050 -0.3274
 1623SOL    HW2 6490   3.163   2.467   2.723  0.7922 -0.0539 -0.1597
 1623SOL    HW3 6491   3.206   2.322   2.729 -0.3455 -0.4396 -1.2519
 1623SOL    MW4 6492   3.149   2.385   2.749  0.3585 -0.0688 -0.4272
 1624SOL     OW 6493   3.170   2.650   2.681  0.2052 -0.2630  0.0646
 1624SOL    HW2 6494   3.230   2.707   2.728  0.3363  1.2331 -1.8225
 1624SOL    HW3 6495   3.085   2.695   2.685  0.0416 -0.5159 -0.3975
 1624SOL    MW4 6496   3.167   2.663   2.687  0.2009 -0.0990 -0.2453
 1625SOL     OW 6497   3.593   2.700   2.665 -0.1255 -0.7961  0.0136
 1625SOL    HW2 6498   3.648   2.712   2.588  0.4209 -0.1494  0.5034
 1625SOL    HW3 6499   3.581   2.605   2.671  0.6273 -0.9157 -0.3076
 1625SOL    MW4 6500   3.599   2.689   2.655  0.0459 -0.7266  0.0358
 1626SOL     OW 6501   3.377   2.811   2.782 -0.1967  0.0644  0.2880
 1626SOL    HW2 6502   3.398   2.816   2.875  0.0232 -0.5423  0.2772
 1626SOL    HW3 6503   3.457   2.777   2.741 -0.5064 -0.2901 -0.0313
 1626SOL    MW4 6504   3.390   2.807   2.789 -0.2086 -0.0624  0.2444
 1627SOL     OW 6505   3.113   3.204   2.702 -0.3518  0.1417 -0.5460
 1627SOL    HW2 6506   3.188   3.145   2.709  0.0070  0.6262 -0.2426
 1627SOL    HW3 6507   3.056   3.163   2.638 -0.1797 -0.6129 -0.2239
 1627SOL    MW4 6508   3.115   3.191   2.695 -0.2818  0.1061 -0.4635
 1628SOL     OW 6509   3.141   3.431   2.561 -0.1555  0.0482 -0.6943
 1628SOL    HW2 6510   3.135   3.350   2.611  1.1199  0.8348  0.8020
 1628SOL    HW3 6511   3.068   3.484   2.593 -0.6987 -0.3096 -1.3232
 1628SOL    MW4 6512   3.131   3.428   2.572 -0.0589  0.1048 -0.5799
 1629SOL     OW 6513   3.330   3.607   2.655  0.2252 -0.0135 -0.5829
 1629SOL    HW2 6514   3.342   3.578   2.745 -1.6663  1.4442  0.1714
 1629SOL    HW3 6515   3.258   3.554   2.622 -1.1426  1.5671 -0.2115
 1629SOL    MW4 6516   3.322   3.597   2.662 -0.2048  0.3874 -0.4344
 1630SOL     OW 6517   3.373   3.869   2.561  0.3568  0.2990  0.4079
 1630SOL    HW2 6518   3.366   3.783   2.603  0.7673  0.7158  1.3490
 1630SOL    HW3 6519   3.379   3.849   2.467  1.8725 -0.7814  0.7048
 1630SOL    MW4 6520   3.373   3.855   2.554  0.6109  0.2114  0.5712
 1631SOL     OW 6521   3.139   3.963   2.660 -0.2186  0.3736  0.1314
 1631SOL    HW2 6522   3.124   4.054   2.634  0.4320  0.9180  1.5536
 1631SOL    HW3 6523   3.222   3.940   2.617 -0.8100  0.1746 -0.9042
 1631SOL    MW4 6524   3.148   3.972   2.651 -0.2108  0.4192  0.1824
 1632SOL     OW 6525   3.157   4.227   2.560  0.2170  0.1046  0.0730
 1632SOL    HW2 6526   3.082   4.279   2.590 -0.6908 -0.6396 -0.9155
 1632SOL    HW3 6527   3.162   4.242   2.466  1.3934  0.2447  0.1410
 1632SOL    MW4 6528   3.148   4.236   2.552  0.2524  0.0249 -0.0484
 1633SOL     OW 6529   3.382   4.350   2.662 -0.3470 -0.3183  0.1043
 1633SOL    HW2 6530   3.303   4.304   2.632  0.1772 -1.3530  0.2915
 1633SOL    HW3 6531   3.366   4.367   2.755 -0.4229 -0.3742  0.1016
 1633SOL    MW4 6532   3.370   4.346   2.670 -0.2878 -0.4622  0.1286
 1634SOL     OW 6533   3.649   0.052   2.652  0.4576 -0.3552 -0.5610
 1634SOL    HW2 6534   3.563   0.021   2.623  1.3764 -1.6342 -1.9720
 1634SOL    HW3 6535   3.650   0.144   2.625 -0.6319 -0.2032 -0.1353
 1634SOL    MW4 6536   3.638   0.060   2.644  0.4351 -0.5039 -0.6910
 1635SOL     OW 6537   3.606   0.082   2.933 -0.0585 -0.1922  0.6844
 1635SOL    HW2 6538   3.594   0.176   2.948  2.3689  0.5148 -1.3231
 1635SOL    HW3 6539   3.617   0.075   2.838  1.0742 -2.3475  0.9470
 1635SOL    MW4 6540   3.606   0.094   2.922  0.4112 -0.3833  0.4542
 1636SOL     OW 6541   3.856   0.461   2.648 -0.5226 -0.1008  0.1665
 1636SOL    HW2 6542   3.935   0.411   2.629  0.7462  1.9307 -0.0539
 1636SOL    HW3 6543   3.851   0.464   2.743 -0.0776  0.1694  0.1795
 1636SOL    MW4 6544   3.866   0.455   2.658 -0.2965  0.2029  0.1391
 1637SOL     OW 6545   4.085   0.023   2.689 -0.0658 -0.2051 -0.3846
 1637SOL    HW2 6546   4.067   0.045   2.780  1.4935 -0.8145  0.0899
 1637SOL    HW3 6547   4.001  -0.008   2.655 -0.5126 -0.5911  1.0263
 1637SOL    MW4 6548   4.072   0.022   2.697  0.0810 -0.3364 -0.1358
 1638SOL     OW 6549   3.825   0.737   2.556 -0.0421  0.3373  0.1083
 1638SOL    HW2 6550   3.747   0.773   2.600  0.7188  0.9767  0.9479
 1638SOL    HW3 6551   3.835   0.650   2.593 -0.1163  0.4118  0.3080
 1638SOL    MW4 6552   3.816   0.730   2.567  0.0485  0.4315  0.2455
 1639SOL     OW 6553   3.585   0.850   2.640  0.0744  0.2202 -0.2441
 1639SOL    HW2 6554   3.592   0.870   2.734 -0.5351 -2.0356  0.3167
 1639SOL    HW3 6555   3.585   0.936   2.597  0.2784  1.2890  1.8176
 1639SOL    MW4 6556   3.586   0.864   2.647  0.0209  0.0636  0.1019
 1640SOL     OW 6557   3.573   1.116   2.531 -0.4106 -0.0391  0.0328
 1640SOL    HW2 6558   3.657   1.154   2.556 -0.5833  1.7109 -1.9661
 1640SOL    HW3 6559   3.508   1.168   2.578 -0.4589 -0.5667  0.5611
 1640SOL    MW4 6560   3.576   1.128   2.541 -0.4397  0.1222 -0.1612
 1641SOL     OW 6561   3.812   1.283   2.640 -0.0137  0.0565  0.5246
 1641SOL    HW2 6562   3.896   1.248   2.608 -0.5060  0.0486 -0.7852
 1641SOL    HW3 6563   3.805   1.369   2.599 -0.6327  0.0683  0.6509
 1641SOL    MW4 6564   3.822   1.290   2.631 -0.1604  0.0570  0.3684
 1642SOL     OW 6565   0.119   1.001   0.518 -0.2515  0.2709 -0.1058
 1642SOL    HW2 6566   0.061   1.015   0.593 -0.7760 -0.0030 -0.4607
 1642SOL    HW3 6567   0.069   0.947   0.458  0.4387 -0.1148 -0.3419
 1642SOL    MW4 6568   0.105   0.996   0.520 -0.2297  0.1838 -0.1838
 1643SOL     OW 6569   3.595   1.702   2.601 -0.0472 -0.1116 -0.8897
 1643SOL    HW2 6570   3.580   1.778   2.545 -0.9398  0.0932 -0.3822
 1643SOL    HW3 6571   3.534   1.636   2.568 -1.8925  0.6122  0.9806
 1643SOL    MW4 6572   3.585   1.703   2.589 -0.4084  0.0109 -0.5760
 1644SOL     OW 6573   3.819   1.514   2.496  0.3272 -0.4588  0.1392
 1644SOL    HW2 6574   3.749   1.572   2.528 -0.7407 -1.2875 -0.6355
 1644SOL    HW3 6575   3.899   1.549   2.535 -0.5194  0.5175  1.0387
 1644SOL    MW4 6576   3.820   1.526   2.505  0.0746 -0.4393  0.1557
 1645SOL     OW 6577   3.983   1.912   2.600  0.5282  0.2631  0.4753
 1645SOL    HW2 6578   4.060   1.957   2.634  1.3868 -0.2269 -0.7858
 1645SOL    HW3 6579   4.002   1.819   2.612  0.2452  0.1325 -0.0738
 1645SOL    MW4 6580   3.995   1.905   2.606  0.6042  0.1812  0.2364
 1646SOL     OW 6581   3.777   2.302   2.601 -0.3219 -0.2599  0.5312
 1646SOL    HW2 6582   3.777   2.206   2.601  0.2742 -0.2701 -0.8476
 1646SOL    HW3 6583   3.767   2.326   2.509  2.1871  0.9722  0.5290
 1646SOL    MW4 6584   3.776   2.293   2.589  0.0878 -0.0987  0.3490
 1647SOL     OW 6585   3.557   2.420   2.710  0.1379 -0.7530  0.0916
 1647SOL    HW2 6586   3.550   2.407   2.805 -0.5130 -1.3819 -0.0373
 1647SOL    HW3 6587   3.638   2.375   2.686 -0.1176 -1.2932  0.2305
 1647SOL    MW4 6588   3.567   2.413   2.720  0.0183 -0.9073  0.0929
 1648SOL     OW 6589   3.709   2.732   2.386  0.4043 -0.2498  0.3268
 1648SOL    HW2 6590   3.727   2.641   2.363 -0.3684 -0.8143  1.8771
 1648SOL    HW3 6591   3.613   2.739   2.382  0.3716  0.1142  1.5428
 1648SOL    MW4 6592   3.698   2.721   2.383  0.2980 -0.2763  0.6918
 1649SOL     OW 6593   3.824   2.791   2.836  0.2883  0.1950 -0.1582
 1649SOL    HW2 6594   3.904   2.764   2.790 -0.0222 -0.5173 -0.2781
 1649SOL    HW3 6595   3.753   2.759   2.780 -0.0813  1.1751 -0.2557
 1649SOL    MW4 6596   3.825   2.783   2.822  0.1986  0.2303 -0.1869
 1650SOL     OW 6597   3.863   3.024   2.684  0.3132  0.1744  0.3743
 1650SOL    HW2 6598   3.847   2.998   2.593 -1.1634 -0.3426  0.7741
 1650SOL    HW3 6599   3.848   2.944   2.734  1.0321  0.4830  1.1012
 1650SOL    MW4 6600   3.859   3.010   2.679  0.2133  0.1469  0.5230
 1651SOL     OW 6601   3.341   3.059   2.674 -0.3081  0.2776  0.0329
 1651SOL    HW2 6602   3.415   3.105   2.715 -0.4259  0.2409  0.2821
 1651SOL    HW3 6603   3.354   2.967   2.698  0.0032  0.1576 -0.5805
 1651SOL    MW4 6604   3.353   3.053   2.683 -0.2826  0.2569 -0.0152
 1652SOL     OW 6605   3.597   3.162   2.714 -0.2235  0.1212 -0.1956
 1652SOL    HW2 6606   3.681   3.117   2.700  0.3639  1.3910 -0.8672
 1652SOL    HW3 6607   3.605   3.243   2.663 -1.5497  0.6296  0.3958
 1652SOL    MW4 6608   3.609   3.167   2.705 -0.3209  0.3558 -0.2062
 1653SOL     OW 6609   3.796   3.609   2.619 -0.1064 -0.7607  0.0637
 1653SOL    HW2 6610   3.887   3.582   2.607 -0.0900 -0.7534  0.1664
 1653SOL    HW3 6611   3.792   3.698   2.583  0.6624  0.4325  2.8191
 1653SOL    MW4 6612   3.807   3.617   2.613 -0.0028 -0.6023  0.4408
 1654SOL     OW 6613   3.801   3.872   2.548  0.2209 -0.1407 -0.2860
 1654SOL    HW2 6614   3.867   3.922   2.595 -0.6539  1.6886 -0.9619
 1654SOL    HW3 6615   3.718   3.917   2.567 -0.3311 -0.2154 -2.3886
 1654SOL    MW4 6616   3.798   3.884   2.557  0.0327  0.0908 -0.6526
 1655SOL     OW 6617   3.602   4.029   2.637  0.5301 -0.4415  0.0415
 1655SOL    HW2 6618   3.598   4.116   2.599  0.3228 -0.5891 -0.2716
 1655SOL    HW3 6619   3.519   3.988   2.615  0.6185 -0.7126  0.2014
 1655SOL    MW4 6620   3.591   4.035   2.629  0.5144 -0.4967  0.0213
 1656SOL     OW 6621   3.630   4.289   2.543  0.4612  0.1767 -0.9470
 1656SOL    HW2 6622   3.549   4.315   2.587  0.8031 -1.5674  0.8001
 1656SOL    HW3 6623   3.611   4.301   2.450 -1.5811  0.4314 -0.5311
 1656SOL    MW4 6624   3.617   4.294   2.537  0.2369 -0.0198 -0.6616
 1657SOL     OW 6625   3.871   4.332   2.666 -0.1883  0.0401  0.1543
 1657SOL    HW2 6626   3.949   4.284   2.639 -0.0703  0.1455  0.3059
 1657SOL    HW3 6627   3.801   4.297   2.611  0.4063  1.6191 -1.6948
 1657SOL    MW4 6628   3.872   4.321   2.655 -0.0943  0.2623 -0.0697
 1658SOL     OW 6629   4.311   4.588   2.548  0.3385 -0.0002 -0.6440
 1658SOL    HW2 6630   4.237   4.618   2.600 -0.2961 -2.4076 -0.0830
 1658SOL    HW3 6631   4.387   4.631   2.588 -0.3570 -0.3713  1.1474
 1658SOL    MW4 6632   4.312   4.597   2.560  0.1630 -0.3668 -0.3336
 1659SOL     OW 6633   0.038   0.319   3.024 -0.4349  0.0162 -0.7332
 1659SOL    HW2 6634   0.063   0.325   3.116 -0.3080 -0.2306 -0.7536
 1659SOL    HW3 6635  -0.055   0.343   3.023 -0.5075 -0.2557 -0.5053
 1659SOL    MW4 6636   0.029   0.323   3.036 -0.4277 -0.0522 -0.7058
 1660SOL     OW 6637   3.859   4.587   2.526 -0.1442  0.9676 -0.1451
 1660SOL    HW2 6638   3.862   4.501   2.568 -0.1458  0.3916 -1.3168
 1660SOL    HW3 6639   3.775   4.624   2.554  0.2206  0.9465  1.0324
 1660SOL    MW4 6640   3.848   4.580   2.536 -0.0963  0.8888 -0.1443
 1661SOL     OW 6641   4.061   0.283   2.603  0.1270 -0.4077 -0.2147
 1661SOL    HW2 6642   4.073   0.275   2.508 -2.1247 -0.0132 -0.5496
 1661SOL    HW3 6643   4.064   0.193   2.635  0.9932 -0.5370 -0.6359
 1661SOL    MW4 6644   4.063   0.270   2.595 -0.0558 -0.3727 -0.3145
 1662SOL     OW 6645   4.261   0.458   2.745  0.0040  0.3325  0.1368
 1662SOL    HW2 6646   4.335   0.414   2.703  0.5812  0.2168  1.2594
 1662SOL    HW3 6647   4.187   0.399   2.733  0.7406 -0.9053  1.5112
 1662SOL    MW4 6648   4.261   0.445   2.738  0.1773  0.1539  0.4663
 1663SOL     OW 6649   4.037   0.891   2.659  0.0028  0.4967  0.2165
 1663SOL    HW2 6650   4.106   0.825   2.656 -0.9051 -0.5164  1.2145
 1663SOL    HW3 6651   3.959   0.845   2.626 -0.5022  1.2499  0.3488
 1663SOL    MW4 6652   4.036   0.876   2.654 -0.1836  0.4624  0.3656
 1664SOL     OW 6653   4.040   1.150   2.561 -0.1139 -0.1876  0.0079
 1664SOL    HW2 6654   4.113   1.187   2.610 -0.8992  1.4697 -0.0274
 1664SOL    HW3 6655   4.029   1.061   2.596  1.1290 -0.0181  0.8443
 1664SOL    MW4 6656   4.048   1.143   2.572 -0.0535  0.0534  0.1136
 1665SOL     OW 6657   4.257   1.278   2.668  0.1372 -0.4970  0.3656
 1665SOL    HW2 6658   4.258   1.353   2.609 -0.3843 -0.0004  0.9840
 1665SOL    HW3 6659   4.347   1.246   2.667  0.3959  0.2195  0.2119
 1665SOL    MW4 6660   4.269   1.284   2.660  0.1026 -0.3370  0.4269
 1666SOL     OW 6661   4.292   1.518   2.529 -0.0044  0.4874 -0.5863
 1666SOL    HW2 6662   4.369   1.568   2.558  0.6193 -1.0947  0.5615
 1666SOL    HW3 6663   4.299   1.517   2.434  2.5767 -1.3859 -0.4336
 1666SOL    MW4 6664   4.303   1.525   2.520  0.4185  0.0315 -0.4147
 1667SOL     OW 6665   4.053   1.642   2.591  0.3204  0.1582  0.1743
 1667SOL    HW2 6666   4.042   1.645   2.686  0.6373 -2.5178  0.3292
 1667SOL    HW3 6667   4.146   1.624   2.578  0.0308 -0.7981 -0.6049
 1667SOL    MW4 6668   4.064   1.640   2.602  0.3240 -0.3210  0.0919
 1668SOL     OW 6669   3.753   2.034   2.653 -0.5691 -0.1822  0.3060
 1668SOL    HW2 6670   3.688   2.009   2.588  0.6357 -0.7150 -0.7271
 1668SOL    HW3 6671   3.832   1.986   2.627 -0.2236 -0.8870  2.5131
 1668SOL    MW4 6672   3.755   2.024   2.641 -0.3646 -0.3455  0.4609
 1669SOL     OW 6673   4.221   2.039   2.673 -0.2905 -0.3058  0.3179
 1669SOL    HW2 6674   4.205   2.127   2.637 -0.3865 -0.4320  0.0478
 1669SOL    HW3 6675   4.291   2.004   2.618 -1.2454 -0.9559 -0.5186
 1669SOL    MW4 6676   4.228   2.046   2.661 -0.4291 -0.4082  0.1719
 1670SOL     OW 6677   4.173   2.293   2.551 -0.1839 -0.5408 -0.5116
 1670SOL    HW2 6678   4.122   2.351   2.608  0.8407 -0.3467  0.2265
 1670SOL    HW3 6679   4.126   2.295   2.468 -1.9078 -1.0857  0.3996
 1670SOL    MW4 6680   4.160   2.301   2.548 -0.2761 -0.5871 -0.2940
 1671SOL     OW 6681   4.006   2.454   2.698 -0.1772  0.6936  0.3111
 1671SOL    HW2 6682   3.998   2.445   2.792  1.9145 -0.2643  0.4123
 1671SOL    HW3 6683   3.929   2.410   2.663  1.7783 -3.8257  1.3884
 1671SOL    MW4 6684   3.995   2.447   2.705  0.3568 -0.0290  0.4666
 1672SOL     OW 6685   4.034   2.732   2.661  0.3490 -0.1347 -0.2681
 1672SOL    HW2 6686   4.127   2.753   2.671  0.7513 -1.0839 -1.8922
 1672SOL    HW3 6687   4.032   2.638   2.647 -0.9983 -0.3560  1.1970
 1672SOL    MW4 6688   4.046   2.722   2.661  0.2243 -0.2891 -0.2891
 1673SOL     OW 6689   4.336   2.801   2.661 -0.5023 -0.0895 -0.1892
 1673SOL    HW2 6690   4.330   2.801   2.756 -0.9071  0.5860 -0.2095
 1673SOL    HW3 6691   4.309   2.889   2.635 -0.1183 -0.1792 -0.9104
 1673SOL    MW4 6692   4.331   2.813   2.670 -0.5051 -0.0122 -0.2870
 1674SOL     OW 6693   4.458   3.223   2.622  0.1158  0.6077  0.2824
 1674SOL    HW2 6694   4.538   3.191   2.579  1.4017  2.0110  1.5673
 1674SOL    HW3 6695   4.388   3.167   2.588  1.9484 -2.0159  0.6804
 1674SOL    MW4 6696   4.459   3.211   2.612  0.5273  0.4467  0.5045
 1675SOL     OW 6697   4.054   3.216   2.726 -0.0883  0.3752 -0.1221
 1675SOL    HW2 6698   3.989   3.151   2.700  0.6543  0.1567 -1.4838
 1675SOL    HW3 6699   4.029   3.296   2.681 -0.1394  0.6297  0.3561
 1675SOL    MW4 6700   4.042   3.218   2.717  0.0030  0.3799 -0.2387
 1676SOL     OW 6701   4.033   3.472   2.601 -0.0030  0.5150  0.0440
 1676SOL    HW2 6702   4.114   3.514   2.631  0.4259 -0.9546  1.0137
 1676SOL    HW3 6703   4.044   3.463   2.506  0.9155  0.4813  0.1513
 1676SOL    MW4 6704   4.045   3.476   2.592  0.1748  0.3166  0.1861
 1677SOL     OW 6705   4.271   3.587   2.688 -0.7786  0.3379  0.1825
 1677SOL    HW2 6706   4.297   3.580   2.780  0.2281  0.2353 -0.1025
 1677SOL    HW3 6707   4.345   3.551   2.639 -0.9899  1.0774 -0.6983
 1677SOL    MW4 6708   4.284   3.582   2.693 -0.6737  0.4219  0.0287
 1678SOL     OW 6709   4.292   3.820   2.563 -0.9982  0.3130 -0.0185
 1678SOL    HW2 6710   4.277   3.736   2.607 -0.6621 -0.2734 -1.0004
 1678SOL    HW3 6711   4.376   3.850   2.597 -1.1478  0.2855  0.3813
 1678SOL    MW4 6712   4.301   3.813   2.573 -0.9736  0.2320 -0.0953
 1679SOL     OW 6713   4.067   3.953   2.633  0.0369 -0.4113  0.2637
 1679SOL    HW2 6714   4.048   3.965   2.726  2.2194 -1.4647  0.8793
 1679SOL    HW3 6715   4.152   3.908   2.631  0.0203 -0.4213 -2.2360
 1679SOL    MW4 6716   4.076   3.948   2.645  0.3227 -0.5516  0.0151
 1680SOL     OW 6717   4.106   4.218   2.575  0.0169 -0.3484  0.6528
 1680SOL    HW2 6718   4.103   4.124   2.588  1.4507 -0.7723 -1.6747
 1680SOL    HW3 6719   4.066   4.232   2.489  0.9348  0.9952  0.4129
 1680SOL    MW4 6720   4.100   4.208   2.565  0.3272 -0.2270  0.3140
 1681SOL     OW 6721   4.308   4.346   2.691 -0.6956  0.3331 -0.0326
 1681SOL    HW2 6722   4.229   4.309   2.652  0.2121 -0.0212 -1.6024
 1681SOL    HW3 6723   4.318   4.432   2.649  0.0683  0.1229 -0.3043
 1681SOL    MW4 6724   4.299   4.353   2.680 -0.4750  0.2586 -0.2755
 1682SOL     OW 6725   0.248   4.616   3.043  0.0745 -0.4273 -0.2762
 1682SOL    HW2 6726   0.223   4.619   3.136 -2.0212 -0.9883 -0.7869
 1682SOL    HW3 6727   0.171   4.650   2.997  0.4815 -1.6612 -1.8953
 1682SOL    MW4 6728   0.235   4.621   3.049 -0.1483 -0.6641 -0.5572
 1683SOL     OW 6729   4.288   4.632   2.998  0.3168 -0.4708 -0.2330
 1683SOL    HW2 6730   4.297   4.630   3.093  0.4263  0.1077 -0.2307
 1683SOL    HW3 6731   4.297   4.540   2.971  1.8870 -0.4658  0.1756
 1683SOL    MW4 6732   4.291   4.620   3.007  0.5384 -0.3938 -0.1788
 1684SOL     OW 6733   0.066   0.831   3.318 -0.5057  0.3681 -0.5240
 1684SOL    HW2 6734   0.120   0.911   3.318  0.7486 -0.4588 -0.7754
 1684SOL    HW3 6735   0.130   0.760   3.315 -1.6476 -0.6345 -1.2794
 1684SOL    MW4 6736   0.082   0.832   3.318 -0.4908  0.1267 -0.6569
 1685SOL     OW 6737   0.230   0.439   2.858  0.1045 -0.3769  0.0026
 1685SOL    HW2 6738   0.314   0.404   2.888 -0.3315 -1.3078  0.1490
 1685SOL    HW3 6739   0.165   0.395   2.912 -0.5801 -0.8293 -1.1777
 1685SOL    MW4 6740   0.233   0.429   2.869 -0.0434 -0.5594 -0.1338
 1686SOL     OW 6741   0.242   0.675   3.000  0.3381  0.0695  0.0990
 1686SOL    HW2 6742   0.281   0.654   3.085  0.9560  0.5174 -0.0706
 1686SOL    HW3 6743   0.234   0.590   2.957 -2.5101 -0.4959  1.6458
 1686SOL    MW4 6744   0.246   0.661   3.005  0.0438  0.0540  0.2807
 1687SOL     OW 6745   4.489   0.838   2.972  0.2983 -0.8573 -0.4538
 1687SOL    HW2 6746   4.573   0.794   2.979 -0.1956 -1.8588 -0.8336
 1687SOL    HW3 6747   4.478   0.855   2.878  1.3113  1.7124 -0.1722
 1687SOL    MW4 6748   4.498   0.835   2.960  0.3668 -0.6504 -0.4667
 1688SOL     OW 6749   1.707   2.713   4.072  0.4456  0.3574 -0.3396
 1688SOL    HW2 6750   1.646   2.648   4.104 -0.4780  0.8392 -1.0880
 1688SOL    HW3 6751   1.747   2.750   4.151 -0.0524 -0.1238  0.1406
 1688SOL    MW4 6752   1.704   2.710   4.086  0.2580  0.3575 -0.3750
 1689SOL     OW 6753   0.005   1.116   3.042 -0.2296  0.2148  0.5540
 1689SOL    HW2 6754  -0.082   1.153   3.030 -0.0111  0.1663 -1.2415
 1689SOL    HW3 6755  -0.006   1.022   3.026  0.4449  0.4316 -1.3728
 1689SOL    MW4 6756  -0.008   1.109   3.038 -0.1118  0.2370  0.0629
 1690SOL     OW 6757   0.213   1.222   2.909  0.4129 -0.4447 -0.4980
 1690SOL    HW2 6758   0.141   1.178   2.954 -0.2563  0.9805 -0.1514
 1690SOL    HW3 6759   0.211   1.187   2.819 -1.3844  0.3883 -0.7840
 1690SOL    MW4 6760   0.203   1.212   2.903  0.0875 -0.1467 -0.4900
 1691SOL     OW 6761   0.007   1.616   2.898  0.0468 -0.5505  0.0093
 1691SOL    HW2 6762  -0.079   1.592   2.930  0.0700 -0.1597  0.3637
 1691SOL    HW3 6763   0.028   1.698   2.943 -0.9664  1.3272 -2.7684
 1691SOL    MW4 6764  -0.001   1.624   2.908 -0.0838 -0.2512 -0.3104
 1692SOL     OW 6765   0.041   1.861   3.036 -0.3889 -0.2758  0.1079
 1692SOL    HW2 6766  -0.039   1.910   3.017 -0.9340  0.6371  4.3788
 1692SOL    HW3 6767   0.110   1.906   2.986 -1.8134  1.5292 -0.2600
 1692SOL    MW4 6768   0.040   1.873   3.027 -0.6488  0.0828  0.6229
 1693SOL     OW 6769   0.229   2.014   2.909 -0.4245  0.4383 -0.0172
 1693SOL    HW2 6770   0.202   2.102   2.933 -0.1402  0.4097  0.4187
 1693SOL    HW3 6771   0.226   2.013   2.813  0.5703  1.2517 -0.0733
 1693SOL    MW4 6772   0.225   2.025   2.899 -0.2558  0.5419  0.0329
 1694SOL     OW 6773   0.160   2.277   2.954  0.2991  0.5757 -0.4539
 1694SOL    HW2 6774   0.135   2.312   3.039  1.9675 -0.3465  0.4512
 1694SOL    HW3 6775   0.244   2.318   2.934  0.3423  0.1280 -1.2442
 1694SOL    MW4 6776   0.168   2.287   2.963  0.5249  0.3949 -0.4388
 1695SOL     OW 6777   4.428   2.389   2.818 -0.0822  0.0726  0.1222
 1695SOL    HW2 6778   4.420   2.480   2.848  0.3682 -0.3121  1.4395
 1695SOL    HW3 6779   4.507   2.356   2.860 -0.6674 -1.1709  0.2843
 1695SOL    MW4 6780   4.437   2.397   2.828 -0.0999 -0.1422  0.3174
 1696SOL     OW 6781   4.460   2.641   2.942  0.1315 -0.0870  0.1849
 1696SOL    HW2 6782   4.449   2.630   3.036 -0.5881 -1.0997 -0.0197
 1696SOL    HW3 6783   4.539   2.696   2.934  1.1313 -1.3234  1.3186
 1696SOL    MW4 6784   4.469   2.647   2.953  0.1685 -0.3838  0.3075
 1697SOL     OW 6785   0.211   2.822   2.921 -0.1886  0.0229  0.3724
 1697SOL    HW2 6786   0.294   2.778   2.942 -0.2758 -1.1299 -1.5683
 1697SOL    HW3 6787   0.218   2.843   2.828 -2.2558 -0.4906  0.0731
 1697SOL    MW4 6788   0.223   2.819   2.912 -0.4729 -0.1969  0.0768
 1698SOL     OW 6789   0.257   3.064   3.040  0.5874 -0.7612  0.0330
 1698SOL    HW2 6790   0.259   2.980   2.993  0.6646  0.6595 -2.5857
 1698SOL    HW3 6791   0.180   3.109   3.004  0.2507  0.0916  1.7912
 1698SOL    MW4 6792   0.247   3.059   3.029  0.5531 -0.4612 -0.0805
 1699SOL     OW 6793   0.048   3.193   2.905  0.2898  0.6745 -0.1782
 1699SOL    HW2 6794  -0.026   3.145   2.942 -0.0954  0.8974 -0.6532
 1699SOL    HW3 6795   0.020   3.216   2.816  0.4234  1.8565  0.0701
 1699SOL    MW4 6796   0.034   3.190   2.898  0.2566  0.8599 -0.2081
 1700SOL     OW 6797   4.328   3.637   3.397  0.8357 -0.1831 -0.2133
 1700SOL    HW2 6798   4.342   3.647   3.491  1.5003  0.0368 -0.3332
 1700SOL    HW3 6799   4.416   3.627   3.360  0.4811 -1.9959 -0.6220
 1700SOL    MW4 6800   4.341   3.637   3.405  0.8766 -0.3932 -0.2831
 1701SOL     OW 6801   0.033   3.456   3.031 -0.4361 -0.8084  0.3730
 1701SOL    HW2 6802   0.036   3.371   2.988  0.1612 -0.2621 -0.6712
 1701SOL    HW3 6803  -0.055   3.489   3.014 -0.2513 -0.6621 -0.2843
 1701SOL    MW4 6804   0.022   3.449   3.023 -0.3329 -0.7170  0.1485
 1702SOL     OW 6805   0.246   3.845   3.001  0.5180  0.8630  0.0017
 1702SOL    HW2 6806   0.219   3.863   3.091  0.0591  1.5993 -0.2783
 1702SOL    HW3 6807   0.329   3.893   2.991  0.7741  0.4561  0.1520
 1702SOL    MW4 6808   0.254   3.854   3.012  0.4912  0.9064 -0.0154
 1703SOL     OW 6809   0.020   3.987   2.668  0.7525 -0.1870  0.0025
 1703SOL    HW2 6810   0.088   3.944   2.616 -1.1337 -0.5830 -2.1807
 1703SOL    HW3 6811   0.014   4.075   2.630  0.1293 -0.1180  0.2604
 1703SOL    MW4 6812   0.028   3.993   2.656  0.4214 -0.2301 -0.2515
 1704SOL     OW 6813   0.010   3.978   2.934  0.1874 -0.6041  0.5660
 1704SOL    HW2 6814   0.091   3.931   2.956 -0.3909 -1.9342 -0.0901
 1704SOL    HW3 6815   0.008   3.979   2.839 -0.7862 -0.9589  0.5773
 1704SOL    MW4 6816   0.021   3.972   2.925 -0.0173 -0.8264  0.4810
 1705SOL     OW 6817   0.088   4.241   2.991  0.1114  0.1334  0.3756
 1705SOL    HW2 6818   0.066   4.149   2.974  0.7399 -0.0124  0.3194
 1705SOL    HW3 6819   0.072   4.252   3.084 -0.5578  0.1346  0.2612
 1705SOL    MW4 6820   0.083   4.230   3.001  0.1061  0.1143  0.3531
 1706SOL     OW 6821   0.685   0.000   3.008  0.4151 -0.4652 -0.1333
 1706SOL    HW2 6822   0.687  -0.093   2.987 -0.7591 -0.8670  1.4218
 1706SOL    HW3 6823   0.607   0.034   2.964  1.5214  0.0510 -1.7138
 1706SOL    MW4 6824   0.675  -0.007   3.000  0.4062 -0.4501 -0.1366
 1707SOL     OW 6825   0.438   0.083   2.896  0.2210  0.6797 -0.3713
 1707SOL    HW2 6826   0.419   0.177   2.897  0.6079  0.7595  1.2919
 1707SOL    HW3 6827   0.364   0.043   2.942  1.4734  0.4821  1.5275
 1707SOL    MW4 6828   0.426   0.090   2.903  0.4373  0.6642  0.0987
 1708SOL     OW 6829   0.471   0.354   2.951 -0.4966  0.5656  0.4899
 1708SOL    HW2 6830   0.548   0.392   2.907 -0.4543  0.2243  0.2712
 1708SOL    HW3 6831   0.483   0.377   3.043  0.7741 -1.0133  0.7238
 1708SOL    MW4 6832   0.483   0.362   2.957 -0.3233  0.3122  0.4919
 1709SOL     OW 6833   0.678   0.470   2.831  0.1148 -0.3832 -0.2416
 1709SOL    HW2 6834   0.752   0.422   2.868  1.7538  0.4374 -2.3587
 1709SOL    HW3 6835   0.684   0.558   2.868 -0.7746 -0.7388  0.8087
 1709SOL    MW4 6836   0.688   0.475   2.841  0.2137 -0.3219 -0.3824
 1710SOL     OW 6837   0.657   0.709   2.960 -0.3413  0.4060 -0.3432
 1710SOL    HW2 6838   0.634   0.703   3.053 -0.2499  0.8619 -0.2890
 1710SOL    HW3 6839   0.591   0.767   2.923 -0.3401  0.2751 -0.5532
 1710SOL    MW4 6840   0.645   0.716   2.967 -0.3291  0.4489 -0.3637
 1711SOL     OW 6841   0.431   0.862   2.886 -0.2200 -0.2311  0.3128
 1711SOL    HW2 6842   0.368   0.798   2.918 -0.1192 -1.2778 -1.4631
 1711SOL    HW3 6843   0.428   0.853   2.791  0.6833  1.5764  0.0819
 1711SOL    MW4 6844   0.422   0.852   2.878 -0.0875 -0.1307  0.0480
 1712SOL     OW 6845   0.451   1.114   2.994  0.2270  0.1220  0.1274
 1712SOL    HW2 6846   0.365   1.146   2.966  0.1486 -0.8267 -0.7315
 1712SOL    HW3 6847   0.460   1.029   2.952  0.8662 -0.5561  1.6090
 1712SOL    MW4 6848   0.441   1.107   2.985  0.3010 -0.0927  0.2095
 1713SOL     OW 6849   0.678   1.236   2.901 -0.0759  0.1306 -0.1289
 1713SOL    HW2 6850   0.748   1.181   2.937  0.9491  1.0140 -0.7311
 1713SOL    HW3 6851   0.597   1.194   2.930  0.6590 -1.9951 -1.0286
 1713SOL    MW4 6852   0.677   1.223   2.910  0.1563 -0.0333 -0.3271
 1714SOL     OW 6853   0.650   1.477   3.023  0.2090  0.2314  0.6720
 1714SOL    HW2 6854   0.667   1.465   3.117  0.2532  0.5810  0.7074
 1714SOL    HW3 6855   0.673   1.393   2.984 -2.5552 -0.9007  1.3460
 1714SOL    MW4 6856   0.655   1.464   3.030 -0.1499  0.1282  0.7656
 1715SOL     OW 6857   0.401   1.598   2.981  0.4176 -0.1113 -0.2471
 1715SOL    HW2 6858   0.479   1.545   3.000 -0.4827 -0.9484  1.1362
 1715SOL    HW3 6859   0.327   1.541   2.999 -0.5556  0.9312 -0.8237
 1715SOL    MW4 6860   0.402   1.584   2.986  0.1704 -0.0842 -0.1406
 1716SOL     OW 6861   1.640   2.007   3.802  0.4165 -0.2671  0.1414
 1716SOL    HW2 6862   1.664   1.914   3.809 -0.5961 -0.5599 -0.2560
 1716SOL    HW3 6863   1.711   2.046   3.752  0.8623 -0.8266  0.3270
 1716SOL    MW4 6864   1.653   2.000   3.797  0.3417 -0.3796  0.1135
 1717SOL     OW 6865   0.789   1.896   3.315  0.1547  0.3568  0.7055
 1717SOL    HW2 6866   0.712   1.939   3.352  0.1563  0.3827  0.6789
 1717SOL    HW3 6867   0.792   1.810   3.358 -1.0615 -0.4550 -0.7704
 1717SOL    MW4 6868   0.779   1.890   3.326 -0.0056  0.2531  0.5072
 1718SOL     OW 6869   1.083   2.293   3.006 -0.4090 -0.0214  0.7292
 1718SOL    HW2 6870   1.080   2.209   2.960  2.7054 -0.5995  1.5019
 1718SOL    HW3 6871   1.062   2.272   3.097  0.0372  0.1126  0.8601
 1718SOL    MW4 6872   1.079   2.279   3.012  0.0608 -0.0800  0.8484
 1719SOL     OW 6873   0.624   2.249   2.494  0.1426  0.0383 -0.1309
 1719SOL    HW2 6874   0.623   2.167   2.545 -1.8886  0.2023  0.1083
 1719SOL    HW3 6875   0.697   2.298   2.532  0.7114 -1.2106  0.4456
 1719SOL    MW4 6876   0.634   2.245   2.506 -0.0503 -0.1049 -0.0232
 1720SOL     OW 6877   0.421   2.672   3.027  0.0393  0.2877  0.3647
 1720SOL    HW2 6878   0.496   2.709   2.980 -0.4657  2.4900  1.2012
 1720SOL    HW3 6879   0.419   2.580   3.002  1.7527  0.6853 -1.3287
 1720SOL    MW4 6880   0.430   2.665   3.017  0.1987  0.6307  0.2516
 1721SOL     OW 6881   0.660   2.786   2.913 -0.1128  0.2341 -0.0085
 1721SOL    HW2 6882   0.733   2.739   2.953  0.5501  0.2812 -1.1242
 1721SOL    HW3 6883   0.664   2.873   2.951  0.1229  0.0935  0.2924
 1721SOL    MW4 6884   0.670   2.791   2.923  0.0058  0.2218 -0.1160
 1722SOL     OW 6885   0.654   3.061   2.993 -0.0727 -0.5060 -0.0234
 1722SOL    HW2 6886   0.641   3.064   3.088 -1.6449 -0.7186 -0.2278
 1722SOL    HW3 6887   0.603   3.135   2.960  0.2478 -0.6010 -0.7370
 1722SOL    MW4 6888   0.646   3.071   3.001 -0.2378 -0.5465 -0.1445
 1723SOL     OW 6889   0.428   3.237   2.908  0.0678  0.2758 -0.2205
 1723SOL    HW2 6890   0.433   3.317   2.959  0.2310 -0.3989  0.8391
 1723SOL    HW3 6891   0.374   3.178   2.961 -1.1272  0.1176 -1.5772
 1723SOL    MW4 6892   0.421   3.239   2.921 -0.0684  0.1659 -0.2597
 1724SOL     OW 6893   0.436   3.463   3.045 -0.2430  0.2721  0.0095
 1724SOL    HW2 6894   0.407   3.475   3.136  1.0473  1.8914  0.2228
 1724SOL    HW3 6895   0.370   3.508   2.993  0.5104  1.7772  0.3358
 1724SOL    MW4 6896   0.423   3.470   3.050  0.0267  0.6843  0.0807
 1725SOL     OW 6897   0.665   3.578   2.934  0.1380 -0.3627 -0.2499
 1725SOL    HW2 6898   0.731   3.529   2.984  0.9064  0.3523 -0.5502
 1725SOL    HW3 6899   0.582   3.540   2.961  0.6238 -0.7691  0.7157
 1725SOL    MW4 6900   0.663   3.567   2.944  0.3035 -0.3220 -0.1621
 1726SOL     OW 6901   0.690   3.853   2.977 -0.3266  0.0622  0.2522
 1726SOL    HW2 6902   0.721   3.874   3.065 -1.2722 -2.0650  1.1203
 1726SOL    HW3 6903   0.699   3.758   2.970 -0.7909  0.1419 -1.7526
 1726SOL    MW4 6904   0.695   3.843   2.988 -0.5126 -0.2079  0.1022
 1727SOL     OW 6905   0.481   4.026   2.957  0.6241  0.0155 -0.4664
 1727SOL    HW2 6906   0.558   3.971   2.964 -0.4930 -1.4322  0.9831
 1727SOL    HW3 6907   0.467   4.036   2.863  1.2789 -1.5852 -0.7573
 1727SOL    MW4 6908   0.489   4.020   2.946  0.5631 -0.3867 -0.3135
 1728SOL     OW 6909   0.284   4.415   2.870  0.2963 -0.4525  0.3625
 1728SOL    HW2 6910   0.200   4.372   2.888  0.3267 -0.4150  0.5910
 1728SOL    HW3 6911   0.287   4.488   2.932  0.0826  0.0903 -0.2597
 1728SOL    MW4 6912   0.273   4.419   2.881  0.2721 -0.3759  0.3105
 1729SOL     OW 6913   0.660   4.409   2.922 -0.5204 -0.1088 -0.0716
 1729SOL    HW2 6914   0.590   4.354   2.958 -0.7751 -0.2541 -0.7843
 1729SOL    HW3 6915   0.655   4.396   2.828 -0.0538  0.5135 -0.1857
 1729SOL    MW4 6916   0.650   4.400   2.915 -0.4925 -0.0459 -0.1807
 1730SOL     OW 6917   1.074   4.662   3.018  0.6840  0.1718 -0.2980
 1730SOL    HW2 6918   1.158   4.701   2.992  0.3610 -0.0333 -1.6753
 1730SOL    HW3 6919   1.012   4.696   2.954  0.1548 -1.5606 -0.7146
 1730SOL    MW4 6920   1.077   4.672   3.006  0.5716 -0.0838 -0.5347
 1731SOL     OW 6921   0.894   0.087   2.857 -0.0473  0.1436  0.6780
 1731SOL    HW2 6922   0.889   0.179   2.886 -1.3146  0.3048 -0.0219
 1731SOL    HW3 6923   0.816   0.046   2.895 -1.4465  0.2251 -2.0392
 1731SOL    MW4 6924   0.883   0.094   2.866 -0.3991  0.1756  0.2271
 1732SOL     OW 6925   0.884   0.338   2.938 -0.6124  0.1245  0.1536
 1732SOL    HW2 6926   0.871   0.342   3.033 -0.3660 -1.6735  0.2842
 1732SOL    HW3 6927   0.968   0.381   2.924 -0.3669 -0.1290  0.8278
 1732SOL    MW4 6928   0.894   0.344   2.949 -0.5475 -0.1462  0.2598
 1733SOL     OW 6929   1.128   0.444   2.903  0.0480  0.2382  0.0390
 1733SOL    HW2 6930   1.216   0.423   2.935 -0.2124 -0.7337  0.1527
 1733SOL    HW3 6931   1.136   0.442   2.808  0.1278  0.0312  0.0487
 1733SOL    MW4 6932   1.141   0.441   2.895  0.0242  0.0826  0.0553
 1734SOL     OW 6933   1.119   0.699   2.974 -0.1940 -0.0418  0.4902
 1734SOL    HW2 6934   1.120   0.694   3.070 -1.3759 -1.7761  0.4425
 1734SOL    HW3 6935   1.128   0.608   2.946  0.8485  0.5234 -1.0704
 1734SOL    MW4 6936   1.120   0.686   2.983 -0.2124 -0.1960  0.2780
 1735SOL     OW 6937   0.904   0.835   2.886 -0.1036 -0.5754  0.2196
 1735SOL    HW2 6938   0.985   0.802   2.925  0.5560 -0.3355 -0.9147
 1735SOL    HW3 6939   0.835   0.784   2.928  0.5145  0.1875  2.2344
 1735SOL    MW4 6940   0.906   0.824   2.897  0.0650 -0.4431  0.3357
 1736SOL     OW 6941   0.889   1.091   3.002 -0.2684 -0.0742  0.0172
 1736SOL    HW2 6942   0.967   1.129   2.962 -1.0047  0.3771 -1.0251
 1736SOL    HW3 6943   0.898   0.996   2.987  0.7088 -0.1532  1.0605
 1736SOL    MW4 6944   0.901   1.083   2.994 -0.2366 -0.0251  0.0173
 1737SOL     OW 6945   1.091   1.272   2.881  0.1988 -0.4535  0.2213
 1737SOL    HW2 6946   1.169   1.227   2.915 -0.1826 -1.3958 -0.1510
 1737SOL    HW3 6947   1.104   1.274   2.786 -0.1560 -0.4542  0.1731
 1737SOL    MW4 6948   1.103   1.267   2.873  0.1016 -0.5779  0.1658
 1738SOL     OW 6949   0.840   1.645   2.914 -0.2062 -0.4564 -0.0753
 1738SOL    HW2 6950   0.928   1.613   2.935 -0.2580  0.3043  1.3982
 1738SOL    HW3 6951   0.781   1.582   2.955 -0.3328 -0.2800  0.0132
 1738SOL    MW4 6952   0.844   1.633   2.923 -0.2297 -0.3328  0.1308
 1739SOL     OW 6953   0.832   1.892   3.032  0.0867  0.1635 -0.0275
 1739SOL    HW2 6954   0.832   1.804   2.994  1.5860 -0.2782  0.9339
 1739SOL    HW3 6955   0.813   1.878   3.124  0.9385  0.7728  0.2508
 1739SOL    MW4 6956   0.830   1.878   3.039  0.3969  0.1856  0.1360
 1740SOL     OW 6957   0.536   2.794   3.314  0.2745 -0.5288 -0.4269
 1740SOL    HW2 6958   0.495   2.772   3.231  0.1288 -0.8352 -0.2733
 1740SOL    HW3 6959   0.574   2.881   3.300 -1.6965  0.4200 -0.1173
 1740SOL    MW4 6960   0.536   2.803   3.301 -0.0048 -0.4440 -0.3658
 1741SOL     OW 6961   1.071   2.036   2.909 -0.0380  0.3139 -0.1037
 1741SOL    HW2 6962   0.993   1.994   2.945  0.6488 -0.2424  0.7727
 1741SOL    HW3 6963   1.065   2.022   2.815 -0.9846  0.2671 -0.0421
 1741SOL    MW4 6964   1.060   2.029   2.901 -0.0723  0.2343  0.0201
 1742SOL     OW 6965   1.331   2.391   2.914 -0.3522  0.1957  0.2190
 1742SOL    HW2 6966   1.324   2.410   2.820  0.9938 -0.0949  0.0468
 1742SOL    HW3 6967   1.241   2.376   2.942 -0.6053 -1.5792 -1.4301
 1742SOL    MW4 6968   1.318   2.391   2.905 -0.2080 -0.0768 -0.0213
 1743SOL     OW 6969   0.839   2.424   2.919  0.2449 -0.5160 -0.4055
 1743SOL    HW2 6970   0.832   2.419   2.824 -0.2239 -2.3530 -0.2909
 1743SOL    HW3 6971   0.922   2.381   2.940  0.3473 -0.1243  0.0300
 1743SOL    MW4 6972   0.849   2.418   2.910  0.1966 -0.7067 -0.3329
 1744SOL     OW 6973   0.619   2.300   3.030 -0.0886  0.5006  0.5714
 1744SOL    HW2 6974   0.621   2.212   2.992  1.2365  0.4359  0.7919
 1744SOL    HW3 6975   0.696   2.344   2.995 -0.1682  1.2346  1.2966
 1744SOL    MW4 6976   0.629   2.294   3.020  0.0758  0.5889  0.6962
 1745SOL     OW 6977   1.133   2.791   2.957  0.9353 -0.2547 -0.1473
 1745SOL    HW2 6978   1.125   2.883   2.983  1.2787 -0.4166  0.5461
 1745SOL    HW3 6979   1.051   2.751   2.985  0.7729 -0.1546 -0.4776
 1745SOL    MW4 6980   1.121   2.798   2.964  0.9592 -0.2628 -0.0994
 1746SOL     OW 6981   1.104   3.052   3.033  0.4393  0.3533  0.0723
 1746SOL    HW2 6982   1.187   3.092   3.005  0.9167  0.0113  0.9714
 1746SOL    HW3 6983   1.036   3.106   2.992  1.1003  0.8846 -0.3412
 1746SOL    MW4 6984   1.106   3.064   3.024  0.5895  0.3783  0.1363
 1747SOL     OW 6985   0.892   3.188   2.920  0.2699  0.2041  0.0872
 1747SOL    HW2 6986   0.811   3.140   2.935  1.2671 -1.1795  1.2068
 1747SOL    HW3 6987   0.906   3.181   2.826 -0.9075  0.4430 -0.1110
 1747SOL    MW4 6988   0.884   3.180   2.910  0.2461  0.0530  0.2088
 1748SOL     OW 6989   1.099   3.618   2.918 -0.2714 -0.1739  0.6340
 1748SOL    HW2 6990   1.163   3.572   2.972 -1.3755 -0.4062  1.7808
 1748SOL    HW3 6991   1.019   3.566   2.927 -0.4049 -0.3766 -1.4649
 1748SOL    MW4 6992   1.097   3.605   2.926 -0.4347 -0.2313  0.5084
 1749SOL     OW 6993   0.800   3.441   3.295  0.2435  0.4420  0.3532
 1749SOL    HW2 6994   0.724   3.463   3.349 -0.6297  1.3600 -1.1783
 1749SOL    HW3 6995   0.872   3.492   3.331 -0.3683  1.1798  0.5351
 1749SOL    MW4 6996   0.799   3.451   3.307  0.0476  0.6605  0.1751
 1750SOL     OW 6997   4.182   3.482   4.414  0.2844  0.3344 -0.2146
 1750SOL    HW2 6998   4.235   3.477   4.334  0.0537 -0.5617 -0.3150
 1750SOL    HW3 6999   4.125   3.558   4.400 -0.6909 -0.5909 -1.4878
 1750SOL    MW4 7000   4.181   3.492   4.402  0.1253  0.0941 -0.3959
 1751SOL     OW 7001   0.900   4.016   2.884 -0.0216  0.1272 -0.2363
 1751SOL    HW2 7002   0.842   3.944   2.908  1.2409 -0.8138  0.0778
 1751SOL    HW3 7003   0.911   4.008   2.789 -1.8693  1.4457 -0.5850
 1751SOL    MW4 7004   0.894   4.006   2.875 -0.0988  0.1770 -0.2409
 1752SOL     OW 7005   0.881   4.268   2.978 -0.6006 -0.2837 -0.1026
 1752SOL    HW2 7006   0.873   4.179   2.945 -0.9688  0.2460 -1.4717
 1752SOL    HW3 7007   0.796   4.308   2.958 -0.4869  0.3308  0.6337
 1752SOL    MW4 7008   0.869   4.261   2.971 -0.6342 -0.1328 -0.1861
 1753SOL     OW 7009   1.107   4.410   2.888  0.3607  0.0909  0.1311
 1753SOL    HW2 7010   1.033   4.352   2.909  1.8994 -1.0082  2.8161
 1753SOL    HW3 7011   1.085   4.493   2.930  0.1660  0.1086 -0.0043
 1753SOL    MW4 7012   1.094   4.413   2.896  0.5380 -0.0518  0.4675
 1754SOL     OW 7013   1.551   4.660   3.023 -0.3561 -0.3510 -0.2047
 1754SOL    HW2 7014   1.537   4.635   3.115  0.8105 -1.1767 -0.2457
 1754SOL    HW3 7015   1.468   4.699   2.996 -0.4286  0.6890  1.4635
 1754SOL    MW4 7016   1.538   4.662   3.032 -0.2118 -0.3227  0.0100
 1755SOL     OW 7017   1.321   0.115   2.917  0.2579 -0.3528 -0.1796
 1755SOL    HW2 7018   1.333   0.209   2.929 -0.0118 -0.2102 -0.9799
 1755SOL    HW3 7019   1.348   0.099   2.826  1.1716 -1.2004  0.2305
 1755SOL    MW4 7020   1.326   0.125   2.906  0.3428 -0.4458 -0.2311
 1756SOL     OW 7021   1.351   0.371   3.031 -0.2160  0.1316 -0.1991
 1756SOL    HW2 7022   1.352   0.368   3.127 -0.1458  0.0697 -0.2014
 1756SOL    HW3 7023   1.432   0.416   3.008 -1.2638  2.0752 -0.1620
 1756SOL    MW4 7024   1.362   0.376   3.040 -0.3450  0.3799 -0.1945
 1757SOL     OW 7025   1.587   0.504   2.929  0.0272 -0.1404  0.3379
 1757SOL    HW2 7026   1.615   0.595   2.920 -0.2456 -0.0005  0.8675
 1757SOL    HW3 7027   1.567   0.475   2.840  2.2609 -0.3755 -0.1131
 1757SOL    MW4 7028   1.588   0.512   2.916  0.2860 -0.1530  0.3482
 1758SOL     OW 7029   1.637   0.763   2.981 -0.1546 -0.2545  0.2300
 1758SOL    HW2 7030   1.661   0.753   3.073 -1.5869  0.2747  0.6684
 1758SOL    HW3 7031   1.549   0.802   2.983 -0.8232 -1.6227 -1.3280
 1758SOL    MW4 7032   1.628   0.767   2.993 -0.4318 -0.3652  0.0823
 1759SOL     OW 7033   1.366   0.857   2.942 -0.2547  0.2058 -0.4596
 1759SOL    HW2 7034   1.348   0.942   2.983 -1.4207 -0.1001 -0.3269
 1759SOL    HW3 7035   1.286   0.806   2.956  0.2114 -0.7053 -1.0772
 1759SOL    MW4 7036   1.353   0.862   2.950 -0.3470  0.0452 -0.5236
 1760SOL     OW 7037   1.315   1.131   3.026  0.2775 -0.2125  0.2378
 1760SOL    HW2 7038   1.318   1.127   3.121  0.2527 -1.1800  0.2018
 1760SOL    HW3 7039   1.403   1.162   3.001  0.9933 -1.9584  0.4923
 1760SOL    MW4 7040   1.327   1.135   3.035  0.3687 -0.5705  0.2666
 1761SOL     OW 7041   1.555   1.213   2.922  0.6018  0.1030  0.1627
 1761SOL    HW2 7042   1.629   1.186   2.976  2.9645  3.8467 -1.0515
 1761SOL    HW3 7043   1.542   1.305   2.943 -2.3513  0.0658 -1.2304
 1761SOL    MW4 7044   1.563   1.222   2.932  0.5239  0.5920 -0.1813
 1762SOL     OW 7045   1.517   1.473   3.020 -0.3719  0.3023 -0.7490
 1762SOL    HW2 7046   1.588   1.532   2.995  1.5666 -2.4734 -2.1200
 1762SOL    HW3 7047   1.437   1.523   3.005  1.2301  2.9610 -0.6804
 1762SOL    MW4 7048   1.516   1.487   3.015  0.0952  0.2869 -0.9208
 1763SOL     OW 7049   1.315   1.652   2.946  0.1552  0.0450 -0.1533
 1763SOL    HW2 7050   1.302   1.747   2.946 -0.1068  0.0114  0.0430
 1763SOL    HW3 7051   1.305   1.626   2.854  4.1661  0.7134 -0.8638
 1763SOL    MW4 7052   1.312   1.661   2.934  0.6498  0.1288 -0.2211
 1764SOL     OW 7053   1.297   1.916   3.018 -0.1328 -0.3268  0.2173
 1764SOL    HW2 7054   1.293   1.891   3.110  0.3441 -2.0362 -0.1982
 1764SOL    HW3 7055   1.209   1.948   2.997 -0.2874 -0.0979  1.2163
 1764SOL    MW4 7056   1.285   1.917   3.027 -0.0903 -0.5222  0.2943
 1765SOL     OW 7057   1.537   2.041   2.943  0.2051 -0.3220  0.6661
 1765SOL    HW2 7058   1.455   1.997   2.965  0.0141  0.0373  0.6695
 1765SOL    HW3 7059   1.540   2.040   2.847  0.0209 -0.0027  0.6595
 1765SOL    MW4 7060   1.527   2.035   2.933  0.1556 -0.2324  0.6657
 1766SOL     OW 7061   1.548   2.299   3.034  0.0559  0.1123 -0.1071
 1766SOL    HW2 7062   1.475   2.345   2.993 -1.3198 -1.8323  0.0727
 1766SOL    HW3 7063   1.541   2.209   3.001  1.6651 -0.3815  0.8368
 1766SOL    MW4 7064   1.537   2.293   3.024  0.0867 -0.2094  0.0411
 1767SOL     OW 7065   1.268   2.439   2.649 -0.2706 -0.2613 -0.1685
 1767SOL    HW2 7066   1.342   2.389   2.614  0.6869  0.8317  0.2934
 1767SOL    HW3 7067   1.288   2.530   2.630 -0.8495  0.1645  1.1613
 1767SOL    MW4 7068   1.280   2.444   2.642 -0.2207 -0.0609  0.0679
 1768SOL     OW 7069   1.355   2.643   3.041 -0.4129 -0.0874 -0.0124
 1768SOL    HW2 7070   1.333   2.551   3.029  0.2095 -0.6412  2.8374
 1768SOL    HW3 7071   1.271   2.689   3.038 -0.7159 -0.7061 -1.5280
 1768SOL    MW4 7072   1.341   2.637   3.039 -0.3707 -0.2421  0.1636
 1769SOL     OW 7073   1.777   2.695   3.051 -0.2554  0.1510  0.8047
 1769SOL    HW2 7074   1.856   2.740   3.022 -0.2752 -0.3818 -0.0903
 1769SOL    HW3 7075   1.772   2.714   3.145 -1.0745  3.2492  0.1867
 1769SOL    MW4 7076   1.787   2.704   3.060 -0.3661  0.4895  0.6051
 1770SOL     OW 7077   1.545   3.057   3.060 -0.4381  0.0856 -0.0352
 1770SOL    HW2 7078   1.537   3.034   3.153  1.3633 -0.0475  0.0993
 1770SOL    HW3 7079   1.535   2.973   3.014 -2.1165  0.2599 -0.0310
 1770SOL    MW4 7080   1.543   3.043   3.066 -0.4218  0.0910 -0.0169
 1771SOL     OW 7081   1.326   3.195   2.980  0.0369  0.1845  0.1428
 1771SOL    HW2 7082   1.397   3.150   3.027 -1.1912 -1.0220  0.8655
 1771SOL    HW3 7083   1.344   3.177   2.887  0.6694 -0.1117  0.3165
 1771SOL    MW4 7084   1.338   3.186   2.974 -0.0417 -0.0137  0.2611
 1772SOL     OW 7085   1.299   3.477   3.046  0.3932 -0.5002  0.1136
 1772SOL    HW2 7086   1.296   3.474   3.142  3.1607 -1.6370  0.2146
 1772SOL    HW3 7087   1.308   3.385   3.019  0.0710 -0.1564 -1.2088
 1772SOL    MW4 7088   1.300   3.464   3.055  0.7158 -0.6048 -0.0475
 1773SOL     OW 7089   1.510   3.633   2.974  0.1085  0.5759 -0.5458
 1773SOL    HW2 7090   1.439   3.576   3.004  1.9611 -2.2410 -1.3629
 1773SOL    HW3 7091   1.514   3.618   2.879  1.6409  0.8505 -0.5377
 1773SOL    MW4 7092   1.501   3.623   2.965  0.5551  0.2405 -0.6526
 1774SOL     OW 7093   1.336   3.999   2.918 -0.4392  0.4864 -0.2291
 1774SOL    HW2 7094   1.399   3.965   2.981 -1.0153  0.0473  0.1003
 1774SOL    HW3 7095   1.250   3.978   2.954 -0.8233  3.0495  0.4219
 1774SOL    MW4 7096   1.333   3.992   2.931 -0.5659  0.7666 -0.0997
 1775SOL     OW 7097   1.117   3.876   3.039 -0.8392  0.6497 -0.3462
 1775SOL    HW2 7098   1.041   3.929   3.015 -1.8912 -1.3278 -1.5132
 1775SOL    HW3 7099   1.106   3.795   2.990  1.3066 -0.2328  0.5687
 1775SOL    MW4 7100   1.106   3.872   3.030 -0.6949  0.2723 -0.3795
 1776SOL     OW 7101   1.346   4.281   3.004 -0.1421  0.2603 -0.1716
 1776SOL    HW2 7102   1.331   4.190   2.979 -0.9006  0.1443  0.6927
 1776SOL    HW3 7103   1.266   4.326   2.978 -0.7422  0.2299  1.5635
 1776SOL    MW4 7104   1.333   4.275   2.997 -0.3213  0.2410  0.1714
 1777SOL     OW 7105   1.610   4.370   2.943 -0.0141  0.7758 -0.2330
 1777SOL    HW2 7106   1.528   4.337   2.981  0.2552  0.1624 -0.1669
 1777SOL    HW3 7107   1.606   4.465   2.954 -0.3075  0.6731  0.5868
 1777SOL    MW4 7108   1.598   4.378   2.950 -0.0172  0.6813 -0.1161
 1778SOL     OW 7109   1.989   4.639   3.014 -0.1045 -0.3288  0.2455
 1778SOL    HW2 7110   1.999   4.689   3.095 -0.1759 -0.9986  0.6697
 1778SOL    HW3 7111   1.909   4.673   2.975 -0.2350 -0.2165  0.6067
 1778SOL    MW4 7112   1.980   4.650   3.020 -0.1312 -0.4024  0.3492
 1779SOL     OW 7113   1.786   0.108   2.895 -0.1207 -0.2077  0.3180
 1779SOL    HW2 7114   1.697   0.077   2.913 -0.1480 -0.1346  0.3103
 1779SOL    HW3 7115   1.804   0.081   2.805 -0.4202  0.4416  0.0625
 1779SOL    MW4 7116   1.777   0.100   2.885 -0.1638 -0.1124  0.2833
 1780SOL     OW 7117   1.840   0.388   2.978  0.0345  0.3122 -0.0124
 1780SOL    HW2 7118   1.839   0.299   2.945 -0.4430 -0.2883  1.5853
 1780SOL    HW3 7119   1.759   0.427   2.945 -0.7935 -0.5046  1.0319
 1780SOL    MW4 7120   1.830   0.382   2.969 -0.1377  0.1252  0.3362
 1781SOL     OW 7121   2.056   0.498   2.868 -0.0933 -0.2908  0.2406
 1781SOL    HW2 7122   1.975   0.451   2.889 -0.3878 -0.1186 -0.4908
 1781SOL    HW3 7123   2.060   0.497   2.772  0.8519 -0.4358  0.2787
 1781SOL    MW4 7124   2.046   0.492   2.858 -0.0074 -0.2872  0.1491
 1782SOL     OW 7125   2.077   0.747   2.987 -0.5568  0.2485  0.3242
 1782SOL    HW2 7126   1.998   0.793   2.960 -0.4042  0.2817 -0.0742
 1782SOL    HW3 7127   2.077   0.667   2.933 -0.5530  0.0310  0.6434
 1782SOL    MW4 7128   2.067   0.742   2.976 -0.5361  0.2242  0.3137
 1783SOL     OW 7129   1.871   0.903   2.893 -0.5776 -0.0323  0.3804
 1783SOL    HW2 7130   1.777   0.894   2.905 -0.9722  1.8363 -1.1119
 1783SOL    HW3 7131   1.883   0.902   2.798  1.2559 -3.3938  0.5858
 1783SOL    MW4 7132   1.860   0.902   2.882 -0.3878 -0.2293  0.2106
 1784SOL     OW 7133   1.807   1.122   3.048  0.4307 -0.6087 -0.3098
 1784SOL    HW2 7134   1.828   1.103   3.140  1.8697 -1.1747 -0.7275
 1784SOL    HW3 7135   1.835   1.043   3.001  0.2652 -0.0838 -1.2927
 1784SOL    MW4 7136   1.814   1.109   3.054  0.5987 -0.6141 -0.4946
 1785SOL     OW 7137   2.020   1.255   2.951  0.2802  0.0156 -0.6703
 1785SOL    HW2 7138   2.097   1.206   2.978  0.7333 -0.3428 -2.5354
 1785SOL    HW3 7139   1.948   1.217   3.002  1.0963 -0.5839  0.0536
 1785SOL    MW4 7140   2.020   1.244   2.961  0.4477 -0.1108 -0.8208
 1786SOL     OW 7141   1.974   1.496   3.075 -0.3791 -0.1572 -0.3949
 1786SOL    HW2 7142   1.962   1.476   3.167 -0.1100 -0.1622 -0.3612
 1786SOL    HW3 7143   1.997   1.413   3.035 -0.4835 -0.1528 -0.4664
 1786SOL    MW4 7144   1.975   1.483   3.082 -0.3574 -0.1572 -0.3999
 1787SOL     OW 7145   1.749   1.622   2.988  0.0375 -0.4555  0.0401
 1787SOL    HW2 7146   1.761   1.717   2.999  0.0424 -0.3800 -0.6094
 1787SOL    HW3 7147   1.830   1.583   3.020 -0.0424 -0.2510  0.4947
 1787SOL    MW4 7148   1.761   1.630   2.994  0.0276 -0.4186  0.0144
 1788SOL     OW 7149   1.736   1.897   3.086  0.3503 -0.6257  0.3826
 1788SOL    HW2 7150   1.824   1.915   3.054  0.7089  1.4985  2.5025
 1788SOL    HW3 7151   1.678   1.947   3.028  0.4173 -2.6819 -1.5380
 1788SOL    MW4 7152   1.740   1.906   3.074  0.4065 -0.6167  0.4089
 1789SOL     OW 7153   1.984   1.985   2.999  0.2016  0.1954 -0.1519
 1789SOL    HW2 7154   2.062   1.943   3.035  0.6722  0.4922 -0.8147
 1789SOL    HW3 7155   1.980   2.070   3.043  1.2102  0.8722 -1.3577
 1789SOL    MW4 7156   1.993   1.991   3.010  0.3968  0.3238 -0.3985
 1790SOL     OW 7157   2.001   2.258   3.083 -0.1596  0.0115  0.2118
 1790SOL    HW2 7158   2.079   2.309   3.062 -0.9745  1.6641  1.1283
 1790SOL    HW3 7159   1.929   2.304   3.039 -0.7896 -0.7762  0.4088
 1790SOL    MW4 7160   2.002   2.271   3.074 -0.3502  0.1256  0.3587
 1791SOL     OW 7161   1.783   2.421   2.964  0.0488  0.0866 -0.1943
 1791SOL    HW2 7162   1.766   2.510   2.995 -1.5125 -0.1465 -0.3338
 1791SOL    HW3 7163   1.708   2.370   2.996 -0.0401 -0.7758 -1.7240
 1791SOL    MW4 7164   1.771   2.426   2.972 -0.1689 -0.0579 -0.4145
 1792SOL     OW 7165   2.162   3.114   4.163  0.4821 -0.3217 -0.3971
 1792SOL    HW2 7166   2.089   3.052   4.164 -0.0319  0.2872  0.5570
 1792SOL    HW3 7167   2.145   3.169   4.086 -0.1968 -0.0304 -0.0447
 1792SOL    MW4 7168   2.150   3.113   4.153  0.3247 -0.2030 -0.2247
 1793SOL     OW 7169   1.978   2.860   2.987  0.2077 -0.3717  0.4265
 1793SOL    HW2 7170   2.002   2.951   3.001 -0.6857 -0.0206 -0.3198
 1793SOL    HW3 7171   1.967   2.852   2.893 -1.6605 -0.7584  0.6577
 1793SOL    MW4 7172   1.980   2.871   2.977 -0.1566 -0.3764  0.3586
 1794SOL     OW 7173   2.002   3.138   3.008 -0.5854  0.1072 -0.6897
 1794SOL    HW2 7174   1.990   3.168   3.098  0.4157 -1.3616 -0.0367
 1794SOL    HW3 7175   1.917   3.151   2.966 -1.3082 -0.0132  0.7142
 1794SOL    MW4 7176   1.990   3.143   3.014 -0.5487 -0.1025 -0.4184
 1795SOL     OW 7177   1.729   3.244   2.948 -0.5085  0.3238  0.0506
 1795SOL    HW2 7178   1.673   3.175   2.983  0.3078 -0.1936  0.3230
 1795SOL    HW3 7179   1.722   3.234   2.853 -0.8777  0.2618  0.0835
 1795SOL    MW4 7180   1.720   3.234   2.940 -0.4495  0.2474  0.0909
 1796SOL     OW 7181   1.764   3.501   3.055 -0.0267 -0.1025  0.1940
 1796SOL    HW2 7182   1.754   3.411   3.023  2.0680  0.0351 -0.9362
 1796SOL    HW3 7183   1.701   3.552   3.005 -0.2202 -0.7091 -0.1830
 1796SOL    MW4 7184   1.754   3.496   3.044  0.2241 -0.1644 -0.0048
 1797SOL     OW 7185   1.970   3.648   2.935 -0.2614  0.1199 -0.0533
 1797SOL    HW2 7186   1.970   3.725   2.991 -0.3943 -1.0531  1.5979
 1797SOL    HW3 7187   1.902   3.591   2.972  0.2215 -1.0290 -0.8883
 1797SOL    MW4 7188   1.961   3.650   2.947 -0.2152 -0.1864  0.0544
 1798SOL     OW 7189   1.986   3.862   3.097  0.3291  0.3040 -0.4238
 1798SOL    HW2 7190   2.015   3.871   3.188 -0.2240 -0.5465 -0.1569
 1798SOL    HW3 7191   1.911   3.921   3.091 -0.2232 -0.3531 -0.0587
 1798SOL    MW4 7192   1.980   3.871   3.108  0.1832  0.1051 -0.3404
 1799SOL     OW 7193   1.763   4.012   3.034 -0.1076 -0.4522 -0.2334
 1799SOL    HW2 7194   1.748   4.031   2.941 -0.4715 -2.0286 -0.5202
 1799SOL    HW3 7195   1.764   4.097   3.076 -1.5492  0.1999 -1.4575
 1799SOL    MW4 7196   1.761   4.026   3.027 -0.3458 -0.5741 -0.4328
 1800SOL     OW 7197   1.721   4.272   3.408  0.3288 -0.1398  0.2758
 1800SOL    HW2 7198   1.742   4.276   3.314  0.9452  3.0849  0.5073
 1800SOL    HW3 7199   1.633   4.310   3.415  0.8482  0.9319  1.1481
 1800SOL    MW4 7200   1.712   4.278   3.396  0.4787  0.4271  0.4215
 1801SOL     OW 7201   1.812   4.271   3.113  0.3232  0.1650  0.1366
 1801SOL    HW2 7202   1.756   4.310   3.047  0.0071 -1.7670 -0.7747
 1801SOL    HW3 7203   1.886   4.331   3.120 -0.2808  1.0710 -0.9900
 1801SOL    MW4 7204   1.814   4.284   3.106  0.2018  0.0297 -0.1323
 1802SOL     OW 7205   3.457   4.397   4.191  0.0762  0.6126  0.3122
 1802SOL    HW2 7206   3.498   4.480   4.166  0.4901  0.2711 -0.1450
 1802SOL    HW3 7207   3.444   4.405   4.286  0.2172  1.1518  0.2896
 1802SOL    MW4 7208   3.461   4.409   4.200  0.1494  0.6387  0.2489
 1803SOL     OW 7209   2.229   0.049   2.922 -0.1397  0.2052 -0.0732
 1803SOL    HW2 7210   2.239   0.143   2.936  1.9577 -0.2321  1.6717
 1803SOL    HW3 7211   2.149   0.026   2.971 -0.7346  1.0858 -0.6211
 1803SOL    MW4 7212   2.220   0.058   2.930  0.0585  0.2637  0.0847
 1804SOL     OW 7213   2.256   0.348   2.983 -0.1223 -0.3720 -0.0724
 1804SOL    HW2 7214   2.231   0.345   3.076  0.0957 -0.0767 -0.0033
 1804SOL    HW3 7215   2.190   0.403   2.942  0.8744  1.1150  0.2634
 1804SOL    MW4 7216   2.244   0.355   2.990  0.0379 -0.1368 -0.0190
 1805SOL     OW 7217   2.482   0.468   2.883 -0.3202 -0.1407 -0.5321
 1805SOL    HW2 7218   2.402   0.423   2.912  0.4155 -0.0225  1.7946
 1805SOL    HW3 7219   2.472   0.475   2.788 -1.7306 -2.7392 -0.6385
 1805SOL    MW4 7220   2.470   0.463   2.874 -0.4092 -0.4680 -0.2392
 1806SOL     OW 7221   2.529   0.729   2.991 -0.1541  0.1091 -0.2670
 1806SOL    HW2 7222   2.588   0.770   2.928 -1.6768  1.0702 -1.1056
 1806SOL    HW3 7223   2.503   0.646   2.950 -2.2492  1.3742 -1.5959
 1806SOL    MW4 7224   2.533   0.724   2.977 -0.6314  0.4028 -0.5529
 1807SOL     OW 7225   2.314   0.879   2.896 -0.1652  0.7729  0.4350
 1807SOL    HW2 7226   2.385   0.831   2.938  0.2051  1.6926  0.8717
 1807SOL    HW3 7227   2.235   0.836   2.927  0.1752  0.1949  0.5102
 1807SOL    MW4 7228   2.313   0.867   2.906 -0.0715  0.8180  0.5025
 1808SOL     OW 7229   2.541   0.685   3.268 -0.2424  0.2883 -0.1893
 1808SOL    HW2 7230   2.613   0.739   3.300 -1.6133  2.2384 -0.3547
 1808SOL    HW3 7231   2.543   0.695   3.173 -1.0917  0.8315 -0.1547
 1808SOL    MW4 7232   2.551   0.693   3.260 -0.5353  0.6172 -0.2066
 1809SOL     OW 7233   2.480   1.276   2.896 -0.2761  0.3958 -0.1795
 1809SOL    HW2 7234   2.411   1.219   2.931  0.5212 -0.5070 -0.0931
 1809SOL    HW3 7235   2.468   1.273   2.802  0.2995 -0.5795 -0.2196
 1809SOL    MW4 7236   2.469   1.268   2.889 -0.0950  0.1480 -0.1734
 1810SOL     OW 7237   2.457   1.517   3.061 -0.8076 -0.1126  0.3548
 1810SOL    HW2 7238   2.390   1.558   3.007  0.5154  1.1939 -0.3396
 1810SOL    HW3 7239   2.470   1.431   3.022 -0.6048  0.4244 -0.7817
 1810SOL    MW4 7240   2.450   1.511   3.048 -0.6063  0.1306  0.1132
 1811SOL     OW 7241   2.232   1.615   2.925  0.0830 -0.3375  0.1582
 1811SOL    HW2 7242   2.155   1.569   2.958  0.1867  0.0256  0.9220
 1811SOL    HW3 7243   2.234   1.595   2.831  0.2497 -2.0536  0.5260
 1811SOL    MW4 7244   2.222   1.607   2.917  0.1186 -0.5160  0.3075
 1812SOL     OW 7245   2.213   1.852   3.087 -0.3137 -0.1414  0.2958
 1812SOL    HW2 7246   2.295   1.898   3.068 -0.4449 -0.1512 -0.3059
 1812SOL    HW3 7247   2.227   1.763   3.053 -1.0131  0.2000 -0.9139
 1812SOL    MW4 7248   2.225   1.846   3.080 -0.4233 -0.0977  0.0568
 1813SOL     OW 7249   2.434   1.997   2.997  0.2922 -0.7460  0.4030
 1813SOL    HW2 7250   2.521   1.961   3.010  1.3947  1.5845 -0.3125
 1813SOL    HW3 7251   2.432   2.024   2.906  0.4222  3.2513  1.5038
 1813SOL    MW4 7252   2.445   1.996   2.987  0.4548  0.0889  0.4538
 1814SOL     OW 7253   2.463   2.310   3.035 -0.1415 -0.4045 -0.5345
 1814SOL    HW2 7254   2.456   2.307   3.131  1.8241  1.2528 -0.2918
 1814SOL    HW3 7255   2.468   2.219   3.008  1.1975 -0.8398  1.1226
 1814SOL    MW4 7256   2.463   2.298   3.044  0.2945 -0.2433 -0.2839
 1815SOL     OW 7257   2.208   2.407   2.977 -0.3324  0.0960 -0.3516
 1815SOL    HW2 7258   2.203   2.487   3.030 -0.4508  0.1819 -0.4920
 1815SOL    HW3 7259   2.298   2.376   2.989 -0.3049  0.2150 -0.2451
 1815SOL    MW4 7260   2.219   2.414   2.986 -0.3444  0.1230 -0.3561
 1816SOL     OW 7261   2.184   2.682   3.068 -0.1555 -0.5588 -0.3873
 1816SOL    HW2 7262   2.257   2.704   3.011  1.0559 -0.2854  1.2381
 1816SOL    HW3 7263   2.118   2.749   3.051  1.0861  0.8120  0.1557
 1816SOL    MW4 7264   2.185   2.693   3.058  0.1682 -0.3419 -0.1012
 1817SOL     OW 7265   2.400   2.776   2.921  0.2090 -0.2708  0.0501
 1817SOL    HW2 7266   2.405   2.865   2.957 -0.0242 -0.3955  0.3952
 1817SOL    HW3 7267   2.415   2.787   2.827  1.3352  0.0016  0.2563
 1817SOL    MW4 7268   2.403   2.789   2.913  0.3268 -0.2513  0.1228
 1818SOL     OW 7269   2.451   3.050   3.010 -0.4682 -0.1828  0.3329
 1818SOL    HW2 7270   2.374   3.089   2.969 -0.5634  0.4262  1.0677
 1818SOL    HW3 7271   2.520   3.116   2.997 -0.0869 -0.7038 -0.2807
 1818SOL    MW4 7272   2.450   3.064   3.003 -0.4304 -0.1712  0.3489
 1819SOL     OW 7273   2.247   3.213   2.920  0.3151 -0.1454 -0.4266
 1819SOL    HW2 7274   2.247   3.305   2.944  1.4979 -0.1360 -0.4430
 1819SOL    HW3 7275   2.159   3.182   2.943  0.0708  0.8665  0.0055
 1819SOL    MW4 7276   2.235   3.221   2.926  0.4389 -0.0107 -0.3718
 1820SOL     OW 7277   2.196   3.486   2.992  0.2655 -0.1891  0.1819
 1820SOL    HW2 7278   2.269   3.532   2.951 -0.7952  1.1456 -0.2270
 1820SOL    HW3 7279   2.119   3.537   2.969 -0.7488 -1.3010  1.0372
 1820SOL    MW4 7280   2.196   3.499   2.984 -0.0083 -0.1597  0.2408
 1821SOL     OW 7281   2.425   3.612   2.895  0.1411 -0.1547 -0.9439
 1821SOL    HW2 7282   2.497   3.581   2.949 -1.8508  0.4543  2.2561
 1821SOL    HW3 7283   2.417   3.705   2.917 -0.6853  0.1229 -2.3407
 1821SOL    MW4 7284   2.433   3.620   2.905 -0.2307 -0.0377 -0.7060
 1822SOL     OW 7285   2.426   3.871   3.005  0.3311 -0.0734 -0.6339
 1822SOL    HW2 7286   2.427   3.898   3.097  1.0475 -0.5294 -0.4941
 1822SOL    HW3 7287   2.514   3.891   2.973 -0.0830  0.5918 -1.3815
 1822SOL    MW4 7288   2.438   3.877   3.013  0.3710 -0.0458 -0.7141
 1823SOL     OW 7289   2.185   3.974   2.943 -0.1686  0.1511  0.3972
 1823SOL    HW2 7290   2.264   3.924   2.962 -1.3158 -2.6261 -1.7956
 1823SOL    HW3 7291   2.119   3.939   3.004 -0.9876 -1.0605 -1.1690
 1823SOL    MW4 7292   2.186   3.963   2.954 -0.4281 -0.3752 -0.0988
 1824SOL     OW 7293   2.076   4.393   3.116 -0.5262  0.1828  0.0343
 1824SOL    HW2 7294   2.138   4.349   3.058  2.3126  1.6547  1.7892
 1824SOL    HW3 7295   2.056   4.475   3.071 -3.4241 -1.4563 -1.8048
 1824SOL    MW4 7296   2.082   4.398   3.103 -0.5340  0.1607  0.0232
 1825SOL     OW 7297   2.490   4.631   2.994  0.1920 -0.2419 -0.0930
 1825SOL    HW2 7298   2.409   4.673   2.967  0.6330 -0.2723 -1.5461
 1825SOL    HW3 7299   2.491   4.548   2.946  0.7468 -0.5506  0.4439
 1825SOL    MW4 7300   2.480   4.626   2.984  0.3234 -0.2867 -0.2139
 1826SOL     OW 7301   2.902   4.643   3.023 -0.2927 -0.1316 -0.1712
 1826SOL    HW2 7302   2.980   4.685   2.985 -1.1357  0.7278 -0.9770
 1826SOL    HW3 7303   2.901   4.555   2.984  0.3473 -0.1930 -0.0531
 1826SOL    MW4 7304   2.912   4.637   3.013 -0.3195 -0.0263 -0.2619
 1827SOL     OW 7305   2.706   0.101   2.857  0.2652 -0.5731  0.2079
 1827SOL    HW2 7306   2.775   0.058   2.908 -0.1112  0.8675  1.9844
 1827SOL    HW3 7307   2.624   0.069   2.895 -0.0275 -0.5017 -0.3620
 1827SOL    MW4 7308   2.704   0.091   2.869  0.1769 -0.3736  0.3671
 1828SOL     OW 7309   2.715   0.373   2.984  0.0388  0.0405  0.3751
 1828SOL    HW2 7310   2.698   0.286   2.950  2.1745  0.0104 -0.6901
 1828SOL    HW3 7311   2.637   0.424   2.961 -0.3056 -1.0392 -0.8791
 1828SOL    MW4 7312   2.702   0.368   2.977  0.2751 -0.1059  0.0691
 1829SOL     OW 7313   2.926   0.521   2.864 -0.0734 -0.2271  0.5426
 1829SOL    HW2 7314   2.858   0.458   2.888  0.0852 -0.9986 -0.9850
 1829SOL    HW3 7315   2.913   0.535   2.770  1.5896 -0.0331  0.3330
 1829SOL    MW4 7316   2.915   0.515   2.855  0.1670 -0.3033  0.3134
 1830SOL     OW 7317   2.927   0.783   3.003 -1.0502  0.0588 -0.1372
 1830SOL    HW2 7318   2.922   0.753   3.094  0.1132  1.1588  0.3114
 1830SOL    HW3 7319   2.934   0.702   2.952 -0.8127 -0.5371  0.8217
 1830SOL    MW4 7320   2.927   0.768   3.009 -0.8654  0.1253  0.0485
 1831SOL     OW 7321   2.712   0.900   2.846  0.1619 -0.1801  0.2096
 1831SOL    HW2 7322   2.695   0.989   2.878 -0.0444 -0.2511  0.2945
 1831SOL    HW3 7323   2.789   0.872   2.895  0.4009  0.0565 -0.0206
 1831SOL    MW4 7324   2.720   0.908   2.856  0.1663 -0.1583  0.1905
 1832SOL     OW 7325   2.700   1.134   3.002  0.2821  0.2632  0.0773
 1832SOL    HW2 7326   2.782   1.163   2.962  0.7047 -0.6521  0.2815
 1832SOL    HW3 7327   2.636   1.200   2.975  0.5587 -0.3257 -2.1341
 1832SOL    MW4 7328   2.702   1.146   2.993  0.3744  0.0647 -0.1875
 1833SOL     OW 7329   2.943   1.262   2.920  0.4510 -0.0579 -0.1024
 1833SOL    HW2 7330   3.016   1.223   2.969 -0.8726 -0.3149  1.7151
 1833SOL    HW3 7331   2.948   1.356   2.940  1.5871  0.2522 -1.7490
 1833SOL    MW4 7332   2.953   1.269   2.929  0.4263 -0.0509 -0.0798
 1834SOL     OW 7333   2.903   1.531   3.029 -0.0019  0.2356  0.4351
 1834SOL    HW2 7334   2.924   1.536   3.122 -0.0044  0.5415  0.4196
 1834SOL    HW3 7335   2.983   1.560   2.985  0.1903 -0.4485  0.3249
 1834SOL    MW4 7336   2.916   1.536   3.035  0.0232  0.1857  0.4185
 1835SOL     OW 7337   2.664   1.635   2.926 -0.4053 -0.3416 -0.5896
 1835SOL    HW2 7338   2.747   1.607   2.964 -0.0189  1.0337 -0.3644
 1835SOL    HW3 7339   2.597   1.590   2.977  0.1366  0.6265  1.0009
 1835SOL    MW4 7340   2.666   1.626   2.937 -0.2828 -0.0324 -0.3501
 1836SOL     OW 7341   2.679   1.881   3.065  0.1946 -0.2657  0.2905
 1836SOL    HW2 7342   2.747   1.936   3.025 -0.5946 -0.0874 -0.8463
 1836SOL    HW3 7343   2.680   1.800   3.014 -0.6648 -0.1341  0.0524
 1836SOL    MW4 7344   2.688   1.878   3.053 -0.0229 -0.2248  0.1091
 1837SOL     OW 7345   2.915   1.997   2.971  0.3852  0.1468 -0.3906
 1837SOL    HW2 7346   2.923   2.086   3.003  0.7680  0.4463 -1.3048
 1837SOL    HW3 7347   2.904   2.006   2.876 -0.0272 -0.7505 -0.4395
 1837SOL    MW4 7348   2.914   2.010   2.963  0.3813  0.0679 -0.5177
 1838SOL     OW 7349   2.917   2.272   3.060 -0.1074 -0.2856  0.2841
 1838SOL    HW2 7350   2.985   2.339   3.049 -1.4491  1.0459 -0.0789
 1838SOL    HW3 7351   2.836   2.316   3.035 -1.0869 -1.9126  0.5306
 1838SOL    MW4 7352   2.915   2.287   3.055 -0.4136 -0.3246  0.2688
 1839SOL     OW 7353   2.703   2.424   2.974  0.0023 -0.0504  0.0871
 1839SOL    HW2 7354   2.687   2.518   2.984  0.6201  0.2575 -1.6846
 1839SOL    HW3 7355   2.618   2.383   2.988 -0.3810  0.8096  0.2944
 1839SOL    MW4 7356   2.690   2.431   2.977  0.0332  0.1037 -0.1193
 1840SOL     OW 7357   2.661   2.698   3.013 -0.2684 -0.3333  0.5050
 1840SOL    HW2 7358   2.573   2.733   3.000 -0.6742 -1.0409  1.2689
 1840SOL    HW3 7359   2.671   2.695   3.108  0.0925 -1.4655  0.4375
 1840SOL    MW4 7360   2.651   2.703   3.024 -0.2744 -0.5760  0.5969
 1841SOL     OW 7361   2.919   2.818   2.962 -0.3872  0.1177  0.3925
 1841SOL    HW2 7362   2.976   2.778   3.027 -0.3409 -0.8106 -0.2045
 1841SOL    HW3 7363   2.831   2.787   2.984 -0.2329 -1.0805 -0.6224
 1841SOL    MW4 7364   2.915   2.808   2.973 -0.3608 -0.1629  0.1798
 1842SOL     OW 7365   0.093   3.598   3.295 -0.1996 -0.0117  0.2251
 1842SOL    HW2 7366   0.079   3.533   3.226  1.7659  1.3681 -1.5294
 1842SOL    HW3 7367   0.104   3.680   3.248 -2.0722  1.5290  2.3824
 1842SOL    MW4 7368   0.092   3.600   3.280 -0.1874  0.3736  0.2782
 1843SOL     OW 7369   2.667   3.186   2.913 -0.1009  0.4376  0.0572
 1843SOL    HW2 7370   2.691   3.278   2.925  0.6592  0.2783 -0.2002
 1843SOL    HW3 7371   2.655   3.177   2.818  1.2914 -0.0678 -0.0906
 1843SOL    MW4 7372   2.669   3.197   2.902  0.1831  0.3499  0.0037
 1844SOL     OW 7373   2.659   3.473   2.989  0.0406  0.3388  0.6358
 1844SOL    HW2 7374   2.672   3.464   3.084 -0.5986 -0.6494  0.6334
 1844SOL    HW3 7375   2.742   3.508   2.957  0.6109 -0.2798  1.4297
 1844SOL    MW4 7376   2.672   3.477   2.997  0.0315  0.1268  0.7402
 1845SOL     OW 7377   2.905   3.582   2.954 -0.1236  0.1518  0.5070
 1845SOL    HW2 7378   2.989   3.541   2.977  0.0426  0.7927  1.0621
 1845SOL    HW3 7379   2.907   3.667   2.998 -1.6519 -0.3768  1.6303
 1845SOL    MW4 7380   2.917   3.588   2.963 -0.3033  0.1666  0.7285
 1846SOL     OW 7381   2.904   3.847   3.047 -0.3336  0.0219 -0.0955
 1846SOL    HW2 7382   2.904   3.865   3.141 -0.2056 -0.9453  0.0878
 1846SOL    HW3 7383   2.821   3.883   3.016 -0.7543 -0.4118  0.5295
 1846SOL    MW4 7384   2.893   3.854   3.055 -0.3723 -0.1629  0.0111
 1847SOL     OW 7385   2.674   3.961   2.932  0.3967 -0.0707  0.1165
 1847SOL    HW2 7386   2.678   4.056   2.937  0.3038 -0.0680  0.1415
 1847SOL    HW3 7387   2.691   3.941   2.840 -1.4052  0.0656 -0.2544
 1847SOL    MW4 7388   2.677   3.971   2.920  0.1467 -0.0523  0.0709
 1848SOL     OW 7389   2.478   4.381   2.871  0.2523 -0.4078 -0.3314
 1848SOL    HW2 7390   2.400   4.328   2.883  0.9394 -1.6068 -1.0001
 1848SOL    HW3 7391   2.493   4.381   2.776  0.4913  0.6413 -0.3016
 1848SOL    MW4 7392   2.470   4.374   2.860  0.3745 -0.4276 -0.4157
 1849SOL     OW 7393   2.904   4.364   2.918 -0.4178 -0.3388 -0.3493
 1849SOL    HW2 7394   2.992   4.332   2.941 -0.1576 -0.3099 -1.2852
 1849SOL    HW3 7395   2.845   4.302   2.960  0.0351  0.2617  1.1950
 1849SOL    MW4 7396   2.908   4.352   2.926 -0.3237 -0.2558 -0.2690
 1850SOL     OW 7397   3.325   4.622   3.294 -0.2584  0.4662 -0.1453
 1850SOL    HW2 7398   3.387   4.671   3.348  0.0262  0.0409 -0.0822
 1850SOL    HW3 7399   3.349   4.644   3.204  0.7898 -0.6622 -0.1549
 1850SOL    MW4 7400   3.336   4.631   3.289 -0.0826  0.2612 -0.1383
 1851SOL     OW 7401   3.123   0.085   2.885  0.2360 -0.0594 -0.0398
 1851SOL    HW2 7402   3.116   0.179   2.903 -0.4133 -0.0334 -0.4054
 1851SOL    HW3 7403   3.207   0.060   2.921  0.8407  0.8617 -0.7772
 1851SOL    MW4 7404   3.133   0.094   2.892  0.2301  0.0656 -0.1853
 1852SOL     OW 7405   3.110   0.342   2.976  0.0303  0.2527 -0.5089
 1852SOL    HW2 7406   3.190   0.388   2.952  0.4159 -0.4859 -0.6594
 1852SOL    HW3 7407   3.040   0.395   2.938  0.5281  0.0776 -1.7034
 1852SOL    MW4 7408   3.111   0.355   2.968  0.1468  0.1321 -0.6863
 1853SOL     OW 7409   3.373   0.496   2.917  0.3681  0.1311 -0.0682
 1853SOL    HW2 7410   3.448   0.446   2.950 -0.4727 -1.4893 -0.5685
 1853SOL    HW3 7411   3.390   0.508   2.824  0.3526  0.3881 -0.0381
 1853SOL    MW4 7412   3.385   0.491   2.909  0.2552 -0.0488 -0.1302
 1854SOL     OW 7413   3.377   0.750   3.030 -0.1068  0.0467  0.1954
 1854SOL    HW2 7414   3.365   0.714   3.118 -0.8839  0.6845  0.3556
 1854SOL    HW3 7415   3.363   0.675   2.972 -1.0607 -0.0684  0.5588
 1854SOL    MW4 7416   3.374   0.735   3.034 -0.3352  0.1157  0.2645
 1855SOL     OW 7417   3.162   0.897   2.939 -0.4190  0.9797  0.9872
 1855SOL    HW2 7418   3.232   0.845   2.979 -0.6793  0.7164  1.1051
 1855SOL    HW3 7419   3.082   0.864   2.980 -0.8556 -0.4211 -0.9232
 1855SOL    MW4 7420   3.160   0.885   2.950 -0.5109  0.7601  0.7507
 1856SOL     OW 7421   3.150   1.149   3.040  0.4712  0.2726  0.1639
 1856SOL    HW2 7422   3.132   1.058   3.018  0.7484 -0.0694  1.3501
 1856SOL    HW3 7423   3.226   1.172   2.987  0.4256 -0.1900 -0.1054
 1856SOL    MW4 7424   3.157   1.140   3.030  0.5018  0.1664  0.2849
 1857SOL     OW 7425   3.388   1.259   2.936 -0.2228 -0.3378 -0.2474
 1857SOL    HW2 7426   3.463   1.224   2.985 -0.4670  0.3692  0.6529
 1857SOL    HW3 7427   3.399   1.354   2.941 -0.8662 -0.2432 -0.6123
 1857SOL    MW4 7428   3.399   1.267   2.943 -0.3399 -0.2320 -0.1768
 1858SOL     OW 7429   0.299   2.173   3.887  0.0857  0.5799 -0.1391
 1858SOL    HW2 7430   0.221   2.154   3.835  1.6517  0.1119 -2.4220
 1858SOL    HW3 7431   0.310   2.268   3.879 -0.0940  0.6115 -0.0234
 1858SOL    MW4 7432   0.290   2.183   3.879  0.2686  0.5224 -0.4251
 1859SOL     OW 7433   3.171   1.636   2.941 -0.3767 -0.4337  0.5156
 1859SOL    HW2 7434   3.247   1.592   2.979  1.0155  0.8012 -0.8383
 1859SOL    HW3 7435   3.184   1.631   2.847 -0.6745  2.0510  0.3216
 1859SOL    MW4 7436   3.182   1.629   2.934 -0.2323  0.0571  0.3114
 1860SOL     OW 7437   3.155   1.884   3.027 -0.0339 -0.4162  0.2499
 1860SOL    HW2 7438   3.153   1.791   3.003  0.0219 -0.5176  0.6296
 1860SOL    HW3 7439   3.069   1.917   3.002  0.5594 -0.1496 -1.5188
 1860SOL    MW4 7440   3.143   1.876   3.021  0.0517 -0.3944  0.0666
 1861SOL     OW 7441   3.345   2.043   2.904 -0.1293 -0.1868  0.4824
 1861SOL    HW2 7442   3.422   1.997   2.937 -1.4957 -2.9025  0.0299
 1861SOL    HW3 7443   3.270   1.995   2.941 -1.6191  1.3127 -0.4940
 1861SOL    MW4 7444   3.345   2.030   2.914 -0.5062 -0.3473  0.2938
 1862SOL     OW 7445   3.355   2.272   3.085 -0.1551  0.1837  0.3688
 1862SOL    HW2 7446   3.376   2.219   3.163  0.8761 -1.7216 -1.1362
 1862SOL    HW3 7447   3.364   2.210   3.012 -1.1895  1.9177 -1.2532
 1862SOL    MW4 7448   3.359   2.257   3.086 -0.1555  0.1611 -0.0438
 1863SOL     OW 7449   3.126   2.456   3.032  0.0419  0.0569  0.0667
 1863SOL    HW2 7450   3.202   2.401   3.053  0.9375  1.0515 -0.5066
 1863SOL    HW3 7451   3.120   2.452   2.937 -0.6236 -0.0060  0.1127
 1863SOL    MW4 7452   3.135   2.448   3.022  0.0723  0.1798 -0.0029
 1864SOL     OW 7453   3.110   2.736   3.122  0.4116  0.3135 -0.1544
 1864SOL    HW2 7454   3.119   2.735   3.217 -2.2950  0.5276  0.1148
 1864SOL    HW3 7455   3.109   2.643   3.097  1.9559  0.2582 -0.0973
 1864SOL    MW4 7456   3.111   2.723   3.131  0.2583  0.3344 -0.1114
 1865SOL     OW 7457   3.378   2.836   3.070  0.0841  0.2230  0.3545
 1865SOL    HW2 7458   3.365   2.931   3.082  0.9497  0.1335  2.1420
 1865SOL    HW3 7459   3.293   2.798   3.091 -0.4719  0.6509 -1.0742
 1865SOL    MW4 7460   3.365   2.844   3.074  0.1249  0.2677  0.4018
 1866SOL     OW 7461   3.340   3.121   3.087  0.2629  0.3132  0.0633
 1866SOL    HW2 7462   3.309   3.139   3.175 -0.7643 -0.1489 -0.1936
 1866SOL    HW3 7463   3.273   3.158   3.029 -0.1090 -1.1691 -0.4954
 1866SOL    MW4 7464   3.328   3.128   3.091  0.0783  0.0566 -0.0443
 1867SOL     OW 7465   3.099   3.225   2.977 -0.0517 -0.1649 -0.1996
 1867SOL    HW2 7466   3.024   3.174   3.007 -1.2431  2.0610  0.7587
 1867SOL    HW3 7467   3.082   3.241   2.884  0.9258 -2.4651 -0.8044
 1867SOL    MW4 7468   3.087   3.221   2.969 -0.0799 -0.1747 -0.1529
 1868SOL     OW 7469   3.154   3.501   3.057 -0.1070  0.0384  0.2039
 1868SOL    HW2 7470   3.240   3.511   3.015 -0.6768  1.5420 -0.6331
 1868SOL    HW3 7471   3.129   3.410   3.038  0.5820  0.0707 -0.9357
 1868SOL    MW4 7472   3.162   3.490   3.049 -0.0912  0.2411 -0.0569
 1869SOL     OW 7473   3.399   3.557   2.927  0.1526  0.0963 -0.2126
 1869SOL    HW2 7474   3.483   3.523   2.957  0.2990  1.2245  0.7090
 1869SOL    HW3 7475   3.392   3.643   2.968 -0.5918  0.8136 -1.7949
 1869SOL    MW4 7476   3.409   3.564   2.936  0.0737  0.3398 -0.2998
 1870SOL     OW 7477   3.362   3.843   2.986 -0.0064  0.2977  0.4422
 1870SOL    HW2 7478   3.392   3.834   3.077 -0.8668 -1.6389  0.5561
 1870SOL    HW3 7479   3.282   3.895   2.992  0.5334  1.1275  0.6543
 1870SOL    MW4 7480   3.355   3.849   2.999 -0.0487  0.1517  0.4852
 1871SOL     OW 7481   3.122   3.993   2.954 -0.5225 -0.7502  0.0046
 1871SOL    HW2 7482   3.048   3.942   2.988 -0.7502 -1.3161 -1.3274
 1871SOL    HW3 7483   3.128   3.969   2.862  1.7355 -1.1955  0.2234
 1871SOL    MW4 7484   3.113   3.983   2.946 -0.2546 -0.8836 -0.1423
 1872SOL     OW 7485   3.129   4.275   3.031  0.0967  0.7220 -0.0333
 1872SOL    HW2 7486   3.135   4.294   3.125 -0.2964  2.5062 -0.3521
 1872SOL    HW3 7487   3.116   4.180   3.027  0.1401  0.6168  1.7170
 1872SOL    MW4 7488   3.128   4.265   3.043  0.0506  0.9435  0.1555
 1873SOL     OW 7489   3.354   4.405   2.934 -0.0502 -0.1835  0.0135
 1873SOL    HW2 7490   3.423   4.352   2.973  1.4416  1.1791 -0.7381
 1873SOL    HW3 7491   3.273   4.366   2.966  1.0846  0.1577  3.5204
 1873SOL    MW4 7492   3.352   4.393   2.943  0.2964  0.0413  0.3770
 1874SOL     OW 7493   3.830   4.615   3.040 -0.1465 -0.0678 -0.0058
 1874SOL    HW2 7494   3.838   4.521   3.022 -0.9265 -0.1641  0.1218
 1874SOL    HW3 7495   3.752   4.642   2.990 -0.5573  0.2889  0.8196
 1874SOL    MW4 7496   3.821   4.606   3.031 -0.3036 -0.0335  0.1199
 1875SOL     OW 7497   3.354   0.006   3.029 -0.0081  0.3971 -0.2866
 1875SOL    HW2 7498   3.425   0.051   2.984  0.4269  0.0443  0.0374
 1875SOL    HW3 7499   3.359  -0.084   2.998  0.4975  0.0746  0.7004
 1875SOL    MW4 7500   3.364  -0.000   3.019  0.1160  0.3080 -0.1137
 1876SOL     OW 7501   3.591   0.359   2.990  0.3561 -0.0340  0.1805
 1876SOL    HW2 7502   3.595   0.338   3.083  1.8826  1.2127  0.4146
 1876SOL    HW3 7503   3.655   0.430   2.979  1.2169 -1.1211 -2.0633
 1876SOL    MW4 7504   3.600   0.366   3.001  0.6711 -0.0129 -0.0847
 1877SOL     OW 7505   3.836   0.510   2.928  0.5636 -0.1532 -0.2271
 1877SOL    HW2 7506   3.897   0.463   2.985  0.5639  0.8175  0.5820
 1877SOL    HW3 7507   3.819   0.592   2.973  0.8292  0.7909 -1.8048
 1877SOL    MW4 7508   3.842   0.515   2.941  0.5987  0.0994 -0.3285
 1878SOL     OW 7509   3.814   0.775   3.046 -0.4016  0.0435 -0.4232
 1878SOL    HW2 7510   3.833   0.762   3.139 -1.2322  1.1672 -0.0901
 1878SOL    HW3 7511   3.893   0.818   3.012 -0.7064  1.0531  0.1077
 1878SOL    MW4 7512   3.827   0.779   3.054 -0.5514  0.3250 -0.3092
 1879SOL     OW 7513   3.594   0.888   2.924  0.2002  0.0852  0.8721
 1879SOL    HW2 7514   3.674   0.851   2.960  0.6556  0.1354 -0.0690
 1879SOL    HW3 7515   3.523   0.839   2.966  0.7908 -1.9101 -0.4299
 1879SOL    MW4 7516   3.595   0.877   2.934  0.3382 -0.1715  0.5762
 1880SOL     OW 7517   3.776   1.283   2.938 -0.4420  0.2497 -0.2376
 1880SOL    HW2 7518   3.768   1.262   2.845  0.2756 -0.6065 -0.1107
 1880SOL    HW3 7519   3.790   1.377   2.940 -0.4764  0.2751 -0.9942
 1880SOL    MW4 7520   3.777   1.292   2.926 -0.3518  0.1401 -0.3207
 1881SOL     OW 7521   4.019   1.152   3.020 -0.2361 -0.4108  0.5253
 1881SOL    HW2 7522   3.931   1.188   3.003  0.0484 -0.4505 -1.1223
 1881SOL    HW3 7523   4.029   1.157   3.115 -0.2517  3.8064  0.3928
 1881SOL    MW4 7524   4.008   1.157   3.030 -0.2006  0.1404  0.2905
 1882SOL     OW 7525   3.814   1.568   3.002  0.0872  0.5453 -0.3118
 1882SOL    HW2 7526   3.793   1.561   3.096  0.4573 -0.7371 -0.3074
 1882SOL    HW3 7527   3.736   1.607   2.963  0.4062  2.2730  0.7028
 1882SOL    MW4 7528   3.801   1.572   3.010  0.1781  0.6040 -0.1773
 1883SOL     OW 7529   3.398   1.541   3.039 -0.4932  0.0599 -0.5248
 1883SOL    HW2 7530   3.383   1.559   3.132 -4.4247 -0.1542 -1.0373
 1883SOL    HW3 7531   3.459   1.609   3.011  1.6862 -0.5737  2.4350
 1883SOL    MW4 7532   3.404   1.552   3.047 -0.7244 -0.0519 -0.2019
 1884SOL     OW 7533   3.584   1.692   2.890 -0.0999 -0.2507 -0.2011
 1884SOL    HW2 7534   3.581   1.779   2.931  0.8657  0.1763 -1.0280
 1884SOL    HW3 7535   3.566   1.708   2.798  1.7851 -0.6999 -0.6777
 1884SOL    MW4 7536   3.581   1.706   2.884  0.2762 -0.2537 -0.3731
 1885SOL     OW 7537   3.836   2.028   2.923 -0.2755  0.0451  0.2505
 1885SOL    HW2 7538   3.843   2.114   2.964 -0.1142  0.3737 -0.4645
 1885SOL    HW3 7539   3.810   2.046   2.833  1.6669 -0.5228 -0.4504
 1885SOL    MW4 7540   3.834   2.042   2.917  0.0020  0.0135  0.0637
 1886SOL     OW 7541   3.778   2.267   3.082 -0.2473 -0.2758 -0.1801
 1886SOL    HW2 7542   3.781   2.280   3.177 -0.4425 -2.1757  0.1221
 1886SOL    HW3 7543   3.705   2.322   3.052  0.8064  1.5271  0.5385
 1886SOL    MW4 7544   3.769   2.276   3.091 -0.1341 -0.2886 -0.0454
 1887SOL     OW 7545   3.557   2.421   2.987  0.1035 -0.5220 -0.1321
 1887SOL    HW2 7546   3.558   2.499   3.044 -0.5748  0.9283 -2.0526
 1887SOL    HW3 7547   3.493   2.363   3.027 -0.7348  0.6904  0.3312
 1887SOL    MW4 7548   3.549   2.424   3.000 -0.0966 -0.1707 -0.3244
 1888SOL     OW 7549   3.586   2.668   3.189 -0.6556  0.4715 -0.4326
 1888SOL    HW2 7550   3.522   2.730   3.154 -0.0372  0.9915 -0.6479
 1888SOL    HW3 7551   3.671   2.707   3.168 -0.2536 -0.6977 -1.0256
 1888SOL    MW4 7552   3.589   2.681   3.182 -0.5210  0.3858 -0.5392
 1889SOL     OW 7553   3.804   2.815   3.119  0.9720 -0.3232 -0.0914
 1889SOL    HW2 7554   3.817   2.909   3.130 -1.1982  0.1065 -1.0270
 1889SOL    HW3 7555   3.802   2.802   3.024 -2.2593 -0.7826  0.0068
 1889SOL    MW4 7556   3.806   2.826   3.108  0.2593 -0.3271 -0.2019
 1890SOL     OW 7557   3.846   3.239   3.350 -0.1268 -0.1879  0.0480
 1890SOL    HW2 7558   3.833   3.206   3.261 -1.7212  1.1716 -0.2374
 1890SOL    HW3 7559   3.772   3.297   3.365  0.1364 -0.4012  2.2716
 1890SOL    MW4 7560   3.835   3.242   3.340 -0.3024 -0.0367  0.3037
 1891SOL     OW 7561   3.606   3.205   2.981  0.0256 -0.2615  0.0601
 1891SOL    HW2 7562   3.526   3.152   2.987 -0.6111  0.4638 -1.6601
 1891SOL    HW3 7563   3.624   3.210   2.887 -1.1911  4.3898 -0.0226
 1891SOL    MW4 7564   3.598   3.199   2.970 -0.2189  0.4479 -0.1778
 1892SOL     OW 7565   3.647   3.459   3.061 -0.3218  0.1468 -0.1266
 1892SOL    HW2 7566   3.704   3.502   2.996 -1.0762  0.6532 -0.4683
 1892SOL    HW3 7567   3.636   3.370   3.027 -0.9927  0.5080 -0.9002
 1892SOL    MW4 7568   3.653   3.453   3.048 -0.5099  0.2613 -0.2738
 1893SOL     OW 7569   3.835   3.638   2.910 -0.0030 -0.1537  0.7862
 1893SOL    HW2 7570   3.805   3.726   2.932  3.3223  1.2706 -0.0212
 1893SOL    HW3 7571   3.823   3.631   2.815 -1.6521 -1.1904  1.0391
 1893SOL    MW4 7572   3.829   3.649   2.901  0.2181 -0.1026  0.7130
 1894SOL     OW 7573   3.809   3.910   2.980 -0.4411 -0.4410 -0.2150
 1894SOL    HW2 7574   3.804   3.896   3.075 -1.5510 -0.7164 -0.3021
 1894SOL    HW3 7575   3.729   3.957   2.959 -0.7213 -1.3270 -1.1699
 1894SOL    MW4 7576   3.798   3.914   2.990 -0.6245 -0.5942 -0.3525
 1895SOL     OW 7577   3.559   4.028   2.919 -0.7059 -0.2234 -0.1359
 1895SOL    HW2 7578   3.491   3.965   2.943 -0.7904  0.2789  0.9539
 1895SOL    HW3 7579   3.558   4.028   2.823  0.5094 -3.1876 -0.1922
 1895SOL    MW4 7580   3.550   4.020   2.909 -0.5567 -0.5482  0.0005
 1896SOL     OW 7581   3.558   4.258   3.045  0.0220  0.0611 -0.0463
 1896SOL    HW2 7582   3.636   4.302   3.011  1.0119 -1.3930  0.3295
 1896SOL    HW3 7583   3.560   4.171   3.005  0.0033 -0.9009  1.9864
 1896SOL    MW4 7584   3.569   4.253   3.035  0.1501 -0.2577  0.2714
 1897SOL     OW 7585   3.810   4.358   2.943  0.3013 -0.2374  0.3825
 1897SOL    HW2 7586   3.877   4.302   2.980  0.5212 -0.1208  0.1636
 1897SOL    HW3 7587   3.826   4.355   2.848  1.0244  1.1057  0.4556
 1897SOL    MW4 7588   3.821   4.350   2.935  0.4257 -0.0448  0.3633
 1898SOL     OW 7589   3.838   4.187   4.593 -0.3162  0.1929  0.1884
 1898SOL    HW2 7590   3.813   4.098   4.619 -0.7267  0.1218 -0.4478
 1898SOL    HW3 7591   3.933   4.184   4.585 -0.3582 -0.2591 -0.1161
 1898SOL    MW4 7592   3.847   4.175   4.596 -0.3759  0.1239  0.0643
 1899SOL     OW 7593   4.042   0.098   2.935  0.1777  0.1829 -0.1609
 1899SOL    HW2 7594   4.119   0.046   2.957  0.2212  0.4287  0.2526
 1899SOL    HW3 7595   3.969   0.048   2.971  0.2411  0.5395  0.4466
 1899SOL    MW4 7596   4.043   0.084   2.942  0.1918  0.2624 -0.0262
 1900SOL     OW 7597   4.302   0.523   3.477  0.2646  0.0738 -0.8149
 1900SOL    HW2 7598   4.279   0.609   3.440 -0.0346 -0.3605 -1.6603
 1900SOL    HW3 7599   4.341   0.475   3.404 -0.0187 -0.6832 -0.4740
 1900SOL    MW4 7600   4.304   0.528   3.462  0.1878 -0.0834 -0.8815
 1901SOL     OW 7601   4.285   0.468   3.036 -0.4135 -0.0260  0.0709
 1901SOL    HW2 7602   4.253   0.551   3.072 -0.5200 -0.3410  0.7095
 1901SOL    HW3 7603   4.270   0.475   2.942 -0.4964  0.6468  0.1313
 1901SOL    MW4 7604   4.279   0.480   3.029 -0.4385  0.0212  0.1631
 1902SOL     OW 7605   4.228   0.725   3.022  0.1018 -0.3172 -0.8649
 1902SOL    HW2 7606   4.164   0.780   2.977 -0.3984 -0.3211 -0.1631
 1902SOL    HW3 7607   4.312   0.752   2.985  0.2815  3.5291  2.0789
 1902SOL    MW4 7608   4.230   0.736   3.011  0.0595  0.1898 -0.3839
 1903SOL     OW 7609   4.038   0.895   2.933 -0.5518 -0.0357  0.4728
 1903SOL    HW2 7610   4.028   0.987   2.961 -0.9110  0.0072  0.2090
 1903SOL    HW3 7611   4.039   0.900   2.838 -0.8771 -0.3394  0.4555
 1903SOL    MW4 7612   4.037   0.908   2.924 -0.6421 -0.0701  0.4357
 1904SOL     OW 7613   4.259   1.259   2.952  0.5729 -0.0731 -0.1642
 1904SOL    HW2 7614   4.252   1.279   2.859  1.2581 -0.3723 -0.2775
 1904SOL    HW3 7615   4.184   1.201   2.970  1.7767 -1.9526 -1.0461
 1904SOL    MW4 7616   4.248   1.254   2.942  0.8221 -0.3605 -0.2955
 1905SOL     OW 7617   4.072   2.415   4.650  0.3147 -0.2883 -0.0415
 1905SOL    HW2 7618   3.985   2.400   4.615 -0.2878  1.3328  0.7091
 1905SOL    HW3 7619   4.130   2.361   4.596 -0.8556  0.4991 -2.1151
 1905SOL    MW4 7620   4.068   2.406   4.638  0.0808  0.0295 -0.2161
 1906SOL     OW 7621   4.256   1.543   2.995 -0.6727  0.5133 -0.9209
 1906SOL    HW2 7622   4.242   1.450   2.977 -0.4896 -0.1739  2.1814
 1906SOL    HW3 7623   4.188   1.588   2.946 -1.4124 -1.3503 -1.6300
 1906SOL    MW4 7624   4.245   1.537   2.986 -0.7461  0.1768 -0.6052
 1907SOL     OW 7625   4.040   1.653   2.873 -0.0102 -0.3829 -0.1480
 1907SOL    HW2 7626   4.049   1.743   2.905  1.0683 -0.5143 -0.0820
 1907SOL    HW3 7627   3.965   1.618   2.920  0.2755  0.1146  0.6764
 1907SOL    MW4 7628   4.031   1.660   2.883  0.1698 -0.3346 -0.0305
 1908SOL     OW 7629   4.051   1.892   3.027  0.1003 -0.5636  0.4953
 1908SOL    HW2 7630   4.124   1.951   3.007 -0.2366 -1.1855 -2.7557
 1908SOL    HW3 7631   3.974   1.937   2.992 -0.4912 -1.8408  0.1486
 1908SOL    MW4 7632   4.050   1.906   3.020 -0.0222 -0.8142  0.0206
 1909SOL     OW 7633   4.310   2.023   2.956  0.3603  0.2295  0.2003
 1909SOL    HW2 7634   4.296   2.115   2.977  0.2703 -0.0129  1.2258
 1909SOL    HW3 7635   4.280   2.014   2.865  0.0579  1.1323  0.2082
 1909SOL    MW4 7636   4.305   2.034   2.947  0.3085  0.3166  0.3367
 1910SOL     OW 7637   4.246   2.276   2.996  0.0420 -0.6841  0.2447
 1910SOL    HW2 7638   4.165   2.326   2.986  0.1737 -0.6516 -0.7045
 1910SOL    HW3 7639   4.308   2.319   2.936  0.2405 -1.7971 -0.3676
 1910SOL    MW4 7640   4.244   2.288   2.986  0.0856 -0.8266  0.0387
 1911SOL     OW 7641   3.998   2.415   2.976 -0.3029  0.4081 -0.6125
 1911SOL    HW2 7642   4.010   2.481   3.043  1.5898 -1.1005  0.5783
 1911SOL    HW3 7643   3.924   2.362   3.007  0.0244  0.2346 -0.1175
 1911SOL    MW4 7644   3.990   2.416   2.989 -0.0100  0.1862 -0.3900
 1912SOL     OW 7645   4.053   2.677   3.122  0.1513  0.0433 -0.4754
 1912SOL    HW2 7646   4.091   2.728   3.193 -0.5832  0.9881 -0.7554
 1912SOL    HW3 7647   3.964   2.711   3.112  0.1484 -0.2729 -1.6607
 1912SOL    MW4 7648   4.046   2.688   3.130  0.0540  0.1262 -0.6687
 1913SOL     OW 7649   4.234   2.802   2.943 -0.1371  0.1845  0.3360
 1913SOL    HW2 7650   4.174   2.749   2.996  1.3021 -1.0223  0.7952
 1913SOL    HW3 7651   4.321   2.768   2.964  0.7023  1.7772 -0.4690
 1913SOL    MW4 7652   4.237   2.790   2.953  0.1635  0.2355  0.2903
 1914SOL     OW 7653   4.057   3.214   2.997  0.5786  0.3340 -0.6569
 1914SOL    HW2 7654   4.073   3.304   3.023  0.4477 -0.3470  2.0055
 1914SOL    HW3 7655   4.053   3.216   2.902  3.0093  2.7309 -0.7662
 1914SOL    MW4 7656   4.059   3.226   2.988  0.8820  0.5604 -0.3200
 1915SOL     OW 7657   3.837   3.095   3.114 -0.2112 -0.8553 -0.0256
 1915SOL    HW2 7658   3.906   3.145   3.071 -0.1761 -0.3416  0.6139
 1915SOL    HW3 7659   3.755   3.127   3.075 -0.2655  0.5028  1.1580
 1915SOL    MW4 7660   3.835   3.106   3.103 -0.2138 -0.6084  0.2149
 1916SOL     OW 7661   4.037   3.486   3.042  0.1472  0.7621 -0.1144
 1916SOL    HW2 7662   4.043   3.492   3.137 -1.2976 -1.8918  0.2167
 1916SOL    HW3 7663   3.971   3.551   3.018  0.3233  1.2623  0.7598
 1916SOL    MW4 7664   4.029   3.495   3.051 -0.0202  0.4780  0.0446
 1917SOL     OW 7665   4.298   3.583   2.958  0.0672  0.4745 -0.3116
 1917SOL    HW2 7666   4.285   3.673   2.989  0.5121  0.5606 -0.3776
 1917SOL    HW3 7667   4.220   3.536   2.988  0.3464  0.6255  0.6930
 1917SOL    MW4 7668   4.286   3.589   2.966  0.1628  0.5058 -0.1878
 1918SOL     OW 7669   4.264   3.846   3.036 -0.0720 -0.1117 -0.0323
 1918SOL    HW2 7670   4.194   3.901   3.001 -0.1592  0.4137  0.9542
 1918SOL    HW3 7671   4.345   3.883   3.000 -0.3165 -1.0153 -1.5711
 1918SOL    MW4 7672   4.265   3.858   3.027 -0.1158 -0.1616 -0.1052
 1919SOL     OW 7673   4.066   3.990   2.922 -0.1817  0.2577 -0.3281
 1919SOL    HW2 7674   4.070   4.084   2.938 -0.6390  0.2462 -0.1422
 1919SOL    HW3 7675   3.989   3.961   2.971  2.0894 -0.8091  2.7855
 1919SOL    MW4 7676   4.056   3.999   2.931  0.0576  0.1154  0.1073
 1920SOL     OW 7677   4.048   4.239   3.039  0.1648  0.5796  0.3120
 1920SOL    HW2 7678   4.039   4.245   3.134 -1.1376  0.5238  0.1961
 1920SOL    HW3 7679   4.135   4.274   3.022  1.2460 -1.3091  1.7064
 1920SOL    MW4 7680   4.058   4.245   3.049  0.1356  0.3230  0.4807
 1921SOL     OW 7681   4.301   4.323   2.974 -0.3066 -0.2769  0.3539
 1921SOL    HW2 7682   4.385   4.291   3.008  0.5831  1.0578 -0.5303
 1921SOL    HW3 7683   4.306   4.309   2.880  0.2117  2.6024 -0.0873
 1921SOL    MW4 7684   4.313   4.317   2.966 -0.1209  0.2791  0.1791
 1922SOL     OW 7685   0.016   4.239   3.269  0.0612 -0.4231  0.1130
 1922SOL    HW2 7686   0.012   4.158   3.320 -0.4810  0.3504  1.3239
 1922SOL    HW3 7687   0.100   4.278   3.293 -0.0612 -0.2034  0.1844
 1922SOL    MW4 7688   0.027   4.233   3.279 -0.0265 -0.2920  0.2822
 1923SOL     OW 7689   2.326   0.900   4.534  0.6036 -0.2217 -0.1421
 1923SOL    HW2 7690   2.381   0.825   4.560  1.4572  0.4189 -0.0719
 1923SOL    HW3 7691   2.383   0.953   4.478  0.1132  0.5422  0.0742
 1923SOL    MW4 7692   2.341   0.897   4.530  0.6515 -0.0364 -0.1043
 1924SOL     OW 7693   0.633   4.521   3.543  0.2417  0.1434  0.1728
 1924SOL    HW2 7694   0.619   4.572   3.463 -1.2390 -0.4340  0.0553
 1924SOL    HW3 7695   0.658   4.434   3.512  1.2967  0.3746  0.3606
 1924SOL    MW4 7696   0.634   4.516   3.528  0.1856  0.0977  0.1821
 1925SOL     OW 7697   3.556   0.069   3.396  0.1191 -0.1826 -0.0125
 1925SOL    HW2 7698   3.646   0.052   3.366  0.1024  0.0287 -0.1867
 1925SOL    HW3 7699   3.561   0.066   3.491 -0.1403 -2.5050 -0.0351
 1925SOL    MW4 7700   3.569   0.066   3.405  0.0827 -0.4611 -0.0385
 1926SOL     OW 7701   1.862   3.788   4.366 -0.0876 -0.2324 -0.0432
 1926SOL    HW2 7702   1.855   3.850   4.439  0.8503  0.5974 -0.6494
 1926SOL    HW3 7703   1.956   3.786   4.345 -0.1355 -1.6935 -0.1765
 1926SOL    MW4 7704   1.874   3.796   4.373  0.0298 -0.3157 -0.1408
 1927SOL     OW 7705   1.089   4.434   3.967  0.0548 -0.0118 -0.3433
 1927SOL    HW2 7706   0.994   4.441   3.960  0.0297 -0.2979 -0.2952
 1927SOL    HW3 7707   1.122   4.516   3.930 -0.2482  0.5359  0.5782
 1927SOL    MW4 7708   1.081   4.446   3.962  0.0115  0.0227 -0.2154
 1928SOL     OW 7709   4.049   0.938   3.465 -0.0668  0.6514 -0.2729
 1928SOL    HW2 7710   4.001   0.939   3.547  0.5056 -2.2869  0.1381
 1928SOL    HW3 7711   4.005   0.871   3.412  1.0047  0.8828 -1.4840
 1928SOL    MW4 7712   4.037   0.929   3.469  0.1501  0.2943 -0.3785
 1929SOL     OW 7713   2.432   4.602   3.746 -0.2243  0.0154  0.1481
 1929SOL    HW2 7714   2.390   4.672   3.797 -0.7509  0.0190 -0.2824
 1929SOL    HW3 7715   2.364   4.574   3.684 -0.3764 -1.6132  1.0201
 1929SOL    MW4 7716   2.417   4.608   3.745 -0.3138 -0.1990  0.2064
 1930SOL     OW 7717   3.117   0.726   3.928 -0.0675  0.5328  0.3362
 1930SOL    HW2 7718   3.068   0.765   3.855 -0.3562  0.4691  0.4968
 1930SOL    HW3 7719   3.079   0.638   3.938 -0.1556  0.6091  0.6849
 1930SOL    MW4 7720   3.105   0.720   3.919 -0.1172  0.5344  0.4034
 1931SOL     OW 7721   0.113   1.103   3.587 -0.2711 -0.4690  0.5189
 1931SOL    HW2 7722   0.103   1.107   3.492  0.5580  0.2985  0.4580
 1931SOL    HW3 7723   0.121   1.195   3.615 -0.7432 -0.6709  1.3590
 1931SOL    MW4 7724   0.112   1.116   3.578 -0.2240 -0.3944  0.6217
 1932SOL     OW 7725   1.799   2.798   3.808  0.5850 -0.2559 -0.0781
 1932SOL    HW2 7726   1.802   2.769   3.899  1.2649 -0.9270 -0.3069
 1932SOL    HW3 7727   1.783   2.718   3.758 -0.5894  0.2303 -0.4847
 1932SOL    MW4 7728   1.798   2.784   3.813  0.5198 -0.2803 -0.1619
 1933SOL     OW 7729   0.025   2.762   4.371  0.9191  0.4052  0.1866
 1933SOL    HW2 7730   0.060   2.731   4.455 -0.6495 -1.5049  0.1710
 1933SOL    HW3 7731  -0.038   2.830   4.394  1.3284  0.6834  0.4873
 1933SOL    MW4 7732   0.022   2.767   4.385  0.7661  0.1899  0.2242
 1934SOL     OW 7733   0.469   1.464   4.583  0.2161 -0.0979 -0.0210
 1934SOL    HW2 7734   0.456   1.556   4.605 -0.9101 -0.2837  0.0783
 1934SOL    HW3 7735   0.553   1.462   4.537  0.4645  0.9098  0.3842
 1934SOL    MW4 7736   0.479   1.476   4.580  0.1003  0.0105  0.0456
 1935SOL     OW 7737   0.921   0.835   3.734 -0.0420 -0.2476 -0.1523
 1935SOL    HW2 7738   0.850   0.829   3.671  1.2360  1.5424 -1.8334
 1935SOL    HW3 7739   0.908   0.919   3.778  0.8874 -0.0219 -0.2994
 1935SOL    MW4 7740   0.910   0.845   3.732  0.2492  0.0183 -0.3935
 1936SOL     OW 7741   4.388   2.535   3.836 -0.4029 -0.8228  0.1578
 1936SOL    HW2 7742   4.355   2.625   3.833 -2.8797 -1.6196  1.5493
 1936SOL    HW3 7743   4.321   2.484   3.789  1.4982 -1.8069 -1.5357
 1936SOL    MW4 7744   4.375   2.540   3.829 -0.4788 -1.0578  0.1180
 1937SOL     OW 7745   1.529   3.537   3.421 -0.6869  0.0784  0.2685
 1937SOL    HW2 7746   1.545   3.473   3.490  1.3723  0.6780  0.3850
 1937SOL    HW3 7747   1.595   3.517   3.354  0.0047  2.0330  0.3195
 1937SOL    MW4 7748   1.540   3.526   3.422 -0.3240  0.4154  0.2906
 1938SOL     OW 7749   0.154   3.075   3.307  0.0991  0.1301 -0.4038
 1938SOL    HW2 7750   0.156   2.988   3.349  1.0315  0.5374  0.4362
 1938SOL    HW3 7751   0.177   3.058   3.216  2.6880 -0.2388  0.2874
 1938SOL    MW4 7752   0.157   3.061   3.301  0.5637  0.1352 -0.2018
 1939SOL     OW 7753   4.097   4.508   3.677  0.1853  0.0870  0.5860
 1939SOL    HW2 7754   4.133   4.467   3.755  1.1425  0.6044  0.4275
 1939SOL    HW3 7755   4.166   4.567   3.647 -0.7844  1.0710  0.2536
 1939SOL    MW4 7756   4.110   4.511   3.683  0.1836  0.2851  0.5212
 1940SOL     OW 7757   2.081   1.785   4.156  0.5721  0.2674  0.2883
 1940SOL    HW2 7758   2.161   1.751   4.196  0.4504 -0.0532  0.2559
 1940SOL    HW3 7759   2.015   1.779   4.225  0.3192 -0.4489 -0.0206
 1940SOL    MW4 7760   2.083   1.780   4.171  0.5226  0.1306  0.2433
 1941SOL     OW 7761   2.632   3.154   4.089  0.0037  0.5153 -0.6277
 1941SOL    HW2 7762   2.613   3.247   4.076 -0.6994  0.4291 -0.1985
 1941SOL    HW3 7763   2.716   3.140   4.044  0.6837  1.6044  0.2790
 1941SOL    MW4 7764   2.641   3.164   4.081  0.0006  0.6476 -0.4515
 1942SOL     OW 7765   4.191   4.591   4.289  0.0463  0.1460  0.5961
 1942SOL    HW2 7766   4.249   4.570   4.363  0.2043  2.0795  1.0405
 1942SOL    HW3 7767   4.142   4.668   4.318 -1.1706 -0.1436 -0.6430
 1942SOL    MW4 7768   4.192   4.598   4.303 -0.0934  0.3629  0.4913
 1943SOL     OW 7769   0.634   1.852   4.459  0.1479  0.1728  0.1452
 1943SOL    HW2 7770   0.579   1.807   4.523 -1.4615  2.4353  0.3850
 1943SOL    HW3 7771   0.578   1.865   4.383  0.8241  1.1558 -0.1950
 1943SOL    MW4 7772   0.620   1.848   4.457  0.0248  0.6010  0.1320
 1944SOL     OW 7773   4.050   0.342   3.044 -0.0870  0.3194 -0.1557
 1944SOL    HW2 7774   4.068   0.257   3.003 -0.8315 -0.0618  0.3095
 1944SOL    HW3 7775   4.133   0.390   3.035  0.4548 -0.5805 -0.1069
 1944SOL    MW4 7776   4.064   0.337   3.037 -0.1137  0.1504 -0.0879
 1945SOL     OW 7777   2.836   0.098   4.048 -0.5043  0.5234  0.0632
 1945SOL    HW2 7778   2.930   0.104   4.067 -0.6838 -0.5087  1.3667
 1945SOL    HW3 7779   2.830   0.111   3.953  1.0824 -0.6800 -0.2259
 1945SOL    MW4 7780   2.848   0.101   4.038 -0.3186  0.2284  0.1971
 1946SOL     OW 7781   3.509   0.558   4.419 -0.1848 -0.3254  0.4174
 1946SOL    HW2 7782   3.587   0.534   4.369 -1.3117 -0.5087 -1.2809
 1946SOL    HW3 7783   3.524   0.649   4.445 -0.2160  0.2264 -1.4708
 1946SOL    MW4 7784   3.521   0.567   4.416 -0.3376 -0.2768 -0.0558
 1947SOL     OW 7785   1.460   4.368   3.423  0.1024  0.4438  0.2332
 1947SOL    HW2 7786   1.398   4.377   3.496  0.5364 -0.1472  0.6777
 1947SOL    HW3 7787   1.411   4.322   3.355  0.4393 -1.1933  1.0687
 1947SOL    MW4 7788   1.445   4.363   3.424  0.2041  0.1498  0.4021
 1948SOL     OW 7789   0.357   0.601   3.233  0.2318  0.0187  0.5324
 1948SOL    HW2 7790   0.424   0.669   3.241 -0.7843  1.1067 -0.1656
 1948SOL    HW3 7791   0.308   0.606   3.315 -1.5993  2.0292 -0.6396
 1948SOL    MW4 7792   0.360   0.611   3.245 -0.1438  0.4275  0.2857
 1949SOL     OW 7793   1.487   2.897   4.127  0.7124  0.0527  0.4132
 1949SOL    HW2 7794   1.556   2.836   4.101  0.6989  0.3746 -0.4027
 1949SOL    HW3 7795   1.418   2.883   4.062 -0.2160 -0.6456  1.5450
 1949SOL    MW4 7796   1.487   2.887   4.115  0.5881  0.0030  0.4549
 1950SOL     OW 7797   4.274   0.324   4.435  0.1767 -0.1039 -0.0043
 1950SOL    HW2 7798   4.287   0.368   4.351 -1.2870 -0.4373 -0.4087
 1950SOL    HW3 7799   4.255   0.395   4.496 -0.9492 -0.0612 -0.4016
 1950SOL    MW4 7800   4.273   0.339   4.432 -0.1649 -0.1423 -0.1101
 1951SOL     OW 7801   1.885   1.444   4.034  0.0468 -0.4197 -0.0618
 1951SOL    HW2 7802   1.811   1.386   4.053  0.3325 -0.9739 -0.6489
 1951SOL    HW3 7803   1.957   1.410   4.087 -0.0849  0.0677  0.4407
 1951SOL    MW4 7804   1.885   1.432   4.044  0.0671 -0.4285 -0.0729
 1952SOL     OW 7805   2.425   1.990   3.732 -0.0613  0.5025 -0.2043
 1952SOL    HW2 7806   2.392   2.034   3.810 -0.1764 -0.4664  0.2959
 1952SOL    HW3 7807   2.375   1.909   3.727  0.8260 -0.0309 -0.5693
 1952SOL    MW4 7808   2.414   1.985   3.742  0.0406  0.3043 -0.1864
 1953SOL     OW 7809   4.061   0.276   3.546 -0.2782 -0.3852  0.0346
 1953SOL    HW2 7810   4.016   0.203   3.589 -1.3537  0.4165  0.2776
 1953SOL    HW3 7811   4.036   0.268   3.454 -1.0416  0.1273  0.1871
 1953SOL    MW4 7812   4.052   0.265   3.540 -0.5208 -0.2118  0.0868
 1954SOL     OW 7813   2.927   1.503   4.377 -0.3331 -0.2188  0.1466
 1954SOL    HW2 7814   2.963   1.553   4.304  0.3470 -2.2421 -0.9600
 1954SOL    HW3 7815   2.893   1.423   4.337 -0.4412 -1.1214  1.9633
 1954SOL    MW4 7816   2.928   1.499   4.362 -0.2576 -0.6048  0.2403
 1955SOL     OW 7817   0.166   1.453   3.063  0.2283 -0.1067 -0.0790
 1955SOL    HW2 7818   0.178   1.376   3.008 -2.0883 -1.4392  1.1846
 1955SOL    HW3 7819   0.106   1.509   3.014  2.0876  1.0493 -1.0985
 1955SOL    MW4 7820   0.160   1.450   3.049  0.1680 -0.1300 -0.0468
 1956SOL     OW 7821   2.474   2.528   4.101  0.2598  0.3052 -0.3518
 1956SOL    HW2 7822   2.464   2.478   4.020  0.2868 -1.6796  0.8364
 1956SOL    HW3 7823   2.563   2.508   4.131 -0.4984 -0.6865  1.2807
 1956SOL    MW4 7824   2.485   2.519   4.094  0.1633 -0.0875  0.0203
 1957SOL     OW 7825   2.803   0.380   4.010  0.1997  0.0377  0.2281
 1957SOL    HW2 7826   2.777   0.430   4.087 -0.5256  0.7219 -0.4604
 1957SOL    HW3 7827   2.832   0.296   4.045  0.6470  0.6390  1.3195
 1957SOL    MW4 7828   2.804   0.376   4.025  0.1630  0.2073  0.2812
 1958SOL     OW 7829   4.458   2.147   3.362  0.3061  0.4163  0.2156
 1958SOL    HW2 7830   4.490   2.185   3.281 -0.9705 -0.5117 -0.7467
 1958SOL    HW3 7831   4.497   2.201   3.431 -0.0240  2.3479 -1.0603
 1958SOL    MW4 7832   4.467   2.159   3.361  0.0941  0.5487 -0.0797
 1959SOL     OW 7833   2.259   2.356   4.185  0.0526  0.0316  0.0023
 1959SOL    HW2 7834   2.335   2.412   4.169  0.1390  0.1115  0.6847
 1959SOL    HW3 7835   2.270   2.283   4.124 -0.7684  1.4244 -1.8773
 1959SOL    MW4 7836   2.270   2.354   4.174 -0.0443  0.2259 -0.1556
 1960SOL     OW 7837   4.286   2.436   4.091 -0.6931 -0.2202  0.3942
 1960SOL    HW2 7838   4.201   2.479   4.092 -1.2985 -1.3644 -0.2648
 1960SOL    HW3 7839   4.330   2.470   4.014 -0.3637  0.7085  0.9814
 1960SOL    MW4 7840   4.281   2.446   4.081 -0.7295 -0.2486  0.3847
 1961SOL     OW 7841   3.856   2.443   3.968  0.2609 -0.0089 -0.4736
 1961SOL    HW2 7842   3.889   2.356   3.990 -0.9536 -0.4067 -0.2011
 1961SOL    HW3 7843   3.924   2.503   3.997  1.2605 -0.8857 -0.9697
 1961SOL    MW4 7844   3.869   2.440   3.975  0.2325 -0.1771 -0.5031
 1962SOL     OW 7845   1.273   2.633   4.247 -0.5019  0.6321 -0.1334
 1962SOL    HW2 7846   1.366   2.613   4.252 -0.7602 -0.0238  2.2440
 1962SOL    HW3 7847   1.229   2.559   4.288 -1.9768  1.7057  0.2970
 1962SOL    MW4 7848   1.280   2.621   4.253 -0.7305  0.6872  0.2370
 1963SOL     OW 7849   0.358   3.486   3.312 -0.0404  0.2343  0.1559
 1963SOL    HW2 7850   0.417   3.531   3.372  1.0338 -1.2017  0.2230
 1963SOL    HW3 7851   0.271   3.514   3.338  0.3466 -0.8334  2.8411
 1963SOL    MW4 7852   0.355   3.495   3.323  0.1524 -0.0960  0.5190
 1964SOL     OW 7853   0.635   3.795   3.445  0.2489 -0.1267 -0.1919
 1964SOL    HW2 7854   0.557   3.851   3.449 -0.1518 -0.7422  1.0205
 1964SOL    HW3 7855   0.701   3.844   3.494  1.1979  1.2281 -2.7326
 1964SOL    MW4 7856   0.633   3.809   3.452  0.3213 -0.0291 -0.3671
 1965SOL     OW 7857   1.296   1.001   3.750 -0.1752 -0.0305 -0.3083
 1965SOL    HW2 7858   1.386   0.988   3.780 -0.0445  0.7233 -0.3444
 1965SOL    HW3 7859   1.285   0.938   3.679  0.1230 -0.5440  0.0956
 1965SOL    MW4 7860   1.307   0.991   3.745 -0.1186  0.0012 -0.2598
 1966SOL     OW 7861   0.643   4.255   3.465 -0.3738 -0.3336  0.1361
 1966SOL    HW2 7862   0.677   4.229   3.379 -0.4433  2.2966 -0.7335
 1966SOL    HW3 7863   0.709   4.224   3.527  0.8611 -0.1659 -1.0701
 1966SOL    MW4 7864   0.656   4.247   3.462 -0.2200  0.0356 -0.1378
 1967SOL     OW 7865   0.437   4.206   4.234  0.6630 -0.5750  0.0179
 1967SOL    HW2 7866   0.372   4.136   4.241 -0.0091  0.0917  0.4711
 1967SOL    HW3 7867   0.418   4.250   4.152 -0.1326  0.2903  0.6622
 1967SOL    MW4 7868   0.426   4.202   4.224  0.4693 -0.3729  0.1627
 1968SOL     OW 7869   0.445   4.283   3.062  0.6636  0.0992  0.3903
 1968SOL    HW2 7870   0.454   4.188   3.050  1.1071  0.1064  0.6752
 1968SOL    HW3 7871   0.385   4.310   2.992  0.6915 -0.3600  0.1865
 1968SOL    MW4 7872   0.438   4.274   3.051  0.7258  0.0396  0.4010
 1969SOL     OW 7873   4.277   4.405   3.375  0.2434  0.4688  0.1328
 1969SOL    HW2 7874   4.205   4.346   3.353  0.8518 -0.4264  0.5373
 1969SOL    HW3 7875   4.356   4.353   3.362  0.7671  1.0613  0.9338
 1969SOL    MW4 7876   4.278   4.391   3.370  0.3928  0.4289  0.2918
 1970SOL     OW 7877   3.599   1.867   3.842  0.4570  0.1805 -0.1337
 1970SOL    HW2 7878   3.653   1.865   3.922 -1.2161 -0.4130  1.0118
 1970SOL    HW3 7879   3.537   1.795   3.854 -1.2410  1.4872 -0.9641
 1970SOL    MW4 7880   3.598   1.857   3.854  0.0122  0.2746 -0.0921
 1971SOL     OW 7881   2.819   0.731   4.051 -0.0643 -0.2929  0.5945
 1971SOL    HW2 7882   2.881   0.673   4.096  0.1601 -1.7147 -1.4562
 1971SOL    HW3 7883   2.865   0.815   4.045  0.5815 -0.5717  1.4449
 1971SOL    MW4 7884   2.833   0.734   4.056  0.0505 -0.5173  0.4362
 1972SOL     OW 7885   0.340   4.369   4.013 -0.7133 -0.4143 -0.1083
 1972SOL    HW2 7886   0.283   4.436   4.051  0.7648  1.1004 -0.5375
 1972SOL    HW3 7887   0.384   4.413   3.941  0.4179 -1.8075 -0.2810
 1972SOL    MW4 7888   0.338   4.383   4.009 -0.3691 -0.3982 -0.1877
 1973SOL     OW 7889   1.084   3.765   3.946  0.0547 -0.1353 -0.7862
 1973SOL    HW2 7890   1.076   3.754   3.851 -1.0712 -0.6741 -0.6384
 1973SOL    HW3 7891   1.161   3.714   3.969  1.0762  1.0205 -1.5761
 1973SOL    MW4 7892   1.093   3.757   3.937  0.0409 -0.0539 -0.8709
 1974SOL     OW 7893   2.705   0.677   3.808  0.2800  0.0887  0.2290
 1974SOL    HW2 7894   2.717   0.589   3.770  1.2941  0.3124  0.0104
 1974SOL    HW3 7895   2.760   0.676   3.887  0.3172  0.5417  0.2055
 1974SOL    MW4 7896   2.714   0.665   3.813  0.4187  0.1779  0.1971
 1975SOL     OW 7897   3.200   2.871   4.310  0.0189 -0.3796 -0.0408
 1975SOL    HW2 7898   3.171   2.818   4.236  1.2118 -2.9835  1.2862
 1975SOL    HW3 7899   3.143   2.844   4.382  2.3093 -1.8125  1.2982
 1975SOL    MW4 7900   3.188   2.860   4.310  0.4785 -0.9122  0.3109
 1976SOL     OW 7901   0.436   1.725   4.025  0.1131  0.1056  0.3337
 1976SOL    HW2 7902   0.340   1.730   4.022  0.1807  0.9788 -0.5821
 1976SOL    HW3 7903   0.454   1.636   4.054 -0.9716 -0.2436 -0.0270
 1976SOL    MW4 7904   0.426   1.714   4.028 -0.0211  0.1748  0.1653
 1977SOL     OW 7905   0.139   1.353   3.721 -0.4620 -0.0857  0.0151
 1977SOL    HW2 7906   0.156   1.335   3.813  0.8785  0.4353 -0.1138
 1977SOL    HW3 7907   0.070   1.419   3.722 -1.7532 -1.3928  0.5842
 1977SOL    MW4 7908   0.132   1.359   3.733 -0.4555 -0.1894  0.0732
 1978SOL     OW 7909   0.711   1.205   3.425 -0.0207 -0.0173 -0.8334
 1978SOL    HW2 7910   0.715   1.289   3.379  1.0134  0.2046 -0.3413
 1978SOL    HW3 7911   0.617   1.188   3.434 -0.2382  0.6540 -1.7112
 1978SOL    MW4 7912   0.699   1.214   3.420  0.0871  0.1006 -0.8843
 1979SOL     OW 7913   1.505   1.500   3.294  0.3357 -0.1542 -0.5826
 1979SOL    HW2 7914   1.528   1.411   3.320 -0.1603 -0.2572 -0.4882
 1979SOL    HW3 7915   1.512   1.500   3.199  0.4447 -0.2605 -0.5747
 1979SOL    MW4 7916   1.509   1.489   3.285  0.2847 -0.1818 -0.5691
 1980SOL     OW 7917   0.444   0.088   3.977 -0.1240  0.3052  0.0348
 1980SOL    HW2 7918   0.351   0.075   3.956 -0.4884  0.8177  1.3097
 1980SOL    HW3 7919   0.444   0.135   4.060  1.2928 -0.1515  0.3097
 1980SOL    MW4 7920   0.432   0.092   3.985  0.0149  0.3126  0.2393
 1981SOL     OW 7921   0.631   2.141   4.477 -0.6551 -0.3615  0.1575
 1981SOL    HW2 7922   0.634   2.045   4.479 -0.0181 -0.4308 -2.5719
 1981SOL    HW3 7923   0.721   2.168   4.494 -0.6789 -0.2679  0.1372
 1981SOL    MW4 7924   0.643   2.132   4.480 -0.5742 -0.3583 -0.2053
 1982SOL     OW 7925   0.768   1.471   3.280  0.2198  0.1709 -0.2833
 1982SOL    HW2 7926   0.861   1.451   3.285 -0.3092 -2.1455  0.5744
 1982SOL    HW3 7927   0.753   1.529   3.355  0.7238 -0.4921  0.3457
 1982SOL    MW4 7928   0.778   1.476   3.290  0.2165 -0.2222 -0.0872
 1983SOL     OW 7929   0.514   1.648   3.515 -0.2041 -0.2538 -0.5837
 1983SOL    HW2 7930   0.468   1.566   3.532  0.4384 -0.6009 -0.4828
 1983SOL    HW3 7931   0.465   1.689   3.444  0.5875 -1.6406 -1.9725
 1983SOL    MW4 7932   0.502   1.643   3.508 -0.0149 -0.4826 -0.7536
 1984SOL     OW 7933   1.568   2.092   4.079 -0.1450  0.3410  0.2174
 1984SOL    HW2 7934   1.532   2.005   4.091 -0.8153  0.4827 -0.7456
 1984SOL    HW3 7935   1.598   2.094   3.988 -2.1269  1.8340 -0.4345
 1984SOL    MW4 7936   1.567   2.081   4.068 -0.4950  0.5567  0.0043
 1985SOL     OW 7937   0.016   2.795   3.395  0.3046 -0.2825  0.5341
 1985SOL    HW2 7938   0.086   2.789   3.461  0.6187  0.3042  0.2630
 1985SOL    HW3 7939  -0.063   2.813   3.446  0.5759  0.3501  0.7457
 1985SOL    MW4 7940   0.015   2.797   3.410  0.3818 -0.1216  0.5263
 1986SOL     OW 7941   4.287   2.882   3.528 -0.1711 -0.4385 -0.2533
 1986SOL    HW2 7942   4.211   2.841   3.486 -0.1042 -0.8510  0.0285
 1986SOL    HW3 7943   4.266   2.975   3.529 -2.0491 -0.8472  2.6075
 1986SOL    MW4 7944   4.274   2.889   3.523 -0.4101 -0.5468  0.1613
 1987SOL     OW 7945   4.271   3.695   3.928  0.2793 -0.3593 -0.2104
 1987SOL    HW2 7946   4.214   3.623   3.957 -0.8656  0.6786  0.1566
 1987SOL    HW3 7947   4.314   3.661   3.849 -1.0611 -1.0579 -0.6550
 1987SOL    MW4 7948   4.269   3.681   3.921 -0.0486 -0.3145 -0.2207
 1988SOL     OW 7949   3.338   3.917   4.076  1.0491  0.2763 -0.0955
 1988SOL    HW2 7950   3.298   3.976   4.140 -0.2914  0.4030 -1.0062
 1988SOL    HW3 7951   3.295   3.833   4.091 -1.0414  0.8691 -2.3357
 1988SOL    MW4 7952   3.327   3.914   4.086  0.5964  0.3712 -0.5112
 1989SOL     OW 7953   2.523   0.667   4.487  0.7352  0.1454 -0.0816
 1989SOL    HW2 7954   2.551   0.727   4.418  1.5439  0.6688  0.6893
 1989SOL    HW3 7955   2.604   0.624   4.515  0.4632  0.2109  0.8035
 1989SOL    MW4 7956   2.538   0.669   4.481  0.8060  0.2231  0.1369
 1990SOL     OW 7957   0.820   4.451   3.950  0.4123  0.6522 -0.3486
 1990SOL    HW2 7958   0.779   4.490   4.027 -1.1674  0.4366 -1.0467
 1990SOL    HW3 7959   0.804   4.514   3.880  1.2984  0.5659 -0.6249
 1990SOL    MW4 7960   0.812   4.464   3.951  0.3208  0.6124 -0.4772
 1991SOL     OW 7961   0.729   2.460   3.434 -0.2407 -0.4002  0.3831
 1991SOL    HW2 7962   0.698   2.482   3.522 -0.8296 -0.4606  0.1973
 1991SOL    HW3 7963   0.663   2.399   3.400  0.1005 -0.5486 -0.0164
 1991SOL    MW4 7964   0.716   2.455   3.441 -0.2733 -0.4277  0.3059
 1992SOL     OW 7965   0.539   0.396   3.211  0.2277  0.1013  0.6120
 1992SOL    HW2 7966   0.478   0.466   3.236 -1.4235 -0.9821 -0.3266
 1992SOL    HW3 7967   0.527   0.329   3.278  0.0420 -0.3227  0.1552
 1992SOL    MW4 7968   0.530   0.397   3.223 -0.0146 -0.0976  0.4279
 1993SOL     OW 7969   3.938   3.451   3.725 -0.2386  0.3218  0.1086
 1993SOL    HW2 7970   3.870   3.391   3.755  0.0584 -0.4799 -0.8182
 1993SOL    HW3 7971   3.989   3.471   3.804  0.7263 -2.0187  0.1010
 1993SOL    MW4 7972   3.936   3.446   3.740 -0.0721 -0.0928 -0.0147
 1994SOL     OW 7973   1.797   4.619   4.168 -0.0728  0.2269 -0.0710
 1994SOL    HW2 7974   1.778   4.712   4.153 -0.0528  0.3069  0.4153
 1994SOL    HW3 7975   1.787   4.579   4.081 -0.5533  0.5994 -0.1900
 1994SOL    MW4 7976   1.793   4.626   4.154 -0.1336  0.2866 -0.0225
 1995SOL     OW 7977   1.873   0.960   4.037  0.0943 -0.3088 -0.0904
 1995SOL    HW2 7978   1.846   0.869   4.027  2.4648 -1.1392  0.6106
 1995SOL    HW3 7979   1.868   0.997   3.949 -1.8315 -0.8321 -0.2071
 1995SOL    MW4 7980   1.869   0.953   4.024  0.1530 -0.4874 -0.0133
 1996SOL     OW 7981   1.531   0.992   3.925 -0.0561  0.1916  0.0716
 1996SOL    HW2 7982   1.548   0.917   3.982 -0.6652 -0.8754 -1.1339
 1996SOL    HW3 7983   1.616   1.013   3.886  0.0168 -0.2199  0.0042
 1996SOL    MW4 7984   1.544   0.985   3.927 -0.1269 -0.0035 -0.0963
 1997SOL     OW 7985   0.689   0.796   3.580  0.4260 -0.3058 -0.0994
 1997SOL    HW2 7986   0.629   0.849   3.633  0.5262 -0.3484  0.0583
 1997SOL    HW3 7987   0.706   0.849   3.503  1.0208  0.1683  0.3487
 1997SOL    MW4 7988   0.683   0.810   3.577  0.5177 -0.2489 -0.0195
 1998SOL     OW 7989   2.082   1.074   4.172 -0.1542 -0.0891 -0.3035
 1998SOL    HW2 7990   1.999   1.047   4.134 -1.2284  0.2150  1.7331
 1998SOL    HW3 7991   2.063   1.158   4.213  0.7410 -0.7297  1.4948
 1998SOL    MW4 7992   2.068   1.081   4.173 -0.1778 -0.1335  0.2024
 1999SOL     OW 7993   1.894   1.722   4.359 -0.2433  0.4369 -0.0334
 1999SOL    HW2 7994   1.912   1.805   4.402 -1.1274  0.8272 -0.4026
 1999SOL    HW3 7995   1.948   1.658   4.405 -0.5346  0.9950  1.0914
 1999SOL    MW4 7996   1.903   1.725   4.371 -0.3984  0.5620  0.0663
 2000SOL     OW 7997   1.059   0.470   3.295 -0.2682 -0.5584  0.7092
 2000SOL    HW2 7998   0.977   0.442   3.254  0.6868  0.4071 -1.9540
 2000SOL    HW3 7999   1.041   0.560   3.323  0.2634  0.1234 -1.0718
 2000SOL    MW4 8000   1.046   0.478   3.293 -0.0720 -0.3411  0.1229
 2001SOL     OW 8001   1.267   3.214   3.411 -0.0558  0.1306 -0.3283
 2001SOL    HW2 8002   1.358   3.184   3.410  0.2630  1.1222 -1.7620
 2001SOL    HW3 8003   1.217   3.139   3.381  0.3190 -0.3410  0.2230
 2001SOL    MW4 8004   1.273   3.200   3.407  0.0357  0.1992 -0.4447
 2002SOL     OW 8005   1.064   1.515   3.003  0.1081  0.2954  0.1923
 2002SOL    HW2 8006   1.082   1.430   2.962 -0.7347  0.5342 -0.6842
 2002SOL    HW3 8007   1.142   1.568   2.983  0.0501  0.1553 -0.4228
 2002SOL    MW4 8008   1.077   1.511   2.995 -0.0108  0.3084 -0.0045
 2003SOL     OW 8009   0.283   2.410   3.343 -0.3342 -0.0875  0.4609
 2003SOL    HW2 8010   0.315   2.493   3.378 -0.9547  0.3084  0.0941
 2003SOL    HW3 8011   0.362   2.365   3.312 -0.0008  0.3679  0.6479
 2003SOL    MW4 8012   0.298   2.415   3.343 -0.3721  0.0248  0.4371
 2004SOL     OW 8013   0.124   3.199   4.063  0.0237  1.1525  0.2739
 2004SOL    HW2 8014   0.220   3.190   4.061 -0.1897 -1.6495  1.0095
 2004SOL    HW3 8015   0.094   3.148   3.988 -1.0089  0.2854  1.2695
 2004SOL    MW4 8016   0.133   3.191   4.053 -0.1407  0.6684  0.5023
 2005SOL     OW 8017   2.176   2.671   3.351  0.0628 -0.3396  0.3269
 2005SOL    HW2 8018   2.187   2.662   3.256  1.4364 -0.8954  0.5216
 2005SOL    HW3 8019   2.170   2.581   3.383  0.8905 -0.2000  0.8976
 2005SOL    MW4 8020   2.177   2.658   3.343  0.3532 -0.3945  0.4279
 2006SOL     OW 8021   1.468   0.585   3.682 -0.1457 -0.2848  0.3325
 2006SOL    HW2 8022   1.560   0.594   3.703  0.0472  1.3746 -1.1717
 2006SOL    HW3 8023   1.428   0.552   3.763  1.6309 -0.3909  1.1795
 2006SOL    MW4 8024   1.475   0.582   3.696  0.1142 -0.0799  0.2458
 2007SOL     OW 8025   3.716   4.404   4.444 -0.0697  0.0654 -0.2426
 2007SOL    HW2 8026   3.738   4.330   4.501  0.3946 -1.1538 -1.9736
 2007SOL    HW3 8027   3.798   4.427   4.401 -0.8676 -0.5386 -2.1441
 2007SOL    MW4 8028   3.730   4.397   4.446 -0.1137 -0.1751 -0.7219
 2008SOL     OW 8029   3.225   3.664   4.127  0.0524 -0.2745 -0.0804
 2008SOL    HW2 8030   3.139   3.622   4.118  0.5673 -1.0735 -1.5215
 2008SOL    HW3 8031   3.287   3.593   4.113  0.9433  0.7581 -1.4468
 2008SOL    MW4 8032   3.222   3.649   4.124  0.2378 -0.2437 -0.4508
 2009SOL     OW 8033   3.966   3.316   4.321 -0.2536  0.6787  0.0520
 2009SOL    HW2 8034   4.032   3.375   4.357  1.7211 -1.0952 -0.5570
 2009SOL    HW3 8035   3.973   3.237   4.376 -1.2523  0.1568 -0.5578
 2009SOL    MW4 8036   3.976   3.313   4.333 -0.1248  0.3758 -0.1088
 2010SOL     OW 8037   4.126   4.194   4.555  0.1449  0.1065  0.3737
 2010SOL    HW2 8038   4.188   4.267   4.553 -0.1502  0.3700  0.7581
 2010SOL    HW3 8039   4.176   4.121   4.590 -0.0934  0.6420  1.8856
 2010SOL    MW4 8040   4.141   4.194   4.559  0.0745  0.2119  0.6239
 2011SOL     OW 8041   1.037   2.023   3.403 -0.2082 -0.3019 -0.6490
 2011SOL    HW2 8042   0.960   1.986   3.360 -0.2571 -0.9396 -0.0342
 2011SOL    HW3 8043   1.018   2.014   3.497  1.4192 -2.1931 -0.4740
 2011SOL    MW4 8044   1.024   2.017   3.410  0.0000 -0.6355 -0.5448
 2012SOL     OW 8045   1.024   3.870   3.317  0.5616 -0.2855 -0.3300
 2012SOL    HW2 8046   0.934   3.885   3.290 -0.2260 -1.7036  1.4847
 2012SOL    HW3 8047   1.072   3.861   3.234 -1.2051 -1.0289 -1.3065
 2012SOL    MW4 8048   1.019   3.871   3.303  0.2246 -0.5707 -0.2194
 2013SOL     OW 8049   1.425   3.973   3.318  0.0644 -0.3502 -0.0779
 2013SOL    HW2 8050   1.504   3.942   3.362  2.1519  2.0731 -1.9262
 2013SOL    HW3 8051   1.433   3.942   3.228 -1.5276 -0.8143 -0.0750
 2013SOL    MW4 8052   1.437   3.965   3.312  0.1298 -0.0917 -0.3214
 2014SOL     OW 8053   1.516   3.885   3.080 -0.3428  0.0751 -0.1342
 2014SOL    HW2 8054   1.510   3.799   3.038 -0.8608  0.5364 -1.0433
 2014SOL    HW3 8055   1.609   3.907   3.076 -0.3293 -0.0701 -0.6877
 2014SOL    MW4 8056   1.528   3.876   3.074 -0.4094  0.1168 -0.3272
 2015SOL     OW 8057   0.821   4.196   3.662 -0.4064  0.0277 -0.5199
 2015SOL    HW2 8058   0.886   4.267   3.657 -0.1221 -0.3091 -2.0784
 2015SOL    HW3 8059   0.802   4.187   3.755 -1.3047  2.9341 -0.3716
 2015SOL    MW4 8060   0.827   4.204   3.673 -0.4874  0.3667 -0.7060
 2016SOL     OW 8061   1.053   4.280   3.355  0.2213 -0.2435  0.0627
 2016SOL    HW2 8062   1.136   4.257   3.315  0.6148  0.3876  0.5105
 2016SOL    HW3 8063   1.036   4.370   3.326  0.6090  0.2931  1.4513
 2016SOL    MW4 8064   1.061   4.289   3.346  0.3244 -0.0894  0.3050
 2017SOL     OW 8065   3.947   2.120   4.661  0.4423 -0.0202 -0.3787
 2017SOL    HW2 8066   3.997   2.186   4.708  0.0435 -0.4969  0.7506
 2017SOL    HW3 8067   3.867   2.166   4.634  0.8901  0.3862 -1.0385
 2017SOL    MW4 8068   3.943   2.135   4.663  0.4488 -0.0295 -0.3168
 2018SOL     OW 8069   0.104   0.345   3.920  0.3418 -0.2463 -0.5555
 2018SOL    HW2 8070   0.153   0.358   3.839 -1.2173  0.3923 -1.4324
 2018SOL    HW3 8071   0.033   0.410   3.916 -1.6949 -2.3571 -0.2598
 2018SOL    MW4 8072   0.101   0.356   3.909 -0.1326 -0.4406 -0.6322
 2019SOL     OW 8073   3.441   4.116   4.383  0.2464 -0.1076 -0.2856
 2019SOL    HW2 8074   3.526   4.099   4.343  0.6122 -0.7873  0.7374
 2019SOL    HW3 8075   3.457   4.189   4.442  0.6386 -1.5260  1.4319
 2019SOL    MW4 8076   3.454   4.123   4.386  0.3464 -0.3845  0.0760
 2020SOL     OW 8077   2.194   0.353   3.250 -0.2495 -0.1988 -0.3135
 2020SOL    HW2 8078   2.129   0.402   3.300 -1.6689 -2.9491  0.6353
 2020SOL    HW3 8079   2.275   0.363   3.299 -0.2828  1.9472 -0.6547
 2020SOL    MW4 8080   2.196   0.361   3.263 -0.4411 -0.2785 -0.2333
 2021SOL     OW 8081   2.498   2.101   4.198  0.0769 -0.0096 -0.7341
 2021SOL    HW2 8082   2.537   2.163   4.259 -0.9332 -1.0682  1.0359
 2021SOL    HW3 8083   2.573   2.059   4.156  0.8153  0.0878  0.4495
 2021SOL    MW4 8084   2.513   2.103   4.201  0.0411 -0.1364 -0.3444
 2022SOL     OW 8085   2.494   4.202   4.164 -0.5869 -0.1298  0.3264
 2022SOL    HW2 8086   2.428   4.208   4.234 -0.0868 -2.0587  0.9970
 2022SOL    HW3 8087   2.577   4.200   4.211 -0.1994 -0.4734 -0.3778
 2022SOL    MW4 8088   2.496   4.203   4.180 -0.4698 -0.4297  0.3220
 2023SOL     OW 8089   2.322   2.298   4.477 -0.2952 -0.4524  0.0398
 2023SOL    HW2 8090   2.266   2.345   4.539  0.6349 -0.3380  0.8176
 2023SOL    HW3 8091   2.288   2.320   4.391 -1.1563 -0.0192  0.4875
 2023SOL    MW4 8092   2.310   2.307   4.474 -0.2861 -0.3802  0.2015
 2024SOL     OW 8093   2.095   0.681   3.268  0.0710 -0.6868  0.1822
 2024SOL    HW2 8094   2.098   0.692   3.173  1.9762 -1.7253  0.0950
 2024SOL    HW3 8095   2.172   0.727   3.301 -0.3691 -0.6540  1.2045
 2024SOL    MW4 8096   2.105   0.688   3.260  0.2643 -0.8195  0.3056
 2025SOL     OW 8097   1.974   0.463   3.381  0.0362 -0.7289  0.0171
 2025SOL    HW2 8098   2.008   0.545   3.344 -0.7961 -1.3115 -2.1529
 2025SOL    HW3 8099   1.880   0.466   3.364  0.0253 -2.2195 -0.2614
 2025SOL    MW4 8100   1.966   0.475   3.374 -0.0751 -1.0025 -0.3059
 2026SOL     OW 8101   0.995   0.055   4.471  0.0440  0.1067 -0.1437
 2026SOL    HW2 8102   0.941   0.112   4.526 -0.2517 -0.0536 -0.2631
 2026SOL    HW3 8103   0.948   0.053   4.387  1.6958  2.2493 -1.1946
 2026SOL    MW4 8104   0.982   0.063   4.467  0.2229  0.3683 -0.2981
 2027SOL     OW 8105   1.753   0.916   4.456  0.0566 -0.2257  0.2435
 2027SOL    HW2 8106   1.846   0.938   4.449 -0.1259  0.5349  0.1548
 2027SOL    HW3 8107   1.720   0.975   4.525 -1.2784  2.5024 -2.6229
 2027SOL    MW4 8108   1.761   0.927   4.464 -0.1436  0.2346 -0.1464
 2028SOL     OW 8109   1.746   1.477   3.679 -0.2949  0.4704 -0.0990
 2028SOL    HW2 8110   1.729   1.513   3.592  1.1885  1.6302  0.0731
 2028SOL    HW3 8111   1.726   1.548   3.740 -0.0084  0.1148  0.4202
 2028SOL    MW4 8112   1.741   1.491   3.676 -0.0614  0.5765 -0.0078
 2029SOL     OW 8113   1.039   4.571   3.289  0.5424 -0.2732  0.9865
 2029SOL    HW2 8114   1.033   4.602   3.199  0.0702 -1.8966  0.4260
 2029SOL    HW3 8115   1.117   4.612   3.324  1.4996 -0.6987 -0.6045
 2029SOL    MW4 8116   1.048   4.580   3.282  0.6064 -0.5435  0.7026
 2030SOL     OW 8117   1.828   4.345   4.419  0.3493 -0.2544  0.1671
 2030SOL    HW2 8118   1.753   4.401   4.403  0.0900 -0.6453  0.0036
 2030SOL    HW3 8119   1.903   4.405   4.421 -0.2006  0.3865  2.3981
 2030SOL    MW4 8120   1.828   4.360   4.417  0.2425 -0.2214  0.4398
 2031SOL     OW 8121   0.802   1.683   3.509 -0.7210  0.0578 -0.1444
 2031SOL    HW2 8122   0.709   1.669   3.523 -0.4553 -1.7573 -0.0452
 2031SOL    HW3 8123   0.835   1.714   3.594 -0.9891 -0.6687  0.2271
 2031SOL    MW4 8124   0.794   1.685   3.522 -0.7213 -0.2776 -0.0823
 2032SOL     OW 8125   0.879   3.438   3.018 -0.3295  0.0906 -0.3398
 2032SOL    HW2 8126   0.868   3.416   3.111 -0.4272 -1.1468 -0.6360
 2032SOL    HW3 8127   0.884   3.353   2.974  0.1370  0.6743 -1.4214
 2032SOL    MW4 8128   0.878   3.424   3.025 -0.2808  0.0044 -0.5216
 2033SOL     OW 8129   1.995   2.150   4.539 -0.3560  0.0373  0.2439
 2033SOL    HW2 8130   1.931   2.101   4.487  0.4019 -0.4085 -0.2914
 2033SOL    HW3 8131   2.077   2.102   4.527 -0.0904  0.1190  1.5889
 2033SOL    MW4 8132   1.997   2.137   4.531 -0.2210 -0.0107  0.3507
 2034SOL     OW 8133   1.049   1.446   3.285  0.0727  0.2572  0.1518
 2034SOL    HW2 8134   1.102   1.502   3.341  1.0751 -0.4420 -0.0725
 2034SOL    HW3 8135   1.075   1.470   3.196 -0.0898  0.0149  0.0363
 2034SOL    MW4 8136   1.060   1.456   3.280  0.1835  0.1330  0.1070
 2035SOL     OW 8137   2.446   0.618   4.011  0.0458 -0.0588  0.2201
 2035SOL    HW2 8138   2.450   0.691   3.949 -0.7804 -1.8359 -1.9825
 2035SOL    HW3 8139   2.355   0.617   4.040 -0.1152 -0.6267 -0.2906
 2035SOL    MW4 8140   2.434   0.627   4.006 -0.0845 -0.3682 -0.1379
 2036SOL     OW 8141   3.763   4.102   3.621 -0.1983 -0.4143 -0.3251
 2036SOL    HW2 8142   3.813   4.182   3.635 -0.2842 -0.2187 -1.1212
 2036SOL    HW3 8143   3.828   4.039   3.589 -0.2302 -0.5113 -0.1982
 2036SOL    MW4 8144   3.779   4.104   3.618 -0.2138 -0.4013 -0.4134
 2037SOL     OW 8145   1.796   3.463   3.321  0.0385 -0.4331 -0.0386
 2037SOL    HW2 8146   1.782   3.489   3.230  1.2898 -1.3729 -0.5170
 2037SOL    HW3 8147   1.878   3.505   3.346  0.1708 -0.9267  0.3632
 2037SOL    MW4 8148   1.805   3.472   3.312  0.2211 -0.6222 -0.0487
 2038SOL     OW 8149   0.375   0.476   3.905 -0.0616  0.1580 -0.3292
 2038SOL    HW2 8150   0.349   0.432   3.824 -0.3145  1.4026 -0.9285
 2038SOL    HW3 8151   0.422   0.554   3.876  1.9462 -0.6118  0.7275
 2038SOL    MW4 8152   0.378   0.480   3.890  0.1700  0.2206 -0.2689
 2039SOL     OW 8153   2.327   0.495   4.380 -0.1276 -0.3018  0.4150
 2039SOL    HW2 8154   2.392   0.551   4.424 -0.6272 -0.1803  1.0024
 2039SOL    HW3 8155   2.257   0.555   4.354 -0.0454 -0.4466 -0.1466
 2039SOL    MW4 8156   2.326   0.511   4.382 -0.1827 -0.3048  0.4184
 2040SOL     OW 8157   1.550   0.130   3.558 -0.1002  0.0033  0.4289
 2040SOL    HW2 8158   1.545   0.222   3.533 -0.5208 -0.0549  0.2830
 2040SOL    HW3 8159   1.641   0.116   3.583  0.1009  0.3105 -0.1193
 2040SOL    MW4 8160   1.561   0.141   3.558 -0.1292  0.0361  0.3373
 2041SOL     OW 8161   1.798   4.651   3.341 -0.8951 -0.3585 -0.1988
 2041SOL    HW2 8162   1.866   4.707   3.302 -2.0076  0.9721 -0.2537
 2041SOL    HW3 8163   1.846   4.578   3.379  0.4371 -0.3727 -1.8325
 2041SOL    MW4 8164   1.813   4.649   3.341 -0.8661 -0.1848 -0.4216
 2042SOL     OW 8165   2.728   0.906   3.368  0.2055  0.0857  0.5566
 2042SOL    HW2 8166   2.717   0.997   3.340 -1.0430 -0.2082  0.0646
 2042SOL    HW3 8167   2.726   0.910   3.463  1.3039  0.7038  0.5657
 2042SOL    MW4 8168   2.727   0.919   3.377  0.1857  0.1284  0.4929
 2043SOL     OW 8169   0.402   1.908   4.816 -0.0528 -0.6693  0.1300
 2043SOL    HW2 8170   0.401   1.959   4.897  2.8422 -0.2527 -0.0609
 2043SOL    HW3 8171   0.408   1.974   4.747 -0.0533 -1.1175 -0.2965
 2043SOL    MW4 8172   0.403   1.924   4.818  0.3291 -0.6734  0.0485
 2044SOL     OW 8173   2.001   4.605   3.800 -0.4114 -0.0629  0.4895
 2044SOL    HW2 8174   2.000   4.533   3.863 -0.2989  0.6911  1.3585
 2044SOL    HW3 8175   2.063   4.577   3.733 -1.8352 -1.6317 -0.1962
 2044SOL    MW4 8176   2.009   4.592   3.800 -0.5844 -0.1704  0.5137
 2045SOL     OW 8177   0.677   4.249   4.344 -0.0918  0.0650  0.8375
 2045SOL    HW2 8178   0.593   4.214   4.313  0.0012  1.4716 -1.0918
 2045SOL    HW3 8179   0.743   4.192   4.306 -0.1517 -1.1853  2.5500
 2045SOL    MW4 8180   0.674   4.237   4.335 -0.0874  0.0856  0.8089
 2046SOL     OW 8181   0.244   0.364   3.675 -0.3810  0.4755 -0.5074
 2046SOL    HW2 8182   0.170   0.424   3.664 -0.2573  0.6352 -0.4524
 2046SOL    HW3 8183   0.233   0.300   3.605 -1.0485  0.0155  0.0082
 2046SOL    MW4 8184   0.232   0.363   3.664 -0.4527  0.4359 -0.4321
 2047SOL     OW 8185   2.777   2.784   4.070  0.1337  0.0681  0.1403
 2047SOL    HW2 8186   2.739   2.721   4.010  0.3163 -0.4317  0.5460
 2047SOL    HW3 8187   2.719   2.781   4.147  0.0088  0.5634  0.0701
 2047SOL    MW4 8188   2.764   2.776   4.073  0.1413  0.0675  0.1845
 2048SOL     OW 8189   2.034   2.499   4.221 -0.7714  0.1395  0.1388
 2048SOL    HW2 8190   2.115   2.452   4.239 -0.9728 -0.7324 -1.0983
 2048SOL    HW3 8191   2.061   2.576   4.172 -0.8518 -1.3382 -2.3163
 2048SOL    MW4 8192   2.048   2.503   4.217 -0.8086 -0.1705 -0.3483
 2049SOL     OW 8193   3.722   1.906   4.090 -0.1570 -0.2364 -0.0367
 2049SOL    HW2 8194   3.669   1.859   4.154 -1.1871 -1.3783 -1.6801
 2049SOL    HW3 8195   3.700   1.998   4.102 -1.0313 -0.5268  0.6073
 2049SOL    MW4 8196   3.712   1.912   4.100 -0.4083 -0.4254 -0.1686
 2050SOL     OW 8197   2.915   2.044   3.408 -0.4301 -0.5483 -0.0896
 2050SOL    HW2 8198   2.927   2.070   3.499 -1.9981  1.0375 -0.2924
 2050SOL    HW3 8199   2.832   1.996   3.408 -1.2696  0.8714 -0.9226
 2050SOL    MW4 8200   2.905   2.041   3.420 -0.7478 -0.1517 -0.2263
 2051SOL     OW 8201   1.241   1.508   3.623  0.5217  0.0461 -0.1887
 2051SOL    HW2 8202   1.274   1.419   3.634  0.4907  0.0466 -0.0934
 2051SOL    HW3 8203   1.149   1.503   3.647  0.9195  0.4493  1.4531
 2051SOL    MW4 8204   1.234   1.496   3.627  0.5701  0.0994  0.0405
 2052SOL     OW 8205   0.528   1.468   4.158 -0.1463 -0.1014  0.0031
 2052SOL    HW2 8206   0.591   1.480   4.229 -1.2974  0.1987  0.9932
 2052SOL    HW3 8207   0.538   1.376   4.133  0.8071 -0.0093  0.0216
 2052SOL    MW4 8208   0.537   1.457   4.164 -0.1724 -0.0496  0.1361
 2053SOL     OW 8209   2.169   1.604   3.452  0.4157 -0.2779  0.1686
 2053SOL    HW2 8210   2.242   1.545   3.436  1.5951  0.7754  1.5264
 2053SOL    HW3 8211   2.195   1.686   3.409  0.2811  0.2592  1.0908
 2053SOL    MW4 8212   2.182   1.607   3.444  0.5535 -0.0680  0.4694
 2054SOL     OW 8213   3.659   2.164   4.162  0.5780 -0.6845  0.7931
 2054SOL    HW2 8214   3.664   2.149   4.257 -2.8874 -0.9220  0.9931
 2054SOL    HW3 8215   3.634   2.256   4.154  0.7324 -0.7036  0.1047
 2054SOL    MW4 8216   3.657   2.174   4.173  0.1412 -0.7184  0.7286
 2055SOL     OW 8217   1.943   3.206   3.283  0.0730  0.3076 -0.4633
 2055SOL    HW2 8218   1.902   3.288   3.310  0.3875  0.4796 -0.5111
 2055SOL    HW3 8219   2.034   3.213   3.313  0.5340  0.6607 -1.8753
 2055SOL    MW4 8220   1.950   3.218   3.290  0.1753  0.3769 -0.6559
 2056SOL     OW 8221   1.499   4.627   3.293  0.1462  0.1642  0.5159
 2056SOL    HW2 8222   1.483   4.536   3.319 -0.9681  0.5668  1.2862
 2056SOL    HW3 8223   1.580   4.651   3.338 -0.2009 -0.0817  1.2951
 2056SOL    MW4 8224   1.507   4.618   3.303 -0.0466  0.1848  0.7203
 2057SOL     OW 8225   2.415   2.302   3.337  0.1901 -0.0158  0.5492
 2057SOL    HW2 8226   2.416   2.214   3.376  1.3355 -0.4114 -0.3437
 2057SOL    HW3 8227   2.490   2.347   3.377  0.6236 -0.0167 -0.2344
 2057SOL    MW4 8228   2.425   2.296   3.347  0.3984 -0.0681  0.3280
 2058SOL     OW 8229   3.420   1.294   3.426 -0.0153  0.1113  0.2131
 2058SOL    HW2 8230   3.433   1.319   3.517  0.9585  0.0549  0.0930
 2058SOL    HW3 8231   3.399   1.376   3.382  0.8834  0.3562  0.2384
 2058SOL    MW4 8232   3.419   1.308   3.432  0.2318  0.1362  0.2006
 2059SOL     OW 8233   2.731   3.065   4.327 -0.3498  0.1878 -0.5170
 2059SOL    HW2 8234   2.703   3.102   4.243  0.1263 -0.4344 -0.9525
 2059SOL    HW3 8235   2.820   3.036   4.312  0.5540  2.1011  0.8494
 2059SOL    MW4 8236   2.739   3.066   4.314 -0.1678  0.3582 -0.3942
 2060SOL     OW 8237   2.221   3.208   3.419 -0.2291  0.0910 -0.8152
 2060SOL    HW2 8238   2.276   3.153   3.363 -0.5984 -0.3528 -0.7510
 2060SOL    HW3 8239   2.250   3.297   3.401  0.2869 -0.1141 -1.0235
 2060SOL    MW4 8240   2.232   3.212   3.409 -0.2097  0.0054 -0.8342
 2061SOL     OW 8241   1.107   0.034   3.841  0.0852  0.1483  0.2550
 2061SOL    HW2 8242   1.170   0.088   3.794 -0.6321  0.7436 -0.0277
 2061SOL    HW3 8243   1.048   0.097   3.883 -0.2067 -0.4005  0.6740
 2061SOL    MW4 8244   1.107   0.049   3.840 -0.0480  0.1544  0.2730
 2062SOL     OW 8245   2.212   4.061   3.412  0.0304 -0.5446  0.1518
 2062SOL    HW2 8246   2.176   4.140   3.370  0.8234 -0.5453 -0.5296
 2062SOL    HW3 8247   2.228   4.088   3.502  0.1994  0.0469 -0.0489
 2062SOL    MW4 8248   2.209   4.075   3.418  0.1573 -0.4667  0.0354
 2063SOL     OW 8249   3.319   4.227   4.027 -0.3379  0.5931 -0.3562
 2063SOL    HW2 8250   3.377   4.179   3.967  0.6908  0.4782  0.7067
 2063SOL    HW3 8251   3.376   4.291   4.069 -1.0909  0.8188  0.3380
 2063SOL    MW4 8252   3.334   4.229   4.025 -0.3015  0.6077 -0.1243
 2064SOL     OW 8253   0.338   3.355   3.792  0.1633 -0.1647 -0.3552
 2064SOL    HW2 8254   0.370   3.281   3.740  1.7790 -0.2001  0.6465
 2064SOL    HW3 8255   0.358   3.332   3.882 -1.1918  0.5982  0.1540
 2064SOL    MW4 8256   0.345   3.342   3.797  0.1977 -0.0687 -0.1558
 2065SOL     OW 8257   2.689   4.216   2.988 -0.0382 -0.2506  0.2658
 2065SOL    HW2 8258   2.667   4.226   3.081  0.2101  1.4045  0.1561
 2065SOL    HW3 8259   2.625   4.270   2.942 -1.6068 -2.8325 -0.7264
 2065SOL    MW4 8260   2.677   4.224   2.994 -0.2124 -0.3729  0.1204
 2066SOL     OW 8261   1.662   1.032   4.222  0.0103 -0.1460  0.3454
 2066SOL    HW2 8262   1.695   1.007   4.308  0.7431  1.9271  0.6771
 2066SOL    HW3 8263   1.737   1.022   4.163 -0.6686 -2.2304 -0.2084
 2066SOL    MW4 8264   1.676   1.027   4.225  0.0174 -0.1475  0.3161
 2067SOL     OW 8265   2.235   0.070   3.449  0.6013 -0.1066 -0.3545
 2067SOL    HW2 8266   2.239   0.139   3.515  1.5691 -0.4009 -0.1004
 2067SOL    HW3 8267   2.310   0.087   3.392  0.7103 -0.8194 -0.4283
 2067SOL    MW4 8268   2.245   0.082   3.450  0.7434 -0.2395 -0.3307
 2068SOL     OW 8269   3.052   0.810   3.639 -0.0151  0.7070 -0.2694
 2068SOL    HW2 8270   2.960   0.832   3.623 -0.2869  0.6751  1.1337
 2068SOL    HW3 8271   3.094   0.819   3.554 -1.0608  2.0095 -0.6711
 2068SOL    MW4 8272   3.045   0.814   3.626 -0.1889  0.8746 -0.1373
 2069SOL     OW 8273   0.329   1.474   4.343 -0.7234  0.2056  0.1251
 2069SOL    HW2 8274   0.372   1.488   4.427  0.6835 -1.3191 -0.3168
 2069SOL    HW3 8275   0.401   1.469   4.280 -1.8307  3.4529 -1.5308
 2069SOL    MW4 8276   0.345   1.475   4.346 -0.6839  0.4329 -0.1517
 2070SOL     OW 8277   2.312   2.134   3.994  0.3402 -0.4963  0.2612
 2070SOL    HW2 8278   2.355   2.212   3.959 -0.2898 -0.6674 -0.9100
 2070SOL    HW3 8279   2.369   2.105   4.065  1.0641  0.4846  0.0929
 2070SOL    MW4 8280   2.325   2.141   3.999  0.3526 -0.3894  0.0845
 2071SOL     OW 8281   2.945   0.720   3.313  0.1158 -0.0340  0.3838
 2071SOL    HW2 8282   2.873   0.780   3.330 -0.0273 -0.3701  0.9652
 2071SOL    HW3 8283   3.024   0.773   3.323 -0.0522  0.4300 -0.6389
 2071SOL    MW4 8284   2.946   0.735   3.317  0.0748 -0.0171  0.3256
 2072SOL     OW 8285   0.438   3.139   3.660 -0.2833 -0.2016 -0.1064
 2072SOL    HW2 8286   0.423   3.152   3.566  1.4826 -0.0124 -0.3842
 2072SOL    HW3 8287   0.529   3.109   3.665 -0.7191 -1.3217  1.4631
 2072SOL    MW4 8288   0.448   3.137   3.648 -0.1078 -0.3244  0.0640
 2073SOL     OW 8289   0.255   4.011   4.159  0.2659 -0.2872  0.0408
 2073SOL    HW2 8290   0.201   4.042   4.086  0.5421  0.1504  0.0231
 2073SOL    HW3 8291   0.290   3.927   4.130  0.5169 -0.0293 -0.3965
 2073SOL    MW4 8292   0.252   4.004   4.146  0.3354 -0.1954 -0.0193
 2074SOL     OW 8293   0.860   1.758   3.754 -0.0599 -0.0099 -0.5525
 2074SOL    HW2 8294   0.782   1.801   3.789 -1.3523 -0.8719 -2.3060
 2074SOL    HW3 8295   0.928   1.825   3.760 -1.5723  1.6747 -1.4514
 2074SOL    MW4 8296   0.858   1.773   3.759 -0.4300  0.0987 -0.9024
 2075SOL     OW 8297   3.986   2.191   4.007  0.1387  0.1586  0.0391
 2075SOL    HW2 8298   4.027   2.121   3.956 -0.0011  0.0609  0.0606
 2075SOL    HW3 8299   4.046   2.207   4.080  0.3704  0.3402 -0.1900
 2075SOL    MW4 8300   3.999   2.184   4.010  0.1508  0.1697  0.0117
 2076SOL     OW 8301   2.292   1.094   3.322 -0.2645 -0.1677  0.4059
 2076SOL    HW2 8302   2.370   1.139   3.355 -0.1071  1.6289 -2.2391
 2076SOL    HW3 8303   2.316   1.002   3.322  1.8243  0.3395 -0.1536
 2076SOL    MW4 8304   2.305   1.088   3.326  0.0319  0.1363 -0.0169
 2077SOL     OW 8305   2.437   1.514   3.347  0.0302  0.3791 -0.1470
 2077SOL    HW2 8306   2.441   1.514   3.251 -1.5055  1.9560 -0.2308
 2077SOL    HW3 8307   2.500   1.580   3.374 -0.7167  1.0979 -0.1440
 2077SOL    MW4 8308   2.446   1.522   3.338 -0.2709  0.6820 -0.1577
 2078SOL     OW 8309   0.724   1.129   4.351 -0.0546 -0.2984 -0.0305
 2078SOL    HW2 8310   0.789   1.059   4.360  1.5081  0.9958 -1.0205
 2078SOL    HW3 8311   0.666   1.097   4.282  1.6985  0.1148 -1.7554
 2078SOL    MW4 8312   0.725   1.115   4.343  0.3829 -0.0731 -0.3887
 2079SOL     OW 8313   1.387   1.113   3.298 -0.0010  0.0299  0.0104
 2079SOL    HW2 8314   1.327   1.158   3.357 -0.2618 -0.5944  0.2255
 2079SOL    HW3 8315   1.470   1.160   3.307  0.2222 -0.6331  1.5973
 2079SOL    MW4 8316   1.390   1.125   3.307 -0.0060 -0.1399  0.2481
 2080SOL     OW 8317   0.114   1.911   3.309  0.4326 -0.2872 -0.3269
 2080SOL    HW2 8318   0.059   1.981   3.346  1.4452  0.6200 -0.5117
 2080SOL    HW3 8319   0.084   1.903   3.219  0.6691  0.2788 -0.4588
 2080SOL    MW4 8320   0.103   1.919   3.302  0.5974 -0.0928 -0.3687
 2081SOL     OW 8321   2.722   2.452   4.255  0.5014  0.0957 -0.0557
 2081SOL    HW2 8322   2.764   2.524   4.301 -0.2736  1.9561 -2.1989
 2081SOL    HW3 8323   2.792   2.413   4.202  0.3832  0.7693 -0.7051
 2081SOL    MW4 8324   2.737   2.456   4.254  0.3836  0.4300 -0.4241
 2082SOL     OW 8325   2.884   3.064   3.054 -0.1393 -0.1250  0.0463
 2082SOL    HW2 8326   2.908   2.983   3.009  0.7004  0.7788 -1.1898
 2082SOL    HW3 8327   2.808   3.096   3.006 -0.3629 -0.0976  0.4215
 2082SOL    MW4 8328   2.877   3.057   3.042 -0.0580 -0.0022 -0.0673
 2083SOL     OW 8329   1.296   4.223   3.262 -0.3580  0.3628 -0.2053
 2083SOL    HW2 8330   1.309   4.251   3.171 -1.2793 -1.1730 -0.8357
 2083SOL    HW3 8331   1.345   4.141   3.269 -0.7524  0.1843  0.5265
 2083SOL    MW4 8332   1.304   4.216   3.251 -0.5316  0.1366 -0.1920
 2084SOL     OW 8333   1.004   3.698   4.401 -0.3924  0.1003  0.1089
 2084SOL    HW2 8334   1.061   3.765   4.438 -0.6861 -0.0736  0.8957
 2084SOL    HW3 8335   0.947   3.745   4.340  0.0165  0.4137 -0.0291
 2084SOL    MW4 8336   1.004   3.713   4.398 -0.3772  0.1187  0.1945
 2085SOL     OW 8337   0.909   2.892   3.675  0.1907 -0.5092 -0.0405
 2085SOL    HW2 8338   0.960   2.873   3.597  0.3165 -1.0943  0.1743
 2085SOL    HW3 8339   0.838   2.949   3.646 -0.5065 -1.7497 -0.8262
 2085SOL    MW4 8340   0.906   2.897   3.661  0.1153 -0.7501 -0.1159
 2086SOL     OW 8341   0.027   0.337   3.310 -0.1188 -0.3889  0.1675
 2086SOL    HW2 8342  -0.043   0.283   3.347 -0.5759 -0.5120 -0.8688
 2086SOL    HW3 8343   0.107   0.302   3.349 -0.2905 -2.5700 -1.3398
 2086SOL    MW4 8344   0.028   0.325   3.320 -0.2018 -0.6929 -0.1681
 2087SOL     OW 8345   3.825   0.033   3.313  0.3910  0.3081  0.1881
 2087SOL    HW2 8346   3.866   0.120   3.307  0.7065  0.0426 -1.8364
 2087SOL    HW3 8347   3.829  -0.001   3.224  2.0109 -2.5963  1.3195
 2087SOL    MW4 8348   3.831   0.040   3.300  0.6463 -0.1101  0.0702
 2088SOL     OW 8349   2.431   3.698   3.615 -0.2326  0.1487  0.2501
 2088SOL    HW2 8350   2.409   3.779   3.660 -0.7265  0.1111  0.0855
 2088SOL    HW3 8351   2.395   3.629   3.671  3.1046 -0.1814  2.1388
 2088SOL    MW4 8352   2.423   3.699   3.628  0.1425  0.1002  0.4776
 2089SOL     OW 8353   0.139   0.801   4.439 -0.1871  0.2411 -0.0131
 2089SOL    HW2 8354   0.233   0.814   4.427 -0.2621  0.2310 -0.6089
 2089SOL    HW3 8355   0.117   0.725   4.385 -0.2039 -0.9198  1.5775
 2089SOL    MW4 8356   0.149   0.793   4.430 -0.1992  0.0866  0.1181
 2090SOL     OW 8357   2.713   4.605   3.658 -0.2394 -0.1502  0.2561
 2090SOL    HW2 8358   2.626   4.613   3.697 -0.8319 -1.2767 -0.8047
 2090SOL    HW3 8359   2.707   4.655   3.577  0.4815  0.7990  0.7883
 2090SOL    MW4 8360   2.700   4.612   3.652 -0.2225 -0.1736  0.1864
 2091SOL     OW 8361   4.475   4.249   4.206 -0.6498 -0.0024  0.2862
 2091SOL    HW2 8362   4.400   4.306   4.189  0.0405  0.9468  0.3575
 2091SOL    HW3 8363   4.538   4.271   4.138  0.0660  0.1243  0.9740
 2091SOL    MW4 8364   4.473   4.260   4.195 -0.4643  0.1395  0.3864
 2092SOL     OW 8365   3.607   0.220   4.644  0.5755 -0.0064 -0.0873
 2092SOL    HW2 8366   3.526   0.271   4.638  0.2294 -0.1785  2.6653
 2092SOL    HW3 8367   3.587   0.137   4.602 -0.7765 -0.1331  0.7791
 2092SOL    MW4 8368   3.594   0.216   4.638  0.3515 -0.0458  0.3902
 2093SOL     OW 8369   3.389   0.612   3.547 -0.3379  0.1396  0.1267
 2093SOL    HW2 8370   3.431   0.690   3.584 -1.5593  0.8948 -0.0649
 2093SOL    HW3 8371   3.377   0.553   3.622  0.7560  0.0461  0.2383
 2093SOL    MW4 8372   3.393   0.614   3.562 -0.3547  0.2269  0.1161
 2094SOL     OW 8373   0.918   0.190   3.994  0.0146 -0.3249  0.0371
 2094SOL    HW2 8374   0.957   0.267   4.037  2.2576 -0.5596 -1.4744
 2094SOL    HW3 8375   0.834   0.221   3.960  1.1379  1.6360 -1.0376
 2094SOL    MW4 8376   0.912   0.204   3.995  0.4587 -0.0972 -0.3041
 2095SOL     OW 8377   3.354   0.388   4.569 -0.5182  0.3112 -0.0330
 2095SOL    HW2 8378   3.399   0.438   4.501 -0.7233  1.8151  0.9038
 2095SOL    HW3 8379   3.332   0.453   4.636 -0.8089 -1.0417  1.2164
 2095SOL    MW4 8380   3.357   0.403   4.569 -0.5836  0.3311  0.2555
 2096SOL     OW 8381   3.185   1.161   3.325 -0.6010 -0.3123  0.3777
 2096SOL    HW2 8382   3.200   1.169   3.230  0.9076 -1.2681  0.5188
 2096SOL    HW3 8383   3.255   1.212   3.364 -1.8122  0.9197  0.9920
 2096SOL    MW4 8384   3.196   1.169   3.317 -0.5618 -0.2759  0.4774
 2097SOL     OW 8385   3.592   1.132   3.085  0.0092 -0.1061 -0.3082
 2097SOL    HW2 8386   3.657   1.184   3.039  1.7035 -1.1586  0.8264
 2097SOL    HW3 8387   3.595   1.046   3.042  0.1691 -0.4843  0.4355
 2097SOL    MW4 8388   3.601   1.127   3.073  0.2538 -0.2949 -0.0604
 2098SOL     OW 8389   3.125   1.660   3.447 -0.0695 -0.3047 -0.2868
 2098SOL    HW2 8390   3.138   1.746   3.407 -1.8533 -0.9203 -2.3359
 2098SOL    HW3 8391   3.133   1.675   3.541 -1.0102  2.2257 -0.5762
 2098SOL    MW4 8392   3.128   1.673   3.454 -0.4290 -0.0521 -0.5953
 2099SOL     OW 8393   0.276   0.652   3.504 -0.0375  0.7113  0.7130
 2099SOL    HW2 8394   0.350   0.603   3.540  0.7456 -0.4037 -2.3178
 2099SOL    HW3 8395   0.199   0.604   3.534  0.7296 -3.3729 -3.3039
 2099SOL    MW4 8396   0.275   0.639   3.513  0.1670  0.0253 -0.2168
 2100SOL     OW 8397   2.174   0.597   4.059 -0.0099  0.2265 -0.0868
 2100SOL    HW2 8398   2.117   0.521   4.053  0.2311  0.0419 -0.0861
 2100SOL    HW3 8399   2.139   0.660   3.997  0.3960 -0.2861 -0.8499
 2100SOL    MW4 8400   2.162   0.595   4.050  0.0754  0.1345 -0.1874
 2101SOL     OW 8401   0.048   2.121   3.763  0.2813  0.2440  0.0622
 2101SOL    HW2 8402   0.026   2.163   3.846 -0.3644 -0.1441  0.0937
 2101SOL    HW3 8403   0.069   2.194   3.704  0.8335  0.5133  0.5921
 2101SOL    MW4 8404   0.048   2.136   3.766  0.2690  0.2283  0.1363
 2102SOL     OW 8405   0.527   0.576   3.607  0.4363 -0.1585  0.8066
 2102SOL    HW2 8406   0.597   0.638   3.585 -0.4549  1.3828  2.2165
 2102SOL    HW3 8407   0.572   0.492   3.618  1.8946  0.5595  0.4749
 2102SOL    MW4 8408   0.542   0.573   3.606  0.5112  0.1395  0.9489
 2103SOL     OW 8409   3.515   1.159   4.503 -0.0279  0.0211 -0.1865
 2103SOL    HW2 8410   3.546   1.249   4.509 -0.3964  0.1951 -0.9000
 2103SOL    HW3 8411   3.564   1.112   4.571 -0.9815  1.0654  1.2389
 2103SOL    MW4 8412   3.526   1.164   4.512 -0.2023  0.1818 -0.0925
 2104SOL     OW 8413   3.123   2.739   3.389 -0.0019 -0.3620  0.1616
 2104SOL    HW2 8414   3.112   2.646   3.408 -3.4638 -0.1756 -0.5458
 2104SOL    HW3 8415   3.040   2.778   3.416  1.3692  2.5249  0.3595
 2104SOL    MW4 8416   3.111   2.732   3.395 -0.2778  0.0435  0.0944
 2105SOL     OW 8417   2.470   3.655   3.339  0.5658  0.5320 -0.6808
 2105SOL    HW2 8418   2.441   3.740   3.308 -0.2192  0.3389 -0.5001
 2105SOL    HW3 8419   2.463   3.661   3.435  0.2500  0.1741 -0.6810
 2105SOL    MW4 8420   2.465   3.667   3.348  0.4206  0.4593 -0.6570
 2106SOL     OW 8421   2.853   2.828   3.450  0.7740  0.4513  0.0017
 2106SOL    HW2 8422   2.808   2.775   3.383  2.1541 -0.5666 -0.1485
 2106SOL    HW3 8423   2.844   2.918   3.420 -1.6599  0.3276  0.2771
 2106SOL    MW4 8424   2.846   2.833   3.437  0.6350  0.3007  0.0182
 2107SOL     OW 8425   1.624   0.330   3.929 -0.7406 -0.3185  0.0175
 2107SOL    HW2 8426   1.625   0.294   4.018 -1.1027 -0.5701 -0.0778
 2107SOL    HW3 8427   1.531   0.342   3.909 -0.7475 -1.6433 -0.8678
 2107SOL    MW4 8428   1.612   0.327   3.938 -0.7893 -0.5265 -0.1119
 2108SOL     OW 8429   2.242   0.268   3.641 -0.4899  0.1403  1.1960
 2108SOL    HW2 8430   2.324   0.317   3.633 -0.9113  0.3421 -3.0248
 2108SOL    HW3 8431   2.174   0.334   3.626 -1.2075 -0.8830 -0.1879
 2108SOL    MW4 8432   2.244   0.283   3.638 -0.6401  0.0319  0.4565
 2109SOL     OW 8433   3.780   3.283   3.873  0.4030  0.3207  0.4894
 2109SOL    HW2 8434   3.733   3.235   3.805 -1.0844 -0.1455  1.8136
 2109SOL    HW3 8435   3.714   3.341   3.912  1.4437  1.2265  0.9583
 2109SOL    MW4 8436   3.765   3.285   3.869  0.3441  0.3787  0.7259
 2110SOL     OW 8437   3.711   0.383   4.014 -0.1924  0.2299  0.1099
 2110SOL    HW2 8438   3.792   0.345   4.048 -0.2878 -0.5719 -0.5478
 2110SOL    HW3 8439   3.642   0.331   4.053 -0.3549  0.2534 -0.1422
 2110SOL    MW4 8440   3.713   0.371   4.024 -0.2265  0.1272 -0.0101
 2111SOL     OW 8441   4.174   4.035   3.656  0.4415 -0.7532 -0.4028
 2111SOL    HW2 8442   4.116   4.022   3.581  0.2874  0.7446 -0.5536
 2111SOL    HW3 8443   4.128   3.994   3.729 -0.5983 -0.0072 -0.6217
 2111SOL    MW4 8444   4.160   4.028   3.656  0.2840 -0.4572 -0.4516
 2112SOL     OW 8445   2.909   4.615   3.300  0.2390 -0.3747 -0.0242
 2112SOL    HW2 8446   2.900   4.629   3.206  0.2336 -1.3915 -0.1826
 2112SOL    HW3 8447   2.964   4.688   3.330 -1.8961  1.4211 -0.3494
 2112SOL    MW4 8448   2.915   4.626   3.291 -0.0434 -0.2719 -0.0880
 2113SOL     OW 8449   1.756   1.883   3.364  0.5137 -0.3140 -0.1342
 2113SOL    HW2 8450   1.674   1.929   3.385 -0.3168 -1.5359 -0.6488
 2113SOL    HW3 8451   1.763   1.889   3.269  1.4404  0.4643 -0.0238
 2113SOL    MW4 8452   1.746   1.890   3.354  0.5264 -0.3725 -0.1875
 2114SOL     OW 8453   0.188   0.063   3.885 -0.3436  0.3919  0.1187
 2114SOL    HW2 8454   0.153   0.010   3.957  1.2864  0.6079  1.0871
 2114SOL    HW3 8455   0.137   0.144   3.888 -1.0081 -0.0286  0.3449
 2114SOL    MW4 8456   0.177   0.067   3.895 -0.2162  0.3649  0.2764
 2115SOL     OW 8457   2.142   1.688   3.893 -0.6844  0.2879  0.3531
 2115SOL    HW2 8458   2.104   1.700   3.979 -0.9347 -0.5924  0.3742
 2115SOL    HW3 8459   2.096   1.612   3.857 -0.9153  0.9311 -0.7375
 2115SOL    MW4 8460   2.131   1.679   3.899 -0.7479  0.2566  0.2120
 2116SOL     OW 8461   4.288   0.459   4.194 -0.0527  0.3713  0.0217
 2116SOL    HW2 8462   4.246   0.524   4.137 -0.0372  1.5125  1.3090
 2116SOL    HW3 8463   4.366   0.503   4.227  0.2441 -0.4993  0.4888
 2116SOL    MW4 8464   4.293   0.473   4.191 -0.0115  0.4070  0.2532
 2117SOL     OW 8465   2.639   4.046   3.385  0.2773 -0.3543  0.4225
 2117SOL    HW2 8466   2.709   3.987   3.359  1.8501  1.1319  1.2439
 2117SOL    HW3 8467   2.650   4.057   3.479 -0.7432  0.2913  0.4722
 2117SOL    MW4 8468   2.649   4.040   3.394  0.3502 -0.0730  0.5374
 2118SOL     OW 8469   4.276   0.832   3.605 -0.0666  0.0308 -0.2427
 2118SOL    HW2 8470   4.197   0.854   3.555  0.5157 -1.9839 -2.1425
 2118SOL    HW3 8471   4.338   0.802   3.539  0.9920 -1.9827  1.6190
 2118SOL    MW4 8472   4.274   0.831   3.590  0.1499 -0.5007 -0.2477
 2119SOL     OW 8473   1.538   2.621   4.367  0.0151 -0.1624  0.1373
 2119SOL    HW2 8474   1.571   2.535   4.392  0.2497 -0.8542 -2.4340
 2119SOL    HW3 8475   1.615   2.678   4.372  0.4555 -0.6671 -0.7215
 2119SOL    MW4 8476   1.553   2.617   4.371  0.1041 -0.3203 -0.3152
 2120SOL     OW 8477   3.641   1.139   3.365 -0.0900 -0.4449 -0.3934
 2120SOL    HW2 8478   3.568   1.193   3.394  1.5279  1.2651  0.5757
 2120SOL    HW3 8479   3.628   1.129   3.271  0.1512  2.5803 -0.8048
 2120SOL    MW4 8480   3.630   1.145   3.356  0.1553  0.1799 -0.3198
 2121SOL     OW 8481   3.873   0.755   3.326  0.0032  0.3018 -0.0017
 2121SOL    HW2 8482   3.847   0.666   3.352  2.2315  0.1032  1.7568
 2121SOL    HW3 8483   3.808   0.812   3.368 -1.6867 -0.4860 -1.4890
 2121SOL    MW4 8484   3.861   0.751   3.335  0.0742  0.1716  0.0341
 2122SOL     OW 8485   0.393   1.825   3.333  0.0814 -0.6263 -0.1894
 2122SOL    HW2 8486   0.301   1.852   3.337  0.5219  0.9840 -0.7886
 2122SOL    HW3 8487   0.415   1.827   3.240  1.3423  1.1317  0.1362
 2122SOL    MW4 8488   0.384   1.829   3.321  0.3059 -0.1819 -0.2255
 2123SOL     OW 8489   4.383   3.007   4.435  0.0979  0.2771 -0.1937
 2123SOL    HW2 8490   4.467   3.036   4.470 -0.0503  0.7873 -0.2552
 2123SOL    HW3 8491   4.373   3.054   4.352 -0.2563  0.2372 -0.1782
 2123SOL    MW4 8492   4.392   3.017   4.429  0.0316  0.3392 -0.1997
 2124SOL     OW 8493   3.578   1.938   2.996 -0.5012  0.2248 -0.0124
 2124SOL    HW2 8494   3.661   1.975   2.966  0.6732 -1.8509  0.5459
 2124SOL    HW3 8495   3.589   1.929   3.091 -1.2874 -0.2152  0.0410
 2124SOL    MW4 8496   3.590   1.942   3.004 -0.4500 -0.1071  0.0683
 2125SOL     OW 8497   1.984   1.320   4.275  0.4649  0.0241 -0.1787
 2125SOL    HW2 8498   1.904   1.294   4.322  0.4085 -0.6271 -0.6304
 2125SOL    HW3 8499   2.016   1.396   4.324  0.1781 -0.3856  0.6670
 2125SOL    MW4 8500   1.978   1.327   4.288  0.4196 -0.1159 -0.1267
 2126SOL     OW 8501   4.367   1.742   4.112 -0.0593  0.4051  0.0879
 2126SOL    HW2 8502   4.277   1.752   4.080  0.0887 -0.7768 -0.7274
 2126SOL    HW3 8503   4.360   1.675   4.181  0.1343  0.5655  0.2625
 2126SOL    MW4 8504   4.354   1.734   4.117 -0.0143  0.2703  0.0034
 2127SOL     OW 8505   4.071   2.011   3.813  0.8006  0.5210 -0.4892
 2127SOL    HW2 8506   4.109   1.930   3.847 -0.3754 -0.5160 -1.5972
 2127SOL    HW3 8507   4.137   2.045   3.753  1.4595  0.5834  0.2594
 2127SOL    MW4 8508   4.085   2.004   3.810  0.7324  0.3924 -0.5366
 2128SOL     OW 8509   0.007   3.793   4.037 -0.3048  0.1595  0.0379
 2128SOL    HW2 8510  -0.076   3.759   4.004  0.5598  0.2671 -2.3428
 2128SOL    HW3 8511   0.073   3.756   3.979  1.0347  2.4948 -0.0175
 2128SOL    MW4 8512   0.005   3.784   4.025 -0.0140  0.4818 -0.2835
 2129SOL     OW 8513   1.786   1.053   3.774  0.1464 -0.1525 -0.0494
 2129SOL    HW2 8514   1.866   1.101   3.752 -0.1589  0.3765 -0.0367
 2129SOL    HW3 8515   1.715   1.113   3.747 -0.2344 -0.1803  0.8873
 2129SOL    MW4 8516   1.787   1.067   3.767  0.0558 -0.0864  0.0759
 2130SOL     OW 8517   3.857   4.398   3.342 -0.2150 -0.7332 -0.0791
 2130SOL    HW2 8518   3.849   4.491   3.320 -0.6189 -1.0107 -1.1051
 2130SOL    HW3 8519   3.773   4.360   3.319  0.2534 -1.5240 -0.5149
 2130SOL    MW4 8520   3.845   4.406   3.336 -0.2065 -0.8741 -0.2720
 2131SOL     OW 8521   3.826   3.695   3.658  0.1806 -0.4106 -0.2875
 2131SOL    HW2 8522   3.856   3.610   3.689  0.7459 -0.6845 -1.5860
 2131SOL    HW3 8523   3.837   3.693   3.563 -0.6712  0.7687 -0.4362
 2131SOL    MW4 8524   3.831   3.684   3.650  0.1428 -0.2912 -0.4785
 2132SOL     OW 8525   1.218   2.659   3.433  0.4449 -0.0193 -0.2644
 2132SOL    HW2 8526   1.252   2.661   3.523 -0.3584  1.1045  0.0172
 2132SOL    HW3 8527   1.220   2.566   3.409 -0.7191 -0.5010  1.4408
 2132SOL    MW4 8528   1.223   2.647   3.442  0.1854  0.0654 -0.0023
 2133SOL     OW 8529   2.836   3.279   4.444  0.2615  0.0415  0.1218
 2133SOL    HW2 8530   2.798   3.260   4.529 -0.3623  1.4995  0.1780
 2133SOL    HW3 8531   2.804   3.209   4.387 -1.3630  0.4609  0.5047
 2133SOL    MW4 8532   2.827   3.267   4.447 -0.0351  0.2892  0.1798
 2134SOL     OW 8533   4.208   3.890   3.318  0.3761  0.0358 -0.3659
 2134SOL    HW2 8534   4.250   3.810   3.350 -0.2352 -0.3464 -0.5216
 2134SOL    HW3 8535   4.231   3.894   3.226  0.4764  0.0906 -0.3394
 2134SOL    MW4 8536   4.217   3.880   3.310  0.3087 -0.0074 -0.3830
 2135SOL     OW 8537   3.600   4.330   3.312  0.2662  0.2874 -0.0960
 2135SOL    HW2 8538   3.565   4.299   3.229  1.3060 -0.1102 -0.3971
 2135SOL    HW3 8539   3.523   4.354   3.363 -0.4404 -0.5281 -0.7536
 2135SOL    MW4 8540   3.585   4.329   3.308  0.3102  0.1274 -0.2225
 2136SOL     OW 8541   4.055   1.702   3.369  0.0432 -0.1377 -0.5277
 2136SOL    HW2 8542   4.069   1.796   3.357  0.4484 -0.3697 -1.9061
 2136SOL    HW3 8543   4.012   1.696   3.454 -1.1981  1.4143 -1.0059
 2136SOL    MW4 8544   4.051   1.714   3.378 -0.0671  0.0365 -0.7726
 2137SOL     OW 8545   3.594   0.197   4.208 -0.1000 -0.2296 -0.2130
 2137SOL    HW2 8546   3.600   0.110   4.168 -1.8913 -0.9854  1.0813
 2137SOL    HW3 8547   3.661   0.197   4.276  0.3749 -0.3525 -0.6828
 2137SOL    MW4 8548   3.603   0.186   4.212 -0.2737 -0.3455 -0.1042
 2138SOL     OW 8549   0.406   3.239   4.040  0.4001 -0.0664 -0.2436
 2138SOL    HW2 8550   0.469   3.171   4.016 -0.2142 -1.2039  1.3098
 2138SOL    HW3 8551   0.456   3.299   4.095  0.1617 -0.9834  1.0096
 2138SOL    MW4 8552   0.421   3.238   4.044  0.2876 -0.3375  0.1267
 2139SOL     OW 8553   0.140   4.193   3.969  0.3832 -0.0690  0.0548
 2139SOL    HW2 8554   0.123   4.210   3.876  0.8888  0.1340  0.0004
 2139SOL    HW3 8555   0.224   4.235   3.987  0.6825 -0.8087  0.4057
 2139SOL    MW4 8556   0.149   4.201   3.959  0.4894 -0.1398  0.0940
 2140SOL     OW 8557   2.145   2.710   4.070  0.0877  0.3730 -0.2600
 2140SOL    HW2 8558   2.091   2.790   4.074 -0.5519 -0.1093  0.9581
 2140SOL    HW3 8559   2.226   2.734   4.114 -0.3548  0.1641  0.6780
 2140SOL    MW4 8560   2.148   2.724   4.076 -0.0551  0.2818  0.0245
 2141SOL     OW 8561   0.802   1.328   4.195 -0.0379  0.1431  0.0111
 2141SOL    HW2 8562   0.787   1.246   4.241  1.6468 -0.3907 -0.3596
 2141SOL    HW3 8563   0.760   1.316   4.110  0.4059 -0.4309 -0.1313
 2141SOL    MW4 8564   0.794   1.316   4.190  0.2429 -0.0031 -0.0566
 2142SOL     OW 8565   0.256   0.898   3.701 -0.1649  0.4554 -0.0282
 2142SOL    HW2 8566   0.198   0.957   3.653 -1.6256 -0.0478  1.0813
 2142SOL    HW3 8567   0.251   0.815   3.653  1.0498  0.9164 -0.9669
 2142SOL    MW4 8568   0.248   0.895   3.688 -0.1974  0.4498 -0.0057
 2143SOL     OW 8569   2.483   4.359   3.941  0.5264  0.0299  0.1286
 2143SOL    HW2 8570   2.551   4.423   3.962  0.8546 -0.5434  0.8160
 2143SOL    HW3 8571   2.484   4.298   4.014 -1.2166  0.4110  0.4841
 2143SOL    MW4 8572   2.492   4.360   3.953  0.3397  0.0045  0.2662
 2144SOL     OW 8573   0.134   4.657   3.628 -0.7985 -0.3056  0.2294
 2144SOL    HW2 8574   0.172   4.731   3.581  2.0179 -1.4703  0.5434
 2144SOL    HW3 8575   0.164   4.667   3.718  1.0392 -2.6984 -0.0744
 2144SOL    MW4 8576   0.143   4.668   3.634 -0.1844 -0.7750  0.2308
 2145SOL     OW 8577   1.824   4.122   3.649  0.4178 -0.0607 -0.2208
 2145SOL    HW2 8578   1.803   4.153   3.561  3.1008  0.2215 -0.7821
 2145SOL    HW3 8579   1.816   4.027   3.644 -1.0039  0.0463 -0.3178
 2145SOL    MW4 8580   1.820   4.114   3.637  0.5842 -0.0094 -0.3076
 2146SOL     OW 8581   0.181   1.410   3.327  0.2558 -0.7960  0.2908
 2146SOL    HW2 8582   0.197   1.432   3.235  1.5968  0.4965  0.8270
 2146SOL    HW3 8583   0.120   1.477   3.357 -0.9593 -1.7850  0.1115
 2146SOL    MW4 8584   0.175   1.421   3.319  0.2724 -0.7560  0.3379
 2147SOL     OW 8585   1.543   1.513   4.353  0.1260  0.1268  0.1576
 2147SOL    HW2 8586   1.520   1.503   4.261 -1.6347  0.2656  0.5594
 2147SOL    HW3 8587   1.560   1.607   4.364  0.9247  0.0194 -0.1516
 2147SOL    MW4 8588   1.542   1.524   4.343 -0.0009  0.1310  0.1698
 2148SOL     OW 8589   4.261   1.533   3.279 -0.3860 -0.4229  0.5831
 2148SOL    HW2 8590   4.258   1.529   3.184  0.3882 -0.6139  0.5679
 2148SOL    HW3 8591   4.185   1.588   3.303 -0.4789 -0.2308 -0.1428
 2148SOL    MW4 8592   4.250   1.540   3.270 -0.2961 -0.4228  0.4853
 2149SOL     OW 8593   0.608   3.769   4.081  0.4593  0.1232  0.4755
 2149SOL    HW2 8594   0.583   3.804   3.996  1.9424  1.9287  0.7489
 2149SOL    HW3 8595   0.526   3.741   4.120 -0.2366 -0.7427 -1.5508
 2149SOL    MW4 8596   0.594   3.770   4.075  0.5632  0.2472  0.2443
 2150SOL     OW 8597   4.210   2.465   3.372 -0.1529 -0.4149 -0.3148
 2150SOL    HW2 8598   4.193   2.379   3.332 -1.2854  0.4957 -1.8418
 2150SOL    HW3 8599   4.123   2.501   3.389  0.2394  1.7507 -2.6275
 2150SOL    MW4 8600   4.196   2.458   3.369 -0.2505 -0.0090 -0.8214
 2151SOL     OW 8601   3.678   0.795   3.848 -0.7178  0.4004  0.3078
 2151SOL    HW2 8602   3.685   0.741   3.926 -1.4095 -0.3215 -0.1179
 2151SOL    HW3 8603   3.659   0.883   3.881 -0.7296  0.1546  0.9578
 2151SOL    MW4 8604   3.676   0.800   3.862 -0.8107  0.2727  0.3374
 2152SOL     OW 8605   1.843   3.843   3.592 -0.0686  0.1917  0.3885
 2152SOL    HW2 8606   1.760   3.828   3.546 -0.6847  3.1749  0.4599
 2152SOL    HW3 8607   1.855   3.765   3.646 -1.9458 -1.0436 -0.9333
 2152SOL    MW4 8608   1.834   3.831   3.593 -0.3976  0.4223  0.2235
 2153SOL     OW 8609   1.240   1.620   3.368 -0.4749 -0.0296 -0.0768
 2153SOL    HW2 8610   1.231   1.594   3.460  0.2070  0.3692  0.1103
 2153SOL    HW3 8611   1.330   1.594   3.345 -0.5722  0.0696 -0.5653
 2153SOL    MW4 8612   1.251   1.613   3.377 -0.3977  0.0361 -0.1166
 2154SOL     OW 8613   4.310   3.078   3.007 -0.2187 -0.0814 -0.3931
 2154SOL    HW2 8614   4.276   2.993   2.981  0.6356 -0.9641  1.3172
 2154SOL    HW3 8615   4.233   3.134   3.013 -1.3045 -1.7592  2.3508
 2154SOL    MW4 8616   4.295   3.074   3.004 -0.2493 -0.4193  0.1946
 2155SOL     OW 8617   0.593   3.934   3.848  0.2029  0.0530 -0.1824
 2155SOL    HW2 8618   0.658   3.904   3.785  2.2007 -0.9758  2.2736
 2155SOL    HW3 8619   0.638   4.002   3.899 -1.4295  0.9984  0.0476
 2155SOL    MW4 8620   0.608   3.939   3.847  0.2511  0.0420  0.1720
 2156SOL     OW 8621   4.098   3.518   3.311  0.1402  0.0767  0.1762
 2156SOL    HW2 8622   4.184   3.558   3.319  0.9490 -0.9424 -2.6252
 2156SOL    HW3 8623   4.101   3.442   3.369  0.3942  1.1777  1.6211
 2156SOL    MW4 8624   4.109   3.513   3.320  0.2804  0.0875 -0.0027
 2157SOL     OW 8625   3.695   1.235   3.803 -0.1083 -0.0052 -0.0753
 2157SOL    HW2 8626   3.696   1.309   3.864 -2.1401 -0.1413  0.1324
 2157SOL    HW3 8627   3.771   1.251   3.746 -1.7133  3.4122 -1.4002
 2157SOL    MW4 8628   3.705   1.247   3.803 -0.5882  0.4277 -0.2227
 2158SOL     OW 8629   1.670   3.467   4.007 -0.2530 -0.0446  0.2422
 2158SOL    HW2 8630   1.720   3.396   3.967 -1.5381 -0.6043 -0.3781
 2158SOL    HW3 8631   1.711   3.480   4.092  0.3379 -1.1511  0.1349
 2158SOL    MW4 8632   1.682   3.460   4.013 -0.3446 -0.2644  0.1462
 2159SOL     OW 8633   3.988   3.997   3.431 -0.5228 -0.0333 -0.0755
 2159SOL    HW2 8634   3.921   3.971   3.368 -0.7063 -0.4995  0.3010
 2159SOL    HW3 8635   4.069   3.960   3.397 -0.6118 -0.2342 -0.0742
 2159SOL    MW4 8636   3.990   3.989   3.418 -0.5587 -0.1213 -0.0257
 2160SOL     OW 8637   0.225   0.341   4.179  0.2895 -0.3142 -0.1948
 2160SOL    HW2 8638   0.309   0.386   4.181 -0.8395  1.8027  1.4485
 2160SOL    HW3 8639   0.198   0.345   4.087  1.0880  0.6567 -0.3978
 2160SOL    MW4 8640   0.233   0.347   4.167  0.2459  0.0932 -0.0048
 2161SOL     OW 8641   3.153   1.961   3.785 -0.5333 -0.0664 -0.0275
 2161SOL    HW2 8642   3.078   1.999   3.739 -0.0796  0.0167 -0.6971
 2161SOL    HW3 8643   3.218   2.032   3.787  0.5135 -0.9603 -1.7299
 2161SOL    MW4 8644   3.151   1.976   3.779 -0.3353 -0.1734 -0.3405
 2162SOL     OW 8645   3.762   1.294   4.224  0.0255 -0.2868 -0.1330
 2162SOL    HW2 8646   3.827   1.225   4.239 -0.1255 -0.3211  0.3762
 2162SOL    HW3 8647   3.682   1.246   4.201  0.3327 -0.2250 -1.3699
 2162SOL    MW4 8648   3.760   1.278   4.223  0.0461 -0.2832 -0.2290
 2163SOL     OW 8649   2.653   1.916   3.340  0.1454 -0.2556 -0.0224
 2163SOL    HW2 8650   2.643   1.902   3.246  0.6665  0.9026 -0.2502
 2163SOL    HW3 8651   2.573   1.962   3.366  0.0360 -0.5080  0.0933
 2163SOL    MW4 8652   2.641   1.920   3.331  0.1997 -0.1361 -0.0372
 2164SOL     OW 8653   0.433   1.864   3.068  0.2724  0.3091 -0.0876
 2164SOL    HW2 8654   0.425   1.771   3.048 -0.4383 -0.1265  1.9968
 2164SOL    HW3 8655   0.358   1.905   3.024  0.3664 -0.1667 -0.6867
 2164SOL    MW4 8656   0.422   1.857   3.060  0.1911  0.1888  0.1083
 2165SOL     OW 8657   4.366   3.670   4.713  0.2938 -0.2835 -0.0923
 2165SOL    HW2 8658   4.374   3.697   4.804 -0.5061  0.2465 -0.1751
 2165SOL    HW3 8659   4.344   3.577   4.716 -0.9696  0.0196  0.2863
 2165SOL    MW4 8660   4.364   3.661   4.725  0.0216 -0.1736 -0.0533
 2166SOL     OW 8661   1.573   4.191   4.146  0.4152  0.6375  0.4153
 2166SOL    HW2 8662   1.667   4.210   4.137  0.5380  0.0445  0.4014
 2166SOL    HW3 8663   1.561   4.109   4.099 -0.4800  1.6661 -1.1836
 2166SOL    MW4 8664   1.584   4.183   4.139  0.3133  0.6950  0.2025
 2167SOL     OW 8665   3.642   3.356   4.606  0.6299 -0.4449 -0.1608
 2167SOL    HW2 8666   3.673   3.359   4.515 -1.1603  0.1264 -0.7578
 2167SOL    HW3 8667   3.611   3.444   4.624  0.5694 -0.6749  0.8749
 2167SOL    MW4 8668   3.642   3.368   4.596  0.3857 -0.3999 -0.1029
 2168SOL     OW 8669   2.605   2.260   4.422  0.0918 -0.0666  0.0964
 2168SOL    HW2 8670   2.516   2.283   4.448 -0.6684 -0.7908 -1.8229
 2168SOL    HW3 8671   2.644   2.343   4.394 -0.2639  0.1048  0.1088
 2168SOL    MW4 8672   2.599   2.274   4.422 -0.0554 -0.1396 -0.1552
 2169SOL     OW 8673   3.514   1.181   4.209 -0.1848  0.1137  0.0627
 2169SOL    HW2 8674   3.500   1.126   4.286 -2.8717  0.8234  0.1547
 2169SOL    HW3 8675   3.488   1.125   4.135  1.0424 -0.1034 -0.2045
 2169SOL    MW4 8676   3.509   1.166   4.209 -0.3774  0.1787  0.0396
 2170SOL     OW 8677   4.440   4.006   3.396 -0.3244  0.3790 -0.3475
 2170SOL    HW2 8678   4.352   3.978   3.371 -0.3218 -0.8498  0.9739
 2170SOL    HW3 8679   4.441   3.999   3.491  1.2321  0.3144 -0.3628
 2170SOL    MW4 8680   4.428   4.001   3.405 -0.1187  0.2084 -0.1752
 2171SOL     OW 8681   4.027   1.028   3.979  0.2130  0.1176  0.5487
 2171SOL    HW2 8682   4.006   1.050   4.070 -0.4320 -1.1455  0.7268
 2171SOL    HW3 8683   4.116   1.059   3.966  0.8181 -0.9270  2.0499
 2171SOL    MW4 8684   4.036   1.035   3.989  0.2077 -0.1869  0.7703
 2172SOL     OW 8685   0.801   0.739   3.968  0.5413 -0.2564  0.0129
 2172SOL    HW2 8686   0.808   0.643   3.968 -0.3870 -0.3326  1.1732
 2172SOL    HW3 8687   0.838   0.765   3.883 -0.6898 -1.7541 -1.0365
 2172SOL    MW4 8688   0.807   0.730   3.956  0.2564 -0.4641  0.0275
 2173SOL     OW 8689   2.292   3.453   4.050  0.0705  0.1021  0.2452
 2173SOL    HW2 8690   2.234   3.410   3.987  0.4791  2.0578 -1.5298
 2173SOL    HW3 8691   2.233   3.499   4.109 -0.2678  1.0942 -0.8333
 2173SOL    MW4 8692   2.277   3.453   4.049  0.0798  0.4910 -0.1313
 2174SOL     OW 8693   2.866   2.762   3.722 -0.3458  0.3759 -0.1883
 2174SOL    HW2 8694   2.921   2.684   3.718 -0.6919  0.1620 -0.7752
 2174SOL    HW3 8695   2.840   2.778   3.631  0.3322  1.6092 -0.1813
 2174SOL    MW4 8696   2.870   2.754   3.709 -0.3020  0.5104 -0.2648
 2175SOL     OW 8697   0.125   2.647   4.613  0.3760 -0.3502  0.0737
 2175SOL    HW2 8698   0.162   2.561   4.591 -2.2100 -1.7031  0.7855
 2175SOL    HW3 8699   0.051   2.627   4.669  0.8964  2.5041  1.8749
 2175SOL    MW4 8700   0.120   2.633   4.618  0.1035 -0.1521  0.4053
 2176SOL     OW 8701   2.193   2.691   3.795  0.3439 -0.1836 -0.0890
 2176SOL    HW2 8702   2.184   2.700   3.890 -0.5399  0.7225 -0.2617
 2176SOL    HW3 8703   2.132   2.754   3.758  0.4304 -0.7748 -1.2723
 2176SOL    MW4 8704   2.184   2.700   3.803  0.2387 -0.1420 -0.2679
 2177SOL     OW 8705   1.625   4.522   4.373  0.5211  0.3299 -0.3022
 2177SOL    HW2 8706   1.681   4.564   4.308  0.0799  1.0664 -0.2128
 2177SOL    HW3 8707   1.558   4.477   4.322  2.2437 -2.1537 -0.4997
 2177SOL    MW4 8708   1.624   4.521   4.358  0.6902  0.0994 -0.3164
 2178SOL     OW 8709   1.707   0.206   4.180  0.1828  0.0756 -0.2466
 2178SOL    HW2 8710   1.621   0.166   4.170  0.3595  0.0403 -1.7789
 2178SOL    HW3 8711   1.702   0.255   4.262 -1.8374  1.3869 -1.1314
 2178SOL    MW4 8712   1.695   0.208   4.190 -0.0604  0.2439 -0.5655
 2179SOL     OW 8713   0.828   0.392   4.345  0.2737  0.0225  0.0372
 2179SOL    HW2 8714   0.767   0.341   4.292 -1.1211  2.4919 -0.7770
 2179SOL    HW3 8715   0.910   0.389   4.295  0.3467 -1.7180  0.2081
 2179SOL    MW4 8716   0.831   0.385   4.331  0.0993  0.1187 -0.0476
 2180SOL     OW 8717   0.341   1.425   3.543 -0.0539 -0.0210 -0.2643
 2180SOL    HW2 8718   0.275   1.430   3.612  1.0132  0.9779  0.7229
 2180SOL    HW3 8719   0.291   1.420   3.462 -1.3313 -0.5200  0.5343
 2180SOL    MW4 8720   0.326   1.425   3.542 -0.0816  0.0449 -0.0287
 2181SOL     OW 8721   1.482   2.555   4.035  0.0300 -0.2313  0.0094
 2181SOL    HW2 8722   1.401   2.598   4.063 -1.3762 -2.6596 -0.1847
 2181SOL    HW3 8723   1.481   2.561   3.940  0.2626  0.0105  0.0193
 2181SOL    MW4 8724   1.471   2.562   4.026 -0.1248 -0.5198 -0.0149
 2182SOL     OW 8725   0.435   3.460   4.451 -0.4420 -0.3335 -0.7169
 2182SOL    HW2 8726   0.505   3.487   4.392 -0.9379  0.2618 -1.0282
 2182SOL    HW3 8727   0.373   3.412   4.395 -0.9309  0.2631 -0.6900
 2182SOL    MW4 8728   0.436   3.457   4.436 -0.5719 -0.1762 -0.7544
 2183SOL     OW 8729   0.810   2.462   4.507 -0.0828 -0.0041  0.1833
 2183SOL    HW2 8730   0.810   2.486   4.415  0.8188  0.5334  0.3142
 2183SOL    HW3 8731   0.856   2.534   4.551 -2.7221  1.0131  1.3905
 2183SOL    MW4 8732   0.816   2.475   4.501 -0.3121  0.2010  0.3599
 2184SOL     OW 8733   2.160   4.341   3.372  0.3243  0.3861  0.3368
 2184SOL    HW2 8734   2.132   4.351   3.280  1.6455  0.3424 -0.0746
 2184SOL    HW3 8735   2.254   4.355   3.370  0.6843 -1.8103  1.3721
 2184SOL    MW4 8736   2.168   4.344   3.359  0.5461  0.0905  0.4191
 2185SOL     OW 8737   1.235   2.725   3.707  0.3759  0.3579 -0.5052
 2185SOL    HW2 8738   1.172   2.664   3.745  0.8559  0.7985  1.0372
 2185SOL    HW3 8739   1.242   2.796   3.772  0.4096  1.6730 -1.9080
 2185SOL    MW4 8740   1.228   2.727   3.721  0.4437  0.5895 -0.4868
 2186SOL     OW 8741   3.866   0.928   3.672  0.0677 -0.3530 -0.0237
 2186SOL    HW2 8742   3.868   1.024   3.679 -0.5100 -0.3599  0.3232
 2186SOL    HW3 8743   3.865   0.899   3.763  1.4556 -0.7214 -0.1261
 2186SOL    MW4 8744   3.866   0.937   3.685  0.1746 -0.4025  0.0085
 2187SOL     OW 8745   1.262   1.889   3.317  0.6304 -0.2821  0.1081
 2187SOL    HW2 8746   1.182   1.926   3.354  1.3034  0.0035  1.2870
 2187SOL    HW3 8747   1.256   1.795   3.336  0.6880 -0.2288  0.3786
 2187SOL    MW4 8748   1.251   1.882   3.324  0.7268 -0.2374  0.2993
 2188SOL     OW 8749   2.098   1.529   4.464 -0.3209  0.7676 -0.0649
 2188SOL    HW2 8750   2.145   1.504   4.543 -1.2910  1.5060  0.7544
 2188SOL    HW3 8751   2.164   1.571   4.409  0.5939 -0.6697 -0.1045
 2188SOL    MW4 8752   2.113   1.531   4.467 -0.3282  0.6754  0.0380
 2189SOL     OW 8753   3.393   3.638   3.421 -0.0189 -0.2622 -0.1564
 2189SOL    HW2 8754   3.422   3.622   3.511  0.2331 -1.0109 -0.3729
 2189SOL    HW3 8755   3.312   3.588   3.413  0.0852 -0.3889 -0.4213
 2189SOL    MW4 8756   3.386   3.630   3.432  0.0281 -0.3777 -0.2199
 2190SOL     OW 8757   4.485   2.230   4.021  0.0424 -0.2980  0.1305
 2190SOL    HW2 8758   4.408   2.285   4.034 -0.1629 -0.0862 -1.8547
 2190SOL    HW3 8759   4.531   2.233   4.105 -1.3091  0.7985  0.8556
 2190SOL    MW4 8760   4.481   2.237   4.034 -0.1630 -0.1254 -0.0358
 2191SOL     OW 8761   0.256   0.854   3.969  0.2655  0.5475 -0.4577
 2191SOL    HW2 8762   0.321   0.783   3.967  1.6038  1.6915  1.1613
 2191SOL    HW3 8763   0.251   0.885   3.879  1.5141  0.0317 -0.7070
 2191SOL    MW4 8764   0.264   0.848   3.957  0.6068  0.6304 -0.2770
 2192SOL     OW 8765   3.291   0.518   4.223  0.1707  0.1421 -0.4005
 2192SOL    HW2 8766   3.356   0.554   4.283 -1.4387  1.4154  0.6015
 2192SOL    HW3 8767   3.331   0.528   4.136  1.9014 -0.4081  0.3153
 2192SOL    MW4 8768   3.305   0.524   4.219  0.1867  0.2375 -0.1739
 2193SOL     OW 8769   2.477   0.300   4.246  0.3798  0.0384  0.1862
 2193SOL    HW2 8770   2.412   0.361   4.280  1.1366  1.4045 -0.7673
 2193SOL    HW3 8771   2.462   0.300   4.151  0.8664 -0.6921  0.1049
 2193SOL    MW4 8772   2.467   0.308   4.238  0.5439  0.1223  0.0497
 2194SOL     OW 8773   0.352   2.443   3.863  0.1359  0.1213  0.0522
 2194SOL    HW2 8774   0.279   2.482   3.814 -1.2605 -0.9880  1.1988
 2194SOL    HW3 8775   0.365   2.502   3.937  0.0265  0.0221  0.1508
 2194SOL    MW4 8776   0.344   2.456   3.866 -0.0628 -0.0382  0.2165
 2195SOL     OW 8777   3.206   4.107   4.239 -0.1425 -0.0110  0.2030
 2195SOL    HW2 8778   3.274   4.112   4.306 -1.1790  1.7338  1.1749
 2195SOL    HW3 8779   3.244   4.152   4.163 -0.0143  0.4957  0.5645
 2195SOL    MW4 8780   3.220   4.114   4.238 -0.2623  0.2861  0.3790
 2196SOL     OW 8781   3.577   3.050   3.918 -0.6531 -0.1804  0.1420
 2196SOL    HW2 8782   3.591   3.094   3.834  0.5490  0.8639  0.8784
 2196SOL    HW3 8783   3.604   2.959   3.902 -2.5466 -0.5396 -1.2064
 2196SOL    MW4 8784   3.582   3.044   3.905 -0.7443 -0.0900  0.0612
 2197SOL     OW 8785   1.076   3.429   4.097  0.0060  0.0902 -0.2762
 2197SOL    HW2 8786   1.059   3.387   4.013 -0.5621 -0.3491  0.0513
 2197SOL    HW3 8787   1.149   3.488   4.080 -0.2341  0.1564 -1.1287
 2197SOL    MW4 8788   1.083   3.431   4.084 -0.1006  0.0409 -0.3455
 2198SOL     OW 8789   0.145   1.256   4.245  0.0989  0.3419  0.0522
 2198SOL    HW2 8790   0.203   1.314   4.294  0.1883  0.4668 -0.2003
 2198SOL    HW3 8791   0.204   1.190   4.209  0.1140  0.5911 -0.3828
 2198SOL    MW4 8792   0.160   1.255   4.247  0.1127  0.3913 -0.0385
 2199SOL     OW 8793   1.811   3.268   4.539 -0.2072 -0.3404 -0.2506
 2199SOL    HW2 8794   1.724   3.307   4.532  0.7382  2.0090  0.7587
 2199SOL    HW3 8795   1.819   3.243   4.632  0.4809  0.1284 -0.1800
 2199SOL    MW4 8796   1.801   3.270   4.551  0.0083  0.0315 -0.1081
 2200SOL     OW 8797   4.118   2.875   4.506 -0.1269  0.2408  0.5182
 2200SOL    HW2 8798   4.205   2.915   4.511  0.2320 -0.5048  0.2920
 2200SOL    HW3 8799   4.058   2.949   4.497  0.6439  0.6539 -1.3687
 2200SOL    MW4 8800   4.121   2.890   4.506  0.0222  0.1969  0.2394
 2201SOL     OW 8801   3.555   3.875   3.902 -0.0987 -0.1122  0.6676
 2201SOL    HW2 8802   3.645   3.872   3.935 -0.2568 -2.8465  1.0207
 2201SOL    HW3 8803   3.501   3.882   3.981 -0.2514 -0.1216  0.5647
 2201SOL    MW4 8804   3.560   3.875   3.917 -0.1397 -0.4742  0.7006
 2202SOL     OW 8805   1.930   0.137   4.504 -0.0421 -0.0253 -0.1183
 2202SOL    HW2 8806   1.996   0.203   4.526  0.6769 -1.1053  1.0563
 2202SOL    HW3 8807   1.929   0.135   4.408  1.7658 -0.1023 -0.1615
 2202SOL    MW4 8808   1.939   0.145   4.494  0.2913 -0.1780  0.0310
 2203SOL     OW 8809   0.640   0.952   4.125 -0.0891 -0.6865  0.0901
 2203SOL    HW2 8810   0.569   0.891   4.146 -1.2052  0.0571 -1.4406
 2203SOL    HW3 8811   0.700   0.900   4.072 -0.4692 -0.7798 -0.2513
 2203SOL    MW4 8812   0.639   0.937   4.121 -0.2865 -0.6007 -0.1569
 2204SOL     OW 8813   3.956   2.566   3.452 -0.4287 -0.0962  0.5199
 2204SOL    HW2 8814   3.938   2.515   3.531 -1.0123  0.3175  0.6616
 2204SOL    HW3 8815   3.876   2.561   3.401 -0.2849  0.1958  0.2633
 2204SOL    MW4 8816   3.943   2.559   3.456 -0.4867 -0.0031  0.5048
 2205SOL     OW 8817   3.353   3.117   4.305  0.2776 -0.1883  0.5263
 2205SOL    HW2 8818   3.296   3.040   4.310  0.0127 -0.0581 -0.2965
 2205SOL    HW3 8819   3.293   3.191   4.317  0.1806 -0.0301 -0.8340
 2205SOL    MW4 8820   3.337   3.117   4.307  0.2299 -0.1503  0.2383
 2206SOL     OW 8821   3.343   2.085   4.362  0.6170 -0.3758  0.4821
 2206SOL    HW2 8822   3.306   2.173   4.372 -0.2828 -0.5905 -0.8772
 2206SOL    HW3 8823   3.364   2.078   4.269  1.0095 -1.4692  0.6497
 2206SOL    MW4 8824   3.341   2.095   4.351  0.5501 -0.5483  0.3249
 2207SOL     OW 8825   3.583   3.163   4.163  0.1278 -0.3418 -0.4503
 2207SOL    HW2 8826   3.494   3.158   4.199  0.6628  0.0793  0.9545
 2207SOL    HW3 8827   3.579   3.110   4.083 -0.9508 -1.6988  0.4808
 2207SOL    MW4 8828   3.570   3.155   4.157  0.0561 -0.4653 -0.1421
 2208SOL     OW 8829   4.199   3.902   4.604  0.4864 -0.2814 -0.3196
 2208SOL    HW2 8830   4.254   3.834   4.642 -2.0641 -2.9045 -1.1231
 2208SOL    HW3 8831   4.193   3.879   4.511  0.8510  1.9747 -0.9262
 2208SOL    MW4 8832   4.205   3.890   4.597  0.1980 -0.3298 -0.5057
 2209SOL     OW 8833   3.395   3.883   3.285 -0.4384  0.4338  0.2975
 2209SOL    HW2 8834   3.448   3.932   3.348 -0.6130 -0.4129  1.1170
 2209SOL    HW3 8835   3.398   3.793   3.317 -2.0223  0.3051  0.1101
 2209SOL    MW4 8836   3.402   3.877   3.298 -0.6704  0.3051  0.3809
 2210SOL     OW 8837   4.276   1.123   3.993  0.0435  0.2376  0.5533
 2210SOL    HW2 8838   4.324   1.132   3.910  0.0868  2.3492  0.7601
 2210SOL    HW3 8839   4.268   1.213   4.025 -1.4665 -0.3861  2.0027
 2210SOL    MW4 8840   4.281   1.136   3.986 -0.1500  0.4339  0.7718
 2211SOL     OW 8841   1.534   0.759   4.358  0.3362 -0.2275  0.4858
 2211SOL    HW2 8842   1.613   0.809   4.383 -0.3122  1.1382 -0.1443
 2211SOL    HW3 8843   1.464   0.824   4.360 -0.6273 -1.2616  0.2080
 2211SOL    MW4 8844   1.535   0.774   4.362  0.1236 -0.1838  0.3660
 2212SOL     OW 8845   3.682   2.710   4.286  0.3702  0.0894  0.3190
 2212SOL    HW2 8846   3.728   2.664   4.358 -0.2156  0.0230  0.6556
 2212SOL    HW3 8847   3.590   2.702   4.309  0.2379  0.9517  0.0732
 2212SOL    MW4 8848   3.676   2.703   4.299  0.2755  0.1944  0.3309
 2213SOL     OW 8849   2.694   0.065   3.410 -0.2712  0.0591  0.2331
 2213SOL    HW2 8850   2.710   0.150   3.369 -1.0452 -0.1030 -0.4243
 2213SOL    HW3 8851   2.757   0.006   3.370 -0.3694  0.1190 -0.0110
 2213SOL    MW4 8852   2.704   0.068   3.399 -0.3863  0.0456  0.1142
 2214SOL     OW 8853   2.480   0.834   3.844  0.0471  0.2957  0.1952
 2214SOL    HW2 8854   2.487   0.921   3.882  0.2190  0.7308 -0.8052
 2214SOL    HW3 8855   2.571   0.808   3.828 -0.0200  0.1051  0.1252
 2214SOL    MW4 8856   2.493   0.842   3.847  0.0609  0.3280  0.0540
 2215SOL     OW 8857   2.392   2.987   4.057 -0.1006  0.6182 -0.3949
 2215SOL    HW2 8858   2.327   3.038   4.106  1.1267  1.0722  0.7823
 2215SOL    HW3 8859   2.475   3.032   4.073  0.5910 -0.2712 -1.4411
 2215SOL    MW4 8860   2.394   3.000   4.066  0.1526  0.5608 -0.3776
 2216SOL     OW 8861   0.518   2.071   3.773  0.0061 -0.2100  0.0153
 2216SOL    HW2 8862   0.574   2.146   3.751  1.0230 -0.3824  1.8918
 2216SOL    HW3 8863   0.442   2.110   3.815  0.1088 -0.1628  0.1591
 2216SOL    MW4 8864   0.516   2.086   3.776  0.1538 -0.2265  0.2819
 2217SOL     OW 8865   0.567   2.281   4.251 -0.0398 -0.0429 -0.3962
 2217SOL    HW2 8866   0.597   2.232   4.327 -0.5241  0.6507  0.2496
 2217SOL    HW3 8867   0.518   2.355   4.288 -1.7279 -0.6430 -1.4012
 2217SOL    MW4 8868   0.564   2.284   4.266 -0.3265 -0.0306 -0.4436
 2218SOL     OW 8869   2.503   3.952   4.027  0.2298  0.3310 -0.1666
 2218SOL    HW2 8870   2.499   4.040   4.066 -2.3536 -0.1219  0.7087
 2218SOL    HW3 8871   2.507   3.893   4.102 -1.9473 -0.4417 -0.6247
 2218SOL    MW4 8872   2.503   3.956   4.042 -0.3983  0.1693 -0.1116
 2219SOL     OW 8873   4.333   4.310   3.635  0.5044 -0.2732  0.1327
 2219SOL    HW2 8874   4.271   4.238   3.635 -0.6335  0.6919 -0.8569
 2219SOL    HW3 8875   4.302   4.369   3.566  0.7747  1.6996  1.6634
 2219SOL    MW4 8876   4.321   4.308   3.626  0.3899  0.1144  0.2041
 2220SOL     OW 8877   1.122   0.959   4.514 -0.2639 -0.1613  0.1335
 2220SOL    HW2 8878   1.147   0.921   4.598  0.7868 -0.8164 -0.4748
 2220SOL    HW3 8879   1.188   0.928   4.452 -0.5443  0.9979 -0.7739
 2220SOL    MW4 8880   1.134   0.950   4.517 -0.1622 -0.0948 -0.0665
 2221SOL     OW 8881   4.002   0.754   3.878  0.3079 -0.3349 -0.1262
 2221SOL    HW2 8882   4.029   0.845   3.893  0.6348 -0.2547 -1.1310
 2221SOL    HW3 8883   4.074   0.716   3.828  0.7086 -1.4958  1.3273
 2221SOL    MW4 8884   4.015   0.761   3.873  0.4039 -0.4775 -0.0670
 2222SOL     OW 8885   0.134   4.565   4.109  0.1709  0.2154 -0.4427
 2222SOL    HW2 8886   0.130   4.632   4.178 -1.6927  0.4509 -0.7666
 2222SOL    HW3 8887   0.043   4.545   4.090  0.7063 -1.2610 -1.4962
 2222SOL    MW4 8888   0.122   4.572   4.116 -0.0044  0.0517 -0.6244
 2223SOL     OW 8889   2.456   2.755   3.711  0.3899  0.0172 -0.1211
 2223SOL    HW2 8890   2.371   2.724   3.742  0.2113 -0.3905 -1.0218
 2223SOL    HW3 8891   2.454   2.849   3.728 -0.8756  0.2719 -1.5916
 2223SOL    MW4 8892   2.445   2.764   3.717  0.1994 -0.0030 -0.4340
 2224SOL     OW 8893   1.717   0.464   3.251 -0.0768  0.2925 -0.3505
 2224SOL    HW2 8894   1.731   0.415   3.170 -1.6967  0.5690 -0.8154
 2224SOL    HW3 8895   1.646   0.417   3.295  0.6864  0.2408  0.8357
 2224SOL    MW4 8896   1.709   0.451   3.246 -0.1899  0.3221 -0.2554
 2225SOL     OW 8897   3.991   3.220   4.029  0.2860 -0.0151  0.5880
 2225SOL    HW2 8898   3.967   3.240   4.120 -0.6837 -0.5058  0.4536
 2225SOL    HW3 8899   3.909   3.229   3.980  0.6669 -0.3971 -0.1328
 2225SOL    MW4 8900   3.977   3.224   4.035  0.2083 -0.1303  0.4752
 2226SOL     OW 8901   0.322   2.938   3.791  0.1975 -0.3841 -0.2314
 2226SOL    HW2 8902   0.393   2.885   3.828  0.2651  1.1531  1.9949
 2226SOL    HW3 8903   0.367   3.008   3.743  0.1910  0.0339  0.3630
 2226SOL    MW4 8904   0.338   2.941   3.790  0.2055 -0.1261  0.1408
 2227SOL     OW 8905   2.662   1.658   3.445  0.6937 -0.2481 -0.0446
 2227SOL    HW2 8906   2.657   1.747   3.410 -0.0068 -0.4225 -0.4057
 2227SOL    HW3 8907   2.731   1.615   3.395  1.8020  0.4308  0.8988
 2227SOL    MW4 8908   2.670   1.664   3.434  0.7475 -0.1815  0.0323
 2228SOL     OW 8909   2.893   4.322   3.912 -0.1607  0.0371 -0.0531
 2228SOL    HW2 8910   2.853   4.238   3.936  0.0451 -0.1016 -0.1937
 2228SOL    HW3 8911   2.856   4.343   3.827 -0.5814  0.3292  0.2016
 2228SOL    MW4 8912   2.883   4.314   3.904 -0.1891  0.0573 -0.0380
 2229SOL     OW 8913   3.111   0.110   3.388 -0.0507 -0.0172  0.3266
 2229SOL    HW2 8914   3.136   0.190   3.343  0.3312 -0.4384 -0.2215
 2229SOL    HW3 8915   3.160   0.041   3.343 -1.1774 -0.6924  0.1280
 2229SOL    MW4 8916   3.121   0.111   3.376 -0.1490 -0.1618  0.2281
 2230SOL     OW 8917   1.422   2.075   3.651  0.2234 -0.3726 -0.0254
 2230SOL    HW2 8918   1.499   2.053   3.703  0.0208 -0.1497  0.3763
 2230SOL    HW3 8919   1.440   2.040   3.564  0.7350 -0.4043  0.0939
 2230SOL    MW4 8920   1.434   2.068   3.646  0.2642 -0.3474  0.0434
 2231SOL     OW 8921   1.660   1.678   3.838 -0.3101 -0.6896 -0.0754
 2231SOL    HW2 8922   1.566   1.662   3.851 -0.2915 -1.0249 -0.3751
 2231SOL    HW3 8923   1.693   1.695   3.927 -0.4802 -1.4820  0.1419
 2231SOL    MW4 8924   1.652   1.678   3.852 -0.3301 -0.8384 -0.0862
 2232SOL     OW 8925   4.383   3.074   4.160  0.1664  0.0507  0.0587
 2232SOL    HW2 8926   4.457   3.106   4.107  0.6878 -1.6539 -0.2596
 2232SOL    HW3 8927   4.310   3.069   4.098  0.7894 -1.9909 -0.5531
 2232SOL    MW4 8928   4.383   3.078   4.144  0.3174 -0.4436 -0.0640
 2233SOL     OW 8929   1.399   1.374   3.979  0.1498 -0.4952  0.1396
 2233SOL    HW2 8930   1.366   1.453   4.022 -2.2298  0.7923 -3.7873
 2233SOL    HW3 8931   1.494   1.377   3.995  0.0325  2.8180  0.7291
 2233SOL    MW4 8932   1.407   1.385   3.987 -0.1796  0.1118 -0.3007
 2234SOL     OW 8933   3.982   1.708   3.635 -0.1675 -0.1848  0.1137
 2234SOL    HW2 8934   3.991   1.781   3.696  0.8768 -0.3864  0.2125
 2234SOL    HW3 8935   4.036   1.638   3.673  0.9831 -0.1169 -1.3383
 2234SOL    MW4 8936   3.990   1.708   3.648  0.1221 -0.2025 -0.0648
 2235SOL     OW 8937   2.277   1.667   4.297  0.1247  0.6852 -0.1118
 2235SOL    HW2 8938   2.340   1.732   4.327 -0.2294  0.8704  0.2321
 2235SOL    HW3 8939   2.326   1.614   4.234  0.6499  0.7703  0.2176
 2235SOL    MW4 8940   2.292   1.669   4.292  0.1473  0.7209 -0.0230
 2236SOL     OW 8941   4.185   1.303   3.651 -0.0017 -0.2423  0.4393
 2236SOL    HW2 8942   4.210   1.223   3.696 -1.8219 -0.6361  0.8011
 2236SOL    HW3 8943   4.239   1.305   3.572  0.3155 -1.6281  0.6168
 2236SOL    MW4 8944   4.195   1.293   3.647 -0.2000 -0.4771  0.5105
 2237SOL     OW 8945   0.508   3.568   3.736  0.4470 -0.4037 -0.7638
 2237SOL    HW2 8946   0.452   3.490   3.745 -0.4126  0.3055  0.1400
 2237SOL    HW3 8947   0.569   3.562   3.810 -1.7163  1.4578  1.2349
 2237SOL    MW4 8948   0.509   3.557   3.747  0.0482 -0.0646 -0.3809
 2238SOL     OW 8949   0.692   0.313   3.586 -0.4518 -0.1447  0.1654
 2238SOL    HW2 8950   0.681   0.269   3.670  0.6808 -0.0203  0.3813
 2238SOL    HW3 8951   0.784   0.301   3.564 -0.4673  0.8539 -0.4788
 2238SOL    MW4 8952   0.702   0.306   3.594 -0.3044  0.0035  0.1089
 2239SOL     OW 8953   2.458   0.413   3.341  0.3067  0.4312 -0.4976
 2239SOL    HW2 8954   2.533   0.359   3.315  2.3284  1.2994  3.1656
 2239SOL    HW3 8955   2.485   0.502   3.320 -1.1876  0.4732 -2.3784
 2239SOL    MW4 8956   2.472   0.418   3.335  0.3763  0.5513 -0.2624
 2240SOL     OW 8957   2.835   3.655   3.951  0.3513 -0.2894 -0.3973
 2240SOL    HW2 8958   2.910   3.602   3.977 -0.5056 -1.1651  0.3139
 2240SOL    HW3 8959   2.785   3.598   3.892  0.1242  0.2149 -0.6963
 2240SOL    MW4 8960   2.838   3.640   3.946  0.2083 -0.3384 -0.3429
 2241SOL     OW 8961   0.730   0.661   4.297 -0.0979  0.1207  0.5405
 2241SOL    HW2 8962   0.748   0.582   4.348 -0.5861  1.0315  2.1337
 2241SOL    HW3 8963   0.775   0.731   4.343 -1.4247  1.1388  0.3373
 2241SOL    MW4 8964   0.738   0.659   4.310 -0.3374  0.3752  0.7239
 2242SOL     OW 8965   4.086   2.780   3.870  0.0866  0.1602 -0.1033
 2242SOL    HW2 8966   4.080   2.873   3.894  1.3143  0.0644  0.6035
 2242SOL    HW3 8967   4.018   2.768   3.804 -1.1581  1.1998  0.9522
 2242SOL    MW4 8968   4.076   2.791   3.865  0.0844  0.2847  0.1292
 2243SOL     OW 8969   4.219   3.805   4.348  0.1452  0.0472  0.5595
 2243SOL    HW2 8970   4.255   3.859   4.278  0.0206 -0.6604 -0.0628
 2243SOL    HW3 8971   4.290   3.746   4.373  0.4215  0.7890  1.5405
 2243SOL    MW4 8972   4.233   3.804   4.342  0.1652  0.0517  0.6069
 2244SOL     OW 8973   2.564   3.449   4.089  0.2231 -0.5396 -0.5053
 2244SOL    HW2 8974   2.597   3.527   4.133  1.2711 -2.3229  1.9768
 2244SOL    HW3 8975   2.469   3.459   4.089  0.1723 -0.5042  2.3135
 2244SOL    MW4 8976   2.556   3.460   4.095  0.3547 -0.7702  0.1941
 2245SOL     OW 8977   1.850   3.201   3.632 -0.1440 -0.4774  0.2917
 2245SOL    HW2 8978   1.839   3.140   3.559 -0.4250  0.1132 -0.1608
 2245SOL    HW3 8979   1.925   3.255   3.606  0.5303 -1.0637  0.9960
 2245SOL    MW4 8980   1.859   3.200   3.619 -0.0921 -0.4768  0.3249
 2246SOL     OW 8981   0.377   3.806   3.680  0.2403 -0.0109 -0.0935
 2246SOL    HW2 8982   0.425   3.724   3.690 -1.3498 -0.8081  1.3364
 2246SOL    HW3 8983   0.409   3.862   3.751  1.1769  0.5368 -0.9433
 2246SOL    MW4 8984   0.387   3.803   3.691  0.1541 -0.0438 -0.0169
 2247SOL     OW 8985   3.725   1.042   3.989  0.2938  0.1105  0.0367
 2247SOL    HW2 8986   3.816   1.024   3.965  0.0783  0.2222 -0.8812
 2247SOL    HW3 8987   3.705   1.125   3.946  0.1768  0.7785  1.3555
 2247SOL    MW4 8988   3.734   1.050   3.980  0.2499  0.2134  0.0896
 2248SOL     OW 8989   2.667   2.672   3.293 -0.0092  0.2091 -0.1633
 2248SOL    HW2 8990   2.581   2.704   3.321 -0.9798 -1.5825 -1.0075
 2248SOL    HW3 8991   2.664   2.578   3.308  0.8453 -0.2449 -2.6016
 2248SOL    MW4 8992   2.655   2.664   3.298 -0.0245 -0.0872 -0.5964
 2249SOL     OW 8993   1.215   2.110   4.051  0.2421  0.1641  0.2086
 2249SOL    HW2 8994   1.274   2.179   4.080  1.1938 -1.3837  2.0347
 2249SOL    HW3 8995   1.181   2.071   4.132  0.1432 -1.8448 -0.7609
 2249SOL    MW4 8996   1.218   2.114   4.065  0.3546 -0.3052  0.3216
 2250SOL     OW 8997   1.398   3.527   3.742  0.1785 -0.3407 -0.1987
 2250SOL    HW2 8998   1.464   3.465   3.713 -1.7185 -1.9768 -1.1362
 2250SOL    HW3 8999   1.315   3.478   3.737 -1.2089  1.9061  0.1062
 2250SOL    MW4 9000   1.395   3.512   3.737 -0.2549 -0.2601 -0.2822
 2251SOL     OW 9001   1.394   3.153   3.826  0.3920  0.5113  0.4936
 2251SOL    HW2 9002   1.422   3.212   3.895 -0.0851  1.2367  0.0800
 2251SOL    HW3 9003   1.475   3.126   3.782  0.4672  2.9390 -0.9877
 2251SOL    MW4 9004   1.408   3.157   3.829  0.3390  0.9273  0.2436
 2252SOL     OW 9005   4.240   1.544   3.808  0.1423 -0.1562 -0.0164
 2252SOL    HW2 9006   4.211   1.461   3.769  0.2121  0.5671 -1.6823
 2252SOL    HW3 9007   4.320   1.565   3.760  0.5846  0.4541  0.9935
 2252SOL    MW4 9008   4.247   1.536   3.796  0.2099  0.0198 -0.1029
 2253SOL     OW 9009   1.420   1.117   4.448 -0.2036 -0.2490 -0.2971
 2253SOL    HW2 9010   1.337   1.163   4.455  0.3838  0.6789  0.6105
 2253SOL    HW3 9011   1.454   1.142   4.362  0.5218  1.7339  0.5338
 2253SOL    MW4 9012   1.413   1.126   4.437 -0.0304  0.1350 -0.0677
 2254SOL     OW 9013   1.754   0.713   3.980  0.5972  0.5239  0.1950
 2254SOL    HW2 9014   1.758   0.675   3.892  0.1456 -0.5738  0.6452
 2254SOL    HW3 9015   1.776   0.640   4.038  1.2202  1.3261  0.9778
 2254SOL    MW4 9016   1.758   0.698   3.976  0.6198  0.4849  0.3576
 2255SOL     OW 9017   0.542   0.799   3.206  0.5171 -0.4453 -0.3217
 2255SOL    HW2 9018   0.620   0.843   3.240  0.6824 -0.5636 -0.5455
 2255SOL    HW3 9019   0.473   0.865   3.210  0.8700 -0.0298 -1.0730
 2255SOL    MW4 9020   0.543   0.813   3.211  0.5854 -0.4061 -0.4504
 2256SOL     OW 9021   3.855   2.989   3.463 -0.4574 -0.3241 -0.0720
 2256SOL    HW2 9022   3.765   2.963   3.441 -1.0560 -0.7486  2.6984
 2256SOL    HW3 9023   3.867   3.072   3.417 -2.2689 -0.2660 -0.5006
 2256SOL    MW4 9024   3.845   2.996   3.454 -0.7754 -0.3724  0.2370
 2257SOL     OW 9025   1.616   1.236   3.651 -0.0164 -0.0549 -0.2558
 2257SOL    HW2 9026   1.523   1.249   3.669 -0.0816 -1.0331  0.1466
 2257SOL    HW3 9027   1.657   1.319   3.675 -0.7088  0.1818  0.1208
 2257SOL    MW4 9028   1.610   1.248   3.656 -0.1164 -0.1528 -0.1530
 2258SOL     OW 9029   2.864   1.271   4.228  0.0644 -0.7602 -0.2010
 2258SOL    HW2 9030   2.941   1.257   4.173 -0.3457 -1.5036 -0.6017
 2258SOL    HW3 9031   2.849   1.186   4.270  0.3042 -0.2319  0.9745
 2258SOL    MW4 9032   2.872   1.258   4.226  0.0419 -0.7886 -0.0988
 2259SOL     OW 9033   2.024   3.559   3.418 -0.2243 -0.0855  0.0460
 2259SOL    HW2 9034   2.096   3.540   3.358 -2.4801  0.1077 -2.8365
 2259SOL    HW3 9035   2.031   3.653   3.434  0.1855 -0.0761 -0.1719
 2259SOL    MW4 9036   2.034   3.569   3.412 -0.4678 -0.0587 -0.3630
 2260SOL     OW 9037   0.150   1.658   4.036 -0.1552  0.3610  0.6555
 2260SOL    HW2 9038   0.136   1.568   4.006 -0.9525  0.4079  0.8702
 2260SOL    HW3 9039   0.069   1.704   4.014  0.0201  0.8805  1.0733
 2260SOL    MW4 9040   0.138   1.652   4.029 -0.2373  0.4358  0.7389
 2261SOL     OW 9041   2.662   2.649   3.852  0.1119  0.1438  0.8228
 2261SOL    HW2 9042   2.580   2.691   3.828  0.6250 -0.0054 -1.2514
 2261SOL    HW3 9043   2.728   2.688   3.794  1.2791 -0.6758  1.5614
 2261SOL    MW4 9044   2.660   2.659   3.841  0.3336  0.0160  0.6466
 2262SOL     OW 9045   2.716   4.508   4.029  0.1535 -0.4692  0.3367
 2262SOL    HW2 9046   2.757   4.594   4.035  0.8769 -0.5694 -2.5465
 2262SOL    HW3 9047   2.788   4.448   4.008 -0.8903 -1.2109 -1.1956
 2262SOL    MW4 9048   2.731   4.511   4.027  0.1112 -0.5803 -0.2459
 2263SOL     OW 9049   1.812   3.933   4.107 -0.3176  0.7051  0.1920
 2263SOL    HW2 9050   1.816   3.911   4.200 -1.3014  1.2064  0.3591
 2263SOL    HW3 9051   1.822   4.028   4.104 -1.3371  0.8065 -0.1268
 2263SOL    MW4 9052   1.814   3.942   4.119 -0.5819  0.7846  0.1719
 2264SOL     OW 9053   1.347   0.144   3.765 -0.1602  0.2504 -0.0925
 2264SOL    HW2 9054   1.409   0.142   3.693  2.3532  3.2539  1.8863
 2264SOL    HW3 9055   1.387   0.090   3.833 -0.9152  0.1629  0.2935
 2264SOL    MW4 9056   1.360   0.136   3.765  0.0718  0.6352  0.2195
 2265SOL     OW 9057   3.103   1.865   4.033 -0.2484  0.1550  0.2990
 2265SOL    HW2 9058   3.125   1.886   3.942  0.1513  1.9544  0.7974
 2265SOL    HW3 9059   3.185   1.830   4.069  0.0585  0.9797  0.4131
 2265SOL    MW4 9060   3.117   1.863   4.026 -0.1551  0.5012  0.3798
 2266SOL     OW 9061   1.027   2.000   3.708 -0.1265  0.4670  0.1351
 2266SOL    HW2 9062   1.111   1.986   3.752  1.2878 -0.2166 -2.7156
 2266SOL    HW3 9063   1.001   2.088   3.734  1.9080  1.0265  0.3614
 2266SOL    MW4 9064   1.034   2.010   3.717  0.3285  0.4507 -0.2112
 2267SOL     OW 9065   4.073   4.236   3.327  0.3543  0.1542  0.0436
 2267SOL    HW2 9066   3.997   4.293   3.337  0.2650  0.2213 -0.9407
 2267SOL    HW3 9067   4.041   4.149   3.350  0.3570  0.4152  1.0446
 2267SOL    MW4 9068   4.059   4.232   3.331  0.3429  0.1975  0.0458
 2268SOL     OW 9069   3.416   4.387   4.472  0.3735 -0.4073 -0.0946
 2268SOL    HW2 9070   3.493   4.435   4.503 -0.7995  2.4442 -1.4650
 2268SOL    HW3 9071   3.344   4.449   4.481 -1.2799 -2.0732 -1.5127
 2268SOL    MW4 9072   3.417   4.401   4.478  0.0006 -0.2508 -0.4625
 2269SOL     OW 9073   2.721   4.170   4.310  0.1255  0.2190 -0.4515
 2269SOL    HW2 9074   2.794   4.109   4.316 -2.1340 -2.3054  2.7272
 2269SOL    HW3 9075   2.749   4.247   4.359  0.3301 -1.1315  1.5982
 2269SOL    MW4 9076   2.734   4.172   4.317 -0.1456 -0.2922  0.2383
 2270SOL     OW 9077   4.055   2.813   3.380  0.0564 -0.0160  0.8273
 2270SOL    HW2 9078   3.991   2.882   3.395  0.2501  0.1396  0.9508
 2270SOL    HW3 9079   4.011   2.733   3.406 -0.9290 -0.2147 -1.3819
 2270SOL    MW4 9080   4.041   2.812   3.385 -0.0481 -0.0217  0.5521
 2271SOL     OW 9081   1.015   4.390   3.609  0.4775  0.1040  0.4410
 2271SOL    HW2 9082   1.092   4.364   3.659  0.4934 -0.1004  0.3106
 2271SOL    HW3 9083   1.030   4.354   3.522 -0.3767 -1.0770  0.7641
 2271SOL    MW4 9084   1.027   4.382   3.604  0.3669 -0.0788  0.4664
 2272SOL     OW 9085   3.763   2.969   4.300 -0.5012  0.6608 -0.3647
 2272SOL    HW2 9086   3.690   3.023   4.269 -0.8887  0.3124 -0.0548
 2272SOL    HW3 9087   3.735   2.879   4.285 -1.3279  0.4244  2.3555
 2272SOL    MW4 9088   3.750   2.964   4.294 -0.6614  0.5837  0.0351
 2273SOL     OW 9089   3.705   3.360   4.340 -0.1251 -0.0714 -0.0950
 2273SOL    HW2 9090   3.658   3.296   4.285 -0.6755 -1.7705  2.2880
 2273SOL    HW3 9091   3.796   3.354   4.312 -0.2458 -1.5943 -0.1847
 2273SOL    MW4 9092   3.711   3.351   4.329 -0.2136 -0.4965  0.2076
 2274SOL     OW 9093   2.950   3.888   4.020  0.5619  0.1203  0.2013
 2274SOL    HW2 9094   2.915   3.809   3.978  1.1537  0.6064 -1.2430
 2274SOL    HW3 9095   3.014   3.922   3.957 -0.0217  1.9979  0.5897
 2274SOL    MW4 9096   2.954   3.882   4.006  0.5630  0.4322  0.0620
 2275SOL     OW 9097   3.604   1.679   3.396  0.1174  0.2169 -0.3826
 2275SOL    HW2 9098   3.633   1.719   3.477  0.9226 -1.6205  0.2629
 2275SOL    HW3 9099   3.682   1.636   3.361 -0.4379  0.2243 -1.6643
 2275SOL    MW4 9100   3.618   1.678   3.402  0.1504 -0.0245 -0.4666
 2276SOL     OW 9101   4.310   0.139   3.897 -0.9838 -0.2375  0.3737
 2276SOL    HW2 9102   4.352   0.146   3.982  1.3829  0.9319 -0.8145
 2276SOL    HW3 9103   4.285   0.229   3.875 -0.3054 -0.2991 -0.7327
 2276SOL    MW4 9104   4.312   0.152   3.905 -0.5820 -0.0913  0.0709
 2277SOL     OW 9105   3.376   3.433   4.146  0.2193  0.1549 -0.0502
 2277SOL    HW2 9106   3.453   3.408   4.095 -0.1501 -0.7140 -0.1949
 2277SOL    HW3 9107   3.409   3.494   4.211  0.6663  1.4742 -1.4826
 2277SOL    MW4 9108   3.391   3.438   4.148  0.2295  0.2143 -0.2583
 2278SOL     OW 9109   2.841   3.086   3.343 -0.6691  0.6514 -0.2394
 2278SOL    HW2 9110   2.910   3.150   3.362 -0.4246  0.1446  0.6207
 2278SOL    HW3 9111   2.845   3.074   3.249 -1.4771  2.7641 -0.5855
 2278SOL    MW4 9112   2.851   3.093   3.333 -0.7434  0.8633 -0.1716
 2279SOL     OW 9113   3.244   1.147   4.498  0.2109  0.2487 -0.4593
 2279SOL    HW2 9114   3.339   1.160   4.503  0.1062  0.6507  0.5323
 2279SOL    HW3 9115   3.209   1.233   4.474 -0.0841  0.6794  1.4335
 2279SOL    MW4 9116   3.252   1.160   4.496  0.1582  0.3585 -0.0787
 2280SOL     OW 9117   3.768   0.260   4.429  0.3569  0.0214 -0.0685
 2280SOL    HW2 9118   3.760   0.354   4.409  1.4029 -0.2782 -2.0115
 2280SOL    HW3 9119   3.709   0.247   4.503  0.1586  2.2107  0.2126
 2280SOL    MW4 9120   3.759   0.271   4.436  0.4688  0.2707 -0.2878
 2281SOL     OW 9121   1.854   3.606   3.743 -0.3076 -0.0593 -0.0308
 2281SOL    HW2 9122   1.929   3.561   3.705  0.1975  0.9347 -0.2241
 2281SOL    HW3 9123   1.879   3.620   3.835 -0.2882  0.1854 -0.0717
 2281SOL    MW4 9124   1.867   3.602   3.750 -0.2384  0.1042 -0.0617
 2282SOL     OW 9125   0.737   3.110   4.528  0.4661  0.6912  0.2365
 2282SOL    HW2 9126   0.675   3.161   4.581  0.1260  0.2814  0.2357
 2282SOL    HW3 9127   0.812   3.168   4.517 -0.1627  1.4244 -0.2695
 2282SOL    MW4 9128   0.738   3.124   4.534  0.3383  0.7339  0.1696
 2283SOL     OW 9129   2.829   0.996   4.299 -0.0685 -0.2016  0.1173
 2283SOL    HW2 9130   2.828   0.985   4.204  1.0980  1.8552 -0.1580
 2283SOL    HW3 9131   2.881   0.923   4.331 -1.1637 -1.3838 -0.7362
 2283SOL    MW4 9132   2.836   0.985   4.291 -0.0591 -0.0862 -0.0316
 2284SOL     OW 9133   2.966   3.029   3.701  0.1055  0.3231  0.0463
 2284SOL    HW2 9134   2.938   2.945   3.664 -1.0894  1.1044 -0.8709
 2284SOL    HW3 9135   2.934   3.028   3.791 -0.0623 -0.1243 -0.0188
 2284SOL    MW4 9136   2.958   3.018   3.708 -0.0743  0.3671 -0.0833
 2285SOL     OW 9137   0.613   3.046   3.276 -0.1147  0.5070 -0.1951
 2285SOL    HW2 9138   0.544   3.109   3.295 -1.2705 -1.2227  1.5775
 2285SOL    HW3 9139   0.690   3.080   3.322 -0.3830  1.3097 -0.3356
 2285SOL    MW4 9140   0.614   3.059   3.285 -0.3026  0.3847  0.0202
 2286SOL     OW 9141   0.050   0.587   4.280  0.1207  0.4667  0.7353
 2286SOL    HW2 9142   0.111   0.518   4.254  0.3292  0.7457  0.4882
 2286SOL    HW3 9143   0.034   0.637   4.200 -1.2907 -0.2712  0.5374
 2286SOL    MW4 9144   0.056   0.584   4.266 -0.0380  0.4062  0.6766
 2287SOL     OW 9145   1.241   1.518   4.510  0.3034  0.0696 -0.2726
 2287SOL    HW2 9146   1.336   1.505   4.507  0.0793 -2.0792  0.6758
 2287SOL    HW3 9147   1.205   1.433   4.485 -1.3924  1.0374 -1.1896
 2287SOL    MW4 9148   1.249   1.505   4.506  0.0501 -0.0862 -0.2685
 2288SOL     OW 9149   2.472   0.196   4.605 -0.0016 -0.2751 -0.6746
 2288SOL    HW2 9150   2.407   0.264   4.583  0.2941  0.0051 -0.6872
 2288SOL    HW3 9151   2.449   0.168   4.693  0.6402  0.7379 -0.1775
 2288SOL    MW4 9152   2.460   0.201   4.613  0.1221 -0.1044 -0.6107
 2289SOL     OW 9153   3.911   3.914   4.619  0.0189 -0.0496 -0.3474
 2289SOL    HW2 9154   3.875   3.828   4.641 -0.3616 -0.6177 -2.9525
 2289SOL    HW3 9155   4.004   3.906   4.638 -0.0445 -0.9898 -0.3896
 2289SOL    MW4 9156   3.918   3.901   4.624 -0.0396 -0.2486 -0.6967
 2290SOL     OW 9157   1.663   0.725   3.259 -0.3769 -0.2881 -0.1957
 2290SOL    HW2 9158   1.670   0.632   3.280 -0.5631  0.5555  3.8835
 2290SOL    HW3 9159   1.738   0.765   3.301 -1.5441  1.7243  0.0474
 2290SOL    MW4 9160   1.674   0.718   3.267 -0.5554  0.0887  0.3745
 2291SOL     OW 9161   2.505   4.301   3.660  0.5296  0.0037 -0.3616
 2291SOL    HW2 9162   2.595   4.268   3.663  0.7036  0.4962 -0.0909
 2291SOL    HW3 9163   2.494   4.346   3.744 -0.2340 -0.7404 -0.0549
 2291SOL    MW4 9164   2.516   4.303   3.671  0.4518 -0.0295 -0.2854
 2292SOL     OW 9165   3.773   0.394   4.818 -0.5907  0.4798 -0.0422
 2292SOL    HW2 9166   3.803   0.343   4.894  1.3021  0.1972 -0.9625
 2292SOL    HW3 9167   3.718   0.333   4.768  0.5674 -0.2545 -0.4332
 2292SOL    MW4 9168   3.770   0.379   4.822 -0.1882  0.3456 -0.2153
 2293SOL     OW 9169   0.050   4.283   4.480  0.3697  0.1403 -0.0817
 2293SOL    HW2 9170   0.134   4.326   4.468  0.4355 -0.1706 -0.7560
 2293SOL    HW3 9171   0.019   4.265   4.391 -0.9414  1.2891  0.1183
 2293SOL    MW4 9172   0.057   4.286   4.467  0.2054  0.2509 -0.1442
 2294SOL     OW 9173   2.030   2.901   3.682 -0.0355 -0.3574 -0.4137
 2294SOL    HW2 9174   1.953   2.914   3.737 -0.1469 -0.9335 -0.4256
 2294SOL    HW3 9175   1.995   2.863   3.601  0.3958 -1.7613  0.0478
 2294SOL    MW4 9176   2.015   2.897   3.678  0.0067 -0.6186 -0.3544
 2295SOL     OW 9177   1.887   2.076   3.701 -0.2321 -0.0434 -0.1781
 2295SOL    HW2 9178   1.902   2.168   3.722  1.5039 -0.2317 -0.5244
 2295SOL    HW3 9179   1.952   2.028   3.752 -1.0474 -1.0863 -0.0831
 2295SOL    MW4 9180   1.897   2.082   3.710 -0.1106 -0.2058 -0.2112
 2296SOL     OW 9181   3.226   0.258   3.827 -0.4167  0.0873  0.4036
 2296SOL    HW2 9182   3.184   0.213   3.753  0.9202 -0.1386 -0.2385
 2296SOL    HW3 9183   3.209   0.202   3.902 -0.7644 -0.3017  0.0375
 2296SOL    MW4 9184   3.218   0.245   3.827 -0.2862  0.0062  0.2706
 2297SOL     OW 9185   1.159   2.092   4.475 -0.2679 -0.3547 -0.0827
 2297SOL    HW2 9186   1.221   2.157   4.443 -0.4206 -0.0889  0.1567
 2297SOL    HW3 9187   1.078   2.141   4.489 -0.8023 -0.8628 -1.2437
 2297SOL    MW4 9188   1.156   2.107   4.472 -0.3585 -0.3867 -0.2043
 2298SOL     OW 9189   3.797   2.744   4.665 -0.0350  0.3735 -0.4717
 2298SOL    HW2 9190   3.756   2.819   4.708 -0.5087 -0.6903  0.9705
 2298SOL    HW3 9191   3.875   2.725   4.718 -0.2043 -0.4737 -0.5176
 2298SOL    MW4 9192   3.802   2.751   4.677 -0.1198  0.1213 -0.2875
 2299SOL     OW 9193   0.466   1.257   3.787 -0.4171  0.0327  0.0554
 2299SOL    HW2 9194   0.439   1.331   3.731 -1.4638 -1.3295 -1.2971
 2299SOL    HW3 9195   0.552   1.282   3.820 -0.4954  1.6000 -0.8656
 2299SOL    MW4 9196   0.473   1.270   3.784 -0.5655  0.0598 -0.2446
 2300SOL     OW 9197   3.950   3.091   4.455  0.5386  0.1909 -0.3692
 2300SOL    HW2 9198   3.894   3.036   4.400 -0.5285  2.3733 -1.5157
 2300SOL    HW3 9199   3.902   3.099   4.538  0.3669 -0.0273 -0.4488
 2300SOL    MW4 9200   3.936   3.085   4.459  0.3751  0.4500 -0.5310
 2301SOL     OW 9201   3.117   0.141   4.044 -0.6949  0.2584 -0.1145
 2301SOL    HW2 9202   3.126   0.047   4.060  1.0486 -0.1630 -3.2475
 2301SOL    HW3 9203   3.176   0.181   4.109  0.2720 -0.9336 -0.2307
 2301SOL    MW4 9204   3.126   0.134   4.055 -0.3373  0.0456 -0.5432
 2302SOL     OW 9205   2.464   4.637   3.298  0.1251  0.3635 -0.6148
 2302SOL    HW2 9206   2.541   4.680   3.337  0.1562  0.8395 -1.1932
 2302SOL    HW3 9207   2.484   4.631   3.205 -0.1165 -0.4275 -0.6201
 2302SOL    MW4 9208   2.476   4.642   3.291  0.0973  0.3220 -0.6918
 2303SOL     OW 9209   0.332   4.417   4.380  0.3954 -0.3019 -0.3560
 2303SOL    HW2 9210   0.355   4.349   4.316  1.1592 -0.4349  0.0610
 2303SOL    HW3 9211   0.403   4.415   4.444 -0.0048  0.3253  0.1113
 2303SOL    MW4 9212   0.344   4.408   4.380  0.4433 -0.2367 -0.2393
 2304SOL     OW 9213   2.792   0.869   3.645 -0.2556  0.0960 -0.4525
 2304SOL    HW2 9214   2.774   0.955   3.682 -1.7916  0.2876 -1.6003
 2304SOL    HW3 9215   2.767   0.807   3.713 -1.3078  0.4932 -0.4752
 2304SOL    MW4 9216   2.787   0.873   3.659 -0.5971  0.1737 -0.6070
 2305SOL     OW 9217   1.836   3.274   3.930 -0.1462  1.0161  0.2475
 2305SOL    HW2 9218   1.816   3.260   3.838 -2.5762  0.2202  0.8417
 2305SOL    HW3 9219   1.814   3.191   3.973 -0.1724  1.7420  1.6928
 2305SOL    MW4 9220   1.830   3.261   3.924 -0.4703  1.0069  0.5166
 2306SOL     OW 9221   3.026   0.589   4.207  0.3905  0.0329  0.1045
 2306SOL    HW2 9222   3.119   0.567   4.210  0.5126 -0.2340 -3.1032
 2306SOL    HW3 9223   2.981   0.507   4.227  0.8790 -0.4508 -0.7041
 2306SOL    MW4 9224   3.033   0.575   4.210  0.4710 -0.0661 -0.4254
 2307SOL     OW 9225   1.720   0.333   4.489  0.1928  0.4651 -0.0437
 2307SOL    HW2 9226   1.763   0.418   4.500 -2.1470  1.3891  2.3652
 2307SOL    HW3 9227   1.790   0.270   4.502  1.6536  1.9756 -0.3064
 2307SOL    MW4 9228   1.735   0.336   4.492  0.0768  0.7863  0.2394
 2308SOL     OW 9229   3.478   3.111   4.549  0.0175 -0.1810 -0.1445
 2308SOL    HW2 9230   3.430   3.107   4.467  0.9688 -0.1794 -0.7037
 2308SOL    HW3 9231   3.481   3.204   4.571 -0.1817 -0.1770 -0.1270
 2308SOL    MW4 9232   3.472   3.123   4.541  0.1167 -0.1803 -0.2160
 2309SOL     OW 9233   4.070   0.516   3.681 -0.3072  0.1917  0.4740
 2309SOL    HW2 9234   4.053   0.430   3.642  0.5190  0.6674 -0.9403
 2309SOL    HW3 9235   4.150   0.546   3.640 -0.6956  1.7406  0.8271
 2309SOL    MW4 9236   4.078   0.509   3.671 -0.2494  0.4588  0.3340
 2310SOL     OW 9237   3.221   2.645   3.877  0.5212 -0.3297  0.1872
 2310SOL    HW2 9238   3.211   2.728   3.830  0.7959  0.6275  1.7877
 2310SOL    HW3 9239   3.316   2.634   3.885  0.4762 -0.1619  1.0474
 2310SOL    MW4 9240   3.232   2.655   3.872  0.5515 -0.1813  0.5119
 2311SOL     OW 9241   2.170   0.307   4.517  0.0149 -0.1137  0.5388
 2311SOL    HW2 9242   2.193   0.242   4.451 -1.6702 -0.3021  0.1267
 2311SOL    HW3 9243   2.209   0.388   4.485 -0.4700 -0.2815 -0.4829
 2311SOL    MW4 9244   2.179   0.309   4.504 -0.2714 -0.1607  0.3496
 2312SOL     OW 9245   2.956   0.351   4.318 -0.1075  0.3411 -0.1685
 2312SOL    HW2 9246   3.026   0.313   4.371 -0.8004  1.0982  1.3230
 2312SOL    HW3 9247   2.876   0.312   4.353 -0.5805  0.8839 -0.6308
 2312SOL    MW4 9248   2.955   0.341   4.330 -0.2613  0.5126 -0.0327
 2313SOL     OW 9249   0.388   0.907   4.391 -0.0626  0.5279 -0.5067
 2313SOL    HW2 9250   0.346   0.955   4.320 -0.1139  1.3810  0.0931
 2313SOL    HW3 9251   0.432   0.974   4.443  0.8195 -0.1972 -0.2995
 2313SOL    MW4 9252   0.388   0.922   4.388  0.0470  0.5448 -0.4002
 2314SOL     OW 9253   3.245   4.133   3.601  0.2831  0.4153  0.8600
 2314SOL    HW2 9254   3.333   4.134   3.639  0.8593 -0.0367 -0.4317
 2314SOL    HW3 9255   3.192   4.184   3.662  1.7444  1.8671  0.9660
 2314SOL    MW4 9256   3.250   4.140   3.614  0.5519  0.5472  0.7036
 2315SOL     OW 9257   4.051   1.162   3.303  0.4658 -0.2141  0.2513
 2315SOL    HW2 9258   4.139   1.189   3.327  0.2030  0.5250  0.4072
 2315SOL    HW3 9259   4.037   1.081   3.352  0.7431  0.1282  0.9131
 2315SOL    MW4 9260   4.060   1.155   3.313  0.4677 -0.0714  0.3592
 2316SOL     OW 9261   1.737   0.575   3.730 -0.4649 -0.0645  0.0087
 2316SOL    HW2 9262   1.812   0.625   3.697 -0.4678  0.3737  0.6632
 2316SOL    HW3 9263   1.772   0.487   3.745  0.1142  0.3390  1.0613
 2316SOL    MW4 9264   1.752   0.570   3.728 -0.3888  0.0466  0.2339
 2317SOL     OW 9265   3.530   2.476   3.405 -0.0956  0.4728 -0.2183
 2317SOL    HW2 9266   3.525   2.524   3.322  0.7100 -1.4119 -1.3990
 2317SOL    HW3 9267   3.559   2.541   3.469 -0.1051  1.8056 -1.5421
 2317SOL    MW4 9268   3.533   2.491   3.403  0.0095  0.4000 -0.5488
 2318SOL     OW 9269   1.017   0.986   3.230 -0.4048  0.1763  0.3775
 2318SOL    HW2 9270   1.062   1.053   3.282  0.5104 -1.2318  1.4192
 2318SOL    HW3 9271   0.986   1.033   3.153  0.5097  1.7396  0.9393
 2318SOL    MW4 9272   1.018   1.001   3.227 -0.1634  0.1968  0.5890
 2319SOL     OW 9273   3.003   3.050   4.257 -0.2623 -0.0709 -0.1002
 2319SOL    HW2 9274   3.057   2.979   4.293  0.6154  1.4317  1.6024
 2319SOL    HW3 9275   3.066   3.110   4.218 -0.8559  0.7057  0.1370
 2319SOL    MW4 9276   3.018   3.048   4.257 -0.2248  0.2298  0.1557
 2320SOL     OW 9277   1.116   2.281   3.823  0.7039 -0.0207  0.1292
 2320SOL    HW2 9278   1.189   2.286   3.762  0.0304  2.0075 -0.5643
 2320SOL    HW3 9279   1.146   2.222   3.892  2.3039 -0.6193 -1.0490
 2320SOL    MW4 9280   1.130   2.274   3.824  0.8261  0.1680 -0.1178
 2321SOL     OW 9281   3.515   2.621   3.845 -0.0531  0.7448  0.2670
 2321SOL    HW2 9282   3.583   2.675   3.884  0.1473  0.8910 -0.2765
 2321SOL    HW3 9283   3.552   2.533   3.842 -0.6413  0.4259  1.7941
 2321SOL    MW4 9284   3.529   2.617   3.850 -0.1043  0.7220  0.3968
 2322SOL     OW 9285   2.912   2.027   4.182  0.0176 -0.0213  0.1246
 2322SOL    HW2 9286   2.984   1.997   4.127  0.7210  1.2493  0.3341
 2322SOL    HW3 9287   2.921   1.979   4.264  0.3217 -0.2431 -0.0400
 2322SOL    MW4 9288   2.923   2.017   4.185  0.1505  0.1171  0.1305
 2323SOL     OW 9289   3.267   2.360   4.343  0.2006 -0.7039 -0.2959
 2323SOL    HW2 9290   3.321   2.381   4.267  1.5824  0.1730  0.9057
 2323SOL    HW3 9291   3.187   2.411   4.331  1.5528  1.6036  0.1935
 2323SOL    MW4 9292   3.263   2.370   4.332  0.5613 -0.2838 -0.0728
 2324SOL     OW 9293   4.134   1.770   3.928 -0.0967 -0.0426  0.1991
 2324SOL    HW2 9294   4.058   1.725   3.964 -0.1664 -0.9487 -1.0419
 2324SOL    HW3 9295   4.181   1.702   3.879  0.1347  1.0865 -1.1881
 2324SOL    MW4 9296   4.131   1.755   3.926 -0.0754 -0.0131 -0.1476
 2325SOL     OW 9297   3.342   2.119   4.091  0.0368  0.3319  0.4232
 2325SOL    HW2 9298   3.273   2.179   4.063 -0.0240 -0.4985 -1.2248
 2325SOL    HW3 9299   3.300   2.033   4.092  0.9856 -0.1388 -0.3304
 2325SOL    MW4 9300   3.327   2.116   4.088  0.1540  0.1602  0.1063
 2326SOL     OW 9301   2.062   3.434   3.641  0.1326  0.6333 -0.2231
 2326SOL    HW2 9302   2.146   3.451   3.685 -0.9187  1.9249  1.3613
 2326SOL    HW3 9303   2.066   3.487   3.562  0.9755  0.3702 -0.3692
 2326SOL    MW4 9304   2.074   3.444   3.637  0.1051  0.7690 -0.0334
 2327SOL     OW 9305   0.551   2.483   3.686 -0.3861  0.2733  0.3505
 2327SOL    HW2 9306   0.611   2.547   3.726 -1.6108  1.8892 -0.3526
 2327SOL    HW3 9307   0.482   2.470   3.751 -0.6551  0.4135  0.0951
 2327SOL    MW4 9308   0.550   2.490   3.700 -0.5832  0.5050  0.2240
 2328SOL     OW 9309   3.956   2.465   3.715  0.3618 -0.3591 -0.2066
 2328SOL    HW2 9310   3.910   2.507   3.788  0.5575 -0.8294  0.1873
 2328SOL    HW3 9311   3.941   2.372   3.727  1.2365 -0.5052 -0.1968
 2328SOL    MW4 9312   3.948   2.459   3.726  0.5030 -0.4404 -0.1534
 2329SOL     OW 9313   1.551   4.009   4.385 -0.0547  0.0889 -0.1520
 2329SOL    HW2 9314   1.545   4.065   4.308  0.0754 -0.4397 -0.5505
 2329SOL    HW3 9315   1.473   4.030   4.436 -0.6350 -0.2433 -0.8941
 2329SOL    MW4 9316   1.540   4.019   4.382 -0.1141 -0.0247 -0.3025
 2330SOL     OW 9317   2.503   3.288   3.703 -0.9285  0.4131 -0.1564
 2330SOL    HW2 9318   2.505   3.193   3.715  0.2835  0.6079  1.2440
 2330SOL    HW3 9319   2.526   3.300   3.611  1.1597 -0.5574  0.2077
 2330SOL    MW4 9320   2.506   3.277   3.692 -0.4931  0.3108  0.0764
 2331SOL     OW 9321   3.512   0.823   4.459  0.0075  0.3664 -0.4226
 2331SOL    HW2 9322   3.554   0.883   4.521  0.5100 -0.4647  0.0497
 2331SOL    HW3 9323   3.557   0.841   4.376  0.0743  0.7294 -0.3093
 2331SOL    MW4 9324   3.524   0.833   4.456  0.0826  0.3047 -0.3453
 2332SOL     OW 9325   2.056   0.186   4.233 -0.1348  0.2810 -0.6033
 2332SOL    HW2 9326   2.040   0.268   4.187  0.4233  0.0617 -1.1943
 2332SOL    HW3 9327   2.100   0.130   4.169  1.5423  0.3233  0.4769
 2332SOL    MW4 9328   2.060   0.189   4.219  0.1601  0.2576 -0.5388
 2333SOL     OW 9329   3.030   2.527   4.283 -0.1436  0.2228  0.2864
 2333SOL    HW2 9330   2.970   2.571   4.343 -1.1210 -1.1611  0.3380
 2333SOL    HW3 9331   3.054   2.595   4.219 -0.3032  1.2741  1.3366
 2333SOL    MW4 9332   3.025   2.542   4.282 -0.2936  0.1789  0.4318
 2334SOL     OW 9333   1.342   0.381   4.163  0.3420 -0.0697 -0.1798
 2334SOL    HW2 9334   1.406   0.436   4.207  0.3092  0.0049 -0.2266
 2334SOL    HW3 9335   1.362   0.292   4.194 -0.8855  0.2018  1.4617
 2334SOL    MW4 9336   1.353   0.376   4.173  0.1757 -0.0240  0.0306
 2335SOL     OW 9337   1.294   4.077   4.533  0.1967 -0.1652  0.6264
 2335SOL    HW2 9338   1.333   4.162   4.556  1.1242 -0.2974 -0.4160
 2335SOL    HW3 9339   1.226   4.099   4.470  1.8618 -0.3689 -1.2871
 2335SOL    MW4 9340   1.291   4.091   4.528  0.5387 -0.2095  0.2364
 2336SOL     OW 9341   2.848   2.174   4.488  0.1740  0.6830  0.5488
 2336SOL    HW2 9342   2.758   2.199   4.471  0.0974  0.1082  0.0859
 2336SOL    HW3 9343   2.892   2.255   4.512 -0.2657  1.1061 -0.0781
 2336SOL    MW4 9344   2.842   2.188   4.489  0.1059  0.6630  0.4050
 2337SOL     OW 9345   4.266   2.129   3.673 -0.0766 -0.1678  0.1716
 2337SOL    HW2 9346   4.355   2.126   3.709 -1.2297  0.9712  3.2883
 2337SOL    HW3 9347   4.254   2.221   3.648 -0.5188 -0.2329  0.1370
 2337SOL    MW4 9348   4.276   2.141   3.675 -0.2871 -0.0261  0.5782
 2338SOL     OW 9349   1.298   0.328   3.310 -0.0655 -0.0095 -0.2518
 2338SOL    HW2 9350   1.277   0.236   3.323 -0.1723 -0.2241 -1.8246
 2338SOL    HW3 9351   1.213   0.370   3.295 -0.0345  0.3892  0.6322
 2338SOL    MW4 9352   1.284   0.321   3.310 -0.0755  0.0148 -0.3427
 2339SOL     OW 9353   3.761   2.315   3.346 -0.1243 -0.3465 -0.1033
 2339SOL    HW2 9354   3.685   2.365   3.377 -0.2495 -0.0760 -0.8362
 2339SOL    HW3 9355   3.744   2.226   3.375 -0.9370 -0.3701 -0.6336
 2339SOL    MW4 9356   3.749   2.310   3.354 -0.2480 -0.3139 -0.2700
 2340SOL     OW 9357   2.808   4.350   3.656  0.7805 -0.1140 -0.1900
 2340SOL    HW2 9358   2.844   4.334   3.569  1.1560 -0.3632  0.0105
 2340SOL    HW3 9359   2.777   4.441   3.653  1.6076  0.1664 -0.3015
 2340SOL    MW4 9360   2.808   4.360   3.644  0.9392 -0.1099 -0.1783
 2341SOL     OW 9361   1.443   2.752   3.311  0.2231 -0.0348 -0.2268
 2341SOL    HW2 9362   1.364   2.719   3.353  0.2208 -1.7295 -1.4999
 2341SOL    HW3 9363   1.439   2.718   3.221  1.5726  1.2377 -0.7989
 2341SOL    MW4 9364   1.432   2.743   3.304  0.4008 -0.0905 -0.4702
 2342SOL     OW 9365   1.827   4.053   4.450  0.0575 -0.0528 -0.0754
 2342SOL    HW2 9366   1.732   4.050   4.440 -0.0064  1.2356  0.0352
 2342SOL    HW3 9367   1.847   4.146   4.461  1.3473 -0.2992 -0.2416
 2342SOL    MW4 9368   1.817   4.065   4.450  0.2192  0.0847 -0.0827
 2343SOL     OW 9369   3.139   3.994   3.856 -0.5522  0.3577 -0.5037
 2343SOL    HW2 9370   3.212   3.971   3.913 -1.4750  2.0806  1.4452
 2343SOL    HW3 9371   3.140   4.090   3.853 -1.8664  0.3540 -1.6124
 2343SOL    MW4 9372   3.149   4.004   3.863 -0.8473  0.5845 -0.3929
 2344SOL     OW 9373   0.478   4.494   3.785  0.0187  0.3020 -0.2732
 2344SOL    HW2 9374   0.530   4.552   3.841  0.4325 -0.8904  0.6217
 2344SOL    HW3 9375   0.525   4.493   3.702 -0.2870  1.6551 -0.4700
 2344SOL    MW4 9376   0.491   4.502   3.782  0.0329  0.3232 -0.1811
 2345SOL     OW 9377   3.283   2.560   4.575  0.0943  0.2380  0.5485
 2345SOL    HW2 9378   3.278   2.494   4.506 -2.3189 -0.9832  1.7958
 2345SOL    HW3 9379   3.369   2.546   4.615  0.6591 -0.4282 -0.8781
 2345SOL    MW4 9380   3.294   2.549   4.571 -0.1496 -0.0110  0.5249
 2346SOL     OW 9381   2.507   1.262   3.429  0.2572 -0.4908 -0.1309
 2346SOL    HW2 9382   2.488   1.353   3.404 -0.3896 -0.6226 -0.1135
 2346SOL    HW3 9383   2.520   1.265   3.523  1.4485 -0.2099 -0.2945
 2346SOL    MW4 9384   2.506   1.275   3.438  0.3290 -0.4712 -0.1502
 2347SOL     OW 9385   2.728   1.694   4.376 -0.4355 -0.5678 -0.2269
 2347SOL    HW2 9386   2.694   1.665   4.291  0.1759 -2.1094  0.0459
 2347SOL    HW3 9387   2.798   1.632   4.396 -1.6724 -1.2165  2.1954
 2347SOL    MW4 9388   2.733   1.682   4.367 -0.5180 -0.8568  0.1287
 2348SOL     OW 9389   1.064   0.656   3.569 -0.2577 -0.0067 -0.5062
 2348SOL    HW2 9390   1.142   0.704   3.540 -0.8386  0.5013 -1.2349
 2348SOL    HW3 9391   1.012   0.720   3.616 -0.9377  0.0377 -1.3083
 2348SOL    MW4 9392   1.068   0.671   3.571 -0.4241  0.0662 -0.7081
 2349SOL     OW 9393   2.954   1.536   3.851  0.0764  0.4622 -0.0410
 2349SOL    HW2 9394   2.978   1.452   3.812 -0.2301  0.0590  0.6423
 2349SOL    HW3 9395   2.878   1.564   3.800 -1.9536 -1.3107  1.8923
 2349SOL    MW4 9396   2.947   1.529   3.839 -0.2319  0.1751  0.3042
 2350SOL     OW 9397   3.571   2.539   4.663 -0.3138  0.5596 -0.6499
 2350SOL    HW2 9398   3.621   2.457   4.654 -1.0716  0.1278 -0.9112
 2350SOL    HW3 9399   3.638   2.605   4.678  0.1883 -0.4297  1.7830
 2350SOL    MW4 9400   3.587   2.537   4.664 -0.3475  0.3721 -0.3634
 2351SOL     OW 9401   1.155   4.380   4.253  0.2033 -0.4514  0.5649
 2351SOL    HW2 9402   1.114   4.418   4.175 -0.0226 -0.4827  0.6682
 2351SOL    HW3 9403   1.167   4.454   4.312 -0.6517 -0.6081  0.9471
 2351SOL    MW4 9404   1.151   4.395   4.250  0.0607 -0.4762  0.6290
 2352SOL     OW 9405   4.479   0.716   4.047 -0.0416  0.1695 -0.0069
 2352SOL    HW2 9406   4.406   0.769   4.080  0.7014 -0.4304  2.7800
 2352SOL    HW3 9407   4.543   0.780   4.017 -0.5191  0.7772  0.2473
 2352SOL    MW4 9408   4.478   0.731   4.048 -0.0066  0.1705  0.3943
 2353SOL     OW 9409   2.012   3.847   3.381 -0.0353  0.1464 -0.2630
 2353SOL    HW2 9410   1.942   3.851   3.445 -0.6600  1.3205 -1.0190
 2353SOL    HW3 9411   2.073   3.916   3.407  0.4075 -0.2901 -0.1254
 2353SOL    MW4 9412   2.011   3.856   3.392 -0.0593  0.2437 -0.3446
 2354SOL     OW 9413   0.347   2.159   4.647 -0.5145 -0.1138  0.4481
 2354SOL    HW2 9414   0.415   2.136   4.584 -0.6591 -0.2733  0.3505
 2354SOL    HW3 9415   0.265   2.132   4.606 -0.6582  0.2750  0.4706
 2354SOL    MW4 9416   0.345   2.153   4.633 -0.5525 -0.0836  0.4382
 2355SOL     OW 9417   3.524   3.619   4.611 -0.2330  0.1545  0.0390
 2355SOL    HW2 9418   3.521   3.704   4.655 -1.2785  0.5365 -0.7616
 2355SOL    HW3 9419   3.501   3.638   4.521  1.3697 -0.7113 -0.5806
 2355SOL    MW4 9420   3.521   3.633   4.605 -0.1594  0.0907 -0.1484
 2356SOL     OW 9421   1.908   0.819   3.661 -0.5771  0.1601 -0.1913
 2356SOL    HW2 9422   1.866   0.900   3.690  1.1201  1.0381 -0.1273
 2356SOL    HW3 9423   1.973   0.800   3.728 -0.7171 -1.0862 -0.3869
 2356SOL    MW4 9424   1.911   0.827   3.674 -0.3716  0.1115 -0.2086
 2357SOL     OW 9425   0.766   4.175   3.940  0.1083  0.0132 -0.4240
 2357SOL    HW2 9426   0.762   4.270   3.952 -2.5319 -0.0319 -0.6165
 2357SOL    HW3 9427   0.819   4.144   4.014 -1.3270  1.4007  1.2452
 2357SOL    MW4 9428   0.772   4.183   3.951 -0.4294  0.1903 -0.2291
 2358SOL     OW 9429   0.809   4.653   3.716  0.2899 -0.3702  0.1736
 2358SOL    HW2 9430   0.744   4.616   3.656  0.0422 -0.3685  0.4407
 2358SOL    HW3 9431   0.893   4.623   3.681  0.1659 -0.0941 -0.3670
 2358SOL    MW4 9432   0.812   4.644   3.704  0.2408 -0.3335  0.1375
 2359SOL     OW 9433   3.140   4.268   3.808  0.0391 -0.3723 -0.1371
 2359SOL    HW2 9434   3.191   4.289   3.887 -0.7607 -1.7930  0.7682
 2359SOL    HW3 9435   3.051   4.295   3.830 -0.1432 -0.5887 -0.6239
 2359SOL    MW4 9436   3.135   4.274   3.822 -0.0905 -0.5883 -0.0819
 2360SOL     OW 9437   0.351   2.127   4.159 -0.5081  0.0306  0.3849
 2360SOL    HW2 9438   0.330   2.139   4.067  0.1848 -2.0687 -0.0654
 2360SOL    HW3 9439   0.427   2.184   4.174 -0.0410 -0.3307 -0.5865
 2360SOL    MW4 9440   0.358   2.136   4.149 -0.3551 -0.2940  0.1973
 2361SOL     OW 9441   3.474   4.597   3.817  0.4719  0.2924 -0.1401
 2361SOL    HW2 9442   3.384   4.610   3.786  1.1076  1.6187 -1.4327
 2361SOL    HW3 9443   3.495   4.507   3.792 -0.7245 -0.2658  0.7835
 2361SOL    MW4 9444   3.465   4.587   3.810  0.3980  0.3938 -0.1888
 2362SOL     OW 9445   0.118   2.233   4.279 -0.0042  0.6920 -0.0766
 2362SOL    HW2 9446   0.103   2.183   4.360 -1.9007  0.5181 -0.5215
 2362SOL    HW3 9447   0.194   2.190   4.239 -0.0818 -0.2765  0.7790
 2362SOL    MW4 9448   0.126   2.220   4.285 -0.2646  0.5412 -0.0224
 2363SOL     OW 9449   1.727   2.449   3.440  0.1756 -0.2801  0.4065
 2363SOL    HW2 9450   1.748   2.462   3.532 -1.4813 -3.8564  1.3995
 2363SOL    HW3 9451   1.808   2.414   3.402  1.0031  1.6382  0.3690
 2363SOL    MW4 9452   1.741   2.446   3.447  0.0661 -0.4988  0.5325
 2364SOL     OW 9453   0.554   2.638   4.558  0.2200 -0.1109 -0.0514
 2364SOL    HW2 9454   0.620   2.706   4.549  0.4796 -0.6059 -2.5440
 2364SOL    HW3 9455   0.604   2.557   4.566 -0.0854 -0.1271  1.7321
 2364SOL    MW4 9456   0.569   2.636   4.558  0.2140 -0.1784 -0.1450
 2365SOL     OW 9457   2.886   2.331   3.354  0.2147 -0.1365 -0.3340
 2365SOL    HW2 9458   2.887   2.352   3.261  2.0846 -0.3083 -0.3855
 2365SOL    HW3 9459   2.903   2.237   3.358 -1.1403 -0.3752  0.1508
 2365SOL    MW4 9460   2.889   2.322   3.342  0.2826 -0.1907 -0.2768
 2366SOL     OW 9461   3.941   4.456   4.303 -0.1976 -0.1084 -0.0818
 2366SOL    HW2 9462   4.022   4.506   4.314 -0.8415  1.0864 -0.6533
 2366SOL    HW3 9463   3.908   4.483   4.218 -0.2300 -2.0170 -0.6800
 2366SOL    MW4 9464   3.947   4.467   4.293 -0.2868 -0.2026 -0.2361
 2367SOL     OW 9465   4.355   1.075   3.730 -0.1480  0.1682 -0.4816
 2367SOL    HW2 9466   4.328   0.991   3.694  0.2446 -1.2906  2.5058
 2367SOL    HW3 9467   4.441   1.091   3.692  0.2132 -1.2803 -0.3030
 2367SOL    MW4 9468   4.363   1.066   3.721 -0.0486 -0.2154 -0.0639
 2368SOL     OW 9469   0.729   2.340   4.036 -0.3341 -0.2163 -0.2947
 2368SOL    HW2 9470   0.766   2.424   4.062  0.3329 -0.3244 -0.8484
 2368SOL    HW3 9471   0.674   2.313   4.109 -1.0733  1.0139 -0.4000
 2368SOL    MW4 9472   0.727   2.347   4.049 -0.3437 -0.0683 -0.3816
 2369SOL     OW 9473   2.346   0.161   3.870  0.0931  0.6232  0.1469
 2369SOL    HW2 9474   2.300   0.205   3.799  0.0429  0.2856 -0.0334
 2369SOL    HW3 9475   2.406   0.227   3.905  1.0006  0.4438 -1.0135
 2369SOL    MW4 9476   2.348   0.175   3.866  0.2062  0.5550 -0.0300
 2370SOL     OW 9477   3.435   3.885   4.528  0.0981  0.1501 -0.0042
 2370SOL    HW2 9478   3.418   3.958   4.468 -0.2077 -0.5994 -0.8394
 2370SOL    HW3 9479   3.356   3.831   4.522  0.7187 -0.7418 -0.0952
 2370SOL    MW4 9480   3.422   3.888   4.520  0.1396 -0.0665 -0.1264
 2371SOL     OW 9481   2.669   3.473   3.282  0.0528  0.1548  0.3451
 2371SOL    HW2 9482   2.642   3.402   3.340 -1.0364 -1.2465 -1.8187
 2371SOL    HW3 9483   2.594   3.532   3.279  0.3342  0.5378  0.8370
 2371SOL    MW4 9484   2.655   3.472   3.289 -0.0538  0.0204  0.1245
 2372SOL     OW 9485   4.238   3.393   4.677  0.0560 -0.1901 -0.7398
 2372SOL    HW2 9486   4.261   3.300   4.684  1.5604  0.0376 -2.4096
 2372SOL    HW3 9487   4.229   3.408   4.583  0.2201  1.4561 -0.4935
 2372SOL    MW4 9488   4.240   3.382   4.666  0.2761  0.0571 -0.9277
 2373SOL     OW 9489   0.711   3.526   3.933  0.1696  0.3455 -0.2996
 2373SOL    HW2 9490   0.681   3.570   4.013  2.9878 -0.2840  1.1761
 2373SOL    HW3 9491   0.772   3.588   3.893  2.0669 -1.0784  0.3497
 2373SOL    MW4 9492   0.715   3.540   3.938  0.7918  0.0746 -0.0192
 2374SOL     OW 9493   3.869   2.800   3.663  0.6134 -0.6409  0.3394
 2374SOL    HW2 9494   3.885   2.869   3.599  0.4458 -0.3879  0.5667
 2374SOL    HW3 9495   3.806   2.742   3.620  0.8831 -0.7422  0.0831
 2374SOL    MW4 9496   3.862   2.802   3.649  0.6269 -0.6209  0.3356
 2375SOL     OW 9497   4.401   3.656   3.672  0.0573 -0.1362  0.1041
 2375SOL    HW2 9498   4.471   3.593   3.688  0.5523  0.1835 -0.8219
 2375SOL    HW3 9499   4.444   3.741   3.674 -0.3551  0.0783 -0.1886
 2375SOL    MW4 9500   4.416   3.659   3.675  0.0682 -0.0657 -0.0567
 2376SOL     OW 9501   1.104   1.647   4.310  0.5284  0.5092 -0.8640
 2376SOL    HW2 9502   1.012   1.669   4.327  0.3111 -1.4379  0.6604
 2376SOL    HW3 9503   1.139   1.622   4.395  2.0065 -0.4676 -1.7366
 2376SOL    MW4 9504   1.096   1.647   4.323  0.6948  0.1235 -0.7780
 2377SOL     OW 9505   2.769   1.162   3.831  0.0312  0.1559  0.0537
 2377SOL    HW2 9506   2.689   1.194   3.789  0.1230  0.2778 -0.0286
 2377SOL    HW3 9507   2.840   1.201   3.781  0.1551 -0.9096 -0.6249
 2377SOL    MW4 9508   2.768   1.171   3.819  0.0596  0.0314 -0.0467
 2378SOL     OW 9509   4.347   2.545   4.339  0.2756  0.4089  0.2188
 2378SOL    HW2 9510   4.419   2.609   4.347  1.2273 -0.3588 -1.7020
 2378SOL    HW3 9511   4.357   2.510   4.250 -2.5420  0.3308 -0.0954
 2378SOL    MW4 9512   4.358   2.549   4.328  0.0294  0.2973 -0.0761
 2379SOL     OW 9513   0.427   2.536   4.330 -0.1694 -0.2824  0.0935
 2379SOL    HW2 9514   0.480   2.593   4.386  0.5268 -2.0778  1.3010
 2379SOL    HW3 9515   0.362   2.498   4.390 -0.1822 -1.2957 -0.5593
 2379SOL    MW4 9516   0.426   2.539   4.345 -0.0793 -0.6530  0.1667
 2380SOL     OW 9517   4.367   2.014   4.196 -0.3537  0.1877  0.7895
 2380SOL    HW2 9518   4.370   1.922   4.170  0.1004  0.3984  0.0531
 2380SOL    HW3 9519   4.420   2.058   4.130 -0.3250  0.9366  1.3125
 2380SOL    MW4 9520   4.374   2.007   4.184 -0.2900  0.3143  0.7614
 2381SOL     OW 9521   3.632   2.973   4.755 -0.0691  0.1296  0.5229
 2381SOL    HW2 9522   3.592   3.018   4.681  0.4645  1.7246  1.1802
 2381SOL    HW3 9523   3.560   2.926   4.797 -0.1636 -1.7977 -1.6912
 2381SOL    MW4 9524   3.618   2.973   4.751 -0.0112  0.0858  0.3175
 2382SOL     OW 9525   3.205   1.407   4.399 -0.0261  0.3737  0.1682
 2382SOL    HW2 9526   3.113   1.433   4.403 -0.4021 -0.7527 -0.8156
 2382SOL    HW3 9527   3.247   1.456   4.469 -1.2327  1.4846  0.1322
 2382SOL    MW4 9528   3.199   1.417   4.409 -0.2349  0.3716  0.0337
 2383SOL     OW 9529   3.155   4.246   3.321  0.5172 -0.2934  0.0875
 2383SOL    HW2 9530   3.154   4.152   3.339  1.1222  0.3322  3.9837
 2383SOL    HW3 9531   3.070   4.277   3.351  0.6352  0.5022 -0.3884
 2383SOL    MW4 9532   3.144   4.238   3.328  0.6126 -0.1059  0.5387
 2384SOL     OW 9533   2.088   0.670   4.322 -0.1580  0.2736 -0.2308
 2384SOL    HW2 9534   2.095   0.765   4.324 -2.0353  0.4131  0.6936
 2384SOL    HW3 9535   2.091   0.648   4.229 -0.0460  1.2545 -0.4668
 2384SOL    MW4 9536   2.089   0.680   4.310 -0.3909  0.4214 -0.1400
 2385SOL     OW 9537   4.381   3.984   4.184 -0.3423  0.2492 -0.4151
 2385SOL    HW2 9538   4.436   3.919   4.140 -0.6119 -1.6596  2.0013
 2385SOL    HW3 9539   4.441   4.057   4.203  0.4370 -0.1622 -1.2422
 2385SOL    MW4 9540   4.396   3.985   4.180 -0.2751 -0.0569 -0.2054
 2386SOL     OW 9541   1.494   3.963   4.015  0.6250 -0.2810 -0.1710
 2386SOL    HW2 9542   1.455   3.977   3.928 -0.6314 -1.2925  0.2069
 2386SOL    HW3 9543   1.542   3.881   4.006 -0.2078 -0.8315  0.3063
 2386SOL    MW4 9544   1.495   3.954   4.002  0.3494 -0.4871 -0.0582
 2387SOL     OW 9545   1.390   4.340   4.558 -0.4133 -0.0264  0.2400
 2387SOL    HW2 9546   1.465   4.396   4.577 -0.5255 -0.4375  1.9602
 2387SOL    HW3 9547   1.319   4.401   4.536 -0.7660  0.5935  2.9001
 2387SOL    MW4 9548   1.391   4.355   4.557 -0.4747  0.0012  0.8180
 2388SOL     OW 9549   3.108   3.537   3.759 -0.0186  0.4968  0.1529
 2388SOL    HW2 9550   3.039   3.474   3.737  0.0719  1.0258 -1.7842
 2388SOL    HW3 9551   3.071   3.622   3.736  0.4476  1.0047  1.2622
 2388SOL    MW4 9552   3.094   3.540   3.753  0.0548  0.6336  0.0437
 2389SOL     OW 9553   0.609   3.056   3.981  0.1377  0.4426 -0.2613
 2389SOL    HW2 9554   0.630   3.069   4.074  1.2991  0.5515 -0.5285
 2389SOL    HW3 9555   0.658   3.126   3.936 -0.4545  0.4173 -0.9508
 2389SOL    MW4 9556   0.619   3.067   3.987  0.2128  0.4536 -0.3875
 2390SOL     OW 9557   2.581   3.231   3.418 -0.3277 -0.3853 -0.5459
 2390SOL    HW2 9558   2.664   3.183   3.414 -0.4019 -0.4922 -0.8106
 2390SOL    HW3 9559   2.517   3.171   3.380 -0.4182 -0.0770 -0.8845
 2390SOL    MW4 9560   2.584   3.217   3.413 -0.3494 -0.3587 -0.6255
 2391SOL     OW 9561   2.165   0.016   4.032  0.1032  0.0019 -0.0055
 2391SOL    HW2 9562   2.223   0.070   3.978 -0.0928  0.6300  0.4063
 2391SOL    HW3 9563   2.104  -0.023   3.970  0.1327  0.4060 -0.2940
 2391SOL    MW4 9564   2.164   0.018   4.017  0.0813  0.1381  0.0107
 2392SOL     OW 9565   3.944   1.493   4.481  0.0874 -0.0767 -0.4764
 2392SOL    HW2 9566   3.976   1.524   4.396  0.0165 -0.9149 -0.8206
 2392SOL    HW3 9567   3.987   1.548   4.545  0.8885 -0.0699 -1.0145
 2392SOL    MW4 9568   3.954   1.504   4.478  0.1837 -0.1864 -0.5928
 2393SOL     OW 9569   3.694   0.362   3.737  0.1028  0.1176  0.2446
 2393SOL    HW2 9570   3.709   0.349   3.830  0.0847 -0.1877  0.2068
 2393SOL    HW3 9571   3.727   0.450   3.718  1.7224 -0.4828  0.1871
 2393SOL    MW4 9572   3.700   0.372   3.746  0.3141 -0.0019  0.2321
 2394SOL     OW 9573   1.318   1.605   4.126 -0.8610 -0.0138 -0.1490
 2394SOL    HW2 9574   1.276   1.631   4.208 -1.1872 -0.0006 -0.3192
 2394SOL    HW3 9575   1.371   1.680   4.101 -0.6930 -0.0513  0.0964
 2394SOL    MW4 9576   1.320   1.618   4.133 -0.8819 -0.0170 -0.1391
 2395SOL     OW 9577   4.300   3.183   3.523  0.0712  0.4889 -0.2815
 2395SOL    HW2 9578   4.346   3.196   3.440 -0.7446 -0.8996 -0.9701
 2395SOL    HW3 9579   4.220   3.235   3.513 -0.4473 -0.3764 -0.7358
 2395SOL    MW4 9580   4.295   3.191   3.510 -0.1048  0.1915 -0.4323
 2396SOL     OW 9581   0.482   0.437   4.170 -0.1593  0.1231  0.7485
 2396SOL    HW2 9582   0.490   0.526   4.205 -0.7765  0.1891  0.7297
 2396SOL    HW3 9583   0.468   0.450   4.077  0.7761 -0.0304  0.5846
 2396SOL    MW4 9584   0.481   0.451   4.163 -0.1173  0.1116  0.7244
 2397SOL     OW 9585   0.019   3.743   4.445 -0.1388  0.2619 -0.2072
 2397SOL    HW2 9586  -0.013   3.718   4.531 -0.0567  0.9731  0.0381
 2397SOL    HW3 9587   0.059   3.829   4.459  0.3270  0.1549 -0.8513
 2397SOL    MW4 9588   0.020   3.751   4.458 -0.0665  0.3416 -0.2598
 2398SOL     OW 9589   2.872   3.535   4.343  0.8619  0.6765 -0.1703
 2398SOL    HW2 9590   2.863   3.449   4.383  1.2730  0.4024 -0.6650
 2398SOL    HW3 9591   2.896   3.593   4.416 -0.8791  0.6640  0.4421
 2398SOL    MW4 9592   2.874   3.531   4.358  0.6865  0.6387 -0.1548
 2399SOL     OW 9593   3.688   0.722   4.796 -0.3506 -0.4124  0.2885
 2399SOL    HW2 9594   3.708   0.665   4.871 -3.3380 -2.8563 -0.6785
 2399SOL    HW3 9595   3.733   0.682   4.723 -0.6849 -0.3212  0.0308
 2399SOL    MW4 9596   3.696   0.709   4.796 -0.7889 -0.7228  0.1269
 2400SOL     OW 9597   1.260   2.390   3.352  0.5672  0.0310 -0.1666
 2400SOL    HW2 9598   1.321   2.323   3.321 -0.0781 -0.3448 -0.6518
 2400SOL    HW3 9599   1.173   2.351   3.337  0.2335  0.0072  1.7583
 2400SOL    MW4 9600   1.257   2.376   3.346  0.4381 -0.0217  0.0233
 2401SOL     OW 9601   3.953   1.859   4.525  0.2015 -0.0623  0.1284
 2401SOL    HW2 9602   4.045   1.835   4.514  0.1881  0.2904 -0.7670
 2401SOL    HW3 9603   3.954   1.931   4.589  0.4883 -0.4768  0.5944
 2401SOL    MW4 9604   3.965   1.865   4.532  0.2376 -0.0704  0.0718
 2402SOL     OW 9605   0.667   0.186   3.824  0.3134 -0.0938  0.1750
 2402SOL    HW2 9606   0.591   0.151   3.871 -0.3561 -0.2444 -0.9739
 2402SOL    HW3 9607   0.716   0.108   3.798  0.9350  0.0106  1.0299
 2402SOL    MW4 9608   0.663   0.171   3.827  0.3071 -0.0999  0.1362
 2403SOL     OW 9609   3.425   1.644   3.792  0.0877 -0.3100 -0.2941
 2403SOL    HW2 9610   3.332   1.652   3.770 -0.1932  0.2643  1.0585
 2403SOL    HW3 9611   3.450   1.559   3.757 -1.2449 -0.9997  0.3905
 2403SOL    MW4 9612   3.416   1.634   3.784 -0.1252 -0.3253 -0.0253
 2404SOL     OW 9613   1.775   3.046   3.438  0.4951  0.1930  0.1181
 2404SOL    HW2 9614   1.813   3.111   3.380 -1.0748 -0.1042 -1.2890
 2404SOL    HW3 9615   1.830   2.968   3.428  0.0156  0.0238 -1.2794
 2404SOL    MW4 9616   1.787   3.044   3.429  0.2247  0.1315 -0.2520
 2405SOL     OW 9617   2.002   4.555   4.386  0.1626  0.3921 -0.6124
 2405SOL    HW2 9618   2.015   4.630   4.444 -1.8632 -0.5775  1.1843
 2405SOL    HW3 9619   1.978   4.594   4.302 -2.6704  1.8182  0.7561
 2405SOL    MW4 9620   2.000   4.570   4.382 -0.4784  0.4524 -0.1948
 2406SOL     OW 9621   3.219   2.929   3.775  0.3997 -0.3502  0.6402
 2406SOL    HW2 9622   3.265   3.003   3.816  0.5536 -1.2389  2.1191
 2406SOL    HW3 9623   3.132   2.963   3.756  1.2306  0.9526 -0.9783
 2406SOL    MW4 9624   3.214   2.943   3.778  0.5296 -0.2956  0.6218
 2407SOL     OW 9625   3.845   2.571   4.446 -0.0788 -0.0237 -0.3379
 2407SOL    HW2 9626   3.834   2.632   4.519  1.1805 -2.0185  1.5918
 2407SOL    HW3 9627   3.926   2.599   4.403  0.7551 -0.5852  0.8359
 2407SOL    MW4 9628   3.854   2.583   4.450  0.1974 -0.3609  0.0716
 2408SOL     OW 9629   0.989   2.708   4.506  0.0171 -0.4341 -0.5363
 2408SOL    HW2 9630   1.055   2.771   4.477  0.3693  0.0955  1.3933
 2408SOL    HW3 9631   0.911   2.762   4.522  0.8062 -0.1847  2.7766
 2408SOL    MW4 9632   0.987   2.724   4.504  0.1676 -0.3313  0.1554
 2409SOL     OW 9633   0.973   1.482   3.663  0.6289  0.1683 -0.0254
 2409SOL    HW2 9634   0.918   1.531   3.603 -1.6313 -2.2808 -0.0604
 2409SOL    HW3 9635   0.950   1.515   3.750 -0.6431 -0.5839 -0.0716
 2409SOL    MW4 9636   0.963   1.493   3.667  0.1629 -0.2540 -0.0361
 2410SOL     OW 9637   1.373   0.410   3.886  0.2793 -0.0047  0.6055
 2410SOL    HW2 9638   1.364   0.407   3.981  0.3072 -2.5286  0.5501
 2410SOL    HW3 9639   1.332   0.330   3.855  0.1604  0.8425 -1.5415
 2410SOL    MW4 9640   1.366   0.399   3.894  0.2673 -0.2260  0.3149
 2411SOL     OW 9641   3.921   3.979   4.225  1.1484  0.4190  0.4876
 2411SOL    HW2 9642   3.835   4.003   4.260  0.8140  0.9680 -0.6976
 2411SOL    HW3 9643   3.972   4.060   4.232  1.0239  0.5786 -0.4723
 2411SOL    MW4 9644   3.917   3.993   4.231  1.0878  0.5125  0.2046
 2412SOL     OW 9645   3.943   0.977   4.492 -0.2371  0.0371 -0.0614
 2412SOL    HW2 9646   3.993   0.911   4.445 -1.1349 -0.2573 -0.6156
 2412SOL    HW3 9647   4.007   1.044   4.516  0.4206 -0.3482 -0.7396
 2412SOL    MW4 9648   3.958   0.977   4.489 -0.2688 -0.0526 -0.2240
 2413SOL     OW 9649   2.429   4.398   3.420 -0.1730 -0.2900  0.4295
 2413SOL    HW2 9650   2.441   4.485   3.383 -0.3149  0.5868  2.4332
 2413SOL    HW3 9651   2.478   4.399   3.502 -1.2514 -1.6787  1.1138
 2413SOL    MW4 9652   2.437   4.409   3.426 -0.3340 -0.3575  0.7841
 2414SOL     OW 9653   3.656   4.353   3.792 -0.1391 -0.1308  0.0010
 2414SOL    HW2 9654   3.731   4.365   3.733 -0.3814  0.1456 -0.2576
 2414SOL    HW3 9655   3.690   4.303   3.866  0.3021  0.0072 -0.1113
 2414SOL    MW4 9656   3.670   4.348   3.794 -0.1129 -0.0762 -0.0480
 2415SOL     OW 9657   4.294   1.262   3.399 -0.0428 -0.2119  0.0958
 2415SOL    HW2 9658   4.290   1.351   3.364 -0.6730  0.1815  1.1500
 2415SOL    HW3 9659   4.376   1.226   3.364 -1.0071 -0.1054 -2.4177
 2415SOL    MW4 9660   4.304   1.269   3.390 -0.2531 -0.1459 -0.0967
 2416SOL     OW 9661   2.903   1.552   3.315 -0.4310  0.3966 -0.0755
 2416SOL    HW2 9662   2.973   1.603   3.355 -0.8977  0.5953  0.4961
 2416SOL    HW3 9663   2.915   1.464   3.350 -0.9083  0.5959  0.6015
 2416SOL    MW4 9664   2.914   1.547   3.325 -0.5555  0.4491  0.0892
 2417SOL     OW 9665   0.311   1.035   4.157  0.2516 -0.0510  0.3190
 2417SOL    HW2 9666   0.393   1.075   4.129 -0.0128  0.3745  0.1478
 2417SOL    HW3 9667   0.288   0.974   4.087 -0.3621  0.9446 -0.3598
 2417SOL    MW4 9668   0.319   1.032   4.144  0.1357  0.1365  0.2069
 2418SOL     OW 9669   2.739   1.633   3.701  0.1246  0.5762  0.2613
 2418SOL    HW2 9670   2.726   1.636   3.606  0.8085  0.8446  0.1654
 2418SOL    HW3 9671   2.658   1.597   3.736  0.8900 -2.1882 -0.6536
 2418SOL    MW4 9672   2.727   1.629   3.693  0.3158  0.2469  0.1279
 2419SOL     OW 9673   4.294   1.399   4.043  0.4108 -0.1464 -0.0823
 2419SOL    HW2 9674   4.258   1.465   3.983  1.9647 -0.8388 -1.8311
 2419SOL    HW3 9675   4.301   1.444   4.127  0.8183  1.7306 -1.0891
 2419SOL    MW4 9676   4.290   1.413   4.046  0.6696  0.0099 -0.4459
 2420SOL     OW 9677   2.259   1.128   3.012  0.0231  0.6324 -0.4016
 2420SOL    HW2 9678   2.256   1.115   3.107 -1.3479  0.7429 -0.4122
 2420SOL    HW3 9679   2.288   1.044   2.976  0.8954  0.7017  0.1298
 2420SOL    MW4 9680   2.262   1.115   3.020 -0.0427  0.6561 -0.3329
 2421SOL     OW 9681   3.276   3.135   3.366  0.1271  0.6267 -0.2751
 2421SOL    HW2 9682   3.273   3.060   3.425  1.3626  0.7804  0.0002
 2421SOL    HW3 9683   3.190   3.175   3.374 -1.4839 -2.2550 -2.4330
 2421SOL    MW4 9684   3.265   3.131   3.375  0.0776  0.2668 -0.5235
 2422SOL     OW 9685   4.055   2.578   4.067  0.1025 -0.6418 -0.4463
 2422SOL    HW2 9686   4.056   2.652   4.006 -0.3917 -0.4015 -0.1662
 2422SOL    HW3 9687   4.036   2.617   4.152  1.2782 -0.9153 -0.0511
 2422SOL    MW4 9688   4.052   2.593   4.070  0.1924 -0.6462 -0.3572
 2423SOL     OW 9689   3.772   0.502   3.371  0.4936  0.4386  0.0817
 2423SOL    HW2 9690   3.702   0.445   3.341 -0.3774  1.9570 -0.8084
 2423SOL    HW3 9691   3.755   0.514   3.465  1.0350 -1.2330  0.4080
 2423SOL    MW4 9692   3.761   0.496   3.380  0.4501  0.4184  0.0073
 2424SOL     OW 9693   3.965   1.109   4.256  0.1562 -0.0824 -0.4992
 2424SOL    HW2 9694   3.955   1.079   4.346 -0.6234  0.6126 -0.3536
 2424SOL    HW3 9695   4.048   1.157   4.256 -0.5123  1.0915  0.1723
 2424SOL    MW4 9696   3.975   1.112   4.268 -0.0349  0.1642 -0.3914
 2425SOL     OW 9697   1.988   1.990   3.471  0.2423 -0.0812 -0.1539
 2425SOL    HW2 9698   1.905   1.953   3.439  0.5968 -2.4504  1.5006
 2425SOL    HW3 9699   1.966   2.023   3.558  0.4345  1.8159 -0.7994
 2425SOL    MW4 9700   1.974   1.990   3.478  0.3144 -0.1435 -0.0208
 2426SOL     OW 9701   3.641   2.386   3.790  0.5789 -0.1708 -0.5532
 2426SOL    HW2 9702   3.713   2.378   3.852  0.8640 -0.5446 -0.9371
 2426SOL    HW3 9703   3.594   2.303   3.796  0.1896  0.0611 -0.3204
 2426SOL    MW4 9704   3.644   2.374   3.799  0.5651 -0.1895 -0.5731
 2427SOL     OW 9705   3.179   0.214   4.433 -0.1651 -0.1885  0.1873
 2427SOL    HW2 9706   3.230   0.271   4.490  0.0860  1.0995 -1.2924
 2427SOL    HW3 9707   3.226   0.214   4.350 -0.4234 -2.1857  0.0107
 2427SOL    MW4 9708   3.192   0.221   4.430 -0.1661 -0.2821 -0.0313
 2428SOL     OW 9709   2.460   1.871   4.367  0.5662 -0.5160  0.0171
 2428SOL    HW2 9710   2.476   1.942   4.305  0.1129  0.2687  0.7832
 2428SOL    HW3 9711   2.541   1.864   4.417  0.2881  0.1145  0.5735
 2428SOL    MW4 9712   2.473   1.879   4.365  0.4697 -0.3293  0.1916
 2429SOL     OW 9713   1.022   3.599   3.408 -0.2346 -0.2978  0.0698
 2429SOL    HW2 9714   1.031   3.688   3.374  0.5465 -1.0044 -1.6078
 2429SOL    HW3 9715   1.107   3.558   3.391 -0.2941 -1.1091  1.6212
 2429SOL    MW4 9716   1.034   3.605   3.401 -0.1394 -0.4981  0.0532
 2430SOL     OW 9717   3.636   0.086   3.668 -0.0937 -0.5861  0.2043
 2430SOL    HW2 9718   3.647   0.179   3.690  0.1071 -0.4833 -0.3145
 2430SOL    HW3 9719   3.598   0.047   3.747  0.5445 -0.2114  0.7040
 2430SOL    MW4 9720   3.633   0.093   3.682  0.0170 -0.5231  0.2018
 2431SOL     OW 9721   0.774   0.242   4.583  0.5546  0.1477  0.6915
 2431SOL    HW2 9722   0.711   0.292   4.635  0.0294  0.7252 -0.5013
 2431SOL    HW3 9723   0.796   0.299   4.509  1.5304 -0.5488  0.4278
 2431SOL    MW4 9724   0.769   0.256   4.580  0.6140  0.1320  0.4993
 2432SOL     OW 9725   3.323   2.301   3.486 -0.2777 -0.2548  0.0769
 2432SOL    HW2 9726   3.327   2.224   3.429  0.5785 -0.8777  0.9735
 2432SOL    HW3 9727   3.403   2.351   3.465  0.6612 -1.0995  1.5849
 2432SOL    MW4 9728   3.334   2.298   3.476 -0.0409 -0.4485  0.3941
 2433SOL     OW 9729   2.150   3.944   3.965  0.1323  0.1103 -0.3495
 2433SOL    HW2 9730   2.233   3.903   3.940 -0.4419 -0.3068 -1.5827
 2433SOL    HW3 9731   2.089   3.870   3.972 -0.0684  0.3785  0.8764
 2433SOL    MW4 9732   2.153   3.929   3.963  0.0301  0.0907 -0.3505
 2434SOL     OW 9733   3.589   4.041   3.428 -0.0873 -0.1253 -0.4967
 2434SOL    HW2 9734   3.645   4.064   3.502 -0.4577 -0.6848 -0.0344
 2434SOL    HW3 9735   3.573   4.124   3.384 -0.9725  0.4448  0.8408
 2434SOL    MW4 9736   3.594   4.055   3.432 -0.2529 -0.1239 -0.2592
 2435SOL     OW 9737   1.450   1.857   4.172  0.3360 -0.0533 -0.2740
 2435SOL    HW2 9738   1.362   1.867   4.209 -0.4310 -0.8508 -1.8682
 2435SOL    HW3 9739   1.504   1.835   4.248 -1.1792 -1.4857  0.4356
 2435SOL    MW4 9740   1.445   1.856   4.187  0.0349 -0.3475 -0.3907
 2436SOL     OW 9741   0.901   1.089   3.850  0.6674 -0.4628 -0.1931
 2436SOL    HW2 9742   0.970   1.104   3.916  1.6079 -0.6778 -1.1061
 2436SOL    HW3 9743   0.938   1.126   3.770  0.6821 -2.6412 -1.2156
 2436SOL    MW4 9744   0.915   1.096   3.848  0.7934 -0.7786 -0.4484
 2437SOL     OW 9745   0.567   4.394   4.553  0.3864 -0.7917  0.3135
 2437SOL    HW2 9746   0.608   4.342   4.484  1.2052  0.7531 -0.3670
 2437SOL    HW3 9747   0.557   4.332   4.626 -0.0127 -2.2958 -0.9891
 2437SOL    MW4 9748   0.571   4.379   4.554  0.4418 -0.7863  0.0519
 2438SOL     OW 9749   3.508   4.664   4.501  0.1085 -0.1074  0.4517
 2438SOL    HW2 9750   3.414   4.651   4.497  0.2165 -1.0371  0.8560
 2438SOL    HW3 9751   3.540   4.634   4.416 -0.0377  0.8984  0.0370
 2438SOL    MW4 9752   3.500   4.658   4.489  0.1034 -0.0973  0.4503
 2439SOL     OW 9753   0.799   2.700   3.307 -0.3283  0.2668  0.1450
 2439SOL    HW2 9754   0.794   2.623   3.364  1.1442  0.1673  0.1545
 2439SOL    HW3 9755   0.709   2.732   3.302 -0.9455 -1.4377  0.1647
 2439SOL    MW4 9756   0.786   2.694   3.314 -0.2155  0.0288  0.1489
 2440SOL     OW 9757   0.904   2.202   4.467  0.0418 -0.1775  0.0438
 2440SOL    HW2 9758   0.905   2.202   4.371  0.3128 -0.0575  0.0463
 2440SOL    HW3 9759   0.867   2.286   4.491 -1.4890 -0.8315  0.0324
 2440SOL    MW4 9760   0.900   2.213   4.458 -0.1244 -0.2480  0.0426
 2441SOL     OW 9761   1.536   2.266   3.336  0.4682 -0.0383 -0.2646
 2441SOL    HW2 9762   1.546   2.282   3.242 -0.5234 -0.5655 -0.4762
 2441SOL    HW3 9763   1.603   2.320   3.377 -0.0866  1.3922 -1.1871
 2441SOL    MW4 9764   1.546   2.275   3.329  0.2642  0.0809 -0.4143
 2442SOL     OW 9765   0.992   2.308   3.310 -0.1420 -0.1734 -0.5996
 2442SOL    HW2 9766   0.993   2.223   3.355 -0.8856  0.4343  0.5954
 2442SOL    HW3 9767   0.920   2.356   3.351 -0.1122  0.8243 -1.6813
 2442SOL    MW4 9768   0.983   2.303   3.321 -0.2362  0.0384 -0.5846
 2443SOL     OW 9769   2.126   4.036   4.254  0.3433  0.4551 -0.6657
 2443SOL    HW2 9770   2.158   4.030   4.164  0.1143  1.7416 -0.8355
 2443SOL    HW3 9771   2.060   4.105   4.252 -1.1812 -0.9428  0.0566
 2443SOL    MW4 9772   2.122   4.044   4.242  0.1120  0.4404 -0.5928
 2444SOL     OW 9773   4.087   0.788   4.356  0.4889  0.4308 -0.1668
 2444SOL    HW2 9774   4.149   0.827   4.293  0.3688 -0.7700 -1.0372
 2444SOL    HW3 9775   4.015   0.755   4.302 -0.3212  0.6912  0.7355
 2444SOL    MW4 9776   4.086   0.789   4.340  0.3661  0.3068 -0.1626
 2445SOL     OW 9777   4.040   0.020   3.954  0.4675  0.1215 -0.6418
 2445SOL    HW2 9778   4.022   0.038   3.862  1.4126  1.2825 -0.6087
 2445SOL    HW3 9779   4.135   0.006   3.958  0.3202 -0.7132  0.0265
 2445SOL    MW4 9780   4.050   0.020   3.942  0.5728  0.1645 -0.5493
 2446SOL     OW 9781   2.859   2.306   3.806 -0.3993 -0.5435  0.0195
 2446SOL    HW2 9782   2.934   2.361   3.783 -1.4154 -0.1276 -2.4594
 2446SOL    HW3 9783   2.865   2.295   3.901  3.1615 -1.0852 -0.2251
 2446SOL    MW4 9784   2.869   2.312   3.816 -0.0636 -0.5601 -0.3399
 2447SOL     OW 9785   0.644   1.862   3.895  0.1901  0.2075  0.2818
 2447SOL    HW2 9786   0.583   1.808   3.945  0.6248 -0.7115 -0.1710
 2447SOL    HW3 9787   0.592   1.939   3.870 -1.2360 -1.2300 -1.3165
 2447SOL    MW4 9788   0.629   1.865   3.898  0.0593 -0.1034  0.0112
 2448SOL     OW 9789   2.380   2.766   4.206  0.5384 -0.2597  0.7231
 2448SOL    HW2 9790   2.407   2.685   4.162  0.8115  0.3860 -0.2973
 2448SOL    HW3 9791   2.378   2.832   4.137 -2.2981  0.0424  1.0570
 2448SOL    MW4 9792   2.383   2.764   4.191  0.2002 -0.1347  0.6325
 2449SOL     OW 9793   4.409   2.605   3.220  0.0674  0.1572 -0.0564
 2449SOL    HW2 9794   4.443   2.678   3.270  0.0826 -0.0755  0.2697
 2449SOL    HW3 9795   4.330   2.577   3.267 -0.5147  0.6153 -0.7368
 2449SOL    MW4 9796   4.403   2.611   3.233 -0.0074  0.1869 -0.1032
 2450SOL     OW 9797   0.767   2.668   3.778 -0.0101 -0.0727  0.7557
 2450SOL    HW2 9798   0.798   2.745   3.731 -1.2509 -0.0387 -0.0334
 2450SOL    HW3 9799   0.704   2.702   3.841 -0.0486 -0.3671  0.8764
 2450SOL    MW4 9800   0.763   2.682   3.780 -0.1789 -0.1070  0.6675
 2451SOL     OW 9801   0.754   0.925   3.341  0.0115  0.4247 -0.1249
 2451SOL    HW2 9802   0.843   0.939   3.309 -0.0336  1.0965  0.0353
 2451SOL    HW3 9803   0.722   1.013   3.362 -0.0603  0.0265  1.4925
 2451SOL    MW4 9804   0.761   0.939   3.339 -0.0039  0.4608  0.1096
 2452SOL     OW 9805   4.149   0.425   3.927 -0.3162  0.5161  0.6802
 2452SOL    HW2 9806   4.080   0.371   3.965 -1.1602  0.8585 -0.3437
 2452SOL    HW3 9807   4.106   0.472   3.855  0.3752  2.5953  1.5799
 2452SOL    MW4 9808   4.134   0.424   3.923 -0.3363  0.8356  0.6638
 2453SOL     OW 9809   1.803   2.762   4.340  0.4125  0.0748 -0.6593
 2453SOL    HW2 9810   1.857   2.715   4.404 -1.3880 -2.0609 -0.6607
 2453SOL    HW3 9811   1.787   2.847   4.381  0.9527 -0.5309  0.8501
 2453SOL    MW4 9812   1.808   2.767   4.354  0.2462 -0.2869 -0.4603
 2454SOL     OW 9813   1.382   1.933   4.596  0.0107  0.0696 -0.2186
 2454SOL    HW2 9814   1.319   1.978   4.540  0.3594 -1.4093 -1.8536
 2454SOL    HW3 9815   1.335   1.917   4.677 -1.1598  0.4732 -0.8061
 2454SOL    MW4 9816   1.368   1.937   4.599 -0.0977 -0.0723 -0.5118
 2455SOL     OW 9817   0.534   2.290   3.313 -0.0766 -0.3185  0.2919
 2455SOL    HW2 9818   0.551   2.204   3.351  1.0405 -0.2717 -0.0868
 2455SOL    HW3 9819   0.552   2.279   3.220 -1.9298 -0.1984 -0.0994
 2455SOL    MW4 9820   0.538   2.277   3.306 -0.1737 -0.2965  0.1903
 2456SOL     OW 9821   2.009   1.463   3.796  0.5205 -0.2790  0.2500
 2456SOL    HW2 9822   1.961   1.448   3.877 -0.9835 -1.1270 -0.7786
 2456SOL    HW3 9823   1.944   1.497   3.735  1.9455  1.6893 -0.2197
 2456SOL    MW4 9824   1.994   1.465   3.799  0.5100 -0.1312  0.0523
 2457SOL     OW 9825   2.933   4.621   4.398  0.1614 -0.3405  0.1798
 2457SOL    HW2 9826   2.854   4.572   4.376  0.5524 -0.1019 -1.8225
 2457SOL    HW3 9827   2.906   4.712   4.403 -0.1590 -0.5211  1.8807
 2457SOL    MW4 9828   2.919   4.626   4.396  0.1707 -0.3329  0.1400
 2458SOL     OW 9829   0.604   3.536   3.471 -0.4112  0.3164  0.4984
 2458SOL    HW2 9830   0.588   3.532   3.565 -2.7432 -0.1685  0.1003
 2458SOL    HW3 9831   0.625   3.628   3.454 -0.8571  0.5834  1.3566
 2458SOL    MW4 9832   0.605   3.548   3.481 -0.7777  0.2877  0.5591
 2459SOL     OW 9833   2.735   0.224   4.462  0.3181 -0.3584 -0.0841
 2459SOL    HW2 9834   2.705   0.248   4.550  0.2104  0.7257 -0.4091
 2459SOL    HW3 9835   2.669   0.161   4.431 -0.1628 -0.0199  0.2458
 2459SOL    MW4 9836   2.722   0.219   4.469  0.2404 -0.1707 -0.0835
 2460SOL     OW 9837   3.918   1.207   3.645  0.6969 -0.7752  0.0202
 2460SOL    HW2 9838   4.000   1.253   3.665  0.5726 -0.1092 -0.9469
 2460SOL    HW3 9839   3.895   1.238   3.558 -0.3754 -1.2740  0.1264
 2460SOL    MW4 9840   3.926   1.217   3.636  0.5390 -0.7532 -0.0934
 2461SOL     OW 9841   3.314   0.591   3.277 -0.2466 -0.1479  0.4181
 2461SOL    HW2 9842   3.322   0.609   3.371 -1.1158  1.8050  0.1548
 2461SOL    HW3 9843   3.248   0.523   3.271  1.1815 -1.6490  1.3229
 2461SOL    MW4 9844   3.306   0.585   3.289 -0.1729 -0.0883  0.5027
 2462SOL     OW 9845   1.109   1.727   4.005 -0.2652 -0.0412  0.3335
 2462SOL    HW2 9846   1.149   1.799   3.956  1.0761 -0.2273  1.1260
 2462SOL    HW3 9847   1.183   1.674   4.033 -1.2164 -1.5889 -0.0082
 2462SOL    MW4 9848   1.124   1.729   4.002 -0.2137 -0.2700  0.3930
 2463SOL     OW 9849   3.150   0.887   3.362  0.5181  0.2082  0.1788
 2463SOL    HW2 9850   3.238   0.849   3.358 -0.2544 -1.5963 -0.4874
 2463SOL    HW3 9851   3.164   0.981   3.352  2.4551  0.0748  1.2487
 2463SOL    MW4 9852   3.163   0.894   3.360  0.6718 -0.0475  0.2321
 2464SOL     OW 9853   4.471   1.040   4.330  0.3306 -0.4036  0.5235
 2464SOL    HW2 9854   4.527   1.117   4.324 -0.8214  0.6636  2.7081
 2464SOL    HW3 9855   4.523   0.977   4.380  0.9459 -0.7255 -0.5223
 2464SOL    MW4 9856   4.485   1.042   4.336  0.2598 -0.3052  0.6738
 2465SOL     OW 9857   2.111   3.587   4.212 -0.0961 -0.0926  0.8442
 2465SOL    HW2 9858   2.072   3.523   4.271 -1.1922  0.1257  0.3659
 2465SOL    HW3 9859   2.151   3.652   4.269 -0.0059 -0.5756  1.3324
 2465SOL    MW4 9860   2.111   3.587   4.227 -0.2288 -0.1275  0.8455
 2466SOL     OW 9861   2.689   3.666   4.185 -0.3988 -0.2915 -0.6227
 2466SOL    HW2 9862   2.745   3.677   4.108 -2.1810 -1.0340 -2.0801
 2466SOL    HW3 9863   2.740   3.612   4.245  0.0200 -1.9070 -2.3985
 2466SOL    MW4 9864   2.703   3.660   4.183 -0.5787 -0.6026 -1.0493
 2467SOL     OW 9865   3.675   1.385   4.477 -0.2096  0.6822 -0.1563
 2467SOL    HW2 9866   3.758   1.407   4.518 -0.3422  1.6908 -0.4058
 2467SOL    HW3 9867   3.698   1.355   4.390  0.0234 -0.8365  0.4122
 2467SOL    MW4 9868   3.689   1.384   4.471 -0.1963  0.6149 -0.1142
 2468SOL     OW 9869   4.109   2.697   4.762 -0.0200  0.0896  0.0098
 2468SOL    HW2 9870   4.122   2.748   4.683 -0.1466  0.9973  0.5680
 2468SOL    HW3 9871   4.098   2.607   4.731 -1.1554  0.5911 -1.0730
 2468SOL    MW4 9872   4.110   2.692   4.748 -0.1865  0.2755 -0.0594
 2469SOL     OW 9873   4.184   2.192   3.274 -0.2273  0.1787 -0.4574
 2469SOL    HW2 9874   4.204   2.205   3.181 -1.5255  0.6895 -0.6833
 2469SOL    HW3 9875   4.269   2.181   3.316  0.3656 -0.2300 -1.7359
 2469SOL    MW4 9876   4.198   2.192   3.267 -0.3204  0.1922 -0.6559
 2470SOL     OW 9877   1.554   0.463   4.316 -0.2381 -0.3705  0.4058
 2470SOL    HW2 9878   1.605   0.424   4.387 -0.3614 -0.0634  0.6681
 2470SOL    HW3 9879   1.557   0.557   4.334  1.8419 -0.0450 -1.3844
 2470SOL    MW4 9880   1.562   0.470   4.328  0.0200 -0.2871  0.2042
 2471SOL     OW 9881   3.132   3.986   3.381  0.5054 -0.5256 -0.2514
 2471SOL    HW2 9882   3.169   4.033   3.455 -0.9469  0.8587 -0.3942
 2471SOL    HW3 9883   3.206   3.969   3.323  1.2514  0.4059  0.4330
 2471SOL    MW4 9884   3.146   3.990   3.383  0.4122 -0.2201 -0.1800
 2472SOL     OW 9885   0.505   0.702   3.849  0.1098  0.0332  0.2288
 2472SOL    HW2 9886   0.523   0.659   3.766 -0.9708 -1.6026  0.8124
 2472SOL    HW3 9887   0.591   0.710   3.891  0.3832 -1.2117 -0.0732
 2472SOL    MW4 9888   0.519   0.697   3.844  0.0033 -0.3469  0.2659
 2473SOL     OW 9889   2.697   0.498   4.239  0.3727  0.4180  0.0790
 2473SOL    HW2 9890   2.630   0.430   4.243  2.9764 -2.2530  0.3724
 2473SOL    HW3 9891   2.656   0.575   4.278 -1.2530 -2.2258  3.8711
 2473SOL    MW4 9892   2.683   0.499   4.244  0.5017 -0.2832  0.6180
 2474SOL     OW 9893   0.423   1.897   4.260 -0.1019  0.1550 -0.1471
 2474SOL    HW2 9894   0.459   1.848   4.186  0.0871 -0.0492  0.0761
 2474SOL    HW3 9895   0.406   1.985   4.226 -1.1152 -0.2675 -0.7319
 2474SOL    MW4 9896   0.426   1.902   4.246 -0.2106  0.0723 -0.1948
 2475SOL     OW 9897   4.075   1.210   4.565 -0.2608  0.5301  0.0460
 2475SOL    HW2 9898   4.135   1.233   4.494 -0.9958 -0.0723 -0.7833
 2475SOL    HW3 9899   3.999   1.267   4.550 -0.7746 -0.2127 -0.1500
 2475SOL    MW4 9900   4.073   1.221   4.554 -0.4256  0.3526 -0.0893
 2476SOL     OW 9901   0.760   3.919   3.226  0.5785  0.5559 -0.4405
 2476SOL    HW2 9902   0.703   3.877   3.290  1.2984  0.6552  0.2809
 2476SOL    HW3 9903   0.753   4.013   3.247 -0.2380  0.7065 -1.3863
 2476SOL    MW4 9904   0.752   3.926   3.237  0.5658  0.5889 -0.4701
 2477SOL     OW 9905   3.955   0.280   3.292  0.1566  0.4623  0.4399
 2477SOL    HW2 9906   3.907   0.355   3.328  0.7361  1.4010 -0.7175
 2477SOL    HW3 9907   3.988   0.310   3.207 -0.8646 -1.5996 -0.7362
 2477SOL    MW4 9908   3.953   0.294   3.286  0.0983  0.3141  0.1321
 2478SOL     OW 9909   4.366   0.146   4.161  0.0024 -0.1197  0.2674
 2478SOL    HW2 9910   4.318   0.092   4.224  1.7978 -0.2071  1.6149
 2478SOL    HW3 9911   4.334   0.235   4.175  1.3736  0.0767  2.3015
 2478SOL    MW4 9912   4.355   0.150   4.171  0.4202 -0.1053  0.7136
 2479SOL     OW 9913   1.982   0.387   4.024 -0.4815 -0.2837 -0.3162
 2479SOL    HW2 9914   1.939   0.369   3.941 -1.8476 -1.5470  0.6340
 2479SOL    HW3 9915   1.913   0.426   4.079  0.0332 -0.7526  0.6688
 2479SOL    MW4 9916   1.967   0.390   4.021 -0.5938 -0.5122 -0.0609
 2480SOL     OW 9917   3.405   2.694   4.333 -0.3082  0.0354 -0.0831
 2480SOL    HW2 9918   3.402   2.653   4.419  0.7429  3.2659  1.5928
 2480SOL    HW3 9919   3.342   2.766   4.338 -0.9025 -0.2743 -2.3472
 2480SOL    MW4 9920   3.396   2.698   4.345 -0.2479  0.4208 -0.1607
 2481SOL     OW 9921   3.693   1.851   4.400  0.0029  0.1910  0.0575
 2481SOL    HW2 9922   3.659   1.762   4.406  0.5473 -0.1875 -2.2818
 2481SOL    HW3 9923   3.778   1.848   4.444  1.0160 -0.9723 -1.9559
 2481SOL    MW4 9924   3.700   1.839   4.407  0.2084 -0.0124 -0.5168
 2482SOL     OW 9925   2.042   0.453   3.652  0.7873  0.0122  0.4803
 2482SOL    HW2 9926   2.011   0.444   3.562 -0.4746 -0.3114  0.9399
 2482SOL    HW3 9927   1.984   0.397   3.703  0.5974  1.2795  1.6847
 2482SOL    MW4 9928   2.030   0.445   3.647  0.5957  0.1367  0.6998
 2483SOL     OW 9929   3.682   4.177   4.255 -0.0614  0.0822 -0.0310
 2483SOL    HW2 9930   3.628   4.253   4.233 -0.2326  0.1570  0.6318
 2483SOL    HW3 9931   3.730   4.204   4.333  1.1042  0.0912 -0.7460
 2483SOL    MW4 9932   3.681   4.191   4.262  0.0698  0.0933 -0.0379
 2484SOL     OW 9933   1.367   2.285   4.429  0.1816  0.3323  0.0192
 2484SOL    HW2 9934   1.383   2.288   4.335  0.2024  2.6484  0.0638
 2484SOL    HW3 9935   1.323   2.368   4.449  2.4037  1.0067  2.4396
 2484SOL    MW4 9936   1.364   2.296   4.419  0.4775  0.7269  0.3444
 2485SOL     OW 9937   0.530   3.265   4.624  0.5796  0.2545  0.2640
 2485SOL    HW2 9938   0.525   3.289   4.716  0.7637  1.6349 -0.0779
 2485SOL    HW3 9939   0.496   3.341   4.577  2.4157  0.3896 -0.8993
 2485SOL    MW4 9940   0.525   3.278   4.630  0.8461  0.4545  0.0654
 2486SOL     OW 9941   0.486   0.725   4.209  0.0108 -0.2855 -0.0360
 2486SOL    HW2 9942   0.576   0.712   4.240  0.5674  1.3528 -0.8858
 2486SOL    HW3 9943   0.444   0.776   4.278  0.1132  0.0554 -0.2257
 2486SOL    MW4 9944   0.493   0.730   4.222  0.0977 -0.0244 -0.1732
 2487SOL     OW 9945   1.750   1.334   4.399 -0.0147  0.1031 -0.3743
 2487SOL    HW2 9946   1.726   1.286   4.477 -0.6431  2.4206  0.9093
 2487SOL    HW3 9947   1.694   1.411   4.399  0.8304  0.7843 -2.4519
 2487SOL    MW4 9948   1.739   1.338   4.409  0.0139  0.4988 -0.4791
 2488SOL     OW 9949   1.653   1.313   4.139 -0.0125 -0.0740  0.1327
 2488SOL    HW2 9950   1.678   1.336   4.228 -1.3854 -0.8931  0.7480
 2488SOL    HW3 9951   1.620   1.223   4.146 -0.6512  0.0536 -1.0951
 2488SOL    MW4 9952   1.652   1.304   4.152 -0.2779 -0.1652  0.0519
 2489SOL     OW 9953   0.418   1.736   4.610 -0.3930 -0.5679 -0.6777
 2489SOL    HW2 9954   0.395   1.780   4.691  0.2140  1.7405 -1.7142
 2489SOL    HW3 9955   0.348   1.761   4.549  0.6736  0.0795 -1.6515
 2489SOL    MW4 9956   0.406   1.745   4.612 -0.1722 -0.1779 -0.9429
 2490SOL     OW 9957   1.582   3.332   4.364 -0.2545  0.3032 -0.2354
 2490SOL    HW2 9958   1.660   3.380   4.335 -0.8312  0.8264 -0.9348
 2490SOL    HW3 9959   1.512   3.397   4.363 -0.4961  0.0965  1.4217
 2490SOL    MW4 9960   1.583   3.347   4.360 -0.3624  0.3450 -0.1091
 2491SOL     OW 9961   1.040   2.981   3.901 -0.0128 -0.6133  0.0402
 2491SOL    HW2 9962   1.008   2.948   3.984 -1.3407  0.1705 -0.1332
 2491SOL    HW3 9963   0.998   2.926   3.835 -1.6359  0.8817 -0.2184
 2491SOL    MW4 9964   1.030   2.970   3.903 -0.4021 -0.3127 -0.0168
 2492SOL     OW 9965   1.110   2.488   4.404  0.3656  0.1032  0.4246
 2492SOL    HW2 9966   1.025   2.444   4.403  0.4264 -0.0231  0.7267
 2492SOL    HW3 9967   1.095   2.570   4.451  0.0298  0.8682 -0.9814
 2492SOL    MW4 9968   1.097   2.493   4.410  0.3293  0.1874  0.2789
 2493SOL     OW 9969   0.355   2.647   4.063  0.4540 -0.3019 -0.4267
 2493SOL    HW2 9970   0.381   2.626   4.153  0.6857  2.5561  0.2496
 2493SOL    HW3 9971   0.271   2.693   4.073  0.2247 -0.4295 -1.7157
 2493SOL    MW4 9972   0.347   2.651   4.076  0.4543  0.0584 -0.5075
 2494SOL     OW 9973   2.197   1.066   3.926  0.0940 -0.2411  0.0578
 2494SOL    HW2 9974   2.159   1.068   4.013 -1.5154  1.1613 -0.6479
 2494SOL    HW3 9975   2.152   1.136   3.878  2.6951  0.6842 -1.1787
 2494SOL    MW4 9976   2.186   1.076   3.931  0.2249  0.0660 -0.1984
 2495SOL     OW 9977   0.449   4.656   4.297  0.0029 -0.3367 -0.4537
 2495SOL    HW2 9978   0.381   4.590   4.311 -0.0381 -0.2899 -0.4312
 2495SOL    HW3 9979   0.502   4.653   4.377 -0.3886  0.1172 -0.1764
 2495SOL    MW4 9980   0.447   4.647   4.310 -0.0542 -0.2706 -0.4141
 2496SOL     OW 9981   1.308   2.908   3.909 -0.1935  1.0345  0.0775
 2496SOL    HW2 9982   1.357   2.984   3.878  1.1281 -1.5387 -4.6459
 2496SOL    HW3 9983   1.217   2.938   3.915  0.2323  2.8782 -2.2282
 2496SOL    MW4 9984   1.302   2.922   3.906  0.0370  0.9382 -0.8499
 2497SOL     OW 9985   0.830   2.536   4.243 -1.0207  0.0014 -0.4478
 2497SOL    HW2 9986   0.905   2.572   4.196 -0.2462 -0.4255  0.4460
 2497SOL    HW3 9987   0.760   2.599   4.228 -0.4224  0.5186 -1.1077
 2497SOL    MW4 9988   0.831   2.549   4.235 -0.8396  0.0133 -0.4170
 2498SOL     OW 9989   4.197   3.059   3.919  0.1299  0.5140  0.3616
 2498SOL    HW2 9990   4.137   3.130   3.942 -1.4321 -0.3611 -0.9538
 2498SOL    HW3 9991   4.252   3.096   3.850 -1.9143 -0.1189 -1.6472
 2498SOL    MW4 9992   4.197   3.073   3.913 -0.3459  0.3150 -0.0770
 2499SOL     OW 9993   0.877   0.122   3.384  0.1002 -0.6552 -0.0975
 2499SOL    HW2 9994   0.920   0.046   3.344 -0.1287 -0.9834  0.2760
 2499SOL    HW3 9995   0.948   0.172   3.424  0.1285 -1.2914  0.6752
 2499SOL    MW4 9996   0.892   0.118   3.384  0.0737 -0.7825  0.0537
 2500SOL     OW 9997   2.928   2.075   3.689  0.3677 -0.4371  0.2838
 2500SOL    HW2 9998   2.905   2.158   3.730  0.4027  0.3998 -1.3511
 2500SOL    HW3 9999   2.849   2.021   3.698  0.1908 -0.0707  0.9375
 2500SOL    MW410000   2.914   2.079   3.696  0.3490 -0.2784  0.1543
 2501SOL     OW10001   3.491   1.600   4.064 -0.4479  0.4512  0.0221
 2501SOL    HW210002   3.458   1.610   3.975  1.4819  0.5676 -0.7063
 2501SOL    HW310003   3.443   1.525   4.099 -0.2093 -0.5037 -1.6169
 2501SOL    MW410004   3.481   1.591   4.057 -0.1618  0.3406 -0.2902
 2502SOL     OW10005   2.408   3.056   3.290 -0.1476 -0.5513  0.4071
 2502SOL    HW210006   2.401   2.966   3.323 -0.3596 -0.0975  1.6346
 2502SOL    HW310007   2.412   3.046   3.195  0.1933 -1.8811  0.5440
 2502SOL    MW410008   2.408   3.043   3.282 -0.1306 -0.6669  0.5871
 2503SOL     OW10009   1.219   2.872   4.402  0.0605  0.1005 -0.3759
 2503SOL    HW210010   1.286   2.941   4.407 -0.5450  0.7591 -1.0976
 2503SOL    HW310011   1.267   2.794   4.375  0.6514  0.4041 -0.2203
 2503SOL    MW410012   1.234   2.871   4.399  0.0586  0.2274 -0.4506
 2504SOL     OW10013   4.353   4.636   3.261 -0.5155 -0.2039  0.3101
 2504SOL    HW210014   4.315   4.555   3.295 -0.1424 -0.7110 -0.4949
 2504SOL    HW310015   4.310   4.705   3.312 -1.2717 -0.8721  0.5862
 2504SOL    MW410016   4.342   4.635   3.272 -0.5661 -0.3589  0.2403
 2505SOL     OW10017   2.417   1.486   4.100  0.7221  0.2577 -0.0498
 2505SOL    HW210018   2.497   1.538   4.090  0.6504  0.4355  0.3054
 2505SOL    HW310019   2.444   1.411   4.153  0.6369  0.3589  0.1380
 2505SOL    MW410020   2.431   1.483   4.106  0.7014  0.2945  0.0219
 2506SOL     OW10021   3.921   0.679   4.154 -0.7292  0.1678  0.4283
 2506SOL    HW210022   3.826   0.686   4.151 -0.8004 -0.7939  0.4706
 2506SOL    HW310023   3.948   0.684   4.062 -0.8424  0.0501  0.3894
 2506SOL    MW410024   3.912   0.681   4.141 -0.7536  0.0254  0.4287
 2507SOL     OW10025   1.455   3.765   4.275 -0.4255  0.0936  0.1216
 2507SOL    HW210026   1.501   3.834   4.322  1.0374 -1.9335  1.7743
 2507SOL    HW310027   1.378   3.808   4.238  1.1551  2.8824 -0.0623
 2507SOL    MW410028   1.451   3.780   4.277 -0.0240  0.1941  0.3154
 2508SOL     OW10029   3.698   0.955   4.628  0.2463 -0.4551 -0.0907
 2508SOL    HW210030   3.726   0.883   4.685  1.2306  0.2002  0.2668
 2508SOL    HW310031   3.777   0.981   4.581  0.4146  1.7172  1.2665
 2508SOL    MW410032   3.712   0.949   4.630  0.3984 -0.0821  0.1355
 2509SOL     OW10033   1.380   1.683   3.858 -0.3251 -0.2065 -0.4149
 2509SOL    HW210034   1.328   1.761   3.835 -0.6119 -0.3260 -0.1877
 2509SOL    HW310035   1.366   1.623   3.785 -0.8634 -0.4069 -0.1559
 2509SOL    MW410036   1.371   1.686   3.846 -0.4340 -0.2487 -0.3508
 2510SOL     OW10037   0.196   3.690   3.880  0.0675  0.3378 -0.0340
 2510SOL    HW210038   0.245   3.732   3.809 -1.2866  0.4671 -0.9062
 2510SOL    HW310039   0.176   3.602   3.846 -0.1501  0.2239  0.3918
 2510SOL    MW410040   0.200   3.684   3.866 -0.1399  0.3398 -0.0929
 2511SOL     OW10041   0.608   0.006   4.514  0.0495  0.2291 -0.5301
 2511SOL    HW210042   0.673   0.062   4.556 -0.6581 -0.4473  1.5151
 2511SOL    HW310043   0.621  -0.081   4.552 -0.9921 -0.2629 -1.2605
 2511SOL    MW410044   0.618   0.002   4.524 -0.1813  0.0749 -0.3567
 2512SOL     OW10045   3.680   3.458   3.344 -0.3878  0.0833 -0.3883
 2512SOL    HW210046   3.595   3.427   3.375 -0.6061 -0.8958 -1.8817
 2512SOL    HW310047   3.669   3.465   3.249  1.0180  0.5227 -0.5263
 2512SOL    MW410048   3.667   3.455   3.335 -0.2311  0.0121 -0.6035
 2513SOL     OW10049   3.775   3.908   3.273  0.1276 -0.0666 -0.5134
 2513SOL    HW210050   3.791   3.824   3.317  2.2623  1.1744  1.1712
 2513SOL    HW310051   3.703   3.948   3.322  0.7038  0.1318  0.1695
 2513SOL    MW410052   3.768   3.902   3.285  0.4853  0.1233 -0.2010
 2514SOL     OW10053   0.661   0.225   4.194  0.1984  0.3741  0.5779
 2514SOL    HW210054   0.600   0.177   4.251 -0.5066  0.4088 -0.1212
 2514SOL    HW310055   0.610   0.301   4.164  0.8433  0.8042  0.5829
 2514SOL    MW410056   0.646   0.228   4.197  0.1905  0.4354  0.4863
 2515SOL     OW10057   1.256   3.282   4.219  0.4177 -0.7314 -0.1315
 2515SOL    HW210058   1.289   3.339   4.289  1.7270 -1.0048 -0.5229
 2515SOL    HW310059   1.176   3.324   4.190  0.6148  0.1418  0.5725
 2515SOL    MW410060   1.250   3.295   4.225  0.6164 -0.6523 -0.0902
 2516SOL     OW10061   0.819   1.711   4.298  0.0138  0.0076 -0.7878
 2516SOL    HW210062   0.830   1.764   4.219  0.2946  1.4074  0.1689
 2516SOL    HW310063   0.766   1.765   4.356  0.1404 -0.8478  0.1304
 2516SOL    MW410064   0.814   1.725   4.295  0.0676  0.0794 -0.5405
 2517SOL     OW10065   0.057   2.341   3.204 -0.0205  0.4979 -0.4690
 2517SOL    HW210066   0.135   2.377   3.247  0.0776  0.8309 -0.9230
 2517SOL    HW310067  -0.009   2.410   3.213 -0.4013  0.0418  0.3020
 2517SOL    MW410068   0.059   2.355   3.211 -0.0578  0.4816 -0.4272
 2518SOL     OW10069   2.499   1.531   3.801  0.1521  0.2381  0.1354
 2518SOL    HW210070   2.438   1.600   3.772 -0.2420 -0.1463  0.0358
 2518SOL    HW310071   2.469   1.508   3.889 -0.3265 -0.4838 -0.2048
 2518SOL    MW410072   2.487   1.537   3.809  0.0370  0.0921  0.0774
 2519SOL     OW10073   2.704   3.686   3.638 -0.3603  0.1431 -0.4891
 2519SOL    HW210074   2.609   3.690   3.634 -0.5225 -0.1137  2.2600
 2519SOL    HW310075   2.731   3.773   3.665  0.0741 -0.1819  0.1488
 2519SOL    MW410076   2.695   3.698   3.641 -0.3244  0.0663 -0.0422
 2520SOL     OW10077   2.425   3.029   3.760 -0.2220 -0.7944 -0.9090
 2520SOL    HW210078   2.341   3.061   3.727 -0.4891 -1.5777 -0.9821
 2520SOL    HW310079   2.417   3.035   3.855 -0.9439 -2.3435 -0.8620
 2520SOL    MW410080   2.413   3.034   3.768 -0.3525 -1.1021 -0.9125
 2521SOL     OW10081   1.329   2.323   3.666  0.1079  0.3355  0.2405
 2521SOL    HW210082   1.325   2.351   3.575  0.5194 -0.9212 -0.1690
 2521SOL    HW310083   1.373   2.239   3.664 -0.2397  0.1037  1.5645
 2521SOL    MW410084   1.334   2.316   3.654  0.1163  0.1391  0.3611
 2522SOL     OW10085   3.590   2.899   3.427 -0.7870 -0.0291 -0.0793
 2522SOL    HW210086   3.495   2.910   3.437 -0.6025  1.4830  0.1190
 2522SOL    HW310087   3.600   2.843   3.350 -1.8792 -1.5750  0.8789
 2522SOL    MW410088   3.579   2.893   3.418 -0.9067 -0.0336  0.0733
 2523SOL     OW10089   0.751   3.249   3.836 -0.1638  0.0964  0.5658
 2523SOL    HW210090   0.735   3.326   3.890 -0.6622 -1.0801  2.1467
 2523SOL    HW310091   0.846   3.239   3.835 -0.1948 -0.4568  2.0921
 2523SOL    MW410092   0.761   3.258   3.843 -0.2336 -0.1318  0.9757
 2524SOL     OW10093   0.447   1.155   3.455 -0.0078 -0.0848 -0.0406
 2524SOL    HW210094   0.453   1.096   3.530  0.1615 -0.6684 -0.5016
 2524SOL    HW310095   0.399   1.231   3.487 -1.4572 -1.0898  0.1940
 2524SOL    MW410096   0.442   1.157   3.469 -0.1767 -0.2944 -0.0705
 2525SOL     OW10097   3.846   1.314   3.402 -0.3446  0.3201 -0.0837
 2525SOL    HW210098   3.766   1.264   3.386 -0.0788 -0.0927 -0.1018
 2525SOL    HW310099   3.916   1.261   3.366 -0.0654  0.7125 -0.1217
 2525SOL    MW410100   3.845   1.301   3.395 -0.2727  0.3174 -0.0911
 2526SOL     OW10101   0.699   3.078   3.632 -0.1063 -0.4404  0.2576
 2526SOL    HW210102   0.731   3.121   3.553  0.0295  0.1386  0.6204
 2526SOL    HW310103   0.711   3.144   3.701 -0.9893 -0.6364  0.6091
 2526SOL    MW410104   0.704   3.093   3.631 -0.2049 -0.3899  0.3519
 2527SOL     OW10105   3.156   1.892   3.309 -0.2921 -0.1736 -0.4436
 2527SOL    HW210106   3.162   1.881   3.214 -0.8656  2.1690 -0.7746
 2527SOL    HW310107   3.075   1.940   3.323 -0.2305 -0.5199  1.2608
 2527SOL    MW410108   3.146   1.897   3.298 -0.3597  0.0898 -0.2624
 2528SOL     OW10109   2.925   1.666   4.095 -0.3813  0.2031  0.6687
 2528SOL    HW210110   2.973   1.746   4.072  1.0113 -0.7142  0.3107
 2528SOL    HW310111   2.928   1.612   4.016  0.7245 -1.1660  1.6206
 2528SOL    MW410112   2.932   1.670   4.082 -0.0517 -0.0986  0.7471
 2529SOL     OW10113   0.390   3.211   3.380  0.2454 -0.3001  0.3047
 2529SOL    HW210114   0.316   3.160   3.347  0.1170 -0.4142  0.7596
 2529SOL    HW310115   0.383   3.295   3.337 -0.8011  0.0716  1.1851
 2529SOL    MW410116   0.380   3.215   3.370  0.0904 -0.2661  0.4808
 2530SOL     OW10117   1.057   2.552   3.828 -0.1875 -0.7399 -0.2288
 2530SOL    HW210118   1.063   2.456   3.824 -2.0018 -0.8195 -1.3806
 2530SOL    HW310119   0.970   2.572   3.795 -0.0093  1.2982  0.4921
 2530SOL    MW410120   1.047   2.542   3.823 -0.4034 -0.4815 -0.2857
 2531SOL     OW10121   4.416   2.613   4.798  0.1550  0.6384  0.1119
 2531SOL    HW210122   4.323   2.635   4.790 -0.0534 -0.2406  0.0009
 2531SOL    HW310123   4.437   2.632   4.889 -0.5566 -0.6899  0.5628
 2531SOL    MW410124   4.407   2.618   4.809  0.0336  0.3472  0.1567
 2532SOL     OW10125   0.843   3.481   4.264 -0.3937 -0.0712  0.2808
 2532SOL    HW210126   0.870   3.542   4.331 -0.3235  1.4266 -1.0732
 2532SOL    HW310127   0.910   3.488   4.196 -1.3319 -0.2888 -0.6952
 2532SOL    MW410128   0.855   3.490   4.264 -0.5082  0.0977 -0.0266
 2533SOL     OW10129   4.326   2.029   4.491  0.6069 -0.1300  0.2866
 2533SOL    HW210130   4.343   2.023   4.397 -0.7105  0.2671  0.0215
 2533SOL    HW310131   4.281   2.113   4.502 -2.4585 -1.7824  0.8035
 2533SOL    MW410132   4.323   2.040   4.480  0.0287 -0.2957  0.3198
 2534SOL     OW10133   2.910   0.463   3.381 -0.3965 -0.1596 -0.3352
 2534SOL    HW210134   2.958   0.466   3.464  0.5523 -0.3245 -0.8659
 2534SOL    HW310135   2.919   0.551   3.345  0.1000 -0.3793 -0.7584
 2534SOL    MW410136   2.918   0.475   3.388 -0.2058 -0.2104 -0.4610
 2535SOL     OW10137   4.250   2.294   4.476  0.1111 -0.0048  0.5359
 2535SOL    HW210138   4.264   2.387   4.462 -1.3583  0.2469  0.7058
 2535SOL    HW310139   4.208   2.264   4.395 -0.1938 -0.3525  0.8241
 2535SOL    MW410140   4.247   2.302   4.463 -0.1230 -0.0175  0.5964
 2536SOL     OW10141   0.140   3.151   4.454 -0.3464 -0.0914  0.2644
 2536SOL    HW210142   0.230   3.118   4.468 -0.3773 -0.6365 -0.7673
 2536SOL    HW310143   0.150   3.221   4.390 -0.7346 -0.6125 -0.3721
 2536SOL    MW410144   0.153   3.156   4.447 -0.4017 -0.2321  0.0443
 2537SOL     OW10145   2.901   4.347   3.356  0.2324  0.2243 -0.0416
 2537SOL    HW210146   2.823   4.324   3.305 -1.4532  0.4767  2.3142
 2537SOL    HW310147   2.909   4.442   3.347 -0.1163  0.2799  0.1967
 2537SOL    MW410148   2.892   4.356   3.348 -0.0360  0.2649  0.3007
 2538SOL     OW10149   2.853   2.642   4.458 -0.1043  0.0027  0.3147
 2538SOL    HW210150   2.919   2.686   4.511  0.3354 -0.9793  0.6019
 2538SOL    HW310151   2.793   2.711   4.431  1.1264  0.9441 -0.0794
 2538SOL    MW410152   2.854   2.657   4.461  0.1161 -0.0027  0.3006
 2539SOL     OW10153   3.708   1.423   3.995 -0.4976 -0.3264 -0.1358
 2539SOL    HW210154   3.745   1.376   4.070 -0.0410  1.1219  0.5626
 2539SOL    HW310155   3.639   1.478   4.033 -1.9251 -1.4083 -1.1312
 2539SOL    MW410156   3.703   1.424   4.010 -0.6257 -0.2780 -0.1750
 2540SOL     OW10157   2.697   3.426   3.832 -0.3949  0.7455 -0.1149
 2540SOL    HW210158   2.672   3.431   3.924 -0.5036 -1.1816 -0.0169
 2540SOL    HW310159   2.623   3.382   3.789  0.7918 -0.7505 -0.6559
 2540SOL    MW410160   2.684   3.421   3.838 -0.2527  0.2939 -0.1734
 2541SOL     OW10161   2.872   3.607   3.407 -0.1958 -0.0226 -0.0383
 2541SOL    HW210162   2.825   3.624   3.489 -1.7359 -1.6113 -0.5732
 2541SOL    HW310163   2.812   3.555   3.355  1.7218 -1.1169 -1.2133
 2541SOL    MW410164   2.858   3.602   3.411 -0.1460 -0.3766 -0.2639
 2542SOL     OW10165   0.679   1.476   4.396 -0.0448  0.1097  0.3048
 2542SOL    HW210166   0.737   1.546   4.367 -0.3788  0.1267 -0.3404
 2542SOL    HW310167   0.715   1.397   4.356  0.3474 -0.0892  1.0535
 2542SOL    MW410168   0.691   1.475   4.387 -0.0371  0.0857  0.3185
 2543SOL     OW10169   1.131   1.186   3.381  0.2838 -0.3956  0.2758
 2543SOL    HW210170   1.068   1.171   3.452 -0.1855 -0.7945 -0.2223
 2543SOL    HW310171   1.104   1.269   3.342  0.8601  0.0880  0.8949
 2543SOL    MW410172   1.119   1.195   3.385  0.2979 -0.3845  0.2917
 2544SOL     OW10173   1.155   1.231   4.445  0.3825 -0.2432  0.0234
 2544SOL    HW210174   1.137   1.142   4.475  0.1832  0.0183  0.6830
 2544SOL    HW310175   1.105   1.240   4.363 -0.7880 -0.2423  0.7232
 2544SOL    MW410176   1.146   1.221   4.438  0.2018 -0.2086  0.2028
 2545SOL     OW10177   2.948   3.969   4.296  0.4431 -0.6410 -0.4353
 2545SOL    HW210178   2.928   3.929   4.211 -0.7063 -1.4624  0.2205
 2545SOL    HW310179   3.033   4.011   4.282  0.0233 -0.3153 -2.1451
 2545SOL    MW410180   2.957   3.969   4.283  0.2360 -0.7064 -0.5743
 2546SOL     OW10181   0.041   0.532   3.619  0.7635 -0.4633  0.4955
 2546SOL    HW210182   0.000   0.548   3.705 -1.5245  0.6592 -0.7465
 2546SOL    HW310183  -0.032   0.505   3.563  2.4526 -2.5002 -0.7935
 2546SOL    MW410184   0.026   0.531   3.623  0.6845 -0.5839  0.1616
 2547SOL     OW10185   1.392   1.133   4.119  0.1434  0.1502  0.2506
 2547SOL    HW210186   1.447   1.086   4.056  1.7365  1.2980  0.7643
 2547SOL    HW310187   1.378   1.219   4.079 -0.5962  0.1628  0.5183
 2547SOL    MW410188   1.397   1.138   4.105  0.2560  0.3033  0.3537
 2548SOL     OW10189   3.824   4.202   3.985 -0.1574  0.0798 -0.0517
 2548SOL    HW210190   3.842   4.119   3.942  0.7131  0.5014 -0.5096
 2548SOL    HW310191   3.778   4.178   4.066 -1.8630 -0.7114 -1.2341
 2548SOL    MW410192   3.820   4.188   3.990 -0.2676  0.0311 -0.2681
 2549SOL     OW10193   3.156   3.242   4.082 -0.2188  0.1895 -0.0189
 2549SOL    HW210194   3.232   3.291   4.114  0.6917 -1.3095  0.1570
 2549SOL    HW310195   3.187   3.198   4.003 -0.1712 -2.3124  1.3342
 2549SOL    MW410196   3.170   3.243   4.076 -0.0924 -0.3383  0.1828
 2550SOL     OW10197   1.716   2.698   3.334 -0.0477  0.0064  0.4543
 2550SOL    HW210198   1.712   2.610   3.372 -0.3062 -0.8133 -1.3837
 2550SOL    HW310199   1.624   2.720   3.318  0.1023 -0.0526 -0.5207
 2550SOL    MW410200   1.703   2.689   3.337 -0.0621 -0.1096  0.0832
 2551SOL     OW10201   2.321   0.698   3.649 -0.5181 -0.2198  0.2182
 2551SOL    HW210202   2.376   0.757   3.701 -0.1810 -0.2057 -0.1539
 2551SOL    HW310203   2.370   0.616   3.646 -0.3870 -0.1219 -0.3493
 2551SOL    MW410204   2.335   0.695   3.656 -0.4563 -0.2050  0.0943
 2552SOL     OW10205   1.421   0.123   4.239  0.0789  0.5685  0.2573
 2552SOL    HW210206   1.408   0.107   4.333 -0.6949  3.1870  0.6350
 2552SOL    HW310207   1.338   0.098   4.199  0.0643  0.3888  0.3977
 2552SOL    MW410208   1.408   0.118   4.246 -0.0251  0.8903  0.3257
 2553SOL     OW10209   4.305   0.740   3.294 -0.2002 -0.1123  0.1244
 2553SOL    HW210210   4.398   0.762   3.294 -0.1200 -0.4536  0.4139
 2553SOL    HW310211   4.277   0.755   3.203 -0.2490  1.5855  0.4108
 2553SOL    MW410212   4.313   0.745   3.282 -0.1961  0.0667  0.2004
 2554SOL     OW10213   2.750   0.391   3.690  0.3727  0.2030  0.3041
 2554SOL    HW210214   2.827   0.434   3.652  0.8710 -0.3913  0.6383
 2554SOL    HW310215   2.780   0.303   3.713 -0.2156  0.1943  1.0787
 2554SOL    MW410216   2.764   0.385   3.688  0.3608  0.1234  0.4504
 2555SOL     OW10217   0.054   2.989   3.883 -0.0828 -0.0600 -0.2161
 2555SOL    HW210218  -0.007   2.920   3.861  0.2536 -0.2529 -0.5443
 2555SOL    HW310219   0.139   2.957   3.854  0.0102  0.6868 -0.7998
 2555SOL    MW410220   0.057   2.976   3.877 -0.0262  0.0131 -0.3364
 2556SOL     OW10221   1.733   1.665   4.116 -0.0529 -0.1532  0.2771
 2556SOL    HW210222   1.797   1.597   4.094 -1.5105 -0.9849 -1.5519
 2556SOL    HW310223   1.752   1.687   4.207  1.6771 -1.6511  0.3152
 2556SOL    MW410224   1.744   1.659   4.125 -0.0169 -0.4606  0.0408
 2557SOL     OW10225   3.225   3.734   4.422  0.0985  0.0436  0.1963
 2557SOL    HW210226   3.211   3.727   4.327  0.5104 -0.4832  0.1737
 2557SOL    HW310227   3.138   3.754   4.457 -0.0245  0.3906 -0.3089
 2557SOL    MW410228   3.211   3.735   4.414  0.1366  0.0199  0.1266
 2558SOL     OW10229   0.805   4.189   3.244  0.3183 -0.3611 -0.1846
 2558SOL    HW210230   0.822   4.215   3.154 -1.7439  0.6205 -0.3140
 2558SOL    HW310231   0.883   4.215   3.292  0.6453  0.8521 -1.3495
 2558SOL    MW410232   0.817   4.196   3.238  0.0894 -0.0715 -0.3554
 2559SOL     OW10233   1.019   3.272   3.879 -0.0838  0.5347 -0.2805
 2559SOL    HW210234   1.065   3.286   3.796  2.1492 -0.4860  0.7474
 2559SOL    HW310235   1.025   3.178   3.895 -1.0593  0.6341  0.7313
 2559SOL    MW410236   1.026   3.262   3.870  0.0821  0.4132 -0.0114
 2560SOL     OW10237   0.208   1.864   4.437 -0.8183  0.5779  0.7011
 2560SOL    HW210238   0.276   1.871   4.370 -0.6019 -0.4265  0.8044
 2560SOL    HW310239   0.145   1.801   4.402 -0.3397 -0.4941  1.7461
 2560SOL    MW410240   0.208   1.857   4.424 -0.7266  0.3040  0.8526
 2561SOL     OW10241   3.123   1.208   4.080 -0.2015 -0.0489 -0.1086
 2561SOL    HW210242   3.147   1.127   4.126 -0.0944 -0.7940 -1.4544
 2561SOL    HW310243   3.196   1.268   4.097 -0.0800 -0.3702  0.5309
 2561SOL    MW410244   3.136   1.205   4.089 -0.1713 -0.1896 -0.2018
 2562SOL     OW10245   0.733   2.274   3.758  0.4114 -0.6962  0.1137
 2562SOL    HW210246   0.729   2.288   3.852  1.7357 -0.7831  0.1950
 2562SOL    HW310247   0.679   2.343   3.720  1.3716  0.4747  0.8512
 2562SOL    MW410248   0.725   2.285   3.765  0.7128 -0.5532  0.2217
 2563SOL     OW10249   1.656   3.027   3.780 -0.1935  0.2382  0.3779
 2563SOL    HW210250   1.713   3.079   3.724 -0.2883 -0.5088 -0.4157
 2563SOL    HW310251   1.699   2.942   3.786 -2.0092 -0.8408 -1.5003
 2563SOL    MW410252   1.670   3.023   3.774 -0.4456 -0.0027  0.0254
 2564SOL     OW10253   3.146   1.700   3.735  0.1688  0.3334  0.2462
 2564SOL    HW210254   3.151   1.793   3.756 -0.2996  0.1023  1.4205
 2564SOL    HW310255   3.077   1.666   3.792  1.4004 -1.0390  0.9856
 2564SOL    MW410256   3.138   1.708   3.745  0.2695  0.1218  0.4986
 2565SOL     OW10257   0.739   2.833   4.490 -0.2301  0.0124  0.4987
 2565SOL    HW210258   0.721   2.822   4.396 -2.1949 -0.0216  0.8596
 2565SOL    HW310259   0.735   2.928   4.504 -0.6463 -0.0290  0.6729
 2565SOL    MW410260   0.736   2.844   4.479 -0.5442  0.0025  0.5693
 2566SOL     OW10261   1.359   1.281   3.722  0.7622 -0.2389  0.0396
 2566SOL    HW210262   1.364   1.314   3.812  1.4746 -1.9481  0.6585
 2566SOL    HW310263   1.311   1.199   3.730  2.5350 -1.3946 -0.8323
 2566SOL    MW410264   1.353   1.274   3.735  1.0901 -0.6169  0.0062
 2567SOL     OW10265   1.667   1.132   4.588  0.2317 -0.2712 -0.6154
 2567SOL    HW210266   1.639   1.161   4.675  0.2902 -2.8306  0.3012
 2567SOL    HW310267   1.586   1.125   4.538  0.2280  1.5092 -0.8706
 2567SOL    MW410268   1.653   1.135   4.593  0.2389 -0.3740 -0.5281
 2568SOL     OW10269   2.892   1.006   4.025  0.2209  0.3067  0.2525
 2568SOL    HW210270   2.981   1.035   4.045 -0.6441  3.3853 -0.1913
 2568SOL    HW310271   2.855   1.076   3.971 -2.1221 -1.4210 -0.4584
 2568SOL    MW410272   2.899   1.019   4.021 -0.2023  0.4849  0.1002
 2569SOL     OW10273   1.430   3.330   4.009  0.2935 -0.0816 -0.1536
 2569SOL    HW210274   1.381   3.322   4.091  1.4709  0.5986  0.6198
 2569SOL    HW310275   1.510   3.376   4.032  0.3674  0.6641 -1.8103
 2569SOL    MW410276   1.434   3.335   4.023  0.4586  0.1065 -0.2701
 2570SOL     OW10277   1.152   0.742   3.257 -0.6525  0.0929 -0.5162
 2570SOL    HW210278   1.241   0.759   3.288 -0.5335 -1.4365  0.0378
 2570SOL    HW310279   1.103   0.820   3.281  0.0475  0.0493  1.1404
 2570SOL    MW410280   1.157   0.754   3.264 -0.5444 -0.1146 -0.2246
 2571SOL     OW10281   0.376   3.912   3.436  0.2624  0.2431  0.1718
 2571SOL    HW210282   0.352   3.848   3.504  0.8535 -0.6122 -0.4069
 2571SOL    HW310283   0.379   3.996   3.482  1.3091 -0.4208  1.3620
 2571SOL    MW410284   0.373   3.914   3.451  0.4785  0.0426  0.2524
 2572SOL     OW10285   0.145   3.988   4.432  0.1520 -0.3188 -0.1104
 2572SOL    HW210286   0.112   4.073   4.461 -1.3822 -1.0315  0.3104
 2572SOL    HW310287   0.171   4.002   4.341  1.6360  1.0501  0.4950
 2572SOL    MW410288   0.144   4.001   4.424  0.1454 -0.2322  0.0250
 2573SOL     OW10289   2.953   0.780   4.402  0.2385  0.1487 -0.2449
 2573SOL    HW210290   2.981   0.717   4.335 -0.8617 -1.2515  0.5903
 2573SOL    HW310291   3.034   0.825   4.427  0.6457  0.7685 -2.5780
 2573SOL    MW410292   2.967   0.777   4.396  0.1471  0.0457 -0.4425
 2574SOL     OW10293   4.060   1.651   4.250  0.1761  0.0340 -0.1468
 2574SOL    HW210294   4.058   1.735   4.296 -0.3137 -0.5123  0.8436
 2574SOL    HW310295   4.007   1.665   4.171 -0.0232  0.6123  0.0901
 2574SOL    MW410296   4.053   1.664   4.245  0.0852  0.0382  0.0151
 2575SOL     OW10297   0.508   1.189   4.079  0.1611 -0.2300 -0.4607
 2575SOL    HW210298   0.554   1.106   4.088  0.5717  0.2455  2.6057
 2575SOL    HW310299   0.474   1.190   3.990  0.7093 -3.3898 -0.7295
 2575SOL    MW410300   0.509   1.179   4.069  0.2876 -0.5842 -0.0916
 2576SOL     OW10301   2.683   1.938   3.781  0.0737  0.2692  0.2458
 2576SOL    HW210302   2.593   1.963   3.760 -0.0643 -0.0677  0.4379
 2576SOL    HW310303   2.683   1.842   3.776  0.5577  0.2925 -0.3153
 2576SOL    MW410304   2.672   1.929   3.777  0.1193  0.2278  0.1971
 2577SOL     OW10305   4.063   3.331   3.513 -0.1100  0.2873  0.1761
 2577SOL    HW210306   3.991   3.301   3.457 -0.0593  0.3700  0.0657
 2577SOL    HW310307   4.021   3.385   3.580 -0.4076 -1.3674  1.3637
 2577SOL    MW410308   4.048   3.334   3.514 -0.1426  0.0799  0.3183
 2578SOL     OW10309   2.989   0.526   3.645  0.1847 -0.0278  0.2952
 2578SOL    HW210310   3.012   0.495   3.732  2.3445 -0.4870 -0.4012
 2578SOL    HW310311   3.022   0.616   3.642 -1.2091  0.4998  0.4447
 2578SOL    MW410312   2.996   0.534   3.656  0.2857 -0.0188  0.2230
 2579SOL     OW10313   3.047   0.458   3.905 -0.1097  0.0398 -0.3118
 2579SOL    HW210314   3.095   0.375   3.905 -2.0127 -1.0806  0.2951
 2579SOL    HW310315   2.967   0.440   3.953 -1.2140  1.8453 -1.4041
 2579SOL    MW410316   3.043   0.445   3.911 -0.5065  0.1302 -0.3758
 2580SOL     OW10317   4.300   1.537   4.297 -0.0651  0.5079 -0.2382
 2580SOL    HW210318   4.221   1.588   4.315 -0.0597  0.0680  1.1147
 2580SOL    HW310319   4.347   1.535   4.381  1.1983  0.4496 -0.9294
 2580SOL    MW410320   4.296   1.544   4.311  0.1023  0.4422 -0.1509
 2581SOL     OW10321   3.724   2.809   3.879 -0.2626 -0.5575 -0.0222
 2581SOL    HW210322   3.784   2.840   3.946 -1.1737 -2.3826  1.6884
 2581SOL    HW310323   3.776   2.808   3.799  1.9534 -1.8661  1.3761
 2581SOL    MW410324   3.738   2.813   3.877 -0.0904 -0.9710  0.3880
 2582SOL     OW10325   1.091   1.373   4.201 -0.2322 -0.2278  0.0494
 2582SOL    HW210326   1.110   1.464   4.227 -1.5185 -0.0316  0.2979
 2582SOL    HW310327   0.998   1.373   4.179  0.2163 -1.0118 -1.9894
 2582SOL    MW410328   1.082   1.385   4.201 -0.3428 -0.3053 -0.1868
 2583SOL     OW10329   1.630   3.729   3.922 -0.1316 -0.5489 -0.7033
 2583SOL    HW210330   1.638   3.634   3.919  0.1493 -0.5645  0.2438
 2583SOL    HW310331   1.713   3.759   3.958 -0.8830 -0.0781  0.7079
 2583SOL    MW410332   1.642   3.720   3.926 -0.1937 -0.4889 -0.3922
 2584SOL     OW10333   2.950   3.769   4.503 -0.4919 -0.0843 -0.2891
 2584SOL    HW210334   2.876   3.787   4.561 -1.3203  0.4659 -1.4929
 2584SOL    HW310335   2.945   3.837   4.436  1.1121 -0.0366 -0.3910
 2584SOL    MW410336   2.940   3.780   4.501 -0.3896 -0.0054 -0.4613
 2585SOL     OW10337   1.108   3.469   4.528 -0.1511  0.0598 -0.0924
 2585SOL    HW210338   1.066   3.543   4.485  0.5115  0.0073 -0.8569
 2585SOL    HW310339   1.074   3.392   4.482 -0.9770 -0.1288  0.8187
 2585SOL    MW410340   1.098   3.468   4.516 -0.1726  0.0280 -0.0730
 2586SOL     OW10341   2.678   1.920   4.052  0.1611 -0.2877 -0.1532
 2586SOL    HW210342   2.764   1.946   4.084  1.2149 -3.9367  0.2373
 2586SOL    HW310343   2.682   1.932   3.957  1.6689 -1.7970 -0.3023
 2586SOL    MW410344   2.690   1.925   4.044  0.4991 -0.9683 -0.1213
 2587SOL     OW10345   3.688   3.902   4.418 -0.1650 -0.0467  0.0129
 2587SOL    HW210346   3.613   3.905   4.479  0.7343 -0.6881  1.1774
 2587SOL    HW310347   3.765   3.905   4.475  0.7108  1.0791 -1.2107
 2587SOL    MW410348   3.688   3.903   4.434  0.0692  0.0172  0.0051
 2588SOL     OW10349   1.457   0.078   4.508  0.5210 -0.0741 -0.4299
 2588SOL    HW210350   1.521   0.017   4.470  1.1615  0.4911 -0.2628
 2588SOL    HW310351   1.505   0.123   4.578 -1.0459 -2.1667  2.0933
 2588SOL    MW410352   1.471   0.076   4.513  0.3988 -0.2756 -0.0749
 2589SOL     OW10353   0.873   4.075   4.219  0.0521  0.5978  0.1772
 2589SOL    HW210354   0.964   4.086   4.247  0.2777 -0.7079 -0.0156
 2589SOL    HW310355   0.862   3.981   4.209 -1.6133  0.6741  1.1168
 2589SOL    MW410356   0.884   4.064   4.221 -0.1379  0.4356  0.2757
 2590SOL     OW10357   3.051   3.797   3.645 -0.0348  0.1811 -0.2758
 2590SOL    HW210358   3.065   3.807   3.551  0.1658 -0.8487 -0.3569
 2590SOL    HW310359   3.109   3.862   3.685 -0.0500  0.5536 -0.8520
 2590SOL    MW410360   3.060   3.807   3.638 -0.0104  0.0944 -0.3626
 2591SOL     OW10361   4.076   4.224   4.281 -0.0476  0.2804 -0.0473
 2591SOL    HW210362   4.006   4.290   4.279 -1.3446 -1.0965 -0.7948
 2591SOL    HW310363   4.085   4.204   4.374 -0.4554  0.6738  0.0837
 2591SOL    MW410364   4.068   4.230   4.293 -0.2725  0.1506 -0.1286
 2592SOL     OW10365   0.401   2.900   4.239 -0.1559 -0.4515  0.1314
 2592SOL    HW210366   0.311   2.894   4.206 -0.2039  1.4428 -0.1553
 2592SOL    HW310367   0.391   2.924   4.331  0.0593 -1.0184  0.3072
 2592SOL    MW410368   0.388   2.902   4.247 -0.1338 -0.2763  0.1168
 2593SOL     OW10369   3.809   3.655   4.628 -0.2605 -0.7787  0.0189
 2593SOL    HW210370   3.853   3.576   4.660 -0.4125 -1.6643 -1.8899
 2593SOL    HW310371   3.718   3.629   4.616 -0.2004 -0.4892 -1.1523
 2593SOL    MW410372   3.803   3.641   4.631 -0.2726 -0.8573 -0.3875
 2594SOL     OW10373   1.577   1.793   4.419 -0.1071 -0.4105 -0.1768
 2594SOL    HW210374   1.512   1.836   4.475 -0.6916 -1.5142  0.0129
 2594SOL    HW310375   1.651   1.853   4.417 -0.5430  0.1703  0.8444
 2594SOL    MW410376   1.578   1.807   4.426 -0.2417 -0.4795 -0.0171
 2595SOL     OW10377   2.627   4.279   3.245 -0.0188 -0.1322  0.0321
 2595SOL    HW210378   2.554   4.332   3.277  0.9003  2.1636 -1.5360
 2595SOL    HW310379   2.622   4.198   3.296 -2.8368  0.5251  0.8708
 2595SOL    MW410380   2.617   4.276   3.256 -0.2693  0.2574 -0.0641
 2596SOL     OW10381   4.475   1.624   3.416  0.3296 -0.4071  0.9205
 2596SOL    HW210382   4.504   1.710   3.388 -0.0969  0.0043  1.6994
 2596SOL    HW310383   4.395   1.607   3.366  0.6537 -0.5423  0.4485
 2596SOL    MW410384   4.468   1.633   3.406  0.3161 -0.3707  0.9610
 2597SOL     OW10385   3.556   3.590   4.336  0.4670  0.2303 -0.3761
 2597SOL    HW210386   3.606   3.671   4.326 -0.0165  0.7875  1.5054
 2597SOL    HW310387   3.622   3.521   4.340  0.9375  0.6579 -0.6941
 2597SOL    MW410388   3.571   3.592   4.335  0.4653  0.3602 -0.1698
 2598SOL     OW10389   1.186   0.064   4.136 -0.0945  0.4370 -0.4625
 2598SOL    HW210390   1.180   0.057   4.041 -0.9540  2.8880 -0.6215
 2598SOL    HW310391   1.095   0.057   4.167  0.0659  0.7221  0.0863
 2598SOL    MW410392   1.173   0.062   4.128 -0.1867  0.7980 -0.4111
 2599SOL     OW10393   1.760   2.213   4.247 -0.4409  0.4523 -0.3540
 2599SOL    HW210394   1.707   2.163   4.185  1.4898 -0.7748 -1.0904
 2599SOL    HW310395   1.828   2.254   4.193 -0.2567  1.4697  0.6328
 2599SOL    MW410396   1.762   2.212   4.231 -0.1619  0.4246 -0.3210
 2600SOL     OW10397   1.847   0.321   3.783  0.6266 -0.1409  0.0736
 2600SOL    HW210398   1.842   0.249   3.720 -0.9599  0.4969 -0.5595
 2600SOL    HW310399   1.760   0.325   3.823  0.4021  1.9575 -0.5503
 2600SOL    MW410400   1.835   0.312   3.780  0.3876  0.2201 -0.0923
 2601SOL     OW10401   4.031   1.959   3.301 -0.0376 -0.0738 -0.3312
 2601SOL    HW210402   4.025   1.933   3.209  1.5322 -1.3912 -0.0884
 2601SOL    HW310403   4.083   2.039   3.299 -0.1699  0.0062 -0.6290
 2601SOL    MW410404   4.037   1.966   3.288  0.1520 -0.2371 -0.3385
 2602SOL     OW10405   0.520   0.203   3.416  0.2402  0.4946 -0.0748
 2602SOL    HW210406   0.587   0.243   3.471  0.0696 -1.0378  1.3041
 2602SOL    HW310407   0.564   0.127   3.377 -0.2587  0.3553 -0.3675
 2602SOL    MW410408   0.535   0.198   3.418  0.1519  0.2740  0.0685
 2603SOL     OW10409   2.702   0.304   3.262  0.1111 -0.4082  0.0117
 2603SOL    HW210410   2.751   0.371   3.309  2.8141 -2.7071  0.5791
 2603SOL    HW310411   2.721   0.321   3.170  0.2362 -0.0079  0.1105
 2603SOL    MW410412   2.711   0.315   3.256  0.4842 -0.6587  0.0996
 2604SOL     OW10413   1.704   3.017   4.414  0.1692 -0.1055  0.1174
 2604SOL    HW210414   1.609   3.018   4.403  0.2646 -1.0695 -0.8989
 2604SOL    HW310415   1.724   3.097   4.463 -1.5458 -1.6207  3.4572
 2604SOL    MW410416   1.695   3.028   4.419 -0.0445 -0.4326  0.4240
 2605SOL     OW10417   3.104   2.476   3.462 -0.6255 -0.6852 -0.0290
 2605SOL    HW210418   3.027   2.437   3.420 -0.0425 -1.7025 -0.1814
 2605SOL    HW310419   3.173   2.411   3.449  0.3050  0.3030 -0.0532
 2605SOL    MW410420   3.103   2.462   3.455 -0.4258 -0.6890 -0.0523
 2606SOL     OW10421   1.187   1.917   4.267  0.3286 -0.8965 -0.3093
 2606SOL    HW210422   1.169   1.964   4.348 -0.4702 -0.7645 -0.5544
 2606SOL    HW310423   1.134   1.837   4.273  0.1655 -0.8256 -0.7539
 2606SOL    MW410424   1.178   1.912   4.278  0.2017 -0.8697 -0.4003
 2607SOL     OW10425   2.032   1.192   3.735  0.0864 -0.0273  0.2529
 2607SOL    HW210426   2.025   1.283   3.764  1.2638  1.0461 -2.6506
 2607SOL    HW310427   2.044   1.198   3.641 -0.9027 -3.2713 -0.1352
 2607SOL    MW410428   2.033   1.205   3.727  0.1112 -0.3137 -0.1814
 2608SOL     OW10429   3.376   1.548   3.330 -0.1734  0.8514 -0.0344
 2608SOL    HW210430   3.460   1.589   3.353 -0.2360 -0.2721  2.4102
 2608SOL    HW310431   3.311   1.595   3.383 -0.9036  0.8335 -0.9123
 2608SOL    MW410432   3.379   1.559   3.340 -0.2780  0.7008  0.1723
 2609SOL     OW10433   1.016   2.837   3.438 -0.4536 -0.3636  0.4435
 2609SOL    HW210434   1.094   2.782   3.435 -0.0685  0.2181 -1.0820
 2609SOL    HW310435   0.948   2.785   3.396 -0.1105  0.2540 -0.9244
 2609SOL    MW410436   1.018   2.823   3.432 -0.3575 -0.2054  0.0617
 2610SOL     OW10437   3.600   3.473   3.972  0.0267 -0.3718 -0.2469
 2610SOL    HW210438   3.577   3.522   3.893 -0.4202  0.2669  0.2711
 2610SOL    HW310439   3.670   3.525   4.012 -1.1403  0.4029  0.8322
 2610SOL    MW410440   3.606   3.486   3.967 -0.1862 -0.1853 -0.0362
 2611SOL     OW10441   4.462   3.927   3.692  0.2238  0.3840 -0.0777
 2611SOL    HW210442   4.520   3.994   3.728  0.5609 -0.4809  1.0259
 2611SOL    HW310443   4.375   3.953   3.720  0.3761  0.2618  0.5282
 2611SOL    MW410444   4.458   3.939   3.701  0.2884  0.2537  0.1479
 2612SOL     OW10445   1.950   2.294   4.075 -0.1982  0.0875  0.4083
 2612SOL    HW210446   2.004   2.225   4.114  0.8893 -0.4335 -1.9386
 2612SOL    HW310447   1.979   2.374   4.119  1.5380 -0.3873  0.1644
 2612SOL    MW410448   1.961   2.295   4.086  0.1744 -0.0439  0.0665
 2613SOL     OW10449   0.274   4.304   3.285  0.1698  0.6467  0.7193
 2613SOL    HW210450   0.302   4.257   3.363 -1.5090  0.5970  1.3056
 2613SOL    HW310451   0.339   4.280   3.218 -0.7831 -2.7007  0.9252
 2613SOL    MW410452   0.287   4.295   3.287 -0.1774  0.1985  0.8238
 2614SOL     OW10453   0.103   2.100   4.534  0.2934 -1.0878  0.4793
 2614SOL    HW210454   0.010   2.083   4.545  0.1469  0.4300  1.7668
 2614SOL    HW310455   0.138   2.020   4.495 -1.8241 -1.0451 -1.6306
 2614SOL    MW410456   0.095   2.087   4.530 -0.0053 -0.8819  0.3708
 2615SOL     OW10457   3.089   0.091   3.664  0.0897  0.0938  0.8632
 2615SOL    HW210458   3.088   0.100   3.569 -0.6207 -0.2056  0.8460
 2615SOL    HW310459   3.136   0.009   3.680 -0.4487 -0.2373  0.7441
 2615SOL    MW410460   3.095   0.081   3.654 -0.0750  0.0106  0.8452
 2616SOL     OW10461   1.601   3.825   3.473  0.5747  0.1719 -0.1925
 2616SOL    HW210462   1.578   3.739   3.437  0.5441  0.4746 -0.8960
 2616SOL    HW310463   1.556   3.828   3.557  1.7063 -1.0716  0.4792
 2616SOL    MW410464   1.592   3.814   3.479  0.7200  0.0478 -0.1967
 2617SOL     OW10465   3.220   1.845   4.413  0.2589 -0.2287 -0.4502
 2617SOL    HW210466   3.126   1.858   4.431  0.3735 -2.0961  1.7000
 2617SOL    HW310467   3.255   1.933   4.405 -1.4421  0.5226  0.0785
 2617SOL    MW410468   3.212   1.858   4.415  0.0496 -0.3760 -0.0967
 2618SOL     OW10469   3.408   1.031   3.987  0.5184 -0.0521 -0.1597
 2618SOL    HW210470   3.369   1.027   3.900 -0.7640  1.5047  0.3038
 2618SOL    HW310471   3.345   0.987   4.044  1.3774 -1.1169 -0.0221
 2618SOL    MW410472   3.394   1.025   3.983  0.4626  0.0128 -0.0804
 2619SOL     OW10473   2.416   3.940   3.753  0.5136 -0.0835  0.4108
 2619SOL    HW210474   2.441   3.958   3.843  1.0098  0.9630  0.0691
 2619SOL    HW310475   2.369   4.019   3.725  1.5540  0.1659 -0.6832
 2619SOL    MW410476   2.413   3.953   3.761  0.7163  0.0875  0.2213
 2620SOL     OW10477   1.960   1.442   3.363  0.3196 -0.4779  0.5721
 2620SOL    HW210478   2.010   1.497   3.424 -0.6521  1.3594 -0.2631
 2620SOL    HW310479   1.869   1.471   3.373  0.0810 -0.4858 -1.3798
 2620SOL    MW410480   1.955   1.453   3.372  0.1599 -0.2365  0.2044
 2621SOL     OW10481   1.768   1.999   4.412 -0.1368 -0.1106  0.0024
 2621SOL    HW210482   1.708   2.040   4.475 -0.1074  0.3276 -0.2518
 2621SOL    HW310483   1.781   2.066   4.345  0.1197 -0.4461 -0.2821
 2621SOL    MW410484   1.762   2.014   4.412 -0.0991 -0.0970 -0.0687
 2622SOL     OW10485   2.063   4.164   3.817 -0.3588  0.4778  0.0043
 2622SOL    HW210486   2.087   4.083   3.862  1.1065  0.8562 -0.0600
 2622SOL    HW310487   1.984   4.142   3.768 -0.3983 -0.7002  0.5834
 2622SOL    MW410488   2.056   4.151   3.816 -0.1707  0.3723  0.0722
 2623SOL     OW10489   4.217   1.220   4.308  0.4416 -0.2727 -0.3604
 2623SOL    HW210490   4.252   1.309   4.308 -0.8222  0.2386 -0.5084
 2623SOL    HW310491   4.293   1.165   4.324  1.4458  0.7466 -1.4968
 2623SOL    MW410492   4.231   1.225   4.310  0.4074 -0.0707 -0.5299
 2624SOL     OW10493   2.462   1.128   3.951 -0.2936 -0.5020  0.2874
 2624SOL    HW210494   2.367   1.123   3.951 -0.3786  0.8160  0.0686
 2624SOL    HW310495   2.484   1.165   4.037 -0.0675  0.4397 -0.1695
 2624SOL    MW410496   2.453   1.133   3.963 -0.2750 -0.2038  0.1982
 2625SOL     OW10497   2.862   3.887   3.320 -0.1872  0.1467  0.5973
 2625SOL    HW210498   2.869   3.798   3.355 -1.9755 -0.7235 -1.1310
 2625SOL    HW310499   2.935   3.934   3.358  0.1937 -1.8069  2.3513
 2625SOL    MW410500   2.872   3.881   3.329 -0.3729 -0.2258  0.6007
 2626SOL     OW10501   0.897   1.537   3.916 -0.2658 -0.2179  1.0479
 2626SOL    HW210502   0.977   1.564   3.960  0.5858 -2.0201  0.6345
 2626SOL    HW310503   0.863   1.618   3.877  0.7174  0.7678  2.1913
 2626SOL    MW410504   0.903   1.551   3.917 -0.0237 -0.3256  1.1442
 2627SOL     OW10505   1.839   0.621   4.451 -0.2064  0.2713  0.0556
 2627SOL    HW210506   1.811   0.711   4.470 -1.3589 -0.2419  0.8795
 2627SOL    HW310507   1.929   0.630   4.419  0.5330  1.5379  2.3353
 2627SOL    MW410508   1.847   0.634   4.450 -0.2609  0.3707  0.4651
 2628SOL     OW10509   3.228   4.515   3.688  0.0403 -0.2533  0.1567
 2628SOL    HW210510   3.174   4.448   3.728 -0.4415 -0.0206 -0.1022
 2628SOL    HW310511   3.273   4.471   3.617  1.1965 -0.7628  1.1887
 2628SOL    MW410512   3.227   4.501   3.684  0.1293 -0.2899  0.2587
 2629SOL     OW10513   0.092   1.838   3.730 -0.4041 -0.1858 -0.3931
 2629SOL    HW210514   0.065   1.930   3.732  0.2778 -0.0137  1.8128
 2629SOL    HW310515   0.174   1.839   3.680  1.3545  0.9260  2.3998
 2629SOL    MW410516   0.099   1.851   3.723 -0.0821 -0.0164  0.2664
 2630SOL     OW10517   0.910   0.025   4.202 -0.3317  0.0434  0.1198
 2630SOL    HW210518   0.888   0.100   4.146 -0.2422  1.0209  1.3652
 2630SOL    HW310519   0.837  -0.036   4.191 -0.8367  0.7052 -0.2366
 2630SOL    MW410520   0.897   0.027   4.193 -0.3865  0.2597  0.2371
 2631SOL     OW10521   4.314   4.489   4.529  0.0383  0.3437 -0.2787
 2631SOL    HW210522   4.358   4.568   4.558  1.2859 -0.6946  0.6959
 2631SOL    HW310523   4.384   4.425   4.519 -0.7337 -0.1706 -2.7122
 2631SOL    MW410524   4.329   4.491   4.531  0.1011  0.1389 -0.4712
 2632SOL     OW10525   2.577   0.751   4.201 -0.6809  0.0197 -0.0961
 2632SOL    HW210526   2.660   0.761   4.155 -1.5222  1.7712 -1.2889
 2632SOL    HW310527   2.528   0.687   4.150 -1.7031  2.1245 -1.8783
 2632SOL    MW410528   2.581   0.744   4.188 -0.9268  0.5285 -0.4886
 2633SOL     OW10529   2.535   4.017   4.480 -0.2848 -0.2587 -0.0379
 2633SOL    HW210530   2.582   4.076   4.421 -0.1776  0.2497  0.5495
 2633SOL    HW310531   2.446   4.052   4.484 -0.1451  0.0492  0.5440
 2633SOL    MW410532   2.529   4.030   4.473 -0.2522 -0.1510  0.1164
 2634SOL     OW10533   1.315   0.805   3.555 -0.5595 -0.0376 -0.0485
 2634SOL    HW210534   1.374   0.744   3.599 -0.0998  0.4387  0.0080
 2634SOL    HW310535   1.351   0.813   3.466 -0.2930  0.5633  0.1070
 2634SOL    MW410536   1.328   0.798   3.549 -0.4637  0.1045 -0.0205
 2635SOL     OW10537   3.085   4.554   4.136 -0.3631  0.2967 -0.0753
 2635SOL    HW210538   3.071   4.557   4.231  0.1319 -0.0143  0.0091
 2635SOL    HW310539   3.019   4.492   4.104  0.6377 -0.9908  0.2953
 2635SOL    MW410540   3.075   4.546   4.144 -0.1657  0.0858 -0.0153
 2636SOL     OW10541   1.963   2.262   3.365  0.1309 -0.3285 -0.2188
 2636SOL    HW210542   1.976   2.238   3.274  0.7393 -0.6525 -0.0469
 2636SOL    HW310543   1.976   2.181   3.414 -1.9108 -0.5343  0.0170
 2636SOL    MW410544   1.967   2.248   3.360 -0.0582 -0.3984 -0.1650
 2637SOL     OW10545   3.222   4.605   4.482  0.2190  0.4089 -0.6301
 2637SOL    HW210546   3.220   4.699   4.466  0.8646  0.3189 -1.2925
 2637SOL    HW310547   3.133   4.575   4.464 -0.0605  0.9300 -0.1364
 2637SOL    MW410548   3.210   4.614   4.478  0.2673  0.4657 -0.6524
 2638SOL     OW10549   2.021   4.384   3.975  0.4296 -0.2948  0.1324
 2638SOL    HW210550   2.102   4.399   4.022  1.1066 -0.2034 -1.0411
 2638SOL    HW310551   2.033   4.299   3.931  0.5336  0.4633 -1.3414
 2638SOL    MW410552   2.033   4.375   3.975  0.5327 -0.1827 -0.2169
 2639SOL     OW10553   3.378   0.591   3.960 -0.3251 -0.1187 -0.0475
 2639SOL    HW210554   3.296   0.638   3.947  0.2543  1.0565  0.4135
 2639SOL    HW310555   3.391   0.541   3.879 -1.9498 -1.0478  0.2521
 2639SOL    MW410556   3.369   0.591   3.948 -0.4630 -0.0862  0.0528
 2640SOL     OW10557   2.246   2.031   4.472  0.3968 -0.0971  0.1464
 2640SOL    HW210558   2.290   2.116   4.470  0.1885  0.0029 -0.3025
 2640SOL    HW310559   2.315   1.968   4.449  0.4481 -0.0038  0.0417
 2640SOL    MW410560   2.261   2.034   4.468  0.3761 -0.0716  0.0734
 2641SOL     OW10561   2.552   1.240   4.219 -0.0158  0.2109  0.0284
 2641SOL    HW210562   2.647   1.247   4.218 -0.0342  0.6344  0.6344
 2641SOL    HW310563   2.535   1.158   4.265  0.0672 -0.1509 -0.5878
 2641SOL    MW410564   2.562   1.230   4.225 -0.0073  0.2191  0.0271
 2642SOL     OW10565   3.597   0.884   4.221 -0.1623  0.0589  0.3646
 2642SOL    HW210566   3.651   0.939   4.164  2.1063 -1.6616  0.7722
 2642SOL    HW310567   3.580   0.806   4.168 -0.1734 -0.4652  1.1466
 2642SOL    MW410568   3.602   0.881   4.206  0.1356 -0.2372  0.5216
 2643SOL     OW10569   2.758   4.082   3.930  0.2315  0.2127 -0.0263
 2643SOL    HW210570   2.823   4.017   3.957 -0.1566 -0.5885 -1.0120
 2643SOL    HW310571   2.677   4.053   3.972 -0.0477 -0.2074 -0.8600
 2643SOL    MW410572   2.756   4.070   3.939  0.1435  0.0516 -0.2664
 2644SOL     OW10573   2.413   3.923   3.285 -0.3030  0.4893 -0.1783
 2644SOL    HW210574   2.343   3.979   3.319  0.0128  1.5189 -1.2050
 2644SOL    HW310575   2.493   3.960   3.323 -0.0869  0.8109 -0.9279
 2644SOL    MW410576   2.414   3.935   3.295 -0.2328  0.6676 -0.4126
 2645SOL     OW10577   4.139   2.191   4.250 -0.2684  0.0186 -0.4395
 2645SOL    HW210578   4.216   2.150   4.210  0.0285  1.1099 -0.9931
 2645SOL    HW310579   4.076   2.119   4.259  0.7846 -0.8757 -0.0296
 2645SOL    MW410580   4.141   2.176   4.246 -0.0903  0.0446 -0.4584
 2646SOL     OW10581   1.749   4.537   3.898 -0.2465 -0.0033  0.2535
 2646SOL    HW210582   1.716   4.452   3.868 -0.5336  0.3556 -0.4397
 2646SOL    HW310583   1.811   4.564   3.830 -1.2258  1.0171 -0.2484
 2646SOL    MW410584   1.753   4.529   3.885 -0.4136  0.1787  0.0958
 2647SOL     OW10585   0.540   1.019   3.672  0.3505  0.3795 -0.2770
 2647SOL    HW210586   0.512   1.099   3.717  0.0563  0.6715 -0.9703
 2647SOL    HW310587   0.472   0.954   3.695 -0.5709  0.9170 -1.4435
 2647SOL    MW410588   0.527   1.021   3.681  0.1901  0.4890 -0.5223
 2648SOL     OW10589   0.321   3.729   4.124  0.0072  0.4721 -0.0400
 2648SOL    HW210590   0.284   3.707   4.039 -1.8265  1.9344  0.3734
 2648SOL    HW310591   0.282   3.666   4.184 -0.0027  0.5313  0.0152
 2648SOL    MW410592   0.311   3.717   4.121 -0.2360  0.6729  0.0218
 2649SOL     OW10593   3.604   4.603   4.091 -0.6606  0.2073 -0.0315
 2649SOL    HW210594   3.556   4.583   4.011  0.6094 -0.0306 -0.7406
 2649SOL    HW310595   3.687   4.557   4.082 -1.0283 -0.9326  2.0372
 2649SOL    MW410596   3.608   4.594   4.080 -0.5416  0.0255  0.1479
 2650SOL     OW10597   2.928   1.902   4.443  0.1615  0.4001 -0.0277
 2650SOL    HW210598   2.851   1.846   4.439 -0.0485  0.6579  0.3726
 2650SOL    HW310599   2.894   1.990   4.455  0.5347  0.4321  0.8591
 2650SOL    MW410600   2.914   1.906   4.444  0.1830  0.4383  0.1421
 2651SOL     OW10601   0.083   1.395   4.002  0.5670 -0.1049 -0.2287
 2651SOL    HW210602  -0.012   1.405   4.006  0.3577 -1.8795 -0.5585
 2651SOL    HW310603   0.105   1.345   4.080  1.0712 -0.8372 -0.8368
 2651SOL    MW410604   0.073   1.390   4.012  0.6059 -0.4357 -0.3525
 2652SOL     OW10605   4.081   3.906   3.899  0.2549  0.1496  0.0308
 2652SOL    HW210606   4.140   3.831   3.913 -0.4914 -0.1142  1.8875
 2652SOL    HW310607   4.120   3.977   3.950 -0.0898  0.4727 -0.1518
 2652SOL    MW410608   4.094   3.906   3.908  0.1109  0.1574  0.2517
 2653SOL     OW10609   3.727   1.823   3.608 -0.1213  0.2122 -0.1601
 2653SOL    HW210610   3.659   1.821   3.675 -0.6251  0.6576 -0.6602
 2653SOL    HW310611   3.794   1.763   3.641  0.3993  1.6852  1.5336
 2653SOL    MW410612   3.727   1.815   3.621 -0.1190  0.4653 -0.0026
 2654SOL     OW10613   0.953   1.207   3.600  0.0455 -0.0957 -0.0830
 2654SOL    HW210614   0.960   1.299   3.625 -1.0716 -0.5503  2.0662
 2654SOL    HW310615   0.868   1.200   3.556 -1.1904 -0.5768  2.2615
 2654SOL    MW410616   0.943   1.218   3.597 -0.2649 -0.2192  0.5099
 2655SOL     OW10617   0.539   2.788   3.903  0.3469  0.3097  0.0206
 2655SOL    HW210618   0.562   2.873   3.941 -1.2216  0.1332  1.4915
 2655SOL    HW310619   0.490   2.745   3.973 -0.9361 -0.8353 -1.5649
 2655SOL    MW410620   0.535   2.794   3.917 -0.0293  0.1354  0.0055
 2656SOL     OW10621   0.258   4.406   3.652 -0.4387  0.0973  0.4766
 2656SOL    HW210622   0.209   4.485   3.630  1.0917  1.1143  0.6207
 2656SOL    HW310623   0.326   4.435   3.712  1.6462 -0.8689 -1.3012
 2656SOL    MW410624   0.260   4.420   3.657  0.0383  0.1040  0.2611
 2657SOL     OW10625   3.166   0.919   4.120  0.5964  0.4015  0.3451
 2657SOL    HW210626   3.142   0.841   4.069  3.3695 -0.4860  0.3440
 2657SOL    HW310627   3.172   0.888   4.210 -1.1545  1.2798  0.7855
 2657SOL    MW410628   3.163   0.904   4.125  0.7313  0.4003  0.4030
 2658SOL     OW10629   1.204   4.276   3.771  0.1089 -0.4477 -0.3861
 2658SOL    HW210630   1.159   4.311   3.848  0.7713 -0.1355 -0.1433
 2658SOL    HW310631   1.272   4.339   3.752  0.1562 -0.6940 -1.0369
 2658SOL    MW410632   1.207   4.289   3.779  0.2026 -0.4390 -0.4400
 2659SOL     OW10633   3.740   2.318   4.582 -0.4392  0.1978 -0.3099
 2659SOL    HW210634   3.749   2.381   4.511 -1.5674  1.6901  0.8441
 2659SOL    HW310635   3.677   2.253   4.549  0.0414  0.1527 -1.1512
 2659SOL    MW410636   3.733   2.317   4.569 -0.5247  0.3888 -0.2687
 2660SOL     OW10637   3.934   3.634   4.369 -0.6651 -0.1628 -0.3528
 2660SOL    HW210638   3.897   3.635   4.457 -0.8701 -0.4087 -0.4346
 2660SOL    HW310639   3.972   3.721   4.358  1.8929 -1.0438  1.0381
 2660SOL    MW410640   3.934   3.646   4.379 -0.3546 -0.3115 -0.1801
 2661SOL     OW10641   4.359   4.481   4.082  0.1598  0.7369 -0.1969
 2661SOL    HW210642   4.306   4.443   4.012  1.9939 -1.2058 -0.5926
 2661SOL    HW310643   4.296   4.527   4.137 -1.9449 -1.3937 -0.7065
 2661SOL    MW410644   4.344   4.482   4.080  0.1241  0.1995 -0.3163
 2662SOL     OW10645   1.879   0.817   3.396 -0.5240 -0.2304 -0.4732
 2662SOL    HW210646   1.893   0.799   3.489  1.8749 -0.2205 -0.8059
 2662SOL    HW310647   1.951   0.771   3.351 -0.8018  0.9774 -2.2053
 2662SOL    MW410648   1.891   0.808   3.402 -0.2442 -0.0698 -0.7456
 2663SOL     OW10649   0.894   2.669   3.050  0.7510 -0.0262 -0.4360
 2663SOL    HW210650   0.882   2.574   3.044  0.7371  0.0054 -0.9169
 2663SOL    HW310651   0.869   2.691   3.140 -0.6442 -0.2703 -0.7570
 2663SOL    MW410652   0.889   2.659   3.061  0.5650 -0.0542 -0.5418
 2664SOL     OW10653   3.469   3.315   3.477  0.4491 -0.0914  0.3043
 2664SOL    HW210654   3.410   3.255   3.431  1.4669 -3.1820  2.7789
 2664SOL    HW310655   3.416   3.353   3.547 -0.0240  1.4547 -0.8686
 2664SOL    MW410656   3.454   3.312   3.480  0.5210 -0.2952  0.4760
 2665SOL     OW10657   0.879   2.874   4.132  0.5908  0.3327  0.1661
 2665SOL    HW210658   0.917   2.941   4.189  2.0734 -0.2523 -0.1296
 2665SOL    HW310659   0.941   2.802   4.134  0.4730  0.1426 -1.8860
 2665SOL    MW410660   0.892   2.874   4.140  0.7708  0.2304 -0.1437
 2666SOL     OW10661   1.710   1.608   3.449  0.3825  0.5377  0.1352
 2666SOL    HW210662   1.708   1.703   3.440  0.2089  0.4712 -0.5835
 2666SOL    HW310663   1.646   1.576   3.385  0.1541 -0.0441  0.6388
 2666SOL    MW410664   1.701   1.616   3.440  0.3294  0.4521  0.1069
 2667SOL     OW10665   2.413   2.364   3.888  0.1673 -0.2999  0.4907
 2667SOL    HW210666   2.483   2.354   3.823 -0.8306 -2.7011 -0.2569
 2667SOL    HW310667   2.336   2.387   3.836 -0.3140 -0.7825  0.9964
 2667SOL    MW410668   2.412   2.366   3.872 -0.0279 -0.6804  0.4588
 2668SOL     OW10669   3.269   3.474   4.538 -0.1087 -0.0955  0.1073
 2668SOL    HW210670   3.360   3.473   4.569  0.2753  0.0503 -1.0027
 2668SOL    HW310671   3.255   3.564   4.506 -0.2644 -0.4443 -0.8191
 2668SOL    MW410672   3.279   3.486   4.538 -0.0786 -0.1223 -0.1614
 2669SOL     OW10673   0.717   1.318   3.898 -1.0114 -0.5336 -0.1087
 2669SOL    HW210674   0.782   1.387   3.885 -1.1058 -0.3884  0.1875
 2669SOL    HW310675   0.767   1.236   3.887 -0.7428 -0.4246  0.2790
 2669SOL    MW410676   0.732   1.316   3.895 -0.9884 -0.5000 -0.0184
 2670SOL     OW10677   2.771   0.552   4.535  0.1816 -0.1705 -0.2501
 2670SOL    HW210678   2.799   0.492   4.465 -0.5439 -0.5875 -0.1931
 2670SOL    HW310679   2.825   0.630   4.523 -0.2027 -0.0784 -1.5264
 2670SOL    MW410680   2.782   0.554   4.524  0.0352 -0.2133 -0.4110
 2671SOL     OW10681   3.440   0.447   3.751 -0.0245  0.3314 -0.8291
 2671SOL    HW210682   3.380   0.373   3.760 -1.0425  1.2613  0.1672
 2671SOL    HW310683   3.523   0.408   3.724 -0.4420 -1.2011  0.0969
 2671SOL    MW410684   3.443   0.432   3.748 -0.2139  0.2519 -0.5755
 2672SOL     OW10685   0.899   2.178   4.195  0.3431 -0.3578 -0.0933
 2672SOL    HW210686   0.902   2.091   4.156 -0.0646 -0.1867 -0.5065
 2672SOL    HW310687   0.849   2.231   4.133  2.4050  0.7077 -0.8741
 2672SOL    MW410688   0.893   2.174   4.182  0.5614 -0.1946 -0.2509
 2673SOL     OW10689   2.414   2.784   3.409 -0.1170 -0.0701 -0.3779
 2673SOL    HW210690   2.334   2.736   3.386  0.5708 -0.5434 -1.8601
 2673SOL    HW310691   2.413   2.788   3.504 -0.7001 -2.1626 -0.2650
 2673SOL    MW410692   2.403   2.778   3.418 -0.1032 -0.4086 -0.5586
 2674SOL     OW10693   3.790   2.047   3.431 -0.3031 -0.2676 -0.4505
 2674SOL    HW210694   3.782   1.973   3.491 -1.3247 -0.7971 -1.2093
 2674SOL    HW310695   3.870   2.030   3.382  0.1456 -0.2094  0.2687
 2674SOL    MW410696   3.799   2.035   3.432 -0.3787 -0.3298 -0.4557
 2675SOL     OW10697   2.043   0.940   4.413 -0.4904 -0.4428 -0.1759
 2675SOL    HW210698   2.116   0.936   4.475 -1.1956 -1.1283  0.6379
 2675SOL    HW310699   2.075   0.995   4.341  0.8085 -0.7227  0.1724
 2675SOL    MW410700   2.057   0.947   4.412 -0.4121 -0.5702 -0.0225
 2676SOL     OW10701   1.794   0.527   4.179 -0.0207 -0.0283  0.2297
 2676SOL    HW210702   1.708   0.496   4.208 -0.8993  2.8233  0.8274
 2676SOL    HW310703   1.829   0.574   4.254  1.0904  0.7699 -0.7755
 2676SOL    MW410704   1.788   0.529   4.192  0.0100  0.4532  0.1760
 2677SOL     OW10705   1.421   4.098   3.758 -0.0206  0.2626  0.1569
 2677SOL    HW210706   1.396   4.018   3.712  0.9162  1.9247 -3.4158
 2677SOL    HW310707   1.340   4.150   3.760 -0.2169 -0.0686  0.9876
 2677SOL    MW410708   1.407   4.095   3.752  0.0771  0.4382 -0.2049
 2678SOL     OW10709   1.303   0.918   4.273  0.4589  0.2940  0.2474
 2678SOL    HW210710   1.348   0.993   4.234  1.3539 -1.1314 -1.5642
 2678SOL    HW310711   1.272   0.868   4.197 -0.2973 -1.0564  1.4325
 2678SOL    MW410712   1.305   0.921   4.258  0.4772 -0.0722  0.1647
 2679SOL     OW10713   0.343   2.821   4.660  0.2688 -0.4393  0.7484
 2679SOL    HW210714   0.262   2.771   4.651  0.5043 -0.3647 -2.8701
 2679SOL    HW310715   0.412   2.758   4.639  0.6537  0.9497 -2.5102
 2679SOL    MW410716   0.341   2.806   4.656  0.3507 -0.2462 -0.1589
 2680SOL     OW10717   3.276   2.232   3.768  0.4111  0.2912  0.1002
 2680SOL    HW210718   3.364   2.204   3.794  0.3772  1.4557  1.5647
 2680SOL    HW310719   3.286   2.265   3.679  0.8678 -2.2995 -0.8521
 2680SOL    MW410720   3.289   2.232   3.760  0.4669  0.1030  0.1678
 2681SOL     OW10721   3.028   3.271   3.407  1.2425  0.4841  0.0002
 2681SOL    HW210722   3.071   3.352   3.378  0.3505  0.3091 -1.8842
 2681SOL    HW310723   2.980   3.296   3.486 -0.1578  2.1673 -1.3333
 2681SOL    MW410724   3.027   3.285   3.413  0.9400  0.6831 -0.4243
 2682SOL     OW10725   1.631   4.299   3.795  0.2835  0.1673  0.0176
 2682SOL    HW210726   1.714   4.276   3.754  0.8979 -0.2716  1.4522
 2682SOL    HW310727   1.584   4.215   3.801 -0.0481  0.3286 -0.3205
 2682SOL    MW410728   1.636   4.285   3.791  0.3208  0.1307  0.1623
 2683SOL     OW10729   0.819   3.188   3.413 -0.2487  0.0019  0.2674
 2683SOL    HW210730   0.907   3.161   3.384 -1.3660 -1.4611 -1.9191
 2683SOL    HW310731   0.813   3.280   3.389  0.5959  0.0302  0.1464
 2683SOL    MW410732   0.830   3.196   3.406 -0.2847 -0.1874 -0.0370
 2684SOL     OW10733   2.306   0.817   3.363 -0.3971 -0.5891  0.5029
 2684SOL    HW210734   2.285   0.816   3.456 -0.7795 -1.6406  0.4077
 2684SOL    HW310735   2.386   0.765   3.356  0.0820  0.1511  0.3405
 2684SOL    MW410736   2.314   0.810   3.374 -0.3843 -0.6302  0.4689
 2685SOL     OW10737   3.053   2.740   4.104  0.6153  0.3558 -0.4406
 2685SOL    HW210738   2.958   2.749   4.094  0.3775 -0.8518  0.5748
 2685SOL    HW310739   3.087   2.741   4.014 -0.5656 -1.2570 -0.9211
 2685SOL    MW410740   3.045   2.741   4.091  0.4281 -0.0163 -0.3701
 2686SOL     OW10741   3.509   2.159   3.890  0.0227 -0.1071  0.0343
 2686SOL    HW210742   3.459   2.147   3.971  0.9791  0.7475  0.7601
 2686SOL    HW310743   3.547   2.073   3.873 -1.2552 -0.6328 -0.2378
 2686SOL    MW410744   3.508   2.146   3.898 -0.0197 -0.0637  0.0941
 2687SOL     OW10745   1.412   0.831   3.309  0.2297 -0.0379 -0.2985
 2687SOL    HW210746   1.503   0.806   3.291  0.7932  1.0929  0.9233
 2687SOL    HW310747   1.413   0.926   3.310 -0.8487 -0.0286  0.3524
 2687SOL    MW410748   1.425   0.840   3.307  0.1618  0.1125 -0.0514
 2688SOL     OW10749   3.173   2.323   4.015  0.1161 -0.2605 -0.1824
 2688SOL    HW210750   3.202   2.296   3.928 -0.8928 -0.3799 -0.4830
 2688SOL    HW310751   3.232   2.394   4.039 -0.0582  0.2541 -1.2624
 2688SOL    MW410752   3.185   2.329   4.007 -0.0400 -0.2084 -0.3646
 2689SOL     OW10753   2.318   4.184   4.383 -0.1885  0.1315 -0.8812
 2689SOL    HW210754   2.301   4.278   4.385  0.4653  0.2266  0.6471
 2689SOL    HW310755   2.237   4.145   4.351 -0.0342  1.3072 -2.7643
 2689SOL    MW410756   2.305   4.191   4.379 -0.0819  0.2992 -0.9280
 2690SOL     OW10757   3.323   2.904   3.511  0.0995  0.1828 -0.1871
 2690SOL    HW210758   3.299   2.912   3.603  0.6618 -1.1907  0.0936
 2690SOL    HW310759   3.268   2.833   3.477  0.8958 -0.2809 -0.5340
 2690SOL    MW410760   3.313   2.896   3.519  0.2787 -0.0596 -0.1958
 2691SOL     OW10761   1.850   1.083   3.308 -0.4344 -0.1704  0.1426
 2691SOL    HW210762   1.853   0.989   3.327 -0.9137 -0.2003  0.0790
 2691SOL    HW310763   1.928   1.118   3.350 -0.2821 -0.5883  0.2169
 2691SOL    MW410764   1.860   1.075   3.316 -0.4776 -0.2294  0.1440
 2692SOL     OW10765   1.026   3.779   3.667  0.0541  0.2850  0.0003
 2692SOL    HW210766   1.020   3.712   3.599 -0.3830  0.5551 -0.2307
 2692SOL    HW310767   1.097   3.836   3.638 -0.0610  0.3393 -0.1759
 2692SOL    MW410768   1.035   3.778   3.654 -0.0188  0.3278 -0.0534
 2693SOL     OW10769   2.460   0.456   3.623  0.1612 -0.0320  0.0073
 2693SOL    HW210770   2.471   0.434   3.531 -0.0754 -0.8782  0.1832
 2693SOL    HW310771   2.548   0.450   3.660 -0.0392 -1.5254  0.2421
 2693SOL    MW410772   2.473   0.453   3.616  0.1035 -0.3407  0.0615
 2694SOL     OW10773   3.487   0.859   3.660 -0.8020  0.2513  0.6256
 2694SOL    HW210774   3.538   0.873   3.580 -2.0930 -3.8187 -1.0615
 2694SOL    HW310775   3.553   0.836   3.726 -0.0319 -0.5981 -0.4083
 2694SOL    MW410776   3.503   0.858   3.658 -0.8707 -0.3977  0.2666
 2695SOL     OW10777   2.125   1.993   3.837  0.4662 -0.4930  0.4603
 2695SOL    HW210778   2.164   2.051   3.903 -0.0983 -0.1349  0.4852
 2695SOL    HW310779   2.127   1.907   3.877  1.6126 -0.5449  0.2932
 2695SOL    MW410780   2.130   1.990   3.851  0.5430 -0.4526  0.4416
 2696SOL     OW10781   2.917   3.318   3.668  0.3278 -0.3766  0.7118
 2696SOL    HW210782   2.835   3.339   3.712 -0.9034  0.0998 -1.7568
 2696SOL    HW310783   2.925   3.223   3.678 -1.5504 -0.7149 -0.7136
 2696SOL    MW410784   2.907   3.308   3.675 -0.0824 -0.3584  0.1980
 2697SOL     OW10785   1.922   4.450   3.469  0.2409  0.5355  0.6383
 2697SOL    HW210786   1.860   4.382   3.444  0.2303  0.9883 -0.5924
 2697SOL    HW310787   2.008   4.412   3.451  0.2828  0.3484  1.2271
 2697SOL    MW410788   1.925   4.436   3.463  0.2450  0.5706  0.5536
 2698SOL     OW10789   0.763   0.447   3.882 -0.1354 -0.1482  0.3750
 2698SOL    HW210790   0.854   0.435   3.852 -0.1467 -1.6391  0.8964
 2698SOL    HW310791   0.717   0.371   3.847 -1.2388  0.7096 -0.0535
 2698SOL    MW410792   0.769   0.435   3.873 -0.2825 -0.2317  0.3873
 2699SOL     OW10793   3.383   4.394   3.444  0.5150 -0.2517 -0.3348
 2699SOL    HW210794   3.362   4.468   3.388  1.9739  0.7463  0.3921
 2699SOL    HW310795   3.328   4.323   3.412  0.3075  0.6801 -2.1226
 2699SOL    MW410796   3.373   4.394   3.433  0.6801  0.0029 -0.4747
 2700SOL     OW10797   0.367   1.832   3.663  0.1308 -0.4659  0.3534
 2700SOL    HW210798   0.431   1.872   3.721  0.1319 -0.0641  0.0758
 2700SOL    HW310799   0.417   1.771   3.610  0.5358  0.9392 -0.8926
 2700SOL    MW410800   0.382   1.829   3.664  0.1844 -0.2275  0.1524
 2701SOL     OW10801   3.784   0.539   4.365 -0.4044  0.4358  0.5220
 2701SOL    HW210802   3.855   0.569   4.309 -0.1088 -0.2002  0.5456
 2701SOL    HW310803   3.802   0.579   4.450 -0.8617  1.4104  0.1661
 2701SOL    MW410804   3.795   0.548   4.369 -0.4258  0.4804  0.4782
 2702SOL     OW10805   0.159   0.089   4.307 -0.4335  0.1003 -0.0801
 2702SOL    HW210806   0.244   0.095   4.350 -1.7156  1.5440  2.4001
 2702SOL    HW310807   0.154   0.169   4.254 -1.2489  1.3523  1.8115
 2702SOL    MW410808   0.170   0.101   4.306 -0.7103  0.4560  0.4967
 2703SOL     OW10809   1.304   3.608   4.037 -0.2397  0.5303 -0.1029
 2703SOL    HW210810   1.366   3.659   4.090  0.0025  0.8245 -0.6648
 2703SOL    HW310811   1.357   3.574   3.965 -0.7819  0.9843 -0.7231
 2703SOL    MW410812   1.319   3.611   4.034 -0.2793  0.6290 -0.2588
 2704SOL     OW10813   1.936   2.819   3.428 -0.1474  0.4300 -0.5103
 2704SOL    HW210814   2.016   2.773   3.404 -0.1245  0.0229  0.3155
 2704SOL    HW310815   1.866   2.761   3.399 -0.1155 -0.9647  2.0252
 2704SOL    MW410816   1.937   2.805   3.421 -0.1402  0.1922 -0.0668
 2705SOL     OW10817   4.228   4.372   3.879 -0.1322 -0.1556 -0.1626
 2705SOL    HW210818   4.212   4.283   3.911  0.5017 -0.3743 -0.4458
 2705SOL    HW310819   4.276   4.360   3.797  0.0592  0.4490 -0.1432
 2705SOL    MW410820   4.233   4.358   3.872 -0.0233 -0.1047 -0.1974
 2706SOL     OW10821   1.775   2.555   3.701  0.0769  0.2494  0.7498
 2706SOL    HW210822   1.685   2.553   3.732  0.1600 -2.6709  0.9475
 2706SOL    HW310823   1.816   2.478   3.741  2.8349  1.8752  1.1633
 2706SOL    MW410824   1.769   2.544   3.710  0.4518  0.0786  0.8304
 2707SOL     OW10825   3.332   1.386   4.161  0.5918  0.3102 -0.4473
 2707SOL    HW210826   3.391   1.315   4.189 -0.8957 -1.1854 -1.0134
 2707SOL    HW310827   3.292   1.416   4.243  0.8353  0.1342 -0.2606
 2707SOL    MW410828   3.335   1.380   4.176  0.4276  0.0897 -0.4974
 2708SOL     OW10829   3.459   1.369   3.713  0.1895 -0.3602 -0.2490
 2708SOL    HW210830   3.391   1.337   3.772 -0.1422 -0.6176 -0.7719
 2708SOL    HW310831   3.537   1.318   3.737  0.1205 -0.2915  0.1284
 2708SOL    MW410832   3.460   1.358   3.724  0.1366 -0.3851 -0.2682
 2709SOL     OW10833   3.355   3.425   3.723 -0.0523  0.2240  0.5269
 2709SOL    HW210834   3.420   3.493   3.738 -1.0246  1.4823 -0.8969
 2709SOL    HW310835   3.271   3.470   3.728 -0.6574 -0.6268 -1.7252
 2709SOL    MW410836   3.353   3.440   3.726 -0.2604  0.2778  0.0419
 2710SOL     OW10837   3.835   3.836   4.010  0.4241 -0.4026  0.0571
 2710SOL    HW210838   3.861   3.889   4.085  0.7067  2.9108 -2.2358
 2710SOL    HW310839   3.910   3.841   3.950 -0.4817 -1.4529 -1.2043
 2710SOL    MW410840   3.849   3.844   4.012  0.3419 -0.1040 -0.4119
 2711SOL     OW10841   1.231   4.583   4.491 -0.0628 -0.2075  0.5936
 2711SOL    HW210842   1.293   4.654   4.509 -0.1121 -0.3795  1.5025
 2711SOL    HW310843   1.148   4.627   4.472  0.2153  0.0085 -0.1277
 2711SOL    MW410844   1.228   4.598   4.491 -0.0326 -0.2017  0.6184
 2712SOL     OW10845   3.069   2.782   4.544  0.5785  0.0080 -0.9451
 2712SOL    HW210846   3.103   2.863   4.583  0.2248  0.2957 -1.2186
 2712SOL    HW310847   3.135   2.716   4.563 -0.2214 -0.1889  1.3624
 2712SOL    MW410848   3.082   2.784   4.551  0.4263  0.0200 -0.6768
 2713SOL     OW10849   2.882   2.302   4.084  0.0386  0.2951  0.5175
 2713SOL    HW210850   2.969   2.340   4.071  0.4273 -1.2223 -1.5816
 2713SOL    HW310851   2.898   2.220   4.130 -0.2710  0.0306  0.1599
 2713SOL    MW410852   2.895   2.296   4.088  0.0490  0.0600  0.1933
 2714SOL     OW10853   3.462   4.098   3.768 -0.3585 -0.2128  0.4511
 2714SOL    HW210854   3.538   4.140   3.726  0.0433 -0.4609  0.9136
 2714SOL    HW310855   3.498   4.019   3.809 -0.7590 -0.0291  1.1668
 2714SOL    MW410856   3.477   4.093   3.768 -0.3583 -0.2213  0.6065
 2715SOL     OW10857   2.627   2.412   3.711  0.2697 -0.1899 -0.3090
 2715SOL    HW210858   2.713   2.371   3.722  0.1765 -0.0159  1.1741
 2715SOL    HW310859   2.638   2.500   3.749 -1.0303 -0.7704  1.4413
 2715SOL    MW410860   2.640   2.418   3.718  0.0859 -0.2435  0.1176
 2716SOL     OW10861   1.430   3.030   4.357  0.2200  0.2600  0.1754
 2716SOL    HW210862   1.439   2.981   4.275 -1.5063 -0.8660  0.6223
 2716SOL    HW310863   1.428   3.122   4.330  2.4790  0.0591 -0.7734
 2716SOL    MW410864   1.431   3.036   4.343  0.2903  0.0849  0.1092
 2717SOL     OW10865   3.386   2.101   3.318 -0.1116 -0.0245  0.2333
 2717SOL    HW210866   3.317   2.034   3.318  0.4756 -0.7678 -3.0051
 2717SOL    HW310867   3.468   2.050   3.321  0.3067  0.6676  0.5261
 2717SOL    MW410868   3.388   2.085   3.318  0.0210 -0.0313 -0.1553
 2718SOL     OW10869   0.485   1.137   4.517  0.2844 -0.6953  0.0445
 2718SOL    HW210870   0.575   1.124   4.486 -0.3056  0.0707 -2.0965
 2718SOL    HW310871   0.481   1.230   4.539 -0.1539 -0.5928 -0.4684
 2718SOL    MW410872   0.497   1.148   4.516  0.1487 -0.5807 -0.3056
 2719SOL     OW10873   1.247   3.913   4.156 -0.1198  0.1911 -0.3354
 2719SOL    HW210874   1.324   3.942   4.106  1.3763  0.3071  1.9650
 2719SOL    HW310875   1.192   3.870   4.091  2.5830 -1.2185 -1.8002
 2719SOL    MW410876   1.250   3.911   4.141  0.4342  0.0204 -0.2252
 2720SOL     OW10877   0.809   0.345   3.208 -0.1050  0.1254  0.0906
 2720SOL    HW210878   0.810   0.260   3.253  0.9054  0.3729  0.5346
 2720SOL    HW310879   0.718   0.372   3.211 -0.8510 -1.9389 -1.8924
 2720SOL    MW410880   0.797   0.337   3.214 -0.0701 -0.1143 -0.1124
 2721SOL     OW10881   2.678   4.468   4.313  0.4128  0.0463 -0.4867
 2721SOL    HW210882   2.613   4.533   4.338  0.2191 -0.1323 -0.5235
 2721SOL    HW310883   2.692   4.481   4.220 -0.6218 -0.8428 -0.7784
 2721SOL    MW410884   2.671   4.478   4.304  0.2507 -0.0946 -0.5301
 2722SOL     OW10885   0.782   3.909   3.652 -0.0957 -0.0670  0.1730
 2722SOL    HW210886   0.799   4.002   3.640  0.9314 -0.6295 -3.3148
 2722SOL    HW310887   0.869   3.869   3.654 -0.5962 -1.2621 -1.3908
 2722SOL    MW410888   0.796   3.916   3.651 -0.0262 -0.2989 -0.4935
 2723SOL     OW10889   2.753   1.167   3.306  0.7146  0.3192 -0.1356
 2723SOL    HW210890   2.759   1.159   3.210 -0.1640 -0.5003 -0.1305
 2723SOL    HW310891   2.666   1.204   3.321  0.9706  0.7287  0.3378
 2723SOL    MW410892   2.742   1.171   3.295  0.6325  0.2651 -0.0724
 2724SOL     OW10893   1.480   3.827   3.716  0.2365  0.4392  0.0630
 2724SOL    HW210894   1.550   3.808   3.778  0.5125  0.0473 -0.3671
 2724SOL    HW310895   1.430   3.746   3.710  0.2824  0.4379 -0.3149
 2724SOL    MW410896   1.482   3.814   3.723  0.2790  0.3873 -0.0436
 2725SOL     OW10897   3.142   0.359   3.259  0.0403 -0.1230 -0.3179
 2725SOL    HW210898   3.137   0.344   3.165 -1.2803  1.6324 -0.5380
 2725SOL    HW310899   3.052   0.374   3.286  0.6970  1.9752  0.7918
 2725SOL    MW410900   3.130   0.359   3.250 -0.0473  0.3854 -0.2005
 2726SOL     OW10901   0.390   3.043   4.479  0.2989 -0.0752  0.0421
 2726SOL    HW210902   0.385   2.971   4.542  0.8972  0.1886  0.3979
 2726SOL    HW310903   0.436   3.113   4.526 -0.0445  0.4484 -0.3860
 2726SOL    MW410904   0.396   3.043   4.493  0.3325  0.0286  0.0326
 2727SOL     OW10905   0.142   2.550   3.717  0.3289 -0.1245  0.4293
 2727SOL    HW210906   0.058   2.551   3.764 -0.1358 -0.4707 -0.3948
 2727SOL    HW310907   0.155   2.641   3.690 -0.4074 -0.3073 -0.5556
 2727SOL    MW410908   0.132   2.562   3.720  0.1705 -0.1943  0.1906
 2728SOL     OW10909   2.223   1.861   3.371 -0.0177  0.1552  0.0581
 2728SOL    HW210910   2.216   1.855   3.275  0.5058 -1.2245  0.1016
 2728SOL    HW310911   2.142   1.905   3.397 -0.8138 -0.7106 -0.9011
 2728SOL    MW410912   2.211   1.866   3.361 -0.0537 -0.1410 -0.0627
 2729SOL     OW10913   1.820   0.057   3.631 -0.7275  0.3628 -0.1047
 2729SOL    HW210914   1.882   0.025   3.696 -0.4762  1.4083  0.1773
 2729SOL    HW310915   1.856   0.028   3.547  0.4511  1.4632  0.0102
 2729SOL    MW410916   1.833   0.049   3.629 -0.5389  0.6460 -0.0524
 2730SOL     OW10917   3.681   0.891   3.475  0.2117  0.0174  0.1023
 2730SOL    HW210918   3.747   0.897   3.544 -0.2035  0.2858  0.4759
 2730SOL    HW310919   3.673   0.980   3.441 -0.1548  0.0363  0.2376
 2730SOL    MW410920   3.689   0.903   3.479  0.1086  0.0553  0.1695
 2731SOL     OW10921   0.238   2.397   4.497 -0.5932 -0.2664 -0.0855
 2731SOL    HW210922   0.254   2.332   4.566 -0.0158  0.2430  0.2739
 2731SOL    HW310923   0.165   2.362   4.447 -1.0822 -0.5986  0.8530
 2731SOL    MW410924   0.231   2.384   4.500 -0.5816 -0.2430  0.0857
 2732SOL     OW10925   1.393   4.441   3.696 -0.4836 -0.1739  0.3055
 2732SOL    HW210926   1.390   4.531   3.731 -0.5919 -0.4817  1.1073
 2732SOL    HW310927   1.484   4.415   3.705  0.0858  0.7809 -2.3440
 2732SOL    MW410928   1.404   4.450   3.702 -0.4227 -0.0885  0.0618
 2733SOL     OW10929   2.324   1.728   3.690  0.0490  0.1797  0.0897
 2733SOL    HW210930   2.266   1.711   3.615 -0.5791 -0.8450  0.7759
 2733SOL    HW310931   2.269   1.709   3.767  0.5006  1.7904  0.8230
 2733SOL    MW410932   2.309   1.723   3.690  0.0257  0.2570  0.2770
 2734SOL     OW10933   3.215   1.240   3.829  0.4449 -0.7135 -0.3246
 2734SOL    HW210934   3.183   1.226   3.919  1.2317 -0.6735 -0.0361
 2734SOL    HW310935   3.236   1.152   3.797  1.0585 -0.6400 -0.1318
 2734SOL    MW410936   3.214   1.226   3.837  0.6297 -0.6986 -0.2611
 2735SOL     OW10937   0.075   4.217   3.688  0.5536 -0.1802 -0.1160
 2735SOL    HW210938   0.136   4.288   3.670 -0.0608  0.6731  1.0893
 2735SOL    HW310939  -0.011   4.254   3.671  0.2489 -0.7106  0.2518
 2735SOL    MW410940   0.072   4.231   3.684  0.4324 -0.1376  0.0916
 2736SOL     OW10941   3.879   4.344   3.615  0.2706 -0.3942 -0.0274
 2736SOL    HW210942   3.964   4.377   3.643  0.2111  0.9075 -1.3286
 2736SOL    HW310943   3.869   4.376   3.525 -1.0306 -1.6069 -0.3276
 2736SOL    MW410944   3.889   4.353   3.607  0.0911 -0.3825 -0.2387
 2737SOL     OW10945   0.115   2.317   3.568  0.4922  0.3327  0.3812
 2737SOL    HW210946   0.169   2.323   3.489 -2.2728 -0.1130 -1.6054
 2737SOL    HW310947   0.104   2.408   3.596 -0.3496  0.6764 -1.0368
 2737SOL    MW410948   0.121   2.330   3.561  0.0163  0.3192 -0.0680
 2738SOL     OW10949   3.850   4.480   4.027  0.1192  0.2888  0.7801
 2738SOL    HW210950   3.864   4.394   3.989  0.1398 -0.5938  2.7144
 2738SOL    HW310951   3.919   4.535   3.991  1.3650 -1.0381  1.1235
 2738SOL    MW410952   3.861   4.476   4.018  0.2863 -0.0027  1.0806
 2739SOL     OW10953   0.624   3.086   4.276  0.1549  0.3370 -0.2433
 2739SOL    HW210954   0.663   3.092   4.363 -1.3428  0.5584  0.4258
 2739SOL    HW310955   0.541   3.041   4.289  0.5907 -0.9576 -1.7910
 2739SOL    MW410956   0.618   3.081   4.289  0.0148  0.1954 -0.3592
 2740SOL     OW10957   1.375   3.514   4.361  0.3778 -0.0323  0.9548
 2740SOL    HW210958   1.333   3.531   4.445  0.2265 -0.4542  0.9658
 2740SOL    HW310959   1.383   3.600   4.319 -2.6497 -0.2081 -0.0862
 2740SOL    MW410960   1.371   3.527   4.366 -0.0416 -0.1111  0.8189
 2741SOL     OW10961   1.564   2.133   4.579 -0.2783 -0.2818 -0.0374
 2741SOL    HW210962   1.498   2.067   4.597 -0.6483  0.2638  0.6401
 2741SOL    HW310963   1.514   2.211   4.555  0.1649 -0.4558 -1.5992
 2741SOL    MW410964   1.549   2.135   4.578 -0.2686 -0.2327 -0.1540
 2742SOL     OW10965   3.886   2.956   4.049  0.0761  0.4084  0.0008
 2742SOL    HW210966   3.943   3.033   4.042 -1.3096  1.4806  0.3284
 2742SOL    HW310967   3.841   2.967   4.132 -1.2442  0.0265 -0.6497
 2742SOL    MW410968   3.887   2.968   4.059 -0.2809  0.4995 -0.0418
 2743SOL     OW10969   4.409   0.543   3.853  0.3042  0.3857 -0.1602
 2743SOL    HW210970   4.436   0.602   3.923 -0.3203 -1.2703  1.5248
 2743SOL    HW310971   4.328   0.503   3.885  0.6841 -1.3249 -1.2787
 2743SOL    MW410972   4.402   0.545   3.866  0.2720 -0.0585 -0.0855
 2744SOL     OW10973   2.869   3.043   3.966 -0.2085 -0.6285 -0.3093
 2744SOL    HW210974   2.945   3.023   4.020  0.5954  0.4064 -1.0365
 2744SOL    HW310975   2.804   2.978   3.991  0.2631 -0.3740  1.6544
 2744SOL    MW410976   2.870   3.032   3.976 -0.0402 -0.4584 -0.1462
 2745SOL     OW10977   1.510   2.014   3.407  0.2323  0.2386 -0.2225
 2745SOL    HW210978   1.433   1.980   3.360 -0.3136  1.3813 -0.1538
 2745SOL    HW310979   1.526   2.100   3.368  1.7911 -0.1963 -0.5842
 2745SOL    MW410980   1.502   2.020   3.396  0.3659  0.3320 -0.2611
 2746SOL     OW10981   0.207   3.357   4.274  0.2448  0.3060 -0.2985
 2746SOL    HW210982   0.156   3.437   4.271  0.1922  0.1993 -2.8192
 2746SOL    HW310983   0.180   3.307   4.197  0.2803 -2.1427  1.2072
 2746SOL    MW410984   0.197   3.361   4.264  0.2426 -0.0311 -0.4324
 2747SOL     OW10985   2.182   2.430   3.742 -0.3882 -0.1436  0.4048
 2747SOL    HW210986   2.198   2.419   3.649  0.3388 -1.3099  0.6448
 2747SOL    HW310987   2.171   2.524   3.755  0.9072  0.1633 -0.6463
 2747SOL    MW410988   2.183   2.441   3.732 -0.1214 -0.2570  0.2977
 2748SOL     OW10989   3.558   1.621   4.407 -0.0701  0.4315  0.3656
 2748SOL    HW210990   3.482   1.611   4.464  0.3249  0.5232  0.9091
 2748SOL    HW310991   3.612   1.544   4.426 -1.1820 -0.9398 -1.7911
 2748SOL    MW410992   3.555   1.609   4.417 -0.1647  0.2627  0.1528
 2749SOL     OW10993   3.888   1.653   4.011 -0.0573  0.0453  0.4787
 2749SOL    HW210994   3.822   1.585   4.005  0.1332 -0.2568  1.6375
 2749SOL    HW310995   3.839   1.734   4.027 -0.2060 -0.0323  0.4120
 2749SOL    MW410996   3.873   1.655   4.012 -0.0518 -0.0048  0.6228
 2750SOL     OW10997   2.236   3.787   4.344 -0.3518 -0.1517 -0.0796
 2750SOL    HW210998   2.326   3.809   4.318  0.0617  0.8820  2.1544
 2750SOL    HW310999   2.186   3.867   4.326 -0.3094  0.1410  1.0601
 2750SOL    MW411000   2.241   3.800   4.338 -0.2917  0.0233  0.3655
 2751SOL     OW11001   1.472   2.561   3.749  0.1927  0.0888 -0.2505
 2751SOL    HW211002   1.403   2.628   3.749  0.0321 -0.0464  1.0975
 2751SOL    HW311003   1.429   2.483   3.714 -0.2639  0.0867  0.3052
 2751SOL    MW411004   1.457   2.560   3.745  0.1113  0.0707  0.0007
 2752SOL     OW11005   3.322   0.233   4.201 -0.4748 -0.2524 -0.1296
 2752SOL    HW211006   3.418   0.231   4.206 -0.3820 -1.7966 -2.2425
 2752SOL    HW311007   3.301   0.326   4.187  0.7938 -0.0937 -1.0464
 2752SOL    MW411008   3.332   0.245   4.200 -0.2952 -0.4352 -0.5293
 2753SOL     OW11009   1.920   2.326   3.796 -0.2094 -0.4271  0.6143
 2753SOL    HW211010   1.924   2.316   3.891 -0.2387  0.2988  0.6954
 2753SOL    HW311011   2.004   2.364   3.772  0.0423 -1.1919  0.2729
 2753SOL    MW411012   1.931   2.330   3.805 -0.1801 -0.4323  0.5800
 2754SOL     OW11013   3.650   0.638   4.063 -0.0503  0.3585  0.2828
 2754SOL    HW211014   3.680   0.547   4.058  0.3758  0.5664 -1.2967
 2754SOL    HW311015   3.561   0.636   4.028  0.0350  0.5791  0.0489
 2754SOL    MW411016   3.643   0.626   4.058  0.0172  0.4150  0.0435
 2755SOL     OW11017   0.601   3.361   4.216 -0.0436  0.1725  0.4262
 2755SOL    HW211018   0.687   3.402   4.231  0.6255 -0.5491 -1.2506
 2755SOL    HW311019   0.603   3.281   4.268  0.6191 -0.2441 -0.2354
 2755SOL    MW411020   0.613   3.356   4.225  0.1321  0.0223  0.1177
 2756SOL     OW11021   2.970   1.293   3.426 -0.6314 -0.1904  0.6783
 2756SOL    HW211022   3.040   1.252   3.375 -1.3735  2.6590 -2.8493
 2756SOL    HW311023   2.892   1.241   3.405 -1.1544  1.6028 -2.1283
 2756SOL    MW411024   2.969   1.281   3.416 -0.7983  0.4221 -0.1574
 2757SOL     OW11025   4.321   0.192   3.466  0.1615  0.0944  0.5758
 2757SOL    HW211026   4.341   0.126   3.532  1.9114  0.1346  0.1139
 2757SOL    HW311027   4.237   0.229   3.493 -0.6846 -2.1025  1.0112
 2757SOL    MW411028   4.313   0.188   3.478  0.2807 -0.1901  0.5723
 2758SOL     OW11029   0.413   2.620   3.479  0.1823 -0.0840  0.1493
 2758SOL    HW211030   0.466   2.568   3.540 -0.7904 -1.1208  0.1332
 2758SOL    HW311031   0.476   2.679   3.437  1.1714 -0.6559  0.7995
 2758SOL    MW411032   0.428   2.621   3.482  0.1845 -0.2962  0.2330
 2759SOL     OW11033   3.875   2.191   3.678 -0.0807  0.0333 -0.0303
 2759SOL    HW211034   3.908   2.115   3.727 -1.1899 -0.7600 -0.4989
 2759SOL    HW311035   3.834   2.154   3.600  0.3363  1.1970 -0.8151
 2759SOL    MW411036   3.874   2.176   3.674 -0.1721  0.0822 -0.1957
 2760SOL     OW11037   2.700   3.828   4.637 -0.0173 -0.1131  0.1134
 2760SOL    HW211038   2.654   3.883   4.574 -0.3321 -1.0323 -0.4666
 2760SOL    HW311039   2.688   3.873   4.721 -0.0587  0.8296 -0.3808
 2760SOL    MW411040   2.693   3.842   4.640 -0.0643 -0.1100 -0.0283
 2761SOL     OW11041   0.102   3.600   4.230  0.1011 -0.4611  0.1281
 2761SOL    HW211042   0.085   3.669   4.166  1.4001  0.2441  0.5199
 2761SOL    HW311043   0.069   3.635   4.313  1.5584  0.0774  0.4991
 2761SOL    MW411044   0.096   3.613   4.232  0.4648 -0.2970  0.2287
 2762SOL     OW11045   3.321   3.162   3.864  0.3868  0.2457  0.4494
 2762SOL    HW211046   3.403   3.153   3.913 -0.4368 -0.7230  1.7166
 2762SOL    HW311047   3.338   3.231   3.800  2.0227  0.4064  1.0260
 2762SOL    MW411048   3.334   3.170   3.862  0.4940  0.1391  0.6927
 2763SOL     OW11049   1.433   4.435   4.172 -0.4750 -0.0806  0.0042
 2763SOL    HW211050   1.482   4.354   4.157  1.0509  0.8332 -0.0988
 2763SOL    HW311051   1.350   4.406   4.209  0.6324 -1.6101  1.3831
 2763SOL    MW411052   1.429   4.420   4.175 -0.1276 -0.1618  0.1725
 2764SOL     OW11053   3.565   0.329   3.276 -0.3821  0.7131 -0.1002
 2764SOL    HW211054   3.557   0.239   3.307 -0.0007  0.1093 -1.7168
 2764SOL    HW311055   3.487   0.373   3.309 -1.1362 -0.4889 -0.2440
 2764SOL    MW411056   3.554   0.323   3.285 -0.4312  0.4749 -0.3325
 2765SOL     OW11057   2.547   0.043   4.368 -0.0431  0.1649  0.0996
 2765SOL    HW211058   2.514   0.117   4.318  1.5430  0.5040 -0.4717
 2765SOL    HW311059   2.499   0.046   4.451 -0.2504  1.6166 -0.0682
 2765SOL    MW411060   2.537   0.053   4.372  0.1388  0.4011  0.0020
 2766SOL     OW11061   1.654   3.423   3.665 -0.2357  0.1918 -0.1001
 2766SOL    HW211062   1.704   3.498   3.698 -0.0549  0.4359 -0.9143
 2766SOL    HW311063   1.719   3.368   3.622 -0.4259 -0.2602  0.1938
 2766SOL    MW411064   1.669   3.426   3.664 -0.2370  0.1644 -0.1688
 2767SOL     OW11065   1.124   4.109   4.321 -0.6353  0.1413  0.0594
 2767SOL    HW211066   1.146   4.198   4.294 -1.3187  0.1970 -0.3406
 2767SOL    HW311067   1.176   4.053   4.264 -0.0207  0.2850  0.4759
 2767SOL    MW411068   1.134   4.113   4.310 -0.6444  0.1676  0.0616
 2768SOL     OW11069   0.914   0.867   4.378 -0.2726  0.4296  0.0178
 2768SOL    HW211070   0.971   0.813   4.323 -0.5677 -0.3560  0.4743
 2768SOL    HW311071   0.973   0.908   4.441  0.0392  1.1634 -0.7347
 2768SOL    MW411072   0.929   0.866   4.379 -0.2704  0.4228 -0.0213
 2769SOL     OW11073   3.003   2.534   3.735 -0.4821 -0.0234  0.0394
 2769SOL    HW211074   3.055   2.512   3.658 -0.6996 -0.1289 -0.0779
 2769SOL    HW311075   3.068   2.557   3.802 -0.1991 -1.9121  0.4495
 2769SOL    MW411076   3.019   2.534   3.734 -0.4734 -0.2865  0.0780
 2770SOL     OW11077   3.254   1.002   3.709  0.2501  0.8493  0.9536
 2770SOL    HW211078   3.341   0.964   3.697 -0.0793  0.4171 -0.1111
 2770SOL    HW311079   3.194   0.936   3.673 -0.4301  1.7506  0.4370
 2770SOL    MW411080   3.257   0.988   3.703  0.1169  0.9112  0.7450
 2771SOL     OW11081   3.388   2.472   4.119  0.1189 -0.0054 -0.4729
 2771SOL    HW211082   3.379   2.546   4.179 -0.7954 -0.6429  0.1837
 2771SOL    HW311083   3.482   2.458   4.111  0.2893  1.0837 -0.4290
 2771SOL    MW411084   3.399   2.480   4.126  0.0208  0.0542 -0.3805
 2772SOL     OW11085   0.069   3.431   3.808  0.1841  0.0020  0.3816
 2772SOL    HW211086   0.149   3.382   3.787 -0.6534 -0.5437 -1.6279
 2772SOL    HW311087   0.001   3.365   3.813 -0.4084  0.6321  0.6709
 2772SOL    MW411088   0.071   3.416   3.806 -0.0046  0.0131  0.1546
 2773SOL     OW11089   4.488   1.585   3.694  0.4072  0.4152  0.9038
 2773SOL    HW211090   4.468   1.584   3.601  1.5215 -0.5492  0.6751
 2773SOL    HW311091   4.513   1.676   3.712 -1.9004  1.1311  0.7323
 2773SOL    MW411092   4.488   1.597   3.684  0.2497  0.3824  0.8510
 2774SOL     OW11093   1.462   4.625   3.948 -0.2537 -0.6063  0.4706
 2774SOL    HW211094   1.551   4.604   3.919 -0.8334 -0.7614 -1.2540
 2774SOL    HW311095   1.447   4.566   4.022  0.8786 -0.9624  0.4311
 2774SOL    MW411096   1.472   4.614   3.954 -0.1808 -0.6737  0.2378
 2775SOL     OW11097   4.171   0.598   4.548 -0.2161  0.2205 -0.1018
 2775SOL    HW211098   4.145   0.667   4.488 -1.2672 -0.0737  0.0162
 2775SOL    HW311099   4.258   0.624   4.578 -0.2618  1.0657 -0.6914
 2775SOL    MW411100   4.179   0.610   4.544 -0.3608  0.2932 -0.1640
 2776SOL     OW11101   1.219   3.926   3.516 -0.3890 -0.3779  0.6868
 2776SOL    HW211102   1.154   3.917   3.447  0.1450  0.1012  0.1138
 2776SOL    HW311103   1.302   3.940   3.470 -0.0181 -0.0858  1.4204
 2776SOL    MW411104   1.221   3.927   3.501 -0.2696 -0.2762  0.7080
 2777SOL     OW11105   0.148   2.853   4.144  0.1736  0.3145  0.2589
 2777SOL    HW211106   0.100   2.923   4.099  0.0285 -0.1000 -0.2439
 2777SOL    HW311107   0.095   2.832   4.220 -1.1568 -1.0685 -1.0156
 2777SOL    MW411108   0.135   2.860   4.148 -0.0211  0.0773  0.0244
 2778SOL     OW11109   4.332   4.654   3.655  0.0048 -0.2143 -0.3236
 2778SOL    HW211110   4.329   4.694   3.742 -0.8882  0.7135 -0.7641
 2778SOL    HW311111   4.424   4.631   3.642  0.3316  0.6500  0.4294
 2778SOL    MW411112   4.344   4.656   3.665 -0.0699  0.0221 -0.2823
 2779SOL     OW11113   3.141   3.529   3.352  0.4820 -0.4794  0.0036
 2779SOL    HW211114   3.056   3.567   3.377 -0.0497 -1.3138 -0.5226
 2779SOL    HW311115   3.139   3.528   3.256  1.5102  0.4473 -0.0319
 2779SOL    MW411116   3.130   3.534   3.342  0.5475 -0.4672 -0.0705
 2780SOL     OW11117   1.216   3.315   3.675 -0.0771  0.4467 -0.1979
 2780SOL    HW211118   1.229   3.284   3.586  0.3853 -0.7533  0.2798
 2780SOL    HW311119   1.275   3.261   3.729 -3.0334 -1.4255  1.3104
 2780SOL    MW411120   1.226   3.304   3.671 -0.4061  0.0413  0.0641
 2781SOL     OW11121   3.942   0.070   3.689 -0.0784 -0.1773  0.1501
 2781SOL    HW211122   3.846   0.062   3.682  0.0014 -0.1334 -1.2830
 2781SOL    HW311123   3.974  -0.017   3.665  0.2126 -0.5407  1.8074
 2781SOL    MW411124   3.933   0.057   3.685 -0.0295 -0.2194  0.1797
 2782SOL     OW11125   0.691   4.513   4.186  0.0355 -0.0907  0.7594
 2782SOL    HW211126   0.606   4.551   4.209 -0.5269 -1.3595  0.8296
 2782SOL    HW311127   0.704   4.443   4.249  1.1666  0.1222  0.7754
 2782SOL    MW411128   0.681   4.509   4.197  0.1105 -0.2300  0.7708
 2783SOL     OW11129   2.098   2.387   4.643 -0.1654 -0.1059 -0.1988
 2783SOL    HW211130   2.031   2.454   4.628  0.9788  0.7363 -1.7182
 2783SOL    HW311131   2.059   2.307   4.608 -0.9932  0.0475  0.3577
 2783SOL    MW411132   2.084   2.385   4.636 -0.1237  0.0255 -0.3259
 2784SOL     OW11133   1.759   3.523   4.261  0.0528 -0.1326  0.1875
 2784SOL    HW211134   1.749   3.613   4.292 -0.7536 -0.7894  1.8647
 2784SOL    HW311135   1.846   3.497   4.290 -0.1734 -0.2937  0.7157
 2784SOL    MW411136   1.769   3.532   4.269 -0.0835 -0.2405  0.4785
 2785SOL     OW11137   3.115   3.248   4.460  0.1867  0.1875 -0.0402
 2785SOL    HW211138   3.151   3.328   4.500 -1.5008  0.5246  0.8743
 2785SOL    HW311139   3.021   3.265   4.455 -0.2166 -1.8135  0.3227
 2785SOL    MW411140   3.108   3.261   4.465 -0.0891 -0.0320  0.1283
 2786SOL     OW11141   0.954   3.270   4.395 -0.0094 -0.0380  0.1843
 2786SOL    HW211142   0.975   3.202   4.331  0.0290 -0.0406  0.1996
 2786SOL    HW311143   0.907   3.336   4.345 -0.4222 -0.2770  0.2590
 2786SOL    MW411144   0.951   3.270   4.380 -0.0588 -0.0699  0.1962
 2787SOL     OW11145   4.227   1.763   4.524  0.2112 -0.2529  0.1592
 2787SOL    HW211146   4.269   1.847   4.543 -0.4835 -0.1103  1.0720
 2787SOL    HW311147   4.297   1.698   4.537  0.2113 -0.0008  1.4924
 2787SOL    MW411148   4.242   1.765   4.528  0.1195 -0.2008  0.4555
 2788SOL     OW11149   3.967   3.431   4.679  0.4509 -0.1943  0.2293
 2788SOL    HW211150   3.931   3.342   4.686  0.9179 -0.2353  2.6273
 2788SOL    HW311151   4.062   3.418   4.680  0.5175  0.3073  0.3165
 2788SOL    MW411152   3.975   3.418   4.680  0.5213 -0.1335  0.5572
 2789SOL     OW11153   3.958   0.278   4.065 -0.0820 -0.1811 -0.0230
 2789SOL    HW211154   3.995   0.277   4.154 -2.2133  0.0914  0.8938
 2789SOL    HW311155   3.979   0.192   4.029 -0.7586 -0.9681  1.4168
 2789SOL    MW411156   3.966   0.267   4.072 -0.4524 -0.2490  0.2879
 2790SOL     OW11157   3.011   3.497   4.095  0.0938 -0.1625 -0.7257
 2790SOL    HW211158   2.969   3.479   4.179 -0.1774  2.0954 -0.3242
 2790SOL    HW311159   3.058   3.417   4.073  0.3387 -0.7087  1.6858
 2790SOL    MW411160   3.011   3.484   4.103  0.0903  0.0633 -0.3546
 2791SOL     OW11161   1.394   2.294   4.140 -0.1634 -0.1084 -0.1422
 2791SOL    HW211162   1.462   2.228   4.126  1.1698  1.5040 -1.5452
 2791SOL    HW311163   1.427   2.372   4.094 -2.1944  1.2008  0.5670
 2791SOL    MW411164   1.407   2.296   4.132 -0.2555  0.2771 -0.2337
 2792SOL     OW11165   2.264   4.452   4.083 -0.2080 -0.1147  0.4746
 2792SOL    HW211166   2.243   4.544   4.067  1.8669  0.6035  1.6421
 2792SOL    HW311167   2.332   4.432   4.019 -0.6840 -0.8673  0.1978
 2792SOL    MW411168   2.270   4.461   4.073  0.0029 -0.1192  0.5921
 2793SOL     OW11169   1.722   2.400   4.455  0.1035 -0.0655  1.0242
 2793SOL    HW211170   1.749   2.352   4.533  1.3783  1.2468  1.4197
 2793SOL    HW311171   1.727   2.336   4.384  1.4351 -0.6080  1.5991
 2793SOL    MW411172   1.726   2.385   4.456  0.4474  0.0361  1.1522
 2794SOL     OW11173   3.671   2.457   4.159 -0.5697  0.1330 -0.3782
 2794SOL    HW211174   3.745   2.463   4.098 -0.0893 -1.3673  0.0424
 2794SOL    HW311175   3.677   2.536   4.212  0.5349  0.1967 -0.5784
 2794SOL    MW411176   3.681   2.468   4.158 -0.3606 -0.0565 -0.3491
 2795SOL     OW11177   2.168   2.415   3.454 -0.6440 -0.5238 -0.2462
 2795SOL    HW211178   2.099   2.355   3.426 -0.0690 -0.7983 -1.0852
 2795SOL    HW311179   2.249   2.378   3.418 -0.4181  1.3400 -1.7230
 2795SOL    MW411180   2.170   2.402   3.446 -0.5383 -0.3141 -0.5517
 2796SOL     OW11181   3.612   2.101   4.449  0.3529  0.1209 -0.6049
 2796SOL    HW211182   3.652   2.018   4.423 -0.6471  0.3861 -3.1506
 2796SOL    HW311183   3.520   2.091   4.427  0.2333  1.9099 -0.9736
 2796SOL    MW411184   3.605   2.089   4.442  0.2052  0.3919 -0.9894
 2797SOL     OW11185   1.252   0.817   4.006 -0.2667  0.0659 -0.0168
 2797SOL    HW211186   1.343   0.788   4.014 -0.4926 -0.5444  0.3510
 2797SOL    HW311187   1.251   0.870   3.926 -0.2593 -2.5762 -1.8412
 2797SOL    MW411188   1.264   0.820   3.996 -0.2955 -0.3632 -0.2090
 2798SOL     OW11189   2.265   4.448   4.357  0.2159  0.0366  0.7244
 2798SOL    HW211190   2.270   4.452   4.262  0.2517 -0.4217  0.7093
 2798SOL    HW311191   2.185   4.496   4.378  0.4892  0.6010  0.4995
 2798SOL    MW411192   2.255   4.455   4.347  0.2567  0.0506  0.6927
 2799SOL     OW11193   4.093   2.639   4.327  0.1347 -0.3347 -0.0453
 2799SOL    HW211194   4.181   2.602   4.337 -0.2251 -1.0368  0.5378
 2799SOL    HW311195   4.100   2.728   4.362  1.1753  0.4113 -2.0907
 2799SOL    MW411196   4.106   2.646   4.333  0.2245 -0.3289 -0.2382
 2800SOL     OW11197   0.223   2.780   3.584  0.5577 -0.5846 -0.1175
 2800SOL    HW211198   0.303   2.736   3.554  0.7093 -0.0038 -0.5719
 2800SOL    HW311199   0.253   2.840   3.653  0.4494 -0.6664  0.0026
 2800SOL    MW411200   0.237   2.782   3.589  0.5634 -0.5188 -0.1616
 2801SOL     OW11201   1.622   1.252   3.363 -0.0663  0.6058 -0.7667
 2801SOL    HW211202   1.616   1.240   3.457 -0.2637  0.6911 -0.7681
 2801SOL    HW311203   1.705   1.212   3.339 -0.5196 -0.3970 -0.7089
 2801SOL    MW411204   1.632   1.245   3.372 -0.1522  0.4847 -0.7593
 2802SOL     OW11205   2.231   4.253   2.906 -0.4789 -0.1335 -0.4056
 2802SOL    HW211206   2.171   4.260   2.831  0.3277  0.7721 -0.9594
 2802SOL    HW311207   2.236   4.159   2.923 -1.4071 -0.2759 -0.8887
 2802SOL    MW411208   2.223   4.241   2.899 -0.4949 -0.0328 -0.5424
 2803SOL     OW11209   1.034   0.696   4.143  0.1733  0.0108 -0.1972
 2803SOL    HW211210   0.955   0.727   4.101 -0.2675 -0.2270  0.4531
 2803SOL    HW311211   1.105   0.730   4.088 -0.3490  0.7869 -0.4052
 2803SOL    MW411212   1.033   0.705   4.130  0.0462  0.0818 -0.1389
 2804SOL     OW11213   3.566   3.641   3.751  0.0452  0.3018 -0.3107
 2804SOL    HW211214   3.559   3.710   3.816 -0.5852 -0.3092  0.2792
 2804SOL    HW311215   3.652   3.654   3.710  0.7779  0.1997  1.1839
 2804SOL    MW411216   3.576   3.652   3.754  0.0587  0.2077 -0.0357
 2805SOL     OW11217   1.969   3.718   4.003  0.1049  0.2769 -0.5561
 2805SOL    HW211218   2.014   3.668   4.071 -1.1694 -0.8957 -0.5609
 2805SOL    HW311219   1.919   3.784   4.051  0.1202  0.1922 -0.4230
 2805SOL    MW411220   1.969   3.720   4.019 -0.0612  0.1110 -0.5392
 2806SOL     OW11221   4.435   0.083   4.487 -0.1986  0.0896  0.4218
 2806SOL    HW211222   4.500   0.092   4.418 -0.1599 -0.5534  0.3682
 2806SOL    HW311223   4.409   0.173   4.508  1.0486  0.3702  0.7749
 2806SOL    MW411224   4.440   0.096   4.481 -0.0290  0.0418  0.4613
 2807SOL     OW11225   1.933   2.552   4.500  0.0482  0.1262 -0.1818
 2807SOL    HW211226   1.992   2.552   4.424 -0.8433  1.0929 -0.8878
 2807SOL    HW311227   1.858   2.501   4.471  0.6757 -1.4201  0.8471
 2807SOL    MW411228   1.931   2.545   4.486  0.0134  0.0497 -0.1392
 2808SOL     OW11229   1.123   1.150   4.036 -0.3350  0.1271 -0.4578
 2808SOL    HW211230   1.125   1.226   4.094 -2.1370 -2.8402  3.7576
 2808SOL    HW311231   1.209   1.110   4.045 -1.1100 -1.1498  1.3598
 2808SOL    MW411232   1.134   1.155   4.045 -0.6750 -0.4328  0.3381
 2809SOL     OW11233   0.069   1.165   3.322 -0.1220  0.7146 -0.1750
 2809SOL    HW211234   0.114   1.249   3.312  0.4041  0.3375 -1.0442
 2809SOL    HW311235   0.056   1.134   3.232 -1.7050  0.5914  0.0754
 2809SOL    MW411236   0.073   1.172   3.309 -0.2614  0.6486 -0.2566
 2810SOL     OW11237   1.251   0.063   3.393 -0.1901  0.1816 -0.5689
 2810SOL    HW211238   1.257   0.053   3.488 -1.1968  0.6890 -0.4488
 2810SOL    HW311239   1.338   0.037   3.361  0.2098  0.1719  0.4998
 2810SOL    MW411240   1.263   0.058   3.401 -0.2702  0.2473 -0.4120
 2811SOL     OW11241   1.873   4.224   4.157  0.1561  0.4358 -0.2715
 2811SOL    HW211242   1.892   4.298   4.099 -0.1257 -0.3038 -1.3316
 2811SOL    HW311243   1.852   4.264   4.241  2.4765  1.4443 -0.1498
 2811SOL    MW411244   1.873   4.239   4.160  0.4251  0.4713 -0.3953
 2812SOL     OW11245   2.010   3.370   4.336  0.4154 -0.1423 -0.1868
 2812SOL    HW211246   1.967   3.332   4.412  0.9193 -1.5802 -0.6159
 2812SOL    HW311247   2.069   3.302   4.305  0.8064  0.7307 -1.3828
 2812SOL    MW411248   2.012   3.356   4.342  0.5334 -0.2169 -0.4012
 2813SOL     OW11249   2.536   1.253   3.715 -0.1050  0.3716 -0.7028
 2813SOL    HW211250   2.519   1.347   3.727 -0.6125  0.2028  0.0012
 2813SOL    HW311251   2.502   1.213   3.796  0.8993 -0.3219 -0.6196
 2813SOL    MW411252   2.529   1.260   3.727 -0.0395  0.2578 -0.5989
 2814SOL     OW11253   0.379   4.180   3.519 -0.2763 -0.0343 -0.5877
 2814SOL    HW211254   0.469   4.209   3.508 -0.1618 -0.2333 -0.1772
 2814SOL    HW311255   0.337   4.249   3.570 -0.3438  0.0270 -0.7221
 2814SOL    MW411256   0.385   4.193   3.524 -0.2701 -0.0524 -0.5513
 2815SOL     OW11257   0.225   0.189   3.445  0.0648  0.2828  0.7359
 2815SOL    HW211258   0.320   0.182   3.443  0.0212 -0.2150 -0.5953
 2815SOL    HW311259   0.195   0.128   3.376 -1.0892  2.2272 -0.5305
 2815SOL    MW411260   0.233   0.180   3.435 -0.0932  0.4736  0.3932
 2816SOL     OW11261   2.644   2.787   4.309  0.0195 -0.0052  0.6195
 2816SOL    HW211262   2.637   2.882   4.313  0.7731  0.0994 -0.4606
 2816SOL    HW311263   2.557   2.758   4.283 -0.4708  0.3190  1.8615
 2816SOL    MW411264   2.632   2.795   4.306  0.0543  0.0514  0.6409
 2817SOL     OW11265   4.191   4.142   4.039 -0.4891 -0.6101 -0.1751
 2817SOL    HW211266   4.137   4.171   4.113 -0.5192 -1.1451  0.0216
 2817SOL    HW311267   4.266   4.099   4.079  1.8255  3.0873 -0.4127
 2817SOL    MW411268   4.194   4.140   4.054 -0.1877 -0.1928 -0.1805
 2818SOL     OW11269   1.504   0.749   4.079 -0.1001 -0.0197  0.5300
 2818SOL    HW211270   1.525   0.752   4.173 -0.7914 -2.6783  0.8050
 2818SOL    HW311271   1.587   0.729   4.037 -0.0299 -0.0584  0.6848
 2818SOL    MW411272   1.518   0.747   4.086 -0.1820 -0.3756  0.5867
 2819SOL     OW11273   2.523   0.353   3.979 -0.3503  0.2117 -0.5675
 2819SOL    HW211274   2.493   0.442   3.994  0.5594  0.5479 -0.7515
 2819SOL    HW311275   2.618   0.359   3.975 -0.2085 -0.9449  0.5988
 2819SOL    MW411276   2.532   0.365   3.981 -0.2116  0.1035 -0.4379
 2820SOL     OW11277   3.309   1.613   4.575 -0.2613 -0.2976 -0.5974
 2820SOL    HW211278   3.279   1.688   4.525  1.0130  0.5077 -0.1975
 2820SOL    HW311279   3.347   1.651   4.654 -0.1377 -1.3990 -0.1190
 2820SOL    MW411280   3.310   1.628   4.579 -0.0769 -0.3367 -0.4815
 2821SOL     OW11281   2.214   4.504   3.621  0.1937  0.2186  0.2125
 2821SOL    HW211282   2.215   4.573   3.556  2.5048 -0.2233 -0.2470
 2821SOL    HW311283   2.205   4.423   3.571 -2.2374  0.1269  0.7304
 2821SOL    MW411284   2.213   4.502   3.606  0.1778  0.1482  0.2202
 2822SOL     OW11285   1.733   3.053   4.052  0.2819 -0.1294 -0.0025
 2822SOL    HW211286   1.708   3.054   3.960  0.0185 -0.9358  0.0550
 2822SOL    HW311287   1.654   3.023   4.098  0.3470  0.4614  0.5043
 2822SOL    MW411288   1.719   3.049   4.046  0.2557 -0.1579  0.0720
 2823SOL     OW11289   3.827   1.575   3.281  0.0605 -0.0847  0.5529
 2823SOL    HW211290   3.915   1.609   3.300 -0.1211  0.2498  0.8067
 2823SOL    HW311291   3.831   1.483   3.308  1.7490 -1.4060 -3.8015
 2823SOL    MW411292   3.839   1.567   3.287  0.2593 -0.2149  0.0118
 2824SOL     OW11293   3.196   3.017   4.596 -0.0902 -0.7299  0.6157
 2824SOL    HW211294   3.292   3.022   4.595 -0.1204  0.0959  0.8703
 2824SOL    HW311295   3.168   3.098   4.553 -0.6808 -0.1615  2.0249
 2824SOL    MW411296   3.205   3.029   4.591 -0.1721 -0.5460  0.8352
 2825SOL     OW11297   2.001   0.130   3.261  0.1504 -0.0620 -0.3172
 2825SOL    HW211298   2.072   0.105   3.320 -0.3228  1.2151  0.8252
 2825SOL    HW311299   2.019   0.221   3.238 -0.4603 -0.1008 -0.9707
 2825SOL    MW411300   2.012   0.139   3.266  0.0074  0.1013 -0.2527
 2826SOL     OW11301   4.060   3.490   3.998 -0.8620  0.3750 -0.1207
 2826SOL    HW211302   4.063   3.397   4.021  0.2401  0.4827  0.2266
 2826SOL    HW311303   3.969   3.516   4.013 -1.0145 -0.4819  0.4568
 2826SOL    MW411304   4.049   3.481   4.003 -0.7367  0.2762  0.0013
 2827SOL     OW11305   3.776   0.614   3.646  0.1297  0.3047 -0.1456
 2827SOL    HW211306   3.743   0.687   3.698  0.9354  0.7732 -0.2890
 2827SOL    HW311307   3.870   0.610   3.665  0.4753  0.6011 -1.6823
 2827SOL    MW411308   3.784   0.623   3.655  0.2816  0.4056 -0.3673
 2828SOL     OW11309   1.057   0.415   4.157 -0.2224 -0.0123 -0.0236
 2828SOL    HW211310   1.151   0.400   4.150 -0.3101 -0.0324 -1.2910
 2828SOL    HW311311   1.049   0.511   4.160 -0.1905  0.0050 -0.4441
 2828SOL    MW411312   1.068   0.426   4.157 -0.2297 -0.0126 -0.2463
 2829SOL     OW11313   0.155   3.898   3.248  0.1801 -0.2270  0.1494
 2829SOL    HW211314   0.223   3.917   3.313 -0.8287 -1.9137  1.7360
 2829SOL    HW311315   0.073   3.924   3.290 -0.2345  1.4321 -1.6056
 2829SOL    MW411316   0.153   3.904   3.262 -0.0077 -0.2307  0.1272
 2830SOL     OW11317   2.172   3.154   3.687 -0.3943  0.3726  0.4157
 2830SOL    HW211318   2.121   3.076   3.664  1.1450 -0.7395  0.7072
 2830SOL    HW311319   2.187   3.198   3.603  0.0922 -0.4985  0.0404
 2830SOL    MW411320   2.167   3.150   3.673 -0.1270  0.1110  0.4047
 2831SOL     OW11321   0.144   4.627   3.303  0.0646 -0.0201 -0.2018
 2831SOL    HW211322   0.049   4.612   3.300  0.2137 -0.8240 -0.9292
 2831SOL    HW311323   0.181   4.542   3.329  0.6394  0.1096 -0.5918
 2831SOL    MW411324   0.136   4.614   3.306  0.1601 -0.1091 -0.3492
 2832SOL     OW11325   3.815   3.576   4.111 -0.5145  0.0082 -0.0096
 2832SOL    HW211326   3.809   3.669   4.089 -0.9091  0.0098  0.1034
 2832SOL    HW311327   3.840   3.575   4.203  1.2901  0.0018 -0.4661
 2832SOL    MW411328   3.818   3.588   4.120 -0.3284  0.0076 -0.0550
 2833SOL     OW11329   2.984   1.283   3.702  0.3202  0.3436 -0.0493
 2833SOL    HW211330   3.015   1.287   3.611 -0.9171 -1.2417 -0.5593
 2833SOL    HW311331   3.064   1.272   3.753  0.9748  0.5520 -0.9999
 2833SOL    MW411332   2.999   1.282   3.696  0.2433  0.1620 -0.2420
 2834SOL     OW11333   3.624   2.657   3.583 -0.0317  0.5266 -0.1386
 2834SOL    HW211334   3.587   2.743   3.562 -0.0666  0.8918  1.3541
 2834SOL    HW311335   3.580   2.631   3.664 -0.6634 -1.3060 -1.0342
 2834SOL    MW411336   3.614   2.665   3.591 -0.1196  0.3330 -0.0598
 2835SOL     OW11337   3.360   1.822   4.148 -0.2072 -0.1151  0.5377
 2835SOL    HW211338   3.345   1.824   4.242  0.8732 -1.2311  0.7514
 2835SOL    HW311339   3.422   1.750   4.135 -1.7614 -1.1838 -1.2428
 2835SOL    MW411340   3.367   1.813   4.158 -0.2697 -0.4033  0.3310
 2836SOL     OW11341   0.637   2.750   4.236 -0.0533  0.4464  0.1236
 2836SOL    HW211342   0.694   2.800   4.177 -0.1618 -2.5345 -2.6829
 2836SOL    HW311343   0.549   2.783   4.219  0.0464  0.3279 -0.6432
 2836SOL    MW411344   0.633   2.761   4.226 -0.0545  0.0375 -0.3478
 2837SOL     OW11345   1.046   0.295   3.530 -0.3431 -0.3322 -0.1221
 2837SOL    HW211346   1.069   0.353   3.457  1.3077  0.1496  0.7615
 2837SOL    HW311347   1.064   0.347   3.609 -0.3673 -1.4758  0.6521
 2837SOL    MW411348   1.052   0.310   3.531 -0.1285 -0.4195  0.0966
 2838SOL     OW11349   1.963   2.921   4.150  0.3585  0.0720 -0.4888
 2838SOL    HW211350   1.946   2.874   4.231 -0.5292  2.9643  1.1022
 2838SOL    HW311351   1.878   2.958   4.126  1.0505  1.0108 -1.5303
 2838SOL    MW411352   1.950   2.920   4.158  0.3327  0.5774 -0.4163
 2839SOL     OW11353   3.983   1.940   4.253 -0.1687  0.3035  0.4376
 2839SOL    HW211354   3.961   1.914   4.343  1.1550 -0.3758  0.5806
 2839SOL    HW311355   3.899   1.948   4.209 -0.8256  0.5147  1.7112
 2839SOL    MW411356   3.969   1.937   4.259 -0.0807  0.2417  0.6245
 2840SOL     OW11357   0.107   1.616   4.296  0.1412 -0.0638 -0.1389
 2840SOL    HW211358   0.124   1.618   4.202  0.8132  0.8995 -0.0118
 2840SOL    HW311359   0.179   1.565   4.333 -0.5027 -1.0319 -0.2186
 2840SOL    MW411360   0.119   1.610   4.288  0.1449 -0.0644 -0.1327
 2841SOL     OW11361   4.402   3.210   3.791 -0.2944 -0.5833  0.0224
 2841SOL    HW211362   4.463   3.137   3.805 -0.4253 -0.8346 -0.6965
 2841SOL    HW311363   4.396   3.219   3.696  0.8781  1.3502  0.1076
 2841SOL    MW411364   4.409   3.202   3.780 -0.1570 -0.3614 -0.0612
 2842SOL     OW11365   4.365   2.817   3.776  0.0454  0.1975 -0.2523
 2842SOL    HW211366   4.285   2.815   3.828  0.2480 -1.8291 -0.0064
 2842SOL    HW311367   4.336   2.840   3.688 -0.6028  1.0787  0.1880
 2842SOL    MW411368   4.351   2.820   3.771 -0.0134  0.0464 -0.1618
 2843SOL     OW11369   0.896   1.920   4.089  0.1578 -0.3200 -0.0048
 2843SOL    HW211370   0.849   1.923   4.006 -1.3383  0.0957  0.8503
 2843SOL    HW311371   0.974   1.866   4.070 -1.2897 -2.0947 -1.0954
 2843SOL    MW411372   0.900   1.913   4.075 -0.2306 -0.4993 -0.0359
 2844SOL     OW11373   2.827   0.149   3.783 -0.2419  0.2777  0.1121
 2844SOL    HW211374   2.775   0.079   3.744 -1.0740  2.3342 -2.6106
 2844SOL    HW311375   2.916   0.134   3.751 -0.1204 -0.3643  0.7371
 2844SOL    MW411376   2.832   0.138   3.774 -0.3357  0.4643 -0.1647
 2845SOL     OW11377   2.258   3.500   3.279 -0.2095  0.0475  0.2609
 2845SOL    HW211378   2.238   3.510   3.186 -1.6887  2.0240  0.7589
 2845SOL    HW311379   2.325   3.566   3.296  1.0083 -1.1813  0.3533
 2845SOL    MW411380   2.264   3.510   3.269 -0.2440  0.1461  0.3388
 2846SOL     OW11381   2.552   0.981   4.357 -0.2348 -0.3460 -0.3564
 2846SOL    HW211382   2.644   0.991   4.378  0.0669 -1.2512 -1.2221
 2846SOL    HW311383   2.551   0.951   4.266 -1.4088  0.5199 -0.6496
 2846SOL    MW411384   2.564   0.979   4.348 -0.3499 -0.3512 -0.5093
 2847SOL     OW11385   1.033   2.635   4.085  0.1553  0.3836  0.0779
 2847SOL    HW211386   1.125   2.643   4.113  0.1969 -1.3773  0.5026
 2847SOL    HW311387   1.039   2.618   3.991  0.2340  1.1271 -0.0503
 2847SOL    MW411388   1.046   2.634   4.076  0.1712  0.2494  0.1170
 2848SOL     OW11389   3.853   3.672   3.387 -0.0663  0.0907 -0.1711
 2848SOL    HW211390   3.938   3.650   3.350  0.6371 -1.6205  2.3266
 2848SOL    HW311391   3.799   3.595   3.369 -0.6186  0.5092 -0.3142
 2848SOL    MW411392   3.857   3.659   3.380 -0.0464 -0.0799  0.1396
 2849SOL     OW11393   4.426   0.722   4.625 -0.1167  0.4707 -0.5209
 2849SOL    HW211394   4.458   0.730   4.715 -0.2788  0.3467 -0.4514
 2849SOL    HW311395   4.491   0.769   4.572  0.1476  0.2767 -0.3732
 2849SOL    MW411396   4.439   0.729   4.630 -0.1032  0.4287 -0.4922
 2850SOL     OW11397   2.074   2.076   4.188  0.1323  0.0324  0.1881
 2850SOL    HW211398   2.070   1.991   4.142 -0.5363 -0.3944  1.0209
 2850SOL    HW311399   2.130   2.059   4.264  1.1758  0.7217 -0.4147
 2850SOL    MW411400   2.081   2.062   4.192  0.1817  0.0670  0.2184
 2851SOL     OW11401   0.648   4.661   3.294  0.4440  0.0329 -0.4459
 2851SOL    HW211402   0.737   4.683   3.323  0.4933  1.0675 -1.3629
 2851SOL    HW311403   0.655   4.657   3.199 -0.5979  0.5749 -0.5464
 2851SOL    MW411404   0.661   4.663   3.286  0.3130  0.2409 -0.5802
 2852SOL     OW11405   3.600   1.935   3.262 -0.1874  0.3150 -0.2037
 2852SOL    HW211406   3.678   1.958   3.312  0.0509  0.6516 -0.7313
 2852SOL    HW311407   3.570   1.852   3.301  1.0847 -0.4095 -0.7559
 2852SOL    MW411408   3.606   1.927   3.274  0.0119  0.2638 -0.3461
 2853SOL     OW11409   0.543   2.038   3.445 -0.1339 -0.3677 -0.3305
 2853SOL    HW211410   0.511   2.058   3.533  2.0409 -1.8032  0.8401
 2853SOL    HW311411   0.491   1.962   3.417 -0.7139 -0.0150 -0.2165
 2853SOL    MW411412   0.532   2.030   3.453  0.0765 -0.5106 -0.1610
 2854SOL     OW11413   2.677   4.005   3.660  0.3119  0.3643  0.3920
 2854SOL    HW211414   2.585   3.990   3.685  0.0774 -0.6934 -0.9839
 2854SOL    HW311415   2.721   4.028   3.742 -0.7229 -1.4233  1.4917
 2854SOL    MW411416   2.670   4.006   3.674  0.1444 -0.0111  0.3556
 2855SOL     OW11417   0.884   3.783   4.171  0.5402  0.2203  0.0915
 2855SOL    HW211418   0.950   3.781   4.101 -0.9997 -0.3238 -1.3964
 2855SOL    HW311419   0.801   3.773   4.125 -0.3122 -3.8202  2.2799
 2855SOL    MW411420   0.882   3.781   4.155  0.2246 -0.3846  0.1839
 2856SOL     OW11421   2.479   3.840   4.275 -0.2047  0.1653 -0.4994
 2856SOL    HW211422   2.508   3.892   4.350  0.7429 -1.2028  0.0904
 2856SOL    HW311423   2.539   3.766   4.272 -2.1999 -1.4759 -0.6834
 2856SOL    MW411424   2.490   3.837   4.284 -0.3429 -0.2318 -0.4458
 2857SOL     OW11425   1.089   3.057   4.240  0.2270  0.0970 -0.5005
 2857SOL    HW211426   1.125   2.988   4.296  0.2282 -0.7122 -1.4797
 2857SOL    HW311427   1.165   3.109   4.214  0.0766  1.2225  1.2259
 2857SOL    MW411428   1.104   3.055   4.244  0.2073  0.1387 -0.4020
 2858SOL     OW11429   4.310   0.898   4.161 -0.0523 -0.3171  0.1654
 2858SOL    HW211430   4.290   0.970   4.102  1.4529  0.3020  0.3856
 2858SOL    HW311431   4.377   0.933   4.220  1.9469 -2.3755 -0.7947
 2858SOL    MW411432   4.316   0.912   4.161  0.4101 -0.5070  0.0678
 2859SOL     OW11433   2.079   1.198   3.454 -0.1310 -0.3913  0.5939
 2859SOL    HW211434   2.164   1.185   3.412 -0.9166 -0.8580 -0.8864
 2859SOL    HW311435   2.053   1.287   3.431 -0.7192 -0.7650 -0.2182
 2859SOL    MW411436   2.087   1.208   3.446 -0.3123 -0.5022  0.2915
 2860SOL     OW11437   1.055   3.080   3.316 -0.2184 -0.1276 -0.3643
 2860SOL    HW211438   1.058   2.989   3.347 -1.4387 -0.2387 -0.5481
 2860SOL    HW311439   1.077   3.075   3.223  0.2203 -0.1774 -0.2570
 2860SOL    MW411440   1.058   3.067   3.308 -0.3215 -0.1488 -0.3744
 2861SOL     OW11441   2.637   2.428   3.440  0.5360 -0.8082  0.0847
 2861SOL    HW211442   2.623   2.428   3.534  0.5889  1.9383  0.1301
 2861SOL    HW311443   2.725   2.391   3.429  1.2049  0.4055  1.2427
 2861SOL    MW411444   2.647   2.423   3.451  0.6312 -0.2857  0.2435
 2862SOL     OW11445   3.643   3.176   3.668  0.8409  0.3258 -0.0634
 2862SOL    HW211446   3.585   3.236   3.621 -0.5918  0.2810  1.5823
 2862SOL    HW311447   3.704   3.144   3.602 -1.3234 -0.0190 -1.9493
 2862SOL    MW411448   3.643   3.180   3.653  0.3663  0.2744 -0.0951
 2863SOL     OW11449   2.319   3.494   3.760 -0.0952  0.0422 -0.0459
 2863SOL    HW211450   2.315   3.503   3.855  0.6831 -0.5544  0.0486
 2863SOL    HW311451   2.379   3.421   3.745 -0.5811 -0.1786 -0.9862
 2863SOL    MW411452   2.326   3.486   3.770 -0.0566 -0.0657 -0.1575
 2864SOL     OW11453   1.261   1.932   3.845  0.2815 -0.3017 -0.5517
 2864SOL    HW211454   1.262   1.991   3.920 -1.4863 -0.3616 -0.4581
 2864SOL    HW311455   1.326   1.968   3.785 -0.5633  1.5808 -0.3659
 2864SOL    MW411456   1.269   1.945   3.847 -0.0632 -0.0613 -0.5148
 2865SOL     OW11457   2.421   2.042   3.451 -0.2802  0.1493  0.0324
 2865SOL    HW211458   2.438   2.037   3.546  1.9596 -0.3049 -0.3681
 2865SOL    HW311459   2.340   1.993   3.439 -0.3161 -0.2321  1.6506
 2865SOL    MW411460   2.413   2.035   3.462  0.0105  0.0391  0.1930
 2866SOL     OW11461   2.285   4.146   3.652 -0.1650 -0.4944 -0.5280
 2866SOL    HW211462   2.359   4.207   3.653  0.3851 -1.1472 -0.7862
 2866SOL    HW311463   2.228   4.176   3.723  1.3726 -1.2212  1.0601
 2866SOL    MW411464   2.287   4.158   3.662  0.1104 -0.6764 -0.3525
 2867SOL     OW11465   2.115   3.270   3.935 -0.5460  0.6638  0.0519
 2867SOL    HW211466   2.019   3.270   3.939 -0.5149 -1.6293  1.5215
 2867SOL    HW311467   2.135   3.231   3.850 -0.9386 -2.1456  1.1924
 2867SOL    MW411468   2.105   3.265   3.924 -0.5937 -0.0094  0.3963
 2868SOL     OW11469   1.048   0.463   3.788 -0.3328 -0.2320  0.2012
 2868SOL    HW211470   1.052   0.547   3.741 -3.3441  0.4091  1.0061
 2868SOL    HW311471   1.133   0.456   3.831 -0.6196  3.2285  1.4560
 2868SOL    MW411472   1.060   0.473   3.787 -0.7679  0.3092  0.4730
 2869SOL     OW11473   3.866   0.612   4.632 -0.4772 -0.2136 -0.0702
 2869SOL    HW211474   3.960   0.616   4.614 -0.3028 -0.1041  0.8616
 2869SOL    HW311475   3.855   0.536   4.688 -1.1189 -0.9563 -1.1836
 2869SOL    MW411476   3.877   0.602   4.637 -0.5388 -0.2971 -0.0941
 2870SOL     OW11477   4.023   0.220   4.343  0.6052 -0.4786  0.2807
 2870SOL    HW211478   4.082   0.283   4.385  0.4739 -0.2151  0.0790
 2870SOL    HW311479   3.937   0.238   4.383  0.7376 -1.1186  0.8485
 2870SOL    MW411480   4.019   0.231   4.354  0.6053 -0.5283  0.3290
 2871SOL     OW11481   3.218   0.887   4.403  0.4027  0.6724 -0.9041
 2871SOL    HW211482   3.306   0.855   4.426 -1.2155 -1.7954  2.2832
 2871SOL    HW311483   3.217   0.977   4.435  0.7891 -0.2880  1.9711
 2871SOL    MW411484   3.230   0.894   4.410  0.2402  0.2201 -0.1042
 2872SOL     OW11485   3.831   3.182   4.691 -0.4497  0.4600  0.6012
 2872SOL    HW211486   3.767   3.250   4.669 -0.5481 -0.0256 -0.6004
 2872SOL    HW311487   3.785   3.126   4.754 -0.5398  1.2125  1.2113
 2872SOL    MW411488   3.816   3.183   4.697 -0.4746  0.4952  0.5231
 2873SOL     OW11489   1.272   3.489   3.333  0.3101 -0.0189 -0.7116
 2873SOL    HW211490   1.258   3.401   3.365  0.4497 -0.9172 -2.9998
 2873SOL    HW311491   1.361   3.512   3.360 -0.4278  0.2294  1.6110
 2873SOL    MW411492   1.282   3.481   3.340  0.2312 -0.1047 -0.7071
 2874SOL     OW11493   1.531   0.400   3.466  0.8365 -0.5930  0.2143
 2874SOL    HW211494   1.443   0.379   3.434  0.6533  1.0691 -0.4106
 2874SOL    HW311495   1.516   0.460   3.540  1.4677  0.7511 -0.7284
 2874SOL    MW411496   1.517   0.405   3.472  0.8956 -0.1963  0.0075
 2875SOL     OW11497   1.490   3.033   3.358  0.0427  0.1902  0.7999
 2875SOL    HW211498   1.464   2.945   3.332 -0.0440  1.3740 -3.5001
 2875SOL    HW311499   1.581   3.023   3.388 -0.1670 -1.4464  0.9445
 2875SOL    MW411500   1.499   3.020   3.358  0.0036  0.1305  0.2516
 2876SOL     OW11501   4.219   2.417   3.658 -0.1422 -0.5136 -0.3350
 2876SOL    HW211502   4.228   2.422   3.563 -1.0639  0.4798 -0.3823
 2876SOL    HW311503   4.129   2.445   3.675  0.6083  1.1916  0.9749
 2876SOL    MW411504   4.209   2.421   3.648 -0.1648 -0.1576 -0.1684
 2877SOL     OW11505   2.636   1.648   4.118 -0.3008  0.0377 -0.3732
 2877SOL    HW211506   2.724   1.616   4.101  0.5025  0.3903  2.7671
 2877SOL    HW311507   2.641   1.742   4.098  0.5972  0.4325  1.5659
 2877SOL    MW411508   2.648   1.656   4.113 -0.0764  0.1363  0.2970
 2878SOL     OW11509   4.348   3.417   4.211  0.3842  0.1222  0.4328
 2878SOL    HW211510   4.378   3.327   4.205  1.3528  0.4224  0.5512
 2878SOL    HW311511   4.429   3.469   4.207 -0.1167  0.9524  0.9230
 2878SOL    MW411512   4.363   3.412   4.210  0.4459  0.2713  0.5131
 2879SOL     OW11513   4.369   3.195   3.258 -0.2165 -0.2453  0.2572
 2879SOL    HW211514   4.333   3.154   3.179  2.7250 -0.0105 -1.2734
 2879SOL    HW311515   4.455   3.154   3.269  0.6277  1.8249  1.6497
 2879SOL    MW411516   4.376   3.184   3.249  0.2830  0.0588  0.2390
 2880SOL     OW11517   2.129   0.783   3.833 -0.2288 -0.3516  0.9314
 2880SOL    HW211518   2.161   0.872   3.845 -0.3370 -0.2293  0.3033
 2880SOL    HW311519   2.197   0.740   3.780 -0.8167 -0.2581  0.0896
 2880SOL    MW411520   2.142   0.789   3.828 -0.3206 -0.3232  0.7375
 2881SOL     OW11521   0.351   0.992   3.241 -0.3696 -0.3185 -0.3877
 2881SOL    HW211522   0.375   1.038   3.321 -0.7732 -0.4135 -0.2111
 2881SOL    HW311523   0.377   1.051   3.170 -0.2554 -0.1205 -0.1806
 2881SOL    MW411524   0.358   1.005   3.242 -0.4078 -0.3049 -0.3370
   4.49070   4.66690  10.00000
