DMSO solvent box, 1 molecule, CF 13/03/03
 4
    1DMSO    SD    1   2.532   2.457   1.915 -0.2258  0.1438 -0.2112
    1DMSO   CD1    2   2.491   2.624   1.968  0.1342  0.1450  0.0995
    1DMSO    OD    3   2.635   2.403   2.015 -0.1266 -0.1550 -0.4816
    1DMSO   CD2    4   2.374   2.380   1.957 -0.2675  0.3335 -0.0045
   3.07990   3.07990   3.07990
