Gromacs Runs On Most of All Computer Systems in water
11764
    1DMSO    SD    1   4.013   4.598   4.908 -0.2453  0.0266 -0.2127
    1DMSO   CD1    2   3.987   4.616   5.088  0.0618 -0.0708  0.7728
    1DMSO    OD    3   3.978   4.453   4.871 -0.2298 -0.4071 -0.2671
    1DMSO   CD2    4   3.881   4.704   4.859  0.4171 -0.1656  0.1663
    2DMSO    SD    5   3.978   3.154   4.747  0.3867  0.2245  0.1740
    2DMSO   CD1    6   4.026   3.099   4.585  0.1402  0.2739 -0.2536
    2DMSO    OD    7   3.920   3.035   4.826 -0.1674 -0.6055  0.6970
    2DMSO   CD2    8   4.142   3.182   4.812 -0.1077 -0.1966 -0.4669
    3DMSO    SD    9   3.324   2.611   4.945 -0.7855 -0.2586  0.2261
    3DMSO   CD1   10   3.259   2.561   5.110  0.1256  0.0081  0.5624
    3DMSO    OD   11   3.437   2.715   4.980 -0.0499 -0.3631 -0.0843
    3DMSO   CD2   12   3.404   2.455   4.906  0.7398 -0.2920  0.5802
    4DMSO    SD   13   0.016   1.334   5.078  0.0302  0.4174 -0.0235
    4DMSO   CD1   14   0.092   1.472   4.997  0.1316 -0.1056 -0.3924
    4DMSO    OD   15  -0.097   1.281   4.995  0.4623  0.1524  0.2227
    4DMSO   CD2   16   0.157   1.218   5.068 -0.2306 -0.2096  0.5663
    5DMSO    SD   17   3.103   4.459   5.041 -0.1772 -0.3451  0.1729
    5DMSO   CD1   18   2.953   4.374   4.997  0.1945 -0.4181 -0.4715
    5DMSO    OD   19   3.078   4.585   5.112 -0.2199  0.0725  0.1543
    5DMSO   CD2   20   3.164   4.335   5.160  0.1810 -0.1507  0.4085
    6DMSO    SD   21   2.569   4.150   5.006  0.5001 -0.1459 -0.3113
    6DMSO   CD1   22   2.425   4.049   4.969  0.0576  0.1188 -0.1461
    6DMSO    OD   23   2.690   4.074   4.948  0.3742 -0.1792 -0.0836
    6DMSO   CD2   24   2.532   4.284   4.885  0.1960  0.0021 -0.2189
    7DMSO    SD   25   2.804   1.278   4.932 -0.0541 -0.2169  0.0407
    7DMSO   CD1   26   2.922   1.415   4.977 -0.0047  0.1528 -0.4026
    7DMSO    OD   27   2.890   1.151   4.935  0.3486  0.1795  0.3364
    7DMSO   CD2   28   2.717   1.285   5.092  0.0170 -0.4367 -0.1382
    8DMSO    SD   29   3.781   1.582   5.052 -0.4277 -0.2177  0.1506
    8DMSO   CD1   30   3.631   1.546   4.965 -0.1876  0.3181  0.3260
    8DMSO    OD   31   3.898   1.584   4.953 -0.2051  0.4309  0.3997
    8DMSO   CD2   32   3.748   1.754   5.092 -0.5602  0.5493 -0.1719
    9DMSO    SD   33   2.852   1.459   4.554  0.1140  0.0673  0.1251
    9DMSO   CD1   34   2.794   1.576   4.676  0.2471 -0.3298 -0.0320
    9DMSO    OD   35   2.948   1.365   4.630 -0.4620 -0.4038  0.8833
    9DMSO   CD2   36   2.698   1.369   4.531 -0.2063 -0.0621 -0.0014
   10DMSO    SD   37   3.131   4.242   4.690 -0.0501  0.4054  0.0425
   10DMSO   CD1   38   3.255   4.193   4.563 -0.3803 -0.1944  0.1584
   10DMSO    OD   39   3.208   4.250   4.820 -0.4082  0.0795  0.5493
   10DMSO   CD2   40   3.108   4.410   4.631 -0.4936  0.0617 -0.2566
   11DMSO    SD   41   0.939   4.624   4.802  0.2155  0.2468 -0.2825
   11DMSO   CD1   42   0.902   4.559   4.967  0.4580 -0.4701  0.4009
   11DMSO    OD   43   1.011   4.760   4.825 -0.3158 -0.4544 -0.1468
   11DMSO   CD2   44   1.065   4.507   4.762  0.3730  0.0793 -0.4094
   12DMSO    SD   45   2.600   3.195   5.141 -0.1729 -0.1583 -0.1983
   12DMSO   CD1   46   2.517   3.279   5.272 -0.3488  0.3661  0.4369
   12DMSO    OD   47   2.561   3.052   5.130 -0.1889 -0.1725  0.0750
   12DMSO   CD2   48   2.533   3.281   5.000 -0.2736 -0.2708  0.6077
   13DMSO    SD   49   2.234   1.273   5.084  0.0236  0.1826  0.0986
   13DMSO   CD1   50   2.377   1.225   4.991  0.2096 -0.3802  0.5431
   13DMSO    OD   51   2.227   1.423   5.103  0.1372  0.2645  0.3067
   13DMSO   CD2   52   2.106   1.232   4.962 -0.2103  0.4231 -0.0040
   14DMSO    SD   53   2.580   1.688   5.033  0.0609 -0.0034  0.3781
   14DMSO   CD1   54   2.404   1.698   5.073  0.4124  0.2692  0.5756
   14DMSO    OD   55   2.601   1.567   4.948  0.1910  0.0982  0.2299
   14DMSO   CD2   56   2.583   1.838   4.928 -0.0375  0.3265 -0.2670
   15DMSO    SD   57   1.956   0.133   4.911  0.0610 -0.3240  0.1458
   15DMSO   CD1   58   1.987  -0.039   4.952 -0.0246 -0.2294 -0.4319
   15DMSO    OD   59   2.093   0.199   4.892  0.3519 -0.1184  0.3763
   15DMSO   CD2   60   1.881   0.114   4.750  0.2336  0.0262  0.1786
   16DMSO    SD   61   0.736   4.230   4.760 -0.1173  0.0985 -0.3961
   16DMSO   CD1   62   0.618   4.244   4.626 -0.5422  0.6612  0.0512
   16DMSO    OD   63   0.686   4.319   4.870  0.6600  0.3461 -0.4159
   16DMSO   CD2   64   0.709   4.059   4.804  0.1564  0.1204 -0.2175
   17DMSO    SD   65   1.383   2.571   4.924 -0.6212  0.1010  0.1743
   17DMSO   CD1   66   1.212   2.517   4.945 -0.1711  0.0204 -0.1412
   17DMSO    OD   67   1.427   2.503   4.792  0.1132  0.0852  0.4863
   17DMSO   CD2   68   1.348   2.743   4.878  0.3243 -0.3997 -0.1056
   18DMSO    SD   69   0.688   2.563   5.024 -0.4115 -0.2015  0.1324
   18DMSO   CD1   70   0.630   2.640   4.871  0.4898  0.3613  0.2599
   18DMSO    OD   71   0.829   2.515   5.007 -0.4371 -0.4420  0.6241
   18DMSO   CD2   72   0.691   2.710   5.127 -0.6847  0.4780 -0.0545
   19DMSO    SD   73   0.551   0.416   4.986 -0.2045  0.0988  0.2114
   19DMSO   CD1   74   0.690   0.298   4.949  0.1805 -0.1238  0.0659
   19DMSO    OD   75   0.530   0.403   5.134 -0.0860 -0.1104 -0.0086
   19DMSO   CD2   76   0.643   0.567   4.955 -0.3659  0.3714  0.1520
   20DMSO    SD   77   1.772   0.858   4.958 -0.1891  0.2047  0.0452
   20DMSO   CD1   78   1.919   0.934   4.885 -0.0992  0.0204 -0.4264
   20DMSO    OD   79   1.658   0.951   4.908  0.3649 -0.1611 -0.2984
   20DMSO   CD2   80   1.763   0.708   4.863  0.1448 -0.2603  0.6468
   21DMSO    SD   81   0.240   2.569   5.052  0.0833 -0.1687 -0.1008
   21DMSO   CD1   82   0.163   2.604   4.894 -0.3804 -0.1319  0.2107
   21DMSO    OD   83   0.362   2.661   5.059  0.1007 -0.3402  0.1576
   21DMSO   CD2   84   0.114   2.626   5.162  0.2426 -0.2355 -0.2082
   22DMSO    SD   85   2.995   3.844   5.048  0.1328  0.3606 -0.2136
   22DMSO   CD1   86   3.041   3.895   4.883 -0.3163  0.1730  0.6696
   22DMSO    OD   87   3.117   3.769   5.104 -0.3100 -0.1734 -0.3407
   22DMSO   CD2   88   2.986   4.002   5.128 -0.2176 -0.4005 -0.0920
   23DMSO    SD   89   0.289   2.203   4.762 -0.5704  0.0079  0.3079
   23DMSO   CD1   90   0.432   2.292   4.831 -0.0044 -0.1801 -0.1321
   23DMSO    OD   91   0.166   2.273   4.822  0.4713  0.2254 -0.2125
   23DMSO   CD2   92   0.312   2.261   4.592  0.4862 -0.6653  0.4817
   24DMSO    SD   93   0.499   1.034   4.569  0.1987 -0.0330 -0.5066
   24DMSO   CD1   94   0.343   0.999   4.485  0.3356  0.1944 -0.0893
   24DMSO    OD   95   0.495   1.172   4.620  0.4522 -0.5747 -0.1684
   24DMSO   CD2   96   0.486   0.915   4.701  0.5686 -0.5593 -0.1601
   25DMSO    SD   97   4.050   0.380   4.999 -0.2535 -0.2300 -0.1873
   25DMSO   CD1   98   4.065   0.370   5.177  0.2430  0.3175 -0.5590
   25DMSO    OD   99   4.086   0.250   4.935  0.4568  0.3465  0.0855
   25DMSO   CD2  100   3.875   0.409   4.986 -0.0069 -0.0701  0.4974
   26DMSO    SD  101   4.017   4.042   5.043  0.5802  0.0507 -0.1575
   26DMSO   CD1  102   3.860   4.050   4.963 -0.1849 -0.0947 -0.3482
   26DMSO    OD  103   4.122   4.114   4.964  0.2372  0.5094  0.2811
   26DMSO   CD2  104   3.982   4.139   5.190  0.0934  0.0110  0.0410
   27DMSO    SD  105   3.637   3.424   5.018 -0.4117 -0.0669  0.3537
   27DMSO   CD1  106   3.621   3.267   4.925 -0.3998 -0.4180  0.2565
   27DMSO    OD  107   3.735   3.509   4.934  0.2508  0.0411 -0.0570
   27DMSO   CD2  108   3.468   3.481   4.981  0.2091 -0.2320 -0.3077
   28DMSO    SD  109   3.486   3.015   5.209 -0.1429  0.2787 -0.2303
   28DMSO   CD1  110   3.621   3.063   5.318  0.2692  0.5181 -0.3502
   28DMSO    OD  111   3.429   3.147   5.156 -0.1637 -0.5507  0.2620
   28DMSO   CD2  112   3.590   2.945   5.080 -0.5347  0.0663  0.2119
   29DMSO    SD  113   4.272   1.615   4.864  0.0819 -0.3169 -0.2298
   29DMSO   CD1  114   4.147   1.502   4.806  0.3241  0.0466 -0.0926
   29DMSO    OD  115   4.336   1.679   4.745 -0.0151  0.1759  0.0781
   29DMSO   CD2  116   4.165   1.732   4.946 -0.3445  0.3548  0.2837
   30DMSO    SD  117   0.199   0.656   4.943 -0.2362  0.3704 -0.1173
   30DMSO   CD1  118   0.045   0.556   4.903 -0.0819  0.1026 -0.1610
   30DMSO    OD  119   0.144   0.780   5.011  0.0881 -0.7533  0.0785
   30DMSO   CD2  120   0.248   0.547   5.079 -0.1488  0.5609 -0.0909
   31DMSO    SD  121   3.820   1.133   5.092  0.2105  0.3081 -0.3897
   31DMSO   CD1  122   3.867   1.227   4.941  0.2787  0.5858 -0.1548
   31DMSO    OD  123   3.670   1.103   5.071 -0.1012 -0.0560  0.7330
   31DMSO   CD2  124   3.908   0.981   5.052  0.1694  0.6013  0.1979
   32DMSO    SD  125   2.669   3.690   5.068 -0.0110  0.3341  0.0254
   32DMSO   CD1  126   2.495   3.648   5.084 -0.3802  0.1629  0.0729
   32DMSO    OD  127   2.750   3.571   5.114 -0.2378 -0.2125 -0.4543
   32DMSO   CD2  128   2.672   3.695   4.888  0.5708 -0.1263 -0.0955
   33DMSO    SD  129   2.887   3.482   4.599 -0.3504 -0.0492  0.1026
   33DMSO   CD1  130   2.976   3.465   4.751 -0.2039  0.2829 -0.1172
   33DMSO    OD  131   2.957   3.591   4.515  0.4747  0.2317  0.0148
   33DMSO   CD2  132   2.923   3.320   4.528 -0.1181  0.1564 -0.0322
   34DMSO    SD  133   2.910   2.450   4.828  0.1508  0.0264  0.2833
   34DMSO   CD1  134   2.878   2.575   4.956  0.0352 -0.2537 -0.2753
   34DMSO    OD  135   3.038   2.378   4.869 -0.3472 -0.1069  0.0079
   34DMSO   CD2  136   2.770   2.344   4.866 -1.1701 -0.0592 -0.2581
   35DMSO    SD  137   3.865   2.497   4.930  0.2238 -0.3717 -0.0176
   35DMSO   CD1  138   3.847   2.534   5.105  0.5510 -0.6893  0.1508
   35DMSO    OD  139   3.781   2.369   4.907 -0.3696 -0.6624 -0.2984
   35DMSO   CD2  140   3.767   2.638   4.870  0.0989  0.3457 -0.6168
   36DMSO    SD  141   3.260   1.276   4.981  0.0091  0.1677 -0.3900
   36DMSO   CD1  142   3.261   1.135   5.098  0.2612  0.0032 -0.0544
   36DMSO    OD  143   3.282   1.402   5.069  0.3504  0.2950 -0.6283
   36DMSO   CD2  144   3.422   1.240   4.906 -0.2451  0.5636 -0.0135
   37DMSO    SD  145   3.555   0.029   5.156 -0.1885 -0.0869  0.0661
   37DMSO   CD1  146   3.572  -0.135   5.083 -0.0320 -0.2998 -0.3732
   37DMSO    OD  147   3.653   0.119   5.084 -0.1833 -0.2152 -0.0884
   37DMSO   CD2  148   3.389   0.064   5.090 -1.0378  0.2812 -0.4962
   38DMSO    SD  149   2.509   4.648   4.967 -0.0157  0.2274 -0.6136
   38DMSO   CD1  150   2.562   4.737   5.109  0.1481  0.1003 -0.1504
   38DMSO    OD  151   2.401   4.553   4.998  0.4780  0.7679 -0.1650
   38DMSO   CD2  152   2.451   4.785   4.867 -0.3074  0.3700  0.2301
   39DMSO    SD  153   2.214   2.947   4.987  0.0254  0.1207  0.0392
   39DMSO   CD1  154   2.231   3.109   5.068 -0.4161 -0.5174 -0.2021
   39DMSO    OD  155   2.067   2.938   4.939 -0.1489 -0.0476 -0.3635
   39DMSO   CD2  156   2.308   2.983   4.836  0.0046 -0.6723  0.2788
   40DMSO    SD  157   2.331   2.423   4.967  0.1108 -0.2564  0.2557
   40DMSO   CD1  158   2.302   2.412   5.145  0.1888  0.2700  0.3204
   40DMSO    OD  159   2.475   2.463   4.947 -0.3320 -0.4176  0.6249
   40DMSO   CD2  160   2.308   2.254   4.923 -0.1326 -0.0730 -0.0978
   41DMSO    SD  161   2.966   1.878   4.915 -0.1768  0.0080 -0.4592
   41DMSO   CD1  162   2.966   1.776   5.057 -0.5880 -0.6453  0.3381
   41DMSO    OD  163   2.848   1.970   4.919 -0.1940  0.2092  0.2390
   41DMSO   CD2  164   3.110   1.981   4.957 -0.0248  0.2695 -0.6119
   42DMSO    SD  165   2.098   0.554   4.949  0.0428 -0.5332  0.2998
   42DMSO   CD1  166   2.228   0.447   5.013 -0.4632 -0.0941  0.2814
   42DMSO    OD  167   2.101   0.678   5.042 -0.6659  0.4027  0.0074
   42DMSO   CD2  168   2.186   0.613   4.801  0.1683  0.5718  0.0935
   43DMSO    SD  169   2.630   0.730   5.010  0.1900  0.0484  0.3743
   43DMSO   CD1  170   2.744   0.847   4.937 -0.5712 -0.0148 -0.7170
   43DMSO    OD  171   2.491   0.789   5.000 -0.0695  0.1838 -0.1808
   43DMSO   CD2  172   2.650   0.592   4.908 -0.0326  0.0009  0.6238
   44DMSO    SD  173   1.549   0.105   4.971  0.1047  0.0995  0.1402
   44DMSO   CD1  174   1.386   0.045   4.925 -0.1864  0.1267  0.3127
   44DMSO    OD  175   1.645  -0.006   4.924 -0.5780 -0.1963 -0.5663
   44DMSO   CD2  176   1.563   0.237   4.854  0.1805 -0.1751 -0.2249
   45DMSO    SD  177   1.130   3.466   4.736  0.4026 -0.0130 -0.1745
   45DMSO   CD1  178   0.981   3.534   4.812  0.2058  0.1476  0.1106
   45DMSO    OD  179   1.158   3.333   4.805  0.1499  0.4719  0.6660
   45DMSO   CD2  180   1.059   3.438   4.574 -0.9740  0.5916 -0.8300
   46DMSO    SD  181   1.927   2.451   4.852 -0.0619 -0.1228  0.1413
   46DMSO   CD1  182   2.023   2.602   4.823  0.1273  0.1058 -0.4040
   46DMSO    OD  183   2.005   2.361   4.945 -0.1212  0.3275  0.0180
   46DMSO   CD2  184   1.792   2.521   4.945 -0.2726 -0.2556  0.3721
   47DMSO    SD  185   1.919   1.912   4.990 -0.4861 -0.1115 -0.6086
   47DMSO   CD1  186   1.902   2.045   4.864  0.6305  0.4915  0.1647
   47DMSO    OD  187   2.066   1.874   4.990 -0.1245 -0.0459  0.0452
   47DMSO   CD2  188   1.885   2.013   5.131 -0.7728  0.1065 -0.0714
   48DMSO    SD  189   1.389   1.247   4.984 -0.1007  0.0176 -0.2787
   48DMSO   CD1  190   1.517   1.339   4.893 -0.5798 -0.2355 -0.1858
   48DMSO    OD  191   1.259   1.327   4.949 -0.1352  0.6357 -0.5316
   48DMSO   CD2  192   1.388   1.105   4.862  0.2691 -0.0878  0.0089
   49DMSO    SD  193   2.908   0.130   4.931 -0.2721 -0.1054 -0.4438
   49DMSO   CD1  194   3.046   0.246   4.936  0.1461  0.3892  0.1413
   49DMSO    OD  195   2.784   0.213   4.897 -0.2775 -0.0321 -0.2898
   49DMSO   CD2  196   2.956   0.054   4.775  0.3662  0.1790 -0.1084
   50DMSO    SD  197   1.451   3.888   4.920 -0.1164  0.1853 -0.1732
   50DMSO   CD1  198   1.310   3.813   4.838 -0.3798 -0.2567  0.2314
   50DMSO    OD  199   1.477   4.022   4.850 -0.5543 -0.3719 -0.0802
   50DMSO   CD2  200   1.366   3.934   5.072  0.1882  0.3812  0.1839
   51DMSO    SD  201   0.803   3.017   5.015 -0.0601 -0.2839 -0.6699
   51DMSO   CD1  202   0.825   3.186   4.970  0.0330 -0.0090  0.0387
   51DMSO    OD  203   0.660   2.971   4.984 -0.2336  0.0716 -0.3120
   51DMSO   CD2  204   0.914   2.940   4.892  0.1719  0.0542 -0.2341
   52DMSO    SD  205   1.506   2.152   4.963  0.6432  0.2848 -0.4378
   52DMSO   CD1  206   1.514   1.972   4.958 -0.1304 -0.1599  0.3875
   52DMSO    OD  207   1.643   2.200   4.920  0.2313  0.3492  0.0893
   52DMSO   CD2  208   1.402   2.170   4.816 -0.3391  0.1637  0.0108
   53DMSO    SD  209   0.833   2.146   4.897  0.0146  0.3076 -0.1294
   53DMSO   CD1  210   0.942   2.183   5.033 -0.3996 -0.0240 -0.3369
   53DMSO    OD  211   0.879   2.012   4.838  0.0803  0.5163 -0.4995
   53DMSO   CD2  212   0.683   2.121   4.988 -0.1383  0.4044 -0.7606
   54DMSO    SD  213   0.811   1.136   4.998  0.4095  0.0989 -0.1947
   54DMSO   CD1  214   0.669   1.206   4.914 -0.0374  0.1580  0.4525
   54DMSO    OD  215   0.868   1.026   4.905 -0.4734  0.3254 -0.1036
   54DMSO   CD2  216   0.923   1.273   4.979  0.1667  0.4490 -0.0414
   55DMSO    SD  217   1.342   0.766   4.781  0.0870  0.2010  0.0083
   55DMSO   CD1  218   1.245   0.749   4.933 -0.0591 -0.7467  0.0524
   55DMSO    OD  219   1.355   0.627   4.720  0.0388 -0.3601  0.0610
   55DMSO   CD2  220   1.216   0.853   4.681 -0.3566 -0.3148 -0.2699
   56DMSO    SD  221   4.454   4.509   4.988 -0.0162 -0.0708  0.2726
   56DMSO   CD1  222   4.575   4.568   4.865  0.1721 -0.1386  0.2518
   56DMSO    OD  223   4.388   4.634   5.041  0.0775  0.3141 -0.0462
   56DMSO   CD2  224   4.341   4.430   4.872 -0.2230 -0.5715 -0.1902
   57DMSO    SD  225   3.053   3.112   4.961  0.2453  0.1612  0.1530
   57DMSO   CD1  226   3.213   3.186   4.943 -0.0917  1.0646  0.4514
   57DMSO    OD  227   2.951   3.196   4.883 -0.0871 -0.2476 -0.1720
   57DMSO   CD2  228   3.077   2.966   4.851 -0.1798  0.5708 -0.2545
   58DMSO    SD  229   4.421   1.985   4.894  0.4827  0.0726 -0.1184
   58DMSO   CD1  230   4.464   2.121   5.003 -0.3986 -0.1029  0.6207
   58DMSO    OD  231   4.492   2.004   4.758 -0.1569 -0.1043 -0.3401
   58DMSO   CD2  232   4.509   1.855   4.979 -0.3977 -0.2400 -0.5053
   59DMSO    SD  233   0.678   1.608   4.910  0.1120  0.4709  0.0278
   59DMSO   CD1  234   0.842   1.680   4.936  0.0737  0.4348 -0.6893
   59DMSO    OD  235   0.643   1.525   5.026 -0.2367  0.0337  0.5611
   59DMSO   CD2  236   0.590   1.768   4.928 -0.2481 -0.4099  0.0165
   60DMSO    SD  237   0.360   0.284   4.710 -0.4204  0.2592 -0.2214
   60DMSO   CD1  238   0.277   0.238   4.564 -0.1768  0.2857 -0.4478
   60DMSO    OD  239   0.332   0.434   4.735 -0.2296  0.2103  0.4812
   60DMSO   CD2  240   0.262   0.193   4.829  0.0814  0.9672  0.6693
   61DMSO    SD  241   0.210   4.188   4.968  0.2322  0.0119 -0.2460
   61DMSO   CD1  242   0.351   4.194   5.085  0.1020  0.1134 -0.2652
   61DMSO    OD  243   0.248   4.285   4.855  0.5074 -0.1258 -0.3211
   61DMSO   CD2  244   0.246   4.023   4.905  0.2663 -0.0970 -0.5286
   62SOL     OW  245   0.412   0.606   0.427  0.1014 -0.1286 -0.0534
   62SOL    HW2  246   0.403   0.694   0.462  0.4222 -0.4333  0.8049
   62SOL    HW3  247   0.496   0.575   0.459 -0.7948 -1.3921  1.1249
   62SOL    MW4  248   0.422   0.613   0.436  0.0255 -0.3355  0.2153
   63SOL     OW  249   3.954   0.211   0.524  0.1359  0.1929 -0.2682
   63SOL    HW2  250   4.033   0.184   0.478  1.0728  0.0360  1.4012
   63SOL    HW3  251   3.953   0.306   0.517  2.4972  0.5294  2.8430
   63SOL    MW4  252   3.964   0.220   0.517  0.5711  0.2166  0.3625
   64SOL     OW  253   4.468   0.111   0.448 -0.3212 -0.2199 -0.5231
   64SOL    HW2  254   4.460   0.116   0.543  0.9024 -0.5473 -0.3877
   64SOL    HW3  255   4.540   0.171   0.427 -0.8228  0.1171 -1.2732
   64SOL    MW4  256   4.477   0.119   0.458 -0.2260 -0.2186 -0.6042
   65SOL     OW  257   0.682   2.055   0.452 -0.3392 -0.6403  0.0938
   65SOL    HW2  258   0.620   1.984   0.434 -0.1382 -0.4383 -1.4975
   65SOL    HW3  259   0.768   2.013   0.452 -0.2413 -0.4390 -0.5855
   65SOL    MW4  260   0.685   2.040   0.450 -0.2998 -0.5871 -0.2058
   66SOL     OW  261   1.074   1.160   0.572 -0.3671  0.9356  0.0040
   66SOL    HW2  262   1.155   1.116   0.544  0.2817  1.8585  0.3785
   66SOL    HW3  263   1.007   1.093   0.566  0.4193  0.1696 -0.3941
   66SOL    MW4  264   1.076   1.145   0.568 -0.1777  0.9563  0.0009
   67SOL     OW  265   0.152   0.519   0.521 -0.0875 -0.4044  0.0640
   67SOL    HW2  266   0.174   0.496   0.612  0.4125 -0.4988 -0.0821
   67SOL    HW3  267   0.230   0.561   0.487 -0.4158 -0.0122 -0.2070
   67SOL    MW4  268   0.165   0.521   0.529 -0.0649 -0.3651  0.0090
   68SOL     OW  269   0.666   0.972   0.427  0.0750  0.5077 -0.1731
   68SOL    HW2  270   0.579   0.945   0.458  0.2363  0.0044 -0.1555
   68SOL    HW3  271   0.696   0.899   0.374 -0.1696  1.3424 -1.4770
   68SOL    MW4  272   0.659   0.959   0.424  0.0640  0.5514 -0.3428
   69SOL     OW  273   1.031   0.736   0.421  0.5640 -0.1358 -0.4288
   69SOL    HW2  274   1.012   0.806   0.484 -0.0725 -0.5257 -0.1773
   69SOL    HW3  275   1.114   0.762   0.381  1.2317 -0.1254  0.9166
   69SOL    MW4  276   1.039   0.749   0.424  0.5681 -0.1859 -0.2181
   70SOL     OW  277   0.901   0.952   0.581  0.0414 -0.1675 -0.5233
   70SOL    HW2  278   0.886   0.951   0.676  0.8388  0.2222 -0.3871
   70SOL    HW3  279   0.814   0.943   0.543 -0.3176 -0.0273  0.2473
   70SOL    MW4  280   0.888   0.951   0.589  0.0993 -0.0976 -0.4037
   71SOL     OW  281   0.240   2.047   0.541  0.1729  0.2255  0.5289
   71SOL    HW2  282   0.215   2.135   0.516 -2.0960 -0.3757  0.5725
   71SOL    HW3  283   0.181   1.990   0.493  1.1224 -1.2548  1.0611
   71SOL    MW4  284   0.229   2.051   0.531 -0.0012 -0.0491  0.6049
   72SOL     OW  285   0.002   1.233   0.527  0.3899  0.1935  0.1861
   72SOL    HW2  286  -0.015   1.320   0.562  3.1151  0.8328  0.0493
   72SOL    HW3  287  -0.083   1.190   0.527 -0.8673  2.5867  0.9751
   72SOL    MW4  288  -0.011   1.239   0.532  0.5836  0.5936  0.2721
   73SOL     OW  289   0.414   2.444   0.555  0.3230  0.2828 -0.0482
   73SOL    HW2  290   0.377   2.519   0.509  0.3111 -0.4997 -1.3528
   73SOL    HW3  291   0.492   2.420   0.504  1.1107  0.2532  1.1357
   73SOL    MW4  292   0.420   2.451   0.542  0.4254  0.1756 -0.0642
   74SOL     OW  293   0.100   1.848   0.382  0.6495  0.1439  0.0947
   74SOL    HW2  294   0.137   1.762   0.404 -1.0177 -0.7166 -0.3689
   74SOL    HW3  295   0.023   1.856   0.439  1.0550  1.5557  0.4697
   74SOL    MW4  296   0.094   1.838   0.393  0.4830  0.2166  0.0830
   75SOL     OW  297   3.979   2.149   0.412 -0.4062  0.1447 -0.3795
   75SOL    HW2  298   3.954   2.133   0.321  0.6084  0.5368 -0.7334
   75SOL    HW3  299   3.979   2.244   0.421 -1.8378  0.0769  0.4164
   75SOL    MW4  300   3.976   2.160   0.401 -0.4612  0.1875 -0.3212
   76SOL     OW  301   4.196   3.283   0.511 -1.0407  0.5901 -0.8157
   76SOL    HW2  302   4.228   3.252   0.595 -1.3486  1.5325 -0.3432
   76SOL    HW3  303   4.101   3.275   0.516 -1.0332  0.2341 -1.2362
   76SOL    MW4  304   4.188   3.278   0.522 -1.0803  0.6675 -0.8088
   77SOL     OW  305   0.430   3.679   0.456  0.4767  0.2859 -0.6505
   77SOL    HW2  306   0.463   3.769   0.459  0.0511  0.4615 -1.2310
   77SOL    HW3  307   0.342   3.684   0.491  1.2117 -0.2661  1.3450
   77SOL    MW4  308   0.423   3.691   0.461  0.5175  0.2362 -0.4638
   78SOL     OW  309   0.770   3.293   0.500  0.2430 -0.0243 -0.2141
   78SOL    HW2  310   0.864   3.280   0.486  0.2818 -1.1393  1.0340
   78SOL    HW3  311   0.757   3.387   0.489  1.4043  0.0499 -1.0007
   78SOL    MW4  312   0.781   3.303   0.497  0.4013 -0.1616 -0.1533
   79SOL     OW  313   1.052   3.847   0.159 -0.4982 -0.3916 -0.0645
   79SOL    HW2  314   0.978   3.881   0.108 -0.5775  0.6533  0.7422
   79SOL    HW3  315   1.015   3.773   0.207 -0.5350 -1.0951 -1.1588
   79SOL    MW4  316   1.037   3.841   0.159 -0.5135 -0.3466 -0.1024
   80SOL     OW  317   3.500   2.860   0.525 -0.4135  0.4974  0.1785
   80SOL    HW2  318   3.455   2.784   0.486  0.2053  0.3757 -0.3084
   80SOL    HW3  319   3.588   2.829   0.543 -1.1171  0.0858  3.1354
   80SOL    MW4  320   3.506   2.846   0.522 -0.4247  0.4270  0.5044
   81SOL     OW  321   0.541   3.967   0.516 -0.0346  0.2631 -0.3380
   81SOL    HW2  322   0.635   3.957   0.506  0.1281  1.5475 -0.2253
   81SOL    HW3  323   0.530   4.009   0.601 -0.7703 -0.8420  0.1155
   81SOL    MW4  324   0.552   3.971   0.526 -0.1102  0.2867 -0.2633
   82SOL     OW  325   0.405   0.060   0.526 -0.6716 -0.3146 -0.3396
   82SOL    HW2  326   0.374  -0.024   0.491  0.7193  0.1090 -2.6841
   82SOL    HW3  327   0.347   0.125   0.486 -0.9135 -0.0437  0.4474
   82SOL    MW4  328   0.393   0.058   0.516 -0.5200 -0.2230 -0.5451
   83SOL     OW  329   0.328   4.487   0.398 -0.0613  0.7821  0.4527
   83SOL    HW2  330   0.237   4.475   0.425 -0.2343  0.7585 -0.1271
   83SOL    HW3  331   0.366   4.399   0.401 -0.5257  0.5135 -0.9453
   83SOL    MW4  332   0.321   4.474   0.402 -0.1454  0.7435  0.1917
   84SOL     OW  333   0.066   4.495   0.528 -0.0510 -0.0687  0.0643
   84SOL    HW2  334   0.002   4.427   0.505 -0.0637 -0.3365  0.8690
   84SOL    HW3  335   0.025   4.577   0.500 -0.6226 -0.2695  0.3018
   84SOL    MW4  336   0.052   4.497   0.521 -0.1281 -0.1305  0.2018
   85SOL     OW  337   0.707   3.553   0.515  0.0002  0.1180 -0.3635
   85SOL    HW2  338   0.709   3.558   0.610  0.6608  3.0457 -0.4798
   85SOL    HW3  339   0.615   3.571   0.493  0.1427  0.9348 -0.3171
   85SOL    MW4  340   0.695   3.556   0.525  0.1062  0.6120 -0.3727
   86SOL     OW  341   0.745   0.270   0.376  0.5901 -0.0888 -0.5062
   86SOL    HW2  342   0.703   0.189   0.348  2.1677 -0.3439 -2.2642
   86SOL    HW3  343   0.838   0.256   0.359  0.9369  1.9186 -0.4355
   86SOL    MW4  344   0.752   0.258   0.370  0.8440  0.1424 -0.7288
   87SOL     OW  345   0.380   0.450   0.192 -0.2111  0.1684  0.0494
   87SOL    HW2  346   0.389   0.513   0.264 -1.5798 -0.0306  0.4175
   87SOL    HW3  347   0.317   0.490   0.132  0.4307  0.0403 -0.7184
   87SOL    MW4  348   0.373   0.464   0.194 -0.3070  0.1253 -0.0033
   88SOL     OW  349   4.445   0.880   0.534  0.1506  1.2457  0.1751
   88SOL    HW2  350   4.397   0.798   0.522 -0.4346  1.5225  0.6154
   88SOL    HW3  351   4.381   0.948   0.513  0.9945  1.5621 -1.4196
   88SOL    MW4  352   4.430   0.878   0.530  0.1847  1.3240  0.0228
   89SOL     OW  353   1.104   4.178   0.461  0.5829 -0.1200 -0.4592
   89SOL    HW2  354   1.010   4.196   0.460  0.4040 -1.0104  0.1441
   89SOL    HW3  355   1.143   4.253   0.416 -0.4817 -0.1343 -1.4231
   89SOL    MW4  356   1.097   4.190   0.455  0.4188 -0.2394 -0.5068
   90SOL     OW  357   1.074   0.493   0.566 -0.2307 -0.0536  0.2593
   90SOL    HW2  358   1.053   0.417   0.513 -1.1056 -0.0042  0.5286
   90SOL    HW3  359   1.050   0.568   0.512  0.8336  0.0399 -0.0910
   90SOL    MW4  360   1.068   0.493   0.552 -0.2057 -0.0347  0.2487
   91SOL     OW  361   0.607   0.005   0.323  0.0713 -0.3313  0.2182
   91SOL    HW2  362   0.551  -0.057   0.275  1.0608 -1.7872  0.8959
   91SOL    HW3  363   0.552   0.036   0.395 -1.1767  1.2991 -1.3924
   91SOL    MW4  364   0.592   0.001   0.326  0.0372 -0.3083  0.0951
   92SOL     OW  365   0.359   1.248   0.518  0.0692  0.1953 -0.3554
   92SOL    HW2  366   0.380   1.309   0.448 -1.0980 -0.9986 -1.7606
   92SOL    HW3  367   0.322   1.172   0.474 -0.8845 -0.4903  1.5655
   92SOL    MW4  368   0.357   1.246   0.503 -0.2106 -0.0527 -0.2873
   93SOL     OW  369   0.450   1.631   0.553 -0.2359 -0.0037  0.1747
   93SOL    HW2  370   0.501   1.569   0.501  0.4151  0.9734 -0.3798
   93SOL    HW3  371   0.359   1.611   0.531  0.0329  0.5184 -1.5161
   93SOL    MW4  372   0.445   1.620   0.543 -0.1145  0.1941 -0.1215
   94SOL     OW  373   0.354   1.425   0.285  0.1252  0.2927 -0.2577
   94SOL    HW2  374   0.335   1.362   0.216  2.0400  0.3261 -0.8326
   94SOL    HW3  375   0.446   1.448   0.273  0.1647  1.2223  1.5562
   94SOL    MW4  376   0.363   1.420   0.275  0.3831  0.4198 -0.0943
   95SOL     OW  377   0.251   1.994   0.193  0.0779 -0.3180  0.1051
   95SOL    HW2  378   0.189   1.944   0.245  0.0854 -0.5694 -0.1202
   95SOL    HW3  379   0.337   1.959   0.218  0.2081  0.7521  1.1810
   95SOL    MW4  380   0.254   1.982   0.203  0.0961 -0.2100  0.2173
   96SOL     OW  381   4.430   2.872   0.540  0.1499 -0.2378 -0.5093
   96SOL    HW2  382   4.412   2.939   0.473  0.4851  0.3524 -0.0126
   96SOL    HW3  383   4.524   2.855   0.533 -0.0432 -1.1427 -1.0712
   96SOL    MW4  384   4.440   2.879   0.530  0.1686 -0.2793 -0.5179
   97SOL     OW  385   3.838   1.947   0.554  0.2025  0.4840  0.0779
   97SOL    HW2  386   3.900   1.988   0.494 -0.1800  0.2805 -0.4606
   97SOL    HW3  387   3.752   1.968   0.517 -0.0005 -0.7900 -0.1995
   97SOL    MW4  388   3.835   1.955   0.541  0.1253  0.2891 -0.0298
   98SOL     OW  389   0.219   2.289   0.153 -0.1167 -0.7037 -0.1069
   98SOL    HW2  390   0.237   2.195   0.158 -1.0467 -0.8694  0.3130
   98SOL    HW3  391   0.175   2.301   0.069  2.0923 -0.2639 -1.2379
   98SOL    MW4  392   0.215   2.278   0.143  0.0521 -0.6675 -0.2007
   99SOL     OW  393   0.402   2.691   0.405  0.2630 -0.1202  0.1928
   99SOL    HW2  394   0.393   2.646   0.321 -0.6966  0.1431  0.1479
   99SOL    HW3  395   0.486   2.738   0.398  0.0261  0.1798 -0.7500
   99SOL    MW4  396   0.412   2.691   0.393  0.1052 -0.0459  0.0625
  100SOL     OW  397   0.112   3.267   0.469  0.1886 -0.1214  0.2452
  100SOL    HW2  398   0.028   3.229   0.444  0.0184 -2.0393  3.4505
  100SOL    HW3  399   0.177   3.216   0.420 -0.4109  0.9657 -1.7660
  100SOL    MW4  400   0.109   3.255   0.459  0.0870 -0.2310  0.4028
  101SOL     OW  401   0.224   2.857   0.546  0.0367 -0.3916 -0.5716
  101SOL    HW2  402   0.250   2.945   0.520  0.7367 -0.1898  0.8053
  101SOL    HW3  403   0.275   2.799   0.488  0.5738  0.0821 -0.5786
  101SOL    MW4  404   0.234   2.861   0.535  0.1999 -0.3025 -0.3908
  102SOL     OW  405   0.681   0.470   0.198 -0.4725  0.5385  0.5250
  102SOL    HW2  406   0.709   0.396   0.252 -0.4802  0.6934  0.7394
  102SOL    HW3  407   0.592   0.448   0.172  0.0146 -0.2054 -0.5887
  102SOL    MW4  408   0.673   0.458   0.202 -0.4093  0.4608  0.4063
  103SOL     OW  409   0.350   3.115   0.454 -0.1335 -0.1524  0.2234
  103SOL    HW2  410   0.383   3.171   0.524  0.4472 -0.3485  0.1132
  103SOL    HW3  411   0.422   3.112   0.390  0.6965 -2.7392  1.2240
  103SOL    MW4  412   0.364   3.122   0.454  0.0526 -0.5196  0.3409
  104SOL     OW  413   0.889   3.711   0.387 -0.3431 -0.5222 -0.1141
  104SOL    HW2  414   0.863   3.799   0.415 -0.5664 -0.1654 -1.3817
  104SOL    HW3  415   0.822   3.653   0.423 -0.5335 -0.0922  0.2175
  104SOL    MW4  416   0.876   3.715   0.395 -0.3977 -0.4184 -0.2376
  105SOL     OW  417   1.126   3.594   0.497 -0.4712  0.7079 -0.2337
  105SOL    HW2  418   1.186   3.662   0.466 -0.3011  0.0176 -1.4694
  105SOL    HW3  419   1.042   3.617   0.458 -0.4990  0.4233 -0.3390
  105SOL    MW4  420   1.123   3.606   0.488 -0.4524  0.5793 -0.4106
  106SOL     OW  421   4.394   4.290   0.426 -0.3637  0.0393  0.3519
  106SOL    HW2  422   4.307   4.310   0.460 -0.1009  0.3396  0.8527
  106SOL    HW3  423   4.411   4.200   0.453 -1.2219 -0.6264 -1.2277
  106SOL    MW4  424   4.385   4.281   0.434 -0.4423 -0.0089  0.2096
  107SOL     OW  425   1.356   3.775   0.452 -0.0650 -0.4825 -0.2067
  107SOL    HW2  426   1.315   3.845   0.399 -0.8880 -1.5430 -0.9973
  107SOL    HW3  427   1.356   3.810   0.541 -0.8913  0.3576 -0.5173
  107SOL    MW4  428   1.350   3.789   0.457 -0.2826 -0.5116 -0.3520
  108SOL     OW  429   0.822   4.513   0.376 -0.1293 -0.0244 -0.4918
  108SOL    HW2  430   0.743   4.562   0.352 -1.0676  0.2877  2.9522
  108SOL    HW3  431   0.874   4.576   0.426  0.3921 -1.4279  0.7646
  108SOL    MW4  432   0.818   4.528   0.380 -0.1843 -0.1684  0.1284
  109SOL     OW  433   0.770   0.699   0.349 -0.5335  0.2138  0.0972
  109SOL    HW2  434   0.864   0.710   0.358 -0.5899 -0.5035  1.7045
  109SOL    HW3  435   0.760   0.643   0.272  0.3527  0.3007 -0.0867
  109SOL    MW4  436   0.781   0.693   0.340 -0.4240  0.1306  0.2850
  110SOL     OW  437   0.663   0.507   0.516 -0.0210  0.2220  0.0288
  110SOL    HW2  438   0.689   0.422   0.481 -0.7400  1.0029 -2.4964
  110SOL    HW3  439   0.709   0.571   0.461 -1.3435  1.4938  0.3499
  110SOL    MW4  440   0.673   0.504   0.504 -0.2904  0.4928 -0.2620
  111SOL     OW  441   0.180   1.034   0.455 -0.5994 -0.0334  0.2574
  111SOL    HW2  442   0.115   0.964   0.462  0.6220 -1.0600  1.6066
  111SOL    HW3  443   0.128   1.115   0.452 -2.0295 -0.9647 -1.3652
  111SOL    MW4  444   0.165   1.035   0.456 -0.6270 -0.2918  0.2214
  112SOL     OW  445   1.295   0.766   0.332  0.1474 -0.1637  0.1734
  112SOL    HW2  446   1.308   0.682   0.376 -0.6194 -0.2353  0.2783
  112SOL    HW3  447   1.378   0.784   0.289  0.4784 -0.7361  0.5633
  112SOL    MW4  448   1.308   0.757   0.332  0.0899 -0.2486  0.2387
  113SOL     OW  449   1.624   0.567   0.533  0.0811 -0.5748  0.0530
  113SOL    HW2  450   1.529   0.565   0.521 -0.0799  0.0291  1.1929
  113SOL    HW3  451   1.637   0.549   0.626  1.1190 -1.2175 -0.1971
  113SOL    MW4  452   1.613   0.564   0.544  0.1968 -0.5799  0.1704
  114SOL     OW  453   1.542   1.119   0.402 -0.3716  0.3878 -0.1963
  114SOL    HW2  454   1.457   1.093   0.437 -0.9558  1.6247 -0.6627
  114SOL    HW3  455   1.606   1.080   0.463 -1.3057  0.6056  0.9512
  114SOL    MW4  456   1.539   1.110   0.415 -0.5719  0.5797 -0.1064
  115SOL     OW  457   0.629   1.477   0.404  0.1524  0.5374 -0.0129
  115SOL    HW2  458   0.649   1.406   0.466 -0.0474  0.2980 -0.2212
  115SOL    HW3  459   0.701   1.539   0.415 -0.0406  0.6419  0.6767
  115SOL    MW4  460   0.641   1.476   0.414  0.1006  0.5196  0.0506
  116SOL     OW  461   0.647   1.227   0.546  0.6809  0.0875 -0.5615
  116SOL    HW2  462   0.552   1.219   0.537  0.6344 -0.9694  0.8003
  116SOL    HW3  463   0.682   1.150   0.502  0.8003 -0.7017  0.8888
  116SOL    MW4  464   0.639   1.216   0.539  0.6905 -0.1561 -0.1905
  117SOL     OW  465   1.600   1.628   0.421  0.2714 -0.1626  0.5674
  117SOL    HW2  466   1.610   1.639   0.327 -1.6785  0.4875  0.4292
  117SOL    HW3  467   1.675   1.675   0.458  1.3648 -0.9105 -0.6628
  117SOL    MW4  468   1.612   1.636   0.414  0.1584 -0.1755  0.3869
  118SOL     OW  469   1.062   1.468   0.536  0.3182  0.6354 -0.3313
  118SOL    HW2  470   1.070   1.373   0.526 -2.2451  0.0233  2.5679
  118SOL    HW3  471   1.151   1.501   0.524  1.4061 -2.2221 -0.5017
  118SOL    MW4  472   1.075   1.460   0.533  0.1236  0.1776  0.0287
  119SOL     OW  473   0.866   1.664   0.493  0.3703 -0.1684  0.0212
  119SOL    HW2  474   0.940   1.603   0.490  0.6399  0.2037 -1.0558
  119SOL    HW3  475   0.845   1.672   0.586  1.1561 -0.9131  0.2678
  119SOL    MW4  476   0.873   1.657   0.504  0.5096 -0.2176 -0.0883
  120SOL     OW  477   0.446   1.864   0.406  0.4320 -0.1643  0.1768
  120SOL    HW2  478   0.435   1.787   0.463  0.2600 -0.3401 -0.0949
  120SOL    HW3  479   0.392   1.931   0.446 -0.4311 -0.5697 -0.3063
  120SOL    MW4  480   0.438   1.863   0.419  0.2954 -0.2410  0.0772
  121SOL     OW  481   0.924   1.938   0.414  0.4446  0.1047  0.4082
  121SOL    HW2  482   0.896   1.939   0.323  1.0200  1.2212  0.2314
  121SOL    HW3  483   0.930   1.845   0.436 -0.5609 -0.1653 -0.4155
  121SOL    MW4  484   0.921   1.926   0.405  0.3879  0.2164  0.2762
  122SOL     OW  485   0.860   2.454   0.484  0.0994 -0.3065 -0.1249
  122SOL    HW2  486   0.858   2.548   0.466 -0.9969 -0.0965  1.0104
  122SOL    HW3  487   0.879   2.448   0.577 -3.0258 -1.1049  0.4967
  122SOL    MW4  488   0.862   2.466   0.494 -0.4576 -0.3842  0.1069
  123SOL     OW  489   0.633   2.353   0.372 -0.6399 -0.0459  0.4925
  123SOL    HW2  490   0.634   2.259   0.388 -0.5048  0.0223  0.8755
  123SOL    HW3  491   0.720   2.383   0.397 -0.5434  0.1172 -0.0269
  123SOL    MW4  492   0.644   2.344   0.377 -0.6093 -0.0154  0.4745
  124SOL     OW  493   1.075   2.971   0.336  0.4652 -0.0411  0.2665
  124SOL    HW2  494   1.092   3.012   0.251  1.0918 -0.1487  0.3406
  124SOL    HW3  495   1.055   3.045   0.394  0.9510  0.1034  0.2462
  124SOL    MW4  496   1.074   2.986   0.332  0.6120 -0.0363  0.2736
  125SOL     OW  497   0.396   2.500   0.212 -0.3329 -0.0742  0.2262
  125SOL    HW2  498   0.454   2.448   0.269  0.2379  1.2536  0.8744
  125SOL    HW3  499   0.338   2.435   0.172  2.1631 -1.5604 -1.1269
  125SOL    MW4  500   0.396   2.484   0.214  0.0717 -0.0951  0.1332
  126SOL     OW  501   0.651   2.842   0.440 -0.4267 -0.3509  0.2799
  126SOL    HW2  502   0.644   2.830   0.535 -1.4927 -1.3050  0.0961
  126SOL    HW3  503   0.625   2.933   0.426 -0.9749 -0.4132  0.8349
  126SOL    MW4  504   0.647   2.852   0.451 -0.6397 -0.4850  0.3288
  127SOL     OW  505   1.050   3.198   0.505  0.0726 -0.4795  0.0365
  127SOL    HW2  506   1.128   3.252   0.517 -0.7415  0.4064  1.4933
  127SOL    HW3  507   1.023   3.175   0.594 -1.1705 -1.0099 -0.4698
  127SOL    MW4  508   1.057   3.202   0.518 -0.1988 -0.4326  0.1619
  128SOL     OW  509   1.802   4.326   0.153  0.4139  0.2726  0.3740
  128SOL    HW2  510   1.867   4.298   0.218 -0.0954  0.8228  1.1368
  128SOL    HW3  511   1.849   4.389   0.098  0.2829  1.4176  1.5257
  128SOL    MW4  512   1.817   4.331   0.154  0.3294  0.4963  0.6266
  129SOL     OW  513   1.566   4.363   0.291  0.6513  0.1346  0.4122
  129SOL    HW2  514   1.584   4.441   0.344  2.1519  0.3525 -0.4037
  129SOL    HW3  515   1.640   4.356   0.232  0.4565 -1.8484  0.3732
  129SOL    MW4  516   1.578   4.372   0.290  0.8236 -0.0983  0.2994
  130SOL     OW  517   0.841   4.253   0.470  0.0291  0.5911  0.0295
  130SOL    HW2  518   0.842   4.272   0.564  1.3908  2.3141 -0.2957
  130SOL    HW3  519   0.840   4.339   0.429 -1.8535 -0.1599 -1.5542
  130SOL    MW4  520   0.841   4.267   0.477 -0.0397  0.7194 -0.2224
  131SOL     OW  521   1.244   4.000   0.321 -0.0988  0.6230 -0.4270
  131SOL    HW2  522   1.184   4.059   0.366 -0.4969 -0.2670  0.2004
  131SOL    HW3  523   1.189   3.947   0.264 -0.0766 -1.0114  1.0244
  131SOL    MW4  524   1.229   4.001   0.319 -0.1484  0.2899 -0.1527
  132SOL     OW  525   1.338   0.522   0.464  0.0950  0.2325  0.0237
  132SOL    HW2  526   1.349   0.432   0.434 -0.7352  0.1934 -0.1764
  132SOL    HW3  527   1.253   0.523   0.509  0.1977  0.8627  0.2212
  132SOL    MW4  528   1.328   0.510   0.466 -0.0010  0.3105  0.0233
  133SOL     OW  529   0.952   0.047   0.519  0.2525 -0.2566  0.0555
  133SOL    HW2  530   1.038   0.005   0.531  0.5694 -0.1117 -1.5304
  133SOL    HW3  531   0.930   0.082   0.605  1.0710 -1.6391  0.8490
  133SOL    MW4  532   0.961   0.046   0.532  0.4023 -0.4199 -0.0491
  134SOL     OW  533   1.791   0.152   0.495 -0.2463  0.5385  0.3589
  134SOL    HW2  534   1.797   0.244   0.470 -1.6802  0.8016  0.9183
  134SOL    HW3  535   1.800   0.153   0.590 -0.7363  0.1525  0.4115
  134SOL    MW4  536   1.793   0.165   0.504 -0.5001  0.5223  0.4397
  135SOL     OW  537   1.297   1.004   0.517 -0.0516  0.4842  0.5557
  135SOL    HW2  538   1.324   0.970   0.602 -0.1862 -0.8514  0.0690
  135SOL    HW3  539   1.283   0.926   0.463  1.6273  1.3604 -1.1805
  135SOL    MW4  540   1.298   0.989   0.521  0.1521  0.4236  0.2624
  136SOL     OW  541   1.064   0.261   0.388  0.1240  0.1108  0.5790
  136SOL    HW2  542   1.044   0.185   0.443 -0.6000  0.9727  1.5405
  136SOL    HW3  543   1.159   0.258   0.377  0.1141 -0.8756  0.6856
  136SOL    MW4  544   1.074   0.250   0.394  0.0272  0.0944  0.7199
  137SOL     OW  545   2.685   0.916   0.450  0.1118  0.5595  0.2717
  137SOL    HW2  546   2.763   0.967   0.426 -0.3283  0.5527 -1.2038
  137SOL    HW3  547   2.611   0.974   0.430 -0.3678 -0.4349 -0.8810
  137SOL    MW4  548   2.686   0.931   0.444 -0.0095  0.4274 -0.0751
  138SOL     OW  549   2.444   0.624   0.422 -0.5317  0.0345  0.4151
  138SOL    HW2  550   2.444   0.546   0.477 -0.2338 -0.5509 -0.3869
  138SOL    HW3  551   2.536   0.633   0.394 -0.7150  0.1889 -0.1446
  138SOL    MW4  552   2.456   0.615   0.425 -0.5166 -0.0224  0.2354
  139SOL     OW  553   1.544   0.899   0.235 -0.1378  0.3674  0.1601
  139SOL    HW2  554   1.623   0.864   0.276 -0.4179 -0.1028  0.3006
  139SOL    HW3  555   1.537   0.989   0.268 -0.4251 -0.0446  1.2312
  139SOL    MW4  556   1.554   0.907   0.245 -0.2127  0.2510  0.3199
  140SOL     OW  557   1.620   1.372   0.542  0.1268 -0.2746 -0.2256
  140SOL    HW2  558   1.588   1.314   0.474 -0.3992  0.3176 -0.4913
  140SOL    HW3  559   1.597   1.460   0.512 -0.2098 -0.0092  0.7586
  140SOL    MW4  560   1.612   1.376   0.529  0.0130 -0.1615 -0.1308
  141SOL     OW  561   1.325   1.624   0.514 -0.6557 -0.1702 -0.2576
  141SOL    HW2  562   1.398   1.651   0.458 -0.9535  1.1798 -0.0269
  141SOL    HW3  563   1.359   1.628   0.603 -1.0366  0.6335 -0.1349
  141SOL    MW4  564   1.339   1.628   0.518 -0.7452  0.1140 -0.2110
  142SOL     OW  565   1.360   1.930   0.425 -0.2883  0.0823  0.1374
  142SOL    HW2  566   1.292   1.997   0.415  0.5168  0.9752  0.5293
  142SOL    HW3  567   1.313   1.851   0.451 -1.1927  0.6473  0.2318
  142SOL    MW4  568   1.345   1.929   0.427 -0.3014  0.2746  0.2016
  143SOL     OW  569   1.140   2.111   0.498  0.3074 -0.7221 -0.5767
  143SOL    HW2  570   1.147   2.089   0.591  1.6153 -0.0758 -0.5074
  143SOL    HW3  571   1.070   2.056   0.465  1.7723 -3.0788  0.1519
  143SOL    MW4  572   1.132   2.101   0.506  0.6732 -0.9477 -0.4714
  144SOL     OW  573   1.406   2.513   0.438  0.1573  0.4500 -0.0326
  144SOL    HW2  574   1.327   2.476   0.399  0.2260  0.3893 -0.1165
  144SOL    HW3  575   1.426   2.590   0.383 -0.8804  1.5467  1.0930
  144SOL    MW4  576   1.399   2.519   0.426  0.0294  0.5867  0.1049
  145SOL     OW  577   2.096   2.595   0.466  0.2716  0.2002  0.8306
  145SOL    HW2  578   2.181   2.603   0.423  0.2442 -1.1662  0.5032
  145SOL    HW3  579   2.113   2.540   0.543 -0.4275 -0.6067  0.4182
  145SOL    MW4  580   2.109   2.588   0.470  0.1757 -0.0865  0.7330
  146SOL     OW  581   1.898   1.969   0.493 -0.5838 -0.2357 -0.3917
  146SOL    HW2  582   1.921   1.999   0.580 -0.8584 -0.1839 -0.3354
  146SOL    HW3  583   1.818   2.018   0.471  0.0768  0.5464 -1.0998
  146SOL    MW4  584   1.890   1.979   0.501 -0.5329 -0.1257 -0.4777
  147SOL     OW  585   1.166   2.396   0.435  0.0830 -0.4373  0.1672
  147SOL    HW2  586   1.070   2.396   0.430  0.0712  0.8179  0.4753
  147SOL    HW3  587   1.188   2.304   0.454 -0.9711 -1.0467 -1.3860
  147SOL    MW4  588   1.156   2.384   0.437 -0.0576 -0.3521  0.0029
  148SOL     OW  589   0.909   2.758   0.396 -0.0806 -0.3386 -0.0107
  148SOL    HW2  590   0.819   2.790   0.406 -0.3425 -1.1615  0.3833
  148SOL    HW3  591   0.960   2.834   0.369 -0.1149  1.0583  3.6673
  148SOL    MW4  592   0.904   2.772   0.394 -0.1197 -0.2629  0.5266
  149SOL     OW  593   2.421   2.389   0.491 -0.4096 -0.4597 -0.5306
  149SOL    HW2  594   2.358   2.398   0.563  1.2806 -0.1367  0.9411
  149SOL    HW3  595   2.410   2.469   0.439  1.0026  1.1553  1.5534
  149SOL    MW4  596   2.411   2.401   0.494 -0.0003 -0.2040 -0.0615
  150SOL     OW  597   1.936   4.218   0.363 -0.2052 -0.0052 -0.0867
  150SOL    HW2  598   2.020   4.175   0.347 -0.4633  0.3093 -2.5169
  150SOL    HW3  599   1.880   4.150   0.400  0.5004 -0.7538 -0.3923
  150SOL    MW4  600   1.940   4.204   0.366 -0.1462 -0.0625 -0.4477
  151SOL     OW  601   1.500   4.110   0.410  0.2217  0.1036 -0.1263
  151SOL    HW2  602   1.526   4.188   0.361 -0.2501 -0.5970 -1.5063
  151SOL    HW3  603   1.431   4.069   0.357  0.3040 -1.1269  0.6830
  151SOL    MW4  604   1.495   4.115   0.396  0.1703 -0.1512 -0.2016
  152SOL     OW  605   1.772   2.819   0.339  0.3545  0.5500  0.0962
  152SOL    HW2  606   1.695   2.862   0.375  1.3942  2.3303  0.2414
  152SOL    HW3  607   1.759   2.821   0.244 -1.6387 -2.7408  0.2208
  152SOL    MW4  608   1.760   2.825   0.331  0.2287  0.3507  0.1318
  153SOL     OW  609   1.595   3.606   0.485 -0.1511  0.3086  0.0745
  153SOL    HW2  610   1.675   3.648   0.452 -0.8709  1.8133  0.1699
  153SOL    HW3  611   1.526   3.671   0.468 -1.1254 -0.4113  1.2184
  153SOL    MW4  612   1.597   3.620   0.479 -0.3746  0.4121  0.2380
  154SOL     OW  613   1.270   3.366   0.547 -0.3673 -0.3112 -0.0054
  154SOL    HW2  614   1.238   3.454   0.526  0.3501  0.0768  0.5024
  154SOL    HW3  615   1.347   3.355   0.492 -1.5565 -1.3902 -1.5012
  154SOL    MW4  616   1.276   3.376   0.537 -0.4296 -0.4023 -0.1357
  155SOL     OW  617   1.503   3.352   0.419  0.0139 -0.4327 -0.0181
  155SOL    HW2  618   1.576   3.290   0.420  0.8138  0.4835  0.5630
  155SOL    HW3  619   1.541   3.433   0.455 -1.0399  0.3442 -0.6360
  155SOL    MW4  620   1.518   3.354   0.424 -0.0196 -0.2093 -0.0230
  156SOL     OW  621   0.809   3.962   0.478 -0.1869  0.5207 -0.3104
  156SOL    HW2  622   0.850   3.965   0.565  0.6802  0.8494 -0.7236
  156SOL    HW3  623   0.825   4.049   0.442 -0.2117  0.2571 -0.9573
  156SOL    MW4  624   0.816   3.974   0.485 -0.0758  0.5293 -0.4502
  157SOL     OW  625   2.328   4.319   0.237 -0.1453 -0.2771 -0.1616
  157SOL    HW2  626   2.301   4.393   0.182  0.9869  1.4460  1.5323
  157SOL    HW3  627   2.331   4.355   0.326  2.6219 -1.7316  0.3827
  157SOL    MW4  628   2.325   4.334   0.241  0.3692 -0.2417  0.1337
  158SOL     OW  629   2.053   0.038   0.370  0.0069 -0.2034  0.3569
  158SOL    HW2  630   2.043  -0.048   0.411  0.6707 -0.7740 -0.6727
  158SOL    HW3  631   1.967   0.079   0.381 -0.3474 -1.0336  0.7567
  158SOL    MW4  632   2.040   0.032   0.377  0.0477 -0.3882  0.2738
  159SOL     OW  633   1.814   0.405   0.386  0.0727  0.0101  0.4366
  159SOL    HW2  634   1.843   0.466   0.318 -0.9206  1.0797  0.9539
  159SOL    HW3  635   1.738   0.448   0.426 -0.9015 -1.7621  0.5370
  159SOL    MW4  636   1.808   0.418   0.382 -0.1869 -0.0826  0.5181
  160SOL     OW  637   1.349   0.265   0.355 -0.0562 -0.0215 -0.3940
  160SOL    HW2  638   1.360   0.244   0.262  0.9221  0.3114 -0.3609
  160SOL    HW3  639   1.370   0.184   0.401  0.3075  0.0513 -0.4278
  160SOL    MW4  640   1.353   0.252   0.348  0.1209  0.0320 -0.3941
  161SOL     OW  641   2.064   0.466   0.497 -0.0320  0.0304 -0.3093
  161SOL    HW2  642   1.975   0.446   0.468  0.0775  0.1919 -0.7552
  161SOL    HW3  643   2.094   0.536   0.439  0.2104  0.3106  0.1513
  161SOL    MW4  644   2.056   0.472   0.485  0.0145  0.0887 -0.3074
  162SOL     OW  645   1.864   1.253   0.619  0.0771 -0.4135  0.4330
  162SOL    HW2  646   1.839   1.160   0.621  1.4273 -0.7849  0.5955
  162SOL    HW3  647   1.784   1.299   0.595 -0.6165 -1.6256  0.3932
  162SOL    MW4  648   1.850   1.247   0.616  0.1637 -0.6224  0.4492
  163SOL     OW  649   2.233   0.988   0.452 -0.4718  0.0537 -0.4208
  163SOL    HW2  650   2.181   1.066   0.433  0.2541  0.2609 -1.6325
  163SOL    HW3  651   2.324   1.020   0.456 -0.2564 -0.5895 -0.1049
  163SOL    MW4  652   2.238   1.003   0.450 -0.3476 -0.0038 -0.5390
  164SOL     OW  653   1.754   0.983   0.546 -0.2236  0.6540 -0.4912
  164SOL    HW2  654   1.751   0.904   0.492 -1.0501  1.1441 -1.1854
  164SOL    HW3  655   1.753   0.951   0.636 -0.7094 -0.1225 -0.7671
  164SOL    MW4  656   1.753   0.968   0.550 -0.3967  0.6162 -0.6192
  165SOL     OW  657   2.180   0.709   0.383  0.3484 -0.6649  0.1859
  165SOL    HW2  658   2.195   0.799   0.410 -0.2231 -0.9764  1.5906
  165SOL    HW3  659   2.268   0.672   0.376  0.5338 -0.4353  1.1850
  165SOL    MW4  660   2.194   0.716   0.386  0.2974 -0.6757  0.5031
  166SOL     OW  661   2.143   1.673   0.513  0.0636  0.1797 -0.5228
  166SOL    HW2  662   2.150   1.768   0.509 -1.8507  0.3628 -0.2666
  166SOL    HW3  663   2.051   1.655   0.491  0.1760 -1.5364  0.3264
  166SOL    MW4  664   2.132   1.683   0.510 -0.1742 -0.0226 -0.3770
  167SOL     OW  665   2.163   1.943   0.416 -0.2358  0.0466  0.0824
  167SOL    HW2  666   2.221   2.017   0.433  1.6494 -1.5879  1.1420
  167SOL    HW3  667   2.079   1.968   0.454  0.7070  1.1515  1.5036
  167SOL    MW4  668   2.160   1.956   0.423  0.1373 -0.0232  0.4097
  168SOL     OW  669   2.361   2.613   0.355 -0.1590 -0.5847 -0.4332
  168SOL    HW2  670   2.404   2.676   0.412  0.1896 -1.5090  0.3430
  168SOL    HW3  671   2.416   2.610   0.276 -1.2374  1.4930 -1.2806
  168SOL    MW4  672   2.374   2.621   0.352 -0.2553 -0.4325 -0.4426
  169SOL     OW  673   1.982   3.157   0.382 -0.1327  0.6669 -0.5903
  169SOL    HW2  674   2.022   3.079   0.421 -1.3947 -0.5406 -1.6700
  169SOL    HW3  675   2.027   3.230   0.423 -0.6794 -0.5904  2.3835
  169SOL    MW4  676   1.993   3.156   0.393 -0.3713  0.3417 -0.3404
  170SOL     OW  677   1.556   2.926   0.462 -0.1303 -0.6004 -0.0565
  170SOL    HW2  678   1.472   2.892   0.430 -0.5262 -0.3734  0.7339
  170SOL    HW3  679   1.566   2.888   0.549  0.6623 -0.7432 -0.2060
  170SOL    MW4  680   1.546   2.917   0.469 -0.0779 -0.5893  0.0281
  171SOL     OW  681   1.314   2.807   0.387  0.0098  0.3681 -0.1693
  171SOL    HW2  682   1.275   2.738   0.440 -0.8003 -0.9550 -2.4011
  171SOL    HW3  683   1.241   2.865   0.364  0.2324  0.5708 -0.3747
  171SOL    MW4  684   1.299   2.806   0.391 -0.0677  0.2203 -0.4908
  172SOL     OW  685   1.620   2.045   0.464 -0.1243 -0.2619  0.2875
  172SOL    HW2  686   1.551   2.000   0.417  0.1416 -0.0595 -0.3013
  172SOL    HW3  687   1.611   2.137   0.438  0.7111 -0.3237 -0.2217
  172SOL    MW4  688   1.610   2.052   0.455  0.0210 -0.2434  0.1426
  173SOL     OW  689   3.582   2.015   0.495  0.1103 -0.0974  0.0775
  173SOL    HW2  690   3.539   2.041   0.577 -1.8542 -1.1253 -0.5866
  173SOL    HW3  691   3.532   2.062   0.427 -0.2637 -1.6735 -0.7498
  173SOL    MW4  692   3.569   2.025   0.496 -0.1982 -0.4409 -0.1192
  174SOL     OW  693   1.128   2.652   0.550 -0.0563 -0.1326 -0.2289
  174SOL    HW2  694   1.045   2.679   0.512 -0.6110  1.1634  1.7667
  174SOL    HW3  695   1.141   2.562   0.521 -1.5438  0.0695 -1.5594
  174SOL    MW4  696   1.119   2.644   0.541 -0.3258  0.0650 -0.1411
  175SOL     OW  697   1.626   2.345   0.433  0.3744 -0.0100  0.0349
  175SOL    HW2  698   1.691   2.401   0.389  0.8413 -0.4073  0.2128
  175SOL    HW3  699   1.548   2.399   0.440  0.6615  0.4434 -0.2637
  175SOL    MW4  700   1.625   2.359   0.428  0.4739 -0.0026  0.0190
  176SOL     OW  701   1.699   3.176   0.452  0.0808  0.0239 -0.1744
  176SOL    HW2  702   1.641   3.100   0.449 -0.2880  0.3354 -1.1243
  176SOL    HW3  703   1.777   3.149   0.405 -0.2370  0.3902 -0.9086
  176SOL    MW4  704   1.702   3.163   0.446 -0.0098  0.1134 -0.3966
  177SOL     OW  705   2.300   3.023   0.469 -0.2661 -0.4545 -0.1679
  177SOL    HW2  706   2.217   2.978   0.454 -0.3576 -0.7987  1.3276
  177SOL    HW3  707   2.287   3.071   0.551  0.6054  0.4569 -0.5488
  177SOL    MW4  708   2.287   3.024   0.478 -0.1632 -0.3796 -0.0209
  178SOL     OW  709   1.822   3.734   0.408 -0.1395  0.2248 -0.1279
  178SOL    HW2  710   1.914   3.713   0.423  0.1201  1.3029 -0.2096
  178SOL    HW3  711   1.808   3.714   0.315  0.0209  0.1009 -0.1252
  178SOL    MW4  712   1.832   3.728   0.397 -0.0841  0.3507 -0.1384
  179SOL     OW  713   1.198   4.401   0.319  0.3686  0.3307 -0.6294
  179SOL    HW2  714   1.141   4.424   0.245  0.1695  0.0765 -0.5571
  179SOL    HW3  715   1.281   4.376   0.278  0.9070  2.1360 -0.6480
  179SOL    MW4  716   1.202   4.400   0.304  0.4134  0.5353 -0.6223
  180SOL     OW  717   1.430   0.074   0.542  0.0375  0.3848 -0.2316
  180SOL    HW2  718   1.502   0.016   0.518  0.9900  1.7275 -0.6375
  180SOL    HW3  719   1.354   0.016   0.546  0.7956 -0.7454 -1.5285
  180SOL    MW4  720   1.430   0.058   0.539  0.2632  0.4128 -0.4563
  181SOL     OW  721   1.214   4.581   0.557  0.2475  0.0504  0.0527
  181SOL    HW2  722   1.192   4.544   0.642 -0.4703  0.1140 -0.1038
  181SOL    HW3  723   1.197   4.511   0.494  0.6110  0.0592 -0.0559
  181SOL    MW4  724   1.209   4.567   0.560  0.2007  0.0600  0.0177
  182SOL     OW  725   2.201   0.220   0.534 -0.3790  0.3014 -0.6172
  182SOL    HW2  726   2.161   0.296   0.491 -0.9684  0.0000 -0.6081
  182SOL    HW3  727   2.170   0.145   0.483 -2.1366 -0.1756  1.1027
  182SOL    MW4  728   2.192   0.220   0.522 -0.6887  0.1987 -0.3891
  183SOL     OW  729   1.952   0.636   0.230  0.1034 -0.8629 -0.1653
  183SOL    HW2  730   2.034   0.673   0.264  0.0448 -1.8321  1.0712
  183SOL    HW3  731   1.969   0.622   0.137  0.9929 -0.1012 -0.1239
  183SOL    MW4  732   1.965   0.639   0.222  0.2131 -0.8902  0.0033
  184SOL     OW  733   3.796   0.773   0.446 -0.2110 -0.5050 -0.2449
  184SOL    HW2  734   3.703   0.792   0.456 -0.6407 -0.9414 -2.8914
  184SOL    HW3  735   3.804   0.680   0.469 -0.4827 -0.5112 -0.1732
  184SOL    MW4  736   3.785   0.763   0.450 -0.3035 -0.5634 -0.5846
  185SOL     OW  737   2.907   1.063   0.380  0.3807  0.0802 -0.0496
  185SOL    HW2  738   2.984   1.019   0.415 -0.6366 -0.1896  1.9354
  185SOL    HW3  739   2.902   1.145   0.428 -0.2375  0.3493 -0.5726
  185SOL    MW4  740   2.916   1.068   0.391  0.1649  0.0801  0.1433
  186SOL     OW  741   3.139   1.131   0.242  0.2031  0.1929 -0.2950
  186SOL    HW2  742   3.153   1.226   0.244  0.8874  0.0873 -0.1495
  186SOL    HW3  743   3.051   1.119   0.277  0.4915  0.6963  0.5936
  186SOL    MW4  744   3.129   1.142   0.247  0.3314  0.2454 -0.1586
  187SOL     OW  745   3.355   1.043   0.385 -0.2468 -0.3917 -0.3040
  187SOL    HW2  746   3.300   1.064   0.310  1.5401 -0.3211 -1.6460
  187SOL    HW3  747   3.381   1.128   0.420  0.5226 -0.3905 -0.8489
  187SOL    MW4  748   3.351   1.057   0.380  0.0905 -0.3822 -0.5530
  188SOL     OW  749   2.611   1.322   0.373  0.4167  0.2618  0.3181
  188SOL    HW2  750   2.707   1.332   0.379  0.5305 -0.2942 -0.4719
  188SOL    HW3  751   2.579   1.412   0.369  1.0280  0.4505 -0.9197
  188SOL    MW4  752   2.620   1.336   0.373  0.5124  0.2133  0.0506
  189SOL     OW  753   2.076   1.218   0.420  0.2097  0.1752  0.2393
  189SOL    HW2  754   2.013   1.246   0.486  0.3714 -1.7846  1.2733
  189SOL    HW3  755   2.063   1.278   0.347 -0.4036  1.9849  1.8061
  189SOL    MW4  756   2.066   1.229   0.419  0.1501  0.1554  0.5825
  190SOL     OW  757   2.823   0.401   0.468 -0.2994 -0.1211 -0.5802
  190SOL    HW2  758   2.801   0.488   0.433 -0.1660 -0.8481 -2.5328
  190SOL    HW3  759   2.913   0.386   0.440 -1.0913 -1.8599 -2.2610
  190SOL    MW4  760   2.832   0.411   0.460 -0.3863 -0.4464 -1.0596
  191SOL     OW  761   2.388   1.805   0.305 -0.7913  0.2461  0.2122
  191SOL    HW2  762   2.464   1.863   0.313 -0.2674 -0.4413  0.3030
  191SOL    HW3  763   2.315   1.855   0.340 -0.5563  1.2645 -0.7394
  191SOL    MW4  764   2.388   1.819   0.310 -0.6912  0.2897  0.0986
  192SOL     OW  765   1.848   1.712   0.554  0.1197  0.3381 -0.1093
  192SOL    HW2  766   1.832   1.725   0.647  0.5697  1.3565 -0.1617
  192SOL    HW3  767   1.850   1.801   0.518  1.0415 -0.0040 -0.9039
  192SOL    MW4  768   1.846   1.726   0.561  0.3007  0.4273 -0.2211
  193SOL     OW  769   2.399   2.109   0.468  0.5606 -0.0530 -0.0644
  193SOL    HW2  770   2.423   2.202   0.472  0.8160 -0.1849  2.1021
  193SOL    HW3  771   2.475   2.066   0.430  0.8721  0.4981 -0.0752
  193SOL    MW4  772   2.412   2.116   0.464  0.6354  0.0023  0.2200
  194SOL     OW  773   2.632   1.958   0.385  0.0258 -0.3963 -0.1803
  194SOL    HW2  774   2.658   1.869   0.408  0.8217  0.2034  1.2893
  194SOL    HW3  775   2.715   2.006   0.377 -0.4064  0.2672 -0.7867
  194SOL    MW4  776   2.646   1.952   0.387  0.0738 -0.2296 -0.0664
  195SOL     OW  777   3.002   2.995   0.323 -0.3099  0.0213 -0.2974
  195SOL    HW2  778   2.993   3.089   0.340 -1.2281 -0.0240 -0.5266
  195SOL    HW3  779   2.913   2.961   0.328  0.1709 -1.0785  1.1741
  195SOL    MW4  780   2.989   3.003   0.326 -0.3676 -0.1298 -0.1335
  196SOL     OW  781   1.811   2.565   0.435  0.4653  0.1545  0.0085
  196SOL    HW2  782   1.906   2.557   0.436  0.4650 -0.0035 -0.9258
  196SOL    HW3  783   1.795   2.659   0.424  0.5117  0.2506  0.7685
  196SOL    MW4  784   1.821   2.576   0.434  0.4714  0.1463 -0.0145
  197SOL     OW  785   2.058   2.902   0.488  0.1525 -0.2617 -0.4294
  197SOL    HW2  786   2.071   2.842   0.561  0.4206  0.1840 -0.1030
  197SOL    HW3  787   1.998   2.857   0.429 -1.6050  0.1697  1.0052
  197SOL    MW4  788   2.052   2.888   0.490 -0.0440 -0.1460 -0.1971
  198SOL     OW  789   1.775   4.013   0.458 -0.6253  0.2413  0.4373
  198SOL    HW2  790   1.685   4.021   0.428  0.0250 -0.3193 -1.7820
  198SOL    HW3  791   1.798   3.921   0.440  0.8600  0.7649 -0.4481
  198SOL    MW4  792   1.766   4.002   0.451 -0.3436  0.2364  0.0277
  199SOL     OW  793   2.202   4.074   0.348  0.4296  0.1074 -0.1161
  199SOL    HW2  794   2.269   4.133   0.314  0.1022  0.2930 -0.4397
  199SOL    HW3  795   2.249   3.993   0.367  0.3721 -0.4569 -2.3033
  199SOL    MW4  796   2.217   4.071   0.346  0.3788  0.0574 -0.4474
  200SOL     OW  797   1.338   4.187   0.633 -0.6387  0.1554  0.2421
  200SOL    HW2  798   1.247   4.187   0.604 -0.6889 -0.2654  0.3997
  200SOL    HW3  799   1.386   4.147   0.560 -0.8021 -1.1707  0.8384
  200SOL    MW4  800   1.332   4.181   0.620 -0.6669 -0.0751  0.3415
  201SOL     OW  801   2.150   3.351   0.491  0.4824 -0.0269  0.6325
  201SOL    HW2  802   2.218   3.331   0.427  0.5237 -2.6700  1.4328
  201SOL    HW3  803   2.189   3.329   0.575 -0.0666  2.0650  1.4623
  201SOL    MW4  804   2.164   3.345   0.494  0.4154 -0.0996  0.8476
  202SOL     OW  805   2.047   4.456   0.490 -0.2417  0.3803 -0.0188
  202SOL    HW2  806   1.995   4.382   0.460 -0.3281  0.2294  0.4998
  202SOL    HW3  807   2.136   4.436   0.461 -0.4345  0.5512 -0.7421
  202SOL    MW4  808   2.052   4.444   0.482 -0.2786  0.3830 -0.0458
  203SOL     OW  809   1.650   4.577   0.476  0.3276 -0.0468  0.0486
  203SOL    HW2  810   1.712   4.650   0.482 -0.5777  0.8190 -0.8980
  203SOL    HW3  811   1.654   4.535   0.562  0.3423  1.5529  0.8390
  203SOL    MW4  812   1.659   4.581   0.488  0.2101  0.2785  0.0280
  204SOL     OW  813   2.443   0.377   0.578  0.1549  0.3122 -0.0433
  204SOL    HW2  814   2.362   0.328   0.562 -0.4267  1.6213 -1.1529
  204SOL    HW3  815   2.512   0.312   0.568 -0.8104 -1.1371  2.2949
  204SOL    MW4  816   2.441   0.362   0.575 -0.0492  0.2937  0.1188
  205SOL     OW  817   2.294   3.858   0.504 -0.3788 -0.4865  0.1785
  205SOL    HW2  818   2.383   3.838   0.474 -0.2008 -0.6440  0.8157
  205SOL    HW3  819   2.240   3.787   0.468 -0.4729  0.3051 -1.3139
  205SOL    MW4  820   2.298   3.846   0.495 -0.3677 -0.4028  0.0657
  206SOL     OW  821   2.578   4.189   0.299  0.6229 -0.6701 -0.1250
  206SOL    HW2  822   2.495   4.222   0.265  0.5942 -0.0543  0.5112
  206SOL    HW3  823   2.605   4.256   0.363  1.7558 -0.7212 -0.5495
  206SOL    MW4  824   2.571   4.202   0.303  0.7686 -0.5956 -0.0971
  207SOL     OW  825   2.775   0.663   0.378  0.3060 -0.3342  0.4410
  207SOL    HW2  826   2.731   0.744   0.403 -0.4858 -0.5958 -0.1045
  207SOL    HW3  827   2.858   0.692   0.339 -0.4882  0.2652 -0.8338
  207SOL    MW4  828   2.780   0.678   0.376  0.0968 -0.2897  0.2009
  208SOL     OW  829   1.745   0.770   0.374 -0.0273 -0.0458 -0.0983
  208SOL    HW2  830   1.801   0.719   0.316 -0.0415  0.7041 -0.7784
  208SOL    HW3  831   1.703   0.705   0.430  0.3942 -0.7305 -0.5692
  208SOL    MW4  832   1.747   0.755   0.374  0.0264 -0.0372 -0.2502
  209SOL     OW  833   3.092   0.706   0.327  0.3090 -0.4713 -0.3855
  209SOL    HW2  834   3.101   0.747   0.241 -1.4770  1.2983  0.2347
  209SOL    HW3  835   3.114   0.775   0.390 -1.8698 -0.7019  0.6665
  209SOL    MW4  836   3.096   0.720   0.324 -0.2141 -0.2682 -0.1649
  210SOL     OW  837   2.486   1.099   0.462 -0.2499 -0.5061  0.1634
  210SOL    HW2  838   2.520   1.165   0.401 -2.6212  0.5747 -0.0665
  210SOL    HW3  839   2.476   1.146   0.545 -0.9654 -0.8329  0.2701
  210SOL    MW4  840   2.489   1.114   0.465 -0.6572 -0.4066  0.1471
  211SOL     OW  841   3.398   0.550   0.521 -0.3128 -0.0404 -0.0012
  211SOL    HW2  842   3.476   0.505   0.489 -0.6738 -0.4322 -0.3419
  211SOL    HW3  843   3.426   0.640   0.537  0.2409 -0.2184  0.0135
  211SOL    MW4  844   3.412   0.556   0.519 -0.2874 -0.1156 -0.0442
  212SOL     OW  845   2.467   1.585   0.445 -0.5473  0.2543  0.2140
  212SOL    HW2  846   2.422   1.645   0.384  0.5249  0.1890 -0.6440
  212SOL    HW3  847   2.399   1.521   0.469 -0.3597 -1.1578 -2.8073
  212SOL    MW4  848   2.452   1.585   0.440 -0.3811  0.0594 -0.2978
  213SOL     OW  849   2.919   1.336   0.476  0.6699  0.4804 -0.2264
  213SOL    HW2  850   2.925   1.431   0.477  2.5733  0.3651  1.1669
  213SOL    HW3  851   2.916   1.310   0.568 -0.7492 -0.7690 -0.5955
  213SOL    MW4  852   2.920   1.345   0.488  0.7338  0.3003 -0.0913
  214SOL     OW  853   3.225   1.785   0.527 -0.6092  0.2921 -0.1597
  214SOL    HW2  854   3.221   1.881   0.533 -0.3795  0.2464  0.8173
  214SOL    HW3  855   3.318   1.766   0.519 -0.5160  0.0559  1.4461
  214SOL    MW4  856   3.237   1.795   0.527 -0.5666  0.2549  0.1810
  215SOL     OW  857   2.678   0.087   0.781  0.1057 -0.0595 -0.1719
  215SOL    HW2  858   2.597   0.044   0.808 -0.4876  1.1788  0.0432
  215SOL    HW3  859   2.678   0.171   0.826  2.1536 -0.5686  0.8568
  215SOL    MW4  860   2.668   0.092   0.790  0.2976  0.0367 -0.0078
  216SOL     OW  861   3.148   2.062   0.604  0.1575  0.0479  0.1089
  216SOL    HW2  862   3.067   2.047   0.652  0.8036 -0.0346  1.1953
  216SOL    HW3  863   3.216   2.062   0.671  0.9237  1.3616 -0.6353
  216SOL    MW4  864   3.146   2.060   0.619  0.3439  0.2104  0.1541
  217SOL     OW  865   2.712   1.711   0.498  0.5370 -0.4466  0.3322
  217SOL    HW2  866   2.723   1.719   0.593  0.3392 -0.5295  0.3605
  217SOL    HW3  867   2.633   1.658   0.487 -0.3935  0.9596  0.1108
  217SOL    MW4  868   2.703   1.705   0.509  0.3881 -0.2720  0.3067
  218SOL     OW  869   2.273   1.389   0.531  0.1086  0.0304 -0.2353
  218SOL    HW2  870   2.207   1.455   0.552 -1.6103 -1.7561  0.1370
  218SOL    HW3  871   2.224   1.322   0.482  1.1775 -2.3517  1.8904
  218SOL    MW4  872   2.258   1.389   0.527  0.0229 -0.5196  0.0943
  219SOL     OW  873   2.701   2.400   0.530 -0.9864 -0.8292  0.9711
  219SOL    HW2  874   2.608   2.380   0.526 -0.4624 -3.3481 -0.0094
  219SOL    HW3  875   2.744   2.316   0.512  1.4623  0.3926  0.8976
  219SOL    MW4  876   2.695   2.386   0.527 -0.5942 -1.0003  0.8320
  220SOL     OW  877   2.742   2.874   0.423 -0.1833 -0.5573  0.6268
  220SOL    HW2  878   2.743   2.965   0.454  0.3813 -0.2703 -0.2281
  220SOL    HW3  879   2.655   2.842   0.448  0.0632 -0.1606  2.0094
  220SOL    MW4  880   2.730   2.882   0.430 -0.0762 -0.4671  0.6964
  221SOL     OW  881   2.956   3.270   0.404 -0.1936  0.3944  0.4066
  221SOL    HW2  882   3.048   3.259   0.428 -0.0261 -0.3527 -0.5354
  221SOL    HW3  883   2.953   3.350   0.353  0.1594 -0.2488 -0.6437
  221SOL    MW4  884   2.968   3.279   0.400 -0.1249  0.2110  0.1437
  222SOL     OW  885   3.220   3.207   0.461  0.1210 -0.1836 -0.3627
  222SOL    HW2  886   3.230   3.122   0.417 -0.1037 -0.1964 -0.3898
  222SOL    HW3  887   3.215   3.185   0.554 -0.2300 -0.2220 -0.3924
  222SOL    MW4  888   3.221   3.193   0.468  0.0450 -0.1904 -0.3702
  223SOL     OW  889   2.359   3.281   0.324 -0.5794  0.1495  0.1322
  223SOL    HW2  890   2.425   3.321   0.382  0.7691  0.5036 -1.6036
  223SOL    HW3  891   2.374   3.187   0.334 -0.1156  0.2162  0.1024
  223SOL    MW4  892   2.370   3.274   0.333 -0.3403  0.2050 -0.1008
  224SOL     OW  893   2.083   3.650   0.457 -0.6814 -0.2878  0.0179
  224SOL    HW2  894   2.075   3.634   0.551 -0.8323 -0.5813 -0.0425
  224SOL    HW3  895   2.116   3.567   0.421  0.1618  0.0839 -0.0811
  224SOL    MW4  896   2.086   3.637   0.464 -0.5901 -0.2775 -0.0031
  225SOL     OW  897   3.616   3.151   0.514  0.0441  0.1913 -0.1474
  225SOL    HW2  898   3.563   3.076   0.488  2.2827 -1.2226 -0.7749
  225SOL    HW3  899   3.580   3.225   0.465 -1.4412 -0.6970 -0.3965
  225SOL    MW4  900   3.604   3.151   0.504  0.1435 -0.1125 -0.2631
  226SOL     OW  901   2.338   4.410   0.496  0.1869 -0.5965  0.3133
  226SOL    HW2  902   2.372   4.498   0.483 -0.5283 -0.3398  0.1422
  226SOL    HW3  903   2.372   4.382   0.581  0.2361 -0.0721  0.4641
  226SOL    MW4  904   2.347   4.418   0.505  0.0991 -0.4935  0.3106
  227SOL     OW  905   2.762   3.505   0.345 -0.4004  0.2303  0.4858
  227SOL    HW2  906   2.699   3.449   0.390 -1.4758  1.3397  0.3613
  227SOL    HW3  907   2.723   3.523   0.260  0.7889 -0.3369 -0.1910
  227SOL    MW4  908   2.749   3.500   0.340 -0.3854  0.3018  0.3801
  228SOL     OW  909   3.504   4.032   0.550  0.3099  0.0055 -0.2187
  228SOL    HW2  910   3.411   4.050   0.561  0.3835  0.4130 -0.2509
  228SOL    HW3  911   3.508   3.969   0.478  0.0772  0.1797 -0.3817
  228SOL    MW4  912   3.492   4.026   0.542  0.2889  0.0822 -0.2444
  229SOL     OW  913   2.502   4.642   0.414 -0.5348 -0.3990 -0.3370
  229SOL    HW2  914   2.544   4.724   0.440  0.0216 -0.7534 -0.0894
  229SOL    HW3  915   2.573   4.578   0.416 -0.7530 -0.6910 -1.5125
  229SOL    MW4  916   2.517   4.644   0.418 -0.4902 -0.4843 -0.4595
  230SOL     OW  917   3.114   4.295   0.476  0.1931 -0.0539 -0.0743
  230SOL    HW2  918   3.046   4.277   0.540 -0.0633 -0.8406 -0.5544
  230SOL    HW3  919   3.068   4.295   0.392  0.6725  0.0952 -0.3374
  230SOL    MW4  920   3.099   4.292   0.473  0.2225 -0.1380 -0.1723
  231SOL     OW  921   2.884   4.232   0.620  0.0613  0.3929  0.3308
  231SOL    HW2  922   2.882   4.276   0.704 -0.0973 -0.2654  0.6779
  231SOL    HW3  923   2.874   4.139   0.641 -1.4609  0.3535 -0.5196
  231SOL    MW4  924   2.882   4.225   0.634 -0.1605  0.3008  0.2644
  232SOL     OW  925   2.660   4.390   0.499  0.0829 -0.6276  0.2158
  232SOL    HW2  926   2.597   4.362   0.567 -0.3715 -1.1556 -0.4137
  232SOL    HW3  927   2.736   4.334   0.513 -0.1654 -1.0098  0.0331
  232SOL    MW4  928   2.661   4.379   0.510 -0.0098 -0.7477  0.1086
  233SOL     OW  929   3.116   0.926   0.475 -0.5692  0.1408 -0.3334
  233SOL    HW2  930   3.120   0.910   0.569 -1.7018  0.1993 -0.2681
  233SOL    HW3  931   3.201   0.966   0.454 -0.3117  0.1302  0.6583
  233SOL    MW4  932   3.128   0.929   0.485 -0.6847  0.1471 -0.1939
  234SOL     OW  933   3.548   0.149   0.484  0.0694  0.3095 -0.0403
  234SOL    HW2  934   3.462   0.109   0.472 -0.0150  1.0265 -1.9503
  234SOL    HW3  935   3.610   0.084   0.450  0.1244  0.7042 -0.6930
  234SOL    MW4  936   3.545   0.135   0.478  0.0655  0.4562 -0.3784
  235SOL     OW  937   3.152   0.447   0.430 -0.0228  0.1859  0.0702
  235SOL    HW2  938   3.226   0.482   0.480 -1.0274  0.7582  1.1595
  235SOL    HW3  939   3.117   0.522   0.383  0.3355 -0.1680 -0.7736
  235SOL    MW4  940   3.158   0.461   0.430 -0.1081  0.2147  0.1026
  236SOL     OW  941   3.871   0.482   0.508 -0.8216  0.2376  0.1384
  236SOL    HW2  942   3.852   0.492   0.601 -1.0938 -0.0390  0.1155
  236SOL    HW3  943   3.792   0.441   0.472 -0.3415 -0.5525 -0.0367
  236SOL    MW4  944   3.858   0.478   0.515 -0.7942  0.0969  0.1123
  237SOL     OW  945   3.178   1.391   0.366 -0.0422  0.1375 -0.0200
  237SOL    HW2  946   3.149   1.482   0.367 -3.0465 -0.6207 -3.8106
  237SOL    HW3  947   3.100   1.341   0.391  0.6215 -1.5316 -1.1968
  237SOL    MW4  948   3.164   1.396   0.369 -0.3510 -0.1827 -0.6754
  238SOL     OW  949   3.506   1.731   0.520  0.4726  0.0772 -0.1501
  238SOL    HW2  950   3.526   1.823   0.503  0.1417  0.1825  0.0172
  238SOL    HW3  951   3.526   1.719   0.613 -0.0364  0.1347 -0.0290
  238SOL    MW4  952   3.511   1.742   0.530  0.3618  0.0987 -0.1120
  239SOL     OW  953   2.990   1.613   0.438  0.1443  0.4907  0.3138
  239SOL    HW2  954   3.039   1.692   0.460 -0.2168  1.2737 -1.5938
  239SOL    HW3  955   2.898   1.641   0.438 -0.1275 -0.3665  1.4097
  239SOL    MW4  956   2.984   1.627   0.441  0.0608  0.4809  0.2067
  240SOL     OW  957   3.520   0.828   0.487  0.3884 -0.5686 -0.1020
  240SOL    HW2  958   3.468   0.892   0.438 -0.6466 -1.5142 -0.2655
  240SOL    HW3  959   3.514   0.858   0.578 -1.6670 -1.4511  0.0882
  240SOL    MW4  960   3.512   0.840   0.493 -0.0193 -0.8098 -0.0985
  241SOL     OW  961   3.402   2.215   0.374 -0.0345 -0.5779  0.3413
  241SOL    HW2  962   3.309   2.229   0.394 -0.2063 -0.2608 -0.6531
  241SOL    HW3  963   3.432   2.300   0.340 -0.6370 -2.0111 -4.0507
  241SOL    MW4  964   3.394   2.228   0.372 -0.1366 -0.7251 -0.3693
  242SOL     OW  965   3.127   2.283   0.429 -0.0063  0.1637 -0.3385
  242SOL    HW2  966   3.145   2.364   0.477  0.2167  0.1915 -0.4707
  242SOL    HW3  967   3.139   2.214   0.493 -3.3531  0.4135  0.6699
  242SOL    MW4  968   3.131   2.285   0.444 -0.4185  0.2003 -0.2229
  243SOL     OW  969   3.241   2.845   0.227  0.8211 -0.1265  0.2444
  243SOL    HW2  970   3.237   2.869   0.135  2.0071  0.9174  0.4417
  243SOL    HW3  971   3.170   2.894   0.268  0.2665 -0.6231 -0.1030
  243SOL    MW4  972   3.231   2.855   0.220  0.9044 -0.0543  0.2246
  244SOL     OW  973   2.480   2.834   0.517  0.3567  0.0191 -0.3076
  244SOL    HW2  974   2.419   2.901   0.487  1.0780  0.5542 -0.5969
  244SOL    HW3  975   2.492   2.852   0.610 -0.5771 -0.6038 -0.0660
  244SOL    MW4  976   2.473   2.845   0.525  0.3286  0.0075 -0.3139
  245SOL     OW  977   2.841   2.179   0.441  0.1843  0.1972  0.6911
  245SOL    HW2  978   2.874   2.133   0.518  1.2025 -1.9381 -0.9793
  245SOL    HW3  979   2.919   2.216   0.399 -0.0186 -0.9954 -0.7885
  245SOL    MW4  980   2.855   2.178   0.445  0.2919 -0.2419  0.2755
  246SOL     OW  981   2.928   2.785   0.741  0.4617 -0.3686  0.4147
  246SOL    HW2  982   2.913   2.734   0.661 -0.3450 -1.0238  0.9661
  246SOL    HW3  983   3.021   2.774   0.760  0.5238 -0.7210 -0.0968
  246SOL    MW4  984   2.938   2.777   0.733  0.3635 -0.5016  0.4200
  247SOL     OW  985   3.250   0.026   0.464 -0.0090 -0.1744  0.3055
  247SOL    HW2  986   3.190   0.057   0.532  1.0845  1.6890  0.4589
  247SOL    HW3  987   3.225   0.075   0.385  0.5202 -0.2718  0.0747
  247SOL    MW4  988   3.239   0.037   0.463  0.2051  0.0586  0.2953
  248SOL     OW  989   3.170   3.768   0.435  0.5043  0.4347  0.2535
  248SOL    HW2  990   3.172   3.857   0.471  0.8557  1.4380 -2.1675
  248SOL    HW3  991   3.262   3.742   0.430  0.3330 -0.6327  2.2530
  248SOL    MW4  992   3.182   3.777   0.439  0.5281  0.4263  0.1979
  249SOL     OW  993   3.601   3.829   0.339  0.2623 -0.1497  0.2968
  249SOL    HW2  994   3.694   3.828   0.362  0.3586  3.1494  0.3179
  249SOL    HW3  995   3.599   3.866   0.251 -1.0416 -0.2329  0.2875
  249SOL    MW4  996   3.613   3.834   0.330  0.1029  0.2746  0.2984
  250SOL     OW  997   2.556   3.974   0.485 -0.2314  0.1222  0.2792
  250SOL    HW2  998   2.553   4.022   0.568  1.6198 -0.2097  0.5784
  250SOL    HW3  999   2.570   4.042   0.419  1.6891  0.0979  0.6261
  250SOL    MW4 1000   2.558   3.990   0.487  0.2662  0.0752  0.3645
  251SOL     OW 1001   3.453   3.359   0.434  0.4799  0.7327  0.2531
  251SOL    HW2 1002   3.439   3.450   0.409 -0.3973  0.3571 -0.6668
  251SOL    HW3 1003   3.366   3.321   0.437  0.9773 -0.6428 -1.6152
  251SOL    MW4 1004   3.440   3.366   0.431  0.4298  0.5017 -0.1147
  252SOL     OW 1005   2.830   3.928   0.554 -0.1931 -0.1994  0.5197
  252SOL    HW2 1006   2.747   3.935   0.507  0.5333  0.8492 -0.6366
  252SOL    HW3 1007   2.861   3.839   0.535 -0.9045 -0.4908  0.7119
  252SOL    MW4 1008   2.823   3.917   0.545 -0.1912 -0.0995  0.3925
  253SOL     OW 1009   2.526   3.385   0.507 -0.5341 -0.3173 -0.0103
  253SOL    HW2 1010   2.573   3.309   0.542 -1.8921 -1.1711 -0.0015
  253SOL    HW3 1011   2.522   3.447   0.580  1.0884  0.0242 -0.1887
  253SOL    MW4 1012   2.532   3.383   0.521 -0.4992 -0.3849 -0.0327
  254SOL     OW 1013   3.773   0.003   0.461 -0.0821 -0.3358 -0.3676
  254SOL    HW2 1014   3.844   0.067   0.471  0.1099 -0.5376 -0.4411
  254SOL    HW3 1015   3.816  -0.082   0.466  0.0966 -0.4620 -3.1816
  254SOL    MW4 1016   3.788   0.000   0.463 -0.0332 -0.3791 -0.7486
  255SOL     OW 1017   3.610   4.321   0.496  0.6147 -0.1281 -0.1659
  255SOL    HW2 1018   3.528   4.364   0.517 -0.2761 -1.4745 -0.8510
  255SOL    HW3 1019   3.598   4.230   0.522  1.3954 -0.6386 -1.5325
  255SOL    MW4 1020   3.598   4.315   0.502  0.6002 -0.3731 -0.4366
  256SOL     OW 1021   3.616   0.424   0.396 -0.2283  0.3206  0.2354
  256SOL    HW2 1022   3.580   0.338   0.418  0.2869  0.1187  0.3024
  256SOL    HW3 1023   3.599   0.435   0.303  0.3726 -0.1774  0.0670
  256SOL    MW4 1024   3.609   0.414   0.387 -0.0810  0.2282  0.2221
  257SOL     OW 1025   4.179   0.447   0.447 -0.2661  0.1549  0.0381
  257SOL    HW2 1026   4.086   0.463   0.462  0.0559 -0.1941  2.5717
  257SOL    HW3 1027   4.184   0.355   0.421 -0.7593  0.5830 -1.6503
  257SOL    MW4 1028   4.168   0.437   0.446 -0.2887  0.1653  0.1496
  258SOL     OW 1029   4.204   0.182   0.363 -0.6466 -0.3132 -0.1445
  258SOL    HW2 1030   4.289   0.155   0.400  0.5870  2.2663 -0.9815
  258SOL    HW3 1031   4.209   0.156   0.271 -0.4427  0.4980 -0.3693
  258SOL    MW4 1032   4.216   0.175   0.356 -0.4569  0.1342 -0.2846
  259SOL     OW 1033   4.245   1.093   0.537 -0.0560 -0.0803 -0.4199
  259SOL    HW2 1034   4.171   1.031   0.541  0.2921 -0.4724  0.0043
  259SOL    HW3 1035   4.204   1.179   0.548 -0.2241 -0.4405  2.0049
  259SOL    MW4 1036   4.230   1.096   0.539 -0.0323 -0.1795 -0.0440
  260SOL     OW 1037   4.373   0.606   0.538 -0.3496  0.1012 -0.3435
  260SOL    HW2 1038   4.461   0.572   0.519 -0.2156  0.6132 -0.6607
  260SOL    HW3 1039   4.314   0.548   0.490 -0.0783  0.7233 -1.4450
  260SOL    MW4 1040   4.377   0.593   0.529 -0.2961  0.2508 -0.5306
  261SOL     OW 1041   4.125   1.333   0.530 -0.2900 -0.0229  0.5608
  261SOL    HW2 1042   4.152   1.422   0.505 -0.4321  0.1950  1.1831
  261SOL    HW3 1043   4.119   1.335   0.625  1.1755 -1.1253  0.6924
  261SOL    MW4 1044   4.128   1.345   0.539 -0.1154 -0.1396  0.6603
  262SOL     OW 1045   3.850   1.269   0.546 -0.1918 -0.3177 -0.2748
  262SOL    HW2 1046   3.789   1.333   0.511  0.3134  0.1751 -0.2701
  262SOL    HW3 1047   3.936   1.297   0.513 -0.2131 -2.1396 -1.9297
  262SOL    MW4 1048   3.853   1.281   0.537 -0.1279 -0.4931 -0.4925
  263SOL     OW 1049   3.427   1.305   0.470 -0.7009 -0.1804 -0.1404
  263SOL    HW2 1050   3.357   1.362   0.438 -0.9657 -0.6027 -0.3117
  263SOL    HW3 1051   3.404   1.286   0.560 -0.7574 -0.2505 -0.1704
  263SOL    MW4 1052   3.415   1.310   0.477 -0.7433 -0.2454 -0.1669
  264SOL     OW 1053   3.647   1.480   0.455 -0.0447 -0.5550 -0.2154
  264SOL    HW2 1054   3.595   1.559   0.465  0.6019 -0.2368  0.7909
  264SOL    HW3 1055   3.583   1.409   0.448 -0.6207  0.0756 -1.2751
  264SOL    MW4 1056   3.632   1.481   0.456 -0.0354 -0.4298 -0.2224
  265SOL     OW 1057   3.962   2.415   0.439  0.1645  0.1395 -0.7687
  265SOL    HW2 1058   4.012   2.486   0.479  0.8209 -0.3120 -0.7828
  265SOL    HW3 1059   3.872   2.431   0.467  0.7678 -0.9042  2.0191
  265SOL    MW4 1060   3.957   2.427   0.448  0.3307 -0.0578 -0.4028
  266SOL     OW 1061   3.709   2.497   0.523 -0.1274 -0.0822 -0.2823
  266SOL    HW2 1062   3.640   2.480   0.459  0.8678  0.7208 -1.5991
  266SOL    HW3 1063   3.672   2.470   0.607 -1.6694 -0.5866 -1.1171
  266SOL    MW4 1064   3.695   2.491   0.526 -0.1996 -0.0428 -0.5662
  267SOL     OW 1065   3.152   2.545   0.529  0.1052  0.3973  0.0399
  267SOL    HW2 1066   3.060   2.567   0.517 -0.3134 -0.7911  0.9727
  267SOL    HW3 1067   3.160   2.525   0.623  0.6101 -2.6062 -0.5818
  267SOL    MW4 1068   3.141   2.545   0.540  0.1166 -0.1558  0.0809
  268SOL     OW 1069   2.930   3.675   0.518  0.2396  0.1891  0.3655
  268SOL    HW2 1070   3.016   3.707   0.488 -0.4977  1.3918 -0.5227
  268SOL    HW3 1071   2.899   3.618   0.448  0.0217  0.2840  0.3840
  268SOL    MW4 1072   2.938   3.672   0.505  0.1135  0.3603  0.2508
  269SOL     OW 1073   2.978   3.044   0.844  0.3782 -0.0399  0.0091
  269SOL    HW2 1074   2.956   2.957   0.812 -0.2263  0.5138 -1.1234
  269SOL    HW3 1075   2.898   3.095   0.830  0.7085  0.6835  0.7150
  269SOL    MW4 1076   2.964   3.039   0.838  0.3420  0.1286 -0.0472
  270SOL     OW 1077   3.876   3.301   0.553  0.4223 -0.2379  0.6851
  270SOL    HW2 1078   3.905   3.293   0.645  0.5358 -0.0443  0.6679
  270SOL    HW3 1079   3.801   3.242   0.546 -0.0292  0.2806  1.0890
  270SOL    MW4 1080   3.870   3.292   0.564  0.3777 -0.1439  0.7361
  271SOL     OW 1081   3.365   2.663   0.400  0.3726  0.2877 -0.0628
  271SOL    HW2 1082   3.297   2.618   0.450  0.6847  1.9712  1.9548
  271SOL    HW3 1083   3.316   2.717   0.338 -0.1094  0.3689  0.3758
  271SOL    MW4 1084   3.349   2.664   0.398  0.3502  0.5205  0.2613
  272SOL     OW 1085   4.198   3.556   0.544  0.0678  0.0206 -0.1786
  272SOL    HW2 1086   4.201   3.464   0.516 -0.0214  0.4413 -1.5929
  272SOL    HW3 1087   4.109   3.584   0.527 -0.0009  0.2804  0.5827
  272SOL    MW4 1088   4.187   3.547   0.538  0.0469  0.1104 -0.2647
  273SOL     OW 1089   3.517   2.459   0.314 -0.0584  0.2115 -0.0203
  273SOL    HW2 1090   3.523   2.461   0.219  0.3821  0.6388  0.0137
  273SOL    HW3 1091   3.479   2.543   0.338  1.6874  0.9402  0.2970
  273SOL    MW4 1092   3.513   2.470   0.305  0.2300  0.3640  0.0261
  274SOL     OW 1093   3.416   3.648   0.415  0.0256 -0.1416  0.2072
  274SOL    HW2 1094   3.415   3.634   0.509 -0.7584  0.6961  0.3215
  274SOL    HW3 1095   3.498   3.693   0.398 -0.2514  0.5022  0.5975
  274SOL    MW4 1096   3.427   3.652   0.425 -0.1144  0.0539  0.2738
  275SOL     OW 1097   4.378   3.117   0.383 -0.1984 -0.1375  0.1177
  275SOL    HW2 1098   4.311   3.179   0.412 -1.0629 -0.5176 -1.0699
  275SOL    HW3 1099   4.349   3.087   0.298  1.4960 -0.3002 -0.4279
  275SOL    MW4 1100   4.366   3.121   0.376 -0.0889 -0.2091 -0.1110
  276SOL     OW 1101   3.224   4.051   0.547  0.1282 -0.2516 -0.2412
  276SOL    HW2 1102   3.194   4.041   0.637 -0.4923  0.6639 -0.3317
  276SOL    HW3 1103   3.183   4.132   0.518  1.8481  0.4615 -0.7300
  276SOL    MW4 1104   3.214   4.060   0.555  0.2732 -0.0367 -0.3176
  277SOL     OW 1105   3.878   4.411   0.515  0.2915 -0.1970 -0.1029
  277SOL    HW2 1106   3.795   4.371   0.488 -0.9212  2.0227  0.2126
  277SOL    HW3 1107   3.869   4.422   0.610  0.4423  1.1708 -0.2459
  277SOL    MW4 1108   3.866   4.407   0.524  0.1514  0.2763 -0.0802
  278SOL     OW 1109   0.511   4.246   0.445  0.0020  0.2697  0.2822
  278SOL    HW2 1110   0.603   4.264   0.461  0.1788  0.7844 -1.2992
  278SOL    HW3 1111   0.505   4.150   0.448  0.0318  0.3139  3.2759
  278SOL    MW4 1112   0.522   4.235   0.448  0.0293  0.3434  0.4685
  279SOL     OW 1113   3.955   1.004   0.549  0.1077  0.5719 -0.6477
  279SOL    HW2 1114   3.901   0.935   0.511 -0.1357  1.2331 -1.5193
  279SOL    HW3 1115   3.903   1.084   0.539  0.0207  0.7519  1.1402
  279SOL    MW4 1116   3.941   1.006   0.543  0.0641  0.6829 -0.5268
  280SOL     OW 1117   4.362   1.852   0.553 -0.1782  0.0758  0.3692
  280SOL    HW2 1118   4.322   1.935   0.525 -0.2121  0.1045  0.5032
  280SOL    HW3 1119   4.356   1.853   0.648  0.4885  0.2584  0.4143
  280SOL    MW4 1120   4.356   1.863   0.562 -0.0947  0.1037  0.3928
  281SOL     OW 1121   0.210   0.266   0.397 -0.4186  0.1270  0.2485
  281SOL    HW2 1122   0.253   0.285   0.313  1.4037 -0.7988  0.9595
  281SOL    HW3 1123   0.193   0.353   0.434  2.4469  0.5283  0.7428
  281SOL    MW4 1124   0.213   0.280   0.391  0.1999  0.0578  0.4075
  282SOL     OW 1125   0.435   0.873   0.536 -0.5085 -0.2511  0.2213
  282SOL    HW2 1126   0.355   0.920   0.516  0.0318  0.3560 -0.5239
  282SOL    HW3 1127   0.449   0.888   0.630  0.0736  1.7106 -0.1651
  282SOL    MW4 1128   0.426   0.881   0.546 -0.3604  0.0878  0.0720
  283SOL     OW 1129   3.355   4.439   0.493 -0.0592  0.2305  0.4980
  283SOL    HW2 1130   3.280   4.384   0.474 -0.3440  0.9744 -0.5731
  283SOL    HW3 1131   3.326   4.528   0.474  0.4135  0.7596  2.1476
  283SOL    MW4 1132   3.342   4.444   0.488 -0.0344  0.3985  0.5743
  284SOL     OW 1133   4.437   1.518   0.567 -0.1878 -0.1608  0.2934
  284SOL    HW2 1134   4.362   1.559   0.524  0.7399 -0.2151 -1.4324
  284SOL    HW3 1135   4.457   1.577   0.640 -2.6429 -0.8048  1.5418
  284SOL    MW4 1136   4.430   1.531   0.571 -0.3893 -0.2529  0.2304
  285SOL     OW 1137   0.186   1.592   0.447  0.6588  0.1644  0.1297
  285SOL    HW2 1138   0.101   1.557   0.473  1.6388  0.1183  3.6312
  285SOL    HW3 1139   0.217   1.534   0.378 -0.9277 -1.5197  0.7993
  285SOL    MW4 1140   0.179   1.580   0.441  0.5788 -0.0639  0.6801
  286SOL     OW 1141   3.903   1.681   0.570  0.0203  0.2531 -0.1758
  286SOL    HW2 1142   3.837   1.640   0.515 -1.1725  1.5739  0.2632
  286SOL    HW3 1143   3.880   1.773   0.572  0.9081  0.4625  1.3314
  286SOL    MW4 1144   3.891   1.688   0.563 -0.0199  0.4550  0.0810
  287SOL     OW 1145   4.179   1.629   0.517  0.1707  0.0222 -0.2084
  287SOL    HW2 1146   4.220   1.715   0.510  0.1059  0.0590 -0.1174
  287SOL    HW3 1147   4.086   1.647   0.526  0.3260 -0.0125  1.5549
  287SOL    MW4 1148   4.172   1.643   0.517  0.1826  0.0225  0.0363
  288SOL     OW 1149   0.201   2.310   0.446  0.0436 -0.1217 -0.0168
  288SOL    HW2 1150   0.288   2.346   0.466 -0.0710  0.5336 -0.6779
  288SOL    HW3 1151   0.204   2.289   0.353 -1.0281  1.4098 -0.4091
  288SOL    MW4 1152   0.213   2.312   0.437 -0.1129  0.1668 -0.1558
  289SOL     OW 1153   4.231   2.096   0.489 -0.7667  0.4374 -0.2840
  289SOL    HW2 1154   4.148   2.108   0.443  0.0494  0.6179 -1.7477
  289SOL    HW3 1155   4.284   2.172   0.465  0.1741 -0.1597 -0.1625
  289SOL    MW4 1156   4.227   2.107   0.480 -0.5349  0.3825 -0.4611
  290SOL     OW 1157   4.354   2.606   0.528  0.1985  0.3343 -0.1328
  290SOL    HW2 1158   4.395   2.589   0.613 -0.7688 -1.6209 -0.0216
  290SOL    HW3 1159   4.358   2.701   0.517  1.4892  0.4786  1.5118
  290SOL    MW4 1160   4.360   2.616   0.538  0.2411  0.0954  0.0989
  291SOL     OW 1161   3.784   2.758   0.540  0.1675  0.6071  0.2224
  291SOL    HW2 1162   3.875   2.754   0.510  0.6264  1.3312  1.4884
  291SOL    HW3 1163   3.760   2.667   0.553  0.8038  0.4229  0.1533
  291SOL    MW4 1164   3.793   2.746   0.538  0.3120  0.6784  0.3803
  292SOL     OW 1165   4.391   2.336   0.454  0.2494  0.0051  0.4011
  292SOL    HW2 1166   4.379   2.431   0.449 -0.0277 -0.0131  0.6619
  292SOL    HW3 1167   4.485   2.325   0.467  0.2834  0.2450  0.3716
  292SOL    MW4 1168   4.402   2.347   0.455  0.2174  0.0344  0.4316
  293SOL     OW 1169   0.156   3.637   0.546  0.2916  0.5651 -0.2298
  293SOL    HW2 1170   0.176   3.567   0.484  0.3574 -0.8110  1.3010
  293SOL    HW3 1171   0.069   3.667   0.521 -0.0282 -0.5328 -0.5024
  293SOL    MW4 1172   0.147   3.631   0.535  0.2581  0.2387 -0.0638
  294SOL     OW 1173   4.099   4.038   0.533 -0.2472  0.0132  0.1784
  294SOL    HW2 1174   4.194   4.025   0.534 -0.3036 -0.4141  0.2267
  294SOL    HW3 1175   4.086   4.123   0.492  0.1948  0.3564  0.7359
  294SOL    MW4 1176   4.109   4.047   0.528 -0.1964  0.0021  0.2583
  295SOL     OW 1177   0.634   3.118   0.341  0.0735  0.3706 -0.0214
  295SOL    HW2 1178   0.687   3.170   0.401 -0.7025  2.1442 -0.8246
  295SOL    HW3 1179   0.686   3.112   0.261 -0.3671  0.9795 -0.3563
  295SOL    MW4 1180   0.648   3.124   0.338 -0.0870  0.6849 -0.1715
  296SOL     OW 1181   3.911   3.576   0.513  0.2315  0.2581  0.2265
  296SOL    HW2 1182   3.904   3.483   0.491  0.8276  0.3915 -0.5489
  296SOL    HW3 1183   3.869   3.584   0.599  0.5909 -0.8083  0.5062
  296SOL    MW4 1184   3.904   3.565   0.522  0.3576  0.1350  0.1611
  297SOL     OW 1185   4.065   2.647   0.565 -0.5256  0.5779 -0.0604
  297SOL    HW2 1186   4.041   2.607   0.648 -1.2515  1.1935  0.0231
  297SOL    HW3 1187   4.158   2.627   0.555 -1.0624 -1.8665 -0.4295
  297SOL    MW4 1188   4.074   2.639   0.575 -0.6922  0.3367 -0.0981
  298SOL     OW 1189   4.373   4.024   0.534  0.1743 -0.6110  0.4100
  298SOL    HW2 1190   4.413   4.040   0.619  0.4238  0.4699  0.0983
  298SOL    HW3 1191   4.424   3.952   0.497  2.2616  1.1066 -0.2196
  298SOL    MW4 1192   4.385   4.017   0.540  0.4826 -0.2418  0.2858
  299SOL     OW 1193   4.400   3.727   0.440  0.2686  0.0054 -0.1466
  299SOL    HW2 1194   4.326   3.684   0.483 -1.1694  3.4592  1.0543
  299SOL    HW3 1195   4.369   3.744   0.351 -0.2761  1.0314  0.2197
  299SOL    MW4 1196   4.386   3.724   0.434  0.0070  0.5964  0.0602
  300SOL     OW 1197   3.890   3.850   0.435 -0.1470  0.1768 -0.5435
  300SOL    HW2 1198   3.922   3.762   0.457 -0.4283  0.1162 -0.3704
  300SOL    HW3 1199   3.965   3.907   0.450 -0.6277  0.2823  1.6241
  300SOL    MW4 1200   3.904   3.846   0.440 -0.2476  0.1827 -0.2347
  301SOL     OW 1201   4.143   4.318   0.521 -0.2596 -0.0521 -0.1359
  301SOL    HW2 1202   4.061   4.366   0.510 -0.7537 -0.6409  0.9156
  301SOL    HW3 1203   4.182   4.354   0.601  0.2319 -0.1603 -0.3256
  301SOL    MW4 1204   4.137   4.329   0.530 -0.2600 -0.1441 -0.0222
  302SOL     OW 1205   0.193   0.066   0.884 -0.3221  0.1723 -0.1620
  302SOL    HW2 1206   0.201  -0.025   0.855  0.4533 -0.0339  0.6839
  302SOL    HW3 1207   0.115   0.099   0.839 -0.7364 -0.9775 -0.2951
  302SOL    MW4 1208   0.184   0.059   0.874 -0.2744 -0.0066 -0.0680
  303SOL     OW 1209   4.457   0.149   0.729  0.0530  0.0601 -0.1772
  303SOL    HW2 1210   4.393   0.095   0.775 -0.9631  0.4597 -1.1137
  303SOL    HW3 1211   4.452   0.234   0.771 -0.1873  0.1527 -0.3927
  303SOL    MW4 1212   4.448   0.153   0.740 -0.1127  0.1250 -0.3292
  304SOL     OW 1213   4.463   0.395   0.870  0.1502  0.2055 -0.0435
  304SOL    HW2 1214   4.469   0.391   0.965  0.2486  0.8836 -0.0185
  304SOL    HW3 1215   4.549   0.427   0.842  0.1591 -0.0987 -0.3647
  304SOL    MW4 1216   4.475   0.399   0.879  0.1643  0.2548 -0.0826
  305SOL     OW 1217   0.227   0.485   0.792 -0.3369  0.0304  0.4879
  305SOL    HW2 1218   0.315   0.456   0.816 -1.1456 -2.6295  0.3999
  305SOL    HW3 1219   0.228   0.580   0.808  3.0612  0.3703 -1.1711
  305SOL    MW4 1220   0.239   0.494   0.798  0.0047 -0.2757  0.2574
  306SOL     OW 1221   0.210   0.743   0.883 -0.0600  0.1853  0.2463
  306SOL    HW2 1222   0.210   0.763   0.977  0.2151  0.4314  0.1922
  306SOL    HW3 1223   0.141   0.798   0.846  0.0894  0.3692  0.2422
  306SOL    MW4 1224   0.201   0.753   0.891 -0.0040  0.2420  0.2386
  307SOL     OW 1225   0.002   0.923   0.801 -0.2330  0.0753  0.4357
  307SOL    HW2 1226  -0.069   0.871   0.838  0.7284 -1.3946  0.2629
  307SOL    HW3 1227  -0.008   0.914   0.706  1.1995 -1.5930  0.4148
  307SOL    MW4 1228  -0.009   0.915   0.793  0.0829 -0.3388  0.4102
  308SOL     OW 1229   4.436   1.189   0.874 -0.3036 -0.3403 -0.3898
  308SOL    HW2 1230   4.452   1.184   0.968  1.1345  0.7105 -0.5534
  308SOL    HW3 1231   4.450   1.100   0.842 -0.6296 -0.6604  0.3666
  308SOL    MW4 1232   4.440   1.176   0.882 -0.1569 -0.2439 -0.3115
  309SOL     OW 1233   0.170   1.305   0.787  0.2108 -0.3408 -0.4826
  309SOL    HW2 1234   0.087   1.262   0.805 -0.1197 -0.3252 -1.9382
  309SOL    HW3 1235   0.188   1.287   0.695  1.2964  0.5536 -0.4650
  309SOL    MW4 1236   0.162   1.297   0.777  0.3104 -0.2207 -0.6723
  310SOL     OW 1237   0.200   1.542   0.931  0.2485  0.4066 -0.3909
  310SOL    HW2 1238   0.276   1.589   0.897  0.3498 -0.2383 -1.0636
  310SOL    HW3 1239   0.199   1.460   0.883  0.3319 -0.4834  1.0813
  310SOL    MW4 1240   0.210   1.537   0.920  0.2728  0.2041 -0.2854
  311SOL     OW 1241   4.476   1.660   0.794 -0.1490  0.2462  0.2329
  311SOL    HW2 1242   4.395   1.628   0.833 -0.7377 -0.0305 -1.1953
  311SOL    HW3 1243   4.544   1.607   0.836 -0.8993 -1.1535 -0.2780
  311SOL    MW4 1244   4.474   1.648   0.805 -0.3257  0.0250 -0.0229
  312SOL     OW 1245   4.469   1.930   0.813 -0.5234  0.0193  0.0253
  312SOL    HW2 1246   4.558   1.966   0.808 -0.8625  0.9147  0.2990
  312SOL    HW3 1247   4.482   1.835   0.817  0.4297  0.1579  0.4579
  312SOL    MW4 1248   4.483   1.922   0.813 -0.4424  0.1558  0.1185
  313SOL     OW 1249   0.223   2.086   0.809  0.3382  0.3992 -0.2222
  313SOL    HW2 1250   0.224   2.179   0.830  2.4127  0.8033 -1.8932
  313SOL    HW3 1251   0.241   2.083   0.715  2.4408 -1.7583  0.2032
  313SOL    MW4 1252   0.225   2.098   0.799  0.8893  0.1678 -0.3865
  314SOL     OW 1253   0.197   2.352   0.874 -0.1363 -0.1666  0.4345
  314SOL    HW2 1254   0.217   2.337   0.966  0.0740  0.0922  0.4296
  314SOL    HW3 1255   0.268   2.406   0.842  0.5410 -1.4293 -0.2362
  314SOL    MW4 1256   0.209   2.357   0.882 -0.0192 -0.2990  0.3454
  315SOL     OW 1257   4.463   2.492   0.769 -0.1088 -0.3563 -0.1760
  315SOL    HW2 1258   4.396   2.442   0.816  1.5396 -0.0670  2.6622
  315SOL    HW3 1259   4.544   2.444   0.787  0.8900  1.0713 -0.8244
  315SOL    MW4 1260   4.465   2.479   0.778  0.2404 -0.1298  0.1129
  316SOL     OW 1261   0.024   2.720   0.924 -0.0536  0.3175  0.4336
  316SOL    HW2 1262   0.011   2.694   1.015 -1.1324 -1.0208 -0.0980
  316SOL    HW3 1263   0.021   2.638   0.874 -1.0929  1.2084 -0.9968
  316SOL    MW4 1264   0.022   2.706   0.929 -0.3330  0.2585  0.1747
  317SOL     OW 1265   0.259   2.810   0.815 -0.4520  0.1487  0.0228
  317SOL    HW2 1266   0.177   2.769   0.843 -0.2353 -0.0209  0.4082
  317SOL    HW3 1267   0.249   2.821   0.720 -0.8158 -0.1043  0.0306
  317SOL    MW4 1268   0.246   2.806   0.806 -0.4714  0.0929  0.0747
  318SOL     OW 1269   0.239   3.081   0.893 -0.0345  0.1618 -0.2970
  318SOL    HW2 1270   0.237   3.081   0.988  0.6027 -1.7377 -0.2479
  318SOL    HW3 1271   0.256   2.989   0.870 -1.7232  0.2907 -2.2599
  318SOL    MW4 1272   0.241   3.069   0.902 -0.1732 -0.0718 -0.5495
  319SOL     OW 1273   0.033   3.211   0.744 -0.1935 -0.0298  0.2318
  319SOL    HW2 1274   0.108   3.165   0.782 -0.6161  0.7939  2.1275
  319SOL    HW3 1275   0.062   3.235   0.656  0.7268 -2.2086 -0.1047
  319SOL    MW4 1276   0.047   3.208   0.737 -0.1278 -0.2086  0.4375
  320SOL     OW 1277   0.014   3.463   0.866  0.2616  0.0369 -0.1701
  320SOL    HW2 1278  -0.076   3.493   0.850  0.0266 -0.1689  0.6934
  320SOL    HW3 1279   0.026   3.390   0.806 -0.6235 -0.7890  0.6179
  320SOL    MW4 1280   0.003   3.457   0.856  0.1138 -0.0992  0.0478
  321SOL     OW 1281   0.242   3.646   0.813  0.0173  0.0366  0.3698
  321SOL    HW2 1282   0.164   3.607   0.854 -0.1925  1.1502  1.0512
  321SOL    HW3 1283   0.218   3.659   0.722  0.0465 -1.3165  0.1639
  321SOL    MW4 1284   0.228   3.642   0.807 -0.0065  0.0050  0.4325
  322SOL     OW 1285   0.253   3.925   0.873  0.0359  0.1561 -0.4189
  322SOL    HW2 1286   0.241   3.910   0.967  0.3884  0.4510 -0.3257
  322SOL    HW3 1287   0.235   3.840   0.832  0.9948 -0.2554  0.0131
  322SOL    MW4 1288   0.249   3.912   0.880  0.2089  0.1407 -0.3496
  323SOL     OW 1289   0.003   4.046   0.796  0.0148 -0.0195 -0.3034
  323SOL    HW2 1290  -0.064   3.991   0.837  0.2107  0.9027  1.2913
  323SOL    HW3 1291   0.085   4.013   0.831  0.1375  1.2358  0.6462
  323SOL    MW4 1292   0.005   4.034   0.806  0.0568  0.2678  0.0323
  324SOL     OW 1293   0.006   4.305   0.895 -0.0052  0.3323 -0.5568
  324SOL    HW2 1294   0.044   4.285   0.980 -0.6954 -0.2243 -0.3676
  324SOL    HW3 1295   0.004   4.221   0.849  1.9399  0.9252 -1.7898
  324SOL    MW4 1296   0.011   4.292   0.900  0.1604  0.3371 -0.6945
  325SOL     OW 1297   0.195   4.475   0.799  0.0307  0.2354  0.1037
  325SOL    HW2 1298   0.124   4.429   0.843 -1.3147  1.4009 -0.8115
  325SOL    HW3 1299   0.166   4.484   0.709  1.2935  0.8142 -0.2564
  325SOL    MW4 1300   0.182   4.470   0.793  0.0198  0.4655 -0.0646
  326SOL     OW 1301   0.673   0.009   0.919  0.4611  0.1244  0.2406
  326SOL    HW2 1302   0.653   0.012   1.012 -0.1970 -0.3747  0.1191
  326SOL    HW3 1303   0.595   0.044   0.876  0.5269 -0.1982 -0.1489
  326SOL    MW4 1304   0.660   0.014   0.926  0.3830  0.0160  0.1732
  327SOL     OW 1305   0.444   0.124   0.799  0.3425 -0.2244  0.0049
  327SOL    HW2 1306   0.353   0.111   0.823  0.2331 -0.7219 -0.6800
  327SOL    HW3 1307   0.448   0.103   0.706  1.2413 -0.6099  0.1263
  327SOL    MW4 1308   0.433   0.120   0.790  0.4466 -0.3409 -0.0694
  328SOL     OW 1309   0.476   0.381   0.900  0.0360  0.0806  0.0324
  328SOL    HW2 1310   0.558   0.411   0.861  0.4786  0.1220  0.9836
  328SOL    HW3 1311   0.461   0.295   0.861  0.4441  0.1466 -0.2717
  328SOL    MW4 1312   0.485   0.373   0.890  0.1482  0.0947  0.1178
  329SOL     OW 1313   0.695   0.519   0.783  0.1404 -0.2073 -0.4990
  329SOL    HW2 1314   0.778   0.473   0.793  0.0843 -0.2738 -0.3281
  329SOL    HW3 1315   0.675   0.514   0.690  1.1742  1.2954 -0.8069
  329SOL    MW4 1316   0.703   0.512   0.772  0.2694 -0.0178 -0.5171
  330SOL     OW 1317   0.628   0.743   0.932  0.3719  0.3513  0.5486
  330SOL    HW2 1318   0.571   0.800   0.880  0.2187  0.5122  0.8927
  330SOL    HW3 1319   0.642   0.666   0.875  1.4192  1.1761 -0.3228
  330SOL    MW4 1320   0.622   0.740   0.917  0.4898  0.4813  0.4790
  331SOL     OW 1321   0.428   0.890   0.805 -0.1913  0.4483 -0.7219
  331SOL    HW2 1322   0.417   0.974   0.849 -0.2925 -0.3106  0.7603
  331SOL    HW3 1323   0.344   0.845   0.819 -0.2779  0.2588 -1.8396
  331SOL    MW4 1324   0.416   0.895   0.813 -0.2161  0.3232 -0.6738
  332SOL     OW 1325   0.396   1.148   0.907 -0.1954 -0.2292 -0.0650
  332SOL    HW2 1326   0.473   1.195   0.877 -1.0435 -0.1725 -2.2333
  332SOL    HW3 1327   0.324   1.186   0.857 -1.3562 -1.5729  0.5622
  332SOL    MW4 1328   0.396   1.159   0.896 -0.4604 -0.3990 -0.2683
  333SOL     OW 1329   0.642   1.274   0.821 -0.2935 -0.2315 -0.1217
  333SOL    HW2 1330   0.636   1.367   0.843 -1.9114  0.0125 -1.4750
  333SOL    HW3 1331   0.646   1.272   0.725 -0.4445 -1.5703 -0.1131
  333SOL    MW4 1332   0.642   1.286   0.811 -0.5269 -0.3759 -0.2991
  334SOL     OW 1333   0.629   1.545   0.894 -0.0884  0.0589  0.0109
  334SOL    HW2 1334   0.635   1.546   0.990 -1.5202 -0.1487  0.1173
  334SOL    HW3 1335   0.550   1.597   0.875 -0.6138 -1.0883 -0.9834
  334SOL    MW4 1336   0.619   1.552   0.904 -0.3466 -0.1199 -0.1063
  335SOL     OW 1337   0.415   1.706   0.833  0.4259  0.0517 -0.6947
  335SOL    HW2 1338   0.454   1.789   0.859  0.0444  0.0488 -0.0975
  335SOL    HW3 1339   0.441   1.694   0.742  1.6081  0.1641 -0.3739
  335SOL    MW4 1340   0.423   1.715   0.824  0.5316  0.0661 -0.5736
  336SOL     OW 1341   0.467   1.966   0.894 -0.3100  0.1768  0.1025
  336SOL    HW2 1342   0.456   1.954   0.989  2.6504  2.9878  0.9021
  336SOL    HW3 1343   0.390   2.017   0.868 -1.9477 -1.9379  0.6549
  336SOL    MW4 1344   0.455   1.971   0.903 -0.1355  0.2687  0.2809
  337SOL     OW 1345   0.671   2.088   0.756 -0.3477  0.5031 -0.3671
  337SOL    HW2 1346   0.600   2.028   0.781  1.5991 -2.0467 -0.7091
  337SOL    HW3 1347   0.690   2.064   0.665  2.4232 -0.4019  0.4067
  337SOL    MW4 1348   0.664   2.077   0.747  0.2747  0.0473 -0.3101
  338SOL     OW 1349   0.680   2.331   0.887  0.2693  0.2704  0.3105
  338SOL    HW2 1350   0.684   2.333   0.983 -0.0259  0.9687  0.3090
  338SOL    HW3 1351   0.684   2.237   0.866  1.0430  0.1429  0.9659
  338SOL    MW4 1352   0.681   2.319   0.897  0.3324  0.3457  0.3967
  339SOL     OW 1353   0.444   2.470   0.831  0.5544  0.3374 -0.0262
  339SOL    HW2 1354   0.521   2.418   0.854  0.2505 -1.0278 -2.0261
  339SOL    HW3 1355   0.444   2.473   0.736 -1.0094  1.6529 -0.0056
  339SOL    MW4 1356   0.454   2.464   0.822  0.3080  0.3309 -0.2874
  340SOL     OW 1357   0.518   2.730   0.893 -0.3674 -0.2215  0.0110
  340SOL    HW2 1358   0.514   2.639   0.862 -0.8497 -0.2125  0.0288
  340SOL    HW3 1359   0.430   2.765   0.874  0.3267  0.7331 -1.5007
  340SOL    MW4 1360   0.506   2.722   0.886 -0.3394 -0.0944 -0.1861
  341SOL     OW 1361   0.699   2.846   0.724 -0.4000 -0.1271  0.0434
  341SOL    HW2 1362   0.789   2.822   0.749 -0.5341  0.6288  1.2859
  341SOL    HW3 1363   0.645   2.814   0.796 -1.0342  0.2099 -0.2801
  341SOL    MW4 1364   0.704   2.838   0.737 -0.5013  0.0171  0.1647
  342SOL     OW 1365   0.704   3.109   0.822 -0.2007  0.1524  0.0473
  342SOL    HW2 1366   0.624   3.146   0.785 -1.1162 -0.6435  1.1754
  342SOL    HW3 1367   0.711   3.023   0.782  0.1625  0.2725 -0.1472
  342SOL    MW4 1368   0.694   3.103   0.812 -0.2735  0.0632  0.1705
  343SOL     OW 1369   0.409   3.223   0.714  0.1291 -0.5365  0.1368
  343SOL    HW2 1370   0.433   3.309   0.750  0.2374 -0.5248  0.0371
  343SOL    HW3 1371   0.352   3.185   0.780  1.7417 -1.2511  1.1600
  343SOL    MW4 1372   0.405   3.229   0.728  0.3561 -0.6292  0.2587
  344SOL     OW 1373   0.467   3.478   0.847  0.1870  0.5200 -0.1614
  344SOL    HW2 1374   0.475   3.474   0.943  0.6771  1.1770 -0.1687
  344SOL    HW3 1375   0.402   3.547   0.832 -2.5704 -2.0223 -0.2146
  344SOL    MW4 1376   0.459   3.487   0.858 -0.1121  0.2713 -0.1694
  345SOL     OW 1377   0.699   3.600   0.769  0.0084  0.6033  0.5625
  345SOL    HW2 1378   0.618   3.552   0.789  0.9103 -0.3797  2.0079
  345SOL    HW3 1379   0.679   3.691   0.791 -0.0413  0.0342  3.1251
  345SOL    MW4 1380   0.686   3.605   0.775  0.1208  0.3985  1.0913
  346SOL     OW 1381   0.665   3.876   0.881  0.2226  0.0980  0.4246
  346SOL    HW2 1382   0.740   3.907   0.829  1.0345 -3.3077 -0.5369
  346SOL    HW3 1383   0.595   3.937   0.859  1.6477  1.0667 -1.6655
  346SOL    MW4 1384   0.666   3.888   0.871  0.5178 -0.2235  0.0219
  347SOL     OW 1385   0.477   4.068   0.789  0.6469 -0.2394  0.6058
  347SOL    HW2 1386   0.463   4.154   0.827  1.7965 -0.2975  1.1984
  347SOL    HW3 1387   0.402   4.016   0.818  0.0612  0.4992  0.4195
  347SOL    MW4 1388   0.465   4.072   0.798  0.7213 -0.1496  0.6594
  348SOL     OW 1389   0.478   4.334   0.907 -0.0426  0.0047 -0.5514
  348SOL    HW2 1390   0.459   4.334   1.001  0.2090 -0.8299 -0.4976
  348SOL    HW3 1391   0.406   4.384   0.869 -0.3859 -0.0214  0.0471
  348SOL    MW4 1392   0.466   4.340   0.915 -0.0547 -0.1088 -0.4654
  349SOL     OW 1393   0.743   4.413   0.856  0.3561  0.1328 -0.2185
  349SOL    HW2 1394   0.656   4.374   0.866 -0.0604  0.6760 -1.5943
  349SOL    HW3 1395   0.730   4.506   0.874  0.2712  0.5270 -2.2522
  349SOL    MW4 1396   0.729   4.420   0.860  0.2900  0.2565 -0.6683
  350SOL     OW 1397   1.091   0.053   0.924 -0.1477 -0.2026  0.3836
  350SOL    HW2 1398   1.177   0.072   0.886  0.2994 -2.4602  0.1886
  350SOL    HW3 1399   1.030   0.104   0.872  0.9535  0.5072 -0.2379
  350SOL    MW4 1400   1.094   0.062   0.912  0.0566 -0.4068  0.2759
  351SOL     OW 1401   0.846   0.154   0.760  0.4443  0.1273 -0.0385
  351SOL    HW2 1402   0.870   0.238   0.799 -0.2124  0.5074 -0.4568
  351SOL    HW3 1403   0.798   0.109   0.830  1.7314 -0.3416  0.5523
  351SOL    MW4 1404   0.843   0.159   0.775  0.5275  0.1156 -0.0158
  352SOL     OW 1405   0.916   0.388   0.888 -0.2423 -0.1341  0.6683
  352SOL    HW2 1406   0.902   0.370   0.981 -0.7602 -0.2771  0.5652
  352SOL    HW3 1407   0.991   0.447   0.886 -1.5762  1.6102  1.3005
  352SOL    MW4 1408   0.924   0.393   0.900 -0.4866  0.0772  0.7381
  353SOL     OW 1409   1.137   0.541   0.828 -0.5522  0.2992  0.3797
  353SOL    HW2 1410   1.207   0.483   0.860  0.0575  0.8161  0.0035
  353SOL    HW3 1411   1.127   0.517   0.735  0.2591  1.3280  0.0103
  353SOL    MW4 1412   1.145   0.530   0.820 -0.3647  0.5031  0.2814
  354SOL     OW 1413   1.145   0.805   0.888 -0.0160  0.0120  0.0988
  354SOL    HW2 1414   1.151   0.795   0.983 -1.2087 -2.5234 -0.0393
  354SOL    HW3 1415   1.118   0.719   0.857  2.0265  0.3182 -2.7329
  354SOL    MW4 1416   1.142   0.793   0.897  0.0962 -0.2821 -0.2930
  355SOL     OW 1417   0.890   0.916   0.864  0.0278 -0.4595 -0.0074
  355SOL    HW2 1418   0.973   0.871   0.874 -0.1736 -0.8114  0.0974
  355SOL    HW3 1419   0.824   0.849   0.884 -0.2478  0.0924  0.9955
  355SOL    MW4 1420   0.892   0.901   0.868 -0.0351 -0.4331  0.1387
  356SOL     OW 1421   0.869   1.163   0.932  0.1569 -0.6417  0.1110
  356SOL    HW2 1422   0.860   1.069   0.912  0.4771 -0.2695 -1.8236
  356SOL    HW3 1423   0.786   1.201   0.903  0.9306  0.0273 -1.2462
  356SOL    MW4 1424   0.857   1.155   0.925  0.3012 -0.5044 -0.3233
  357SOL     OW 1425   1.120   1.232   0.821  0.1163 -0.1786  0.2584
  357SOL    HW2 1426   1.037   1.219   0.869  0.9842 -0.7178  1.6628
  357SOL    HW3 1427   1.099   1.208   0.731 -1.3294 -0.0626  0.5394
  357SOL    MW4 1428   1.106   1.227   0.816  0.0401 -0.2344  0.4808
  358SOL     OW 1429   1.132   1.507   0.869  0.2331 -0.0349  0.1693
  358SOL    HW2 1430   1.049   1.539   0.834  0.2634 -0.4085 -0.2411
  358SOL    HW3 1431   1.133   1.414   0.848 -0.3862 -0.5724  2.4077
  358SOL    MW4 1432   1.122   1.499   0.862  0.1554 -0.1551  0.4105
  359SOL     OW 1433   0.889   1.664   0.778 -0.0499 -0.1845  0.0451
  359SOL    HW2 1434   0.892   1.755   0.808 -1.1249 -0.0696 -0.1835
  359SOL    HW3 1435   0.812   1.628   0.821  0.4617 -1.0406  0.2593
  359SOL    MW4 1436   0.879   1.672   0.788 -0.1242 -0.2823  0.0432
  360SOL     OW 1437   0.874   1.930   0.861 -0.3258 -0.3970 -0.2775
  360SOL    HW2 1438   0.902   1.961   0.947  1.9298  0.7027 -1.3637
  360SOL    HW3 1439   0.814   1.998   0.830 -0.1572 -0.1625 -0.0961
  360SOL    MW4 1440   0.870   1.943   0.868 -0.0059 -0.2209 -0.3969
  361SOL     OW 1441   1.117   2.070   0.780 -0.0391 -0.1058  0.1558
  361SOL    HW2 1442   1.119   2.159   0.815 -0.0983  0.1842 -0.5726
  361SOL    HW3 1443   1.031   2.036   0.805 -0.0674  0.0897  0.3225
  361SOL    MW4 1444   1.106   2.078   0.788 -0.0506 -0.0417  0.0817
  362SOL     OW 1445   1.156   2.334   0.867 -0.4635 -0.2464 -0.2493
  362SOL    HW2 1446   1.167   2.338   0.962 -1.4966  0.2961 -0.1405
  362SOL    HW3 1447   1.232   2.381   0.833 -0.1164 -0.3925  0.3083
  362SOL    MW4 1448   1.168   2.341   0.875 -0.5540 -0.1941 -0.1614
  363SOL     OW 1449   0.913   2.429   0.761  0.2457 -0.4348  0.2246
  363SOL    HW2 1450   0.998   2.399   0.794  1.1532  1.1647 -0.6016
  363SOL    HW3 1451   0.849   2.393   0.822  1.4444 -2.3625  0.3858
  363SOL    MW4 1452   0.916   2.420   0.773  0.5236 -0.4781  0.1368
  364SOL     OW 1453   0.932   2.707   0.831  0.0899  0.1718  0.1110
  364SOL    HW2 1454   0.916   2.708   0.926  2.8953  0.4170  0.6128
  364SOL    HW3 1455   0.923   2.614   0.807  1.2568 -0.1700  0.9653
  364SOL    MW4 1456   0.929   2.695   0.841  0.6140  0.1590  0.2899
  365SOL     OW 1457   1.172   2.833   0.761 -0.4466  0.1890  0.0247
  365SOL    HW2 1458   1.100   2.791   0.808 -0.0415 -0.5310 -0.0037
  365SOL    HW3 1459   1.170   2.793   0.674 -1.1758  1.4896 -0.5879
  365SOL    MW4 1460   1.162   2.822   0.756 -0.4894  0.2656 -0.0599
  366SOL     OW 1461   1.175   3.086   0.880 -0.0692  0.1518  0.4027
  366SOL    HW2 1462   1.095   3.125   0.846  1.2442  1.7507 -0.9055
  366SOL    HW3 1463   1.172   2.995   0.850 -1.5739  0.1094  0.6811
  366SOL    MW4 1464   1.164   3.079   0.871 -0.0944  0.3571  0.2668
  367SOL     OW 1465   0.959   3.215   0.776 -0.5404  0.0667  0.4244
  367SOL    HW2 1466   0.943   3.299   0.818 -0.7108 -0.1507  0.7917
  367SOL    HW3 1467   0.873   3.173   0.772 -0.3416 -0.3913  0.8811
  367SOL    MW4 1468   0.946   3.220   0.781 -0.5367 -0.0224  0.5331
  368SOL     OW 1469   0.892   3.458   0.902 -0.3873  0.0919  0.2161
  368SOL    HW2 1470   0.968   3.510   0.874  0.7519 -1.9162 -0.5752
  368SOL    HW3 1471   0.816   3.507   0.871  0.7215  0.2141 -2.5227
  368SOL    MW4 1472   0.892   3.471   0.894 -0.0907 -0.1570 -0.2497
  369SOL     OW 1473   1.111   3.594   0.778  0.2731 -0.1910  0.3425
  369SOL    HW2 1474   1.201   3.568   0.795  0.4950  0.6398  0.4493
  369SOL    HW3 1475   1.106   3.603   0.682  0.5068  0.4864  0.3916
  369SOL    MW4 1476   1.122   3.592   0.767  0.3332  0.0080  0.3631
  370SOL     OW 1477   1.104   3.859   0.835 -0.0515 -0.3801  0.6114
  370SOL    HW2 1478   1.135   3.863   0.925 -0.9341 -2.2665  1.0090
  370SOL    HW3 1479   1.109   3.766   0.811 -1.0493 -0.0857 -0.8418
  370SOL    MW4 1480   1.109   3.847   0.843 -0.2996 -0.5901  0.4721
  371SOL     OW 1481   0.888   3.975   0.742 -0.1039 -0.4622 -0.2097
  371SOL    HW2 1482   0.899   4.070   0.753  0.5888 -0.4508 -0.9786
  371SOL    HW3 1483   0.975   3.939   0.757 -0.2371 -0.9275 -0.5401
  371SOL    MW4 1484   0.901   3.983   0.746 -0.0301 -0.5221 -0.3547
  372SOL     OW 1485   0.927   4.255   0.736  0.3797  0.3809 -0.5211
  372SOL    HW2 1486   1.005   4.308   0.752  1.0009 -0.6430 -0.0852
  372SOL    HW3 1487   0.860   4.294   0.792  0.7095  0.9766 -0.5386
  372SOL    MW4 1488   0.928   4.267   0.746  0.5052  0.3244 -0.4659
  373SOL     OW 1489   1.122   4.439   0.781  0.3716 -0.0866 -0.2922
  373SOL    HW2 1490   1.208   4.406   0.808 -0.1950 -0.9001  0.5570
  373SOL    HW3 1491   1.090   4.486   0.858  0.6341  1.3841 -1.0772
  373SOL    MW4 1492   1.129   4.441   0.795  0.3315  0.0001 -0.2838
  374SOL     OW 1493   1.607   0.028   0.910  0.5758  0.1607 -0.0411
  374SOL    HW2 1494   1.593   0.019   1.004  0.5028  3.2415  0.2884
  374SOL    HW3 1495   1.521   0.052   0.875  0.7193 -0.4483 -0.8260
  374SOL    MW4 1496   1.594   0.030   0.918  0.5851  0.4868 -0.1012
  375SOL     OW 1497   1.359   0.114   0.802  0.1064 -0.0943  0.0766
  375SOL    HW2 1498   1.355   0.207   0.821  0.3484 -0.1160  0.2377
  375SOL    HW3 1499   1.391   0.109   0.712  1.2045 -0.0497  0.4568
  375SOL    MW4 1500   1.363   0.125   0.793  0.2832 -0.0913  0.1480
  376SOL     OW 1501   1.373   0.390   0.875 -0.1485  0.0091 -0.2393
  376SOL    HW2 1502   1.387   0.367   0.967  1.1911  1.3808 -0.0688
  376SOL    HW3 1503   1.454   0.435   0.850 -1.1047  0.9700 -1.6519
  376SOL    MW4 1504   1.386   0.393   0.884 -0.0979  0.3168 -0.4031
  377SOL     OW 1505   1.613   0.520   0.809  0.4701  0.0962 -0.5741
  377SOL    HW2 1506   1.613   0.607   0.848  0.1588 -0.1268 -0.0661
  377SOL    HW3 1507   1.689   0.476   0.849 -0.2023 -0.3331  0.2415
  377SOL    MW4 1508   1.623   0.526   0.820  0.3403  0.0101 -0.3995
  378SOL     OW 1509   1.566   0.772   0.921  0.1414 -0.1273 -0.4574
  378SOL    HW2 1510   1.635   0.834   0.899  0.2263 -0.0446  0.0297
  378SOL    HW3 1511   1.493   0.796   0.863  0.2771  0.2396 -0.4797
  378SOL    MW4 1512   1.565   0.784   0.911  0.1705 -0.0680 -0.3961
  379SOL     OW 1513   1.371   0.919   0.778 -0.1990  0.2580  0.0573
  379SOL    HW2 1514   1.385   1.001   0.824 -0.6788  0.2357  0.2451
  379SOL    HW3 1515   1.292   0.882   0.818  1.1060 -1.2455  1.3683
  379SOL    MW4 1516   1.363   0.925   0.789 -0.0901  0.0567  0.2550
  380SOL     OW 1517   1.363   1.153   0.923 -0.0705  0.4862 -0.2385
  380SOL    HW2 1518   1.432   1.205   0.883  0.0972  1.0109  0.7209
  380SOL    HW3 1519   1.283   1.181   0.878  0.2898  0.1361 -1.1012
  380SOL    MW4 1520   1.361   1.164   0.912 -0.0008  0.5092 -0.2258
  381SOL     OW 1521   1.558   1.305   0.802 -0.6624  0.1186 -0.3353
  381SOL    HW2 1522   1.564   1.392   0.841  0.8173 -0.4682  0.8028
  381SOL    HW3 1523   1.564   1.320   0.708 -1.5897  1.3333 -0.2109
  381SOL    MW4 1524   1.559   1.318   0.795 -0.5895  0.2015 -0.1687
  382SOL     OW 1525   1.576   1.555   0.903  0.1095 -0.4853 -0.0559
  382SOL    HW2 1526   1.565   1.563   0.998  0.5278 -0.0220 -0.0446
  382SOL    HW3 1527   1.491   1.581   0.867  0.7528  1.9683  0.0869
  382SOL    MW4 1528   1.563   1.559   0.911  0.2495 -0.1005 -0.0356
  383SOL     OW 1529   1.351   1.654   0.797 -0.3248 -0.0475 -0.8280
  383SOL    HW2 1530   1.337   1.746   0.819 -0.5096 -0.5560  1.2847
  383SOL    HW3 1531   1.273   1.609   0.828  1.2182 -1.3741  1.2862
  383SOL    MW4 1532   1.339   1.660   0.804 -0.1456 -0.2896 -0.2703
  384SOL     OW 1533   1.308   1.912   0.884 -0.1329 -0.1075  0.1552
  384SOL    HW2 1534   1.315   1.930   0.978  0.5294  0.3883  0.0158
  384SOL    HW3 1535   1.236   1.968   0.854  0.1006  0.2360  0.2391
  384SOL    MW4 1536   1.299   1.922   0.892 -0.0147  0.0032  0.1479
  385SOL     OW 1537   1.534   2.033   0.737  0.7210  0.1820 -0.3010
  385SOL    HW2 1538   1.450   1.989   0.750 -0.1337  2.1822  1.1763
  385SOL    HW3 1539   1.542   2.042   0.642 -0.2232 -0.9777 -0.4998
  385SOL    MW4 1540   1.524   2.028   0.726  0.4837  0.2929 -0.1323
  386SOL     OW 1541   1.567   2.312   0.841  0.6161 -0.2268 -0.4983
  386SOL    HW2 1542   1.508   2.372   0.795 -0.8858 -0.1686  1.4453
  386SOL    HW3 1543   1.541   2.225   0.812  1.1069 -0.0901 -1.3762
  386SOL    MW4 1544   1.556   2.309   0.831  0.4827 -0.2011 -0.3577
  387SOL     OW 1545   1.373   2.473   0.731 -0.0841  0.1969  0.5642
  387SOL    HW2 1546   1.396   2.547   0.786 -1.7939  0.6265  0.7389
  387SOL    HW3 1547   1.375   2.508   0.642 -0.8484  0.4418  0.6431
  387SOL    MW4 1548   1.376   2.487   0.726 -0.4105  0.2859  0.5977
  388SOL     OW 1549   1.384   2.715   0.865 -0.0409 -0.2780  0.3644
  388SOL    HW2 1550   1.365   2.712   0.959 -0.3369 -0.2592  0.3073
  388SOL    HW3 1551   1.310   2.762   0.827  1.4155  2.1414  0.4419
  388SOL    MW4 1552   1.371   2.721   0.873  0.1122  0.0437  0.3671
  389SOL     OW 1553   1.605   2.809   0.739 -0.2124  0.0222  0.8784
  389SOL    HW2 1554   1.628   2.874   0.805  0.9487 -0.6948  1.2059
  389SOL    HW3 1555   1.517   2.780   0.763 -0.6068  1.2389  0.9064
  389SOL    MW4 1556   1.597   2.813   0.751 -0.1112  0.0881  0.9253
  390SOL     OW 1557   1.597   3.064   0.882  0.0796 -0.2982 -0.2524
  390SOL    HW2 1558   1.584   3.068   0.977 -1.2392 -0.9975 -0.3998
  390SOL    HW3 1559   1.540   3.132   0.847  1.3863  0.7152 -0.4945
  390SOL    MW4 1560   1.588   3.074   0.890  0.0780 -0.2568 -0.3038
  391SOL     OW 1561   1.396   3.230   0.783  0.2630  0.3007 -0.0784
  391SOL    HW2 1562   1.325   3.179   0.821 -0.0387  0.3205 -0.6213
  391SOL    HW3 1563   1.362   3.262   0.700  1.1869 -0.3646 -0.7334
  391SOL    MW4 1564   1.382   3.228   0.777  0.3451  0.2155 -0.2365
  392SOL     OW 1565   1.373   3.500   0.873 -0.1957  0.1102  0.2417
  392SOL    HW2 1566   1.457   3.533   0.842 -0.4102  1.5127  1.0756
  392SOL    HW3 1567   1.373   3.408   0.849  1.9751 -0.1303  1.0296
  392SOL    MW4 1568   1.384   3.492   0.866  0.0624  0.2635  0.4557
  393SOL     OW 1569   1.622   3.597   0.776 -0.4503 -0.2088  0.4520
  393SOL    HW2 1570   1.692   3.540   0.805 -1.0602 -1.5756 -0.7257
  393SOL    HW3 1571   1.622   3.589   0.681 -0.4472  1.8792  0.2386
  393SOL    MW4 1572   1.631   3.589   0.767 -0.5303 -0.1137  0.2685
  394SOL     OW 1573   1.590   3.859   0.868 -0.1345  0.2618 -0.1063
  394SOL    HW2 1574   1.510   3.871   0.817 -0.1523 -1.7270 -0.5860
  394SOL    HW3 1575   1.616   3.769   0.851  1.6448  0.5663  0.8737
  394SOL    MW4 1576   1.583   3.849   0.859  0.0979  0.0396 -0.0403
  395SOL     OW 1577   1.362   3.922   0.708  0.0717 -0.0850 -0.0386
  395SOL    HW2 1578   1.277   3.904   0.749  0.3062  0.7736  0.8484
  395SOL    HW3 1579   1.360   4.016   0.689  1.0664  0.0676  0.5727
  395SOL    MW4 1580   1.350   3.932   0.711  0.2339  0.0484  0.1591
  396SOL     OW 1581   1.403   4.361   0.842 -0.3397  0.0663 -0.4882
  396SOL    HW2 1582   1.491   4.387   0.816 -0.2143  1.2051  1.0066
  396SOL    HW3 1583   1.379   4.291   0.780  1.2278  0.3906 -1.4893
  396SOL    MW4 1584   1.411   4.355   0.830 -0.1163  0.2593 -0.4230
  397SOL     OW 1585   1.650   4.473   0.740 -0.1241  0.2343  0.2458
  397SOL    HW2 1586   1.721   4.410   0.752  0.4867  0.5867 -1.3656
  397SOL    HW3 1587   1.651   4.527   0.820  0.4425 -0.7150  0.8802
  397SOL    MW4 1588   1.659   4.472   0.752  0.0313  0.1555  0.1169
  398SOL     OW 1589   2.028   0.012   0.890  0.3987 -0.1638  0.1826
  398SOL    HW2 1590   2.099   0.060   0.850 -0.4722  0.4987 -0.5895
  398SOL    HW3 1591   2.028  -0.073   0.846  0.2859  0.0785 -0.2839
  398SOL    MW4 1592   2.037   0.007   0.879  0.2689 -0.0444  0.0192
  399SOL     OW 1593   1.819   0.147   0.783 -0.0151 -0.0655 -0.0538
  399SOL    HW2 1594   1.893   0.095   0.815  0.3896  1.6456  1.9265
  399SOL    HW3 1595   1.742   0.100   0.816  0.2110 -1.2384 -1.1596
  399SOL    MW4 1596   1.819   0.134   0.792  0.0681  0.0055  0.0616
  400SOL     OW 1597   1.833   0.395   0.908 -0.1722 -0.1916 -0.0930
  400SOL    HW2 1598   1.829   0.307   0.870  0.6430 -0.5695  0.6857
  400SOL    HW3 1599   1.912   0.434   0.871  0.2857 -0.3368  0.7143
  400SOL    MW4 1600   1.843   0.388   0.898 -0.0042 -0.2606  0.1162
  401SOL     OW 1601   2.025   0.544   0.776 -0.2544 -0.0129  0.1346
  401SOL    HW2 1602   2.102   0.505   0.818  0.4677 -0.1349 -1.2498
  401SOL    HW3 1603   2.037   0.525   0.683 -1.9996 -0.0690 -0.0928
  401SOL    MW4 1604   2.037   0.537   0.769 -0.3894 -0.0364 -0.0781
  402SOL     OW 1605   2.008   0.806   0.880 -0.1731  0.4306 -0.2783
  402SOL    HW2 1606   2.090   0.841   0.843  0.1555 -0.1115 -0.0633
  402SOL    HW3 1607   2.003   0.717   0.846 -0.7800  0.5318 -0.4507
  402SOL    MW4 1608   2.018   0.799   0.871 -0.2098  0.3724 -0.2727
  403SOL     OW 1609   1.772   0.923   0.826 -0.2355  0.1156  0.0480
  403SOL    HW2 1610   1.769   1.013   0.858  0.9763  0.7902 -1.6584
  403SOL    HW3 1611   1.860   0.892   0.850 -0.3092 -0.2950 -0.1992
  403SOL    MW4 1612   1.783   0.930   0.833 -0.0853  0.1504 -0.2098
  404SOL     OW 1613   1.772   1.182   0.924  0.2896  0.1454 -0.1360
  404SOL    HW2 1614   1.854   1.226   0.904  0.9942 -1.3792 -0.7124
  404SOL    HW3 1615   1.705   1.231   0.875  0.8830  1.2066  0.1004
  404SOL    MW4 1616   1.774   1.194   0.915  0.4608  0.0842 -0.1809
  405SOL     OW 1617   2.034   1.301   0.863  0.3564 -0.2756  0.4115
  405SOL    HW2 1618   2.119   1.255   0.859  0.3594 -0.2256 -0.2292
  405SOL    HW3 1619   2.002   1.297   0.773 -0.4418 -0.5078  0.7089
  405SOL    MW4 1620   2.041   1.294   0.850  0.2515 -0.2996  0.3662
  406SOL     OW 1621   2.018   1.573   0.940 -0.8835  0.0677 -0.5505
  406SOL    HW2 1622   2.091   1.605   0.886  0.5752  0.8068  1.7691
  406SOL    HW3 1623   2.013   1.479   0.922  0.4587  0.0730 -0.9633
  406SOL    MW4 1624   2.027   1.565   0.931 -0.5140  0.1659 -0.2989
  407SOL     OW 1625   1.808   1.700   0.824 -0.0100 -0.1699 -0.2331
  407SOL    HW2 1626   1.878   1.658   0.873 -0.1762  2.2840  2.2308
  407SOL    HW3 1627   1.729   1.651   0.847  0.2130 -0.1826  0.4991
  407SOL    MW4 1628   1.807   1.688   0.833 -0.0025  0.1522  0.1886
  408SOL     OW 1629   1.766   1.983   0.874 -0.1992 -0.1250  0.6239
  408SOL    HW2 1630   1.766   1.888   0.866  0.1406 -0.1910  1.3704
  408SOL    HW3 1631   1.675   2.008   0.859 -0.1125 -0.4774 -0.5439
  408SOL    MW4 1632   1.754   1.974   0.871 -0.1429 -0.1802  0.5683
  409SOL     OW 1633   1.986   2.041   0.744 -0.5528  0.3048 -0.5455
  409SOL    HW2 1634   2.002   2.132   0.771 -0.8535  0.5308 -1.1078
  409SOL    HW3 1635   1.902   2.018   0.785  0.3999 -0.3315  1.0733
  409SOL    MW4 1636   1.977   2.050   0.753 -0.4668  0.2507 -0.4061
  410SOL     OW 1637   2.052   2.296   0.791  0.4448  0.0300  0.0958
  410SOL    HW2 1638   2.056   2.314   0.885  0.2540  0.1881  0.0741
  410SOL    HW3 1639   1.975   2.345   0.761  0.8888  0.5209 -0.2617
  410SOL    MW4 1640   2.042   2.305   0.800  0.4782  0.1156  0.0457
  411SOL     OW 1641   1.823   2.424   0.709 -0.3516  0.0105 -0.2252
  411SOL    HW2 1642   1.745   2.374   0.735 -0.2807 -1.4545 -2.5897
  411SOL    HW3 1643   1.808   2.443   0.616  0.8907  2.0671 -0.0220
  411SOL    MW4 1644   1.811   2.420   0.700 -0.1783  0.0885 -0.5103
  412SOL     OW 1645   1.814   2.670   0.839  0.1185  0.5859 -0.1604
  412SOL    HW2 1646   1.812   2.585   0.796 -0.6345  0.3694  0.2936
  412SOL    HW3 1647   1.742   2.719   0.799 -0.6950  0.3243  0.9618
  412SOL    MW4 1648   1.804   2.666   0.829 -0.0882  0.5228  0.0476
  413SOL     OW 1649   2.050   2.800   0.760  0.0697 -0.1995  0.2915
  413SOL    HW2 1650   2.126   2.762   0.804  0.1122  0.0466  0.4283
  413SOL    HW3 1651   1.976   2.746   0.789  0.2552 -0.7194 -0.1945
  413SOL    MW4 1652   2.050   2.788   0.770  0.0998 -0.2356  0.2454
  414SOL     OW 1653   2.062   3.080   0.822  0.0774 -0.2865 -0.6009
  414SOL    HW2 1654   1.977   3.101   0.783  0.1743  1.7344  0.1925
  414SOL    HW3 1655   2.066   2.985   0.821 -1.5180 -0.3680 -2.0932
  414SOL    MW4 1656   2.051   3.070   0.816 -0.1203 -0.0306 -0.6931
  415SOL     OW 1657   1.807   3.160   0.718  0.4204 -0.0920 -0.6872
  415SOL    HW2 1658   1.731   3.128   0.767  0.8856  0.2215  0.2699
  415SOL    HW3 1659   1.776   3.171   0.629 -0.7916  0.4769 -0.2105
  415SOL    MW4 1660   1.793   3.158   0.713  0.3218  0.0244 -0.4980
  416SOL     OW 1661   1.816   3.415   0.850 -0.2041 -0.2706 -0.5395
  416SOL    HW2 1662   1.800   3.399   0.943 -0.4739 -1.4210 -0.7819
  416SOL    HW3 1663   1.814   3.329   0.810  0.5383  0.1661 -1.5264
  416SOL    MW4 1664   1.813   3.402   0.857 -0.1418 -0.3648 -0.7017
  417SOL     OW 1665   2.006   3.604   0.743 -0.0042 -0.3135 -0.1187
  417SOL    HW2 1666   2.012   3.679   0.803  1.4937 -0.7058  0.2467
  417SOL    HW3 1667   1.933   3.552   0.777  0.4493 -0.2216  1.0189
  417SOL    MW4 1668   1.997   3.607   0.756  0.2533 -0.3531  0.0796
  418SOL     OW 1669   1.998   3.845   0.863  0.5382  0.4078 -0.2466
  418SOL    HW2 1670   1.997   3.861   0.958  0.2424  0.2346 -0.2216
  418SOL    HW3 1671   1.930   3.902   0.828  0.3311  0.1225 -0.3034
  418SOL    MW4 1672   1.989   3.855   0.871  0.4718  0.3473 -0.2508
  419SOL     OW 1673   1.792   4.012   0.753  0.2985  0.4529  0.2062
  419SOL    HW2 1674   1.721   3.961   0.793 -0.1096  2.0721  1.5982
  419SOL    HW3 1675   1.784   3.994   0.659 -1.2403 -0.2739  0.4619
  419SOL    MW4 1676   1.781   4.002   0.746  0.0416  0.5707  0.4236
  420SOL     OW 1677   1.819   4.269   0.833  0.4079 -0.2270  0.0163
  420SOL    HW2 1678   1.807   4.263   0.928  0.6489 -0.5944  0.0256
  420SOL    HW3 1679   1.807   4.179   0.803  0.0259 -0.0580 -0.3374
  420SOL    MW4 1680   1.816   4.256   0.842  0.3893 -0.2532 -0.0292
  421SOL     OW 1681   2.033   4.429   0.768 -0.1234  0.1513 -0.2988
  421SOL    HW2 1682   1.968   4.360   0.769 -2.1294  2.0035  0.9813
  421SOL    HW3 1683   2.042   4.453   0.676  0.0380 -1.2851 -0.6605
  421SOL    MW4 1684   2.026   4.423   0.756 -0.3668  0.2062 -0.1776
  422SOL     OW 1685   2.442   4.626   0.893  0.3900  0.1288 -0.3359
  422SOL    HW2 1686   2.439   4.642   0.987 -0.8414  0.0993 -0.3529
  422SOL    HW3 1687   2.448   4.531   0.884  1.5946  0.2005 -0.2792
  422SOL    MW4 1688   2.442   4.616   0.904  0.3865  0.1344 -0.3307
  423SOL     OW 1689   2.243   0.147   0.802  0.4113  0.0321  0.0390
  423SOL    HW2 1690   2.302   0.073   0.815  0.2533 -0.2075 -0.5635
  423SOL    HW3 1691   2.255   0.171   0.710  1.8407  1.9640  0.6949
  423SOL    MW4 1692   2.252   0.140   0.791  0.5790  0.2554  0.0460
  424SOL     OW 1693   2.235   0.415   0.915 -0.2830  0.3406 -0.0047
  424SOL    HW2 1694   2.318   0.459   0.898 -0.0009 -0.5469 -1.0346
  424SOL    HW3 1695   2.250   0.325   0.886 -1.4746  0.0680  0.2025
  424SOL    MW4 1696   2.248   0.409   0.909 -0.4030  0.1875 -0.1133
  425SOL     OW 1697   2.489   0.495   0.828 -0.3457 -0.2838 -0.3781
  425SOL    HW2 1698   2.559   0.449   0.876  0.0014  0.2808 -0.3371
  425SOL    HW3 1699   2.487   0.452   0.742  0.4994  0.1251 -0.6101
  425SOL    MW4 1700   2.498   0.483   0.823 -0.1884 -0.1553 -0.4033
  426SOL     OW 1701   2.475   0.776   0.852  0.1109  0.3224  0.5393
  426SOL    HW2 1702   2.555   0.815   0.817  0.0783  0.4106  0.5613
  426SOL    HW3 1703   2.480   0.684   0.829  0.1910  0.3396  0.4892
  426SOL    MW4 1704   2.486   0.769   0.844  0.1171  0.3363  0.5356
  427SOL     OW 1705   2.226   0.892   0.714 -0.2064  0.0783 -0.5322
  427SOL    HW2 1706   2.314   0.862   0.735  0.0405  1.7894  0.9814
  427SOL    HW3 1707   2.224   0.894   0.618  1.5523  0.4288 -0.5836
  427SOL    MW4 1708   2.237   0.889   0.704  0.0582  0.3503 -0.3393
  428SOL     OW 1709   2.267   1.137   0.848 -0.0327 -0.0177 -0.0786
  428SOL    HW2 1710   2.294   1.113   0.937 -0.0933 -0.8616 -0.2781
  428SOL    HW3 1711   2.236   1.055   0.810  0.3675  0.2567 -1.0094
  428SOL    MW4 1712   2.267   1.123   0.855  0.0121 -0.0929 -0.2278
  429SOL     OW 1713   2.449   1.253   0.693 -0.1337  0.4887 -0.7735
  429SOL    HW2 1714   2.392   1.199   0.748 -0.1220  2.0584  0.8276
  429SOL    HW3 1715   2.389   1.299   0.635 -0.3284  0.4706 -0.5894
  429SOL    MW4 1716   2.434   1.252   0.693 -0.1579  0.6934 -0.5380
  430SOL     OW 1717   2.477   1.493   0.842 -0.7059  0.3646  0.1774
  430SOL    HW2 1718   2.555   1.540   0.813 -0.8332  1.1913  1.1530
  430SOL    HW3 1719   2.475   1.414   0.788  0.9284  0.2249  0.3036
  430SOL    MW4 1720   2.487   1.489   0.831 -0.5071  0.4552  0.3228
  431SOL     OW 1721   2.241   1.645   0.794 -0.1935 -0.1045  0.3697
  431SOL    HW2 1722   2.327   1.606   0.805  0.3312  0.7106 -0.7395
  431SOL    HW3 1723   2.230   1.652   0.699 -1.5818 -0.4168  0.4923
  431SOL    MW4 1724   2.251   1.640   0.783 -0.3074 -0.0381  0.2396
  432SOL     OW 1725   2.212   1.912   0.863 -0.0614 -0.3924  0.6689
  432SOL    HW2 1726   2.212   1.825   0.825 -0.6710 -0.1762  0.1801
  432SOL    HW3 1727   2.130   1.952   0.834  0.5358  0.5968  0.3047
  432SOL    MW4 1728   2.202   1.906   0.854 -0.0630 -0.2333  0.5563
  433SOL     OW 1729   2.436   2.045   0.769 -0.1462 -0.7302 -0.3590
  433SOL    HW2 1730   2.365   1.995   0.809  0.1638 -0.6111  0.3493
  433SOL    HW3 1731   2.414   2.047   0.675 -0.4235 -1.7400 -0.3159
  433SOL    MW4 1732   2.423   2.039   0.762 -0.1419 -0.8477 -0.2599
  434SOL     OW 1733   2.431   2.288   0.865  0.4257 -0.0990  0.0908
  434SOL    HW2 1734   2.522   2.317   0.853 -0.0154  0.7617 -1.2824
  434SOL    HW3 1735   2.432   2.196   0.837  0.1141  0.9638 -3.7169
  434SOL    MW4 1736   2.443   2.280   0.860  0.3264  0.1547 -0.5927
  435SOL     OW 1737   2.256   2.463   0.735 -0.1904 -0.0028 -0.1010
  435SOL    HW2 1738   2.334   2.421   0.771  0.1780  0.5377 -0.2539
  435SOL    HW3 1739   2.184   2.404   0.756  0.2987 -0.6293 -0.1775
  435SOL    MW4 1740   2.257   2.450   0.743 -0.0772 -0.0141 -0.1313
  436SOL     OW 1741   2.285   2.720   0.879 -0.6428 -0.2389  0.2896
  436SOL    HW2 1742   2.274   2.712   0.973  1.5458 -1.0089  0.5106
  436SOL    HW3 1743   2.276   2.630   0.846  0.5836 -0.2560  0.0005
  436SOL    MW4 1744   2.282   2.707   0.887 -0.1922 -0.3428  0.2806
  437SOL     OW 1745   2.504   2.863   0.791 -0.0867 -0.4332  0.1027
  437SOL    HW2 1746   2.581   2.816   0.822 -1.0031 -2.3855 -0.4663
  437SOL    HW3 1747   2.430   2.818   0.833 -1.0329  0.0660 -0.9995
  437SOL    MW4 1748   2.504   2.851   0.801 -0.3325 -0.6249 -0.1178
  438SOL     OW 1749   2.463   3.120   0.879  0.2292  0.1524  0.6863
  438SOL    HW2 1750   2.477   3.139   0.972 -1.2234  0.6893  0.8117
  438SOL    HW3 1751   2.486   3.028   0.869 -1.3565 -0.4097  1.9651
  438SOL    MW4 1752   2.468   3.111   0.890 -0.1717  0.1491  0.8716
  439SOL     OW 1753   2.257   3.209   0.714 -0.1321  0.3218  0.0606
  439SOL    HW2 1754   2.186   3.174   0.767 -1.0080  1.7381 -0.1723
  439SOL    HW3 1755   2.337   3.177   0.756 -0.7839  1.8736  2.5544
  439SOL    MW4 1756   2.258   3.200   0.726 -0.3336  0.7134  0.3589
  440SOL     OW 1757   2.255   3.472   0.806  0.0230 -0.4252 -0.2765
  440SOL    HW2 1758   2.263   3.385   0.767 -0.0812  0.2650 -1.8583
  440SOL    HW3 1759   2.172   3.505   0.773 -0.0933  0.1599  0.5824
  440SOL    MW4 1760   2.245   3.465   0.797 -0.0061 -0.2570 -0.3719
  441SOL     OW 1761   2.517   3.573   0.740  0.3634  0.3643 -0.3355
  441SOL    HW2 1762   2.572   3.509   0.784 -0.1253 -0.3892 -0.8141
  441SOL    HW3 1763   2.428   3.552   0.766  0.2448  1.2508  0.0091
  441SOL    MW4 1764   2.513   3.562   0.749  0.2832  0.3818 -0.3532
  442SOL     OW 1765   2.453   3.845   0.843 -0.1462  0.1508 -0.2350
  442SOL    HW2 1766   2.383   3.892   0.799 -0.3477 -0.2594 -0.3592
  442SOL    HW3 1767   2.455   3.759   0.800  1.4032  0.6592 -1.2352
  442SOL    MW4 1768   2.444   3.840   0.832  0.0316  0.1637 -0.3833
  443SOL     OW 1769   2.233   3.998   0.748  0.5416 -0.4852  0.1354
  443SOL    HW2 1770   2.146   3.968   0.776  1.0042 -1.2766  0.7551
  443SOL    HW3 1771   2.238   3.973   0.655 -0.9470  2.0348 -0.6719
  443SOL    MW4 1772   2.222   3.991   0.739  0.4063 -0.2571  0.1107
  444SOL     OW 1773   2.229   4.262   0.876  0.1304 -0.3044  0.2996
  444SOL    HW2 1774   2.221   4.178   0.832 -1.1142  0.3514 -0.7778
  444SOL    HW3 1775   2.150   4.311   0.850  1.4592  1.6600 -0.1564
  444SOL    MW4 1776   2.217   4.258   0.867  0.1415  0.0413  0.0973
  445SOL     OW 1777   2.474   4.296   0.725 -0.0420  0.0448 -0.1221
  445SOL    HW2 1778   2.540   4.269   0.790  0.4856  1.0247 -0.2458
  445SOL    HW3 1779   2.391   4.290   0.772  0.2863  0.2588  0.4975
  445SOL    MW4 1780   2.472   4.292   0.740  0.0709  0.2023 -0.0566
  446SOL     OW 1781   2.930   4.641   0.873 -0.0003 -0.2793 -0.0524
  446SOL    HW2 1782   2.914   4.547   0.866 -1.1110 -0.2006  1.1635
  446SOL    HW3 1783   2.855   4.681   0.831  0.2169  0.0764 -0.1013
  446SOL    MW4 1784   2.918   4.634   0.867 -0.1182 -0.2220  0.1016
  447SOL     OW 1785   2.643   0.187   0.524  0.2903 -0.1262  0.1773
  447SOL    HW2 1786   2.680   0.150   0.604 -1.1385 -0.4943  0.6741
  447SOL    HW3 1787   2.710   0.249   0.493  1.3561 -0.8484  1.0059
  447SOL    MW4 1788   2.657   0.190   0.530  0.2424 -0.2700  0.3522
  448SOL     OW 1789   2.690   0.337   0.920  0.0765 -0.2877 -0.3863
  448SOL    HW2 1790   2.695   0.357   1.013  1.6299  0.6728 -0.6440
  448SOL    HW3 1791   2.764   0.386   0.881 -0.6308 -0.5516 -2.1239
  448SOL    MW4 1792   2.701   0.346   0.927  0.1882 -0.1958 -0.6495
  449SOL     OW 1793   2.901   0.457   0.749 -0.0720  0.7607  0.3443
  449SOL    HW2 1794   2.979   0.408   0.776 -0.8714 -0.1488  1.0497
  449SOL    HW3 1795   2.888   0.431   0.657 -0.9183 -0.9761  0.9244
  449SOL    MW4 1796   2.909   0.447   0.740 -0.2891  0.4115  0.5139
  450SOL     OW 1797   2.898   0.730   0.858  0.1387 -0.4561  0.1211
  450SOL    HW2 1798   2.907   0.730   0.953  0.0988  0.2138  0.1331
  450SOL    HW3 1799   2.897   0.638   0.833 -1.5004 -0.6725  0.9291
  450SOL    MW4 1800   2.899   0.718   0.867 -0.0828 -0.3962  0.2293
  451SOL     OW 1801   2.689   0.881   0.731  0.3228  0.2128  0.6581
  451SOL    HW2 1802   2.769   0.832   0.751 -0.5952 -1.3689  0.5356
  451SOL    HW3 1803   2.678   0.870   0.637  0.7203  1.6361  0.4294
  451SOL    MW4 1804   2.698   0.873   0.722  0.2541  0.1919  0.6118
  452SOL     OW 1805   2.691   1.163   0.806  0.0051 -0.4839 -0.3522
  452SOL    HW2 1806   2.706   1.075   0.771 -1.2113  0.0755 -2.3481
  452SOL    HW3 1807   2.604   1.187   0.775  0.3262  1.4288  0.1507
  452SOL    MW4 1808   2.682   1.155   0.797 -0.1130 -0.1577 -0.5492
  453SOL     OW 1809   2.949   1.287   0.758 -0.2556 -0.5308 -0.5259
  453SOL    HW2 1810   3.009   1.215   0.780 -1.0273 -0.7210  1.0308
  453SOL    HW3 1811   2.862   1.252   0.778 -0.6076  1.0071  0.6694
  453SOL    MW4 1812   2.945   1.273   0.763 -0.4039 -0.3530 -0.1628
  454SOL     OW 1813   2.946   1.539   0.877 -0.3340  0.3308  0.5544
  454SOL    HW2 1814   3.019   1.590   0.843 -0.8066  0.5608 -0.1137
  454SOL    HW3 1815   2.958   1.452   0.839  0.1669  0.0802  1.2660
  454SOL    MW4 1816   2.957   1.534   0.867 -0.3303  0.3281  0.5602
  455SOL     OW 1817   2.707   1.646   0.784 -0.2461 -0.2710  0.3003
  455SOL    HW2 1818   2.702   1.741   0.796 -0.5520 -0.2929  0.3575
  455SOL    HW3 1819   2.787   1.620   0.829 -0.3341 -0.0839  0.5638
  455SOL    MW4 1820   2.717   1.656   0.791 -0.2980 -0.2492  0.3426
  456SOL     OW 1821   2.682   1.930   0.818 -0.0202 -0.1117  0.3808
  456SOL    HW2 1822   2.690   1.931   0.913  1.7914  0.5050  0.2372
  456SOL    HW3 1823   2.599   1.974   0.800 -0.8088 -1.0357  1.7068
  456SOL    MW4 1824   2.672   1.936   0.828  0.1148 -0.1522  0.5368
  457SOL     OW 1825   2.890   2.067   0.700  0.5073 -0.5631 -0.2303
  457SOL    HW2 1826   2.898   2.147   0.751  2.5286  0.0577 -1.4256
  457SOL    HW3 1827   2.808   2.027   0.729  0.4610  0.9272  1.7910
  457SOL    MW4 1828   2.881   2.072   0.710  0.7679 -0.2846 -0.1214
  458SOL     OW 1829   2.917   2.299   0.857  0.2279  0.0771 -0.0853
  458SOL    HW2 1830   2.931   2.306   0.951 -0.3735 -1.6332  0.1512
  458SOL    HW3 1831   2.838   2.351   0.841 -0.4304 -0.7320  0.5559
  458SOL    MW4 1832   2.908   2.307   0.867  0.0617 -0.2553  0.0305
  459SOL     OW 1833   2.680   2.421   0.804  0.1392 -0.0520 -0.4558
  459SOL    HW2 1834   2.689   2.428   0.709 -1.2805  0.4259 -0.5765
  459SOL    HW3 1835   2.669   2.511   0.834  2.0830 -0.0751  0.3429
  459SOL    MW4 1836   2.679   2.434   0.795  0.2084  0.0080 -0.3664
  460SOL     OW 1837   2.701   2.683   0.910  0.9556 -0.5350 -0.0198
  460SOL    HW2 1838   2.694   2.695   1.005 -0.4356  0.9294 -0.2654
  460SOL    HW3 1839   2.781   2.728   0.886 -0.4874  2.1822  0.0462
  460SOL    MW4 1840   2.711   2.691   0.920  0.5817  0.0167 -0.0435
  461SOL     OW 1841   2.880   2.631   0.496  0.3197 -0.0109 -0.0117
  461SOL    HW2 1842   2.817   2.563   0.474 -0.0471  0.1465  0.5550
  461SOL    HW3 1843   2.844   2.711   0.458  0.4896 -0.0344 -0.2247
  461SOL    MW4 1844   2.867   2.632   0.488  0.2937  0.0068  0.0349
  462SOL     OW 1845   2.748   3.178   0.795  0.2843 -0.4868  0.2170
  462SOL    HW2 1846   2.743   3.268   0.827  0.1432  0.5028 -2.5112
  462SOL    HW3 1847   2.658   3.146   0.802 -0.1752  0.4454 -1.1561
  462SOL    MW4 1848   2.735   3.186   0.801  0.2050 -0.2333 -0.3241
  463SOL     OW 1849   2.716   3.172   0.529 -0.1341  0.0757  0.2021
  463SOL    HW2 1850   2.782   3.211   0.472  0.2021  1.7555  1.6933
  463SOL    HW3 1851   2.752   3.180   0.617 -0.8985 -1.9544  0.7273
  463SOL    MW4 1852   2.729   3.178   0.533 -0.1906  0.0295  0.4682
  464SOL     OW 1853   2.732   3.429   0.876  0.1635 -0.4750 -0.2759
  464SOL    HW2 1854   2.717   3.437   0.970  0.3707  0.5724 -0.3230
  464SOL    HW3 1855   2.809   3.484   0.859  0.4238 -1.0446 -0.9803
  464SOL    MW4 1856   2.740   3.438   0.886  0.2251 -0.4120 -0.3751
  465SOL     OW 1857   2.983   3.575   0.789 -0.9487  0.0526  0.0121
  465SOL    HW2 1858   2.994   3.652   0.844 -2.0332 -0.3780  0.8285
  465SOL    HW3 1859   2.977   3.611   0.700 -0.6355  0.8401  0.2978
  465SOL    MW4 1860   2.984   3.590   0.784 -1.0505  0.0997  0.1575
  466SOL     OW 1861   2.946   3.825   0.919 -0.2508 -0.4546 -0.3340
  466SOL    HW2 1862   2.949   3.839   1.014  1.6827  0.5703 -0.5311
  466SOL    HW3 1863   2.859   3.857   0.894 -1.3198 -2.0106  1.2706
  466SOL    MW4 1864   2.935   3.831   0.929 -0.1368 -0.5247 -0.1483
  467SOL     OW 1865   2.726   3.950   0.797  0.2664  0.0323  0.1631
  467SOL    HW2 1866   2.652   3.889   0.797 -0.7433  1.2277  0.2792
  467SOL    HW3 1867   2.767   3.939   0.712 -0.7985  0.2419 -0.3852
  467SOL    MW4 1868   2.721   3.940   0.786 -0.0073  0.2177  0.1061
  468SOL     OW 1869   2.650   4.227   0.941  0.5071  0.0359  0.0794
  468SOL    HW2 1870   2.650   4.247   1.035 -2.7553  1.1570 -0.0905
  468SOL    HW3 1871   2.661   4.132   0.937 -1.5069 -0.3205  1.7487
  468SOL    MW4 1872   2.652   4.217   0.953 -0.1891  0.1368  0.2772
  469SOL     OW 1873   2.873   4.374   0.851  0.2235 -0.5589  0.2100
  469SOL    HW2 1874   2.940   4.323   0.896 -0.1460 -0.3674  0.9911
  469SOL    HW3 1875   2.790   4.336   0.880 -0.0623  0.7099  1.0903
  469SOL    MW4 1876   2.871   4.362   0.861  0.1370 -0.3662  0.4292
  470SOL     OW 1877   3.345   4.591   0.859 -0.3569 -0.1890  0.9306
  470SOL    HW2 1878   3.348   4.622   0.949 -2.0356  0.6555  0.7161
  470SOL    HW3 1879   3.277   4.644   0.817 -0.0091 -0.9692 -0.6778
  470SOL    MW4 1880   3.337   4.602   0.865 -0.5325 -0.1805  0.6901
  471SOL     OW 1881   3.152   0.073   0.739  0.4242 -0.1583 -0.6476
  471SOL    HW2 1882   3.148   0.161   0.776  0.4734 -1.0810  1.6517
  471SOL    HW3 1883   3.082   0.025   0.783  0.4386 -1.2928 -1.8305
  471SOL    MW4 1884   3.142   0.078   0.749  0.4326 -0.4297 -0.5003
  472SOL     OW 1885   3.140   0.339   0.835 -0.5410  0.1525  0.3259
  472SOL    HW2 1886   3.126   0.343   0.929 -2.2479  1.7958  0.0314
  472SOL    HW3 1887   3.225   0.382   0.821 -0.2831 -0.1046  1.1104
  472SOL    MW4 1888   3.150   0.345   0.845 -0.7321  0.3354  0.3906
  473SOL     OW 1889   3.359   0.483   0.783 -0.3933  0.1003  0.1080
  473SOL    HW2 1890   3.435   0.430   0.810 -0.6184 -0.2686  0.0207
  473SOL    HW3 1891   3.360   0.479   0.687  0.3032  1.2663  0.0547
  473SOL    MW4 1892   3.369   0.475   0.774 -0.3311  0.2055  0.0895
  474SOL     OW 1893   3.328   0.733   0.887  0.1853  0.0561 -0.1482
  474SOL    HW2 1894   3.244   0.761   0.850 -1.0438  0.3833  2.7829
  474SOL    HW3 1895   3.342   0.646   0.850 -1.5691 -0.0921 -0.5300
  474SOL    MW4 1896   3.319   0.725   0.877 -0.2083  0.0797  0.1881
  475SOL     OW 1897   3.126   0.853   0.750 -0.0884  0.2303  0.0765
  475SOL    HW2 1898   3.136   0.938   0.793  1.0967 -0.1962  0.6507
  475SOL    HW3 1899   3.043   0.819   0.783 -0.0477  0.6904  0.6650
  475SOL    MW4 1900   3.116   0.860   0.760  0.0733  0.2347  0.2299
  476SOL     OW 1901   3.134   1.105   0.854  0.1563 -0.2416 -0.2602
  476SOL    HW2 1902   3.134   1.120   0.948  0.9217 -0.1639 -0.2644
  476SOL    HW3 1903   3.219   1.139   0.825  0.1148 -0.6845 -0.9083
  476SOL    MW4 1904   3.145   1.112   0.862  0.2518 -0.2898 -0.3463
  477SOL     OW 1905   3.364   1.242   0.743  0.2273 -0.3393 -0.4475
  477SOL    HW2 1906   3.439   1.209   0.791 -1.3704  0.3291  2.6281
  477SOL    HW3 1907   3.346   1.328   0.781 -1.1001  0.2394 -2.2606
  477SOL    MW4 1908   3.371   1.249   0.754 -0.1586 -0.1747 -0.2809
  478SOL     OW 1909   3.372   1.496   0.842  0.1908  0.2154  0.2743
  478SOL    HW2 1910   3.357   1.490   0.936 -0.7477  1.8322  0.2530
  478SOL    HW3 1911   3.436   1.567   0.833 -0.8150  1.0579 -0.3781
  478SOL    MW4 1912   3.378   1.505   0.853 -0.0658  0.5398  0.1854
  479SOL     OW 1913   3.173   1.663   0.786 -0.0806  0.4398  0.3551
  479SOL    HW2 1914   3.246   1.603   0.803  0.4918  0.9576 -0.2108
  479SOL    HW3 1915   3.189   1.694   0.697 -0.4301  1.3499  0.6110
  479SOL    MW4 1916   3.185   1.659   0.777 -0.0512  0.6282  0.3142
  480SOL     OW 1917   3.208   1.922   0.878 -0.4702 -0.1712 -0.4792
  480SOL    HW2 1918   3.197   1.912   0.972 -0.1347  0.4332 -0.3707
  480SOL    HW3 1919   3.200   1.834   0.843 -1.6388 -0.2624  0.0030
  480SOL    MW4 1920   3.205   1.909   0.886 -0.5801 -0.1035 -0.4012
  481SOL     OW 1921   3.405   2.037   0.718  0.0344  0.3578 -0.0086
  481SOL    HW2 1922   3.410   2.121   0.763 -0.1831  0.8315 -0.8399
  481SOL    HW3 1923   3.349   1.983   0.772  0.1838  0.7479  0.5363
  481SOL    MW4 1924   3.399   2.041   0.731  0.0254  0.4717 -0.0464
  482SOL     OW 1925   3.403   2.289   0.839  0.0951  0.4364 -0.0966
  482SOL    HW2 1926   3.412   2.295   0.934  0.2834 -3.3326  0.1766
  482SOL    HW3 1927   3.466   2.354   0.805  2.6339 -0.6808  2.3090
  482SOL    MW4 1928   3.413   2.299   0.847  0.4549 -0.2083  0.2569
  483SOL     OW 1929   3.159   2.463   0.814 -0.4521  0.2733  0.3576
  483SOL    HW2 1930   3.228   2.401   0.838  0.2828  0.9676  0.0566
  483SOL    HW3 1931   3.079   2.410   0.808 -0.0024 -0.4756  1.0170
  483SOL    MW4 1932   3.157   2.448   0.816 -0.2958  0.2661  0.4049
  484SOL     OW 1933   3.165   2.738   0.862 -0.1971 -0.3065  0.1059
  484SOL    HW2 1934   3.169   2.644   0.845 -0.2651 -0.2227 -0.3761
  484SOL    HW3 1935   3.255   2.768   0.848  0.0448 -0.4674  1.2630
  484SOL    MW4 1936   3.178   2.730   0.858 -0.1742 -0.3167  0.1950
  485SOL     OW 1937   3.422   2.839   0.807 -0.3154  0.0071 -0.0799
  485SOL    HW2 1938   3.431   2.849   0.713 -0.8258 -1.0677 -0.2418
  485SOL    HW3 1939   3.502   2.794   0.835 -0.7268 -0.7658 -0.1623
  485SOL    MW4 1940   3.434   2.835   0.798 -0.4370 -0.2367 -0.1121
  486SOL     OW 1941   3.380   3.102   0.900  0.0495 -0.1070  0.1046
  486SOL    HW2 1942   3.372   3.102   0.995  1.2208 -0.6699  0.2125
  486SOL    HW3 1943   3.390   3.010   0.876 -0.6908 -0.0085 -0.6024
  486SOL    MW4 1944   3.381   3.090   0.909  0.1064 -0.1683  0.0256
  487SOL     OW 1945   3.194   3.193   0.728  0.0983 -0.1556 -0.5874
  487SOL    HW2 1946   3.263   3.166   0.788 -0.6887  0.5935  0.6661
  487SOL    HW3 1947   3.117   3.143   0.756 -0.4569  0.7346 -0.5052
  487SOL    MW4 1948   3.193   3.183   0.739 -0.0788  0.0607 -0.4112
  488SOL     OW 1949   3.213   3.447   0.842 -0.0896 -0.2959 -0.0484
  488SOL    HW2 1950   3.200   3.359   0.806 -0.4628 -0.2599 -0.0098
  488SOL    HW3 1951   3.138   3.497   0.810  0.9417  0.4316 -1.3581
  488SOL    MW4 1952   3.201   3.442   0.833 -0.0028 -0.1952 -0.2161
  489SOL     OW 1953   3.390   3.660   0.747  0.2916 -0.4556 -0.1778
  489SOL    HW2 1954   3.386   3.744   0.792 -0.5456  0.3819 -1.7803
  489SOL    HW3 1955   3.315   3.611   0.781  0.3542 -0.2777  0.2173
  489SOL    MW4 1956   3.380   3.664   0.757  0.1894 -0.3216 -0.3371
  490SOL     OW 1957   3.361   3.913   0.886 -0.2125  0.5227 -0.0778
  490SOL    HW2 1958   3.363   3.910   0.982 -0.1350  1.1703 -0.0593
  490SOL    HW3 1959   3.448   3.946   0.862 -0.1007  0.0057 -0.3878
  490SOL    MW4 1960   3.373   3.917   0.896 -0.1876  0.5399 -0.1163
  491SOL     OW 1961   3.122   3.999   0.796  0.2212  0.1734  0.4473
  491SOL    HW2 1962   3.206   3.972   0.834 -0.2074 -1.0591  0.5247
  491SOL    HW3 1963   3.059   3.935   0.828 -0.3110 -0.3780 -1.6330
  491SOL    MW4 1964   3.125   3.987   0.805  0.0945 -0.0619  0.1831
  492SOL     OW 1965   3.097   4.229   0.942 -0.0985 -0.0135  0.8928
  492SOL    HW2 1966   3.178   4.275   0.920 -0.1075  0.3191  1.5500
  492SOL    HW3 1967   3.098   4.151   0.886  0.3499  0.3264  0.4241
  492SOL    MW4 1968   3.108   4.225   0.931 -0.0406  0.0753  0.9177
  493SOL     OW 1969   3.339   4.334   0.830  0.0490 -0.2423  0.2448
  493SOL    HW2 1970   3.339   4.429   0.846  1.2589 -0.2526  0.3629
  493SOL    HW3 1971   3.352   4.327   0.735  0.3255 -0.2882  0.2848
  493SOL    MW4 1972   3.341   4.346   0.819  0.2451 -0.2497  0.2657
  494SOL     OW 1973   3.814   0.013   0.931  0.2037 -0.2313 -0.1790
  494SOL    HW2 1974   3.894   0.053   0.898  0.6646 -1.0952 -0.1255
  494SOL    HW3 1975   3.747   0.038   0.867  0.3741  1.0106  0.1051
  494SOL    MW4 1976   3.816   0.022   0.918  0.2870 -0.1814 -0.1344
  495SOL     OW 1977   3.582   0.096   0.787  0.3263 -0.0795 -0.1220
  495SOL    HW2 1978   3.507   0.039   0.805  1.1540 -0.8767  0.7993
  495SOL    HW3 1979   3.588   0.097   0.691  0.2329 -1.4348 -0.1498
  495SOL    MW4 1980   3.573   0.089   0.776  0.4231 -0.3635 -0.0041
  496SOL     OW 1981   3.588   0.362   0.906  0.1024  0.2791  0.4712
  496SOL    HW2 1982   3.578   0.349   1.000 -1.2460  0.0043  0.3031
  496SOL    HW3 1983   3.604   0.274   0.871  0.8085  0.4088  0.4696
  496SOL    MW4 1984   3.589   0.349   0.914  0.0177  0.2599  0.4488
  497SOL     OW 1985   3.813   0.497   0.781  0.2882  0.1775  0.2266
  497SOL    HW2 1986   3.811   0.586   0.816  0.9827 -0.4670  1.9822
  497SOL    HW3 1987   3.726   0.461   0.803 -0.5050  0.8572 -1.7177
  497SOL    MW4 1988   3.801   0.504   0.789  0.2752  0.1821  0.2017
  498SOL     OW 1989   3.775   0.749   0.869 -0.4345  0.6751  0.7879
  498SOL    HW2 1990   3.788   0.735   0.963 -0.4093  0.1810  0.7114
  498SOL    HW3 1991   3.858   0.786   0.839 -0.3300  0.5410  0.9049
  498SOL    MW4 1992   3.788   0.752   0.878 -0.4174  0.5922  0.7933
  499SOL     OW 1993   3.540   0.869   0.783  0.2232  0.3831 -0.1548
  499SOL    HW2 1994   3.616   0.819   0.813 -0.2500 -0.4415 -0.2858
  499SOL    HW3 1995   3.465   0.817   0.812 -0.2686  0.6370 -0.9591
  499SOL    MW4 1996   3.540   0.855   0.791  0.0959  0.3078 -0.2782
  500SOL     OW 1997   3.602   1.135   0.881  0.3273 -0.1111  0.4471
  500SOL    HW2 1998   3.579   1.146   0.973 -1.2952 -0.3374  0.0684
  500SOL    HW3 1999   3.591   1.042   0.864  0.6391 -0.0725  0.0137
  500SOL    MW4 2000   3.598   1.124   0.890  0.1544 -0.1359  0.3399
  501SOL     OW 2001   3.793   1.334   0.815  0.4608 -0.2724  0.3064
  501SOL    HW2 2002   3.719   1.274   0.826 -0.6918  0.5731 -2.4005
  501SOL    HW3 2003   3.813   1.331   0.721 -0.1920  4.1469 -0.1136
  501SOL    MW4 2004   3.786   1.326   0.804  0.2226  0.4223 -0.1062
  502SOL     OW 2005   3.789   1.570   0.933 -0.2123  0.0618 -0.4629
  502SOL    HW2 2006   3.873   1.600   0.900  0.8451 -1.4031  0.8419
  502SOL    HW3 2007   3.777   1.484   0.894 -1.4741  0.5765 -1.2384
  502SOL    MW4 2008   3.798   1.563   0.924 -0.2393 -0.0635 -0.3930
  503SOL     OW 2009   3.595   1.720   0.796  0.0856 -0.1025 -0.1373
  503SOL    HW2 2010   3.619   1.801   0.841 -1.7056 -0.9608  2.5035
  503SOL    HW3 2011   3.648   1.652   0.838 -1.5470 -0.9078  0.6633
  503SOL    MW4 2012   3.605   1.722   0.807 -0.3661 -0.3220  0.3168
  504SOL     OW 2013   3.621   1.981   0.885 -0.4093  0.5367  0.4400
  504SOL    HW2 2014   3.697   2.037   0.868  0.2809 -0.6186 -0.4000
  504SOL    HW3 2015   3.557   2.007   0.820 -0.9104  1.8044  1.4176
  504SOL    MW4 2016   3.622   1.991   0.874 -0.3844  0.5515  0.4581
  505SOL     OW 2017   3.838   2.114   0.792  0.2304 -0.1451  0.0492
  505SOL    HW2 2018   3.908   2.063   0.831  1.1768  1.0015 -0.1305
  505SOL    HW3 2019   3.837   2.088   0.699  0.0758 -0.5223  0.1536
  505SOL    MW4 2020   3.847   2.104   0.785  0.3349 -0.0436  0.0392
  506SOL     OW 2021   3.860   2.352   0.915 -0.2095 -0.0033  0.1059
  506SOL    HW2 2022   3.863   2.312   1.002 -0.0255  0.0147  0.1070
  506SOL    HW3 2023   3.866   2.279   0.855 -1.0534 -0.0786  0.1056
  506SOL    MW4 2024   3.861   2.337   0.919 -0.2966 -0.0109  0.1060
  507SOL     OW 2025   3.622   2.443   0.773  0.5975  0.1940 -0.5268
  507SOL    HW2 2026   3.611   2.534   0.801 -0.6447 -0.2006  0.3102
  507SOL    HW3 2027   3.699   2.413   0.821 -0.1427  0.2242  0.6931
  507SOL    MW4 2028   3.631   2.451   0.783  0.3359  0.1459 -0.2554
  508SOL     OW 2029   3.643   2.706   0.881 -0.2622 -0.0630 -0.1943
  508SOL    HW2 2030   3.645   2.697   0.976  1.2847  0.9804 -0.1160
  508SOL    HW3 2031   3.728   2.742   0.858 -0.6014 -0.3433 -1.9922
  508SOL    MW4 2032   3.655   2.709   0.891 -0.1029  0.0377 -0.4212
  509SOL     OW 2033   3.843   2.866   0.798  0.3000  0.3263 -0.3586
  509SOL    HW2 2034   3.829   2.848   0.706 -0.8563 -0.3472 -0.0544
  509SOL    HW3 2035   3.806   2.954   0.811 -2.0518 -0.6851  0.0369
  509SOL    MW4 2036   3.837   2.876   0.788 -0.1629  0.1040 -0.2663
  510SOL     OW 2037   3.814   3.128   0.916 -0.0789 -0.3192  0.0498
  510SOL    HW2 2038   3.897   3.172   0.896  0.3088 -1.1653 -0.2280
  510SOL    HW3 2039   3.747   3.184   0.877  0.4001  0.0400 -0.2670
  510SOL    MW4 2040   3.816   3.141   0.908  0.0355 -0.3835 -0.0287
  511SOL     OW 2041   3.596   3.251   0.778  0.1904 -0.1985 -0.3972
  511SOL    HW2 2042   3.512   3.213   0.807  0.0355  0.2990 -0.1971
  511SOL    HW3 2043   3.605   3.221   0.688 -0.8051  0.7570 -0.8333
  511SOL    MW4 2044   3.586   3.242   0.770  0.0386 -0.0068 -0.4283
  512SOL     OW 2045   3.608   3.515   0.857 -0.2323 -0.5951  0.2801
  512SOL    HW2 2046   3.601   3.426   0.821 -0.9533 -0.5167  0.2204
  512SOL    HW3 2047   3.532   3.561   0.821 -0.2685 -0.1684  0.9017
  512SOL    MW4 2048   3.597   3.509   0.848 -0.3322 -0.5285  0.3543
  513SOL     OW 2049   3.833   3.634   0.767 -0.1618  0.0884  0.3103
  513SOL    HW2 2050   3.905   3.593   0.815  0.3914 -0.1368 -0.6923
  513SOL    HW3 2051   3.754   3.592   0.800  0.3412 -1.2225 -0.1305
  513SOL    MW4 2052   3.832   3.623   0.777 -0.0224 -0.1142  0.1198
  514SOL     OW 2053   3.840   3.880   0.879 -0.5954 -0.1083 -0.0076
  514SOL    HW2 2054   3.761   3.927   0.852  0.0120  0.8268 -0.1942
  514SOL    HW3 2055   3.835   3.797   0.832 -0.5832  0.6691 -1.4404
  514SOL    MW4 2056   3.829   3.875   0.869 -0.5137  0.1176 -0.2212
  515SOL     OW 2057   3.603   4.021   0.816 -0.2063 -0.2919  0.1507
  515SOL    HW2 2058   3.611   4.110   0.850  2.5675  0.0150 -1.2221
  515SOL    HW3 2059   3.600   4.031   0.721 -0.0529 -1.6459 -0.0098
  515SOL    MW4 2060   3.604   4.034   0.808  0.1799 -0.4300 -0.0516
  516SOL     OW 2061   3.620   4.298   0.913  0.7532  0.0419 -0.1442
  516SOL    HW2 2062   3.675   4.349   0.854  0.1082  0.7883 -0.1020
  516SOL    HW3 2063   3.531   4.318   0.887  0.4765 -0.3504  0.4778
  516SOL    MW4 2064   3.616   4.307   0.902  0.6316  0.0886 -0.0566
  517SOL     OW 2065   3.847   4.426   0.795 -0.3018 -0.0021  0.1850
  517SOL    HW2 2066   3.910   4.371   0.841 -0.8882 -0.6490  0.2162
  517SOL    HW3 2067   3.834   4.501   0.853 -0.7434 -0.6218  0.8950
  517SOL    MW4 2068   3.854   4.429   0.809 -0.4375 -0.1692  0.2828
  518SOL     OW 2069   4.254   0.009   0.864  0.0642  0.9604 -0.2093
  518SOL    HW2 2070   4.260   0.037   0.956 -0.0367  2.3519 -0.6164
  518SOL    HW3 2071   4.180   0.059   0.829 -1.1931 -1.0666 -0.5334
  518SOL    MW4 2072   4.245   0.019   0.872 -0.1150  0.8765 -0.3058
  519SOL     OW 2073   4.010   0.133   0.805  0.3450  0.3470 -0.3985
  519SOL    HW2 2074   3.995   0.210   0.860 -1.1235 -1.1511  1.3543
  519SOL    HW3 2075   3.976   0.158   0.719 -1.5957  1.0963  0.5746
  519SOL    MW4 2076   4.004   0.146   0.801 -0.1048  0.2482 -0.0389
  520SOL     OW 2077   4.008   0.404   0.935 -0.5357 -0.1585  0.1179
  520SOL    HW2 2078   4.088   0.443   0.898 -0.0376 -2.0824 -0.8742
  520SOL    HW3 2079   3.937   0.437   0.880 -0.4005  1.2777  0.7870
  520SOL    MW4 2080   4.009   0.414   0.923 -0.4522 -0.2229  0.0753
  521SOL     OW 2081   4.240   0.536   0.773 -0.0286 -0.0323 -0.2657
  521SOL    HW2 2082   4.316   0.490   0.809 -0.6397 -0.1629  0.8925
  521SOL    HW3 2083   4.268   0.564   0.686  1.7774  0.9894  0.6062
  521SOL    MW4 2084   4.254   0.534   0.766  0.1290  0.0852  0.0022
  522SOL     OW 2085   4.247   0.782   0.894 -0.1123  0.0968  0.5785
  522SOL    HW2 2086   4.162   0.818   0.869 -1.3886 -0.7302  3.5465
  522SOL    HW3 2087   4.244   0.691   0.863 -0.4026  0.0120  0.8463
  522SOL    MW4 2088   4.235   0.775   0.886 -0.3190 -0.0235  1.0054
  523SOL     OW 2089   4.001   0.897   0.821  0.1474 -0.3136 -0.1352
  523SOL    HW2 2090   4.025   0.972   0.876 -0.0210 -0.6018  0.3323
  523SOL    HW3 2091   4.000   0.932   0.732  1.2520 -0.0455 -0.0473
  523SOL    MW4 2092   4.004   0.912   0.816  0.2709 -0.3163 -0.0619
  524SOL     OW 2093   4.005   1.177   0.911  0.5466  0.3350 -0.3730
  524SOL    HW2 2094   4.004   1.194   1.006  0.2124 -0.1855 -0.2839
  524SOL    HW3 2095   3.921   1.212   0.880 -0.5841 -1.9705 -0.0402
  524SOL    MW4 2096   3.994   1.184   0.920  0.3533 -0.0379 -0.3173
  525SOL     OW 2097   4.214   1.321   0.805  0.2656  0.2774  0.2237
  525SOL    HW2 2098   4.142   1.276   0.849  0.5983  0.3665  0.8494
  525SOL    HW3 2099   4.291   1.266   0.820  0.4963  0.6055  0.2538
  525SOL    MW4 2100   4.215   1.308   0.812  0.3399  0.3324  0.3102
  526SOL     OW 2101   4.237   1.583   0.886 -0.1823  0.5023  0.3910
  526SOL    HW2 2102   4.246   1.572   0.981  0.2732 -0.7571  0.2062
  526SOL    HW3 2103   4.241   1.494   0.851  0.8322  1.0506 -0.9166
  526SOL    MW4 2104   4.238   1.570   0.894  0.0117  0.4085  0.1941
  527SOL     OW 2105   4.000   1.726   0.837  0.1764 -0.5407  0.2196
  527SOL    HW2 2106   4.087   1.697   0.866  0.9643  0.7207 -0.7674
  527SOL    HW3 2107   3.991   1.690   0.749  0.0529  0.0145  0.0040
  527SOL    MW4 2108   4.011   1.718   0.829  0.2641 -0.3010  0.0609
  528SOL     OW 2109   4.057   1.986   0.890 -0.0587  0.0610  0.0045
  528SOL    HW2 2110   4.131   2.017   0.839  0.0034 -1.1547 -0.6399
  528SOL    HW3 2111   4.037   1.899   0.855 -0.0567 -0.7599  1.9881
  528SOL    MW4 2112   4.064   1.979   0.879 -0.0503 -0.2077  0.1812
  529SOL     OW 2113   4.264   2.137   0.791  0.4078 -0.4795  0.3736
  529SOL    HW2 2114   4.350   2.095   0.793  0.6900  0.1111  0.6430
  529SOL    HW3 2115   4.240   2.138   0.698  0.9552 -0.1157  0.2319
  529SOL    MW4 2116   4.272   2.132   0.779  0.5172 -0.3536  0.3905
  530SOL     OW 2117   4.269   2.369   0.939 -0.0895  0.0653  0.5990
  530SOL    HW2 2118   4.203   2.409   0.882  0.7472  0.2572 -0.2553
  530SOL    HW3 2119   4.272   2.278   0.910  0.0662  0.0747  0.5854
  530SOL    MW4 2120   4.260   2.362   0.927  0.0414  0.0919  0.4845
  531SOL     OW 2121   4.057   2.504   0.800  0.0392 -0.5380  0.1737
  531SOL    HW2 2122   4.074   2.584   0.850  0.0413 -1.3582  1.5124
  531SOL    HW3 2123   3.991   2.457   0.851  0.8580 -1.9142 -0.0146
  531SOL    MW4 2124   4.051   2.508   0.813  0.1475 -0.8278  0.3255
  532SOL     OW 2125   4.069   2.756   0.904 -0.3017  0.1517  0.0272
  532SOL    HW2 2126   4.135   2.794   0.848  0.8806 -2.5179 -0.4656
  532SOL    HW3 2127   3.986   2.786   0.868  0.5367  0.7407 -1.4246
  532SOL    MW4 2128   4.066   2.765   0.892 -0.0351 -0.1228 -0.2293
  533SOL     OW 2129   4.310   2.869   0.791 -0.2712  0.0490  0.0930
  533SOL    HW2 2130   4.375   2.833   0.851 -0.6614  0.1844  0.5996
  533SOL    HW3 2131   4.353   2.867   0.705  0.6176  0.6776  0.5137
  533SOL    MW4 2132   4.324   2.864   0.787 -0.2054  0.1498  0.2153
  534SOL     OW 2133   4.274   3.131   0.850 -0.3828 -0.4350 -0.4035
  534SOL    HW2 2134   4.279   3.038   0.830  0.4042 -0.6786  0.8524
  534SOL    HW3 2135   4.364   3.163   0.840 -0.4229 -0.0734  0.3339
  534SOL    MW4 2136   4.287   3.123   0.846 -0.2843 -0.4194 -0.1405
  535SOL     OW 2137   4.034   3.275   0.817 -0.5750 -0.1804  0.5626
  535SOL    HW2 2138   4.037   3.364   0.852 -1.4602  0.1115 -0.0750
  535SOL    HW3 2139   4.123   3.241   0.830 -0.9508 -0.2016  3.3490
  535SOL    MW4 2140   4.046   3.282   0.824 -0.7414 -0.1447  0.8461
  536SOL     OW 2141   4.024   3.536   0.925 -0.2141 -0.0848 -0.3295
  536SOL    HW2 2142   4.022   3.518   1.019 -1.5267  1.7755  0.0208
  536SOL    HW3 2143   4.117   3.548   0.905  0.0619 -0.4439  0.7420
  536SOL    MW4 2144   4.036   3.535   0.935 -0.3508  0.1133 -0.1419
  537SOL     OW 2145   4.265   3.588   0.813  0.4057 -0.6037  0.2550
  537SOL    HW2 2146   4.270   3.681   0.838  0.9465 -0.8730  1.1807
  537SOL    HW3 2147   4.242   3.590   0.720  0.0137  0.4524  0.3595
  537SOL    MW4 2148   4.263   3.601   0.804  0.4253 -0.4999  0.3909
  538SOL     OW 2149   4.272   3.854   0.888 -0.3031 -0.1727  0.3253
  538SOL    HW2 2150   4.266   3.856   0.983 -0.0601  0.2760  0.3285
  538SOL    HW3 2151   4.199   3.908   0.857  0.1783  0.4514  0.2728
  538SOL    MW4 2152   4.261   3.861   0.896 -0.2075 -0.0312  0.3188
  539SOL     OW 2153   4.076   4.018   0.795  0.2323  0.3730 -0.4112
  539SOL    HW2 2154   4.000   3.966   0.819  0.4947 -0.0093 -0.3972
  539SOL    HW3 2155   4.075   4.019   0.699  0.3467  0.1541 -0.4171
  539SOL    MW4 2156   4.066   4.011   0.785  0.2821  0.2937 -0.4101
  540SOL     OW 2157   4.068   4.267   0.932 -0.0392  0.0367 -0.2074
  540SOL    HW2 2158   4.141   4.308   0.886  0.3432 -0.1383  0.2490
  540SOL    HW3 2159   4.075   4.174   0.911 -0.2176  0.0380 -0.2775
  540SOL    MW4 2160   4.078   4.260   0.923 -0.0123  0.0138 -0.1564
  541SOL     OW 2161   4.272   4.408   0.774  0.1519  0.2303  0.2098
  541SOL    HW2 2162   4.260   4.498   0.804 -1.3169 -0.2450  1.1459
  541SOL    HW3 2163   4.353   4.379   0.816  1.2515  1.4717 -1.0215
  541SOL    MW4 2164   4.281   4.416   0.783  0.1032  0.3314  0.1708
  542SOL     OW 2165   0.207   0.008   1.155  0.3257  0.6482 -0.1289
  542SOL    HW2 2166   0.280   0.064   1.182  1.8407 -0.9797 -0.7243
  542SOL    HW3 2167   0.194   0.029   1.063  0.1042  0.8629 -0.0494
  542SOL    MW4 2168   0.215   0.018   1.147  0.4964  0.4617 -0.1970
  543SOL     OW 2169   4.478   0.141   1.269  0.1931 -0.2817 -0.2559
  543SOL    HW2 2170   4.413   0.077   1.240  1.8115 -2.5125  0.9465
  543SOL    HW3 2171   4.560   0.112   1.230  1.1403  0.5057  1.0987
  543SOL    MW4 2172   4.480   0.129   1.260  0.5316 -0.4721  0.0815
  544SOL     OW 2173   4.465   0.404   1.170  0.4924  0.3468 -0.4044
  544SOL    HW2 2174   4.381   0.444   1.193 -0.2080 -0.5249 -1.4015
  544SOL    HW3 2175   4.464   0.318   1.212  1.0553  0.4924 -0.0862
  544SOL    MW4 2176   4.454   0.398   1.178  0.4743  0.2510 -0.4939
  545SOL     OW 2177   0.211   0.502   1.271 -0.2897 -0.2114  0.4865
  545SOL    HW2 2178   0.204   0.592   1.240  0.2211 -1.3686 -3.2723
  545SOL    HW3 2179   0.134   0.458   1.235  0.7835 -1.8321  0.1215
  545SOL    MW4 2180   0.200   0.508   1.262 -0.0807 -0.5779 -0.0576
  546SOL     OW 2181   0.223   0.772   1.171 -0.0884 -0.1664  0.3538
  546SOL    HW2 2182   0.299   0.822   1.203 -0.5522 -0.4867  2.0434
  546SOL    HW3 2183   0.148   0.810   1.218 -0.6644 -1.3339  0.4081
  546SOL    MW4 2184   0.223   0.784   1.182 -0.2256 -0.3627  0.5839
  547SOL     OW 2185   4.478   0.875   1.263 -0.3610 -0.3486 -0.2152
  547SOL    HW2 2186   4.470   0.874   1.358  2.0312 -2.7257  0.0266
  547SOL    HW3 2187   4.399   0.830   1.232 -1.0485  0.2566  0.6518
  547SOL    MW4 2188   4.467   0.869   1.271 -0.1361 -0.5824 -0.0689
  548SOL     OW 2189   4.475   1.153   1.154 -0.4527  0.1159  0.0356
  548SOL    HW2 2190   4.396   1.188   1.196 -0.6347  0.9149 -0.9220
  548SOL    HW3 2191   4.478   1.061   1.180 -1.8975 -0.0083 -0.1894
  548SOL    MW4 2192   4.465   1.146   1.163 -0.6673  0.2049 -0.1205
  549SOL     OW 2193   0.200   1.282   1.284  0.1289 -0.3400  0.1863
  549SOL    HW2 2194   0.279   1.236   1.259  0.4091  0.8129 -1.0779
  549SOL    HW3 2195   0.131   1.243   1.231  0.1955 -0.0151 -0.1451
  549SOL    MW4 2196   0.201   1.271   1.274  0.1746 -0.1450 -0.0242
  550SOL     OW 2197   0.230   1.550   1.216 -0.1651 -0.0737  0.3052
  550SOL    HW2 2198   0.215   1.457   1.230 -0.0096  0.0337  1.2093
  550SOL    HW3 2199   0.231   1.561   1.121 -2.4248 -0.6282  0.2060
  550SOL    MW4 2200   0.228   1.539   1.205 -0.4428 -0.1327  0.4114
  551SOL     OW 2201   4.485   1.681   1.269 -0.0562  0.3404  0.1174
  551SOL    HW2 2202   4.495   1.765   1.224 -1.1816 -0.0881 -0.9605
  551SOL    HW3 2203   4.564   1.632   1.245  0.0740  0.6746 -0.1419
  551SOL    MW4 2204   4.497   1.686   1.260 -0.1875  0.3280 -0.0590
  552SOL     OW 2205   4.486   1.934   1.146 -0.0427 -0.1643  0.0116
  552SOL    HW2 2206   4.413   1.986   1.180  0.7484  0.1350  1.2918
  552SOL    HW3 2207   4.487   1.954   1.053 -1.7697 -0.3889 -0.0859
  552SOL    MW4 2208   4.476   1.944   1.139 -0.1662 -0.1544  0.1677
  553SOL     OW 2209   0.217   2.049   1.298  0.2029  0.0968 -0.2950
  553SOL    HW2 2210   0.195   2.131   1.253  0.7622 -0.5463 -1.7922
  553SOL    HW3 2211   0.152   1.987   1.266  0.1380 -0.1928  0.3939
  553SOL    MW4 2212   0.206   2.052   1.288  0.2682 -0.0262 -0.4017
  554SOL     OW 2213   0.238   2.301   1.137 -0.5663 -0.1434 -0.1571
  554SOL    HW2 2214   0.315   2.344   1.174 -0.7692  0.6620 -0.6600
  554SOL    HW3 2215   0.163   2.347   1.176 -0.7862  0.6681 -1.4873
  554SOL    MW4 2216   0.238   2.313   1.147 -0.6220  0.0699 -0.3990
  555SOL     OW 2217   0.010   2.416   1.258 -0.1419 -0.2574 -0.2297
  555SOL    HW2 2218   0.007   2.440   1.351 -0.5702 -1.4296  0.0594
  555SOL    HW3 2219  -0.064   2.358   1.245  0.8443 -1.3742 -0.9509
  555SOL    MW4 2220   0.000   2.412   1.269 -0.0683 -0.5594 -0.2867
  556SOL     OW 2221   4.477   2.689   1.188  0.0442 -0.1015 -0.2928
  556SOL    HW2 2222   4.394   2.722   1.224  0.2935 -0.9825  1.1248
  556SOL    HW3 2223   4.485   2.600   1.223  1.1205 -0.3885 -1.2164
  556SOL    MW4 2224   4.467   2.682   1.197  0.2191 -0.2556 -0.2276
  557SOL     OW 2225   0.243   2.790   1.248  0.7967  0.5639 -0.1996
  557SOL    HW2 2226   0.229   2.794   1.342  1.1834  1.1400 -0.1677
  557SOL    HW3 2227   0.159   2.760   1.213  0.7199  0.1282  0.3414
  557SOL    MW4 2228   0.230   2.786   1.256  0.8376  0.5824 -0.1240
  558SOL     OW 2229   0.231   3.062   1.176  0.0535 -0.0258  0.0253
  558SOL    HW2 2230   0.307   3.110   1.210  0.4455 -1.3721  1.1290
  558SOL    HW3 2231   0.244   2.972   1.209 -1.9445 -0.2972  0.1075
  558SOL    MW4 2232   0.243   3.056   1.185 -0.1584 -0.2392  0.1817
  559SOL     OW 2233   4.471   3.179   1.243 -0.4503  0.0433 -0.1258
  559SOL    HW2 2234   4.398   3.126   1.212 -0.6161  0.6958 -0.8662
  559SOL    HW3 2235   4.548   3.141   1.200 -0.6317  0.7015 -1.0515
  559SOL    MW4 2236   4.472   3.167   1.234 -0.4961  0.2162 -0.3456
  560SOL     OW 2237   0.014   3.444   1.176  0.0889 -0.2077 -0.5878
  560SOL    HW2 2238  -0.018   3.358   1.203 -1.9411  1.2327  1.8164
  560SOL    HW3 2239   0.017   3.440   1.080  0.2592 -3.0123 -0.4834
  560SOL    MW4 2240   0.010   3.432   1.167 -0.1565 -0.3877 -0.2568
  561SOL     OW 2241   0.229   3.614   1.240 -0.2489 -0.0097 -0.1031
  561SOL    HW2 2242   0.236   3.626   1.335 -0.5987  1.5574 -0.2498
  561SOL    HW3 2243   0.152   3.560   1.228 -0.1739 -0.2565  0.5106
  561SOL    MW4 2244   0.220   3.609   1.251 -0.2852  0.1645 -0.0415
  562SOL     OW 2245   0.209   3.884   1.144  0.0112 -0.1891  0.1824
  562SOL    HW2 2246   0.137   3.920   1.196 -0.8022  0.0676 -1.0799
  562SOL    HW3 2247   0.207   3.790   1.161 -1.4428 -0.3529 -0.7941
  562SOL    MW4 2248   0.199   3.876   1.153 -0.2879 -0.1768 -0.1130
  563SOL     OW 2249   4.482   4.002   1.292  0.7158 -0.3799  0.1775
  563SOL    HW2 2250   4.473   3.972   1.383 -0.0597  0.5892  0.4354
  563SOL    HW3 2251   4.408   3.963   1.246  1.1691 -0.9598 -0.0734
  563SOL    MW4 2252   4.471   3.993   1.298  0.6733 -0.3286  0.1784
  564SOL     OW 2253   0.007   4.276   1.182  0.1517 -0.4640  0.1796
  564SOL    HW2 2254   0.087   4.310   1.222  1.2549 -2.4289 -0.2726
  564SOL    HW3 2255  -0.009   4.193   1.228 -0.9274 -0.6914 -0.5897
  564SOL    MW4 2256   0.016   4.269   1.194  0.1549 -0.7533  0.0185
  565SOL     OW 2257   0.223   4.407   1.262  0.1263 -0.2847 -0.4665
  565SOL    HW2 2258   0.240   4.407   1.356 -0.2526 -0.0063 -0.3967
  565SOL    HW3 2259   0.226   4.500   1.238  1.6242 -0.4467 -0.9887
  565SOL    MW4 2260   0.226   4.419   1.271  0.2739 -0.2693 -0.5262
  566SOL     OW 2261   0.613   0.021   1.184 -0.0199  0.6517  0.1862
  566SOL    HW2 2262   0.686   0.051   1.238  0.6467 -0.3157 -0.1590
  566SOL    HW3 2263   0.609  -0.073   1.199 -0.0841  0.4273 -1.1346
  566SOL    MW4 2264   0.622   0.013   1.193  0.0595  0.4944 -0.0336
  567SOL     OW 2265   0.406   0.181   1.284  0.4443 -0.1452  0.1405
  567SOL    HW2 2266   0.429   0.264   1.241 -0.2224  0.1639  0.3719
  567SOL    HW3 2267   0.469   0.118   1.250  1.0920  0.5065  0.1229
  567SOL    MW4 2268   0.417   0.184   1.274  0.4418 -0.0185  0.1687
  568SOL     OW 2269   0.460   0.419   1.174  0.3636 -0.0043 -0.1257
  568SOL    HW2 2270   0.372   0.452   1.195 -0.2033 -1.7893  0.4016
  568SOL    HW3 2271   0.458   0.404   1.079 -0.7073 -2.2488  0.2151
  568SOL    MW4 2272   0.448   0.422   1.164  0.1475 -0.5359 -0.0112
  569SOL     OW 2273   0.692   0.522   1.299 -0.5847 -0.2612 -0.4443
  569SOL    HW2 2274   0.721   0.609   1.271 -1.6825  0.1765 -0.2547
  569SOL    HW3 2275   0.610   0.507   1.253 -1.1810 -0.5479  0.6750
  569SOL    MW4 2276   0.685   0.532   1.289 -0.8082 -0.2413 -0.2716
  570SOL     OW 2277   0.705   0.782   1.211 -0.1776  0.2843  0.5813
  570SOL    HW2 2278   0.625   0.813   1.254  0.3155  0.4264  1.4176
  570SOL    HW3 2279   0.679   0.766   1.120 -1.3547 -0.4496  1.0333
  570SOL    MW4 2280   0.691   0.784   1.205 -0.2679  0.2062  0.7513
  571SOL     OW 2281   0.456   0.902   1.309 -0.4442 -0.2188  0.0182
  571SOL    HW2 2282   0.438   0.920   1.401 -1.0572 -0.5967 -0.0193
  571SOL    HW3 2283   0.456   0.988   1.267 -1.4313 -0.1406  0.1628
  571SOL    MW4 2284   0.453   0.916   1.315 -0.6553 -0.2583  0.0323
  572SOL     OW 2285   0.423   1.143   1.178  0.3991 -0.1821 -0.2645
  572SOL    HW2 2286   0.505   1.191   1.190 -0.0419  0.2019  1.3389
  572SOL    HW3 2287   0.406   1.147   1.084  0.4965  2.5503 -0.1898
  572SOL    MW4 2288   0.432   1.150   1.167  0.3538  0.2290 -0.0431
  573SOL     OW 2289   0.655   1.297   1.246  0.2506 -0.2043 -0.3151
  573SOL    HW2 2290   0.737   1.250   1.236  0.3369 -0.1138 -0.0470
  573SOL    HW3 2291   0.675   1.387   1.219  0.5296  0.0824  0.8048
  573SOL    MW4 2292   0.668   1.303   1.241  0.2988 -0.1545 -0.1320
  574SOL     OW 2293   0.689   1.558   1.168  0.7760 -0.0049 -0.1529
  574SOL    HW2 2294   0.770   1.597   1.203  0.8872  0.1766 -0.6108
  574SOL    HW3 2295   0.619   1.601   1.218  0.9438  0.0869  0.0077
  574SOL    MW4 2296   0.691   1.569   1.179  0.8128  0.0312 -0.1921
  575SOL     OW 2297   0.471   1.664   1.299  0.2050  0.2736 -0.1965
  575SOL    HW2 2298   0.487   1.663   1.393  1.7596  1.1337 -0.4374
  575SOL    HW3 2299   0.389   1.616   1.288 -0.2119  0.5413  1.6356
  575SOL    MW4 2300   0.462   1.658   1.310  0.3551  0.4224  0.0135
  576SOL     OW 2301   0.426   1.911   1.167  0.0978  0.0146 -0.3342
  576SOL    HW2 2302   0.449   1.832   1.216  0.1136  0.3668  0.2362
  576SOL    HW3 2303   0.360   1.955   1.222  1.5875  1.4422  0.3740
  576SOL    MW4 2304   0.420   1.907   1.181  0.2964  0.2494 -0.1655
  577SOL     OW 2305   0.678   2.048   1.226  0.3272 -0.1216 -0.5192
  577SOL    HW2 2306   0.679   2.041   1.321 -0.2639  0.1663 -0.4963
  577SOL    HW3 2307   0.590   2.021   1.200  0.1904  0.6994 -0.9190
  577SOL    MW4 2308   0.667   2.043   1.235  0.2312  0.0247 -0.5689
  578SOL     OW 2309   0.747   2.308   1.152 -0.5386  0.2388  0.2142
  578SOL    HW2 2310   0.670   2.353   1.187  0.3839  0.8551  1.5370
  578SOL    HW3 2311   0.738   2.218   1.181 -0.7025  0.3428  0.4922
  578SOL    MW4 2312   0.736   2.302   1.160 -0.4385  0.3338  0.4254
  579SOL     OW 2313   0.484   2.408   1.225 -0.0332 -0.0834  0.4669
  579SOL    HW2 2314   0.477   2.410   1.321 -0.4464  0.7173  0.4267
  579SOL    HW3 2315   0.490   2.500   1.200  0.1947 -0.3013 -0.2685
  579SOL    MW4 2316   0.484   2.420   1.235 -0.0576 -0.0065  0.3646
  580SOL     OW 2317   0.493   2.694   1.170 -0.2453 -0.1041  0.2070
  580SOL    HW2 2318   0.410   2.735   1.194 -0.3488  0.3232 -0.8448
  580SOL    HW3 2319   0.492   2.692   1.074 -0.1143 -2.3235  0.2292
  580SOL    MW4 2320   0.482   2.699   1.161 -0.2417 -0.3406  0.0711
  581SOL     OW 2321   0.716   2.868   1.230 -0.1848  0.0238  0.0687
  581SOL    HW2 2322   0.714   2.957   1.193  1.4426  0.4035  0.8155
  581SOL    HW3 2323   0.631   2.831   1.208 -1.2945  2.1247  0.6222
  581SOL    MW4 2324   0.705   2.875   1.222 -0.1165  0.3511  0.2403
  582SOL     OW 2325   0.659   3.113   1.098 -0.0522  0.3094 -0.1197
  582SOL    HW2 2326   0.733   3.163   1.132 -0.4315  0.8403 -0.0805
  582SOL    HW3 2327   0.670   3.114   1.003 -0.3347  0.8889 -0.1457
  582SOL    MW4 2328   0.670   3.119   1.090 -0.1395  0.4559 -0.1180
  583SOL     OW 2329   0.453   3.205   1.237  0.0179  0.4181  0.2645
  583SOL    HW2 2330   0.434   3.294   1.208  0.3192  0.4438  0.1496
  583SOL    HW3 2331   0.524   3.175   1.180 -0.9478 -0.3597 -0.5404
  583SOL    MW4 2332   0.460   3.213   1.226 -0.0698  0.3188  0.1432
  584SOL     OW 2333   0.434   3.459   1.133 -0.1569  0.5735  0.2594
  584SOL    HW2 2334   0.499   3.518   1.170 -0.0481  0.3606  0.4083
  584SOL    HW3 2335   0.350   3.493   1.166 -0.1290  0.8961 -0.0012
  584SOL    MW4 2336   0.432   3.471   1.142 -0.1389  0.5879  0.2447
  585SOL     OW 2337   0.631   3.608   1.254  0.1372  0.7021  0.1540
  585SOL    HW2 2338   0.659   3.593   1.344  2.7119 -0.9127 -0.8509
  585SOL    HW3 2339   0.630   3.703   1.245 -0.2673  0.8831  1.9132
  585SOL    MW4 2340   0.634   3.619   1.265  0.4236  0.5129  0.2535
  586SOL     OW 2341   0.678   3.871   1.155  0.6846  0.2249 -0.3481
  586SOL    HW2 2342   0.602   3.925   1.179  0.9830  0.8077 -0.7077
  586SOL    HW3 2343   0.686   3.882   1.060  1.0476 -0.0675 -0.3514
  586SOL    MW4 2344   0.669   3.880   1.145  0.7718  0.2632 -0.3960
  587SOL     OW 2345   0.431   4.002   1.258  0.2422 -0.2106 -0.0164
  587SOL    HW2 2346   0.441   4.093   1.231  1.3737 -0.0944  0.7218
  587SOL    HW3 2347   0.354   3.970   1.212  0.0982  1.0002 -0.6085
  587SOL    MW4 2348   0.422   4.010   1.249  0.3725 -0.0355  0.0029
  588SOL     OW 2349   0.445   4.267   1.179  0.3055 -0.2514 -0.4347
  588SOL    HW2 2350   0.517   4.322   1.207  0.5476 -0.8684  0.1741
  588SOL    HW3 2351   0.366   4.312   1.211  0.4147  0.4551 -1.1624
  588SOL    MW4 2352   0.444   4.280   1.187  0.3519 -0.2396 -0.4504
  589SOL     OW 2353   0.679   4.424   1.244 -0.3192  0.0626 -0.4808
  589SOL    HW2 2354   0.687   4.424   1.339 -0.1121  0.1136 -0.4969
  589SOL    HW3 2355   0.760   4.384   1.213 -0.3557  0.1095 -0.6367
  589SOL    MW4 2356   0.691   4.419   1.252 -0.2967  0.0755 -0.5035
  590SOL     OW 2357   1.088   0.014   1.203  0.1717  0.5739  0.6207
  590SOL    HW2 2358   1.109  -0.079   1.196  1.1884  0.7389  1.4020
  590SOL    HW3 2359   1.066   0.040   1.113 -0.1643 -0.4207  0.4082
  590SOL    MW4 2360   1.088   0.005   1.190  0.2615  0.4645  0.6957
  591SOL     OW 2361   0.846   0.133   1.285  0.1127  0.5708 -0.0148
  591SOL    HW2 2362   0.849   0.159   1.377  0.0547  3.1042 -0.6954
  591SOL    HW3 2363   0.923   0.078   1.273  0.1366  0.2408  1.5379
  591SOL    MW4 2364   0.857   0.129   1.296  0.1082  0.8615  0.1003
  592SOL     OW 2365   0.881   0.393   1.169  0.5384 -0.3570 -0.4824
  592SOL    HW2 2366   0.877   0.302   1.195 -1.5896 -0.0599  0.3476
  592SOL    HW3 2367   0.808   0.435   1.214  0.7507  1.5131 -1.7722
  592SOL    MW4 2368   0.871   0.387   1.178  0.2856 -0.0711 -0.5431
  593SOL     OW 2369   1.131   0.506   1.227  0.2607 -0.3429 -0.4263
  593SOL    HW2 2370   1.149   0.495   1.320  2.4191 -2.3153 -1.0263
  593SOL    HW3 2371   1.046   0.463   1.213  0.3708 -0.8449  0.4576
  593SOL    MW4 2372   1.122   0.499   1.237  0.5600 -0.6694 -0.3889
  594SOL     OW 2373   1.139   0.781   1.158  0.1533 -0.0851  0.2698
  594SOL    HW2 2374   1.079   0.837   1.208 -0.2024 -0.0097 -0.2380
  594SOL    HW3 2375   1.121   0.692   1.190 -0.3859 -0.0885 -0.0404
  594SOL    MW4 2376   1.129   0.777   1.169  0.0352 -0.0756  0.1619
  595SOL     OW 2377   0.947   0.919   1.297  0.2416  0.2283 -0.2039
  595SOL    HW2 2378   0.940   1.009   1.265  0.0714  0.7184  1.1951
  595SOL    HW3 2379   0.869   0.875   1.261  1.3250  0.1086 -2.4920
  595SOL    MW4 2380   0.936   0.925   1.288  0.3621  0.2772 -0.3212
  596SOL     OW 2381   0.890   1.173   1.203  0.0016 -0.0326 -0.5151
  596SOL    HW2 2382   0.978   1.198   1.231  0.4749 -0.0436 -1.9348
  596SOL    HW3 2383   0.893   1.179   1.107 -1.0029 -1.7912 -0.6780
  596SOL    MW4 2384   0.902   1.177   1.194 -0.0685 -0.2661 -0.7239
  597SOL     OW 2385   1.154   1.294   1.262  0.0954  1.0401  0.4534
  597SOL    HW2 2386   1.175   1.301   1.355 -0.9716  0.0330  0.7897
  597SOL    HW3 2387   1.223   1.237   1.226 -1.3780 -1.3954  1.3380
  597SOL    MW4 2388   1.166   1.287   1.269 -0.2398  0.5859  0.6145
  598SOL     OW 2389   1.151   1.538   1.149  0.0142 -0.1902  0.1091
  598SOL    HW2 2390   1.160   1.451   1.187 -0.4182 -0.0598  0.5322
  598SOL    HW3 2391   1.138   1.523   1.056 -1.1843 -0.6403  0.3409
  598SOL    MW4 2392   1.150   1.525   1.142 -0.2010 -0.2324  0.1955
  599SOL     OW 2393   0.927   1.661   1.249 -0.4864 -0.3345  0.2658
  599SOL    HW2 2394   0.915   1.749   1.212 -0.2796 -0.3111  0.2526
  599SOL    HW3 2395   1.004   1.627   1.205 -0.0704 -0.1960  0.8766
  599SOL    MW4 2396   0.936   1.668   1.239 -0.4042 -0.3131  0.3447
  600SOL     OW 2397   0.911   1.919   1.147  0.3260  0.0715  0.4871
  600SOL    HW2 2398   0.977   1.976   1.187  0.5761  2.6705 -3.3083
  600SOL    HW3 2399   0.827   1.962   1.166 -0.0164 -1.2905  2.2170
  600SOL    MW4 2400   0.909   1.932   1.155  0.3138  0.2347  0.2146
  601SOL     OW 2401   1.102   2.073   1.267  0.3748  0.1953  0.1046
  601SOL    HW2 2402   1.112   2.061   1.361  0.1151  0.8656  0.2147
  601SOL    HW3 2403   1.134   2.161   1.250 -1.8556  1.0024 -0.0786
  601SOL    MW4 2404   1.108   2.083   1.277  0.0463  0.3902  0.0950
  602SOL     OW 2405   1.157   2.342   1.159 -0.1268  0.1557 -0.4351
  602SOL    HW2 2406   1.242   2.384   1.173  0.2715 -0.3901 -1.1792
  602SOL    HW3 2407   1.095   2.397   1.207  0.6356  0.5877  0.0804
  602SOL    MW4 2408   1.160   2.355   1.167  0.0263  0.1407 -0.4653
  603SOL     OW 2409   0.939   2.477   1.271  0.3451 -0.3825 -0.3171
  603SOL    HW2 2410   0.953   2.461   1.364 -0.2164 -0.0854 -0.1794
  603SOL    HW3 2411   0.866   2.420   1.248 -0.2140  0.3369 -0.3313
  603SOL    MW4 2412   0.931   2.468   1.280  0.1973 -0.2484 -0.3008
  604SOL     OW 2413   0.904   2.724   1.116 -0.0489  0.1028  0.3790
  604SOL    HW2 2414   0.888   2.642   1.163 -0.1363  0.4404  0.9343
  604SOL    HW3 2415   0.829   2.779   1.137 -0.5019 -0.0304 -0.8059
  604SOL    MW4 2416   0.892   2.720   1.125 -0.1202  0.1298  0.2959
  605SOL     OW 2417   1.114   2.836   1.261 -0.1166  0.4733  0.0753
  605SOL    HW2 2418   1.111   2.844   1.357  1.8147  0.1760  0.1864
  605SOL    HW3 2419   1.039   2.781   1.240 -0.7567  0.8061  1.3972
  605SOL    MW4 2420   1.104   2.830   1.271  0.0537  0.4780  0.2644
  606SOL     OW 2421   1.111   3.109   1.152  0.2418 -0.1900 -0.0198
  606SOL    HW2 2422   1.109   3.023   1.194  0.4715 -0.3025 -0.2374
  606SOL    HW3 2423   1.139   3.091   1.062  1.5578  0.2514  0.2840
  606SOL    MW4 2424   1.115   3.095   1.146  0.4457 -0.1466 -0.0084
  607SOL     OW 2425   0.875   3.226   1.218 -0.2107 -0.0186  0.2718
  607SOL    HW2 2426   0.885   3.320   1.203 -0.2860  0.0992  0.9345
  607SOL    HW3 2427   0.948   3.186   1.171  0.7525  0.4915  1.2985
  607SOL    MW4 2428   0.886   3.233   1.210 -0.0936  0.0642  0.4947
  608SOL     OW 2429   0.884   3.496   1.168  0.1308  0.4789  0.0053
  608SOL    HW2 2430   0.801   3.539   1.187 -0.0250 -0.0935  0.6172
  608SOL    HW3 2431   0.880   3.477   1.074 -1.0067 -0.7882  0.2979
  608SOL    MW4 2432   0.873   3.499   1.158 -0.0398  0.2362  0.1247
  609SOL     OW 2433   1.103   3.642   1.208 -0.3113 -0.1475 -0.2457
  609SOL    HW2 2434   1.166   3.572   1.192 -1.2803 -1.2797  0.7921
  609SOL    HW3 2435   1.018   3.602   1.191 -0.8887  0.7153  0.5570
  609SOL    MW4 2436   1.100   3.628   1.203 -0.5153 -0.1831 -0.0028
  610SOL     OW 2437   1.132   3.901   1.117  0.4933  0.2985  0.2414
  610SOL    HW2 2438   1.042   3.927   1.135  0.7515  0.5104  1.2896
  610SOL    HW3 2439   1.140   3.814   1.156  1.0522  0.7406  1.1340
  610SOL    MW4 2440   1.121   3.893   1.125  0.6011  0.3848  0.4975
  611SOL     OW 2441   0.871   4.054   1.183 -0.1084  0.0038  0.4575
  611SOL    HW2 2442   0.880   4.049   1.279 -0.2662 -1.6952  0.4016
  611SOL    HW3 2443   0.803   3.990   1.162  0.7013 -0.4267 -0.9005
  611SOL    MW4 2444   0.863   4.045   1.193 -0.0224 -0.2771  0.2710
  612SOL     OW 2445   0.902   4.324   1.097  0.0152  0.1532 -0.2758
  612SOL    HW2 2446   0.889   4.231   1.117 -0.0684  0.5172  1.3833
  612SOL    HW3 2447   0.852   4.338   1.016 -0.9952 -0.9561  0.1504
  612SOL    MW4 2448   0.894   4.313   1.089 -0.1292  0.0549 -0.0007
  613SOL     OW 2449   1.151   4.398   1.208  0.0762 -0.4111  0.5127
  613SOL    HW2 2450   1.138   4.395   1.303  0.0270 -1.6407  0.4685
  613SOL    HW3 2451   1.067   4.370   1.172 -0.2448  1.0442  0.0732
  613SOL    MW4 2452   1.138   4.394   1.216  0.0274 -0.3813  0.4488
  614SOL     OW 2453   1.593   0.003   1.191  0.0741  0.4799  0.4338
  614SOL    HW2 2454   1.677   0.026   1.230 -0.0755  0.8291  0.5500
  614SOL    HW3 2455   1.594  -0.093   1.187  0.1932  0.4516  1.0642
  614SOL    MW4 2456   1.604  -0.006   1.195  0.0701  0.5223  0.5324
  615SOL     OW 2457   1.350   0.107   1.280  0.0234  0.2436 -0.2687
  615SOL    HW2 2458   1.422   0.058   1.240 -0.6994 -0.8936 -0.1874
  615SOL    HW3 2459   1.271   0.072   1.239 -0.5924  0.4394  0.7426
  615SOL    MW4 2460   1.350   0.096   1.269 -0.1532  0.1194 -0.1246
  616SOL     OW 2461   1.349   0.364   1.150  0.1464  0.3130  0.4830
  616SOL    HW2 2462   1.342   0.281   1.196 -0.6588  0.0959 -0.0257
  616SOL    HW3 2463   1.265   0.408   1.165  0.4719  0.9227  0.5389
  616SOL    MW4 2464   1.337   0.359   1.158  0.0831  0.3648  0.4233
  617SOL     OW 2465   1.591   0.455   1.270 -0.3485  0.4412  0.1621
  617SOL    HW2 2466   1.609   0.541   1.232  0.7088 -0.3548 -1.1602
  617SOL    HW3 2467   1.504   0.432   1.237 -1.1486  1.4924  1.4614
  617SOL    MW4 2468   1.582   0.464   1.261 -0.3146  0.4748  0.1591
  618SOL     OW 2469   1.623   0.722   1.194  0.7046 -0.4449  0.5038
  618SOL    HW2 2470   1.684   0.785   1.232 -0.2046 -0.0915  1.4134
  618SOL    HW3 2471   1.615   0.748   1.103  0.3187  0.7815  0.8819
  618SOL    MW4 2472   1.630   0.734   1.187  0.5337 -0.2364  0.6737
  619SOL     OW 2473   1.405   0.875   1.235 -0.1448  0.0838  0.1483
  619SOL    HW2 2474   1.464   0.802   1.214  0.4375  1.0300 -1.6559
  619SOL    HW3 2475   1.318   0.842   1.211 -0.0157 -0.3941  0.3329
  619SOL    MW4 2476   1.401   0.861   1.229 -0.0509  0.1456 -0.0654
  620SOL     OW 2477   1.371   1.153   1.188  0.1759 -0.2888  0.4704
  620SOL    HW2 2478   1.383   1.061   1.209 -1.3978 -0.4626  0.6173
  620SOL    HW3 2479   1.366   1.156   1.092 -3.2612 -0.8253  0.5620
  620SOL    MW4 2480   1.372   1.142   1.178 -0.4852 -0.3825  0.5019
  621SOL     OW 2481   1.596   1.276   1.311  0.0157  0.0579  0.3875
  621SOL    HW2 2482   1.678   1.251   1.269  0.9910  1.8191  1.1972
  621SOL    HW3 2483   1.530   1.222   1.268  1.5080 -0.9599 -0.6828
  621SOL    MW4 2484   1.598   1.266   1.300  0.3412  0.1560  0.3531
  622SOL     OW 2485   1.567   1.528   1.197  0.0968  0.4232  0.1779
  622SOL    HW2 2486   1.658   1.556   1.207  0.7138 -1.1666 -0.6910
  622SOL    HW3 2487   1.562   1.445   1.245 -0.5925 -0.0484 -0.6907
  622SOL    MW4 2488   1.578   1.520   1.204  0.0873  0.1512 -0.0513
  623SOL     OW 2489   1.350   1.687   1.258 -0.1402  0.2126  0.1191
  623SOL    HW2 2490   1.417   1.621   1.237 -0.8086 -0.1547 -0.8958
  623SOL    HW3 2491   1.268   1.647   1.229 -0.6978  0.9996  0.6174
  623SOL    MW4 2492   1.348   1.673   1.252 -0.3019  0.2680  0.0510
  624SOL     OW 2493   1.327   1.940   1.182 -0.2728  0.4441 -0.3442
  624SOL    HW2 2494   1.326   1.851   1.219  0.6184  0.5202 -0.1248
  624SOL    HW3 2495   1.247   1.980   1.214 -0.2109  0.0280  0.3482
  624SOL    MW4 2496   1.317   1.933   1.191 -0.1471  0.3993 -0.2239
  625SOL     OW 2497   1.564   2.086   1.281 -0.1800  0.2246  0.3101
  625SOL    HW2 2498   1.570   2.161   1.222  1.1049  0.4925  0.7754
  625SOL    HW3 2499   1.489   2.036   1.248 -0.2738  1.0456 -0.7572
  625SOL    MW4 2500   1.555   2.090   1.269 -0.0229  0.3683  0.2307
  626SOL     OW 2501   1.613   2.300   1.117 -0.4579  0.2785  0.3376
  626SOL    HW2 2502   1.557   2.357   1.170 -0.1315  0.8914  0.0243
  626SOL    HW3 2503   1.581   2.311   1.028 -1.1151 -0.8827  0.4144
  626SOL    MW4 2504   1.601   2.309   1.112 -0.5016  0.2062  0.3064
  627SOL     OW 2505   1.401   2.452   1.212  0.3591 -0.2573  0.0623
  627SOL    HW2 2506   1.384   2.439   1.306 -0.5814  0.1928 -0.0490
  627SOL    HW3 2507   1.402   2.547   1.200  0.2734 -0.3178 -0.4313
  627SOL    MW4 2508   1.399   2.463   1.223  0.2237 -0.2059 -0.0175
  628SOL     OW 2509   1.342   2.716   1.143  0.2523 -0.5185 -0.0603
  628SOL    HW2 2510   1.414   2.764   1.183 -0.4863 -0.6727  1.5128
  628SOL    HW3 2511   1.264   2.746   1.190 -0.2089 -3.3995  1.1568
  628SOL    MW4 2512   1.341   2.726   1.155  0.0940 -0.9190  0.3078
  629SOL     OW 2513   1.574   2.807   1.259 -0.0053 -0.9620  0.0338
  629SOL    HW2 2514   1.640   2.758   1.210  0.3873 -2.2340  1.7883
  629SOL    HW3 2515   1.593   2.899   1.239  2.0402 -1.3301  0.1802
  629SOL    MW4 2516   1.585   2.813   1.250  0.3164 -1.1784  0.2846
  630SOL     OW 2517   1.585   3.062   1.163  0.2250 -0.5629 -0.6227
  630SOL    HW2 2518   1.659   3.118   1.189  1.8044 -2.2564 -1.3267
  630SOL    HW3 2519   1.508   3.113   1.184  1.6038  1.2504  0.1946
  630SOL    MW4 2520   1.585   3.076   1.169  0.6153 -0.5471 -0.6078
  631SOL     OW 2521   1.352   3.203   1.216 -0.3907  0.3538 -0.4365
  631SOL    HW2 2522   1.358   3.216   1.311 -0.4429  0.9753 -0.5166
  631SOL    HW3 2523   1.260   3.179   1.201 -0.5507  0.9121 -0.3997
  631SOL    MW4 2524   1.340   3.202   1.227 -0.4187  0.5095 -0.4422
  632SOL     OW 2525   1.323   3.481   1.138  0.0380  0.0982 -0.0980
  632SOL    HW2 2526   1.348   3.391   1.158 -0.9210  0.0478  0.9367
  632SOL    HW3 2527   1.334   3.489   1.043 -0.2460 -1.2287 -0.2509
  632SOL    MW4 2528   1.327   3.470   1.128 -0.1260 -0.0835  0.0184
  633SOL     OW 2529   1.544   3.618   1.286  0.1180 -0.0023 -0.1142
  633SOL    HW2 2530   1.562   3.707   1.257  0.4007  0.6360  1.9086
  633SOL    HW3 2531   1.461   3.595   1.245  0.0900  1.1488 -0.7256
  633SOL    MW4 2532   1.536   3.627   1.277  0.1516  0.2338  0.0721
  634SOL     OW 2533   1.584   3.882   1.144 -0.1821  0.3716 -0.1253
  634SOL    HW2 2534   1.509   3.938   1.165 -0.4694 -0.4899  1.2205
  634SOL    HW3 2535   1.573   3.862   1.051 -1.7082  0.1401  0.0891
  634SOL    MW4 2536   1.573   3.887   1.134 -0.4214  0.2274  0.0806
  635SOL     OW 2537   1.351   4.026   1.253  0.0365  0.1591  0.4828
  635SOL    HW2 2538   1.360   4.107   1.202 -0.0804 -0.1513 -0.0289
  635SOL    HW3 2539   1.283   3.976   1.207  2.2506 -1.5984 -1.0092
  635SOL    MW4 2540   1.343   4.030   1.240  0.3132 -0.1137  0.2184
  636SOL     OW 2541   1.362   4.248   1.088 -0.5620  0.2277  0.3689
  636SOL    HW2 2542   1.282   4.294   1.115 -0.3291  0.6962  0.2621
  636SOL    HW3 2543   1.379   4.280   0.999 -0.7585 -0.5454  0.0572
  636SOL    MW4 2544   1.354   4.259   1.080 -0.5572  0.1875  0.3137
  637SOL     OW 2545   1.568   4.388   1.209 -0.2653  0.5619  0.2754
  637SOL    HW2 2546   1.551   4.378   1.303  0.3399 -0.6859  0.2692
  637SOL    HW3 2547   1.498   4.338   1.167 -0.7604  1.4403  0.0393
  637SOL    MW4 2548   1.556   4.380   1.216 -0.2507  0.5132  0.2434
  638SOL     OW 2549   2.033   4.636   1.159  0.2015 -0.2173 -0.2122
  638SOL    HW2 2550   2.028   4.542   1.176 -0.4144 -0.4357 -1.4972
  638SOL    HW3 2551   2.036   4.643   1.063  3.3626  0.9289 -0.0941
  638SOL    MW4 2552   2.033   4.625   1.148  0.5373 -0.0949 -0.3661
  639SOL     OW 2553   1.828   0.078   1.310 -0.1588 -0.1758  0.4401
  639SOL    HW2 2554   1.821   0.162   1.265 -0.0930  0.4607  1.6119
  639SOL    HW3 2555   1.908   0.039   1.274  0.7978  1.0551  1.1997
  639SOL    MW4 2556   1.838   0.084   1.299 -0.0239  0.0705  0.6949
  640SOL     OW 2557   1.831   0.331   1.186 -0.0855 -0.5936  0.6294
  640SOL    HW2 2558   1.748   0.369   1.213 -0.2789 -0.8864  0.4556
  640SOL    HW3 2559   1.829   0.334   1.090  0.6533  0.5685  0.6351
  640SOL    MW4 2560   1.820   0.336   1.177 -0.0136 -0.4789  0.6073
  641SOL     OW 2561   2.021   0.520   1.274 -0.4032  0.4989  0.4176
  641SOL    HW2 2562   2.028   0.506   1.369 -1.3370  0.3418  0.4709
  641SOL    HW3 2563   1.954   0.458   1.246 -0.0530  0.4757 -0.3671
  641SOL    MW4 2564   2.013   0.510   1.283 -0.4802  0.4751  0.3211
  642SOL     OW 2565   2.014   0.780   1.151 -0.6308 -0.5391 -0.1270
  642SOL    HW2 2566   2.021   0.687   1.173 -1.5585 -0.4046  0.7466
  642SOL    HW3 2567   2.000   0.781   1.056 -2.2737 -1.3693  0.0913
  642SOL    MW4 2568   2.013   0.768   1.142 -0.9700 -0.6309  0.0171
  643SOL     OW 2569   1.806   0.899   1.296 -0.0593  0.4632 -0.5196
  643SOL    HW2 2570   1.834   0.899   1.388  0.5403  0.9556 -0.7069
  643SOL    HW3 2571   1.876   0.854   1.249 -0.2995  0.3386 -0.7597
  643SOL    MW4 2572   1.819   0.893   1.302 -0.0119  0.5117 -0.5760
  644SOL     OW 2573   1.830   1.160   1.208 -0.1090  0.1588 -0.0172
  644SOL    HW2 2574   1.798   1.072   1.229  2.2032 -1.1058 -1.5375
  644SOL    HW3 2575   1.794   1.178   1.121 -0.6902  0.8014  0.3493
  644SOL    MW4 2576   1.821   1.150   1.199  0.1194  0.0767 -0.1694
  645SOL     OW 2577   2.068   1.282   1.273  0.3440  0.4065 -0.2298
  645SOL    HW2 2578   2.149   1.240   1.244  0.0521  1.5539 -2.8443
  645SOL    HW3 2579   1.998   1.223   1.244  0.0584  1.4859 -1.8132
  645SOL    MW4 2580   2.070   1.269   1.265  0.2678  0.7003 -0.7837
  646SOL     OW 2581   2.060   1.562   1.220  0.0764 -0.1250 -0.2055
  646SOL    HW2 2582   2.056   1.468   1.239  0.3742 -0.3543 -1.2508
  646SOL    HW3 2583   2.049   1.568   1.126 -3.5148  1.1703  0.2123
  646SOL    MW4 2584   2.058   1.550   1.210 -0.3581  0.0157 -0.2883
  647SOL     OW 2585   1.811   1.682   1.249 -0.1548 -0.1087 -0.1390
  647SOL    HW2 2586   1.827   1.775   1.233 -0.3888 -0.2047 -0.9678
  647SOL    HW3 2587   1.897   1.641   1.238  0.2039  0.1775  1.5372
  647SOL    MW4 2588   1.824   1.689   1.245 -0.1384 -0.0836 -0.0272
  648SOL     OW 2589   1.798   1.960   1.174  0.1437 -0.1063 -0.3146
  648SOL    HW2 2590   1.720   2.004   1.208  2.7909  3.2804  1.6005
  648SOL    HW3 2591   1.798   1.980   1.080 -1.5204 -0.6397 -0.4641
  648SOL    MW4 2592   1.788   1.968   1.166  0.2734  0.2702 -0.0817
  649SOL     OW 2593   2.060   2.062   1.199 -0.2553 -0.2267 -0.0690
  649SOL    HW2 2594   2.051   2.079   1.292  0.1734 -1.4218  0.1958
  649SOL    HW3 2595   1.982   2.012   1.175 -0.8348  0.8975 -0.5560
  649SOL    MW4 2596   2.049   2.058   1.208 -0.2752 -0.2361 -0.0984
  650SOL     OW 2597   2.105   2.324   1.077  0.3965 -0.1331 -0.1197
  650SOL    HW2 2598   2.160   2.362   1.145 -1.5529  0.3943  1.1807
  650SOL    HW3 2599   2.111   2.229   1.091  1.1427 -0.0919 -0.1427
  650SOL    MW4 2600   2.113   2.316   1.088  0.2378 -0.0581  0.0488
  651SOL     OW 2601   1.843   2.433   1.175 -0.2360  0.3291 -0.6127
  651SOL    HW2 2602   1.915   2.395   1.125  0.0446  0.9824 -0.7098
  651SOL    HW3 2603   1.768   2.377   1.156  0.2814 -0.4367 -0.3960
  651SOL    MW4 2604   1.843   2.421   1.166 -0.1307  0.3143 -0.5969
  652SOL     OW 2605   1.800   2.700   1.118 -0.5764  1.0593 -0.0853
  652SOL    HW2 2606   1.820   2.610   1.145  1.2418  1.7445  0.8961
  652SOL    HW3 2607   1.797   2.695   1.022  2.2761  0.4948 -0.1787
  652SOL    MW4 2608   1.802   2.687   1.109  0.0398  1.0752  0.0319
  653SOL     OW 2609   2.015   2.832   1.224  0.0176 -0.6163 -0.2304
  653SOL    HW2 2610   2.016   2.921   1.188 -0.7446 -0.1057  0.9686
  653SOL    HW3 2611   1.944   2.789   1.177 -0.2271 -0.2933 -0.1646
  653SOL    MW4 2612   2.006   2.838   1.213 -0.1152 -0.5063 -0.0635
  654SOL     OW 2613   2.031   3.077   1.106 -0.1217  0.0874  0.4251
  654SOL    HW2 2614   1.958   3.129   1.137 -0.0847  0.3036  0.1522
  654SOL    HW3 2615   2.030   3.087   1.011  0.1579 -0.0450  0.4052
  654SOL    MW4 2616   2.021   3.085   1.098 -0.0799  0.0984  0.3865
  655SOL     OW 2617   1.814   3.221   1.207  0.5723 -0.2544  0.4454
  655SOL    HW2 2618   1.801   3.220   1.302 -2.9617  1.0209  0.0803
  655SOL    HW3 2619   1.808   3.313   1.183  1.6006 -0.5507 -0.9996
  655SOL    MW4 2620   1.811   3.233   1.217  0.2417 -0.1252  0.2066
  656SOL     OW 2621   1.766   3.475   1.142 -0.6068  0.5729 -0.2631
  656SOL    HW2 2622   1.835   3.540   1.152 -0.7882  0.8196 -0.6271
  656SOL    HW3 2623   1.687   3.517   1.178 -0.7671  0.6325 -0.6786
  656SOL    MW4 2624   1.764   3.489   1.148 -0.6519  0.6133 -0.3659
  657SOL     OW 2625   1.979   3.631   1.212  0.1578 -0.2164 -0.1105
  657SOL    HW2 2626   1.981   3.609   1.305  0.2544 -0.2142 -0.1113
  657SOL    HW3 2627   2.062   3.597   1.178 -0.0837 -0.6271 -0.2880
  657SOL    MW4 2628   1.990   3.624   1.220  0.1387 -0.2703 -0.1341
  658SOL     OW 2629   2.016   3.887   1.132 -0.4306  0.2777  0.4396
  658SOL    HW2 2630   1.948   3.944   1.168 -0.7835 -0.5170  1.0517
  658SOL    HW3 2631   1.988   3.798   1.155 -0.9117 -0.3086 -2.2226
  658SOL    MW4 2632   2.003   3.883   1.140 -0.5407  0.0955  0.1691
  659SOL     OW 2633   1.796   4.030   1.220  0.0087  0.2748  0.2355
  659SOL    HW2 2634   1.797   4.006   1.313  1.7734 -1.1393 -0.1229
  659SOL    HW3 2635   1.717   3.988   1.187 -0.0842 -0.0848  0.8860
  659SOL    MW4 2636   1.786   4.021   1.228  0.2292  0.0408  0.2741
  660SOL     OW 2637   1.789   4.280   1.109 -0.0152  0.3989 -0.0020
  660SOL    HW2 2638   1.778   4.192   1.146  0.2819  0.6864  0.7670
  660SOL    HW3 2639   1.708   4.326   1.132  0.4321  0.7716  0.8309
  660SOL    MW4 2640   1.777   4.274   1.117  0.0830  0.4860  0.2093
  661SOL     OW 2641   2.025   4.368   1.222  0.0174 -0.0876 -0.0307
  661SOL    HW2 2642   2.007   4.379   1.315  0.5801  1.4299 -0.0857
  661SOL    HW3 2643   1.945   4.331   1.186 -0.0986 -0.9581  1.0984
  661SOL    MW4 2644   2.012   4.365   1.229  0.0764 -0.0023  0.1110
  662SOL     OW 2645   2.466   4.636   1.186  0.0868  0.3618  0.7559
  662SOL    HW2 2646   2.548   4.681   1.206  0.2040  0.9585 -0.9536
  662SOL    HW3 2647   2.398   4.691   1.226  0.4715  0.1782  1.6679
  662SOL    MW4 2648   2.468   4.649   1.194  0.1531  0.4163  0.6507
  663SOL     OW 2649   2.242   0.112   1.292  0.1764 -0.3166  0.1374
  663SOL    HW2 2650   2.233   0.199   1.254 -0.1497  0.3777  1.7409
  663SOL    HW3 2651   2.176   0.059   1.248 -0.4917  0.5767  0.0544
  663SOL    MW4 2652   2.232   0.116   1.282  0.0452 -0.1071  0.3380
  664SOL     OW 2653   2.214   0.357   1.185  0.0252  0.4080  0.4088
  664SOL    HW2 2654   2.157   0.424   1.223 -1.0599 -0.2240 -0.0825
  664SOL    HW3 2655   2.211   0.373   1.091  0.0832 -0.0580  0.3235
  664SOL    MW4 2656   2.206   0.368   1.178 -0.1103  0.2631  0.3327
  665SOL     OW 2657   2.428   0.516   1.240  0.3087  0.0368  0.1967
  665SOL    HW2 2658   2.428   0.510   1.335 -0.8112  0.0417  0.2102
  665SOL    HW3 2659   2.353   0.462   1.213 -0.1787  1.0924 -0.5942
  665SOL    MW4 2660   2.418   0.508   1.249  0.0966  0.1767  0.0941
  666SOL     OW 2661   2.472   0.753   1.129  0.0677 -0.6872  0.3074
  666SOL    HW2 2662   2.442   0.662   1.141  0.4633 -0.9297 -0.5076
  666SOL    HW3 2663   2.483   0.762   1.035  0.9518 -0.0815  0.4652
  666SOL    MW4 2664   2.470   0.742   1.118  0.2365 -0.6393  0.2207
  667SOL     OW 2665   2.257   0.895   1.243 -0.0720  0.4911 -0.0440
  667SOL    HW2 2666   2.329   0.849   1.199  0.9192  1.2019  0.8201
  667SOL    HW3 2667   2.179   0.845   1.219  0.7722 -0.6132 -0.5503
  667SOL    MW4 2668   2.256   0.882   1.234  0.1702  0.4392  0.0032
  668SOL     OW 2669   2.262   1.143   1.122 -0.1404 -0.0814  0.0522
  668SOL    HW2 2670   2.328   1.188   1.175 -1.6829  1.0677  1.0345
  668SOL    HW3 2671   2.251   1.058   1.164 -0.1187  0.1657  0.5616
  668SOL    MW4 2672   2.269   1.138   1.134 -0.3411  0.1028  0.2490
  669SOL     OW 2673   2.504   1.254   1.257 -0.2270 -0.5165 -0.0534
  669SOL    HW2 2674   2.563   1.201   1.204 -0.5607 -0.8266 -0.1232
  669SOL    HW3 2675   2.522   1.344   1.231  0.0740 -0.6231 -0.2151
  669SOL    MW4 2676   2.514   1.259   1.247 -0.2313 -0.5715 -0.0839
  670SOL     OW 2677   2.483   1.505   1.128 -0.7812 -0.4289 -0.4582
  670SOL    HW2 2678   2.416   1.558   1.171  0.2223  2.0280 -1.8417
  670SOL    HW3 2679   2.452   1.496   1.038 -0.8537 -2.1149 -0.2876
  670SOL    MW4 2680   2.470   1.511   1.122 -0.6584 -0.3272 -0.6183
  671SOL     OW 2681   2.300   1.692   1.270 -0.3602 -0.0709  0.3834
  671SOL    HW2 2682   2.303   1.775   1.223 -1.9616 -0.4240 -0.3874
  671SOL    HW3 2683   2.211   1.659   1.254 -0.0419 -1.4828  1.4418
  671SOL    MW4 2684   2.289   1.699   1.262 -0.5295 -0.3038  0.4213
  672SOL     OW 2685   2.269   1.915   1.119  0.0028  0.2119 -0.0622
  672SOL    HW2 2686   2.200   1.970   1.156  0.4648  1.5601 -1.1532
  672SOL    HW3 2687   2.246   1.909   1.026  0.8975 -0.0189 -0.2679
  672SOL    MW4 2688   2.257   1.922   1.112  0.1818  0.3593 -0.2333
  673SOL     OW 2689   2.482   2.068   1.245  0.6179 -0.2804 -0.2744
  673SOL    HW2 2690   2.558   2.041   1.194  0.2298 -0.0270 -0.9986
  673SOL    HW3 2691   2.408   2.025   1.202  0.5541 -2.0381  1.5621
  673SOL    MW4 2692   2.482   2.059   1.232  0.5582 -0.4789 -0.1276
  674SOL     OW 2693   2.475   2.361   1.143 -0.2604 -0.1480  0.5650
  674SOL    HW2 2694   2.458   2.273   1.178 -0.9796 -0.6088 -0.8979
  674SOL    HW3 2695   2.462   2.351   1.048  1.7042  1.0555  0.1633
  674SOL    MW4 2696   2.471   2.348   1.135 -0.0961 -0.0500  0.3190
  675SOL     OW 2697   2.255   2.466   1.259 -0.3239 -0.1806  0.1859
  675SOL    HW2 2698   2.247   2.449   1.352 -0.3179 -0.3657  0.1534
  675SOL    HW3 2699   2.341   2.430   1.235 -1.0890 -1.7699 -0.2475
  675SOL    MW4 2700   2.266   2.459   1.268 -0.4240 -0.4147  0.1244
  676SOL     OW 2701   2.248   2.728   1.150 -0.1154 -0.4124 -1.3175
  676SOL    HW2 2702   2.248   2.639   1.187 -1.1194 -0.0671 -0.4681
  676SOL    HW3 2703   2.162   2.763   1.174  0.1151  0.6309 -2.0365
  676SOL    MW4 2704   2.236   2.721   1.158 -0.2175 -0.2292 -1.3003
  677SOL     OW 2705   2.461   2.860   1.299  0.8561 -0.1007  0.3309
  677SOL    HW2 2706   2.458   2.856   1.395  1.5642 -2.3995  0.2873
  677SOL    HW3 2707   2.393   2.799   1.270  0.5431  0.6910 -0.6444
  677SOL    MW4 2708   2.451   2.852   1.308  0.9082 -0.2996  0.1965
  678SOL     OW 2709   2.469   3.119   1.165  0.1313  0.0751  0.4777
  678SOL    HW2 2710   2.392   3.168   1.195 -0.7649 -0.6825 -0.5750
  678SOL    HW3 2711   2.462   3.034   1.209 -0.4140 -0.5182 -0.7581
  678SOL    MW4 2712   2.458   3.115   1.175 -0.0589 -0.1031  0.1758
  679SOL     OW 2713   2.223   3.258   1.208 -0.1660  0.3694 -0.6175
  679SOL    HW2 2714   2.214   3.340   1.158  2.2724  0.1108 -1.5617
  679SOL    HW3 2715   2.173   3.194   1.158  0.2001  0.6870 -1.4049
  679SOL    MW4 2716   2.216   3.261   1.194  0.2040  0.3772 -0.8460
  680SOL     OW 2717   2.215   3.514   1.095  0.5702 -1.1571  0.3903
  680SOL    HW2 2718   2.294   3.546   1.137  0.7358  0.7963 -1.3469
  680SOL    HW3 2719   2.238   3.506   1.002 -1.2104 -0.6606 -0.1222
  680SOL    MW4 2720   2.228   3.517   1.088  0.3571 -0.8338  0.0935
  681SOL     OW 2721   2.448   3.555   1.230  0.2903 -0.3230 -0.3209
  681SOL    HW2 2722   2.437   3.553   1.325  1.5675  0.0397 -0.1462
  681SOL    HW3 2723   2.471   3.646   1.211  1.8086 -0.7840 -0.7508
  681SOL    MW4 2724   2.450   3.567   1.240  0.6592 -0.3360 -0.3546
  682SOL     OW 2725   2.477   3.833   1.145 -0.4621  0.0098 -0.4760
  682SOL    HW2 2726   2.399   3.880   1.174 -0.8675 -0.4795 -0.7808
  682SOL    HW3 2727   2.468   3.826   1.050  0.1103  0.2330 -0.5522
  682SOL    MW4 2728   2.466   3.838   1.137 -0.4401 -0.0253 -0.5263
  683SOL     OW 2729   2.248   3.973   1.223 -0.2836 -0.2611 -0.0887
  683SOL    HW2 2730   2.255   4.067   1.203  1.5418 -0.2795  0.4572
  683SOL    HW3 2731   2.161   3.949   1.190 -0.7571  1.6079 -0.2845
  683SOL    MW4 2732   2.237   3.982   1.216 -0.1053 -0.0169 -0.0425
  684SOL     OW 2733   2.257   4.257   1.148  0.5072 -0.4110 -0.5723
  684SOL    HW2 2734   2.172   4.298   1.167  0.2004 -1.4363  0.3315
  684SOL    HW3 2735   2.260   4.250   1.053 -0.0301  0.4530 -0.6557
  684SOL    MW4 2736   2.246   4.261   1.138  0.3958 -0.4323 -0.4641
  685SOL     OW 2737   2.461   4.378   1.272 -0.0360  0.1592  0.6809
  685SOL    HW2 2738   2.389   4.335   1.226  1.2018 -0.4332 -0.7220
  685SOL    HW3 2739   2.450   4.471   1.251 -0.2355  0.0431  0.2805
  685SOL    MW4 2740   2.450   4.385   1.263  0.1010  0.0657  0.4430
  686SOL     OW 2741   2.943   0.029   1.156 -0.4626  0.7299 -0.2156
  686SOL    HW2 2742   2.938  -0.063   1.184 -0.7763  1.0908  0.9332
  686SOL    HW3 2743   2.937   0.025   1.061  2.1627 -0.6155 -0.3449
  686SOL    MW4 2744   2.941   0.016   1.147 -0.1576  0.6000 -0.0811
  687SOL     OW 2745   2.693   0.114   1.231 -0.0908 -0.0730 -0.1865
  687SOL    HW2 2746   2.687   0.095   1.325 -2.0485 -3.0050 -0.8200
  687SOL    HW3 2747   2.777   0.076   1.204 -0.4675 -1.0696  0.0163
  687SOL    MW4 2748   2.703   0.107   1.240 -0.3988 -0.5913 -0.2433
  688SOL     OW 2749   2.697   0.390   1.186 -0.4643 -0.2005 -0.4858
  688SOL    HW2 2750   2.687   0.296   1.202 -1.1876  0.0949  0.8571
  688SOL    HW3 2751   2.608   0.425   1.189 -0.0629  0.7786  0.7352
  688SOL    MW4 2752   2.684   0.382   1.188 -0.5067 -0.0324 -0.1475
  689SOL     OW 2753   2.945   0.497   1.288  0.1717 -0.1719  0.0505
  689SOL    HW2 2754   2.941   0.578   1.237  0.8421 -0.1259  0.0677
  689SOL    HW3 2755   2.861   0.454   1.271  0.4595 -0.2418 -1.2388
  689SOL    MW4 2756   2.933   0.502   1.279  0.2981 -0.1750 -0.1173
  690SOL     OW 2757   2.934   0.723   1.149 -0.1960  0.5408 -0.0198
  690SOL    HW2 2758   3.000   0.770   1.200 -0.0423  1.4454 -1.0312
  690SOL    HW3 2759   2.851   0.762   1.177 -0.1384  0.7918 -0.1929
  690SOL    MW4 2760   2.932   0.735   1.159 -0.1681  0.6933 -0.1761
  691SOL     OW 2761   2.686   0.879   1.255 -0.0455 -0.0916  0.3675
  691SOL    HW2 2762   2.701   0.958   1.203  2.0907 -0.8340 -0.2008
  691SOL    HW3 2763   2.621   0.829   1.205  0.8436 -0.0799 -0.8153
  691SOL    MW4 2764   2.680   0.883   1.241  0.3536 -0.1880  0.1364
  692SOL     OW 2765   2.688   1.122   1.095 -0.2209  0.3595  0.0800
  692SOL    HW2 2766   2.762   1.176   1.124 -0.8670  1.7926 -0.8475
  692SOL    HW3 2767   2.674   1.148   1.004 -0.9650 -0.9318 -0.1819
  692SOL    MW4 2768   2.696   1.133   1.087 -0.4043  0.3782 -0.0769
  693SOL     OW 2769   2.918   1.240   1.238 -0.0064 -0.3821  0.0146
  693SOL    HW2 2770   2.938   1.239   1.332  0.8543 -1.5201 -0.1646
  693SOL    HW3 2771   2.923   1.333   1.214 -1.3639  0.0511  1.3177
  693SOL    MW4 2772   2.922   1.252   1.247 -0.0720 -0.4751  0.1629
  694SOL     OW 2773   2.928   1.512   1.147  0.1866  0.1345 -0.1321
  694SOL    HW2 2774   3.000   1.558   1.192 -0.4253  0.4281  0.5615
  694SOL    HW3 2775   2.939   1.535   1.055  0.8011  0.4297  0.0111
  694SOL    MW4 2776   2.939   1.521   1.141  0.1869  0.2122 -0.0217
  695SOL     OW 2777   2.710   1.679   1.200  0.1432  0.2157  0.0229
  695SOL    HW2 2778   2.785   1.621   1.185  0.8979  1.6473 -1.8514
  695SOL    HW3 2779   2.634   1.626   1.176  0.7977 -0.1227 -1.3585
  695SOL    MW4 2780   2.710   1.664   1.195  0.3291  0.3600 -0.4067
  696SOL     OW 2781   2.703   1.947   1.096  0.1511  0.0851 -0.3447
  696SOL    HW2 2782   2.779   1.989   1.135  1.7351 -1.4375 -1.7525
  696SOL    HW3 2783   2.711   1.855   1.120 -0.1025 -0.4521 -2.2838
  696SOL    MW4 2784   2.714   1.941   1.104  0.3266 -0.1867 -0.7863
  697SOL     OW 2785   2.924   2.048   1.225 -0.1207  0.4312 -0.2796
  697SOL    HW2 2786   2.938   2.056   1.319  1.1625  2.1715 -0.5815
  697SOL    HW3 2787   2.926   2.139   1.193 -1.1955 -0.0905 -1.8902
  697SOL    MW4 2788   2.927   2.061   1.233 -0.0932  0.5920 -0.5319
  698SOL     OW 2789   2.929   2.304   1.145 -0.4692 -0.0652 -0.4313
  698SOL    HW2 2790   3.013   2.346   1.164  0.2870 -1.7226  0.0315
  698SOL    HW3 2791   2.865   2.354   1.196  0.5710 -0.1329  0.9704
  698SOL    MW4 2792   2.932   2.316   1.155 -0.2322 -0.2928 -0.1853
  699SOL     OW 2793   2.738   2.441   1.276  0.3339 -0.7681 -0.3575
  699SOL    HW2 2794   2.715   2.424   1.367 -1.2590 -1.8530 -0.9314
  699SOL    HW3 2795   2.655   2.438   1.229  1.4564 -3.4591 -2.3233
  699SOL    MW4 2796   2.724   2.438   1.282  0.2719 -1.2663 -0.6926
  700SOL     OW 2797   2.684   2.719   1.182 -0.3922  0.1431  0.2564
  700SOL    HW2 2798   2.715   2.643   1.231 -1.6067 -1.4361 -1.3537
  700SOL    HW3 2799   2.617   2.758   1.239  0.1250 -0.0790  1.0273
  700SOL    MW4 2800   2.679   2.714   1.196 -0.4842 -0.0946  0.1457
  701SOL     OW 2801   2.927   2.844   1.257  0.6498 -0.9052 -0.2485
  701SOL    HW2 2802   2.910   2.825   1.349 -0.1144  1.0845  0.0414
  701SOL    HW3 2803   2.851   2.808   1.211 -0.2386  0.3914  0.1787
  701SOL    MW4 2804   2.914   2.837   1.263  0.4318 -0.4716 -0.1539
  702SOL     OW 2805   2.962   3.077   1.124  0.1631  0.6598  0.2021
  702SOL    HW2 2806   2.957   2.994   1.172  1.6749  0.7906  0.6122
  702SOL    HW3 2807   2.975   3.050   1.033  0.9782  0.4265  0.3749
  702SOL    MW4 2808   2.963   3.062   1.118  0.4701  0.6463  0.2790
  703SOL     OW 2809   2.728   3.207   1.231  0.6101  0.1146 -0.1745
  703SOL    HW2 2810   2.793   3.157   1.182 -0.7268 -1.8614  0.0444
  703SOL    HW3 2811   2.645   3.162   1.215 -0.2489  0.8614  1.9589
  703SOL    MW4 2812   2.725   3.195   1.222  0.3204 -0.0476  0.1359
  704SOL     OW 2813   2.720   3.474   1.142 -0.3284 -0.6765 -0.0406
  704SOL    HW2 2814   2.724   3.382   1.168 -1.1632 -0.4750  0.8716
  704SOL    HW3 2815   2.635   3.504   1.175  0.4628  0.7411  0.7771
  704SOL    MW4 2816   2.709   3.466   1.150 -0.3341 -0.4629  0.1876
  705SOL     OW 2817   2.930   3.595   1.258  0.2296  0.5439 -0.4589
  705SOL    HW2 2818   2.996   3.546   1.209 -0.7165 -0.3557 -0.8690
  705SOL    HW3 2819   2.846   3.559   1.227 -0.4196  0.9589  0.7815
  705SOL    MW4 2820   2.928   3.584   1.248  0.0191  0.4799 -0.3493
  706SOL     OW 2821   2.950   3.860   1.184  0.0602  0.2235  0.1545
  706SOL    HW2 2822   3.023   3.895   1.235  0.3611  0.5792 -0.5069
  706SOL    HW3 2823   2.938   3.771   1.218  0.4205  0.3652  0.6663
  706SOL    MW4 2824   2.958   3.853   1.195  0.1474  0.2891  0.1348
  707SOL     OW 2825   2.711   3.962   1.279 -0.2287 -0.2950 -0.1475
  707SOL    HW2 2826   2.793   3.926   1.246 -0.6375  0.0617 -1.5942
  707SOL    HW3 2827   2.643   3.911   1.235 -0.8041  1.6729 -1.5997
  707SOL    MW4 2828   2.712   3.951   1.269 -0.3586  0.0117 -0.5300
  708SOL     OW 2829   2.681   4.224   1.220  0.1181  0.2699 -0.2232
  708SOL    HW2 2830   2.681   4.131   1.245  0.2076  0.3151 -0.0544
  708SOL    HW3 2831   2.601   4.259   1.260  0.4715  0.4348  0.3481
  708SOL    MW4 2832   2.670   4.216   1.229  0.1766  0.2977 -0.1256
  709SOL     OW 2833   2.870   4.423   1.238 -0.2194  0.0724 -0.0178
  709SOL    HW2 2834   2.952   4.375   1.238 -0.0393  0.3713 -0.9291
  709SOL    HW3 2835   2.803   4.356   1.225 -0.1623 -0.2197  1.1195
  709SOL    MW4 2836   2.872   4.408   1.236 -0.1881  0.0733  0.0120
  710SOL     OW 2837   3.352   0.002   1.135 -0.4287 -0.3029  0.3956
  710SOL    HW2 2838   3.434   0.036   1.171 -0.3745 -1.5150  1.4715
  710SOL    HW3 2839   3.283   0.050   1.182 -0.3412 -0.6161  0.8515
  710SOL    MW4 2840   3.354   0.013   1.146 -0.4100 -0.5041  0.5977
  711SOL     OW 2841   3.159   0.121   1.288 -0.2666  0.2471 -0.1339
  711SOL    HW2 2842   3.147   0.094   1.379 -0.3230 -0.7194 -0.4257
  711SOL    HW3 2843   3.077   0.097   1.245 -0.3009  0.8400 -0.4165
  711SOL    MW4 2844   3.146   0.114   1.294 -0.2786  0.1978 -0.2097
  712SOL     OW 2845   3.098   0.335   1.113 -0.1106 -0.2550  0.0088
  712SOL    HW2 2846   3.159   0.273   1.151  0.0478 -0.2699 -0.2669
  712SOL    HW3 2847   3.048   0.369   1.187  0.3569 -0.1060  0.2598
  712SOL    MW4 2848   3.099   0.332   1.128 -0.0280 -0.2373  0.0056
  713SOL     OW 2849   3.313   0.466   1.252  0.1336 -0.0441  0.3561
  713SOL    HW2 2850   3.331   0.554   1.218 -0.2077  0.0654  0.4603
  713SOL    HW3 2851   3.231   0.440   1.210  0.1295 -0.2335  0.4806
  713SOL    MW4 2852   3.305   0.474   1.242  0.0880 -0.0546  0.3863
  714SOL     OW 2853   3.343   0.721   1.169  0.0512  0.2927  0.4513
  714SOL    HW2 2854   3.272   0.778   1.199 -1.4676 -0.5375 -1.3960
  714SOL    HW3 2855   3.340   0.728   1.073  0.4473 -2.1306  0.2239
  714SOL    MW4 2856   3.333   0.729   1.160 -0.0970 -0.1366  0.1776
  715SOL     OW 2857   3.135   0.854   1.287  0.2620  0.3415 -0.0644
  715SOL    HW2 2858   3.140   0.870   1.382  1.8692 -0.1295 -0.0549
  715SOL    HW3 2859   3.122   0.941   1.249 -0.9802  0.4697  0.6103
  715SOL    MW4 2860   3.134   0.867   1.295  0.3102  0.2963  0.0259
  716SOL     OW 2861   3.119   1.083   1.134  0.2737 -0.0824  0.4565
  716SOL    HW2 2862   3.185   1.144   1.167 -1.3018  1.3855  0.9834
  716SOL    HW3 2863   3.036   1.120   1.164 -0.8996 -1.0247 -1.5717
  716SOL    MW4 2864   3.117   1.096   1.142 -0.0890 -0.0131  0.2584
  717SOL     OW 2865   3.302   1.248   1.256 -0.2011  0.1544 -0.1409
  717SOL    HW2 2866   3.301   1.240   1.352  0.3131 -0.7966 -0.2077
  717SOL    HW3 2867   3.323   1.340   1.240  0.1460  0.2198  0.6610
  717SOL    MW4 2868   3.304   1.259   1.267 -0.0875  0.0376 -0.0439
  718SOL     OW 2869   3.360   1.510   1.117  0.2349 -0.1585 -0.2700
  718SOL    HW2 2870   3.438   1.560   1.142 -0.4468  0.1518  1.3375
  718SOL    HW3 2871   3.287   1.560   1.156 -0.6455 -1.1273 -0.6691
  718SOL    MW4 2872   3.361   1.523   1.126  0.0288 -0.2454 -0.1105
  719SOL     OW 2873   3.167   1.655   1.258 -0.5311  0.4688 -0.1561
  719SOL    HW2 2874   3.168   1.660   1.353  2.0339  0.6274 -0.1525
  719SOL    HW3 2875   3.170   1.746   1.229 -2.2380  0.4606 -0.4184
  719SOL    MW4 2876   3.168   1.668   1.267 -0.4179  0.4887 -0.1902
  720SOL     OW 2877   3.144   1.913   1.152 -0.1914  0.3528  0.0950
  720SOL    HW2 2878   3.192   1.985   1.193 -0.5595  1.6767 -1.7377
  720SOL    HW3 2879   3.052   1.937   1.161 -0.2975  0.3432 -0.9279
  720SOL    MW4 2880   3.138   1.926   1.159 -0.2540  0.5262 -0.2818
  721SOL     OW 2881   3.337   2.080   1.283 -0.8610 -0.5987 -0.4060
  721SOL    HW2 2882   3.403   2.040   1.228  1.1220  1.0394  0.7003
  721SOL    HW3 2883   3.340   2.173   1.260 -0.6252 -0.0395  1.7853
  721SOL    MW4 2884   3.346   2.087   1.273 -0.5682 -0.3088  0.0291
  722SOL     OW 2885   3.391   2.324   1.156  0.3997 -0.1081 -0.0518
  722SOL    HW2 2886   3.460   2.369   1.206  0.7443 -1.4538  0.7109
  722SOL    HW3 2887   3.311   2.373   1.175  0.4164 -0.9579  2.3147
  722SOL    MW4 2888   3.390   2.337   1.165  0.4473 -0.3978  0.3610
  723SOL     OW 2889   3.163   2.439   1.202 -0.0753  0.1325 -0.1854
  723SOL    HW2 2890   3.144   2.441   1.295 -0.2922 -1.1012 -0.1940
  723SOL    HW3 2891   3.170   2.531   1.176 -0.0853  0.4738  1.0257
  723SOL    MW4 2892   3.162   2.451   1.211 -0.1053  0.0148 -0.0267
  724SOL     OW 2893   3.156   2.710   1.136  0.2626  0.2602 -0.1899
  724SOL    HW2 2894   3.070   2.741   1.163  0.4442  0.0099  0.6822
  724SOL    HW3 2895   3.155   2.717   1.040 -0.5937  0.5926 -0.1597
  724SOL    MW4 2896   3.145   2.715   1.127  0.1736  0.2711 -0.0708
  725SOL     OW 2897   3.373   2.793   1.285  0.1046  0.0898  0.2942
  725SOL    HW2 2898   3.373   2.887   1.266 -1.2211 -0.0611 -0.4916
  725SOL    HW3 2899   3.290   2.762   1.250 -0.1663 -1.1007  1.9649
  725SOL    MW4 2900   3.362   2.802   1.278 -0.1060 -0.0871  0.4109
  726SOL     OW 2901   3.381   3.082   1.178  0.2129 -0.7265  0.7821
  726SOL    HW2 2902   3.458   3.133   1.205 -0.5848  2.0414 -1.8424
  726SOL    HW3 2903   3.307   3.131   1.214 -0.5243 -0.6808 -0.7705
  726SOL    MW4 2904   3.382   3.095   1.186  0.0104 -0.3553  0.2310
  727SOL     OW 2905   3.148   3.243   1.231 -0.5451  0.0364 -0.1009
  727SOL    HW2 2906   3.152   3.327   1.185 -0.2079  0.6673  1.0716
  727SOL    HW3 2907   3.091   3.189   1.176  0.8465  0.3639 -1.9054
  727SOL    MW4 2908   3.141   3.247   1.217 -0.3170  0.1628 -0.1843
  728SOL     OW 2909   3.147   3.475   1.116 -0.2638 -0.1412 -0.1202
  728SOL    HW2 2910   3.217   3.532   1.148  0.2402 -2.2939  2.8531
  728SOL    HW3 2911   3.168   3.460   1.023  2.5718  0.1969  0.4300
  728SOL    MW4 2912   3.159   3.480   1.108  0.1769 -0.3806  0.3447
  729SOL     OW 2913   3.378   3.653   1.238 -0.0843 -0.3045 -0.4854
  729SOL    HW2 2914   3.369   3.640   1.333 -1.1309 -1.8629 -0.7849
  729SOL    HW3 2915   3.454   3.599   1.214 -0.0717 -0.2337 -0.6015
  729SOL    MW4 2916   3.387   3.644   1.248 -0.2207 -0.5008 -0.5402
  730SOL     OW 2917   3.382   3.914   1.170  0.0716  0.5804 -0.3316
  730SOL    HW2 2918   3.299   3.946   1.203 -0.8523 -0.1185 -1.8962
  730SOL    HW3 2919   3.378   3.819   1.183  0.5845  0.5349 -0.4932
  730SOL    MW4 2920   3.371   3.906   1.176  0.0174  0.4822 -0.5594
  731SOL     OW 2921   3.164   3.998   1.310  0.7943  0.1727  0.5209
  731SOL    HW2 2922   3.197   3.992   1.400  1.2139  0.2971  0.3765
  731SOL    HW3 2923   3.134   4.088   1.302  0.9883  0.2331  0.4599
  731SOL    MW4 2924   3.165   4.009   1.321  0.8752  0.1971  0.4938
  732SOL     OW 2925   3.115   4.261   1.225 -0.0767 -0.3102  0.0825
  732SOL    HW2 2926   3.190   4.316   1.246 -0.6671  0.8801 -0.9000
  732SOL    HW3 2927   3.124   4.242   1.132 -0.6008 -0.7953  0.1238
  732SOL    MW4 2928   3.126   4.265   1.216 -0.2238 -0.2171 -0.0417
  733SOL     OW 2929   3.339   4.430   1.272 -0.0742 -0.5819 -0.1294
  733SOL    HW2 2930   3.407   4.387   1.220  0.2708 -0.4757  0.2386
  733SOL    HW3 2931   3.334   4.518   1.236  1.6429  0.1554  1.4193
  733SOL    MW4 2932   3.347   4.436   1.260  0.1979 -0.4706  0.1235
  734SOL     OW 2933   3.841   4.621   1.213 -0.4595  0.2122 -0.2025
  734SOL    HW2 2934   3.829   4.530   1.240  1.2326 -0.0084 -0.1916
  734SOL    HW3 2935   3.838   4.618   1.117  0.7491 -0.0206 -0.2356
  734SOL    MW4 2936   3.839   4.608   1.204 -0.0768  0.1524 -0.2054
  735SOL     OW 2937   3.596   0.075   1.262  0.1781  0.3276 -0.2257
  735SOL    HW2 2938   3.610   0.167   1.241  2.1730  0.3507  1.0833
  735SOL    HW3 2939   3.679   0.032   1.240 -0.6807 -1.1381 -0.6815
  735SOL    MW4 2940   3.609   0.081   1.256  0.3280  0.1372 -0.1132
  736SOL     OW 2941   3.570   0.346   1.192  0.0026 -0.5268 -0.4976
  736SOL    HW2 2942   3.621   0.419   1.227  0.1903 -0.8497 -0.0907
  736SOL    HW3 2943   3.480   0.366   1.217  0.2466 -1.2271  1.0197
  736SOL    MW4 2944   3.565   0.358   1.200  0.0596 -0.6618 -0.2437
  737SOL     OW 2945   3.745   0.527   1.307  0.5403  0.5904 -0.4313
  737SOL    HW2 2946   3.830   0.485   1.294  0.5420  0.4647 -0.0460
  737SOL    HW3 2947   3.745   0.601   1.247  0.6825  0.2462 -0.8632
  737SOL    MW4 2948   3.756   0.531   1.298  0.5593  0.5284 -0.4374
  738SOL     OW 2949   3.768   0.743   1.148  0.9695 -0.4247  0.3742
  738SOL    HW2 2950   3.836   0.784   1.202  1.7183 -2.4958  1.0380
  738SOL    HW3 2951   3.689   0.793   1.169  2.5699  3.3417 -1.9255
  738SOL    MW4 2952   3.767   0.755   1.158  1.2795 -0.2010  0.1584
  739SOL     OW 2953   3.553   0.887   1.257  0.1942 -0.3979  0.0400
  739SOL    HW2 2954   3.551   0.972   1.213  0.8371 -0.8320 -0.8625
  739SOL    HW3 2955   3.471   0.845   1.232 -0.1362 -0.0345  0.5083
  739SOL    MW4 2956   3.542   0.892   1.248  0.2354 -0.4072 -0.0173
  740SOL     OW 2957   3.544   1.141   1.137  0.4902  0.0552  0.0016
  740SOL    HW2 2958   3.623   1.185   1.168  0.5934  0.2494 -0.5332
  740SOL    HW3 2959   3.472   1.197   1.167  0.6023  0.3754 -0.3156
  740SOL    MW4 2960   3.545   1.155   1.145  0.5186  0.1231 -0.1108
  741SOL     OW 2961   3.757   1.262   1.257  0.3514  0.4808  0.4991
  741SOL    HW2 2962   3.752   1.257   1.352  1.8079  1.3569  0.6389
  741SOL    HW3 2963   3.747   1.355   1.237 -1.6110  0.1243 -0.3323
  741SOL    MW4 2964   3.755   1.274   1.267  0.2846  0.5494  0.4079
  742SOL     OW 2965   3.802   1.536   1.196  0.1176 -0.0283  0.3481
  742SOL    HW2 2966   3.881   1.581   1.226  1.4549 -2.7281  1.0590
  742SOL    HW3 2967   3.807   1.537   1.101  0.2944  1.0306  0.3722
  742SOL    MW4 2968   3.813   1.542   1.188  0.3174 -0.2448  0.4451
  743SOL     OW 2969   3.555   1.676   1.254 -0.1032 -0.3304  0.0305
  743SOL    HW2 2970   3.551   1.769   1.232  1.2387 -0.4966 -0.9888
  743SOL    HW3 2971   3.646   1.652   1.237 -0.6462 -2.0370 -0.5214
  743SOL    MW4 2972   3.567   1.686   1.249  0.0022 -0.5775 -0.1768
  744SOL     OW 2973   3.563   1.948   1.167 -0.0515  0.1398  0.0497
  744SOL    HW2 2974   3.645   1.978   1.206 -0.1326  0.0411  0.2993
  744SOL    HW3 2975   3.569   1.972   1.075  1.0220 -1.4650 -0.3171
  744SOL    MW4 2976   3.574   1.955   1.160  0.0794 -0.0849  0.0343
  745SOL     OW 2977   3.806   2.027   1.278 -0.0288  0.3674 -0.0868
  745SOL    HW2 2978   3.813   2.034   1.373  0.4849  0.3863 -0.1207
  745SOL    HW3 2979   3.890   1.990   1.251 -0.5794 -0.6520 -0.4370
  745SOL    MW4 2980   3.818   2.023   1.287 -0.0337  0.2354 -0.1375
  746SOL     OW 2981   3.827   2.283   1.190 -0.0727 -0.2637 -0.4693
  746SOL    HW2 2982   3.909   2.320   1.222  0.3949 -0.7653 -1.0825
  746SOL    HW3 2983   3.829   2.192   1.218 -0.9054 -0.0118  0.4285
  746SOL    MW4 2984   3.838   2.276   1.198 -0.1209 -0.2966 -0.4317
  747SOL     OW 2985   3.597   2.433   1.267 -0.0705 -0.3049 -0.6301
  747SOL    HW2 2986   3.590   2.423   1.362  0.9534 -1.9729 -0.7173
  747SOL    HW3 2987   3.666   2.373   1.241  1.6865  2.2141 -2.0802
  747SOL    MW4 2988   3.605   2.424   1.276  0.2964 -0.1926 -0.8330
  748SOL     OW 2989   3.600   2.682   1.158 -0.0757  0.3071  0.1532
  748SOL    HW2 2990   3.598   2.591   1.187  3.1183  0.1634  0.1294
  748SOL    HW3 2991   3.521   2.722   1.194 -0.6565 -2.0682  1.5484
  748SOL    MW4 2992   3.589   2.676   1.166  0.2691 -0.0253  0.3342
  749SOL     OW 2993   3.802   2.853   1.287  0.0975 -0.5690  0.0645
  749SOL    HW2 2994   3.815   2.837   1.381  2.2461 -1.2665 -0.3067
  749SOL    HW3 2995   3.725   2.800   1.264 -0.5732 -0.2287  1.4688
  749SOL    MW4 2996   3.794   2.844   1.296  0.2925 -0.6161  0.2008
  750SOL     OW 2997   3.805   3.111   1.183 -0.0849 -0.1469 -0.1123
  750SOL    HW2 2998   3.812   3.019   1.208 -0.5237 -0.0197  0.4721
  750SOL    HW3 2999   3.807   3.109   1.087  0.4075 -0.7224 -0.0957
  750SOL    MW4 3000   3.806   3.099   1.173 -0.0778 -0.2061 -0.0330
  751SOL     OW 3001   3.582   3.240   1.270  0.4638  0.1961 -0.5448
  751SOL    HW2 3002   3.576   3.320   1.218  0.5590  0.8714  0.4727
  751SOL    HW3 3003   3.659   3.195   1.236  0.8290  0.8868 -0.6327
  751SOL    MW4 3004   3.591   3.244   1.259  0.5246  0.3763 -0.4221
  752SOL     OW 3005   3.586   3.489   1.143 -0.4512 -0.0579  0.0016
  752SOL    HW2 3006   3.669   3.528   1.172 -0.6231  0.7375 -0.5751
  752SOL    HW3 3007   3.594   3.485   1.048 -0.6660 -0.9124  0.0204
  752SOL    MW4 3008   3.598   3.494   1.134 -0.5022 -0.0657 -0.0720
  753SOL     OW 3009   3.822   3.590   1.260  0.1233 -0.1948  0.0535
  753SOL    HW2 3010   3.840   3.604   1.353 -0.7105  0.7014  0.0788
  753SOL    HW3 3011   3.833   3.676   1.219  0.4904 -0.5845 -0.6833
  753SOL    MW4 3012   3.826   3.603   1.267  0.0617 -0.1280 -0.0404
  754SOL     OW 3013   3.826   3.841   1.153  0.3958 -0.2128 -0.1879
  754SOL    HW2 3014   3.738   3.879   1.157  0.7171  0.6963 -1.3451
  754SOL    HW3 3015   3.845   3.837   1.059  2.0615  0.6793  0.0999
  754SOL    MW4 3016   3.817   3.845   1.141  0.6579  0.0248 -0.3026
  755SOL     OW 3017   3.613   4.009   1.239  0.2721  0.1419  0.3227
  755SOL    HW2 3018   3.608   4.003   1.335 -1.0304  1.0198  0.3302
  755SOL    HW3 3019   3.527   3.981   1.209  0.1155  1.4331 -0.4884
  755SOL    MW4 3020   3.601   4.005   1.248  0.0796  0.4281  0.2167
  756SOL     OW 3021   3.542   4.267   1.194 -0.0244 -0.4023  0.6390
  756SOL    HW2 3022   3.550   4.175   1.220 -0.2039 -1.0456 -1.5054
  756SOL    HW3 3023   3.582   4.271   1.107  0.9977  1.7883  1.1904
  756SOL    MW4 3024   3.548   4.255   1.186  0.0867 -0.1981  0.4288
  757SOL     OW 3025   3.803   4.338   1.286  0.0042 -0.3321 -0.0478
  757SOL    HW2 3026   3.802   4.328   1.381 -0.9289 -2.9775 -0.3133
  757SOL    HW3 3027   3.714   4.317   1.258  0.0083  1.3324 -1.4604
  757SOL    MW4 3028   3.791   4.334   1.295 -0.1184 -0.4615 -0.2692
  758SOL     OW 3029   4.255   0.020   1.143 -0.0410 -0.0693 -0.4988
  758SOL    HW2 3030   4.246  -0.075   1.146 -1.6698  0.0666 -0.6451
  758SOL    HW3 3031   4.172   0.053   1.177  0.9428  1.3108  0.6519
  758SOL    MW4 3032   4.243   0.012   1.148 -0.1261  0.1307 -0.3663
  759SOL     OW 3033   4.036   0.131   1.298  0.0949 -0.7137 -0.5955
  759SOL    HW2 3034   4.026   0.137   1.393 -0.0972  0.5980 -0.6783
  759SOL    HW3 3035   3.962   0.078   1.269 -0.0527 -0.8093 -0.0426
  759SOL    MW4 3036   4.025   0.125   1.307  0.0501 -0.5533 -0.5335
  760SOL     OW 3037   3.969   0.394   1.216  0.2168 -0.0986  0.0978
  760SOL    HW2 3038   3.994   0.306   1.242  1.9969  0.5344  0.6608
  760SOL    HW3 3039   3.971   0.393   1.120 -0.2455 -0.8043  0.0986
  760SOL    MW4 3040   3.973   0.383   1.207  0.3907 -0.1082  0.1722
  761SOL     OW 3041   4.205   0.522   1.246  0.0772  0.0439 -0.6356
  761SOL    HW2 3042   4.221   0.516   1.341  0.6988  0.5902 -0.7035
  761SOL    HW3 3043   4.124   0.474   1.233 -0.1212  0.1336  0.2092
  761SOL    MW4 3044   4.196   0.515   1.257  0.1331  0.1278 -0.5331
  762SOL     OW 3045   4.212   0.787   1.178 -0.3593 -0.5294  0.4619
  762SOL    HW2 3046   4.194   0.697   1.204 -1.6299 -0.8770 -1.4520
  762SOL    HW3 3047   4.223   0.782   1.083 -0.7636  1.3700  0.2946
  762SOL    MW4 3048   4.211   0.775   1.169 -0.5803 -0.3246  0.1873
  763SOL     OW 3049   3.974   0.888   1.289 -0.3200  0.3320  0.2010
  763SOL    HW2 3050   3.990   0.870   1.382  2.1134 -0.7066 -0.4125
  763SOL    HW3 3051   4.053   0.859   1.244 -2.5826 -1.7943 -2.5553
  763SOL    MW4 3052   3.986   0.882   1.296 -0.2975 -0.0856 -0.2436
  764SOL     OW 3053   3.994   1.159   1.197 -0.3075  0.1221 -0.1816
  764SOL    HW2 3054   3.986   1.073   1.238 -1.7347  1.1524  1.8412
  764SOL    HW3 3055   3.910   1.202   1.217  0.2088  1.7985 -1.5474
  764SOL    MW4 3056   3.982   1.153   1.205 -0.4277  0.4792 -0.0949
  765SOL     OW 3057   4.235   1.306   1.268  0.3539  0.3797  0.0686
  765SOL    HW2 3058   4.228   1.301   1.364  0.1244  0.2576  0.0447
  765SOL    HW3 3059   4.166   1.249   1.236 -0.5776  1.6317 -0.1717
  765SOL    MW4 3060   4.225   1.298   1.277  0.2007  0.5288  0.0337
  766SOL     OW 3061   4.251   1.564   1.162 -0.1880  0.1983  0.0490
  766SOL    HW2 3062   4.245   1.478   1.203 -1.1305  1.4293  2.5460
  766SOL    HW3 3063   4.337   1.598   1.189 -0.3437  0.5573  0.0981
  766SOL    MW4 3064   4.262   1.557   1.171 -0.3329  0.4081  0.3850
  767SOL     OW 3065   4.053   1.700   1.281  0.2147  0.4219  0.4685
  767SOL    HW2 3066   4.056   1.698   1.377  2.0560  0.3167  0.4280
  767SOL    HW3 3067   4.129   1.650   1.254  1.4073  2.9350 -1.0126
  767SOL    MW4 3068   4.064   1.693   1.290  0.6150  0.7396  0.2677
  768SOL     OW 3069   4.052   1.964   1.184  0.0780  0.1970 -0.5322
  768SOL    HW2 3070   4.041   1.870   1.199 -0.0152  0.2929 -0.0090
  768SOL    HW3 3071   4.041   1.974   1.089  0.9898 -0.4462 -0.7241
  768SOL    MW4 3072   4.049   1.953   1.173  0.1860  0.1248 -0.4885
  769SOL     OW 3073   4.292   2.061   1.302  0.1259 -0.5264 -0.0706
  769SOL    HW2 3074   4.288   2.151   1.269  0.6016 -0.6181 -0.3732
  769SOL    HW3 3075   4.216   2.018   1.261 -1.1502  0.1944  1.4667
  769SOL    MW4 3076   4.281   2.067   1.292  0.0203 -0.4434  0.0923
  770SOL     OW 3077   4.253   2.309   1.211  0.3050  0.0279  0.0650
  770SOL    HW2 3078   4.176   2.350   1.252  0.2376 -1.0582  1.0561
  770SOL    HW3 3079   4.250   2.339   1.120 -0.9286  0.5285  0.2504
  770SOL    MW4 3080   4.242   2.319   1.204  0.1334 -0.0493  0.2202
  771SOL     OW 3081   4.032   2.424   1.304 -0.3269  0.1157 -0.3688
  771SOL    HW2 3082   4.030   2.422   1.400 -0.5316 -0.2571 -0.3797
  771SOL    HW3 3083   4.023   2.517   1.282  0.8508  0.3256 -0.0105
  771SOL    MW4 3084   4.030   2.436   1.314 -0.1985  0.0942 -0.3229
  772SOL     OW 3085   4.016   2.703   1.183 -0.6141  0.1289 -0.0920
  772SOL    HW2 3086   3.946   2.760   1.214 -0.8202  0.2206 -0.7158
  772SOL    HW3 3087   4.038   2.736   1.096 -0.3210 -0.3696 -0.2147
  772SOL    MW4 3088   4.010   2.715   1.176 -0.6026  0.0753 -0.1905
  773SOL     OW 3089   4.246   2.803   1.307 -0.1735 -0.8299 -0.0684
  773SOL    HW2 3090   4.245   2.886   1.259  0.0496 -0.1363  1.1105
  773SOL    HW3 3091   4.177   2.751   1.265 -1.0297  0.3328 -0.1604
  773SOL    MW4 3092   4.236   2.807   1.295 -0.2570 -0.5850  0.0750
  774SOL     OW 3093   4.254   3.050   1.136 -0.0421 -0.2603 -0.0805
  774SOL    HW2 3094   4.189   3.106   1.177  1.0691  1.2312 -0.3046
  774SOL    HW3 3095   4.254   3.076   1.044  0.5909 -0.5019 -0.1521
  774SOL    MW4 3096   4.246   3.061   1.129  0.1880 -0.0954 -0.1196
  775SOL     OW 3097   4.070   3.207   1.271  0.0947 -0.1067 -0.2969
  775SOL    HW2 3098   4.053   3.208   1.365  0.1962 -0.2769 -0.2770
  775SOL    HW3 3099   3.987   3.176   1.233  0.8205 -2.4307 -0.0973
  775SOL    MW4 3100   4.057   3.203   1.279  0.2038 -0.4358 -0.2680
  776SOL     OW 3101   4.061   3.463   1.187 -0.0485  0.0493  0.2898
  776SOL    HW2 3102   4.076   3.375   1.222  0.7609  0.9101  2.1847
  776SOL    HW3 3103   3.968   3.479   1.200 -0.9701 -1.8636 -3.3295
  776SOL    MW4 3104   4.051   3.453   1.193 -0.0633 -0.0895  0.0623
  777SOL     OW 3105   4.300   3.595   1.275 -0.1179 -0.5733 -0.2645
  777SOL    HW2 3106   4.217   3.553   1.249 -0.0949 -0.9035  0.1981
  777SOL    HW3 3107   4.367   3.543   1.231 -0.2299  0.7978 -2.1568
  777SOL    MW4 3108   4.298   3.583   1.266 -0.1296 -0.4360 -0.4531
  778SOL     OW 3109   4.277   3.856   1.184  0.0459  0.8249  0.2631
  778SOL    HW2 3110   4.202   3.881   1.238 -0.4014  0.3889 -0.1540
  778SOL    HW3 3111   4.304   3.771   1.220 -0.4235  0.4046 -0.3751
  778SOL    MW4 3112   4.271   3.848   1.196 -0.0751  0.7119  0.1239
  779SOL     OW 3113   4.049   3.958   1.287 -1.0491  0.0461  0.2537
  779SOL    HW2 3114   4.052   4.048   1.254 -0.7623 -0.6966 -1.8285
  779SOL    HW3 3115   3.969   3.921   1.250 -0.6283 -0.8580  0.2159
  779SOL    MW4 3116   4.039   3.965   1.278 -0.9557 -0.1712 -0.0260
  780SOL     OW 3117   4.049   4.231   1.217  0.1822  0.0443  0.3786
  780SOL    HW2 3118   3.962   4.254   1.250 -1.0170 -2.7122 -0.6973
  780SOL    HW3 3119   4.044   4.246   1.123  0.4192 -1.3867  0.1215
  780SOL    MW4 3120   4.037   4.236   1.209  0.0552 -0.5082  0.2028
  781SOL     OW 3121   4.261   4.391   1.240 -0.2740  0.0812 -0.2862
  781SOL    HW2 3122   4.189   4.328   1.236  1.1344 -1.6124  0.7332
  781SOL    HW3 3123   4.335   4.347   1.198  0.4514  1.4507 -0.4758
  781SOL    MW4 3124   4.261   4.377   1.234  0.0075  0.0385 -0.1767
  782SOL     OW 3125   0.201   4.665   1.678 -0.0277  0.1292 -0.0070
  782SOL    HW2 3126   0.287   4.699   1.653  0.1804 -0.8641 -0.6981
  782SOL    HW3 3127   0.139   4.726   1.638  0.3466  1.4493  1.3744
  782SOL    MW4 3128   0.204   4.678   1.669  0.0491  0.1723  0.0840
  783SOL     OW 3129   4.474   0.136   1.552 -0.1897  0.0007 -0.2269
  783SOL    HW2 3130   4.400   0.079   1.575 -0.1446 -0.1153 -0.3695
  783SOL    HW3 3131   4.482   0.128   1.457 -0.9061  1.1361 -0.3766
  783SOL    MW4 3132   4.465   0.127   1.543 -0.2783  0.1352 -0.2655
  784SOL     OW 3133   4.460   0.405   1.638 -0.6372  0.1772  0.6256
  784SOL    HW2 3134   4.469   0.386   1.731 -2.3322 -1.4301  0.5083
  784SOL    HW3 3135   4.456   0.319   1.596 -0.6439  0.8668 -0.8439
  784SOL    MW4 3136   4.460   0.391   1.645 -0.8617  0.0561  0.4162
  785SOL     OW 3137   0.238   0.483   1.561  0.5002  0.1806  0.2354
  785SOL    HW2 3138   0.149   0.459   1.585  1.2268 -1.7593  1.0656
  785SOL    HW3 3139   0.235   0.490   1.465 -0.2333 -1.2372  0.1371
  785SOL    MW4 3140   0.226   0.481   1.551  0.4993 -0.2624  0.3320
  786SOL     OW 3141   0.229   0.755   1.676  0.0349 -0.1494 -0.3977
  786SOL    HW2 3142   0.309   0.798   1.647 -0.5327  0.4454 -1.1004
  786SOL    HW3 3143   0.233   0.668   1.636 -0.3334  0.3711 -1.6058
  786SOL    MW4 3144   0.240   0.749   1.667 -0.0886 -0.0022 -0.6498
  787SOL     OW 3145   0.010   0.862   1.559 -0.1726 -0.3383  0.3989
  787SOL    HW2 3146   0.001   0.950   1.596  0.4906 -0.3913  0.6967
  787SOL    HW3 3147   0.093   0.829   1.596 -0.2304 -0.9391 -0.0065
  787SOL    MW4 3148   0.020   0.869   1.569 -0.0927 -0.4245  0.3847
  788SOL     OW 3149   4.452   1.115   1.671  0.0819 -0.5001 -0.0978
  788SOL    HW2 3150   4.465   1.125   1.765  0.0124  1.4180 -0.2826
  788SOL    HW3 3151   4.516   1.173   1.631 -1.4448  0.4941 -1.1748
  788SOL    MW4 3152   4.462   1.124   1.678 -0.1287 -0.1159 -0.2643
  789SOL     OW 3153   0.153   1.268   1.557  0.3774  0.3121  0.1094
  789SOL    HW2 3154   0.165   1.361   1.576 -0.9020  0.5222 -0.0855
  789SOL    HW3 3155   0.166   1.261   1.462  5.1726 -0.4870  0.6699
  789SOL    MW4 3156   0.157   1.279   1.547  0.8412  0.2344  0.1576
  790SOL     OW 3157   0.222   1.527   1.633  0.2069 -0.0060 -0.3911
  790SOL    HW2 3158   0.211   1.519   1.728  1.3355 -1.8922 -0.3942
  790SOL    HW3 3159   0.142   1.572   1.604  0.1101  1.1128  1.4990
  790SOL    MW4 3160   0.210   1.532   1.641  0.3430 -0.1073 -0.1422
  791SOL     OW 3161   4.483   1.651   1.546 -0.5489 -0.0900  0.7422
  791SOL    HW2 3162   4.505   1.732   1.592 -0.6895 -0.6676  1.8590
  791SOL    HW3 3163   4.490   1.673   1.453  0.2499  0.9628  1.0412
  791SOL    MW4 3164   4.487   1.665   1.540 -0.4620 -0.0273  0.9290
  792SOL     OW 3165   0.023   1.895   1.669  0.5431 -0.2479  0.1595
  792SOL    HW2 3166   0.016   1.899   1.765  0.1380 -0.2280  0.1285
  792SOL    HW3 3167  -0.056   1.938   1.637 -0.0583 -1.5905 -0.1859
  792SOL    MW4 3168   0.012   1.901   1.678  0.4103 -0.4224  0.1098
  793SOL     OW 3169   0.228   2.061   1.560 -0.3898  0.5426 -0.1771
  793SOL    HW2 3170   0.158   2.011   1.601 -0.7583  1.7966  0.7404
  793SOL    HW3 3171   0.218   2.045   1.467 -1.5872  0.3092 -0.0117
  793SOL    MW4 3172   0.218   2.052   1.553 -0.5964  0.6773 -0.0342
  794SOL     OW 3173   0.235   2.315   1.639  0.1023  0.2480 -0.0007
  794SOL    HW2 3174   0.238   2.304   1.734  1.4464  1.8328  0.1499
  794SOL    HW3 3175   0.244   2.226   1.605  1.9913 -0.1164  1.3382
  794SOL    MW4 3176   0.237   2.302   1.647  0.5289  0.4090  0.1958
  795SOL     OW 3177   0.011   2.453   1.532  0.3764  0.1018  0.0761
  795SOL    HW2 3178  -0.067   2.424   1.579  0.5992 -0.3174  0.1904
  795SOL    HW3 3179   0.083   2.404   1.572  0.7145  0.5724  0.0536
  795SOL    MW4 3180   0.010   2.443   1.543  0.4504  0.1086  0.0882
  796SOL     OW 3181   0.023   2.686   1.683 -0.3466  0.1733  0.4076
  796SOL    HW2 3182  -0.058   2.728   1.654 -1.0158 -0.5758  1.1705
  796SOL    HW3 3183   0.025   2.602   1.636  0.9099  0.9409 -0.9974
  796SOL    MW4 3184   0.013   2.681   1.673 -0.2691  0.1758  0.3229
  797SOL     OW 3185   0.217   2.819   1.531 -0.5556 -0.0106 -0.8223
  797SOL    HW2 3186   0.300   2.774   1.545 -1.0619 -2.0190 -3.7314
  797SOL    HW3 3187   0.153   2.765   1.577 -0.4697  0.7361  0.1933
  797SOL    MW4 3188   0.219   2.806   1.539 -0.6110 -0.1771 -1.0721
  798SOL     OW 3189   0.232   3.074   1.615  0.1165 -0.2470 -0.3370
  798SOL    HW2 3190   0.147   3.112   1.595  0.0731  0.2657  0.8049
  798SOL    HW3 3191   0.226   2.984   1.582 -0.4157  0.1688 -1.3935
  798SOL    MW4 3192   0.220   3.067   1.608  0.0405 -0.1245 -0.3257
  799SOL     OW 3193   0.000   3.193   1.529 -0.1548 -0.2296 -0.2784
  799SOL    HW2 3194  -0.002   3.285   1.555 -0.3250 -0.2159 -0.3411
  799SOL    HW3 3195  -0.013   3.195   1.434  2.1781 -0.1700 -0.6223
  799SOL    MW4 3196  -0.002   3.206   1.520  0.1305 -0.2200 -0.3320
  800SOL     OW 3197   0.031   3.478   1.602 -0.0009 -0.2638 -0.2693
  800SOL    HW2 3198   0.030   3.479   1.698 -1.1364 -0.7040 -0.2604
  800SOL    HW3 3199  -0.048   3.526   1.577  0.6344  0.4002 -0.9899
  800SOL    MW4 3200   0.020   3.484   1.611 -0.0669 -0.2343 -0.3632
  801SOL     OW 3201   0.268   3.610   1.527  0.2596 -0.1059 -0.0578
  801SOL    HW2 3202   0.259   3.704   1.545  0.6171 -0.1292  0.2588
  801SOL    HW3 3203   0.195   3.569   1.573  0.5037 -0.0508  0.3818
  801SOL    MW4 3204   0.257   3.617   1.535  0.3389 -0.1017  0.0420
  802SOL     OW 3205   0.232   3.868   1.655  0.5994 -0.1491  0.3679
  802SOL    HW2 3206   0.216   3.876   1.749  0.8597 -0.0233  0.4011
  802SOL    HW3 3207   0.315   3.913   1.640  0.6943 -0.3968  0.1212
  802SOL    MW4 3208   0.241   3.875   1.666  0.6463 -0.1652  0.3397
  803SOL     OW 3209   4.479   3.966   1.561 -0.2034  0.2446  0.6300
  803SOL    HW2 3210   4.486   4.060   1.578  2.1348  0.2942 -0.4257
  803SOL    HW3 3211   4.561   3.930   1.594 -0.5513 -1.2666 -0.1241
  803SOL    MW4 3212   4.491   3.973   1.568  0.0592  0.0517  0.3912
  804SOL     OW 3213   0.021   4.243   1.601  0.5501 -0.5798 -0.4025
  804SOL    HW2 3214  -0.012   4.244   1.691 -0.1703 -0.0381 -0.6719
  804SOL    HW3 3215  -0.035   4.304   1.554  0.3513 -1.5439 -1.4287
  804SOL    MW4 3216   0.009   4.251   1.606  0.4288 -0.6356 -0.5735
  805SOL     OW 3217   0.242   4.381   1.566 -0.3249 -0.3048  0.4242
  805SOL    HW2 3218   0.165   4.325   1.574 -1.3621  0.9306 -0.6770
  805SOL    HW3 3219   0.212   4.468   1.593  1.1697 -0.1769  1.7625
  805SOL    MW4 3220   0.228   4.385   1.571 -0.2646 -0.1249  0.4555
  806SOL     OW 3221   0.685   4.662   1.614  0.1719  0.2957  0.2167
  806SOL    HW2 3222   0.754   4.727   1.599 -1.0063  1.0889 -1.8872
  806SOL    HW3 3223   0.604   4.711   1.607 -0.6718 -0.7748  2.0037
  806SOL    MW4 3224   0.684   4.677   1.611 -0.0949  0.2591  0.1749
  807SOL     OW 3225   0.431   0.112   1.561 -0.3094 -0.1849  0.0793
  807SOL    HW2 3226   0.454   0.192   1.608  0.1515  0.2299 -0.8411
  807SOL    HW3 3227   0.412   0.141   1.472  1.0987 -1.2577 -0.5841
  807SOL    MW4 3228   0.432   0.126   1.555 -0.0628 -0.2717 -0.1297
  808SOL     OW 3229   0.480   0.386   1.659 -0.1049 -0.6839  0.2796
  808SOL    HW2 3230   0.541   0.456   1.635  0.9303 -1.4948  0.4661
  808SOL    HW3 3231   0.397   0.411   1.619  0.4912  0.1836 -0.4436
  808SOL    MW4 3232   0.477   0.399   1.650  0.1103 -0.6764  0.2088
  809SOL     OW 3233   0.686   0.558   1.574  0.6772 -0.2336 -0.6244
  809SOL    HW2 3234   0.681   0.653   1.578  0.6534 -0.2102 -1.2799
  809SOL    HW3 3235   0.684   0.537   1.481  1.0904 -0.8513 -0.4978
  809SOL    MW4 3236   0.685   0.567   1.562  0.7286 -0.3120 -0.6942
  810SOL     OW 3237   0.690   0.827   1.664 -0.1298  0.1593 -0.0791
  810SOL    HW2 3238   0.691   0.809   1.758 -0.1407  0.2933 -0.0523
  810SOL    HW3 3239   0.775   0.868   1.647  0.1803 -0.5691 -0.2691
  810SOL    MW4 3240   0.701   0.830   1.674 -0.0903  0.0809 -0.1006
  811SOL     OW 3241   0.427   0.922   1.599 -0.2836 -0.4508  0.2962
  811SOL    HW2 3242   0.433   1.017   1.612 -1.3483 -0.6695  2.5444
  811SOL    HW3 3243   0.516   0.890   1.617  0.0497  0.0827 -0.3516
  811SOL    MW4 3244   0.440   0.931   1.603 -0.3801 -0.4093  0.5073
  812SOL     OW 3245   0.430   1.189   1.649  0.2772  0.6433 -0.0318
  812SOL    HW2 3246   0.503   1.224   1.598 -1.1128 -1.3417 -3.5584
  812SOL    HW3 3247   0.352   1.229   1.611 -0.8896 -1.8255 -0.3670
  812SOL    MW4 3248   0.429   1.199   1.638 -0.0601  0.0557 -0.5413
  813SOL     OW 3249   0.672   1.271   1.526  0.4140 -0.0599 -0.1596
  813SOL    HW2 3250   0.680   1.360   1.559 -0.2893  0.1992 -0.6462
  813SOL    HW3 3251   0.664   1.282   1.431 -1.3212 -0.5123 -0.0848
  813SOL    MW4 3252   0.672   1.284   1.518  0.0923 -0.0854 -0.2139
  814SOL     OW 3253   0.678   1.528   1.626 -0.2432  0.1223 -0.0700
  814SOL    HW2 3254   0.744   1.578   1.577 -1.5532  1.3407 -0.6301
  814SOL    HW3 3255   0.594   1.563   1.595 -1.1706 -1.7899  0.2301
  814SOL    MW4 3256   0.676   1.539   1.615 -0.5384  0.0307 -0.1043
  815SOL     OW 3257   0.452   1.687   1.564 -0.1758 -0.0956  0.0526
  815SOL    HW2 3258   0.437   1.777   1.594 -0.0567  0.0483 -0.3181
  815SOL    HW3 3259   0.376   1.639   1.595 -0.1421  0.0898  0.4307
  815SOL    MW4 3260   0.440   1.693   1.572 -0.1557 -0.0521  0.0536
  816SOL     OW 3261   0.477   1.963   1.677  0.0848 -0.0049 -0.0562
  816SOL    HW2 3262   0.469   1.953   1.772 -1.7708 -1.4338 -0.3488
  816SOL    HW3 3263   0.393   1.999   1.650  0.7373  0.7459 -1.1453
  816SOL    MW4 3264   0.465   1.967   1.686 -0.0740 -0.0944 -0.2385
  817SOL     OW 3265   0.680   2.061   1.500 -0.3051 -0.2494  0.2054
  817SOL    HW2 3266   0.757   2.033   1.550 -0.0947 -1.3290 -0.7161
  817SOL    HW3 3267   0.606   2.028   1.551 -0.1198 -0.4837  0.3285
  817SOL    MW4 3268   0.680   2.053   1.514 -0.2529 -0.4227  0.1001
  818SOL     OW 3269   0.687   2.329   1.590  0.0555 -0.0817 -0.4906
  818SOL    HW2 3270   0.601   2.365   1.570 -0.2692 -0.6891 -0.2071
  818SOL    HW3 3271   0.684   2.240   1.554  0.4998 -0.1715 -0.3086
  818SOL    MW4 3272   0.675   2.322   1.582  0.0713 -0.1737 -0.4292
  819SOL     OW 3273   0.444   2.431   1.509  0.0327 -0.3651  0.1585
  819SOL    HW2 3274   0.442   2.522   1.541  0.4253  0.0237 -0.8822
  819SOL    HW3 3275   0.372   2.388   1.555  0.9776 -0.0041  2.0286
  819SOL    MW4 3276   0.434   2.438   1.519  0.2092 -0.2662  0.2679
  820SOL     OW 3277   0.459   2.719   1.602 -0.8137  0.6937  0.1763
  820SOL    HW2 3278   0.435   2.699   1.692  0.1974  0.0595  0.3091
  820SOL    HW3 3279   0.549   2.752   1.608 -0.0466 -1.1553 -0.8105
  820SOL    MW4 3280   0.468   2.721   1.615 -0.5791  0.3661  0.0637
  821SOL     OW 3281   0.710   2.814   1.515 -0.3126  0.1792 -0.3121
  821SOL    HW2 3282   0.710   2.906   1.543 -0.5879  0.6457 -1.7939
  821SOL    HW3 3283   0.700   2.818   1.420  0.2865 -1.3772 -0.4553
  821SOL    MW4 3284   0.709   2.827   1.506 -0.2699  0.0354 -0.5265
  822SOL     OW 3285   0.713   3.076   1.617  0.0401 -0.4838 -0.1833
  822SOL    HW2 3286   0.787   3.120   1.575  0.5335  0.2567  1.4270
  822SOL    HW3 3287   0.636   3.111   1.571  0.5832  0.1292 -0.6408
  822SOL    MW4 3288   0.712   3.087   1.605  0.1768 -0.3052 -0.0312
  823SOL     OW 3289   0.480   3.185   1.513  0.7596  0.1577  0.0398
  823SOL    HW2 3290   0.392   3.150   1.524  0.6933  0.4955  0.5954
  823SOL    HW3 3291   0.483   3.214   1.422  0.2519  0.2698  0.0591
  823SOL    MW4 3292   0.469   3.184   1.502  0.6839  0.2170  0.1157
  824SOL     OW 3293   0.477   3.462   1.604  0.4075  0.6257 -0.4456
  824SOL    HW2 3294   0.473   3.377   1.559  0.2561  0.7486 -0.6614
  824SOL    HW3 3295   0.407   3.514   1.565 -0.5957  0.2878  0.8543
  824SOL    MW4 3296   0.467   3.457   1.593  0.2552  0.5973 -0.3026
  825SOL     OW 3297   0.718   3.578   1.522 -0.0678  0.0666  0.1954
  825SOL    HW2 3298   0.791   3.540   1.570  0.2138 -0.8223 -0.9321
  825SOL    HW3 3299   0.640   3.538   1.563  0.0821  0.7936  1.1988
  825SOL    MW4 3300   0.717   3.567   1.534 -0.0108  0.0452  0.1790
  826SOL     OW 3301   0.685   3.850   1.615 -0.5376  0.2940  0.3113
  826SOL    HW2 3302   0.748   3.912   1.577 -1.2288  1.1042  0.4678
  826SOL    HW3 3303   0.710   3.765   1.578  0.9987  0.5088  0.8216
  826SOL    MW4 3304   0.697   3.847   1.605 -0.4261  0.4292  0.3993
  827SOL     OW 3305   0.464   3.984   1.542  0.0211  0.0504 -0.2596
  827SOL    HW2 3306   0.536   3.927   1.568 -1.4573 -2.1494 -0.7912
  827SOL    HW3 3307   0.471   3.989   1.446 -0.3648  0.0205 -0.2922
  827SOL    MW4 3308   0.474   3.977   1.533 -0.2249 -0.2438 -0.3341
  828SOL     OW 3309   0.483   4.249   1.611 -0.6738  0.1099  0.0086
  828SOL    HW2 3310   0.469   4.157   1.587 -0.5028  0.1186 -0.1295
  828SOL    HW3 3311   0.404   4.294   1.581 -0.6109  0.0632 -0.2292
  828SOL    MW4 3312   0.471   4.243   1.604 -0.6429  0.1049 -0.0410
  829SOL     OW 3313   0.682   4.400   1.520 -0.0949  0.8849  0.1982
  829SOL    HW2 3314   0.610   4.349   1.556  1.9455 -0.6616  2.3157
  829SOL    HW3 3315   0.680   4.482   1.568 -1.1343  1.2933 -0.5506
  829SOL    MW4 3316   0.672   4.404   1.531  0.0371  0.7347  0.3788
  830SOL     OW 3317   1.099   4.635   1.637  0.5303  0.3320  0.4806
  830SOL    HW2 3318   1.090   4.633   1.733  1.9060  0.5089  0.6223
  830SOL    HW3 3319   1.184   4.676   1.622 -0.1681  1.2940 -0.8596
  830SOL    MW4 3320   1.109   4.640   1.648  0.6196  0.4823  0.3224
  831SOL     OW 3321   0.906   0.155   1.556 -0.0320 -1.1651  0.3009
  831SOL    HW2 3322   0.921   0.243   1.589 -2.1247 -1.3480  1.8482
  831SOL    HW3 3323   0.979   0.103   1.592 -0.6042 -0.7314  2.1235
  831SOL    MW4 3324   0.918   0.160   1.565 -0.3836 -1.1320  0.7455
  832SOL     OW 3325   0.925   0.414   1.657 -0.3351 -0.5329  0.6375
  832SOL    HW2 3326   0.940   0.441   1.748 -0.5132 -1.1398  0.8527
  832SOL    HW3 3327   0.856   0.472   1.626  1.3531  1.2626  0.1272
  832SOL    MW4 3328   0.918   0.425   1.665 -0.1359 -0.3760  0.5986
  833SOL     OW 3329   1.159   0.519   1.514 -0.1301  0.0212  0.6787
  833SOL    HW2 3330   1.174   0.606   1.552 -0.3649 -0.1376  1.1310
  833SOL    HW3 3331   1.074   0.491   1.548  0.1247 -0.5574  0.8502
  833SOL    MW4 3332   1.150   0.527   1.524 -0.1275 -0.0761  0.7610
  834SOL     OW 3333   1.164   0.765   1.622 -0.0879 -0.1484 -0.2131
  834SOL    HW2 3334   1.166   0.771   1.717  2.1763  3.0034 -0.3907
  834SOL    HW3 3335   1.234   0.824   1.592 -1.9141  0.3367 -3.8671
  834SOL    MW4 3336   1.173   0.774   1.630 -0.0301  0.3314 -0.7186
  835SOL     OW 3337   0.944   0.932   1.561 -0.4904 -0.5593 -0.0956
  835SOL    HW2 3338   1.019   0.875   1.575 -0.3259 -0.5075 -0.7772
  835SOL    HW3 3339   0.924   0.925   1.468 -0.4788  0.4783 -0.1846
  835SOL    MW4 3340   0.951   0.924   1.551 -0.4671 -0.4156 -0.1973
  836SOL     OW 3341   0.942   1.208   1.586  0.5448  0.2603 -0.0330
  836SOL    HW2 3342   0.944   1.112   1.589  0.1421  0.2699  0.7347
  836SOL    HW3 3343   0.850   1.229   1.569  0.8841  0.4874 -1.7415
  836SOL    MW4 3344   0.930   1.198   1.584  0.5365  0.2915 -0.1571
  837SOL     OW 3345   1.174   1.337   1.522 -0.5744  0.5103 -0.2120
  837SOL    HW2 3346   1.240   1.283   1.565  0.2553  0.9750 -0.8716
  837SOL    HW3 3347   1.091   1.296   1.544 -0.1333  0.5107  1.4726
  837SOL    MW4 3348   1.172   1.325   1.530 -0.4067  0.5716 -0.0768
  838SOL     OW 3349   1.127   1.587   1.614 -0.3517 -0.2497 -0.1367
  838SOL    HW2 3350   1.211   1.626   1.591  0.5304 -1.3026  1.2293
  838SOL    HW3 3351   1.137   1.494   1.591 -1.4296 -0.2228 -0.7311
  838SOL    MW4 3352   1.139   1.580   1.608 -0.3776 -0.3850 -0.0349
  839SOL     OW 3353   0.883   1.668   1.528 -0.1012  0.1548  0.0752
  839SOL    HW2 3354   0.964   1.632   1.564 -0.9884 -1.5313  0.4379
  839SOL    HW3 3355   0.903   1.685   1.436  0.6922 -0.1348  0.1923
  839SOL    MW4 3356   0.896   1.665   1.521 -0.1136 -0.1059  0.1385
  840SOL     OW 3357   0.888   1.934   1.646  0.1930 -0.5082 -0.1001
  840SOL    HW2 3358   0.973   1.964   1.613  0.4495  0.5656  1.4527
  840SOL    HW3 3359   0.871   1.853   1.598  0.2824  1.2468 -3.2183
  840SOL    MW4 3360   0.897   1.927   1.635  0.2387 -0.1349 -0.3066
  841SOL     OW 3361   1.128   2.072   1.551 -0.2802  0.2562  0.0791
  841SOL    HW2 3362   1.212   2.036   1.578 -0.0524  0.6748 -0.0649
  841SOL    HW3 3363   1.130   2.163   1.581 -0.3189  0.5181 -0.6944
  841SOL    MW4 3364   1.139   2.079   1.559 -0.2553  0.3460 -0.0420
  842SOL     OW 3365   1.127   2.321   1.644 -0.3083  0.1155  0.4525
  842SOL    HW2 3366   1.200   2.347   1.587 -0.0301 -0.5811  0.4871
  842SOL    HW3 3367   1.058   2.383   1.623  0.2471  0.6936  0.3129
  842SOL    MW4 3368   1.128   2.333   1.634 -0.1983  0.0999  0.4387
  843SOL     OW 3369   0.927   2.462   1.537 -0.3094 -0.0471  0.4161
  843SOL    HW2 3370   0.920   2.548   1.578 -0.0239  0.6770 -1.0341
  843SOL    HW3 3371   0.842   2.420   1.556  0.3342 -0.2948  2.9334
  843SOL    MW4 3372   0.915   2.468   1.545 -0.1868  0.0158  0.5568
  844SOL     OW 3373   0.926   2.722   1.671 -0.2137  0.4000  0.1048
  844SOL    HW2 3374   0.919   2.738   1.765 -0.8518 -0.3544  0.1932
  844SOL    HW3 3375   0.846   2.757   1.634 -0.5076 -0.3616 -0.0015
  844SOL    MW4 3376   0.915   2.729   1.678 -0.3367  0.2000  0.1024
  845SOL     OW 3377   1.116   2.852   1.536  0.5141 -0.0201  0.3864
  845SOL    HW2 3378   1.121   2.941   1.571 -1.2602  0.0483  0.5028
  845SOL    HW3 3379   1.034   2.817   1.570  0.5229 -1.2178 -0.7816
  845SOL    MW4 3380   1.106   2.859   1.545  0.2812 -0.1691  0.2476
  846SOL     OW 3381   1.121   3.110   1.615  0.1071 -0.6956 -0.0137
  846SOL    HW2 3382   1.146   3.121   1.706  1.3709  0.1431 -0.4422
  846SOL    HW3 3383   1.199   3.135   1.565 -1.0296  0.2971 -1.3536
  846SOL    MW4 3384   1.134   3.115   1.620  0.1238 -0.4540 -0.2470
  847SOL     OW 3385   0.918   3.217   1.493 -0.0828  0.6639  0.3771
  847SOL    HW2 3386   0.990   3.162   1.522  1.6679  3.0805  0.7786
  847SOL    HW3 3387   0.922   3.214   1.397  0.1318  0.2677  0.3976
  847SOL    MW4 3388   0.928   3.210   1.484  0.1765  0.9305  0.4328
  848SOL     OW 3389   0.923   3.455   1.642  0.1438  0.0152  0.3054
  848SOL    HW2 3390   0.988   3.514   1.605  0.7219 -0.5462  0.4196
  848SOL    HW3 3391   0.928   3.377   1.586 -0.8365  0.1935 -0.0430
  848SOL    MW4 3392   0.932   3.452   1.630  0.0907 -0.0354  0.2745
  849SOL     OW 3393   1.094   3.636   1.512 -0.1302 -0.0096 -0.5599
  849SOL    HW2 3394   1.165   3.588   1.554  0.2891  1.1397  0.0597
  849SOL    HW3 3395   1.103   3.617   1.419  2.0462  1.4958 -0.6852
  849SOL    MW4 3396   1.104   3.627   1.505  0.2122  0.3406 -0.4947
  850SOL     OW 3397   1.038   3.884   1.626 -0.0661  0.1216  0.0804
  850SOL    HW2 3398   1.126   3.920   1.619 -0.3640  0.5838 -1.4204
  850SOL    HW3 3399   1.047   3.793   1.597 -0.0735  0.1484 -0.0052
  850SOL    MW4 3400   1.051   3.877   1.621 -0.1064  0.1861 -0.1289
  851SOL     OW 3401   0.865   4.014   1.475  0.2337 -0.1966 -0.4337
  851SOL    HW2 3402   0.882   4.103   1.505  2.1311 -0.5939 -0.3079
  851SOL    HW3 3403   0.930   3.960   1.519 -1.0982 -1.7098 -0.2647
  851SOL    MW4 3404   0.876   4.019   1.485  0.3083 -0.4486 -0.3948
  852SOL     OW 3405   0.904   4.276   1.605  0.6820  0.3940 -0.2717
  852SOL    HW2 3406   0.907   4.292   1.700  0.6125 -0.0781 -0.1884
  852SOL    HW3 3407   0.823   4.319   1.576 -1.3459 -2.7441  0.5208
  852SOL    MW4 3408   0.893   4.284   1.614  0.4053 -0.0823 -0.1562
  853SOL     OW 3409   1.113   4.413   1.494 -0.3857  0.0897  0.2375
  853SOL    HW2 3410   1.035   4.363   1.516 -0.1046 -0.2939  0.3563
  853SOL    HW3 3411   1.101   4.497   1.538 -1.3652  0.5313 -0.8524
  853SOL    MW4 3412   1.101   4.418   1.503 -0.4778  0.0973  0.1094
  854SOL     OW 3413   1.542   4.603   1.617  0.2074  0.4440 -0.0800
  854SOL    HW2 3414   1.556   4.600   1.712  0.6109  0.6292 -0.1326
  854SOL    HW3 3415   1.474   4.668   1.604 -0.9807 -0.7214  0.2118
  854SOL    MW4 3416   1.535   4.611   1.628  0.1039  0.3147 -0.0484
  855SOL     OW 3417   1.328   0.106   1.565  0.2865 -0.1493 -0.2524
  855SOL    HW2 3418   1.338   0.201   1.572  2.7437 -0.2643 -1.4145
  855SOL    HW3 3419   1.331   0.089   1.471  0.0315 -1.3810 -0.0422
  855SOL    MW4 3420   1.330   0.116   1.553  0.5771 -0.3270 -0.3780
  856SOL     OW 3421   1.370   0.371   1.625 -0.4496  0.3151 -0.5526
  856SOL    HW2 3422   1.445   0.421   1.595 -0.5213 -0.0333 -1.3172
  856SOL    HW3 3423   1.295   0.414   1.584 -0.4777 -0.6523 -1.5216
  856SOL    MW4 3424   1.370   0.384   1.616 -0.4627  0.1415 -0.7813
  857SOL     OW 3425   1.604   0.480   1.563 -0.6971 -0.0242  0.2491
  857SOL    HW2 3426   1.673   0.437   1.614 -0.7146  0.9699  1.1209
  857SOL    HW3 3427   1.620   0.452   1.473 -0.7633 -1.9395  0.7975
  857SOL    MW4 3428   1.615   0.470   1.558 -0.7081 -0.1457  0.4365
  858SOL     OW 3429   1.624   0.740   1.655  0.0092  0.0989 -0.0279
  858SOL    HW2 3430   1.608   0.752   1.749 -0.7570 -1.1426  0.0183
  858SOL    HW3 3431   1.602   0.648   1.639 -0.8846  0.5712 -1.6217
  858SOL    MW4 3432   1.619   0.730   1.665 -0.2098 -0.0026 -0.2321
  859SOL     OW 3433   1.402   0.899   1.543 -0.2318  0.3603 -0.2584
  859SOL    HW2 3434   1.469   0.842   1.580 -0.5825 -0.1587 -0.4208
  859SOL    HW3 3435   1.416   0.894   1.448 -0.0032  0.8685 -0.2559
  859SOL    MW4 3436   1.413   0.891   1.535 -0.2479  0.3589 -0.2795
  860SOL     OW 3437   1.372   1.161   1.626 -0.1500 -0.2899  0.6943
  860SOL    HW2 3438   1.370   1.165   1.721 -0.3141  0.1427  0.6711
  860SOL    HW3 3439   1.360   1.068   1.606  1.4444 -0.5979  1.1376
  860SOL    MW4 3440   1.370   1.149   1.636  0.0387 -0.2735  0.7497
  861SOL     OW 3441   1.616   1.265   1.574 -0.2307 -0.2821  0.5233
  861SOL    HW2 3442   1.529   1.224   1.579 -0.0936 -0.8248 -1.1473
  861SOL    HW3 3443   1.630   1.280   1.480  1.5576 -0.3584  0.7652
  861SOL    MW4 3444   1.606   1.262   1.562  0.0233 -0.3638  0.3348
  862SOL     OW 3445   1.583   1.531   1.630 -0.4427  0.1469 -0.3544
  862SOL    HW2 3446   1.582   1.537   1.725 -0.3912 -0.3605 -0.3197
  862SOL    HW3 3447   1.594   1.438   1.612 -0.8577  0.1933 -0.8614
  862SOL    MW4 3448   1.585   1.520   1.640 -0.4906  0.0861 -0.4167
  863SOL     OW 3449   1.365   1.689   1.554 -0.2810  0.6034 -0.0435
  863SOL    HW2 3450   1.436   1.627   1.569 -0.3771  0.6667  0.7048
  863SOL    HW3 3451   1.360   1.697   1.459  0.2953  0.1183 -0.1205
  863SOL    MW4 3452   1.374   1.682   1.544 -0.2177  0.5477  0.0451
  864SOL     OW 3453   1.378   1.946   1.645  0.4671 -0.1408  0.5924
  864SOL    HW2 3454   1.359   1.950   1.739  0.4979  0.2211  0.5831
  864SOL    HW3 3455   1.386   1.853   1.626  2.7129 -0.1199  1.3906
  864SOL    MW4 3456   1.376   1.934   1.655  0.7675 -0.0903  0.6965
  865SOL     OW 3457   1.607   2.084   1.563 -0.2941  0.2052  0.5320
  865SOL    HW2 3458   1.530   2.036   1.593  0.0170  0.1202  1.2214
  865SOL    HW3 3459   1.599   2.087   1.468 -0.0366 -1.6878  0.4361
  865SOL    MW4 3460   1.596   2.078   1.555 -0.2191 -0.0558  0.6103
  866SOL     OW 3461   1.627   2.351   1.609  0.0107 -0.0920 -0.0159
  866SOL    HW2 3462   1.709   2.380   1.568 -0.4643 -0.1374 -1.0102
  866SOL    HW3 3463   1.624   2.256   1.593  0.1235 -0.2193  0.6777
  866SOL    MW4 3464   1.638   2.342   1.602 -0.0371 -0.1148 -0.0556
  867SOL     OW 3465   1.358   2.421   1.495 -0.5132  0.1271 -0.6360
  867SOL    HW2 3466   1.346   2.508   1.532 -0.4234 -0.1671  0.0884
  867SOL    HW3 3467   1.440   2.389   1.532  0.3935  0.4494 -2.3136
  867SOL    MW4 3468   1.367   2.428   1.505 -0.3817  0.1308 -0.7618
  868SOL     OW 3469   1.319   2.683   1.619  0.5015 -0.0462 -0.2312
  868SOL    HW2 3470   1.403   2.724   1.595  0.8585 -1.0781 -0.7693
  868SOL    HW3 3471   1.254   2.749   1.597  1.2137  0.9883  0.7133
  868SOL    MW4 3472   1.322   2.697   1.613  0.6426 -0.0458 -0.1776
  869SOL     OW 3473   1.554   2.821   1.540  0.0734  0.6593 -0.4922
  869SOL    HW2 3474   1.636   2.775   1.558 -0.5441  0.0620  0.8694
  869SOL    HW3 3475   1.548   2.822   1.445  1.1520 -0.1950 -0.5845
  869SOL    MW4 3476   1.564   2.815   1.530  0.1342  0.4677 -0.3247
  870SOL     OW 3477   1.583   3.087   1.630  0.0355 -0.0951 -0.7764
  870SOL    HW2 3478   1.661   3.109   1.578 -0.6773 -1.4405 -2.4958
  870SOL    HW3 3479   1.564   2.996   1.606 -1.9755  0.1636 -0.2511
  870SOL    MW4 3480   1.591   3.078   1.620 -0.3239 -0.2385 -0.9340
  871SOL     OW 3481   1.363   3.227   1.490  0.1958 -0.2227  0.0694
  871SOL    HW2 3482   1.348   3.314   1.529  1.2689 -0.0796  0.1791
  871SOL    HW3 3483   1.434   3.189   1.543  0.0422 -0.9830 -0.2628
  871SOL    MW4 3484   1.371   3.233   1.502  0.3171 -0.3042  0.0401
  872SOL     OW 3485   1.283   3.475   1.617 -0.2406 -0.0602  0.3339
  872SOL    HW2 3486   1.297   3.447   1.708 -0.8699 -1.2246  0.0817
  872SOL    HW3 3487   1.355   3.535   1.599  0.5235 -0.6996  1.2397
  872SOL    MW4 3488   1.294   3.479   1.627 -0.2228 -0.2982  0.4202
  873SOL     OW 3489   1.527   3.578   1.547 -0.5541  0.3703  0.3742
  873SOL    HW2 3490   1.538   3.668   1.577  1.9144  0.2858 -0.1446
  873SOL    HW3 3491   1.534   3.583   1.452 -0.3360 -0.3788  0.3416
  873SOL    MW4 3492   1.529   3.590   1.538 -0.1997  0.2603  0.3014
  874SOL     OW 3493   1.533   3.879   1.617  0.3518  0.0571  0.3041
  874SOL    HW2 3494   1.530   3.894   1.711 -0.7150 -0.9486  0.4491
  874SOL    HW3 3495   1.447   3.906   1.586  0.6382  0.2139 -0.3558
  874SOL    MW4 3496   1.521   3.884   1.625  0.2489 -0.0549  0.2362
  875SOL     OW 3497   1.294   3.999   1.533 -0.4760 -0.5381 -0.3046
  875SOL    HW2 3498   1.297   4.089   1.565  1.1927 -1.0152  0.9508
  875SOL    HW3 3499   1.319   4.005   1.441 -1.7741  0.4397 -0.5972
  875SOL    MW4 3500   1.298   4.011   1.525 -0.4271 -0.4721 -0.1776
  876SOL     OW 3501   1.305   4.258   1.638 -0.6686  0.2199 -0.2678
  876SOL    HW2 3502   1.383   4.287   1.590 -0.8771  1.0571 -0.1017
  876SOL    HW3 3503   1.233   4.304   1.595 -0.6462  2.6396  2.1913
  876SOL    MW4 3504   1.306   4.268   1.626 -0.6932  0.6496  0.0785
  877SOL     OW 3505   1.550   4.366   1.496  0.0239  0.1578  0.0168
  877SOL    HW2 3506   1.630   4.323   1.525 -0.5376 -1.5380 -0.8979
  877SOL    HW3 3507   1.548   4.449   1.545  2.1497  0.0741  0.2670
  877SOL    MW4 3508   1.560   4.372   1.507  0.2303 -0.0770 -0.0709
  878SOL     OW 3509   1.989   4.612   1.638  0.1816  0.2585  0.4933
  878SOL    HW2 3510   2.006   4.595   1.730 -0.9249  0.3415  0.7138
  878SOL    HW3 3511   1.907   4.662   1.637 -0.5340 -0.9029 -0.6094
  878SOL    MW4 3512   1.980   4.616   1.650 -0.0588  0.1162  0.3769
  879SOL     OW 3513   1.750   0.093   1.578 -0.6542 -0.2636 -0.2546
  879SOL    HW2 3514   1.682   0.028   1.591  1.6851 -3.1656 -1.9719
  879SOL    HW3 3515   1.776   0.084   1.486  0.5022  2.3588 -0.2549
  879SOL    MW4 3516   1.745   0.083   1.568 -0.1930 -0.3005 -0.4812
  880SOL     OW 3517   1.820   0.344   1.667  0.0764  0.1324  0.2981
  880SOL    HW2 3518   1.896   0.366   1.613  1.5252 -2.4846  1.1645
  880SOL    HW3 3519   1.788   0.261   1.631 -1.2677  0.3031  1.0705
  880SOL    MW4 3520   1.826   0.336   1.655  0.0902 -0.1904  0.5144
  881SOL     OW 3521   2.051   0.465   1.559 -0.1179  0.1751  0.4933
  881SOL    HW2 3522   2.138   0.437   1.590  0.1547  1.7390  1.1439
  881SOL    HW3 3523   2.042   0.555   1.588 -0.6547  1.0833 -2.2976
  881SOL    MW4 3524   2.062   0.473   1.567 -0.1527  0.5013  0.2109
  882SOL     OW 3525   2.102   0.752   1.635 -0.2750  0.2938  0.1419
  882SOL    HW2 3526   2.170   0.812   1.604  0.5214  0.4283  2.0700
  882SOL    HW3 3527   2.020   0.788   1.600  0.4535  1.1242 -0.7342
  882SOL    MW4 3528   2.100   0.764   1.626 -0.0738  0.4211  0.2807
  883SOL     OW 3529   1.855   0.861   1.566 -0.3605 -0.1770  0.4764
  883SOL    HW2 3530   1.857   0.947   1.607 -1.8153  0.4251 -0.6324
  883SOL    HW3 3531   1.781   0.816   1.607 -0.7183 -0.2237 -0.2052
  883SOL    MW4 3532   1.846   0.866   1.577 -0.5996 -0.1037  0.2401
  884SOL     OW 3533   1.850   1.129   1.672 -0.6695  0.1498  0.2328
  884SOL    HW2 3534   1.925   1.187   1.661 -1.5564  0.8570 -2.6842
  884SOL    HW3 3535   1.774   1.183   1.649 -1.6514 -1.7319 -1.1069
  884SOL    MW4 3536   1.850   1.144   1.667 -0.9160 -0.0051 -0.3288
  885SOL     OW 3537   2.044   1.286   1.566 -0.3651 -0.1067 -0.3285
  885SOL    HW2 3538   2.030   1.379   1.582 -0.5095  0.1863 -2.0959
  885SOL    HW3 3539   2.029   1.275   1.472  1.1760 -1.6413 -0.4109
  885SOL    MW4 3540   2.040   1.297   1.556 -0.1808 -0.2705 -0.5725
  886SOL     OW 3541   1.997   1.544   1.638  0.6416  0.1077 -0.7324
  886SOL    HW2 3542   2.081   1.586   1.618  0.0375  1.6770 -0.1237
  886SOL    HW3 3543   1.936   1.583   1.576  0.3902 -1.1486 -1.2757
  886SOL    MW4 3544   2.000   1.555   1.627  0.5288  0.1490 -0.7238
  887SOL     OW 3545   1.801   1.692   1.517  0.5361 -0.2407 -0.2810
  887SOL    HW2 3546   1.727   1.642   1.551  0.9850  0.0846  1.2275
  887SOL    HW3 3547   1.788   1.694   1.422 -0.6408 -1.3597 -0.1527
  887SOL    MW4 3548   1.790   1.685   1.509  0.4400 -0.3454 -0.0651
  888SOL     OW 3549   1.837   1.952   1.632 -0.2400  0.1117  0.1252
  888SOL    HW2 3550   1.813   1.865   1.600 -0.0851  0.4279 -0.8526
  888SOL    HW3 3551   1.763   2.007   1.608 -1.5928 -0.2711  3.1635
  888SOL    MW4 3552   1.824   1.948   1.625 -0.3981  0.1029  0.3971
  889SOL     OW 3553   2.055   2.056   1.485 -0.1376  0.4585  0.0905
  889SOL    HW2 3554   2.139   2.019   1.512  0.1840  0.5639 -0.7417
  889SOL    HW3 3555   1.989   2.000   1.526  0.3465 -0.4293 -0.3273
  889SOL    MW4 3556   2.057   2.044   1.494 -0.0313  0.3553 -0.0744
  890SOL     OW 3557   2.010   2.300   1.598 -0.2415  0.1081  0.0642
  890SOL    HW2 3558   2.007   2.287   1.693  0.0687  1.3444  0.2488
  890SOL    HW3 3559   2.028   2.212   1.563  1.5340 -0.0563  1.2669
  890SOL    MW4 3560   2.012   2.286   1.606  0.0337  0.2495  0.2472
  891SOL     OW 3561   1.828   2.444   1.461  0.0888 -0.0351 -0.2731
  891SOL    HW2 3562   1.905   2.410   1.506  0.3846  0.2792 -0.5334
  891SOL    HW3 3563   1.848   2.435   1.368  0.2379  0.9757 -0.3510
  891SOL    MW4 3564   1.841   2.438   1.455  0.1475  0.1398 -0.3177
  892SOL     OW 3565   1.793   2.698   1.609  0.0178  0.4157  0.1541
  892SOL    HW2 3566   1.870   2.754   1.599  1.6703 -1.4017  2.2279
  892SOL    HW3 3567   1.805   2.629   1.545  0.7235 -0.4985  1.2535
  892SOL    MW4 3568   1.805   2.696   1.600  0.3289  0.0553  0.5727
  893SOL     OW 3569   2.009   2.839   1.510  0.2916 -0.1363 -0.1125
  893SOL    HW2 3570   2.007   2.923   1.556  0.1547 -0.1297 -0.1312
  893SOL    HW3 3571   1.997   2.862   1.417  0.5742 -0.1492 -0.1514
  893SOL    MW4 3572   2.007   2.853   1.503  0.3108 -0.1371 -0.1201
  894SOL     OW 3573   2.036   3.097   1.609 -0.5110 -0.0319 -0.2161
  894SOL    HW2 3574   2.044   3.108   1.703  0.5788 -0.1331 -0.2829
  894SOL    HW3 3575   2.107   3.152   1.573  1.4147 -2.8120 -0.7939
  894SOL    MW4 3576   2.047   3.106   1.616 -0.1131 -0.4120 -0.3012
  895SOL     OW 3577   1.797   3.215   1.505  0.2622 -0.5392 -0.3237
  895SOL    HW2 3578   1.781   3.296   1.553 -1.5109 -0.3253 -1.2337
  895SOL    HW3 3579   1.882   3.185   1.536  0.2089  0.8288  1.2029
  895SOL    MW4 3580   1.806   3.222   1.515  0.0212 -0.3305 -0.2424
  896SOL     OW 3581   1.762   3.440   1.643  0.1204 -0.4679  0.1374
  896SOL    HW2 3582   1.756   3.447   1.738 -2.5671 -1.0347  0.0532
  896SOL    HW3 3583   1.693   3.498   1.610  0.8924 -0.4204 -1.4541
  896SOL    MW4 3584   1.752   3.449   1.651 -0.1323 -0.5364 -0.0837
  897SOL     OW 3585   1.982   3.568   1.478  0.4637 -0.6932  0.0329
  897SOL    HW2 3586   2.064   3.547   1.522  0.7772  0.9885  0.2747
  897SOL    HW3 3587   1.914   3.540   1.539  0.8507 -2.1909 -0.2193
  897SOL    MW4 3588   1.984   3.562   1.492  0.5561 -0.6689  0.0315
  898SOL     OW 3589   2.018   3.821   1.601 -0.2392 -0.1397  0.2779
  898SOL    HW2 3590   2.092   3.864   1.558 -0.3143 -0.4799 -0.1829
  898SOL    HW3 3591   2.013   3.735   1.561 -0.3103 -0.4553  0.9635
  898SOL    MW4 3592   2.027   3.816   1.590 -0.2585 -0.2262  0.3076
  899SOL     OW 3593   1.782   3.948   1.489  0.5679  0.6028  0.2128
  899SOL    HW2 3594   1.842   3.895   1.541  0.4782  1.3433  1.0926
  899SOL    HW3 3595   1.694   3.919   1.514  0.5443 -0.0874 -0.6530
  899SOL    MW4 3596   1.778   3.937   1.499  0.5530  0.6094  0.2146
  900SOL     OW 3597   1.781   4.241   1.570 -0.1429 -0.0105 -0.4815
  900SOL    HW2 3598   1.859   4.292   1.548 -0.4288  0.1820 -1.0621
  900SOL    HW3 3599   1.797   4.155   1.533 -0.1577 -0.0019 -0.5086
  900SOL    MW4 3600   1.793   4.237   1.562 -0.1826  0.0160 -0.5616
  901SOL     OW 3601   2.030   4.388   1.483 -0.1400  0.1528  0.1387
  901SOL    HW2 3602   2.102   4.334   1.516  1.7039  1.2171 -2.0346
  901SOL    HW3 3603   2.028   4.464   1.542 -0.4857 -0.5813  1.0959
  901SOL    MW4 3604   2.039   4.391   1.495  0.0577  0.1963 -0.0217
  902SOL     OW 3605   2.437   4.654   1.641  0.2128  0.2212 -0.0133
  902SOL    HW2 3606   2.453   4.654   1.735  1.0234  1.0971 -0.1406
  902SOL    HW3 3607   2.355   4.703   1.630  0.7500  1.1748  0.1498
  902SOL    MW4 3608   2.428   4.660   1.652  0.3906  0.4626 -0.0086
  903SOL     OW 3609   2.207   0.135   1.576 -0.3401 -0.0033  0.0519
  903SOL    HW2 3610   2.148   0.064   1.598  0.1263 -0.5897 -0.5828
  903SOL    HW3 3611   2.214   0.133   1.481 -1.3395  1.7050 -0.0791
  903SOL    MW4 3612   2.200   0.126   1.566 -0.4104  0.1447 -0.0491
  904SOL     OW 3613   2.281   0.362   1.734  0.4822  0.0364  0.2346
  904SOL    HW2 3614   2.257   0.353   1.826 -1.8936  0.9252 -0.2621
  904SOL    HW3 3615   2.261   0.276   1.696 -1.9303  0.7447 -0.1562
  904SOL    MW4 3616   2.275   0.349   1.741 -0.1495  0.2471  0.1175
  905SOL     OW 3617   2.461   0.485   1.543 -0.4421 -0.4738 -0.5119
  905SOL    HW2 3618   2.545   0.446   1.568 -0.0312 -0.1878 -1.4296
  905SOL    HW3 3619   2.399   0.452   1.609  0.6654  0.5281  1.0567
  905SOL    MW4 3620   2.464   0.475   1.555 -0.2418 -0.3039 -0.4260
  906SOL     OW 3621   2.479   0.746   1.656 -0.1264  0.1109  0.2679
  906SOL    HW2 3622   2.415   0.808   1.621 -1.5346 -0.5794  1.5726
  906SOL    HW3 3623   2.465   0.666   1.605 -0.2708 -0.0192  0.5098
  906SOL    MW4 3624   2.469   0.744   1.645 -0.3313  0.0027  0.4719
  907SOL     OW 3625   2.289   0.918   1.532 -0.6214  0.6357  0.2223
  907SOL    HW2 3626   2.279   1.007   1.567  1.6648  1.4706 -1.0853
  907SOL    HW3 3627   2.292   0.930   1.437  0.1348 -0.7999  0.0499
  907SOL    MW4 3628   2.288   0.932   1.524 -0.2200  0.5565  0.0270
  908SOL     OW 3629   2.283   1.182   1.625 -0.4295  0.2595 -0.3451
  908SOL    HW2 3630   2.274   1.153   1.716 -0.6265 -0.5820 -0.6350
  908SOL    HW3 3631   2.203   1.232   1.608 -0.4351  0.3392 -0.0889
  908SOL    MW4 3632   2.272   1.185   1.635 -0.4562  0.1590 -0.3495
  909SOL     OW 3633   2.510   1.266   1.523  0.5152  0.0067 -0.0657
  909SOL    HW2 3634   2.423   1.236   1.548  0.6713 -0.4742 -0.1000
  909SOL    HW3 3635   2.509   1.266   1.427 -0.0947  1.8818 -0.0752
  909SOL    MW4 3636   2.498   1.262   1.514  0.4553  0.1906 -0.0715
  910SOL     OW 3637   2.494   1.517   1.610  0.3603 -0.0542 -0.1442
  910SOL    HW2 3638   2.563   1.560   1.560  0.7339 -0.5765 -0.0747
  910SOL    HW3 3639   2.498   1.425   1.583 -0.2957 -0.0885 -0.1289
  910SOL    MW4 3640   2.503   1.510   1.600  0.3230 -0.1276 -0.1330
  911SOL     OW 3641   2.249   1.643   1.567 -0.0960 -0.7367 -0.1952
  911SOL    HW2 3642   2.333   1.609   1.599  0.4679  1.4592  0.7521
  911SOL    HW3 3643   2.261   1.651   1.472  0.7335 -0.5041 -0.0729
  911SOL    MW4 3644   2.262   1.640   1.559  0.0878 -0.4163 -0.0540
  912SOL     OW 3645   2.275   1.933   1.599  0.2366 -0.4245  0.3049
  912SOL    HW2 3646   2.274   1.925   1.695  0.0721  1.2348  0.4623
  912SOL    HW3 3647   2.248   1.847   1.568  0.9175 -1.1830  1.7364
  912SOL    MW4 3648   2.271   1.921   1.608  0.3047 -0.3057  0.5145
  913SOL     OW 3649   2.528   2.014   1.515 -0.2129  0.2831 -0.0192
  913SOL    HW2 3650   2.444   1.990   1.554 -0.8932  0.3725 -1.4009
  913SOL    HW3 3651   2.509   2.024   1.422  1.5599 -0.8085 -0.5258
  913SOL    MW4 3652   2.515   2.012   1.508 -0.0688  0.1509 -0.2683
  914SOL     OW 3653   2.456   2.285   1.616  0.4995 -0.4714  0.1858
  914SOL    HW2 3654   2.466   2.275   1.710  0.3055  0.7354  0.3476
  914SOL    HW3 3655   2.481   2.200   1.580 -1.0757 -1.4929  1.4210
  914SOL    MW4 3656   2.461   2.273   1.624  0.2661 -0.4469  0.3701
  915SOL     OW 3657   2.232   2.454   1.539 -0.1863 -0.1267  0.2367
  915SOL    HW2 3658   2.309   2.406   1.569 -0.3554 -0.9890 -0.6866
  915SOL    HW3 3659   2.158   2.399   1.565 -0.4503  0.3150  0.4199
  915SOL    MW4 3660   2.232   2.440   1.546 -0.2434 -0.1822  0.1390
  916SOL     OW 3661   2.238   2.718   1.645 -0.2576  0.2135  0.0150
  916SOL    HW2 3662   2.257   2.629   1.615  1.8314  1.1560 -1.6223
  916SOL    HW3 3663   2.155   2.740   1.603  0.0434 -0.3800 -0.9241
  916SOL    MW4 3664   2.230   2.709   1.635  0.0577  0.2596 -0.3249
  917SOL     OW 3665   2.456   2.872   1.587  0.3941 -0.1006 -0.1769
  917SOL    HW2 3666   2.439   2.966   1.595  0.2638 -0.1145 -0.2937
  917SOL    HW3 3667   2.382   2.830   1.630  1.1056 -0.1348  1.0400
  917SOL    MW4 3668   2.444   2.879   1.594  0.4707 -0.1070 -0.0318
  918SOL     OW 3669   2.450   3.147   1.626  0.2461  0.3313  0.3575
  918SOL    HW2 3670   2.535   3.160   1.583 -0.4503 -0.9491 -1.4602
  918SOL    HW3 3671   2.388   3.195   1.572 -0.3779  0.2431  0.9910
  918SOL    MW4 3672   2.453   3.155   1.614  0.0719  0.1508  0.2012
  919SOL     OW 3673   2.214   3.252   1.486 -0.2117  0.4765  0.7195
  919SOL    HW2 3674   2.221   3.341   1.520  2.3013  0.6700 -0.2349
  919SOL    HW3 3675   2.228   3.260   1.392 -2.2684 -0.6791  0.2734
  919SOL    MW4 3676   2.217   3.264   1.478 -0.1515  0.3496  0.5347
  920SOL     OW 3677   2.218   3.502   1.604  0.0094  0.1118 -0.0178
  920SOL    HW2 3678   2.238   3.481   1.695  0.6829 -1.7435 -0.5927
  920SOL    HW3 3679   2.300   3.534   1.568 -0.1803  0.5428 -0.0781
  920SOL    MW4 3680   2.231   3.504   1.611  0.0732 -0.0761 -0.1016
  921SOL     OW 3681   2.470   3.581   1.507  0.0331 -0.2494 -0.0388
  921SOL    HW2 3682   2.543   3.541   1.554  0.0574  0.4284  0.5034
  921SOL    HW3 3683   2.470   3.672   1.535  0.1166  0.2003 -1.4310
  921SOL    MW4 3684   2.479   3.588   1.517  0.0473 -0.1006 -0.1510
  922SOL     OW 3685   2.478   3.843   1.592 -0.0285  0.7549  0.1921
  922SOL    HW2 3686   2.460   3.845   1.686  1.9399 -1.2210  0.6481
  922SOL    HW3 3687   2.572   3.862   1.585  0.7583 -3.0806 -1.0239
  922SOL    MW4 3688   2.488   3.846   1.603  0.3350 -0.0119  0.0918
  923SOL     OW 3689   2.250   3.990   1.497  0.1623 -0.1510  0.1329
  923SOL    HW2 3690   2.327   3.942   1.526  0.2991 -0.5975 -0.9649
  923SOL    HW3 3691   2.253   3.987   1.402 -0.4431  1.0572  0.0535
  923SOL    MW4 3692   2.260   3.984   1.488  0.1004 -0.0505 -0.0224
  924SOL     OW 3693   2.226   4.255   1.631 -0.4484 -0.3008 -0.0008
  924SOL    HW2 3694   2.308   4.300   1.608  0.2203 -0.5983  1.7337
  924SOL    HW3 3695   2.234   4.169   1.591  0.2743 -0.4817  0.5273
  924SOL    MW4 3696   2.238   4.250   1.623 -0.2648 -0.3639  0.2977
  925SOL     OW 3697   2.447   4.369   1.546  0.1165 -0.1152 -0.0135
  925SOL    HW2 3698   2.436   4.462   1.567  0.9567 -0.1629  0.7051
  925SOL    HW3 3699   2.446   4.366   1.451  0.0135  0.6241 -0.0442
  925SOL    MW4 3700   2.445   4.381   1.536  0.2138 -0.0239  0.0772
  926SOL     OW 3701   2.900   4.620   1.637  0.6912 -0.2882  0.0277
  926SOL    HW2 3702   2.908   4.635   1.731  0.3153 -0.5774  0.1046
  926SOL    HW3 3703   2.828   4.677   1.610  0.4652 -0.5868  0.0021
  926SOL    MW4 3704   2.891   4.630   1.646  0.6118 -0.3658  0.0344
  927SOL     OW 3705   2.683   0.067   1.510  0.1625  0.2278  0.2044
  927SOL    HW2 3706   2.703   0.158   1.533 -0.0162 -0.2506  2.4221
  927SOL    HW3 3707   2.593   0.054   1.541  0.4326 -0.8937  0.5430
  927SOL    MW4 3708   2.673   0.077   1.517  0.1746  0.0167  0.5417
  928SOL     OW 3709   2.698   0.328   1.623  0.4008  0.3055  0.3415
  928SOL    HW2 3710   2.714   0.313   1.716  1.2294 -0.4327  0.0883
  928SOL    HW3 3711   2.779   0.368   1.591  0.4845 -0.3291 -0.2567
  928SOL    MW4 3712   2.711   0.331   1.631  0.5212  0.1244  0.2291
  929SOL     OW 3713   2.932   0.488   1.554  0.6321 -0.3819  0.0660
  929SOL    HW2 3714   2.936   0.575   1.594 -0.5426 -0.4646  0.3875
  929SOL    HW3 3715   2.936   0.504   1.460 -0.5294  0.1005  0.0832
  929SOL    MW4 3716   2.933   0.502   1.547  0.3238 -0.3292  0.1107
  930SOL     OW 3717   2.937   0.748   1.652 -0.2308 -0.1682 -0.2028
  930SOL    HW2 3718   2.929   0.751   1.747  1.3525 -0.8300 -0.0380
  930SOL    HW3 3719   2.851   0.776   1.620 -1.0692 -0.8306  1.4102
  930SOL    MW4 3720   2.925   0.752   1.660 -0.1325 -0.3429  0.0318
  931SOL     OW 3721   2.716   0.848   1.538 -0.1783  0.5630 -0.1670
  931SOL    HW2 3722   2.635   0.805   1.563 -0.7347  2.4898  1.4450
  931SOL    HW3 3723   2.705   0.870   1.446 -0.2893 -1.7883 -0.7297
  931SOL    MW4 3724   2.704   0.845   1.529 -0.2664  0.5070 -0.0286
  932SOL     OW 3725   2.693   1.097   1.640  0.0323 -0.0073 -0.0445
  932SOL    HW2 3726   2.713   1.019   1.589  1.5918  0.0254  0.4622
  932SOL    HW3 3727   2.627   1.144   1.589  1.7888  0.1840 -2.2011
  932SOL    MW4 3728   2.687   1.093   1.626  0.4698  0.0223 -0.2622
  933SOL     OW 3729   2.910   1.231   1.521 -0.1575  0.5176  0.3526
  933SOL    HW2 3730   2.979   1.202   1.580 -0.0891  0.1503  0.0890
  933SOL    HW3 3731   2.829   1.207   1.565 -0.0873 -1.3415 -0.5095
  933SOL    MW4 3732   2.908   1.224   1.534 -0.1392  0.2239  0.2041
  934SOL     OW 3733   2.887   1.492   1.630 -0.1222 -0.6291  0.1144
  934SOL    HW2 3734   2.819   1.536   1.578 -0.1599 -0.3650  0.3836
  934SOL    HW3 3735   2.897   1.406   1.589  0.8545  0.0856 -1.2099
  934SOL    MW4 3736   2.879   1.486   1.618  0.0017 -0.5000 -0.0248
  935SOL     OW 3737   2.713   1.630   1.471  0.0953  0.1942  0.0986
  935SOL    HW2 3738   2.726   1.717   1.509 -0.6395  0.5828 -0.5122
  935SOL    HW3 3739   2.712   1.645   1.376  2.2832 -0.8180 -0.1187
  935SOL    MW4 3740   2.714   1.644   1.463  0.2870  0.1119 -0.0107
  936SOL     OW 3741   2.744   1.872   1.613 -0.3400 -0.2623  0.1108
  936SOL    HW2 3742   2.735   1.884   1.708  0.1502 -0.2061  0.1538
  936SOL    HW3 3743   2.665   1.911   1.576 -0.8882 -0.9451  0.5436
  936SOL    MW4 3744   2.733   1.879   1.621 -0.3477 -0.3450  0.1736
  937SOL     OW 3745   2.950   2.016   1.497 -0.1654  0.1838  0.3056
  937SOL    HW2 3746   2.927   2.103   1.529 -1.7818  0.1129 -0.6241
  937SOL    HW3 3747   2.877   1.960   1.524  0.1751 -0.5936 -0.3727
  937SOL    MW4 3748   2.938   2.020   1.505 -0.3337  0.0719  0.0935
  938SOL     OW 3749   2.884   2.264   1.610 -0.5642 -0.1501  0.4293
  938SOL    HW2 3750   2.915   2.288   1.698 -1.6891  0.3439  0.6976
  938SOL    HW3 3751   2.799   2.308   1.602 -0.2485  0.2109 -1.0912
  938SOL    MW4 3752   2.877   2.273   1.621 -0.6710 -0.0373  0.2641
  939SOL     OW 3753   2.679   2.434   1.546  0.0043 -0.2681  0.2217
  939SOL    HW2 3754   2.675   2.525   1.576 -1.6111 -0.3819  0.3701
  939SOL    HW3 3755   2.603   2.392   1.586  0.7892 -1.7151  0.2255
  939SOL    MW4 3756   2.668   2.440   1.555 -0.1053 -0.4741  0.2418
  940SOL     OW 3757   2.651   2.687   1.650 -0.4443 -0.4054 -0.0833
  940SOL    HW2 3758   2.731   2.713   1.605  0.0816  0.6651  1.4012
  940SOL    HW3 3759   2.588   2.757   1.631 -0.2815 -0.0511  0.6254
  940SOL    MW4 3760   2.653   2.700   1.642 -0.3534 -0.2174  0.2061
  941SOL     OW 3761   2.890   2.772   1.531  0.2688 -0.1649  0.0160
  941SOL    HW2 3762   2.967   2.735   1.574  0.4370  0.7531  0.4979
  941SOL    HW3 3763   2.888   2.863   1.559 -1.9846 -0.6104  1.4436
  941SOL    MW4 3764   2.900   2.779   1.541 -0.0063 -0.1026  0.2679
  942SOL     OW 3765   2.904   3.046   1.600 -0.1061 -0.1504  0.3059
  942SOL    HW2 3766   2.916   3.045   1.695 -0.2722  1.4104  0.3556
  942SOL    HW3 3767   2.977   3.098   1.566  0.0135 -0.7850 -0.4394
  942SOL    MW4 3768   2.915   3.052   1.608 -0.1122 -0.0282  0.2141
  943SOL     OW 3769   2.703   3.204   1.520  0.9151  0.0513  0.3409
  943SOL    HW2 3770   2.780   3.150   1.535  0.7433 -0.0759  0.7597
  943SOL    HW3 3771   2.714   3.237   1.431  0.7590 -1.1090 -0.1140
  943SOL    MW4 3772   2.714   3.202   1.510  0.8718 -0.1186  0.3361
  944SOL     OW 3773   2.685   3.464   1.632  0.3274  0.4873  0.3367
  944SOL    HW2 3774   2.702   3.466   1.726  1.3294 -0.6877  0.1944
  944SOL    HW3 3775   2.689   3.371   1.608  0.7417  0.8248 -0.9821
  944SOL    MW4 3776   2.688   3.452   1.641  0.5142  0.3768  0.1439
  945SOL     OW 3777   2.901   3.585   1.538  0.6351  0.3478 -0.4413
  945SOL    HW2 3778   2.824   3.555   1.584 -0.0581  1.6360 -0.7325
  945SOL    HW3 3779   2.884   3.565   1.446  0.8301  0.2496 -0.4572
  945SOL    MW4 3780   2.889   3.579   1.532  0.5694  0.5048 -0.4818
  946SOL     OW 3781   2.986   3.835   1.637  0.0815 -0.6588 -0.0701
  946SOL    HW2 3782   2.910   3.882   1.602  1.2288  1.5889  0.4240
  946SOL    HW3 3783   2.970   3.744   1.612 -2.0019  0.0094 -1.3383
  946SOL    MW4 3784   2.974   3.829   1.629 -0.0420 -0.2741 -0.1722
  947SOL     OW 3785   2.745   3.937   1.547 -0.1237 -0.0457  0.0678
  947SOL    HW2 3786   2.734   4.024   1.585 -1.7168 -0.6086  0.9512
  947SOL    HW3 3787   2.735   3.950   1.453 -0.9597  0.6429  0.2503
  947SOL    MW4 3788   2.742   3.950   1.540 -0.4442 -0.0291  0.2084
  948SOL     OW 3789   2.674   4.204   1.626  0.0174 -0.0113 -0.1146
  948SOL    HW2 3790   2.743   4.255   1.585 -0.6503  1.1349  0.1753
  948SOL    HW3 3791   2.593   4.249   1.603 -0.7813 -2.1221 -1.6445
  948SOL    MW4 3792   2.672   4.217   1.618 -0.1761 -0.1385 -0.2782
  949SOL     OW 3793   2.876   4.360   1.547  0.3236 -0.1526 -0.4826
  949SOL    HW2 3794   2.878   4.449   1.583 -1.8796 -0.5091  0.5575
  949SOL    HW3 3795   2.869   4.373   1.452 -0.6945  0.7804 -0.2844
  949SOL    MW4 3796   2.876   4.373   1.539 -0.1014 -0.0765 -0.3192
  950SOL     OW 3797   3.351   4.623   1.624 -0.1618  0.3937  0.7686
  950SOL    HW2 3798   3.434   4.661   1.595 -0.0369 -0.2046  0.3286
  950SOL    HW3 3799   3.351   4.535   1.586 -1.4261  0.7299 -0.0248
  950SOL    MW4 3800   3.362   4.617   1.615 -0.3121  0.3591  0.6059
  951SOL     OW 3801   3.116   0.107   1.572 -0.1229  0.1184 -0.1524
  951SOL    HW2 3802   3.192   0.057   1.602 -1.2296 -0.8779  1.0645
  951SOL    HW3 3803   3.041   0.052   1.594 -1.2159  1.1928 -1.1317
  951SOL    MW4 3804   3.116   0.093   1.579 -0.4131  0.1287 -0.1211
  952SOL     OW 3805   3.155   0.364   1.675 -0.0515  0.3887  0.1375
  952SOL    HW2 3806   3.152   0.274   1.642  1.5608 -0.1469  1.3992
  952SOL    HW3 3807   3.080   0.407   1.633  2.0131 -0.1784 -4.4024
  952SOL    MW4 3808   3.144   0.358   1.665  0.4336  0.2432 -0.2950
  953SOL     OW 3809   3.351   0.507   1.539 -0.0136  0.0098 -0.1071
  953SOL    HW2 3810   3.272   0.469   1.577 -0.1956  1.0004  0.5339
  953SOL    HW3 3811   3.337   0.501   1.444 -0.3626 -0.8223 -0.0091
  953SOL    MW4 3812   3.339   0.501   1.531 -0.0837  0.0307 -0.0096
  954SOL     OW 3813   3.390   0.754   1.649 -0.1501  0.2010 -0.6359
  954SOL    HW2 3814   3.404   0.740   1.742 -0.4829  1.9191 -0.3071
  954SOL    HW3 3815   3.380   0.666   1.612 -2.3272 -0.3892  1.2947
  954SOL    MW4 3816   3.391   0.741   1.656 -0.4812  0.3498 -0.3378
  955SOL     OW 3817   3.150   0.888   1.558  0.1637  0.0681  0.2619
  955SOL    HW2 3818   3.230   0.844   1.588  0.0921  1.0987  2.0263
  955SOL    HW3 3819   3.079   0.837   1.597  0.0040  0.2396  0.1934
  955SOL    MW4 3820   3.151   0.875   1.567  0.1332  0.2267  0.4857
  956SOL     OW 3821   3.126   1.133   1.671 -0.6993  0.0706 -0.1220
  956SOL    HW2 3822   3.114   1.114   1.764 -1.9677 -0.4338 -0.3834
  956SOL    HW3 3823   3.153   1.049   1.633  1.2729  0.6149  0.0311
  956SOL    MW4 3824   3.128   1.119   1.679 -0.6065  0.0759 -0.1363
  957SOL     OW 3825   3.336   1.230   1.535 -0.6739  0.0008  0.1971
  957SOL    HW2 3826   3.412   1.176   1.558 -1.3233 -2.0029 -2.1189
  957SOL    HW3 3827   3.269   1.204   1.598 -0.4407 -0.6039  0.2021
  957SOL    MW4 3828   3.337   1.220   1.547 -0.7288 -0.3434 -0.1078
  958SOL     OW 3829   3.329   1.495   1.620 -0.0347  0.5411 -0.6222
  958SOL    HW2 3830   3.340   1.496   1.715  2.3129  2.4222 -0.8768
  958SOL    HW3 3831   3.329   1.402   1.598 -1.5692  0.0394  1.2756
  958SOL    MW4 3832   3.330   1.483   1.630  0.0726  0.7231 -0.4054
  959SOL     OW 3833   3.105   1.632   1.532 -0.0437 -0.4058 -0.3668
  959SOL    HW2 3834   3.176   1.576   1.564 -0.9060 -1.4890 -0.2948
  959SOL    HW3 3835   3.025   1.587   1.560 -0.7627  1.3475  0.4978
  959SOL    MW4 3836   3.104   1.619   1.540 -0.2523 -0.3174 -0.2433
  960SOL     OW 3837   3.118   1.872   1.676  0.4885  0.1222 -0.5795
  960SOL    HW2 3838   3.109   1.780   1.653 -0.0494 -0.0434  0.2664
  960SOL    HW3 3839   3.056   1.917   1.618 -0.2109 -0.1942 -0.0827
  960SOL    MW4 3840   3.108   1.866   1.665  0.3252  0.0586 -0.4023
  961SOL     OW 3841   3.321   2.042   1.556 -0.2059  0.3565  0.5990
  961SOL    HW2 3842   3.255   1.974   1.565  0.6658 -0.3617  1.5452
  961SOL    HW3 3843   3.334   2.051   1.461 -2.0018  0.8505  0.3839
  961SOL    MW4 3844   3.314   2.034   1.544 -0.3278  0.3269  0.6954
  962SOL     OW 3845   3.311   2.303   1.625  0.2131 -0.0205 -0.6009
  962SOL    HW2 3846   3.396   2.338   1.598  1.6757 -1.4079  2.0308
  962SOL    HW3 3847   3.317   2.209   1.608  0.3919 -0.6007  2.3802
  962SOL    MW4 3848   3.323   2.295   1.619  0.4297 -0.2801  0.1396
  963SOL     OW 3849   3.102   2.418   1.485 -0.6983 -0.0808 -0.1022
  963SOL    HW2 3850   3.174   2.370   1.525 -1.2628  0.3636  1.4798
  963SOL    HW3 3851   3.025   2.364   1.502 -1.1189  0.6847  0.4672
  963SOL    MW4 3852   3.101   2.404   1.493 -0.8283  0.0788  0.1816
  964SOL     OW 3853   3.110   2.669   1.638  0.0858 -0.0737 -0.1159
  964SOL    HW2 3854   3.198   2.691   1.607  0.0912 -1.6119 -1.2831
  964SOL    HW3 3855   3.094   2.581   1.604 -0.9713 -0.7849  2.1125
  964SOL    MW4 3856   3.119   2.660   1.629 -0.0529 -0.3705  0.0241
  965SOL     OW 3857   3.353   2.777   1.551 -0.3001 -0.4606  0.3766
  965SOL    HW2 3858   3.344   2.872   1.559 -0.2466 -0.4702  0.5393
  965SOL    HW3 3859   3.385   2.764   1.461  1.0851 -0.2271  0.8236
  965SOL    MW4 3860   3.356   2.788   1.540 -0.1103 -0.4311  0.4570
  966SOL     OW 3861   3.339   3.088   1.619  0.4353 -0.0917 -0.1594
  966SOL    HW2 3862   3.324   3.103   1.712 -1.3320  1.0905 -0.6202
  966SOL    HW3 3863   3.413   3.145   1.597  0.3057  0.2668  0.3200
  966SOL    MW4 3864   3.347   3.097   1.629  0.1850  0.1116 -0.1569
  967SOL     OW 3865   3.120   3.217   1.514  0.1217 -0.0032  0.2326
  967SOL    HW2 3866   3.202   3.172   1.535  0.2616 -0.5729 -1.4586
  967SOL    HW3 3867   3.123   3.230   1.419 -2.0046 -0.5420  0.0558
  967SOL    MW4 3868   3.131   3.213   1.504 -0.1404 -0.1494 -0.0138
  968SOL     OW 3869   3.142   3.492   1.630  0.1808 -0.1962 -0.0096
  968SOL    HW2 3870   3.142   3.408   1.584  1.0483  0.2436 -0.8437
  968SOL    HW3 3871   3.064   3.538   1.598  0.7490  0.0823 -1.0090
  968SOL    MW4 3872   3.132   3.487   1.620  0.3703 -0.1014 -0.2515
  969SOL     OW 3873   3.388   3.603   1.509  0.1365  0.2133  0.1146
  969SOL    HW2 3874   3.456   3.558   1.558  0.1629 -1.5102 -1.4211
  969SOL    HW3 3875   3.306   3.567   1.543  0.1099  0.0161 -0.1540
  969SOL    MW4 3876   3.386   3.592   1.520  0.1365 -0.0401 -0.1234
  970SOL     OW 3877   3.434   3.845   1.681  0.1450 -0.6330  0.6027
  970SOL    HW2 3878   3.361   3.901   1.654  0.3149  0.4849  2.3717
  970SOL    HW3 3879   3.419   3.762   1.635  0.0024  0.9024 -2.2087
  970SOL    MW4 3880   3.422   3.841   1.671  0.1486 -0.2829  0.4652
  971SOL     OW 3881   3.212   3.976   1.579  0.1347 -0.1985 -0.1535
  971SOL    HW2 3882   3.181   4.066   1.588 -1.3069 -0.5629 -1.2991
  971SOL    HW3 3883   3.135   3.922   1.600  0.6912 -1.1411 -0.5243
  971SOL    MW4 3884   3.198   3.981   1.583  0.0179 -0.3710 -0.3536
  972SOL     OW 3885   3.109   4.229   1.630  0.2250  0.1017  0.3995
  972SOL    HW2 3886   3.110   4.229   1.726 -0.8354 -1.5214  0.4137
  972SOL    HW3 3887   3.026   4.269   1.607  1.2372  2.1346  0.1105
  972SOL    MW4 3888   3.098   4.234   1.639  0.2186  0.1557  0.3632
  973SOL     OW 3889   3.355   4.360   1.537  0.4476 -0.0263  0.2933
  973SOL    HW2 3890   3.267   4.326   1.556  1.0218 -2.1848 -0.7223
  973SOL    HW3 3891   3.354   4.376   1.442  0.6223  1.6090  0.5521
  973SOL    MW4 3892   3.343   4.357   1.527  0.5464 -0.0953  0.1934
  974SOL     OW 3893   3.787   4.607   1.624 -0.7442  0.1725 -0.3850
  974SOL    HW2 3894   3.798   4.606   1.719 -1.1635 -1.8602 -0.3196
  974SOL    HW3 3895   3.860   4.659   1.592  0.4875 -0.6800  0.9488
  974SOL    MW4 3896   3.798   4.614   1.633 -0.6370 -0.2082 -0.2004
  975SOL     OW 3897   3.583   0.096   1.539  0.2332  0.1355 -0.3301
  975SOL    HW2 3898   3.654   0.040   1.572 -0.8773 -1.1236 -0.0232
  975SOL    HW3 3899   3.575   0.073   1.447 -0.9766 -1.0618  0.0562
  975SOL    MW4 3900   3.591   0.085   1.531 -0.0729 -0.1886 -0.2387
  976SOL     OW 3901   3.551   0.353   1.652 -0.0855 -0.0044 -0.2869
  976SOL    HW2 3902   3.546   0.261   1.625 -1.6365 -0.1449  0.3851
  976SOL    HW3 3903   3.496   0.399   1.588  0.1728  0.3549 -0.2476
  976SOL    MW4 3904   3.543   0.347   1.640 -0.2560  0.0244 -0.1931
  977SOL     OW 3905   3.787   0.477   1.605 -0.3808  0.1295 -0.3245
  977SOL    HW2 3906   3.712   0.423   1.628 -0.9662  1.3151  0.6041
  977SOL    HW3 3907   3.770   0.506   1.515 -0.4668 -0.5552 -0.5246
  977SOL    MW4 3908   3.775   0.474   1.596 -0.4694  0.1956 -0.2284
  978SOL     OW 3909   3.809   0.754   1.683  0.2999  0.2879 -0.2055
  978SOL    HW2 3910   3.746   0.790   1.621  1.1934  0.4117 -1.0573
  978SOL    HW3 3911   3.806   0.659   1.668  0.4057  0.3041 -0.3257
  978SOL    MW4 3912   3.800   0.746   1.673  0.4317  0.3063 -0.3337
  979SOL     OW 3913   3.609   0.857   1.539 -0.3809  0.2084 -0.0541
  979SOL    HW2 3914   3.528   0.821   1.574 -0.0911  0.7602  1.2168
  979SOL    HW3 3915   3.593   0.866   1.445 -0.5028 -3.0571 -0.4091
  979SOL    MW4 3916   3.596   0.854   1.531 -0.3587 -0.1496  0.0668
  980SOL     OW 3917   3.580   1.114   1.643  0.0748  0.4049  0.3057
  980SOL    HW2 3918   3.648   1.173   1.610  0.5235 -0.0864  0.3529
  980SOL    HW3 3919   3.605   1.028   1.609 -0.7135  0.2792  0.0315
  980SOL    MW4 3920   3.592   1.110   1.634  0.0300  0.3235  0.2758
  981SOL     OW 3921   3.788   1.262   1.545 -0.0079  0.0112 -0.0809
  981SOL    HW2 3922   3.871   1.217   1.563 -0.8391 -1.0229  1.2830
  981SOL    HW3 3923   3.804   1.353   1.567  1.4188  0.2536 -1.9727
  981SOL    MW4 3924   3.801   1.268   1.550  0.0706 -0.0933 -0.1505
  982SOL     OW 3925   3.820   1.532   1.607 -0.0674  0.0093 -0.2084
  982SOL    HW2 3926   3.802   1.538   1.700 -0.7051 -0.0728 -0.3204
  982SOL    HW3 3927   3.742   1.570   1.565  0.3726  0.3859 -0.6945
  982SOL    MW4 3928   3.807   1.538   1.614 -0.0934  0.0481 -0.2873
  983SOL     OW 3929   3.552   1.633   1.536 -0.1233 -0.1949  0.2159
  983SOL    HW2 3930   3.477   1.581   1.563  0.5520 -1.7116 -0.7685
  983SOL    HW3 3931   3.545   1.639   1.441  0.9875 -0.3336  0.1164
  983SOL    MW4 3932   3.541   1.627   1.527  0.1124 -0.4133  0.0729
  984SOL     OW 3933   3.564   1.904   1.620 -0.0043  0.2060 -0.4523
  984SOL    HW2 3934   3.560   1.814   1.589 -0.4518  0.1283 -0.1852
  984SOL    HW3 3935   3.480   1.942   1.593  0.3157  0.6366 -0.8453
  984SOL    MW4 3936   3.552   1.897   1.613 -0.0211  0.2525 -0.4689
  985SOL     OW 3937   3.799   2.033   1.562  0.4008 -0.2645 -0.1301
  985SOL    HW2 3938   3.786   2.116   1.608  2.8663 -0.2198  0.5629
  985SOL    HW3 3939   3.720   1.982   1.581  0.3259  0.6641  2.1732
  985SOL    MW4 3940   3.787   2.038   1.570  0.7162 -0.1361  0.2652
  986SOL     OW 3941   3.784   2.285   1.654  0.2789  0.0031 -0.0747
  986SOL    HW2 3942   3.780   2.296   1.749 -0.6493 -0.0763 -0.1067
  986SOL    HW3 3943   3.867   2.327   1.629 -1.1196  3.1722  0.3442
  986SOL    MW4 3944   3.794   2.292   1.663 -0.0281  0.4107 -0.0237
  987SOL     OW 3945   3.557   2.402   1.554  0.5925  0.1235 -0.5140
  987SOL    HW2 3946   3.562   2.482   1.607 -1.0640 -1.1334  1.6653
  987SOL    HW3 3947   3.633   2.351   1.582  1.2776  0.6295 -1.4206
  987SOL    MW4 3948   3.568   2.406   1.565  0.4643  0.0245 -0.3461
  988SOL     OW 3949   3.608   2.703   1.645  0.3854 -0.0152 -0.2648
  988SOL    HW2 3950   3.600   2.679   1.737  0.2744  0.7945 -0.0642
  988SOL    HW3 3951   3.522   2.736   1.621 -0.4247 -2.8158 -1.4222
  988SOL    MW4 3952   3.596   2.704   1.654  0.2639 -0.2779 -0.3910
  989SOL     OW 3953   3.817   2.850   1.566  0.1460  0.4798  0.4577
  989SOL    HW2 3954   3.894   2.797   1.587  0.0451  0.5329  0.9605
  989SOL    HW3 3955   3.743   2.798   1.597 -0.1422 -0.3443 -1.5505
  989SOL    MW4 3956   3.818   2.836   1.573  0.0947  0.3781  0.2591
  990SOL     OW 3957   3.782   3.125   1.645  0.3890 -0.4057 -0.2607
  990SOL    HW2 3958   3.859   3.178   1.630 -0.1945  0.4277 -0.3278
  990SOL    HW3 3959   3.801   3.041   1.603  0.6147  0.3311 -1.6395
  990SOL    MW4 3960   3.795   3.121   1.638  0.3418 -0.1985 -0.4515
  991SOL     OW 3961   3.566   3.246   1.534  0.2445  0.8797  0.3748
  991SOL    HW2 3962   3.650   3.207   1.560 -0.1495 -0.3221 -0.1276
  991SOL    HW3 3963   3.571   3.252   1.438 -0.7884 -0.4992  0.2190
  991SOL    MW4 3964   3.578   3.242   1.525  0.0562  0.5392  0.2880
  992SOL     OW 3965   3.614   3.499   1.646  0.3739 -0.8529  0.1920
  992SOL    HW2 3966   3.688   3.538   1.600 -0.7006 -0.5268 -1.3163
  992SOL    HW3 3967   3.609   3.410   1.612 -0.0112 -0.8238  0.1632
  992SOL    MW4 3968   3.623   3.493   1.635  0.1813 -0.8061 -0.0108
  993SOL     OW 3969   3.844   3.579   1.525 -0.1164 -0.9500 -0.4167
  993SOL    HW2 3970   3.929   3.554   1.561  0.0762 -0.0714 -0.2568
  993SOL    HW3 3971   3.828   3.667   1.559 -0.7605 -0.8253 -1.0266
  993SOL    MW4 3972   3.853   3.587   1.534 -0.1760 -0.8176 -0.4761
  994SOL     OW 3973   3.817   3.836   1.619  0.3642  0.1968 -0.5759
  994SOL    HW2 3974   3.894   3.890   1.602  0.5237  0.4553  0.8869
  994SOL    HW3 3975   3.744   3.886   1.584  0.7481  0.3882 -1.1092
  994SOL    MW4 3976   3.817   3.849   1.612  0.4359  0.2561 -0.4532
  995SOL     OW 3977   3.585   3.993   1.513  0.0579  0.4616 -0.4036
  995SOL    HW2 3978   3.581   4.080   1.552  2.5911 -0.1532  1.3704
  995SOL    HW3 3979   3.536   3.937   1.575  1.5194  0.0093  0.3578
  995SOL    MW4 3980   3.578   3.997   1.526  0.5849  0.3208 -0.0691
  996SOL     OW 3981   3.593   4.246   1.639 -0.0798  0.5060 -0.3594
  996SOL    HW2 3982   3.595   4.256   1.734 -0.4193  0.6472 -0.3649
  996SOL    HW3 3983   3.520   4.301   1.611 -0.8125 -0.5626 -0.5785
  996SOL    MW4 3984   3.584   4.255   1.647 -0.2212  0.3836 -0.3891
  997SOL     OW 3985   3.841   4.346   1.554  0.0288  0.2848  0.0339
  997SOL    HW2 3986   3.766   4.293   1.580  0.3193 -0.3512 -0.4106
  997SOL    HW3 3987   3.827   4.430   1.599 -0.5051 -0.1091  0.6282
  997SOL    MW4 3988   3.829   4.350   1.563 -0.0033  0.1489  0.0537
  998SOL     OW 3989   4.251   4.657   1.612  0.2959  0.7962 -0.2068
  998SOL    HW2 3990   4.259   4.648   1.707 -1.1307  1.0716 -0.0436
  998SOL    HW3 3991   4.275   4.570   1.578  1.2779  0.8363  0.3659
  998SOL    MW4 3992   4.255   4.644   1.620  0.2372  0.8378 -0.1097
  999SOL     OW 3993   4.007   0.090   1.565 -0.1522 -0.1192  0.3070
  999SOL    HW2 3994   4.000   0.171   1.615 -0.0805  0.1070 -0.0502
  999SOL    HW3 3995   4.095   0.057   1.585 -0.2269 -0.1750  0.5485
  999SOL    MW4 3996   4.018   0.096   1.574 -0.1526 -0.0968  0.2917
 1000SOL     OW 3997   4.008   0.358   1.688  0.2454 -0.1816 -0.4824
 1000SOL    HW2 3998   4.015   0.346   1.783  0.4839 -0.3256 -0.5156
 1000SOL    HW3 3999   3.929   0.409   1.676  0.2332 -0.1318 -0.2015
 1000SOL    MW4 4000   3.999   0.363   1.699  0.2753 -0.1940 -0.4497
 1001SOL     OW 4001   4.210   0.473   1.519  0.3368  0.0241  0.4522
 1001SOL    HW2 4002   4.138   0.458   1.580  0.0575  2.7619  0.8162
 1001SOL    HW3 4003   4.289   0.449   1.569 -0.0136  0.7171  1.3527
 1001SOL    MW4 4004   4.211   0.468   1.534  0.2537  0.4768  0.6190
 1002SOL     OW 4005   4.260   0.723   1.643  0.0883  0.1369 -0.3608
 1002SOL    HW2 4006   4.252   0.654   1.577  0.8085 -0.3630  0.0677
 1002SOL    HW3 4007   4.349   0.755   1.634 -0.1483  0.8105 -0.3500
 1002SOL    MW4 4008   4.270   0.718   1.633  0.1521  0.1598 -0.3028
 1003SOL     OW 4009   4.033   0.855   1.553  0.4670  0.5341  0.0440
 1003SOL    HW2 4010   4.108   0.813   1.595 -0.2929 -0.8543  0.0543
 1003SOL    HW3 4011   3.957   0.820   1.599 -0.2619  0.6594 -1.0478
 1003SOL    MW4 4012   4.033   0.845   1.564  0.2706  0.3675 -0.0987
 1004SOL     OW 4013   4.005   1.111   1.651  0.2903 -0.1597  0.0658
 1004SOL    HW2 4014   4.016   1.105   1.746 -0.3244  0.2554  0.1684
 1004SOL    HW3 4015   4.025   1.024   1.618  1.3069 -0.0948  0.4985
 1004SOL    MW4 4016   4.009   1.099   1.659  0.3433 -0.0963  0.1364
 1005SOL     OW 4017   4.222   1.254   1.552  0.0991  0.6724  0.1024
 1005SOL    HW2 4018   4.143   1.208   1.579  0.2719 -0.1638 -0.8020
 1005SOL    HW3 4019   4.294   1.200   1.583  0.3047  0.6376 -0.4264
 1005SOL    MW4 4020   4.221   1.241   1.560  0.1491  0.5575 -0.0867
 1006SOL     OW 4021   4.254   1.514   1.651 -0.8953  0.0693 -0.2469
 1006SOL    HW2 4022   4.241   1.424   1.620 -0.5890  0.1828 -0.7051
 1006SOL    HW3 4023   4.338   1.540   1.614 -0.1083 -0.1000  1.4264
 1006SOL    MW4 4024   4.263   1.505   1.642 -0.7510  0.0620 -0.0866
 1007SOL     OW 4025   4.044   1.678   1.565  0.0672  0.5995  0.1047
 1007SOL    HW2 4026   4.109   1.625   1.611 -0.5156  0.2671  0.5476
 1007SOL    HW3 4027   3.962   1.630   1.576  0.1677 -0.2917 -2.5729
 1007SOL    MW4 4028   4.042   1.665   1.572  0.0036  0.4381 -0.1902
 1008SOL     OW 4029   4.034   1.928   1.678 -0.1043  0.4033 -0.7235
 1008SOL    HW2 4030   4.030   1.840   1.640 -0.2962  0.8304 -1.7058
 1008SOL    HW3 4031   3.958   1.973   1.642 -0.5101  0.7035  0.4841
 1008SOL    MW4 4032   4.023   1.922   1.668 -0.1832  0.4993 -0.6938
 1009SOL     OW 4033   4.288   2.058   1.584 -0.1204 -0.2315  0.2101
 1009SOL    HW2 4034   4.198   2.030   1.602 -0.0340 -0.1805  0.7223
 1009SOL    HW3 4035   4.298   2.046   1.490 -0.1256 -1.7770  0.3952
 1009SOL    MW4 4036   4.277   2.053   1.574 -0.1097 -0.4287  0.3021
 1010SOL     OW 4037   4.273   2.331   1.654 -0.2320 -0.0322 -0.0498
 1010SOL    HW2 4038   4.245   2.321   1.745  3.5608 -1.0298  1.0786
 1010SOL    HW3 4039   4.285   2.242   1.622 -0.2442  0.3405 -1.1345
 1010SOL    MW4 4040   4.271   2.318   1.662  0.2668 -0.1146 -0.0440
 1011SOL     OW 4041   4.013   2.405   1.578  0.7378  0.0442  0.7072
 1011SOL    HW2 4042   3.993   2.497   1.593 -0.4774 -0.2174  0.7726
 1011SOL    HW3 4043   4.105   2.395   1.603  0.5690  1.0019  1.7453
 1011SOL    MW4 4044   4.022   2.416   1.583  0.5552  0.1361  0.8528
 1012SOL     OW 4045   4.030   2.686   1.648  0.1546 -0.1560 -0.1909
 1012SOL    HW2 4046   4.040   2.672   1.742  0.8058  0.6055 -0.1334
 1012SOL    HW3 4047   4.114   2.724   1.621 -1.0613  2.3596 -0.5484
 1012SOL    MW4 4048   4.043   2.689   1.656  0.0801  0.2764 -0.2304
 1013SOL     OW 4049   4.284   2.767   1.569 -0.0835  0.8135  0.2474
 1013SOL    HW2 4050   4.261   2.860   1.580 -0.5048  0.7577 -0.1554
 1013SOL    HW3 4051   4.295   2.756   1.475  0.2852  0.5229  0.3208
 1013SOL    MW4 4052   4.283   2.778   1.558 -0.0905  0.7678  0.2039
 1014SOL     OW 4053   4.258   3.056   1.637  0.3182  0.4689 -0.2319
 1014SOL    HW2 4054   4.249   3.066   1.731  0.2091  1.4530 -0.3415
 1014SOL    HW3 4055   4.344   3.095   1.617  0.2644  0.4228 -0.5588
 1014SOL    MW4 4056   4.268   3.062   1.646  0.2967  0.5926 -0.2895
 1015SOL     OW 4057   4.030   3.199   1.558 -0.6980  0.2512  0.0552
 1015SOL    HW2 4058   4.050   3.285   1.594 -1.9296  1.3749 -1.8387
 1015SOL    HW3 4059   4.104   3.144   1.582  0.1212  1.8599  1.2517
 1015SOL    MW4 4060   4.042   3.203   1.566 -0.7524  0.6117 -0.0368
 1016SOL     OW 4061   4.074   3.461   1.639 -0.0974 -0.3775 -0.1149
 1016SOL    HW2 4062   4.069   3.460   1.734 -0.1229 -0.1572 -0.1119
 1016SOL    HW3 4063   4.150   3.516   1.620 -0.3709 -0.0331 -0.2268
 1016SOL    MW4 4064   4.083   3.468   1.649 -0.1368 -0.3030 -0.1293
 1017SOL     OW 4065   4.295   3.622   1.566  0.0619  0.1187  0.0703
 1017SOL    HW2 4066   4.276   3.714   1.586 -1.0657 -0.1220  0.1097
 1017SOL    HW3 4067   4.291   3.617   1.471 -2.7173 -0.4866  0.1868
 1017SOL    MW4 4068   4.292   3.634   1.556 -0.4536  0.0070  0.0909
 1018SOL     OW 4069   4.256   3.866   1.660  0.3796  0.1461 -0.2499
 1018SOL    HW2 4070   4.176   3.912   1.633  0.7073  1.4198  0.8512
 1018SOL    HW3 4071   4.326   3.912   1.614  0.5827 -0.1976 -0.2845
 1018SOL    MW4 4072   4.255   3.878   1.651  0.4497  0.2688 -0.1092
 1019SOL     OW 4073   4.037   3.987   1.568 -0.0800  0.4817 -0.3106
 1019SOL    HW2 4074   4.060   4.076   1.594 -0.0124  0.3065  0.2291
 1019SOL    HW3 4075   4.045   3.988   1.473 -0.4403  1.1532 -0.3417
 1019SOL    MW4 4076   4.041   3.999   1.559 -0.1186  0.5471 -0.2435
 1020SOL     OW 4077   4.098   4.256   1.627 -0.0450 -0.2110  0.1725
 1020SOL    HW2 4078   4.081   4.261   1.722 -1.6639  0.7131 -0.1518
 1020SOL    HW3 4079   4.016   4.283   1.587  0.5170 -0.9742 -1.5200
 1020SOL    MW4 4080   4.085   4.260   1.635 -0.1844 -0.1898 -0.0936
 1021SOL     OW 4081   4.297   4.407   1.515  0.2451 -0.4384  0.1872
 1021SOL    HW2 4082   4.233   4.343   1.548 -0.9721  0.8815  0.4106
 1021SOL    HW3 4083   4.280   4.413   1.421 -2.1507  2.3010  0.7439
 1021SOL    MW4 4084   4.287   4.399   1.507 -0.2316  0.0971  0.2901
 1022SOL     OW 4085   0.188   4.660   1.956  0.3297  0.0883 -0.3636
 1022SOL    HW2 4086   0.271   4.707   1.963  0.2518  0.2463 -0.4860
 1022SOL    HW3 4087   0.170   4.659   1.862 -0.3106  0.9283 -0.2525
 1022SOL    MW4 4088   0.197   4.666   1.944  0.2349  0.2200 -0.3651
 1023SOL     OW 4089   4.480   0.135   2.053  0.0565 -0.2550 -0.4110
 1023SOL    HW2 4090   4.484   0.221   2.011 -0.2323 -0.7929 -1.5735
 1023SOL    HW3 4091   4.557   0.088   2.020 -0.6707 -1.0029 -1.0831
 1023SOL    MW4 4092   4.490   0.140   2.043 -0.0776 -0.4247 -0.6530
 1024SOL     OW 4093   4.488   0.379   1.921  0.2540 -0.0784  0.4241
 1024SOL    HW2 4094   4.404   0.414   1.951  0.1165  1.0259 -1.2293
 1024SOL    HW3 4095   4.553   0.437   1.961  0.0962  0.9615 -0.7940
 1024SOL    MW4 4096   4.486   0.391   1.931  0.2150  0.2045  0.0452
 1025SOL     OW 4097   0.207   0.524   2.031  0.2648  0.4109  0.3926
 1025SOL    HW2 4098   0.278   0.469   1.999 -0.4586 -0.3038 -0.0219
 1025SOL    HW3 4099   0.223   0.610   1.993 -0.4309 -0.3564 -1.7031
 1025SOL    MW4 4100   0.218   0.528   2.022  0.0776  0.2154  0.0614
 1026SOL     OW 4101   0.191   0.796   1.952 -0.1169 -0.4258  0.0188
 1026SOL    HW2 4102   0.272   0.837   1.984  0.5249 -2.5592  1.2196
 1026SOL    HW3 4103   0.210   0.777   1.860 -0.1257  1.1838 -0.3366
 1026SOL    MW4 4104   0.204   0.799   1.944 -0.0334 -0.4949  0.1304
 1027SOL     OW 4105   4.463   0.932   2.033 -0.5051  0.5453 -0.1176
 1027SOL    HW2 4106   4.392   0.878   1.999  0.8633 -0.8547 -0.8235
 1027SOL    HW3 4107   4.543   0.891   1.999  0.6604  1.8807  0.9398
 1027SOL    MW4 4108   4.464   0.920   2.024 -0.1708  0.5367 -0.0712
 1028SOL     OW 4109   4.480   1.188   1.935 -0.2032 -0.2416 -0.0248
 1028SOL    HW2 4110   4.398   1.235   1.949 -0.1922 -0.2392  0.0345
 1028SOL    HW3 4111   4.473   1.110   1.991 -0.8251 -1.0490 -1.1986
 1028SOL    MW4 4112   4.469   1.184   1.944 -0.2838 -0.3478 -0.1718
 1029SOL     OW 4113   0.216   1.282   2.036  0.5600 -0.0551  0.4030
 1029SOL    HW2 4114   0.222   1.370   1.999 -2.9287  0.2606  0.3635
 1029SOL    HW3 4115   0.136   1.246   1.997  1.0463 -2.6476  1.6858
 1029SOL    MW4 4116   0.206   1.289   2.026  0.1638 -0.3555  0.5670
 1030SOL     OW 4117   0.228   1.533   1.919  0.0064 -0.3047 -0.0285
 1030SOL    HW2 4118   0.308   1.571   1.955 -0.0957  0.1226 -0.2455
 1030SOL    HW3 4119   0.158   1.587   1.955 -0.2590 -1.2881  0.9526
 1030SOL    MW4 4120   0.229   1.545   1.928 -0.0421 -0.3781  0.0723
 1031SOL     OW 4121   4.488   1.655   2.046 -0.9870  0.4711  0.0713
 1031SOL    HW2 4122   4.480   1.644   2.141 -1.0337 -1.2205 -0.1155
 1031SOL    HW3 4123   4.406   1.620   2.011 -0.4124 -0.1552 -0.6725
 1031SOL    MW4 4124   4.476   1.649   2.054 -0.9173  0.1653 -0.0514
 1032SOL     OW 4125   4.481   1.903   1.939 -0.2484 -0.1205  0.4851
 1032SOL    HW2 4126   4.402   1.942   1.976 -0.0651 -0.4925  1.2998
 1032SOL    HW3 4127   4.485   1.816   1.978 -1.1498 -1.3058 -2.0504
 1032SOL    MW4 4128   4.471   1.897   1.949 -0.3431 -0.3260  0.2580
 1033SOL     OW 4129   0.185   2.079   2.036 -0.0247 -0.1372 -0.5578
 1033SOL    HW2 4130   0.178   2.165   1.994  0.2078  0.4798  0.6468
 1033SOL    HW3 4131   0.106   2.032   2.009 -1.1788  1.1986  0.4324
 1033SOL    MW4 4132   0.174   2.084   2.027 -0.1463  0.1204 -0.2682
 1034SOL     OW 4133   0.223   2.314   1.910 -0.2170  0.5042 -0.0918
 1034SOL    HW2 4134   0.308   2.349   1.936  0.2099  0.2414 -1.1012
 1034SOL    HW3 4135   0.161   2.384   1.932  0.0318  0.0591  2.1553
 1034SOL    MW4 4136   0.226   2.328   1.917 -0.1278  0.4108  0.0715
 1035SOL     OW 4137   4.464   2.439   2.023  0.5975  0.0112 -0.0996
 1035SOL    HW2 4138   4.458   2.440   2.118 -0.5812  0.5176 -0.1661
 1035SOL    HW3 4139   4.469   2.532   1.998  1.9875 -0.1568 -0.4759
 1035SOL    MW4 4140   4.464   2.452   2.032  0.6254  0.0558 -0.1580
 1036SOL     OW 4141   0.006   2.724   1.963  0.1381  0.1611  0.0061
 1036SOL    HW2 4142  -0.080   2.763   1.981 -0.0250  0.0326 -0.5045
 1036SOL    HW3 4143   0.012   2.721   1.868 -0.0601 -1.5284  0.0336
 1036SOL    MW4 4144  -0.004   2.729   1.953  0.0905 -0.0788 -0.0577
 1037SOL     OW 4145   0.263   2.845   2.032  0.0540 -0.2117 -0.1975
 1037SOL    HW2 4146   0.264   2.932   1.993 -0.2902 -0.1492 -0.0658
 1037SOL    HW3 4147   0.176   2.811   2.012  0.1924 -0.5315 -0.2617
 1037SOL    MW4 4148   0.252   2.852   2.024  0.0269 -0.2457 -0.1886
 1038SOL     OW 4149   0.242   3.091   1.899 -0.2581 -0.3565  0.1627
 1038SOL    HW2 4150   0.328   3.128   1.918  0.0673 -1.8110  1.6246
 1038SOL    HW3 4151   0.238   3.088   1.803  1.2050 -0.0026  0.0827
 1038SOL    MW4 4152   0.253   3.095   1.889 -0.0221 -0.5017  0.3450
 1039SOL     OW 4153   4.489   3.226   1.994 -0.0026 -0.2556  0.3339
 1039SOL    HW2 4154   4.409   3.182   1.964 -0.5862  1.0892 -0.1008
 1039SOL    HW3 4155   4.560   3.175   1.954 -0.7232  0.5445 -2.0592
 1039SOL    MW4 4156   4.488   3.213   1.985 -0.1747  0.0274 -0.0392
 1040SOL     OW 4157   4.486   3.482   1.896 -0.3506  0.2193  0.2761
 1040SOL    HW2 4158   4.556   3.532   1.938  0.0920  0.2551 -0.5016
 1040SOL    HW3 4159   4.498   3.393   1.928  0.5373  0.0641 -0.4627
 1040SOL    MW4 4160   4.497   3.477   1.906 -0.1750  0.2036  0.0760
 1041SOL     OW 4161   0.216   3.604   2.004  0.0505  0.8153  0.0711
 1041SOL    HW2 4162   0.227   3.586   2.098  0.2227  0.0330 -0.0980
 1041SOL    HW3 4163   0.280   3.547   1.961 -1.3577 -0.2414 -0.6431
 1041SOL    MW4 4164   0.226   3.594   2.011 -0.1125  0.5727 -0.0455
 1042SOL     OW 4165   0.202   3.893   1.934 -0.1593  0.4056  0.1320
 1042SOL    HW2 4166   0.275   3.943   1.969 -0.4779 -0.1464  1.5900
 1042SOL    HW3 4167   0.224   3.801   1.951 -1.0840  0.2229  0.3839
 1042SOL    MW4 4168   0.214   3.887   1.941 -0.3233  0.3087  0.3576
 1043SOL     OW 4169   4.464   4.023   2.019 -0.2310 -0.3565  0.3925
 1043SOL    HW2 4170   4.471   4.108   1.976  1.1890  0.2876  1.8106
 1043SOL    HW3 4171   4.545   3.977   1.995 -0.7428 -1.0962  0.0630
 1043SOL    MW4 4172   4.476   4.028   2.010 -0.1112 -0.3691  0.5361
 1044SOL     OW 4173   4.468   4.266   1.870 -0.4218  0.4430 -0.2804
 1044SOL    HW2 4174   4.389   4.315   1.892 -0.0194  1.4673 -1.0462
 1044SOL    HW3 4175   4.538   4.312   1.917  0.1131  1.2642 -1.8388
 1044SOL    MW4 4176   4.467   4.278   1.879 -0.2982  0.6865 -0.5870
 1045SOL     OW 4177   0.200   4.379   1.991  0.3256 -0.3912 -0.3474
 1045SOL    HW2 4178   0.209   4.373   2.086 -0.1070 -0.3488 -0.3018
 1045SOL    HW3 4179   0.208   4.472   1.972 -1.8956 -0.1108 -0.0977
 1045SOL    MW4 4180   0.202   4.391   2.001 -0.0245 -0.3486 -0.3085
 1046SOL     OW 4181   0.687   0.041   1.887 -0.0932 -0.0529 -0.0640
 1046SOL    HW2 4182   0.693  -0.045   1.928  1.5120  0.7913  1.5239
 1046SOL    HW3 4183   0.674   0.022   1.794  0.5713 -2.0217  0.2161
 1046SOL    MW4 4184   0.686   0.027   1.880  0.2063 -0.2013  0.1824
 1047SOL     OW 4185   0.435   0.113   1.997  0.4077 -0.3181  0.0124
 1047SOL    HW2 4186   0.438   0.208   1.998  1.0872 -0.3276 -0.5208
 1047SOL    HW3 4187   0.524   0.086   1.971  0.1647 -1.0891 -0.0525
 1047SOL    MW4 4188   0.447   0.122   1.994  0.4653 -0.4211 -0.0665
 1048SOL     OW 4189   0.435   0.390   1.948 -0.1926 -0.3067  0.1073
 1048SOL    HW2 4190   0.510   0.436   1.985  0.1272 -1.9370  1.5543
 1048SOL    HW3 4191   0.455   0.384   1.854  0.1546  1.7036  0.0303
 1048SOL    MW4 4192   0.448   0.395   1.940 -0.1046 -0.2566  0.2881
 1049SOL     OW 4193   0.687   0.519   1.986  0.1675  0.0958 -0.1528
 1049SOL    HW2 4194   0.685   0.528   2.081  0.4431  1.0571 -0.2332
 1049SOL    HW3 4195   0.767   0.470   1.967  0.3468  0.3040  0.0759
 1049SOL    MW4 4196   0.697   0.514   1.996  0.2275  0.2501 -0.1333
 1050SOL     OW 4197   0.691   0.786   1.932 -0.2658  0.5374  0.2431
 1050SOL    HW2 4198   0.779   0.813   1.960  0.1393  1.1767 -1.6022
 1050SOL    HW3 4199   0.688   0.692   1.948  1.2257  0.2882 -0.9308
 1050SOL    MW4 4200   0.702   0.777   1.938 -0.0155  0.5889 -0.1553
 1051SOL     OW 4201   0.442   0.894   2.022  0.1145  0.8857  0.3329
 1051SOL    HW2 4202   0.432   0.980   1.980 -1.0101 -0.2056 -1.7185
 1051SOL    HW3 4203   0.527   0.863   1.993  0.2950  1.0819  0.6518
 1051SOL    MW4 4204   0.452   0.902   2.012 -0.0101  0.7676  0.1043
 1052SOL     OW 4205   0.433   1.159   1.936 -0.1939 -0.7632  0.0489
 1052SOL    HW2 4206   0.364   1.208   1.982 -0.2635 -2.3581  1.7144
 1052SOL    HW3 4207   0.417   1.177   1.843 -1.1894  1.0589  0.5345
 1052SOL    MW4 4208   0.422   1.168   1.930 -0.3345 -0.7332  0.3327
 1053SOL     OW 4209   0.674   1.266   1.996  0.1769 -0.4376 -0.0048
 1053SOL    HW2 4210   0.672   1.254   2.091 -0.0958  0.5328  0.1198
 1053SOL    HW3 4211   0.593   1.227   1.964 -0.8370  1.2689  0.4189
 1053SOL    MW4 4212   0.663   1.259   2.004  0.0071 -0.0844  0.0675
 1054SOL     OW 4213   0.682   1.522   1.909  0.3049 -0.1312 -0.4196
 1054SOL    HW2 4214   0.693   1.430   1.935  0.1260  0.0192  0.2045
 1054SOL    HW3 4215   0.694   1.522   1.814  2.6658 -0.4571 -0.1571
 1054SOL    MW4 4216   0.685   1.510   1.900  0.5928 -0.1544 -0.3026
 1055SOL     OW 4217   0.443   1.660   2.029 -0.0654  0.0410 -0.7137
 1055SOL    HW2 4218   0.466   1.650   2.122 -0.9587  0.7435 -0.3993
 1055SOL    HW3 4219   0.516   1.620   1.981 -0.1736 -1.4336  0.3121
 1055SOL    MW4 4220   0.456   1.653   2.035 -0.1975 -0.0609 -0.5369
 1056SOL     OW 4221   0.420   1.961   1.958  0.1366  0.3789 -0.2474
 1056SOL    HW2 4222   0.409   1.870   1.987  0.3776  1.0672  2.0845
 1056SOL    HW3 4223   0.333   2.001   1.970  0.2045  0.6555 -0.6423
 1056SOL    MW4 4224   0.407   1.954   1.963  0.1773  0.5062  0.0081
 1057SOL     OW 4225   0.662   2.086   2.012 -0.2981 -0.3041 -0.1086
 1057SOL    HW2 4226   0.677   2.065   2.104  0.4917 -0.8415 -0.3536
 1057SOL    HW3 4227   0.582   2.038   1.990 -0.1881 -0.6111  0.1539
 1057SOL    MW4 4228   0.653   2.077   2.021 -0.1794 -0.4155 -0.1063
 1058SOL     OW 4229   0.671   2.341   1.866  0.2784 -0.9814  0.6086
 1058SOL    HW2 4230   0.670   2.252   1.899 -1.3414 -1.4787 -0.7228
 1058SOL    HW3 4231   0.676   2.331   1.771  0.7001  0.3695  0.4751
 1058SOL    MW4 4232   0.672   2.328   1.858  0.1204 -0.8688  0.4153
 1059SOL     OW 4233   0.448   2.429   2.006 -0.2174 -0.0458 -0.2428
 1059SOL    HW2 4234   0.447   2.403   2.099 -0.8606  0.0429 -0.2167
 1059SOL    HW3 4235   0.524   2.384   1.969  0.1551  0.0702  0.3725
 1059SOL    MW4 4236   0.458   2.419   2.014 -0.2531 -0.0188 -0.1582
 1060SOL     OW 4237   0.414   2.671   1.880 -0.3390 -0.3412 -0.4534
 1060SOL    HW2 4238   0.428   2.583   1.913 -0.2166 -0.3466 -0.5187
 1060SOL    HW3 4239   0.354   2.712   1.942 -0.5609 -0.5414 -0.5396
 1060SOL    MW4 4240   0.408   2.665   1.892 -0.3521 -0.3683 -0.4734
 1061SOL     OW 4241   0.630   2.839   1.967 -0.6183 -0.0292  0.0590
 1061SOL    HW2 4242   0.627   2.845   2.063 -2.2758 -0.6469  0.0589
 1061SOL    HW3 4243   0.560   2.778   1.944 -0.2583  0.1361 -1.5545
 1061SOL    MW4 4244   0.621   2.832   1.977 -0.7894 -0.0889 -0.1539
 1062SOL     OW 4245   0.716   3.118   1.889 -0.3104  0.6419  0.0392
 1062SOL    HW2 4246   0.679   3.034   1.916  0.8553  0.8512  2.3751
 1062SOL    HW3 4247   0.706   3.119   1.794 -0.6384 -1.9891  0.0225
 1062SOL    MW4 4248   0.709   3.107   1.880 -0.1999  0.3224  0.3452
 1063SOL     OW 4249   0.474   3.215   1.968  0.0492 -0.0168 -0.5433
 1063SOL    HW2 4250   0.473   3.306   1.937 -1.2375 -0.4517 -1.8232
 1063SOL    HW3 4251   0.563   3.185   1.947  0.1797  0.6478 -0.9939
 1063SOL    MW4 4252   0.486   3.223   1.961 -0.1034  0.0135 -0.7716
 1064SOL     OW 4253   0.440   3.495   1.883 -0.3702  0.2875  0.1656
 1064SOL    HW2 4254   0.517   3.548   1.908 -0.9925  1.4400 -0.2948
 1064SOL    HW3 4255   0.451   3.481   1.789 -1.1718  1.2108 -0.0691
 1064SOL    MW4 4256   0.452   3.501   1.874 -0.5581  0.5614  0.0739
 1065SOL     OW 4257   0.660   3.644   1.989  0.3957  0.5615  0.0775
 1065SOL    HW2 4258   0.731   3.596   1.946  1.0252 -0.0555  1.7426
 1065SOL    HW3 4259   0.668   3.733   1.957 -0.3647 -0.2774 -2.5648
 1065SOL    MW4 4260   0.671   3.649   1.979  0.3784  0.3694 -0.0515
 1066SOL     OW 4261   0.663   3.929   1.887  0.2365  0.1592 -0.1502
 1066SOL    HW2 4262   0.734   3.986   1.917  0.4681  0.2116 -0.7836
 1066SOL    HW3 4263   0.681   3.915   1.794  0.9347 -2.0347  0.2853
 1066SOL    MW4 4264   0.675   3.934   1.879  0.3592 -0.1233 -0.1763
 1067SOL     OW 4265   0.442   4.052   1.997 -0.2616  0.2195 -0.2819
 1067SOL    HW2 4266   0.447   4.143   1.966  0.9051  0.1792 -0.2249
 1067SOL    HW3 4267   0.524   4.012   1.969 -0.3990 -0.5893  0.4411
 1067SOL    MW4 4268   0.453   4.059   1.989 -0.1258  0.1075 -0.1790
 1068SOL     OW 4269   0.452   4.308   1.882 -0.3593  0.7788  0.3496
 1068SOL    HW2 4270   0.366   4.341   1.908  0.0599  2.8813 -0.8051
 1068SOL    HW3 4271   0.442   4.280   1.792 -0.1700 -0.2732  0.6508
 1068SOL    MW4 4272   0.440   4.309   1.874 -0.2790  0.9174  0.2370
 1069SOL     OW 4273   0.681   4.445   2.003  0.3070  0.3034 -0.4282
 1069SOL    HW2 4274   0.749   4.393   1.959  0.0820  0.9125 -1.5225
 1069SOL    HW3 4275   0.599   4.407   1.974  0.1745  0.0352  0.3100
 1069SOL    MW4 4276   0.679   4.433   1.993  0.2598  0.3484 -0.4752
 1070SOL     OW 4277   1.109   4.651   1.922 -0.2015 -0.2723  0.2624
 1070SOL    HW2 4278   1.193   4.696   1.935 -0.3041  0.2107 -0.6850
 1070SOL    HW3 4279   1.121   4.565   1.963 -0.0319  0.6402  2.2122
 1070SOL    MW4 4280   1.122   4.646   1.929 -0.1926 -0.0882  0.3946
 1071SOL     OW 4281   0.903   0.171   2.027 -0.1934  0.3661  0.3008
 1071SOL    HW2 4282   0.979   0.124   1.993 -0.6001 -0.2015  0.1767
 1071SOL    HW3 4283   0.829   0.135   1.978 -0.2477  2.8104 -1.5361
 1071SOL    MW4 4284   0.903   0.160   2.016 -0.2542  0.6137  0.0421
 1072SOL     OW 4285   0.948   0.422   1.957 -0.5830 -0.0391  0.6716
 1072SOL    HW2 4286   1.024   0.458   2.002  1.2852 -1.1763 -1.4582
 1072SOL    HW3 4287   0.943   0.332   1.988 -1.4328  0.2057  1.2524
 1072SOL    MW4 4288   0.957   0.415   1.967 -0.4486 -0.1569  0.4673
 1073SOL     OW 4289   1.203   0.503   2.030  0.1052 -0.7889  0.4026
 1073SOL    HW2 4290   1.271   0.450   1.988 -0.7639 -1.6337  0.0450
 1073SOL    HW3 4291   1.202   0.584   1.980  1.1293 -0.6042  0.6635
 1073SOL    MW4 4292   1.212   0.506   2.018  0.1256 -0.8760  0.3898
 1074SOL     OW 4293   1.172   0.788   1.889  0.1834 -0.2971  0.0348
 1074SOL    HW2 4294   1.245   0.815   1.944 -0.2986  0.7117  0.1914
 1074SOL    HW3 4295   1.095   0.828   1.930  0.1813  3.2200 -3.1219
 1074SOL    MW4 4296   1.171   0.797   1.902  0.1195  0.3001 -0.3610
 1075SOL     OW 4297   0.943   0.869   2.036 -0.2672  0.1585  0.0784
 1075SOL    HW2 4298   0.938   0.884   2.131  2.1619  0.8178  0.1293
 1075SOL    HW3 4299   0.947   0.956   1.998 -1.7434 -0.0953 -0.6754
 1075SOL    MW4 4300   0.943   0.882   2.044 -0.1415  0.2120 -0.0143
 1076SOL     OW 4301   0.928   1.119   1.923 -0.5196  0.1330 -0.2227
 1076SOL    HW2 4302   0.853   1.172   1.951 -0.3517  0.2589 -0.0051
 1076SOL    HW3 4303   0.920   1.115   1.828 -0.1401  1.1494 -0.3006
 1076SOL    MW4 4304   0.917   1.126   1.914 -0.4474  0.2837 -0.2043
 1077SOL     OW 4305   1.140   1.279   1.999 -0.1986 -0.0053  0.1386
 1077SOL    HW2 4306   1.143   1.366   1.959 -0.2159  1.5824  3.3910
 1077SOL    HW3 4307   1.056   1.242   1.972 -1.0382  1.7870  0.2591
 1077SOL    MW4 4308   1.130   1.285   1.990 -0.3116  0.4406  0.5836
 1078SOL     OW 4309   1.138   1.549   1.882 -0.2958  0.1578  0.1647
 1078SOL    HW2 4310   1.067   1.598   1.924  0.4257 -0.3155  1.9733
 1078SOL    HW3 4311   1.128   1.568   1.789 -1.7932  1.4096  0.5585
 1078SOL    MW4 4312   1.127   1.558   1.875 -0.3982  0.2605  0.4553
 1079SOL     OW 4313   0.948   1.699   2.020 -0.3267 -0.2118 -0.1373
 1079SOL    HW2 4314   0.945   1.792   1.998  0.4053 -0.0469  0.4380
 1079SOL    HW3 4315   0.870   1.662   1.978 -0.9731  0.7750  0.1547
 1079SOL    MW4 4316   0.937   1.706   2.012 -0.3154 -0.0598 -0.0229
 1080SOL     OW 4317   0.880   1.948   1.926  0.0527 -0.1520  0.0472
 1080SOL    HW2 4318   0.803   1.990   1.964 -0.4987 -2.0025  1.0309
 1080SOL    HW3 4319   0.859   1.940   1.833 -1.4827 -1.7631  0.5128
 1080SOL    MW4 4320   0.867   1.953   1.919 -0.2226 -0.6087  0.2384
 1081SOL     OW 4321   1.117   2.082   2.001 -0.3169  0.1821 -0.1345
 1081SOL    HW2 4322   1.112   2.168   1.958 -2.0464 -0.4910 -1.3382
 1081SOL    HW3 4323   1.042   2.034   1.967 -0.6687 -1.0358  2.2664
 1081SOL    MW4 4324   1.107   2.087   1.991 -0.5915 -0.0674  0.0235
 1082SOL     OW 4325   1.115   2.348   1.918  0.2700  0.2745 -0.0880
 1082SOL    HW2 4326   1.192   2.362   1.974  0.2378  3.2182 -0.6964
 1082SOL    HW3 4327   1.151   2.337   1.830  0.1037 -0.3605 -0.0768
 1082SOL    MW4 4328   1.130   2.349   1.914  0.2438  0.5791 -0.1668
 1083SOL     OW 4329   0.877   2.465   2.009 -0.5080 -0.1211  0.0385
 1083SOL    HW2 4330   0.949   2.410   1.978 -0.8958 -0.5919 -0.0454
 1083SOL    HW3 4331   0.800   2.430   1.965 -0.8946 -0.0824  0.6724
 1083SOL    MW4 4332   0.876   2.453   1.999 -0.6102 -0.1781  0.1111
 1084SOL     OW 4333   0.900   2.751   1.964 -0.0620 -0.1615  0.6246
 1084SOL    HW2 4334   0.884   2.658   1.979  0.6400 -0.5235 -0.7832
 1084SOL    HW3 4335   0.813   2.791   1.964 -0.4290 -0.9619  0.3611
 1084SOL    MW4 4336   0.887   2.744   1.966 -0.0178 -0.3149  0.4041
 1085SOL     OW 4337   1.133   2.878   2.025  0.0142  0.2724  0.0518
 1085SOL    HW2 4338   1.158   2.873   2.118 -0.2758 -0.9721  0.0683
 1085SOL    HW3 4339   1.055   2.823   2.018  0.2615  0.0406 -1.0072
 1085SOL    MW4 4340   1.126   2.870   2.037  0.0086  0.0776 -0.0858
 1086SOL     OW 4341   1.129   3.122   1.896 -0.0440 -0.5491 -0.7222
 1086SOL    HW2 4342   1.065   3.178   1.941  0.2019 -0.4757 -0.4623
 1086SOL    HW3 4343   1.109   3.034   1.926  1.1242 -0.3292  0.7618
 1086SOL    MW4 4344   1.118   3.118   1.906  0.1426 -0.5104 -0.4921
 1087SOL     OW 4345   0.915   3.250   2.023  0.1915  0.2322 -0.0999
 1087SOL    HW2 4346   0.912   3.229   2.116  0.7590 -0.0740 -0.1486
 1087SOL    HW3 4347   0.847   3.195   1.984 -1.3172  1.7333  0.3921
 1087SOL    MW4 4348   0.906   3.240   2.030  0.0673  0.3899 -0.0414
 1088SOL     OW 4349   0.879   3.489   1.906 -0.2663 -0.0778 -0.1453
 1088SOL    HW2 4350   0.889   3.401   1.942  1.0555  0.1517  0.0732
 1088SOL    HW3 4351   0.897   3.479   1.813  1.3202  0.1855  0.1083
 1088SOL    MW4 4352   0.883   3.476   1.899  0.1174 -0.0128 -0.0830
 1089SOL     OW 4353   1.085   3.659   1.992  0.4142 -0.0827 -0.0898
 1089SOL    HW2 4354   1.078   3.645   2.087  0.9916  0.9646  0.1111
 1089SOL    HW3 4355   1.032   3.589   1.954 -0.1839 -0.2502  1.0211
 1089SOL    MW4 4356   1.077   3.648   2.000  0.4115  0.0334  0.0833
 1090SOL     OW 4357   1.063   3.910   1.892  0.1496 -0.0719 -0.5923
 1090SOL    HW2 4358   1.053   3.823   1.931  0.1695 -0.3313 -1.1669
 1090SOL    HW3 4359   1.050   3.896   1.798  0.0954  0.5547 -0.6805
 1090SOL    MW4 4360   1.060   3.897   1.885  0.1451 -0.0235 -0.6798
 1091SOL     OW 4361   0.863   4.066   1.999 -0.0034 -0.3446  0.5184
 1091SOL    HW2 4362   0.895   4.057   2.089  0.4750 -1.6090  0.2418
 1091SOL    HW3 4363   0.920   4.009   1.948 -1.4847 -1.1557 -0.2818
 1091SOL    MW4 4364   0.874   4.057   2.004 -0.1357 -0.6184  0.3763
 1092SOL     OW 4365   0.921   4.319   1.871 -0.0615 -0.0233  0.0192
 1092SOL    HW2 4366   0.992   4.356   1.923 -0.1745 -0.5186  0.5199
 1092SOL    HW3 4367   0.898   4.237   1.915 -1.4879  0.5276  0.3421
 1092SOL    MW4 4368   0.927   4.313   1.884 -0.2646 -0.0160  0.1279
 1093SOL     OW 4369   1.137   4.395   2.042 -0.3139  0.1205  0.6413
 1093SOL    HW2 4370   1.151   4.392   2.137 -1.0886  0.2765  0.7644
 1093SOL    HW3 4371   1.218   4.359   2.005  0.3168  0.7958  1.3344
 1093SOL    MW4 4372   1.150   4.390   2.050 -0.3329  0.2301  0.7490
 1094SOL     OW 4373   1.597   4.625   1.890 -0.1541 -0.0343  0.7206
 1094SOL    HW2 4374   1.666   4.681   1.926  1.2320 -0.9737 -0.4230
 1094SOL    HW3 4375   1.603   4.544   1.941 -0.7073  0.0532  0.9225
 1094SOL    MW4 4376   1.607   4.622   1.902 -0.0442 -0.1467  0.5963
 1095SOL     OW 4377   1.363   0.073   1.986  0.3161 -0.4104 -0.1622
 1095SOL    HW2 4378   1.369   0.070   2.082 -0.9400  0.8540 -0.0341
 1095SOL    HW3 4379   1.443   0.029   1.956  0.9865 -0.3415  1.4569
 1095SOL    MW4 4380   1.374   0.067   1.995  0.2388 -0.2345  0.0683
 1096SOL     OW 4381   1.405   0.341   1.896 -0.0710 -0.2492  0.5966
 1096SOL    HW2 4382   1.378   0.253   1.923 -1.3639 -0.1434 -0.2823
 1096SOL    HW3 4383   1.422   0.332   1.802  2.0781 -0.0851  0.9465
 1096SOL    MW4 4384   1.404   0.328   1.887  0.0419 -0.2136  0.5268
 1097SOL     OW 4385   1.602   0.460   2.025  0.0832 -0.2023  0.8431
 1097SOL    HW2 4386   1.692   0.445   1.996 -0.2342 -1.1458  0.3326
 1097SOL    HW3 4387   1.548   0.419   1.958 -0.7947  2.2017  0.0180
 1097SOL    MW4 4388   1.607   0.453   2.012 -0.0745 -0.0096  0.6669
 1098SOL     OW 4389   1.591   0.714   1.941 -0.1271 -0.0399 -0.2588
 1098SOL    HW2 4390   1.679   0.734   1.973 -0.7315  0.7354  0.9848
 1098SOL    HW3 4391   1.571   0.629   1.981 -0.4974  0.4691  0.6685
 1098SOL    MW4 4392   1.600   0.705   1.951 -0.2557  0.1296  0.0276
 1099SOL     OW 4393   1.370   0.914   2.018  0.1587 -0.0875 -0.2025
 1099SOL    HW2 4394   1.354   0.922   2.113 -3.5690 -2.5214 -0.5139
 1099SOL    HW3 4395   1.443   0.854   2.010  1.1055  0.8634  1.1474
 1099SOL    MW4 4396   1.377   0.907   2.030 -0.2082 -0.2831 -0.0655
 1100SOL     OW 4397   1.364   1.154   1.891 -0.0882 -0.1088  0.3293
 1100SOL    HW2 4398   1.363   1.065   1.926 -0.7320 -1.3486 -2.7064
 1100SOL    HW3 4399   1.285   1.195   1.927  0.1070 -0.8156  1.5688
 1100SOL    MW4 4400   1.353   1.148   1.900 -0.1473 -0.3656  0.0923
 1101SOL     OW 4401   1.591   1.255   2.010  0.0210 -0.0097  0.1422
 1101SOL    HW2 4402   1.598   1.349   1.995  2.3797 -0.3912 -1.4436
 1101SOL    HW3 4403   1.512   1.229   1.961 -0.5563  1.1017  0.4718
 1101SOL    MW4 4404   1.581   1.264   2.001  0.2560  0.0866 -0.0236
 1102SOL     OW 4405   1.555   1.545   1.899 -0.1729 -0.0650  0.8619
 1102SOL    HW2 4406   1.628   1.588   1.944  0.4129 -1.7583  1.5672
 1102SOL    HW3 4407   1.480   1.601   1.918  0.8061  1.3427  0.6904
 1102SOL    MW4 4408   1.555   1.558   1.908  0.0335 -0.1027  0.9323
 1103SOL     OW 4409   1.340   1.694   2.000  0.0498 -0.0463  0.0119
 1103SOL    HW2 4410   1.322   1.658   2.087  1.1826 -0.3106  0.1409
 1103SOL    HW3 4411   1.263   1.670   1.948  0.9938 -3.0976 -0.0543
 1103SOL    MW4 4412   1.327   1.686   2.005  0.3238 -0.4837  0.0202
 1104SOL     OW 4413   1.354   1.968   1.932  0.2779 -0.1125 -0.0132
 1104SOL    HW2 4414   1.344   1.876   1.957 -0.2118 -0.6011 -1.8865
 1104SOL    HW3 4415   1.267   2.006   1.947 -0.4755 -0.7874 -2.3215
 1104SOL    MW4 4416   1.341   1.961   1.937  0.1139 -0.2660 -0.5649
 1105SOL     OW 4417   1.609   2.085   1.988  0.2470 -0.2651  0.1819
 1105SOL    HW2 4418   1.604   2.175   1.956  1.1767  0.2592  1.4762
 1105SOL    HW3 4419   1.523   2.047   1.967 -0.4198  1.1515  0.3269
 1105SOL    MW4 4420   1.597   2.091   1.981  0.2817 -0.0090  0.3718
 1106SOL     OW 4421   1.602   2.344   1.885  0.0520 -0.5779 -0.2291
 1106SOL    HW2 4422   1.684   2.385   1.914 -0.0789 -0.6147  0.2023
 1106SOL    HW3 4423   1.596   2.366   1.792 -0.5097  1.2401  0.2125
 1106SOL    MW4 4424   1.612   2.352   1.877 -0.0394 -0.3429 -0.1139
 1107SOL     OW 4425   1.374   2.443   2.003  0.3390 -0.0295 -0.0591
 1107SOL    HW2 4426   1.368   2.529   1.960  0.1086  0.5258  1.0682
 1107SOL    HW3 4427   1.447   2.399   1.959  0.4963  0.7686 -0.5999
 1107SOL    MW4 4428   1.383   2.449   1.991  0.3293  0.1491  0.0183
 1108SOL     OW 4429   1.309   2.695   1.904  0.5903 -0.0842 -0.0785
 1108SOL    HW2 4430   1.248   2.756   1.947  0.3130 -0.1362 -0.3977
 1108SOL    HW3 4431   1.284   2.697   1.812  0.3267 -0.9710 -0.0330
 1108SOL    MW4 4432   1.297   2.703   1.898  0.5189 -0.2081 -0.1146
 1109SOL     OW 4433   1.542   2.811   2.028  0.3299 -0.0191  0.5528
 1109SOL    HW2 4434   1.614   2.775   1.976 -0.3577 -1.9255  0.8790
 1109SOL    HW3 4435   1.463   2.780   1.984 -0.2732  0.0393  1.5900
 1109SOL    MW4 4436   1.541   2.802   2.015  0.1596 -0.2629  0.7327
 1110SOL     OW 4437   1.557   3.085   1.917 -0.3742 -0.2835  0.3269
 1110SOL    HW2 4438   1.538   2.996   1.947 -0.5814 -0.3337  0.0574
 1110SOL    HW3 4439   1.570   3.075   1.822  1.6707 -0.3490  0.6052
 1110SOL    MW4 4440   1.556   3.072   1.908 -0.1317 -0.2987  0.3281
 1111SOL     OW 4441   1.349   3.227   2.014 -0.1168  0.3253 -0.2814
 1111SOL    HW2 4442   1.421   3.173   1.981  0.7583  1.3735 -0.1164
 1111SOL    HW3 4443   1.270   3.189   1.974  0.6596  0.0061 -1.5490
 1111SOL    MW4 4444   1.348   3.215   2.004  0.1011  0.4215 -0.4269
 1112SOL     OW 4445   1.320   3.504   1.908  0.2005  0.4460  0.4144
 1112SOL    HW2 4446   1.310   3.414   1.939 -2.9298 -0.8148 -3.8198
 1112SOL    HW3 4447   1.244   3.551   1.943  1.0001  1.0793  1.3251
 1112SOL    MW4 4448   1.309   3.498   1.917 -0.1070  0.3632 -0.0241
 1113SOL     OW 4449   1.565   3.598   2.010 -0.1510 -0.3365 -0.0219
 1113SOL    HW2 4450   1.556   3.595   2.106  0.8846 -0.4011  0.0767
 1113SOL    HW3 4451   1.489   3.551   1.977 -0.4957 -0.3459  0.7728
 1113SOL    MW4 4452   1.554   3.592   2.019 -0.0599 -0.3463  0.0960
 1114SOL     OW 4453   1.541   3.870   1.887 -0.9845  0.0698  0.4809
 1114SOL    HW2 4454   1.619   3.921   1.910  0.8000 -1.2484 -2.3799
 1114SOL    HW3 4455   1.558   3.783   1.922 -0.9760 -0.3312 -0.5073
 1114SOL    MW4 4456   1.554   3.866   1.895 -0.7479 -0.1571 -0.0269
 1115SOL     OW 4457   1.324   4.010   2.005 -0.2798  0.1537 -0.0514
 1115SOL    HW2 4458   1.388   3.960   1.954  0.0668 -0.2656  0.7809
 1115SOL    HW3 4459   1.239   3.981   1.972 -0.0779 -0.9405  0.3847
 1115SOL    MW4 4460   1.322   4.000   1.994 -0.2074 -0.0460  0.1160
 1116SOL     OW 4461   1.363   4.272   1.927  0.0832  0.2508  0.1457
 1116SOL    HW2 4462   1.355   4.182   1.959 -2.3055  0.9259  1.5468
 1116SOL    HW3 4463   1.329   4.268   1.837  0.6049 -0.3655 -0.0301
 1116SOL    MW4 4464   1.358   4.260   1.919 -0.1632  0.2586  0.3074
 1117SOL     OW 4465   1.626   4.366   2.013  0.1403 -0.1406  0.4599
 1117SOL    HW2 4466   1.612   4.383   2.107 -1.8417  1.3045 -0.0570
 1117SOL    HW3 4467   1.543   4.328   1.984  0.1638  0.9722 -1.0663
 1117SOL    MW4 4468   1.613   4.363   2.022 -0.1181  0.1968  0.1903
 1118SOL     OW 4469   2.026   4.609   1.929  0.3573 -0.0270  0.0656
 1118SOL    HW2 4470   2.103   4.640   1.976  0.1540  0.3109  0.1763
 1118SOL    HW3 4471   2.015   4.518   1.957  0.6078 -0.0207  0.1841
 1118SOL    MW4 4472   2.034   4.601   1.939  0.3635  0.0184  0.0959
 1119SOL     OW 4473   1.812   0.101   2.017 -0.0376  0.0181 -0.2095
 1119SOL    HW2 4474   1.807   0.111   2.112 -1.0851 -1.5824 -0.0861
 1119SOL    HW3 4475   1.893   0.053   2.002  0.3886  0.7217 -0.1621
 1119SOL    MW4 4476   1.822   0.096   2.027 -0.1196 -0.1002 -0.1870
 1120SOL     OW 4477   1.856   0.355   1.941 -0.4955 -0.3661  0.4330
 1120SOL    HW2 4478   1.819   0.268   1.954 -2.3847  0.3093 -0.1742
 1120SOL    HW3 4479   1.868   0.363   1.846 -2.1846  0.7354  0.2928
 1120SOL    MW4 4480   1.853   0.345   1.930 -0.9676 -0.1317  0.3344
 1121SOL     OW 4481   2.049   0.508   2.052  0.1081 -0.1266 -0.0590
 1121SOL    HW2 4482   2.051   0.588   2.000 -0.6714  0.4098  0.7198
 1121SOL    HW3 4483   1.981   0.455   2.011  0.1391 -0.0919 -0.1556
 1121SOL    MW4 4484   2.040   0.512   2.040  0.0094 -0.0512  0.0310
 1122SOL     OW 4485   2.061   0.758   1.913 -0.7370  0.6665  0.2524
 1122SOL    HW2 4486   2.116   0.824   1.956  0.5408 -0.9085  1.1093
 1122SOL    HW3 4487   2.074   0.772   1.819 -0.2813  1.4780  0.4365
 1122SOL    MW4 4488   2.070   0.768   1.906 -0.5083  0.5658  0.3897
 1123SOL     OW 4489   1.828   0.843   2.036  0.2702  0.3596 -0.1710
 1123SOL    HW2 4490   1.832   0.936   2.013 -0.5186  0.0634 -1.5044
 1123SOL    HW3 4491   1.899   0.803   1.986  0.1748  0.1348 -0.1265
 1123SOL    MW4 4492   1.838   0.850   2.027  0.1536  0.2908 -0.3411
 1124SOL     OW 4493   1.831   1.113   1.950  0.0513 -0.4054 -0.2313
 1124SOL    HW2 4494   1.751   1.161   1.970  0.9940  0.7172  0.9284
 1124SOL    HW3 4495   1.837   1.117   1.854 -1.5965 -1.0698 -0.3853
 1124SOL    MW4 4496   1.821   1.120   1.940 -0.0417 -0.3449 -0.0986
 1125SOL     OW 4497   2.019   1.307   2.011 -0.5729 -0.1389 -0.4699
 1125SOL    HW2 4498   2.101   1.276   1.973 -0.0821  1.1628 -0.4966
 1125SOL    HW3 4499   1.955   1.239   1.990 -0.1859  0.2493 -3.0923
 1125SOL    MW4 4500   2.022   1.294   2.003 -0.4571  0.0841 -0.8194
 1126SOL     OW 4501   2.015   1.560   1.925 -0.1595 -0.0583 -0.5303
 1126SOL    HW2 4502   2.001   1.468   1.948 -2.3527  0.4629  0.2826
 1126SOL    HW3 4503   1.991   1.567   1.833 -0.6250 -0.1756 -0.4188
 1126SOL    MW4 4504   2.010   1.549   1.916 -0.5103 -0.0050 -0.4084
 1127SOL     OW 4505   1.785   1.659   2.008  0.2019  0.3829 -0.4339
 1127SOL    HW2 4506   1.786   1.746   1.967  0.7446  0.8711  0.5966
 1127SOL    HW3 4507   1.860   1.614   1.970  1.0726  1.0526  0.4631
 1127SOL    MW4 4508   1.795   1.665   1.998  0.3884  0.5357 -0.1796
 1128SOL     OW 4509   1.814   1.928   1.913  0.2414 -0.5920 -0.2101
 1128SOL    HW2 4510   1.742   1.989   1.931  0.6523 -0.0640 -0.3436
 1128SOL    HW3 4511   1.824   1.929   1.818  0.1486 -0.9881 -0.2256
 1128SOL    MW4 4512   1.805   1.936   1.903  0.2833 -0.5746 -0.2298
 1129SOL     OW 4513   2.046   2.036   2.028 -0.1255 -0.0458  0.8043
 1129SOL    HW2 4514   2.117   1.992   1.981  0.5274  0.8107  0.9704
 1129SOL    HW3 4515   1.967   1.992   1.999  0.4672 -0.9520  0.5349
 1129SOL    MW4 4516   2.045   2.024   2.018  0.0388 -0.0523  0.7907
 1130SOL     OW 4517   2.025   2.266   1.872 -0.1687  0.3643 -0.3247
 1130SOL    HW2 4518   2.101   2.316   1.902  1.0206 -0.9023 -1.1167
 1130SOL    HW3 4519   2.031   2.183   1.921 -0.0875 -0.3919 -1.5879
 1130SOL    MW4 4520   2.036   2.261   1.883 -0.0011  0.0974 -0.5959
 1131SOL     OW 4521   1.843   2.446   1.987  0.0971  0.2611 -0.4397
 1131SOL    HW2 4522   1.833   2.430   2.081 -1.9598  0.3680 -0.6149
 1131SOL    HW3 4523   1.910   2.383   1.959  0.7274  0.2287  1.0733
 1131SOL    MW4 4524   1.851   2.435   1.995 -0.0911  0.2710 -0.2632
 1132SOL     OW 4525   1.753   2.685   1.899 -0.1873 -0.5870 -0.1864
 1132SOL    HW2 4526   1.796   2.603   1.924  0.3696 -0.4292 -0.6038
 1132SOL    HW3 4527   1.748   2.680   1.803  0.8767  0.3674 -0.3011
 1132SOL    MW4 4528   1.758   2.673   1.890  0.0266 -0.4403 -0.2566
 1133SOL     OW 4529   1.970   2.848   1.992 -0.1360 -0.2197  0.0207
 1133SOL    HW2 4530   1.970   2.856   2.088 -1.1165  0.6496 -0.0341
 1133SOL    HW3 4531   1.890   2.798   1.973 -0.0948 -0.1386 -0.3578
 1133SOL    MW4 4532   1.959   2.842   2.002 -0.2600 -0.0943 -0.0365
 1134SOL     OW 4533   2.044   3.110   1.883  0.0478  0.3252  0.0036
 1134SOL    HW2 4534   1.960   3.148   1.907 -0.5461 -0.2177 -1.1865
 1134SOL    HW3 4535   2.038   3.018   1.911  0.7273  0.5839  1.0521
 1134SOL    MW4 4536   2.032   3.103   1.890  0.0591  0.2877 -0.0151
 1135SOL     OW 4537   1.805   3.210   1.993 -0.2504  0.1794  0.4663
 1135SOL    HW2 4538   1.814   3.194   2.087 -0.8249  1.1387  0.6905
 1135SOL    HW3 4539   1.732   3.153   1.967  1.0961 -1.4878  0.2187
 1135SOL    MW4 4540   1.796   3.200   2.002 -0.1485  0.0860  0.4632
 1136SOL     OW 4541   1.794   3.477   1.914  0.0875  0.2695 -0.2282
 1136SOL    HW2 4542   1.800   3.392   1.957  1.1315 -0.4822 -1.8408
 1136SOL    HW3 4543   1.722   3.521   1.960 -1.5473 -2.0749 -0.4169
 1136SOL    MW4 4544   1.785   3.472   1.926  0.0096 -0.1390 -0.4658
 1137SOL     OW 4545   2.046   3.573   1.974  0.2629  0.2305 -0.1820
 1137SOL    HW2 4546   2.036   3.660   1.935 -1.6709  2.0297  3.9851
 1137SOL    HW3 4547   1.967   3.526   1.947  0.9950 -0.0341 -1.9081
 1137SOL    MW4 4548   2.034   3.578   1.965  0.1043  0.4329  0.1400
 1138SOL     OW 4549   2.025   3.842   1.903  0.2146 -0.0182 -0.1541
 1138SOL    HW2 4550   2.083   3.910   1.939  0.2399  0.0932 -0.4081
 1138SOL    HW3 4551   2.038   3.846   1.809  0.2415 -0.4045 -0.1668
 1138SOL    MW4 4552   2.034   3.852   1.896  0.2215 -0.0545 -0.1893
 1139SOL     OW 4553   1.791   3.984   1.987  0.0271  0.3423 -0.0121
 1139SOL    HW2 4554   1.810   4.066   1.941 -0.5561  0.1554 -0.6028
 1139SOL    HW3 4555   1.857   3.922   1.954  0.0030  0.3769 -0.1269
 1139SOL    MW4 4556   1.802   3.987   1.976 -0.0531  0.3222 -0.1052
 1140SOL     OW 4557   1.808   4.220   1.854 -0.4553  0.1054  0.0755
 1140SOL    HW2 4558   1.754   4.283   1.900  0.0953  0.3295  0.4147
 1140SOL    HW3 4559   1.783   4.229   1.762  0.0574  1.2564  0.0382
 1140SOL    MW4 4560   1.798   4.229   1.848 -0.3150  0.2868  0.1153
 1141SOL     OW 4561   1.984   4.344   2.012  0.0709 -0.0549 -0.0336
 1141SOL    HW2 4562   2.065   4.325   1.965  0.0531  0.3549 -0.2320
 1141SOL    HW3 4563   1.918   4.289   1.969  0.2085 -0.2636  0.0207
 1141SOL    MW4 4564   1.986   4.334   2.000  0.0867 -0.0284 -0.0526
 1142SOL     OW 4565   2.464   4.658   1.916  0.4546 -0.2672  0.0927
 1142SOL    HW2 4566   2.537   4.704   1.959  1.0659 -0.3364 -0.8587
 1142SOL    HW3 4567   2.476   4.566   1.941 -0.5650  0.0134  1.7070
 1142SOL    MW4 4568   2.475   4.652   1.925  0.4007 -0.2393  0.1802
 1143SOL     OW 4569   2.223   0.072   2.067 -0.0646 -0.0151  0.0027
 1143SOL    HW2 4570   2.242   0.078   2.161  0.7141 -2.8363  0.0773
 1143SOL    HW3 4571   2.304   0.036   2.029 -1.2968 -1.3911 -1.3674
 1143SOL    MW4 4572   2.236   0.068   2.075 -0.1244 -0.5688 -0.1682
 1144SOL     OW 4573   2.271   0.337   2.004  0.2757  0.0440  0.3932
 1144SOL    HW2 4574   2.257   0.248   2.035  0.7079 -0.1873 -0.0836
 1144SOL    HW3 4575   2.194   0.385   2.035 -0.9186 -0.9090 -1.0187
 1144SOL    MW4 4576   2.259   0.332   2.012  0.1751 -0.1123  0.1440
 1145SOL     OW 4577   2.499   0.482   2.010  0.1521  0.7629 -0.3360
 1145SOL    HW2 4578   2.564   0.433   1.959  1.5987  1.4251  0.8357
 1145SOL    HW3 4579   2.418   0.433   1.999  1.0342 -0.5493 -1.1484
 1145SOL    MW4 4580   2.497   0.469   2.002  0.4594  0.6771 -0.2886
 1146SOL     OW 4581   2.459   0.748   1.945 -0.1549  0.0745 -0.0907
 1146SOL    HW2 4582   2.481   0.657   1.965 -1.3182 -0.1385  0.2482
 1146SOL    HW3 4583   2.453   0.752   1.850  0.2805 -0.1113 -0.1253
 1146SOL    MW4 4584   2.461   0.737   1.935 -0.2510  0.0219 -0.0506
 1147SOL     OW 4585   2.269   0.919   2.032  0.1595  0.1264  0.2322
 1147SOL    HW2 4586   2.271   0.908   2.127 -1.1253 -1.2289  0.1129
 1147SOL    HW3 4587   2.342   0.867   2.000 -0.6305 -1.0651  0.3369
 1147SOL    MW4 4588   2.279   0.911   2.041 -0.1142 -0.2096  0.2303
 1148SOL     OW 4589   2.235   1.171   1.915 -0.5847 -0.2111  0.0817
 1148SOL    HW2 4590   2.321   1.208   1.932 -0.6786  0.2820 -0.5092
 1148SOL    HW3 4591   2.242   1.080   1.945  0.3040 -0.3267 -0.4532
 1148SOL    MW4 4592   2.247   1.164   1.921 -0.4799 -0.1613 -0.0668
 1149SOL     OW 4593   2.464   1.297   1.986 -0.1639 -0.4885 -0.2173
 1149SOL    HW2 4594   2.459   1.312   2.081  0.4638 -0.5835 -0.1653
 1149SOL    HW3 4595   2.498   1.379   1.951  2.4962 -1.4461 -0.0220
 1149SOL    MW4 4596   2.468   1.310   1.994  0.2699 -0.6274 -0.1846
 1150SOL     OW 4597   2.506   1.556   1.885  0.0937 -0.1330 -0.7924
 1150SOL    HW2 4598   2.418   1.584   1.911  0.0468 -1.1797  0.2393
 1150SOL    HW3 4599   2.497   1.534   1.792 -0.7642 -0.3515 -0.6646
 1150SOL    MW4 4600   2.493   1.557   1.876 -0.0257 -0.2999 -0.6394
 1151SOL     OW 4601   2.270   1.652   1.963  0.4815  0.1709  0.2361
 1151SOL    HW2 4602   2.271   1.657   2.059  0.8311  1.2202  0.1821
 1151SOL    HW3 4603   2.183   1.619   1.942  0.6607 -0.7697  0.9469
 1151SOL    MW4 4604   2.258   1.648   1.973  0.5512  0.1852  0.3228
 1152SOL     OW 4605   2.254   1.912   1.865  0.2827 -0.1982 -0.5917
 1152SOL    HW2 4606   2.331   1.935   1.917 -1.1366  0.3998  1.2986
 1152SOL    HW3 4607   2.238   1.820   1.884 -1.4561  0.5304  1.7353
 1152SOL    MW4 4608   2.262   1.903   1.874 -0.1340 -0.0231 -0.0353
 1153SOL     OW 4609   2.467   2.026   2.006  0.1385 -0.3784 -0.2634
 1153SOL    HW2 4610   2.543   1.972   1.986  0.0028 -0.3360 -0.9092
 1153SOL    HW3 4611   2.478   2.104   1.951 -0.2899 -0.3069 -0.2488
 1153SOL    MW4 4612   2.478   2.029   1.996  0.0640 -0.3634 -0.3467
 1154SOL     OW 4613   2.471   2.282   1.893  0.0393 -0.6137  0.6563
 1154SOL    HW2 4614   2.548   2.321   1.935  0.3487  1.8729 -2.0592
 1154SOL    HW3 4615   2.397   2.328   1.930  0.0694 -0.6992  0.8272
 1154SOL    MW4 4616   2.472   2.293   1.903  0.0841 -0.2969  0.3206
 1155SOL     OW 4617   2.243   2.406   1.978 -0.1881 -0.0044 -0.2690
 1155SOL    HW2 4618   2.247   2.415   2.073  0.9246 -0.0390 -0.3011
 1155SOL    HW3 4619   2.241   2.496   1.946  0.4510  0.0271 -0.2374
 1155SOL    MW4 4620   2.244   2.419   1.986  0.0430 -0.0048 -0.2690
 1156SOL     OW 4621   2.227   2.679   1.936  0.6518 -0.0784  0.2328
 1156SOL    HW2 4622   2.139   2.704   1.965 -0.3702 -2.6687 -0.4582
 1156SOL    HW3 4623   2.220   2.674   1.841  1.2064 -1.4054  0.2445
 1156SOL    MW4 4624   2.214   2.682   1.927  0.5902 -0.5952  0.1432
 1157SOL     OW 4625   2.472   2.790   1.991  0.5521 -0.6538  0.6474
 1157SOL    HW2 4626   2.462   2.880   1.960  1.4934 -0.3379  1.2488
 1157SOL    HW3 4627   2.389   2.747   1.967  0.0918  0.3729  0.3779
 1157SOL    MW4 4628   2.460   2.796   1.984  0.6155 -0.4766  0.6912
 1158SOL     OW 4629   2.481   3.055   1.894 -0.4401  0.2290  0.0863
 1158SOL    HW2 4630   2.417   3.113   1.935  1.4712  3.0879 -0.8434
 1158SOL    HW3 4631   2.468   3.067   1.800  0.4454 -0.3164 -0.1140
 1158SOL    MW4 4632   2.471   3.064   1.887 -0.0711  0.5343 -0.0628
 1159SOL     OW 4633   2.281   3.198   2.024 -0.4508 -0.6636 -0.1085
 1159SOL    HW2 4634   2.269   3.187   2.118  0.6110  0.6666  0.1878
 1159SOL    HW3 4635   2.196   3.177   1.986 -1.1115 -0.3827  1.2117
 1159SOL    MW4 4636   2.268   3.193   2.031 -0.3979 -0.4510  0.1048
 1160SOL     OW 4637   2.281   3.443   1.886  0.3637 -0.3079 -0.2592
 1160SOL    HW2 4638   2.290   3.366   1.942  0.7146  0.3329  0.5810
 1160SOL    HW3 4639   2.207   3.492   1.923  0.2104 -0.1847 -0.7207
 1160SOL    MW4 4640   2.273   3.440   1.898  0.3898 -0.2071 -0.2092
 1161SOL     OW 4641   2.501   3.598   1.975 -0.2075 -0.0630  0.4056
 1161SOL    HW2 4642   2.484   3.595   2.069 -0.5858  1.6380  0.4044
 1161SOL    HW3 4643   2.427   3.552   1.936  0.4749 -1.6881  0.9786
 1161SOL    MW4 4644   2.489   3.592   1.982 -0.1674 -0.0530  0.4810
 1162SOL     OW 4645   2.492   3.866   1.880  0.1359  0.1127  0.1982
 1162SOL    HW2 4646   2.405   3.893   1.911  0.7531  0.7654  1.3915
 1162SOL    HW3 4647   2.505   3.780   1.920  0.2369  0.2139  0.3789
 1162SOL    MW4 4648   2.482   3.858   1.889  0.2306  0.2122  0.3795
 1163SOL     OW 4649   2.250   3.987   1.996  0.0428 -0.7072 -0.2993
 1163SOL    HW2 4650   2.267   3.993   2.090 -1.5301 -0.1659 -0.0217
 1163SOL    HW3 4651   2.243   4.078   1.967 -1.1639 -0.8816 -0.5943
 1163SOL    MW4 4652   2.251   4.000   2.004 -0.3239 -0.6588 -0.3016
 1164SOL     OW 4653   2.228   4.252   1.904 -0.2206  0.3986  0.5457
 1164SOL    HW2 4654   2.309   4.301   1.917 -0.8552  1.6570 -0.0927
 1164SOL    HW3 4655   2.215   4.253   1.809 -0.4907 -0.6325  0.5612
 1164SOL    MW4 4656   2.237   4.258   1.893 -0.3400  0.4286  0.4635
 1165SOL     OW 4657   2.468   4.385   1.966 -0.1871  0.4363 -0.0917
 1165SOL    HW2 4658   2.480   4.385   2.061  0.9783  1.2192 -0.2311
 1165SOL    HW3 4659   2.551   4.353   1.931 -0.8778 -0.5732 -0.8261
 1165SOL    MW4 4660   2.480   4.381   1.974 -0.1245  0.4064 -0.2070
 1166SOL     OW 4661   2.902   4.658   1.915 -0.4966  0.4942  0.4370
 1166SOL    HW2 4662   2.978   4.701   1.954  0.3869  0.8486 -1.6390
 1166SOL    HW3 4663   2.908   4.567   1.945  1.4854  0.2073 -0.7319
 1166SOL    MW4 4664   2.912   4.652   1.924 -0.1185  0.5031  0.0089
 1167SOL     OW 4665   2.695   0.115   2.021 -0.2757  0.4048 -0.5900
 1167SOL    HW2 4666   2.706   0.110   2.116  0.5177  2.1617 -0.5609
 1167SOL    HW3 4667   2.773   0.073   1.985  0.1806  1.1018 -0.4385
 1167SOL    MW4 4668   2.707   0.109   2.029 -0.1108  0.7286 -0.5662
 1168SOL     OW 4669   2.734   0.354   1.890 -0.1609  0.1182  0.7035
 1168SOL    HW2 4670   2.799   0.409   1.933  0.5022 -0.4556  0.4505
 1168SOL    HW3 4671   2.726   0.278   1.947 -0.8251  0.3247  0.8810
 1168SOL    MW4 4672   2.742   0.351   1.903 -0.1610  0.0697  0.6935
 1169SOL     OW 4673   2.896   0.489   2.045  0.2391 -0.3629  0.0334
 1169SOL    HW2 4674   2.978   0.449   2.019  0.3638 -0.1785  0.1432
 1169SOL    HW3 4675   2.899   0.577   2.008  0.3571 -0.1453  0.5528
 1169SOL    MW4 4676   2.907   0.495   2.037  0.2711 -0.3098  0.1164
 1170SOL     OW 4677   2.932   0.730   1.934 -0.2345 -0.1123  0.0607
 1170SOL    HW2 4678   3.010   0.774   1.968 -0.9689  1.4508 -0.2054
 1170SOL    HW3 4679   2.859   0.775   1.977 -1.0153 -0.8659 -0.4718
 1170SOL    MW4 4680   2.932   0.742   1.944 -0.4344 -0.0055 -0.0447
 1171SOL     OW 4681   2.708   0.879   2.014 -0.0838  0.3238 -0.0309
 1171SOL    HW2 4682   2.705   0.952   1.952  0.9908 -1.7985 -2.6697
 1171SOL    HW3 4683   2.625   0.833   2.002 -0.2791  0.4280  0.8229
 1171SOL    MW4 4684   2.696   0.882   2.005  0.0322  0.0575 -0.2664
 1172SOL     OW 4685   2.671   1.127   1.918  0.4597 -0.1765 -0.1038
 1172SOL    HW2 4686   2.596   1.187   1.921  1.0788  0.6777 -1.0874
 1172SOL    HW3 4687   2.705   1.138   1.829  1.9681 -0.2821  0.4578
 1172SOL    MW4 4688   2.666   1.137   1.907  0.7404 -0.0777 -0.1595
 1173SOL     OW 4689   2.881   1.250   2.063  0.0548  0.1109  0.2490
 1173SOL    HW2 4690   2.888   1.337   2.024  0.7857  0.0232  0.1820
 1173SOL    HW3 4691   2.798   1.215   2.030 -0.5734  1.0400  0.8053
 1173SOL    MW4 4692   2.871   1.257   2.054  0.0683  0.2219  0.3136
 1174SOL     OW 4693   2.901   1.495   1.910 -0.0316 -0.1562 -0.3093
 1174SOL    HW2 4694   2.981   1.547   1.919  0.0392 -0.0847 -1.2608
 1174SOL    HW3 4695   2.896   1.476   1.816 -0.7633 -0.7460 -0.1524
 1174SOL    MW4 4696   2.911   1.500   1.898 -0.1188 -0.2246 -0.4141
 1175SOL     OW 4697   2.700   1.659   2.042 -0.2051 -0.2689 -0.3554
 1175SOL    HW2 4698   2.779   1.615   2.011 -0.0284 -0.0626 -0.1982
 1175SOL    HW3 4699   2.631   1.628   1.984  0.0889 -0.0327 -0.8335
 1175SOL    MW4 4700   2.702   1.649   2.030 -0.1430 -0.2105 -0.3978
 1176SOL     OW 4701   2.703   1.902   1.899  0.0975 -0.1520  0.2239
 1176SOL    HW2 4702   2.774   1.958   1.930 -0.2105 -0.6403  1.8653
 1176SOL    HW3 4703   2.715   1.820   1.946 -0.8882 -0.6241 -0.3358
 1176SOL    MW4 4704   2.714   1.899   1.909 -0.0732 -0.2787  0.3666
 1177SOL     OW 4705   2.912   2.034   2.004  0.0999  0.2426  0.1708
 1177SOL    HW2 4706   2.924   2.055   2.097  1.3115  1.0902 -0.1659
 1177SOL    HW3 4707   2.986   1.976   1.984  0.1277  0.4792 -0.3983
 1177SOL    MW4 4708   2.923   2.029   2.014  0.2635  0.3857  0.0513
 1178SOL     OW 4709   2.934   2.290   1.906 -0.1243  0.2222 -0.1105
 1178SOL    HW2 4710   3.016   2.331   1.932 -0.1580  0.3459 -0.1985
 1178SOL    HW3 4711   2.944   2.198   1.931 -0.3925  0.4534  0.8897
 1178SOL    MW4 4712   2.946   2.283   1.913 -0.1641  0.2691  0.0099
 1179SOL     OW 4713   2.696   2.399   2.014 -0.4087 -0.0420 -0.7505
 1179SOL    HW2 4714   2.702   2.493   1.997 -0.5627 -0.1993 -1.6877
 1179SOL    HW3 4715   2.779   2.363   1.984  0.5509  0.0713  1.6137
 1179SOL    MW4 4716   2.707   2.407   2.008 -0.3024 -0.0478 -0.5622
 1180SOL     OW 4717   2.704   2.653   1.924  0.1956 -0.0474 -0.3266
 1180SOL    HW2 4718   2.623   2.701   1.942  1.0549  1.4894 -0.4106
 1180SOL    HW3 4719   2.707   2.647   1.828 -0.1517 -0.7108 -0.2988
 1180SOL    MW4 4720   2.694   2.659   1.914  0.2632  0.0678 -0.3340
 1181SOL     OW 4721   2.935   2.825   2.036  0.6879  0.2188 -0.1769
 1181SOL    HW2 4722   2.937   2.908   1.989 -0.0620  0.7014  0.6230
 1181SOL    HW3 4723   2.853   2.784   2.010  0.5868  0.1853  0.1868
 1181SOL    MW4 4724   2.925   2.831   2.027  0.5756  0.2780 -0.0234
 1182SOL     OW 4725   2.937   3.051   1.881  0.1395 -0.1158 -0.0079
 1182SOL    HW2 4726   3.014   3.090   1.922 -0.3973  0.7282  0.2107
 1182SOL    HW3 4727   2.863   3.101   1.916 -0.4007 -0.0581 -1.1963
 1182SOL    MW4 4728   2.937   3.063   1.891 -0.0026  0.0032 -0.1359
 1183SOL     OW 4729   2.709   3.194   1.981  0.1447 -0.0274 -0.0172
 1183SOL    HW2 4730   2.709   3.281   1.940 -0.3027  0.6755  1.4198
 1183SOL    HW3 4731   2.633   3.150   1.945  0.0351  0.4078 -0.3236
 1183SOL    MW4 4732   2.699   3.200   1.971  0.0712  0.1227  0.1320
 1184SOL     OW 4733   2.733   3.465   1.905 -0.3165  0.1986 -0.1945
 1184SOL    HW2 4734   2.806   3.508   1.949 -0.4674  0.4967 -0.2315
 1184SOL    HW3 4735   2.655   3.511   1.939 -0.5034 -0.2972  0.0584
 1184SOL    MW4 4736   2.732   3.477   1.915 -0.3611  0.1725 -0.1661
 1185SOL     OW 4737   2.916   3.613   2.039  0.0650 -0.1539 -0.2746
 1185SOL    HW2 4738   2.913   3.592   2.133 -0.1963 -1.1333 -0.4973
 1185SOL    HW3 4739   2.999   3.575   2.009  0.4333  0.6770 -0.3236
 1185SOL    MW4 4740   2.927   3.606   2.048  0.0791 -0.1735 -0.3105
 1186SOL     OW 4741   2.915   3.851   1.912 -0.1141  0.7115  0.0882
 1186SOL    HW2 4742   2.917   3.765   1.953 -0.6251  1.0581  0.8485
 1186SOL    HW3 4743   2.958   3.838   1.827  0.4687 -0.1214  0.5046
 1186SOL    MW4 4744   2.921   3.838   1.906 -0.1046  0.6473  0.2435
 1187SOL     OW 4745   2.699   4.006   1.987  0.2639  0.0461  0.1876
 1187SOL    HW2 4746   2.773   3.952   1.959  0.2417  0.3828 -0.5502
 1187SOL    HW3 4747   2.622   3.959   1.957  0.2423  0.4613 -0.4176
 1187SOL    MW4 4748   2.698   3.993   1.979  0.2581  0.1453  0.0104
 1188SOL     OW 4749   2.709   4.268   1.892 -0.1044 -0.1069 -0.5571
 1188SOL    HW2 4750   2.716   4.186   1.941 -0.0957  0.1367 -0.1527
 1188SOL    HW3 4751   2.714   4.241   1.800 -0.1349 -0.5635 -0.4261
 1188SOL    MW4 4752   2.711   4.253   1.886 -0.1073 -0.1350 -0.4865
 1189SOL     OW 4753   2.915   4.408   2.004 -0.9060  0.1578 -0.1436
 1189SOL    HW2 4754   2.923   4.409   2.100 -1.2551  0.3522 -0.1165
 1189SOL    HW3 4755   2.835   4.358   1.987 -1.1551  0.6133 -0.3121
 1189SOL    MW4 4756   2.906   4.401   2.014 -0.9849  0.2435 -0.1623
 1190SOL     OW 4757   3.366   4.619   1.921 -0.3663 -0.4905 -0.0541
 1190SOL    HW2 4758   3.372   4.528   1.949 -0.2465 -0.1652  0.9897
 1190SOL    HW3 4759   3.356   4.614   1.826 -0.7320 -1.5998  0.0360
 1190SOL    MW4 4760   3.366   4.607   1.912 -0.3988 -0.5939  0.0955
 1191SOL     OW 4761   3.129   0.079   2.031  0.1230 -0.2862 -0.0654
 1191SOL    HW2 4762   3.136   0.087   2.126  0.5679  0.4935 -0.1696
 1191SOL    HW3 4763   3.206   0.029   2.005 -0.2764 -0.9771  0.0349
 1191SOL    MW4 4764   3.140   0.073   2.040  0.1290 -0.2745 -0.0659
 1192SOL     OW 4765   3.120   0.350   1.965 -0.0330 -0.2751 -0.3803
 1192SOL    HW2 4766   3.109   0.256   1.976 -0.4324 -0.3738 -1.5630
 1192SOL    HW3 4767   3.140   0.361   1.872 -2.2558  1.0019 -0.7425
 1192SOL    MW4 4768   3.121   0.339   1.954 -0.3789 -0.1196 -0.5841
 1193SOL     OW 4769   3.360   0.464   2.068  0.9393  0.0190  0.0382
 1193SOL    HW2 4770   3.418   0.442   1.995  0.5289 -0.5885 -0.1142
 1193SOL    HW3 4771   3.284   0.407   2.055  1.2163 -0.6851  1.4046
 1193SOL    MW4 4772   3.358   0.453   2.057  0.9217 -0.1541  0.1984
 1194SOL     OW 4773   3.379   0.718   1.927  0.0794  0.3390  0.4173
 1194SOL    HW2 4774   3.309   0.778   1.952 -0.2272  0.0355  0.2937
 1194SOL    HW3 4775   3.374   0.648   1.993 -0.8201 -0.5357 -0.5609
 1194SOL    MW4 4776   3.369   0.716   1.939 -0.0798  0.1835  0.2719
 1195SOL     OW 4777   3.164   0.865   2.033 -0.5118 -0.4216  0.1100
 1195SOL    HW2 4778   3.153   0.869   2.128 -1.3220  0.3455 -0.0103
 1195SOL    HW3 4779   3.148   0.955   2.003  3.2078  0.1495 -0.3994
 1195SOL    MW4 4780   3.161   0.878   2.041 -0.1279 -0.2451  0.0269
 1196SOL     OW 4781   3.091   1.109   1.944  0.0086 -0.3722  0.2143
 1196SOL    HW2 4782   3.169   1.157   1.972 -0.5323  1.0102 -0.5874
 1196SOL    HW3 4783   3.020   1.148   1.995 -0.3646 -0.6722 -0.0754
 1196SOL    MW4 4784   3.092   1.121   1.955 -0.1120 -0.2294  0.0703
 1197SOL     OW 4785   3.333   1.232   2.003  0.3825 -0.2656  0.3086
 1197SOL    HW2 4786   3.341   1.249   2.097 -1.4562 -0.0680  0.4536
 1197SOL    HW3 4787   3.350   1.317   1.962  0.5727 -0.2149  0.4889
 1197SOL    MW4 4788   3.336   1.245   2.010  0.1650 -0.2328  0.3515
 1198SOL     OW 4789   3.360   1.498   1.906  0.0779  0.1713  0.0360
 1198SOL    HW2 4790   3.437   1.543   1.939 -0.7692  0.6540  1.3712
 1198SOL    HW3 4791   3.287   1.537   1.953 -0.9771 -0.3776 -1.1163
 1198SOL    MW4 4792   3.361   1.509   1.916 -0.1731  0.1625  0.0602
 1199SOL     OW 4793   3.118   1.611   2.024  0.4449  0.2237  0.5125
 1199SOL    HW2 4794   3.107   1.610   2.119 -1.6075 -0.4707  0.2841
 1199SOL    HW3 4795   3.119   1.704   2.001 -0.1052  0.3820  1.1080
 1199SOL    MW4 4796   3.117   1.623   2.033  0.1015  0.1530  0.5609
 1200SOL     OW 4797   3.128   1.872   1.955  0.2515  0.0098 -0.1627
 1200SOL    HW2 4798   3.216   1.906   1.967  0.1530  0.2375 -0.0665
 1200SOL    HW3 4799   3.118   1.861   1.861 -0.3756  2.0610 -0.3776
 1200SOL    MW4 4800   3.138   1.875   1.944  0.1558  0.3105 -0.1784
 1201SOL     OW 4801   3.352   2.026   2.040  0.0127  0.2405  0.2321
 1201SOL    HW2 4802   3.422   1.972   2.004  0.1776 -0.7037  1.9313
 1201SOL    HW3 4803   3.363   2.111   1.997  0.7084 -0.6017 -1.3006
 1201SOL    MW4 4804   3.363   2.030   2.030  0.1262  0.0048  0.2541
 1202SOL     OW 4805   3.357   2.268   1.901  0.7974  0.6187  0.3402
 1202SOL    HW2 4806   3.285   2.317   1.939  0.8018  0.8817  0.0143
 1202SOL    HW3 4807   3.358   2.294   1.809  0.9813  0.2259  0.2294
 1202SOL    MW4 4808   3.348   2.278   1.894  0.8223  0.6016  0.2826
 1203SOL     OW 4809   3.153   2.424   2.035  0.0106  0.1402  0.0818
 1203SOL    HW2 4810   3.168   2.439   2.128 -0.3083 -1.7347  0.4570
 1203SOL    HW3 4811   3.147   2.512   1.997  1.2761  0.9245  1.6325
 1203SOL    MW4 4812   3.154   2.438   2.042  0.1355 -0.0037  0.3359
 1204SOL     OW 4813   3.135   2.668   1.933  0.5715 -0.3001  0.1975
 1204SOL    HW2 4814   3.057   2.711   1.968  0.1092 -0.6896 -0.3498
 1204SOL    HW3 4815   3.125   2.674   1.838  0.6443 -1.3546  0.1200
 1204SOL    MW4 4816   3.123   2.675   1.925  0.5201 -0.4906  0.1150
 1205SOL     OW 4817   3.364   2.807   1.997  0.2782  0.4724 -0.2331
 1205SOL    HW2 4818   3.390   2.797   2.088  0.8690  1.2241 -0.3117
 1205SOL    HW3 4819   3.285   2.754   1.988  0.3337  0.2360  0.6592
 1205SOL    MW4 4820   3.357   2.799   2.008  0.3634  0.5404 -0.1258
 1206SOL     OW 4821   3.366   3.077   1.907 -0.1147 -0.3991  0.1499
 1206SOL    HW2 4822   3.452   3.111   1.934  0.2150 -1.0888 -0.0332
 1206SOL    HW3 4823   3.371   2.983   1.922 -0.9619 -0.4017  0.4491
 1206SOL    MW4 4824   3.378   3.069   1.912 -0.1830 -0.4904  0.1652
 1207SOL     OW 4825   3.135   3.188   2.019 -0.2151  0.1355 -0.5687
 1207SOL    HW2 4826   3.129   3.277   1.985  0.4834  0.4216  0.0518
 1207SOL    HW3 4827   3.226   3.162   2.004 -0.5083 -0.6162 -1.0897
 1207SOL    MW4 4828   3.146   3.196   2.013 -0.1616  0.0741 -0.5556
 1208SOL     OW 4829   3.129   3.462   1.918 -0.8466  0.7146 -0.4902
 1208SOL    HW2 4830   3.206   3.507   1.955 -1.7260  1.2785  0.6881
 1208SOL    HW3 4831   3.136   3.477   1.824  1.5993 -0.9978 -0.6430
 1208SOL    MW4 4832   3.140   3.470   1.910 -0.6399  0.5630 -0.3549
 1209SOL     OW 4833   3.350   3.578   2.029 -0.9425  0.2376  0.2803
 1209SOL    HW2 4834   3.426   3.548   1.979 -2.0574 -0.4233 -1.0617
 1209SOL    HW3 4835   3.352   3.673   2.020 -0.3721  0.2098  0.0994
 1209SOL    MW4 4836   3.360   3.587   2.021 -1.0143  0.1467  0.0793
 1210SOL     OW 4837   3.362   3.838   1.957 -0.3109 -0.0020  0.0948
 1210SOL    HW2 4838   3.277   3.880   1.948  0.6351  1.8246 -0.4641
 1210SOL    HW3 4839   3.395   3.830   1.867 -1.0408 -3.1910  0.0401
 1210SOL    MW4 4840   3.355   3.842   1.944 -0.2824 -0.1818  0.0138
 1211SOL     OW 4841   3.126   4.014   1.997  0.0473  0.1121  0.0601
 1211SOL    HW2 4842   3.120   4.009   2.092 -1.1046  0.2011 -0.0013
 1211SOL    HW3 4843   3.047   3.970   1.965 -0.4654  1.6103 -0.8190
 1211SOL    MW4 4844   3.114   4.008   2.005 -0.1723  0.3215 -0.0640
 1212SOL     OW 4845   3.141   4.276   1.925  0.1769 -0.0849  0.2051
 1212SOL    HW2 4846   3.133   4.185   1.956  0.4629 -0.3532 -0.4886
 1212SOL    HW3 4847   3.064   4.320   1.961  0.4949 -0.3948  1.2627
 1212SOL    MW4 4848   3.130   4.270   1.934  0.2566 -0.1612  0.2531
 1213SOL     OW 4849   3.389   4.367   2.038  0.1073  0.0524  0.1382
 1213SOL    HW2 4850   3.465   4.328   1.995  0.5662  1.4499 -0.3312
 1213SOL    HW3 4851   3.314   4.332   1.989  0.4889 -0.5262 -0.0362
 1213SOL    MW4 4852   3.389   4.357   2.026  0.2182  0.1604  0.0532
 1214SOL     OW 4853   3.809   4.639   1.903  0.2360  0.1238  0.1866
 1214SOL    HW2 4854   3.798   4.553   1.943 -1.4416  1.4090  2.5739
 1214SOL    HW3 4855   3.728   4.686   1.923  1.2994  2.4063 -0.6958
 1214SOL    MW4 4856   3.797   4.634   1.911  0.1549  0.5945  0.3852
 1215SOL     OW 4857   3.572   0.112   1.999  0.1141 -0.0046 -0.4709
 1215SOL    HW2 4858   3.577   0.092   2.092 -1.0943  2.2135  0.0968
 1215SOL    HW3 4859   3.491   0.071   1.970 -0.1514  0.3670 -0.2600
 1215SOL    MW4 4860   3.562   0.104   2.007 -0.0804  0.3371 -0.3682
 1216SOL     OW 4861   3.568   0.380   1.917 -0.1674 -0.5006 -0.2565
 1216SOL    HW2 4862   3.574   0.292   1.953  3.4571 -0.5604 -0.8027
 1216SOL    HW3 4863   3.557   0.367   1.823  0.9643 -0.3815 -0.4082
 1216SOL    MW4 4864   3.567   0.367   1.910  0.4601 -0.4928 -0.3485
 1217SOL     OW 4865   3.799   0.460   2.074 -0.0775  0.0519 -0.1221
 1217SOL    HW2 4866   3.813   0.547   2.035  1.0879  0.6328  1.5319
 1217SOL    HW3 4867   3.718   0.429   2.035  0.5954  0.9832 -2.3305
 1217SOL    MW4 4868   3.790   0.468   2.064  0.1650  0.2514 -0.1953
 1218SOL     OW 4869   3.826   0.730   1.966 -0.1910 -0.0782 -0.0275
 1218SOL    HW2 4870   3.750   0.776   2.000 -0.8115 -0.5127 -0.7972
 1218SOL    HW3 4871   3.821   0.741   1.871  0.9297  0.2318 -0.0607
 1218SOL    MW4 4872   3.815   0.737   1.958 -0.1250 -0.0946 -0.1335
 1219SOL     OW 4873   3.586   0.855   2.045  0.0308  0.1562  0.0656
 1219SOL    HW2 4874   3.591   0.946   2.015 -0.2273 -0.1559 -0.9176
 1219SOL    HW3 4875   3.510   0.819   2.000  0.5414 -0.7543 -0.0759
 1219SOL    MW4 4876   3.577   0.862   2.035  0.0641 -0.0051 -0.0828
 1220SOL     OW 4877   3.573   1.111   1.936  0.3711  0.0050  0.0776
 1220SOL    HW2 4878   3.499   1.171   1.948 -1.2964 -2.0787  0.5702
 1220SOL    HW3 4879   3.590   1.111   1.842 -0.1945  0.5667 -0.0250
 1220SOL    MW4 4880   3.565   1.119   1.925  0.0764 -0.1958  0.1290
 1221SOL     OW 4881   3.806   1.252   2.025 -0.5718  0.1281 -0.1403
 1221SOL    HW2 4882   3.798   1.262   2.120  1.2088 -1.4088  0.1860
 1221SOL    HW3 4883   3.727   1.203   2.000 -0.7281 -0.0334  0.6411
 1221SOL    MW4 4884   3.794   1.247   2.035 -0.3575 -0.0960  0.0059
 1222SOL     OW 4885   3.797   1.504   1.899 -0.1884  0.0611  0.5419
 1222SOL    HW2 4886   3.865   1.552   1.947  1.1541 -0.6136 -0.6553
 1222SOL    HW3 4887   3.796   1.417   1.938 -0.9730  0.3133  1.1153
 1222SOL    MW4 4888   3.806   1.499   1.910 -0.1148  0.0054  0.4596
 1223SOL     OW 4889   3.576   1.625   2.013 -0.4047 -0.4395 -0.5947
 1223SOL    HW2 4890   3.570   1.709   1.967 -1.8853 -0.8536 -1.2052
 1223SOL    HW3 4891   3.656   1.585   1.980  0.5185  0.8764 -0.0247
 1223SOL    MW4 4892   3.586   1.631   2.003 -0.4782 -0.3205 -0.6000
 1224SOL     OW 4893   3.559   1.898   1.890 -0.2390  1.1257  0.0326
 1224SOL    HW2 4894   3.639   1.945   1.917  1.4396 -1.1936 -0.7644
 1224SOL    HW3 4895   3.563   1.898   1.795 -1.3502  1.2284 -0.0141
 1224SOL    MW4 4896   3.570   1.905   1.881 -0.1641  0.8333 -0.0787
 1225SOL     OW 4897   3.788   2.024   2.005 -0.1020 -0.2271 -0.1014
 1225SOL    HW2 4898   3.871   1.984   1.979  0.9834  1.4735  0.6951
 1225SOL    HW3 4899   3.797   2.117   1.982 -2.6145 -0.3845 -1.9938
 1225SOL    MW4 4900   3.800   2.031   1.999 -0.2903 -0.0235 -0.2460
 1226SOL     OW 4901   3.791   2.295   1.942  0.4086 -0.0759  0.0532
 1226SOL    HW2 4902   3.867   2.334   1.985 -0.1400 -0.6005  1.5224
 1226SOL    HW3 4903   3.715   2.338   1.982 -0.1108 -0.3025 -0.6567
 1226SOL    MW4 4904   3.791   2.306   1.953  0.2677 -0.1750  0.1534
 1227SOL     OW 4905   3.556   2.404   2.018 -0.2206 -0.0751 -0.2265
 1227SOL    HW2 4906   3.560   2.487   1.971  0.5441 -0.4927 -0.9237
 1227SOL    HW3 4907   3.485   2.356   1.976 -0.3325  0.0249 -0.1523
 1227SOL    MW4 4908   3.547   2.409   2.006 -0.1345 -0.1170 -0.3087
 1228SOL     OW 4909   3.572   2.648   1.906 -0.1374  0.7588  0.2593
 1228SOL    HW2 4910   3.651   2.685   1.946  1.4439 -0.6129 -1.4977
 1228SOL    HW3 4911   3.504   2.713   1.924  0.8726  1.0179  3.6123
 1228SOL    MW4 4912   3.574   2.661   1.914  0.2045  0.6120  0.4699
 1229SOL     OW 4913   3.779   2.779   2.022 -0.0840 -0.5684 -0.4663
 1229SOL    HW2 4914   3.800   2.779   2.115 -0.6363 -0.4175 -0.3364
 1229SOL    HW3 4915   3.771   2.872   1.999 -3.6530 -0.6123  0.2211
 1229SOL    MW4 4916   3.781   2.792   2.031 -0.6277 -0.5543 -0.3585
 1230SOL     OW 4917   3.796   3.059   1.917 -0.3326  0.2186  0.0843
 1230SOL    HW2 4918   3.727   3.115   1.954 -1.3661 -0.6242 -0.5284
 1230SOL    HW3 4919   3.788   3.070   1.822 -0.3980 -0.7920 -0.0326
 1230SOL    MW4 4920   3.786   3.068   1.910 -0.4776 -0.0259 -0.0120
 1231SOL     OW 4921   3.602   3.219   2.008  0.6101 -0.2017  0.6978
 1231SOL    HW2 4922   3.595   3.233   2.102 -0.5218 -0.8628  0.7264
 1231SOL    HW3 4923   3.590   3.306   1.969  0.4706 -0.0275  1.1324
 1231SOL    MW4 4924   3.600   3.232   2.015  0.4424 -0.2659  0.7589
 1232SOL     OW 4925   3.582   3.469   1.925 -0.2401  0.3755 -0.8777
 1232SOL    HW2 4926   3.664   3.504   1.959 -0.7395  1.3109 -0.6482
 1232SOL    HW3 4927   3.590   3.478   1.830  0.5967 -1.0280 -0.9586
 1232SOL    MW4 4928   3.594   3.474   1.917 -0.1956  0.3138 -0.8581
 1233SOL     OW 4929   3.820   3.604   2.030  0.3184  0.2022  0.4574
 1233SOL    HW2 4930   3.894   3.556   1.993  0.7085  0.4484  0.9088
 1233SOL    HW3 4931   3.820   3.687   1.984 -0.3161 -0.1980 -0.2767
 1233SOL    MW4 4932   3.830   3.608   2.019  0.2862  0.1819  0.4201
 1234SOL     OW 4933   3.830   3.841   1.909 -0.2483 -0.4443  0.0289
 1234SOL    HW2 4934   3.761   3.897   1.943 -0.0065 -0.2289  0.1712
 1234SOL    HW3 4935   3.824   3.849   1.814 -0.1271 -0.0679  0.0526
 1234SOL    MW4 4936   3.820   3.850   1.901 -0.2004 -0.3662  0.0508
 1235SOL     OW 4937   3.591   3.983   2.008  0.1191 -0.5436  0.3786
 1235SOL    HW2 4938   3.595   3.989   2.103  1.9056 -5.3626  0.7593
 1235SOL    HW3 4939   3.513   3.932   1.990  0.1980 -0.2960 -0.7010
 1235SOL    MW4 4940   3.581   3.977   2.018  0.3652 -1.1467  0.2864
 1236SOL     OW 4941   3.599   4.253   1.913  0.1401 -0.4460  0.2581
 1236SOL    HW2 4942   3.683   4.285   1.946  0.1890 -0.9889  0.6631
 1236SOL    HW3 4943   3.596   4.162   1.941 -0.8536 -0.2563  0.7699
 1236SOL    MW4 4944   3.610   4.245   1.921  0.0155 -0.4926  0.3790
 1237SOL     OW 4945   3.837   4.371   2.000  0.1482  0.1789  0.2367
 1237SOL    HW2 4946   3.848   4.351   2.093 -0.5221  0.7486  0.4425
 1237SOL    HW3 4947   3.903   4.318   1.956 -0.7426 -1.5079  0.8791
 1237SOL    MW4 4948   3.847   4.362   2.007 -0.0578  0.0315  0.3486
 1238SOL     OW 4949   4.268   4.653   1.904 -0.1092  0.0084 -0.3118
 1238SOL    HW2 4950   4.183   4.689   1.928  0.0502  0.7633 -0.8664
 1238SOL    HW3 4951   4.331   4.706   1.953  0.0493 -0.5244  0.0711
 1238SOL    MW4 4952   4.265   4.664   1.914 -0.0673  0.0377 -0.3345
 1239SOL     OW 4953   4.051   0.068   2.031  0.2379 -0.0318  0.0389
 1239SOL    HW2 4954   4.065   0.036   2.120 -0.5839  1.7739  0.8288
 1239SOL    HW3 4955   3.977   0.016   1.999  0.7245 -0.8954  0.2788
 1239SOL    MW4 4956   4.043   0.057   2.038  0.1937  0.0925  0.1748
 1240SOL     OW 4957   4.021   0.333   1.951 -0.4337  0.0103 -0.4313
 1240SOL    HW2 4958   4.019   0.242   1.981 -0.2617 -0.1949 -1.0435
 1240SOL    HW3 4959   3.942   0.372   1.988 -1.3994 -0.8311 -1.5542
 1240SOL    MW4 4960   4.011   0.326   1.960 -0.5384 -0.1278 -0.6602
 1241SOL     OW 4961   4.259   0.484   2.022  0.3663  0.1927  0.5202
 1241SOL    HW2 4962   4.291   0.458   2.109 -0.9634  0.5271  1.1248
 1241SOL    HW3 4963   4.181   0.431   2.009  2.0077 -1.7787 -1.6285
 1241SOL    MW4 4964   4.253   0.474   2.032  0.4074 -0.0232  0.3165
 1242SOL     OW 4965   4.273   0.754   1.924  0.0269  0.3658 -0.3305
 1242SOL    HW2 4966   4.284   0.665   1.958 -1.9212  0.5075  0.7146
 1242SOL    HW3 4967   4.262   0.742   1.830  0.3666 -0.4603 -0.2696
 1242SOL    MW4 4968   4.273   0.741   1.916 -0.1853  0.2755 -0.1846
 1243SOL     OW 4969   4.052   0.884   2.045  0.2904  0.0725  0.1385
 1243SOL    HW2 4970   4.125   0.847   1.994  1.8211  1.0554  1.5709
 1243SOL    HW3 4971   3.978   0.826   2.026  1.5902 -1.2913 -0.9002
 1243SOL    MW4 4972   4.052   0.871   2.036  0.6638  0.0222  0.1905
 1244SOL     OW 4973   4.022   1.138   1.923  0.3659  0.2154 -0.9346
 1244SOL    HW2 4974   4.042   1.055   1.966  2.5646  1.1032 -0.2244
 1244SOL    HW3 4975   3.944   1.171   1.969  0.2316 -0.8389 -0.4018
 1244SOL    MW4 4976   4.014   1.131   1.935  0.6383  0.1934 -0.7706
 1245SOL     OW 4977   4.248   1.286   2.012  0.5034 -0.3615 -0.3785
 1245SOL    HW2 4978   4.238   1.298   2.106 -2.7070  1.6996 -0.9067
 1245SOL    HW3 4979   4.181   1.222   1.988  0.8608 -0.3844 -1.3720
 1245SOL    MW4 4980   4.238   1.279   2.021  0.1270 -0.0926 -0.5793
 1246SOL     OW 4981   4.228   1.545   1.924 -0.2666 -0.1779  0.7182
 1246SOL    HW2 4982   4.234   1.459   1.966 -0.0422 -0.1469  0.7530
 1246SOL    HW3 4983   4.239   1.527   1.831  1.1890 -0.0404  0.8492
 1246SOL    MW4 4984   4.230   1.531   1.917 -0.0449 -0.1557  0.7401
 1247SOL     OW 4985   3.998   1.658   2.018 -0.3327 -0.3427 -0.1681
 1247SOL    HW2 4986   4.000   1.648   2.113 -0.9611  0.0286 -0.1107
 1247SOL    HW3 4987   4.084   1.626   1.988  0.3326  0.6681  0.6289
 1247SOL    MW4 4988   4.010   1.653   2.026 -0.3278 -0.1604 -0.0553
 1248SOL     OW 4989   4.035   1.926   1.963 -0.1242 -0.2958  0.1683
 1248SOL    HW2 4990   4.025   1.837   1.997 -1.0593 -0.4251 -0.4265
 1248SOL    HW3 4991   4.032   1.915   1.868  0.1674  0.3264  0.0910
 1248SOL    MW4 4992   4.033   1.913   1.955 -0.2091 -0.2307  0.0796
 1249SOL     OW 4993   4.272   2.020   2.046 -0.0034 -0.0402  0.1705
 1249SOL    HW2 4994   4.275   2.012   2.142  0.1228 -1.7956  0.0405
 1249SOL    HW3 4995   4.186   1.984   2.022  0.3812 -0.5540 -0.4440
 1249SOL    MW4 4996   4.261   2.014   2.056  0.0640 -0.3396  0.0723
 1250SOL     OW 4997   4.257   2.286   1.936  0.0356  0.2661 -0.0227
 1250SOL    HW2 4998   4.268   2.196   1.967 -0.0350  0.5042  0.6920
 1250SOL    HW3 4999   4.333   2.333   1.970 -0.3038  0.6456  0.2067
 1250SOL    MW4 5000   4.268   2.280   1.944 -0.0185  0.3476  0.1019
 1251SOL     OW 5001   4.041   2.412   2.048  0.4494  0.0594  0.3123
 1251SOL    HW2 5002   4.048   2.399   2.142  0.4333 -0.7550  0.2053
 1251SOL    HW3 5003   4.117   2.367   2.012 -0.4720 -1.1279 -0.1862
 1251SOL    MW4 5004   4.052   2.404   2.056  0.3257 -0.2047  0.2324
 1252SOL     OW 5005   4.030   2.659   1.932 -0.2660 -0.1921  0.1272
 1252SOL    HW2 5006   4.038   2.572   1.970 -0.8536  1.0817  3.3455
 1252SOL    HW3 5007   3.944   2.690   1.961 -0.5438  1.0159 -1.9294
 1252SOL    MW4 5008   4.020   2.652   1.941 -0.3801  0.1353  0.2805
 1253SOL     OW 5009   4.232   2.823   2.015 -0.4265  0.1569  0.5871
 1253SOL    HW2 5010   4.243   2.810   2.109 -0.1912 -1.2062  0.3864
 1253SOL    HW3 5011   4.153   2.773   1.994 -1.3036  1.6387  0.3017
 1253SOL    MW4 5012   4.223   2.815   2.025 -0.5112  0.1726  0.5230
 1254SOL     OW 5013   4.264   3.082   1.920  0.0176  0.2212  0.1056
 1254SOL    HW2 5014   4.187   3.135   1.941  1.6708  2.2275  1.3241
 1254SOL    HW3 5015   4.241   2.994   1.952 -2.2248  0.4698 -0.6847
 1254SOL    MW4 5016   4.250   3.077   1.927 -0.0601  0.5187  0.1621
 1255SOL     OW 5017   4.030   3.195   1.994  0.6079  0.1074  0.3524
 1255SOL    HW2 5018   4.039   3.193   2.090  0.4636 -0.5682  0.3563
 1255SOL    HW3 5019   3.958   3.134   1.976 -0.3332  1.3157 -0.0756
 1255SOL    MW4 5020   4.022   3.186   2.004  0.4647  0.1777  0.2964
 1256SOL     OW 5021   4.043   3.465   1.919  0.5987  0.2042  0.5577
 1256SOL    HW2 5022   4.122   3.507   1.954  0.9570 -0.5428  0.6524
 1256SOL    HW3 5023   4.053   3.372   1.941 -0.6167  0.2067  1.1445
 1256SOL    MW4 5024   4.055   3.458   1.927  0.4856  0.1060  0.6476
 1257SOL     OW 5025   4.268   3.582   2.016 -0.4350 -0.1224  0.3048
 1257SOL    HW2 5026   4.272   3.677   2.004  0.3251  0.2270  2.9828
 1257SOL    HW3 5027   4.348   3.549   1.975  0.9032  0.7477  2.1505
 1257SOL    MW4 5028   4.279   3.590   2.009 -0.1582  0.0385  0.9016
 1258SOL     OW 5029   4.281   3.836   1.943 -0.3994  0.1957 -0.1606
 1258SOL    HW2 5030   4.340   3.909   1.961  0.5042 -0.5148 -0.2167
 1258SOL    HW3 5031   4.266   3.839   1.849  1.3713 -0.9737 -0.5131
 1258SOL    MW4 5032   4.287   3.846   1.933 -0.0465 -0.0523 -0.2145
 1259SOL     OW 5033   4.067   3.984   2.019 -0.4202 -0.3387 -0.3132
 1259SOL    HW2 5034   4.145   3.930   2.005 -0.9113 -0.9846 -0.6139
 1259SOL    HW3 5035   3.999   3.942   1.966 -1.0471  0.0576  0.1644
 1259SOL    MW4 5036   4.068   3.972   2.010 -0.5677 -0.3716 -0.2899
 1260SOL     OW 5037   4.045   4.239   1.893  0.4784 -0.2218 -0.1783
 1260SOL    HW2 5038   4.118   4.298   1.913  0.6721 -0.1541 -1.0718
 1260SOL    HW3 5039   4.067   4.157   1.937  0.9211 -0.0908 -0.1536
 1260SOL    MW4 5040   4.058   4.236   1.901  0.5623 -0.1956 -0.2929
 1261SOL     OW 5041   4.250   4.387   1.958 -0.0038 -0.5008 -0.3617
 1261SOL    HW2 5042   4.251   4.376   2.053 -0.4875 -1.0394 -0.4182
 1261SOL    HW3 5043   4.269   4.480   1.944 -1.0605 -0.1795  0.2933
 1261SOL    MW4 5044   4.253   4.398   1.969 -0.2070 -0.5295 -0.2827
 1262SOL     OW 5045   0.203   4.577   2.389 -0.0487  0.2229 -0.1667
 1262SOL    HW2 5046   0.234   4.583   2.479  0.6539  0.1604 -0.3982
 1262SOL    HW3 5047   0.271   4.621   2.338 -1.8704  2.9340 -0.3672
 1262SOL    MW4 5048   0.216   4.583   2.394 -0.1964  0.5724 -0.2237
 1263SOL     OW 5049   0.019   0.103   2.339  0.1350 -0.2408  0.0865
 1263SOL    HW2 5050   0.083   0.033   2.354 -1.5208 -1.5788  1.0126
 1263SOL    HW3 5051   0.011   0.108   2.243  0.7948 -0.8297 -0.0043
 1263SOL    MW4 5052   0.027   0.094   2.328  0.0036 -0.4950  0.1967
 1264SOL     OW 5053   0.032   0.368   2.431 -0.5589 -0.1136  0.4106
 1264SOL    HW2 5054   0.113   0.418   2.420 -1.0438  0.7138  0.5823
 1264SOL    HW3 5055   0.052   0.282   2.394  0.7784 -0.2927  1.5364
 1264SOL    MW4 5056   0.045   0.363   2.424 -0.4464 -0.0281  0.5818
 1265SOL     OW 5057   0.247   0.509   2.314 -0.1415 -0.6513 -0.0481
 1265SOL    HW2 5058   0.334   0.470   2.322  0.0565 -0.2466 -0.2267
 1265SOL    HW3 5059   0.224   0.498   2.221 -1.6578 -3.6758  0.5892
 1265SOL    MW4 5060   0.255   0.502   2.303 -0.3155 -0.9970  0.0124
 1266SOL     OW 5061   0.204   0.781   2.378  0.0322 -0.4214  0.0771
 1266SOL    HW2 5062   0.218   0.771   2.472  0.4265 -0.1109  0.0547
 1266SOL    HW3 5063   0.201   0.692   2.345  0.3531 -0.5264  0.3219
 1266SOL    MW4 5064   0.206   0.768   2.386  0.1266 -0.3943  0.1064
 1267SOL     OW 5065   4.460   0.916   2.312  0.2985  0.5524  0.0721
 1267SOL    HW2 5066   4.540   0.864   2.328 -1.6916 -1.8292  2.7806
 1267SOL    HW3 5067   4.456   0.923   2.217  3.0938 -0.3463 -0.1727
 1267SOL    MW4 5068   4.470   0.910   2.302  0.4047  0.1196  0.3972
 1268SOL     OW 5069   4.466   1.171   2.407  0.4258  0.0963 -0.1651
 1268SOL    HW2 5070   4.436   1.170   2.499 -0.9413 -0.2819 -0.5952
 1268SOL    HW3 5071   4.456   1.080   2.379  0.8846  0.2087 -0.6724
 1268SOL    MW4 5072   4.460   1.158   2.416  0.3060  0.0613 -0.2888
 1269SOL     OW 5073   0.225   1.312   2.313  0.3078  0.3355 -0.0136
 1269SOL    HW2 5074   0.159   1.257   2.356  0.1975  0.6652  0.2419
 1269SOL    HW3 5075   0.208   1.302   2.220  1.1946 -1.2023 -0.0291
 1269SOL    MW4 5076   0.214   1.303   2.307  0.4102  0.1761  0.0181
 1270SOL     OW 5077   0.208   1.555   2.432 -0.1818 -0.3459  0.2198
 1270SOL    HW2 5078   0.216   1.554   2.528  0.9066  1.4321  0.1766
 1270SOL    HW3 5079   0.232   1.466   2.405  1.9490 -0.1658  1.4346
 1270SOL    MW4 5080   0.212   1.543   2.441  0.2429 -0.0875  0.3744
 1271SOL     OW 5081   4.470   1.645   2.331  0.2291 -0.1642  0.1655
 1271SOL    HW2 5082   4.477   1.735   2.362  1.5286 -0.2676  0.2148
 1271SOL    HW3 5083   4.548   1.602   2.366  1.8810 -0.2310 -3.3864
 1271SOL    MW4 5084   4.481   1.651   2.340  0.6185 -0.1866 -0.2966
 1272SOL     OW 5085   4.484   1.904   2.439  0.3596 -0.4871 -0.6732
 1272SOL    HW2 5086   4.405   1.936   2.396 -0.1712 -2.3650 -1.1392
 1272SOL    HW3 5087   4.555   1.952   2.397 -0.5787  2.1349  0.6101
 1272SOL    MW4 5088   4.483   1.914   2.428  0.1658 -0.3890 -0.5654
 1273SOL     OW 5089   0.204   2.044   2.311  0.1609 -0.0304  0.1899
 1273SOL    HW2 5090   0.290   2.007   2.327 -0.4932 -1.3457  0.7440
 1273SOL    HW3 5091   0.192   2.037   2.216  0.4139 -0.4107  0.1865
 1273SOL    MW4 5092   0.214   2.038   2.300  0.1080 -0.2541  0.2626
 1274SOL     OW 5093   0.204   2.307   2.385 -0.4401  0.2344 -0.3204
 1274SOL    HW2 5094   0.222   2.326   2.477 -1.2676 -2.6381  0.4806
 1274SOL    HW3 5095   0.199   2.211   2.380 -1.4718  0.3729 -3.1460
 1274SOL    MW4 5096   0.206   2.297   2.396 -0.6854 -0.1263 -0.5875
 1275SOL     OW 5097   4.475   2.428   2.295 -0.4256  0.1913  0.2381
 1275SOL    HW2 5098   4.484   2.519   2.324  0.8983  0.5011 -1.0887
 1275SOL    HW3 5099   4.557   2.386   2.322  0.4879  0.2805 -2.2637
 1275SOL    MW4 5100   4.487   2.434   2.302 -0.1304  0.2440 -0.2671
 1276SOL     OW 5101   0.018   2.697   2.359  0.4350  0.2540 -0.0050
 1276SOL    HW2 5102   0.002   2.695   2.454  0.4255  0.2356 -0.0070
 1276SOL    HW3 5103   0.110   2.724   2.352  0.7532 -0.7987  0.0470
 1276SOL    MW4 5104   0.028   2.700   2.371  0.4758  0.1127  0.0016
 1277SOL     OW 5105   0.261   2.796   2.300  0.0190  0.3178  0.0849
 1277SOL    HW2 5106   0.338   2.745   2.327 -1.4113 -2.5372 -0.9383
 1277SOL    HW3 5107   0.281   2.824   2.211  0.2309  0.2832  0.1210
 1277SOL    MW4 5108   0.273   2.793   2.291 -0.1417 -0.0635 -0.0454
 1278SOL     OW 5109   0.270   3.047   2.392  0.1257 -0.0704 -0.9665
 1278SOL    HW2 5110   0.202   3.090   2.340  0.1841  1.2833  0.0396
 1278SOL    HW3 5111   0.272   2.957   2.359 -1.6232  0.0709 -1.5190
 1278SOL    MW4 5112   0.261   3.041   2.381 -0.0974  0.1269 -0.9066
 1279SOL     OW 5113   0.044   3.175   2.275 -0.0886 -0.0833 -0.1346
 1279SOL    HW2 5114   0.039   3.263   2.312  1.5912 -0.0506  0.0918
 1279SOL    HW3 5115   0.032   3.188   2.181 -1.2314  0.2224  0.0561
 1279SOL    MW4 5116   0.042   3.188   2.267 -0.0177 -0.0386 -0.0795
 1280SOL     OW 5117   0.033   3.414   2.398  0.7468  0.1489  0.3680
 1280SOL    HW2 5118   0.031   3.415   2.494  2.1242 -0.3785  0.4064
 1280SOL    HW3 5119  -0.049   3.457   2.373  0.0182 -0.3521  1.7733
 1280SOL    MW4 5120   0.022   3.420   2.407  0.8324  0.0132  0.5585
 1281SOL     OW 5121   0.229   3.571   2.281 -0.1944 -0.3293  0.2266
 1281SOL    HW2 5122   0.316   3.547   2.311 -0.2325  0.6093  1.0851
 1281SOL    HW3 5123   0.171   3.507   2.324 -0.1499  0.3974  1.3754
 1281SOL    MW4 5124   0.233   3.559   2.291 -0.1935 -0.1096  0.4914
 1282SOL     OW 5125   0.216   3.833   2.366 -0.0074 -0.4980  0.4759
 1282SOL    HW2 5126   0.131   3.871   2.343  0.0663  0.3832  1.6393
 1282SOL    HW3 5127   0.210   3.742   2.337 -0.4755  0.1758 -1.6053
 1282SOL    MW4 5128   0.204   3.826   2.359 -0.0595 -0.2929  0.3548
 1283SOL     OW 5129   4.484   3.968   2.281  0.1785  0.0073 -0.1461
 1283SOL    HW2 5130   4.498   4.056   2.314 -2.4425 -0.0597  1.2554
 1283SOL    HW3 5131   4.467   3.980   2.187 -2.0516  1.2097  0.3867
 1283SOL    MW4 5132   4.484   3.981   2.273 -0.4615  0.1571  0.1091
 1284SOL     OW 5133   4.485   4.215   2.388 -0.0600 -0.3618  0.0266
 1284SOL    HW2 5134   4.482   4.240   2.480  1.2422 -2.6409  0.6991
 1284SOL    HW3 5135   4.560   4.264   2.352 -0.5703  0.5267  0.1571
 1284SOL    MW4 5136   4.494   4.225   2.395  0.0445 -0.5453  0.1325
 1285SOL     OW 5137   0.213   4.334   2.281  0.4370 -0.0523  0.1302
 1285SOL    HW2 5138   0.292   4.292   2.315 -1.0715 -0.6693  3.0647
 1285SOL    HW3 5139   0.203   4.413   2.334 -1.8759 -0.9478  1.1533
 1285SOL    MW4 5140   0.222   4.339   2.293 -0.0672 -0.2518  0.6523
 1286SOL     OW 5141   0.650   0.014   2.388 -0.0844 -0.2645  0.5631
 1286SOL    HW2 5142   0.659   0.017   2.483 -1.5015  0.7810  0.6846
 1286SOL    HW3 5143   0.727   0.061   2.356 -0.5635  1.0618  1.2783
 1286SOL    MW4 5144   0.662   0.021   2.396 -0.3346  0.0484  0.6735
 1287SOL     OW 5145   0.405   0.085   2.293 -0.0419  0.5123 -0.2752
 1287SOL    HW2 5146   0.485   0.045   2.326 -1.3540 -2.1088 -0.1834
 1287SOL    HW3 5147   0.413   0.079   2.198 -0.3510 -0.2457 -0.2588
 1287SOL    MW4 5148   0.417   0.079   2.285 -0.2558  0.0665 -0.2609
 1288SOL     OW 5149   0.483   0.370   2.383  0.2618 -0.4504  0.4049
 1288SOL    HW2 5150   0.455   0.386   2.474  0.5783 -1.2099  0.6365
 1288SOL    HW3 5151   0.472   0.276   2.370  0.8830 -0.4560 -0.1162
 1288SOL    MW4 5152   0.478   0.360   2.394  0.3855 -0.5513  0.3667
 1289SOL     OW 5153   0.689   0.525   2.265 -0.1437 -0.2215  0.1892
 1289SOL    HW2 5154   0.693   0.610   2.309  0.6876 -0.1027 -0.1039
 1289SOL    HW3 5155   0.626   0.475   2.316  2.0843 -0.6911  2.6105
 1289SOL    MW4 5156   0.681   0.530   2.277  0.2600 -0.2678  0.4700
 1290SOL     OW 5157   0.692   0.783   2.390  0.4088 -0.2830 -0.1402
 1290SOL    HW2 5158   0.685   0.787   2.486  0.2396 -1.4962 -0.1005
 1290SOL    HW3 5159   0.621   0.840   2.360  1.0038  0.7937  0.4581
 1290SOL    MW4 5160   0.682   0.791   2.399  0.4650 -0.3010 -0.0560
 1291SOL     OW 5161   0.442   0.899   2.315  0.0616  0.1713  0.2752
 1291SOL    HW2 5162   0.354   0.863   2.324  0.1084  0.1141  0.5108
 1291SOL    HW3 5163   0.457   0.901   2.220  0.7070 -2.0068  0.2933
 1291SOL    MW4 5164   0.432   0.894   2.303  0.1530 -0.1236  0.3086
 1292SOL     OW 5165   0.439   1.162   2.435 -0.3717 -0.5532  0.3144
 1292SOL    HW2 5166   0.428   1.075   2.398  0.4755 -1.1556  1.4483
 1292SOL    HW3 5167   0.365   1.213   2.400 -1.8388 -2.1818  0.9576
 1292SOL    MW4 5168   0.428   1.158   2.426 -0.4535 -0.8476  0.5488
 1293SOL     OW 5169   0.644   1.279   2.277  0.2207  0.4356 -0.0987
 1293SOL    HW2 5170   0.665   1.358   2.328 -1.1923  0.6995  0.1148
 1293SOL    HW3 5171   0.560   1.250   2.313  1.0514 -1.5503  0.2579
 1293SOL    MW4 5172   0.636   1.286   2.288  0.1439  0.2084 -0.0235
 1294SOL     OW 5173   0.665   1.526   2.407 -0.2163  0.6266 -0.1117
 1294SOL    HW2 5174   0.692   1.543   2.497  2.5812 -2.3848 -0.2676
 1294SOL    HW3 5175   0.739   1.555   2.353 -0.9027  0.3111 -1.2523
 1294SOL    MW4 5176   0.678   1.532   2.411  0.0623  0.1876 -0.2828
 1295SOL     OW 5177   0.440   1.658   2.301  0.5323  0.2623  0.0387
 1295SOL    HW2 5178   0.509   1.612   2.347  1.6351  0.8532 -1.0018
 1295SOL    HW3 5179   0.359   1.624   2.339  1.3478 -1.5468  0.1860
 1295SOL    MW4 5180   0.438   1.648   2.312  0.7854  0.1016 -0.0792
 1296SOL     OW 5181   0.445   1.929   2.395  0.2343 -0.1953 -0.1696
 1296SOL    HW2 5182   0.530   1.959   2.364  0.4984 -0.9642 -0.1997
 1296SOL    HW3 5183   0.445   1.835   2.377  1.0905 -1.0113  3.6720
 1296SOL    MW4 5184   0.456   1.921   2.389  0.3821 -0.4044  0.3333
 1297SOL     OW 5185   0.686   2.007   2.282 -0.0938  0.0158  0.4822
 1297SOL    HW2 5186   0.743   1.954   2.338  0.4653 -0.1956 -0.2836
 1297SOL    HW3 5187   0.699   2.097   2.313  1.8986  0.1745 -0.7375
 1297SOL    MW4 5188   0.695   2.012   2.293  0.2428  0.0088  0.2203
 1298SOL     OW 5189   0.667   2.265   2.388 -0.2300  0.1600 -0.1262
 1298SOL    HW2 5190   0.658   2.291   2.480 -1.1846  2.5056 -0.8498
 1298SOL    HW3 5191   0.733   2.325   2.352 -0.6813  0.0031 -1.2377
 1298SOL    MW4 5192   0.675   2.276   2.395 -0.4155  0.4488 -0.3683
 1299SOL     OW 5193   0.451   2.419   2.285 -0.3137  0.1046  0.1715
 1299SOL    HW2 5194   0.529   2.373   2.319  0.7207  1.0720 -0.8364
 1299SOL    HW3 5195   0.379   2.360   2.303  0.5852 -0.5980  1.6037
 1299SOL    MW4 5196   0.452   2.405   2.292 -0.0586  0.1395  0.2275
 1300SOL     OW 5197   0.498   2.692   2.366 -0.2726 -0.0738 -0.1615
 1300SOL    HW2 5198   0.476   2.698   2.459  0.3177 -1.6086  0.0943
 1300SOL    HW3 5199   0.481   2.600   2.343  0.1324  0.1529 -1.4265
 1300SOL    MW4 5200   0.493   2.681   2.375 -0.1413 -0.2464 -0.2947
 1301SOL     OW 5201   0.666   2.858   2.239  0.0255  0.0899 -0.3578
 1301SOL    HW2 5202   0.748   2.812   2.255 -0.1323 -0.7114 -1.8000
 1301SOL    HW3 5203   0.599   2.804   2.281  0.3479  1.4582  2.0470
 1301SOL    MW4 5204   0.668   2.845   2.247  0.0472  0.1647 -0.2308
 1302SOL     OW 5205   0.689   3.112   2.366  0.0864  0.0540 -0.4374
 1302SOL    HW2 5206   0.624   3.163   2.318 -0.8056  1.2984  2.0189
 1302SOL    HW3 5207   0.684   3.025   2.327 -1.9645  0.5462 -1.3329
 1302SOL    MW4 5208   0.680   3.107   2.355 -0.3019  0.2831 -0.2315
 1303SOL     OW 5209   0.462   3.223   2.260 -0.8233  0.5416  0.4564
 1303SOL    HW2 5210   0.391   3.177   2.305 -0.0215 -0.4413  0.7610
 1303SOL    HW3 5211   0.439   3.218   2.167 -1.6911  1.1909  0.6253
 1303SOL    MW4 5212   0.450   3.216   2.254 -0.8320  0.4976  0.5189
 1304SOL     OW 5213   0.472   3.479   2.389 -0.2725  0.2377 -0.1667
 1304SOL    HW2 5214   0.562   3.497   2.362 -0.3365  0.0236 -0.5381
 1304SOL    HW3 5215   0.454   3.392   2.354 -0.1107 -0.3563  1.2411
 1304SOL    MW4 5216   0.481   3.470   2.381 -0.2596  0.1311 -0.0300
 1305SOL     OW 5217   0.730   3.563   2.254  0.4245 -0.3331  0.1365
 1305SOL    HW2 5218   0.716   3.650   2.294 -0.1000 -0.2918 -0.1318
 1305SOL    HW3 5219   0.721   3.579   2.160  2.2319 -0.3246 -0.0377
 1305SOL    MW4 5220   0.727   3.577   2.247  0.5937 -0.3265  0.0781
 1306SOL     OW 5221   0.673   3.828   2.362  0.1210 -0.0182  0.0817
 1306SOL    HW2 5222   0.672   3.837   2.457  0.0156  0.2871  0.0521
 1306SOL    HW3 5223   0.597   3.876   2.332  0.0555 -0.2625 -0.1468
 1306SOL    MW4 5224   0.663   3.836   2.371  0.0985 -0.0102  0.0476
 1307SOL     OW 5225   0.453   3.969   2.261 -0.0896 -0.2505  0.0782
 1307SOL    HW2 5226   0.374   3.926   2.295  0.0059 -0.7592 -0.3393
 1307SOL    HW3 5227   0.425   4.008   2.178  0.2135 -0.8285 -0.2985
 1307SOL    MW4 5228   0.439   3.968   2.254 -0.0370 -0.3939 -0.0266
 1308SOL     OW 5229   0.460   4.221   2.368  0.0462  0.3625  0.1181
 1308SOL    HW2 5230   0.533   4.267   2.327  0.8934 -1.1525 -0.1278
 1308SOL    HW3 5231   0.463   4.133   2.329 -0.4025 -0.4544  1.8984
 1308SOL    MW4 5232   0.470   4.216   2.357  0.0987  0.0548  0.3205
 1309SOL     OW 5233   0.674   4.394   2.275 -0.2045 -0.3869 -0.3796
 1309SOL    HW2 5234   0.670   4.478   2.320 -0.7512 -1.2174  1.1401
 1309SOL    HW3 5235   0.657   4.415   2.183 -2.4666  0.9222  0.3070
 1309SOL    MW4 5236   0.671   4.408   2.269 -0.5751 -0.3238 -0.0885
 1310SOL     OW 5237   1.123   4.658   2.392  0.4463 -0.0736 -0.3432
 1310SOL    HW2 5238   1.147   4.660   2.485 -0.9539 -0.4196  0.0327
 1310SOL    HW3 5239   1.040   4.705   2.388  0.3720 -0.2930 -1.3818
 1310SOL    MW4 5240   1.116   4.664   2.404  0.2518 -0.1482 -0.4306
 1311SOL     OW 5241   0.903   0.108   2.306 -0.7303 -0.5460  0.0558
 1311SOL    HW2 5242   0.897   0.202   2.321  0.4123 -0.3590 -0.6107
 1311SOL    HW3 5243   0.894   0.098   2.211  0.5338 -0.9766 -0.0261
 1311SOL    MW4 5244   0.901   0.119   2.296 -0.4128 -0.5781 -0.0429
 1312SOL     OW 5245   0.904   0.386   2.370 -0.2561 -0.4758 -0.0968
 1312SOL    HW2 5246   0.982   0.432   2.339  0.2726 -2.0633 -1.1463
 1312SOL    HW3 5247   0.831   0.433   2.328  0.2887 -0.6868 -1.2952
 1312SOL    MW4 5248   0.905   0.398   2.360 -0.1145 -0.7131 -0.3934
 1313SOL     OW 5249   1.151   0.505   2.298  0.5165 -0.0787 -0.6653
 1313SOL    HW2 5250   1.216   0.457   2.349 -1.1231 -1.0133  0.5635
 1313SOL    HW3 5251   1.174   0.487   2.207  3.1514  1.1971 -0.3062
 1313SOL    MW4 5252   1.163   0.497   2.293  0.6478 -0.0337 -0.4558
 1314SOL     OW 5253   1.134   0.752   2.426 -0.2969  0.0363 -0.0176
 1314SOL    HW2 5254   1.068   0.803   2.380 -0.6922  0.6673  1.2069
 1314SOL    HW3 5255   1.147   0.674   2.373 -2.3370 -0.2913 -0.0683
 1314SOL    MW4 5256   1.127   0.749   2.413 -0.6182  0.0764  0.1373
 1315SOL     OW 5257   0.917   0.921   2.316 -0.1814  0.3856  0.6026
 1315SOL    HW2 5258   0.912   1.009   2.354 -2.1043  0.7421 -0.4266
 1315SOL    HW3 5259   0.839   0.876   2.349 -0.7482  0.0018 -1.2232
 1315SOL    MW4 5260   0.906   0.926   2.326 -0.5099  0.3820  0.2259
 1316SOL     OW 5261   0.870   1.164   2.396  0.3681  0.7624  0.0656
 1316SOL    HW2 5262   0.937   1.205   2.341  0.5297 -0.2298 -0.4909
 1316SOL    HW3 5263   0.787   1.188   2.355  0.4958 -0.1495 -0.7518
 1316SOL    MW4 5264   0.868   1.172   2.384  0.4063  0.5112 -0.1157
 1317SOL     OW 5265   1.114   1.274   2.277  0.1678  0.0685  0.6912
 1317SOL    HW2 5266   1.190   1.230   2.315  0.8909  0.4324 -0.2945
 1317SOL    HW3 5267   1.136   1.284   2.185 -1.0787  0.2045  0.4020
 1317SOL    MW4 5268   1.127   1.270   2.270  0.0987  0.1345  0.5230
 1318SOL     OW 5269   1.139   1.515   2.428  0.0363 -0.2195  0.0023
 1318SOL    HW2 5270   1.055   1.553   2.402 -0.3018 -0.3850  0.8286
 1318SOL    HW3 5271   1.144   1.433   2.379  0.6008  0.6829 -1.5052
 1318SOL    MW4 5272   1.128   1.509   2.418  0.0662 -0.1223 -0.0875
 1319SOL     OW 5273   0.904   1.619   2.298 -0.1511  0.1352  0.3331
 1319SOL    HW2 5274   0.899   1.695   2.356 -2.1248  1.1595 -1.1218
 1319SOL    HW3 5275   0.929   1.655   2.213 -1.4983 -0.7557 -0.4711
 1319SOL    MW4 5276   0.906   1.634   2.295 -0.5892  0.1528  0.0351
 1320SOL     OW 5277   0.897   1.864   2.401 -0.6797  0.0729  0.4634
 1320SOL    HW2 5278   0.907   1.906   2.486 -0.8186 -0.6589  0.8484
 1320SOL    HW3 5279   0.954   1.914   2.342 -0.2347  0.2985  1.0841
 1320SOL    MW4 5280   0.906   1.876   2.404 -0.6393  0.0061  0.5961
 1321SOL     OW 5281   1.062   2.062   2.271  0.0848  0.0878  0.0267
 1321SOL    HW2 5282   1.145   2.035   2.311 -0.0795  1.7506  1.5259
 1321SOL    HW3 5283   1.081   2.068   2.178  1.9816  1.6196  0.4842
 1321SOL    MW4 5284   1.075   2.059   2.264  0.3134  0.5093  0.2848
 1322SOL     OW 5285   1.068   2.321   2.384 -0.2007 -0.2902 -0.1071
 1322SOL    HW2 5286   1.148   2.360   2.349 -0.7022 -0.7845 -1.8683
 1322SOL    HW3 5287   1.074   2.228   2.361 -2.3828  0.0855 -2.4710
 1322SOL    MW4 5288   1.079   2.314   2.376 -0.5548 -0.3059 -0.6514
 1323SOL     OW 5289   0.849   2.453   2.288  0.0525 -0.2072  0.1843
 1323SOL    HW2 5290   0.927   2.406   2.317 -0.3012 -0.6474  0.4326
 1323SOL    HW3 5291   0.858   2.459   2.193  0.0875 -0.8110  0.1447
 1323SOL    MW4 5292   0.860   2.447   2.279  0.0104 -0.3450  0.2119
 1324SOL     OW 5293   0.915   2.731   2.368  0.0064  0.0741  0.4464
 1324SOL    HW2 5294   0.909   2.708   2.461 -0.9622  1.8927  0.8722
 1324SOL    HW3 5295   0.886   2.653   2.322  0.7216 -0.9345  1.6688
 1324SOL    MW4 5296   0.910   2.718   2.374 -0.0271  0.1810  0.6638
 1325SOL     OW 5297   1.154   2.838   2.310 -0.2897 -0.2865  0.0896
 1325SOL    HW2 5298   1.222   2.774   2.333 -0.4452 -1.2694 -2.1205
 1325SOL    HW3 5299   1.072   2.794   2.333 -0.3205 -0.1922  0.1611
 1325SOL    MW4 5300   1.152   2.823   2.316 -0.3143 -0.4037 -0.1926
 1326SOL     OW 5301   1.179   3.099   2.416  0.1440  0.2029  0.0963
 1326SOL    HW2 5302   1.101   3.135   2.375 -0.7025 -0.6167  0.9445
 1326SOL    HW3 5303   1.176   3.005   2.397  0.5642  0.0578  0.6890
 1326SOL    MW4 5304   1.169   3.091   2.408  0.0878  0.0756  0.2864
 1327SOL     OW 5305   0.948   3.195   2.304  0.5059  0.1575 -0.3044
 1327SOL    HW2 5306   0.954   3.289   2.321 -1.2354  0.9567 -3.5716
 1327SOL    HW3 5307   0.860   3.171   2.334  1.2109 -0.6079  1.1859
 1327SOL    MW4 5308   0.937   3.204   2.310  0.3691  0.1620 -0.5388
 1328SOL     OW 5309   0.935   3.453   2.378 -0.0329  0.4958  0.2868
 1328SOL    HW2 5310   0.908   3.449   2.469 -0.5337  0.0702  0.1202
 1328SOL    HW3 5311   0.856   3.480   2.331  0.2908  0.9706  0.0116
 1328SOL    MW4 5312   0.921   3.456   2.384 -0.0562  0.5023  0.2285
 1329SOL     OW 5313   1.145   3.583   2.273 -0.2600 -0.4625  0.4972
 1329SOL    HW2 5314   1.225   3.560   2.321  1.0209 -1.0803 -1.8362
 1329SOL    HW3 5315   1.076   3.530   2.313  0.9292 -1.5881  1.0858
 1329SOL    MW4 5316   1.147   3.573   2.285  0.0659 -0.6925  0.2670
 1330SOL     OW 5317   1.117   3.838   2.370 -0.2386  0.1186 -0.2650
 1330SOL    HW2 5318   1.203   3.876   2.356  0.4351 -0.6656  1.6620
 1330SOL    HW3 5319   1.122   3.751   2.331 -0.2426  0.1555 -0.3490
 1330SOL    MW4 5320   1.129   3.831   2.363 -0.1503  0.0200 -0.0218
 1331SOL     OW 5321   0.914   3.994   2.274 -0.4404 -0.0529  0.1542
 1331SOL    HW2 5322   0.981   3.930   2.297  0.3892  0.7121 -0.1206
 1331SOL    HW3 5323   0.832   3.954   2.303  0.1823 -0.7770  0.9312
 1331SOL    MW4 5324   0.912   3.980   2.281 -0.2488 -0.0475  0.2204
 1332SOL     OW 5325   0.902   4.260   2.386  0.3149  0.0989  0.3148
 1332SOL    HW2 5326   0.894   4.171   2.353 -0.7411  0.5256 -0.6482
 1332SOL    HW3 5327   0.824   4.304   2.352  1.1172  1.5311  0.3011
 1332SOL    MW4 5328   0.890   4.254   2.377  0.2814  0.3441  0.1860
 1333SOL     OW 5329   1.142   4.381   2.311  0.2793 -0.0287 -0.0684
 1333SOL    HW2 5330   1.061   4.331   2.317  1.3999 -1.8999 -0.1071
 1333SOL    HW3 5331   1.117   4.471   2.333 -1.6559 -0.7159  0.6044
 1333SOL    MW4 5332   1.128   4.386   2.315  0.1718 -0.3663  0.0153
 1334SOL     OW 5333   1.569   0.017   2.411 -0.2561  0.3570  0.4692
 1334SOL    HW2 5334   1.642   0.070   2.379 -0.4527  1.0216  1.1251
 1334SOL    HW3 5335   1.494   0.046   2.358 -0.3521  0.7077  0.7916
 1334SOL    MW4 5336   1.568   0.028   2.400 -0.2947  0.4910  0.5983
 1335SOL     OW 5337   1.357   0.091   2.274 -0.0717 -0.0285 -0.2113
 1335SOL    HW2 5338   1.357   0.180   2.310 -1.4767  0.4616 -1.3506
 1335SOL    HW3 5339   1.280   0.050   2.314 -0.4667 -0.1390 -1.0850
 1335SOL    MW4 5340   1.347   0.097   2.284 -0.3092  0.0216 -0.4769
 1336SOL     OW 5341   1.332   0.343   2.412  0.0851 -0.1911 -0.5083
 1336SOL    HW2 5342   1.352   0.336   2.505 -0.2957  0.0191 -0.4074
 1336SOL    HW3 5343   1.408   0.388   2.374  1.0065 -1.7823 -0.5933
 1336SOL    MW4 5344   1.345   0.348   2.419  0.1565 -0.3733 -0.5062
 1337SOL     OW 5345   1.545   0.489   2.306  0.1766  0.3008 -0.4031
 1337SOL    HW2 5346   1.628   0.453   2.335 -0.0059 -0.5109 -0.8805
 1337SOL    HW3 5347   1.548   0.485   2.211 -0.6963 -0.3844 -0.4092
 1337SOL    MW4 5348   1.556   0.484   2.298  0.0374  0.1033 -0.4669
 1338SOL     OW 5349   1.565   0.770   2.352 -0.0916 -0.1041  0.3805
 1338SOL    HW2 5350   1.658   0.787   2.335  0.3713 -0.7449  2.1296
 1338SOL    HW3 5351   1.556   0.676   2.340 -0.9154  0.1873 -1.4704
 1338SOL    MW4 5352   1.576   0.760   2.348 -0.1392 -0.1502  0.3671
 1339SOL     OW 5353   1.347   0.926   2.308 -0.4444  0.2549  0.0675
 1339SOL    HW2 5354   1.423   0.876   2.338 -0.6429 -0.1636 -0.1233
 1339SOL    HW3 5355   1.273   0.891   2.357 -1.0705 -1.6664 -2.1587
 1339SOL    MW4 5356   1.347   0.915   2.318 -0.5532 -0.0538 -0.2514
 1340SOL     OW 5357   1.357   1.190   2.413 -0.7820  0.2371 -0.1425
 1340SOL    HW2 5358   1.336   1.183   2.507  1.2465 -1.3480  0.2242
 1340SOL    HW3 5359   1.379   1.100   2.388 -0.1672  0.8711 -1.8779
 1340SOL    MW4 5360   1.357   1.177   2.422 -0.4333  0.1116 -0.3231
 1341SOL     OW 5361   1.596   1.259   2.311  0.4229 -0.1216  0.2306
 1341SOL    HW2 5362   1.520   1.250   2.369  1.2066  0.4592  1.3636
 1341SOL    HW3 5363   1.560   1.248   2.223 -0.6255 -2.0580  0.8662
 1341SOL    MW4 5364   1.581   1.256   2.307  0.3880 -0.3005  0.4639
 1342SOL     OW 5365   1.562   1.533   2.379 -0.6160  0.0382  0.0750
 1342SOL    HW2 5366   1.638   1.572   2.336 -1.0576  1.0678  0.1972
 1342SOL    HW3 5367   1.561   1.442   2.350 -0.2663  0.4350 -1.1894
 1342SOL    MW4 5368   1.572   1.527   2.370 -0.6282  0.2264 -0.0757
 1343SOL     OW 5369   1.327   1.667   2.284  0.0533 -0.0423  0.7068
 1343SOL    HW2 5370   1.411   1.629   2.310  0.4560 -2.4027 -3.5216
 1343SOL    HW3 5371   1.261   1.612   2.324  0.5793 -0.4779  0.9787
 1343SOL    MW4 5372   1.329   1.655   2.292  0.1758 -0.4112  0.1848
 1344SOL     OW 5373   1.312   1.950   2.347 -0.2341  0.0935  0.0208
 1344SOL    HW2 5374   1.396   1.978   2.311  0.2404  0.5041  1.3926
 1344SOL    HW3 5375   1.308   1.856   2.329  0.0334  0.2735 -0.9929
 1344SOL    MW4 5376   1.322   1.942   2.340 -0.1362  0.1714  0.0681
 1345SOL     OW 5377   1.546   2.046   2.257 -0.4769  0.4613  0.1606
 1345SOL    HW2 5378   1.629   2.018   2.296 -1.0627  0.0354  1.1382
 1345SOL    HW3 5379   1.564   2.052   2.164  0.4354 -0.4112  0.2689
 1345SOL    MW4 5380   1.559   2.044   2.250 -0.4338  0.2900  0.3039
 1346SOL     OW 5381   1.552   2.306   2.375  0.1366 -0.3178  0.0616
 1346SOL    HW2 5382   1.555   2.307   2.470 -0.2719 -0.4339  0.0797
 1346SOL    HW3 5383   1.560   2.214   2.351  1.5131 -0.1637 -0.0696
 1346SOL    MW4 5384   1.553   2.294   2.384  0.2643 -0.3128  0.0467
 1347SOL     OW 5385   1.322   2.425   2.274 -0.0740  0.0717 -0.1708
 1347SOL    HW2 5386   1.394   2.368   2.302 -0.2146  0.1560  0.3539
 1347SOL    HW3 5387   1.333   2.431   2.179  0.1984 -0.4800 -0.1776
 1347SOL    MW4 5388   1.333   2.418   2.265 -0.0566  0.0100 -0.1025
 1348SOL     OW 5389   1.347   2.669   2.402  0.0344 -0.1583  0.3602
 1348SOL    HW2 5390   1.433   2.692   2.366  0.5061  0.5223  1.8824
 1348SOL    HW3 5391   1.333   2.579   2.374  0.6405  0.1813 -1.0436
 1348SOL    MW4 5392   1.357   2.660   2.394  0.1766 -0.0237  0.3758
 1349SOL     OW 5393   1.581   2.799   2.297 -0.3097 -0.1228 -0.1480
 1349SOL    HW2 5394   1.580   2.891   2.323 -0.0419  0.2517 -1.3862
 1349SOL    HW3 5395   1.568   2.801   2.202  1.3973 -1.2644 -0.4339
 1349SOL    MW4 5396   1.579   2.811   2.288 -0.0492 -0.2240 -0.3491
 1350SOL     OW 5397   1.571   3.061   2.397 -0.3016 -0.2558 -0.1045
 1350SOL    HW2 5398   1.562   3.074   2.491 -0.2539 -0.4960 -0.0662
 1350SOL    HW3 5399   1.515   3.128   2.358 -1.9404 -1.4667  0.1164
 1350SOL    MW4 5400   1.563   3.071   2.404 -0.5116 -0.4472 -0.0703
 1351SOL     OW 5401   1.386   3.254   2.316 -0.1944  0.0785  0.1833
 1351SOL    HW2 5402   1.305   3.206   2.335  0.3169 -1.2622 -0.9232
 1351SOL    HW3 5403   1.385   3.266   2.221 -0.1848  2.0799  0.3997
 1351SOL    MW4 5404   1.375   3.249   2.306 -0.1257  0.1657  0.0659
 1352SOL     OW 5405   1.372   3.502   2.417 -0.0740  0.2132 -0.2160
 1352SOL    HW2 5406   1.366   3.484   2.511  1.1640 -2.2501 -0.5655
 1352SOL    HW3 5407   1.374   3.415   2.376  0.3426  1.2477 -2.4622
 1352SOL    MW4 5408   1.372   3.488   2.424  0.1443  0.0247 -0.5584
 1353SOL     OW 5409   1.619   3.564   2.282  0.3788  0.2052  0.1537
 1353SOL    HW2 5410   1.626   3.658   2.296 -2.1582  0.4412  0.1955
 1353SOL    HW3 5411   1.542   3.538   2.333  0.0957 -1.6138 -1.1410
 1353SOL    MW4 5412   1.610   3.573   2.291  0.0067 -0.0036 -0.0116
 1354SOL     OW 5413   1.612   3.828   2.349  0.6199  0.7969  0.0629
 1354SOL    HW2 5414   1.616   3.838   2.444 -0.7277  0.5013  0.1727
 1354SOL    HW3 5415   1.666   3.898   2.315  0.7721  1.1663  1.0479
 1354SOL    MW4 5416   1.619   3.838   2.357  0.4622  0.8067  0.2074
 1355SOL     OW 5417   1.356   3.953   2.299  0.0329  0.2539  0.6698
 1355SOL    HW2 5418   1.441   3.926   2.333  0.6251  1.0068 -0.2041
 1355SOL    HW3 5419   1.367   3.955   2.204 -1.1184 -0.1832  0.5118
 1355SOL    MW4 5420   1.369   3.949   2.291 -0.0409  0.2956  0.5336
 1356SOL     OW 5421   1.377   4.258   2.376  0.6903 -0.2831  0.2216
 1356SOL    HW2 5422   1.358   4.169   2.348 -0.1934 -0.2169  0.5968
 1356SOL    HW3 5423   1.293   4.303   2.373  0.9156  0.2266  1.1646
 1356SOL    MW4 5424   1.364   4.252   2.372  0.6034 -0.2071  0.3956
 1357SOL     OW 5425   1.587   4.428   2.278 -0.2528 -0.0397 -0.4291
 1357SOL    HW2 5426   1.516   4.377   2.317  0.9091 -0.7909  0.7665
 1357SOL    HW3 5427   1.584   4.512   2.324 -0.1025 -0.2353 -0.0552
 1357SOL    MW4 5428   1.578   4.433   2.290 -0.0796 -0.1646 -0.2220
 1358SOL     OW 5429   2.017   4.658   2.383  0.1363 -0.4091 -0.1044
 1358SOL    HW2 5430   2.098   4.706   2.369  0.7439 -1.0667  1.1163
 1358SOL    HW3 5431   2.034   4.570   2.349 -0.1509 -0.4793 -0.0750
 1358SOL    MW4 5432   2.030   4.653   2.376  0.1786 -0.5051  0.0606
 1359SOL     OW 5433   1.791   0.135   2.295  0.0433  0.6420 -0.2442
 1359SOL    HW2 5434   1.798   0.228   2.319  0.1584  0.9731 -1.5055
 1359SOL    HW3 5435   1.871   0.095   2.330  0.1585  1.0854  0.0066
 1359SOL    MW4 5436   1.802   0.142   2.303  0.0737  0.7442 -0.3776
 1360SOL     OW 5437   1.786   0.394   2.425 -0.5130 -0.0154  0.2700
 1360SOL    HW2 5438   1.791   0.412   2.518  0.3412 -1.8482  0.6012
 1360SOL    HW3 5439   1.870   0.425   2.390  0.5667 -2.3595  0.6870
 1360SOL    MW4 5440   1.798   0.400   2.432 -0.2579 -0.5665  0.3687
 1361SOL     OW 5441   2.042   0.480   2.335 -0.0595 -0.3795  0.2391
 1361SOL    HW2 5442   2.056   0.571   2.361 -1.8448 -0.2775  0.8741
 1361SOL    HW3 5443   2.032   0.484   2.240  0.5118  0.0068  0.1938
 1361SOL    MW4 5444   2.043   0.493   2.326 -0.2196 -0.3150  0.3169
 1362SOL     OW 5445   2.064   0.741   2.431 -0.3331  0.6161  0.3097
 1362SOL    HW2 5446   2.147   0.776   2.400  0.4959 -1.4301  0.2019
 1362SOL    HW3 5447   1.998   0.785   2.377  0.9537 -1.2273 -2.8869
 1362SOL    MW4 5448   2.066   0.752   2.420 -0.0539  0.1029 -0.1263
 1363SOL     OW 5449   1.842   0.842   2.302  0.0944 -0.0866 -0.5454
 1363SOL    HW2 5450   1.835   0.935   2.325  1.2168  0.1186 -1.0043
 1363SOL    HW3 5451   1.830   0.840   2.207  0.2652 -0.3844 -0.5609
 1363SOL    MW4 5452   1.840   0.854   2.292  0.2650 -0.0988 -0.6080
 1364SOL     OW 5453   1.802   1.103   2.376 -0.2321  0.6494  0.6088
 1364SOL    HW2 5454   1.878   1.150   2.342  0.4348  0.0020  1.2065
 1364SOL    HW3 5455   1.727   1.156   2.347  0.2769 -0.0075 -2.1060
 1364SOL    MW4 5456   1.802   1.116   2.367 -0.0769  0.4773  0.3295
 1365SOL     OW 5457   2.022   1.258   2.281  0.4884 -0.4564 -0.3890
 1365SOL    HW2 5458   2.016   1.347   2.316 -0.3938 -0.8920  0.5928
 1365SOL    HW3 5459   2.020   1.269   2.186 -1.6006  0.4699 -0.2732
 1365SOL    MW4 5460   2.021   1.271   2.273  0.0964 -0.3917 -0.2442
 1366SOL     OW 5461   2.043   1.527   2.393 -0.0380 -0.0783 -0.1104
 1366SOL    HW2 5462   2.057   1.542   2.486 -1.1184 -0.7428  0.1694
 1366SOL    HW3 5463   1.974   1.589   2.369  0.3882  0.2412 -0.5208
 1366SOL    MW4 5464   2.035   1.538   2.402 -0.1243 -0.1238 -0.1276
 1367SOL     OW 5465   1.815   1.676   2.289  0.2956 -0.3086 -0.1232
 1367SOL    HW2 5466   1.788   1.767   2.304  1.6565  0.1890 -0.6817
 1367SOL    HW3 5467   1.803   1.663   2.194  1.0258 -0.4159 -0.1983
 1367SOL    MW4 5468   1.810   1.687   2.278  0.5715 -0.2571 -0.2068
 1368SOL     OW 5469   1.787   1.970   2.363  0.3311  0.0593 -0.2791
 1368SOL    HW2 5470   1.782   1.956   2.457 -1.9990 -0.1668 -0.4046
 1368SOL    HW3 5471   1.878   1.992   2.346  0.8620 -0.3697  1.9610
 1368SOL    MW4 5472   1.798   1.971   2.373  0.0937 -0.0271 -0.0001
 1369SOL     OW 5473   2.035   2.054   2.307 -0.7500  0.2913  0.1647
 1369SOL    HW2 5474   2.099   1.991   2.337 -0.5624  0.3692 -0.0709
 1369SOL    HW3 5475   2.039   2.050   2.211 -2.1685 -0.8005  0.1254
 1369SOL    MW4 5476   2.044   2.045   2.298 -0.9124  0.1575  0.1285
 1370SOL     OW 5477   2.023   2.301   2.420 -0.0628  0.8291 -0.6393
 1370SOL    HW2 5478   2.084   2.343   2.360  0.0347  0.0220 -1.1073
 1370SOL    HW3 5479   2.024   2.209   2.395  0.2288  0.4302  0.8041
 1370SOL    MW4 5480   2.031   2.294   2.409 -0.0115  0.6700 -0.5106
 1371SOL     OW 5481   1.807   2.393   2.264  0.2162 -0.2999 -0.0915
 1371SOL    HW2 5482   1.876   2.354   2.318 -0.5044 -0.2546  0.8907
 1371SOL    HW3 5483   1.725   2.366   2.307 -0.3247  1.0527 -0.2352
 1371SOL    MW4 5484   1.805   2.384   2.277  0.0498 -0.1155  0.0191
 1372SOL     OW 5485   1.802   2.657   2.386  0.1175  0.0542 -0.0490
 1372SOL    HW2 5486   1.803   2.566   2.354  0.1783 -0.1730  0.5850
 1372SOL    HW3 5487   1.723   2.694   2.347  0.4540 -0.0645 -0.8635
 1372SOL    MW4 5488   1.792   2.650   2.376  0.1699  0.0086 -0.0728
 1373SOL     OW 5489   2.013   2.795   2.265 -0.2654 -0.4133  0.1372
 1373SOL    HW2 5490   2.090   2.753   2.304 -0.9885 -2.2061 -0.2896
 1373SOL    HW3 5491   1.939   2.745   2.300 -1.2098  0.8779  0.0263
 1373SOL    MW4 5492   2.013   2.783   2.275 -0.4854 -0.4794  0.0662
 1374SOL     OW 5493   2.047   3.031   2.390  0.1867  0.2153 -0.6121
 1374SOL    HW2 5494   2.123   3.062   2.340  1.2308 -0.9394  0.2281
 1374SOL    HW3 5495   2.022   2.949   2.347 -0.9402  0.8619 -1.2192
 1374SOL    MW4 5496   2.054   3.024   2.378  0.1758  0.1483 -0.5814
 1375SOL     OW 5497   1.813   3.174   2.283 -0.3613  0.1957 -0.0525
 1375SOL    HW2 5498   1.887   3.136   2.329 -0.6497 -0.5033 -0.1622
 1375SOL    HW3 5499   1.739   3.117   2.304 -0.7414  0.5462 -0.4232
 1375SOL    MW4 5500   1.813   3.161   2.292 -0.4495  0.1497 -0.1159
 1376SOL     OW 5501   1.852   3.445   2.349 -0.3164 -0.0609  0.2073
 1376SOL    HW2 5502   1.840   3.351   2.336  2.1573 -0.4456  0.4864
 1376SOL    HW3 5503   1.773   3.484   2.313 -1.6878 -2.2856  0.7114
 1376SOL    MW4 5504   1.840   3.438   2.343 -0.1710 -0.4052  0.3106
 1377SOL     OW 5505   2.049   3.610   2.258 -0.0094 -0.2603  0.2065
 1377SOL    HW2 5506   1.969   3.565   2.284  0.0362 -0.6313 -0.2940
 1377SOL    HW3 5507   2.048   3.608   2.162  0.0646  0.6735  0.1783
 1377SOL    MW4 5508   2.039   3.604   2.249  0.0064 -0.1861  0.1367
 1378SOL     OW 5509   2.036   3.876   2.362 -0.4066  0.2484  0.2070
 1378SOL    HW2 5510   2.036   3.859   2.456 -0.3338 -0.0153  0.1602
 1378SOL    HW3 5511   2.041   3.789   2.322  0.6222  0.4090 -0.0322
 1378SOL    MW4 5512   2.037   3.862   2.369 -0.2613  0.2348  0.1693
 1379SOL     OW 5513   1.796   3.998   2.276  0.5753 -0.3003  0.1523
 1379SOL    HW2 5514   1.882   3.970   2.309  1.2431  2.4057  0.8138
 1379SOL    HW3 5515   1.808   4.009   2.182  0.8639 -0.2791  0.1922
 1379SOL    MW4 5516   1.809   3.996   2.268  0.7015  0.0595  0.2448
 1380SOL     OW 5517   1.791   4.259   2.380 -0.4603  0.0034  0.0486
 1380SOL    HW2 5518   1.771   4.172   2.345 -2.4381  0.2357  0.5170
 1380SOL    HW3 5519   1.728   4.317   2.338 -0.7655  0.7965  1.5644
 1380SOL    MW4 5520   1.780   4.255   2.370 -0.7615  0.1387  0.3104
 1381SOL     OW 5521   2.035   4.383   2.278  0.4982  0.2416 -0.2689
 1381SOL    HW2 5522   1.947   4.356   2.308  0.3019  1.1326 -0.0422
 1381SOL    HW3 5523   2.034   4.364   2.184 -0.2539  1.0639 -0.4393
 1381SOL    MW4 5524   2.023   4.377   2.270  0.3731  0.4677 -0.2615
 1382SOL     OW 5525   2.481   4.593   2.414  0.1176 -0.4334  0.6721
 1382SOL    HW2 5526   2.551   4.645   2.375  0.1957 -0.1534  1.1786
 1382SOL    HW3 5527   2.480   4.512   2.364  0.5154 -0.2606  0.3832
 1382SOL    MW4 5528   2.490   4.589   2.403  0.1804 -0.3737  0.7008
 1383SOL     OW 5529   2.264   0.091   2.336  0.0806 -0.2349  0.1985
 1383SOL    HW2 5530   2.290   0.179   2.363 -0.9845 -0.5063  2.2636
 1383SOL    HW3 5531   2.330   0.034   2.376 -0.3737 -0.4988  0.5844
 1383SOL    MW4 5532   2.276   0.095   2.345 -0.1198 -0.3056  0.5219
 1384SOL     OW 5533   2.291   0.349   2.404  0.0198 -0.3234 -0.0385
 1384SOL    HW2 5534   2.356   0.398   2.353 -0.7106 -1.3916 -2.0612
 1384SOL    HW3 5535   2.207   0.385   2.376 -0.4222 -1.2672  0.0596
 1384SOL    MW4 5536   2.288   0.360   2.394 -0.1349 -0.5888 -0.2924
 1385SOL     OW 5537   2.491   0.499   2.292 -0.2580 -0.1413  0.2618
 1385SOL    HW2 5538   2.557   0.433   2.313 -0.2412 -0.5320 -0.9564
 1385SOL    HW3 5539   2.475   0.488   2.198 -1.0443  0.8727  0.2622
 1385SOL    MW4 5540   2.498   0.489   2.283 -0.3596 -0.0591  0.1012
 1386SOL     OW 5541   2.495   0.757   2.418 -0.2202  0.4044  0.0588
 1386SOL    HW2 5542   2.581   0.797   2.403 -0.4607  0.9240  0.0363
 1386SOL    HW3 5543   2.499   0.674   2.371 -0.2126  1.0449 -1.1017
 1386SOL    MW4 5544   2.507   0.751   2.410 -0.2509  0.5574 -0.0973
 1387SOL     OW 5545   2.279   0.873   2.314 -0.2262 -0.4407 -0.4360
 1387SOL    HW2 5546   2.272   0.961   2.351  0.4562  0.1006 -1.5495
 1387SOL    HW3 5547   2.365   0.842   2.341 -0.3080 -0.6178 -0.3750
 1387SOL    MW4 5548   2.289   0.880   2.322 -0.1470 -0.3927 -0.5749
 1388SOL     OW 5549   2.257   1.136   2.396 -0.1308  0.0866 -0.0526
 1388SOL    HW2 5550   2.317   1.204   2.366 -0.4701  0.3506 -0.1315
 1388SOL    HW3 5551   2.173   1.159   2.356  0.0071 -0.9885 -0.9824
 1388SOL    MW4 5552   2.254   1.148   2.387 -0.1574 -0.0204 -0.1857
 1389SOL     OW 5553   2.444   1.303   2.257  0.2128 -0.1537  0.0831
 1389SOL    HW2 5554   2.516   1.245   2.282  0.2560  0.1022  0.5704
 1389SOL    HW3 5555   2.467   1.388   2.296  1.1095  0.7062 -2.2422
 1389SOL    MW4 5556   2.456   1.307   2.266  0.3368 -0.0065 -0.1594
 1390SOL     OW 5557   2.464   1.558   2.366  0.0795 -0.2119 -0.1402
 1390SOL    HW2 5558   2.460   1.567   2.461 -1.4482  0.7582 -0.2843
 1390SOL    HW3 5559   2.529   1.624   2.339  0.0231 -0.0306  0.1690
 1390SOL    MW4 5560   2.472   1.568   2.375 -0.1295 -0.0600 -0.1184
 1391SOL     OW 5561   2.255   1.673   2.247  0.3381  0.2800  0.2388
 1391SOL    HW2 5562   2.330   1.633   2.291  0.7668 -2.7168 -2.9858
 1391SOL    HW3 5563   2.182   1.616   2.267 -0.4320  1.4379  0.7780
 1391SOL    MW4 5564   2.255   1.660   2.255  0.2930  0.0374 -0.1155
 1392SOL     OW 5565   2.229   1.885   2.409 -0.5899 -0.1443  0.2089
 1392SOL    HW2 5566   2.311   1.928   2.388 -0.5009 -0.9569 -1.1303
 1392SOL    HW3 5567   2.228   1.805   2.356 -1.4037 -1.0822  1.5836
 1392SOL    MW4 5568   2.239   1.880   2.399 -0.6855 -0.3752  0.2136
 1393SOL     OW 5569   2.450   2.019   2.288 -0.3974 -0.7090 -0.5960
 1393SOL    HW2 5570   2.534   2.019   2.335 -1.5461  0.5373  1.5807
 1393SOL    HW3 5571   2.474   2.025   2.196  1.9209 -0.7475 -0.0326
 1393SOL    MW4 5572   2.464   2.020   2.282 -0.2431 -0.5497 -0.2345
 1394SOL     OW 5573   2.433   2.278   2.365 -0.2651 -0.7245  0.2956
 1394SOL    HW2 5574   2.502   2.336   2.333 -1.2687 -0.6415 -1.8464
 1394SOL    HW3 5575   2.445   2.197   2.315 -1.9469 -0.5616 -0.3877
 1394SOL    MW4 5576   2.444   2.275   2.354 -0.6194 -0.6921 -0.0772
 1395SOL     OW 5577   2.207   2.430   2.268  0.0883 -0.8253 -0.3936
 1395SOL    HW2 5578   2.214   2.515   2.311  1.1428  0.3917 -2.8582
 1395SOL    HW3 5579   2.277   2.378   2.306  1.2651  0.3575 -0.9082
 1395SOL    MW4 5580   2.217   2.434   2.279  0.3827 -0.5087 -0.7867
 1396SOL     OW 5581   2.241   2.674   2.383  0.2664  0.1944 -0.0967
 1396SOL    HW2 5582   2.237   2.686   2.478  1.8943 -0.0714  0.0261
 1396SOL    HW3 5583   2.320   2.722   2.356 -1.1415  1.7324 -1.5625
 1396SOL    MW4 5584   2.251   2.682   2.392  0.2954  0.3623 -0.2739
 1397SOL     OW 5585   2.457   2.834   2.275  0.4878  0.2865  0.1984
 1397SOL    HW2 5586   2.524   2.782   2.319  0.7909  1.0253  0.6342
 1397SOL    HW3 5587   2.466   2.813   2.182  0.9171 -0.0737  0.3217
 1397SOL    MW4 5588   2.467   2.824   2.269  0.5845  0.3364  0.2722
 1398SOL     OW 5589   2.480   3.084   2.426  0.3324 -0.1727 -0.2635
 1398SOL    HW2 5590   2.552   3.111   2.369  1.4665  2.4729  2.2817
 1398SOL    HW3 5591   2.462   2.993   2.401  3.2322 -0.2510 -2.2830
 1398SOL    MW4 5592   2.487   3.076   2.415  0.8646  0.1660 -0.1942
 1399SOL     OW 5593   2.269   3.162   2.278 -0.3778  0.4945  0.2774
 1399SOL    HW2 5594   2.258   3.253   2.305  0.7681  0.8394 -0.4118
 1399SOL    HW3 5595   2.347   3.132   2.326  0.0990  0.3142 -0.6081
 1399SOL    MW4 5596   2.278   3.170   2.288 -0.1637  0.5162  0.0696
 1400SOL     OW 5597   2.232   3.429   2.347  0.1827  0.2768 -0.5517
 1400SOL    HW2 5598   2.241   3.436   2.443 -0.2386  0.4552 -0.5257
 1400SOL    HW3 5599   2.167   3.495   2.324  1.1458  1.0501 -1.1088
 1400SOL    MW4 5600   2.225   3.438   2.357  0.2542  0.4023 -0.6218
 1401SOL     OW 5601   2.489   3.559   2.252 -0.5393  0.0549 -0.3921
 1401SOL    HW2 5602   2.481   3.649   2.285  0.0065 -0.2845  0.6738
 1401SOL    HW3 5603   2.407   3.517   2.279 -0.1225 -0.2035  0.4723
 1401SOL    MW4 5604   2.477   3.566   2.260 -0.4123 -0.0240 -0.1374
 1402SOL     OW 5605   2.483   3.838   2.342 -0.1662 -0.0895  0.7210
 1402SOL    HW2 5606   2.471   3.847   2.437 -0.1882 -0.4213  0.7498
 1402SOL    HW3 5607   2.416   3.895   2.304  0.4586  0.7877  0.9108
 1402SOL    MW4 5608   2.473   3.847   2.350 -0.0867 -0.0175  0.7498
 1403SOL     OW 5609   2.281   4.011   2.261 -0.2565  0.8751 -0.0800
 1403SOL    HW2 5610   2.279   4.093   2.310  0.4246  0.6178  0.3780
 1403SOL    HW3 5611   2.205   3.962   2.292 -0.2219  1.0085  0.2106
 1403SOL    MW4 5612   2.271   4.015   2.271 -0.1621  0.8588  0.0187
 1404SOL     OW 5613   2.260   4.268   2.372 -0.1571  0.0871 -0.4128
 1404SOL    HW2 5614   2.248   4.247   2.465 -0.4172  0.8700 -0.2647
 1404SOL    HW3 5615   2.174   4.300   2.344  0.3341  1.3595 -0.5173
 1404SOL    MW4 5616   2.247   4.270   2.380 -0.1266  0.3583 -0.4071
 1405SOL     OW 5617   2.491   4.362   2.250 -0.0459 -0.3684  0.3082
 1405SOL    HW2 5618   2.564   4.307   2.278  0.3209  0.5175  1.1334
 1405SOL    HW3 5619   2.415   4.324   2.294  0.0276 -0.8542  0.0235
 1405SOL    MW4 5620   2.491   4.349   2.260  0.0122 -0.3156  0.3795
 1406SOL     OW 5621   2.898   4.630   2.392  0.2052 -0.0627  0.2068
 1406SOL    HW2 5622   2.981   4.671   2.368  0.6884 -1.8417 -1.2370
 1406SOL    HW3 5623   2.906   4.540   2.360 -1.8030 -0.5845  1.1444
 1406SOL    MW4 5624   2.910   4.623   2.385  0.0040 -0.3662  0.1400
 1407SOL     OW 5625   2.682   0.102   2.307 -0.0123  0.0702 -0.7350
 1407SOL    HW2 5626   2.715   0.186   2.338  0.6530 -0.6216  0.4897
 1407SOL    HW3 5627   2.757   0.043   2.314 -0.8822 -0.9813 -0.1093
 1407SOL    MW4 5628   2.697   0.105   2.312 -0.0393 -0.1598 -0.4909
 1408SOL     OW 5629   2.696   0.364   2.432  0.3280 -0.3960  0.3392
 1408SOL    HW2 5630   2.690   0.355   2.528  1.2067 -1.8700  0.2769
 1408SOL    HW3 5631   2.783   0.399   2.417  0.1884 -0.1655  0.0674
 1408SOL    MW4 5632   2.706   0.367   2.443  0.4255 -0.5600  0.2951
 1409SOL     OW 5633   2.939   0.442   2.340  0.3131 -0.4753  0.0020
 1409SOL    HW2 5634   2.940   0.532   2.372  0.3599 -0.1267 -0.9444
 1409SOL    HW3 5635   2.937   0.451   2.245  0.5402 -1.4764 -0.1027
 1409SOL    MW4 5636   2.939   0.455   2.332  0.3492 -0.5614 -0.1367
 1410SOL     OW 5637   2.927   0.709   2.402  0.3824 -0.1096  0.0348
 1410SOL    HW2 5638   2.909   0.723   2.495 -2.0399 -0.5757 -0.3390
 1410SOL    HW3 5639   2.864   0.765   2.357  0.7737 -0.7568 -1.3252
 1410SOL    MW4 5640   2.916   0.718   2.409  0.1144 -0.2565 -0.1940
 1411SOL     OW 5641   2.738   0.891   2.301 -0.0740 -0.5877 -0.1565
 1411SOL    HW2 5642   2.734   0.982   2.330  0.9121 -0.5504 -0.1287
 1411SOL    HW3 5643   2.727   0.895   2.206 -0.4282 -0.4722 -0.1100
 1411SOL    MW4 5644   2.736   0.903   2.292  0.0094 -0.5675 -0.1467
 1412SOL     OW 5645   2.671   1.152   2.417  0.4208  0.0584  0.2241
 1412SOL    HW2 5646   2.668   1.160   2.512 -1.1857  3.6567 -0.0426
 1412SOL    HW3 5647   2.750   1.201   2.391 -1.0428  2.1620 -0.4528
 1412SOL    MW4 5648   2.681   1.160   2.426  0.0157  0.8107  0.0996
 1413SOL     OW 5649   2.919   1.268   2.338 -0.1196 -0.2749  0.4465
 1413SOL    HW2 5650   2.994   1.215   2.366  1.5834  1.6513 -0.3358
 1413SOL    HW3 5651   2.921   1.263   2.242  0.2009  1.3907  0.3627
 1413SOL    MW4 5652   2.929   1.260   2.329  0.1474  0.1990  0.3322
 1414SOL     OW 5653   2.874   1.525   2.449 -0.1653 -0.1453 -0.5957
 1414SOL    HW2 5654   2.883   1.525   2.544  1.3484 -2.3460 -0.6790
 1414SOL    HW3 5655   2.887   1.433   2.424 -1.9106  0.1735 -2.8149
 1414SOL    MW4 5656   2.877   1.513   2.458 -0.1958 -0.3936 -0.8995
 1415SOL     OW 5657   2.700   1.716   2.328  0.0663 -0.3558  0.1696
 1415SOL    HW2 5658   2.754   1.652   2.375  0.2575 -0.3710 -0.0650
 1415SOL    HW3 5659   2.715   1.695   2.235 -0.2440 -0.2773  0.1003
 1415SOL    MW4 5660   2.709   1.705   2.322  0.0506 -0.3475  0.1295
 1416SOL     OW 5661   2.703   1.987   2.415 -0.3528 -0.3595  0.0104
 1416SOL    HW2 5662   2.695   1.965   2.508 -0.3811 -0.7586 -0.0883
 1416SOL    HW3 5663   2.706   1.903   2.370 -1.6954 -0.1547 -0.4733
 1416SOL    MW4 5664   2.702   1.973   2.422 -0.5337 -0.3852 -0.0665
 1417SOL     OW 5665   2.937   2.036   2.292 -0.0745  0.2578  0.1068
 1417SOL    HW2 5666   3.002   1.972   2.323 -0.7185 -1.0950 -1.3007
 1417SOL    HW3 5667   2.860   2.021   2.347 -0.3544 -0.4426 -0.4709
 1417SOL    MW4 5668   2.936   2.025   2.303 -0.1964 -0.0131 -0.1551
 1418SOL     OW 5669   2.916   2.322   2.358 -0.7325 -1.0021  0.4209
 1418SOL    HW2 5670   2.906   2.330   2.453 -1.0301 -2.2572  0.4977
 1418SOL    HW3 5671   2.921   2.228   2.342  0.2060 -0.7598 -0.7206
 1418SOL    MW4 5672   2.915   2.311   2.368 -0.6479 -1.1357  0.2804
 1419SOL     OW 5673   2.663   2.426   2.286 -0.6308 -0.3142 -0.4513
 1419SOL    HW2 5674   2.746   2.403   2.328 -0.6571 -1.7566 -1.1483
 1419SOL    HW3 5675   2.681   2.420   2.192 -1.7645 -1.5344 -0.6000
 1419SOL    MW4 5676   2.676   2.422   2.279 -0.7838 -0.6655 -0.5629
 1420SOL     OW 5677   2.675   2.698   2.379 -0.0521 -0.9348  0.6290
 1420SOL    HW2 5678   2.758   2.740   2.357  0.2580 -1.6605  0.4088
 1420SOL    HW3 5679   2.680   2.611   2.340 -1.2061 -0.7356 -0.0094
 1420SOL    MW4 5680   2.686   2.692   2.371 -0.1634 -1.0043  0.5157
 1421SOL     OW 5681   2.924   2.849   2.322 -0.8521  0.0235 -0.3693
 1421SOL    HW2 5682   2.921   2.940   2.350 -0.4348  0.0565 -0.4250
 1421SOL    HW3 5683   2.897   2.851   2.230 -1.4154  0.0166 -0.2049
 1421SOL    MW4 5684   2.920   2.861   2.314 -0.8714  0.0269 -0.3549
 1422SOL     OW 5685   2.909   3.103   2.426 -0.3330 -0.0084  0.0291
 1422SOL    HW2 5686   2.994   3.120   2.386 -0.4366  0.0166 -0.1829
 1422SOL    HW3 5687   2.846   3.145   2.367 -0.4241  0.7118  0.6367
 1422SOL    MW4 5688   2.912   3.111   2.413 -0.3587  0.0899  0.0813
 1423SOL     OW 5689   2.692   3.192   2.269 -0.5499 -0.0664  0.4565
 1423SOL    HW2 5690   2.695   3.285   2.293  1.2527 -0.1514  0.6124
 1423SOL    HW3 5691   2.706   3.192   2.174  0.9344 -0.2444  0.6564
 1423SOL    MW4 5692   2.694   3.204   2.259 -0.1162 -0.1011  0.5035
 1424SOL     OW 5693   2.711   3.438   2.386 -0.1950 -0.2243 -0.1807
 1424SOL    HW2 5694   2.789   3.480   2.350 -0.0323  0.6096  1.1316
 1424SOL    HW3 5695   2.637   3.487   2.349 -0.0239  0.7399  0.7499
 1424SOL    MW4 5696   2.711   3.450   2.376 -0.1510  0.0129  0.1152
 1425SOL     OW 5697   2.917   3.584   2.306  0.0474 -0.1490 -0.0767
 1425SOL    HW2 5698   2.990   3.539   2.347 -1.4574 -1.1133  1.5784
 1425SOL    HW3 5699   2.927   3.675   2.332  0.5353 -0.3068  0.2894
 1425SOL    MW4 5700   2.928   3.590   2.315 -0.0868 -0.2970  0.1899
 1426SOL     OW 5701   2.933   3.855   2.408  0.6222 -0.0343 -0.1906
 1426SOL    HW2 5702   2.913   3.862   2.501  1.8484 -1.7012  0.2146
 1426SOL    HW3 5703   2.855   3.890   2.364 -0.2172  0.1877  1.4435
 1426SOL    MW4 5704   2.920   3.860   2.414  0.6732 -0.2249  0.0785
 1427SOL     OW 5705   2.728   3.936   2.242  0.2645  0.0319  0.0786
 1427SOL    HW2 5706   2.641   3.909   2.272  0.1483  0.0647 -0.2284
 1427SOL    HW3 5707   2.714   3.964   2.151  0.5333  0.3582  0.1402
 1427SOL    MW4 5708   2.714   3.936   2.234  0.2846  0.0793  0.0462
 1428SOL     OW 5709   2.708   4.217   2.331  0.2322  0.5200  0.4417
 1428SOL    HW2 5710   2.706   4.206   2.426  0.3238 -0.3370  0.3497
 1428SOL    HW3 5711   2.740   4.133   2.298 -0.3462  0.6124 -0.3774
 1428SOL    MW4 5712   2.712   4.205   2.339  0.1679  0.4191  0.3215
 1429SOL     OW 5713   2.933   4.385   2.280  0.2335  0.3607 -0.0132
 1429SOL    HW2 5714   3.008   4.340   2.317  0.3726 -1.3039 -2.2144
 1429SOL    HW3 5715   2.861   4.322   2.289 -0.0936  0.5801 -1.0177
 1429SOL    MW4 5716   2.933   4.371   2.286  0.2087  0.1701 -0.4362
 1430SOL     OW 5717   3.356   4.613   2.409  0.5386 -0.8303 -0.2098
 1430SOL    HW2 5718   3.350   4.640   2.501  1.4143 -1.9420  0.1797
 1430SOL    HW3 5719   3.432   4.661   2.376  0.3892 -0.6433 -0.2846
 1430SOL    MW4 5720   3.365   4.623   2.417  0.6344 -0.9523 -0.1683
 1431SOL     OW 5721   3.146   0.100   2.308 -0.1715  0.2671 -0.3363
 1431SOL    HW2 5722   3.152   0.181   2.357 -0.9069 -0.2326  0.5712
 1431SOL    HW3 5723   3.215   0.044   2.345 -0.6317 -0.0564  0.0391
 1431SOL    MW4 5724   3.156   0.103   2.319 -0.3292  0.1585 -0.1670
 1432SOL     OW 5725   3.163   0.323   2.473  0.0601 -0.0890  0.6233
 1432SOL    HW2 5726   3.243   0.360   2.436  0.3586 -1.5460 -0.2311
 1432SOL    HW3 5727   3.093   0.358   2.419  0.2835 -0.2217  0.2439
 1432SOL    MW4 5728   3.164   0.332   2.461  0.1290 -0.2987  0.4605
 1433SOL     OW 5729   3.362   0.453   2.346 -0.5223 -0.4891  0.3309
 1433SOL    HW2 5730   3.445   0.412   2.370 -1.4981 -1.5190  2.0783
 1433SOL    HW3 5731   3.368   0.467   2.252  2.3748  1.1597  0.6900
 1433SOL    MW4 5732   3.374   0.450   2.337 -0.2688 -0.4075  0.6088
 1434SOL     OW 5733   3.360   0.724   2.450 -0.2659 -0.5024  0.0240
 1434SOL    HW2 5734   3.440   0.758   2.409  1.0750 -1.4744  1.7461
 1434SOL    HW3 5735   3.353   0.634   2.419 -0.5993 -0.4654 -0.0092
 1434SOL    MW4 5736   3.370   0.716   2.441 -0.1330 -0.6258  0.2468
 1435SOL     OW 5737   3.156   0.866   2.320  0.3400 -0.2592 -0.2517
 1435SOL    HW2 5738   3.232   0.828   2.365  0.0703  1.1237  1.4568
 1435SOL    HW3 5739   3.083   0.812   2.348  0.2298  0.3745  0.7316
 1435SOL    MW4 5740   3.157   0.854   2.330  0.2899  0.0069  0.1034
 1436SOL     OW 5741   3.150   1.115   2.408  0.3257 -0.3506 -0.0288
 1436SOL    HW2 5742   3.226   1.156   2.367  0.2833 -0.7257 -0.4804
 1436SOL    HW3 5743   3.151   1.025   2.375  0.1479 -0.5816  0.5916
 1436SOL    MW4 5744   3.161   1.108   2.398  0.2966 -0.4306 -0.0065
 1437SOL     OW 5745   3.336   1.266   2.273 -0.2650  0.2471  0.0464
 1437SOL    HW2 5746   3.414   1.221   2.307 -0.4898  0.1202  0.3907
 1437SOL    HW3 5747   3.344   1.356   2.306 -0.8235 -0.0444  0.9944
 1437SOL    MW4 5748   3.348   1.272   2.282 -0.3683  0.1919  0.2169
 1438SOL     OW 5749   3.352   1.508   2.380 -0.5303 -0.1311 -0.1255
 1438SOL    HW2 5750   3.352   1.497   2.475 -1.3274  0.2120 -0.0788
 1438SOL    HW3 5751   3.274   1.561   2.363 -0.5258 -0.4119 -0.9960
 1438SOL    MW4 5752   3.342   1.514   2.391 -0.6349 -0.1229 -0.2342
 1439SOL     OW 5753   3.100   1.622   2.302  0.1617 -0.1113 -0.6585
 1439SOL    HW2 5754   3.104   1.716   2.323  2.5531 -0.2684 -0.2590
 1439SOL    HW3 5755   3.018   1.592   2.342 -0.1274  1.6100  0.0858
 1439SOL    MW4 5756   3.090   1.631   2.310  0.4391  0.0951 -0.5076
 1440SOL     OW 5757   3.142   1.895   2.407  0.4700  0.1521 -0.5742
 1440SOL    HW2 5758   3.146   1.919   2.500 -0.2646  0.7568 -0.6944
 1440SOL    HW3 5759   3.212   1.947   2.367  0.6640  0.0359 -0.3893
 1440SOL    MW4 5760   3.152   1.905   2.414  0.3987  0.2165 -0.5657
 1441SOL     OW 5761   3.352   2.044   2.322  0.0514 -0.1809 -0.1524
 1441SOL    HW2 5762   3.421   1.987   2.356  1.1324  0.9179 -0.4673
 1441SOL    HW3 5763   3.346   2.021   2.229 -0.7836 -1.0506  0.1115
 1441SOL    MW4 5764   3.361   2.033   2.314  0.0839 -0.1507 -0.1591
 1442SOL     OW 5765   3.366   2.328   2.415 -0.2707 -0.7002 -0.0259
 1442SOL    HW2 5766   3.291   2.371   2.373 -1.2253 -1.3549  1.0023
 1442SOL    HW3 5767   3.363   2.238   2.383  1.4081 -0.2149 -1.7393
 1442SOL    MW4 5768   3.356   2.322   2.405 -0.1752 -0.7226 -0.1163
 1443SOL     OW 5769   3.151   2.456   2.309 -0.1070  0.2410 -0.4714
 1443SOL    HW2 5770   3.149   2.548   2.334  2.5101  0.1076  0.3556
 1443SOL    HW3 5771   3.061   2.426   2.322 -0.5604  2.1773  1.1223
 1443SOL    MW4 5772   3.139   2.464   2.314  0.1785  0.4788 -0.1520
 1444SOL     OW 5773   3.177   2.711   2.386 -0.2136 -0.2975 -0.5272
 1444SOL    HW2 5774   3.184   2.698   2.481  2.1757  1.2195 -0.4481
 1444SOL    HW3 5775   3.099   2.765   2.375  0.2410  0.6528  0.7267
 1444SOL    MW4 5776   3.168   2.717   2.397  0.1616  0.0280 -0.3513
 1445SOL     OW 5777   3.405   2.816   2.281 -0.1707 -0.3252  0.2464
 1445SOL    HW2 5778   3.409   2.901   2.325  1.5687 -1.1866  1.8181
 1445SOL    HW3 5779   3.332   2.771   2.323 -1.7796  0.7786 -1.3314
 1445SOL    MW4 5780   3.396   2.821   2.293 -0.1535 -0.2932  0.2456
 1446SOL     OW 5781   3.387   3.061   2.401  0.2293  0.1384  0.1620
 1446SOL    HW2 5782   3.452   3.129   2.380 -0.1155  0.3346 -0.2699
 1446SOL    HW3 5783   3.306   3.092   2.360 -0.0268 -0.3349  0.3122
 1446SOL    MW4 5784   3.385   3.074   2.393  0.1500  0.1018  0.1248
 1447SOL     OW 5785   3.159   3.188   2.298 -0.0710  0.3673  0.4343
 1447SOL    HW2 5786   3.179   3.280   2.314 -0.4536  0.7018 -0.9655
 1447SOL    HW3 5787   3.152   3.181   2.202  0.0558 -1.1288  0.5253
 1447SOL    MW4 5788   3.161   3.199   2.287 -0.1047  0.2140  0.2617
 1448SOL     OW 5789   3.150   3.442   2.399 -0.4569 -0.1912 -0.4754
 1448SOL    HW2 5790   3.145   3.437   2.494 -1.7694 -0.4294 -0.5400
 1448SOL    HW3 5791   3.225   3.498   2.381 -1.1068  1.0819  0.7216
 1448SOL    MW4 5792   3.159   3.449   2.409 -0.7158 -0.0546 -0.3260
 1449SOL     OW 5793   3.360   3.587   2.308  0.2092 -0.4855 -0.0343
 1449SOL    HW2 5794   3.453   3.569   2.324  0.2026 -1.2389 -0.7656
 1449SOL    HW3 5795   3.348   3.567   2.215 -0.5383  0.2609 -0.1033
 1449SOL    MW4 5796   3.371   3.582   2.298  0.1097 -0.4864 -0.1399
 1450SOL     OW 5797   3.353   3.848   2.378  0.4098 -0.0175 -0.0648
 1450SOL    HW2 5798   3.440   3.883   2.359  0.5527  0.0010  0.6256
 1450SOL    HW3 5799   3.361   3.754   2.361 -0.0285  0.3026 -2.1177
 1450SOL    MW4 5800   3.366   3.840   2.373  0.3708  0.0272 -0.2446
 1451SOL     OW 5801   3.150   3.987   2.284 -0.1772  0.2320 -0.1017
 1451SOL    HW2 5802   3.230   3.947   2.318 -0.5956 -0.0189  0.6269
 1451SOL    HW3 5803   3.080   3.932   2.321 -0.7547  1.5322  0.7711
 1451SOL    MW4 5804   3.151   3.974   2.294 -0.3086  0.3704  0.1096
 1452SOL     OW 5805   3.158   4.249   2.399  0.1248 -0.5050  0.4391
 1452SOL    HW2 5806   3.248   4.278   2.381  0.5221 -0.8206  1.8852
 1452SOL    HW3 5807   3.150   4.167   2.350  0.4342 -0.1822 -0.1556
 1452SOL    MW4 5808   3.169   4.242   2.390  0.2180 -0.5041  0.5514
 1453SOL     OW 5809   3.409   4.352   2.321 -0.7075 -0.2118 -0.2577
 1453SOL    HW2 5810   3.396   4.443   2.349  0.0520 -0.2974  0.3889
 1453SOL    HW3 5811   3.395   4.354   2.226  0.2096  0.7489 -0.3825
 1453SOL    MW4 5812   3.405   4.365   2.312 -0.4863 -0.0964 -0.1889
 1454SOL     OW 5813   3.804   4.612   2.389  0.2824 -0.2158  0.2534
 1454SOL    HW2 5814   3.812   4.636   2.482 -1.4070  2.2168 -0.1636
 1454SOL    HW3 5815   3.887   4.638   2.350  0.2927  0.5162  0.7502
 1454SOL    MW4 5816   3.816   4.619   2.396  0.0609  0.2017  0.2639
 1455SOL     OW 5817   3.579   0.071   2.288 -0.7310 -0.1726 -0.1185
 1455SOL    HW2 5818   3.591   0.158   2.327  0.4271 -0.5540  0.4034
 1455SOL    HW3 5819   3.655   0.021   2.318 -1.3807 -1.3633 -0.4387
 1455SOL    MW4 5820   3.591   0.076   2.297 -0.6639 -0.3800 -0.0919
 1456SOL     OW 5821   3.602   0.319   2.419  0.0335 -0.1341  0.2508
 1456SOL    HW2 5822   3.600   0.305   2.514 -0.2534  1.3439  0.4763
 1456SOL    HW3 5823   3.684   0.366   2.404 -0.5826  0.8626 -0.0411
 1456SOL    MW4 5824   3.612   0.323   2.430 -0.0856  0.1924  0.2421
 1457SOL     OW 5825   3.834   0.461   2.344 -0.0340 -0.2278  0.1278
 1457SOL    HW2 5826   3.809   0.545   2.381 -0.2893 -0.3171  0.1624
 1457SOL    HW3 5827   3.823   0.472   2.250  0.2744 -0.1113  0.1059
 1457SOL    MW4 5828   3.829   0.473   2.336 -0.0270 -0.2242  0.1295
 1458SOL     OW 5829   3.803   0.734   2.434 -0.2581 -0.4092 -0.5693
 1458SOL    HW2 5830   3.804   0.756   2.527 -2.0630 -0.0604 -0.6195
 1458SOL    HW3 5831   3.878   0.781   2.398  0.0767 -0.0192  0.5865
 1458SOL    MW4 5832   3.813   0.743   2.442 -0.4521 -0.3117 -0.4234
 1459SOL     OW 5833   3.566   0.854   2.337 -0.0858  0.4674 -0.1085
 1459SOL    HW2 5834   3.648   0.817   2.369 -0.3212  1.0945  1.2675
 1459SOL    HW3 5835   3.571   0.847   2.242  0.9948 -0.6910  0.0288
 1459SOL    MW4 5836   3.577   0.848   2.329  0.0257  0.3973  0.0912
 1460SOL     OW 5837   3.568   1.138   2.369 -0.0140 -0.2296 -0.3063
 1460SOL    HW2 5838   3.571   1.161   2.462 -1.6172 -1.3111  0.0179
 1460SOL    HW3 5839   3.576   1.043   2.368  1.4396 -0.1183 -1.3812
 1460SOL    MW4 5840   3.570   1.128   2.381 -0.0337 -0.3576 -0.4054
 1461SOL     OW 5841   3.815   1.254   2.316  0.2145 -0.4917  0.2560
 1461SOL    HW2 5842   3.804   1.336   2.363 -0.6237 -0.0203 -0.7379
 1461SOL    HW3 5843   3.735   1.205   2.335  0.3396 -0.7331  0.1625
 1461SOL    MW4 5844   3.803   1.258   2.325  0.1204 -0.4614  0.1126
 1462SOL     OW 5845   3.760   1.505   2.424 -0.2228 -0.1758  0.2275
 1462SOL    HW2 5846   3.770   1.524   2.517  0.1056  1.4333 -0.1241
 1462SOL    HW3 5847   3.691   1.563   2.394  0.0352 -0.3021 -0.6550
 1462SOL    MW4 5848   3.752   1.515   2.432 -0.1454  0.0198  0.0646
 1463SOL     OW 5849   3.564   1.679   2.301 -0.0897  0.5325 -0.2695
 1463SOL    HW2 5850   3.488   1.622   2.313 -0.1372  0.6095 -0.2017
 1463SOL    HW3 5851   3.583   1.674   2.207 -0.2306  0.5776 -0.3008
 1463SOL    MW4 5852   3.557   1.671   2.290 -0.1145  0.5486 -0.2647
 1464SOL     OW 5853   3.587   1.923   2.420 -0.2875  0.5828 -0.3770
 1464SOL    HW2 5854   3.638   1.968   2.353 -0.2589 -0.2284 -0.9162
 1464SOL    HW3 5855   3.588   1.831   2.393 -0.7321  0.3280  0.4460
 1464SOL    MW4 5856   3.594   1.917   2.408 -0.3424  0.4422 -0.3396
 1465SOL     OW 5857   3.776   2.054   2.262  0.2122  0.3531  0.4149
 1465SOL    HW2 5858   3.851   2.013   2.306  0.5325  0.7633  0.2532
 1465SOL    HW3 5859   3.792   2.039   2.169  0.0187  0.3149  0.3892
 1465SOL    MW4 5860   3.788   2.047   2.256  0.2289  0.4022  0.3902
 1466SOL     OW 5861   3.805   2.295   2.402 -0.1103  0.1186  0.0174
 1466SOL    HW2 5862   3.743   2.344   2.349 -1.2039 -1.6014 -0.3356
 1466SOL    HW3 5863   3.804   2.207   2.364  0.6038 -0.6047  1.6374
 1466SOL    MW4 5864   3.797   2.290   2.390 -0.1604 -0.2038  0.1846
 1467SOL     OW 5865   3.592   2.430   2.292  0.0826  0.2747  0.0308
 1467SOL    HW2 5866   3.515   2.394   2.335 -0.4313  1.2744 -0.0500
 1467SOL    HW3 5867   3.573   2.424   2.198  0.9067 -1.2377 -0.0702
 1467SOL    MW4 5868   3.580   2.424   2.285  0.1236  0.2070  0.0068
 1468SOL     OW 5869   3.607   2.711   2.433  0.2048 -0.6901 -0.1703
 1468SOL    HW2 5870   3.606   2.617   2.413  0.6984 -1.0358  1.3449
 1468SOL    HW3 5871   3.539   2.748   2.377  0.3176 -1.8840 -1.1213
 1468SOL    MW4 5872   3.598   2.703   2.423  0.2848 -0.8933 -0.0959
 1469SOL     OW 5873   3.829   2.790   2.300  0.0646  0.3861 -0.6427
 1469SOL    HW2 5874   3.812   2.883   2.315  1.7313  0.3776  1.4040
 1469SOL    HW3 5875   3.757   2.745   2.344  0.8040  0.6322  0.8558
 1469SOL    MW4 5876   3.817   2.796   2.307  0.3821  0.4175 -0.1749
 1470SOL     OW 5877   3.810   3.095   2.367  0.0131 -0.6442  0.0172
 1470SOL    HW2 5878   3.801   3.089   2.462 -1.3304  0.3824 -0.0373
 1470SOL    HW3 5879   3.885   3.153   2.354 -1.5438  1.5415  0.4743
 1470SOL    MW4 5880   3.819   3.102   2.378 -0.3696 -0.2204  0.0703
 1471SOL     OW 5881   3.584   3.250   2.294 -0.1049 -0.0672 -0.0613
 1471SOL    HW2 5882   3.591   3.340   2.324  0.9887  0.0570 -0.6454
 1471SOL    HW3 5883   3.660   3.206   2.332 -0.4780 -0.6776 -0.0112
 1471SOL    MW4 5884   3.595   3.256   2.303 -0.0098 -0.1313 -0.1318
 1472SOL     OW 5885   3.615   3.513   2.394  0.7238 -0.1435  0.1562
 1472SOL    HW2 5886   3.617   3.490   2.487  0.6888  0.7311  0.3787
 1472SOL    HW3 5887   3.707   3.528   2.372  0.8210 -1.2016 -0.1711
 1472SOL    MW4 5888   3.628   3.512   2.404  0.7320 -0.1677  0.1424
 1473SOL     OW 5889   3.872   3.587   2.304  0.4391 -0.1628 -0.1393
 1473SOL    HW2 5890   3.854   3.675   2.339 -0.0968 -0.5789  0.6551
 1473SOL    HW3 5891   3.852   3.593   2.211  1.3995  0.8386 -0.2894
 1473SOL    MW4 5892   3.867   3.599   2.296  0.4951 -0.0856 -0.0543
 1474SOL     OW 5893   3.807   3.850   2.409  0.2923 -0.2078 -0.0478
 1474SOL    HW2 5894   3.804   3.855   2.505 -0.7121 -0.5022 -0.0602
 1474SOL    HW3 5895   3.889   3.893   2.385 -0.0343  0.9475  0.8702
 1474SOL    MW4 5896   3.817   3.856   2.419  0.1167 -0.0942  0.0717
 1475SOL     OW 5897   3.595   3.982   2.304 -0.0028  0.1313 -0.1823
 1475SOL    HW2 5898   3.596   4.073   2.331  1.8216  0.0282  0.1143
 1475SOL    HW3 5899   3.676   3.944   2.339 -0.3597 -1.4061 -0.9405
 1475SOL    MW4 5900   3.606   3.989   2.312  0.1909 -0.0851 -0.2432
 1476SOL     OW 5901   3.632   4.233   2.413  0.1094 -0.3125 -0.0612
 1476SOL    HW2 5902   3.704   4.279   2.370  1.3318 -0.0358  2.1700
 1476SOL    HW3 5903   3.553   4.274   2.379  1.1227  1.8262  0.0746
 1476SOL    MW4 5904   3.631   4.245   2.403  0.4044  0.0062  0.2511
 1477SOL     OW 5905   3.825   4.369   2.279 -0.2547 -0.2635  0.1269
 1477SOL    HW2 5906   3.908   4.335   2.312  0.7026  0.2103 -1.6776
 1477SOL    HW3 5907   3.827   4.462   2.301 -0.1190 -0.1752 -0.2462
 1477SOL    MW4 5908   3.836   4.377   2.286 -0.1105 -0.1894 -0.1604
 1478SOL     OW 5909   4.306   4.612   2.399  0.1157 -0.2507  0.3273
 1478SOL    HW2 5910   4.301   4.612   2.495 -0.5128 -0.1349  0.2967
 1478SOL    HW3 5911   4.369   4.681   2.379 -0.4159  0.3313  0.6280
 1478SOL    MW4 5912   4.314   4.621   2.409 -0.0373 -0.1587  0.3630
 1479SOL     OW 5913   4.053   0.025   2.320 -0.1742 -0.6043  0.3520
 1479SOL    HW2 5914   4.051   0.120   2.331 -0.4291 -0.3684 -1.6032
 1479SOL    HW3 5915   4.134  -0.003   2.362  0.7490  0.6921 -0.5400
 1479SOL    MW4 5916   4.063   0.034   2.327 -0.0860 -0.4021 -0.0236
 1480SOL     OW 5917   4.061   0.295   2.390  0.2194  0.5913 -0.1494
 1480SOL    HW2 5918   4.123   0.341   2.333  0.1199 -0.2070 -0.9175
 1480SOL    HW3 5919   3.981   0.347   2.384 -0.3596 -0.4670 -2.2111
 1480SOL    MW4 5920   4.058   0.308   2.381  0.1299  0.3463 -0.5228
 1481SOL     OW 5921   4.291   0.461   2.295  0.1424  0.0818 -0.0080
 1481SOL    HW2 5922   4.272   0.553   2.314 -1.9980 -0.3089 -0.1387
 1481SOL    HW3 5923   4.370   0.442   2.345 -0.2658  1.5755  1.2511
 1481SOL    MW4 5924   4.299   0.471   2.304 -0.1938  0.2273  0.1409
 1482SOL     OW 5925   4.263   0.721   2.391  0.2636 -0.0139  0.3277
 1482SOL    HW2 5926   4.176   0.755   2.369  0.5004  0.1414 -0.4015
 1482SOL    HW3 5927   4.322   0.793   2.368  0.5503  0.0171  1.1766
 1482SOL    MW4 5928   4.259   0.735   2.385  0.3327  0.0107  0.3435
 1483SOL     OW 5929   4.036   0.862   2.329 -0.0875 -0.1822 -0.0145
 1483SOL    HW2 5930   4.046   0.948   2.370 -0.8769 -0.4315  0.7042
 1483SOL    HW3 5931   4.050   0.879   2.236  1.5566  0.4143  0.3117
 1483SOL    MW4 5932   4.039   0.876   2.322  0.0253 -0.1364  0.1234
 1484SOL     OW 5933   4.061   1.132   2.408  0.6389  0.4546  0.0593
 1484SOL    HW2 5934   4.048   1.140   2.502 -0.2796 -0.1142 -0.0138
 1484SOL    HW3 5935   3.982   1.169   2.369  0.9680  0.5947 -0.4837
 1484SOL    MW4 5936   4.049   1.138   2.415  0.5611  0.3980 -0.0220
 1485SOL     OW 5937   4.246   1.287   2.286  0.3557  0.3257  0.1275
 1485SOL    HW2 5938   4.174   1.239   2.327 -0.0864 -0.5774 -1.6071
 1485SOL    HW3 5939   4.325   1.251   2.326 -0.0992  0.3183  1.0348
 1485SOL    MW4 5940   4.247   1.276   2.296  0.2373  0.2056  0.0183
 1486SOL     OW 5941   4.191   1.532   2.381 -0.0497 -0.3424 -0.3982
 1486SOL    HW2 5942   4.216   1.446   2.348  0.9100  0.0602 -0.7431
 1486SOL    HW3 5943   4.265   1.589   2.358 -0.6555  0.5610 -0.1348
 1486SOL    MW4 5944   4.204   1.528   2.374 -0.0030 -0.1701 -0.4089
 1487SOL     OW 5945   3.966   1.651   2.301  0.9789  0.5720  0.2347
 1487SOL    HW2 5946   4.046   1.617   2.341  1.2444  0.9505  0.0334
 1487SOL    HW3 5947   3.897   1.590   2.328  1.3070  0.3405  0.5486
 1487SOL    MW4 5948   3.967   1.639   2.310  1.0572  0.5914  0.2496
 1488SOL     OW 5949   4.001   1.934   2.403 -0.2091 -0.2632 -0.3637
 1488SOL    HW2 5950   3.996   1.938   2.499 -0.8213 -0.7331 -0.3746
 1488SOL    HW3 5951   3.989   1.842   2.382  0.4961 -0.2439 -0.8672
 1488SOL    MW4 5952   3.999   1.923   2.413 -0.1968 -0.3227 -0.4316
 1489SOL     OW 5953   4.263   2.001   2.319  0.0112 -0.4592 -0.2813
 1489SOL    HW2 5954   4.251   2.095   2.337 -0.8538 -0.7166  0.5221
 1489SOL    HW3 5955   4.181   1.961   2.349  0.6298 -1.5469 -0.0502
 1489SOL    MW4 5956   4.250   2.008   2.326 -0.0213 -0.6367 -0.1448
 1490SOL     OW 5957   4.243   2.268   2.395 -0.0613  0.1813  0.4088
 1490SOL    HW2 5958   4.168   2.326   2.383  0.2453  0.3077 -0.9976
 1490SOL    HW3 5959   4.318   2.321   2.369  0.2601 -0.7365 -0.5566
 1490SOL    MW4 5960   4.243   2.283   2.390  0.0216  0.0769  0.0958
 1491SOL     OW 5961   4.034   2.419   2.330 -0.1487  0.4052 -0.0029
 1491SOL    HW2 5962   4.031   2.502   2.378  1.1800 -0.3503  1.4465
 1491SOL    HW3 5963   3.950   2.377   2.349 -0.2029  0.7456  0.5309
 1491SOL    MW4 5964   4.023   2.425   2.339  0.0195  0.3504  0.2587
 1492SOL     OW 5965   4.074   2.715   2.400  0.4625  0.1922 -0.0771
 1492SOL    HW2 5966   4.065   2.715   2.495  0.0381  0.9456 -0.1133
 1492SOL    HW3 5967   3.993   2.755   2.368  0.1981 -0.8947 -0.8003
 1492SOL    MW4 5968   4.062   2.720   2.408  0.3716  0.1482 -0.1773
 1493SOL     OW 5969   4.301   2.831   2.277 -0.1644  0.1381 -0.3390
 1493SOL    HW2 5970   4.234   2.781   2.323 -0.7281 -0.2396 -1.5517
 1493SOL    HW3 5971   4.384   2.789   2.301 -0.3125  0.8408  1.4651
 1493SOL    MW4 5972   4.303   2.819   2.286 -0.2583  0.1810 -0.2609
 1494SOL     OW 5973   4.277   3.083   2.373  0.0549 -0.8220 -0.2582
 1494SOL    HW2 5974   4.285   2.998   2.330  1.9352 -1.6656  1.6711
 1494SOL    HW3 5975   4.357   3.129   2.349 -1.0455  0.5013 -1.4482
 1494SOL    MW4 5976   4.288   3.078   2.364  0.1578 -0.7587 -0.1607
 1495SOL     OW 5977   4.045   3.225   2.281  0.3618  0.6628  0.0378
 1495SOL    HW2 5978   4.063   3.313   2.314  0.7879  1.0801 -1.3135
 1495SOL    HW3 5979   4.116   3.171   2.317  0.0243  0.8247  0.9800
 1495SOL    MW4 5980   4.057   3.229   2.290  0.3735  0.7392 -0.0162
 1496SOL     OW 5981   4.085   3.460   2.430 -0.3113  0.0487  0.1347
 1496SOL    HW2 5982   4.163   3.483   2.380 -0.0328  0.3216  0.6893
 1496SOL    HW3 5983   4.016   3.517   2.395 -0.4349 -0.6956 -0.8449
 1496SOL    MW4 5984   4.086   3.470   2.419 -0.2909 -0.0135  0.0786
 1497SOL     OW 5985   4.306   3.555   2.303 -0.2548 -0.3609  0.4967
 1497SOL    HW2 5986   4.283   3.638   2.344 -1.8090 -1.0004  0.9418
 1497SOL    HW3 5987   4.304   3.573   2.209 -0.1549  0.2010  0.6007
 1497SOL    MW4 5988   4.303   3.569   2.296 -0.4467 -0.3712  0.5691
 1498SOL     OW 5989   4.271   3.819   2.413  1.0739  0.4744 -0.7638
 1498SOL    HW2 5990   4.254   3.837   2.505  1.3939  0.1057 -0.6336
 1498SOL    HW3 5991   4.348   3.872   2.391 -0.4916  2.5558 -1.4902
 1498SOL    MW4 5992   4.279   3.828   2.422  0.9096  0.7003 -0.8425
 1499SOL     OW 5993   4.047   3.970   2.326  0.0833  0.2680 -0.3967
 1499SOL    HW2 5994   4.127   3.929   2.358 -0.1081  0.2505  0.0514
 1499SOL    HW3 5995   4.053   3.963   2.230  0.7597  0.5401 -0.3719
 1499SOL    MW4 5996   4.058   3.964   2.317  0.1473  0.3016 -0.3343
 1500SOL     OW 5997   4.062   4.264   2.378 -0.8401 -0.2434  0.0963
 1500SOL    HW2 5998   4.144   4.298   2.342 -0.8533  0.0770  0.3669
 1500SOL    HW3 5999   4.066   4.170   2.363 -0.1819 -0.2920  0.5930
 1500SOL    MW4 6000   4.073   4.256   2.371 -0.7550 -0.2076  0.1976
 1501SOL     OW 6001   4.284   4.361   2.267  0.4734 -0.1235 -0.1116
 1501SOL    HW2 6002   4.272   4.446   2.309  0.6209  0.1177 -0.5468
 1501SOL    HW3 6003   4.345   4.315   2.323  0.7038  0.2129 -0.0814
 1501SOL    MW4 6004   4.290   4.366   2.280  0.5233 -0.0473 -0.1650
 1502SOL     OW 6005   0.273   4.606   2.660 -0.3643 -0.0821 -0.1646
 1502SOL    HW2 6006   0.279   4.524   2.710  1.3697  0.2550  0.2288
 1502SOL    HW3 6007   0.196   4.650   2.696  1.0464  0.3139  2.5254
 1502SOL    MW4 6008   0.264   4.601   2.672  0.0506  0.0146  0.2422
 1503SOL     OW 6009   0.042   0.083   2.759 -0.3740  0.0792  0.1487
 1503SOL    HW2 6010   0.042   0.070   2.854 -0.0929  0.2900  0.1812
 1503SOL    HW3 6011   0.031   0.177   2.748 -2.5230 -0.1785 -0.0846
 1503SOL    MW4 6012   0.041   0.094   2.770 -0.6204  0.0730  0.1222
 1504SOL     OW 6013   4.486   0.353   2.705 -0.2448 -0.0985  0.0387
 1504SOL    HW2 6014   4.555   0.410   2.737 -0.9826  0.6699  0.2716
 1504SOL    HW3 6015   4.493   0.357   2.610  0.2478 -0.2940  0.0659
 1504SOL    MW4 6016   4.496   0.361   2.697 -0.2772 -0.0229  0.0730
 1505SOL     OW 6017   0.218   0.525   2.757 -0.4688 -0.8124 -0.1609
 1505SOL    HW2 6018   0.223   0.527   2.852 -0.0469  1.3687 -0.2062
 1505SOL    HW3 6019   0.300   0.484   2.729 -0.6781 -1.6250  0.4135
 1505SOL    MW4 6020   0.229   0.520   2.766 -0.4407 -0.6319 -0.0911
 1506SOL     OW 6021   0.193   0.789   2.665 -0.6906  0.3764 -0.2195
 1506SOL    HW2 6022   0.266   0.840   2.703 -0.9608  0.6236 -0.0280
 1506SOL    HW3 6023   0.201   0.703   2.705 -1.3304  0.8084  0.8603
 1506SOL    MW4 6024   0.204   0.785   2.676 -0.8106  0.4660 -0.0518
 1507SOL     OW 6025   4.433   0.874   2.746 -0.1137  0.4437 -0.1850
 1507SOL    HW2 6026   4.371   0.808   2.714  0.8112 -0.0889 -0.8905
 1507SOL    HW3 6027   4.519   0.839   2.724  0.6549 -0.4351  3.7982
 1507SOL    MW4 6028   4.436   0.861   2.739  0.1098  0.2575  0.2474
 1508SOL     OW 6029   4.450   1.165   2.715 -0.0814 -0.0510  0.2713
 1508SOL    HW2 6030   4.540   1.184   2.741  0.0494 -0.5423  0.1958
 1508SOL    HW3 6031   4.445   1.069   2.715 -0.5221 -0.0314  0.0005
 1508SOL    MW4 6032   4.461   1.155   2.718 -0.1223 -0.1132  0.2256
 1509SOL     OW 6033   0.245   1.231   2.804 -0.1157  0.3978 -0.5389
 1509SOL    HW2 6034   0.329   1.214   2.760 -0.3218  1.1589 -1.2353
 1509SOL    HW3 6035   0.221   1.319   2.777 -0.6987  0.5277  0.3936
 1509SOL    MW4 6036   0.253   1.240   2.794 -0.2198  0.5154 -0.5077
 1510SOL     OW 6037   0.218   1.486   2.712 -0.0893 -0.1612 -0.0408
 1510SOL    HW2 6038   0.292   1.542   2.737  0.5582 -1.9017  1.9954
 1510SOL    HW3 6039   0.140   1.536   2.737  0.4127  0.9978 -0.7487
 1510SOL    MW4 6040   0.218   1.500   2.718  0.0624 -0.2379  0.1345
 1511SOL     OW 6041   4.489   1.632   2.757  0.1912 -0.1238  0.3454
 1511SOL    HW2 6042   4.469   1.628   2.851  0.9119  0.7892  0.5419
 1511SOL    HW3 6043   4.501   1.725   2.739  0.0184 -0.2924 -0.6714
 1511SOL    MW4 6044   4.488   1.644   2.767  0.2635 -0.0256  0.2372
 1512SOL     OW 6045   4.490   1.921   2.713 -0.4792  0.1568 -0.3406
 1512SOL    HW2 6046   4.549   1.993   2.737 -0.0712 -0.2153 -0.2306
 1512SOL    HW3 6047   4.490   1.921   2.617  0.0352 -0.1233 -0.3379
 1512SOL    MW4 6048   4.497   1.931   2.703 -0.3575  0.0707 -0.3258
 1513SOL     OW 6049   0.211   2.106   2.767  0.4604  0.0018  0.1686
 1513SOL    HW2 6050   0.280   2.050   2.732  1.4276  0.0310  1.9586
 1513SOL    HW3 6051   0.221   2.189   2.721 -1.0860 -1.2989 -2.6238
 1513SOL    MW4 6052   0.221   2.109   2.756  0.3840 -0.1660  0.0363
 1514SOL     OW 6053   0.231   2.359   2.669  0.0328  0.7775  0.3443
 1514SOL    HW2 6054   0.285   2.407   2.732 -0.0548 -0.5683  1.4838
 1514SOL    HW3 6055   0.141   2.385   2.690  0.0034  0.3274  0.7921
 1514SOL    MW4 6056   0.226   2.369   2.680  0.0174  0.5406  0.5537
 1515SOL     OW 6057   4.472   2.433   2.726  0.0169 -0.1379  0.5052
 1515SOL    HW2 6058   4.479   2.458   2.818  0.6634  0.3129  0.3390
 1515SOL    HW3 6059   4.393   2.379   2.722 -0.7673  0.9364  1.0840
 1515SOL    MW4 6060   4.463   2.429   2.738 -0.0013  0.0634  0.5596
 1516SOL     OW 6061   4.466   2.707   2.637  0.1470 -0.0269 -0.5691
 1516SOL    HW2 6062   4.384   2.749   2.662  0.6423  0.1021  0.9204
 1516SOL    HW3 6063   4.450   2.614   2.649  0.5759  0.0721  0.8891
 1516SOL    MW4 6064   4.453   2.700   2.642  0.2689  0.0032 -0.1802
 1517SOL     OW 6065   0.198   2.800   2.769  0.0202  0.3537  0.7759
 1517SOL    HW2 6066   0.209   2.892   2.746  0.0956 -0.0587 -0.9120
 1517SOL    HW3 6067   0.110   2.778   2.741  0.8859 -0.7338 -1.1959
 1517SOL    MW4 6068   0.188   2.809   2.762  0.1444  0.1558  0.2930
 1518SOL     OW 6069   0.201   3.071   2.682 -0.0803  0.5727 -0.0670
 1518SOL    HW2 6070   0.275   3.126   2.707 -0.8239  0.8473  1.6207
 1518SOL    HW3 6071   0.209   3.061   2.588  1.5504  1.4082 -0.0314
 1518SOL    MW4 6072   0.212   3.077   2.673  0.0367  0.7192  0.1603
 1519SOL     OW 6073   4.468   3.213   2.788  0.2336 -0.3907 -0.2169
 1519SOL    HW2 6074   4.396   3.167   2.746  0.1266 -0.7950  0.4124
 1519SOL    HW3 6075   4.546   3.162   2.764  0.5133  0.8446 -2.0954
 1519SOL    MW4 6076   4.469   3.200   2.779  0.2564 -0.2811 -0.3817
 1520SOL     OW 6077   4.479   3.461   2.659  0.1254 -0.4426  0.2852
 1520SOL    HW2 6078   4.553   3.514   2.689  1.4314 -1.6186 -0.8168
 1520SOL    HW3 6079   4.485   3.381   2.710 -1.0677 -0.0830  0.9999
 1520SOL    MW4 6080   4.490   3.458   2.670  0.1403 -0.5503  0.2341
 1521SOL     OW 6081   0.220   3.586   2.757  0.0064  0.1133  0.2095
 1521SOL    HW2 6082   0.226   3.591   2.852 -0.2356 -0.8242  0.2802
 1521SOL    HW3 6083   0.303   3.546   2.730  0.0771  0.3810  0.0239
 1521SOL    MW4 6084   0.232   3.581   2.766 -0.0162  0.0249  0.1943
 1522SOL     OW 6085   0.218   3.835   2.636  0.2450  0.2511 -0.0678
 1522SOL    HW2 6086   0.221   3.743   2.663 -1.4475  0.2272  0.1046
 1522SOL    HW3 6087   0.214   3.832   2.541  0.2693  0.1465 -0.0650
 1522SOL    MW4 6088   0.218   3.823   2.627  0.0249  0.2342 -0.0447
 1523SOL     OW 6089   0.028   3.997   2.767 -0.0259 -0.4980  0.2435
 1523SOL    HW2 6090   0.026   4.080   2.719  1.8154 -0.6928 -0.2136
 1523SOL    HW3 6091   0.088   3.942   2.716 -1.2191 -2.1191  0.5405
 1523SOL    MW4 6092   0.036   4.000   2.754  0.0596 -0.7376  0.2223
 1524SOL     OW 6093   0.024   4.246   2.678  0.0436  0.3089 -0.0923
 1524SOL    HW2 6094  -0.050   4.301   2.703  0.2784  0.3206  0.5739
 1524SOL    HW3 6095   0.097   4.278   2.730  0.2671 -0.4090  0.0459
 1524SOL    MW4 6096   0.024   4.258   2.688  0.1041  0.2157  0.0138
 1525SOL     OW 6097   0.253   4.363   2.761 -0.5736 -0.2113  0.4058
 1525SOL    HW2 6098   0.257   4.349   2.856  1.0253  1.3243  0.5960
 1525SOL    HW3 6099   0.316   4.299   2.725 -0.1233  0.1761  0.5026
 1525SOL    MW4 6100   0.262   4.353   2.769 -0.3033  0.0424  0.4436
 1526SOL     OW 6101   0.660   4.654   2.669  0.0045  0.0555 -0.3140
 1526SOL    HW2 6102   0.747   4.690   2.683  0.6226 -2.0986  1.7463
 1526SOL    HW3 6103   0.601   4.718   2.708  0.8849  0.1403  0.8952
 1526SOL    MW4 6104   0.663   4.667   2.676  0.2022 -0.2175  0.1173
 1527SOL     OW 6105   0.449   0.137   2.781  0.1768 -0.1465 -0.2100
 1527SOL    HW2 6106   0.462   0.128   2.876 -0.5774 -1.0586 -0.1801
 1527SOL    HW3 6107   0.401   0.058   2.757  1.6500 -0.6211 -1.6131
 1527SOL    MW4 6108   0.444   0.126   2.791  0.2717 -0.3294 -0.3912
 1528SOL     OW 6109   0.431   0.397   2.671 -0.4720  0.2447 -0.0329
 1528SOL    HW2 6110   0.516   0.437   2.688 -1.1001  1.2146  0.9160
 1528SOL    HW3 6111   0.436   0.310   2.712  0.4913 -0.2153 -1.0976
 1528SOL    MW4 6112   0.443   0.390   2.679 -0.4278  0.3120 -0.0482
 1529SOL     OW 6113   0.687   0.515   2.766 -0.4739 -0.6172 -0.2499
 1529SOL    HW2 6114   0.690   0.500   2.860 -2.1946  0.4473 -0.0222
 1529SOL    HW3 6115   0.767   0.472   2.733  0.5882 -0.2599  1.7705
 1529SOL    MW4 6116   0.698   0.507   2.774 -0.5608 -0.4296  0.0467
 1530SOL     OW 6117   0.648   0.776   2.660 -0.0037  0.0955  0.2239
 1530SOL    HW2 6118   0.722   0.832   2.686  0.9578 -0.5384 -1.0845
 1530SOL    HW3 6119   0.672   0.690   2.694  0.0857 -0.2093 -0.6166
 1530SOL    MW4 6120   0.661   0.772   2.668  0.1350 -0.0284 -0.0597
 1531SOL     OW 6121   0.426   0.894   2.791 -0.1501  0.4659 -0.1005
 1531SOL    HW2 6122   0.439   0.984   2.761  0.5591 -0.4280 -2.5278
 1531SOL    HW3 6123   0.494   0.844   2.748  0.0464 -1.1231  1.9638
 1531SOL    MW4 6124   0.437   0.900   2.781 -0.0306  0.1383 -0.1484
 1532SOL     OW 6125   0.497   1.148   2.686  0.2664 -0.1927  0.2100
 1532SOL    HW2 6126   0.577   1.197   2.708  1.5080 -1.3040 -1.7104
 1532SOL    HW3 6127   0.497   1.145   2.590 -2.2363  0.0190  0.1780
 1532SOL    MW4 6128   0.508   1.154   2.676  0.1000 -0.3114 -0.0476
 1533SOL     OW 6129   0.713   1.322   2.776  0.4850 -0.1727 -0.2208
 1533SOL    HW2 6130   0.717   1.308   2.870 -0.1857  0.4193 -0.1010
 1533SOL    HW3 6131   0.769   1.254   2.739 -1.0204 -1.8135  0.4546
 1533SOL    MW4 6132   0.721   1.311   2.784  0.1979 -0.3111 -0.1159
 1534SOL     OW 6133   0.671   1.589   2.661  0.1159  0.0949  0.1612
 1534SOL    HW2 6134   0.583   1.606   2.695 -0.6920  0.4525 -2.0582
 1534SOL    HW3 6135   0.697   1.506   2.702 -1.3047 -0.0779  0.7342
 1534SOL    MW4 6136   0.663   1.580   2.671 -0.1782  0.1193 -0.0560
 1535SOL     OW 6137   0.415   1.672   2.783 -0.3924  0.0783 -0.4135
 1535SOL    HW2 6138   0.432   1.696   2.874 -0.7234 -0.5260 -0.1912
 1535SOL    HW3 6139   0.399   1.756   2.739 -0.0177  0.3879  0.0400
 1535SOL    MW4 6140   0.415   1.686   2.789 -0.3867  0.0394 -0.3244
 1536SOL     OW 6141   0.422   1.946   2.670 -0.2083 -0.5395 -0.0950
 1536SOL    HW2 6142   0.492   1.996   2.712  0.3812 -1.3068 -0.1441
 1536SOL    HW3 6143   0.436   1.960   2.576  0.4303 -1.4076 -0.1376
 1536SOL    MW4 6144   0.433   1.954   2.663 -0.0463 -0.7552 -0.1071
 1537SOL     OW 6145   0.657   2.058   2.756 -0.2077  0.5223 -0.2439
 1537SOL    HW2 6146   0.640   2.046   2.850 -0.5040  0.9325 -0.2438
 1537SOL    HW3 6147   0.726   1.995   2.737 -1.8690 -1.3388 -0.3017
 1537SOL    MW4 6148   0.664   2.048   2.766 -0.4660  0.3309 -0.2515
 1538SOL     OW 6149   0.691   2.306   2.664  0.2462  0.1492  0.0081
 1538SOL    HW2 6150   0.759   2.350   2.715  1.3940 -1.1772 -0.3399
 1538SOL    HW3 6151   0.687   2.218   2.701  0.2585 -0.4608 -1.3891
 1538SOL    MW4 6152   0.700   2.300   2.676  0.3993 -0.1063 -0.2221
 1539SOL     OW 6153   0.474   2.454   2.813 -0.1043  0.0303 -0.0546
 1539SOL    HW2 6154   0.474   2.538   2.766  1.4328  0.3867  0.5344
 1539SOL    HW3 6155   0.534   2.399   2.763 -0.4792 -0.4496  0.0239
 1539SOL    MW4 6156   0.482   2.458   2.800  0.0491  0.0140  0.0334
 1540SOL     OW 6157   0.445   2.691   2.666  0.1113  0.2073 -0.0753
 1540SOL    HW2 6158   0.503   2.754   2.709 -0.2550  0.3119  0.2689
 1540SOL    HW3 6159   0.358   2.713   2.698 -0.2837  0.8484 -1.5535
 1540SOL    MW4 6160   0.441   2.702   2.676  0.0109  0.3056 -0.2249
 1541SOL     OW 6161   0.639   2.837   2.772  0.0616 -0.2394 -0.6899
 1541SOL    HW2 6162   0.650   2.855   2.866 -0.4439  0.6565 -0.8035
 1541SOL    HW3 6163   0.668   2.917   2.729  0.0358 -0.5564 -1.2914
 1541SOL    MW4 6164   0.645   2.850   2.779 -0.0085 -0.1630 -0.7843
 1542SOL     OW 6165   0.685   3.085   2.644 -0.5638  0.1260  0.0215
 1542SOL    HW2 6166   0.757   3.129   2.689 -1.6452  1.9894 -0.0320
 1542SOL    HW3 6167   0.703   3.100   2.551 -1.0727  0.6927  0.0115
 1542SOL    MW4 6168   0.697   3.093   2.638 -0.7736  0.4467  0.0131
 1543SOL     OW 6169   0.439   3.208   2.739 -0.1332  0.2203 -0.3352
 1543SOL    HW2 6170   0.450   3.208   2.834 -1.9691 -1.1883 -0.0728
 1543SOL    HW3 6171   0.506   3.149   2.707 -0.1019 -0.0340  0.1893
 1543SOL    MW4 6172   0.449   3.200   2.748 -0.3713  0.0009 -0.2314
 1544SOL     OW 6173   0.468   3.478   2.674 -0.3664 -0.4081  0.3129
 1544SOL    HW2 6174   0.447   3.387   2.692 -1.1045 -0.1985  0.5448
 1544SOL    HW3 6175   0.485   3.481   2.580 -0.7004 -0.7196  0.2440
 1544SOL    MW4 6176   0.467   3.467   2.664 -0.5079 -0.4215  0.3344
 1545SOL     OW 6177   0.692   3.604   2.745  0.1935  0.5222  0.1231
 1545SOL    HW2 6178   0.693   3.620   2.840 -0.4492  0.6282  0.1178
 1545SOL    HW3 6179   0.610   3.557   2.730  0.3724  0.3646 -0.3575
 1545SOL    MW4 6180   0.681   3.600   2.756  0.1323  0.5154  0.0590
 1546SOL     OW 6181   0.689   3.886   2.636 -0.3098  0.2475  0.2631
 1546SOL    HW2 6182   0.604   3.919   2.665 -0.7806 -0.4044 -0.3564
 1546SOL    HW3 6183   0.692   3.796   2.668 -0.4512 -0.1916 -0.9268
 1546SOL    MW4 6184   0.679   3.878   2.644 -0.3905  0.1035  0.0244
 1547SOL     OW 6185   0.450   3.948   2.770  0.5294 -0.0358 -0.5051
 1547SOL    HW2 6186   0.451   4.033   2.726 -1.7380 -0.0597 -0.6734
 1547SOL    HW3 6187   0.375   3.903   2.732  0.7373 -1.4903  0.7695
 1547SOL    MW4 6188   0.440   3.953   2.759  0.2576 -0.2308 -0.3592
 1548SOL     OW 6189   0.461   4.208   2.651 -0.0288  0.0801  0.3679
 1548SOL    HW2 6190   0.536   4.262   2.673  1.0072 -1.1932  0.0084
 1548SOL    HW3 6191   0.450   4.219   2.556  0.2164 -0.3700  0.2854
 1548SOL    MW4 6192   0.469   4.216   2.641  0.1402 -0.1472  0.3096
 1549SOL     OW 6193   0.654   4.387   2.742  0.2313 -0.2540 -0.2762
 1549SOL    HW2 6194   0.746   4.366   2.725  0.0814  0.4958 -2.2246
 1549SOL    HW3 6195   0.645   4.477   2.711 -1.3091 -0.5476 -0.6865
 1549SOL    MW4 6196   0.665   4.397   2.736  0.0083 -0.1938 -0.5874
 1550SOL     OW 6197   1.133   4.625   2.678  0.4104 -0.2009  0.2143
 1550SOL    HW2 6198   1.201   4.666   2.731  0.0628  0.1025  0.4189
 1550SOL    HW3 6199   1.135   4.533   2.703  1.7070 -0.4603 -0.7844
 1550SOL    MW4 6200   1.142   4.618   2.688  0.5356 -0.1951  0.1096
 1551SOL     OW 6201   0.903   0.106   2.722 -0.0794 -0.0509  0.3417
 1551SOL    HW2 6202   0.896   0.119   2.816 -0.0046  0.6247  0.2591
 1551SOL    HW3 6203   0.988   0.063   2.710 -0.2123 -0.3922  0.6014
 1551SOL    MW4 6204   0.914   0.102   2.733 -0.0871 -0.0068  0.3651
 1552SOL     OW 6205   0.894   0.366   2.655 -0.0726 -0.4034  0.1347
 1552SOL    HW2 6206   0.905   0.272   2.672 -1.1276 -0.6669 -0.5459
 1552SOL    HW3 6207   0.891   0.372   2.559  1.5108  0.5147  0.1295
 1552SOL    MW4 6208   0.895   0.354   2.645 -0.0029 -0.3170  0.0443
 1553SOL     OW 6209   1.131   0.458   2.766 -0.1125 -0.3333  0.0542
 1553SOL    HW2 6210   1.120   0.549   2.739 -1.8271 -0.4351  0.3376
 1553SOL    HW3 6211   1.063   0.410   2.718  0.8454 -1.4956 -0.1867
 1553SOL    MW4 6212   1.121   0.463   2.756 -0.2123 -0.5001  0.0598
 1554SOL     OW 6213   1.110   0.731   2.700 -0.7075 -0.0070 -0.4368
 1554SOL    HW2 6214   1.187   0.780   2.730 -0.6303 -0.3766 -0.0179
 1554SOL    HW3 6215   1.119   0.727   2.605  0.1609 -0.6512 -0.3343
 1554SOL    MW4 6216   1.122   0.737   2.692 -0.5827 -0.1407 -0.3680
 1555SOL     OW 6217   0.889   0.904   2.734 -0.3073 -0.1079  0.0328
 1555SOL    HW2 6218   0.882   0.916   2.829  1.0845 -2.6885  0.4956
 1555SOL    HW3 6219   0.965   0.847   2.723 -1.0656 -0.6638 -2.5776
 1555SOL    MW4 6220   0.898   0.898   2.745 -0.2237 -0.5217 -0.2505
 1556SOL     OW 6221   0.907   1.172   2.671  0.1985  0.0364 -0.1560
 1556SOL    HW2 6222   0.915   1.077   2.676 -1.0235 -0.2041 -2.1077
 1556SOL    HW3 6223   0.884   1.189   2.579  1.4251  2.2935 -0.0771
 1556SOL    MW4 6224   0.905   1.162   2.659  0.1991  0.3025 -0.4031
 1557SOL     OW 6225   1.116   1.290   2.820 -0.1810 -0.1244  0.1306
 1557SOL    HW2 6226   1.141   1.379   2.795  1.6158 -0.4916  0.5257
 1557SOL    HW3 6227   1.041   1.270   2.764  1.0493  0.6694 -1.8726
 1557SOL    MW4 6228   1.110   1.299   2.809  0.2184 -0.0681 -0.0816
 1558SOL     OW 6229   1.142   1.535   2.718  0.0679  0.7852  0.3457
 1558SOL    HW2 6230   1.050   1.561   2.728 -0.6335 -1.2309 -0.4508
 1558SOL    HW3 6231   1.155   1.531   2.623  1.3361  2.1985  0.4543
 1558SOL    MW4 6232   1.131   1.538   2.707  0.1427  0.7057  0.2550
 1559SOL     OW 6233   0.903   1.626   2.807 -0.0463 -0.2577 -0.0580
 1559SOL    HW2 6234   0.910   1.656   2.897  1.4249 -0.3481 -0.1324
 1559SOL    HW3 6235   0.809   1.614   2.793 -0.2400 -0.9224  1.6685
 1559SOL    MW4 6236   0.891   1.629   2.817  0.1222 -0.3573  0.1600
 1560SOL     OW 6237   0.893   1.884   2.689 -0.2180 -0.3428  0.2794
 1560SOL    HW2 6238   0.977   1.928   2.704 -0.0738 -0.3885 -0.3952
 1560SOL    HW3 6239   0.902   1.799   2.732 -0.3230  0.0908  1.1751
 1560SOL    MW4 6240   0.905   1.879   2.697 -0.2128 -0.2916  0.3086
 1561SOL     OW 6241   1.130   2.037   2.763 -0.0280 -0.0405 -0.5637
 1561SOL    HW2 6242   1.219   2.011   2.739 -0.0174  0.0417 -0.6138
 1561SOL    HW3 6243   1.120   2.126   2.727  0.6741  0.8862  1.4611
 1561SOL    MW4 6244   1.140   2.046   2.755  0.0660  0.0926 -0.3032
 1562SOL     OW 6245   1.085   2.305   2.685  0.4149 -0.4166  0.6082
 1562SOL    HW2 6246   1.172   2.341   2.702  0.3468 -0.1674  0.4358
 1562SOL    HW3 6247   1.081   2.297   2.590 -0.2373  0.8120  0.5171
 1562SOL    MW4 6248   1.096   2.309   2.675  0.3199 -0.2216  0.5734
 1563SOL     OW 6249   0.887   2.463   2.791  0.2964  0.1747 -0.5338
 1563SOL    HW2 6250   0.885   2.542   2.737 -0.3376 -1.0629 -2.3753
 1563SOL    HW3 6251   0.964   2.415   2.760  0.0451 -0.4510 -0.2091
 1563SOL    MW4 6252   0.897   2.467   2.780  0.1796 -0.0712 -0.7339
 1564SOL     OW 6253   0.890   2.708   2.648 -0.0770  0.0220  0.4991
 1564SOL    HW2 6254   0.944   2.759   2.708 -0.1989  0.3732  0.3090
 1564SOL    HW3 6255   0.805   2.753   2.647  0.2216  0.5759 -0.6776
 1564SOL    MW4 6256   0.886   2.720   2.656 -0.0537  0.1414  0.3187
 1565SOL     OW 6257   1.110   2.851   2.773  0.0850  0.0014 -0.1302
 1565SOL    HW2 6258   1.097   2.837   2.867  1.1998  0.2887  0.0633
 1565SOL    HW3 6259   1.181   2.791   2.750 -0.9346 -0.8897 -1.0223
 1565SOL    MW4 6260   1.118   2.841   2.783  0.0975 -0.0783 -0.2223
 1566SOL     OW 6261   1.114   3.111   2.686  0.0561  0.1418 -0.0967
 1566SOL    HW2 6262   1.105   3.019   2.712 -1.3604 -0.0244 -1.1012
 1566SOL    HW3 6263   1.140   3.107   2.594  1.6733  0.7402  0.3256
 1566SOL    MW4 6264   1.116   3.098   2.677  0.0826  0.1988 -0.1735
 1567SOL     OW 6265   0.880   3.221   2.786  0.1621  0.0773  0.0958
 1567SOL    HW2 6266   0.874   3.301   2.735  1.1634  0.6527  0.8628
 1567SOL    HW3 6267   0.955   3.174   2.748 -1.3274 -1.2357 -1.3450
 1567SOL    MW4 6268   0.889   3.225   2.774  0.0977 -0.0200  0.0069
 1568SOL     OW 6269   0.887   3.462   2.641  0.0000  0.0000 -0.5332
 1568SOL    HW2 6270   0.961   3.508   2.681  0.0000  0.0000 -0.5568
 1568SOL    HW3 6271   0.810   3.511   2.672  0.0000  0.0000 -0.5177
 1568SOL    MW4 6272   0.887   3.475   2.650  0.0000  0.0000 -0.5342
 1569SOL     OW 6273   1.102   3.599   2.751  0.0000  0.0000  0.3860
 1569SOL    HW2 6274   1.101   3.626   2.843  0.0000  0.0000  0.3859
 1569SOL    HW3 6275   1.100   3.681   2.702  0.0000  0.0000  0.3850
 1569SOL    MW4 6276   1.102   3.613   2.757  0.0000  0.0000  0.3858
 1570SOL     OW 6277   1.098   3.851   2.640  0.0000  0.0000  0.1253
 1570SOL    HW2 6278   1.178   3.889   2.678  0.0000  0.0000  0.1337
 1570SOL    HW3 6279   1.110   3.859   2.546  0.0000  0.0000  0.1266
 1570SOL    MW4 6280   1.110   3.857   2.633  0.0000  0.0000  0.1266
 1571SOL     OW 6281   0.893   4.008   2.748  0.0000  0.0000  0.0799
 1571SOL    HW2 6282   0.958   3.964   2.694  0.0000  0.0000  0.0847
 1571SOL    HW3 6283   0.809   3.970   2.719  0.0000  0.0000  0.0877
 1571SOL    MW4 6284   0.890   3.997   2.737  0.0000  0.0000  0.0816
 1572SOL     OW 6285   0.888   4.266   2.664  0.0000  0.0000 -0.1748
 1572SOL    HW2 6286   0.892   4.174   2.690  0.0000  0.0000 -0.1707
 1572SOL    HW3 6287   0.884   4.265   2.569  0.0000  0.0000 -0.1746
 1572SOL    MW4 6288   0.888   4.254   2.655  0.0000  0.0000 -0.1742
 1573SOL     OW 6289   1.144   4.351   2.781  0.0000  0.0000  0.1121
 1573SOL    HW2 6290   1.137   4.378   2.872  0.0000  0.0000  0.1123
 1573SOL    HW3 6291   1.055   4.327   2.756  0.0000  0.0000  0.1190
 1573SOL    MW4 6292   1.131   4.351   2.789  0.0000  0.0000  0.1130
 1574SOL     OW 6293   1.593   4.643   2.690  0.0000  0.0000 -0.0323
 1574SOL    HW2 6294   1.588   4.549   2.707  0.0000  0.0000 -0.0215
 1574SOL    HW3 6295   1.581   4.652   2.596  0.0000  0.0000 -0.0333
 1574SOL    MW4 6296   1.591   4.632   2.680  0.0000  0.0000 -0.0310
 1575SOL     OW 6297   1.351   0.086   2.782  0.0000  0.0000 -0.2483
 1575SOL    HW2 6298   1.350   0.171   2.738  0.0000  0.0000 -0.2072
 1575SOL    HW3 6299   1.436   0.049   2.758  0.0000  0.0000 -0.3076
 1575SOL    MW4 6300   1.362   0.092   2.773  0.0000  0.0000 -0.2507
 1576SOL     OW 6301   1.360   0.344   2.681  0.0000  0.0000  0.0984
 1576SOL    HW2 6302   1.437   0.386   2.720  0.0000  0.0000  0.0856
 1576SOL    HW3 6303   1.286   0.394   2.715  0.0000  0.0000  0.1363
 1576SOL    MW4 6304   1.360   0.356   2.691  0.0000  0.0000  0.1017
 1577SOL     OW 6305   1.565   0.503   2.778 -0.1650  0.1444 -0.2323
 1577SOL    HW2 6306   1.648   0.468   2.743 -0.7294 -0.6306 -0.8051
 1577SOL    HW3 6307   1.550   0.583   2.727 -0.8708 -0.8642 -1.6343
 1577SOL    MW4 6308   1.574   0.509   2.767 -0.3326 -0.0909 -0.4929
 1578SOL     OW 6309   1.545   0.756   2.653  0.1226  0.0190 -0.0825
 1578SOL    HW2 6310   1.463   0.798   2.680  0.1756 -0.3565  0.6652
 1578SOL    HW3 6311   1.546   0.767   2.558 -0.9793 -0.2707 -0.1465
 1578SOL    MW4 6312   1.534   0.763   2.644 -0.0158 -0.0687  0.0077
 1579SOL     OW 6313   1.326   0.884   2.781 -0.0028 -0.2582 -0.2201
 1579SOL    HW2 6314   1.339   0.894   2.875  0.4347  0.7162 -0.3752
 1579SOL    HW3 6315   1.331   0.973   2.746 -1.0089 -0.5072 -1.0625
 1579SOL    MW4 6316   1.328   0.897   2.789 -0.0778 -0.1625 -0.3517
 1580SOL     OW 6317   1.310   1.142   2.686 -0.2033  0.6337 -0.0275
 1580SOL    HW2 6318   1.395   1.172   2.718 -0.4758 -0.2305  1.5258
 1580SOL    HW3 6319   1.246   1.193   2.736 -0.6339 -1.0168  1.1619
 1580SOL    MW4 6320   1.312   1.153   2.697 -0.2960  0.3019  0.3344
 1581SOL     OW 6321   1.543   1.255   2.746  0.5430 -0.0317  0.1554
 1581SOL    HW2 6322   1.559   1.263   2.840 -0.7812  0.0619  0.3839
 1581SOL    HW3 6323   1.622   1.213   2.711  0.5708 -1.0933  1.4755
 1581SOL    MW4 6324   1.556   1.250   2.753  0.3720 -0.1594  0.3597
 1582SOL     OW 6325   1.581   1.535   2.674  0.1991  0.0607  0.0096
 1582SOL    HW2 6326   1.572   1.441   2.686  1.4576 -0.2014 -0.9846
 1582SOL    HW3 6327   1.571   1.549   2.580  0.0618  0.9054  0.1468
 1582SOL    MW4 6328   1.579   1.525   2.663  0.3470  0.1376 -0.1034
 1583SOL     OW 6329   1.378   1.703   2.782 -0.3753  0.3523 -0.4922
 1583SOL    HW2 6330   1.447   1.652   2.739 -0.1230 -0.2368  0.5905
 1583SOL    HW3 6331   1.297   1.658   2.759 -0.0393 -1.5243  1.7242
 1583SOL    MW4 6332   1.376   1.691   2.774 -0.2976  0.0270 -0.0569
 1584SOL     OW 6333   1.379   1.956   2.651 -0.2556  0.1407 -0.5181
 1584SOL    HW2 6334   1.381   1.867   2.689  0.3067 -0.1769 -1.2688
 1584SOL    HW3 6335   1.359   1.942   2.559 -0.3254  0.8130 -0.6052
 1584SOL    MW4 6336   1.377   1.942   2.644 -0.1906  0.1875 -0.6287
 1585SOL     OW 6337   1.600   2.033   2.790 -0.3184  0.2000  0.2670
 1585SOL    HW2 6338   1.673   1.980   2.758 -1.3517 -0.6945 -0.6940
 1585SOL    HW3 6339   1.523   1.997   2.745 -1.0837  2.4391 -0.2939
 1585SOL    MW4 6340   1.599   2.021   2.779 -0.5557  0.3774  0.0662
 1586SOL     OW 6341   1.578   2.275   2.658 -0.1142  0.2035  0.3815
 1586SOL    HW2 6342   1.638   2.314   2.721 -1.3501  0.1840  1.5964
 1586SOL    HW3 6343   1.567   2.184   2.688  0.2729 -0.1828 -0.6038
 1586SOL    MW4 6344   1.584   2.268   2.670 -0.2262  0.1499  0.4118
 1587SOL     OW 6345   1.334   2.411   2.748 -0.3576  0.0288 -0.0793
 1587SOL    HW2 6346   1.350   2.496   2.706  1.8145  0.2719  1.1920
 1587SOL    HW3 6347   1.410   2.358   2.724 -2.0485 -1.8382 -1.4714
 1587SOL    MW4 6348   1.346   2.416   2.739 -0.2941 -0.1855 -0.0953
 1588SOL     OW 6349   1.335   2.708   2.673  0.0973 -0.0925 -0.3922
 1588SOL    HW2 6350   1.412   2.763   2.686 -0.9495  1.6631 -1.3676
 1588SOL    HW3 6351   1.319   2.711   2.579 -0.2354 -1.7186 -0.3906
 1588SOL    MW4 6352   1.343   2.716   2.662 -0.0847 -0.0754 -0.5207
 1589SOL     OW 6353   1.605   2.831   2.771  0.3592  0.2008  0.2110
 1589SOL    HW2 6354   1.599   2.825   2.866 -1.3402  0.3864  0.1306
 1589SOL    HW3 6355   1.681   2.778   2.749  0.9036  0.3414  1.6885
 1589SOL    MW4 6356   1.614   2.823   2.780  0.2068  0.2438  0.3953
 1590SOL     OW 6357   1.551   3.094   2.673  0.1992 -0.3274 -0.0172
 1590SOL    HW2 6358   1.636   3.130   2.697  0.2574  0.1886 -0.9346
 1590SOL    HW3 6359   1.554   3.002   2.699  0.9125 -0.2235  0.2609
 1590SOL    MW4 6360   1.563   3.087   2.679  0.3010 -0.2456 -0.1016
 1591SOL     OW 6361   1.341   3.208   2.812  0.1969 -0.2686  0.3441
 1591SOL    HW2 6362   1.412   3.175   2.757  0.3156  1.5623 -0.6621
 1591SOL    HW3 6363   1.261   3.173   2.773  0.4335 -0.8722  0.4013
 1591SOL    MW4 6364   1.340   3.199   2.800  0.2438 -0.1067  0.2189
 1592SOL     OW 6365   1.334   3.474   2.696 -0.2189  0.0278  0.4669
 1592SOL    HW2 6366   1.323   3.383   2.722 -1.0257 -0.0284 -0.0849
 1592SOL    HW3 6367   1.251   3.516   2.720 -0.4429  0.2781 -0.7457
 1592SOL    MW4 6368   1.322   3.468   2.703 -0.3549  0.0534  0.2341
 1593SOL     OW 6369   1.583   3.595   2.760 -0.2257 -0.0290 -0.2032
 1593SOL    HW2 6370   1.655   3.554   2.712  0.2646 -0.4248  0.8520
 1593SOL    HW3 6371   1.506   3.541   2.737 -0.0301 -0.1078 -0.6796
 1593SOL    MW4 6372   1.582   3.582   2.751 -0.1352 -0.0916 -0.1269
 1594SOL     OW 6373   1.556   3.847   2.610 -0.0379 -0.0894  0.0634
 1594SOL    HW2 6374   1.479   3.887   2.649  0.1368  0.1854  0.1281
 1594SOL    HW3 6375   1.571   3.768   2.662  1.8764  1.7304  2.3817
 1594SOL    MW4 6376   1.548   3.842   2.622  0.2377  0.1870  0.3778
 1595SOL     OW 6377   1.340   3.963   2.734 -0.1163 -0.1861  0.2824
 1595SOL    HW2 6378   1.333   3.964   2.830  0.3809 -0.3265  0.3190
 1595SOL    HW3 6379   1.363   4.053   2.711 -1.6398  0.1895  0.1896
 1595SOL    MW4 6380   1.342   3.975   2.744 -0.2517 -0.1551  0.2750
 1596SOL     OW 6381   1.348   4.220   2.650 -0.2196  0.2572  0.7257
 1596SOL    HW2 6382   1.267   4.261   2.681 -0.2153  1.4903 -0.8512
 1596SOL    HW3 6383   1.345   4.228   2.555  0.9832 -1.1742  0.5409
 1596SOL    MW4 6384   1.337   4.226   2.642 -0.0603  0.2310  0.4933
 1597SOL     OW 6385   1.590   4.357   2.720  0.4099  0.1661  0.2572
 1597SOL    HW2 6386   1.576   4.339   2.813 -1.6207 -0.7652 -0.1939
 1597SOL    HW3 6387   1.508   4.330   2.678  1.3175  0.5276 -1.8054
 1597SOL    MW4 6388   1.577   4.351   2.726  0.2617  0.0909 -0.0745
 1598SOL     OW 6389   2.003   4.632   2.669 -0.1721  0.0114 -0.3116
 1598SOL    HW2 6390   2.087   4.658   2.707 -0.2359 -1.0653  0.6090
 1598SOL    HW3 6391   2.006   4.664   2.579  0.5779  1.3440  0.1740
 1598SOL    MW4 6392   2.015   4.640   2.662 -0.0816  0.0452 -0.1261
 1599SOL     OW 6393   1.821   0.122   2.787 -0.3022 -0.1893  0.0794
 1599SOL    HW2 6394   1.887   0.060   2.756 -0.2559  0.3512 -0.9160
 1599SOL    HW3 6395   1.739   0.092   2.747  0.0494  1.5168 -2.0094
 1599SOL    MW4 6396   1.819   0.110   2.778 -0.2497  0.1071 -0.3275
 1600SOL     OW 6397   1.819   0.385   2.702 -0.5234  0.1726 -0.5809
 1600SOL    HW2 6398   1.900   0.413   2.745 -1.1657  0.2974  0.5661
 1600SOL    HW3 6399   1.809   0.293   2.727 -1.5880  0.6094  0.6205
 1600SOL    MW4 6400   1.829   0.376   2.711 -0.7486  0.2467 -0.2710
 1601SOL     OW 6401   2.056   0.502   2.824  0.4201 -0.3415  0.0837
 1601SOL    HW2 6402   2.127   0.461   2.774  0.0111 -0.1799 -0.6281
 1601SOL    HW3 6403   2.044   0.587   2.783  0.2861 -0.0803  0.6533
 1601SOL    MW4 6404   2.064   0.508   2.812  0.3485 -0.2857  0.0649
 1602SOL     OW 6405   1.998   0.743   2.704 -0.0259 -0.0744  0.3721
 1602SOL    HW2 6406   1.918   0.793   2.721  0.5913  0.5731  1.3702
 1602SOL    HW3 6407   2.012   0.752   2.610 -1.5816 -0.8825  0.0375
 1602SOL    MW4 6408   1.989   0.751   2.694 -0.1497 -0.0956  0.4596
 1603SOL     OW 6409   1.770   0.883   2.774 -0.5624  0.3906  0.2007
 1603SOL    HW2 6410   1.755   0.972   2.745  0.6825 -0.1248 -2.1859
 1603SOL    HW3 6411   1.693   0.834   2.744  0.5945 -0.0858 -2.1546
 1603SOL    MW4 6412   1.758   0.888   2.766 -0.2455  0.2598 -0.4249
 1604SOL     OW 6413   1.760   1.128   2.652 -0.1079 -0.0586 -0.6901
 1604SOL    HW2 6414   1.836   1.170   2.691 -0.6737  0.4889 -0.1807
 1604SOL    HW3 6415   1.780   1.123   2.558  0.6143 -0.0533 -0.5333
 1604SOL    MW4 6416   1.773   1.133   2.645 -0.0872  0.0143 -0.6022
 1605SOL     OW 6417   1.980   1.281   2.768 -0.1003 -0.6647 -0.5309
 1605SOL    HW2 6418   1.990   1.289   2.863  1.3069  0.6869 -0.7697
 1605SOL    HW3 6419   2.058   1.236   2.738 -0.8589 -1.6998 -0.9824
 1605SOL    MW4 6420   1.991   1.276   2.776 -0.0147 -0.6230 -0.6220
 1606SOL     OW 6421   2.042   1.539   2.698 -0.1676  0.4169  0.1185
 1606SOL    HW2 6422   1.966   1.589   2.728  0.3773  1.4469 -0.2193
 1606SOL    HW3 6423   2.022   1.449   2.724 -0.6827  0.9486  1.6499
 1606SOL    MW4 6424   2.029   1.534   2.706 -0.1636  0.6230  0.2760
 1607SOL     OW 6425   1.822   1.680   2.778 -0.1273 -0.3849 -0.6330
 1607SOL    HW2 6426   1.832   1.662   2.871 -0.2954  0.1947 -0.5018
 1607SOL    HW3 6427   1.742   1.633   2.752 -0.6508  0.2923 -0.2591
 1607SOL    MW4 6428   1.813   1.671   2.787 -0.2186 -0.2191 -0.5663
 1608SOL     OW 6429   1.831   1.916   2.631  0.9490 -0.4146  0.2993
 1608SOL    HW2 6430   1.893   1.965   2.686  1.5456 -0.1384 -0.6089
 1608SOL    HW3 6431   1.830   1.828   2.668  1.1179 -0.1522  0.9364
 1608SOL    MW4 6432   1.839   1.911   2.643  1.0500 -0.3435  0.2635
 1609SOL     OW 6433   2.042   2.048   2.773 -0.3881 -0.1878  0.0723
 1609SOL    HW2 6434   2.035   2.043   2.869  1.4115  0.8973  0.2840
 1609SOL    HW3 6435   2.023   2.140   2.753  0.4001 -0.1524 -0.5065
 1609SOL    MW4 6436   2.038   2.060   2.783 -0.0467 -0.0400  0.0239
 1610SOL     OW 6437   1.987   2.314   2.702 -0.1641  0.2247  0.2264
 1610SOL    HW2 6438   2.045   2.385   2.728  0.3186  0.2974 -1.0028
 1610SOL    HW3 6439   1.996   2.310   2.607 -0.6346 -1.0920  0.2290
 1610SOL    MW4 6440   1.996   2.322   2.693 -0.1625  0.0606  0.0646
 1611SOL     OW 6441   1.770   2.447   2.791  0.3422  0.2882  0.1105
 1611SOL    HW2 6442   1.786   2.454   2.885  0.0258  1.1957  0.0960
 1611SOL    HW3 6443   1.847   2.401   2.757  0.7377  0.4959  0.7203
 1611SOL    MW4 6444   1.782   2.442   2.799  0.3526  0.4353  0.1890
 1612SOL     OW 6445   1.833   2.688   2.691 -0.1495  0.3596 -0.2724
 1612SOL    HW2 6446   1.801   2.602   2.718 -3.1097  1.4010 -0.3319
 1612SOL    HW3 6447   1.849   2.679   2.597  0.7246 -0.4398 -0.0623
 1612SOL    MW4 6448   1.831   2.675   2.682 -0.4248  0.3915 -0.2526
 1613SOL     OW 6449   2.029   2.816   2.830 -0.0492  0.1962  0.0477
 1613SOL    HW2 6450   2.101   2.794   2.770  0.5713 -1.5896  1.4057
 1613SOL    HW3 6451   1.953   2.774   2.791  0.2984 -0.7160  0.3293
 1613SOL    MW4 6452   2.029   2.807   2.817  0.0785 -0.1597  0.2640
 1614SOL     OW 6453   2.029   3.062   2.677  0.0227 -0.1232  0.0305
 1614SOL    HW2 6454   2.039   2.988   2.737 -0.2797 -0.1098  0.0957
 1614SOL    HW3 6455   2.048   3.024   2.591  0.3000 -0.1780  0.1146
 1614SOL    MW4 6456   2.033   3.047   2.673  0.0194 -0.1287  0.0502
 1615SOL     OW 6457   1.797   3.199   2.745  0.0543  0.1738 -0.3865
 1615SOL    HW2 6458   1.810   3.275   2.689  0.3312  0.0052 -0.5570
 1615SOL    HW3 6459   1.873   3.143   2.727 -0.0612 -0.0653 -0.1412
 1615SOL    MW4 6460   1.809   3.201   2.735  0.0756  0.1200 -0.3767
 1616SOL     OW 6461   1.816   3.493   2.632 -0.1728 -0.2402 -0.2008
 1616SOL    HW2 6462   1.890   3.546   2.662  0.6787 -0.3032 -2.0911
 1616SOL    HW3 6463   1.833   3.479   2.538 -1.9614 -1.2730 -0.3982
 1616SOL    MW4 6464   1.828   3.498   2.623 -0.2965 -0.3848 -0.4762
 1617SOL     OW 6465   2.033   3.606   2.727 -0.2448  0.1735  0.4659
 1617SOL    HW2 6466   2.037   3.594   2.821  0.7407  0.2155  0.4312
 1617SOL    HW3 6467   2.086   3.535   2.691  0.3909  0.8845 -0.0026
 1617SOL    MW4 6468   2.041   3.595   2.734 -0.0309  0.2728  0.3995
 1618SOL     OW 6469   2.012   3.862   2.642 -0.1748 -0.2738 -0.1855
 1618SOL    HW2 6470   1.924   3.894   2.660 -0.5372 -0.7430 -1.0593
 1618SOL    HW3 6471   2.010   3.770   2.670  0.0800 -0.2428 -0.0668
 1618SOL    MW4 6472   2.000   3.854   2.648 -0.1890 -0.3316 -0.2851
 1619SOL     OW 6473   1.774   3.955   2.753  0.2274  0.7679 -0.1305
 1619SOL    HW2 6474   1.792   4.049   2.742  0.2536  1.1092  2.4821
 1619SOL    HW3 6475   1.696   3.939   2.699 -1.2419  2.8478  1.2839
 1619SOL    MW4 6476   1.766   3.966   2.744  0.0370  1.0874  0.4008
 1620SOL     OW 6477   1.811   4.223   2.660  0.3820  0.0127 -0.4353
 1620SOL    HW2 6478   1.725   4.262   2.673  1.1467  1.7504 -0.4733
 1620SOL    HW3 6479   1.820   4.215   2.565  0.4872  0.3715 -0.4575
 1620SOL    MW4 6480   1.801   4.227   2.649  0.4967  0.2893 -0.4433
 1621SOL     OW 6481   2.015   4.373   2.759  0.5493  0.0550 -0.1708
 1621SOL    HW2 6482   1.942   4.322   2.725  1.2754 -1.6653  0.8262
 1621SOL    HW3 6483   2.000   4.461   2.724 -1.9288 -0.2847 -0.0755
 1621SOL    MW4 6484   2.003   4.378   2.750  0.3182 -0.2168 -0.0267
 1622SOL     OW 6485   2.462   4.616   2.695  0.5068 -0.0297  0.2501
 1622SOL    HW2 6486   2.540   4.659   2.730  0.7227 -0.6063  0.4864
 1622SOL    HW3 6487   2.476   4.616   2.600 -0.5885  2.5216  0.0500
 1622SOL    MW4 6488   2.474   4.621   2.687  0.3908  0.2308  0.2549
 1623SOL     OW 6489   2.244   0.099   2.775  0.0292 -0.4278  0.1789
 1623SOL    HW2 6490   2.248   0.111   2.870 -1.4409 -0.0785  0.2114
 1623SOL    HW3 6491   2.321   0.046   2.755  0.9740  0.4207  1.4103
 1623SOL    MW4 6492   2.255   0.094   2.785 -0.0401 -0.2698  0.3457
 1624SOL     OW 6493   2.261   0.370   2.693 -0.1922 -0.1350 -0.5835
 1624SOL    HW2 6494   2.246   0.276   2.706  0.4596 -0.3544 -1.4231
 1624SOL    HW3 6495   2.284   0.378   2.601  1.0939  0.6860 -0.1958
 1624SOL    MW4 6496   2.262   0.359   2.682  0.0635 -0.0557 -0.6431
 1625SOL     OW 6497   2.488   0.495   2.838 -0.4990  0.6433 -0.7603
 1625SOL    HW2 6498   2.487   0.582   2.797 -0.4213  0.7655 -0.5053
 1625SOL    HW3 6499   2.412   0.451   2.801 -2.2264  1.8272  1.2756
 1625SOL    MW4 6500   2.478   0.501   2.827 -0.7167  0.8156 -0.4580
 1626SOL     OW 6501   2.453   0.735   2.692 -0.3375 -0.0446 -0.2213
 1626SOL    HW2 6502   2.370   0.777   2.715 -0.1851  0.3513 -0.3853
 1626SOL    HW3 6503   2.462   0.751   2.598 -0.6476 -1.1061 -0.4398
 1626SOL    MW4 6504   2.443   0.743   2.683 -0.3583 -0.1324 -0.2717
 1627SOL     OW 6505   2.242   0.892   2.782 -0.3631 -0.0876 -0.3237
 1627SOL    HW2 6506   2.251   0.881   2.877  1.1072 -1.7008 -0.6260
 1627SOL    HW3 6507   2.161   0.846   2.760 -0.3586 -0.2827  0.0688
 1627SOL    MW4 6508   2.233   0.884   2.792 -0.1685 -0.3262 -0.3118
 1628SOL     OW 6509   2.184   1.134   2.675 -0.1237 -0.0239  0.0572
 1628SOL    HW2 6510   2.203   1.048   2.713 -1.9256 -0.8427 -0.8449
 1628SOL    HW3 6511   2.218   1.128   2.586 -1.2414 -0.2001 -0.3629
 1628SOL    MW4 6512   2.191   1.122   2.669 -0.5089 -0.1552 -0.1173
 1629SOL     OW 6513   2.404   1.271   2.794 -0.2942 -0.4029 -0.2429
 1629SOL    HW2 6514   2.488   1.229   2.774  0.4206  1.0617 -0.3288
 1629SOL    HW3 6515   2.342   1.230   2.733  0.3015 -1.6364 -0.0425
 1629SOL    MW4 6516   2.407   1.260   2.783 -0.1213 -0.3724 -0.2278
 1630SOL     OW 6517   2.471   1.540   2.673 -0.0076 -0.1321 -0.2822
 1630SOL    HW2 6518   2.404   1.591   2.719  1.3074  0.5365  0.9305
 1630SOL    HW3 6519   2.461   1.451   2.707  1.2853  0.4567  1.7341
 1630SOL    MW4 6520   2.461   1.535   2.684  0.3365  0.0338  0.1438
 1631SOL     OW 6521   2.266   1.651   2.832  0.1083 -0.7613 -0.2327
 1631SOL    HW2 6522   2.258   1.739   2.796 -0.8296  0.1733  2.1789
 1631SOL    HW3 6523   2.191   1.603   2.796  0.7541 -0.6822 -1.7390
 1631SOL    MW4 6524   2.255   1.656   2.822  0.0697 -0.6275 -0.1133
 1632SOL     OW 6525   2.263   1.892   2.707  0.1050 -0.3050  0.7003
 1632SOL    HW2 6526   2.178   1.927   2.731  0.4098  0.3739  0.8125
 1632SOL    HW3 6527   2.263   1.892   2.611  0.4217  0.8054  0.6938
 1632SOL    MW4 6528   2.252   1.897   2.697  0.1870 -0.0689  0.7143
 1633SOL     OW 6529   2.449   2.063   2.810 -0.0849 -0.3450  0.0967
 1633SOL    HW2 6530   2.434   2.148   2.769 -1.5686 -0.0222  1.2440
 1633SOL    HW3 6531   2.397   2.002   2.757  0.1548 -0.3695 -0.1108
 1633SOL    MW4 6532   2.440   2.066   2.797 -0.2490 -0.3057  0.2207
 1634SOL     OW 6533   2.399   2.305   2.658  0.2110  0.5660  0.3850
 1634SOL    HW2 6534   2.476   2.360   2.667  0.4848  0.0769  1.0183
 1634SOL    HW3 6535   2.394   2.287   2.564  0.0627  1.7409  0.1622
 1634SOL    MW4 6536   2.408   2.310   2.646  0.2275  0.6565  0.4391
 1635SOL     OW 6537   2.221   2.464   2.782  0.1303 -0.6235  0.7858
 1635SOL    HW2 6538   2.232   2.465   2.877  0.1360  0.6645  0.7834
 1635SOL    HW3 6539   2.283   2.398   2.752  0.2275 -0.9464  1.6687
 1635SOL    MW4 6540   2.231   2.456   2.791  0.1439 -0.4961  0.9020
 1636SOL     OW 6541   2.228   2.730   2.654 -0.1280 -0.5426 -0.2358
 1636SOL    HW2 6542   2.298   2.782   2.694  0.2780 -1.0658 -0.2621
 1636SOL    HW3 6543   2.242   2.641   2.687 -0.4731 -0.7537 -0.6515
 1636SOL    MW4 6544   2.239   2.725   2.664 -0.1200 -0.6394 -0.2942
 1637SOL     OW 6545   2.436   2.871   2.769  0.2620 -0.0163 -0.2132
 1637SOL    HW2 6546   2.518   2.829   2.745  0.5393  0.1021  0.5019
 1637SOL    HW3 6547   2.451   2.964   2.751  0.3393  0.0245  0.0601
 1637SOL    MW4 6548   2.449   2.878   2.764  0.3088  0.0047 -0.0828
 1638SOL     OW 6549   2.484   3.128   2.695  0.0957  0.6695  0.0964
 1638SOL    HW2 6550   2.397   3.156   2.724 -0.6594 -0.2165 -1.2839
 1638SOL    HW3 6551   2.476   3.119   2.600  1.4754 -0.1967  0.0498
 1638SOL    MW4 6552   2.472   3.131   2.687  0.1781  0.4383 -0.0919
 1639SOL     OW 6553   2.236   3.204   2.764 -0.3881 -0.2094 -0.6846
 1639SOL    HW2 6554   2.237   3.211   2.859  1.9739 -1.5588 -0.5699
 1639SOL    HW3 6555   2.157   3.153   2.745 -1.6883  1.3497  0.4088
 1639SOL    MW4 6556   2.225   3.198   2.774 -0.2480 -0.1818 -0.5252
 1640SOL     OW 6557   2.226   3.440   2.631  0.6206 -0.3045  0.2335
 1640SOL    HW2 6558   2.301   3.487   2.667  1.4527 -0.9355 -0.6407
 1640SOL    HW3 6559   2.230   3.353   2.670  0.3151 -0.3226  0.2278
 1640SOL    MW4 6560   2.236   3.435   2.641  0.6901 -0.3902  0.1174
 1641SOL     OW 6561   2.453   3.561   2.743 -0.2266 -0.3867  0.4073
 1641SOL    HW2 6562   2.448   3.578   2.837 -1.7777  0.8652  0.1219
 1641SOL    HW3 6563   2.485   3.643   2.705  0.5576 -0.9371 -0.1519
 1641SOL    MW4 6564   2.457   3.574   2.750 -0.3278 -0.2941  0.2959
 1642SOL     OW 6565   2.477   3.830   2.631 -0.2121  0.5142 -0.3289
 1642SOL    HW2 6566   2.542   3.891   2.665 -0.5958  0.3200  0.7605
 1642SOL    HW3 6567   2.394   3.863   2.663 -0.5795  0.3066 -1.0558
 1642SOL    MW4 6568   2.475   3.842   2.640 -0.3112  0.4612 -0.2811
 1643SOL     OW 6569   2.244   3.970   2.736  1.0998 -0.6088  0.2231
 1643SOL    HW2 6570   2.221   3.984   2.828 -0.7366  3.0375 -0.7100
 1643SOL    HW3 6571   2.166   3.929   2.698  0.7406  0.5657 -0.3166
 1643SOL    MW4 6572   2.231   3.966   2.743  0.8101  0.0272  0.0288
 1644SOL     OW 6573   2.245   4.247   2.638 -0.0832  0.2174  0.0049
 1644SOL    HW2 6574   2.248   4.162   2.681  1.1181  0.4846  0.4693
 1644SOL    HW3 6575   2.163   4.286   2.668 -1.1056 -1.1551 -0.9634
 1644SOL    MW4 6576   2.235   4.241   2.647 -0.0596  0.0716 -0.0616
 1645SOL     OW 6577   2.479   4.328   2.726 -0.4651 -0.1700  0.0411
 1645SOL    HW2 6578   2.403   4.289   2.682  1.0485 -2.2240 -0.8143
 1645SOL    HW3 6579   2.482   4.418   2.694 -2.4740 -0.0802  0.0299
 1645SOL    MW4 6580   2.469   4.335   2.716 -0.5305 -0.4292 -0.0732
 1646SOL     OW 6581   2.893   0.010   2.682  0.4859 -0.2241  0.3278
 1646SOL    HW2 6582   2.987   0.025   2.694  0.4709  0.3564 -0.2801
 1646SOL    HW3 6583   2.884  -0.012   2.589 -0.2033  1.4674 -0.0191
 1646SOL    MW4 6584   2.905   0.009   2.671  0.3930  0.0756  0.2019
 1647SOL     OW 6585   2.663   0.109   2.812 -0.1073 -0.2586  0.3399
 1647SOL    HW2 6586   2.657   0.112   2.907  3.1695  2.6502  0.5321
 1647SOL    HW3 6587   2.751   0.078   2.794 -0.8027 -1.1024 -1.7852
 1647SOL    MW4 6588   2.674   0.105   2.822  0.2333  0.0139  0.0849
 1648SOL     OW 6589   2.674   0.365   2.705  0.0083  0.4660  0.4816
 1648SOL    HW2 6590   2.671   0.274   2.735 -0.5100  0.3498  0.0822
 1648SOL    HW3 6591   2.611   0.411   2.759 -1.7449  0.0355 -1.1416
 1648SOL    MW4 6592   2.665   0.359   2.716 -0.2914  0.3939  0.2147
 1649SOL     OW 6593   2.911   0.488   2.796  0.1207  0.2415 -0.5172
 1649SOL    HW2 6594   2.892   0.571   2.754 -0.3822 -0.7471 -2.3016
 1649SOL    HW3 6595   2.835   0.433   2.776  0.4602 -0.6544  0.5976
 1649SOL    MW4 6596   2.898   0.492   2.788  0.0992 -0.0071 -0.6055
 1650SOL     OW 6597   2.903   0.726   2.687  0.0566 -0.5497 -0.0506
 1650SOL    HW2 6598   2.987   0.766   2.711  0.8176 -2.1695  0.1050
 1650SOL    HW3 6599   2.842   0.799   2.680  1.3715  0.6058  0.3311
 1650SOL    MW4 6600   2.906   0.741   2.689  0.3305 -0.6110  0.0203
 1651SOL     OW 6601   2.662   0.902   2.760 -0.2839  0.4287 -0.0833
 1651SOL    HW2 6602   2.675   0.897   2.855 -1.4165 -0.1839  0.0531
 1651SOL    HW3 6603   2.586   0.846   2.744  0.7111 -0.5603 -1.5188
 1651SOL    MW4 6604   2.654   0.894   2.771 -0.3021  0.2174 -0.2547
 1652SOL     OW 6605   2.658   1.160   2.695  0.0728  0.0859 -0.0545
 1652SOL    HW2 6606   2.741   1.192   2.730  0.2057 -1.1994  0.8294
 1652SOL    HW3 6607   2.664   1.065   2.702 -0.0222 -0.2402 -3.2682
 1652SOL    MW4 6608   2.670   1.152   2.700  0.0778 -0.1267 -0.3619
 1653SOL     OW 6609   2.889   1.265   2.814  0.0039 -0.7701 -0.0660
 1653SOL    HW2 6610   2.897   1.265   2.910  2.9219  1.8645 -0.2361
 1653SOL    HW3 6611   2.962   1.212   2.783  0.7075  0.6447 -0.8847
 1653SOL    MW4 6612   2.900   1.258   2.823  0.4818 -0.2359 -0.1965
 1654SOL     OW 6613   2.885   1.527   2.719 -0.7532 -0.2554  0.1837
 1654SOL    HW2 6614   2.808   1.556   2.768 -1.5898 -0.8600 -0.7541
 1654SOL    HW3 6615   2.880   1.432   2.720 -0.3877 -0.2876 -0.4578
 1654SOL    MW4 6616   2.874   1.518   2.725 -0.8153 -0.3394 -0.0247
 1655SOL     OW 6617   2.672   1.682   2.799 -0.2577  0.0225  0.0708
 1655SOL    HW2 6618   2.664   1.656   2.891  2.0227 -1.9587 -0.2369
 1655SOL    HW3 6619   2.601   1.635   2.755  0.9046 -1.9862  0.2787
 1655SOL    MW4 6620   2.662   1.672   2.805  0.1966 -0.5040  0.0576
 1656SOL     OW 6621   2.676   1.934   2.688  0.1587 -0.1093 -0.4747
 1656SOL    HW2 6622   2.676   1.845   2.725 -1.3795 -0.0423 -0.2842
 1656SOL    HW3 6623   2.601   1.977   2.729  0.9014  1.2905 -0.5644
 1656SOL    MW4 6624   2.666   1.928   2.698  0.0537  0.0843 -0.4614
 1657SOL     OW 6625   2.888   2.092   2.751  0.1478  0.0184  0.0440
 1657SOL    HW2 6626   2.887   2.168   2.693 -0.0699  1.3388  1.7369
 1657SOL    HW3 6627   2.819   2.035   2.717  0.9747  0.0908 -1.8383
 1657SOL    MW4 6628   2.879   2.094   2.739  0.2282  0.2022  0.0190
 1658SOL     OW 6629   2.841   2.348   2.627 -0.1101 -0.1861  0.0816
 1658SOL    HW2 6630   2.912   2.392   2.674  2.2116 -2.6585 -0.9737
 1658SOL    HW3 6631   2.761   2.386   2.662  1.7009  1.6146  2.3763
 1658SOL    MW4 6632   2.840   2.359   2.638  0.4352 -0.2747  0.2451
 1659SOL     OW 6633   2.622   2.451   2.736 -0.2998  0.4152 -0.0439
 1659SOL    HW2 6634   2.636   2.439   2.830  1.0627  0.9569 -0.1579
 1659SOL    HW3 6635   2.627   2.546   2.723 -1.6093  0.4292 -0.5023
 1659SOL    MW4 6636   2.625   2.462   2.747 -0.2928  0.4885 -0.1194
 1660SOL     OW 6637   2.660   2.721   2.670  0.5761 -0.3561  0.1520
 1660SOL    HW2 6638   2.752   2.739   2.692  0.6381  0.1628 -0.4982
 1660SOL    HW3 6639   2.656   2.733   2.575 -0.4657  1.0182  0.3602
 1660SOL    MW4 6640   2.672   2.725   2.661  0.4468 -0.1063  0.0937
 1661SOL     OW 6641   2.938   2.777   2.756 -0.1647  0.1793  0.7099
 1661SOL    HW2 6642   2.926   2.775   2.851 -0.2042  1.4500  0.7493
 1661SOL    HW3 6643   2.936   2.871   2.734 -1.8739 -0.1704 -0.7623
 1661SOL    MW4 6644   2.936   2.789   2.766 -0.3954  0.3008  0.5209
 1662SOL     OW 6645   2.922   3.048   2.693 -0.2598 -0.2107 -0.3213
 1662SOL    HW2 6646   2.854   3.098   2.739 -0.1113 -0.5370  0.2650
 1662SOL    HW3 6647   2.912   3.072   2.601  0.8496  2.1253  0.1347
 1662SOL    MW4 6648   2.911   3.057   2.687 -0.0938  0.0544 -0.1838
 1663SOL     OW 6649   2.726   3.211   2.774  0.2207 -0.2481 -0.2640
 1663SOL    HW2 6650   2.749   3.299   2.745  1.2218 -0.8779 -1.4523
 1663SOL    HW3 6651   2.635   3.200   2.745 -0.3943  0.9042  1.1701
 1663SOL    MW4 6652   2.717   3.221   2.766  0.2716 -0.1791 -0.2315
 1664SOL     OW 6653   2.720   3.468   2.667 -0.5703 -0.1091  0.1489
 1664SOL    HW2 6654   2.633   3.498   2.691 -1.2595 -0.2789 -1.9737
 1664SOL    HW3 6655   2.715   3.455   2.572  0.6352 -3.7694  0.4990
 1664SOL    MW4 6656   2.708   3.470   2.657 -0.5022 -0.6145 -0.0849
 1665SOL     OW 6657   2.932   3.608   2.776  0.0672 -0.1235 -0.3941
 1665SOL    HW2 6658   2.928   3.603   2.871  0.5628 -0.0706 -0.3677
 1665SOL    HW3 6659   2.857   3.557   2.746  0.2636 -0.6620  0.0136
 1665SOL    MW4 6660   2.922   3.600   2.784  0.1585 -0.1875 -0.3368
 1666SOL     OW 6661   2.914   3.888   2.695  0.1036  0.1106 -0.3789
 1666SOL    HW2 6662   2.991   3.935   2.727  0.5135  0.1176 -1.3670
 1666SOL    HW3 6663   2.922   3.801   2.734 -0.4231  0.7048  1.0892
 1666SOL    MW4 6664   2.925   3.882   2.704  0.0882  0.1900 -0.3156
 1667SOL     OW 6665   2.668   4.000   2.745 -0.0022 -0.3613  0.0313
 1667SOL    HW2 6666   2.675   4.076   2.687 -0.2640 -0.1791  0.2372
 1667SOL    HW3 6667   2.749   3.952   2.731 -0.5637 -0.9294 -1.3541
 1667SOL    MW4 6668   2.679   4.004   2.735 -0.1108 -0.4122 -0.1243
 1668SOL     OW 6669   2.706   4.228   2.600  0.6206 -0.2362  0.0845
 1668SOL    HW2 6670   2.777   4.285   2.630 -0.6688  1.9132 -0.8664
 1668SOL    HW3 6671   2.627   4.268   2.635 -0.2248 -2.1141  0.3694
 1668SOL    MW4 6672   2.705   4.241   2.608  0.3389 -0.2004 -0.0034
 1669SOL     OW 6673   2.896   4.401   2.741 -0.2267 -0.0512  0.3438
 1669SOL    HW2 6674   2.899   4.397   2.837 -1.2676 -0.3121  0.3627
 1669SOL    HW3 6675   2.881   4.494   2.722  0.2137  0.0396  0.4223
 1669SOL    MW4 6676   2.895   4.413   2.751 -0.3059 -0.0737  0.3566
 1670SOL     OW 6677   3.352   4.631   2.689  0.0129  0.0755 -0.0313
 1670SOL    HW2 6678   3.350   4.541   2.721  1.9334  0.3928  1.0870
 1670SOL    HW3 6679   3.280   4.674   2.736 -0.6585 -0.7668 -0.2723
 1670SOL    MW4 6680   3.342   4.625   2.700  0.1777  0.0062  0.0845
 1671SOL     OW 6681   3.134   0.091   2.803 -0.5099  0.0877  0.2025
 1671SOL    HW2 6682   3.124   0.096   2.898 -1.5317  0.4880  0.0764
 1671SOL    HW3 6683   3.118   0.180   2.772  0.5889  0.1235 -0.2775
 1671SOL    MW4 6684   3.131   0.104   2.811 -0.4997  0.1452  0.1225
 1672SOL     OW 6685   3.151   0.365   2.742  0.3591 -0.1058 -0.0124
 1672SOL    HW2 6686   3.065   0.400   2.765  0.1558 -0.1647 -0.6692
 1672SOL    HW3 6687   3.152   0.366   2.647  0.7288 -0.9601 -0.0210
 1672SOL    MW4 6688   3.140   0.370   2.733  0.3810 -0.2263 -0.1002
 1673SOL     OW 6689   3.396   0.467   2.811  0.0119 -0.0528  0.1919
 1673SOL    HW2 6690   3.378   0.557   2.786  0.1956 -0.1016 -0.1122
 1673SOL    HW3 6691   3.313   0.422   2.801 -0.1478  0.1433  0.6135
 1673SOL    MW4 6692   3.383   0.473   2.807  0.0151 -0.0334  0.2074
 1674SOL     OW 6693   3.367   0.730   2.723  1.0987 -0.0354  0.1903
 1674SOL    HW2 6694   3.435   0.790   2.752  0.2316  1.2100 -0.3136
 1674SOL    HW3 6695   3.368   0.737   2.628  0.0981  0.1899  0.1900
 1674SOL    MW4 6696   3.376   0.738   2.714  0.8522  0.1586  0.1238
 1675SOL     OW 6697   3.151   0.870   2.802 -0.1469  0.3141  0.2837
 1675SOL    HW2 6698   3.161   0.879   2.897  0.6699  1.7818  0.0876
 1675SOL    HW3 6699   3.234   0.831   2.773  0.2072  1.2483  0.0165
 1675SOL    MW4 6700   3.164   0.866   2.811  0.0076  0.6310  0.2226
 1676SOL     OW 6701   3.098   1.140   2.697  0.8085  0.0316  0.1111
 1676SOL    HW2 6702   3.124   1.060   2.741 -0.5973  0.6822  2.2003
 1676SOL    HW3 6703   3.116   1.124   2.604  0.0586 -2.8696  0.4371
 1676SOL    MW4 6704   3.104   1.128   2.691  0.5241 -0.2654  0.4298
 1677SOL     OW 6705   3.362   1.267   2.794 -0.0542  0.6977  0.0883
 1677SOL    HW2 6706   3.358   1.266   2.890 -0.0141  0.0386  0.0862
 1677SOL    HW3 6707   3.277   1.233   2.766 -0.0756  0.9127 -0.1158
 1677SOL    MW4 6708   3.350   1.263   2.803 -0.0517  0.6391  0.0611
 1678SOL     OW 6709   3.359   1.504   2.658  0.2469  0.0211 -0.6252
 1678SOL    HW2 6710   3.281   1.549   2.692  0.4769  0.0454 -0.1182
 1678SOL    HW3 6711   3.354   1.416   2.695 -0.2194 -0.3790 -1.6437
 1678SOL    MW4 6712   3.348   1.498   2.667  0.2158 -0.0285 -0.6927
 1679SOL     OW 6713   3.132   1.642   2.753  0.3869  0.2395  0.1604
 1679SOL    HW2 6714   3.119   1.736   2.741  0.8366  0.5614  2.0188
 1679SOL    HW3 6715   3.046   1.603   2.738  0.4102  0.8312 -1.6005
 1679SOL    MW4 6716   3.119   1.649   2.750  0.4493  0.3600  0.1733
 1680SOL     OW 6717   3.111   1.930   2.687 -0.3639 -0.0649 -0.2087
 1680SOL    HW2 6718   3.195   1.963   2.718  0.0611 -1.6091  0.3368
 1680SOL    HW3 6719   3.048   1.998   2.711  0.8011  1.4235 -1.2449
 1680SOL    MW4 6720   3.113   1.943   2.694 -0.1541 -0.0723 -0.2735
 1681SOL     OW 6721   3.345   2.047   2.799  0.7067  0.1407  0.0570
 1681SOL    HW2 6722   3.325   2.043   2.893 -2.1420 -0.5220 -0.5335
 1681SOL    HW3 6723   3.342   2.140   2.778 -1.4703  0.1199  0.1085
 1681SOL    MW4 6724   3.342   2.059   2.809  0.0436  0.0505 -0.0141
 1682SOL     OW 6725   3.325   2.316   2.695  0.3630  0.1868 -0.1849
 1682SOL    HW2 6726   3.396   2.363   2.740  0.3962  0.3418 -0.3995
 1682SOL    HW3 6727   3.338   2.336   2.602  0.7081 -0.6929 -0.3301
 1682SOL    MW4 6728   3.336   2.325   2.689  0.4129  0.0912 -0.2324
 1683SOL     OW 6729   3.070   2.419   2.778 -0.0142  0.2152 -0.1741
 1683SOL    HW2 6730   3.089   2.503   2.736  0.6050  0.7681  1.1990
 1683SOL    HW3 6731   3.148   2.366   2.763  1.0123  1.0879  1.9468
 1683SOL    MW4 6732   3.083   2.423   2.770  0.2029  0.4033  0.2869
 1684SOL     OW 6733   3.172   2.660   2.659  0.0402 -0.2712 -0.1256
 1684SOL    HW2 6734   3.240   2.708   2.705 -0.4862  1.8929 -1.5520
 1684SOL    HW3 6735   3.091   2.706   2.679 -0.7104 -1.5225 -0.2155
 1684SOL    MW4 6736   3.170   2.672   2.668 -0.1283 -0.1508 -0.3257
 1685SOL     OW 6737   3.319   2.830   2.803  0.5761  0.0602 -0.4032
 1685SOL    HW2 6738   3.316   2.847   2.898  0.5154  0.2041 -0.4305
 1685SOL    HW3 6739   3.401   2.784   2.790  0.8282  0.4889 -0.3512
 1685SOL    MW4 6740   3.329   2.826   2.814  0.6013  0.1357 -0.4000
 1686SOL     OW 6741   3.366   3.088   2.675  0.3945  0.0950  0.2836
 1686SOL    HW2 6742   3.364   2.999   2.709  0.8326  0.0659  0.2345
 1686SOL    HW3 6743   3.368   3.077   2.580 -0.9938  0.1773  0.2321
 1686SOL    MW4 6744   3.366   3.075   2.667  0.2692  0.1020  0.2703
 1687SOL     OW 6745   3.143   3.198   2.784 -0.3486  0.1915  0.5282
 1687SOL    HW2 6746   3.221   3.160   2.743  0.2680  0.7129  1.2061
 1687SOL    HW3 6747   3.072   3.139   2.759  0.8076 -2.3062  2.8022
 1687SOL    MW4 6748   3.144   3.185   2.775 -0.1147 -0.0692  0.9177
 1688SOL     OW 6749   3.172   3.480   2.676 -0.0307  0.0036  0.1370
 1688SOL    HW2 6750   3.165   3.391   2.711  0.0082 -0.0476  0.0144
 1688SOL    HW3 6751   3.092   3.523   2.704 -0.3959 -0.2946 -0.4531
 1688SOL    MW4 6752   3.161   3.474   2.684 -0.0738 -0.0425  0.0430
 1689SOL     OW 6753   3.400   3.600   2.749  0.1668  0.2260  0.2371
 1689SOL    HW2 6754   3.400   3.598   2.844 -0.6837 -1.4251  0.2194
 1689SOL    HW3 6755   3.314   3.565   2.724  1.2113 -1.4212 -1.1478
 1689SOL    MW4 6756   3.389   3.595   2.758  0.1924 -0.2092  0.0520
 1690SOL     OW 6757   3.352   3.858   2.662  0.0868  0.2148 -0.6545
 1690SOL    HW2 6758   3.375   3.767   2.680 -0.8474 -0.1286 -1.1808
 1690SOL    HW3 6759   3.347   3.863   2.567  1.0764  1.0627 -0.6725
 1690SOL    MW4 6760   3.355   3.847   2.652  0.0941  0.2814 -0.7263
 1691SOL     OW 6761   3.148   4.013   2.788  0.2229 -0.3180  0.2343
 1691SOL    HW2 6762   3.148   4.093   2.735  1.6115 -0.1369  0.4918
 1691SOL    HW3 6763   3.202   3.951   2.738 -0.0363 -0.7763  0.5182
 1691SOL    MW4 6764   3.155   4.015   2.774  0.3719 -0.3546  0.3057
 1692SOL     OW 6765   3.133   4.256   2.676  0.3366  0.5065  0.0395
 1692SOL    HW2 6766   3.049   4.295   2.700  0.2831  0.6403 -0.3702
 1692SOL    HW3 6767   3.129   4.246   2.581  1.0296  1.0964 -0.0497
 1692SOL    MW4 6768   3.121   4.260   2.667  0.4210  0.6020 -0.0263
 1693SOL     OW 6769   3.382   4.376   2.772  0.5300 -0.0567  0.0761
 1693SOL    HW2 6770   3.384   4.377   2.868  2.2067 -0.3677  0.0638
 1693SOL    HW3 6771   3.308   4.321   2.749  1.3992 -1.7368  1.2135
 1693SOL    MW4 6772   3.373   4.369   2.782  0.8659 -0.3194  0.2245
 1694SOL     OW 6773   3.824   4.648   2.685 -0.1042 -0.1257  0.0208
 1694SOL    HW2 6774   3.835   4.562   2.727  0.8867  0.5457  1.1470
 1694SOL    HW3 6775   3.732   4.669   2.699 -0.1518 -0.6175  0.4830
 1694SOL    MW4 6776   3.813   4.639   2.693  0.0203 -0.1020  0.2304
 1695SOL     OW 6777   3.576   0.070   2.805 -0.2313  0.0578  0.0433
 1695SOL    HW2 6778   3.590   0.156   2.766 -0.2202  0.0459  0.0206
 1695SOL    HW3 6779   3.497   0.037   2.762 -0.8820  0.5241  0.8643
 1695SOL    MW4 6780   3.567   0.077   2.794 -0.3157  0.1178  0.1487
 1696SOL     OW 6781   3.614   0.324   2.691 -0.5218 -0.0677  0.3159
 1696SOL    HW2 6782   3.699   0.360   2.713  0.5025 -2.6348  0.6931
 1696SOL    HW3 6783   3.551   0.385   2.729  1.1480  1.4208  0.7245
 1696SOL    MW4 6784   3.617   0.337   2.699 -0.1663 -0.2100  0.4196
 1697SOL     OW 6785   3.827   0.508   2.757  0.5369  0.0701  0.1349
 1697SOL    HW2 6786   3.823   0.473   2.846  0.6898 -0.1159  0.0677
 1697SOL    HW3 6787   3.908   0.474   2.721 -0.3977 -1.3280 -0.6849
 1697SOL    MW4 6788   3.837   0.499   2.764  0.4338 -0.1389  0.0178
 1698SOL     OW 6789   3.792   0.788   2.706 -0.4880  0.1651 -0.5006
 1698SOL    HW2 6790   3.710   0.826   2.737 -0.2931  1.5551 -1.6171
 1698SOL    HW3 6791   3.789   0.697   2.734 -1.9503  0.4643  0.3557
 1698SOL    MW4 6792   3.781   0.781   2.713 -0.6552  0.3880 -0.5349
 1699SOL     OW 6793   3.562   0.921   2.782  0.0478  0.1028  0.2627
 1699SOL    HW2 6794   3.600   0.927   2.869 -2.7861 -1.3654  1.6674
 1699SOL    HW3 6795   3.580   1.006   2.742  1.5540  0.7149  2.1690
 1699SOL    MW4 6796   3.569   0.933   2.788 -0.1274 -0.0101  0.6995
 1700SOL     OW 6797   3.572   1.190   2.654 -0.0769  0.0084 -0.2364
 1700SOL    HW2 6798   3.647   1.222   2.704  0.3539  0.3688 -1.1086
 1700SOL    HW3 6799   3.496   1.225   2.701  0.3223  0.1991  0.2682
 1700SOL    MW4 6800   3.572   1.199   2.667  0.0326  0.0811 -0.2849
 1701SOL     OW 6801   3.793   1.262   2.794  0.2073  0.2768 -0.1702
 1701SOL    HW2 6802   3.873   1.220   2.761  0.3996 -0.3369  1.0747
 1701SOL    HW3 6803   3.800   1.353   2.763  0.0509 -0.4428 -2.4021
 1701SOL    MW4 6804   3.805   1.269   2.785  0.2120  0.1009 -0.3004
 1702SOL     OW 6805   3.781   1.535   2.691 -0.0514 -0.1007 -0.6868
 1702SOL    HW2 6806   3.851   1.588   2.729  1.1014 -0.8912 -1.6867
 1702SOL    HW3 6807   3.700   1.577   2.720  0.8497  1.5129 -0.5046
 1702SOL    MW4 6808   3.779   1.547   2.700  0.2196  0.0079 -0.7947
 1703SOL     OW 6809   3.552   1.664   2.779 -0.3387  0.4056 -0.5354
 1703SOL    HW2 6810   3.544   1.752   2.740 -0.8624  0.2504 -0.7705
 1703SOL    HW3 6811   3.476   1.616   2.747  0.3633 -0.3864 -1.0530
 1703SOL    MW4 6812   3.541   1.670   2.769 -0.3152  0.2806 -0.6347
 1704SOL     OW 6813   3.572   1.933   2.683  0.1819  0.0140  0.0342
 1704SOL    HW2 6814   3.490   1.978   2.703 -0.2939 -0.5856 -0.5434
 1704SOL    HW3 6815   3.587   1.951   2.590 -0.6403 -2.0080 -0.5096
 1704SOL    MW4 6816   3.563   1.941   2.673  0.0106 -0.3319 -0.1137
 1705SOL     OW 6817   3.800   2.072   2.777  0.2833 -0.0438  0.3308
 1705SOL    HW2 6818   3.865   2.012   2.739 -0.0185  0.4764 -1.0505
 1705SOL    HW3 6819   3.716   2.029   2.760  0.1476  0.1808  0.4479
 1705SOL    MW4 6820   3.798   2.058   2.770  0.2256  0.0545  0.1640
 1706SOL     OW 6821   3.785   2.324   2.670  0.1046  0.1450 -0.1768
 1706SOL    HW2 6822   3.802   2.239   2.712  0.7039  0.7756  0.8807
 1706SOL    HW3 6823   3.782   2.304   2.576 -1.1193 -1.2683  0.1479
 1706SOL    MW4 6824   3.787   2.310   2.663  0.0222  0.0418  0.0056
 1707SOL     OW 6825   3.555   2.451   2.782  0.0488 -0.4535  0.4861
 1707SOL    HW2 6826   3.565   2.445   2.877  0.0469  2.4485  0.7031
 1707SOL    HW3 6827   3.634   2.410   2.747 -1.2770 -4.2346  1.6123
 1707SOL    MW4 6828   3.567   2.444   2.790 -0.1264 -0.5695  0.6633
 1708SOL     OW 6829   3.572   2.739   2.711  0.4775  0.5092  0.3808
 1708SOL    HW2 6830   3.559   2.647   2.734 -0.3513  0.3102 -0.7914
 1708SOL    HW3 6831   3.579   2.738   2.615 -0.3851  1.7544  0.2939
 1708SOL    MW4 6832   3.571   2.727   2.701  0.2543  0.6472  0.2147
 1709SOL     OW 6833   3.827   2.861   2.782  0.3324  0.8142  0.3222
 1709SOL    HW2 6834   3.893   2.805   2.739  0.3371  0.7084  0.4675
 1709SOL    HW3 6835   3.743   2.821   2.757  0.3652  0.2235  1.1465
 1709SOL    MW4 6836   3.825   2.848   2.773  0.3374  0.7223  0.4501
 1710SOL     OW 6837   3.787   3.092   2.650 -0.4866  0.3190  0.1355
 1710SOL    HW2 6838   3.727   3.136   2.710 -2.2018 -1.0187 -0.5326
 1710SOL    HW3 6839   3.812   3.012   2.696  0.5727  0.7308  0.2864
 1710SOL    MW4 6840   3.783   3.087   2.664 -0.5731  0.1969  0.0673
 1711SOL     OW 6841   3.590   3.234   2.783 -0.3948 -0.0526  0.0261
 1711SOL    HW2 6842   3.604   3.318   2.738 -1.6098  1.4441  2.3042
 1711SOL    HW3 6843   3.514   3.196   2.740  0.1047  0.0609 -0.9661
 1711SOL    MW4 6844   3.581   3.240   2.772 -0.4892  0.1599  0.1957
 1712SOL     OW 6845   3.628   3.462   2.663  0.0009  0.6025  0.6298
 1712SOL    HW2 6846   3.702   3.486   2.720 -0.2373 -0.9464  1.6247
 1712SOL    HW3 6847   3.553   3.507   2.700  0.2279  1.2908  0.2709
 1712SOL    MW4 6848   3.628   3.471   2.675 -0.0006  0.4890  0.7137
 1713SOL     OW 6849   3.816   3.593   2.815  0.1492  0.5716  0.1075
 1713SOL    HW2 6850   3.907   3.575   2.788 -0.4814 -0.1945 -1.6052
 1713SOL    HW3 6851   3.791   3.669   2.763  0.0635  1.2908  1.1871
 1713SOL    MW4 6852   3.825   3.601   2.804  0.0547  0.5654  0.0240
 1714SOL     OW 6853   3.798   3.843   2.690  0.1971 -0.0220 -0.0133
 1714SOL    HW2 6854   3.869   3.886   2.738  0.5131 -0.1705 -0.3457
 1714SOL    HW3 6855   3.718   3.886   2.722  0.2545 -1.2568  1.8951
 1714SOL    MW4 6856   3.797   3.854   2.701  0.2463 -0.2045  0.1946
 1715SOL     OW 6857   3.582   3.984   2.772  0.1689  0.0742 -0.0246
 1715SOL    HW2 6858   3.595   4.075   2.744 -2.2781  0.9132  1.3819
 1715SOL    HW3 6859   3.496   3.961   2.737  0.2275 -1.2829  0.7206
 1715SOL    MW4 6860   3.572   3.993   2.763 -0.1462  0.0059  0.2593
 1716SOL     OW 6861   3.617   4.264   2.700 -0.5802 -0.5062  0.3439
 1716SOL    HW2 6862   3.541   4.319   2.721 -0.4758 -0.0338 -0.4974
 1716SOL    HW3 6863   3.618   4.261   2.605  0.7459 -0.1369  0.3495
 1716SOL    MW4 6864   3.607   4.271   2.690 -0.3915 -0.3952  0.2336
 1717SOL     OW 6865   3.857   4.396   2.803  0.0728 -0.0390 -0.3273
 1717SOL    HW2 6866   3.935   4.352   2.768  0.7668  0.2382  0.8478
 1717SOL    HW3 6867   3.784   4.351   2.762  0.8354 -0.7907 -0.8883
 1717SOL    MW4 6868   3.858   4.384   2.793  0.2649 -0.1016 -0.2463
 1718SOL     OW 6869   4.286   4.633   2.669  0.0193 -0.5261  0.5939
 1718SOL    HW2 6870   4.213   4.677   2.711  0.2536 -1.8759  2.4524
 1718SOL    HW3 6871   4.363   4.684   2.694 -0.2366  0.8881 -1.3529
 1718SOL    MW4 6872   4.287   4.645   2.678  0.0165 -0.5176  0.5822
 1719SOL     OW 6873   4.050   0.117   2.789 -0.0781 -0.1503  0.3265
 1719SOL    HW2 6874   4.041   0.124   2.884  0.3615  1.0025  0.2942
 1719SOL    HW3 6875   3.974   0.067   2.761  0.0966 -1.0144  1.3518
 1719SOL    MW4 6876   4.039   0.111   2.798  0.0030 -0.1122  0.4575
 1720SOL     OW 6877   4.048   0.359   2.651  0.0297  0.0954 -0.3397
 1720SOL    HW2 6878   4.046   0.270   2.685 -0.5342  0.5472  0.8381
 1720SOL    HW3 6879   4.077   0.350   2.560  0.8941 -1.1908  0.0569
 1720SOL    MW4 6880   4.052   0.346   2.643  0.0693 -0.0147 -0.1320
 1721SOL     OW 6881   4.247   0.462   2.824 -0.2080  0.0125 -0.1249
 1721SOL    HW2 6882   4.177   0.417   2.778 -0.1591  0.9376 -1.1491
 1721SOL    HW3 6883   4.328   0.424   2.789 -0.1863 -0.5860  0.5660
 1721SOL    MW4 6884   4.249   0.451   2.813 -0.1987  0.0556 -0.1689
 1722SOL     OW 6885   4.225   0.704   2.698 -0.2553  0.1118  0.1098
 1722SOL    HW2 6886   4.230   0.612   2.724  0.4505 -0.1220 -0.8644
 1722SOL    HW3 6887   4.228   0.703   2.603  0.5900  1.2004  0.1205
 1722SOL    MW4 6888   4.226   0.692   2.689 -0.0506  0.2246 -0.0173
 1723SOL     OW 6889   4.049   0.913   2.751  0.0039 -0.3069  0.0101
 1723SOL    HW2 6890   4.119   0.848   2.740 -0.0791 -0.2748 -0.7513
 1723SOL    HW3 6891   3.971   0.872   2.714 -0.4497 -0.4610  1.1432
 1723SOL    MW4 6892   4.048   0.899   2.744 -0.0669 -0.3230  0.0592
 1724SOL     OW 6893   4.043   1.177   2.680  0.4965  0.0993 -0.3638
 1724SOL    HW2 6894   4.105   1.224   2.735  0.7189  0.0286 -0.5524
 1724SOL    HW3 6895   4.060   1.084   2.700 -0.1042  0.1038  0.1858
 1724SOL    MW4 6896   4.054   1.171   2.690  0.4466  0.0906 -0.3161
 1725SOL     OW 6897   4.247   1.300   2.834  0.1380  0.5117  0.4284
 1725SOL    HW2 6898   4.236   1.387   2.795  0.3373  0.5635  0.4905
 1725SOL    HW3 6899   4.320   1.261   2.785 -0.2597  0.1960  0.0762
 1725SOL    MW4 6900   4.255   1.306   2.822  0.1118  0.4769  0.3902
 1726SOL     OW 6901   4.244   1.529   2.675  0.0361  0.3267 -0.4190
 1726SOL    HW2 6902   4.333   1.565   2.676  0.6548 -1.1531 -1.3192
 1726SOL    HW3 6903   4.224   1.518   2.583 -0.7713 -0.1406 -0.1897
 1726SOL    MW4 6904   4.253   1.532   2.663  0.0112  0.0698 -0.5075
 1727SOL     OW 6905   4.021   1.668   2.791  0.4808  0.6102 -0.0858
 1727SOL    HW2 6906   4.027   1.667   2.886  0.5581 -1.0103 -0.0929
 1727SOL    HW3 6907   4.102   1.628   2.761 -0.9385 -1.8792 -0.7305
 1727SOL    MW4 6908   4.032   1.663   2.799  0.3037  0.0679 -0.1718
 1728SOL     OW 6909   4.003   1.932   2.687 -0.1626  0.0227  0.0710
 1728SOL    HW2 6910   4.080   1.964   2.733  0.1553 -0.4033 -0.1703
 1728SOL    HW3 6911   3.993   1.842   2.717  0.2222 -0.3554 -0.9222
 1728SOL    MW4 6912   4.012   1.924   2.697 -0.0699 -0.0834 -0.0918
 1729SOL     OW 6913   4.246   2.016   2.801 -0.1274 -0.5143  0.4145
 1729SOL    HW2 6914   4.240   2.106   2.769  0.6992 -1.0957 -1.4194
 1729SOL    HW3 6915   4.330   1.983   2.769 -0.8869 -2.2853  0.1596
 1729SOL    MW4 6916   4.256   2.023   2.793 -0.1185 -0.8247  0.1389
 1730SOL     OW 6917   4.253   2.281   2.710 -0.3062  0.2249  0.1670
 1730SOL    HW2 6918   4.175   2.332   2.732 -1.0217 -0.7482 -0.0899
 1730SOL    HW3 6919   4.267   2.296   2.617  0.1139  0.7998  0.3198
 1730SOL    MW4 6920   4.245   2.289   2.701 -0.3452  0.1724  0.1532
 1731SOL     OW 6921   4.027   2.430   2.749  0.0139  0.4895  0.0745
 1731SOL    HW2 6922   4.027   2.439   2.844 -0.5474  2.1533 -0.0599
 1731SOL    HW3 6923   3.939   2.396   2.729  0.8085 -1.7681  0.2837
 1731SOL    MW4 6924   4.015   2.426   2.759  0.0447  0.4111  0.0844
 1732SOL     OW 6925   4.048   2.705   2.667 -0.5627 -0.5934 -0.0102
 1732SOL    HW2 6926   4.121   2.751   2.709 -0.7475  1.3855 -1.7437
 1732SOL    HW3 6927   4.054   2.616   2.700  0.8350  0.2536  2.1732
 1732SOL    MW4 6928   4.059   2.699   2.677 -0.4027 -0.2206  0.0492
 1733SOL     OW 6929   4.257   2.830   2.777  0.5574 -0.3483  0.2725
 1733SOL    HW2 6930   4.276   2.833   2.871 -0.3613  0.0433  0.4418
 1733SOL    HW3 6931   4.255   2.922   2.750  0.6649 -0.4555 -0.1079
 1733SOL    MW4 6932   4.259   2.843   2.786  0.4503 -0.3108  0.2447
 1734SOL     OW 6933   4.253   3.085   2.667 -0.0323 -0.1604  0.1526
 1734SOL    HW2 6934   4.186   3.151   2.683 -1.1261 -1.2791  0.2466
 1734SOL    HW3 6935   4.256   3.075   2.572  1.4727  1.3648  0.0095
 1734SOL    MW4 6936   4.245   3.092   2.657  0.0219 -0.1068  0.1462
 1735SOL     OW 6937   4.034   3.236   2.770 -0.4734  0.0544 -0.1029
 1735SOL    HW2 6938   4.032   3.332   2.762 -1.2379 -0.0981 -2.1859
 1735SOL    HW3 6939   3.952   3.207   2.730  0.0425 -1.5067 -0.0691
 1735SOL    MW4 6940   4.023   3.245   2.763 -0.5062 -0.1717 -0.3732
 1736SOL     OW 6941   4.048   3.506   2.707  0.1227  0.0099 -0.3519
 1736SOL    HW2 6942   4.126   3.555   2.730 -0.5273  0.5452  0.7400
 1736SOL    HW3 6943   4.061   3.483   2.615  1.3347  0.5106 -0.3180
 1736SOL    MW4 6944   4.060   3.509   2.698  0.1969  0.1466 -0.2034
 1737SOL     OW 6945   4.290   3.606   2.789  0.1035 -0.5265 -0.5205
 1737SOL    HW2 6946   4.289   3.587   2.882  0.3806  0.8784 -0.2217
 1737SOL    HW3 6947   4.362   3.553   2.754  0.5659 -0.3774  0.2023
 1737SOL    MW4 6948   4.299   3.596   2.796  0.2011 -0.3215 -0.3857
 1738SOL     OW 6949   4.263   3.874   2.701 -0.4356 -0.6917 -0.0187
 1738SOL    HW2 6950   4.283   3.786   2.733 -1.0479 -1.2239 -1.0787
 1738SOL    HW3 6951   4.343   3.924   2.718 -0.0822 -1.4538  0.5892
 1738SOL    MW4 6952   4.276   3.869   2.707 -0.4698 -0.8625 -0.0783
 1739SOL     OW 6953   4.030   4.006   2.798 -0.4060  0.4749 -0.0774
 1739SOL    HW2 6954   4.032   3.994   2.892 -1.3661  0.3630 -0.0697
 1739SOL    HW3 6955   4.114   3.971   2.767  0.0614  0.8421  0.7638
 1739SOL    MW4 6956   4.041   4.000   2.806 -0.4710  0.5086  0.0346
 1740SOL     OW 6957   4.043   4.269   2.659 -0.5777 -0.5097 -0.2653
 1740SOL    HW2 6958   4.018   4.177   2.669 -0.2100 -0.5235  0.5509
 1740SOL    HW3 6959   4.045   4.283   2.564  0.5798 -1.6777 -0.4268
 1740SOL    MW4 6960   4.040   4.258   2.647 -0.3764 -0.6656 -0.1789
 1741SOL     OW 6961   4.288   4.368   2.774  0.1706 -0.1107 -0.2263
 1741SOL    HW2 6962   4.199   4.338   2.755  0.1638  0.0716 -0.4959
 1741SOL    HW3 6963   4.293   4.455   2.733  0.6570 -0.3679 -0.7193
 1741SOL    MW4 6964   4.277   4.376   2.766  0.2339 -0.1206 -0.3269
 1742SOL     OW 6965   0.230   4.613   3.114  0.1986 -0.1245  0.1097
 1742SOL    HW2 6966   0.225   4.622   3.209  1.5705  0.0882  0.1678
 1742SOL    HW3 6967   0.150   4.656   3.082  0.8913  1.9471  1.0410
 1742SOL    MW4 6968   0.219   4.620   3.122  0.4710  0.1769  0.2402
 1743SOL     OW 6969   4.488   0.068   3.038  0.3364 -0.1538  0.3893
 1743SOL    HW2 6970   4.424   0.027   3.097 -0.4001  0.1512 -0.1956
 1743SOL    HW3 6971   4.510   0.151   3.080  0.7344 -0.4875  0.8461
 1743SOL    MW4 6972   4.483   0.073   3.051  0.2917 -0.1576  0.3724
 1744SOL     OW 6973   0.020   0.315   3.163 -0.4941  0.1693  0.5608
 1744SOL    HW2 6974   0.025   0.324   3.258  0.3217  1.0992  0.4353
 1744SOL    HW3 6975  -0.051   0.374   3.137 -1.4907 -0.9565  0.7058
 1744SOL    MW4 6976   0.011   0.324   3.172 -0.5179  0.1434  0.5634
 1745SOL     OW 6977   0.205   0.477   3.034 -0.3949 -0.1435  0.5891
 1745SOL    HW2 6978   0.290   0.437   3.057 -0.3548 -1.2456 -1.3985
 1745SOL    HW3 6979   0.141   0.426   3.083  0.1042  0.9740  2.4520
 1745SOL    MW4 6980   0.208   0.465   3.044 -0.3238 -0.1415  0.5727
 1746SOL     OW 6981   0.215   0.756   3.133 -0.4997 -0.0546  0.4417
 1746SOL    HW2 6982   0.226   0.761   3.228  0.6017 -0.2426  0.3304
 1746SOL    HW3 6983   0.209   0.662   3.114 -0.1496 -0.0391  0.2607
 1746SOL    MW4 6984   0.216   0.744   3.143 -0.3082 -0.0774  0.4031
 1747SOL     OW 6985   4.470   0.878   3.043 -0.4195  0.0561 -0.1312
 1747SOL    HW2 6986   4.554   0.834   3.053 -0.1777  0.2855 -1.0636
 1747SOL    HW3 6987   4.455   0.879   2.948 -1.8491 -0.6961  0.0784
 1747SOL    MW4 6988   4.479   0.873   3.032 -0.5762 -0.0129 -0.2266
 1748SOL     OW 6989   4.486   1.119   3.165 -0.1137  0.1675  0.0888
 1748SOL    HW2 6990   4.407   1.172   3.149 -0.6557 -0.6114  0.1634
 1748SOL    HW3 6991   4.468   1.036   3.122  0.2903 -0.3375  0.8826
 1748SOL    MW4 6992   4.473   1.115   3.157 -0.1319 -0.0019  0.2034
 1749SOL     OW 6993   0.221   1.268   3.097 -0.3393 -0.3280 -0.3079
 1749SOL    HW2 6994   0.159   1.202   3.129  1.7563 -2.0537  0.2720
 1749SOL    HW3 6995   0.223   1.256   3.003  0.1577 -1.1956 -0.1861
 1749SOL    MW4 6996   0.213   1.258   3.089  0.0028 -0.6701 -0.2153
 1750SOL     OW 6997   0.218   1.530   3.189 -0.2797 -0.0666  0.4264
 1750SOL    HW2 6998   0.138   1.560   3.146 -0.5065 -0.0253  0.8789
 1750SOL    HW3 6999   0.238   1.447   3.147 -0.4539  0.0180  0.1761
 1750SOL    MW4 7000   0.210   1.523   3.178 -0.3326 -0.0500  0.4531
 1751SOL     OW 7001   4.470   1.645   3.037  0.1326 -0.0113  0.0500
 1751SOL    HW2 7002   4.396   1.626   3.095  0.3454  1.9303  0.9668
 1751SOL    HW3 7003   4.483   1.739   3.044  2.8659 -0.3698  0.0507
 1751SOL    MW4 7004   4.462   1.655   3.045  0.5213  0.1976  0.1710
 1752SOL     OW 7005   0.003   1.928   3.109  0.1956 -0.2940  0.3831
 1752SOL    HW2 7006  -0.076   1.980   3.097  0.5971  0.8001  2.1656
 1752SOL    HW3 7007   0.075   1.990   3.095  0.6890 -0.4898  1.8672
 1752SOL    MW4 7008   0.002   1.943   3.106  0.3136 -0.1755  0.8141
 1753SOL     OW 7009   0.214   2.085   3.036 -0.1922 -0.0112 -0.1400
 1753SOL    HW2 7010   0.206   2.173   3.074  1.7689 -0.0037  0.2743
 1753SOL    HW3 7011   0.225   2.101   2.943  1.2653  0.2478  0.0643
 1753SOL    MW4 7012   0.214   2.099   3.029  0.2589  0.0239 -0.0584
 1754SOL     OW 7013   0.206   2.342   3.161  0.0697 -0.2877  0.0326
 1754SOL    HW2 7014   0.225   2.309   3.249  0.4301  0.7199  0.3469
 1754SOL    HW3 7015   0.278   2.403   3.143 -1.2067  1.2328 -0.0388
 1754SOL    MW4 7016   0.218   2.346   3.170 -0.0512  0.0458  0.0647
 1755SOL     OW 7017   4.484   2.471   3.037  0.3330  0.3057  0.8173
 1755SOL    HW2 7018   4.493   2.560   3.069  0.6031  0.7414 -0.4341
 1755SOL    HW3 7019   4.549   2.421   3.086  0.1363  0.7797  1.5671
 1755SOL    MW4 7020   4.494   2.476   3.048  0.3426  0.4257  0.7511
 1756SOL     OW 7021   4.489   2.716   3.159  0.0668 -0.1668 -0.0431
 1756SOL    HW2 7022   4.514   2.706   3.251 -0.8703  0.1061  0.2465
 1756SOL    HW3 7023   4.560   2.766   3.120  0.0406  0.4824  0.7381
 1756SOL    MW4 7024   4.502   2.721   3.166 -0.0603 -0.0451  0.0982
 1757SOL     OW 7025   0.223   2.854   3.048  0.1577  0.0487 -0.2638
 1757SOL    HW2 7026   0.305   2.811   3.074  1.4565  2.0818 -0.9371
 1757SOL    HW3 7027   0.216   2.838   2.954  0.5756  1.2122 -0.4913
 1757SOL    MW4 7028   0.233   2.846   3.039  0.3842  0.4704 -0.3826
 1758SOL     OW 7029   0.231   3.137   3.157 -0.2520  0.0205  0.2259
 1758SOL    HW2 7030   0.150   3.174   3.122 -0.8388 -0.5647  0.9338
 1758SOL    HW3 7031   0.235   3.049   3.119  0.1391  0.1143  0.0530
 1758SOL    MW4 7032   0.221   3.130   3.148 -0.2778 -0.0443  0.2965
 1759SOL     OW 7033   4.481   3.208   3.064  0.2806 -0.5989  0.3099
 1759SOL    HW2 7034   4.414   3.158   3.109 -0.2942  1.4070  1.7674
 1759SOL    HW3 7035   4.467   3.190   2.971  0.0191 -2.9888  0.7886
 1759SOL    MW4 7036   4.471   3.199   3.058  0.1703 -0.6496  0.5653
 1760SOL     OW 7037   4.482   3.478   3.163 -0.1505 -0.3703 -0.5811
 1760SOL    HW2 7038   4.410   3.511   3.110  0.7450 -0.7075 -2.0352
 1760SOL    HW3 7039   4.494   3.388   3.134  1.6260  0.0523 -1.2118
 1760SOL    MW4 7040   4.474   3.471   3.153  0.2020 -0.3590 -0.8562
 1761SOL     OW 7041   0.232   3.606   3.063 -0.5812  0.1126  0.4258
 1761SOL    HW2 7042   0.214   3.692   3.101 -1.5493  0.5059 -0.8790
 1761SOL    HW3 7043   0.155   3.553   3.086 -0.7000  0.0552 -0.1016
 1761SOL    MW4 7044   0.219   3.611   3.071 -0.7246  0.1569  0.1841
 1762SOL     OW 7045   0.198   3.874   3.153 -0.3053  0.3199  0.1673
 1762SOL    HW2 7046   0.200   3.884   3.249  0.2774  0.4663  0.1411
 1762SOL    HW3 7047   0.287   3.894   3.125  0.0841 -1.8369 -0.2060
 1762SOL    MW4 7048   0.210   3.878   3.162 -0.1770  0.0547  0.1146
 1763SOL     OW 7049   4.471   4.008   3.024  0.0899 -0.4086 -0.1100
 1763SOL    HW2 7050   4.551   3.966   3.056 -0.7307 -2.3245 -0.4710
 1763SOL    HW3 7051   4.484   4.011   2.929  0.4651  0.8606 -0.0219
 1763SOL    MW4 7052   4.484   4.003   3.015  0.0311 -0.4939 -0.1460
 1764SOL     OW 7053   0.027   4.250   3.153  0.4336 -0.3485  0.1260
 1764SOL    HW2 7054   0.024   4.246   3.249  0.1963  0.8079  0.1738
 1764SOL    HW3 7055  -0.003   4.163   3.124 -1.0991 -0.1644  1.0781
 1764SOL    MW4 7056   0.022   4.238   3.162  0.2001 -0.1716  0.2579
 1765SOL     OW 7057   0.275   4.319   3.036  0.4110  0.0335 -0.0244
 1765SOL    HW2 7058   0.194   4.274   3.062  1.1245 -0.8083  0.7764
 1765SOL    HW3 7059   0.261   4.410   3.062  0.2203 -0.3556  1.3048
 1765SOL    MW4 7060   0.262   4.325   3.043  0.4800 -0.1289  0.2567
 1766SOL     OW 7061   0.705   4.628   3.152 -0.4654  0.1630  0.7023
 1766SOL    HW2 7062   0.699   4.534   3.131 -0.4605  0.6237 -1.4429
 1766SOL    HW3 7063   0.625   4.666   3.115  0.1463  1.2041  0.4475
 1766SOL    MW4 7064   0.694   4.620   3.144 -0.3840  0.3612  0.3856
 1767SOL     OW 7065   0.477   0.084   3.066 -0.7587  0.1054 -0.1929
 1767SOL    HW2 7066   0.476   0.174   3.098 -1.7222  0.7617 -1.9754
 1767SOL    HW3 7067   0.389   0.051   3.084 -0.0538 -0.8841  1.5171
 1767SOL    MW4 7068   0.465   0.091   3.072 -0.7928  0.0614 -0.2025
 1768SOL     OW 7069   0.446   0.360   3.127  0.0904 -0.4317 -0.4454
 1768SOL    HW2 7070   0.444   0.378   3.221  0.1303  0.6640 -0.6419
 1768SOL    HW3 7071   0.530   0.393   3.097 -0.3648  0.2197 -1.0474
 1768SOL    MW4 7072   0.457   0.367   3.135  0.0356 -0.2012 -0.5508
 1769SOL     OW 7073   0.691   0.469   3.027 -0.0700 -0.4404 -0.3852
 1769SOL    HW2 7074   0.777   0.439   3.054  0.5135  0.8293 -0.7986
 1769SOL    HW3 7075   0.687   0.560   3.056 -0.7347 -0.0815 -1.5629
 1769SOL    MW4 7076   0.702   0.477   3.034 -0.0807 -0.2255 -0.5951
 1770SOL     OW 7077   0.692   0.738   3.111 -0.2757  0.2685 -0.3527
 1770SOL    HW2 7078   0.689   0.753   3.206 -0.9430  0.1003 -0.3419
 1770SOL    HW3 7079   0.609   0.773   3.079 -0.5391 -0.6688 -0.7279
 1770SOL    MW4 7080   0.680   0.745   3.120 -0.3985  0.1226 -0.4008
 1771SOL     OW 7081   0.456   0.876   3.055  0.1587  0.1730  0.4251
 1771SOL    HW2 7082   0.382   0.839   3.102  2.1388 -2.9969  1.2307
 1771SOL    HW3 7083   0.431   0.871   2.963 -0.6545 -0.8450  0.6930
 1771SOL    MW4 7084   0.443   0.870   3.049  0.3127 -0.3796  0.5667
 1772SOL     OW 7085   0.468   1.147   3.150  0.0192  0.5861 -0.2087
 1772SOL    HW2 7086   0.460   1.058   3.115  1.9162 -0.0338  0.8641
 1772SOL    HW3 7087   0.388   1.191   3.122 -0.6378 -1.2641 -1.3228
 1772SOL    MW4 7088   0.456   1.141   3.142  0.1828  0.2602 -0.2141
 1773SOL     OW 7089   0.713   1.264   3.053  0.6681 -0.6678  0.0724
 1773SOL    HW2 7090   0.783   1.213   3.093  0.1888 -0.1770  1.5781
 1773SOL    HW3 7091   0.632   1.220   3.080  0.3225 -0.1167 -0.0470
 1773SOL    MW4 7092   0.711   1.252   3.062  0.5593 -0.5303  0.2553
 1774SOL     OW 7093   0.675   1.519   3.154  0.1791  0.3130  0.0339
 1774SOL    HW2 7094   0.698   1.501   3.245  0.8554  0.3151 -0.1335
 1774SOL    HW3 7095   0.692   1.436   3.108  0.6253  0.5460 -0.2311
 1774SOL    MW4 7096   0.680   1.506   3.160  0.3272  0.3440 -0.0232
 1775SOL     OW 7097   0.445   1.685   3.068  0.1880 -0.2803 -0.1333
 1775SOL    HW2 7098   0.519   1.627   3.086  1.2210  1.5900  1.9629
 1775SOL    HW3 7099   0.370   1.640   3.106  0.6672 -1.0813 -0.1170
 1775SOL    MW4 7100   0.445   1.672   3.075  0.3875 -0.1392  0.1454
 1776SOL     OW 7101   0.434   1.959   3.175  0.1867  0.1516 -0.6809
 1776SOL    HW2 7102   0.418   1.868   3.148 -0.6276  0.0017  0.2929
 1776SOL    HW3 7103   0.358   2.007   3.142  0.0879  0.2876 -0.2540
 1776SOL    MW4 7104   0.422   1.953   3.167  0.0663  0.1497 -0.4961
 1777SOL     OW 7105   0.659   2.056   3.060  0.2085 -0.1719 -0.2655
 1777SOL    HW2 7106   0.738   2.017   3.097  0.4783  1.9646  1.5138
 1777SOL    HW3 7107   0.587   2.017   3.110  0.3315  0.1436  0.1512
 1777SOL    MW4 7108   0.660   2.046   3.071  0.2604  0.1516  0.0242
 1778SOL     OW 7109   0.621   2.316   3.152  0.3374  0.1746 -0.5314
 1778SOL    HW2 7110   0.644   2.311   3.245  0.2366  0.9095 -0.4610
 1778SOL    HW3 7111   0.640   2.229   3.118  0.3430 -0.1106  0.1877
 1778SOL    MW4 7112   0.627   2.304   3.160  0.3248  0.2340 -0.4272
 1779SOL     OW 7113   0.421   2.492   3.085 -0.6259 -0.3264 -0.0938
 1779SOL    HW2 7114   0.485   2.434   3.127  0.0904  0.0985 -0.6037
 1779SOL    HW3 7115   0.438   2.483   2.992 -0.2070  1.0751 -0.1544
 1779SOL    MW4 7116   0.432   2.483   3.079 -0.4761 -0.0855 -0.1691
 1780SOL     OW 7117   0.474   2.763   3.132 -0.1980  0.0201  0.2689
 1780SOL    HW2 7118   0.557   2.787   3.090 -0.6100 -1.4263 -1.4655
 1780SOL    HW3 7119   0.471   2.667   3.124 -1.4552 -0.0351  1.4221
 1780SOL    MW4 7120   0.485   2.753   3.125 -0.4182 -0.1780  0.1922
 1781SOL     OW 7121   0.719   2.837   3.030  0.1086 -0.1329 -0.1912
 1781SOL    HW2 7122   0.788   2.779   3.062  0.6407 -0.2580 -1.5312
 1781SOL    HW3 7123   0.714   2.907   3.095  2.2788  0.4712 -0.6448
 1781SOL    MW4 7124   0.727   2.839   3.043  0.4651 -0.0697 -0.4279
 1782SOL     OW 7125   0.673   3.066   3.164 -0.4025 -0.1438 -0.1057
 1782SOL    HW2 7126   0.656   3.075   3.258  0.7292  2.0017 -0.0653
 1782SOL    HW3 7127   0.597   3.108   3.122 -0.3882 -0.1291 -0.1172
 1782SOL    MW4 7128   0.661   3.073   3.171 -0.2513  0.1412 -0.1019
 1783SOL     OW 7129   0.465   3.218   3.056  0.4616  0.1965 -0.4086
 1783SOL    HW2 7130   0.472   3.307   3.090 -0.4735  0.1969 -0.2138
 1783SOL    HW3 7131   0.373   3.194   3.068  0.8339 -1.0329  0.1468
 1783SOL    MW4 7132   0.454   3.226   3.062  0.3873  0.0343 -0.3097
 1784SOL     OW 7133   0.473   3.478   3.144  0.0875 -0.4799 -0.0592
 1784SOL    HW2 7134   0.473   3.476   3.239  0.4912 -0.7930 -0.0660
 1784SOL    HW3 7135   0.391   3.522   3.121  1.2509  2.1140  0.4916
 1784SOL    MW4 7136   0.462   3.484   3.153  0.2943 -0.1790  0.0126
 1785SOL     OW 7137   0.694   3.620   3.021 -0.3370 -0.3558 -0.4969
 1785SOL    HW2 7138   0.768   3.581   3.068 -0.4826  0.2080  0.2128
 1785SOL    HW3 7139   0.617   3.579   3.060 -0.4469 -0.0949 -0.4398
 1785SOL    MW4 7140   0.694   3.610   3.032 -0.3707 -0.2470 -0.3957
 1786SOL     OW 7141   0.708   3.861   3.150 -0.2088 -0.1219  0.2359
 1786SOL    HW2 7142   0.709   3.845   3.244  0.1954 -0.2395  0.2160
 1786SOL    HW3 7143   0.700   3.773   3.112  0.1949 -0.1242  0.1536
 1786SOL    MW4 7144   0.707   3.847   3.157 -0.1022 -0.1377  0.2224
 1787SOL     OW 7145   0.453   3.943   3.058  0.2071 -0.1644 -0.1660
 1787SOL    HW2 7146   0.538   3.910   3.087  0.3611  0.5419  0.1713
 1787SOL    HW3 7147   0.448   3.915   2.966 -0.1901 -2.1880  0.4406
 1787SOL    MW4 7148   0.464   3.935   3.049  0.1750 -0.3382 -0.0414
 1788SOL     OW 7149   0.476   4.192   3.155 -0.1681  0.2236  0.2746
 1788SOL    HW2 7150   0.475   4.104   3.117  1.1071  1.3059 -2.3899
 1788SOL    HW3 7151   0.402   4.237   3.113 -0.4797  0.6112  1.2193
 1788SOL    MW4 7152   0.466   4.186   3.145 -0.0410  0.4175  0.0477
 1789SOL     OW 7153   0.670   4.360   3.023  0.1223  0.0633  0.2539
 1789SOL    HW2 7154   0.608   4.299   3.063  0.7184 -1.2870 -0.8055
 1789SOL    HW3 7155   0.639   4.370   2.933 -1.2825  3.1678  1.0138
 1789SOL    MW4 7156   0.658   4.353   3.016  0.0156  0.2947  0.2144
 1790SOL     OW 7157   1.103   4.652   3.142  0.2022  0.1840 -0.0080
 1790SOL    HW2 7158   1.184   4.689   3.109 -0.1647 -0.7149 -1.9796
 1790SOL    HW3 7159   1.034   4.708   3.107 -0.1093  0.1638  0.5601
 1790SOL    MW4 7160   1.105   4.664   3.133  0.1127  0.0627 -0.1932
 1791SOL     OW 7161   0.886   0.122   2.996  0.5664  0.0207  0.2642
 1791SOL    HW2 7162   0.892   0.207   3.040 -0.2361  0.3786 -0.3049
 1791SOL    HW3 7163   0.825   0.072   3.050 -1.4254  0.8966 -1.0889
 1791SOL    MW4 7164   0.879   0.127   3.009  0.1977  0.1835  0.0106
 1792SOL     OW 7165   0.932   0.359   3.128  0.1384 -0.0914  0.2630
 1792SOL    HW2 7166   0.923   0.366   3.223  1.0128  0.6081  0.2966
 1792SOL    HW3 7167   1.005   0.417   3.106 -0.7425  0.5774 -0.9641
 1792SOL    MW4 7168   0.940   0.367   3.137  0.1375  0.0891  0.1056
 1793SOL     OW 7169   1.156   0.507   3.055 -0.3341 -0.8392 -0.1688
 1793SOL    HW2 7170   1.237   0.458   3.073  0.8658  0.1101 -2.7416
 1793SOL    HW3 7171   1.136   0.487   2.964 -2.1228  0.2635 -0.0396
 1793SOL    MW4 7172   1.164   0.498   3.046 -0.4118 -0.5685 -0.4912
 1794SOL     OW 7173   1.136   0.765   3.131 -0.0882  0.1782 -0.4301
 1794SOL    HW2 7174   1.138   0.764   3.227  0.8795  0.1810 -0.4523
 1794SOL    HW3 7175   1.153   0.674   3.106  3.3626  0.8326 -0.6663
 1794SOL    MW4 7176   1.138   0.753   3.140  0.4948  0.2649 -0.4642
 1795SOL     OW 7177   0.906   0.899   3.024  0.1758  0.4588 -0.2806
 1795SOL    HW2 7178   0.984   0.849   3.049 -0.2748  0.2099  0.6425
 1795SOL    HW3 7179   0.833   0.844   3.050 -0.3277  1.6303  0.8249
 1795SOL    MW4 7180   0.907   0.885   3.031  0.0500  0.5805 -0.0129
 1796SOL     OW 7181   0.920   1.135   3.164  0.1262  0.4734  0.4016
 1796SOL    HW2 7182   0.999   1.174   3.128 -0.2415 -0.2825 -1.2478
 1796SOL    HW3 7183   0.910   1.052   3.118 -0.8373 -0.1206  1.6285
 1796SOL    MW4 7184   0.929   1.129   3.153 -0.0494  0.2953  0.3458
 1797SOL     OW 7185   1.124   1.309   3.100 -0.0093  0.2055 -0.3356
 1797SOL    HW2 7186   1.206   1.271   3.132 -0.7789 -0.1048  1.3094
 1797SOL    HW3 7187   1.129   1.298   3.005  2.0944  0.6955 -0.3149
 1797SOL    MW4 7188   1.136   1.302   3.092  0.1667  0.2292 -0.1158
 1798SOL     OW 7189   1.151   1.572   3.157  0.6632  0.2707 -0.2852
 1798SOL    HW2 7190   1.233   1.597   3.114  0.4632 -0.5385 -1.1676
 1798SOL    HW3 7191   1.143   1.478   3.141 -0.0850  0.2115  0.4001
 1798SOL    MW4 7192   1.161   1.563   3.149  0.5381  0.1561 -0.3112
 1799SOL     OW 7193   0.898   1.675   3.065  0.1603  0.2644  0.2891
 1799SOL    HW2 7194   0.976   1.627   3.092 -0.0370 -1.3076 -1.8064
 1799SOL    HW3 7195   0.826   1.614   3.081 -0.1475 -0.0022 -1.9749
 1799SOL    MW4 7196   0.899   1.661   3.071  0.0936  0.0218 -0.2861
 1800SOL     OW 7197   0.896   1.937   3.160  0.6820 -0.0328  0.3209
 1800SOL    HW2 7198   0.898   1.920   3.254  2.4871 -0.6981  0.1767
 1800SOL    HW3 7199   0.895   1.850   3.121  0.1853  0.2455 -0.2912
 1800SOL    MW4 7200   0.896   1.923   3.167  0.8546 -0.0839  0.2212
 1801SOL     OW 7201   1.117   2.045   3.037  0.5356  0.1487 -0.3354
 1801SOL    HW2 7202   1.049   1.995   3.082  0.6967  0.2172 -0.0143
 1801SOL    HW3 7203   1.100   2.030   2.944 -0.8965  1.4614 -0.3050
 1801SOL    MW4 7204   1.106   2.037   3.031  0.3679  0.3310 -0.2891
 1802SOL     OW 7205   1.110   2.303   3.144 -0.3617 -0.4668  0.2887
 1802SOL    HW2 7206   1.039   2.357   3.110  0.1157 -0.5490 -0.8849
 1802SOL    HW3 7207   1.101   2.219   3.097 -0.4662 -1.0362  1.3178
 1802SOL    MW4 7208   1.100   2.299   3.133 -0.3125 -0.5527  0.2696
 1803SOL     OW 7209   0.880   2.425   3.056  0.0023  0.8352  0.1647
 1803SOL    HW2 7210   0.801   2.382   3.088  1.2602 -2.0111 -0.4040
 1803SOL    HW3 7211   0.869   2.430   2.961  0.4913  0.4733  0.0876
 1803SOL    MW4 7212   0.868   2.420   3.048  0.2328  0.4119  0.0795
 1804SOL     OW 7213   0.900   2.677   3.160 -0.6888  0.6257  0.2848
 1804SOL    HW2 7214   0.873   2.673   3.252 -1.1122  0.2452  0.1488
 1804SOL    HW3 7215   0.903   2.585   3.132  1.7822  0.5841  0.5797
 1804SOL    MW4 7216   0.897   2.664   3.169 -0.4186  0.5700  0.3058
 1805SOL     OW 7217   1.101   2.814   3.043 -0.0607 -0.3258 -0.1612
 1805SOL    HW2 7218   1.107   2.898   3.089  1.5272 -0.9592  0.8132
 1805SOL    HW3 7219   1.041   2.761   3.096 -0.5828 -0.0244 -0.4464
 1805SOL    MW4 7220   1.094   2.818   3.056  0.0799 -0.3696 -0.0703
 1806SOL     OW 7221   1.129   3.063   3.174 -0.0666 -0.4564 -0.0124
 1806SOL    HW2 7222   1.204   3.119   3.158  0.1258 -1.3435 -2.4328
 1806SOL    HW3 7223   1.054   3.113   3.143 -0.3642  0.0535  1.5296
 1806SOL    MW4 7224   1.129   3.077   3.168 -0.0805 -0.5062 -0.1283
 1807SOL     OW 7225   0.908   3.185   3.065  0.2528 -0.0649  0.5995
 1807SOL    HW2 7226   0.827   3.170   3.114 -1.1311  1.9824 -1.0010
 1807SOL    HW3 7227   0.880   3.191   2.973  2.0806  1.5152  0.1078
 1807SOL    MW4 7228   0.893   3.184   3.059  0.3114  0.4137  0.3234
 1808SOL     OW 7229   0.902   3.480   3.130  0.0114 -0.1522 -0.2427
 1808SOL    HW2 7230   0.970   3.531   3.087 -0.6956  1.4922  0.5331
 1808SOL    HW3 7231   0.913   3.391   3.097  2.1915  0.2027 -0.5221
 1808SOL    MW4 7232   0.913   3.475   3.120  0.2058  0.1116 -0.1772
 1809SOL     OW 7233   1.136   3.609   3.037  0.1873 -0.3964  0.1482
 1809SOL    HW2 7234   1.216   3.569   3.071  0.2096 -0.0688  0.4870
 1809SOL    HW3 7235   1.127   3.691   3.086 -0.9257 -0.9276  0.8843
 1809SOL    MW4 7236   1.145   3.614   3.048  0.0434 -0.4233  0.2900
 1810SOL     OW 7237   1.116   3.857   3.155  0.1263  0.3781  0.4398
 1810SOL    HW2 7238   1.087   3.842   3.245 -0.6840  1.0587  0.3036
 1810SOL    HW3 7239   1.044   3.906   3.115  0.1955 -0.4646 -0.7605
 1810SOL    MW4 7240   1.103   3.861   3.161  0.0285  0.3567  0.2634
 1811SOL     OW 7241   0.907   3.984   3.028  0.0128  0.4403  0.0970
 1811SOL    HW2 7242   0.829   3.939   3.061  0.0885  0.6858  0.6154
 1811SOL    HW3 7243   0.887   4.001   2.935 -0.9624  1.3727  0.4630
 1811SOL    MW4 7244   0.894   3.980   3.020 -0.1059  0.5957  0.2137
 1812SOL     OW 7245   0.893   4.246   3.114  0.0567 -0.5046  0.2811
 1812SOL    HW2 7246   0.883   4.159   3.076 -0.2699 -0.5236  0.4137
 1812SOL    HW3 7247   0.810   4.290   3.097 -0.2984 -0.6963  1.4530
 1812SOL    MW4 7248   0.881   4.241   3.107 -0.0332 -0.5324  0.4532
 1813SOL     OW 7249   1.115   4.386   3.064 -0.1595 -0.3221  0.0522
 1813SOL    HW2 7250   1.036   4.341   3.092 -0.4666 -0.4017 -0.9553
 1813SOL    HW3 7251   1.107   4.474   3.100  0.0416 -0.7965  1.2932
 1813SOL    MW4 7252   1.104   4.391   3.073 -0.1735 -0.3952  0.0830
 1814SOL     OW 7253   1.579   4.627   3.114  0.6216 -0.2095 -0.0850
 1814SOL    HW2 7254   1.577   4.618   3.209 -0.6883  0.3202 -0.0561
 1814SOL    HW3 7255   1.500   4.676   3.092  0.6016 -0.8449 -1.5114
 1814SOL    MW4 7256   1.569   4.632   3.123  0.4461 -0.2235 -0.2694
 1815SOL     OW 7257   1.343   0.091   3.065 -0.0218 -0.3698  0.1843
 1815SOL    HW2 7258   1.361   0.184   3.077 -0.5808 -0.0254 -1.4948
 1815SOL    HW3 7259   1.344   0.078   2.970  1.5039 -2.3807  0.4351
 1815SOL    MW4 7260   1.345   0.101   3.054  0.1057 -0.5897 -0.0042
 1816SOL     OW 7261   1.396   0.364   3.121  0.0320 -0.1124  0.2866
 1816SOL    HW2 7262   1.392   0.380   3.215  0.8934  0.2885  0.2560
 1816SOL    HW3 7263   1.474   0.410   3.092  1.5630 -2.8552 -0.1050
 1816SOL    MW4 7264   1.405   0.372   3.129  0.3476 -0.4214  0.2309
 1817SOL     OW 7265   1.606   0.518   3.059 -0.0230  0.1672 -0.0084
 1817SOL    HW2 7266   1.591   0.610   3.081  1.3379  0.1863  0.8812
 1817SOL    HW3 7267   1.598   0.515   2.963 -1.5519  0.9191  0.0858
 1817SOL    MW4 7268   1.603   0.530   3.049 -0.0451  0.2689  0.1214
 1818SOL     OW 7269   1.576   0.782   3.133 -0.2581  0.4405 -0.1733
 1818SOL    HW2 7270   1.562   0.792   3.227  0.8690  2.0412 -0.1662
 1818SOL    HW3 7271   1.497   0.817   3.093 -0.2070  0.9327  0.1485
 1818SOL    MW4 7272   1.564   0.788   3.140 -0.1026  0.7167 -0.1299
 1819SOL     OW 7273   1.344   0.908   3.055  0.3089 -0.0683  0.1254
 1819SOL    HW2 7274   1.351   0.992   3.102  0.7920  0.6228 -1.1722
 1819SOL    HW3 7275   1.258   0.874   3.080 -1.0484  2.0932 -1.4322
 1819SOL    MW4 7276   1.334   0.915   3.065  0.1935  0.3081 -0.2513
 1820SOL     OW 7277   1.372   1.167   3.153 -0.3064  0.3826 -0.4027
 1820SOL    HW2 7278   1.397   1.177   3.245 -1.2592  0.9643 -0.1889
 1820SOL    HW3 7279   1.441   1.211   3.104  0.3846 -0.2291  0.0103
 1820SOL    MW4 7280   1.384   1.174   3.159 -0.3409  0.3786 -0.3200
 1821SOL     OW 7281   1.588   1.284   3.015  0.3907  0.1273  0.4251
 1821SOL    HW2 7282   1.655   1.236   3.063 -0.4256  0.1640  1.6145
 1821SOL    HW3 7283   1.600   1.375   3.042 -0.6598  0.0222  1.2940
 1821SOL    MW4 7284   1.599   1.290   3.025  0.1444  0.1183  0.6967
 1822SOL     OW 7285   1.629   1.517   3.156 -0.5602  0.6018  0.0194
 1822SOL    HW2 7286   1.702   1.570   3.123 -0.0606  0.7476  1.3411
 1822SOL    HW3 7287   1.551   1.555   3.115  0.2887 -1.0419 -3.3126
 1822SOL    MW4 7288   1.629   1.529   3.146 -0.3823  0.4042 -0.2458
 1823SOL     OW 7289   1.411   1.643   3.056  0.4038 -0.2800  0.5875
 1823SOL    HW2 7290   1.399   1.731   3.091  1.3381  0.1899 -0.2454
 1823SOL    HW3 7291   1.406   1.654   2.962 -4.0145 -1.8305  0.5654
 1823SOL    MW4 7292   1.409   1.656   3.049 -0.0559 -0.4226  0.4747
 1824SOL     OW 7293   1.361   1.917   3.144 -0.1213 -0.6535 -0.4353
 1824SOL    HW2 7294   1.354   1.917   3.240 -0.9256 -1.9113 -0.4776
 1824SOL    HW3 7295   1.282   1.960   3.114 -0.0267 -0.5538 -0.5406
 1824SOL    MW4 7296   1.350   1.922   3.153 -0.2150 -0.8063 -0.4548
 1825SOL     OW 7297   1.559   2.077   3.076  0.3421 -0.5759  0.2097
 1825SOL    HW2 7298   1.478   2.042   3.113 -0.4844  0.7050 -0.4019
 1825SOL    HW3 7299   1.557   2.052   2.984 -0.5365  1.5740 -0.3715
 1825SOL    MW4 7300   1.548   2.069   3.069  0.1172 -0.1232  0.0523
 1826SOL     OW 7301   1.535   2.319   3.200  0.5630  0.2364 -0.1378
 1826SOL    HW2 7302   1.476   2.368   3.143  0.3272  0.2558  0.1225
 1826SOL    HW3 7303   1.548   2.236   3.153  0.9334  0.5308 -0.5588
 1826SOL    MW4 7304   1.529   2.315   3.186  0.5808  0.2778 -0.1590
 1827SOL     OW 7305   1.340   2.428   3.023  0.0299 -0.0120 -0.0774
 1827SOL    HW2 7306   1.268   2.375   3.055  0.7415  0.3751  2.2135
 1827SOL    HW3 7307   1.339   2.415   2.928 -1.8974 -1.4280  0.1187
 1827SOL    MW4 7308   1.330   2.420   3.014 -0.1305 -0.1477  0.2508
 1828SOL     OW 7309   1.311   2.693   3.166 -0.0052  0.1502  0.0895
 1828SOL    HW2 7310   1.322   2.617   3.109 -0.7237  0.1231 -0.0072
 1828SOL    HW3 7311   1.238   2.742   3.128  0.1312  0.6295  0.4377
 1828SOL    MW4 7312   1.303   2.689   3.154 -0.0820  0.2098  0.1227
 1829SOL     OW 7313   1.538   2.841   3.052 -0.0668 -0.1202  0.0170
 1829SOL    HW2 7314   1.602   2.796   3.107  0.2984  1.1902  0.7026
 1829SOL    HW3 7315   1.453   2.815   3.087  0.1577  0.5472  1.1102
 1829SOL    MW4 7316   1.535   2.832   3.064  0.0110  0.1408  0.2517
 1830SOL     OW 7317   1.566   3.118   3.153 -0.5499 -0.1205 -0.3359
 1830SOL    HW2 7318   1.567   3.091   3.245  2.4878 -1.1305 -0.5774
 1830SOL    HW3 7319   1.570   3.035   3.104  2.2645  0.4749 -1.2288
 1830SOL    MW4 7320   1.567   3.103   3.158  0.2222 -0.1752 -0.4856
 1831SOL     OW 7321   1.325   3.243   3.075 -0.0481  0.0559 -0.4095
 1831SOL    HW2 7322   1.409   3.207   3.105  0.1808 -0.7049 -1.9181
 1831SOL    HW3 7323   1.327   3.232   2.980 -2.1999 -0.7114 -0.3907
 1831SOL    MW4 7324   1.336   3.237   3.067 -0.3018 -0.1457 -0.6060
 1832SOL     OW 7325   1.348   3.501   3.163 -0.5025 -0.1873 -0.1144
 1832SOL    HW2 7326   1.356   3.499   3.258  0.6134  1.0611 -0.1670
 1832SOL    HW3 7327   1.322   3.412   3.139 -0.8096 -0.5045  1.3549
 1832SOL    MW4 7328   1.346   3.489   3.172 -0.3958 -0.0644  0.0725
 1833SOL     OW 7329   1.576   3.583   3.043 -0.1008 -0.6788 -0.2604
 1833SOL    HW2 7330   1.499   3.540   3.081  0.0527 -0.9744 -0.2846
 1833SOL    HW3 7331   1.573   3.560   2.950 -1.5743  1.6609 -0.8364
 1833SOL    MW4 7332   1.565   3.575   3.036 -0.2749 -0.4091 -0.3396
 1834SOL     OW 7333   1.564   3.843   3.134  0.2535  0.4364  0.2038
 1834SOL    HW2 7334   1.652   3.874   3.112  0.6350 -1.1209 -0.5238
 1834SOL    HW3 7335   1.554   3.762   3.084 -1.0386 -0.1829  1.4421
 1834SOL    MW4 7336   1.574   3.836   3.124  0.1334  0.1492  0.2712
 1835SOL     OW 7337   1.337   3.979   3.016 -0.4914 -0.1690 -0.2191
 1835SOL    HW2 7338   1.409   3.940   3.065  0.6455  0.1571 -1.5736
 1835SOL    HW3 7339   1.259   3.934   3.047  0.2373 -0.1649  1.6558
 1835SOL    MW4 7340   1.336   3.968   3.026 -0.2452 -0.1254 -0.1505
 1836SOL     OW 7341   1.342   4.248   3.141 -0.2057  0.2956  0.1953
 1836SOL    HW2 7342   1.330   4.163   3.098 -0.4245 -0.6086  2.0093
 1836SOL    HW3 7343   1.258   4.292   3.131 -0.1584  0.2101 -0.5678
 1836SOL    MW4 7344   1.329   4.242   3.134 -0.2283  0.1650  0.3340
 1837SOL     OW 7345   1.562   4.355   2.995 -0.2931  0.2345  0.0594
 1837SOL    HW2 7346   1.475   4.335   3.030 -0.8520  1.7901 -0.3728
 1837SOL    HW3 7347   1.573   4.448   3.011  0.4401  0.4812 -1.7060
 1837SOL    MW4 7348   1.552   4.365   3.002 -0.2701  0.4723 -0.2306
 1838SOL     OW 7349   2.013   0.007   3.127 -0.1317  0.0835 -0.1122
 1838SOL    HW2 7350   2.010  -0.009   3.222  0.8140  1.7930  0.2350
 1838SOL    HW3 7351   1.931   0.052   3.108  1.0096  2.4737  0.4655
 1838SOL    MW4 7352   2.002   0.011   3.137  0.1437  0.6244  0.0099
 1839SOL     OW 7353   1.786   0.151   3.069  0.1303  0.2981 -0.0306
 1839SOL    HW2 7354   1.702   0.107   3.074  0.5976 -0.5767  0.2738
 1839SOL    HW3 7355   1.811   0.146   2.976  1.0373 -1.7276  0.3022
 1839SOL    MW4 7356   1.778   0.145   3.057  0.3116 -0.0846  0.0535
 1840SOL     OW 7357   1.812   0.400   3.204 -0.2616  0.1213 -0.1324
 1840SOL    HW2 7358   1.802   0.315   3.161  0.2931  1.1353 -2.3674
 1840SOL    HW3 7359   1.760   0.460   3.150 -0.3916  1.2662  1.2385
 1840SOL    MW4 7360   1.804   0.397   3.191 -0.2056  0.4061 -0.2464
 1841SOL     OW 7361   2.065   0.461   3.095  0.4707  0.1434 -0.4712
 1841SOL    HW2 7362   1.981   0.424   3.121  0.7223 -0.1099 -0.0041
 1841SOL    HW3 7363   2.053   0.489   3.004 -0.6364  1.6847  0.1282
 1841SOL    MW4 7364   2.052   0.460   3.086  0.3578  0.3133 -0.3305
 1842SOL     OW 7365   2.059   0.745   3.201 -0.0174 -0.3414 -0.7033
 1842SOL    HW2 7366   1.981   0.778   3.155  0.3814  0.7987 -0.5888
 1842SOL    HW3 7367   2.067   0.654   3.173 -1.7951 -0.6742 -0.1777
 1842SOL    MW4 7368   2.049   0.737   3.191 -0.1993 -0.2349 -0.6189
 1843SOL     OW 7369   1.845   0.873   3.088  0.3718 -0.2288  0.3159
 1843SOL    HW2 7370   1.767   0.860   3.141 -0.0614  0.7010 -0.0752
 1843SOL    HW3 7371   1.820   0.845   3.000  0.6237 -0.3550  0.2818
 1843SOL    MW4 7372   1.832   0.868   3.083  0.3479 -0.1228  0.2598
 1844SOL     OW 7373   1.791   1.143   3.144  0.2841 -0.0953  0.0354
 1844SOL    HW2 7374   1.792   1.153   3.239  0.3206  0.6260 -0.0411
 1844SOL    HW3 7375   1.815   1.051   3.129 -0.4141 -0.3946  0.7458
 1844SOL    MW4 7376   1.794   1.132   3.155  0.1968 -0.0396  0.1190
 1845SOL     OW 7377   2.014   1.284   3.036  0.1315  0.1661  0.1099
 1845SOL    HW2 7378   2.091   1.234   3.064 -0.6408 -1.7043 -0.9712
 1845SOL    HW3 7379   1.940   1.237   3.076 -0.5301  1.1532  0.0541
 1845SOL    MW4 7380   2.014   1.271   3.045 -0.0577  0.0495 -0.0401
 1846SOL     OW 7381   2.047   1.548   3.136  0.2338  0.3153 -0.0752
 1846SOL    HW2 7382   2.032   1.536   3.230 -0.8945  0.6324 -0.2142
 1846SOL    HW3 7383   2.024   1.464   3.097  1.6938 -0.1556  0.0304
 1846SOL    MW4 7384   2.042   1.536   3.143  0.2775  0.2950 -0.0796
 1847SOL     OW 7385   1.826   1.687   3.067  0.0183  0.2713 -0.3792
 1847SOL    HW2 7386   1.808   1.775   3.102  0.4685 -0.3464  1.4298
 1847SOL    HW3 7387   1.909   1.662   3.106  0.4581 -0.5227 -1.7899
 1847SOL    MW4 7388   1.834   1.695   3.076  0.1357  0.0850 -0.3266
 1848SOL     OW 7389   1.783   1.942   3.170 -0.0773 -0.0624  0.1668
 1848SOL    HW2 7390   1.865   1.990   3.155  1.6341 -2.5798  1.2043
 1848SOL    HW3 7391   1.718   1.988   3.116  1.9862  1.9886 -0.6467
 1848SOL    MW4 7392   1.785   1.955   3.161  0.4207 -0.1239  0.1964
 1849SOL     OW 7393   2.012   2.061   3.067  0.1096 -0.2712 -0.4057
 1849SOL    HW2 7394   2.096   2.021   3.091  0.0416 -1.1265 -1.5675
 1849SOL    HW3 7395   2.027   2.155   3.076  0.4255 -0.4986  1.8697
 1849SOL    MW4 7396   2.025   2.068   3.071  0.1423 -0.4140 -0.2588
 1850SOL     OW 7397   2.036   2.334   3.103  0.4863  0.3355  0.3498
 1850SOL    HW2 7398   2.093   2.402   3.068  0.5003  0.1255 -0.0405
 1850SOL    HW3 7399   1.948   2.371   3.097  0.6063  0.7923  1.2673
 1850SOL    MW4 7400   2.032   2.348   3.098  0.5040  0.3681  0.4194
 1851SOL     OW 7401   1.793   2.446   3.072  0.3436  0.0443 -0.1181
 1851SOL    HW2 7402   1.787   2.536   3.103  0.6436 -0.2807  0.9160
 1851SOL    HW3 7403   1.712   2.405   3.101 -0.7127  0.5105 -2.3757
 1851SOL    MW4 7404   1.782   2.452   3.080  0.2438  0.0629 -0.2795
 1852SOL     OW 7405   1.774   2.702   3.167  0.1618 -0.2784  0.0641
 1852SOL    HW2 7406   1.783   2.690   3.261  0.3232 -1.7135 -0.1203
 1852SOL    HW3 7407   1.857   2.740   3.139  0.4414 -0.6739  0.3674
 1852SOL    MW4 7408   1.786   2.705   3.176  0.2200 -0.5199  0.0798
 1853SOL     OW 7409   2.003   2.818   3.096  0.0377 -0.0185 -0.1215
 1853SOL    HW2 7410   2.005   2.911   3.116  1.3582 -0.1180  0.2943
 1853SOL    HW3 7411   2.028   2.812   3.004 -0.0924  0.0434 -0.1604
 1853SOL    MW4 7412   2.007   2.829   3.087  0.1948 -0.0235 -0.0718
 1854SOL     OW 7413   2.027   3.097   3.138 -0.1748  0.1343  0.0728
 1854SOL    HW2 7414   2.002   3.105   3.230 -1.2446 -0.2151 -0.1680
 1854SOL    HW3 7415   1.952   3.133   3.090  0.1597 -0.1393 -0.6631
 1854SOL    MW4 7416   2.014   3.103   3.144 -0.2718  0.0521 -0.0561
 1855SOL     OW 7417   1.798   3.211   3.034 -0.0504  0.1325 -0.0170
 1855SOL    HW2 7418   1.712   3.210   3.074  0.3288 -0.8694  0.7883
 1855SOL    HW3 7419   1.781   3.212   2.940 -0.9309  0.5691  0.1464
 1855SOL    MW4 7420   1.785   3.211   3.027 -0.1165  0.0579  0.1108
 1856SOL     OW 7421   1.812   3.468   3.138  0.2519  0.4213 -0.1481
 1856SOL    HW2 7422   1.809   3.383   3.095  0.6532  0.1460  0.3608
 1856SOL    HW3 7423   1.734   3.514   3.106 -1.0602 -0.8768  1.1213
 1856SOL    MW4 7424   1.801   3.463   3.128  0.1318  0.2137  0.0865
 1857SOL     OW 7425   2.016   3.587   3.010 -0.3523 -0.1777  0.0463
 1857SOL    HW2 7426   2.021   3.668   3.060  0.3815 -0.8543  1.0768
 1857SOL    HW3 7427   1.947   3.536   3.053  1.2158 -1.3438  1.2770
 1857SOL    MW4 7428   2.008   3.591   3.022 -0.0486 -0.4208  0.3447
 1858SOL     OW 7429   2.010   3.828   3.138  0.4219 -0.5126 -0.0635
 1858SOL    HW2 7430   2.011   3.850   3.231  0.6998 -1.0302  0.0632
 1858SOL    HW3 7431   1.923   3.853   3.108  0.1083 -0.9270  0.4860
 1858SOL    MW4 7432   1.999   3.834   3.146  0.4172 -0.6356  0.0257
 1859SOL     OW 7433   1.785   3.954   3.031 -0.0588  0.0377 -0.0772
 1859SOL    HW2 7434   1.788   4.048   3.044 -1.6492  0.1155 -0.1030
 1859SOL    HW3 7435   1.800   3.942   2.937 -0.8903  0.3467 -0.2549
 1859SOL    MW4 7436   1.787   3.965   3.020 -0.3783  0.0887 -0.1040
 1860SOL     OW 7437   1.779   4.221   3.125 -0.3998 -0.3694 -0.5454
 1860SOL    HW2 7438   1.853   4.280   3.111 -1.3817  1.1555  0.5437
 1860SOL    HW3 7439   1.706   4.262   3.078 -0.9985 -0.9230 -0.1130
 1860SOL    MW4 7440   1.779   4.234   3.117 -0.6084 -0.2412 -0.3447
 1861SOL     OW 7441   2.006   4.392   3.058  0.1167 -0.2578  0.3098
 1861SOL    HW2 7442   2.019   4.482   3.089 -0.5935 -0.0735  0.0757
 1861SOL    HW3 7443   2.020   4.397   2.963 -0.5226 -0.2772  0.2144
 1861SOL    MW4 7444   2.010   4.405   3.050 -0.0613 -0.2361  0.2663
 1862SOL     OW 7445   2.449   4.610   3.152  0.0464 -0.0614  0.2348
 1862SOL    HW2 7446   2.466   4.532   3.099  0.5730 -0.1741  0.5564
 1862SOL    HW3 7447   2.374   4.652   3.111  1.5182  0.7925 -1.6409
 1862SOL    MW4 7448   2.442   4.605   3.140  0.3101  0.0364  0.0297
 1863SOL     OW 7449   2.254   0.114   3.051  0.4741  0.0692 -0.4568
 1863SOL    HW2 7450   2.268   0.199   3.094  0.8022  0.3341 -1.0785
 1863SOL    HW3 7451   2.161   0.096   3.064  0.5330  0.2299  0.2115
 1863SOL    MW4 7452   2.244   0.123   3.059  0.5252  0.1254 -0.4507
 1864SOL     OW 7453   2.288   0.349   3.180 -0.4404 -0.5488 -0.1599
 1864SOL    HW2 7454   2.276   0.350   3.275  2.9149 -0.0172  0.3069
 1864SOL    HW3 7455   2.214   0.400   3.147 -1.1390  0.0787  2.2313
 1864SOL    MW4 7456   2.277   0.356   3.188 -0.0898 -0.3959  0.2172
 1865SOL     OW 7457   2.482   0.545   3.128  0.3086  0.1260 -0.2383
 1865SOL    HW2 7458   2.415   0.483   3.159 -1.4831  1.8113 -0.7073
 1865SOL    HW3 7459   2.481   0.536   3.033  0.3049  0.6396 -0.2841
 1865SOL    MW4 7460   2.473   0.535   3.120  0.0717  0.4161 -0.3062
 1866SOL     OW 7461   2.489   0.824   3.211  0.2271  0.2843  0.3161
 1866SOL    HW2 7462   2.563   0.848   3.155  2.0486 -1.6867  1.7861
 1866SOL    HW3 7463   2.480   0.729   3.200 -1.6054  0.3819  0.7630
 1866SOL    MW4 7464   2.497   0.814   3.202  0.2256  0.0371  0.5690
 1867SOL     OW 7465   2.253   0.885   3.056 -0.0186 -0.8041 -0.3858
 1867SOL    HW2 7466   2.328   0.852   3.105 -0.3076 -0.8836  0.0008
 1867SOL    HW3 7467   2.176   0.853   3.104 -0.2994  0.7032  0.1920
 1867SOL    MW4 7468   2.253   0.876   3.069 -0.0938 -0.6157 -0.2585
 1868SOL     OW 7469   2.215   1.143   3.163 -0.2697 -0.0500  0.5463
 1868SOL    HW2 7470   2.247   1.140   3.253 -0.1218  0.1739  0.4988
 1868SOL    HW3 7471   2.222   1.052   3.133  2.7265  0.4316 -0.3253
 1868SOL    MW4 7472   2.220   1.131   3.171  0.1451  0.0431  0.4250
 1869SOL     OW 7473   2.446   1.232   3.065  0.7830 -0.1158 -0.1251
 1869SOL    HW2 7474   2.362   1.201   3.099  1.1563  0.1862  1.1016
 1869SOL    HW3 7475   2.426   1.266   2.978 -0.0019 -1.8444 -0.6230
 1869SOL    MW4 7476   2.432   1.232   3.058  0.7287 -0.3040 -0.0290
 1870SOL     OW 7477   2.469   1.501   3.182 -0.3273  0.1597  0.2987
 1870SOL    HW2 7478   2.395   1.558   3.162  0.3985  0.7539 -0.7565
 1870SOL    HW3 7479   2.443   1.415   3.147 -0.7945  0.2049  0.5352
 1870SOL    MW4 7480   2.456   1.497   3.175 -0.2932  0.2440  0.1906
 1871SOL     OW 7481   2.286   1.680   3.093 -0.0190 -0.2980 -0.2853
 1871SOL    HW2 7482   2.196   1.657   3.115  0.0780  0.0541  0.5182
 1871SOL    HW3 7483   2.286   1.689   2.998 -0.9240  0.0644 -0.2639
 1871SOL    MW4 7484   2.274   1.679   3.084 -0.1256 -0.2037 -0.1765
 1872SOL     OW 7485   2.258   1.938   3.169  0.5844 -0.1642  0.6142
 1872SOL    HW2 7486   2.340   1.985   3.154  0.2248 -0.4943 -2.7146
 1872SOL    HW3 7487   2.281   1.846   3.155 -0.1926 -0.3377  0.4796
 1872SOL    MW4 7488   2.272   1.932   3.165  0.4344 -0.2306  0.1573
 1873SOL     OW 7489   2.499   2.061   3.096 -0.3250 -0.0432  0.5287
 1873SOL    HW2 7490   2.584   2.025   3.120 -0.1276  1.4334  2.1566
 1873SOL    HW3 7491   2.499   2.061   3.000  0.4651 -2.3914  0.4824
 1873SOL    MW4 7492   2.510   2.056   3.087 -0.1947 -0.1582  0.7374
 1874SOL     OW 7493   2.439   2.322   3.156 -0.1097 -0.0914  0.1429
 1874SOL    HW2 7494   2.423   2.330   3.250  1.3478  0.2423  0.3885
 1874SOL    HW3 7495   2.449   2.228   3.141 -0.3351 -0.1443  0.3362
 1874SOL    MW4 7496   2.438   2.311   3.166  0.0529 -0.0544  0.2008
 1875SOL     OW 7497   2.249   2.490   3.056  0.3594 -0.2375 -0.1058
 1875SOL    HW2 7498   2.259   2.574   3.102 -0.2553  0.1127 -0.6072
 1875SOL    HW3 7499   2.320   2.436   3.090  0.4169  0.2979  0.6440
 1875SOL    MW4 7500   2.259   2.494   3.067  0.2858 -0.1206 -0.0731
 1876SOL     OW 7501   2.256   2.740   3.200 -0.0243  1.1870 -0.2450
 1876SOL    HW2 7502   2.319   2.793   3.150 -1.0563  1.9299 -0.8057
 1876SOL    HW3 7503   2.170   2.770   3.168 -0.6181 -1.3142 -1.0468
 1876SOL    MW4 7504   2.253   2.751   3.189 -0.2388  0.9550 -0.4248
 1877SOL     OW 7505   2.459   2.851   3.047  0.3777  0.5699  0.1773
 1877SOL    HW2 7506   2.460   2.946   3.059 -1.1398  0.5006  0.9656
 1877SOL    HW3 7507   2.443   2.839   2.953 -1.4147  1.0917  0.4054
 1877SOL    MW4 7508   2.457   2.862   3.036 -0.0590  0.6296  0.3114
 1878SOL     OW 7509   2.469   3.119   3.146  0.5538  0.2528  0.1510
 1878SOL    HW2 7510   2.533   3.186   3.121  0.8319  0.3528  1.0899
 1878SOL    HW3 7511   2.387   3.147   3.104  1.2062 -0.0876 -1.3813
 1878SOL    MW4 7512   2.466   3.132   3.137  0.6765  0.2210  0.0727
 1879SOL     OW 7513   2.239   3.224   3.037  0.0580 -0.0797  0.1590
 1879SOL    HW2 7514   2.239   3.306   3.088  0.1339  0.4779 -0.7334
 1879SOL    HW3 7515   2.168   3.173   3.075  0.3792  0.1568  1.1063
 1879SOL    MW4 7516   2.230   3.228   3.049  0.1104  0.0251  0.1662
 1880SOL     OW 7517   2.263   3.479   3.144  0.7351  0.2088  0.3271
 1880SOL    HW2 7518   2.335   3.528   3.102 -0.3613  1.0297 -0.6297
 1880SOL    HW3 7519   2.185   3.509   3.098 -0.5492  1.3715  3.1796
 1880SOL    MW4 7520   2.262   3.490   3.132  0.4210  0.4705  0.5772
 1881SOL     OW 7521   2.443   3.614   3.015  0.8581  0.2419 -0.5828
 1881SOL    HW2 7522   2.523   3.591   3.063 -1.1180  1.0790  3.3524
 1881SOL    HW3 7523   2.415   3.697   3.055 -2.5241 -0.5904 -1.1065
 1881SOL    MW4 7524   2.450   3.622   3.027  0.1511  0.2426 -0.1327
 1882SOL     OW 7525   2.426   3.867   3.114  0.8062 -0.5291 -0.1303
 1882SOL    HW2 7526   2.436   3.887   3.207  1.1381 -0.4609 -0.1811
 1882SOL    HW3 7527   2.505   3.903   3.073  1.4527 -2.0258 -0.2065
 1882SOL    MW4 7528   2.437   3.875   3.121  0.9353 -0.7176 -0.1471
 1883SOL     OW 7529   2.186   4.008   3.052 -0.0620 -0.1020  0.4715
 1883SOL    HW2 7530   2.263   3.967   3.090  1.2496  0.4725 -1.4841
 1883SOL    HW3 7531   2.113   3.953   3.080  1.1768 -1.2577  1.4792
 1883SOL    MW4 7532   2.187   3.996   3.060  0.2745 -0.1787  0.3464
 1884SOL     OW 7533   2.237   4.261   3.114  0.1929  0.3190  0.2726
 1884SOL    HW2 7534   2.218   4.170   3.091 -0.6397  0.4880  0.2484
 1884SOL    HW3 7535   2.158   4.309   3.087 -0.0229  0.8101  1.7382
 1884SOL    MW4 7536   2.224   4.255   3.107  0.0546  0.4061  0.4628
 1885SOL     OW 7537   2.477   4.374   3.001 -0.0923  0.2586  0.0755
 1885SOL    HW2 7538   2.389   4.346   3.028  0.2405 -0.5088  0.3506
 1885SOL    HW3 7539   2.478   4.359   2.906  0.2282 -1.0577  0.2813
 1885SOL    MW4 7540   2.465   4.369   2.992 -0.0061 -0.0163  0.1389
 1886SOL     OW 7541   2.928   4.595   3.219  0.4471 -0.1681  0.5289
 1886SOL    HW2 7542   2.989   4.651   3.171 -0.7664  0.6289 -0.1079
 1886SOL    HW3 7543   2.926   4.514   3.168  1.4412 -0.4373  0.9018
 1886SOL    MW4 7544   2.936   4.592   3.206  0.4181 -0.0984  0.4941
 1887SOL     OW 7545   2.684   0.099   3.098  0.1454  0.2346 -0.4723
 1887SOL    HW2 7546   2.754   0.058   3.149  0.1046  0.9914  0.1794
 1887SOL    HW3 7547   2.604   0.052   3.124  0.4787 -1.0359 -1.6545
 1887SOL    MW4 7548   2.683   0.087   3.108  0.1840  0.1668 -0.5423
 1888SOL     OW 7549   2.693   0.370   3.175 -0.3691  0.3272 -0.2870
 1888SOL    HW2 7550   2.681   0.277   3.159  0.4613  0.3682 -1.2286
 1888SOL    HW3 7551   2.615   0.411   3.137 -0.8649  0.0038  0.3688
 1888SOL    MW4 7552   2.681   0.363   3.168 -0.3249  0.2900 -0.3247
 1889SOL     OW 7553   2.915   0.506   3.071 -0.1103 -0.1261  0.1435
 1889SOL    HW2 7554   2.836   0.457   3.093  0.3664 -1.2303 -0.5429
 1889SOL    HW3 7555   2.917   0.506   2.975  0.2640  0.6632  0.1435
 1889SOL    MW4 7556   2.905   0.500   3.061  0.0020 -0.1676  0.0529
 1890SOL     OW 7557   2.917   0.766   3.154  0.4825 -0.2349 -0.4609
 1890SOL    HW2 7558   2.935   0.760   3.247  0.1423  0.2237 -0.3656
 1890SOL    HW3 7559   2.908   0.675   3.126 -0.0981 -0.3524  0.0929
 1890SOL    MW4 7560   2.918   0.753   3.162  0.3610 -0.1899 -0.3753
 1891SOL     OW 7561   2.700   0.908   3.041 -0.0871  0.4544  0.0177
 1891SOL    HW2 7562   2.703   0.996   3.078  0.1472  0.2935  0.3840
 1891SOL    HW3 7563   2.774   0.862   3.082  1.9410  1.0936 -2.7504
 1891SOL    MW4 7564   2.710   0.913   3.051  0.2114  0.5175 -0.2992
 1892SOL     OW 7565   2.680   1.146   3.186  0.5128 -0.0261 -0.2053
 1892SOL    HW2 7566   2.757   1.193   3.155  0.3981  1.3183  1.4566
 1892SOL    HW3 7567   2.607   1.188   3.141  0.6542 -0.4845 -0.8578
 1892SOL    MW4 7568   2.680   1.158   3.176  0.5163  0.0908 -0.0721
 1893SOL     OW 7569   2.930   1.262   3.091 -0.4160  0.0233 -0.0572
 1893SOL    HW2 7570   3.012   1.232   3.129 -0.2582 -0.2825 -0.6397
 1893SOL    HW3 7571   2.909   1.342   3.140  0.4235  0.3131 -0.1605
 1893SOL    MW4 7572   2.938   1.269   3.103 -0.2844  0.0212 -0.1477
 1894SOL     OW 7573   2.910   1.523   3.192 -0.1902  0.6342  0.0102
 1894SOL    HW2 7574   2.945   1.540   3.279 -0.7251  3.1251 -0.2346
 1894SOL    HW3 7575   2.982   1.541   3.132 -0.2814  0.4401 -0.1609
 1894SOL    MW4 7576   2.924   1.527   3.195 -0.2728  0.9372 -0.0447
 1895SOL     OW 7577   2.681   1.658   3.081  0.5942  0.0906 -0.3108
 1895SOL    HW2 7578   2.768   1.631   3.109  0.8330  1.0784 -0.0686
 1895SOL    HW3 7579   2.622   1.594   3.119  1.0645  0.4237  0.9938
 1895SOL    MW4 7580   2.685   1.646   3.089  0.6878  0.2648 -0.1067
 1896SOL     OW 7581   2.719   1.922   3.175 -0.4618  0.2833 -0.0713
 1896SOL    HW2 7582   2.786   1.956   3.116  0.0566  1.2473  1.0440
 1896SOL    HW3 7583   2.696   1.837   3.138  3.5034 -1.4208  1.0593
 1896SOL    MW4 7584   2.725   1.915   3.163  0.1297  0.1857  0.2250
 1897SOL     OW 7585   2.914   2.077   3.017  0.0726 -0.0937 -0.2680
 1897SOL    HW2 7586   2.900   2.166   3.051 -1.6331 -0.3510 -0.2432
 1897SOL    HW3 7587   2.899   2.085   2.923  0.0446 -0.3202 -0.2823
 1897SOL    MW4 7588   2.910   2.090   3.009 -0.1561 -0.1575 -0.2666
 1898SOL     OW 7589   2.885   2.327   3.146 -0.4100  0.2498  0.1747
 1898SOL    HW2 7590   2.954   2.392   3.130 -1.0608  0.4857 -1.8328
 1898SOL    HW3 7591   2.805   2.369   3.112 -1.0709 -1.0464  0.1163
 1898SOL    MW4 7592   2.883   2.341   3.139 -0.5831  0.1099 -0.0979
 1899SOL     OW 7593   2.650   2.423   3.030  0.0419 -0.5539 -0.0704
 1899SOL    HW2 7594   2.653   2.514   3.059 -1.0313  0.1933 -2.1695
 1899SOL    HW3 7595   2.586   2.381   3.087 -0.0523  0.1973  0.3825
 1899SOL    MW4 7596   2.642   2.430   3.041 -0.1121 -0.3562 -0.2876
 1900SOL     OW 7597   2.662   2.687   3.139  0.1221  0.4654 -0.0236
 1900SOL    HW2 7598   2.668   2.707   3.232 -0.1855 -1.7095  0.4737
 1900SOL    HW3 7599   2.592   2.744   3.107 -0.9365 -0.0285  1.4111
 1900SOL    MW4 7600   2.654   2.697   3.147 -0.0581  0.1133  0.2313
 1901SOL     OW 7601   2.885   2.829   3.039 -0.4328  0.0749 -0.3180
 1901SOL    HW2 7602   2.948   2.794   3.102 -1.0391  0.7003  0.6604
 1901SOL    HW3 7603   2.801   2.794   3.068 -0.7807  0.7456 -0.4888
 1901SOL    MW4 7604   2.882   2.820   3.051 -0.5587  0.2459 -0.2114
 1902SOL     OW 7605   2.880   3.087   3.158  0.3028 -0.1760  0.6751
 1902SOL    HW2 7606   2.794   3.122   3.137  0.3857  0.3189  1.1616
 1902SOL    HW3 7607   2.879   2.997   3.123  0.1048  0.3199 -0.6139
 1902SOL    MW4 7608   2.869   3.079   3.151  0.2876 -0.0453  0.5692
 1903SOL     OW 7609   2.674   3.250   3.047 -0.1654 -0.3527  0.0721
 1903SOL    HW2 7610   2.676   3.340   3.079  0.4021 -0.3729  0.0964
 1903SOL    HW3 7611   2.688   3.257   2.953 -0.2566 -0.4053  0.0547
 1903SOL    MW4 7612   2.676   3.263   3.039 -0.1026 -0.3623  0.0730
 1904SOL     OW 7613   2.688   3.508   3.134 -0.0858 -0.4646 -0.7260
 1904SOL    HW2 7614   2.694   3.533   3.226  0.3797 -3.1452  0.0241
 1904SOL    HW3 7615   2.762   3.552   3.092 -0.7647  1.4073 -0.0044
 1904SOL    MW4 7616   2.699   3.517   3.140 -0.1139 -0.5713 -0.5318
 1905SOL     OW 7617   2.928   3.622   3.051  0.6548  0.1428 -0.3887
 1905SOL    HW2 7618   2.987   3.567   3.103  0.3416  0.0440 -0.1396
 1905SOL    HW3 7619   2.937   3.709   3.089 -0.2523 -0.1103  0.4062
 1905SOL    MW4 7620   2.937   3.626   3.063  0.4938  0.0964 -0.2510
 1906SOL     OW 7621   2.915   3.900   3.144  0.0223  0.1758  0.3491
 1906SOL    HW2 7622   2.909   3.906   3.240 -1.4172 -0.3818  0.2986
 1906SOL    HW3 7623   2.829   3.926   3.113 -0.0374 -1.2783 -0.7267
 1906SOL    MW4 7624   2.903   3.904   3.153 -0.1755 -0.0896  0.2005
 1907SOL     OW 7625   2.673   3.983   3.038 -0.0171  0.6021 -0.1815
 1907SOL    HW2 7626   2.663   4.069   3.079 -2.0346  0.1375  0.3592
 1907SOL    HW3 7627   2.672   4.000   2.944 -2.1978  1.0282 -0.1100
 1907SOL    MW4 7628   2.671   3.996   3.031 -0.5710  0.5970 -0.1007
 1908SOL     OW 7629   2.681   4.247   3.132  0.2045  0.0141 -0.1069
 1908SOL    HW2 7630   2.679   4.263   3.227  1.6732 -0.2763 -0.0188
 1908SOL    HW3 7631   2.607   4.298   3.098 -0.4216  0.0142  1.2034
 1908SOL    MW4 7632   2.671   4.256   3.140  0.3156 -0.0242  0.0776
 1909SOL     OW 7633   2.910   4.373   3.027  0.1063 -0.3338  0.2069
 1909SOL    HW2 7634   2.991   4.331   3.057 -0.1750 -0.7626  0.3783
 1909SOL    HW3 7635   2.841   4.317   3.062 -0.3412  1.3275  2.0331
 1909SOL    MW4 7636   2.912   4.360   3.036  0.0101 -0.1712  0.4704
 1910SOL     OW 7637   3.325   4.639   3.176 -0.4060  0.0503  0.1648
 1910SOL    HW2 7638   3.402   4.664   3.125 -0.0927  0.7515  0.9564
 1910SOL    HW3 7639   3.321   4.544   3.169  0.5682  0.0023  0.1464
 1910SOL    MW4 7640   3.334   4.630   3.168 -0.2362  0.1365  0.2668
 1911SOL     OW 7641   3.098   0.107   3.082 -0.0893  0.5411  0.3811
 1911SOL    HW2 7642   3.090   0.198   3.110 -0.3212  0.1912  1.4833
 1911SOL    HW3 7643   3.180   0.077   3.123 -0.8849 -0.2359  1.4622
 1911SOL    MW4 7644   3.108   0.115   3.091 -0.2248  0.3924  0.6692
 1912SOL     OW 7645   3.134   0.375   3.178  0.1646  0.3170 -0.6097
 1912SOL    HW2 7646   3.221   0.405   3.151 -0.3963 -0.0694 -2.9311
 1912SOL    HW3 7647   3.073   0.439   3.141 -0.6052  0.1396  0.3190
 1912SOL    MW4 7648   3.137   0.387   3.169 -0.0110  0.2426 -0.7935
 1913SOL     OW 7649   3.366   0.476   3.085  0.0641  0.2454  0.2370
 1913SOL    HW2 7650   3.454   0.443   3.104 -0.8401 -2.1496  0.4659
 1913SOL    HW3 7651   3.357   0.470   2.990 -0.6405 -1.6878  0.4035
 1913SOL    MW4 7652   3.376   0.471   3.075 -0.1482 -0.3257  0.2892
 1914SOL     OW 7653   3.357   0.748   3.143  0.0693  0.0114 -0.2234
 1914SOL    HW2 7654   3.368   0.753   3.238 -1.7653 -0.6632  0.0489
 1914SOL    HW3 7655   3.352   0.654   3.125 -0.6141  0.1601 -0.8412
 1914SOL    MW4 7656   3.358   0.736   3.153 -0.2629 -0.0580 -0.2690
 1915SOL     OW 7657   3.139   0.904   3.072  0.2755  0.1914 -0.1613
 1915SOL    HW2 7658   3.212   0.848   3.099 -0.7641 -1.5261 -0.8604
 1915SOL    HW3 7659   3.061   0.861   3.107 -0.5732  0.9978 -1.0341
 1915SOL    MW4 7660   3.139   0.891   3.081  0.0264  0.0712 -0.3687
 1916SOL     OW 7661   3.161   1.155   3.191 -0.0432  0.1049 -0.0166
 1916SOL    HW2 7662   3.228   1.200   3.140 -0.5262  0.4554 -0.3424
 1916SOL    HW3 7663   3.166   1.063   3.162 -0.1565  0.2559 -0.5196
 1916SOL    MW4 7664   3.171   1.149   3.181 -0.1219  0.1711 -0.1260
 1917SOL     OW 7665   3.366   1.282   3.060  0.0328 -0.2354  0.0286
 1917SOL    HW2 7666   3.449   1.245   3.093  0.9410  0.5822 -1.2923
 1917SOL    HW3 7667   3.361   1.368   3.101 -0.0908 -0.2255 -0.0099
 1917SOL    MW4 7668   3.377   1.289   3.070  0.1363 -0.1262 -0.1507
 1918SOL     OW 7669   3.357   1.537   3.156 -0.4306  0.4523  0.2017
 1918SOL    HW2 7670   3.372   1.537   3.251 -2.0144 -0.1484  0.4703
 1918SOL    HW3 7671   3.432   1.585   3.120  1.8327 -2.0196  1.4690
 1918SOL    MW4 7672   3.369   1.544   3.164 -0.3410  0.0469  0.4044
 1919SOL     OW 7673   3.119   1.617   3.040  0.0718  0.3017 -0.7555
 1919SOL    HW2 7674   3.200   1.581   3.077 -0.4071 -1.2609 -1.1581
 1919SOL    HW3 7675   3.137   1.625   2.946  0.4528  1.9341 -0.5557
 1919SOL    MW4 7676   3.132   1.613   3.033  0.0589  0.3109 -0.7823
 1920SOL     OW 7677   3.076   1.886   3.152 -0.0962 -0.2642 -0.0975
 1920SOL    HW2 7678   3.071   1.802   3.106  0.3005 -0.2328 -0.1985
 1920SOL    HW3 7679   3.004   1.938   3.116  0.9654  0.1978 -1.5603
 1920SOL    MW4 7680   3.066   1.882   3.141  0.0962 -0.1991 -0.3038
 1921SOL     OW 7681   3.316   2.030   3.071 -0.1158 -0.0311 -0.0134
 1921SOL    HW2 7682   3.385   1.974   3.107  0.4173  0.4793 -0.2411
 1921SOL    HW3 7683   3.235   1.987   3.098  0.2854 -0.9483 -0.2268
 1921SOL    MW4 7684   3.315   2.017   3.079  0.0074 -0.0848 -0.0716
 1922SOL     OW 7685   3.357   2.306   3.179 -0.3168  0.0684  0.5188
 1922SOL    HW2 7686   3.374   2.293   3.273 -2.3975  0.8032  1.0368
 1922SOL    HW3 7687   3.348   2.217   3.144 -0.2692 -0.2004  1.1757
 1922SOL    MW4 7688   3.358   2.292   3.187 -0.5851  0.1299  0.6738
 1923SOL     OW 7689   3.124   2.452   3.067 -0.2363 -0.0320  0.0034
 1923SOL    HW2 7690   3.195   2.394   3.092 -0.0859  0.2339  0.1848
 1923SOL    HW3 7691   3.096   2.419   2.981 -0.9521 -1.1231  0.6410
 1923SOL    MW4 7692   3.129   2.440   3.059 -0.3109 -0.1409  0.1115
 1924SOL     OW 7693   3.113   2.735   3.176 -0.2755 -0.4596  0.0708
 1924SOL    HW2 7694   3.098   2.740   3.270  0.0353  0.2032  0.0829
 1924SOL    HW3 7695   3.111   2.641   3.157 -1.1327 -0.5573  0.6063
 1924SOL    MW4 7696   3.111   2.723   3.186 -0.3476 -0.3851  0.1430
 1925SOL     OW 7697   3.316   2.881   3.080  0.0140 -0.1841 -0.0416
 1925SOL    HW2 7698   3.325   2.964   3.128 -0.0275 -0.6363  0.7662
 1925SOL    HW3 7699   3.240   2.839   3.120  0.2254 -0.7536 -0.2429
 1925SOL    MW4 7700   3.307   2.887   3.092  0.0364 -0.3189  0.0384
 1926SOL     OW 7701   3.381   3.146   3.170 -0.0409  0.0439  0.4004
 1926SOL    HW2 7702   3.355   3.148   3.262  1.1894  0.7259  0.7383
 1926SOL    HW3 7703   3.299   3.161   3.123 -0.9299 -1.6995  1.3161
 1926SOL    MW4 7704   3.367   3.148   3.176  0.0041 -0.0962  0.5658
 1927SOL     OW 7705   3.124   3.194   3.071  0.5704  0.6021  0.3219
 1927SOL    HW2 7706   3.039   3.158   3.098  1.1929  0.0580  1.5988
 1927SOL    HW3 7707   3.120   3.196   2.976 -0.4767 -0.4157  0.3354
 1927SOL    MW4 7708   3.112   3.190   3.062  0.5143  0.3960  0.4922
 1928SOL     OW 7709   3.131   3.472   3.172 -0.1486 -0.1724  0.3337
 1928SOL    HW2 7710   3.203   3.512   3.124 -0.6434  0.3151 -0.0169
 1928SOL    HW3 7711   3.122   3.384   3.135 -1.3476  0.6393 -1.3698
 1928SOL    MW4 7712   3.139   3.466   3.161 -0.3721 -0.0010  0.0627
 1929SOL     OW 7713   3.324   3.596   3.015  0.5866  0.5842  0.2418
 1929SOL    HW2 7714   3.398   3.544   3.047  0.1453  0.4371  1.0377
 1929SOL    HW3 7715   3.325   3.674   3.070 -0.4724  0.1097  0.9431
 1929SOL    MW4 7716   3.334   3.600   3.027  0.3887  0.5022  0.4393
 1930SOL     OW 7717   3.352   3.823   3.162  0.4218  0.3132  0.0540
 1930SOL    HW2 7718   3.369   3.837   3.255  1.6932 -1.1302  0.0677
 1930SOL    HW3 7719   3.272   3.872   3.144  0.0912  0.4911  1.9305
 1930SOL    MW4 7720   3.344   3.831   3.172  0.5459  0.1462  0.3034
 1931SOL     OW 7721   3.167   4.001   3.069  0.0742  0.0613  0.5361
 1931SOL    HW2 7722   3.079   3.967   3.082 -0.3774  1.5580  1.5104
 1931SOL    HW3 7723   3.174   4.012   2.974 -0.8268  0.0250  0.4592
 1931SOL    MW4 7724   3.157   3.998   3.058 -0.1042  0.2540  0.6545
 1932SOL     OW 7725   3.128   4.265   3.154 -0.4180 -0.0118 -0.0983
 1932SOL    HW2 7726   3.123   4.256   3.249  2.6096 -0.2195  0.0901
 1932SOL    HW3 7727   3.147   4.177   3.122  1.4786  0.5375 -0.5980
 1932SOL    MW4 7728   3.130   4.252   3.162  0.2317  0.0332 -0.1394
 1933SOL     OW 7729   3.366   4.372   3.076 -0.5566 -0.1058  0.1984
 1933SOL    HW2 7730   3.443   4.330   3.114 -1.3861 -0.1723  1.8252
 1933SOL    HW3 7731   3.292   4.320   3.108 -1.1966 -1.4667 -3.1920
 1933SOL    MW4 7732   3.366   4.359   3.085 -0.7505 -0.2941 -0.0343
 1934SOL     OW 7733   3.817   4.608   3.149 -0.5380  0.2068  0.4307
 1934SOL    HW2 7734   3.815   4.521   3.111 -0.9266  0.4087 -0.0170
 1934SOL    HW3 7735   3.729   4.642   3.135 -0.0486  1.1420 -0.5157
 1934SOL    MW4 7736   3.805   4.601   3.142 -0.5247  0.3568  0.2467
 1935SOL     OW 7737   3.577   0.063   3.091 -0.1394  0.1306 -0.4842
 1935SOL    HW2 7738   3.587   0.156   3.110  1.6416  0.2663 -1.8863
 1935SOL    HW3 7739   3.570   0.059   2.995 -0.6472 -1.1318 -0.4028
 1935SOL    MW4 7740   3.578   0.075   3.081  0.0286 -0.0181 -0.6585
 1936SOL     OW 7741   3.619   0.335   3.168  0.0389  0.0371 -0.3640
 1936SOL    HW2 7742   3.635   0.345   3.262  0.2619  1.4502 -0.5278
 1936SOL    HW3 7743   3.699   0.368   3.127 -0.2173 -0.1954 -1.0471
 1936SOL    MW4 7744   3.631   0.341   3.175  0.0346  0.1928 -0.4757
 1937SOL     OW 7745   3.835   0.444   3.029 -0.0916 -0.4007 -0.1308
 1937SOL    HW2 7746   3.913   0.418   3.079 -0.1134 -0.1724  0.0237
 1937SOL    HW3 7747   3.819   0.535   3.056 -0.5520 -0.5269  0.0199
 1937SOL    MW4 7748   3.844   0.453   3.040 -0.1552 -0.3872 -0.0905
 1938SOL     OW 7749   3.808   0.706   3.122 -0.2342  0.5007  0.5183
 1938SOL    HW2 7750   3.827   0.703   3.216  0.8419  0.6085  0.3100
 1938SOL    HW3 7751   3.882   0.753   3.084 -0.3550 -0.0832 -0.4601
 1938SOL    MW4 7752   3.821   0.711   3.129 -0.1082  0.4379  0.3618
 1939SOL     OW 7753   3.598   0.863   3.061  0.3708 -0.2320  0.2145
 1939SOL    HW2 7754   3.671   0.810   3.092  1.5035  1.0329 -0.2361
 1939SOL    HW3 7755   3.520   0.817   3.091  1.3733 -1.0023  1.6847
 1939SOL    MW4 7756   3.597   0.850   3.069  0.6525 -0.1668  0.3490
 1940SOL     OW 7757   3.559   1.126   3.169  0.0599 -0.1168 -0.0751
 1940SOL    HW2 7758   3.641   1.170   3.150  0.9860 -1.0480  1.6813
 1940SOL    HW3 7759   3.571   1.037   3.137  0.5932 -0.8922  2.1870
 1940SOL    MW4 7760   3.571   1.120   3.163  0.2524 -0.3420  0.4551
 1941SOL     OW 7761   3.800   1.232   3.080 -0.0423  0.3223  0.1200
 1941SOL    HW2 7762   3.816   1.321   3.111  1.3625 -0.0611  0.5302
 1941SOL    HW3 7763   3.780   1.242   2.987  0.2022  1.0496  0.1479
 1941SOL    MW4 7764   3.799   1.245   3.072  0.1753  0.3677  0.1778
 1942SOL     OW 7765   3.795   1.503   3.147 -0.0828  0.5215 -0.2253
 1942SOL    HW2 7766   3.806   1.536   3.236 -1.6411 -1.6343  0.7816
 1942SOL    HW3 7767   3.728   1.559   3.108 -0.4891  0.4946  0.4422
 1942SOL    MW4 7768   3.788   1.515   3.153 -0.3420  0.2335 -0.0044
 1943SOL     OW 7769   3.583   1.677   3.062  0.3056 -0.7098  0.3091
 1943SOL    HW2 7770   3.577   1.767   3.094  0.8114 -0.2406 -0.8759
 1943SOL    HW3 7771   3.570   1.684   2.967  0.1442 -1.9066  0.2301
 1943SOL    MW4 7772   3.581   1.690   3.054  0.3511 -0.8058  0.1423
 1944SOL     OW 7773   3.570   1.932   3.150  0.2750 -0.3908 -0.1828
 1944SOL    HW2 7774   3.568   1.927   3.245  1.3274 -1.6787 -0.2137
 1944SOL    HW3 7775   3.658   1.964   3.129 -0.0034  0.0407 -0.7199
 1944SOL    MW4 7776   3.581   1.936   3.160  0.3771 -0.5038 -0.2577
 1945SOL     OW 7777   3.810   2.059   3.071 -0.5189 -0.2744 -0.0780
 1945SOL    HW2 7778   3.799   2.153   3.088  0.4353  0.0587 -1.2094
 1945SOL    HW3 7779   3.821   2.053   2.976  1.0107 -1.3584  0.1473
 1945SOL    MW4 7780   3.810   2.071   3.061 -0.1912 -0.3735 -0.1975
 1946SOL     OW 7781   3.787   2.337   3.142  0.1902 -0.0238 -0.1383
 1946SOL    HW2 7782   3.780   2.340   3.237 -1.0649  1.6420 -0.2599
 1946SOL    HW3 7783   3.703   2.371   3.111  0.7028 -0.2659 -1.8382
 1946SOL    MW4 7784   3.775   2.342   3.150  0.0923  0.1640 -0.3786
 1947SOL     OW 7785   3.546   2.463   3.055 -0.5468 -0.0549 -0.7831
 1947SOL    HW2 7786   3.528   2.551   3.086  0.9795 -0.6225  1.7982
 1947SOL    HW3 7787   3.474   2.410   3.089  0.9168 -0.6033  1.5638
 1947SOL    MW4 7788   3.534   2.467   3.063 -0.1523 -0.2022 -0.1329
 1948SOL     OW 7789   3.540   2.709   3.155 -0.5226 -0.1055  0.2521
 1948SOL    HW2 7790   3.618   2.739   3.108 -0.5395 -0.3593  0.0593
 1948SOL    HW3 7791   3.469   2.764   3.122 -0.4404  0.0646  0.3619
 1948SOL    MW4 7792   3.541   2.720   3.144 -0.5140 -0.1166  0.2411
 1949SOL     OW 7793   3.779   2.826   3.056 -0.3137 -0.1258 -0.5297
 1949SOL    HW2 7794   3.799   2.907   3.103 -0.5120 -0.3031 -0.1319
 1949SOL    HW3 7795   3.769   2.852   2.965  2.1179 -0.0747 -0.8288
 1949SOL    MW4 7796   3.781   2.840   3.050 -0.0190 -0.1424 -0.5167
 1950SOL     OW 7797   3.829   3.112   3.130 -0.0868  0.4580  0.2008
 1950SOL    HW2 7798   3.901   3.160   3.089 -0.0590  1.5146  1.4279
 1950SOL    HW3 7799   3.753   3.169   3.116 -0.4540 -0.1025 -0.0754
 1950SOL    MW4 7800   3.828   3.126   3.123 -0.1316  0.5234  0.3263
 1951SOL     OW 7801   3.608   3.258   3.060  0.1494 -0.5222  0.1794
 1951SOL    HW2 7802   3.530   3.208   3.085 -0.3558 -0.0173 -0.3660
 1951SOL    HW3 7803   3.613   3.249   2.965  0.9896 -0.8820  0.2498
 1951SOL    MW4 7804   3.598   3.251   3.051  0.1936 -0.5030  0.1167
 1952SOL     OW 7805   3.544   3.506   3.149  0.0331 -0.2809 -0.2701
 1952SOL    HW2 7806   3.620   3.561   3.130 -0.2112  0.0391 -0.3361
 1952SOL    HW3 7807   3.561   3.424   3.101  0.5429 -0.3816  0.0797
 1952SOL    MW4 7808   3.556   3.502   3.140  0.0681 -0.2520 -0.2327
 1953SOL     OW 7809   3.799   3.625   3.096  0.5127  0.2438 -0.2767
 1953SOL    HW2 7810   3.798   3.718   3.118 -0.7801 -0.1489  1.3542
 1953SOL    HW3 7811   3.801   3.624   3.000  2.6737  1.9494 -0.2974
 1953SOL    MW4 7812   3.799   3.637   3.086  0.6273  0.4170 -0.0642
 1954SOL     OW 7813   3.781   3.876   3.192  0.0612 -0.3177 -0.2075
 1954SOL    HW2 7814   3.780   3.863   3.287  0.8500  0.4614 -0.0869
 1954SOL    HW3 7815   3.695   3.911   3.171  0.1741  0.2876  0.3353
 1954SOL    MW4 7816   3.770   3.879   3.201  0.1802 -0.1351 -0.1200
 1955SOL     OW 7817   3.539   3.988   3.066  0.6647 -0.5280 -0.1744
 1955SOL    HW2 7818   3.463   3.933   3.085 -0.0227  0.7166  0.7728
 1955SOL    HW3 7819   3.553   3.978   2.972 -1.0858 -0.2749 -0.4845
 1955SOL    MW4 7820   3.531   3.980   3.056  0.3431 -0.3304 -0.0904
 1956SOL     OW 7821   3.573   4.231   3.200 -0.2607 -0.1194  0.0138
 1956SOL    HW2 7822   3.653   4.265   3.160  0.8583 -1.7784  0.7699
 1956SOL    HW3 7823   3.553   4.152   3.150 -0.1208 -0.9569  1.2504
 1956SOL    MW4 7824   3.581   4.225   3.188 -0.0946 -0.4488  0.2767
 1957SOL     OW 7825   3.789   4.345   3.075 -0.4073  0.4973 -0.0281
 1957SOL    HW2 7826   3.870   4.294   3.087 -0.4073  0.7971  1.3329
 1957SOL    HW3 7827   3.790   4.368   2.983  0.9086  0.2132 -0.1085
 1957SOL    MW4 7828   3.800   4.341   3.065 -0.2337  0.4994  0.1409
 1958SOL     OW 7829   4.251   4.637   3.155  0.3719 -0.0899 -0.0572
 1958SOL    HW2 7830   4.257   4.637   3.251 -2.2663 -0.4664  0.1575
 1958SOL    HW3 7831   4.258   4.545   3.131 -2.1360 -0.3345  0.0562
 1958SOL    MW4 7832   4.253   4.625   3.165 -0.3070 -0.1719 -0.0139
 1959SOL     OW 7833   4.026   0.118   3.081 -0.1065  0.3515  0.0621
 1959SOL    HW2 7834   4.094   0.063   3.118  0.1392  0.8461  0.3531
 1959SOL    HW3 7835   3.944   0.080   3.114 -0.0607 -1.0491 -1.3684
 1959SOL    MW4 7836   4.024   0.106   3.091 -0.0681  0.2320 -0.0882
 1960SOL     OW 7837   4.068   0.384   3.169  0.2671 -0.0135  0.5219
 1960SOL    HW2 7838   4.154   0.416   3.145 -0.0507  0.7987  0.4534
 1960SOL    HW3 7839   4.069   0.291   3.146  0.7496  0.2424 -0.4792
 1960SOL    MW4 7840   4.079   0.376   3.163  0.2888  0.1274  0.3808
 1961SOL     OW 7841   4.298   0.503   3.095  0.6602 -0.5270  0.2983
 1961SOL    HW2 7842   4.267   0.593   3.106 -1.5781 -1.0284 -1.4733
 1961SOL    HW3 7843   4.285   0.485   3.002  1.6304 -2.4954  0.5270
 1961SOL    MW4 7844   4.292   0.512   3.084  0.4929 -0.8528  0.0947
 1962SOL     OW 7845   4.232   0.781   3.196 -0.1331  0.2712  0.2124
 1962SOL    HW2 7846   4.157   0.809   3.143  0.1470 -1.8307 -1.3689
 1962SOL    HW3 7847   4.309   0.810   3.147  0.1317 -1.8871 -0.7103
 1962SOL    MW4 7848   4.232   0.788   3.183 -0.0612 -0.2909 -0.1180
 1963SOL     OW 7849   4.013   0.868   3.023  0.3470  0.2535  0.6156
 1963SOL    HW2 7850   4.015   0.952   3.068  2.4499  0.6841 -0.2215
 1963SOL    HW3 7851   4.020   0.890   2.930 -1.5521 -0.7437  0.1985
 1963SOL    MW4 7852   4.014   0.882   3.017  0.3739  0.1787  0.4501
 1964SOL     OW 7853   4.072   1.130   3.147 -0.2182  0.5450 -0.2350
 1964SOL    HW2 7854   4.053   1.120   3.240 -0.7436  0.7654 -0.3120
 1964SOL    HW3 7855   3.992   1.169   3.111 -0.8259 -1.5165 -1.1630
 1964SOL    MW4 7856   4.059   1.134   3.155 -0.3677  0.3021 -0.3676
 1965SOL     OW 7857   4.287   1.277   3.092  0.1371 -0.0848  0.0390
 1965SOL    HW2 7858   4.198   1.245   3.109  0.0182  0.0533 -0.3168
 1965SOL    HW3 7859   4.288   1.296   2.998  0.2463  0.8138  0.2182
 1965SOL    MW4 7860   4.275   1.275   3.082  0.1358  0.0520  0.0157
 1966SOL     OW 7861   4.273   1.531   3.180  0.3564  0.2771 -0.3977
 1966SOL    HW2 7862   4.200   1.572   3.134  1.2375  0.7683 -1.4094
 1966SOL    HW3 7863   4.276   1.442   3.147  0.0470  0.1819 -0.1619
 1966SOL    MW4 7864   4.264   1.525   3.170  0.4318  0.3293 -0.5001
 1967SOL     OW 7865   4.031   1.637   3.077  0.6839  0.1069  0.9829
 1967SOL    HW2 7866   4.024   1.728   3.105 -0.8906  0.5010 -0.6610
 1967SOL    HW3 7867   3.949   1.597   3.106  0.7020 -0.4121  0.3261
 1967SOL    MW4 7868   4.020   1.644   3.085  0.4786  0.0905  0.6794
 1968SOL     OW 7869   4.026   1.905   3.170  0.7858  0.1161 -0.0440
 1968SOL    HW2 7870   4.101   1.952   3.132 -0.6026  1.2647 -1.4348
 1968SOL    HW3 7871   3.952   1.965   3.158 -0.5061 -1.3318  0.5903
 1968SOL    MW4 7872   4.026   1.919   3.163  0.4321  0.0766 -0.1438
 1969SOL     OW 7873   4.240   2.038   3.081 -0.1925 -0.8060  0.1253
 1969SOL    HW2 7874   4.248   2.132   3.101 -0.1092 -0.7290 -0.2658
 1969SOL    HW3 7875   4.256   2.032   2.987  0.3944 -1.2842  0.2508
 1969SOL    MW4 7876   4.243   2.050   3.072 -0.1041 -0.8589  0.0902
 1970SOL     OW 7877   4.279   2.325   3.154 -0.3528  0.5078  0.2799
 1970SOL    HW2 7878   4.202   2.359   3.107 -0.0751  1.8502  0.7620
 1970SOL    HW3 7879   4.352   2.374   3.117  0.2903 -0.8268 -0.2318
 1970SOL    MW4 7880   4.278   2.336   3.143 -0.2313  0.5088  0.2760
 1971SOL     OW 7881   4.037   2.438   3.042 -0.0833 -0.3826 -0.4225
 1971SOL    HW2 7882   4.053   2.523   3.083  1.0072 -0.8367  0.1069
 1971SOL    HW3 7883   3.959   2.404   3.087 -0.7130  0.4627 -0.8553
 1971SOL    MW4 7884   4.029   2.445   3.053 -0.0225 -0.3310 -0.4098
 1972SOL     OW 7885   4.046   2.703   3.150  0.5838  0.1949  0.3414
 1972SOL    HW2 7886   4.057   2.712   3.245 -2.2328 -1.4367  0.8931
 1972SOL    HW3 7887   3.958   2.737   3.133 -0.0347 -2.0904 -1.2264
 1972SOL    MW4 7888   4.036   2.708   3.160  0.1306 -0.3218  0.2073
 1973SOL     OW 7889   4.275   2.859   3.058  0.1294  0.3749 -0.0232
 1973SOL    HW2 7890   4.194   2.810   3.072 -0.3062  1.2853  0.7435
 1973SOL    HW3 7891   4.341   2.810   3.107 -0.5506  1.2168  1.8019
 1973SOL    MW4 7892   4.273   2.846   3.067 -0.0178  0.6061  0.3187
 1974SOL     OW 7893   4.274   3.097   3.212  0.5826 -0.2001  0.2575
 1974SOL    HW2 7894   4.195   3.128   3.169  0.7846  0.9948  0.7399
 1974SOL    HW3 7895   4.286   3.008   3.179 -0.4352 -0.0483 -0.5316
 1974SOL    MW4 7896   4.265   3.089   3.202  0.4750 -0.0224  0.2171
 1975SOL     OW 7897   4.066   3.210   3.051 -0.1915  0.0636  0.7510
 1975SOL    HW2 7898   4.059   3.303   3.074  0.3344  0.1533  0.5582
 1975SOL    HW3 7899   4.064   3.210   2.955  1.1280 -0.0162  0.7210
 1975SOL    MW4 7900   4.064   3.222   3.041  0.0520  0.0649  0.7216
 1976SOL     OW 7901   4.043   3.480   3.137  0.2116  0.3301  0.5819
 1976SOL    HW2 7902   4.060   3.467   3.230 -1.4650 -0.5804  0.7757
 1976SOL    HW3 7903   3.958   3.525   3.134  0.9495  1.7099 -0.4633
 1976SOL    MW4 7904   4.034   3.484   3.149  0.0878  0.3920  0.4696
 1977SOL     OW 7905   4.269   3.599   3.052  0.2071  0.4367 -0.0598
 1977SOL    HW2 7906   4.281   3.693   3.064 -0.7467  0.7300 -1.3601
 1977SOL    HW3 7907   4.182   3.581   3.088  0.8713 -0.1692  1.2842
 1977SOL    MW4 7908   4.259   3.609   3.059  0.1689  0.3954 -0.0540
 1978SOL     OW 7909   4.276   3.873   3.160  0.4130  0.4259 -0.1684
 1978SOL    HW2 7910   4.193   3.905   3.124 -0.1846 -0.3562  0.4794
 1978SOL    HW3 7911   4.343   3.915   3.106 -0.4019  1.0234 -0.7426
 1978SOL    MW4 7912   4.274   3.883   3.148  0.2266  0.4016 -0.1587
 1979SOL     OW 7913   4.033   3.978   3.083 -0.2500 -0.3635 -0.4767
 1979SOL    HW2 7914   4.042   4.071   3.106  1.8465 -1.1486  2.0906
 1979SOL    HW3 7915   3.949   3.952   3.121  0.1669 -0.0396  0.6808
 1979SOL    MW4 7916   4.023   3.987   3.091  0.0816 -0.4244  0.0148
 1980SOL     OW 7917   4.064   4.248   3.146  0.0741  0.0276 -0.4786
 1980SOL    HW2 7918   4.059   4.265   3.240  0.6475 -0.8221 -0.2916
 1980SOL    HW3 7919   4.122   4.316   3.113  0.8530 -0.4152 -0.0250
 1980SOL    MW4 7920   4.071   4.259   3.154  0.2525 -0.1429 -0.3941
 1981SOL     OW 7921   4.295   4.388   3.062 -0.1228  0.8780 -0.3958
 1981SOL    HW2 7922   4.381   4.357   3.090  0.3565  1.3300 -1.3156
 1981SOL    HW3 7923   4.295   4.372   2.967 -1.6834 -0.6174 -0.1492
 1981SOL    MW4 7924   4.307   4.382   3.053 -0.2655  0.7403 -0.4847
 1982SOL     OW 7925   0.230   4.635   3.381 -0.4667  0.1941 -0.0850
 1982SOL    HW2 7926   0.306   4.679   3.420  0.6651 -1.2228 -0.6575
 1982SOL    HW3 7927   0.232   4.546   3.416 -2.3270  0.3445  0.4938
 1982SOL    MW4 7928   0.240   4.629   3.391 -0.5628  0.0270 -0.0842
 1983SOL     OW 7929   0.018   0.100   3.528  0.1486  0.0069  0.2227
 1983SOL    HW2 7930   0.034   0.192   3.509 -0.4554 -0.0034 -0.3581
 1983SOL    HW3 7931   0.072   0.052   3.466 -1.0073 -0.0238 -0.7902
 1983SOL    MW4 7932   0.027   0.106   3.517 -0.0836  0.0015  0.0124
 1984SOL     OW 7933   0.044   0.368   3.459 -0.0886 -0.2444 -0.0221
 1984SOL    HW2 7934  -0.032   0.416   3.490  0.4883  0.7004 -0.0574
 1984SOL    HW3 7935   0.119   0.416   3.494  0.4796 -2.0792  1.3778
 1984SOL    MW4 7936   0.044   0.380   3.468  0.0625 -0.3618  0.1580
 1985SOL     OW 7937   0.255   0.524   3.572 -0.1378  0.3445 -0.1568
 1985SOL    HW2 7938   0.325   0.487   3.520  0.8977  0.0616  1.4114
 1985SOL    HW3 7939   0.236   0.608   3.530  0.3412 -0.0859 -1.2541
 1985SOL    MW4 7940   0.262   0.530   3.560  0.0620  0.2504 -0.0947
 1986SOL     OW 7941   0.240   0.754   3.412 -0.0596 -0.3800  0.5126
 1986SOL    HW2 7942   0.311   0.803   3.452 -0.1210 -1.3151  1.7896
 1986SOL    HW3 7943   0.160   0.791   3.450 -0.1743 -0.4773  0.3708
 1986SOL    MW4 7944   0.239   0.765   3.422 -0.0828 -0.5162  0.6624
 1987SOL     OW 7945   0.010   0.885   3.521 -0.0539 -0.1947 -0.2659
 1987SOL    HW2 7946   0.009   0.881   3.616  0.8330  0.8173 -0.2054
 1987SOL    HW3 7947  -0.006   0.977   3.500 -1.0481 -0.5486 -1.1176
 1987SOL    MW4 7948   0.008   0.896   3.530 -0.0681 -0.1078 -0.3703
 1988SOL     OW 7949   4.446   1.150   3.450 -0.5057  0.1481  0.0232
 1988SOL    HW2 7950   4.530   1.192   3.467  0.5205 -1.5911 -0.7213
 1988SOL    HW3 7951   4.442   1.139   3.355 -0.8445 -1.2685  0.1878
 1988SOL    MW4 7952   4.456   1.154   3.440 -0.4150 -0.2683 -0.0533
 1989SOL     OW 7953   0.197   1.216   3.531  0.2923  0.1069 -0.0392
 1989SOL    HW2 7954   0.276   1.179   3.490 -1.2475 -2.2740 -0.9537
 1989SOL    HW3 7955   0.196   1.307   3.503  2.2373 -0.0689 -0.7728
 1989SOL    MW4 7956   0.208   1.223   3.522  0.3457 -0.2304 -0.2566
 1990SOL     OW 7957   0.238   1.490   3.463 -0.2211  0.0222  0.1472
 1990SOL    HW2 7958   0.320   1.534   3.488  0.0142 -0.4576  0.2162
 1990SOL    HW3 7959   0.237   1.495   3.367  1.5608 -2.9600 -0.0709
 1990SOL    MW4 7960   0.249   1.497   3.454  0.0450 -0.4345  0.1275
 1991SOL     OW 7961   0.048   1.669   3.546 -0.4981  0.2393  0.2336
 1991SOL    HW2 7962  -0.029   1.627   3.507  0.2462  2.1299 -3.5225
 1991SOL    HW3 7963   0.120   1.607   3.529 -0.7263 -0.3991  1.5372
 1991SOL    MW4 7964   0.047   1.655   3.539 -0.4300  0.4045 -0.0900
 1992SOL     OW 7965   4.482   1.922   3.419 -0.4716  0.8481  0.1048
 1992SOL    HW2 7966   4.488   1.832   3.450 -0.7158  1.0259  0.6739
 1992SOL    HW3 7967   4.489   1.915   3.324 -0.3250  0.2436  0.1579
 1992SOL    MW4 7968   4.483   1.910   3.410 -0.4845  0.7918  0.1869
 1993SOL     OW 7969   0.212   2.041   3.538 -0.0418  0.0212 -0.0423
 1993SOL    HW2 7970   0.212   2.016   3.631 -1.0735 -0.0787 -0.0676
 1993SOL    HW3 7971   0.132   2.003   3.503  0.2891  0.1522 -0.9600
 1993SOL    MW4 7972   0.202   2.032   3.546 -0.1343  0.0253 -0.1667
 1994SOL     OW 7973   0.240   2.301   3.431 -0.1321  0.1073 -0.4938
 1994SOL    HW2 7974   0.154   2.341   3.450  0.1885  0.2050  0.8066
 1994SOL    HW3 7975   0.230   2.210   3.459  0.2478  0.1628 -0.1878
 1994SOL    MW4 7976   0.227   2.294   3.437 -0.0397  0.1275 -0.2819
 1995SOL     OW 7977   0.016   2.451   3.516  0.7459 -0.5561  0.2559
 1995SOL    HW2 7978   0.034   2.417   3.604  0.0770 -0.9182  0.2560
 1995SOL    HW3 7979  -0.069   2.415   3.493  0.8193 -0.2889 -0.4600
 1995SOL    MW4 7980   0.007   2.442   3.525  0.6673 -0.5686  0.1615
 1996SOL     OW 7981   0.026   2.714   3.431 -0.1847  0.5019  0.0276
 1996SOL    HW2 7982   0.103   2.760   3.464  1.0617 -0.7144 -1.1491
 1996SOL    HW3 7983   0.037   2.624   3.461 -1.5256  0.4719  0.4706
 1996SOL    MW4 7984   0.038   2.708   3.440 -0.1972  0.3375 -0.0692
 1997SOL     OW 7985   0.247   2.824   3.558  0.5812 -0.0626 -0.3515
 1997SOL    HW2 7986   0.322   2.802   3.503 -0.2695  0.1885 -1.6538
 1997SOL    HW3 7987   0.229   2.916   3.538 -1.3645 -0.6925 -1.6620
 1997SOL    MW4 7988   0.254   2.833   3.548  0.2123 -0.1126 -0.6963
 1998SOL     OW 7989   0.219   3.063   3.437 -0.0477 -0.3971  0.5912
 1998SOL    HW2 7990   0.144   3.108   3.478 -0.2124  1.5078 -1.7162
 1998SOL    HW3 7991   0.222   3.098   3.348  2.8810 -1.3434  0.2845
 1998SOL    MW4 7992   0.209   3.074   3.431  0.3170 -0.2706  0.2463
 1999SOL     OW 7993   0.036   3.201   3.566 -0.2775 -0.2222  0.0606
 1999SOL    HW2 7994  -0.045   3.156   3.542  0.3944 -1.6239  0.4159
 1999SOL    HW3 7995   0.037   3.279   3.510 -0.9771 -1.1153 -1.2288
 1999SOL    MW4 7996   0.025   3.206   3.556 -0.2812 -0.5250 -0.0627
 2000SOL     OW 7997   4.482   3.437   3.434 -0.2601  0.0842  0.3353
 2000SOL    HW2 7998   4.394   3.459   3.463 -0.3098  0.7870 -0.3159
 2000SOL    HW3 7999   4.482   3.457   3.340  0.7509  0.5911  0.4335
 2000SOL    MW4 8000   4.470   3.442   3.425 -0.1332  0.2438  0.2624
 2001SOL     OW 8001   0.217   3.606   3.566  0.1533 -0.3522 -1.0407
 2001SOL    HW2 8002   0.228   3.612   3.661 -0.5056 -2.0841 -0.8386
 2001SOL    HW3 8003   0.132   3.566   3.555  0.4722 -0.6620 -2.3685
 2001SOL    MW4 8004   0.208   3.602   3.577  0.1085 -0.6216 -1.1892
 2002SOL     OW 8005   0.201   3.870   3.432  0.6323  0.5942 -0.2078
 2002SOL    HW2 8006   0.122   3.912   3.466  0.4831  0.4857 -0.4250
 2002SOL    HW3 8007   0.200   3.782   3.471  0.5537  0.5311 -0.3538
 2002SOL    MW4 8008   0.190   3.864   3.442  0.6022  0.5715 -0.2557
 2003SOL     OW 8009   4.456   3.991   3.534  0.4362 -0.1169 -0.0966
 2003SOL    HW2 8010   4.493   4.003   3.622 -0.3696 -0.6658  0.3208
 2003SOL    HW3 8011   4.460   4.078   3.494 -0.2280  0.3776  0.8958
 2003SOL    MW4 8012   4.462   4.004   3.540  0.2423 -0.1241  0.0894
 2004SOL     OW 8013   0.023   4.251   3.423  0.0113  0.6104 -0.2766
 2004SOL    HW2 8014  -0.051   4.296   3.462 -0.6517 -0.6758 -0.0243
 2004SOL    HW3 8015   0.100   4.296   3.458 -0.6321  2.3681 -1.0445
 2004SOL    MW4 8016   0.024   4.263   3.432 -0.1610  0.6726 -0.3447
 2005SOL     OW 8017   0.222   4.397   3.516 -0.0266 -0.3870 -0.2569
 2005SOL    HW2 8018   0.201   4.401   3.609 -0.0946 -0.1059 -0.2835
 2005SOL    HW3 8019   0.301   4.343   3.511 -0.2088 -0.6688 -0.0672
 2005SOL    MW4 8020   0.230   4.391   3.528 -0.0596 -0.3871 -0.2353
 2006SOL     OW 8021   0.688   0.047   3.401 -0.1703  0.0888 -0.3647
 2006SOL    HW2 8022   0.775   0.071   3.434 -0.0235  2.0456 -2.0054
 2006SOL    HW3 8023   0.705   0.016   3.312 -0.7227 -3.5512  0.7319
 2006SOL    MW4 8024   0.702   0.046   3.393 -0.2238 -0.1333 -0.4365
 2007SOL     OW 8025   0.436   0.130   3.474 -0.2980 -0.1911 -0.1383
 2007SOL    HW2 8026   0.435   0.147   3.569  0.5643  0.7824 -0.2903
 2007SOL    HW3 8027   0.528   0.111   3.455 -0.5111 -0.5935 -0.7454
 2007SOL    MW4 8028   0.448   0.130   3.484 -0.2123 -0.1157 -0.2384
 2008SOL     OW 8029   0.435   0.392   3.415  0.2138 -0.2732  0.6244
 2008SOL    HW2 8030   0.524   0.413   3.441  0.5491  0.4343 -1.0389
 2008SOL    HW3 8031   0.426   0.298   3.431  0.4435  0.0933  3.1108
 2008SOL    MW4 8032   0.445   0.382   3.420  0.2883 -0.1315  0.7330
 2009SOL     OW 8033   0.690   0.516   3.503 -0.1712 -0.2582 -0.6069
 2009SOL    HW2 8034   0.677   0.511   3.598  1.7675  0.6294 -0.2784
 2009SOL    HW3 8035   0.761   0.455   3.485  0.0733  0.2508 -1.3743
 2009SOL    MW4 8036   0.698   0.508   3.514  0.1169 -0.0739 -0.6648
 2010SOL     OW 8037   0.697   0.765   3.398  0.0921  0.3444 -0.1077
 2010SOL    HW2 8038   0.615   0.805   3.427 -0.7169 -0.3139 -1.4494
 2010SOL    HW3 8039   0.696   0.677   3.436  1.0804  0.9801  1.4397
 2010SOL    MW4 8040   0.686   0.759   3.407  0.1157  0.3414 -0.0805
 2011SOL     OW 8041   0.458   0.871   3.507  0.1503 -0.0348  0.2800
 2011SOL    HW2 8042   0.447   0.887   3.601 -0.2128  0.8605  0.0863
 2011SOL    HW3 8043   0.454   0.957   3.467 -2.4311 -0.6102 -0.8260
 2011SOL    MW4 8044   0.456   0.884   3.514 -0.2382  0.0074  0.1085
 2012SOL     OW 8045   0.460   1.133   3.425  0.0791  0.1504 -0.2584
 2012SOL    HW2 8046   0.527   1.185   3.471 -1.6371  1.8363  0.4243
 2012SOL    HW3 8047   0.471   1.156   3.333  0.7220  0.0963 -0.1965
 2012SOL    MW4 8048   0.470   1.143   3.419 -0.0625  0.3657 -0.1602
 2013SOL     OW 8049   0.675   1.263   3.554  0.2231 -0.2829  0.6377
 2013SOL    HW2 8050   0.752   1.213   3.527 -0.4878 -1.4071  0.6309
 2013SOL    HW3 8051   0.682   1.346   3.507  1.0809 -0.6386  0.1196
 2013SOL    MW4 8052   0.686   1.267   3.544  0.2425 -0.4782  0.5684
 2014SOL     OW 8053   0.694   1.515   3.437  0.0426 -0.1952 -0.2756
 2014SOL    HW2 8054   0.769   1.557   3.480 -0.2623  1.7219 -1.5236
 2014SOL    HW3 8055   0.618   1.566   3.465 -0.3094  0.2933 -2.0147
 2014SOL    MW4 8056   0.694   1.527   3.446 -0.0441  0.1222 -0.6697
 2015SOL     OW 8057   0.481   1.637   3.520 -0.0905  0.1720 -0.4484
 2015SOL    HW2 8058   0.484   1.646   3.615  2.0486  1.3131 -0.5954
 2015SOL    HW3 8059   0.472   1.727   3.488 -0.1349 -0.1418 -1.3477
 2015SOL    MW4 8060   0.480   1.650   3.528  0.1858  0.2812 -0.5865
 2016SOL     OW 8061   0.440   1.917   3.445 -0.0916  0.0617 -0.0131
 2016SOL    HW2 8062   0.367   1.970   3.479  1.4719  1.7613  0.7696
 2016SOL    HW3 8063   0.444   1.939   3.352  0.0138  0.6648  0.1356
 2016SOL    MW4 8064   0.431   1.927   3.438  0.1286  0.3655  0.1098
 2017SOL     OW 8065   0.662   2.049   3.564  0.3804  0.2379 -0.2043
 2017SOL    HW2 8066   0.639   2.051   3.657 -0.1073  1.5922 -0.3457
 2017SOL    HW3 8067   0.581   2.022   3.520  0.2142  0.9613 -0.3493
 2017SOL    MW4 8068   0.649   2.046   3.570  0.2941  0.5120 -0.2421
 2018SOL     OW 8069   0.682   2.302   3.424  0.0950 -0.5391  0.1344
 2018SOL    HW2 8070   0.756   2.352   3.457  0.9502 -0.7368 -1.4344
 2018SOL    HW3 8071   0.677   2.226   3.482  1.2089 -0.5933  0.1703
 2018SOL    MW4 8072   0.691   2.298   3.436  0.3548 -0.5723 -0.0678
 2019SOL     OW 8073   0.458   2.468   3.492  0.0151  0.2914  0.9231
 2019SOL    HW2 8074   0.536   2.416   3.476 -0.1407  0.4085 -0.2004
 2019SOL    HW3 8075   0.385   2.411   3.468 -0.1824  0.7920  0.3427
 2019SOL    MW4 8076   0.459   2.454   3.487 -0.0315  0.3729  0.6983
 2020SOL     OW 8077   0.461   2.734   3.412 -0.2053 -0.4702 -0.4899
 2020SOL    HW2 8078   0.458   2.643   3.443 -0.8349 -0.7054 -1.2336
 2020SOL    HW3 8079   0.458   2.727   3.317  1.3669  0.2673 -0.6181
 2020SOL    MW4 8080   0.460   2.721   3.404 -0.0809 -0.4040 -0.6049
 2021SOL     OW 8081   0.668   2.842   3.567  0.4710 -0.6090  0.7607
 2021SOL    HW2 8082   0.749   2.818   3.521  0.4607  1.0266 -0.1604
 2021SOL    HW3 8083   0.598   2.813   3.508  0.4369 -0.0917  0.5362
 2021SOL    MW4 8084   0.670   2.835   3.553  0.4651 -0.3249  0.6095
 2022SOL     OW 8085   0.659   3.107   3.478  0.3417 -0.6421  0.3212
 2022SOL    HW2 8086   0.574   3.145   3.500  0.9061 -0.1843  1.7428
 2022SOL    HW3 8087   0.654   3.017   3.510  0.5750 -0.4562  0.8926
 2022SOL    MW4 8088   0.647   3.100   3.485  0.4469 -0.5572  0.5842
 2023SOL     OW 8089   0.424   3.234   3.534  0.2592  0.0631  0.5680
 2023SOL    HW2 8090   0.420   3.236   3.629  1.3740 -2.0244  0.6769
 2023SOL    HW3 8091   0.345   3.187   3.507 -0.4777  1.3668  0.3993
 2023SOL    MW4 8092   0.413   3.228   3.543  0.3090 -0.0403  0.5601
 2024SOL     OW 8093   0.435   3.486   3.417 -0.1309 -0.1449  0.0771
 2024SOL    HW2 8094   0.447   3.399   3.455  0.3352  0.2350  0.8046
 2024SOL    HW3 8095   0.361   3.523   3.466 -0.1462 -0.0196 -0.0404
 2024SOL    MW4 8096   0.427   3.480   3.429 -0.0714 -0.0783  0.1576
 2025SOL     OW 8097   0.635   3.595   3.577  0.3647 -0.3306 -0.1881
 2025SOL    HW2 8098   0.715   3.563   3.537  1.5882  1.6093  0.6162
 2025SOL    HW3 8099   0.565   3.561   3.522  1.6694 -2.8050 -0.3794
 2025SOL    MW4 8100   0.636   3.587   3.565  0.6983 -0.4011 -0.1072
 2026SOL     OW 8101   0.663   3.859   3.442  0.4881  0.0597 -0.0596
 2026SOL    HW2 8102   0.575   3.894   3.456  0.1381 -0.9159  0.1594
 2026SOL    HW3 8103   0.669   3.783   3.499  0.1622 -2.0772 -2.7997
 2026SOL    MW4 8104   0.652   3.854   3.451  0.3990 -0.3509 -0.3922
 2027SOL     OW 8105   0.412   3.991   3.549 -0.1176  0.0599  0.0380
 2027SOL    HW2 8106   0.435   4.066   3.495  0.2210 -0.2920 -0.3066
 2027SOL    HW3 8107   0.330   3.958   3.511 -1.2561  1.3412  1.2939
 2027SOL    MW4 8108   0.404   3.997   3.537 -0.2231  0.1825  0.1582
 2028SOL     OW 8109   0.470   4.225   3.429 -0.3174  0.2889  0.3371
 2028SOL    HW2 8110   0.532   4.290   3.463 -1.4835  1.5132  0.1629
 2028SOL    HW3 8111   0.477   4.232   3.334  0.5840 -0.8537  0.3079
 2028SOL    MW4 8112   0.479   4.235   3.421 -0.3523  0.2997  0.3102
 2029SOL     OW 8113   0.643   4.438   3.494  0.2532  0.4787 -0.4390
 2029SOL    HW2 8114   0.713   4.401   3.439  0.5695  0.6348 -0.1461
 2029SOL    HW3 8115   0.646   4.532   3.475 -0.3632  0.3986 -0.9712
 2029SOL    MW4 8116   0.653   4.445   3.484  0.2136  0.4887 -0.4706
 2030SOL     OW 8117   1.160   4.653   3.419  0.2472 -0.1480 -0.2324
 2030SOL    HW2 8118   1.236   4.708   3.440 -1.2048  1.4514  0.9544
 2030SOL    HW3 8119   1.151   4.660   3.324  1.2209  0.1367 -0.3097
 2030SOL    MW4 8120   1.169   4.661   3.409  0.1841  0.1006 -0.0860
 2031SOL     OW 8121   0.950   0.137   3.503 -0.2095  0.0060  0.1751
 2031SOL    HW2 8122   0.952   0.128   3.599 -2.0438 -1.7443  0.0805
 2031SOL    HW3 8123   1.031   0.096   3.474 -0.0262 -0.1931  0.9461
 2031SOL    MW4 8124   0.961   0.130   3.512 -0.4273 -0.2512  0.2643
 2032SOL     OW 8125   0.922   0.385   3.388  0.3751  0.3679 -0.7126
 2032SOL    HW2 8126   0.981   0.438   3.441 -0.8076 -0.2980  1.3374
 2032SOL    HW3 8127   0.939   0.295   3.417 -2.3745  0.2564  0.7521
 2032SOL    MW4 8128   0.932   0.380   3.399 -0.1437  0.2653 -0.2488
 2033SOL     OW 8129   1.139   0.509   3.537  0.3019 -0.1266  0.2315
 2033SOL    HW2 8130   1.127   0.518   3.631 -0.3743 -0.5724  0.1890
 2033SOL    HW3 8131   1.148   0.599   3.505  1.0766  0.0025  0.7823
 2033SOL    MW4 8132   1.139   0.522   3.545  0.3149 -0.1684  0.2986
 2034SOL     OW 8133   1.157   0.771   3.425  0.5224  0.2450  0.0282
 2034SOL    HW2 8134   1.235   0.811   3.465  0.1202 -0.7443  1.8413
 2034SOL    HW3 8135   1.084   0.819   3.464  0.1261 -0.6842  0.4235
 2034SOL    MW4 8136   1.158   0.783   3.436  0.4170 -0.0082  0.3196
 2035SOL     OW 8137   0.927   0.881   3.517  0.5992 -0.2048 -0.4532
 2035SOL    HW2 8138   0.924   0.970   3.482 -0.2436  0.4616  1.2474
 2035SOL    HW3 8139   0.847   0.840   3.483  0.4316  0.0409 -0.3638
 2035SOL    MW4 8140   0.916   0.888   3.508  0.4659 -0.0844 -0.2170
 2036SOL     OW 8141   0.917   1.158   3.448  0.0134  0.4410 -0.5130
 2036SOL    HW2 8142   0.996   1.210   3.466  0.1408  0.3292 -0.7445
 2036SOL    HW3 8143   0.918   1.146   3.353  0.5920 -0.9526 -0.3396
 2036SOL    MW4 8144   0.928   1.164   3.438  0.1066  0.2423 -0.5207
 2037SOL     OW 8145   1.149   1.312   3.532  0.4222 -0.3050  0.5917
 2037SOL    HW2 8146   1.148   1.314   3.628 -0.6783  1.9698  0.5785
 2037SOL    HW3 8147   1.150   1.404   3.506  2.4251 -0.8926 -1.6035
 2037SOL    MW4 8148   1.149   1.325   3.541  0.5413 -0.0824  0.3004
 2038SOL     OW 8149   1.116   1.573   3.430 -0.5936 -0.4280  1.1885
 2038SOL    HW2 8150   1.195   1.625   3.448  1.5322 -3.7188  1.7995
 2038SOL    HW3 8151   1.120   1.555   3.337  0.3423 -2.0600  1.5319
 2038SOL    MW4 8152   1.127   1.577   3.420 -0.1897 -1.0775  1.3144
 2039SOL     OW 8153   0.914   1.663   3.566  0.3272  0.0964 -0.2915
 2039SOL    HW2 8154   0.900   1.749   3.525  0.1009 -0.0192 -0.4606
 2039SOL    HW3 8155   0.993   1.629   3.525  1.1423  0.7699  0.6905
 2039SOL    MW4 8156   0.923   1.670   3.555  0.4049  0.1700 -0.1843
 2040SOL     OW 8157   0.896   1.925   3.465 -0.1325 -0.6539  0.8663
 2040SOL    HW2 8158   0.967   1.983   3.492  1.6482 -1.8832 -1.0285
 2040SOL    HW3 8159   0.816   1.971   3.489  1.2839  1.4887  1.5618
 2040SOL    MW4 8160   0.895   1.939   3.472  0.2893 -0.5334  0.7081
 2041SOL     OW 8161   1.110   2.098   3.504  0.6834  0.1155  0.2898
 2041SOL    HW2 8162   1.181   2.055   3.456 -0.1484  0.1885 -1.0191
 2041SOL    HW3 8163   1.115   2.189   3.477 -0.0804  0.0663 -0.0340
 2041SOL    MW4 8164   1.120   2.104   3.494  0.4729  0.1186  0.0744
 2042SOL     OW 8165   1.096   2.382   3.419  0.4041  0.1118  0.1955
 2042SOL    HW2 8166   1.186   2.400   3.445  0.3084  1.3895 -0.3346
 2042SOL    HW3 8167   1.104   2.341   3.333  0.5305 -0.9211  0.6851
 2042SOL    MW4 8168   1.109   2.379   3.411  0.4081  0.1441  0.1902
 2043SOL     OW 8169   0.868   2.478   3.542  0.1243 -0.0514  0.0649
 2043SOL    HW2 8170   0.874   2.444   3.631  2.2255  0.6142  0.2063
 2043SOL    HW3 8171   0.936   2.431   3.494 -0.4870  0.1442 -1.0056
 2043SOL    MW4 8172   0.878   2.467   3.547  0.3208  0.0622 -0.0577
 2044SOL     OW 8173   0.865   2.738   3.427 -0.1277 -0.1449 -0.2083
 2044SOL    HW2 8174   0.947   2.768   3.465 -0.5040  0.8948 -0.2040
 2044SOL    HW3 8175   0.849   2.654   3.468  0.7890 -0.2251  0.0030
 2044SOL    MW4 8176   0.874   2.731   3.437 -0.0564 -0.0183 -0.1799
 2045SOL     OW 8177   1.094   2.834   3.554 -0.0806  0.0593 -0.4480
 2045SOL    HW2 8178   1.109   2.847   3.648  0.2922 -0.9685 -0.3584
 2045SOL    HW3 8179   1.173   2.790   3.523 -0.5911 -0.4402 -1.0642
 2045SOL    MW4 8180   1.106   2.830   3.562 -0.0988 -0.1422 -0.5175
 2046SOL     OW 8181   1.126   3.086   3.454 -0.1443  0.7477  0.4434
 2046SOL    HW2 8182   1.118   3.005   3.505  0.1400  1.1671  1.1650
 2046SOL    HW3 8183   1.127   3.057   3.363 -0.5589 -0.0235  0.6772
 2046SOL    MW4 8184   1.125   3.071   3.449 -0.1615  0.7013  0.5695
 2047SOL     OW 8185   0.886   3.264   3.528 -0.3740 -0.0709  0.7713
 2047SOL    HW2 8186   0.957   3.209   3.496  0.0693  0.4483  0.8538
 2047SOL    HW3 8187   0.807   3.229   3.486  0.2382  0.8289 -1.1720
 2047SOL    MW4 8188   0.885   3.252   3.519 -0.2348  0.1163  0.5258
 2048SOL     OW 8189   0.838   3.516   3.408  0.5065  0.1519 -0.1561
 2048SOL    HW2 8190   0.859   3.430   3.446  0.9276  0.3477  0.0566
 2048SOL    HW3 8191   0.844   3.503   3.314  0.8636  0.0188 -0.1167
 2048SOL    MW4 8192   0.841   3.503   3.401  0.6092  0.1602 -0.1229
 2049SOL     OW 8193   1.083   3.602   3.485  0.3822  0.1966 -0.2374
 2049SOL    HW2 8194   1.089   3.592   3.580 -0.2156  0.5276 -0.1627
 2049SOL    HW3 8195   1.000   3.561   3.461  0.3949  0.3626 -0.5773
 2049SOL    MW4 8196   1.073   3.596   3.494  0.3050  0.2622 -0.2724
 2050SOL     OW 8197   1.087   3.874   3.428  0.2102 -0.1747 -0.4984
 2050SOL    HW2 8198   1.174   3.906   3.451 -0.3650  0.5336  0.7090
 2050SOL    HW3 8199   1.085   3.784   3.459  0.7520 -0.4197 -1.1580
 2050SOL    MW4 8200   1.098   3.866   3.435  0.2058 -0.1136 -0.4261
 2051SOL     OW 8201   0.867   4.043   3.488  0.2538  0.1357  0.0839
 2051SOL    HW2 8202   0.946   3.992   3.469  0.4800  0.3867  0.3352
 2051SOL    HW3 8203   0.794   3.986   3.462  0.5042 -0.2884  0.3024
 2051SOL    MW4 8204   0.868   4.029   3.482  0.3167  0.1129  0.1459
 2052SOL     OW 8205   0.869   4.308   3.370 -0.0782 -0.1858 -0.4146
 2052SOL    HW2 8206   0.847   4.221   3.404 -0.4462  0.0785  0.0359
 2052SOL    HW3 8207   0.883   4.295   3.277  0.9397 -0.9257 -0.1595
 2052SOL    MW4 8208   0.868   4.295   3.362  0.0076 -0.2485 -0.3215
 2053SOL     OW 8209   1.145   4.389   3.506 -0.1799 -0.3469  0.1376
 2053SOL    HW2 8210   1.075   4.351   3.454 -0.2737  1.1835 -0.8917
 2053SOL    HW3 8211   1.155   4.478   3.471  1.2492 -0.0481  1.2687
 2053SOL    MW4 8212   1.137   4.396   3.494 -0.0037 -0.1055  0.1510
 2054SOL     OW 8213   1.572   4.641   3.400 -0.6180  0.4018 -0.4810
 2054SOL    HW2 8214   1.556   4.555   3.438 -0.4480 -0.0980 -1.5247
 2054SOL    HW3 8215   1.502   4.696   3.435 -0.3944 -0.0097  0.6375
 2054SOL    MW4 8216   1.561   4.637   3.410 -0.5661  0.2815 -0.4711
 2055SOL     OW 8217   1.376   0.127   3.514  0.1219 -0.1919 -0.1140
 2055SOL    HW2 8218   1.356   0.139   3.607  3.4394  1.7899  0.4208
 2055SOL    HW3 8219   1.361   0.214   3.475 -1.7381 -1.1280 -1.5602
 2055SOL    MW4 8220   1.371   0.140   3.521  0.3142 -0.0540 -0.2342
 2056SOL     OW 8221   1.352   0.402   3.409 -0.2402  0.2233  0.0958
 2056SOL    HW2 8222   1.416   0.460   3.451 -2.8539  3.3156  0.0129
 2056SOL    HW3 8223   1.269   0.426   3.449 -1.8360 -1.4298 -2.1390
 2056SOL    MW4 8224   1.350   0.413   3.420 -0.7956  0.4132 -0.2100
 2057SOL     OW 8225   1.565   0.578   3.529  0.3262  0.7795  0.1643
 2057SOL    HW2 8226   1.550   0.573   3.623  1.2407 -0.4943  0.2533
 2057SOL    HW3 8227   1.640   0.521   3.513  0.1045  0.8803 -1.3575
 2057SOL    MW4 8228   1.573   0.570   3.539  0.4176  0.6247 -0.0247
 2058SOL     OW 8229   1.599   0.821   3.411 -0.5026 -0.1805 -0.5635
 2058SOL    HW2 8230   1.517   0.856   3.446 -0.9579 -1.2845 -0.4915
 2058SOL    HW3 8231   1.599   0.729   3.439  0.8294 -0.1438 -0.4512
 2058SOL    MW4 8232   1.588   0.813   3.419 -0.3869 -0.3213 -0.5392
 2059SOL     OW 8233   1.358   0.931   3.511 -0.2418  0.1091 -0.2773
 2059SOL    HW2 8234   1.354   0.934   3.606 -0.4000  0.2130 -0.2873
 2059SOL    HW3 8235   1.365   1.022   3.484 -0.9661  0.1339 -0.3962
 2059SOL    MW4 8236   1.358   0.943   3.520 -0.3583  0.1261 -0.2943
 2060SOL     OW 8237   1.378   1.182   3.436 -0.1003  0.2458  0.5884
 2060SOL    HW2 8238   1.443   1.245   3.465  0.4801 -0.3820  0.6633
 2060SOL    HW3 8239   1.296   1.231   3.435  0.4818  1.2299 -0.1537
 2060SOL    MW4 8240   1.376   1.197   3.439  0.0530  0.2928  0.5004
 2061SOL     OW 8241   1.609   1.305   3.529  0.0311  0.1681 -0.0426
 2061SOL    HW2 8242   1.616   1.294   3.624 -0.2419  1.0414  0.0867
 2061SOL    HW3 8243   1.687   1.263   3.494  0.4629  0.4078  0.6162
 2061SOL    MW4 8244   1.620   1.298   3.537  0.0521  0.3149  0.0614
 2062SOL     OW 8245   1.582   1.570   3.434  0.4260 -0.4273  0.4812
 2062SOL    HW2 8246   1.573   1.481   3.469 -0.8302 -0.5117 -0.0228
 2062SOL    HW3 8247   1.601   1.557   3.341 -0.4245 -0.1681  0.2660
 2062SOL    MW4 8248   1.583   1.556   3.426  0.1481 -0.4042  0.3863
 2063SOL     OW 8249   1.339   1.707   3.523  0.0797  0.0767  0.4640
 2063SOL    HW2 8250   1.337   1.668   3.611 -2.8303  1.0743  0.9047
 2063SOL    HW3 8251   1.408   1.659   3.477 -0.2625 -2.3890  2.4028
 2063SOL    MW4 8252   1.348   1.696   3.529 -0.3494 -0.1170  0.7779
 2064SOL     OW 8253   1.333   1.938   3.410 -0.5236  0.0041 -0.0410
 2064SOL    HW2 8254   1.407   1.990   3.440 -0.0215 -0.0173 -1.2303
 2064SOL    HW3 8255   1.335   1.859   3.465 -0.8161  0.8600  1.2274
 2064SOL    MW4 8256   1.343   1.934   3.421 -0.4960  0.1142 -0.0306
 2065SOL     OW 8257   1.535   2.088   3.538  0.0547 -0.0246 -0.0598
 2065SOL    HW2 8258   1.627   2.075   3.514 -0.2911 -0.7202 -1.0575
 2065SOL    HW3 8259   1.521   2.182   3.529  0.5592  0.0310 -0.2956
 2065SOL    MW4 8260   1.545   2.098   3.534  0.0756 -0.1091 -0.2226
 2066SOL     OW 8261   1.598   2.350   3.467  0.1602 -0.0821  0.3756
 2066SOL    HW2 8262   1.510   2.379   3.493  0.2150  0.2770  0.1624
 2066SOL    HW3 8263   1.590   2.330   3.374 -0.1021 -1.6274  0.7108
 2066SOL    MW4 8264   1.585   2.351   3.459  0.1328 -0.2386  0.3917
 2067SOL     OW 8265   1.338   2.439   3.581  0.4622 -0.4174  0.0200
 2067SOL    HW2 8266   1.359   2.444   3.674  0.3666 -0.6510  0.0537
 2067SOL    HW3 8267   1.320   2.529   3.556  0.1846 -0.3962  0.2978
 2067SOL    MW4 8268   1.338   2.452   3.590  0.4129 -0.4454  0.0611
 2068SOL     OW 8269   1.310   2.700   3.459  0.7957  0.0338  0.1406
 2068SOL    HW2 8270   1.387   2.755   3.474  0.8820  0.1111 -0.5828
 2068SOL    HW3 8271   1.307   2.688   3.364 -0.1473  0.1266  0.1586
 2068SOL    MW4 8272   1.320   2.706   3.449  0.6827  0.0563  0.0475
 2069SOL     OW 8273   1.572   2.822   3.541 -0.0866  0.2503 -0.2351
 2069SOL    HW2 8274   1.631   2.754   3.507 -2.2124 -0.6706 -2.2711
 2069SOL    HW3 8275   1.600   2.902   3.496 -0.8780 -0.3449 -1.8404
 2069SOL    MW4 8276   1.584   2.823   3.530 -0.4715  0.0503 -0.7155
 2070SOL     OW 8277   1.582   3.087   3.439 -0.4403 -0.3193 -0.5733
 2070SOL    HW2 8278   1.657   3.131   3.479 -0.1947 -1.8566  0.7095
 2070SOL    HW3 8279   1.506   3.136   3.472 -0.1446 -0.5460  0.4647
 2070SOL    MW4 8280   1.582   3.100   3.449 -0.3689 -0.5521 -0.2671
 2071SOL     OW 8281   1.346   3.225   3.514  0.4293 -0.1554 -0.4226
 2071SOL    HW2 8282   1.355   3.223   3.609  0.2972 -0.4474 -0.4176
 2071SOL    HW3 8283   1.260   3.186   3.496  0.4920 -0.1853 -0.6669
 2071SOL    MW4 8284   1.336   3.220   3.524  0.4201 -0.1979 -0.4542
 2072SOL     OW 8285   1.337   3.489   3.424  0.1514 -0.2214 -0.2344
 2072SOL    HW2 8286   1.341   3.397   3.450 -0.0230  0.0774  0.8630
 2072SOL    HW3 8287   1.247   3.516   3.442  0.4526  0.4181  0.3541
 2072SOL    MW4 8288   1.326   3.481   3.430  0.1681 -0.0976 -0.0120
 2073SOL     OW 8289   1.591   3.618   3.496 -0.1156 -0.1771 -0.1529
 2073SOL    HW2 8290   1.599   3.604   3.591  0.2589  1.7792  0.1358
 2073SOL    HW3 8291   1.515   3.565   3.471  0.5921 -1.7813  0.9875
 2073SOL    MW4 8292   1.582   3.609   3.505  0.0272 -0.1307  0.0356
 2074SOL     OW 8293   1.557   3.868   3.421  0.0361  0.0466  0.1999
 2074SOL    HW2 8294   1.563   3.775   3.443 -1.0622 -0.1530 -0.3286
 2074SOL    HW3 8295   1.565   3.870   3.325 -1.8754  0.3233  0.0381
 2074SOL    MW4 8296   1.559   3.856   3.411 -0.3610  0.0568  0.1088
 2075SOL     OW 8297   1.331   3.979   3.530 -0.2023  0.1700 -0.7542
 2075SOL    HW2 8298   1.333   4.067   3.493 -0.2294 -0.0492 -1.2868
 2075SOL    HW3 8299   1.403   3.934   3.486 -0.2513 -0.0991 -0.5557
 2075SOL    MW4 8300   1.341   3.985   3.519 -0.2124  0.1056 -0.7983
 2076SOL     OW 8301   1.343   4.235   3.416 -0.0986 -0.5487  0.1045
 2076SOL    HW2 8302   1.276   4.287   3.459 -0.9096 -1.6193  0.1544
 2076SOL    HW3 8303   1.324   4.244   3.322 -0.2970 -0.8250  0.1172
 2076SOL    MW4 8304   1.332   4.243   3.409 -0.2318 -0.7264  0.1127
 2077SOL     OW 8305   1.564   4.392   3.496  0.1907 -0.3608  0.5455
 2077SOL    HW2 8306   1.640   4.360   3.448 -0.2825 -0.8880  0.1484
 2077SOL    HW3 8307   1.493   4.332   3.474 -1.3369  2.2247 -2.0680
 2077SOL    MW4 8308   1.564   4.380   3.487 -0.0733 -0.0892  0.1483
 2078SOL     OW 8309   2.019   4.619   3.400  0.2303  0.0565  0.0032
 2078SOL    HW2 8310   2.090   4.664   3.446  0.2232  0.7487 -0.6613
 2078SOL    HW3 8311   1.940   4.665   3.428  0.2286  0.5043 -0.7169
 2078SOL    MW4 8312   2.018   4.631   3.410  0.2291  0.2069 -0.1795
 2079SOL     OW 8313   1.814   0.102   3.492 -0.5552 -0.1650  0.1374
 2079SOL    HW2 8314   1.810   0.119   3.587 -0.0544 -0.7805  0.2739
 2079SOL    HW3 8315   1.729   0.066   3.470 -0.3386 -0.9369  0.5433
 2079SOL    MW4 8316   1.803   0.100   3.502 -0.4605 -0.3480  0.2090
 2080SOL     OW 8317   1.780   0.398   3.477  0.0734  0.0326 -0.0128
 2080SOL    HW2 8318   1.793   0.306   3.499 -0.0587 -0.3731 -1.5833
 2080SOL    HW3 8319   1.789   0.402   3.382 -1.4614  1.3735 -0.1396
 2080SOL    MW4 8320   1.783   0.387   3.467 -0.1466  0.1560 -0.2368
 2081SOL     OW 8321   2.027   0.524   3.526  0.0367  0.8647 -0.0229
 2081SOL    HW2 8322   2.018   0.619   3.522 -0.2175  0.7538 -2.4601
 2081SOL    HW3 8323   1.939   0.490   3.509  0.4869  0.1750 -1.0303
 2081SOL    MW4 8324   2.014   0.532   3.523  0.0626  0.7591 -0.4774
 2082SOL     OW 8325   2.013   0.800   3.456  0.0051 -0.2522  0.5038
 2082SOL    HW2 8326   2.095   0.837   3.488  0.5781 -0.8795 -0.2221
 2082SOL    HW3 8327   2.027   0.789   3.362 -1.5065  1.2134  0.0651
 2082SOL    MW4 8328   2.026   0.803   3.448 -0.1187 -0.1416  0.3501
 2083SOL     OW 8329   1.801   0.938   3.545 -0.1584  0.4243  0.1901
 2083SOL    HW2 8330   1.868   0.888   3.499  0.4046  0.4686  0.9621
 2083SOL    HW3 8331   1.718   0.905   3.510  0.2189 -0.7208  0.3650
 2083SOL    MW4 8332   1.799   0.927   3.534 -0.0344  0.2791  0.3150
 2084SOL     OW 8333   1.845   1.181   3.420 -0.1049  0.2234  0.2400
 2084SOL    HW2 8334   1.924   1.227   3.451  0.6757 -0.1996 -1.0987
 2084SOL    HW3 8335   1.838   1.105   3.477 -0.5954  1.2301  1.5525
 2084SOL    MW4 8336   1.855   1.177   3.432 -0.0666  0.3004  0.2366
 2085SOL     OW 8337   2.064   1.347   3.545  0.3230 -0.1965 -0.1597
 2085SOL    HW2 8338   2.049   1.351   3.640  0.3352  1.3654 -0.2180
 2085SOL    HW3 8339   2.038   1.433   3.513  2.5364  0.1002 -1.2643
 2085SOL    MW4 8340   2.059   1.359   3.553  0.6167  0.0488 -0.3131
 2086SOL     OW 8341   2.004   1.592   3.424 -0.0709  0.0493 -0.1133
 2086SOL    HW2 8342   2.080   1.633   3.466  0.6307 -0.8606 -0.4805
 2086SOL    HW3 8343   1.929   1.631   3.468  0.5892  1.3767 -0.1238
 2086SOL    MW4 8344   2.004   1.602   3.435  0.1087  0.1044 -0.1631
 2087SOL     OW 8345   1.796   1.716   3.582 -0.0351 -0.0251  0.0879
 2087SOL    HW2 8346   1.774   1.793   3.529  0.1109 -1.4236 -2.0787
 2087SOL    HW3 8347   1.739   1.647   3.548  1.2259 -1.3723  0.6542
 2087SOL    MW4 8348   1.785   1.717   3.571  0.1506 -0.3874 -0.1232
 2088SOL     OW 8349   1.778   1.977   3.454  0.3940  0.0971 -0.2918
 2088SOL    HW2 8350   1.867   1.995   3.482  0.4357  1.7697 -1.4111
 2088SOL    HW3 8351   1.783   1.972   3.358 -0.2911 -2.2770 -0.2338
 2088SOL    MW4 8352   1.790   1.979   3.445  0.3091  0.0045 -0.4318
 2089SOL     OW 8353   2.031   2.051   3.541  0.0665 -0.3611 -0.7067
 2089SOL    HW2 8354   2.119   2.015   3.540  0.0041 -0.5222 -0.4305
 2089SOL    HW3 8355   2.036   2.128   3.484  1.1215  1.3179  1.5661
 2089SOL    MW4 8356   2.043   2.057   3.534  0.1975 -0.1608 -0.3704
 2090SOL     OW 8357   2.029   2.289   3.387  0.0341  0.0182 -0.1812
 2090SOL    HW2 8358   2.106   2.328   3.428  0.5199 -0.3529 -0.7213
 2090SOL    HW3 8359   2.045   2.299   3.293  0.1349 -1.4178 -0.3256
 2090SOL    MW4 8360   2.041   2.296   3.380  0.1115 -0.2202 -0.2715
 2091SOL     OW 8361   1.840   2.439   3.538 -0.4319 -0.3009 -0.3136
 2091SOL    HW2 8362   1.907   2.381   3.501  0.3318  0.2174  0.2426
 2091SOL    HW3 8363   1.757   2.406   3.502 -0.0820 -2.1766  0.5287
 2091SOL    MW4 8364   1.838   2.427   3.528 -0.2850 -0.4800 -0.1291
 2092SOL     OW 8365   1.806   2.688   3.445  0.4328  0.2477  0.3442
 2092SOL    HW2 8366   1.874   2.749   3.471 -0.3958  1.5358 -0.4337
 2092SOL    HW3 8367   1.838   2.602   3.472  2.3758  0.8265 -0.0745
 2092SOL    MW4 8368   1.819   2.685   3.452  0.5799  0.4940  0.1863
 2093SOL     OW 8369   2.031   2.836   3.530 -0.0777  0.0749 -0.0843
 2093SOL    HW2 8370   2.023   2.847   3.625  1.3450 -1.0276  0.1762
 2093SOL    HW3 8371   2.028   2.925   3.496  1.8569  0.6699  1.2168
 2093SOL    MW4 8372   2.029   2.849   3.538  0.3652  0.0079  0.1218
 2094SOL     OW 8373   2.009   3.080   3.431  0.1950 -0.1525 -0.0640
 2094SOL    HW2 8374   2.086   3.127   3.462  0.4775 -1.6026  1.5434
 2094SOL    HW3 8375   1.935   3.125   3.472  0.4093 -0.5196  0.7519
 2094SOL    MW4 8376   2.009   3.092   3.440  0.2605 -0.3923  0.2557
 2095SOL     OW 8377   1.789   3.247   3.552  0.1486 -0.1448  0.0015
 2095SOL    HW2 8378   1.785   3.247   3.648 -0.5832  1.5813 -0.0247
 2095SOL    HW3 8379   1.789   3.339   3.527  0.6440 -0.5716 -1.6620
 2095SOL    MW4 8380   1.788   3.259   3.562  0.1175  0.0267 -0.2214
 2096SOL     OW 8381   1.830   3.500   3.432 -0.2745  0.0025 -0.0151
 2096SOL    HW2 8382   1.763   3.563   3.459  0.0483  0.3551 -0.0325
 2096SOL    HW3 8383   1.822   3.494   3.337 -0.5947 -0.3119  0.0312
 2096SOL    MW4 8384   1.820   3.508   3.423 -0.2742  0.0075 -0.0113
 2097SOL     OW 8385   2.019   3.632   3.566 -0.3360  0.5390  0.0297
 2097SOL    HW2 8386   2.097   3.603   3.518  0.6194 -1.7002  2.8365
 2097SOL    HW3 8387   1.946   3.587   3.523  0.1073  1.0012 -1.2518
 2097SOL    MW4 8388   2.020   3.622   3.554 -0.1514  0.3046  0.2310
 2098SOL     OW 8389   2.011   3.871   3.428  0.4733 -0.4016 -0.2539
 2098SOL    HW2 8390   1.928   3.907   3.459  1.6492  1.3535  0.9178
 2098SOL    HW3 8391   2.024   3.792   3.481  0.3462  0.2344  0.7491
 2098SOL    MW4 8392   2.002   3.865   3.439  0.6116 -0.0861  0.0330
 2099SOL     OW 8393   1.786   3.971   3.526  0.3954  0.7354  0.3733
 2099SOL    HW2 8394   1.790   3.966   3.621  0.3273 -0.5528  0.3235
 2099SOL    HW3 8395   1.704   3.926   3.504  1.4785 -0.8695 -0.4204
 2099SOL    MW4 8396   1.775   3.964   3.536  0.5293  0.3537  0.2620
 2100SOL     OW 8397   1.769   4.254   3.401 -0.0938 -0.3891  0.4255
 2100SOL    HW2 8398   1.768   4.168   3.442 -1.3981 -0.4637  0.2707
 2100SOL    HW3 8399   1.754   4.237   3.308 -2.7997  0.1376  0.7270
 2100SOL    MW4 8400   1.767   4.241   3.394 -0.6229 -0.3294  0.4448
 2101SOL     OW 8401   2.011   4.359   3.497  0.1503 -0.4074 -0.3120
 2101SOL    HW2 8402   1.933   4.326   3.453  1.3022 -0.9547 -2.0020
 2101SOL    HW3 8403   2.018   4.450   3.467 -0.3499 -0.0740  0.5724
 2101SOL    MW4 8404   2.002   4.367   3.487  0.2363 -0.4356 -0.4183
 2102SOL     OW 8405   2.475   4.646   3.430 -0.0950 -0.6613  0.4487
 2102SOL    HW2 8406   2.469   4.561   3.473  0.3823 -1.1001 -0.3429
 2102SOL    HW3 8407   2.465   4.627   3.336 -0.3671  0.1956  0.2934
 2102SOL    MW4 8408   2.473   4.632   3.423 -0.0679 -0.6061  0.3238
 2103SOL     OW 8409   2.229   0.083   3.518  0.2778  0.1112 -0.2782
 2103SOL    HW2 8410   2.225   0.177   3.503  0.2213  0.0383 -0.7084
 2103SOL    HW3 8411   2.315   0.057   3.486  0.0978 -0.0684 -0.6090
 2103SOL    MW4 8412   2.240   0.092   3.512  0.2466  0.0779 -0.3786
 2104SOL     OW 8413   2.249   0.364   3.460 -0.2252 -0.4833  0.8446
 2104SOL    HW2 8414   2.330   0.408   3.483 -0.5325  0.0206  0.9678
 2104SOL    HW3 8415   2.180   0.422   3.492 -0.6525 -0.3459 -0.2993
 2104SOL    MW4 8416   2.251   0.377   3.467 -0.3221 -0.3987  0.7099
 2105SOL     OW 8417   2.465   0.511   3.534 -0.3145  0.4702  0.3064
 2105SOL    HW2 8418   2.549   0.496   3.490 -0.3123  0.4371  0.3218
 2105SOL    HW3 8419   2.453   0.606   3.529  0.3589  0.6226  1.4654
 2105SOL    MW4 8420   2.475   0.521   3.527 -0.2254  0.4859  0.4614
 2106SOL     OW 8421   2.470   0.802   3.496 -0.5472 -0.5049  0.1455
 2106SOL    HW2 8422   2.555   0.829   3.532 -1.3289  0.0356  1.6444
 2106SOL    HW3 8423   2.474   0.826   3.404  0.4979  0.5607  0.4542
 2106SOL    MW4 8424   2.482   0.808   3.489 -0.5124 -0.2930  0.3840
 2107SOL     OW 8425   2.223   0.917   3.557 -0.1594  0.0352 -0.2982
 2107SOL    HW2 8426   2.222   1.011   3.540 -0.8139 -0.1307 -1.2405
 2107SOL    HW3 8427   2.308   0.887   3.525 -0.3972  0.1292 -1.0218
 2107SOL    MW4 8428   2.234   0.925   3.551 -0.2771  0.0257 -0.5180
 2108SOL     OW 8429   2.257   1.175   3.453 -0.0132 -0.1456  0.9304
 2108SOL    HW2 8430   2.342   1.207   3.481  0.2534 -0.1494  0.1377
 2108SOL    HW3 8431   2.195   1.243   3.479  0.3328  0.2164  0.7974
 2108SOL    MW4 8432   2.260   1.188   3.460  0.0676 -0.0984  0.8083
 2109SOL     OW 8433   2.503   1.289   3.561 -0.0577 -0.1024 -0.6552
 2109SOL    HW2 8434   2.517   1.297   3.655 -0.9235 -0.9489 -0.4422
 2109SOL    HW3 8435   2.579   1.241   3.529 -0.8816 -1.9161  0.0058
 2109SOL    MW4 8436   2.515   1.284   3.569 -0.2807 -0.4533 -0.5399
 2110SOL     OW 8437   2.455   1.539   3.451 -0.1520 -0.0631 -0.0701
 2110SOL    HW2 8438   2.466   1.452   3.488  0.3880 -0.3633 -0.9134
 2110SOL    HW3 8439   2.469   1.527   3.357  0.7379  1.0581 -0.0958
 2110SOL    MW4 8440   2.459   1.526   3.443  0.0367  0.0452 -0.1848
 2111SOL     OW 8441   2.236   1.704   3.534  0.4839  0.0364 -0.3458
 2111SOL    HW2 8442   2.243   1.709   3.630  1.5855  0.9002 -0.4599
 2111SOL    HW3 8443   2.305   1.643   3.509  0.4700  0.1409 -0.6331
 2111SOL    MW4 8444   2.246   1.696   3.543  0.6274  0.1642 -0.3987
 2112SOL     OW 8445   2.263   1.957   3.443  0.3725  0.4479 -0.5552
 2112SOL    HW2 8446   2.250   1.867   3.470 -1.0466  0.4329 -1.2376
 2112SOL    HW3 8447   2.253   1.955   3.348 -0.6496  1.4830 -0.4758
 2112SOL    MW4 8448   2.260   1.945   3.434  0.0504  0.5825 -0.6348
 2113SOL     OW 8449   2.506   2.039   3.513 -0.3797  0.0372  0.3972
 2113SOL    HW2 8450   2.494   2.041   3.608 -2.0408  0.8212  0.1926
 2113SOL    HW3 8451   2.420   2.014   3.478  1.2241 -4.2951 -0.7380
 2113SOL    MW4 8452   2.493   2.036   3.521 -0.3872 -0.4310  0.2204
 2114SOL     OW 8453   2.445   2.304   3.454 -0.3686 -0.2990  0.2416
 2114SOL    HW2 8454   2.512   2.367   3.482 -0.9340  0.4358 -0.0497
 2114SOL    HW3 8455   2.484   2.219   3.473  0.4052  0.1329  0.6457
 2114SOL    MW4 8456   2.459   2.301   3.460 -0.3411 -0.1451  0.2565
 2115SOL     OW 8457   2.216   2.415   3.539  0.1038 -0.1257  0.1118
 2115SOL    HW2 8458   2.226   2.505   3.510  0.2163 -0.0417  0.4098
 2115SOL    HW3 8459   2.301   2.375   3.526 -0.1512 -0.3979 -0.7318
 2115SOL    MW4 8460   2.228   2.421   3.534  0.0850 -0.1505  0.0398
 2116SOL     OW 8461   2.253   2.684   3.461 -0.0471 -0.3574 -0.0261
 2116SOL    HW2 8462   2.173   2.733   3.484 -0.0739 -0.2064 -0.4298
 2116SOL    HW3 8463   2.260   2.694   3.366  0.2196 -0.7309 -0.0451
 2116SOL    MW4 8464   2.243   2.692   3.451 -0.0154 -0.3868 -0.0819
 2117SOL     OW 8465   2.469   2.855   3.519  0.4405  0.0957 -0.0866
 2117SOL    HW2 8466   2.452   2.938   3.475  0.9253 -0.6517 -1.7328
 2117SOL    HW3 8467   2.392   2.802   3.500  0.3744 -0.0167  0.4990
 2117SOL    MW4 8468   2.457   2.859   3.511  0.4958 -0.0177 -0.2265
 2118SOL     OW 8469   2.437   3.112   3.416  0.5035 -0.1713 -0.3429
 2118SOL    HW2 8470   2.517   3.159   3.437  0.2073  0.5710 -0.8671
 2118SOL    HW3 8471   2.431   3.116   3.320  0.5406 -1.3839 -0.4157
 2118SOL    MW4 8472   2.447   3.118   3.406  0.4693 -0.2333 -0.4217
 2119SOL     OW 8473   2.217   3.223   3.536 -0.0547  0.0211 -0.4050
 2119SOL    HW2 8474   2.247   3.236   3.626  0.1852  0.7975 -0.5962
 2119SOL    HW3 8475   2.290   3.179   3.492 -0.1151 -0.2252 -0.2584
 2119SOL    MW4 8476   2.230   3.219   3.542 -0.0310  0.0910 -0.4109
 2120SOL     OW 8477   2.234   3.519   3.424 -0.1761  0.0523  0.3262
 2120SOL    HW2 8478   2.212   3.428   3.446  0.7161 -0.0653  0.7491
 2120SOL    HW3 8479   2.250   3.517   3.329 -1.1538 -0.0221  0.1574
 2120SOL    MW4 8480   2.233   3.506   3.414 -0.1874  0.0270  0.3597
 2121SOL     OW 8481   2.465   3.652   3.500  0.0082  0.0787  0.0522
 2121SOL    HW2 8482   2.453   3.739   3.463 -0.3618  0.3731  0.8664
 2121SOL    HW3 8483   2.387   3.603   3.472  0.4120 -0.1216 -0.7530
 2121SOL    MW4 8484   2.453   3.657   3.491  0.0127  0.0911  0.0534
 2122SOL     OW 8485   2.436   3.909   3.385  0.5358 -0.1692 -0.1198
 2122SOL    HW2 8486   2.509   3.963   3.414 -0.6602  1.6849 -0.5436
 2122SOL    HW3 8487   2.363   3.933   3.441  0.0555 -1.5869 -0.0990
 2122SOL    MW4 8488   2.436   3.919   3.396  0.3146 -0.1116 -0.1730
 2123SOL     OW 8489   2.236   4.015   3.541  0.3465 -0.3025  0.3936
 2123SOL    HW2 8490   2.237   4.093   3.486 -0.3542  0.7698  1.8428
 2123SOL    HW3 8491   2.151   3.974   3.524 -0.4047  0.7194  1.5786
 2123SOL    MW4 8492   2.225   4.020   3.532  0.1550 -0.0262  0.7412
 2124SOL     OW 8493   2.250   4.263   3.409  0.6447 -0.4089 -0.3996
 2124SOL    HW2 8494   2.159   4.289   3.426  1.5123  3.1573 -0.8674
 2124SOL    HW3 8495   2.253   4.248   3.314  0.5808 -0.4041 -0.4026
 2124SOL    MW4 8496   2.238   4.265   3.398  0.7507  0.0622 -0.4617
 2125SOL     OW 8497   2.445   4.403   3.566  0.2389  0.5937 -0.5676
 2125SOL    HW2 8498   2.448   4.396   3.661  1.9523 -0.2903 -0.6639
 2125SOL    HW3 8499   2.372   4.347   3.540  0.6908 -0.3132  0.1181
 2125SOL    MW4 8500   2.436   4.395   3.575  0.5246  0.3574 -0.4898
 2126SOL     OW 8501   2.928   0.009   3.472  0.0031 -0.3137  0.3534
 2126SOL    HW2 8502   2.839   0.024   3.501  0.0820  0.5890  0.1325
 2126SOL    HW3 8503   2.921  -0.007   3.378 -0.1124 -1.9900  0.6270
 2126SOL    MW4 8504   2.916   0.009   3.463 -0.0017 -0.4158  0.3603
 2127SOL     OW 8505   2.687   0.110   3.553  0.3061 -0.4298  0.1110
 2127SOL    HW2 8506   2.674   0.196   3.513  1.6261 -0.5008 -0.4865
 2127SOL    HW3 8507   2.610   0.060   3.527 -0.3939  0.5119  0.3267
 2127SOL    MW4 8508   2.675   0.115   3.545  0.3879 -0.3149  0.0607
 2128SOL     OW 8509   2.718   0.370   3.449 -0.0486 -0.3607  0.7423
 2128SOL    HW2 8510   2.804   0.402   3.474  1.0162 -3.0444  0.6899
 2128SOL    HW3 8511   2.722   0.365   3.353 -0.5291  0.2000  0.6902
 2128SOL    MW4 8512   2.730   0.374   3.439  0.0285 -0.6408  0.7285
 2129SOL     OW 8513   2.943   0.492   3.536  0.0391 -0.4527  0.2086
 2129SOL    HW2 8514   2.952   0.500   3.631  2.7746  1.1515 -0.1374
 2129SOL    HW3 8515   2.932   0.582   3.505  3.6883 -0.4886 -1.3463
 2129SOL    MW4 8516   2.943   0.505   3.544  0.8815 -0.2458 -0.0422
 2130SOL     OW 8517   2.934   0.758   3.436 -0.3084  0.0815  0.1479
 2130SOL    HW2 8518   3.000   0.791   3.497  0.7307 -2.0090  0.2065
 2130SOL    HW3 8519   2.851   0.786   3.473  0.4509  1.3276  0.9615
 2130SOL    MW4 8520   2.932   0.766   3.449 -0.0712 -0.0299  0.2630
 2131SOL     OW 8521   2.713   0.877   3.565  0.1068 -0.5499 -0.0390
 2131SOL    HW2 8522   2.710   0.888   3.660  1.6145 -0.9185  0.0578
 2131SOL    HW3 8523   2.722   0.966   3.530  0.4849 -0.4929  0.2061
 2131SOL    MW4 8524   2.714   0.890   3.573  0.3556 -0.5910  0.0061
 2132SOL     OW 8525   2.720   1.137   3.462 -0.9970 -0.1774 -0.4108
 2132SOL    HW2 8526   2.805   1.179   3.475 -1.4320  0.1211  1.7063
 2132SOL    HW3 8527   2.711   1.129   3.367  0.7316  1.1560 -0.7101
 2132SOL    MW4 8528   2.730   1.142   3.451 -0.8264  0.0379 -0.1710
 2133SOL     OW 8529   2.950   1.261   3.552 -0.2747 -0.2787  0.2896
 2133SOL    HW2 8530   2.963   1.281   3.645  1.1897  0.1509  0.0047
 2133SOL    HW3 8531   3.026   1.208   3.528 -0.5937 -0.3043 -0.6911
 2133SOL    MW4 8532   2.962   1.257   3.561 -0.1236 -0.2254  0.1226
 2134SOL     OW 8533   2.950   1.525   3.472  0.2561  0.0485  0.7991
 2134SOL    HW2 8534   2.864   1.557   3.500 -0.1410 -0.2204 -0.0684
 2134SOL    HW3 8535   2.943   1.429   3.479  0.1539 -0.0225 -0.1634
 2134SOL    MW4 8536   2.938   1.516   3.476  0.1902  0.0036  0.5576
 2135SOL     OW 8537   2.706   1.628   3.549 -0.1592 -0.5266 -0.1818
 2135SOL    HW2 8538   2.718   1.712   3.506 -0.2546 -2.0333 -3.2865
 2135SOL    HW3 8539   2.616   1.603   3.527 -0.0366 -1.5693  0.4730
 2135SOL    MW4 8540   2.695   1.635   3.540 -0.1556 -0.8629 -0.5050
 2136SOL     OW 8541   2.732   1.910   3.446  0.3255 -0.1709  0.1170
 2136SOL    HW2 8542   2.651   1.954   3.469  0.8159  0.4596  0.6332
 2136SOL    HW3 8543   2.730   1.906   3.350 -0.8074 -1.1021  0.1679
 2136SOL    MW4 8544   2.721   1.915   3.436  0.2407 -0.2106  0.1918
 2137SOL     OW 8545   2.943   2.058   3.558  0.0359  0.4785  0.3431
 2137SOL    HW2 8546   2.944   2.055   3.653 -1.0912  2.1620  0.4258
 2137SOL    HW3 8547   2.869   2.001   3.533 -0.3981  0.9639  0.5225
 2137SOL    MW4 8548   2.933   2.050   3.567 -0.1700  0.7647  0.3777
 2138SOL     OW 8549   2.866   2.314   3.423  0.1267 -0.6093  0.0390
 2138SOL    HW2 8550   2.897   2.228   3.452  0.4711 -0.8263 -0.9316
 2138SOL    HW3 8551   2.864   2.308   3.327 -0.7043  0.1737 -0.0057
 2138SOL    MW4 8552   2.870   2.302   3.414  0.0625 -0.5346 -0.0950
 2139SOL     OW 8553   2.659   2.454   3.556  0.0803 -0.0573  0.1684
 2139SOL    HW2 8554   2.679   2.455   3.649  1.6101  2.2287 -0.1422
 2139SOL    HW3 8555   2.717   2.387   3.520 -0.0749 -0.5154  0.7636
 2139SOL    MW4 8556   2.670   2.445   3.563  0.2616  0.1839  0.2060
 2140SOL     OW 8557   2.674   2.695   3.413  0.0935  0.2456 -0.5093
 2140SOL    HW2 8558   2.666   2.612   3.459  1.0431  0.1090 -0.5825
 2140SOL    HW3 8559   2.602   2.748   3.446 -0.5298 -0.6150 -0.4776
 2140SOL    MW4 8560   2.664   2.691   3.423  0.1366  0.1140 -0.5148
 2141SOL     OW 8561   2.865   2.875   3.540  0.1315 -0.5224  0.5362
 2141SOL    HW2 8562   2.850   2.877   3.635 -1.3287  0.3709  0.2920
 2141SOL    HW3 8563   2.813   2.802   3.509  0.5055 -0.7313  0.4066
 2141SOL    MW4 8564   2.856   2.866   3.549 -0.0118 -0.4321  0.4869
 2142SOL     OW 8565   2.884   3.145   3.422  0.6139  0.1454  0.0613
 2142SOL    HW2 8566   2.859   3.058   3.451 -0.9527  0.1856 -1.1345
 2142SOL    HW3 8567   2.891   3.138   3.327  1.1864  1.1438  0.0217
 2142SOL    MW4 8568   2.882   3.133   3.413  0.4828  0.2825 -0.1017
 2143SOL     OW 8569   2.659   3.258   3.519 -0.0080 -0.2563  0.8356
 2143SOL    HW2 8570   2.659   3.243   3.614 -0.2722 -3.0167  0.4579
 2143SOL    HW3 8571   2.731   3.204   3.486 -0.9952 -0.6700 -0.7093
 2143SOL    MW4 8572   2.668   3.249   3.527 -0.1731 -0.6751  0.5819
 2144SOL     OW 8573   2.681   3.516   3.409  0.1755  0.1836  0.5537
 2144SOL    HW2 8574   2.679   3.430   3.451  1.0470  0.3012  0.8588
 2144SOL    HW3 8575   2.609   3.564   3.448 -1.3108 -0.9274 -0.7557
 2144SOL    MW4 8576   2.671   3.511   3.419  0.0944  0.0525  0.4212
 2145SOL     OW 8577   2.913   3.617   3.541 -0.7090 -0.2538 -0.3316
 2145SOL    HW2 8578   2.923   3.706   3.509 -1.8121  0.1534  0.4165
 2145SOL    HW3 8579   2.840   3.581   3.490  0.1947 -0.9826 -1.1404
 2145SOL    MW4 8580   2.905   3.624   3.530 -0.7353 -0.2962 -0.3396
 2146SOL     OW 8581   2.891   3.893   3.422  0.0505  0.1058 -0.1969
 2146SOL    HW2 8582   2.969   3.935   3.456 -0.2079 -0.5720  1.2727
 2146SOL    HW3 8583   2.821   3.958   3.434  0.1397  0.2318 -0.3515
 2146SOL    MW4 8584   2.892   3.907   3.428  0.0282  0.0330 -0.0234
 2147SOL     OW 8585   2.651   4.037   3.488  0.4765 -0.1251 -0.0522
 2147SOL    HW2 8586   2.671   4.032   3.581 -0.7500  1.1822  0.2983
 2147SOL    HW3 8587   2.671   4.127   3.463 -0.9964  0.0652 -0.6078
 2147SOL    MW4 8588   2.656   4.048   3.497  0.1203  0.0725 -0.0792
 2148SOL     OW 8589   2.673   4.307   3.423 -0.2236  0.1287  0.1842
 2148SOL    HW2 8590   2.748   4.344   3.470 -0.3516 -1.5287  1.7519
 2148SOL    HW3 8591   2.597   4.351   3.461 -0.0723  1.9149 -1.5059
 2148SOL    MW4 8592   2.673   4.318   3.434 -0.2205  0.1457  0.1681
 2149SOL     OW 8593   2.910   4.391   3.534 -0.2584  0.5144 -0.5025
 2149SOL    HW2 8594   2.927   4.405   3.627 -0.6224  0.2665 -0.3972
 2149SOL    HW3 8595   2.925   4.476   3.493 -0.2213  0.6536 -0.1949
 2149SOL    MW4 8596   2.914   4.404   3.541 -0.3016  0.5001 -0.4480
 2150SOL     OW 8597   3.323   4.642   3.456  0.0262 -0.1936  0.1312
 2150SOL    HW2 8598   3.254   4.701   3.484 -1.1048 -1.3103 -0.2682
 2150SOL    HW3 8599   3.332   4.657   3.362  1.3131  0.9484  0.4148
 2150SOL    MW4 8600   3.315   4.652   3.447  0.0468 -0.1903  0.1159
 2151SOL     OW 8601   3.148   0.141   3.592  0.3152  0.1892 -0.2164
 2151SOL    HW2 8602   3.157   0.217   3.535  2.1312  1.1158  1.2335
 2151SOL    HW3 8603   3.064   0.102   3.567  0.6670  1.0377 -2.9042
 2151SOL    MW4 8604   3.138   0.146   3.581  0.6012  0.4234 -0.3798
 2152SOL     OW 8605   3.169   0.377   3.452  0.0542 -0.0992  0.2534
 2152SOL    HW2 8606   3.093   0.428   3.479  0.4288  0.2239  0.6935
 2152SOL    HW3 8607   3.162   0.373   3.356  0.1375  0.9397  0.2074
 2152SOL    MW4 8608   3.158   0.383   3.443  0.1146  0.0805  0.3054
 2153SOL     OW 8609   3.410   0.509   3.505 -0.0647  0.6153 -0.1495
 2153SOL    HW2 8610   3.408   0.529   3.598 -0.4287 -2.1790  0.4750
 2153SOL    HW3 8611   3.327   0.466   3.487  0.6793 -0.3509 -1.3860
 2153SOL    MW4 8612   3.399   0.506   3.515 -0.0146  0.1192 -0.2303
 2154SOL     OW 8613   3.387   0.771   3.420 -0.2676 -0.3344 -0.0833
 2154SOL    HW2 8614   3.468   0.798   3.463  0.1625  0.7444 -1.5464
 2154SOL    HW3 8615   3.386   0.676   3.429  1.4206 -0.4045 -0.4914
 2154SOL    MW4 8616   3.398   0.762   3.427  0.0119 -0.2013 -0.3302
 2155SOL     OW 8617   3.158   0.877   3.541  0.3557 -0.1831 -0.2370
 2155SOL    HW2 8618   3.175   0.970   3.525  1.4193 -0.1668  0.8829
 2155SOL    HW3 8619   3.235   0.832   3.504 -0.3616 -0.6553 -1.1702
 2155SOL    MW4 8620   3.171   0.883   3.534  0.4014 -0.2432 -0.2124
 2156SOL     OW 8621   3.180   1.139   3.463 -0.1670 -0.0357 -0.6095
 2156SOL    HW2 8622   3.247   1.204   3.481  0.6229 -1.0583  0.1589
 2156SOL    HW3 8623   3.174   1.135   3.367  0.9811 -0.0657 -0.6773
 2156SOL    MW4 8624   3.188   1.147   3.452  0.0887 -0.1746 -0.5171
 2157SOL     OW 8625   3.386   1.293   3.548 -0.5853 -0.3470  0.2943
 2157SOL    HW2 8626   3.454   1.239   3.506 -0.8694 -0.1563 -0.4286
 2157SOL    HW3 8627   3.403   1.382   3.518 -2.0032 -0.4959 -1.0824
 2157SOL    MW4 8628   3.397   1.297   3.538 -0.8098 -0.3415  0.0173
 2158SOL     OW 8629   3.426   1.534   3.440 -0.3797  0.0601  0.6016
 2158SOL    HW2 8630   3.495   1.589   3.478 -0.3697  0.6425 -0.2668
 2158SOL    HW3 8631   3.345   1.566   3.479 -0.2508 -0.0931  1.0002
 2158SOL    MW4 8632   3.425   1.545   3.450 -0.3614  0.1167  0.5396
 2159SOL     OW 8633   3.193   1.634   3.544 -0.0487  0.1704  0.3212
 2159SOL    HW2 8634   3.195   1.723   3.508 -0.4336  0.0356 -0.0474
 2159SOL    HW3 8635   3.109   1.599   3.514 -0.7141  0.3185  1.9857
 2159SOL    MW4 8636   3.182   1.641   3.535 -0.1873  0.1721  0.4922
 2160SOL     OW 8637   3.151   1.894   3.432  0.1311 -0.7686  0.4033
 2160SOL    HW2 8638   3.072   1.931   3.471  0.0399 -0.2855 -0.2463
 2160SOL    HW3 8639   3.124   1.866   3.344  0.0445 -2.8745  1.0575
 2160SOL    MW4 8640   3.137   1.895   3.426  0.1077 -0.9828  0.4039
 2161SOL     OW 8641   3.369   2.043   3.551 -0.4040 -0.7669 -0.0962
 2161SOL    HW2 8642   3.356   2.134   3.525  0.8422 -0.4318  0.4101
 2161SOL    HW3 8643   3.295   1.996   3.513 -2.2281  0.7951  1.4295
 2161SOL    MW4 8644   3.357   2.049   3.543 -0.4802 -0.5166  0.1719
 2162SOL     OW 8645   3.331   2.305   3.479  0.0766  0.3225 -0.1245
 2162SOL    HW2 8646   3.407   2.363   3.486  0.1731 -0.0065  1.6506
 2162SOL    HW3 8647   3.259   2.356   3.516  0.1073 -0.5966  1.1897
 2162SOL    MW4 8648   3.331   2.320   3.485  0.0934  0.1578  0.2831
 2163SOL     OW 8649   3.067   2.464   3.543 -0.1497  0.0835  0.0125
 2163SOL    HW2 8650   3.067   2.548   3.497 -0.8619  0.7026  1.1339
 2163SOL    HW3 8651   2.989   2.418   3.510 -0.9280  0.7233  0.9415
 2163SOL    MW4 8652   3.057   2.469   3.532 -0.3463  0.2496  0.2830
 2164SOL     OW 8653   3.085   2.732   3.445 -0.2026  0.6379 -0.2595
 2164SOL    HW2 8654   3.167   2.765   3.482  0.5303  0.4652 -1.6643
 2164SOL    HW3 8655   3.019   2.797   3.468  0.6616  1.6262 -0.5490
 2164SOL    MW4 8656   3.087   2.745   3.453  0.0081  0.7455 -0.4830
 2165SOL     OW 8657   3.349   2.848   3.540 -0.0522  0.4086 -0.2048
 2165SOL    HW2 8658   3.409   2.786   3.499 -0.2953  0.7945 -1.1698
 2165SOL    HW3 8659   3.369   2.932   3.497 -0.9811  0.6224 -0.2263
 2165SOL    MW4 8660   3.359   2.851   3.529 -0.2068  0.4878 -0.3349
 2166SOL     OW 8661   3.353   3.127   3.448 -0.1020  0.4049 -0.4895
 2166SOL    HW2 8662   3.423   3.185   3.478  1.0553 -0.7568 -0.8971
 2166SOL    HW3 8663   3.277   3.152   3.499  1.2270  0.0527  1.7126
 2166SOL    MW4 8664   3.352   3.138   3.459  0.2261  0.2051 -0.2528
 2167SOL     OW 8665   3.107   3.197   3.578  0.3545 -0.5809  0.7325
 2167SOL    HW2 8666   3.107   3.288   3.548 -2.5311 -0.4388  1.0789
 2167SOL    HW3 8667   3.043   3.153   3.523  0.3244 -1.9811  1.8620
 2167SOL    MW4 8668   3.099   3.204   3.567 -0.0302 -0.7469  0.9273
 2168SOL     OW 8669   3.133   3.475   3.452 -0.2800  0.1014  0.2246
 2168SOL    HW2 8670   3.053   3.521   3.478  0.4963  2.0145 -0.7093
 2168SOL    HW3 8671   3.130   3.474   3.356  0.8237  0.1866  0.1886
 2168SOL    MW4 8672   3.122   3.481   3.443 -0.0320  0.3651  0.0966
 2169SOL     OW 8673   3.346   3.597   3.553 -0.3330  0.1471  0.4357
 2169SOL    HW2 8674   3.351   3.686   3.519  1.0264 -0.2434 -0.4397
 2169SOL    HW3 8675   3.259   3.566   3.526 -0.9295  1.3020  1.0082
 2169SOL    MW4 8676   3.335   3.605   3.545 -0.2324  0.2479  0.3958
 2170SOL     OW 8677   3.351   3.851   3.446  0.3379  0.1338  0.1189
 2170SOL    HW2 8678   3.427   3.903   3.473  0.1389  1.0090 -0.9845
 2170SOL    HW3 8679   3.279   3.883   3.500  0.2793  0.8221 -0.3622
 2170SOL    MW4 8680   3.352   3.862   3.457  0.3039  0.3401 -0.0902
 2171SOL     OW 8681   3.117   3.965   3.562 -0.5193 -0.2158  0.1586
 2171SOL    HW2 8682   3.107   3.971   3.657 -3.4995  0.4599 -0.1315
 2171SOL    HW3 8683   3.107   4.056   3.531 -1.5197 -0.6688 -0.9196
 2171SOL    MW4 8684   3.114   3.978   3.570 -1.0445 -0.1864 -0.0219
 2172SOL     OW 8685   3.104   4.213   3.432  0.0293  0.3940  0.3041
 2172SOL    HW2 8686   3.177   4.274   3.449  0.3062  0.1473  0.0081
 2172SOL    HW3 8687   3.026   4.263   3.456  0.3274  0.4885  1.0938
 2172SOL    MW4 8688   3.104   4.228   3.437  0.1051  0.3739  0.3692
 2173SOL     OW 8689   3.337   4.362   3.529  0.0579  0.3628 -0.5513
 2173SOL    HW2 8690   3.337   4.366   3.625 -2.1493 -0.2339 -0.4953
 2173SOL    HW3 8691   3.340   4.454   3.502 -2.1440  0.6636  0.1391
 2173SOL    MW4 8692   3.338   4.375   3.538 -0.5238  0.3238 -0.4529
 2174SOL     OW 8693   3.836   4.648   3.413  0.4483  0.2566  0.3928
 2174SOL    HW2 8694   3.746   4.664   3.441  0.4266 -0.2663  0.6343
 2174SOL    HW3 8695   3.828   4.623   3.321  0.4408  1.1778  0.1476
 2174SOL    MW4 8696   3.823   4.647   3.404  0.4444  0.3091  0.3923
 2175SOL     OW 8697   3.595   0.074   3.525 -0.8354 -0.0945 -0.0709
 2175SOL    HW2 8698   3.599   0.165   3.495 -1.9842  0.9863  2.7955
 2175SOL    HW3 8699   3.506   0.046   3.504 -0.2299 -0.8552 -1.6813
 2175SOL    MW4 8700   3.584   0.083   3.519 -0.9071 -0.0523  0.0948
 2176SOL     OW 8701   3.614   0.352   3.437 -0.1095 -0.0979 -0.3680
 2176SOL    HW2 8702   3.670   0.418   3.479 -0.7576 -0.4812  1.1416
 2176SOL    HW3 8703   3.526   0.388   3.444 -0.1112  0.3780 -2.5112
 2176SOL    MW4 8704   3.610   0.366   3.444 -0.1952 -0.0857 -0.4516
 2177SOL     OW 8705   3.804   0.509   3.550  0.0869 -0.5767 -0.3234
 2177SOL    HW2 8706   3.806   0.514   3.645  1.6465  1.3024 -0.4322
 2177SOL    HW3 8707   3.890   0.473   3.526 -0.1415 -0.6555 -1.0284
 2177SOL    MW4 8708   3.816   0.505   3.559  0.2625 -0.3392 -0.4308
 2178SOL     OW 8709   3.832   0.737   3.400 -0.0544  0.3678 -0.1210
 2178SOL    HW2 8710   3.898   0.789   3.446  0.3149  0.5475 -0.8385
 2178SOL    HW3 8711   3.827   0.655   3.448  0.0207  0.7177  0.4821
 2178SOL    MW4 8712   3.840   0.733   3.412  0.0042  0.4377 -0.1361
 2179SOL     OW 8713   3.623   0.862   3.538  0.2299 -0.4815 -0.1258
 2179SOL    HW2 8714   3.639   0.855   3.633 -0.6916 -1.0214 -0.0025
 2179SOL    HW3 8715   3.698   0.817   3.498  0.5054 -0.4555  0.3569
 2179SOL    MW4 8716   3.635   0.855   3.546  0.1447 -0.5493 -0.0459
 2180SOL     OW 8717   3.602   1.115   3.448  0.2045  0.2203  0.0407
 2180SOL    HW2 8718   3.612   1.025   3.480 -1.7142  0.0748  0.3260
 2180SOL    HW3 8719   3.589   1.105   3.353  0.2585  0.2070  0.0351
 2180SOL    MW4 8720   3.602   1.102   3.440 -0.0415  0.1994  0.0776
 2181SOL     OW 8721   3.813   1.288   3.544 -0.1708 -0.3678 -0.0964
 2181SOL    HW2 8722   3.814   1.271   3.638 -0.2860  0.0997 -0.0085
 2181SOL    HW3 8723   3.735   1.242   3.512 -0.1379 -0.5163  0.0382
 2181SOL    MW4 8724   3.803   1.280   3.552 -0.1816 -0.3257 -0.0670
 2182SOL     OW 8725   3.836   1.526   3.438  0.6733 -0.1595 -0.2970
 2182SOL    HW2 8726   3.910   1.569   3.483 -1.0666  1.0518  1.4808
 2182SOL    HW3 8727   3.842   1.435   3.465  1.0586  0.0907  0.4915
 2182SOL    MW4 8728   3.847   1.520   3.448  0.4946  0.0333  0.0416
 2183SOL     OW 8729   3.628   1.671   3.583  0.1173  0.0275  0.0072
 2183SOL    HW2 8730   3.630   1.751   3.531  0.7507  0.2995  0.4374
 2183SOL    HW3 8731   3.692   1.614   3.541 -0.2037 -0.1870 -0.1914
 2183SOL    MW4 8732   3.637   1.674   3.571  0.1585  0.0351  0.0377
 2184SOL     OW 8733   3.579   1.916   3.426  0.2990  0.2299  0.3199
 2184SOL    HW2 8734   3.662   1.963   3.430 -0.1159  1.1918 -1.7071
 2184SOL    HW3 8735   3.519   1.968   3.480  0.7981 -0.0378  1.1392
 2184SOL    MW4 8736   3.582   1.929   3.434  0.3101  0.3215  0.1606
 2185SOL     OW 8737   3.808   2.069   3.556  0.3370  0.2460  0.3217
 2185SOL    HW2 8738   3.821   2.067   3.651  1.4466 -0.0496  0.1688
 2185SOL    HW3 8739   3.875   2.010   3.521 -1.9609 -1.9739 -0.4613
 2185SOL    MW4 8740   3.819   2.061   3.564  0.1802 -0.0859  0.1982
 2186SOL     OW 8741   3.759   2.318   3.419 -0.5094 -0.3652 -0.2305
 2186SOL    HW2 8742   3.830   2.380   3.437 -1.1400  0.0120  1.0120
 2186SOL    HW3 8743   3.789   2.235   3.456 -0.9863 -0.0476  0.8892
 2186SOL    MW4 8744   3.772   2.316   3.426 -0.6555 -0.2735  0.0812
 2187SOL     OW 8745   3.551   2.469   3.530 -0.5244 -0.4027 -0.3609
 2187SOL    HW2 8746   3.545   2.551   3.481  0.4458 -1.3141 -2.0487
 2187SOL    HW3 8747   3.617   2.418   3.483 -0.6529 -1.8936  1.0505
 2187SOL    MW4 8748   3.559   2.473   3.518 -0.4134 -0.7196 -0.3974
 2188SOL     OW 8749   3.564   2.714   3.425 -0.4164 -0.1966  0.0788
 2188SOL    HW2 8750   3.652   2.741   3.452 -0.3932  0.1024 -0.2841
 2188SOL    HW3 8751   3.563   2.726   3.330 -0.4288 -1.4462 -0.0772
 2188SOL    MW4 8752   3.575   2.719   3.416 -0.4150 -0.3220  0.0103
 2189SOL     OW 8753   3.817   2.814   3.508 -0.3078 -0.2625  0.2284
 2189SOL    HW2 8754   3.818   2.820   3.604 -0.8757  0.3991  0.1948
 2189SOL    HW3 8755   3.832   2.904   3.478  1.1700 -0.6731 -0.3124
 2189SOL    MW4 8756   3.819   2.827   3.517 -0.1877 -0.2294  0.1526
 2190SOL     OW 8757   3.802   3.086   3.409 -0.0859 -0.0203 -0.0858
 2190SOL    HW2 8758   3.889   3.115   3.437  0.2135  0.5327 -1.5313
 2190SOL    HW3 8759   3.806   3.089   3.313 -1.2950 -1.1948 -0.1859
 2190SOL    MW4 8760   3.814   3.090   3.400 -0.2060 -0.1023 -0.2897
 2191SOL     OW 8761   3.603   3.245   3.529 -0.0337  0.6754 -0.5469
 2191SOL    HW2 8762   3.618   3.325   3.479  0.5951  0.7035 -0.3284
 2191SOL    HW3 8763   3.667   3.183   3.493  0.1969  0.5981 -0.0024
 2191SOL    MW4 8764   3.614   3.247   3.517  0.0797  0.6689 -0.4463
 2192SOL     OW 8765   3.569   3.502   3.428 -0.8309  0.2014  0.0752
 2192SOL    HW2 8766   3.483   3.530   3.460 -1.8261 -1.7621 -0.7799
 2192SOL    HW3 8767   3.556   3.488   3.334  0.6822  0.7941 -0.2453
 2192SOL    MW4 8768   3.556   3.504   3.420 -0.7626  0.0206 -0.0799
 2193SOL     OW 8769   3.816   3.581   3.496  0.1650  0.0545 -0.1263
 2193SOL    HW2 8770   3.834   3.566   3.588 -0.3523 -1.7372 -0.3140
 2193SOL    HW3 8771   3.725   3.557   3.484  0.2918  0.0503 -1.1637
 2193SOL    MW4 8772   3.806   3.576   3.506  0.1135 -0.1824 -0.2880
 2194SOL     OW 8773   3.827   3.859   3.474 -0.5313  0.2105 -0.1190
 2194SOL    HW2 8774   3.744   3.897   3.504  0.2302  1.8483 -0.0549
 2194SOL    HW3 8775   3.816   3.765   3.489 -2.4402  0.3773 -0.2745
 2194SOL    MW4 8776   3.815   3.851   3.480 -0.6827  0.4486 -0.1311
 2195SOL     OW 8777   3.585   3.981   3.543 -0.1664 -0.2464  0.3494
 2195SOL    HW2 8778   3.579   3.987   3.639  0.2957  0.8990  0.3037
 2195SOL    HW3 8779   3.589   4.072   3.513 -2.1623 -0.5406 -0.8809
 2195SOL    MW4 8780   3.585   3.994   3.552 -0.3688 -0.1341  0.1810
 2196SOL     OW 8781   3.595   4.242   3.485  0.1298  0.6434 -0.4222
 2196SOL    HW2 8782   3.507   4.267   3.513 -0.8008 -2.0100 -0.8270
 2196SOL    HW3 8783   3.587   4.228   3.391  0.8376 -0.1327 -0.3767
 2196SOL    MW4 8784   3.582   4.243   3.476  0.1004  0.1909 -0.4696
 2197SOL     OW 8785   3.827   4.399   3.564 -0.1916  0.1310 -0.8722
 2197SOL    HW2 8786   3.737   4.371   3.545 -1.0767  0.9725  1.7434
 2197SOL    HW3 8787   3.837   4.482   3.517 -1.3149  0.7671 -0.0267
 2197SOL    MW4 8788   3.816   4.406   3.556 -0.4566  0.3259 -0.4156
 2198SOL     OW 8789   4.283   4.620   3.447 -0.1109  0.1179  0.4266
 2198SOL    HW2 8790   4.283   4.529   3.477 -0.7770  0.1608  0.5536
 2198SOL    HW3 8791   4.357   4.660   3.492 -0.5754 -0.0383  1.3392
 2198SOL    MW4 8792   4.293   4.613   3.457 -0.2601  0.1030  0.5637
 2199SOL     OW 8793   4.060   0.108   3.505  0.8005  0.2857  0.1366
 2199SOL    HW2 8794   4.130   0.045   3.492  1.1728  0.2972  1.8931
 2199SOL    HW3 8795   3.982   0.066   3.468  1.1200 -1.0703  0.9731
 2199SOL    MW4 8796   4.059   0.094   3.499  0.8918  0.1083  0.4787
 2200SOL     OW 8797   4.047   0.398   3.461  0.3652 -0.0545 -0.3686
 2200SOL    HW2 8798   4.048   0.306   3.489 -0.6925 -0.4562 -1.6138
 2200SOL    HW3 8799   4.045   0.394   3.366 -1.0093  1.2479 -0.4120
 2200SOL    MW4 8800   4.047   0.385   3.453  0.0443  0.0643 -0.5386
 2201SOL     OW 8801   4.298   0.487   3.530 -0.1582 -0.2029 -0.3433
 2201SOL    HW2 8802   4.300   0.577   3.498 -1.2965 -0.2834 -0.6554
 2201SOL    HW3 8803   4.208   0.458   3.515 -0.0804 -1.0384  0.7223
 2201SOL    MW4 8804   4.286   0.495   3.524 -0.2981 -0.3238 -0.2439
 2202SOL     OW 8805   4.230   0.766   3.471  0.0135  0.3338 -0.1234
 2202SOL    HW2 8806   4.310   0.809   3.502 -0.9801  1.1417  1.3905
 2202SOL    HW3 8807   4.234   0.773   3.376  1.5997  0.6313 -0.0445
 2202SOL    MW4 8808   4.241   0.772   3.463  0.0917  0.4797  0.0867
 2203SOL     OW 8809   3.998   0.882   3.578  0.2485 -0.1744 -0.0551
 2203SOL    HW2 8810   3.986   0.968   3.537  0.0192 -0.0704  0.2245
 2203SOL    HW3 8811   4.080   0.849   3.542  0.4952  0.2943  0.0682
 2203SOL    MW4 8812   4.007   0.889   3.568  0.2508 -0.0988 -0.0019
 2204SOL     OW 8813   4.031   1.136   3.430  0.2824  0.0280 -0.1019
 2204SOL    HW2 8814   4.104   1.166   3.484  2.1727 -0.0527 -2.4894
 2204SOL    HW3 8815   3.960   1.196   3.451  0.8951 -0.1268  2.5730
 2204SOL    MW4 8816   4.032   1.148   3.440  0.6126 -0.0030 -0.0640
 2205SOL     OW 8817   4.255   1.284   3.589  0.3532  0.1336 -0.6809
 2205SOL    HW2 8818   4.261   1.370   3.546 -0.3129  0.4381 -0.1784
 2205SOL    HW3 8819   4.324   1.232   3.548  0.2601  0.6701 -1.5412
 2205SOL    MW4 8820   4.265   1.289   3.578  0.2530  0.2445 -0.7281
 2206SOL     OW 8821   4.290   1.550   3.468 -0.3226  0.4493  0.0232
 2206SOL    HW2 8822   4.206   1.581   3.502 -0.0124  1.6356 -0.2457
 2206SOL    HW3 8823   4.276   1.542   3.374  0.2930  2.1253 -0.2252
 2206SOL    MW4 8824   4.277   1.553   3.460 -0.2005  0.8269 -0.0450
 2207SOL     OW 8825   4.050   1.636   3.587 -0.0697 -0.3263 -0.1162
 2207SOL    HW2 8826   4.052   1.637   3.682  1.5188  0.3810 -0.1268
 2207SOL    HW3 8827   4.038   1.728   3.562  1.1541 -0.2767 -0.5885
 2207SOL    MW4 8828   4.049   1.648   3.596  0.3014 -0.2265 -0.1799
 2208SOL     OW 8829   4.026   1.891   3.488 -0.0082  1.0437 -0.6252
 2208SOL    HW2 8830   4.096   1.955   3.504 -0.0335  0.9641 -0.1909
 2208SOL    HW3 8831   4.024   1.881   3.393  0.2702  1.3862 -0.6679
 2208SOL    MW4 8832   4.035   1.898   3.477  0.0252  1.0784 -0.5736
 2209SOL     OW 8833   4.252   2.043   3.531  0.2066  0.2878  0.6713
 2209SOL    HW2 8834   4.253   2.139   3.522 -1.0112  0.3372  0.8735
 2209SOL    HW3 8835   4.333   2.014   3.489  0.1009  1.3369 -0.3126
 2209SOL    MW4 8836   4.263   2.052   3.524  0.0320  0.4327  0.5681
 2210SOL     OW 8837   4.278   2.328   3.451 -0.4417  0.5678 -0.1852
 2210SOL    HW2 8838   4.186   2.349   3.469 -1.0616 -1.3003 -1.0960
 2210SOL    HW3 8839   4.280   2.305   3.358  0.8432  0.0460 -0.0414
 2210SOL    MW4 8840   4.266   2.328   3.441 -0.3540  0.2525 -0.2864
 2211SOL     OW 8841   4.001   2.446   3.484  0.4022  0.0607 -0.1158
 2211SOL    HW2 8842   3.987   2.441   3.579  0.2762 -0.1897 -0.1470
 2211SOL    HW3 8843   4.016   2.539   3.467  0.7622  0.0623  0.1959
 2211SOL    MW4 8844   4.001   2.457   3.494  0.4330  0.0278 -0.0788
 2212SOL     OW 8845   4.061   2.705   3.438 -0.1921 -0.1318 -0.0803
 2212SOL    HW2 8846   4.124   2.741   3.501  0.5064  0.2827 -0.9968
 2212SOL    HW3 8847   3.977   2.740   3.467  0.0758 -0.2146  0.8188
 2212SOL    MW4 8848   4.058   2.715   3.451 -0.0646 -0.0880 -0.0826
 2213SOL     OW 8849   4.296   2.829   3.560 -0.0616  0.2930 -0.0604
 2213SOL    HW2 8850   4.309   2.798   3.650  0.1044  0.4259 -0.0400
 2213SOL    HW3 8851   4.370   2.793   3.511  0.0283  0.4985 -0.0763
 2213SOL    MW4 8852   4.307   2.820   3.566 -0.0279  0.3377 -0.0598
 2214SOL     OW 8853   4.277   3.105   3.487  0.2069 -0.1205 -0.1759
 2214SOL    HW2 8854   4.275   3.011   3.504 -0.3304 -0.2916 -1.1389
 2214SOL    HW3 8855   4.270   3.112   3.392  0.6201  0.8819 -0.1355
 2214SOL    MW4 8856   4.276   3.093   3.477  0.1905 -0.0108 -0.2977
 2215SOL     OW 8857   4.022   3.183   3.540  0.1444 -0.4210 -0.0711
 2215SOL    HW2 8858   4.019   3.270   3.500  0.0350 -0.8495 -1.0164
 2215SOL    HW3 8859   4.112   3.154   3.527  0.5446  0.0800  1.4272
 2215SOL    MW4 8860   4.033   3.191   3.533  0.1828 -0.4114  0.0019
 2216SOL     OW 8861   4.043   3.437   3.425  0.2176 -0.0377 -0.0893
 2216SOL    HW2 8862   4.116   3.489   3.458  0.2174 -0.3664  0.4385
 2216SOL    HW3 8863   3.965   3.483   3.456  0.2214 -0.6598  0.8780
 2216SOL    MW4 8864   4.042   3.450   3.434  0.2181 -0.1631  0.1080
 2217SOL     OW 8865   4.251   3.564   3.544  0.2839  0.2517 -0.1083
 2217SOL    HW2 8866   4.247   3.567   3.639  1.4244  0.0976 -0.0477
 2217SOL    HW3 8867   4.227   3.653   3.517 -0.9947  0.0386  0.2645
 2217SOL    MW4 8868   4.247   3.576   3.553  0.2657  0.2033 -0.0511
 2218SOL     OW 8869   4.235   3.841   3.450 -0.1788 -0.0780 -0.4543
 2218SOL    HW2 8870   4.306   3.896   3.483 -0.4315 -0.2754  0.4396
 2218SOL    HW3 8871   4.237   3.854   3.355 -0.1448  1.3856 -0.2744
 2218SOL    MW4 8872   4.244   3.850   3.442 -0.2076  0.0891 -0.3126
 2219SOL     OW 8873   4.051   4.005   3.536  0.8525 -0.7470  0.1052
 2219SOL    HW2 8874   4.115   3.938   3.513  0.5840 -1.6093  1.8252
 2219SOL    HW3 8875   3.968   3.973   3.501  0.6847 -1.4233  1.1158
 2219SOL    MW4 8876   4.048   3.992   3.528  0.7950 -0.9500  0.4655
 2220SOL     OW 8877   4.040   4.260   3.429  0.0900 -0.1477 -0.1466
 2220SOL    HW2 8878   4.047   4.169   3.459 -0.3137 -0.2035 -0.2130
 2220SOL    HW3 8879   3.953   4.288   3.457 -0.7690 -0.5823 -2.2440
 2220SOL    MW4 8880   4.029   4.252   3.437 -0.0766 -0.2124 -0.4321
 2221SOL     OW 8881   4.278   4.352   3.543  0.2368 -0.3251 -0.4066
 2221SOL    HW2 8882   4.276   4.332   3.636  1.2484 -1.8642 -0.6840
 2221SOL    HW3 8883   4.191   4.327   3.511 -1.3904  3.6337  0.7386
 2221SOL    MW4 8884   4.266   4.346   3.551  0.1556 -0.0059 -0.2921
 2222SOL     OW 8885   0.299   4.649   3.911 -0.1020 -0.0191  0.5912
 2222SOL    HW2 8886   0.299   4.663   4.006 -1.6911 -0.4328  0.6557
 2222SOL    HW3 8887   0.236   4.712   3.878  0.4563  0.1233 -0.2027
 2222SOL    MW4 8888   0.291   4.659   3.920 -0.2380 -0.0549  0.4950
 2223SOL     OW 8889   0.022   0.047   3.794  0.3048  0.5346 -0.2327
 2223SOL    HW2 8890   0.013   0.137   3.825  1.9377  0.9226 -0.8208
 2223SOL    HW3 8891   0.015   0.054   3.699  2.2139  0.3066 -0.4121
 2223SOL    MW4 8892   0.020   0.060   3.786  0.7721  0.5557 -0.3339
 2224SOL     OW 8893   0.023   0.301   3.904  0.0201  0.1146 -0.4600
 2224SOL    HW2 8894  -0.056   0.354   3.907  0.2668  0.5268 -1.1104
 2224SOL    HW3 8895   0.092   0.362   3.875  0.3577 -0.4933 -0.9592
 2224SOL    MW4 8896   0.022   0.316   3.901  0.0972  0.0888 -0.6117
 2225SOL     OW 8897   0.241   0.479   3.845  0.7302 -0.3163  0.0237
 2225SOL    HW2 8898   0.238   0.569   3.878 -1.8491 -0.2669 -0.2277
 2225SOL    HW3 8899   0.247   0.488   3.750  1.2596 -0.4260  0.0447
 2225SOL    MW4 8900   0.241   0.492   3.837  0.4597 -0.3243 -0.0067
 2226SOL     OW 8901   0.236   0.750   3.913  0.0394 -0.5778 -0.3053
 2226SOL    HW2 8902   0.236   0.761   4.008  0.1510  0.4971 -0.4156
 2226SOL    HW3 8903   0.160   0.800   3.883  0.8535  0.3227 -0.8972
 2226SOL    MW4 8904   0.226   0.758   3.921  0.1616 -0.3172 -0.3980
 2227SOL     OW 8905   0.006   0.891   3.795  0.2994 -0.1633  0.0247
 2227SOL    HW2 8906  -0.074   0.845   3.818  0.5181 -0.6619 -0.2036
 2227SOL    HW3 8907   0.008   0.967   3.853 -0.3433 -0.1422  0.0177
 2227SOL    MW4 8908  -0.004   0.895   3.806  0.2435 -0.2263 -0.0063
 2228SOL     OW 8909   0.035   1.109   3.973  0.1846  0.1404  1.0219
 2228SOL    HW2 8910  -0.042   1.151   3.935  0.6680  0.2196  0.1308
 2228SOL    HW3 8911   0.110   1.157   3.936  0.6332  1.2390  3.2396
 2228SOL    MW4 8912   0.035   1.121   3.963  0.3076  0.2958  1.1970
 2229SOL     OW 8913   0.246   1.251   3.841  0.0402  0.1967  0.3604
 2229SOL    HW2 8914   0.243   1.345   3.858 -1.9453  0.3352 -0.6804
 2229SOL    HW3 8915   0.233   1.243   3.747 -0.6673 -1.1670  0.5618
 2229SOL    MW4 8916   0.244   1.262   3.831 -0.3151  0.0351  0.2496
 2230SOL     OW 8917   0.265   1.528   3.933  0.0812  0.2781  0.1155
 2230SOL    HW2 8918   0.265   1.542   4.027  0.5041  0.7134  0.0487
 2230SOL    HW3 8919   0.184   1.570   3.902  0.0443  0.3083  0.2539
 2230SOL    MW4 8920   0.254   1.535   3.941  0.1321  0.3395  0.1249
 2231SOL     OW 8921   0.039   1.661   3.830 -0.0982  0.0081  0.4712
 2231SOL    HW2 8922   0.037   1.752   3.861 -0.0949 -0.1018  0.7932
 2231SOL    HW3 8923   0.046   1.669   3.735  3.1769  0.3922  0.6592
 2231SOL    MW4 8924   0.040   1.674   3.822  0.3344  0.0443  0.5385
 2232SOL     OW 8925   0.013   1.925   3.922 -0.2959 -0.5146 -0.3680
 2232SOL    HW2 8926   0.028   1.932   4.016 -2.3730 -1.8739  0.1120
 2232SOL    HW3 8927  -0.060   1.984   3.905 -0.4736 -0.8998 -0.9719
 2232SOL    MW4 8928   0.005   1.933   3.932 -0.5934 -0.7448 -0.3843
 2233SOL     OW 8929   0.256   2.022   3.820  0.0646 -0.1307 -0.7200
 2233SOL    HW2 8930   0.272   2.115   3.832  0.7252 -0.4893  1.3537
 2233SOL    HW3 8931   0.162   2.012   3.832  0.1209  0.1389 -0.0681
 2233SOL    MW4 8932   0.246   2.033   3.823  0.1592 -0.1425 -0.3604
 2234SOL     OW 8933   0.273   2.284   3.895  0.0318  0.2911  0.0004
 2234SOL    HW2 8934   0.261   2.291   3.990  0.3930  1.7448 -0.0513
 2234SOL    HW3 8935   0.192   2.320   3.858  1.3210  2.9522 -0.2713
 2234SOL    MW4 8936   0.260   2.289   3.903  0.2495  0.8340 -0.0423
 2235SOL     OW 8937   0.033   2.405   3.777 -0.1168  0.3566 -0.1545
 2235SOL    HW2 8938  -0.055   2.372   3.792 -0.9740  2.0341 -1.2865
 2235SOL    HW3 8939   0.035   2.489   3.823  1.2516 -0.1528  0.7511
 2235SOL    MW4 8940   0.022   2.412   3.785 -0.0494  0.5107 -0.1844
 2236SOL     OW 8941   0.066   2.631   3.910 -0.0113 -0.4478 -0.0896
 2236SOL    HW2 8942   0.044   2.678   3.991 -0.8617 -1.1299  0.0797
 2236SOL    HW3 8943   0.147   2.672   3.880 -0.3744  0.6694  0.4287
 2236SOL    MW4 8944   0.074   2.643   3.917 -0.1714 -0.3904  0.0012
 2237SOL     OW 8945   0.256   2.815   3.840 -0.1701  0.2697  0.1205
 2237SOL    HW2 8946   0.341   2.781   3.868 -0.4107  0.4907  1.1400
 2237SOL    HW3 8947   0.263   2.823   3.745  0.8477  0.0213  0.1747
 2237SOL    MW4 8948   0.268   2.811   3.831 -0.0676  0.2661  0.2622
 2238SOL     OW 8949   0.264   3.075   3.902  0.3615 -0.5814 -0.1897
 2238SOL    HW2 8950   0.291   3.071   3.994  0.2649 -0.8048 -0.1718
 2238SOL    HW3 8951   0.263   2.983   3.873 -1.2243 -0.6397  0.0449
 2238SOL    MW4 8952   0.268   3.062   3.910  0.1395 -0.6186 -0.1564
 2239SOL     OW 8953   0.014   3.219   3.850 -0.2774 -0.0718 -0.0987
 2239SOL    HW2 8954   0.060   3.141   3.882  0.5815  0.8160  0.8825
 2239SOL    HW3 8955   0.034   3.223   3.757  1.4979  0.1949  0.2779
 2239SOL    MW4 8956   0.023   3.210   3.842  0.0701  0.0805  0.0804
 2240SOL     OW 8957   0.014   3.477   3.960  0.1461 -0.1002 -0.3260
 2240SOL    HW2 8958   0.095   3.516   3.927  0.8829 -0.8490  0.5756
 2240SOL    HW3 8959   0.009   3.392   3.918  0.5064 -0.5949  0.6199
 2240SOL    MW4 8960   0.024   3.471   3.950  0.2908 -0.2642 -0.0823
 2241SOL     OW 8961   0.236   3.607   3.859  0.0547 -0.4720  0.3714
 2241SOL    HW2 8962   0.320   3.563   3.876  0.3725  0.3493  0.9418
 2241SOL    HW3 8963   0.251   3.698   3.883 -0.5710 -0.0159 -0.9234
 2241SOL    MW4 8964   0.249   3.613   3.864  0.0141 -0.3035  0.2758
 2242SOL     OW 8965   0.252   3.865   3.921  0.3540  0.1367  0.2557
 2242SOL    HW2 8966   0.254   3.883   4.015  1.6020 -2.6551  0.8129
 2242SOL    HW3 8967   0.326   3.915   3.886 -0.6511  1.8917  0.5939
 2242SOL    MW4 8968   0.262   3.874   3.929  0.3861 -0.0001  0.3739
 2243SOL     OW 8969   0.027   4.007   3.824 -0.1794 -0.0863  0.5025
 2243SOL    HW2 8970  -0.043   3.955   3.864  0.9921 -1.0419  1.3423
 2243SOL    HW3 8971   0.108   3.971   3.860  0.7070  1.7425  0.3962
 2243SOL    MW4 8972   0.028   3.995   3.834  0.0921  0.0289  0.5993
 2244SOL     OW 8973   4.480   4.265   3.907  0.4384 -0.5414 -0.1822
 2244SOL    HW2 8974   4.561   4.306   3.877  0.4529 -0.0079  0.5541
 2244SOL    HW3 8975   4.490   4.173   3.886  1.3185 -0.5088  0.0685
 2244SOL    MW4 8976   4.492   4.258   3.900  0.5564 -0.4667 -0.0520
 2245SOL     OW 8977   0.198   4.401   3.792  0.0627  0.0264  0.4255
 2245SOL    HW2 8978   0.259   4.348   3.843 -0.6713 -0.7453  0.5105
 2245SOL    HW3 8979   0.214   4.491   3.822  1.2087 -0.1600  0.3783
 2245SOL    MW4 8980   0.208   4.406   3.803  0.1170 -0.1000  0.4305
 2246SOL     OW 8981   0.689   4.659   3.873  0.4943 -0.1315 -0.3774
 2246SOL    HW2 8982   0.672   4.569   3.843 -1.8663 -0.4442  1.6987
 2246SOL    HW3 8983   0.631   4.713   3.819 -0.7217 -0.2645  0.7654
 2246SOL    MW4 8984   0.679   4.654   3.862  0.0224 -0.1903  0.0473
 2247SOL     OW 8985   0.475   0.135   3.750 -0.0673  0.0212 -0.3717
 2247SOL    HW2 8986   0.473   0.210   3.809  1.0216  1.0784 -1.6378
 2247SOL    HW3 8987   0.428   0.066   3.797  0.3629  0.9757  1.5187
 2247SOL    MW4 8988   0.469   0.136   3.764  0.1331  0.2866 -0.2893
 2248SOL     OW 8989   0.460   0.346   3.915  0.3356  0.0438  0.0744
 2248SOL    HW2 8990   0.534   0.391   3.875  0.2088  0.1113 -0.0849
 2248SOL    HW3 8991   0.383   0.394   3.885  0.1150 -0.9979 -1.0521
 2248SOL    MW4 8992   0.460   0.358   3.906  0.2897 -0.0847 -0.0952
 2249SOL     OW 8993   0.651   0.465   3.778  0.3848 -0.5320  0.1642
 2249SOL    HW2 8994   0.735   0.424   3.799  1.1013  0.1635 -1.2846
 2249SOL    HW3 8995   0.657   0.552   3.816  0.2030 -0.5787  0.3003
 2249SOL    MW4 8996   0.663   0.471   3.786  0.4553 -0.4464 -0.0090
 2250SOL     OW 8997   0.681   0.727   3.864 -0.4750  0.3104 -0.0962
 2250SOL    HW2 8998   0.759   0.772   3.834  0.0280 -0.8219 -0.4930
 2250SOL    HW3 8999   0.608   0.779   3.829  0.0915  0.9379 -0.3509
 2250SOL    MW4 9000   0.682   0.740   3.856 -0.3339  0.2438 -0.1821
 2251SOL     OW 9001   0.467   0.877   3.790 -0.0127  0.1416 -0.0108
 2251SOL    HW2 9002   0.486   0.947   3.854 -0.7217 -0.5226  0.9424
 2251SOL    HW3 9003   0.394   0.828   3.829  1.8312 -2.4243  0.3739
 2251SOL    MW4 9004   0.460   0.880   3.804  0.1370 -0.2846  0.1657
 2252SOL     OW 9005   0.455   1.117   3.953  0.1804 -0.0340  0.2094
 2252SOL    HW2 9006   0.518   1.176   3.912 -1.0192  0.6814 -0.6437
 2252SOL    HW3 9007   0.370   1.149   3.923 -0.5846 -1.0176  1.2968
 2252SOL    MW4 9008   0.452   1.129   3.944 -0.0788 -0.0694  0.2403
 2253SOL     OW 9009   0.676   1.252   3.837  0.3575 -0.4197 -0.2321
 2253SOL    HW2 9010   0.765   1.224   3.860  0.8351  0.5507 -0.8492
 2253SOL    HW3 9011   0.679   1.265   3.743 -1.0145 -2.3436 -0.5688
 2253SOL    MW4 9012   0.688   1.250   3.828  0.2395 -0.5455 -0.3580
 2254SOL     OW 9013   0.703   1.514   3.938 -0.4468 -0.2269 -0.1841
 2254SOL    HW2 9014   0.784   1.553   3.905 -1.0493  0.6504 -0.6526
 2254SOL    HW3 9015   0.703   1.425   3.903 -0.7129  0.4559 -1.9984
 2254SOL    MW4 9016   0.713   1.508   3.929 -0.5614 -0.0211 -0.4853
 2255SOL     OW 9017   0.485   1.630   3.800 -0.2827  0.3033  0.4637
 2255SOL    HW2 9018   0.567   1.590   3.829 -0.1272  1.6759  2.0294
 2255SOL    HW3 9019   0.419   1.597   3.861 -0.5482  0.6431  0.3657
 2255SOL    MW4 9020   0.487   1.620   3.812 -0.2972  0.5292  0.6574
 2256SOL     OW 9021   0.446   1.872   3.961  0.2947 -0.3800 -0.2705
 2256SOL    HW2 9022   0.457   1.790   3.912 -0.8105 -0.8609  0.2854
 2256SOL    HW3 9023   0.378   1.919   3.913  1.0184  0.2720 -0.6619
 2256SOL    MW4 9024   0.439   1.867   3.948  0.2444 -0.3574 -0.2488
 2257SOL     OW 9025   0.646   2.061   3.838 -0.1243 -0.0405  0.1511
 2257SOL    HW2 9026   0.640   2.149   3.875 -1.2984 -0.0285 -0.0506
 2257SOL    HW3 9027   0.563   2.019   3.861  0.8458 -1.4592  1.1642
 2257SOL    MW4 9028   0.634   2.067   3.846 -0.1512 -0.2261  0.2582
 2258SOL     OW 9029   0.646   2.319   3.918 -0.0123  0.1554 -0.4197
 2258SOL    HW2 9030   0.730   2.349   3.884  0.0222  0.5158 -0.0245
 2258SOL    HW3 9031   0.581   2.373   3.872  0.0682  1.1382  0.5711
 2258SOL    MW4 9032   0.649   2.330   3.908  0.0028  0.3326 -0.2368
 2259SOL     OW 9033   0.454   2.458   3.769  0.3339  0.1754 -0.1611
 2259SOL    HW2 9034   0.381   2.406   3.803  0.7967 -1.3901 -1.5221
 2259SOL    HW3 9035   0.440   2.459   3.674  2.3831 -0.6137 -0.4979
 2259SOL    MW4 9036   0.442   2.451   3.761  0.6653 -0.1353 -0.3851
 2260SOL     OW 9037   0.485   2.665   3.952 -0.0430 -0.1628  0.4314
 2260SOL    HW2 9038   0.555   2.723   3.922 -1.0159  1.6193  1.4993
 2260SOL    HW3 9039   0.486   2.592   3.890  2.3649  0.1160  0.0862
 2260SOL    MW4 9040   0.495   2.663   3.940  0.1463  0.1091  0.5267
 2261SOL     OW 9041   0.692   2.825   3.854  0.4143  0.0208  0.4791
 2261SOL    HW2 9042   0.775   2.788   3.883  1.2263  0.2543 -1.4979
 2261SOL    HW3 9043   0.689   2.808   3.760 -1.6839  0.1986  0.4888
 2261SOL    MW4 9044   0.702   2.818   3.846  0.2446  0.0751  0.2196
 2262SOL     OW 9045   0.666   3.104   3.894  1.0256  0.1489 -0.3116
 2262SOL    HW2 9046   0.664   3.102   3.989  0.4251 -0.3018 -0.3254
 2262SOL    HW3 9047   0.675   3.012   3.868 -2.6125 -0.1716 -0.7290
 2262SOL    MW4 9048   0.667   3.091   3.903  0.4664  0.0472 -0.3685
 2263SOL     OW 9049   0.441   3.250   3.806 -0.1769  0.2530  0.1479
 2263SOL    HW2 9050   0.522   3.203   3.822 -0.6120 -0.5567  0.0367
 2263SOL    HW3 9051   0.374   3.196   3.849 -0.7758  0.3873 -0.6118
 2263SOL    MW4 9052   0.442   3.237   3.814 -0.3133  0.1639  0.0330
 2264SOL     OW 9053   0.454   3.473   3.959  0.0995 -0.0854 -0.0992
 2264SOL    HW2 9054   0.537   3.517   3.938  1.0675 -0.7250  2.2386
 2264SOL    HW3 9055   0.459   3.389   3.913  0.4933  0.1337 -0.4580
 2264SOL    MW4 9056   0.466   3.468   3.950  0.2792 -0.1409  0.1619
 2265SOL     OW 9057   0.677   3.631   3.848 -0.3201 -0.8379  0.0577
 2265SOL    HW2 9058   0.669   3.726   3.857 -0.2109 -0.7623 -0.6158
 2265SOL    HW3 9059   0.658   3.614   3.756  0.6852 -1.3548 -0.0601
 2265SOL    MW4 9060   0.674   3.642   3.837 -0.1731 -0.8961 -0.0467
 2266SOL     OW 9061   0.691   3.902   3.900  0.2324 -0.2151 -0.0331
 2266SOL    HW2 9062   0.710   3.889   3.993 -1.6466  2.3955  0.7755
 2266SOL    HW3 9063   0.768   3.947   3.866  0.5715 -0.4251  0.4514
 2266SOL    MW4 9064   0.703   3.906   3.908  0.0292  0.1016  0.1375
 2267SOL     OW 9065   0.453   4.021   3.812  0.4116 -0.7416  0.2054
 2267SOL    HW2 9066   0.533   3.976   3.839  0.5147 -0.8038 -0.2064
 2267SOL    HW3 9067   0.456   4.021   3.717  0.3806  0.0880  0.2033
 2267SOL    MW4 9068   0.464   4.015   3.803  0.4211 -0.6404  0.1508
 2268SOL     OW 9069   0.420   4.275   3.903  0.0124 -0.0063 -0.7637
 2268SOL    HW2 9070   0.476   4.329   3.848  1.5180 -0.9488 -0.2015
 2268SOL    HW3 9071   0.439   4.185   3.876  0.2926 -0.4516  0.8273
 2268SOL    MW4 9072   0.430   4.270   3.893  0.2480 -0.1894 -0.4796
 2269SOL     OW 9073   0.625   4.410   3.784 -0.1650 -0.0171  0.0261
 2269SOL    HW2 9074   0.701   4.357   3.808  1.1349  1.9784  0.4391
 2269SOL    HW3 9075   0.627   4.412   3.688  0.8644  0.8014  0.0591
 2269SOL    MW4 9076   0.635   4.404   3.774  0.1423  0.3542  0.0849
 2270SOL     OW 9077   1.158   4.611   3.906 -0.7248 -0.0941 -0.1358
 2270SOL    HW2 9078   1.228   4.667   3.872 -0.2596  0.2326  1.3500
 2270SOL    HW3 9079   1.158   4.535   3.847  2.2528 -1.0663  1.0074
 2270SOL    MW4 9080   1.168   4.608   3.893 -0.2706 -0.1793  0.2111
 2271SOL     OW 9081   0.941   0.081   3.771  0.2861  0.3723  0.1619
 2271SOL    HW2 9082   1.014   0.030   3.807 -1.3354 -1.4289  1.0041
 2271SOL    HW3 9083   0.863   0.043   3.811 -1.1974  1.6895 -1.3804
 2271SOL    MW4 9084   0.941   0.069   3.781 -0.1236  0.3084  0.0696
 2272SOL     OW 9085   0.912   0.349   3.819 -0.2346  0.0550 -0.1913
 2272SOL    HW2 9086   0.928   0.348   3.913 -1.5085 -0.2905  0.0402
 2272SOL    HW3 9087   0.901   0.257   3.795 -1.4976  0.2294 -0.3637
 2272SOL    MW4 9088   0.912   0.337   3.829 -0.5693  0.0324 -0.1835
 2273SOL     OW 9089   1.122   0.515   3.810 -0.0437 -0.2071 -0.3741
 2273SOL    HW2 9090   1.205   0.475   3.836 -0.7218 -1.0541  0.4681
 2273SOL    HW3 9091   1.057   0.445   3.817 -0.6388  0.1334 -2.1599
 2273SOL    MW4 9092   1.124   0.501   3.814 -0.2117 -0.2739 -0.4986
 2274SOL     OW 9093   1.122   0.773   3.924 -0.2295 -0.0530  0.8954
 2274SOL    HW2 9094   1.136   0.772   4.018 -0.5728  0.0385  0.9477
 2274SOL    HW3 9095   1.125   0.681   3.898  0.6829 -0.0259  0.8718
 2274SOL    MW4 9096   1.124   0.761   3.933 -0.1544 -0.0373  0.8992
 2275SOL     OW 9097   0.902   0.902   3.797  0.1858  0.6236  0.2208
 2275SOL    HW2 9098   0.978   0.857   3.834 -0.6494 -1.4679 -0.5091
 2275SOL    HW3 9099   0.922   0.911   3.704 -0.7033 -0.5211 -0.0992
 2275SOL    MW4 9100   0.915   0.897   3.790 -0.0417  0.1966  0.0823
 2276SOL     OW 9101   0.930   1.145   3.926 -0.0410  0.0303 -0.2692
 2276SOL    HW2 9102   0.934   1.119   4.018  0.6249 -0.6990 -0.4983
 2276SOL    HW3 9103   0.924   1.062   3.878  0.1694  0.3844 -0.9080
 2276SOL    MW4 9104   0.929   1.131   3.932  0.0746 -0.0192 -0.3837
 2277SOL     OW 9105   1.128   1.313   3.818 -0.2170 -0.4012  0.4755
 2277SOL    HW2 9106   1.113   1.400   3.855 -1.3986  0.1439 -1.2513
 2277SOL    HW3 9107   1.063   1.256   3.860 -0.7018 -0.0479  0.2065
 2277SOL    MW4 9108   1.118   1.317   3.828 -0.4368 -0.2827  0.2121
 2278SOL     OW 9109   1.121   1.554   3.938  0.0756 -0.5683  0.5348
 2278SOL    HW2 9110   1.150   1.558   4.029  0.3187  1.9179  0.3796
 2278SOL    HW3 9111   1.193   1.590   3.887 -0.3033 -1.3628 -0.6114
 2278SOL    MW4 9112   1.134   1.559   3.943  0.0577 -0.3451  0.3631
 2279SOL     OW 9113   0.895   1.682   3.857 -0.1611  0.5708  0.2766
 2279SOL    HW2 9114   0.978   1.649   3.891 -0.1130  0.3967 -0.0046
 2279SOL    HW3 9115   0.903   1.673   3.762 -0.8337 -0.2678  0.2864
 2279SOL    MW4 9116   0.907   1.676   3.849 -0.2435  0.4372  0.2408
 2280SOL     OW 9117   0.895   1.952   3.890 -0.3978 -0.2578  0.6958
 2280SOL    HW2 9118   0.876   1.858   3.881 -0.5398 -0.2610  1.0235
 2280SOL    HW3 9119   0.813   1.995   3.871 -0.4578 -0.2230  1.0208
 2280SOL    MW4 9120   0.882   1.945   3.887 -0.4244 -0.2537  0.7819
 2281SOL     OW 9121   1.125   2.070   3.788 -0.2443  0.1818  0.2950
 2281SOL    HW2 9122   1.053   2.015   3.818 -2.0644  2.0178 -0.6034
 2281SOL    HW3 9123   1.115   2.074   3.693  2.3833 -1.3355 -0.1021
 2281SOL    MW4 9124   1.115   2.063   3.780 -0.1378  0.2239  0.1241
 2282SOL     OW 9125   1.129   2.321   3.885  0.2455 -0.0209 -0.6581
 2282SOL    HW2 9126   1.096   2.303   3.972  1.1377 -0.4617 -0.3986
 2282SOL    HW3 9127   1.127   2.237   3.840  3.2466 -0.6096  0.1499
 2282SOL    MW4 9128   1.125   2.308   3.890  0.7591 -0.1567 -0.5173
 2283SOL     OW 9129   0.886   2.427   3.819  0.0146  0.4818  0.2246
 2283SOL    HW2 9130   0.892   2.518   3.848 -0.5993  0.7148 -0.3613
 2283SOL    HW3 9131   0.964   2.385   3.854  1.5729  1.8063 -1.6128
 2283SOL    MW4 9132   0.897   2.433   3.828  0.1392  0.6873 -0.0951
 2284SOL     OW 9133   0.907   2.664   3.948  0.3224  0.3481 -0.6558
 2284SOL    HW2 9134   0.897   2.688   4.040 -0.1705 -1.7684 -0.1331
 2284SOL    HW3 9135   0.983   2.714   3.919  0.5110  1.0060  0.9085
 2284SOL    MW4 9136   0.916   2.674   3.957  0.2822  0.1556 -0.3805
 2285SOL     OW 9137   1.107   2.823   3.831  0.2376 -0.3857 -0.0806
 2285SOL    HW2 9138   1.191   2.786   3.858  0.4999  0.7517  0.7177
 2285SOL    HW3 9139   1.109   2.913   3.864 -1.3283 -0.3783  0.0263
 2285SOL    MW4 9140   1.118   2.830   3.839  0.0656 -0.2347  0.0389
 2286SOL     OW 9141   1.124   3.087   3.916 -0.1628 -0.1961 -0.1432
 2286SOL    HW2 9142   1.193   3.129   3.865 -0.7030 -0.8582 -1.4409
 2286SOL    HW3 9143   1.043   3.130   3.887 -0.3997 -0.0411  0.7263
 2286SOL    MW4 9144   1.122   3.098   3.905 -0.2653 -0.2630 -0.1997
 2287SOL     OW 9145   0.897   3.227   3.799 -0.1000 -0.0433  0.6716
 2287SOL    HW2 9146   0.822   3.176   3.828 -0.2229 -0.8241 -0.9720
 2287SOL    HW3 9147   0.886   3.236   3.705  1.3244  0.7376  0.5499
 2287SOL    MW4 9148   0.886   3.222   3.791  0.0717 -0.0433  0.4387
 2288SOL     OW 9149   0.907   3.491   3.917  0.4896  0.2974  0.2959
 2288SOL    HW2 9150   0.898   3.402   3.882  0.5459 -0.4698  2.1729
 2288SOL    HW3 9151   0.826   3.535   3.891  0.3934 -0.3459 -0.5126
 2288SOL    MW4 9152   0.895   3.485   3.909  0.4844  0.1113  0.4368
 2289SOL     OW 9153   1.113   3.606   3.774  0.3813  0.0121  0.0691
 2289SOL    HW2 9154   1.114   3.698   3.800 -1.5858  0.4747 -1.3466
 2289SOL    HW3 9155   1.046   3.565   3.829  0.1383 -0.2061 -0.3776
 2289SOL    MW4 9156   1.104   3.613   3.784  0.0897  0.0443 -0.1766
 2290SOL     OW 9157   1.109   3.863   3.848 -0.1565 -0.3113 -0.2715
 2290SOL    HW2 9158   1.100   3.858   3.943 -1.1954 -0.4985 -0.3815
 2290SOL    HW3 9159   1.195   3.903   3.835 -0.4308  0.6357  0.7490
 2290SOL    MW4 9160   1.119   3.867   3.859 -0.3297 -0.2111 -0.1514
 2291SOL     OW 9161   0.906   4.029   3.767 -0.0258  0.2293  0.1209
 2291SOL    HW2 9162   0.980   3.971   3.784 -1.2326 -1.4961 -0.3709
 2291SOL    HW3 9163   0.903   4.037   3.671 -0.8385 -0.2475  0.0938
 2291SOL    MW4 9164   0.915   4.022   3.756 -0.2923 -0.0612  0.0525
 2292SOL     OW 9165   0.868   4.290   3.853 -0.1788 -0.0050  0.0955
 2292SOL    HW2 9166   0.880   4.280   3.948 -0.5688 -0.6378  0.0801
 2292SOL    HW3 9167   0.877   4.201   3.819  0.4753  0.2986 -0.5215
 2292SOL    MW4 9168   0.871   4.277   3.861 -0.1440 -0.0484  0.0120
 2293SOL     OW 9169   1.124   4.359   3.774  0.0583  0.0318 -0.2669
 2293SOL    HW2 9170   1.034   4.329   3.784 -0.0620  0.1192 -1.0588
 2293SOL    HW3 9171   1.138   4.363   3.680  0.4050  1.4453 -0.1713
 2293SOL    MW4 9172   1.114   4.356   3.763  0.0882  0.2298 -0.3587
 2294SOL     OW 9173   1.564   0.010   3.855 -0.0739  0.1672  0.5316
 2294SOL    HW2 9174   1.552   0.015   3.950 -2.7612  0.7655  0.2201
 2294SOL    HW3 9175   1.578  -0.083   3.837  1.3868  0.1591  1.5789
 2294SOL    MW4 9176   1.564  -0.001   3.865 -0.2357  0.2450  0.6287
 2295SOL     OW 9177   1.332   0.118   3.778  0.2497  0.2569 -0.1814
 2295SOL    HW2 9178   1.349   0.204   3.816  0.2231 -0.0758  0.6007
 2295SOL    HW3 9179   1.411   0.067   3.796 -0.4493 -0.4391  1.0032
 2295SOL    MW4 9180   1.344   0.122   3.785  0.1540  0.1212  0.0781
 2296SOL     OW 9181   1.342   0.365   3.903 -0.5007  0.5029  0.2733
 2296SOL    HW2 9182   1.356   0.348   3.996  0.1820  0.4234  0.1565
 2296SOL    HW3 9183   1.409   0.430   3.880  0.8792 -1.2355 -0.7144
 2296SOL    MW4 9184   1.353   0.372   3.912 -0.2286  0.2631  0.1276
 2297SOL     OW 9185   1.539   0.559   3.808  0.5861  0.6408 -0.0023
 2297SOL    HW2 9186   1.609   0.500   3.836  0.7013  1.0515  0.6002
 2297SOL    HW3 9187   1.562   0.643   3.849  0.3482  1.0594 -0.7298
 2297SOL    MW4 9188   1.552   0.563   3.817  0.5699  0.7502 -0.0188
 2298SOL     OW 9189   1.572   0.819   3.914  0.2836  0.0360 -0.2669
 2298SOL    HW2 9190   1.653   0.864   3.891  0.2817  0.7861  1.1283
 2298SOL    HW3 9191   1.504   0.863   3.862  0.7206 -0.3764 -1.1851
 2298SOL    MW4 9192   1.573   0.831   3.904  0.3410  0.0806 -0.2039
 2299SOL     OW 9193   1.331   0.920   3.793 -0.0833 -0.2567 -0.2419
 2299SOL    HW2 9194   1.342   1.004   3.837  0.7742 -0.0968 -0.7605
 2299SOL    HW3 9195   1.262   0.876   3.844 -1.7384  1.4172 -0.9724
 2299SOL    MW4 9196   1.323   0.925   3.806 -0.1885 -0.0148 -0.4067
 2300SOL     OW 9197   1.355   1.181   3.894 -0.4201 -0.2453 -0.0713
 2300SOL    HW2 9198   1.433   1.218   3.854 -0.3713  0.1929  0.4290
 2300SOL    HW3 9199   1.284   1.238   3.866 -0.2612  0.5855  1.1847
 2300SOL    MW4 9200   1.356   1.193   3.885 -0.3927 -0.0778  0.1604
 2301SOL     OW 9201   1.595   1.293   3.797  0.6075 -0.2570 -0.0638
 2301SOL    HW2 9202   1.673   1.254   3.837  0.4290 -0.0262  0.5227
 2301SOL    HW3 9203   1.587   1.378   3.840 -0.3358 -0.5510  0.3536
 2301SOL    MW4 9204   1.604   1.299   3.808  0.4595 -0.2653  0.0686
 2302SOL     OW 9205   1.540   1.526   3.936 -0.3418 -0.0287 -0.1174
 2302SOL    HW2 9206   1.511   1.525   4.027  0.6133 -1.3040  0.1954
 2302SOL    HW3 9207   1.615   1.584   3.935  0.8961 -1.5680  0.3440
 2302SOL    MW4 9208   1.546   1.533   3.948 -0.0525 -0.4001 -0.0152
 2303SOL     OW 9209   1.332   1.650   3.806 -0.2800 -0.5683  0.4004
 2303SOL    HW2 9210   1.326   1.740   3.840 -0.0213 -0.5129  0.2943
 2303SOL    HW3 9211   1.414   1.616   3.841  0.1829 -0.3820 -0.4974
 2303SOL    MW4 9212   1.342   1.657   3.815 -0.1848 -0.5364  0.2680
 2304SOL     OW 9213   1.303   1.914   3.908  0.1235  0.7797  0.5052
 2304SOL    HW2 9214   1.302   1.926   4.003 -1.6396  1.3533  0.4382
 2304SOL    HW3 9215   1.234   1.972   3.876 -2.0449 -2.3350 -0.7402
 2304SOL    MW4 9216   1.294   1.923   3.916 -0.3952  0.4445  0.3320
 2305SOL     OW 9217   1.525   2.092   3.811  0.0816  0.3116  0.0932
 2305SOL    HW2 9218   1.454   2.029   3.830 -1.1156  1.4305 -0.5852
 2305SOL    HW3 9219   1.538   2.086   3.717  1.2561 -0.2417  0.2806
 2305SOL    MW4 9220   1.517   2.083   3.801  0.0786  0.3862  0.0284
 2306SOL     OW 9221   1.585   2.319   3.967  0.6845  0.2020  0.2662
 2306SOL    HW2 9222   1.662   2.357   3.923 -0.4298  0.8167 -1.1795
 2306SOL    HW3 9223   1.572   2.235   3.923  0.2375  0.3132  0.1880
 2306SOL    MW4 9224   1.594   2.313   3.955  0.4785  0.2978  0.0651
 2307SOL     OW 9225   1.379   2.461   3.853 -0.1200  0.5566  0.0448
 2307SOL    HW2 9226   1.440   2.399   3.894 -1.2576 -0.2734  0.5074
 2307SOL    HW3 9227   1.293   2.421   3.865 -0.8173  1.9824 -0.1368
 2307SOL    MW4 9228   1.376   2.447   3.860 -0.3621  0.6352  0.0818
 2308SOL     OW 9229   1.343   2.714   3.937  0.0767  0.3644  0.0851
 2308SOL    HW2 9230   1.340   2.713   4.033  2.8256 -0.5500  0.2138
 2308SOL    HW3 9231   1.357   2.623   3.913  0.6706  0.7611 -1.1029
 2308SOL    MW4 9232   1.344   2.702   3.947  0.5177  0.2961 -0.0546
 2309SOL     OW 9233   1.569   2.823   3.815  0.4984 -0.2545  0.0791
 2309SOL    HW2 9234   1.489   2.778   3.842  0.9157 -0.7491  0.5037
 2309SOL    HW3 9235   1.559   2.834   3.720 -0.7264  1.0112  0.3263
 2309SOL    MW4 9236   1.557   2.819   3.806  0.3919 -0.1528  0.1678
 2310SOL     OW 9237   1.569   3.086   3.902  0.1711  0.0376 -0.3136
 2310SOL    HW2 9238   1.567   3.076   3.998 -1.4048 -0.4086 -0.3958
 2310SOL    HW3 9239   1.577   2.997   3.869  1.0432  0.2158 -0.6111
 2310SOL    MW4 9240   1.570   3.073   3.911  0.0782  0.0022 -0.3637
 2311SOL     OW 9241   1.350   3.196   3.784  0.2328  0.1566 -0.6972
 2311SOL    HW2 9242   1.348   3.290   3.800 -0.0339  0.1076 -0.4584
 2311SOL    HW3 9243   1.421   3.164   3.839 -0.4366  0.0440  0.1005
 2311SOL    MW4 9244   1.360   3.204   3.793  0.1093  0.1353 -0.5604
 2312SOL     OW 9245   1.337   3.458   3.855  0.1935  0.1030 -0.2422
 2312SOL    HW2 9246   1.419   3.501   3.831  0.8446 -0.4734  0.9115
 2312SOL    HW3 9247   1.269   3.516   3.821  1.0660  1.2712 -0.0358
 2312SOL    MW4 9248   1.339   3.471   3.848  0.3945  0.1811 -0.0628
 2313SOL     OW 9249   1.592   3.589   3.783  0.0703 -0.4929 -0.0436
 2313SOL    HW2 9250   1.664   3.537   3.820 -0.5376 -1.1375  0.2381
 2313SOL    HW3 9251   1.607   3.677   3.817  1.7574 -0.2132 -1.4517
 2313SOL    MW4 9252   1.604   3.594   3.793  0.2127 -0.5410 -0.1922
 2314SOL     OW 9253   1.606   3.855   3.858  0.7318  0.0038  0.0388
 2314SOL    HW2 9254   1.589   3.851   3.952  2.4563  2.5394  0.5191
 2314SOL    HW3 9255   1.529   3.898   3.821  0.1612 -0.7769  0.2891
 2314SOL    MW4 9256   1.594   3.860   3.865  0.8841  0.2354  0.1352
 2315SOL     OW 9257   1.376   3.963   3.808  0.2025  0.4937  0.0190
 2315SOL    HW2 9258   1.383   4.055   3.833 -0.4696  0.6379 -0.3035
 2315SOL    HW3 9259   1.358   3.965   3.714 -0.3692  0.0529  0.1153
 2315SOL    MW4 9260   1.374   3.975   3.799  0.0384  0.4546 -0.0108
 2316SOL     OW 9261   1.357   4.248   3.869  0.1351  0.3154 -0.4619
 2316SOL    HW2 9262   1.418   4.315   3.838 -0.3631  0.4394 -1.1852
 2316SOL    HW3 9263   1.271   4.278   3.839 -0.1372 -0.4688 -0.4753
 2316SOL    MW4 9264   1.353   4.261   3.861  0.0334  0.2283 -0.5591
 2317SOL     OW 9265   1.581   4.414   3.784 -0.0890  0.2557 -0.2653
 2317SOL    HW2 9266   1.645   4.353   3.820 -1.0473 -0.2062  0.6873
 2317SOL    HW3 9267   1.596   4.412   3.689  0.8439 -0.3645 -0.1093
 2317SOL    MW4 9268   1.592   4.406   3.776 -0.0924  0.1129 -0.1190
 2318SOL     OW 9269   1.991   4.648   3.917 -0.0429  0.5698 -0.3051
 2318SOL    HW2 9270   2.060   4.703   3.880 -0.3886  0.5431 -1.0004
 2318SOL    HW3 9271   1.989   4.571   3.860 -0.7461  0.6384 -0.3742
 2318SOL    MW4 9272   2.000   4.645   3.905 -0.1813  0.5753 -0.4059
 2319SOL     OW 9273   1.796   0.114   3.779  0.0333 -0.3354 -0.3288
 2319SOL    HW2 9274   1.866   0.065   3.822 -0.0297 -0.2098 -0.0785
 2319SOL    HW3 9275   1.715   0.074   3.810 -0.0129 -0.2656 -0.3567
 2319SOL    MW4 9276   1.795   0.103   3.789  0.0189 -0.3096 -0.2994
 2320SOL     OW 9277   1.771   0.383   3.862 -0.3362 -0.2598 -0.1377
 2320SOL    HW2 9278   1.781   0.359   3.955 -0.3949  0.7591  0.1356
 2320SOL    HW3 9279   1.760   0.299   3.817 -1.6794 -0.7007  0.9519
 2320SOL    MW4 9280   1.771   0.368   3.869 -0.5212 -0.1836  0.0421
 2321SOL     OW 9281   2.038   0.482   3.804 -0.5443 -0.0614 -0.0625
 2321SOL    HW2 9282   1.953   0.448   3.829 -0.9404  0.5425 -0.5749
 2321SOL    HW3 9283   2.029   0.504   3.711 -0.0896  0.7902  0.0885
 2321SOL    MW4 9284   2.026   0.480   3.795 -0.5366  0.1306 -0.1102
 2322SOL     OW 9285   2.001   0.735   3.917  0.3124  0.1502  0.2222
 2322SOL    HW2 9286   2.007   0.729   4.012 -2.2314 -0.6302  0.3763
 2322SOL    HW3 9287   2.017   0.645   3.886 -1.6599 -0.1850  0.1223
 2322SOL    MW4 9288   2.004   0.722   3.925 -0.2834  0.0030  0.2293
 2323SOL     OW 9289   1.819   0.938   3.841  0.2211 -0.1483 -0.3452
 2323SOL    HW2 9290   1.883   0.874   3.874 -0.9861 -1.3786 -0.3759
 2323SOL    HW3 9291   1.824   0.930   3.746 -0.0874 -0.3617 -0.3448
 2323SOL    MW4 9292   1.828   0.928   3.833  0.0211 -0.3388 -0.3492
 2324SOL     OW 9293   1.812   1.186   3.935 -0.1655  0.1492  0.3824
 2324SOL    HW2 9294   1.822   1.176   4.030  1.3990 -0.4722  0.1680
 2324SOL    HW3 9295   1.816   1.097   3.902  0.3859  0.4453 -0.3561
 2324SOL    MW4 9296   1.814   1.173   3.943  0.1137  0.1063  0.2567
 2325SOL     OW 9297   2.022   1.328   3.830  0.3416 -0.1043 -0.0966
 2325SOL    HW2 9298   2.102   1.279   3.850  0.4919  0.4300  0.6191
 2325SOL    HW3 9299   1.953   1.283   3.879  0.2505 -0.4148 -0.5138
 2325SOL    MW4 9300   2.023   1.316   3.839  0.3494 -0.0748 -0.0572
 2326SOL     OW 9301   2.018   1.589   3.945  0.0248 -0.2180 -0.3476
 2326SOL    HW2 9302   1.939   1.630   3.910 -0.9294 -0.2806  1.6800
 2326SOL    HW3 9303   2.017   1.500   3.908 -0.7537 -0.1693 -0.4516
 2326SOL    MW4 9304   2.008   1.583   3.935 -0.2038 -0.2199 -0.0938
 2327SOL     OW 9305   1.772   1.678   3.860  0.0340  0.3983 -0.1836
 2327SOL    HW2 9306   1.769   1.763   3.904  1.3784  0.2315  0.2580
 2327SOL    HW3 9307   1.761   1.699   3.767 -0.1860  1.0005 -0.0206
 2327SOL    MW4 9308   1.770   1.692   3.853  0.1823  0.4557 -0.1038
 2328SOL     OW 9309   1.763   1.961   3.922  0.1714  0.0151  0.8190
 2328SOL    HW2 9310   1.763   1.948   4.017 -0.7481 -0.2956  0.7816
 2328SOL    HW3 9311   1.695   2.027   3.907 -1.4985 -1.8215  0.1408
 2328SOL    MW4 9312   1.754   1.968   3.933 -0.1703 -0.2682  0.7246
 2329SOL     OW 9313   2.019   2.032   3.814  0.2972  0.1590 -0.0850
 2329SOL    HW2 9314   1.933   2.010   3.850  1.5533 -0.9787  2.3964
 2329SOL    HW3 9315   2.003   2.051   3.722 -2.6274  0.1265  0.3732
 2329SOL    MW4 9316   2.006   2.032   3.807  0.0771  0.0046  0.3028
 2330SOL     OW 9317   2.012   2.297   3.933  0.1120 -0.1859  0.2517
 2330SOL    HW2 9318   1.942   2.343   3.888  1.9340  0.9510 -1.4756
 2330SOL    HW3 9319   2.017   2.212   3.890  0.3225  0.0244 -0.1337
 2330SOL    MW4 9320   2.003   2.292   3.922  0.3802 -0.0082 -0.0270
 2331SOL     OW 9321   1.789   2.430   3.832 -0.2056  0.3177  0.0016
 2331SOL    HW2 9322   1.785   2.525   3.840 -0.9691  0.4638 -1.9544
 2331SOL    HW3 9323   1.799   2.414   3.739  1.4585 -1.4902  0.4608
 2331SOL    MW4 9324   1.790   2.441   3.821 -0.0868  0.0984 -0.1958
 2332SOL     OW 9325   1.812   2.709   3.912 -0.3821 -0.1865  0.3894
 2332SOL    HW2 9326   1.800   2.719   4.006 -2.6028  0.8137  0.0440
 2332SOL    HW3 9327   1.733   2.748   3.874  0.0921 -1.3262 -1.8487
 2332SOL    MW4 9328   1.800   2.715   3.919 -0.6125 -0.2049  0.0485
 2333SOL     OW 9329   2.019   2.824   3.805  0.3575 -0.4179  0.3091
 2333SOL    HW2 9330   2.100   2.773   3.813  0.4333 -0.1710  1.1088
 2333SOL    HW3 9331   1.953   2.771   3.851  0.3551  0.0212  0.8091
 2333SOL    MW4 9332   2.021   2.810   3.812  0.3672 -0.3274  0.4806
 2334SOL     OW 9333   2.029   3.079   3.897  0.1378  0.0913  0.0325
 2334SOL    HW2 9334   2.110   3.122   3.871  0.8274 -0.4455  1.2353
 2334SOL    HW3 9335   2.038   2.989   3.864 -0.7013  0.4868 -1.2870
 2334SOL    MW4 9336   2.041   3.073   3.889  0.1181  0.0726  0.0171
 2335SOL     OW 9337   1.796   3.219   3.825 -0.1333  0.1386 -0.3178
 2335SOL    HW2 9338   1.874   3.170   3.852 -0.7754 -2.0516 -2.2329
 2335SOL    HW3 9339   1.723   3.173   3.867 -0.6735 -0.0672 -1.4623
 2335SOL    MW4 9340   1.797   3.207   3.834 -0.2893 -0.1775 -0.7215
 2336SOL     OW 9341   1.809   3.457   3.952 -0.4669 -0.0716 -0.4572
 2336SOL    HW2 9342   1.877   3.504   3.903  0.8569 -1.2947  0.1470
 2336SOL    HW3 9343   1.813   3.368   3.917 -0.4895 -0.6020  0.8672
 2336SOL    MW4 9344   1.819   3.451   3.940 -0.2952 -0.3029 -0.2028
 2337SOL     OW 9345   1.996   3.635   3.852  0.2936  0.0605 -0.1082
 2337SOL    HW2 9346   2.071   3.580   3.875  0.1133 -0.3241 -0.4257
 2337SOL    HW3 9347   1.994   3.633   3.756  0.3899  0.7589 -0.1255
 2337SOL    MW4 9348   2.006   3.628   3.842  0.2825  0.1019 -0.1524
 2338SOL     OW 9349   2.029   3.886   3.973 -0.2249  0.0401  0.0697
 2338SOL    HW2 9350   2.096   3.931   3.922 -1.0584  1.4732  0.2145
 2338SOL    HW3 9351   2.019   3.801   3.930 -0.0441  0.7550 -1.4029
 2338SOL    MW4 9352   2.037   3.881   3.961 -0.3110  0.3235 -0.1055
 2339SOL     OW 9353   1.839   3.980   3.795 -0.2984  0.0002 -0.2843
 2339SOL    HW2 9354   1.909   3.968   3.860 -0.2583  1.7176  0.0008
 2339SOL    HW3 9355   1.768   3.925   3.827  0.4776 -0.8186  0.0726
 2339SOL    MW4 9356   1.839   3.971   3.808 -0.1907  0.1188 -0.1996
 2340SOL     OW 9357   1.793   4.235   3.901  0.4352  0.2332  0.0698
 2340SOL    HW2 9358   1.854   4.290   3.853 -0.0469  1.2783  0.6533
 2340SOL    HW3 9359   1.801   4.149   3.859  3.0165  0.0909  0.7857
 2340SOL    MW4 9360   1.802   4.231   3.889  0.7122  0.3523  0.2412
 2341SOL     OW 9361   1.981   4.413   3.778  0.2652  0.1867 -0.4634
 2341SOL    HW2 9362   2.070   4.395   3.809 -0.1034 -1.3813 -0.2502
 2341SOL    HW3 9363   1.982   4.388   3.686 -0.2947 -1.1120 -0.1287
 2341SOL    MW4 9364   1.993   4.407   3.770  0.1427 -0.1915 -0.3911
 2342SOL     OW 9365   2.456   4.643   3.905  0.3915  0.1155  0.2365
 2342SOL    HW2 9366   2.452   4.645   4.000  1.8954 -1.4638  0.3665
 2342SOL    HW3 9367   2.534   4.694   3.883  1.9749 -2.3063  0.0690
 2342SOL    MW4 9368   2.466   4.650   3.914  0.7988 -0.4124  0.2315
 2343SOL     OW 9369   2.223   0.092   3.816  0.1408 -0.0391  0.1132
 2343SOL    HW2 9370   2.303   0.045   3.838  0.9980  1.0115 -0.7244
 2343SOL    HW3 9371   2.225   0.100   3.721 -0.3217  1.0906  0.1843
 2343SOL    MW4 9372   2.234   0.087   3.807  0.1929  0.2486  0.0121
 2344SOL     OW 9373   2.269   0.364   3.890  0.3879 -0.0854  0.4985
 2344SOL    HW2 9374   2.255   0.273   3.861  0.2348  0.3952 -0.9717
 2344SOL    HW3 9375   2.191   0.410   3.861 -0.7762  0.0148  3.5650
 2344SOL    MW4 9376   2.257   0.358   3.882  0.2141 -0.0088  0.7091
 2345SOL     OW 9377   2.495   0.503   3.799 -0.3345  0.1658  0.2938
 2345SOL    HW2 9378   2.421   0.448   3.825  0.1313 -0.2512  0.7167
 2345SOL    HW3 9379   2.502   0.490   3.704  0.7286 -1.6565  0.6139
 2345SOL    MW4 9380   2.486   0.494   3.790 -0.1328 -0.1297  0.3918
 2346SOL     OW 9381   2.478   0.774   3.907  0.1129 -0.2448  0.6266
 2346SOL    HW2 9382   2.406   0.822   3.866 -0.1596 -1.0370  0.1765
 2346SOL    HW3 9383   2.467   0.684   3.878  0.2543 -0.7043  1.9954
 2346SOL    MW4 9384   2.467   0.769   3.897  0.0956 -0.4099  0.7478
 2347SOL     OW 9385   2.228   0.893   3.829 -0.0863  0.2276 -0.2552
 2347SOL    HW2 9386   2.149   0.844   3.851  0.0606  0.0839 -0.0402
 2347SOL    HW3 9387   2.230   0.892   3.733 -0.4474  0.3999 -0.2657
 2347SOL    MW4 9388   2.218   0.886   3.819 -0.1146  0.2314 -0.2282
 2348SOL     OW 9389   2.241   1.161   3.897 -0.1530  0.0986  0.1844
 2348SOL    HW2 9390   2.245   1.169   3.992 -0.1294 -0.4170  0.2290
 2348SOL    HW3 9391   2.227   1.067   3.881  1.4605 -0.0606 -0.3693
 2348SOL    MW4 9392   2.240   1.150   3.907  0.0630  0.0096  0.1172
 2349SOL     OW 9393   2.509   1.300   3.846  0.3393  0.5605 -0.0964
 2349SOL    HW2 9394   2.495   1.374   3.905  0.2228  0.5483 -0.1083
 2349SOL    HW3 9395   2.427   1.250   3.851  0.1368  0.8317 -0.6551
 2349SOL    MW4 9396   2.496   1.304   3.854  0.2972  0.5947 -0.1717
 2350SOL     OW 9397   2.474   1.547   3.979 -0.1688 -0.1064 -0.1433
 2350SOL    HW2 9398   2.543   1.591   3.928  0.3085  0.1539  0.7110
 2350SOL    HW3 9399   2.394   1.594   3.956  0.0761  0.1330 -0.5163
 2350SOL    MW4 9400   2.473   1.559   3.969 -0.0735 -0.0405 -0.0798
 2351SOL     OW 9401   2.263   1.660   3.820 -0.1428 -0.2087  0.1340
 2351SOL    HW2 9402   2.264   1.750   3.852 -1.1441 -0.1022 -0.1353
 2351SOL    HW3 9403   2.182   1.622   3.854  0.6592 -1.2618  0.9254
 2351SOL    MW4 9404   2.253   1.667   3.829 -0.1691 -0.3336  0.2029
 2352SOL     OW 9405   2.259   1.909   3.925  0.1621 -0.4276  0.3106
 2352SOL    HW2 9406   2.256   1.920   4.020  0.8424  0.9117  0.1935
 2352SOL    HW3 9407   2.174   1.941   3.894 -0.3683 -1.6097  0.5296
 2352SOL    MW4 9408   2.247   1.915   3.933  0.1819 -0.4068  0.3241
 2353SOL     OW 9409   2.485   2.028   3.778 -0.0236  0.3053  0.0212
 2353SOL    HW2 9410   2.498   2.114   3.818  1.1115  0.0306  0.2550
 2353SOL    HW3 9411   2.408   1.993   3.821  0.4651  0.5289  1.1022
 2353SOL    MW4 9412   2.477   2.034   3.789  0.1907  0.2985  0.1947
 2354SOL     OW 9413   2.479   2.283   3.920 -0.2533  0.3298 -0.5753
 2354SOL    HW2 9414   2.549   2.342   3.893 -0.5991 -0.0435 -2.3665
 2354SOL    HW3 9415   2.398   2.331   3.902 -0.5021 -0.1574 -0.7800
 2354SOL    MW4 9416   2.477   2.297   3.914 -0.3317  0.2163 -0.8387
 2355SOL     OW 9417   2.237   2.391   3.832  0.8128 -0.3818 -0.4300
 2355SOL    HW2 9418   2.162   2.357   3.882  0.2735  0.2081 -0.8362
 2355SOL    HW3 9419   2.216   2.373   3.741  1.5262 -0.9112 -0.4965
 2355SOL    MW4 9420   2.224   2.384   3.827  0.8358 -0.3738 -0.4924
 2356SOL     OW 9421   2.240   2.664   3.842  0.6343  0.1956 -0.1064
 2356SOL    HW2 9422   2.223   2.674   3.936 -1.2440 -0.0652 -0.4101
 2356SOL    HW3 9423   2.244   2.569   3.829  0.5078  0.2286 -0.3733
 2356SOL    MW4 9424   2.239   2.652   3.853  0.3698  0.1655 -0.1817
 2357SOL     OW 9425   2.436   2.870   3.802  0.1999 -0.1794  0.4459
 2357SOL    HW2 9426   2.384   2.792   3.819 -0.2077  0.1995  0.9777
 2357SOL    HW3 9427   2.459   2.865   3.710  0.7682 -1.2789  0.6488
 2357SOL    MW4 9428   2.432   2.859   3.792  0.2211 -0.2744  0.5428
 2358SOL     OW 9429   2.465   3.118   3.933 -0.0089 -0.0950  0.3684
 2358SOL    HW2 9430   2.444   3.113   4.027 -1.8851  0.7180  0.0067
 2358SOL    HW3 9431   2.427   3.038   3.896  0.4968 -0.2832  0.2524
 2358SOL    MW4 9432   2.457   3.106   3.941 -0.1898 -0.0125  0.3054
 2359SOL     OW 9433   2.229   3.234   3.827  0.3387  0.0533  0.0717
 2359SOL    HW2 9434   2.221   3.326   3.853  1.3221 -0.2122  1.3648
 2359SOL    HW3 9435   2.304   3.202   3.876  0.8796 -1.0730 -1.4567
 2359SOL    MW4 9436   2.238   3.242   3.837  0.5398 -0.1304  0.0407
 2360SOL     OW 9437   2.238   3.497   3.902 -0.0325 -0.0608 -0.4082
 2360SOL    HW2 9438   2.263   3.501   3.994  0.7111  0.5069 -0.6344
 2360SOL    HW3 9439   2.304   3.549   3.856 -0.8554  0.3364 -1.1650
 2360SOL    MW4 9440   2.250   3.504   3.908 -0.0430  0.0665 -0.5379
 2361SOL     OW 9441   2.481   3.649   3.794 -0.4189 -0.4614  0.4977
 2361SOL    HW2 9442   2.559   3.594   3.800 -1.0358 -1.2469  1.2250
 2361SOL    HW3 9443   2.474   3.670   3.701  0.8168 -0.1524  0.4616
 2361SOL    MW4 9444   2.491   3.645   3.782 -0.3373 -0.5243  0.5889
 2362SOL     OW 9445   2.469   3.917   3.893 -0.2619  0.1309 -0.6668
 2362SOL    HW2 9446   2.541   3.952   3.841 -0.4442  0.9371 -0.3863
 2362SOL    HW3 9447   2.469   3.823   3.874  0.8377  0.1270 -0.7061
 2362SOL    MW4 9448   2.478   3.909   3.884 -0.1409  0.2367 -0.6350
 2363SOL     OW 9449   2.216   4.020   3.811  0.1060 -0.2904 -0.2770
 2363SOL    HW2 9450   2.303   3.990   3.838 -0.3531 -1.4939 -0.1115
 2363SOL    HW3 9451   2.217   4.013   3.715  0.5593  0.7281 -0.3506
 2363SOL    MW4 9452   2.228   4.015   3.802  0.1053 -0.3148 -0.2649
 2364SOL     OW 9453   2.205   4.296   3.899  0.6125  0.0337 -0.5800
 2364SOL    HW2 9454   2.206   4.295   3.995  1.2917  1.6917 -0.5666
 2364SOL    HW3 9455   2.208   4.203   3.875  1.0732 -0.3835  0.9922
 2364SOL    MW4 9456   2.205   4.283   3.908  0.7629  0.1974 -0.3708
 2365SOL     OW 9457   2.466   4.379   3.837 -0.1856  0.1366  0.1595
 2365SOL    HW2 9458   2.377   4.357   3.866 -0.1856 -0.2223 -0.1075
 2365SOL    HW3 9459   2.479   4.470   3.864 -0.2913 -0.1036  1.0429
 2365SOL    MW4 9460   2.456   4.388   3.844 -0.1996  0.0575  0.2409
 2366SOL     OW 9461   2.918   4.650   3.928  0.0653 -0.5182  0.4382
 2366SOL    HW2 9462   2.919   4.659   4.023  0.5406 -0.0204  0.3933
 2366SOL    HW3 9463   2.999   4.693   3.899  0.3340 -1.3771 -0.1300
 2366SOL    MW4 9464   2.929   4.657   3.936  0.1635 -0.5658  0.3573
 2367SOL     OW 9465   2.683   0.105   3.839  0.4995 -0.2974 -0.2073
 2367SOL    HW2 9466   2.768   0.069   3.863  1.4200  1.5526 -0.5817
 2367SOL    HW3 9467   2.683   0.105   3.743  0.5984  0.8455 -0.2194
 2367SOL    MW4 9468   2.694   0.100   3.829  0.6340  0.0975 -0.2583
 2368SOL     OW 9469   2.714   0.384   3.897  0.2898 -0.1610  0.6819
 2368SOL    HW2 9470   2.698   0.294   3.866  0.5883 -0.0476  0.1868
 2368SOL    HW3 9471   2.643   0.435   3.859  0.8837  0.0499 -0.1516
 2368SOL    MW4 9472   2.703   0.379   3.888  0.4075 -0.1182  0.5066
 2369SOL     OW 9473   2.972   0.485   3.828 -0.4140 -0.1292 -0.5289
 2369SOL    HW2 9474   3.044   0.435   3.866 -0.6158 -1.1260 -1.4307
 2369SOL    HW3 9475   2.893   0.448   3.869 -0.5523 -0.4340 -1.0693
 2369SOL    MW4 9476   2.971   0.473   3.838 -0.4589 -0.3009 -0.7192
 2370SOL     OW 9477   2.929   0.751   3.914  0.3708  0.0047  0.6842
 2370SOL    HW2 9478   3.011   0.793   3.888 -0.4794  0.2864 -1.6606
 2370SOL    HW3 9479   2.936   0.661   3.882 -0.3028  0.0796  0.3114
 2370SOL    MW4 9480   2.941   0.745   3.907  0.1698  0.0517  0.3256
 2371SOL     OW 9481   2.709   0.908   3.838 -0.3321  0.1520  0.3521
 2371SOL    HW2 9482   2.781   0.856   3.873 -0.3383 -0.8109 -1.0304
 2371SOL    HW3 9483   2.630   0.863   3.867 -0.3928  1.0510  1.6297
 2371SOL    MW4 9484   2.708   0.895   3.846 -0.3409  0.1436  0.3383
 2372SOL     OW 9485   2.738   1.159   3.945 -0.0580  0.1228 -0.3279
 2372SOL    HW2 9486   2.721   1.079   3.896 -1.1765 -0.1222  0.4393
 2372SOL    HW3 9487   2.670   1.220   3.916 -0.1924  0.2602  0.2614
 2372SOL    MW4 9488   2.726   1.157   3.935 -0.2233  0.1086 -0.1489
 2373SOL     OW 9489   2.932   1.310   3.824 -0.0709 -0.1318  0.0696
 2373SOL    HW2 9490   2.929   1.402   3.852 -0.9870  0.3243 -1.4435
 2373SOL    HW3 9491   2.865   1.267   3.877 -0.0264  0.1827  0.3868
 2373SOL    MW4 9492   2.923   1.317   3.835 -0.1859 -0.0301 -0.0882
 2374SOL     OW 9493   2.956   1.566   3.909 -0.2046 -0.4934  0.2961
 2374SOL    HW2 9494   2.966   1.568   4.005  0.3848 -1.8607  0.2813
 2374SOL    HW3 9495   3.038   1.603   3.876 -1.0006  1.3480  0.3182
 2374SOL    MW4 9496   2.968   1.571   3.918 -0.2318 -0.4308  0.2971
 2375SOL     OW 9497   2.692   1.640   3.846 -0.0278  0.3642  0.5109
 2375SOL    HW2 9498   2.784   1.626   3.869  0.2077 -0.2618 -0.7585
 2375SOL    HW3 9499   2.686   1.617   3.753 -1.6665 -0.5549  0.8155
 2375SOL    MW4 9500   2.703   1.635   3.837 -0.2130  0.1604  0.3836
 2376SOL     OW 9501   2.704   1.904   3.908  0.0718 -0.2055 -0.0602
 2376SOL    HW2 9502   2.701   1.808   3.904 -1.2010 -0.1405 -0.7305
 2376SOL    HW3 9503   2.630   1.933   3.856  0.0666  1.1474  0.6721
 2376SOL    MW4 9504   2.694   1.895   3.901 -0.0968 -0.0184 -0.0520
 2377SOL     OW 9505   2.926   2.045   3.822 -0.3312 -0.0042 -0.3981
 2377SOL    HW2 9506   2.897   2.135   3.835 -0.4278 -0.0652 -0.1797
 2377SOL    HW3 9507   2.858   1.992   3.862 -0.0366 -0.1572 -0.0918
 2377SOL    MW4 9508   2.914   2.050   3.829 -0.3051 -0.0324 -0.3289
 2378SOL     OW 9509   2.931   2.342   3.893 -0.1636  0.6551 -0.3488
 2378SOL    HW2 9510   2.943   2.353   3.987  2.1379  0.5071 -0.5831
 2378SOL    HW3 9511   2.998   2.398   3.853 -0.8077  0.3642 -1.8793
 2378SOL    MW4 9512   2.941   2.351   3.900  0.0550  0.5972 -0.5816
 2379SOL     OW 9513   2.683   2.466   3.833  0.3393 -0.3461 -0.3823
 2379SOL    HW2 9514   2.684   2.556   3.863  0.8280 -1.0794  1.8929
 2379SOL    HW3 9515   2.772   2.434   3.849 -0.2937 -1.7305  0.4274
 2379SOL    MW4 9516   2.695   2.473   3.839  0.3203 -0.6255  0.0247
 2380SOL     OW 9517   2.645   2.751   3.915 -0.6446 -0.1072 -0.3374
 2380SOL    HW2 9518   2.598   2.743   3.998 -0.4961 -0.2453 -0.2648
 2380SOL    HW3 9519   2.580   2.784   3.853 -0.9618 -0.7510 -0.3519
 2380SOL    MW4 9520   2.630   2.754   3.918 -0.6668 -0.2104 -0.3298
 2381SOL     OW 9521   2.881   2.862   3.829  0.2529 -0.1501 -0.2383
 2381SOL    HW2 9522   2.887   2.951   3.861  0.6972 -0.5376  0.7655
 2381SOL    HW3 9523   2.808   2.823   3.877  0.0909 -0.3456 -0.6370
 2381SOL    MW4 9524   2.872   2.868   3.839  0.2901 -0.2270 -0.1584
 2382SOL     OW 9525   2.900   3.128   3.966  0.8155 -0.1659 -0.3201
 2382SOL    HW2 9526   2.981   3.146   3.918  1.2866 -2.5298 -0.4849
 2382SOL    HW3 9527   2.830   3.157   3.907  1.4682 -0.7703 -1.4123
 2382SOL    MW4 9528   2.901   3.134   3.952  0.9638 -0.5575 -0.4859
 2383SOL     OW 9529   2.694   3.217   3.800  0.0059 -0.0718  0.5555
 2383SOL    HW2 9530   2.683   3.311   3.818 -1.0546  0.2319 -1.5987
 2383SOL    HW3 9531   2.615   3.177   3.836  0.2495 -0.1095  1.0650
 2383SOL    MW4 9532   2.682   3.224   3.807 -0.1019 -0.0367  0.3385
 2384SOL     OW 9533   2.697   3.510   3.881  0.4381  0.0924 -0.0360
 2384SOL    HW2 9534   2.701   3.478   3.971  0.9157  0.5228  0.0957
 2384SOL    HW3 9535   2.780   3.557   3.868 -0.2414  1.2258 -0.2569
 2384SOL    MW4 9536   2.709   3.512   3.891  0.4115  0.2987 -0.0478
 2385SOL     OW 9537   2.921   3.638   3.820 -0.2796  0.5814  0.4400
 2385SOL    HW2 9538   2.989   3.577   3.850 -0.3562  1.1908  1.9091
 2385SOL    HW3 9539   2.911   3.619   3.727  1.2165 -0.1847  0.4191
 2385SOL    MW4 9540   2.929   3.627   3.811 -0.0924  0.5607  0.6311
 2386SOL     OW 9541   2.856   3.884   3.941 -0.2697 -0.0115  0.1101
 2386SOL    HW2 9542   2.874   3.891   4.034 -0.6193 -1.6378  0.2996
 2386SOL    HW3 9543   2.870   3.792   3.920  0.7349  0.5096 -1.6453
 2386SOL    MW4 9544   2.860   3.873   3.950 -0.1833 -0.1573 -0.0965
 2387SOL     OW 9545   2.687   4.017   3.766 -0.3899 -0.0075  0.0740
 2387SOL    HW2 9546   2.689   4.102   3.810 -0.3488  0.0199  0.0198
 2387SOL    HW3 9547   2.749   3.963   3.816 -1.0644 -0.2667  0.6401
 2387SOL    MW4 9548   2.696   4.021   3.778 -0.4735 -0.0381  0.1415
 2388SOL     OW 9549   2.690   4.244   3.926 -0.4962  0.1974  0.1979
 2388SOL    HW2 9550   2.758   4.289   3.876  1.7279 -1.8994  1.2304
 2388SOL    HW3 9551   2.609   4.290   3.903  0.9888  1.6258 -2.4430
 2388SOL    MW4 9552   2.689   4.256   3.916 -0.0068  0.1092 -0.0143
 2389SOL     OW 9553   2.907   4.394   3.815 -0.3990 -0.2221 -0.6016
 2389SOL    HW2 9554   2.983   4.347   3.849 -0.1536  0.0572 -0.7674
 2389SOL    HW3 9555   2.916   4.483   3.848 -0.9082 -0.3107 -0.2195
 2389SOL    MW4 9556   2.918   4.399   3.824 -0.4338 -0.1969 -0.5731
 2390SOL     OW 9557   3.415   4.662   3.928  0.1785  0.5218 -0.1766
 2390SOL    HW2 9558   3.432   4.641   4.020  0.6574  1.2193 -0.1007
 2390SOL    HW3 9559   3.498   4.696   3.895 -0.2288  1.0995 -0.6283
 2390SOL    MW4 9560   3.428   4.664   3.936  0.1879  0.6900 -0.2262
 2391SOL     OW 9561   3.152   0.107   3.863 -0.3828 -0.2421  0.4907
 2391SOL    HW2 9562   3.238   0.072   3.888  1.0367  3.3252  0.9706
 2391SOL    HW3 9563   3.155   0.112   3.767 -0.6148 -1.4104  0.4159
 2391SOL    MW4 9564   3.164   0.103   3.853 -0.2261  0.0744  0.5442
 2392SOL     OW 9565   3.181   0.360   3.945  0.5618  0.1360 -0.0281
 2392SOL    HW2 9566   3.181   0.352   4.041  2.0132 -1.0262 -0.1025
 2392SOL    HW3 9567   3.173   0.270   3.914  0.2730  0.4981 -1.0142
 2392SOL    MW4 9568   3.180   0.347   3.954  0.7152  0.0304 -0.1680
 2393SOL     OW 9569   3.370   0.499   3.796 -0.0375  0.2980 -0.2508
 2393SOL    HW2 9570   3.449   0.467   3.838  0.2809  0.3287 -0.8218
 2393SOL    HW3 9571   3.299   0.452   3.840  0.2392  0.8094  0.7626
 2393SOL    MW4 9572   3.371   0.489   3.808  0.0410  0.3695 -0.1924
 2394SOL     OW 9573   3.373   0.767   3.933 -0.4828 -0.0231  0.5157
 2394SOL    HW2 9574   3.370   0.766   4.028  1.0786 -0.5423  0.5669
 2394SOL    HW3 9575   3.374   0.675   3.907  1.3549  0.1079  0.0855
 2394SOL    MW4 9576   3.373   0.755   3.942 -0.0343 -0.0743  0.4657
 2395SOL     OW 9577   3.158   0.900   3.805 -0.4926  0.2568 -0.3177
 2395SOL    HW2 9578   3.233   0.847   3.833 -0.3432  0.8688  0.4310
 2395SOL    HW3 9579   3.163   0.898   3.709 -0.8908 -1.6736 -0.3360
 2395SOL    MW4 9580   3.169   0.892   3.796 -0.5254  0.0828 -0.2213
 2396SOL     OW 9581   3.157   1.149   3.909 -0.7962  0.2525  0.3801
 2396SOL    HW2 9582   3.142   1.061   3.875  0.4159  0.3055 -0.3298
 2396SOL    HW3 9583   3.078   1.198   3.885 -0.6164 -0.1198 -0.9964
 2396SOL    MW4 9584   3.144   1.144   3.901 -0.6126  0.2104  0.1048
 2397SOL     OW 9585   3.400   1.269   3.838  0.4260 -0.3953 -0.5881
 2397SOL    HW2 9586   3.329   1.214   3.870  0.1943 -0.2519 -0.8518
 2397SOL    HW3 9587   3.390   1.268   3.742  0.4549  0.0617 -0.5964
 2397SOL    MW4 9588   3.390   1.262   3.829  0.3992 -0.3160 -0.6240
 2398SOL     OW 9589   3.377   1.524   3.959 -0.2261 -0.3680  0.5481
 2398SOL    HW2 9590   3.302   1.571   3.923  1.0397  0.2450 -1.3566
 2398SOL    HW3 9591   3.371   1.437   3.920  1.6668  0.5798 -1.9737
 2398SOL    MW4 9592   3.366   1.519   3.949  0.1906 -0.1621 -0.0359
 2399SOL     OW 9593   3.190   1.689   3.818 -0.2828 -0.2875 -0.0310
 2399SOL    HW2 9594   3.251   1.762   3.822 -0.6985  0.0948 -0.5124
 2399SOL    HW3 9595   3.173   1.677   3.724  0.4460 -1.5618 -0.0142
 2399SOL    MW4 9596   3.196   1.697   3.806 -0.2415 -0.4052 -0.0923
 2400SOL     OW 9597   3.170   2.060   3.975 -0.3054  0.3011 -0.1416
 2400SOL    HW2 9598   3.154   2.013   4.056 -1.2884  1.9650  0.6519
 2400SOL    HW3 9599   3.086   2.059   3.929 -0.2358  0.9345 -0.2928
 2400SOL    MW4 9600   3.157   2.054   3.979 -0.4259  0.6042 -0.0569
 2401SOL     OW 9601   3.349   1.928   3.815  0.2289  0.4997  0.0536
 2401SOL    HW2 9602   3.284   1.980   3.863  1.1123  1.9311 -0.2784
 2401SOL    HW3 9603   3.352   1.967   3.728 -0.5407 -1.3791 -0.8580
 2401SOL    MW4 9604   3.340   1.940   3.810  0.2439  0.4407 -0.1105
 2402SOL     OW 9605   3.318   2.318   3.940  0.0152  0.3457 -0.0767
 2402SOL    HW2 9606   3.254   2.379   3.903 -0.6738  0.0529  0.6330
 2402SOL    HW3 9607   3.277   2.232   3.932  0.2387  0.1787  0.5621
 2402SOL    MW4 9608   3.304   2.315   3.934 -0.0462  0.2850  0.1012
 2403SOL     OW 9609   3.152   2.498   3.798 -0.1209 -0.1971  0.0527
 2403SOL    HW2 9610   3.129   2.586   3.829  2.8576  0.8394 -0.4968
 2403SOL    HW3 9611   3.127   2.498   3.705  0.1703  0.1847 -0.0259
 2403SOL    MW4 9612   3.146   2.510   3.790  0.3105 -0.0100 -0.0301
 2404SOL     OW 9613   3.124   2.746   3.893  0.1992  0.2769 -0.3440
 2404SOL    HW2 9614   3.114   2.742   3.988 -0.6925  0.3984 -0.4289
 2404SOL    HW3 9615   3.043   2.787   3.862 -0.0483 -0.8751 -1.2533
 2404SOL    MW4 9616   3.112   2.751   3.902  0.0489  0.1410 -0.4752
 2405SOL     OW 9617   3.396   2.808   3.801  0.0368 -0.4472 -0.3051
 2405SOL    HW2 9618   3.311   2.783   3.837 -0.7113  2.3640 -0.0556
 2405SOL    HW3 9619   3.380   2.815   3.707 -0.0469  0.2402 -0.2390
 2405SOL    MW4 9620   3.383   2.805   3.793 -0.0729  0.0144 -0.2635
 2406SOL     OW 9621   3.399   3.080   3.907  0.1591 -0.2440  0.0902
 2406SOL    HW2 9622   3.448   3.144   3.855  0.3046  0.0225  0.5428
 2406SOL    HW3 9623   3.409   2.997   3.860  0.6993 -0.1068 -0.0401
 2406SOL    MW4 9624   3.407   3.078   3.894  0.2496 -0.1908  0.1327
 2407SOL     OW 9625   3.142   3.195   3.852  0.1761  0.1500 -0.1129
 2407SOL    HW2 9626   3.223   3.162   3.890 -1.0953 -0.6480  1.9930
 2407SOL    HW3 9627   3.138   3.154   3.765  0.8541 -1.6928  0.7041
 2407SOL    MW4 9628   3.152   3.185   3.845  0.0978 -0.1984  0.2727
 2408SOL     OW 9629   3.122   3.466   3.905  0.0243  0.2558  0.0631
 2408SOL    HW2 9630   3.195   3.519   3.874 -0.6120  0.4356 -1.1769
 2408SOL    HW3 9631   3.134   3.381   3.864  1.5104 -0.8575  2.7241
 2408SOL    MW4 9632   3.133   3.462   3.896  0.1364  0.1327  0.2506
 2409SOL     OW 9633   3.334   3.615   3.818  0.2472  0.0486 -0.1451
 2409SOL    HW2 9634   3.324   3.708   3.840 -1.9649 -0.2988  0.4491
 2409SOL    HW3 9635   3.339   3.614   3.723  0.6165  0.7987 -0.1427
 2409SOL    MW4 9636   3.333   3.627   3.809  0.0041  0.1018 -0.0664
 2410SOL     OW 9637   3.347   3.881   3.921  0.5954  0.0459  0.1714
 2410SOL    HW2 9638   3.427   3.932   3.914  0.0946  1.0441  1.5701
 2410SOL    HW3 9639   3.278   3.939   3.888  0.2755 -0.3873  0.0719
 2410SOL    MW4 9640   3.348   3.895   3.916  0.4871  0.1204  0.3428
 2411SOL     OW 9641   3.086   3.982   3.827 -0.2744  0.3401  0.3698
 2411SOL    HW2 9642   3.085   4.076   3.842  1.0656  0.4457 -0.0694
 2411SOL    HW3 9643   3.002   3.950   3.859 -1.3976  1.9118 -0.9573
 2411SOL    MW4 9644   3.075   3.990   3.833 -0.2458  0.5614  0.1367
 2412SOL     OW 9645   3.121   4.256   3.930 -0.7727 -0.0360  0.0888
 2412SOL    HW2 9646   3.149   4.248   4.021 -1.1030  0.8471  0.2751
 2412SOL    HW3 9647   3.190   4.309   3.889 -1.5458  1.1199  0.2640
 2412SOL    MW4 9648   3.134   4.262   3.937 -0.9183  0.2330  0.1365
 2413SOL     OW 9649   3.323   4.409   3.816 -0.1073  0.1343 -0.0357
 2413SOL    HW2 9650   3.406   4.369   3.842  0.9906  1.1221 -1.8692
 2413SOL    HW3 9651   3.332   4.501   3.841 -0.4125  0.3602 -0.7364
 2413SOL    MW4 9652   3.335   4.416   3.823 -0.0027  0.2944 -0.3701
 2414SOL     OW 9653   3.820   0.022   3.884 -0.0740 -0.2897 -0.3959
 2414SOL    HW2 9654   3.884   0.055   3.822  1.0836 -0.3595  0.7500
 2414SOL    HW3 9655   3.822  -0.073   3.871 -0.4927 -0.2380 -0.8719
 2414SOL    MW4 9656   3.828   0.014   3.874  0.0235 -0.2921 -0.3075
 2415SOL     OW 9657   3.605   0.157   3.793 -0.1637 -0.0372  0.2764
 2415SOL    HW2 9658   3.690   0.123   3.818  0.4942  0.5988 -1.0582
 2415SOL    HW3 9659   3.592   0.127   3.704 -1.4788 -0.3916  0.5776
 2415SOL    MW4 9660   3.614   0.149   3.785 -0.2504 -0.0001  0.1401
 2416SOL     OW 9661   3.615   0.411   3.915  0.7561  0.0650 -0.6451
 2416SOL    HW2 9662   3.699   0.445   3.885  1.3982 -1.0028 -0.0935
 2416SOL    HW3 9663   3.603   0.329   3.868 -0.2879  0.5302 -1.2004
 2416SOL    MW4 9664   3.624   0.404   3.905  0.7030 -0.0145 -0.6456
 2417SOL     OW 9665   3.834   0.537   3.826  0.1366  0.1906 -0.2084
 2417SOL    HW2 9666   3.905   0.485   3.864 -0.7506 -0.3876  0.6983
 2417SOL    HW3 9667   3.839   0.621   3.872  0.5025  0.3051 -0.4562
 2417SOL    MW4 9668   3.844   0.542   3.837  0.0678  0.1294 -0.1215
 2418SOL     OW 9669   3.842   0.776   3.987  0.1318 -0.3429  0.4099
 2418SOL    HW2 9670   3.917   0.817   3.945  0.8553 -3.0203 -1.0239
 2418SOL    HW3 9671   3.766   0.821   3.950  0.9364  0.5281 -0.1951
 2418SOL    MW4 9672   3.842   0.788   3.976  0.3334 -0.5813  0.1409
 2419SOL     OW 9673   3.618   0.856   3.829 -0.0542 -0.3780  0.0808
 2419SOL    HW2 9674   3.605   0.950   3.832 -2.4142 -0.6246 -1.7418
 2419SOL    HW3 9675   3.540   0.819   3.870  1.2857 -1.5627  1.6743
 2419SOL    MW4 9676   3.606   0.863   3.835 -0.1888 -0.5669  0.0506
 2420SOL     OW 9677   3.624   1.128   3.893 -0.0027  0.3688 -0.5222
 2420SOL    HW2 9678   3.706   1.167   3.862 -0.1381 -0.9041 -2.5318
 2420SOL    HW3 9679   3.555   1.180   3.852 -0.1962 -0.0547 -0.7306
 2420SOL    MW4 9680   3.626   1.140   3.884 -0.0461  0.1450 -0.8148
 2421SOL     OW 9681   3.867   1.281   3.834  0.0429  0.4463  0.3003
 2421SOL    HW2 9682   3.949   1.238   3.858  0.0202  0.0279 -0.3552
 2421SOL    HW3 9683   3.873   1.368   3.872  0.9126  0.5151  0.0158
 2421SOL    MW4 9684   3.879   1.287   3.842  0.1547  0.4002  0.1763
 2422SOL     OW 9685   3.857   1.504   3.978  0.3995 -0.1125  0.5527
 2422SOL    HW2 9686   3.851   1.499   4.073 -0.8623 -1.0995  0.4325
 2422SOL    HW3 9687   3.772   1.538   3.950  0.2337 -1.2089 -0.3031
 2422SOL    MW4 9688   3.845   1.508   3.987  0.2112 -0.3874  0.4239
 2423SOL     OW 9689   3.633   1.618   3.857  0.0920  0.4621 -0.2338
 2423SOL    HW2 9690   3.548   1.582   3.881  0.5640 -0.1067  0.5979
 2423SOL    HW3 9691   3.629   1.629   3.762 -0.2998 -1.1570 -0.4064
 2423SOL    MW4 9692   3.621   1.615   3.847  0.1026  0.1735 -0.1468
 2424SOL     OW 9693   3.586   1.882   3.918  0.1588  0.1930 -0.3973
 2424SOL    HW2 9694   3.616   1.793   3.898  1.6216  0.6530 -0.2908
 2424SOL    HW3 9695   3.504   1.891   3.869  0.6313 -0.7842 -1.3862
 2424SOL    MW4 9696   3.579   1.872   3.909  0.4141  0.1248 -0.5137
 2425SOL     OW 9697   3.817   2.045   3.833  0.0842 -0.0581  0.6516
 2425SOL    HW2 9698   3.889   1.999   3.877  0.4971 -0.1660 -0.1184
 2425SOL    HW3 9699   3.740   1.991   3.850  0.3067 -0.2819  0.9502
 2425SOL    MW4 9700   3.816   2.031   3.841  0.1680 -0.1018  0.5894
 2426SOL     OW 9701   3.830   2.308   3.930 -0.4516 -0.5411  0.3846
 2426SOL    HW2 9702   3.743   2.342   3.908  0.0857 -0.7275 -2.2380
 2426SOL    HW3 9703   3.832   2.220   3.890  0.6993 -0.7891  0.9755
 2426SOL    MW4 9704   3.819   2.301   3.922 -0.2289 -0.5984  0.1165
 2427SOL     OW 9705   3.567   2.422   3.833  0.3961  0.0880  0.0091
 2427SOL    HW2 9706   3.491   2.398   3.885  0.6913 -0.9243 -0.0085
 2427SOL    HW3 9707   3.545   2.395   3.744  0.1492  1.2325 -0.2903
 2427SOL    MW4 9708   3.554   2.415   3.828  0.4025  0.1055 -0.0327
 2428SOL     OW 9709   3.638   2.693   3.900 -0.2675  0.0674  0.8076
 2428SOL    HW2 9710   3.627   2.602   3.874  2.1134  0.1051 -0.4903
 2428SOL    HW3 9711   3.554   2.734   3.882 -0.1278 -0.9807 -2.4194
 2428SOL    MW4 9712   3.626   2.686   3.894  0.0651 -0.0659  0.2106
 2429SOL     OW 9713   3.844   2.848   3.782 -0.3890 -0.2610  0.4469
 2429SOL    HW2 9714   3.921   2.791   3.784 -0.1983  0.0005  0.8759
 2429SOL    HW3 9715   3.772   2.792   3.811 -0.2334 -0.3327  0.7019
 2429SOL    MW4 9716   3.845   2.833   3.786 -0.3433 -0.2360  0.5371
 2430SOL     OW 9717   3.824   3.074   3.927  0.1452 -0.4241  0.0076
 2430SOL    HW2 9718   3.763   3.129   3.878 -0.3631 -1.1837 -0.2299
 2430SOL    HW3 9719   3.833   2.995   3.874  0.1316 -0.9677  0.7974
 2430SOL    MW4 9720   3.817   3.070   3.914  0.0763 -0.5961  0.0805
 2431SOL     OW 9721   3.622   3.219   3.795 -0.1715 -0.5443  0.1520
 2431SOL    HW2 9722   3.620   3.309   3.827 -0.6432 -0.1755 -0.8963
 2431SOL    HW3 9723   3.611   3.226   3.700 -1.9508 -1.8054  0.2420
 2431SOL    MW4 9724   3.620   3.232   3.787 -0.4685 -0.6620  0.0255
 2432SOL     OW 9725   3.597   3.486   3.868 -0.5348  0.1374 -0.2612
 2432SOL    HW2 9726   3.606   3.481   3.963 -2.0358  1.2436 -0.0451
 2432SOL    HW3 9727   3.514   3.531   3.854 -0.4719 -0.2795 -2.1042
 2432SOL    MW4 9728   3.587   3.492   3.879 -0.7246  0.2284 -0.4759
 2433SOL     OW 9729   3.842   3.578   3.785  0.3288  0.4820  0.2251
 2433SOL    HW2 9730   3.831   3.668   3.815  0.7134  0.6052 -0.0038
 2433SOL    HW3 9731   3.757   3.536   3.803  0.1191  0.9131  0.2418
 2433SOL    MW4 9732   3.829   3.584   3.791  0.3519  0.5551  0.1971
 2434SOL     OW 9733   3.814   3.841   3.848 -0.3002 -0.0464  0.2497
 2434SOL    HW2 9734   3.816   3.838   3.944  0.9067  0.5712  0.2494
 2434SOL    HW3 9735   3.893   3.889   3.824  0.2838 -1.6789 -1.1336
 2434SOL    MW4 9736   3.825   3.847   3.858 -0.0640 -0.1803  0.0672
 2435SOL     OW 9737   3.580   4.000   3.825 -0.0349 -0.0415  0.0322
 2435SOL    HW2 9738   3.588   4.095   3.832 -1.1194 -0.0238  1.3060
 2435SOL    HW3 9739   3.668   3.968   3.842  0.3303  0.7290 -0.3584
 2435SOL    MW4 9740   3.593   4.008   3.828 -0.1298  0.0625  0.1488
 2436SOL     OW 9741   3.558   4.295   3.894 -0.3373 -0.2396  0.1632
 2436SOL    HW2 9742   3.565   4.288   3.989 -0.3129  0.1516  0.1917
 2436SOL    HW3 9743   3.637   4.342   3.867 -0.0312 -0.9163 -0.1187
 2436SOL    MW4 9744   3.569   4.301   3.903 -0.2937 -0.2773  0.1298
 2437SOL     OW 9745   3.814   4.415   3.839 -0.1870  0.1248 -0.3111
 2437SOL    HW2 9746   3.889   4.357   3.858 -0.7682 -0.2328  0.9468
 2437SOL    HW3 9747   3.808   4.415   3.744  0.6805 -0.8010 -0.3831
 2437SOL    MW4 9748   3.823   4.407   3.829 -0.1492 -0.0445 -0.1547
 2438SOL     OW 9749   4.263   4.631   3.883 -0.6203  0.1559  0.4165
 2438SOL    HW2 9750   4.300   4.614   3.970 -0.9868 -0.5280  0.4422
 2438SOL    HW3 9751   4.340   4.647   3.828 -0.3614  0.1835  0.7805
 2438SOL    MW4 9752   4.278   4.631   3.887 -0.6345  0.0693  0.4679
 2439SOL     OW 9753   4.060   0.132   3.797 -0.2421  0.0076  0.4312
 2439SOL    HW2 9754   4.125   0.074   3.838  0.5810  0.8615  0.3322
 2439SOL    HW3 9755   4.069   0.115   3.704 -0.0158  0.2899  0.4037
 2439SOL    MW4 9756   4.070   0.122   3.790 -0.1037  0.1575  0.4145
 2440SOL     OW 9757   4.050   0.386   3.895  0.0341  0.0406 -0.3130
 2440SOL    HW2 9758   4.048   0.380   3.991  1.0441  0.0434 -0.2855
 2440SOL    HW3 9759   4.072   0.297   3.866  1.7066  0.4820 -0.4525
 2440SOL    MW4 9760   4.053   0.373   3.904  0.3880  0.0992 -0.3278
 2441SOL     OW 9761   4.303   0.472   3.819  0.3273  0.7125 -0.0273
 2441SOL    HW2 9762   4.217   0.439   3.845  0.8471  0.2090  1.0874
 2441SOL    HW3 9763   4.308   0.456   3.725 -0.4178 -0.1139  0.0719
 2441SOL    MW4 9764   4.292   0.466   3.810  0.2976  0.5370  0.1329
 2442SOL     OW 9765   4.292   0.737   3.894 -0.4261 -0.0108  0.2686
 2442SOL    HW2 9766   4.205   0.774   3.878 -0.2189  0.6922  0.7781
 2442SOL    HW3 9767   4.287   0.649   3.857 -2.1735 -0.9181  2.5586
 2442SOL    MW4 9768   4.280   0.730   3.887 -0.6293 -0.0377  0.6380
 2443SOL     OW 9769   4.040   0.889   3.845 -0.5259 -0.3673 -0.7848
 2443SOL    HW2 9770   4.059   0.978   3.875  1.4966 -0.8305 -0.5855
 2443SOL    HW3 9771   4.015   0.899   3.753  0.8698  0.2818 -1.1019
 2443SOL    MW4 9772   4.039   0.902   3.837 -0.0749 -0.3428 -0.8004
 2444SOL     OW 9773   4.099   1.143   3.922 -0.3075 -0.0509 -0.4200
 2444SOL    HW2 9774   4.112   1.139   4.016  0.9953 -2.3605 -0.6700
 2444SOL    HW3 9775   4.179   1.184   3.888  0.3466 -1.5760 -0.7365
 2444SOL    MW4 9776   4.111   1.148   3.930 -0.0493 -0.5569 -0.4948
 2445SOL     OW 9777   4.329   1.255   3.838  0.0656 -0.5107  0.6178
 2445SOL    HW2 9778   4.333   1.341   3.881  0.2651 -0.0379 -0.3419
 2445SOL    HW3 9779   4.322   1.275   3.745  1.0451 -1.5510  0.3110
 2445SOL    MW4 9780   4.329   1.269   3.832  0.2212 -0.5856  0.4507
 2446SOL     OW 9781   4.304   1.534   3.959  0.0467 -0.3635  0.3371
 2446SOL    HW2 9782   4.228   1.581   3.924  0.3098 -2.0852 -2.7594
 2446SOL    HW3 9783   4.379   1.580   3.922  0.4232 -0.5970  0.8172
 2446SOL    MW4 9784   4.304   1.546   3.949  0.1311 -0.6214 -0.0081
 2447SOL     OW 9785   4.059   1.649   3.882 -0.0140 -0.1139  0.3081
 2447SOL    HW2 9786   4.037   1.738   3.911 -0.7133  0.2162 -1.1878
 2447SOL    HW3 9787   3.990   1.594   3.919  1.1181 -0.2368  2.2982
 2447SOL    MW4 9788   4.047   1.654   3.891  0.0431 -0.0865  0.3733
 2448SOL     OW 9789   4.033   1.913   3.944 -0.1429 -0.2897  0.2607
 2448SOL    HW2 9790   4.030   1.929   4.038 -0.0283  1.4583 -0.0125
 2448SOL    HW3 9791   4.113   1.957   3.915 -0.6217 -0.0757 -0.7660
 2448SOL    MW4 9792   4.043   1.921   3.953 -0.1909 -0.0309  0.0892
 2449SOL     OW 9793   4.261   2.044   3.844  0.3289 -0.0105  0.2801
 2449SOL    HW2 9794   4.271   2.138   3.857  0.7383 -0.1234  0.8200
 2449SOL    HW3 9795   4.273   2.031   3.750 -0.3094  0.5451  0.1188
 2449SOL    MW4 9796   4.264   2.055   3.833  0.2987  0.0479  0.3301
 2450SOL     OW 9797   4.278   2.321   3.861 -0.2966 -0.7115 -0.0184
 2450SOL    HW2 9798   4.283   2.323   3.957 -1.5491  0.8520  0.0323
 2450SOL    HW3 9799   4.187   2.343   3.842  0.1618 -0.1468 -1.6047
 2450SOL    MW4 9800   4.267   2.324   3.871 -0.4014 -0.4307 -0.2210
 2451SOL     OW 9801   4.025   2.410   3.764 -0.1628 -0.2286  0.1002
 2451SOL    HW2 9802   4.047   2.498   3.796 -0.1063 -0.1769 -0.0781
 2451SOL    HW3 9803   3.948   2.385   3.815 -0.8282  0.3611 -0.5840
 2451SOL    MW4 9804   4.018   2.419   3.775 -0.2431 -0.1440 -0.0136
 2452SOL     OW 9805   4.044   2.678   3.850  0.6361 -0.3951  0.0386
 2452SOL    HW2 9806   4.005   2.682   3.937  0.3829 -0.5292 -0.0712
 2452SOL    HW3 9807   4.128   2.724   3.860  0.0539  0.6852  0.0531
 2452SOL    MW4 9808   4.050   2.685   3.863  0.5259 -0.2703  0.0260
 2453SOL     OW 9809   4.312   2.761   3.832  0.0295 -0.1937  0.3856
 2453SOL    HW2 9810   4.319   2.854   3.854  0.5607 -0.1885  0.2028
 2453SOL    HW3 9811   4.402   2.729   3.835 -0.0268 -0.4663 -0.6151
 2453SOL    MW4 9812   4.325   2.769   3.835  0.0921 -0.2290  0.2295
 2454SOL     OW 9813   4.281   3.034   3.886  0.3038  0.3311  0.1433
 2454SOL    HW2 9814   4.197   3.078   3.876  0.4396  0.7621  0.8377
 2454SOL    HW3 9815   4.346   3.102   3.868  0.5084 -0.3532 -1.8233
 2454SOL    MW4 9816   4.279   3.049   3.882  0.3487  0.2977 -0.0246
 2455SOL     OW 9817   4.064   3.184   3.835  0.9311  0.0211  0.0424
 2455SOL    HW2 9818   3.976   3.152   3.852  0.2038  0.9445 -1.7874
 2455SOL    HW3 9819   4.070   3.188   3.739  2.9711 -0.0680  0.1411
 2455SOL    MW4 9820   4.053   3.180   3.825  1.1043  0.1312 -0.1860
 2456SOL     OW 9821   4.052   3.454   3.919 -0.2952 -0.4059 -0.2401
 2456SOL    HW2 9822   4.047   3.359   3.906  1.5422 -0.2509 -2.2819
 2456SOL    HW3 9823   3.985   3.490   3.861 -0.7243 -0.4251  0.2410
 2456SOL    MW4 9824   4.043   3.446   3.910 -0.1094 -0.3880 -0.4460
 2457SOL     OW 9825   4.275   3.589   3.828 -0.0268 -0.0168  0.0147
 2457SOL    HW2 9826   4.208   3.529   3.860 -0.6665 -0.5981 -2.3158
 2457SOL    HW3 9827   4.355   3.563   3.875 -0.9341 -0.7964  1.1467
 2457SOL    MW4 9828   4.277   3.578   3.839 -0.2309 -0.1963 -0.1434
 2458SOL     OW 9829   4.282   3.860   3.912  0.5165  0.0182  0.0780
 2458SOL    HW2 9830   4.208   3.908   3.876  1.6045  0.7547 -1.2530
 2458SOL    HW3 9831   4.268   3.770   3.885  0.2675  0.2185 -0.4763
 2458SOL    MW4 9832   4.271   3.855   3.903  0.6272  0.1418 -0.1707
 2459SOL     OW 9833   4.055   3.981   3.803 -0.5660  0.2171 -0.3941
 2459SOL    HW2 9834   4.038   4.066   3.845  0.7448  0.9125 -1.2402
 2459SOL    HW3 9835   4.071   4.003   3.711 -1.5321 -1.0966 -0.8855
 2459SOL    MW4 9836   4.055   3.995   3.797 -0.5205  0.1355 -0.5706
 2460SOL     OW 9837   4.021   4.235   3.919  0.2614 -0.2805 -0.5015
 2460SOL    HW2 9838   4.027   4.251   4.013 -0.3216 -0.0568 -0.4974
 2460SOL    HW3 9839   4.098   4.279   3.882  1.2197 -1.5077 -0.0023
 2460SOL    MW4 9840   4.032   4.243   3.926  0.3109 -0.4129 -0.4351
 2461SOL     OW 9841   4.233   4.364   3.813 -0.0766 -0.1441  0.0212
 2461SOL    HW2 9842   4.240   4.455   3.841  0.2565  0.1921 -1.1121
 2461SOL    HW3 9843   4.314   4.323   3.842 -0.4767 -0.2283  1.0418
 2461SOL    MW4 9844   4.244   4.371   3.820 -0.0854 -0.1109  0.0063
 2462SOL     OW 9845   0.278   4.644   4.173  0.2701  0.2258 -0.0800
 2462SOL    HW2 9846   0.342   4.688   4.229  0.5813 -0.0050 -0.2537
 2462SOL    HW3 9847   0.276   4.554   4.205  0.2364  0.1659 -0.2529
 2462SOL    MW4 9848   0.286   4.638   4.185  0.3067  0.1874 -0.1258
 2463SOL     OW 9849   0.027   0.077   4.279  0.2058  0.3243 -0.0338
 2463SOL    HW2 9850   0.018   0.048   4.370 -0.0416 -0.3301 -0.2645
 2463SOL    HW3 9851   0.108   0.035   4.249 -1.5783 -2.4421 -1.2226
 2463SOL    MW4 9852   0.037   0.067   4.287 -0.0623 -0.1270 -0.2211
 2464SOL     OW 9853   0.078   0.349   4.181 -0.7039  0.6555  0.0678
 2464SOL    HW2 9854   0.072   0.259   4.214 -0.3866  1.3678  2.1447
 2464SOL    HW3 9855   0.058   0.342   4.088  3.1901 -2.1777 -0.7077
 2464SOL    MW4 9856   0.075   0.336   4.173 -0.1483  0.3757  0.2395
 2465SOL     OW 9857   0.284   0.512   4.289  0.6607 -0.1102  0.0185
 2465SOL    HW2 9858   0.361   0.461   4.263  0.3937 -0.6691  0.3104
 2465SOL    HW3 9859   0.211   0.470   4.243  0.2591 -0.7935  1.2655
 2465SOL    MW4 9860   0.284   0.500   4.279  0.5725 -0.2741  0.2216
 2466SOL     OW 9861   0.280   0.781   4.187  0.1518  0.1345 -0.1122
 2466SOL    HW2 9862   0.195   0.812   4.218  0.0327 -0.4862  0.2034
 2466SOL    HW3 9863   0.295   0.700   4.236 -0.1040 -0.9501 -1.7731
 2466SOL    MW4 9864   0.271   0.774   4.197  0.1024 -0.0905 -0.2897
 2467SOL     OW 9865   0.030   0.830   4.308  0.1144  0.3396  0.0928
 2467SOL    HW2 9866  -0.041   0.785   4.262 -0.0064  1.2681 -0.6542
 2467SOL    HW3 9867   0.023   0.921   4.279  0.2043  0.8954  1.7615
 2467SOL    MW4 9868   0.019   0.836   4.298  0.1103  0.5354  0.2144
 2468SOL     OW 9869   0.033   1.096   4.242  0.7155 -0.6977 -0.0374
 2468SOL    HW2 9870   0.102   1.151   4.279 -0.9580  0.3778  1.5801
 2468SOL    HW3 9871   0.040   1.108   4.148  3.5339 -1.5968  0.0168
 2468SOL    MW4 9872   0.043   1.104   4.235  0.8666 -0.6744  0.1832
 2469SOL     OW 9873   0.228   1.301   4.302 -0.0939 -0.2686 -0.1039
 2469SOL    HW2 9874   0.242   1.321   4.395  0.5139 -0.7560 -0.0823
 2469SOL    HW3 9875   0.302   1.245   4.279 -0.7866 -0.9754 -0.6246
 2469SOL    MW4 9876   0.240   1.296   4.311 -0.1051 -0.4262 -0.1698
 2470SOL     OW 9877   0.163   1.383   4.587  0.0607  0.0422 -0.0324
 2470SOL    HW2 9878   0.143   1.477   4.581  1.1737  0.4098  1.5414
 2470SOL    HW3 9879   0.088   1.346   4.634 -0.3549  0.1450 -0.6064
 2470SOL    MW4 9880   0.150   1.391   4.593  0.1527  0.1043  0.0995
 2471SOL     OW 9881   0.227   1.578   4.213 -0.2193 -0.4087 -0.0847
 2471SOL    HW2 9882   0.198   1.489   4.234 -2.0573 -0.0998 -1.1781
 2471SOL    HW3 9883   0.160   1.635   4.251 -0.2367  0.3970 -1.3006
 2471SOL    MW4 9884   0.214   1.574   4.221 -0.4641 -0.2617 -0.3894
 2472SOL     OW 9885   0.239   2.062   4.323  0.0129 -0.6139 -0.2310
 2472SOL    HW2 9886   0.231   2.029   4.413 -0.1517 -0.0789 -0.0431
 2472SOL    HW3 9887   0.313   2.014   4.286  0.8706  0.0391  0.6026
 2472SOL    MW4 9888   0.248   2.051   4.330  0.1043 -0.4571 -0.0962
 2473SOL     OW 9889   0.476   1.911   4.637  0.4655 -0.4367 -0.0403
 2473SOL    HW2 9890   0.391   1.908   4.593  0.8483  1.0671 -0.9282
 2473SOL    HW3 9891   0.514   1.825   4.621  0.0451 -0.3550 -1.5957
 2473SOL    MW4 9892   0.470   1.899   4.629  0.4606 -0.2275 -0.3626
 2474SOL     OW 9893   0.224   2.302   4.182 -0.1121 -0.2132 -0.7975
 2474SOL    HW2 9894   0.289   2.338   4.242  1.7407 -1.6883 -1.8746
 2474SOL    HW3 9895   0.191   2.224   4.227 -1.3726  0.6712 -0.1398
 2474SOL    MW4 9896   0.228   2.297   4.196 -0.0339 -0.2911 -0.8528
 2475SOL     OW 9897   0.008   2.468   4.247  0.2138  0.5521 -0.0650
 2475SOL    HW2 9898  -0.063   2.423   4.201 -1.0247  0.9626  1.4124
 2475SOL    HW3 9899   0.084   2.410   4.235 -0.6905 -0.5637 -0.5200
 2475SOL    MW4 9900   0.009   2.454   4.240 -0.0689  0.4590  0.0699
 2476SOL     OW 9901   4.470   2.729   4.161  0.0193  0.3141 -0.2998
 2476SOL    HW2 9902   4.554   2.761   4.192 -0.4570  0.6249  0.7052
 2476SOL    HW3 9903   4.467   2.638   4.192  0.1195  0.2054 -0.6084
 2476SOL    MW4 9904   4.480   2.721   4.170 -0.0303  0.3407 -0.2079
 2477SOL     OW 9905   0.217   2.849   4.229 -0.1078  0.1152  0.7298
 2477SOL    HW2 9906   0.297   2.798   4.228  0.6431  1.2846  0.4893
 2477SOL    HW3 9907   0.240   2.932   4.188 -1.5444  0.3130  0.2687
 2477SOL    MW4 9908   0.230   2.853   4.224 -0.1983  0.2956  0.6372
 2478SOL     OW 9909   0.298   3.103   4.169 -0.5272  0.1861 -0.2684
 2478SOL    HW2 9910   0.363   3.141   4.229 -0.6255 -0.4416  0.2397
 2478SOL    HW3 9911   0.218   3.153   4.187 -0.1183  1.1771 -1.1214
 2478SOL    MW4 9912   0.296   3.115   4.180 -0.4862  0.2341 -0.3139
 2479SOL     OW 9913   0.044   3.229   4.274  0.0634 -0.0728 -0.2537
 2479SOL    HW2 9914  -0.037   3.202   4.230  0.0292 -0.6809  0.1794
 2479SOL    HW3 9915   0.044   3.325   4.267 -1.0897 -0.0063  0.4187
 2479SOL    MW4 9916   0.033   3.238   4.267 -0.0932 -0.1442 -0.1078
 2480SOL     OW 9917   0.030   3.503   4.238  0.0167  0.1647  0.0178
 2480SOL    HW2 9918  -0.058   3.537   4.257 -0.1913 -0.7317  0.7327
 2480SOL    HW3 9919   0.034   3.500   4.143 -0.4482  0.9333 -0.0303
 2480SOL    MW4 9920   0.019   3.507   4.228 -0.0721  0.1478  0.1058
 2481SOL     OW 9921   0.242   3.649   4.305 -0.2777  0.0578 -0.0577
 2481SOL    HW2 9922   0.305   3.584   4.275  0.0919 -0.1336  1.1158
 2481SOL    HW3 9923   0.157   3.613   4.277  0.0006 -0.4430 -0.2814
 2481SOL    MW4 9924   0.239   3.635   4.297 -0.1922 -0.0335  0.0676
 2482SOL     OW 9925   0.243   3.903   4.188 -0.0529  0.1113  0.1177
 2482SOL    HW2 9926   0.180   3.953   4.239  1.7594  1.7492  0.8149
 2482SOL    HW3 9927   0.240   3.815   4.225 -0.4315  0.6961  1.4844
 2482SOL    MW4 9928   0.234   3.898   4.199  0.1363  0.4045  0.3900
 2483SOL     OW 9929   0.032   4.019   4.311 -0.0717  0.2463  0.5358
 2483SOL    HW2 9930   0.007   4.021   4.403 -0.4880 -1.2650  0.4712
 2483SOL    HW3 9931  -0.039   3.972   4.268  0.6819 -0.0773 -0.3732
 2483SOL    MW4 9932   0.019   4.013   4.318 -0.0272  0.0042  0.4073
 2484SOL     OW 9933   4.491   4.270   4.185 -0.3041  0.2915  0.1363
 2484SOL    HW2 9934   4.508   4.183   4.220 -1.3082  0.4563  1.0512
 2484SOL    HW3 9935   4.486   4.257   4.090  0.1923 -0.5388  0.2256
 2484SOL    MW4 9936   4.492   4.257   4.177 -0.3711  0.2037  0.2688
 2485SOL     OW 9937   0.244   4.383   4.252 -0.5257  0.8081 -0.0164
 2485SOL    HW2 9938   0.234   4.417   4.341  0.8848  1.3726 -0.0613
 2485SOL    HW3 9939   0.158   4.345   4.231 -0.6032 -0.1513  1.9097
 2485SOL    MW4 9940   0.231   4.382   4.261 -0.3499  0.7560  0.2318
 2486SOL     OW 9941   0.689   4.634   4.147  0.0703  0.0537 -0.2736
 2486SOL    HW2 9942   0.611   4.674   4.187 -0.6216  0.3224 -1.8643
 2486SOL    HW3 9943   0.679   4.651   4.054  1.5957 -0.7130 -0.5796
 2486SOL    MW4 9944   0.677   4.641   4.140  0.1803 -0.0120 -0.5239
 2487SOL     OW 9945   0.506   0.106   4.314  0.2626  0.1269  0.0193
 2487SOL    HW2 9946   0.561   0.102   4.392 -0.8728 -0.3527  0.7921
 2487SOL    HW3 9947   0.510   0.198   4.286  0.3011  0.3915  0.8956
 2487SOL    MW4 9948   0.514   0.118   4.320  0.1179  0.0985  0.2369
 2488SOL     OW 9949   0.492   0.361   4.191 -0.2608 -0.2239 -0.3479
 2488SOL    HW2 9950   0.575   0.408   4.197 -0.1246 -0.4874 -0.1649
 2488SOL    HW3 9951   0.474   0.357   4.097  0.8300 -1.7319 -0.5134
 2488SOL    MW4 9952   0.501   0.367   4.179 -0.0989 -0.4577 -0.3456
 2489SOL     OW 9953   0.761   0.467   4.266  0.1008 -0.3449  0.2159
 2489SOL    HW2 9954   0.834   0.428   4.219  0.2985  0.1679  0.0896
 2489SOL    HW3 9955   0.763   0.559   4.241 -2.0410 -0.7702 -1.6497
 2489SOL    MW4 9956   0.771   0.474   4.257 -0.1557 -0.3334 -0.0469
 2490SOL     OW 9957   0.764   0.737   4.173 -0.3244 -0.0320  0.0262
 2490SOL    HW2 9958   0.686   0.780   4.209 -0.6098  0.2678 -0.9562
 2490SOL    HW3 9959   0.759   0.753   4.079  0.8421 -0.1522 -0.0559
 2490SOL    MW4 9960   0.753   0.745   4.166 -0.2082 -0.0083 -0.1143
 2491SOL     OW 9961   0.549   0.867   4.271 -0.0296  0.0547  0.1975
 2491SOL    HW2 9962   0.533   0.959   4.252  0.0025  0.1975  0.8316
 2491SOL    HW3 9963   0.471   0.822   4.239 -0.2101  0.3497  0.2219
 2491SOL    MW4 9964   0.537   0.873   4.265 -0.0492  0.1124  0.2844
 2492SOL     OW 9965   0.434   1.117   4.219 -0.3015  0.0852  0.5031
 2492SOL    HW2 9966   0.517   1.161   4.238  0.2098  0.4975 -2.4266
 2492SOL    HW3 9967   0.433   1.108   4.124 -2.2322 -2.6849  0.7233
 2492SOL    MW4 9968   0.445   1.122   4.209 -0.4888 -0.2259  0.1456
 2493SOL     OW 9969   0.675   1.238   4.291  0.4254  0.3814  0.1885
 2493SOL    HW2 9970   0.704   1.238   4.382 -0.4468  1.5258  0.4900
 2493SOL    HW3 9971   0.678   1.331   4.266 -0.3646  0.1957 -0.6057
 2493SOL    MW4 9972   0.679   1.250   4.300  0.2061  0.5079  0.1235
 2494SOL     OW 9973   0.693   1.522   4.217  0.5109 -0.0825  0.1317
 2494SOL    HW2 9974   0.776   1.558   4.248 -0.1720  0.5608  1.2557
 2494SOL    HW3 9975   0.701   1.520   4.122  0.5595  3.1094  0.0321
 2494SOL    MW4 9976   0.705   1.526   4.209  0.4272  0.4235  0.2668
 2495SOL     OW 9977   0.467   1.643   4.326  0.1338  0.1178 -0.3469
 2495SOL    HW2 9978   0.533   1.593   4.278 -0.3673 -3.0677  2.1389
 2495SOL    HW3 9979   0.383   1.613   4.290 -0.1559 -0.1912  0.5990
 2495SOL    MW4 9980   0.464   1.633   4.315  0.0294 -0.3432  0.1059
 2496SOL     OW 9981   0.459   1.910   4.234  0.1290  0.4167  0.1505
 2496SOL    HW2 9982   0.463   1.818   4.259  2.7905  0.5849  0.4314
 2496SOL    HW3 9983   0.453   1.909   4.138 -0.7022 -0.0285  0.1975
 2496SOL    MW4 9984   0.459   1.898   4.225  0.3705  0.3802  0.1938
 2497SOL     OW 9985   0.689   2.043   4.300  0.2241  0.0525 -0.2019
 2497SOL    HW2 9986   0.675   2.078   4.388  0.7516 -0.6496  0.1650
 2497SOL    HW3 9987   0.605   2.003   4.276  0.2443 -0.2296  0.2013
 2497SOL    MW4 9988   0.676   2.042   4.308  0.2964 -0.0773 -0.1003
 2498SOL     OW 9989   0.635   2.298   4.189 -0.4484 -0.2597 -0.2808
 2498SOL    HW2 9990   0.635   2.205   4.210 -2.5865 -0.2774 -0.2306
 2498SOL    HW3 9991   0.661   2.302   4.097  0.0823 -0.8608 -0.1619
 2498SOL    MW4 9992   0.638   2.286   4.179 -0.6605 -0.3414 -0.2585
 2499SOL     OW 9993   0.426   2.425   4.319 -0.0813  0.1731 -0.0036
 2499SOL    HW2 9994   0.434   2.512   4.280 -1.4976 -0.2619 -1.2973
 2499SOL    HW3 9995   0.501   2.376   4.285 -1.0973 -0.0899 -1.9760
 2499SOL    MW4 9996   0.437   2.430   4.309 -0.4022  0.0810 -0.4345
 2500SOL     OW 9997   0.451   2.699   4.246 -0.0476  0.3474 -0.4590
 2500SOL    HW2 9998   0.519   2.762   4.269 -0.4783  0.8641 -0.5808
 2500SOL    HW3 9999   0.477   2.665   4.161  0.6941 -0.3533  0.0535
 2500SOL    MW410000   0.463   2.703   4.238 -0.0066  0.3231 -0.4074
 2501SOL     OW10001   0.661   2.873   4.310  0.3809 -0.0189 -0.2824
 2501SOL    HW210002   0.699   2.894   4.395 -1.9134  0.7004  0.6053
 2501SOL    HW310003   0.645   2.958   4.269 -0.6691 -0.2697 -0.4243
 2501SOL    MW410004   0.664   2.887   4.316 -0.0603  0.0429 -0.1840
 2502SOL     OW10005   0.650   3.121   4.207  0.2659 -0.0505  0.0013
 2502SOL    HW210006   0.731   3.153   4.245 -0.0161  1.3345 -0.5373
 2502SOL    HW310007   0.581   3.155   4.265  0.0698 -1.1482  0.4133
 2502SOL    MW410008   0.651   3.130   4.220  0.2028 -0.0126 -0.0154
 2503SOL     OW10009   0.447   3.218   4.362 -0.1333  0.1248  0.0965
 2503SOL    HW210010   0.450   3.215   4.458  0.4148  0.5685  0.0951
 2503SOL    HW310011   0.441   3.311   4.341  0.3945  0.0712 -0.3131
 2503SOL    MW410012   0.447   3.229   4.372  0.0087  0.1763  0.0423
 2504SOL     OW10013   0.459   3.463   4.234 -0.6706  0.2527  0.2635
 2504SOL    HW210014   0.539   3.510   4.257  0.5181 -1.0771 -1.0948
 2504SOL    HW310015   0.458   3.463   4.139 -1.1548 -1.6326  0.2530
 2504SOL    MW410016   0.469   3.469   4.225 -0.5777 -0.1715  0.0829
 2505SOL     OW10017   0.718   3.611   4.327  0.0343 -0.2740 -0.1580
 2505SOL    HW210018   0.740   3.620   4.419 -0.2275 -0.1507 -0.1073
 2505SOL    HW310019   0.799   3.582   4.285  0.1892 -0.1877  0.0878
 2505SOL    MW410020   0.732   3.608   4.333  0.0202 -0.2463 -0.1189
 2506SOL     OW10021   0.681   3.830   4.163 -0.0258 -0.5430  0.1785
 2506SOL    HW210022   0.609   3.877   4.206 -0.2499 -0.8900  0.1814
 2506SOL    HW310023   0.694   3.752   4.217 -0.7817 -1.3369 -0.7875
 2506SOL    MW410024   0.673   3.826   4.176 -0.1551 -0.6935  0.0514
 2507SOL     OW10025   0.486   3.980   4.287 -0.1289  0.3355  0.0985
 2507SOL    HW210026   0.482   4.071   4.255  0.2932  0.2973 -0.0669
 2507SOL    HW310027   0.404   3.941   4.258 -0.1334  0.5529 -0.1902
 2507SOL    MW410028   0.475   3.987   4.279 -0.0738  0.3591  0.0386
 2508SOL     OW10029   0.451   4.239   4.179 -0.2965  0.4235 -0.3965
 2508SOL    HW210030   0.376   4.286   4.214 -0.0782  0.6387 -0.2154
 2508SOL    HW310031   0.444   4.248   4.084 -0.0124  1.1952 -0.3429
 2508SOL    MW410032   0.440   4.246   4.171 -0.2302  0.5537 -0.3655
 2509SOL     OW10033   0.688   4.377   4.263  0.1886 -0.0742 -0.1382
 2509SOL    HW210034   0.608   4.327   4.243  0.0287  0.6358 -1.2890
 2509SOL    HW310035   0.672   4.464   4.227  0.9659  0.4673  0.7829
 2509SOL    MW410036   0.675   4.382   4.256  0.2700  0.0909 -0.1685
 2510SOL     OW10037   1.127   4.642   4.171 -0.2071 -0.0735 -0.0047
 2510SOL    HW210038   1.101   4.557   4.207 -0.9367 -0.1951 -0.8018
 2510SOL    HW310039   1.147   4.623   4.079 -1.9202  0.9070 -0.5929
 2510SOL    MW410040   1.126   4.628   4.163 -0.5294  0.0398 -0.1875
 2511SOL     OW10041   0.890   0.141   4.228  0.0397  0.0686  0.2147
 2511SOL    HW210042   0.964   0.090   4.195 -0.6182 -0.7752  0.0040
 2511SOL    HW310043   0.813   0.099   4.188 -0.5716  0.7176  0.7016
 2511SOL    MW410044   0.889   0.128   4.218 -0.1278  0.0429  0.2511
 2512SOL     OW10045   0.973   0.365   4.090 -0.1986  0.3365 -0.4159
 2512SOL    HW210046   1.031   0.417   4.145 -1.7653  0.9595  0.6799
 2512SOL    HW310047   0.960   0.283   4.138 -0.1437  0.1478 -0.7166
 2512SOL    MW410048   0.979   0.361   4.104 -0.3981  0.3938 -0.3110
 2513SOL     OW10049   1.158   0.492   4.266 -0.8102 -0.0505 -0.0428
 2513SOL    HW210050   1.160   0.466   4.358 -4.0382  0.0704  0.1389
 2513SOL    HW310051   1.233   0.449   4.226  0.1650 -0.7571  2.4786
 2513SOL    MW410052   1.168   0.483   4.273 -1.1074 -0.1278  0.3138
 2514SOL     OW10053   1.190   0.771   4.188 -0.3963 -0.1718 -0.0745
 2514SOL    HW210054   1.262   0.813   4.235 -0.4145 -0.0185 -0.1861
 2514SOL    HW310055   1.199   0.678   4.211  0.0288 -0.2001 -0.3415
 2514SOL    MW410056   1.201   0.764   4.197 -0.3426 -0.1553 -0.1245
 2515SOL     OW10057   0.962   0.869   4.322  0.5541 -0.5751  0.3521
 2515SOL    HW210058   1.049   0.841   4.294 -0.0675 -0.4367 -1.8257
 2515SOL    HW310059   0.901   0.816   4.269 -0.6597  0.3059  0.8329
 2515SOL    MW410060   0.965   0.859   4.311  0.3119 -0.4406  0.1282
 2516SOL     OW10061   0.903   1.108   4.200 -0.0596  0.2338 -0.1440
 2516SOL    HW210062   0.917   1.026   4.247  0.5639 -1.1033 -2.5546
 2516SOL    HW310063   0.819   1.140   4.232  1.0490  0.1917  2.9699
 2516SOL    MW410064   0.894   1.101   4.210  0.1689  0.0518 -0.0512
 2517SOL     OW10065   1.130   1.249   4.275 -0.6644 -0.1207 -0.0563
 2517SOL    HW210066   1.119   1.206   4.360 -0.8044 -1.4138 -0.7135
 2517SOL    HW310067   1.048   1.231   4.229 -0.4280  0.2199 -0.6155
 2517SOL    MW410068   1.118   1.241   4.280 -0.6517 -0.2464 -0.2168
 2518SOL     OW10069   1.161   1.530   4.222  0.8337  0.2708  0.1562
 2518SOL    HW210070   1.077   1.573   4.238 -0.0902 -0.9417 -1.3929
 2518SOL    HW310071   1.140   1.436   4.220  2.0873  0.0144 -1.0658
 2518SOL    MW410072   1.147   1.523   4.224  0.8772  0.0770 -0.2094
 2519SOL     OW10073   0.931   1.648   4.286 -0.4297  0.0335 -0.2269
 2519SOL    HW210074   0.920   1.665   4.380  1.1213 -0.9026  0.1507
 2519SOL    HW310075   0.901   1.728   4.243 -1.1252  0.4820  1.0667
 2519SOL    MW410076   0.926   1.661   4.293 -0.3168 -0.0308 -0.0064
 2520SOL     OW10077   0.910   1.910   4.170  0.7208  0.5056  0.4925
 2520SOL    HW210078   0.834   1.959   4.200  0.1949 -0.0151  0.0189
 2520SOL    HW310079   0.907   1.917   4.075  0.1976 -1.0821  0.3796
 2520SOL    MW410080   0.900   1.917   4.161  0.5824  0.2274  0.4151
 2521SOL     OW10081   1.116   2.061   4.273  0.5069 -0.3166 -0.6487
 2521SOL    HW210082   1.125   2.044   4.367 -0.7464  2.3069 -0.0244
 2521SOL    HW310083   1.051   1.997   4.244 -0.3007 -0.0941  0.6123
 2521SOL    MW410084   1.109   2.050   4.281  0.2350  0.0589 -0.3999
 2522SOL     OW10085   1.053   2.316   4.147  0.3089 -0.2041 -0.0610
 2522SOL    HW210086   1.137   2.362   4.151  0.8357 -1.1277 -0.4388
 2522SOL    HW310087   1.070   2.231   4.189 -1.2665  0.8238  2.7819
 2522SOL    MW410088   1.066   2.311   4.153  0.1706 -0.1904  0.2643
 2523SOL     OW10089   0.847   2.427   4.323 -0.2963  0.4265  0.1011
 2523SOL    HW210090   0.920   2.381   4.279 -0.1631  0.7545 -0.0213
 2523SOL    HW310091   0.770   2.402   4.272 -0.3800 -0.5476  0.7004
 2523SOL    MW410092   0.847   2.417   4.310 -0.2897  0.3412  0.1640
 2524SOL     OW10093   0.879   2.728   4.217  0.1153  0.3500  0.5878
 2524SOL    HW210094   0.877   2.638   4.252  0.5612  0.2355  0.3208
 2524SOL    HW310095   0.794   2.765   4.242 -0.4692 -0.4737 -0.1460
 2524SOL    MW410096   0.868   2.721   4.225  0.0970  0.2262  0.4558
 2525SOL     OW10097   1.096   2.839   4.338  0.1216  0.0221  0.3186
 2525SOL    HW210098   1.112   2.929   4.309 -0.7019 -0.0406 -0.3728
 2525SOL    HW310099   1.016   2.814   4.292  1.7450 -1.9696 -1.5291
 2525SOL    MW410100   1.087   2.848   4.328  0.2271 -0.2489 -0.0164
 2526SOL     OW10101   1.143   3.078   4.216  0.4107  0.2194 -0.0060
 2526SOL    HW210102   1.215   3.133   4.246  1.2579 -0.7450 -0.2480
 2526SOL    HW310103   1.151   3.078   4.120  0.4383 -0.3407 -0.0068
 2526SOL    MW410104   1.153   3.086   4.207  0.5262  0.0183 -0.0380
 2527SOL     OW10105   0.901   3.201   4.311 -0.3398  0.2094  0.1049
 2527SOL    HW210106   0.904   3.186   4.406 -1.4776 -0.1016  0.0950
 2527SOL    HW310107   0.971   3.145   4.277 -0.1736  0.0296  0.7259
 2527SOL    MW410108   0.911   3.191   4.319 -0.4680  0.1446  0.1855
 2528SOL     OW10109   0.908   3.486   4.188 -0.0814  0.0210 -0.3130
 2528SOL    HW210110   0.884   3.395   4.205  1.0005 -0.2694 -0.3408
 2528SOL    HW310111   0.904   3.494   4.093 -2.7322  0.7152 -0.1714
 2528SOL    MW410112   0.904   3.475   4.178 -0.2884  0.0743 -0.2980
 2529SOL     OW10113   1.145   3.634   4.269 -0.3862  0.4841  0.2787
 2529SOL    HW210114   1.128   3.709   4.212 -0.1170 -0.4280 -1.0101
 2529SOL    HW310115   1.064   3.584   4.268 -0.2251  0.2195  0.3130
 2529SOL    MW410116   1.132   3.637   4.262 -0.3294  0.3289  0.1132
 2530SOL     OW10117   1.097   3.865   4.126 -0.5617 -0.5974 -0.2761
 2530SOL    HW210118   1.181   3.910   4.126 -0.2816 -1.1118 -0.4439
 2530SOL    HW310119   1.034   3.930   4.156  0.0635 -0.5319  0.9110
 2530SOL    MW410120   1.100   3.879   4.130 -0.4423 -0.6566 -0.1416
 2531SOL     OW10121   0.895   4.015   4.237  0.0907 -0.1084 -0.0057
 2531SOL    HW210122   0.882   4.092   4.180 -0.4773 -0.3979 -0.2726
 2531SOL    HW310123   0.821   3.958   4.217  0.9533 -1.1137 -0.4310
 2531SOL    MW410124   0.884   4.018   4.227  0.1296 -0.2792 -0.0970
 2532SOL     OW10125   0.897   4.255   4.123  0.3080 -0.7559 -0.6250
 2532SOL    HW210126   0.976   4.287   4.168  0.3186  1.2936 -2.0261
 2532SOL    HW310127   0.828   4.315   4.149 -0.3609 -1.3657 -0.9684
 2532SOL    MW410128   0.899   4.267   4.133  0.2212 -0.5660 -0.8551
 2533SOL     OW10129   1.119   4.377   4.258  0.1377  0.1732  0.2628
 2533SOL    HW210130   1.145   4.340   4.343 -0.1570 -2.1177 -0.6126
 2533SOL    HW310131   1.187   4.347   4.197  0.2280  1.6246 -0.3595
 2533SOL    MW410132   1.131   4.368   4.261  0.1108  0.0624  0.0652
 2534SOL     OW10133   1.574   4.611   4.126  0.6552  0.0585 -0.3205
 2534SOL    HW210134   1.660   4.644   4.150  0.9239 -1.3995  0.7894
 2534SOL    HW310135   1.513   4.660   4.183  0.9854 -0.7971  0.7851
 2534SOL    MW410136   1.577   4.622   4.137  0.7343 -0.2468 -0.0281
 2535SOL     OW10137   1.365   0.052   4.265 -0.3770 -0.3845  0.8366
 2535SOL    HW210138   1.377   0.029   4.358  1.0852 -0.2994  0.6723
 2535SOL    HW310139   1.275   0.026   4.246 -0.5675 -0.7565  2.1862
 2535SOL    MW410140   1.355   0.045   4.275 -0.2092 -0.4224  0.9930
 2536SOL     OW10141   1.378   0.334   4.181  0.1653  0.0518  0.3686
 2536SOL    HW210142   1.444   0.385   4.228 -0.1803  0.4829  0.3932
 2536SOL    HW310143   1.376   0.250   4.226  0.8365 -0.0370  0.2459
 2536SOL    MW410144   1.386   0.330   4.193  0.2082  0.0970  0.3556
 2537SOL     OW10145   1.563   0.501   4.322  0.2235  0.7376 -0.2474
 2537SOL    HW210146   1.549   0.538   4.409 -1.3724 -0.3817 -0.0135
 2537SOL    HW310147   1.577   0.578   4.266 -1.5279  1.6519  0.5118
 2537SOL    MW410148   1.563   0.516   4.326 -0.2181  0.7106 -0.1164
 2538SOL     OW10149   1.575   0.733   4.169  0.6411 -0.5268 -0.3448
 2538SOL    HW210150   1.659   0.769   4.199  0.0609  1.7445 -1.3288
 2538SOL    HW310151   1.571   0.757   4.076 -1.9308  1.0879  0.1304
 2538SOL    MW410152   1.586   0.741   4.161  0.2252 -0.0141 -0.4119
 2539SOL     OW10153   1.414   0.896   4.295  0.6223 -0.1204  0.8595
 2539SOL    HW210154   1.406   0.976   4.243 -0.7132 -0.3548  0.7027
 2539SOL    HW310155   1.472   0.840   4.243 -1.2474 -0.6324 -0.7559
 2539SOL    MW410156   1.421   0.899   4.281  0.1994 -0.2188  0.6257
 2540SOL     OW10157   1.381   1.157   4.182 -0.1032 -0.1086  0.7620
 2540SOL    HW210158   1.303   1.200   4.217 -1.6434 -2.9568  0.9653
 2540SOL    HW310159   1.372   1.165   4.087 -1.3670 -1.6060  0.7402
 2540SOL    MW410160   1.369   1.164   4.174 -0.4732 -0.6820  0.7860
 2541SOL     OW10161   1.608   1.322   4.243  0.1262 -0.3665  0.1664
 2541SOL    HW210162   1.604   1.309   4.338 -0.8514  0.3755  0.2334
 2541SOL    HW310163   1.538   1.267   4.208 -0.2058  0.1786 -0.0323
 2541SOL    MW410164   1.598   1.313   4.251 -0.0466 -0.1967  0.1490
 2542SOL     OW10165   1.575   1.613   4.230  0.1936 -0.2132 -0.0162
 2542SOL    HW210166   1.504   1.638   4.289 -1.5880 -1.3986 -1.5583
 2542SOL    HW310167   1.591   1.521   4.249  1.7843  0.2110  0.7584
 2542SOL    MW410168   1.568   1.604   4.240  0.1684 -0.3136 -0.1175
 2543SOL     OW10169   1.344   1.694   4.357 -0.1716 -0.2423 -0.1961
 2543SOL    HW210170   1.340   1.779   4.312  0.5424 -0.4768 -0.7100
 2543SOL    HW310171   1.273   1.643   4.318 -0.6320  0.1373  0.1471
 2543SOL    MW410172   1.334   1.699   4.346 -0.1382 -0.2232 -0.2186
 2544SOL     OW10173   1.340   1.916   4.185  0.0562  0.1970  0.0999
 2544SOL    HW210174   1.419   1.956   4.223  0.0122 -0.9140  1.3740
 2544SOL    HW310175   1.268   1.968   4.221 -0.0056 -1.0465  1.8138
 2544SOL    MW410176   1.341   1.928   4.195  0.0423 -0.1137  0.4941
 2545SOL     OW10177   1.576   2.056   4.302  0.3094 -0.0651  0.1460
 2545SOL    HW210178   1.579   2.057   4.398 -1.2129 -0.2170  0.2030
 2545SOL    HW310179   1.556   2.147   4.278 -0.3487 -0.2478  0.0105
 2545SOL    MW410180   1.574   2.068   4.312  0.0217 -0.1092  0.1356
 2546SOL     OW10181   1.543   2.322   4.250 -0.4095  0.6053  0.3315
 2546SOL    HW210182   1.608   2.375   4.296  0.9491  0.0477 -0.8770
 2546SOL    HW310183   1.570   2.326   4.158 -0.1910 -2.2282  0.2164
 2546SOL    MW410184   1.555   2.329   4.244 -0.2014  0.1579  0.1569
 2547SOL     OW10185   1.282   2.469   4.241 -0.1063 -0.3838  0.0871
 2547SOL    HW210186   1.293   2.564   4.236  1.3089 -0.3868  2.4977
 2547SOL    HW310187   1.367   2.433   4.215 -0.3704 -0.9804  0.0445
 2547SOL    MW410188   1.294   2.477   4.237  0.0456 -0.4629  0.3996
 2548SOL     OW10189   1.332   2.740   4.234 -0.2893  0.0884 -0.1391
 2548SOL    HW210190   1.408   2.791   4.263 -0.0359 -0.7220  0.6515
 2548SOL    HW310191   1.257   2.791   4.263 -0.0379 -0.5501  1.6975
 2548SOL    MW410192   1.332   2.753   4.242 -0.2227 -0.1027  0.2075
 2549SOL     OW10193   1.567   2.844   4.299 -0.7838 -0.0592  0.1808
 2549SOL    HW210194   1.588   2.847   4.392 -0.7595 -0.8921  0.2044
 2549SOL    HW310195   1.574   2.935   4.270 -1.8102  0.3635  1.2199
 2549SOL    MW410196   1.570   2.857   4.308 -0.9160 -0.1133  0.3210
 2550SOL     OW10197   1.596   3.093   4.184 -0.0017 -0.6028  0.0590
 2550SOL    HW210198   1.667   3.129   4.237  0.2384  1.0218 -1.3628
 2550SOL    HW310199   1.517   3.137   4.217 -0.0349 -0.6013 -0.0236
 2550SOL    MW410200   1.595   3.103   4.196  0.0256 -0.3883 -0.1395
 2551SOL     OW10201   1.377   3.233   4.299 -0.2443 -0.5277 -0.4189
 2551SOL    HW210202   1.408   3.246   4.388  0.3649  0.4817 -0.7636
 2551SOL    HW310203   1.356   3.322   4.268  0.2056 -0.7916 -1.5087
 2551SOL    MW410204   1.378   3.247   4.307 -0.1046 -0.4293 -0.6082
 2552SOL     OW10205   1.345   3.489   4.141 -0.3271 -0.3065 -0.3123
 2552SOL    HW210206   1.276   3.547   4.172 -0.3728 -0.2691 -0.4859
 2552SOL    HW310207   1.337   3.490   4.046  0.2157  0.0765 -0.3595
 2552SOL    MW410208   1.335   3.497   4.133 -0.2615 -0.2511 -0.3414
 2553SOL     OW10209   1.538   3.599   4.285 -0.0669 -0.1695  0.0267
 2553SOL    HW210210   1.510   3.586   4.375  0.7034  1.3445  0.5064
 2553SOL    HW310211   1.471   3.556   4.232 -0.0536 -1.8557  1.3403
 2553SOL    MW410212   1.526   3.591   4.290  0.0365 -0.1922  0.2633
 2554SOL     OW10213   1.587   3.822   4.133 -0.4452  0.8255  0.2038
 2554SOL    HW210214   1.507   3.873   4.139  0.1848  1.7884  0.5028
 2554SOL    HW310215   1.568   3.741   4.181 -1.0316  1.2952  0.7628
 2554SOL    MW410216   1.574   3.818   4.140 -0.4394  1.0145  0.3170
 2555SOL     OW10217   1.350   3.971   4.151  0.2689  0.3630 -0.2173
 2555SOL    HW210218   1.337   3.966   4.246  1.0422 -0.2607 -0.1456
 2555SOL    HW310219   1.359   4.065   4.133  0.9475  0.4223  0.4330
 2555SOL    MW410220   1.349   3.983   4.161  0.4605  0.2886 -0.1220
 2556SOL     OW10221   1.330   4.267   4.140 -0.1688  0.0614  0.0392
 2556SOL    HW210222   1.409   4.311   4.172  0.3067 -1.0836  0.4555
 2556SOL    HW310223   1.338   4.267   4.045  0.1013  0.3621  0.0627
 2556SOL    MW410224   1.341   4.273   4.132 -0.0705 -0.0500  0.0972
 2557SOL     OW10225   1.572   4.354   4.231 -0.3307  0.6898  0.0193
 2557SOL    HW210226   1.587   4.443   4.199 -0.1369  0.5397 -0.3049
 2557SOL    HW310227   1.645   4.303   4.196 -0.5162  0.3736  0.0918
 2557SOL    MW410228   1.584   4.359   4.222 -0.3296  0.6283 -0.0139
 2558SOL     OW10229   2.023   4.634   4.209  0.1954 -0.2723  0.1954
 2558SOL    HW210230   1.945   4.688   4.226  1.8119  1.8377  1.0900
 2558SOL    HW310231   2.026   4.628   4.113 -1.2547 -0.6789  0.1545
 2558SOL    MW410232   2.013   4.640   4.199  0.2174 -0.0476  0.3080
 2559SOL     OW10233   1.775   0.090   4.267  0.2199  0.7750  0.2710
 2559SOL    HW210234   1.728   0.073   4.349 -0.6072  0.7750 -0.1999
 2559SOL    HW310235   1.775   0.186   4.259 -0.6296  0.7333 -0.2636
 2559SOL    MW410236   1.769   0.101   4.277 -0.0013  0.7695  0.1384
 2560SOL     OW10237   1.782   0.357   4.159  0.0992  0.2144  0.4306
 2560SOL    HW210238   1.875   0.381   4.168  0.1554  0.8908 -1.7309
 2560SOL    HW310239   1.737   0.415   4.220  1.0158  0.5380  0.8138
 2560SOL    MW410240   1.788   0.368   4.168  0.2275  0.3464  0.1960
 2561SOL     OW10241   2.033   0.447   4.232 -0.0473 -0.1254 -0.0474
 2561SOL    HW210242   2.028   0.437   4.327 -1.7931 -0.8990 -0.2066
 2561SOL    HW310243   2.124   0.425   4.211  0.4579  0.3867  1.4663
 2561SOL    MW410244   2.044   0.443   4.242 -0.2110 -0.1599  0.1313
 2562SOL     OW10245   2.039   0.732   4.194 -0.0333 -0.2423 -0.3423
 2562SOL    HW210246   2.124   0.768   4.219 -0.6949  0.2770  1.2170
 2562SOL    HW310247   2.046   0.638   4.213 -0.0666 -0.0721  0.5182
 2562SOL    MW410248   2.051   0.724   4.200 -0.1250 -0.1513 -0.0230
 2563SOL     OW10249   1.805   0.867   4.256  0.4381 -0.5863 -0.1056
 2563SOL    HW210250   1.811   0.961   4.240  1.5395 -0.5809  0.2755
 2563SOL    HW310251   1.889   0.832   4.226 -0.2246 -1.5465 -0.8720
 2563SOL    MW410252   1.817   0.875   4.250  0.4960 -0.7123 -0.1564
 2564SOL     OW10253   1.832   1.148   4.215  0.1821 -0.0523  0.0069
 2564SOL    HW210254   1.905   1.189   4.261  0.2679 -2.1238  1.8063
 2564SOL    HW310255   1.757   1.204   4.235  0.8140  0.7606  0.1376
 2564SOL    MW410256   1.831   1.161   4.224  0.2768 -0.2184  0.2616
 2565SOL     OW10257   2.054   1.267   4.329 -0.0200 -0.2646  0.7669
 2565SOL    HW210258   2.129   1.245   4.274 -0.2435 -0.1156  0.4024
 2565SOL    HW310259   2.031   1.356   4.305 -1.5948 -1.0079 -0.6162
 2565SOL    MW410260   2.061   1.276   4.319 -0.2572 -0.3430  0.5364
 2566SOL     OW10261   2.015   1.521   4.226  0.0736  0.4026 -0.2829
 2566SOL    HW210262   2.090   1.569   4.259 -0.0477  1.8716 -2.0166
 2566SOL    HW310263   2.014   1.540   4.132 -1.4747 -0.9497 -0.5693
 2566SOL    MW410264   2.025   1.530   4.218 -0.1467  0.4180 -0.5495
 2567SOL     OW10265   1.818   1.691   4.315 -0.5922 -0.1354  0.0610
 2567SOL    HW210266   1.876   1.625   4.277 -1.0708 -0.0000 -0.8979
 2567SOL    HW310267   1.730   1.664   4.289 -0.8713  0.3222  0.5147
 2567SOL    MW410268   1.814   1.678   4.307 -0.6921 -0.0571 -0.0057
 2568SOL     OW10269   1.783   1.934   4.196  0.1923  0.4804 -0.2501
 2568SOL    HW210270   1.790   1.850   4.242  1.6737  1.2997  1.0536
 2568SOL    HW310271   1.713   1.980   4.242  0.8392  0.8132  0.3983
 2568SOL    MW410272   1.775   1.929   4.208  0.4731  0.6324  0.0074
 2569SOL     OW10273   2.019   2.031   4.294  0.1915  0.4069  0.2182
 2569SOL    HW210274   2.079   1.977   4.242 -1.0399 -2.0385  1.3013
 2569SOL    HW310275   1.932   1.997   4.274 -0.4869  1.0360  2.0302
 2569SOL    MW410276   2.016   2.020   4.284 -0.0605  0.1673  0.6002
 2570SOL     OW10277   1.978   2.282   4.205 -0.5310 -0.0957 -0.1170
 2570SOL    HW210278   1.994   2.194   4.239  1.5013  0.1137 -0.4430
 2570SOL    HW310279   1.980   2.272   4.110  0.9559  0.4820 -0.1659
 2570SOL    MW410280   1.980   2.269   4.197 -0.0667  0.0082 -0.1665
 2571SOL     OW10281   1.783   2.455   4.317  0.1046  0.0097  0.4183
 2571SOL    HW210282   1.787   2.476   4.410 -1.3455 -2.7483  1.1731
 2571SOL    HW310283   1.862   2.404   4.301  0.9813  1.5379 -0.1700
 2571SOL    MW410284   1.794   2.451   4.327  0.0289 -0.1526  0.4403
 2572SOL     OW10285   1.807   2.720   4.197  0.1474 -0.1294 -0.0572
 2572SOL    HW210286   1.812   2.627   4.219 -0.4915 -0.7560 -2.4230
 2572SOL    HW310287   1.726   2.750   4.237 -0.5762 -1.0340 -0.8233
 2572SOL    MW410288   1.797   2.711   4.205 -0.0324 -0.3314 -0.4704
 2573SOL     OW10289   2.045   2.833   4.270  0.2692 -0.3186 -0.1107
 2573SOL    HW210290   2.045   2.829   4.365 -0.5865 -1.0142 -0.1281
 2573SOL    HW310291   1.956   2.807   4.245  0.3333  0.3327 -1.0797
 2573SOL    MW410292   2.033   2.829   4.279  0.1648 -0.3245 -0.2409
 2574SOL     OW10293   2.008   3.100   4.187 -0.5255 -0.4312 -0.1201
 2574SOL    HW210294   2.006   3.008   4.216  1.2715 -0.4002  0.1791
 2574SOL    HW310295   2.012   3.094   4.091  3.4587 -0.8058 -0.0002
 2574SOL    MW410296   2.008   3.087   4.178  0.2372 -0.4766 -0.0648
 2575SOL     OW10297   1.800   3.222   4.328 -0.3353  0.1761 -0.5377
 2575SOL    HW210298   1.797   3.309   4.289 -1.0084  0.0560 -0.7576
 2575SOL    HW310299   1.880   3.183   4.293 -1.3010 -0.2009 -2.3629
 2575SOL    MW410300   1.810   3.228   4.319 -0.5515  0.1105 -0.8076
 2576SOL     OW10301   1.796   3.478   4.227 -0.0135 -0.0765 -0.0505
 2576SOL    HW210302   1.718   3.513   4.270 -0.1904 -0.5790  0.0435
 2576SOL    HW310303   1.773   3.475   4.134 -0.5270 -1.2787  0.0983
 2576SOL    MW410304   1.782   3.482   4.220 -0.1046 -0.3014 -0.0185
 2577SOL     OW10305   2.022   3.606   4.331 -0.3953  0.2953  0.8304
 2577SOL    HW210306   2.018   3.697   4.302  0.7961  0.7316  1.9838
 2577SOL    HW310307   1.944   3.565   4.294 -0.0828  1.3750 -1.0907
 2577SOL    MW410308   2.011   3.612   4.322 -0.1969  0.4953  0.7291
 2578SOL     OW10309   2.019   3.867   4.249  0.1009  0.1170  0.1065
 2578SOL    HW210310   1.927   3.893   4.257 -0.3184 -1.0020 -0.9059
 2578SOL    HW310311   2.037   3.872   4.155  0.9970  0.0638  0.2741
 2578SOL    MW410312   2.009   3.871   4.237  0.1638 -0.0377 -0.0049
 2579SOL     OW10313   1.771   3.966   4.268  0.0799  0.2140 -0.2461
 2579SOL    HW210314   1.778   4.054   4.230  0.9520 -0.1976 -1.0384
 2579SOL    HW310315   1.707   3.921   4.213  0.4011  0.0218 -0.4615
 2579SOL    MW410316   1.763   3.972   4.256  0.2374  0.1343 -0.3790
 2580SOL     OW10317   1.780   4.216   4.169 -0.2351 -0.2209 -0.2841
 2580SOL    HW210318   1.847   4.275   4.203  0.8081 -1.5930  0.1021
 2580SOL    HW310319   1.788   4.223   4.073  0.5235 -0.4662 -0.2354
 2580SOL    MW410320   1.790   4.225   4.161  0.0026 -0.4343 -0.2267
 2581SOL     OW10321   2.003   4.365   4.297  0.1004  0.1220  0.3490
 2581SOL    HW210322   2.052   4.359   4.379 -0.6538  1.1212  0.8808
 2581SOL    HW310323   2.007   4.458   4.273 -0.2667 -0.0460 -0.3861
 2581SOL    MW410324   2.010   4.377   4.304 -0.0475  0.2317  0.3222
 2582SOL     OW10325   2.476   4.604   4.181 -0.3926  0.1145  0.4744
 2582SOL    HW210326   2.551   4.646   4.222 -0.2020  0.6606 -0.4082
 2582SOL    HW310327   2.473   4.516   4.219  0.4033  0.2551  0.8653
 2582SOL    MW410328   2.485   4.598   4.191 -0.2624  0.2051  0.4096
 2583SOL     OW10329   2.272   0.112   4.274 -0.1095 -1.1059  0.1329
 2583SOL    HW210330   2.337   0.051   4.239  1.2299  0.7870 -0.7232
 2583SOL    HW310331   2.188   0.078   4.242  0.7291 -1.7358 -1.4630
 2583SOL    MW410332   2.270   0.099   4.266  0.1778 -0.9393 -0.1906
 2584SOL     OW10333   2.296   0.391   4.171 -0.2280 -0.0479 -0.2300
 2584SOL    HW210334   2.311   0.305   4.209 -2.8936 -0.8287 -0.8157
 2584SOL    HW310335   2.306   0.377   4.076  0.2889  0.4847 -0.2509
 2584SOL    MW410336   2.299   0.378   4.163 -0.5115 -0.0806 -0.3100
 2585SOL     OW10337   2.511   0.505   4.293 -0.0779 -0.2219  0.4211
 2585SOL    HW210338   2.496   0.543   4.380  1.3281 -0.8654  0.9546
 2585SOL    HW310339   2.424   0.477   4.264 -0.4755 -0.4917  1.8473
 2585SOL    MW410340   2.498   0.507   4.300  0.0552 -0.3424  0.6796
 2586SOL     OW10341   2.513   0.758   4.187 -0.7618  0.1866  0.1568
 2586SOL    HW210342   2.500   0.669   4.219  0.8489 -0.4599 -0.8644
 2586SOL    HW310343   2.497   0.751   4.092 -0.5341  0.9589  0.0611
 2586SOL    MW410344   2.509   0.745   4.178 -0.5192  0.2032  0.0095
 2587SOL     OW10345   2.257   0.867   4.266  0.6185  0.6073  0.1651
 2587SOL    HW210346   2.270   0.891   4.358  2.6126 -0.7289  0.2612
 2587SOL    HW310347   2.345   0.849   4.234 -0.2976 -1.1706 -1.4004
 2587SOL    MW410348   2.270   0.868   4.274  0.7607  0.1964 -0.0288
 2588SOL     OW10349   2.245   1.141   4.190 -0.7746  0.0660  0.2225
 2588SOL    HW210350   2.322   1.167   4.241 -1.4471 -1.1222  1.8865
 2588SOL    HW310351   2.248   1.045   4.189 -1.0115  0.0544 -1.6387
 2588SOL    MW410352   2.256   1.131   4.197 -0.8946 -0.0923  0.1965
 2589SOL     OW10353   2.467   1.262   4.330  0.1295  0.7036  0.2366
 2589SOL    HW210354   2.466   1.243   4.424  0.0323  1.4354  0.3862
 2589SOL    HW310355   2.547   1.221   4.297 -0.8616 -1.3045  0.2717
 2589SOL    MW410356   2.477   1.254   4.338 -0.0141  0.5352  0.2610
 2590SOL     OW10357   2.537   1.527   4.259 -0.2901 -0.0145 -0.0342
 2590SOL    HW210358   2.493   1.450   4.296 -2.6198  0.9632 -0.6977
 2590SOL    HW310359   2.530   1.516   4.165 -0.6763  1.0398 -0.1353
 2590SOL    MW410360   2.531   1.515   4.252 -0.6484  0.2536 -0.1351
 2591SOL     OW10361   2.254   1.655   4.302  0.3773  0.0300 -0.4017
 2591SOL    HW210362   2.248   1.681   4.394  0.1004 -2.2453  0.2509
 2591SOL    HW310363   2.346   1.629   4.291  0.3285 -0.0238 -0.6838
 2591SOL    MW410364   2.265   1.655   4.312  0.3344 -0.2773 -0.3528
 2592SOL     OW10365   2.250   1.906   4.188 -0.0751 -0.0983  0.3210
 2592SOL    HW210366   2.324   1.957   4.221  2.2895 -0.6225 -3.8414
 2592SOL    HW310367   2.256   1.823   4.235 -0.2563  1.1670  2.6584
 2592SOL    MW410368   2.261   1.902   4.199  0.2130 -0.0005  0.0802
 2593SOL     OW10369   2.471   2.019   4.277 -0.2090  0.4492  0.5583
 2593SOL    HW210370   2.465   2.014   4.372  0.3357 -0.9109  0.5237
 2593SOL    HW310371   2.559   1.988   4.256 -0.5584  0.1039 -0.4353
 2593SOL    MW410372   2.482   2.014   4.286 -0.1833  0.2242  0.4226
 2594SOL     OW10373   2.448   2.290   4.199  0.2525  0.3549 -0.3002
 2594SOL    HW210374   2.442   2.200   4.232 -0.0428  0.5769  0.2407
 2594SOL    HW310375   2.474   2.279   4.107  1.6455 -0.2318  0.1568
 2594SOL    MW410376   2.451   2.276   4.191  0.3973  0.3068 -0.1685
 2595SOL     OW10377   2.219   2.410   4.284 -0.1290 -0.3349 -0.0723
 2595SOL    HW210378   2.290   2.349   4.264 -0.4445 -0.5235 -0.6235
 2595SOL    HW310379   2.142   2.373   4.241 -0.0114  1.2275 -1.7191
 2595SOL    MW410380   2.218   2.397   4.275 -0.1551 -0.1536 -0.3623
 2596SOL     OW10381   2.200   2.651   4.132  0.2159 -0.1854  0.2879
 2596SOL    HW210382   2.225   2.578   4.189 -1.0205 -0.7015  0.1897
 2596SOL    HW310383   2.145   2.707   4.187  1.4889  0.9007  0.4805
 2596SOL    MW410384   2.196   2.649   4.147  0.2207 -0.1102  0.3004
 2597SOL     OW10385   2.635   2.823   4.348  0.5382  0.1359 -0.7148
 2597SOL    HW210386   2.600   2.779   4.271  0.5499 -0.8262 -0.1789
 2597SOL    HW310387   2.558   2.861   4.391  0.2096 -1.4959  0.1586
 2597SOL    MW410388   2.621   2.822   4.344  0.4964 -0.2063 -0.5288
 2598SOL     OW10389   2.426   3.068   4.210  0.3257 -0.1553 -0.1161
 2598SOL    HW210390   2.364   3.139   4.226 -0.0705 -0.7776  1.1534
 2598SOL    HW310391   2.389   2.993   4.257  1.5612 -0.7779 -0.1274
 2598SOL    MW410392   2.413   3.067   4.218  0.4365 -0.3196  0.0499
 2599SOL     OW10393   2.227   3.251   4.273  0.0542  0.2634 -0.3584
 2599SOL    HW210394   2.211   3.333   4.228 -1.0578  0.0516 -0.3845
 2599SOL    HW310395   2.153   3.195   4.247  0.6682 -0.6542 -0.1565
 2599SOL    MW410396   2.215   3.254   4.264 -0.0115  0.1144 -0.3352
 2600SOL     OW10397   2.260   3.508   4.177  0.0195 -0.5480 -0.1210
 2600SOL    HW210398   2.344   3.543   4.206  0.2954 -0.2612 -1.2111
 2600SOL    HW310399   2.195   3.552   4.232  0.6248 -1.4018  1.3026
 2600SOL    MW410400   2.263   3.518   4.188  0.1358 -0.6228 -0.0770
 2601SOL     OW10401   2.489   3.611   4.279  0.6407  0.0468 -0.1940
 2601SOL    HW210402   2.505   3.625   4.372 -0.8369 -1.3582  0.2982
 2601SOL    HW310403   2.485   3.699   4.242  0.2675  0.6489  1.2442
 2601SOL    MW410404   2.490   3.624   4.286  0.3965 -0.0591  0.0607
 2602SOL     OW10405   2.467   3.881   4.175  0.0826 -0.0132  0.1245
 2602SOL    HW210406   2.540   3.930   4.212 -0.5536  0.6351  0.5358
 2602SOL    HW310407   2.470   3.899   4.081  0.2746  0.2427  0.1812
 2602SOL    MW410408   2.477   3.890   4.167  0.0240  0.1061  0.1862
 2603SOL     OW10409   2.252   4.005   4.309 -0.6030 -0.1076  0.1069
 2603SOL    HW210410   2.325   3.961   4.264 -0.2270 -1.1399  1.6749
 2603SOL    HW310411   2.174   3.957   4.281 -0.4747 -0.2007 -0.0965
 2603SOL    MW410412   2.252   3.993   4.299 -0.5365 -0.2560  0.2869
 2604SOL     OW10413   2.205   4.233   4.176 -0.4252 -0.4244  0.6846
 2604SOL    HW210414   2.226   4.154   4.225 -1.1426 -0.3235  1.1653
 2604SOL    HW310415   2.131   4.272   4.223  1.0623  1.4830  1.5174
 2604SOL    MW410416   2.198   4.228   4.188 -0.3236 -0.1594  0.8579
 2605SOL     OW10417   2.433   4.349   4.272  0.6358 -0.4002  0.1550
 2605SOL    HW210418   2.357   4.315   4.225  0.2812 -0.1750  0.5585
 2605SOL    HW310419   2.505   4.292   4.245 -0.1343 -2.0816  1.5147
 2605SOL    MW410420   2.432   4.337   4.262  0.4874 -0.5923  0.3876
 2606SOL     OW10421   2.913   4.659   4.218 -0.0105 -0.4014 -0.0098
 2606SOL    HW210422   2.996   4.698   4.245 -0.3131 -0.2297  0.6627
 2606SOL    HW310423   2.922   4.566   4.240 -0.3858 -0.2026  0.9925
 2606SOL    MW410424   2.926   4.652   4.224 -0.0999 -0.3525  0.2111
 2607SOL     OW10425   2.663   0.105   4.268 -0.5384  0.2308 -0.3903
 2607SOL    HW210426   2.678   0.195   4.241 -0.7329 -0.5421 -3.2430
 2607SOL    HW310427   2.748   0.062   4.258 -0.3217  0.1765  1.4474
 2607SOL    MW410428   2.676   0.111   4.263 -0.5354  0.1217 -0.5242
 2608SOL     OW10429   2.726   0.365   4.182 -0.1439  0.7216 -0.4329
 2608SOL    HW210430   2.643   0.402   4.213 -0.3562  0.4467 -0.6667
 2608SOL    HW310431   2.718   0.365   4.086 -1.0098 -1.8345 -0.4181
 2608SOL    MW410432   2.714   0.370   4.173 -0.2862  0.3480 -0.4618
 2609SOL     OW10433   2.939   0.487   4.317 -0.2044 -0.1754  0.0590
 2609SOL    HW210434   2.955   0.558   4.255 -0.0082  0.1350  0.4635
 2609SOL    HW310435   2.860   0.444   4.283 -0.2187  0.1200 -0.2904
 2609SOL    MW410436   2.930   0.491   4.304 -0.1804 -0.0955  0.0662
 2610SOL     OW10437   2.966   0.752   4.193 -0.1017 -0.1416 -0.2427
 2610SOL    HW210438   3.040   0.797   4.234  0.2660 -0.8590 -0.1035
 2610SOL    HW310439   2.968   0.780   4.102 -0.1004  0.4112 -0.0732
 2610SOL    MW410440   2.976   0.761   4.187 -0.0530 -0.1634 -0.2020
 2611SOL     OW10441   2.736   0.859   4.307 -0.0459  0.2065  0.4514
 2611SOL    HW210442   2.808   0.829   4.252  0.4175  0.8180  0.7200
 2611SOL    HW310443   2.659   0.816   4.271  0.5389 -0.9114  0.5359
 2611SOL    MW410444   2.735   0.850   4.295  0.0924  0.1397  0.4980
 2612SOL     OW10445   2.708   1.131   4.219  0.4389 -0.3609  0.0069
 2612SOL    HW210446   2.716   1.039   4.244 -1.0633 -0.4644  0.1092
 2612SOL    HW310447   2.720   1.130   4.124 -0.5525 -0.7878 -0.1189
 2612SOL    MW410448   2.711   1.119   4.210  0.1099 -0.4309  0.0038
 2613SOL     OW10449   2.947   1.297   4.264 -0.3561 -0.3856 -0.4724
 2613SOL    HW210450   3.030   1.253   4.247 -0.4714 -0.7049 -0.1993
 2613SOL    HW310451   2.881   1.228   4.259 -0.7104  0.0395 -1.6542
 2613SOL    MW410452   2.949   1.282   4.261 -0.4181 -0.3716 -0.5923
 2614SOL     OW10453   2.952   1.567   4.189  0.0008  0.0539 -0.2314
 2614SOL    HW210454   3.035   1.601   4.222 -1.1824  1.6357  1.1920
 2614SOL    HW310455   2.952   1.475   4.215  1.1145  0.1504  0.1384
 2614SOL    MW410456   2.963   1.560   4.196 -0.0084  0.2753  0.0052
 2615SOL     OW10457   2.743   1.694   4.308 -0.2615  0.2065 -0.1652
 2615SOL    HW210458   2.811   1.643   4.264 -0.8312 -0.7061  0.0226
 2615SOL    HW310459   2.664   1.641   4.301 -0.5625  0.4669  1.1645
 2615SOL    MW410460   2.742   1.680   4.301 -0.3764  0.1204  0.0350
 2616SOL     OW10461   2.728   1.923   4.187  0.1605  0.4545 -0.1484
 2616SOL    HW210462   2.711   1.839   4.228  0.5431  0.4500  0.0070
 2616SOL    HW310463   2.720   1.907   4.093 -2.0008  0.7516 -0.0360
 2616SOL    MW410464   2.725   1.910   4.180 -0.0742  0.4931 -0.1131
 2617SOL     OW10465   2.937   2.111   4.273 -0.2489 -0.1419 -0.5757
 2617SOL    HW210466   2.916   2.199   4.242 -0.3700  0.0650  0.0925
 2617SOL    HW310467   2.864   2.057   4.241 -0.2633  0.0277 -0.8340
 2617SOL    MW410468   2.924   2.115   4.265 -0.2668 -0.0922 -0.5216
 2618SOL     OW10469   2.902   2.373   4.171 -0.0142 -0.2332  0.1818
 2618SOL    HW210470   2.965   2.421   4.226  0.1609 -0.3684  0.1018
 2618SOL    HW310471   2.816   2.399   4.204  0.0342  1.1856 -0.7214
 2618SOL    MW410472   2.899   2.383   4.182  0.0153 -0.0638  0.0521
 2619SOL     OW10473   2.659   2.467   4.271 -0.0088 -0.2077 -0.4789
 2619SOL    HW210474   2.684   2.449   4.362  0.5384 -0.0483 -0.5995
 2619SOL    HW310475   2.593   2.401   4.252  1.0164 -1.2559 -0.4752
 2619SOL    MW410476   2.654   2.456   4.281  0.1986 -0.3250 -0.4943
 2620SOL     OW10477   2.517   2.684   4.138  0.4337  0.0246  0.3412
 2620SOL    HW210478   2.547   2.609   4.189  0.7387  0.0465  0.1917
 2620SOL    HW310479   2.421   2.676   4.138  0.4809 -0.5622  0.0205
 2620SOL    MW410480   2.508   2.673   4.144  0.4802 -0.0499  0.2792
 2621SOL     OW10481   2.931   2.842   4.332  0.2057  0.4136 -0.0633
 2621SOL    HW210482   2.929   2.845   4.428 -0.1102 -0.7953 -0.0188
 2621SOL    HW310483   2.844   2.810   4.308  0.8290 -0.8427 -0.6718
 2621SOL    MW410484   2.919   2.838   4.342  0.2463  0.0884 -0.1377
 2622SOL     OW10485   2.907   3.113   4.252  0.0230  0.5053  0.4786
 2622SOL    HW210486   2.910   3.023   4.284  0.3929  0.3720  0.0874
 2622SOL    HW310487   2.886   3.105   4.159  0.3505  0.8061  0.3748
 2622SOL    MW410488   2.905   3.100   4.244  0.1150  0.5274  0.4133
 2623SOL     OW10489   2.656   3.227   4.314 -0.1078 -0.1147 -0.0802
 2623SOL    HW210490   2.743   3.188   4.302 -0.4766 -1.0994  0.4278
 2623SOL    HW310491   2.596   3.167   4.269 -0.6833 -0.1665  0.7331
 2623SOL    MW410492   2.659   3.214   4.306 -0.2324 -0.2514  0.0941
 2624SOL     OW10493   2.690   3.457   4.158 -0.4999  0.1380 -0.1229
 2624SOL    HW210494   2.690   3.381   4.216 -0.9423 -1.0421 -1.6706
 2624SOL    HW310495   2.615   3.509   4.188 -1.2879 -0.9215 -0.2323
 2624SOL    MW410496   2.680   3.454   4.170 -0.6623 -0.1575 -0.3415
 2625SOL     OW10497   2.926   3.582   4.250 -0.2728  0.5929  0.3417
 2625SOL    HW210498   2.919   3.590   4.345 -2.0710  1.0294  0.1844
 2625SOL    HW310499   2.848   3.533   4.224  1.9906 -2.6918 -0.5485
 2625SOL    MW410500   2.915   3.577   4.259 -0.2115  0.2171  0.2035
 2626SOL     OW10501   2.930   3.857   4.206  0.4526  0.1495 -0.0622
 2626SOL    HW210502   3.004   3.890   4.256 -0.4023 -1.5789  2.4469
 2626SOL    HW310503   2.933   3.762   4.219 -1.0919 -0.1103 -1.4740
 2626SOL    MW410504   2.940   3.848   4.214  0.1360 -0.1128  0.0826
 2627SOL     OW10505   2.691   3.986   4.299 -0.2562 -0.0725  0.0259
 2627SOL    HW210506   2.691   4.079   4.278 -0.1795  0.0264  0.4653
 2627SOL    HW310507   2.770   3.952   4.258 -0.4170  0.0027 -0.3545
 2627SOL    MW410508   2.701   3.994   4.291 -0.2673 -0.0496  0.0337
 2628SOL     OW10509   2.698   4.254   4.193 -0.0856  0.6761  0.0329
 2628SOL    HW210510   2.763   4.311   4.234  0.7829 -1.2445  1.3978
 2628SOL    HW310511   2.718   4.257   4.099  1.0339  1.2683  0.2929
 2628SOL    MW410512   2.709   4.262   4.186  0.1767  0.5008  0.2473
 2629SOL     OW10513   2.915   4.396   4.286 -0.1409  0.4097  0.0832
 2629SOL    HW210514   2.876   4.363   4.367 -0.8474 -0.2913 -0.5327
 2629SOL    HW310515   2.982   4.333   4.264 -0.2938  0.3313 -0.1523
 2629SOL    MW410516   2.918   4.384   4.294 -0.2543  0.3069 -0.0291
 2630SOL     OW10517   3.409   4.631   4.213 -0.4647 -0.0884 -0.3671
 2630SOL    HW210518   3.489   4.668   4.252 -0.2238 -0.2953 -0.6604
 2630SOL    HW310519   3.402   4.544   4.252  1.4135 -1.4800 -2.9670
 2630SOL    MW410520   3.419   4.624   4.223 -0.1851 -0.2993 -0.7488
 2631SOL     OW10521   3.182   0.063   4.307  0.1725  0.3402 -0.3918
 2631SOL    HW210522   3.195   0.059   4.401 -0.0144 -0.7020 -0.4059
 2631SOL    HW310523   3.263   0.026   4.270 -0.0431  0.1011 -0.6251
 2631SOL    MW410524   3.195   0.058   4.314  0.1194  0.1712 -0.4244
 2632SOL     OW10525   3.179   0.343   4.243 -0.0392  0.2698 -0.1709
 2632SOL    HW210526   3.182   0.254   4.278 -1.8935 -0.2774 -1.3334
 2632SOL    HW310527   3.100   0.381   4.281  0.2845  1.1526 -0.3627
 2632SOL    MW410528   3.169   0.336   4.253 -0.2412  0.3141 -0.3496
 2633SOL     OW10529   3.405   0.473   4.351 -0.0024 -0.2402 -0.0791
 2633SOL    HW210530   3.482   0.437   4.308 -0.1230  0.4426 -0.8758
 2633SOL    HW310531   3.331   0.432   4.307 -0.1101 -0.5576  0.3865
 2633SOL    MW410532   3.405   0.463   4.340 -0.0325 -0.1920 -0.1228
 2634SOL     OW10533   3.383   0.734   4.213  0.1215 -0.2775 -0.1664
 2634SOL    HW210534   3.315   0.789   4.253 -0.6126 -0.1565 -1.5793
 2634SOL    HW310535   3.384   0.655   4.267  1.0029  0.9847  1.7286
 2634SOL    MW410536   3.374   0.731   4.226  0.1409 -0.0950 -0.1028
 2635SOL     OW10537   3.167   0.887   4.324 -0.1528  0.4362 -0.4764
 2635SOL    HW210538   3.187   0.916   4.413 -0.8429 -1.2872  0.2517
 2635SOL    HW310539   3.177   0.966   4.271  0.5426  1.4243  1.0737
 2635SOL    MW410540   3.171   0.901   4.329 -0.1521  0.3392 -0.1758
 2636SOL     OW10541   3.203   1.101   4.183  0.0578  0.4659  0.0623
 2636SOL    HW210542   3.280   1.154   4.205  1.4440 -1.7147  0.5942
 2636SOL    HW310543   3.183   1.125   4.092  3.8023 -1.7674 -1.4363
 2636SOL    MW410544   3.210   1.112   4.174  0.7347 -0.1165 -0.0653
 2637SOL     OW10545   3.422   1.262   4.281 -0.3625  0.2257 -0.1477
 2637SOL    HW210546   3.407   1.260   4.375 -0.9602  1.6441 -0.2044
 2637SOL    HW310547   3.405   1.352   4.255  1.8015  0.3409 -1.2908
 2637SOL    MW410548   3.418   1.273   4.290 -0.1559  0.4280 -0.3060
 2638SOL     OW10549   3.375   1.544   4.229  0.1452 -0.1782  0.3780
 2638SOL    HW210550   3.296   1.593   4.250 -0.8038 -1.5350  0.0341
 2638SOL    HW310551   3.371   1.531   4.134 -0.5273 -2.4389  0.6844
 2638SOL    MW410552   3.364   1.549   4.219 -0.0687 -0.6555  0.3730
 2639SOL     OW10553   3.159   1.698   4.313 -0.0696  0.0245  0.2459
 2639SOL    HW210554   3.141   1.718   4.405 -1.1208 -1.6576  0.4379
 2639SOL    HW310555   3.137   1.778   4.266 -1.9962  0.0688  1.1911
 2639SOL    MW410556   3.154   1.711   4.319 -0.4625 -0.1916  0.3959
 2640SOL     OW10557   3.167   1.953   4.223 -0.0172  0.3769  0.2623
 2640SOL    HW210558   3.240   1.994   4.270  0.5151  1.2644 -1.3163
 2640SOL    HW310559   3.093   2.012   4.238 -0.1783 -0.0254  1.0690
 2640SOL    MW410560   3.167   1.966   4.231  0.0318  0.4409  0.1605
 2641SOL     OW10561   3.383   2.075   4.357  0.2696  0.4636  0.3000
 2641SOL    HW210562   3.440   2.029   4.296  0.3445  0.5225  0.3268
 2641SOL    HW310563   3.382   2.165   4.325 -0.3821  0.3111 -0.1321
 2641SOL    MW410564   3.390   2.081   4.344  0.1935  0.4512  0.2465
 2642SOL     OW10565   3.355   2.329   4.226  0.0232  0.1049 -0.6749
 2642SOL    HW210566   3.437   2.373   4.245 -0.5748  1.1267 -0.4114
 2642SOL    HW310567   3.353   2.321   4.131 -0.5614  2.0636 -0.8507
 2642SOL    MW410568   3.365   2.334   4.216 -0.1328  0.4981 -0.6633
 2643SOL     OW10569   3.135   2.475   4.307 -0.0207 -0.2268  0.3251
 2643SOL    HW210570   3.137   2.559   4.260 -0.0010 -0.2248  0.3294
 2643SOL    HW310571   3.211   2.427   4.273 -0.9513 -0.8836 -0.8700
 2643SOL    MW410572   3.145   2.480   4.296 -0.1409 -0.3132  0.1680
 2644SOL     OW10573   3.113   2.728   4.168 -0.8771 -0.3451 -0.2474
 2644SOL    HW210574   3.198   2.771   4.180 -0.2750 -2.1195  2.1668
 2644SOL    HW310575   3.055   2.770   4.231 -1.1183 -0.9024 -0.0932
 2644SOL    MW410576   3.117   2.739   4.178 -0.8295 -0.6527  0.0915
 2645SOL     OW10577   3.348   2.842   4.238  0.1363 -0.2131  0.1174
 2645SOL    HW210578   3.424   2.795   4.203 -0.0094 -0.7581  0.5253
 2645SOL    HW310579   3.369   2.935   4.224  0.0958 -0.4172 -1.3657
 2645SOL    MW410580   3.361   2.848   4.231  0.1118 -0.3119 -0.0245
 2646SOL     OW10581   3.421   3.116   4.186 -0.2128 -0.3320  0.0448
 2646SOL    HW210582   3.333   3.151   4.194 -0.5393 -1.2928  0.8284
 2646SOL    HW310583   3.431   3.098   4.093 -0.2852  1.1678 -0.2664
 2646SOL    MW410584   3.411   3.118   4.175 -0.2654 -0.2609  0.1071
 2647SOL     OW10585   3.164   3.210   4.260 -0.4152 -0.5953  0.0423
 2647SOL    HW210586   3.156   3.304   4.245 -1.0363 -0.3982  1.4739
 2647SOL    HW310587   3.075   3.176   4.255 -0.2164 -1.0825 -0.2770
 2647SOL    MW410588   3.151   3.218   4.258 -0.4709 -0.6336  0.1891
 2648SOL     OW10589   3.175   3.479   4.183 -0.4214 -0.5258  0.3788
 2648SOL    HW210590   3.096   3.521   4.218 -0.3654 -0.2987  0.2390
 2648SOL    HW310591   3.170   3.496   4.089  0.2323  0.2213  0.4819
 2648SOL    MW410592   3.164   3.487   4.175 -0.3278 -0.3973  0.3740
 2649SOL     OW10593   3.389   3.630   4.285  0.3022  0.0943 -0.0518
 2649SOL    HW210594   3.398   3.632   4.380  1.2817  0.2216 -0.1381
 2649SOL    HW310595   3.310   3.579   4.269 -0.7408  1.3638  0.8800
 2649SOL    MW410596   3.380   3.624   4.296  0.2938  0.2786  0.0597
 2650SOL     OW10597   3.367   3.887   4.203 -0.0629  0.2635 -0.3319
 2650SOL    HW210598   3.373   3.795   4.229  0.6128  0.0849 -1.0969
 2650SOL    HW310599   3.364   3.885   4.108  1.1795  1.0921 -0.3995
 2650SOL    MW410600   3.367   3.874   4.194  0.1902  0.3492 -0.4418
 2651SOL     OW10601   3.130   3.996   4.322  0.8525  0.2971 -0.2741
 2651SOL    HW210602   3.124   3.944   4.403 -0.9912 -0.2643 -0.7491
 2651SOL    HW310603   3.210   3.965   4.280  0.4434 -1.2731  0.0739
 2651SOL    MW410604   3.139   3.985   4.327  0.5552  0.0158 -0.2909
 2652SOL     OW10605   3.155   4.251   4.203 -0.4545 -0.0796  0.2839
 2652SOL    HW210606   3.237   4.288   4.235  0.0264  0.2489 -1.2774
 2652SOL    HW310607   3.147   4.167   4.249  0.5176  0.0954  0.7911
 2652SOL    MW410608   3.165   4.245   4.213 -0.2628 -0.0132  0.1448
 2653SOL     OW10609   3.400   4.365   4.327 -0.2197 -0.0775 -0.6907
 2653SOL    HW210610   3.417   4.382   4.420 -0.0692 -0.1136 -0.7130
 2653SOL    HW310611   3.475   4.313   4.297 -0.3198 -0.1559 -0.8063
 2653SOL    MW410612   3.412   4.360   4.336 -0.2131 -0.0926 -0.7089
 2654SOL     OW10613   3.839   0.007   4.150 -0.4517  0.0780  0.1558
 2654SOL    HW210614   3.920   0.048   4.179 -0.9052  1.3669 -0.3837
 2654SOL    HW310615   3.836   0.025   4.056 -1.1173 -0.3945  0.0880
 2654SOL    MW410616   3.850   0.015   4.141 -0.5993  0.1857  0.0757
 2655SOL     OW10617   3.639   0.118   4.307  0.9052 -0.0036 -0.1682
 2655SOL    HW210618   3.626   0.201   4.261 -1.1893 -0.4082 -0.3337
 2655SOL    HW310619   3.704   0.071   4.254  1.3266  1.0868 -0.6369
 2655SOL    MW410620   3.646   0.123   4.294  0.6845  0.0869 -0.2519
 2656SOL     OW10621   3.615   0.374   4.220 -0.4117  0.2326  0.5261
 2656SOL    HW210622   3.699   0.402   4.256 -1.2998  1.5203  1.6540
 2656SOL    HW310623   3.620   0.398   4.128  1.1013 -1.2332  0.2026
 2656SOL    MW410624   3.627   0.381   4.213 -0.3292  0.2091  0.6322
 2657SOL     OW10625   3.840   0.469   4.334 -0.4244 -0.4283  0.6558
 2657SOL    HW210626   3.826   0.459   4.429  0.2841 -0.4316  0.7637
 2657SOL    HW310627   3.847   0.564   4.321 -2.1161 -0.3374  0.3708
 2657SOL    MW410628   3.839   0.480   4.345 -0.5541 -0.4167  0.6325
 2658SOL     OW10629   3.835   0.743   4.268 -0.0021  0.1570 -0.1173
 2658SOL    HW210630   3.772   0.803   4.307  1.2784  1.2153  0.3798
 2658SOL    HW310631   3.827   0.759   4.174  0.8956  1.7271  0.0466
 2658SOL    MW410632   3.826   0.753   4.261  0.2853  0.5038 -0.0301
 2659SOL     OW10633   3.594   0.890   4.336 -0.0105  0.3286 -0.3660
 2659SOL    HW210634   3.621   0.967   4.287  0.0441  0.1300 -0.6510
 2659SOL    HW310635   3.548   0.836   4.273  0.2923 -0.0515 -0.2684
 2659SOL    MW410636   3.592   0.893   4.322  0.0367  0.2523 -0.3907
 2660SOL     OW10637   3.648   1.134   4.162  0.4803  0.4088 -0.2922
 2660SOL    HW210638   3.569   1.183   4.187 -0.8864 -1.0844 -1.6076
 2660SOL    HW310639   3.645   1.131   4.067  0.1854 -2.7737 -0.2291
 2660SOL    MW410640   3.637   1.140   4.153  0.2611 -0.2081 -0.4574
 2661SOL     OW10641   3.874   1.233   4.317  0.0458  0.2908  0.4003
 2661SOL    HW210642   3.802   1.191   4.270  0.4968 -0.2831  0.2220
 2661SOL    HW310643   3.859   1.327   4.305 -0.1946  0.1551 -0.3505
 2661SOL    MW410644   3.863   1.240   4.309  0.0736  0.1972  0.2777
 2662SOL     OW10645   3.829   1.512   4.264  0.6546  0.2489 -0.8462
 2662SOL    HW210646   3.900   1.575   4.280  0.3926  0.4705 -0.5589
 2662SOL    HW310647   3.750   1.566   4.259  0.4920 -0.0088 -1.0786
 2662SOL    MW410648   3.828   1.527   4.265  0.5986  0.2441 -0.8390
 2663SOL     OW10649   3.604   1.672   4.301  0.3629 -0.4098  0.3043
 2663SOL    HW210650   3.513   1.643   4.296  0.5791 -1.1035  0.3873
 2663SOL    HW310651   3.628   1.662   4.393  0.3916  0.1947  0.3669
 2663SOL    MW410652   3.595   1.667   4.312  0.3952 -0.4216  0.3235
 2664SOL     OW10653   3.574   1.932   4.208 -0.0208 -0.3192 -0.2401
 2664SOL    HW210654   3.564   1.841   4.237  1.3329 -0.5639 -0.4713
 2664SOL    HW310655   3.581   1.925   4.113 -0.0892  0.0435 -0.2701
 2664SOL    MW410656   3.574   1.919   4.199  0.1487 -0.3036 -0.2746
 2665SOL     OW10657   3.807   2.068   4.303  0.0775  0.0325 -0.4121
 2665SOL    HW210658   3.795   2.059   4.398  0.6504  1.1966 -0.2265
 2665SOL    HW310659   3.732   2.022   4.266  0.1189 -0.8768  0.5966
 2665SOL    MW410660   3.795   2.061   4.311  0.1585  0.0661 -0.2545
 2666SOL     OW10661   3.801   2.341   4.214  0.0645 -0.1098 -0.5064
 2666SOL    HW210662   3.804   2.247   4.232 -0.2385 -0.0725 -0.2529
 2666SOL    HW310663   3.819   2.349   4.121 -0.3621 -0.4480 -0.6171
 2666SOL    MW410664   3.804   2.330   4.204 -0.0318 -0.1495 -0.4876
 2667SOL     OW10665   3.563   2.499   4.292  0.0305  0.4849 -0.3810
 2667SOL    HW210666   3.550   2.508   4.387 -1.7638  1.3896 -0.6927
 2667SOL    HW310667   3.642   2.446   4.284  0.5065  0.8350  1.6249
 2667SOL    MW410668   3.572   2.493   4.304 -0.1435  0.6504 -0.1575
 2668SOL     OW10669   3.585   2.737   4.162  0.2680 -0.3229 -0.0991
 2668SOL    HW210670   3.577   2.648   4.198 -2.1298 -0.0728  0.0394
 2668SOL    HW310671   3.619   2.724   4.074  0.9060 -1.3058  0.2823
 2668SOL    MW410672   3.589   2.723   4.155  0.0358 -0.4196 -0.0305
 2669SOL     OW10673   3.826   2.830   4.286  0.3965 -0.3346  0.1510
 2669SOL    HW210674   3.827   2.789   4.372  0.8900  0.7798  0.6794
 2669SOL    HW310675   3.736   2.821   4.256  0.3944 -1.4028  0.4387
 2669SOL    MW410676   3.815   2.823   4.293  0.4614 -0.3285  0.2587
 2670SOL     OW10677   3.922   3.098   4.188  0.7426 -0.2134  0.2371
 2670SOL    HW210678   3.904   3.012   4.226  1.1223 -0.1591  0.5372
 2670SOL    HW310679   3.888   3.091   4.099  0.4737 -0.5662  0.3620
 2670SOL    MW410680   3.915   3.085   4.181  0.7573 -0.2528  0.2932
 2671SOL     OW10681   3.650   3.208   4.278  0.1669  0.3154 -0.0887
 2671SOL    HW210682   3.711   3.149   4.233  0.9135  1.0021  0.0148
 2671SOL    HW310683   3.564   3.173   4.257  0.5644 -0.2507 -0.8222
 2671SOL    MW410684   3.647   3.195   4.270  0.3179  0.3313 -0.1718
 2672SOL     OW10685   3.603   3.471   4.147 -0.0815  0.4738 -0.6828
 2672SOL    HW210686   3.623   3.389   4.193  0.0019  1.2203  0.6165
 2672SOL    HW310687   3.530   3.509   4.196 -1.7248  0.0223 -2.6973
 2672SOL    MW410688   3.596   3.465   4.160 -0.2873  0.5127 -0.7771
 2673SOL     OW10689   3.817   3.626   4.288  0.3977  0.0708  0.4826
 2673SOL    HW210690   3.906   3.599   4.264  0.4063  0.7394 -0.2718
 2673SOL    HW310691   3.760   3.571   4.235  0.3772  0.1517  0.4207
 2673SOL    MW410692   3.822   3.616   4.277  0.3961  0.1697  0.3749
 2674SOL     OW10693   3.811   3.868   4.131 -0.3732  0.0312  0.1126
 2674SOL    HW210694   3.755   3.919   4.189 -0.9422 -0.7551  0.2612
 2674SOL    HW310695   3.812   3.781   4.169  0.4530 -0.1151 -0.2394
 2674SOL    MW410696   3.803   3.863   4.143 -0.3393 -0.0919  0.0858
 2675SOL     OW10697   3.608   3.988   4.285  0.1128  0.1744  0.4090
 2675SOL    HW210698   3.602   3.991   4.381 -1.4905 -0.6084  0.3516
 2675SOL    HW310699   3.526   3.947   4.257  1.0511 -0.6304 -1.2432
 2675SOL    MW410700   3.596   3.983   4.294  0.0251 -0.0350  0.1834
 2676SOL     OW10701   3.598   4.258   4.162 -0.0453  0.0118  0.2922
 2676SOL    HW210702   3.667   4.322   4.182 -0.3448  0.4415 -0.0515
 2676SOL    HW310703   3.624   4.180   4.212 -0.9058  1.1551  2.6016
 2676SOL    MW410704   3.611   4.256   4.171 -0.1984  0.2194  0.5516
 2677SOL     OW10705   3.807   4.420   4.241 -0.4693 -0.0743 -0.0140
 2677SOL    HW210706   3.892   4.382   4.219 -0.8295  0.6279 -2.8446
 2677SOL    HW310707   3.809   4.507   4.201 -2.2982  0.1458  0.3523
 2677SOL    MW410708   3.819   4.426   4.233 -0.7581  0.0474 -0.3392
 2678SOL     OW10709   4.302   4.641   4.158  0.0021 -0.0864  0.2614
 2678SOL    HW210710   4.298   4.554   4.199  1.3827 -0.6897 -0.8436
 2678SOL    HW310711   4.363   4.690   4.212  0.7512 -0.4398 -0.2593
 2678SOL    MW410712   4.309   4.636   4.171  0.2831 -0.2126  0.0469
 2679SOL     OW10713   4.072   0.111   4.253 -0.4356 -0.1131  0.3324
 2679SOL    HW210714   4.088   0.198   4.217  0.0483  0.7051  2.4299
 2679SOL    HW310715   4.137   0.055   4.211  0.3007  0.8693  0.1420
 2679SOL    MW410716   4.083   0.115   4.243 -0.2746  0.1245  0.5840
 2680SOL     OW10717   4.122   0.375   4.181  0.4275  0.0815  0.1221
 2680SOL    HW210718   4.198   0.413   4.225 -0.0233 -0.1723  1.1346
 2680SOL    HW310719   4.046   0.413   4.227 -0.0931  1.3192 -1.7049
 2680SOL    MW410720   4.122   0.385   4.193  0.2993  0.2114  0.0146
 2681SOL     OW10721   4.347   0.467   4.302  0.2942  0.3032 -0.1408
 2681SOL    HW210722   4.343   0.558   4.271  2.1078  0.8991  1.2588
 2681SOL    HW310723   4.418   0.428   4.251 -1.1645 -0.6410 -1.4729
 2681SOL    MW410724   4.356   0.474   4.291  0.3410  0.2573 -0.1319
 2682SOL     OW10725   4.294   0.720   4.197 -0.0864  0.0964  0.1535
 2682SOL    HW210726   4.209   0.752   4.228 -0.4220  0.4913 -1.1603
 2682SOL    HW310727   4.290   0.731   4.102  1.0254 -0.8853 -0.0056
 2682SOL    MW410728   4.282   0.725   4.189  0.0160  0.0190 -0.0408
 2683SOL     OW10729   4.071   0.852   4.324 -0.4435  0.1955 -0.6966
 2683SOL    HW210730   4.074   0.931   4.271  0.6480  0.2769 -0.5223
 2683SOL    HW310731   3.983   0.817   4.309 -0.9826  1.5112 -0.6537
 2683SOL    MW410732   4.060   0.857   4.315 -0.3706  0.3798 -0.6679
 2684SOL     OW10733   4.099   1.096   4.198 -0.2533 -0.0516  0.3305
 2684SOL    HW210734   4.175   1.148   4.228 -0.7184  1.0102 -0.2980
 2684SOL    HW310735   4.024   1.137   4.243 -0.7166  0.3182 -0.7655
 2684SOL    MW410736   4.099   1.109   4.208 -0.3758  0.1372  0.1030
 2685SOL     OW10737   4.301   1.266   4.307  0.1021 -0.0054  0.3767
 2685SOL    HW210738   4.288   1.275   4.401  3.0342  0.5470  0.7762
 2685SOL    HW310739   4.380   1.211   4.299 -0.6354 -0.7890 -1.7594
 2685SOL    MW410740   4.310   1.260   4.318  0.3917 -0.0359  0.1476
 2686SOL     OW10741   4.251   1.565   4.230  0.4018 -0.3987  0.1288
 2686SOL    HW210742   4.267   1.478   4.267 -1.6351 -0.9753 -0.2704
 2686SOL    HW310743   4.262   1.554   4.136 -0.4542 -0.3864  0.0198
 2686SOL    MW410744   4.255   1.552   4.223  0.0201 -0.4731  0.0618
 2687SOL     OW10745   4.034   1.691   4.321 -0.2220  0.1198  0.0055
 2687SOL    HW210746   4.056   1.705   4.413 -1.1202  0.3254  0.1907
 2687SOL    HW310747   4.103   1.632   4.289  0.3425  0.3979  0.6872
 2687SOL    MW410748   4.046   1.685   4.329 -0.2660  0.1836  0.1198
 2688SOL     OW10749   4.055   1.944   4.217 -0.3821 -0.2977 -0.1415
 2688SOL    HW210750   4.055   1.849   4.232 -0.7649 -0.5769 -1.8823
 2688SOL    HW310751   3.970   1.973   4.248 -0.1436 -0.4632  0.6917
 2688SOL    MW410752   4.044   1.935   4.223 -0.4012 -0.3564 -0.2612
 2689SOL     OW10753   0.022   1.959   4.190 -0.4522 -0.0378  0.3510
 2689SOL    HW210754   0.095   2.009   4.226 -0.6609 -0.0632  0.8037
 2689SOL    HW310755  -0.056   2.003   4.224 -0.6796  0.7814 -1.1515
 2689SOL    MW410756   0.021   1.972   4.199 -0.5097  0.0669  0.2125
 2690SOL     OW10757   4.268   2.344   4.143 -0.2996  0.4030 -0.2632
 2690SOL    HW210758   4.191   2.395   4.169  0.6874  1.7354  0.0763
 2690SOL    HW310759   4.256   2.259   4.185 -0.8497  1.1068  1.0359
 2690SOL    MW410760   4.256   2.340   4.152 -0.2419  0.6717 -0.0470
 2691SOL     OW10761   4.043   2.444   4.295  0.4124 -0.1866 -0.0622
 2691SOL    HW210762   4.048   2.444   4.390 -0.1764 -0.6570 -0.0242
 2691SOL    HW310763   3.961   2.397   4.276  1.0161 -0.9310 -0.8236
 2691SOL    MW410764   4.033   2.438   4.305  0.4143 -0.3469 -0.1576
 2692SOL     OW10765   4.005   2.674   4.133  0.4699 -0.3737  0.4124
 2692SOL    HW210766   4.013   2.592   4.183 -2.6024 -0.6124  0.6432
 2692SOL    HW310767   3.926   2.715   4.169 -0.4482  0.6130 -2.6444
 2692SOL    MW410768   3.995   2.669   4.145 -0.0566 -0.2750  0.0395
 2693SOL     OW10769   4.215   2.837   4.217  0.2083 -0.4918  0.1403
 2693SOL    HW210770   4.139   2.783   4.195 -0.3502  0.5523 -0.6092
 2693SOL    HW310771   4.288   2.794   4.174 -0.2055 -0.7402 -0.3256
 2693SOL    MW410772   4.214   2.825   4.208  0.0800 -0.3868 -0.0201
 2694SOL     OW10773   4.302   3.094   4.164 -0.2565  0.3897  0.2520
 2694SOL    HW210774   4.281   3.006   4.195 -1.0083  0.1647 -0.8576
 2694SOL    HW310775   4.288   3.090   4.069  0.2810  1.5407  0.1155
 2694SOL    MW410776   4.297   3.082   4.156 -0.2848  0.5119  0.0876
 2695SOL     OW10777   4.121   3.260   4.286  0.1502  0.1418 -0.2095
 2695SOL    HW210778   4.191   3.208   4.248  0.7560  0.4927  0.4085
 2695SOL    HW310779   4.041   3.223   4.250  0.6975  0.3482 -1.6719
 2695SOL    MW410780   4.120   3.248   4.276  0.3023  0.2153 -0.3209
 2696SOL     OW10781   4.071   3.515   4.206  0.3134 -0.2680  0.0611
 2696SOL    HW210782   4.072   3.425   4.237 -0.7484  0.0490  1.0551
 2696SOL    HW310783   4.070   3.508   4.110  3.0893 -1.2633  0.0695
 2696SOL    MW410784   4.071   3.502   4.197  0.5396 -0.3575  0.1934
 2697SOL     OW10785   4.302   3.651   4.317 -0.5185 -0.0237 -0.2902
 2697SOL    HW210786   4.295   3.737   4.274 -1.1210 -0.3924 -0.9598
 2697SOL    HW310787   4.218   3.608   4.297 -0.1961 -0.7897 -0.0160
 2697SOL    MW410788   4.290   3.657   4.309 -0.5555 -0.1734 -0.3424
 2698SOL     OW10789   4.286   3.897   4.185 -0.3212 -0.1557 -0.0930
 2698SOL    HW210790   4.209   3.950   4.205 -0.7967 -0.4241 -1.1818
 2698SOL    HW310791   4.282   3.883   4.090 -0.1764 -2.1009  0.1680
 2698SOL    MW410792   4.276   3.902   4.175 -0.3649 -0.4477 -0.2022
 2699SOL     OW10793   4.027   4.015   4.262  0.0351 -0.6136 -0.1742
 2699SOL    HW210794   4.015   3.989   4.353  0.0012 -0.7884 -0.2287
 2699SOL    HW310795   3.971   3.955   4.212 -2.0334  1.1611 -0.0916
 2699SOL    MW410796   4.018   4.004   4.267 -0.2423 -0.4025 -0.1705
 2700SOL     OW10797   4.041   4.292   4.182 -0.4776  0.5121  0.2786
 2700SOL    HW210798   4.127   4.319   4.215  0.2990  0.3169 -1.5266
 2700SOL    HW310799   4.022   4.210   4.226  1.3062 -0.6044 -0.9958
 2700SOL    MW410800   4.049   4.285   4.192 -0.1398  0.3390 -0.1277
 2701SOL     OW10801   4.216   4.618   4.604  0.2990  0.5402  0.2005
 2701SOL    HW210802   4.250   4.668   4.678  0.5365 -0.5252  0.8195
 2701SOL    HW310803   4.137   4.664   4.578 -0.1580  0.5437  1.5555
 2701SOL    MW410804   4.210   4.630   4.610  0.2700  0.4001  0.4609
 2702SOL     OW10805   4.491   0.019   4.544 -0.2770 -0.1870  0.2283
 2702SOL    HW210806   4.489   0.102   4.591  0.4049  0.1179 -0.2764
 2702SOL    HW310807   4.400  -0.011   4.545 -0.5579  0.6468  0.2573
 2702SOL    MW410808   4.478   0.026   4.551 -0.2241 -0.0367  0.1655
 2703SOL     OW10809   4.315   4.349   4.557  0.3353  0.3268 -0.2596
 2703SOL    HW210810   4.246   4.296   4.598 -0.5280  0.8169 -1.0409
 2703SOL    HW310811   4.296   4.439   4.586  0.8829  0.4070 -0.1569
 2703SOL    MW410812   4.303   4.354   4.567  0.2937  0.4020 -0.3491
 2704SOL     OW10813   4.008   0.110   4.523  0.0213 -0.0892  0.2703
 2704SOL    HW210814   4.014   0.118   4.428  0.2337 -0.9456  0.2087
 2704SOL    HW310815   3.914   0.107   4.540 -0.0251  0.6684  0.1368
 2704SOL    MW410816   3.996   0.110   4.512  0.0432 -0.1022  0.2446
 2705SOL     OW10817   4.181   1.117   4.945  0.4428  0.2708  0.2624
 2705SOL    HW210818   4.248   1.178   4.973  0.1613  0.5151  0.4103
 2705SOL    HW310819   4.222   1.031   4.950  1.4644  0.6134 -1.7999
 2705SOL    MW410820   4.195   1.114   4.949  0.5405  0.3482  0.0098
 2706SOL     OW10821   0.214   4.477   4.511  0.1877  0.3945  0.3135
 2706SOL    HW210822   0.139   4.525   4.546 -0.6427 -0.5876 -0.1137
 2706SOL    HW310823   0.212   4.393   4.556  0.9849  0.3240  0.2349
 2706SOL    MW410824   0.204   4.472   4.522  0.1833  0.2556  0.2468
 2707SOL     OW10825   0.590   0.664   4.529  0.2555  0.4224 -0.2414
 2707SOL    HW210826   0.627   0.579   4.552  1.3137  0.7448 -0.7433
 2707SOL    HW310827   0.499   0.659   4.559 -0.2733 -1.6250 -2.0792
 2707SOL    MW410828   0.583   0.652   4.536  0.3254  0.1948 -0.5501
 2708SOL     OW10829   4.329   0.730   4.685  0.6848  0.0365 -0.4922
 2708SOL    HW210830   4.332   0.643   4.645  0.4788  0.3702 -1.2304
 2708SOL    HW310831   4.414   0.769   4.665  0.5201  0.2662 -0.7458
 2708SOL    MW410832   4.340   0.724   4.677  0.6359  0.1109 -0.6231
 2709SOL     OW10833   0.406   1.438   4.983 -0.2525  0.2497  0.2765
 2709SOL    HW210834   0.490   1.482   4.993 -0.4494  0.3710  1.4874
 2709SOL    HW310835   0.396   1.426   4.888  0.5651  1.2992  0.0512
 2709SOL    MW410836   0.416   1.442   4.972 -0.1706  0.4042  0.4065
 2710SOL     OW10837   0.667   2.103   4.573  0.1776  0.4205 -0.0408
 2710SOL    HW210838   0.743   2.045   4.585  0.3185  0.4433 -0.8184
 2710SOL    HW310839   0.592   2.049   4.597  0.4695  0.5474  1.2122
 2710SOL    MW410840   0.667   2.088   4.578  0.2347  0.4403  0.0219
 2711SOL     OW10841   4.458   1.231   4.736  0.4928 -0.0335 -0.0127
 2711SOL    HW210842   4.427   1.254   4.823 -1.0218  0.5688 -0.7015
 2711SOL    HW310843   4.512   1.153   4.749  0.9827  0.5562  1.5661
 2711SOL    MW410844   4.461   1.224   4.749  0.3576  0.1238  0.1047
 2712SOL     OW10845   0.168   1.890   4.567 -0.4519 -0.2834 -0.0884
 2712SOL    HW210846   0.152   1.796   4.578  0.0639 -0.4505 -0.7671
 2712SOL    HW310847   0.117   1.931   4.637 -0.9477 -1.0475  0.0018
 2712SOL    MW410848   0.159   1.883   4.578 -0.4492 -0.4062 -0.1660
 2713SOL     OW10849   0.545   1.634   4.577 -0.1761  0.4095  0.3105
 2713SOL    HW210850   0.516   1.555   4.623 -1.4089  0.5792 -0.1471
 2713SOL    HW310851   0.505   1.627   4.491  1.4410  0.5105 -0.4545
 2713SOL    MW410852   0.536   1.623   4.572 -0.1254  0.4452  0.1492
 2714SOL     OW10853   4.337   2.136   4.579  0.2775  0.2643 -0.4593
 2714SOL    HW210854   4.389   2.084   4.640 -0.0142  0.3198 -0.1631
 2714SOL    HW310855   4.247   2.108   4.595  0.1478  0.6708 -0.4861
 2714SOL    MW410856   4.332   2.125   4.589  0.2219  0.3252 -0.4238
 2715SOL     OW10857   4.050   2.682   4.624 -0.2939  0.1973  0.0617
 2715SOL    HW210858   4.116   2.726   4.569  0.1521 -0.2545  0.2278
 2715SOL    HW310859   4.074   2.707   4.714 -0.5478  0.2952  0.1016
 2715SOL    MW410860   4.062   2.691   4.629 -0.2685  0.1506  0.0889
 2716SOL     OW10861   0.461   2.795   4.623  0.3764 -0.2357  0.1218
 2716SOL    HW210862   0.376   2.799   4.579  0.7696  1.5345 -0.5547
 2716SOL    HW310863   0.500   2.713   4.594 -1.4786 -1.5117  1.1661
 2716SOL    MW410864   0.455   2.785   4.613  0.1835 -0.1705  0.1703
 2717SOL     OW10865   0.424   2.985   4.825 -0.2573 -0.6777  0.5089
 2717SOL    HW210866   0.496   3.000   4.887  0.4001 -1.9666  0.0663
 2717SOL    HW310867   0.449   2.906   4.777 -1.9332 -1.0914  0.2883
 2717SOL    MW410868   0.437   2.977   4.827 -0.3917 -0.9023  0.4214
 2718SOL     OW10869   4.440   2.363   4.692 -0.1875  0.6988  0.1434
 2718SOL    HW210870   4.406   2.292   4.638  1.0043  0.6047 -0.5032
 2718SOL    HW310871   4.516   2.324   4.736 -0.1299  1.2820  0.5627
 2718SOL    MW410872   4.446   2.348   4.691 -0.0227  0.7633  0.1134
 2719SOL     OW10873   0.009   3.241   4.561 -0.3556  0.0913 -0.3790
 2719SOL    HW210874   0.033   3.243   4.468  0.0816  0.1518 -0.2658
 2719SOL    HW310875   0.022   3.149   4.587 -1.4942 -0.1547 -0.6381
 2719SOL    MW410876   0.014   3.229   4.552 -0.4482  0.0668 -0.3982
 2720SOL     OW10877   0.233   3.376   4.682 -0.4911 -0.2513 -0.5598
 2720SOL    HW210878   0.231   3.471   4.671  0.2665 -0.1925 -0.1847
 2720SOL    HW310879   0.153   3.346   4.637 -1.6597  0.7138  0.8216
 2720SOL    MW410880   0.222   3.385   4.674 -0.5453 -0.1162 -0.3280
 2721SOL     OW10881   4.213   3.792   4.671  0.0414 -0.2185  0.0733
 2721SOL    HW210882   4.148   3.818   4.606  0.7388 -0.2092 -0.6324
 2721SOL    HW310883   4.265   3.724   4.628  0.4003 -0.3405  0.6812
 2721SOL    MW410884   4.211   3.786   4.657  0.1807 -0.2334  0.0604
 2722SOL     OW10885   4.299   0.120   4.831  0.2001 -0.1996 -0.1646
 2722SOL    HW210886   4.228   0.174   4.865  1.6414  1.6210  0.0382
 2722SOL    HW310887   4.342   0.084   4.909  1.0813  0.7978 -0.1791
 2722SOL    MW410888   4.295   0.122   4.846  0.5065  0.1722 -0.1397
 2723SOL     OW10889   3.794   0.477   4.613 -0.2553  0.5517 -0.4638
 2723SOL    HW210890   3.716   0.455   4.663 -0.1595  0.8579 -0.1781
 2723SOL    HW310891   3.813   0.568   4.637  0.9381  0.0750  0.4689
 2723SOL    MW410892   3.786   0.486   4.623 -0.0852  0.5292 -0.3031
 2724SOL     OW10893   3.679   3.779   4.916  0.0622  0.3008 -0.2948
 2724SOL    HW210894   3.691   3.687   4.939  0.9061  0.4957  0.0594
 2724SOL    HW310895   3.589   3.798   4.940 -0.3547 -0.6319 -1.0611
 2724SOL    MW410896   3.669   3.769   4.922  0.1185  0.2034 -0.3492
 2725SOL     OW10897   3.866   4.288   4.711 -0.1346 -0.0198  0.3976
 2725SOL    HW210898   3.845   4.345   4.637 -1.4862 -0.1624  0.6670
 2725SOL    HW310899   3.900   4.348   4.778  1.1709  0.1023 -0.3479
 2725SOL    MW410900   3.868   4.304   4.710 -0.1407 -0.0225  0.3348
 2726SOL     OW10901   0.455   4.613   4.613  0.0886  0.0197 -0.4598
 2726SOL    HW210902   0.384   4.586   4.555  0.0989 -1.0711  0.0281
 2726SOL    HW310903   0.448   4.555   4.689 -0.3576  1.8768  0.9608
 2726SOL    MW410904   0.445   4.602   4.616  0.0311  0.1208 -0.2080
 2727SOL     OW10905   4.353   0.896   4.913 -0.3046 -0.0027 -0.1461
 2727SOL    HW210906   4.341   0.817   4.860 -1.5224  1.3698 -1.9475
 2727SOL    HW310907   4.448   0.910   4.913  0.0190 -1.9228  0.9242
 2727SOL    MW410908   4.364   0.887   4.906 -0.4226 -0.0749 -0.2425
 2728SOL     OW10909   1.142   1.147   4.538 -0.1067  0.1974 -0.9116
 2728SOL    HW210910   1.070   1.093   4.570 -0.2839  0.5581 -0.7078
 2728SOL    HW310911   1.141   1.225   4.594  0.6911  0.0238 -0.6376
 2728SOL    MW410912   1.132   1.150   4.550 -0.0248  0.2220 -0.8486
 2729SOL     OW10913   0.683   0.109   4.537 -0.4179 -0.0601 -0.0405
 2729SOL    HW210914   0.614   0.050   4.566 -0.1136 -0.3800  0.0514
 2729SOL    HW310915   0.761   0.053   4.533  0.1359  0.6205  1.2390
 2729SOL    MW410916   0.685   0.094   4.540 -0.3047 -0.0125  0.1404
 2730SOL     OW10917   0.894   1.042   4.653 -0.0769 -0.0333  0.3282
 2730SOL    HW210918   0.881   1.045   4.748  0.8720  1.5376  0.4198
 2730SOL    HW310919   0.855   0.959   4.626 -1.1214 -0.0905  1.9750
 2730SOL    MW410920   0.887   1.032   4.662 -0.0895  0.1664  0.5575
 2731SOL     OW10921   0.097   0.797   4.587 -0.1311  0.1085 -0.6393
 2731SOL    HW210922   0.171   0.736   4.581  0.3936  0.8494 -1.7611
 2731SOL    HW310923   0.068   0.809   4.497 -0.3933  1.3232 -0.4007
 2731SOL    MW410924   0.103   0.791   4.574 -0.0965  0.3665 -0.7558
 2732SOL     OW10925   2.077   1.273   4.630  0.5258  0.5945 -0.2346
 2732SOL    HW210926   2.073   1.248   4.537 -1.4741  0.0789 -0.0287
 2732SOL    HW310927   2.131   1.205   4.670  0.1453 -0.0325 -0.7717
 2732SOL    MW410928   2.084   1.260   4.623  0.2117  0.4437 -0.2783
 2733SOL     OW10929   0.823   1.671   4.553  0.1778  0.0929 -0.3325
 2733SOL    HW210930   0.844   1.764   4.561  2.2201 -0.3780  0.0001
 2733SOL    HW310931   0.728   1.667   4.564  0.1652  2.0403  0.4604
 2733SOL    MW410932   0.814   1.683   4.556  0.4456  0.2877 -0.1840
 2734SOL     OW10933   1.410   1.578   4.627 -0.2332 -0.1191  0.4655
 2734SOL    HW210934   1.341   1.512   4.633 -1.0121  0.6525  0.1113
 2734SOL    HW310935   1.383   1.635   4.555  2.4230 -1.6760 -1.8647
 2734SOL    MW410936   1.397   1.577   4.618  0.0145 -0.2227  0.1113
 2735SOL     OW10937   0.890   1.930   4.587  0.3268  0.1871 -0.1465
 2735SOL    HW210938   0.967   1.978   4.558  0.4067  0.6393  0.7946
 2735SOL    HW310939   0.889   1.941   4.682  1.6378 -3.5942  0.3960
 2735SOL    MW410940   0.900   1.938   4.596  0.5103 -0.2521  0.0492
 2736SOL     OW10941   0.749   2.356   4.575 -0.1411 -0.0158 -0.1243
 2736SOL    HW210942   0.780   2.374   4.486 -0.3974  0.9782 -0.0267
 2736SOL    HW310943   0.721   2.264   4.573  0.8283 -0.2988 -0.7777
 2736SOL    MW410944   0.749   2.346   4.563 -0.0470  0.0780 -0.1977
 2737SOL     OW10945   1.185   1.385   4.688 -0.0751  0.4329  0.3992
 2737SOL    HW210946   1.094   1.413   4.694 -0.1167  0.3491  0.1385
 2737SOL    HW310947   1.213   1.374   4.779 -0.2521  0.6942  0.4837
 2737SOL    MW410948   1.177   1.387   4.701 -0.1040  0.4564  0.3760
 2738SOL     OW10949   0.196   2.781   4.501  0.0141  0.3734 -0.2690
 2738SOL    HW210950   0.204   2.818   4.412 -0.7209 -0.8286 -0.8383
 2738SOL    HW310951   0.139   2.705   4.491  1.6129 -1.0226  0.8658
 2738SOL    MW410952   0.190   2.776   4.488  0.1281  0.0306 -0.1944
 2739SOL     OW10953   0.901   2.717   4.642  0.4595  0.0918 -0.1570
 2739SOL    HW210954   0.930   2.632   4.675  1.3910  0.5745  0.3087
 2739SOL    HW310955   0.982   2.759   4.613 -0.0866  0.5266 -1.0675
 2739SOL    MW410956   0.916   2.711   4.642  0.5103  0.2129 -0.2157
 2740SOL     OW10957   0.532   2.542   4.577 -0.8671  0.0164  0.2002
 2740SOL    HW210958   0.607   2.487   4.599 -0.8857  0.0665  0.3951
 2740SOL    HW310959   0.497   2.505   4.497  0.5231  1.1378 -0.9602
 2740SOL    MW410960   0.538   2.530   4.570 -0.6862  0.1710  0.0728
 2741SOL     OW10961   1.353   2.944   4.573 -0.3690 -0.1889  0.3587
 2741SOL    HW210962   1.294   3.012   4.605 -1.3582 -0.1538 -1.5026
 2741SOL    HW310963   1.299   2.865   4.567 -0.0930 -0.2986 -0.7925
 2741SOL    MW410964   1.338   2.942   4.576 -0.4631 -0.1987 -0.0388
 2742SOL     OW10965   0.706   3.339   4.683  0.3880 -0.1430  0.0667
 2742SOL    HW210966   0.692   3.429   4.653  0.3664  0.1935  1.0789
 2742SOL    HW310967   0.618   3.300   4.680  0.0206  0.5286  1.7404
 2742SOL    MW410968   0.692   3.346   4.678  0.3367 -0.0100  0.4211
 2743SOL     OW10969   1.366   4.387   4.623 -0.2718  0.4212  0.1194
 2743SOL    HW210970   1.297   4.336   4.579  0.8420 -1.3307  0.3513
 2743SOL    HW310971   1.444   4.373   4.569  0.4229  0.5874  1.0745
 2743SOL    MW410972   1.367   4.378   4.610 -0.0332  0.2120  0.2760
 2744SOL     OW10973   4.338   2.910   4.726  0.0215 -0.5815  0.0939
 2744SOL    HW210974   4.326   2.882   4.635 -1.1865 -0.0960  0.0968
 2744SOL    HW310975   4.430   2.935   4.731 -0.0904  0.1356 -1.2094
 2744SOL    MW410976   4.349   2.910   4.715 -0.1526 -0.4228 -0.0777
 2745SOL     OW10977   4.382   3.587   4.574 -0.2469  0.4897  0.3461
 2745SOL    HW210978   4.331   3.506   4.571 -0.0113  0.3184  0.8803
 2745SOL    HW310979   4.374   3.624   4.486  1.7763 -1.4545 -0.7211
 2745SOL    MW410980   4.374   3.581   4.562  0.0511  0.2105  0.2758
 2746SOL     OW10981   0.940   4.080   4.509 -0.2856  0.0185  0.3825
 2746SOL    HW210982   0.897   4.165   4.516  0.3725  0.3027  1.0404
 2746SOL    HW310983   0.916   4.048   4.422 -1.8148  0.1738  0.7471
 2746SOL    MW410984   0.931   4.087   4.499 -0.4005  0.0765  0.5174
 2747SOL     OW10985   4.472   4.109   4.602 -0.3041 -0.1748  0.2288
 2747SOL    HW210986   4.424   4.066   4.673  0.3121 -0.0790  0.7034
 2747SOL    HW310987   4.427   4.193   4.591  1.0977  0.8750  2.1785
 2747SOL    MW410988   4.460   4.114   4.610 -0.0379 -0.0236  0.5487
 2748SOL     OW10989   4.341   3.999   4.821  0.4704 -0.0665 -0.3218
 2748SOL    HW210990   4.298   3.919   4.790 -0.2902 -0.0497  0.6505
 2748SOL    HW310991   4.276   4.039   4.879  0.9151  1.1629 -0.6612
 2748SOL    MW410992   4.326   3.994   4.825  0.4287  0.0980 -0.2383
 2749SOL     OW10993   0.249   4.216   4.611  0.1625 -0.4686 -0.2650
 2749SOL    HW210994   0.271   4.234   4.703 -1.0268  1.2469 -0.2751
 2749SOL    HW310995   0.163   4.174   4.616 -0.1563  0.1343 -0.6092
 2749SOL    MW410996   0.240   4.213   4.624 -0.0365 -0.1627 -0.3118
 2750SOL     OW10997   1.132   0.167   4.580  0.1002 -0.0541  0.2555
 2750SOL    HW210998   1.102   0.146   4.668 -0.4849 -1.1192 -0.1754
 2750SOL    HW310999   1.156   0.259   4.583 -1.0858  0.2356  1.2134
 2750SOL    MW411000   1.131   0.176   4.592 -0.1335 -0.1564  0.3250
 2751SOL     OW11001   0.934   4.660   4.462 -0.4996 -0.0474 -0.0293
 2751SOL    HW211002   0.989   4.726   4.503  0.4132 -0.7688 -0.0889
 2751SOL    HW311003   0.915   4.695   4.375 -0.4630  0.3796  0.1341
 2751SOL    MW411004   0.939   4.673   4.456 -0.3744 -0.0863 -0.0156
 2752SOL     OW11005   0.715   0.397   4.540 -0.1401  0.2334 -0.2721
 2752SOL    HW211006   0.721   0.410   4.446 -0.4605 -0.5145 -0.4081
 2752SOL    HW311007   0.714   0.301   4.550  0.6388  0.3013  0.5378
 2752SOL    MW411008   0.716   0.386   4.529 -0.0796  0.1436 -0.1832
 2753SOL     OW11009   1.665   1.075   4.665  0.1526  0.5262 -0.3324
 2753SOL    HW211010   1.635   1.038   4.749  2.1421 -0.3586  0.0130
 2753SOL    HW311011   1.585   1.101   4.621 -1.0679 -0.8195  1.0182
 2753SOL    MW411012   1.651   1.073   4.670  0.2541  0.2319 -0.1087
 2754SOL     OW11013   1.736   0.816   4.515 -0.7999  0.3388 -0.4989
 2754SOL    HW211014   1.760   0.834   4.424  1.2664 -0.0089 -0.0542
 2754SOL    HW311015   1.715   0.901   4.552 -2.7383  0.3661 -1.5672
 2754SOL    MW411016   1.736   0.829   4.508 -0.7830  0.2965 -0.5812
 2755SOL     OW11017   0.418   1.404   4.700 -0.3001 -0.2759 -0.0064
 2755SOL    HW211018   0.464   1.325   4.672 -0.3561  0.4507 -2.3007
 2755SOL    HW311019   0.326   1.387   4.679 -0.6535 -0.4916  1.6494
 2755SOL    MW411020   0.412   1.391   4.694 -0.3541 -0.2085 -0.0906
 2756SOL     OW11021   0.750   1.261   4.564  0.0511  0.1109  0.1340
 2756SOL    HW211022   0.666   1.231   4.597  0.5658  0.9172  2.3099
 2756SOL    HW311023   0.810   1.188   4.580  0.4382  0.7370  1.6499
 2756SOL    MW411024   0.747   1.248   4.571  0.1701  0.2999  0.6211
 2757SOL     OW11025   0.826   0.788   4.562 -0.1814  0.1770  0.2790
 2757SOL    HW211026   0.736   0.766   4.538  0.0330 -0.7255  0.2760
 2757SOL    HW311027   0.869   0.807   4.478  0.2608 -1.8216  0.0228
 2757SOL    MW411028   0.820   0.788   4.548 -0.0948 -0.2057  0.2448
 2758SOL     OW11029   1.823   1.306   4.709  0.2485  0.3324 -0.6430
 2758SOL    HW211030   1.785   1.219   4.694  0.2776  0.0375  0.8658
 2758SOL    HW311031   1.910   1.302   4.670  0.1126 -0.2023 -0.8873
 2758SOL    MW411032   1.829   1.294   4.702  0.2344  0.2230 -0.4762
 2759SOL     OW11033   0.904   1.446   4.702 -0.1139  0.1999 -0.2877
 2759SOL    HW211034   0.882   1.523   4.650  0.9898  0.2179 -0.7479
 2759SOL    HW311035   0.863   1.373   4.655  1.0491  0.1888 -1.3115
 2759SOL    MW411036   0.896   1.447   4.689  0.1852  0.2008 -0.4835
 2760SOL     OW11037   1.160   2.311   4.672 -0.1357  0.4476 -0.2424
 2760SOL    HW211038   1.229   2.365   4.635 -0.0194  1.0837  0.9211
 2760SOL    HW311039   1.091   2.373   4.695 -1.1257 -0.1794 -1.4139
 2760SOL    MW411040   1.160   2.326   4.670 -0.2510  0.4488 -0.2435
 2761SOL     OW11041   1.177   2.719   4.568  0.0839 -0.0735  0.1913
 2761SOL    HW211042   1.225   2.636   4.571  0.8015  0.3358  0.1706
 2761SOL    HW311043   1.145   2.725   4.478  0.2979 -0.1791  0.1072
 2761SOL    MW411044   1.179   2.708   4.556  0.2068 -0.0335  0.1775
 2762SOL     OW11045   1.622   2.914   4.567  0.0026  0.5625  0.7026
 2762SOL    HW211046   1.528   2.923   4.582 -0.3136 -0.2827 -0.7248
 2762SOL    HW311047   1.657   3.002   4.581 -1.2985  1.3577 -0.9025
 2762SOL    MW411048   1.614   2.927   4.571 -0.2108  0.5559  0.3025
 2763SOL     OW11049   1.453   3.572   4.549 -0.1859 -0.1160 -0.3416
 2763SOL    HW211050   1.520   3.608   4.607 -1.6347 -1.1583  2.0574
 2763SOL    HW311051   1.470   3.478   4.548  0.3420 -0.0352 -2.3473
 2763SOL    MW411052   1.464   3.564   4.556 -0.3074 -0.2429 -0.2897
 2764SOL     OW11053   0.730   2.922   4.574  0.1697 -0.1684 -0.0714
 2764SOL    HW211054   0.773   2.839   4.594 -0.8840 -0.9026 -0.7517
 2764SOL    HW311055   0.638   2.907   4.596  0.3525  1.6038  2.0195
 2764SOL    MW411056   0.724   2.909   4.579  0.0548 -0.0315  0.1147
 2765SOL     OW11057   0.472   3.744   4.654 -0.0457 -0.1527  0.3109
 2765SOL    HW211058   0.385   3.711   4.673 -0.0443 -0.8506 -0.8721
 2765SOL    HW311059   0.458   3.833   4.621 -0.2115  0.1879  1.2780
 2765SOL    MW411060   0.459   3.752   4.653 -0.0674 -0.1998  0.2824
 2766SOL     OW11061   1.177   3.137   4.654 -0.5068 -0.2710 -0.6671
 2766SOL    HW211062   1.084   3.126   4.635 -1.0250  0.3440  1.4573
 2766SOL    HW311063   1.181   3.208   4.718  1.4760  0.1129 -1.1824
 2766SOL    MW411064   1.166   3.145   4.660 -0.3135 -0.1392 -0.4548
 2767SOL     OW11065   0.889   3.143   4.599  0.1744  0.4732  0.1085
 2767SOL    HW211066   0.823   3.204   4.632 -1.2922  0.7987 -3.2908
 2767SOL    HW311067   0.844   3.059   4.594  0.4825  0.3611 -0.7704
 2767SOL    MW411068   0.874   3.140   4.603  0.0216  0.5013 -0.4559
 2768SOL     OW11069   1.725   3.658   4.642  0.4529  0.0815  0.0617
 2768SOL    HW211070   1.787   3.585   4.630  0.7610  0.5427 -1.1704
 2768SOL    HW311071   1.774   3.736   4.615  0.1290  0.7608  1.3918
 2768SOL    MW411072   1.740   3.658   4.637  0.4508  0.2320  0.0746
 2769SOL     OW11073   0.459   3.213   4.644 -0.2647 -0.5399 -0.2630
 2769SOL    HW211074   0.384   3.267   4.668 -0.0287 -0.2042 -0.2743
 2769SOL    HW311075   0.442   3.128   4.684  0.3475  0.1472  1.5076
 2769SOL    MW411076   0.447   3.209   4.652 -0.1528 -0.4049 -0.0309
 2770SOL     OW11077   0.407   3.992   4.571 -0.1136  0.1437  0.0299
 2770SOL    HW211078   0.432   4.001   4.479  0.0639  0.2048  0.0849
 2770SOL    HW311079   0.341   4.060   4.585  0.7890  0.9654  0.2893
 2770SOL    MW411080   0.401   4.002   4.561  0.0289  0.2601  0.0714
 2771SOL     OW11081   0.860   4.367   4.484 -0.7574 -0.1110 -0.2845
 2771SOL    HW211082   0.804   4.356   4.407 -0.2779 -1.6785 -0.4189
 2771SOL    HW311083   0.884   4.459   4.482 -1.2940  0.0191 -1.6350
 2771SOL    MW411084   0.855   4.378   4.473 -0.7649 -0.3007 -0.4804
 2772SOL     OW11085   0.437   4.468   4.855 -0.4908 -0.2566 -0.6778
 2772SOL    HW211086   0.375   4.395   4.857  0.1361 -0.8680 -2.3715
 2772SOL    HW311087   0.515   4.433   4.897 -0.1619 -0.6101 -1.5644
 2772SOL    MW411088   0.439   4.454   4.861 -0.3647 -0.3839 -1.0182
 2773SOL     OW11089   1.985   4.211   4.873  0.1740  0.1024  0.3365
 2773SOL    HW211090   2.058   4.271   4.889  0.8525 -0.5638 -0.1833
 2773SOL    HW311091   1.907   4.266   4.878  0.7146  0.8274  0.8891
 2773SOL    MW411092   1.985   4.227   4.876  0.3349  0.1102  0.3408
 2774SOL     OW11093   1.605   4.315   4.514 -0.6053  0.1287 -0.0992
 2774SOL    HW211094   1.689   4.355   4.535 -0.6584 -0.7177  1.7826
 2774SOL    HW311095   1.598   4.324   4.419  2.3332 -1.2125 -0.5000
 2774SOL    MW411096   1.615   4.321   4.504 -0.2246 -0.1599  0.0962
 2775SOL     OW11097   1.188   4.238   4.494 -0.0304  0.4002  0.2645
 2775SOL    HW211098   1.240   4.165   4.460 -0.4181  0.9192 -1.4868
 2775SOL    HW311099   1.103   4.199   4.514  0.1182  0.1389  0.3877
 2775SOL    MW411100   1.184   4.223   4.492 -0.0620  0.4342  0.0497
 2776SOL     OW11101   1.180   0.462   4.557  0.4167 -0.3128 -0.2280
 2776SOL    HW211102   1.232   0.536   4.588 -0.3167 -0.3539  1.1442
 2776SOL    HW311103   1.090   0.484   4.583  0.2503 -1.8531  0.5539
 2776SOL    MW411104   1.175   0.475   4.565  0.2980 -0.5214  0.0562
 2777SOL     OW11105   1.627   0.038   4.544  0.0145 -0.1168  0.1303
 2777SOL    HW211106   1.536   0.011   4.553  0.5177 -1.5116  1.3280
 2777SOL    HW311107   1.677  -0.043   4.553  1.4434  0.8216  0.8448
 2777SOL    MW411108   1.622   0.024   4.546  0.2694 -0.1770  0.3826
 2778SOL     OW11109   1.438   1.103   4.492  0.4154 -0.1118  0.0394
 2778SOL    HW211110   1.343   1.104   4.503  0.3150  1.7318 -0.7820
 2778SOL    HW311111   1.456   1.022   4.446 -0.5442 -1.4345  1.9024
 2778SOL    MW411112   1.428   1.092   4.487  0.2756 -0.0431  0.1768
 2779SOL     OW11113   2.049   1.580   4.965 -0.3125  0.3118 -0.0319
 2779SOL    HW211114   2.115   1.538   5.020 -1.4798 -1.1219  0.2887
 2779SOL    HW311115   2.040   1.668   5.002  0.0560 -0.1144  1.1022
 2779SOL    MW411116   2.056   1.586   4.977 -0.4179  0.0664  0.1600
 2780SOL     OW11117   0.928   0.545   4.623 -0.1313 -0.8025 -0.4745
 2780SOL    HW211118   0.899   0.635   4.608  1.6461 -0.1590 -0.2297
 2780SOL    HW311119   0.854   0.491   4.596 -0.6614  0.6696 -2.0493
 2780SOL    MW411120   0.914   0.550   4.618  0.0332 -0.5234 -0.6500
 2781SOL     OW11121   2.006   0.446   4.503 -0.4021  0.3273  0.0017
 2781SOL    HW211122   2.064   0.385   4.548 -0.3620  0.2209 -0.1938
 2781SOL    HW311123   1.920   0.403   4.505 -0.4389  0.4061  0.1375
 2781SOL    MW411124   2.002   0.433   4.509 -0.4016  0.3237 -0.0062
 2782SOL     OW11125   1.605   1.387   4.542 -0.1192 -0.2137 -0.1675
 2782SOL    HW211126   1.671   1.371   4.610 -0.4707  0.4303  0.3304
 2782SOL    HW311127   1.550   1.457   4.577 -0.3593  0.0679 -1.0819
 2782SOL    MW411128   1.606   1.394   4.556 -0.1972 -0.0916 -0.2225
 2783SOL     OW11129   1.320   1.867   4.659  0.5037  0.0900 -0.0925
 2783SOL    HW211130   1.317   1.773   4.678 -0.4644  0.1958  0.2967
 2783SOL    HW311131   1.413   1.888   4.654  0.7453 -0.4762  1.9157
 2783SOL    MW411132   1.332   1.858   4.661  0.4078  0.0293  0.2238
 2784SOL     OW11133   1.593   2.485   4.586  0.3223  0.0442  0.2950
 2784SOL    HW211134   1.542   2.483   4.667 -0.2464  1.2281 -0.0183
 2784SOL    HW311135   1.663   2.547   4.603  0.3796  0.0664 -0.0088
 2784SOL    MW411136   1.595   2.493   4.599  0.2549  0.2033  0.2136
 2785SOL     OW11137   1.982   2.252   4.556  0.0560 -0.2123  0.6225
 2785SOL    HW211138   2.009   2.161   4.561 -0.0129 -0.2973 -0.3888
 2785SOL    HW311139   1.892   2.253   4.587  0.6674 -0.1869  2.4279
 2785SOL    MW411140   1.974   2.240   4.561  0.1276 -0.2202  0.7273
 2786SOL     OW11141   0.939   2.456   4.760  0.9000 -0.6648 -0.3252
 2786SOL    HW211142   0.900   2.461   4.848  0.6958  1.1523 -0.5052
 2786SOL    HW311143   0.873   2.411   4.707  0.7747 -1.2479  0.3127
 2786SOL    MW411144   0.925   2.450   4.765  0.8565 -0.5020 -0.2648
 2787SOL     OW11145   1.310   3.986   4.432  0.0754 -0.3485 -0.0226
 2787SOL    HW211146   1.298   3.904   4.480  1.3086 -1.2758 -1.2450
 2787SOL    HW311147   1.393   4.022   4.467 -0.1020  0.0311  0.0141
 2787SOL    MW411148   1.320   3.980   4.443  0.2147 -0.4208 -0.1791
 2788SOL     OW11149   1.313   2.472   4.521  0.2170 -0.1834 -0.3104
 2788SOL    HW211150   1.308   2.454   4.427  0.4863 -0.4167 -0.2824
 2788SOL    HW311151   1.406   2.491   4.537  0.0203  0.7601 -0.2544
 2788SOL    MW411152   1.325   2.472   4.511  0.2266 -0.0897 -0.2994
 2789SOL     OW11153   1.776   2.683   4.574  0.5625  0.1548  0.0645
 2789SOL    HW211154   1.714   2.753   4.593  0.5308 -0.0769  0.8240
 2789SOL    HW311155   1.858   2.728   4.552  0.0665  0.4689 -1.1699
 2789SOL    MW411156   1.779   2.698   4.574  0.4928  0.1657  0.0018
 2790SOL     OW11157   1.487   3.298   4.555 -0.1707  0.0957  0.1742
 2790SOL    HW211158   1.567   3.256   4.586  0.1467  0.2980 -0.3692
 2790SOL    HW311159   1.416   3.252   4.601  0.2276 -0.3875  0.3077
 2790SOL    MW411160   1.488   3.286   4.565 -0.0763  0.0587  0.1201
 2791SOL     OW11161   1.214   3.731   4.518  0.4194 -0.4907  0.2997
 2791SOL    HW211162   1.295   3.684   4.535 -0.3473 -2.2110 -0.5967
 2791SOL    HW311163   1.187   3.701   4.431 -1.2948 -0.1292  0.6807
 2791SOL    MW411164   1.221   3.721   4.508  0.0921 -0.6700  0.2317
 2792SOL     OW11165   0.727   3.645   4.605 -0.2595  0.7519 -0.1611
 2792SOL    HW211166   0.635   3.672   4.614  0.1342  2.4424 -0.9632
 2792SOL    HW311167   0.777   3.719   4.638  0.8251 -0.1982  0.3569
 2792SOL    MW411168   0.721   3.658   4.610 -0.0645  0.8496 -0.1986
 2793SOL     OW11169   1.985   3.539   4.589  0.0020  0.1579  0.4375
 2793SOL    HW211170   2.000   3.555   4.496 -0.2271 -0.1338  0.3489
 2793SOL    HW311171   2.023   3.452   4.605 -0.6111 -0.1095  0.4524
 2793SOL    MW411172   1.992   3.529   4.579 -0.1091  0.0842  0.4278
 2794SOL     OW11173   1.745   3.171   4.587  0.3335 -0.5419 -0.2539
 2794SOL    HW211174   1.829   3.151   4.630  0.8278  1.5222 -0.1820
 2794SOL    HW311175   1.765   3.174   4.494  0.5557  0.8765 -0.1690
 2794SOL    MW411176   1.759   3.169   4.581  0.4280 -0.0824 -0.2332
 2795SOL     OW11177   2.153   3.698   4.766 -0.2135  0.0944 -0.4956
 2795SOL    HW211178   2.104   3.772   4.801  1.6150  1.0851  0.0520
 2795SOL    HW311179   2.097   3.663   4.697 -0.9366  2.2385 -1.0410
 2795SOL    MW411180   2.139   3.703   4.762 -0.0677  0.5080 -0.4953
 2796SOL     OW11181   0.973   3.827   4.638  0.1017  0.0219  0.0917
 2796SOL    HW211182   1.056   3.789   4.609 -0.1378  0.2005 -0.8302
 2796SOL    HW311183   0.958   3.900   4.578 -0.9549 -0.2941 -0.0375
 2796SOL    MW411184   0.982   3.832   4.626 -0.0693  0.0038 -0.0470
 2797SOL     OW11185   1.742   4.412   4.866  0.5708 -0.0478  0.2901
 2797SOL    HW211186   1.726   4.503   4.888 -0.7478 -0.2638  0.2642
 2797SOL    HW311187   1.656   4.370   4.871  1.0246 -1.1134 -0.4905
 2797SOL    MW411188   1.729   4.418   4.869  0.4567 -0.2169  0.1837
 2798SOL     OW11189   2.191   0.277   4.649  0.0928 -0.0831 -0.0806
 2798SOL    HW211190   2.269   0.328   4.672 -1.9123  2.1218  2.0721
 2798SOL    HW311191   2.149   0.257   4.732 -2.0116 -0.6288 -1.2263
 2798SOL    MW411192   2.196   0.281   4.663 -0.4494  0.1358  0.0522
 2799SOL     OW11193   1.355   4.646   4.538  0.4962  0.0841 -0.2780
 2799SOL    HW211194   1.281   4.702   4.558  0.8778  0.5396 -0.1306
 2799SOL    HW311195   1.322   4.557   4.549  0.3328  0.3031  1.0793
 2799SOL    MW411196   1.341   4.641   4.542  0.5250  0.1731 -0.0795
 2800SOL     OW11197   1.753   0.309   4.501 -0.0930 -0.4608 -0.2083
 2800SOL    HW211198   1.701   0.230   4.518 -2.0006  0.6598 -0.6630
 2800SOL    HW311199   1.688   0.378   4.487  1.4514  0.4393 -3.4961
 2800SOL    MW411200   1.738   0.307   4.501 -0.1409 -0.1942 -0.7021
 2801SOL     OW11201   2.316   0.046   4.537 -0.1535  0.0718  0.2087
 2801SOL    HW211202   2.287   0.052   4.446  2.4786 -0.7445 -0.7399
 2801SOL    HW311203   2.286   0.128   4.577 -4.0217 -0.8751 -0.5244
 2801SOL    MW411204   2.308   0.058   4.531 -0.3166 -0.1608 -0.0131
 2802SOL     OW11205   1.984   0.727   4.573  0.4241  0.0086  0.3485
 2802SOL    HW211206   1.998   0.639   4.537  1.0656  1.1144 -2.1790
 2802SOL    HW311207   1.896   0.751   4.545  0.2553  0.1955  1.0240
 2802SOL    MW411208   1.975   0.719   4.565  0.4865  0.1792  0.1042
 2803SOL     OW11209   1.601   0.578   4.584 -0.1643  0.1811  0.1538
 2803SOL    HW211210   1.642   0.663   4.571  0.3458  0.2201  1.9737
 2803SOL    HW311211   1.528   0.594   4.644  0.1801 -0.7150  0.8313
 2803SOL    MW411212   1.597   0.591   4.590 -0.0515  0.0680  0.4833
 2804SOL     OW11213   2.211   1.501   4.732  0.2251  0.1061 -0.0952
 2804SOL    HW211214   2.156   1.525   4.807  0.0274  1.3329 -0.6276
 2804SOL    HW311215   2.175   1.417   4.702  0.2122 -0.3244  1.0844
 2804SOL    MW411216   2.199   1.493   4.738  0.1973  0.2112 -0.0098
 2805SOL     OW11217   1.160   2.061   4.535 -0.0269  0.1228 -0.7420
 2805SOL    HW211218   1.210   2.002   4.593 -1.0332 -0.3565 -0.3554
 2805SOL    HW311219   1.169   2.147   4.576 -0.6218 -0.1930  0.0582
 2805SOL    MW411220   1.168   2.064   4.548 -0.2382  0.0179 -0.5854
 2806SOL     OW11221   1.779   1.534   4.855 -0.3120 -0.3596  0.1737
 2806SOL    HW211222   1.788   1.454   4.802  0.7994 -0.3226  0.3055
 2806SOL    HW311223   1.865   1.547   4.893  0.1996  2.2616 -1.7486
 2806SOL    MW411224   1.791   1.525   4.853 -0.0979 -0.0089 -0.0625
 2807SOL     OW11225   1.587   2.017   4.573  0.0367 -0.0194  0.3452
 2807SOL    HW211226   1.656   1.952   4.560 -1.2004 -1.4906  0.9877
 2807SOL    HW311227   1.633   2.097   4.599  1.5241 -0.8290  0.2343
 2807SOL    MW411228   1.602   2.019   4.575  0.0697 -0.3203  0.4154
 2808SOL     OW11229   1.819   1.835   4.559  0.0014 -0.2688  0.0619
 2808SOL    HW211230   1.785   1.778   4.629 -0.3656 -0.0321  0.0772
 2808SOL    HW311231   1.815   1.781   4.480  0.6594 -0.6249  0.2669
 2808SOL    MW411232   1.814   1.820   4.558  0.0398 -0.2845  0.0909
 2809SOL     OW11233   2.059   1.979   4.576  0.7604 -0.1776  0.2085
 2809SOL    HW211234   2.002   1.903   4.577  0.6482 -0.1042 -0.3461
 2809SOL    HW311235   2.083   1.990   4.484  1.3280  0.0439  0.3771
 2809SOL    MW411236   2.055   1.970   4.564  0.8205 -0.1387  0.1576
 2810SOL     OW11237   1.708   2.245   4.655  0.0846  0.5520 -0.1487
 2810SOL    HW211238   1.704   2.237   4.750 -1.8099  0.0660 -0.2513
 2810SOL    HW311239   1.674   2.332   4.637 -0.0970  0.4238 -0.4196
 2810SOL    MW411240   1.703   2.255   4.665 -0.1893  0.4710 -0.1980
 2811SOL     OW11241   2.199   2.440   4.562 -0.2921  0.0356 -0.3663
 2811SOL    HW211242   2.125   2.379   4.565  0.2419 -0.6000  0.0258
 2811SOL    HW311243   2.224   2.442   4.469 -0.6343  0.0501 -0.4591
 2811SOL    MW411244   2.193   2.432   4.550 -0.2668 -0.0463 -0.3268
 2812SOL     OW11245   2.253   2.704   4.616 -0.5950  0.1940  0.6420
 2812SOL    HW211246   2.325   2.711   4.679  0.8282 -0.1421 -0.8899
 2812SOL    HW311247   2.243   2.610   4.602  0.3422  0.3101 -0.9668
 2812SOL    MW411248   2.261   2.693   4.622 -0.2836  0.1650  0.2276
 2813SOL     OW11249   1.519   4.065   4.593 -0.4005  0.2717 -0.4842
 2813SOL    HW211250   1.535   4.157   4.572  0.4676  0.1511 -0.3444
 2813SOL    HW311251   1.507   4.064   4.688  0.7655  0.0687 -0.3381
 2813SOL    MW411252   1.519   4.077   4.602 -0.1321  0.2290 -0.4465
 2814SOL     OW11253   2.125   3.336   4.710  0.5211 -0.6183 -0.0483
 2814SOL    HW211254   2.197   3.294   4.663  1.0849  0.8584 -0.5309
 2814SOL    HW311255   2.167   3.401   4.765 -0.3802 -0.3673  0.3516
 2814SOL    MW411256   2.140   3.339   4.711  0.4766 -0.3904 -0.0592
 2815SOL     OW11257   1.987   3.069   4.694  0.0586  0.4879 -0.2419
 2815SOL    HW211258   1.999   3.023   4.777 -1.5250  1.1046  0.3534
 2815SOL    HW311259   2.038   3.150   4.705  0.9942 -0.0696 -0.4216
 2815SOL    MW411260   1.995   3.074   4.707 -0.0269  0.4957 -0.1871
 2816SOL     OW11261   2.580   3.680   4.532 -0.0335 -0.2999 -0.5068
 2816SOL    HW211262   2.500   3.722   4.564  0.4790  0.2996  0.0143
 2816SOL    HW311263   2.647   3.749   4.538  0.0169 -0.0957 -3.1499
 2816SOL    MW411264   2.579   3.695   4.537  0.0407 -0.1939 -0.7868
 2817SOL     OW11265   1.957   3.909   4.899 -0.2929  0.4072 -0.1519
 2817SOL    HW211266   1.967   4.004   4.907 -0.0110  0.3190  0.5349
 2817SOL    HW311267   1.871   3.898   4.858 -0.4678  0.9468  0.0615
 2817SOL    MW411268   1.947   3.920   4.894 -0.2788  0.4667 -0.0331
 2818SOL     OW11269   2.396   3.813   4.679 -0.0418 -0.4384 -0.0621
 2818SOL    HW211270   2.313   3.786   4.720  0.4547 -0.5867  0.8603
 2818SOL    HW311271   2.375   3.896   4.636 -0.7240 -0.5796 -0.0115
 2818SOL    MW411272   2.382   3.821   4.679 -0.0663 -0.4766  0.0663
 2819SOL     OW11273   1.778   3.964   4.560  0.2834  0.0690  0.2473
 2819SOL    HW211274   1.688   3.993   4.575  0.1527  0.1303 -0.6383
 2819SOL    HW311275   1.786   3.956   4.465  1.1292 -0.2126  0.3316
 2819SOL    MW411276   1.767   3.967   4.549  0.3778  0.0399  0.1416
 2820SOL     OW11277   2.042   4.096   4.623 -0.1587 -0.2010  0.3233
 2820SOL    HW211278   1.958   4.057   4.597 -0.6891  1.4467 -0.4552
 2820SOL    HW311279   2.029   4.119   4.715 -0.8468  0.7548  0.0009
 2820SOL    MW411280   2.029   4.094   4.632 -0.3194  0.1425  0.1780
 2821SOL     OW11281   1.803   4.484   4.598  0.1811 -0.2435  0.5213
 2821SOL    HW211282   1.887   4.448   4.570 -0.5441 -2.2961  0.9126
 2821SOL    HW311283   1.790   4.448   4.686 -1.2706 -0.2475  0.3147
 2821SOL    MW411284   1.812   4.474   4.606 -0.1061 -0.5148  0.5457
 2822SOL     OW11285   2.055   4.359   4.575 -0.2763  0.0555 -0.2500
 2822SOL    HW211286   2.051   4.266   4.598  0.0554  0.0946 -0.0279
 2822SOL    HW311287   2.145   4.385   4.598  0.2496 -0.0518 -2.1451
 2822SOL    MW411288   2.067   4.350   4.581 -0.1631  0.0465 -0.4707
 2823SOL     OW11289   2.298   4.455   4.661  0.1150 -0.0364  0.1736
 2823SOL    HW211290   2.376   4.413   4.625  0.7362  1.5059 -0.3574
 2823SOL    HW311291   2.299   4.543   4.624 -1.6184  0.1739  0.5584
 2823SOL    MW411292   2.309   4.461   4.651 -0.0317  0.1948  0.1543
 2824SOL     OW11293   1.635   1.740   4.750  0.3680 -0.0855 -0.3285
 2824SOL    HW211294   1.689   1.670   4.786 -0.4437 -0.5446 -0.0187
 2824SOL    HW311295   1.556   1.697   4.718 -0.4673  0.7694  0.5349
 2824SOL    MW411296   1.632   1.725   4.750  0.1507 -0.0333 -0.1737
 2825SOL     OW11297   2.590   0.071   4.520  0.3742  0.5410 -0.1170
 2825SOL    HW211298   2.601   0.102   4.430  0.5476  1.4009  0.1933
 2825SOL    HW311299   2.495   0.062   4.530  0.1607  2.9495  0.4177
 2825SOL    MW411300   2.579   0.074   4.509  0.3689  0.9723 -0.0055
 2826SOL     OW11301   2.456   0.631   4.531  0.1147  0.5820  0.2938
 2826SOL    HW211302   2.389   0.699   4.525 -0.3213  0.2450  1.2403
 2826SOL    HW311303   2.536   0.676   4.557  0.1070  0.8967 -0.2271
 2826SOL    MW411304   2.457   0.646   4.533  0.0562  0.5791  0.3499
 2827SOL     OW11305   2.842   0.514   4.593  0.3409 -0.7399 -0.3459
 2827SOL    HW211306   2.879   0.496   4.506 -2.5967  0.8232 -1.9928
 2827SOL    HW311307   2.794   0.435   4.616 -1.2676 -0.1390 -1.4981
 2827SOL    MW411308   2.841   0.501   4.584 -0.2589 -0.4544 -0.7152
 2828SOL     OW11309   2.225   1.038   4.731 -0.5515 -0.0816  0.3661
 2828SOL    HW211310   2.246   0.989   4.811 -1.0024  0.0057  0.5408
 2828SOL    HW311311   2.310   1.061   4.694 -0.3323  0.1274  0.9781
 2828SOL    MW411312   2.239   1.035   4.737 -0.5820 -0.0425  0.4699
 2829SOL     OW11313   2.449   1.165   4.658 -0.2138 -1.1014  0.2374
 2829SOL    HW211314   2.533   1.121   4.649 -0.3486 -1.0798 -1.2969
 2829SOL    HW311315   2.468   1.245   4.706  1.0884  0.1014 -2.1883
 2829SOL    MW411316   2.462   1.169   4.663 -0.0597 -0.9398 -0.2851
 2830SOL     OW11317   2.486   1.440   4.765  0.4162 -0.2711 -0.4346
 2830SOL    HW211318   2.533   1.494   4.828 -0.2030 -1.0723  0.7320
 2830SOL    HW311319   2.393   1.461   4.779  0.3654  1.0193 -2.4574
 2830SOL    MW411320   2.480   1.450   4.775  0.3278 -0.2066 -0.5476
 2831SOL     OW11321   2.256   1.926   4.786 -0.1383 -0.1669  0.1059
 2831SOL    HW211322   2.194   1.978   4.736 -0.8876  1.8019  2.9611
 2831SOL    HW311323   2.208   1.897   4.863  1.6631 -1.0412  0.9516
 2831SOL    MW411324   2.242   1.929   4.790  0.0005 -0.0225  0.5942
 2832SOL     OW11325   2.265   1.728   4.581 -0.0076  0.0367 -0.2020
 2832SOL    HW211326   2.261   1.654   4.642 -1.5642 -0.0286 -0.3840
 2832SOL    HW311327   2.223   1.800   4.628  0.2056  0.4161 -0.5915
 2832SOL    MW411328   2.259   1.728   4.595 -0.1849  0.0781 -0.2774
 2833SOL     OW11329   2.455   1.975   4.550  0.3025  0.0443 -0.2694
 2833SOL    HW211330   2.399   1.903   4.577  1.1217 -0.6682 -0.4735
 2833SOL    HW311331   2.528   1.974   4.612  0.5156  0.4569 -0.5104
 2833SOL    MW411332   2.457   1.966   4.562  0.4387  0.0048 -0.3281
 2834SOL     OW11333   2.716   2.385   4.530 -0.4558  0.2717  0.0967
 2834SOL    HW211334   2.629   2.351   4.552  0.1249  0.6108  2.9756
 2834SOL    HW311335   2.712   2.478   4.552  0.2752  0.5456 -0.8937
 2834SOL    MW411336   2.704   2.393   4.535 -0.2827  0.3526  0.3459
 2835SOL     OW11337   2.480   2.689   4.793 -0.2335 -0.2670  0.0400
 2835SOL    HW211338   2.530   2.757   4.838 -1.6679  0.2814  0.8174
 2835SOL    HW311339   2.477   2.616   4.855  0.3169 -0.6133 -0.3382
 2835SOL    MW411340   2.486   2.688   4.807 -0.3501 -0.2404  0.0927
 2836SOL     OW11341   2.020   2.827   4.544  0.2361  0.1385  0.3852
 2836SOL    HW211342   2.029   2.919   4.571  2.2736  0.5645 -1.5584
 2836SOL    HW311343   2.104   2.787   4.568  0.1001 -0.7241 -0.5491
 2836SOL    MW411344   2.033   2.834   4.551  0.4870  0.0809  0.0055
 2837SOL     OW11345   2.391   2.906   4.430  0.0105  0.0162 -0.4151
 2837SOL    HW211346   2.337   2.847   4.482 -0.5120  0.0012 -0.9753
 2837SOL    HW311347   2.358   2.993   4.451  0.1446  0.0489 -0.3335
 2837SOL    MW411348   2.380   2.910   4.440 -0.0408  0.0185 -0.4783
 2838SOL     OW11349   2.293   3.171   4.534  0.4716  0.0250  0.0025
 2838SOL    HW211350   2.385   3.186   4.554  0.5402  0.5751 -0.7046
 2838SOL    HW311351   2.281   3.210   4.448 -0.5922  0.5987  0.4024
 2838SOL    MW411352   2.304   3.178   4.526  0.3403  0.1733 -0.0380
 2839SOL     OW11353   1.488   4.286   4.867 -0.3614  0.5279  0.3244
 2839SOL    HW211354   1.442   4.323   4.792  0.9374  0.8350 -0.3380
 2839SOL    HW311355   1.482   4.191   4.854 -0.8208  0.5681  0.2477
 2839SOL    MW411356   1.481   4.278   4.855 -0.2506  0.5737  0.2269
 2840SOL     OW11357   2.832   4.089   4.718  0.2803 -0.2516 -0.0162
 2840SOL    HW211358   2.799   4.012   4.671  2.1330 -2.1236  1.6085
 2840SOL    HW311359   2.795   4.081   4.806 -0.5265  1.4201 -0.1923
 2840SOL    MW411360   2.823   4.078   4.723  0.4183 -0.2780  0.1749
 2841SOL     OW11361   2.310   3.493   4.870  0.1150 -0.1573 -0.2364
 2841SOL    HW211362   2.381   3.483   4.806  0.1089  0.4081 -0.3384
 2841SOL    HW311363   2.273   3.579   4.851 -1.1540 -0.8086 -0.7244
 2841SOL    MW411364   2.315   3.503   4.859 -0.0533 -0.1687 -0.3143
 2842SOL     OW11365   3.004   3.499   5.097 -0.3452  0.1302  0.4814
 2842SOL    HW211366   3.059   3.576   5.111  0.5760 -0.0811 -1.7412
 2842SOL    HW311367   2.914   3.531   5.109  0.0387  1.4788 -0.1229
 2842SOL    MW411368   2.999   3.513   5.101 -0.1730  0.2802  0.1084
 2843SOL     OW11369   3.076   3.820   4.550 -0.1295 -0.5549 -0.0080
 2843SOL    HW211370   3.152   3.815   4.608 -0.8033 -0.9324  0.8576
 2843SOL    HW311371   3.042   3.731   4.548 -1.1139 -0.1956  0.3832
 2843SOL    MW411372   3.081   3.808   4.558 -0.3483 -0.5573  0.1578
 2844SOL     OW11373   2.317   4.067   4.568  0.2283 -0.2703 -0.0743
 2844SOL    HW211374   2.225   4.074   4.592  0.1258  0.5990 -0.7001
 2844SOL    HW311375   2.316   4.037   4.477  0.5403  0.1756 -0.2293
 2844SOL    MW411376   2.305   4.064   4.559  0.2560 -0.0968 -0.1773
 2845SOL     OW11377   2.203   4.383   4.916  0.1897  0.0633 -0.0737
 2845SOL    HW211378   2.252   4.418   4.842 -2.1404  0.3426 -1.5106
 2845SOL    HW311379   2.218   4.446   4.986  1.5160  0.3636 -0.6104
 2845SOL    MW411380   2.212   4.396   4.916  0.0573  0.1397 -0.3341
 2846SOL     OW11381   3.156   0.327   4.641  0.1570 -0.2482 -0.1030
 2846SOL    HW211382   3.086   0.392   4.645  0.9043  0.6354 -1.2127
 2846SOL    HW311383   3.236   0.376   4.661  0.7057 -0.8426 -0.8062
 2846SOL    MW411384   3.158   0.342   4.644  0.3280 -0.2101 -0.3422
 2847SOL     OW11385   2.697   4.512   4.677  0.1998 -0.0828 -0.2297
 2847SOL    HW211386   2.693   4.431   4.627 -0.1455  0.3623 -0.9301
 2847SOL    HW311387   2.673   4.580   4.614 -0.8611  0.4077  0.6924
 2847SOL    MW411388   2.693   4.510   4.662  0.0143  0.0406 -0.2005
 2848SOL     OW11389   3.247   0.065   4.585 -0.1521  0.2082  0.2238
 2848SOL    HW211390   3.217   0.146   4.626  1.6014  0.7845  0.3833
 2848SOL    HW311391   3.288   0.016   4.656 -1.2325 -0.8390  0.1311
 2848SOL    MW411392   3.248   0.069   4.600 -0.0633  0.1461  0.2326
 2849SOL     OW11393   2.697   0.739   4.560 -0.0950  0.0966  0.2651
 2849SOL    HW211394   2.711   0.763   4.469 -2.7172 -1.1097 -0.5108
 2849SOL    HW311395   2.756   0.665   4.575 -0.3131 -0.2840 -0.7316
 2849SOL    MW411396   2.706   0.733   4.550 -0.4698 -0.1128  0.0312
 2850SOL     OW11397   3.662   0.664   4.916  0.0222  0.2668 -0.2746
 2850SOL    HW211398   3.728   0.697   4.855  0.2410 -0.6393 -0.5332
 2850SOL    HW311399   3.604   0.739   4.932  1.2007  1.1049  0.0769
 2850SOL    MW411400   3.663   0.678   4.910  0.2066  0.2578 -0.2623
 2851SOL     OW11401   2.258   0.829   4.547  0.3726  0.2095  0.0781
 2851SOL    HW211402   2.231   0.899   4.605  0.1685  0.2730 -0.0936
 2851SOL    HW311403   2.179   0.776   4.533  0.8092 -0.7478  1.1651
 2851SOL    MW411404   2.244   0.831   4.553  0.4032  0.0915  0.1989
 2852SOL     OW11405   2.699   1.035   4.619 -0.0868 -0.1520 -0.1418
 2852SOL    HW211406   2.793   1.052   4.610 -0.2816 -0.0874 -2.2937
 2852SOL    HW311407   2.691   0.940   4.611 -0.3859  0.0090 -1.8254
 2852SOL    MW411408   2.711   1.025   4.617 -0.1520 -0.1222 -0.6479
 2853SOL     OW11409   2.994   1.106   4.685 -0.1281  0.6375 -0.1220
 2853SOL    HW211410   2.948   1.106   4.770  0.0271 -2.7136  0.0223
 2853SOL    HW311411   2.988   1.197   4.655  0.1860  2.0152  3.6774
 2853SOL    MW411412   2.987   1.118   4.693 -0.0662  0.3772  0.3983
 2854SOL     OW11413   3.177   1.486   4.691 -0.1367 -0.0472  0.0785
 2854SOL    HW211414   3.100   1.429   4.683 -2.2257  2.6738 -0.0207
 2854SOL    HW311415   3.156   1.563   4.637  1.4623  1.9953  2.2465
 2854SOL    MW411416   3.164   1.489   4.683 -0.2013  0.5813  0.3514
 2855SOL     OW11417   2.900   1.850   4.498 -0.4037  0.2745  0.3807
 2855SOL    HW211418   2.845   1.803   4.436 -0.5270 -1.0271  1.4387
 2855SOL    HW311419   2.838   1.898   4.554 -0.3214  0.9666 -0.1119
 2855SOL    MW411420   2.884   1.850   4.497 -0.4091  0.1940  0.4553
 2856SOL     OW11421   2.725   2.015   4.668 -0.5181  0.0411 -0.1555
 2856SOL    HW211422   2.755   2.012   4.759 -0.2994  0.3422 -0.2161
 2856SOL    HW311423   2.788   2.072   4.624 -0.6014 -0.1331 -0.5050
 2856SOL    MW411424   2.737   2.022   4.674 -0.5003  0.0578 -0.2097
 2857SOL     OW11425   2.908   2.164   4.542  0.0469 -0.5257  0.6482
 2857SOL    HW211426   2.863   2.247   4.528 -1.8885 -1.5740  0.6078
 2857SOL    HW311427   2.924   2.130   4.454 -0.0203 -0.6515  0.6842
 2857SOL    MW411428   2.904   2.171   4.528 -0.2173 -0.6806  0.6476
 2858SOL     OW11429   3.146   2.225   4.679 -0.0664 -0.2190  0.1412
 2858SOL    HW211430   3.128   2.279   4.756 -0.3265 -0.6494  0.3823
 2858SOL    HW311431   3.060   2.210   4.639  0.0415 -0.1935 -0.1011
 2858SOL    MW411432   3.132   2.231   4.684 -0.0864 -0.2724  0.1410
 2859SOL     OW11433   2.454   2.299   4.565  0.3535  0.2401 -0.0648
 2859SOL    HW211434   2.366   2.333   4.579  1.0835  1.3343  2.2124
 2859SOL    HW311435   2.443   2.206   4.551 -1.2347  0.4974 -0.5384
 2859SOL    MW411436   2.441   2.291   4.565  0.2403  0.4184  0.1731
 2860SOL     OW11437   2.746   3.062   4.735 -0.2809 -0.1043  0.1674
 2860SOL    HW211438   2.800   3.104   4.802  0.4349 -0.9355  0.1162
 2860SOL    HW311439   2.806   3.005   4.688 -1.0171 -0.3636 -0.4724
 2860SOL    MW411440   2.761   3.060   4.737 -0.2836 -0.2482  0.0763
 2861SOL     OW11441   2.628   2.896   4.925 -0.1687  0.4390  0.0548
 2861SOL    HW211442   2.622   2.935   5.012  1.8723 -1.0386  0.8902
 2861SOL    HW311443   2.650   2.969   4.868 -0.4236  1.2251  0.9449
 2861SOL    MW411444   2.630   2.911   4.929  0.0670  0.3478  0.2825
 2862SOL     OW11445   2.572   3.194   4.574 -0.6502  0.2822 -0.2217
 2862SOL    HW211446   2.645   3.162   4.627 -0.0607  2.8759  0.6304
 2862SOL    HW311447   2.607   3.199   4.485 -0.2945  0.0270 -0.0988
 2862SOL    MW411448   2.586   3.190   4.569 -0.5255  0.5908 -0.0930
 2863SOL     OW11449   2.661   2.658   4.573  0.3639  0.0248  0.0161
 2863SOL    HW211450   2.593   2.678   4.637  0.8131  0.6800  0.2949
 2863SOL    HW311451   2.628   2.695   4.491  0.6224  0.8172  0.2649
 2863SOL    MW411452   2.648   2.666   4.570  0.4573  0.2158  0.0857
 2864SOL     OW11453   2.782   3.879   4.537  0.1925 -0.3313 -0.3274
 2864SOL    HW211454   2.876   3.862   4.529  0.3723  0.8140 -0.7648
 2864SOL    HW311455   2.760   3.930   4.459 -0.6357  0.0710  0.1580
 2864SOL    MW411456   2.791   3.883   4.526  0.1069 -0.1271 -0.3211
 2865SOL     OW11457   3.330   3.788   4.685  0.0008  0.4724  0.1154
 2865SOL    HW211458   3.341   3.698   4.654 -1.4455  0.1760  0.4612
 2865SOL    HW311459   3.341   3.782   4.780 -0.9672  0.5190  0.2325
 2865SOL    MW411460   3.333   3.775   4.694 -0.3177  0.4394  0.1764
 2866SOL     OW11461   3.758   3.839   4.650 -0.0365 -0.0069  0.1585
 2866SOL    HW211462   3.746   3.827   4.744  0.7549  0.0235  0.2632
 2866SOL    HW311463   3.741   3.752   4.613  0.1720 -0.1430  0.3804
 2866SOL    MW411464   3.754   3.826   4.658  0.0954 -0.0208  0.2016
 2867SOL     OW11465   2.533   3.451   4.697 -0.0222  0.3116 -0.2749
 2867SOL    HW211466   2.546   3.527   4.640  0.9125 -0.0811 -0.5794
 2867SOL    HW311467   2.550   3.375   4.642  1.3914 -0.0588  0.6353
 2867SOL    MW411468   2.537   3.451   4.682  0.2877  0.2109 -0.1950
 2868SOL     OW11469   2.503   4.294   4.547 -0.3446  0.0013 -0.0475
 2868SOL    HW211470   2.443   4.227   4.580 -0.0082 -1.3981 -2.1872
 2868SOL    HW311471   2.474   4.311   4.457  1.4573  0.4656 -0.5686
 2868SOL    MW411472   2.491   4.288   4.539 -0.0625 -0.1221 -0.3986
 2869SOL     OW11473   2.792   4.272   4.526 -0.1776  0.4086  0.0810
 2869SOL    HW211474   2.819   4.217   4.600 -0.7492  0.4885  0.3526
 2869SOL    HW311475   2.700   4.248   4.512 -0.1934  0.7137 -0.3203
 2869SOL    MW411476   2.783   4.261   4.534 -0.2551  0.4594  0.0639
 2870SOL     OW11477   3.370   0.533   4.619 -0.3092  0.1328  0.4521
 2870SOL    HW211478   3.388   0.519   4.526 -0.6468 -2.5695  0.7587
 2870SOL    HW311479   3.367   0.628   4.628  1.1468  0.4771 -2.0191
 2870SOL    MW411480   3.372   0.544   4.608 -0.1616 -0.1783  0.1665
 2871SOL     OW11481   2.438   0.405   4.698  0.0645 -0.4951 -0.3242
 2871SOL    HW211482   2.525   0.376   4.669  0.1455  1.1201 -1.7486
 2871SOL    HW311483   2.425   0.489   4.655 -1.6271 -0.0459  1.0098
 2871SOL    MW411484   2.448   0.412   4.689 -0.1480 -0.2227 -0.3361
 2872SOL     OW11485   2.261   0.906   4.992  0.3745 -0.2242  0.1011
 2872SOL    HW211486   2.351   0.877   5.003  0.1504 -0.6249  0.9369
 2872SOL    HW311487   2.208   0.832   5.021 -0.2213  0.2888  0.3469
 2872SOL    MW411488   2.266   0.893   4.997  0.2663 -0.2094  0.2438
 2873SOL     OW11489   2.676   0.281   4.666 -0.6526  0.1381  0.4018
 2873SOL    HW211490   2.635   0.209   4.618 -0.1029 -1.1038  1.7687
 2873SOL    HW311491   2.718   0.239   4.741  0.8923  1.6993  0.4521
 2873SOL    MW411492   2.676   0.266   4.669 -0.3762  0.1802  0.5888
 2874SOL     OW11493   3.561   0.923   4.904  0.1640  0.1768  0.0958
 2874SOL    HW211494   3.592   0.964   4.823  0.3687  0.8355  0.5086
 2874SOL    HW311495   3.596   0.978   4.974  1.7170 -1.5665  0.7231
 2874SOL    MW411496   3.569   0.936   4.902  0.3959  0.0337  0.2330
 2875SOL     OW11497   3.376   1.288   4.581  0.4253 -0.2415  0.2369
 2875SOL    HW211498   3.325   1.368   4.593  0.5237  0.2551 -2.2258
 2875SOL    HW311499   3.462   1.309   4.617  0.5243  0.8684 -0.6020
 2875SOL    MW411500   3.380   1.302   4.587  0.4513 -0.0296 -0.1987
 2876SOL     OW11501   3.138   1.741   4.582 -0.3139 -0.3120 -0.2124
 2876SOL    HW211502   3.057   1.790   4.568 -0.4816 -0.1819  1.1457
 2876SOL    HW311503   3.206   1.808   4.589 -0.3495 -0.3273  0.3315
 2876SOL    MW411504   3.136   1.756   4.581 -0.3408 -0.2969  0.0385
 2877SOL     OW11505   4.037   1.111   4.700  0.0314  0.6675  0.1439
 2877SOL    HW211506   4.082   1.115   4.784 -0.0423 -0.8564  0.2728
 2877SOL    HW311507   4.057   1.023   4.666  1.0663  1.6748 -1.9837
 2877SOL    MW411508   4.046   1.100   4.707  0.1582  0.5993 -0.1198
 2878SOL     OW11509   3.268   1.633   4.912 -0.0146  0.0366 -0.4197
 2878SOL    HW211510   3.264   1.573   4.986 -1.4815  0.2566 -0.3050
 2878SOL    HW311511   3.235   1.582   4.838  1.3902 -0.1644 -0.9199
 2878SOL    MW411512   3.263   1.618   4.912 -0.0228  0.0391 -0.4706
 2879SOL     OW11513   3.450   1.773   4.731 -0.0120 -0.1588 -0.1597
 2879SOL    HW211514   3.405   1.846   4.688  0.3843 -0.8356 -1.7798
 2879SOL    HW311515   3.384   1.734   4.788 -1.1988 -0.5185 -1.7371
 2879SOL    MW411516   3.435   1.777   4.733 -0.1163 -0.2956 -0.5816
 2880SOL     OW11517   3.306   1.966   4.605  0.7927  0.3031  0.0698
 2880SOL    HW211518   3.249   2.037   4.636  1.1316  0.2004  0.9522
 2880SOL    HW311519   3.351   2.002   4.530 -0.4052  0.4047 -0.6170
 2880SOL    MW411520   3.304   1.980   4.600  0.6793  0.3029  0.0956
 2881SOL     OW11521   3.830   2.112   4.966  0.3177 -0.0548 -0.2829
 2881SOL    HW211522   3.820   2.205   4.944  1.5600  0.2099  0.2461
 2881SOL    HW311523   3.756   2.069   4.922 -1.3488  1.4171  0.9916
 2881SOL    MW411524   3.819   2.119   4.957  0.2617  0.1743 -0.0449
 2882SOL     OW11525   2.879   2.840   4.613 -0.0004 -0.4854  0.0355
 2882SOL    HW211526   2.809   2.776   4.607 -0.3188 -0.0451 -1.2340
 2882SOL    HW311527   2.956   2.789   4.638 -0.6807 -1.0357  1.0048
 2882SOL    MW411528   2.880   2.825   4.615 -0.1322 -0.4999 -0.0041
 2883SOL     OW11529   3.511   2.517   4.574  0.2094  0.0067 -0.3429
 2883SOL    HW211530   3.419   2.496   4.585  0.0381 -0.4418 -2.4601
 2883SOL    HW311531   3.518   2.609   4.602 -1.0922  0.3692 -1.1468
 2883SOL    MW411532   3.500   2.527   4.579  0.0151 -0.0046 -0.7283
 2884SOL     OW11533   3.239   2.472   4.579  0.1694  0.0551  0.2062
 2884SOL    HW211534   3.207   2.483   4.490  1.6755 -1.3382 -0.5443
 2884SOL    HW311535   3.209   2.385   4.605 -0.7626  0.6834  1.2954
 2884SOL    MW411536   3.231   2.462   4.570  0.2451 -0.0459  0.2509
 2885SOL     OW11537   3.490   2.775   4.710  0.1057 -0.2267  0.2000
 2885SOL    HW211538   3.565   2.834   4.712 -0.3984  0.4162  0.2160
 2885SOL    HW311539   3.467   2.762   4.802 -1.1975  1.3810  0.1356
 2885SOL    MW411540   3.497   2.781   4.722 -0.1328  0.0702  0.1936
 2886SOL     OW11541   3.225   3.145   4.507  0.6151 -0.0295  0.1333
 2886SOL    HW211542   3.244   3.052   4.497  1.1577  0.1222 -0.2732
 2886SOL    HW311543   3.208   3.176   4.418  0.3722  0.2442  0.2754
 2886SOL    MW411544   3.226   3.137   4.494  0.6546  0.0266  0.0984
 2887SOL     OW11545   3.298   2.853   4.525  0.0231  0.0785  0.3523
 2887SOL    HW211546   3.338   2.848   4.438  0.0088 -0.2134  0.3617
 2887SOL    HW311547   3.367   2.826   4.585  0.3890  1.4001  0.5360
 2887SOL    MW411548   3.312   2.848   4.521  0.0695  0.2143  0.3778
 2888SOL     OW11549   4.022   2.417   4.576 -0.4136  0.1840 -0.2382
 2888SOL    HW211550   3.927   2.402   4.571 -0.4163  0.1658 -0.1122
 2888SOL    HW311551   4.031   2.510   4.593 -0.4159  0.1012  0.2047
 2888SOL    MW411552   4.010   2.427   4.577 -0.4143  0.1707 -0.1631
 2889SOL     OW11553   3.651   3.207   4.551 -0.1672  0.7210  0.2187
 2889SOL    HW211554   3.707   3.279   4.579  0.0023  0.3238  0.9171
 2889SOL    HW311555   3.649   3.214   4.455  2.2286 -0.0954  0.0821
 2889SOL    MW411556   3.658   3.217   4.542  0.1713  0.5608  0.2928
 2890SOL     OW11557   3.520   3.980   4.567 -0.1660 -0.4634  0.3078
 2890SOL    HW211558   3.443   3.928   4.590 -0.2361 -0.6199 -0.2648
 2890SOL    HW311559   3.592   3.940   4.615 -0.1314 -1.3873 -0.4827
 2890SOL    MW411560   3.519   3.968   4.576 -0.1707 -0.6059  0.1279
 2891SOL     OW11561   3.407   4.126   4.944  0.0780 -0.2441 -0.1612
 2891SOL    HW211562   3.478   4.133   4.881 -0.4804  0.8701 -0.6920
 2891SOL    HW311563   3.329   4.155   4.895 -0.5666 -0.5649  0.6698
 2891SOL    MW411564   3.406   4.131   4.929 -0.0807 -0.1394 -0.1216
 2892SOL     OW11565   3.610   4.174   4.758 -0.1481 -0.5854 -0.2889
 2892SOL    HW211566   3.695   4.208   4.731 -0.8577  0.7561 -0.8450
 2892SOL    HW311567   3.569   4.144   4.677 -0.8413  0.1959 -0.2305
 2892SOL    MW411568   3.616   4.174   4.744 -0.3332 -0.3053 -0.3546
 2893SOL     OW11569   3.479   4.427   4.587  0.1074 -0.5033  0.2648
 2893SOL    HW211570   3.500   4.361   4.653  1.3883 -1.1123 -0.7197
 2893SOL    HW311571   3.564   4.455   4.553 -0.4551  1.0925  0.1112
 2893SOL    MW411572   3.493   4.422   4.591  0.2022 -0.3731  0.1146
 2894SOL     OW11573   3.402   3.827   4.962 -0.2302  0.0296  0.0250
 2894SOL    HW211574   3.332   3.799   5.022  0.1826  1.1002  1.0412
 2894SOL    HW311575   3.416   3.919   4.985  0.5906  0.1865 -1.0929
 2894SOL    MW411576   3.394   3.836   4.973 -0.0675  0.1916  0.0116
 2895SOL     OW11577   3.583   0.166   4.809  0.0376 -0.2779 -0.0843
 2895SOL    HW211578   3.561   0.258   4.793 -0.0081 -0.2180  0.3210
 2895SOL    HW311579   3.604   0.162   4.902  0.3952 -0.6088 -0.1759
 2895SOL    MW411580   3.583   0.178   4.819  0.0787 -0.3136 -0.0429
 2896SOL     OW11581   3.346   0.793   4.680  0.4034 -0.7190 -0.0916
 2896SOL    HW211582   3.313   0.869   4.633  0.7164 -1.0494 -0.8546
 2896SOL    HW311583   3.408   0.829   4.744  0.4335 -0.3216 -0.3444
 2896SOL    MW411584   3.350   0.808   4.682  0.4487 -0.7102 -0.2256
 2897SOL     OW11585   3.236   1.037   4.561  0.4016 -0.0059  0.4125
 2897SOL    HW211586   3.280   1.122   4.561 -0.2982  0.3635 -0.1398
 2897SOL    HW311587   3.163   1.048   4.622 -0.2995  0.1191 -0.4336
 2897SOL    MW411588   3.232   1.050   4.569  0.2168  0.0593  0.2280
 2898SOL     OW11589   4.243   1.265   4.568  0.4735 -0.0038  0.3729
 2898SOL    HW211590   4.318   1.253   4.626 -1.0539  0.5800  2.5327
 2898SOL    HW311591   4.172   1.216   4.610 -0.2084 -1.1239 -1.9905
 2898SOL    MW411592   4.243   1.257   4.581  0.1820 -0.0746  0.3460
 2899SOL     OW11593   3.793   1.175   4.578 -0.1491 -0.0334 -0.0546
 2899SOL    HW211594   3.819   1.203   4.490 -1.5201 -2.5631 -1.3247
 2899SOL    HW311595   3.875   1.159   4.623  0.5767 -0.8806 -1.6236
 2899SOL    MW411596   3.807   1.177   4.572 -0.2342 -0.4789 -0.4292
 2900SOL     OW11597   4.086   0.849   4.595 -0.6153  0.2536  0.6523
 2900SOL    HW211598   4.164   0.796   4.611  1.0285  2.0442 -1.1095
 2900SOL    HW311599   4.084   0.860   4.500 -2.3329  1.2509  0.7922
 2900SOL    MW411600   4.096   0.844   4.585 -0.6250  0.6214  0.4383
 2901SOL     OW11601   4.329   0.460   4.568  0.2869 -0.6430  0.6527
 2901SOL    HW211602   4.237   0.435   4.580 -0.3428  1.6468  0.9472
 2901SOL    HW311603   4.342   0.455   4.473 -0.2446 -0.6762  0.5771
 2901SOL    MW411604   4.319   0.456   4.557  0.1337 -0.3453  0.6816
 2902SOL     OW11605   3.657   1.643   4.573 -0.0138 -0.3818 -0.3808
 2902SOL    HW211606   3.734   1.666   4.624 -1.0148  2.3749 -0.0396
 2902SOL    HW311607   3.584   1.682   4.620 -1.5054 -1.8739 -1.3742
 2902SOL    MW411608   3.657   1.651   4.586 -0.3427 -0.2149 -0.4669
 2903SOL     OW11609   3.861   1.724   4.729 -0.1942 -0.0758  0.6246
 2903SOL    HW211610   3.950   1.734   4.694 -0.0034 -0.8180  0.8856
 2903SOL    HW311611   3.871   1.666   4.805 -1.2111 -2.0962 -0.7224
 2903SOL    MW411612   3.874   1.717   4.734 -0.3032 -0.4403  0.4813
 2904SOL     OW11613   3.680   1.927   4.796  0.0680  0.1666  0.1849
 2904SOL    HW211614   3.738   1.853   4.781  0.5183  0.4393  0.5721
 2904SOL    HW311615   3.592   1.891   4.786  0.2666 -0.6064  1.1804
 2904SOL    MW411616   3.676   1.913   4.793  0.1536  0.1006  0.3673
 2905SOL     OW11617   4.184   2.362   4.797 -0.1262  0.3419 -0.1048
 2905SOL    HW211618   4.275   2.379   4.776 -0.0561  0.7814  0.5414
 2905SOL    HW311619   4.135   2.391   4.720  0.1950  1.0271 -0.0500
 2905SOL    MW411620   4.189   2.368   4.784 -0.0746  0.4903 -0.0123
 2906SOL     OW11621   4.489   1.724   4.337 -0.2428 -0.2714  0.2679
 2906SOL    HW211622   4.492   1.813   4.303 -0.1065  0.4624  2.1355
 2906SOL    HW311623   4.407   1.688   4.302 -0.6732  0.8432  0.0922
 2906SOL    MW411624   4.478   1.731   4.328 -0.2816 -0.0275  0.4911
 2907SOL     OW11625   4.102   2.104   4.899 -0.3952 -0.1009 -0.0740
 2907SOL    HW211626   4.129   2.194   4.881  1.4491 -0.3922  1.0636
 2907SOL    HW311627   4.011   2.111   4.928 -0.1187  1.4521  0.4470
 2907SOL    MW411628   4.093   2.117   4.901 -0.1154  0.0656  0.1448
 2908SOL     OW11629   3.780   2.722   4.539  0.5639  0.6514  0.2875
 2908SOL    HW211630   3.866   2.702   4.577 -0.8916 -0.3825  3.1592
 2908SOL    HW311631   3.754   2.804   4.581 -0.3159  0.4006  0.2363
 2908SOL    MW411632   3.788   2.731   4.549  0.2558  0.4819  0.6596
 2909SOL     OW11633   3.706   2.942   4.701 -0.3171 -0.3626  0.0516
 2909SOL    HW211634   3.791   2.955   4.742 -0.4459  0.1854  0.1392
 2909SOL    HW311635   3.686   3.025   4.658 -0.7012 -0.5641 -0.1680
 2909SOL    MW411636   3.714   2.955   4.700 -0.3848 -0.3168  0.0342
 2910SOL     OW11637   4.270   2.758   4.481 -0.7464 -0.2789 -0.1555
 2910SOL    HW211638   4.350   2.707   4.487 -1.6729 -1.7098  0.2174
 2910SOL    HW311639   4.265   2.786   4.390 -1.1037 -2.2954 -0.7715
 2910SOL    MW411640   4.280   2.755   4.470 -0.9158 -0.7338 -0.1876
 2911SOL     OW11641   3.405   3.296   4.656  0.2521  0.2617 -0.2685
 2911SOL    HW211642   3.327   3.256   4.617 -0.0966  0.7923 -0.1181
 2911SOL    HW311643   3.478   3.255   4.611 -0.0369 -1.9966  1.2583
 2911SOL    MW411644   3.404   3.285   4.645  0.1679  0.0338 -0.0472
 2912SOL     OW11645   3.798   3.433   4.662  0.4989 -0.0424 -0.2003
 2912SOL    HW211646   3.782   3.467   4.750  0.4987 -1.3607  0.3244
 2912SOL    HW311647   3.881   3.472   4.636  0.4465  0.4438  0.3476
 2912SOL    MW411648   3.807   3.442   4.671  0.4920 -0.1522 -0.0587
 2913SOL     OW11649   3.390   3.557   4.560 -0.5170  0.2903 -0.3260
 2913SOL    HW211650   3.383   3.467   4.589 -1.4057  0.2563 -0.6473
 2913SOL    HW311651   3.484   3.571   4.547 -0.4880 -0.9944 -1.5479
 2913SOL    MW411652   3.402   3.547   4.562 -0.6304  0.1163 -0.5296
 2914SOL     OW11653   3.664   3.615   4.517 -0.2233 -0.1005 -0.2303
 2914SOL    HW211654   3.713   3.627   4.436 -0.1078  0.9641  0.0001
 2914SOL    HW311655   3.710   3.544   4.562  0.5332  0.2417 -0.4588
 2914SOL    MW411656   3.676   3.607   4.512 -0.1083  0.0851 -0.2301
 2915SOL     OW11657   0.128   2.994   4.700  0.5023 -0.2280  0.0146
 2915SOL    HW211658   0.158   2.923   4.643 -0.5843 -0.5867 -0.1221
 2915SOL    HW311659   0.201   3.011   4.759  1.3305 -0.4145 -0.9570
 2915SOL    MW411660   0.141   2.987   4.700  0.4682 -0.2999 -0.1316
 2916SOL     OW11661   4.009   3.928   4.528  0.1000 -0.6424  0.2952
 2916SOL    HW211662   4.029   4.009   4.574 -0.0020 -0.4119 -0.0679
 2916SOL    HW311663   3.927   3.898   4.568 -1.2120  0.7518 -1.2934
 2916SOL    MW411664   4.001   3.935   4.540 -0.0866 -0.4280  0.0377
 2917SOL     OW11665   3.757   4.455   4.512 -0.0929  0.2872  0.0807
 2917SOL    HW211666   3.783   4.442   4.421  0.0734  2.0124 -0.1403
 2917SOL    HW311667   3.754   4.550   4.522  0.0864  0.1080  1.9398
 2917SOL    MW411668   3.760   4.466   4.501 -0.0473  0.4911  0.2968
 2918SOL     OW11669   3.413   4.602   4.789 -0.1292 -0.2200  0.1333
 2918SOL    HW211670   3.442   4.551   4.714 -0.0736  0.1288 -0.0855
 2918SOL    HW311671   3.471   4.678   4.791 -1.0218  0.4848 -0.3187
 2918SOL    MW411672   3.424   4.605   4.779 -0.2396 -0.0810  0.0448
 2919SOL     OW11673   3.634   0.941   4.620  0.0126  0.1541  0.5254
 2919SOL    HW211674   3.674   1.026   4.604 -1.6227  1.1322  1.5716
 2919SOL    HW311675   3.593   0.917   4.537  0.2809  0.4874  0.2980
 2919SOL    MW411676   3.634   0.949   4.607 -0.1677  0.3271  0.6334
 2920SOL     OW11677   3.826   0.748   4.687 -0.6778  0.6454  0.1924
 2920SOL    HW211678   3.914   0.787   4.683  0.2276 -1.3742 -0.3753
 2920SOL    HW311679   3.769   0.815   4.650  0.6654  1.8887  0.3231
 2920SOL    MW411680   3.830   0.762   4.681 -0.3811  0.5430  0.1348
 2921SOL     OW11681   4.461   0.254   4.663  0.8472 -0.6331  0.8205
 2921SOL    HW211682   4.400   0.224   4.730 -0.1246  1.2468  0.8158
 2921SOL    HW311683   4.425   0.338   4.633  1.6583 -1.0961 -1.5390
 2921SOL    MW411684   4.449   0.261   4.668  0.8260 -0.4462  0.5086
 2922SOL     OW11685   0.300   0.620   4.564  0.0858 -0.1857 -0.0181
 2922SOL    HW211686   0.315   0.546   4.623 -1.0209 -0.0980  0.3744
 2922SOL    HW311687   0.303   0.583   4.476 -0.1634 -0.6420  0.1657
 2922SOL    MW411688   0.303   0.606   4.560 -0.0931 -0.2343  0.0580
 2923SOL     OW11689   4.073   0.359   4.632  0.4712  0.0522 -0.2920
 2923SOL    HW211690   4.045   0.272   4.603 -1.8102  0.4218  0.6677
 2923SOL    HW311691   3.994   0.412   4.627  1.2448  1.4352  1.5805
 2923SOL    MW411692   4.059   0.355   4.628  0.2723  0.2834  0.0817
 2924SOL     OW11693   3.620   1.376   4.670 -0.1418  0.3813 -0.3602
 2924SOL    HW211694   3.665   1.310   4.617  1.5085  0.6843  0.6099
 2924SOL    HW311695   3.642   1.459   4.628 -2.2273  0.3336 -1.5891
 2924SOL    MW411696   3.629   1.379   4.658 -0.1992  0.4149 -0.3943
 2925SOL     OW11697   0.136   0.970   4.811 -0.4429  0.1069  0.3572
 2925SOL    HW211698   0.147   0.906   4.741 -1.8013 -0.9623  1.0845
 2925SOL    HW311699   0.154   0.922   4.891 -1.1657  0.7104  0.8935
 2925SOL    MW411700   0.140   0.955   4.812 -0.7175  0.0455  0.5240
 2926SOL     OW11701   0.060   1.634   4.587 -0.7163  0.1662  0.3388
 2926SOL    HW211702   0.003   1.666   4.657  0.1651  1.2082  0.5993
 2926SOL    HW311703   0.020   1.668   4.507 -1.1943 -0.2330  0.3989
 2926SOL    MW411704   0.047   1.643   4.585 -0.6631  0.2510  0.3811
 2927SOL     OW11705   4.107   1.750   4.600 -0.3302 -0.1047 -0.1330
 2927SOL    HW211706   4.180   1.713   4.650 -0.5102  0.0227  0.2278
 2927SOL    HW311707   4.129   1.843   4.590  0.4217 -0.4230 -1.5745
 2927SOL    MW411708   4.119   1.758   4.606 -0.2547 -0.1299 -0.2756
 2928SOL     OW11709   3.113   2.702   4.666 -0.7876 -0.0569  0.0993
 2928SOL    HW211710   3.167   2.756   4.608 -0.5808  2.4452  2.5584
 2928SOL    HW311711   3.158   2.617   4.667  1.2720  0.9793 -0.4931
 2928SOL    MW411712   3.126   2.698   4.658 -0.4886  0.4100  0.3456
 2929SOL     OW11713   4.306   2.090   4.290 -0.4128  0.1147  0.2028
 2929SOL    HW211714   4.225   2.039   4.281 -0.3513 -0.1400  1.0809
 2929SOL    HW311715   4.308   2.116   4.382 -0.1674  1.2575 -0.1192
 2929SOL    MW411716   4.295   2.086   4.301 -0.3723  0.2319  0.2762
 2930SOL     OW11717   4.087   2.037   4.612  0.1698 -0.6174  0.1052
 2930SOL    HW211718   4.098   2.062   4.704  1.8253 -1.3921  0.1344
 2930SOL    HW311719   4.005   2.079   4.585  0.4075  0.7879  1.5251
 2930SOL    MW411720   4.077   2.046   4.621  0.4196 -0.5342  0.2964
 2931SOL     OW11721   3.780   2.102   4.592 -0.1393 -0.1462  0.6536
 2931SOL    HW211722   3.753   2.037   4.656  1.6352 -0.3966  1.1945
 2931SOL    HW311723   3.750   2.186   4.627  0.3328 -0.3456  1.5437
 2931SOL    MW411724   3.773   2.105   4.605  0.1571 -0.2055  0.8424
 2932SOL     OW11725   3.737   2.368   4.647  0.0923 -0.0471 -1.0901
 2932SOL    HW211726   3.668   2.425   4.613 -0.0453  0.2254 -0.3649
 2932SOL    HW311727   3.748   2.395   4.738 -0.9836 -2.1424 -0.3045
 2932SOL    MW411728   3.730   2.379   4.654 -0.0678 -0.2876 -0.8908
 2933SOL     OW11729   4.101   2.806   4.877  0.3253  0.1334 -0.1592
 2933SOL    HW211730   4.186   2.827   4.838 -0.0078 -0.6733 -1.3540
 2933SOL    HW311731   4.049   2.885   4.866  0.3391  0.0151 -1.0710
 2933SOL    MW411732   4.105   2.819   4.871  0.2832  0.0114 -0.4371
 2934SOL     OW11733   0.007   2.585   4.512  0.4009  0.1195 -0.6391
 2934SOL    HW211734  -0.013   2.530   4.587  4.0672  0.4905  0.7420
 2934SOL    HW311735   0.012   2.524   4.438 -1.2311 -0.5411 -0.2243
 2934SOL    MW411736   0.005   2.570   4.512  0.6693  0.0813 -0.4022
 2935SOL     OW11737   4.247   3.355   4.523  0.0755 -0.4728 -0.3133
 2935SOL    HW211738   4.210   3.323   4.441 -0.3374 -1.3150  0.2002
 2935SOL    HW311739   4.331   3.309   4.530  0.9384  0.9213 -1.1323
 2935SOL    MW411740   4.253   3.345   4.513  0.1348 -0.4000 -0.3536
 2936SOL     OW11741   0.191   3.641   4.606 -0.1833  0.2402  0.2597
 2936SOL    HW211742   0.217   3.646   4.514 -1.4744  0.2299 -0.1124
 2936SOL    HW311743   0.101   3.609   4.604  0.0723 -0.5900  1.5728
 2936SOL    MW411744   0.182   3.638   4.594 -0.3199  0.1293  0.3839
 2937SOL     OW11745   4.114   4.174   4.659 -0.0299 -0.6652  0.4261
 2937SOL    HW211746   4.132   4.145   4.748  1.4793 -0.6247  0.1466
 2937SOL    HW311747   4.037   4.230   4.667  0.8502  0.3681  1.9044
 2937SOL    MW411748   4.106   4.178   4.672  0.2854 -0.5235  0.5843
 2938SOL     OW11749   3.731   0.078   4.580  0.5306 -0.0511 -0.1412
 2938SOL    HW211750   3.681   0.112   4.654 -1.9674 -1.6304 -1.0174
 2938SOL    HW311751   3.685   0.110   4.503  1.5108 -0.6391 -0.9880
 2938SOL    MW411752   3.718   0.086   4.580  0.3304 -0.3370 -0.3685
 2939SOL     OW11753   4.041   3.540   4.608 -0.0859  0.2851  0.4644
 2939SOL    HW211754   4.089   3.598   4.668 -0.8134 -0.0417  1.3716
 2939SOL    HW311755   4.100   3.466   4.594  0.0556  0.3233  0.8527
 2939SOL    MW411756   4.055   3.538   4.614 -0.1632  0.2470  0.6353
 2940SOL     OW11757   3.570   0.434   4.768  0.6354 -0.1627 -0.0845
 2940SOL    HW211758   3.599   0.499   4.832  0.6585 -0.6156  0.3613
 2940SOL    HW311759   3.494   0.475   4.726 -0.2162 -0.4191  1.1822
 2940SOL    MW411760   3.564   0.448   4.771  0.5261 -0.2563  0.1414
 2941SOL     OW11761   4.280   4.388   4.283 -0.0737 -0.1314 -0.0426
 2941SOL    HW211762   4.360   4.347   4.251 -1.0780 -1.2862 -1.0702
 2941SOL    HW311763   4.286   4.380   4.378  0.6335 -0.9554 -0.1498
 2941SOL    MW411764   4.291   4.382   4.292 -0.1129 -0.3925 -0.1923
   4.49070   4.66690  10.00000
