Gromacs Runs On Most of All Computer Systems in water
11524
    1DMSO    SD    1   0.600   1.189   4.555 -0.2486 -0.4623  0.2069
    1DMSO   CD1    2   0.674   1.047   4.472  0.4856 -0.0245  0.3563
    1DMSO    OD    3   0.450   1.174   4.532 -0.1090  0.2078 -0.2329
    1DMSO   CD2    4   0.628   1.132   4.721 -0.0122  0.0502  0.1578
    2SOL     OW    5   1.165   0.636   0.704 -0.4503 -0.0479 -0.1988
    2SOL    HW2    6   1.223   0.650   0.630 -0.5847 -1.5618 -0.6199
    2SOL    HW3    7   1.199   0.557   0.746 -1.0460  0.1627  0.6900
    2SOL    MW4    8   1.177   0.627   0.700 -0.5467 -0.2198 -0.1371
    3SOL     OW    9   1.942   2.349   0.825  0.1604  0.3128 -0.1570
    3SOL    HW2   10   1.899   2.434   0.814  0.2349  0.3835  0.0976
    3SOL    HW3   11   1.945   2.336   0.920  0.9864  0.4493 -0.1656
    3SOL    MW4   12   1.937   2.359   0.836  0.2792  0.3401 -0.1246
    4SOL     OW   13   1.158   1.096   0.497 -0.0496 -0.7393  0.3936
    4SOL    HW2   14   1.202   1.178   0.515 -1.0435 -0.2592  0.6713
    4SOL    HW3   15   1.130   1.064   0.583 -1.4625 -0.3405  0.0925
    4SOL    MW4   16   1.160   1.102   0.511 -0.3672 -0.6233  0.3905
    5SOL     OW   17   0.310   4.613   0.882 -0.0731 -0.2454 -0.2643
    5SOL    HW2   18   0.311   4.531   0.833 -0.4859 -0.1392 -0.4540
    5SOL    HW3   19   0.401   4.643   0.882  0.0862 -0.7306 -0.1485
    5SOL    MW4   20   0.322   4.606   0.876 -0.1066 -0.2954 -0.2741
    6SOL     OW   21   0.953   4.302   0.587  0.3055  0.4592  0.1966
    6SOL    HW2   22   1.048   4.296   0.577  0.1862  0.4872 -1.0398
    6SOL    HW3   23   0.927   4.377   0.534 -0.3406  0.8513  1.0482
    6SOL    MW4   24   0.962   4.311   0.579  0.2045  0.5147  0.1458
    7SOL     OW   25   4.299   0.770   0.850  0.0586  0.2156 -0.1121
    7SOL    HW2   26   4.213   0.759   0.809  0.3842 -0.0419 -0.7302
    7SOL    HW3   27   4.345   0.688   0.831  0.5534  0.4831 -0.0561
    7SOL    MW4   28   4.294   0.758   0.842  0.1668  0.2169 -0.1863
    8SOL     OW   29   0.599   4.164   0.516 -0.1676 -0.3733  0.5965
    8SOL    HW2   30   0.579   4.242   0.465  0.6672 -0.0657  0.7223
    8SOL    HW3   31   0.514   4.121   0.530 -0.1085 -2.0085 -3.4588
    8SOL    MW4   32   0.585   4.168   0.511 -0.0497 -0.5485  0.0780
    9SOL     OW   33   3.101   3.596   0.541  0.1312 -0.4425  0.3965
    9SOL    HW2   34   3.163   3.623   0.473  0.1077 -1.3219  0.0118
    9SOL    HW3   35   3.015   3.612   0.502  0.1173 -0.1207  0.5599
    9SOL    MW4   36   3.097   3.601   0.527  0.1262 -0.5160  0.3673
   10SOL     OW   37   1.255   3.256   0.465 -0.2275  0.1880 -0.1670
   10SOL    HW2   38   1.275   3.237   0.557 -0.7199  1.4340  0.2092
   10SOL    HW3   39   1.164   3.230   0.454 -0.1982  0.1313 -0.2753
   10SOL    MW4   40   1.246   3.250   0.476 -0.2886  0.3449 -0.1317
   11SOL     OW   41   3.326   3.333   0.354  0.2065  0.0020  0.0595
   11SOL    HW2   42   3.387   3.262   0.372  0.8188  0.9237  1.7498
   11SOL    HW3   43   3.366   3.410   0.395 -1.3600  0.9292 -0.1128
   11SOL    MW4   44   3.339   3.334   0.362  0.0806  0.2460  0.2598
   12SOL     OW   45   0.976   3.145   0.448 -0.8113  0.2639  0.1498
   12SOL    HW2   46   0.950   3.058   0.419  0.3370 -0.0352 -0.0050
   12SOL    HW3   47   0.905   3.202   0.420 -1.1709 -0.5006 -0.4946
   12SOL    MW4   48   0.963   3.141   0.441 -0.7072  0.1235  0.0443
   13SOL     OW   49   0.454   1.676   0.729  0.6917  0.3169 -0.3075
   13SOL    HW2   50   0.464   1.755   0.782  1.7466 -0.9565  1.4352
   13SOL    HW3   51   0.404   1.705   0.653 -1.2373  2.1271  1.5642
   13SOL    MW4   52   0.449   1.691   0.726  0.5764  0.3877  0.1693
   14SOL     OW   53   0.549   4.479   0.488  0.1919 -0.1347  0.5438
   14SOL    HW2   54   0.566   4.468   0.581  1.3511  1.3577  0.5237
   14SOL    HW3   55   0.528   4.572   0.478 -1.1080 -0.5190 -0.5068
   14SOL    MW4   56   0.548   4.490   0.499  0.1733  0.0115  0.4025
   15SOL     OW   57   0.232   3.673   0.548  0.4593  0.1506  0.7587
   15SOL    HW2   58   0.325   3.691   0.538  0.1547  1.7697  0.7931
   15SOL    HW3   59   0.219   3.666   0.642  0.6252 -0.5390  0.7335
   15SOL    MW4   60   0.243   3.674   0.559  0.4410  0.2732  0.7599
   16SOL     OW   61   2.250   2.412   0.516 -0.4151  0.1743 -0.3773
   16SOL    HW2   62   2.176   2.455   0.473 -1.0627 -0.4959  0.0398
   16SOL    HW3   63   2.321   2.476   0.513 -1.2967  1.1905  0.0558
   16SOL    MW4   64   2.249   2.426   0.510 -0.6169  0.2199 -0.2651
   17SOL     OW   65   0.909   4.226   1.211 -0.2720  0.0624  0.7317
   17SOL    HW2   66   0.940   4.151   1.262  0.1138  0.1350  0.6051
   17SOL    HW3   67   0.926   4.202   1.120 -0.1954  0.2798  0.6870
   17SOL    MW4   68   0.916   4.213   1.206 -0.2110  0.1007  0.7091
   18SOL     OW   69   1.341   2.128   0.706 -0.2771 -0.4313  0.3694
   18SOL    HW2   70   1.390   2.137   0.624 -1.4470 -0.0480 -0.2859
   18SOL    HW3   71   1.252   2.107   0.679 -0.7592  0.0865  1.5311
   18SOL    MW4   72   1.336   2.126   0.692 -0.4951 -0.3124  0.4362
   19SOL     OW   73   3.276   3.055   0.852 -0.0428  0.5079 -0.1441
   19SOL    HW2   74   3.279   2.965   0.818 -0.1587 -0.2112  1.6825
   19SOL    HW3   75   3.297   3.046   0.945 -0.2333  2.3652  0.0962
   19SOL    MW4   76   3.279   3.042   0.860 -0.0832  0.6581  0.1286
   20SOL     OW   77   0.353   3.070   0.884 -0.2999 -0.2533  0.2543
   20SOL    HW2   78   0.295   3.048   0.811 -0.4045 -0.8987  0.5276
   20SOL    HW3   79   0.293   3.084   0.958 -0.1840  0.2555  0.2559
   20SOL    MW4   80   0.337   3.069   0.885 -0.2984 -0.2713  0.2906
   21SOL     OW   81   4.048   0.076   0.778 -0.1258  0.1582 -0.4067
   21SOL    HW2   82   4.135   0.043   0.799 -1.2559 -2.0005  1.1682
   21SOL    HW3   83   4.033   0.048   0.687 -0.2156 -1.8397  0.2079
   21SOL    MW4   84   4.057   0.068   0.769 -0.2867 -0.3902 -0.1178
   22SOL     OW   85   3.771   1.495   0.266 -0.0776 -0.3025 -0.2769
   22SOL    HW2   86   3.687   1.531   0.240  0.0969  0.5327  0.2809
   22SOL    HW3   87   3.749   1.420   0.322 -0.4687  0.8115  1.0942
   22SOL    MW4   88   3.757   1.490   0.270 -0.1062 -0.0453 -0.0224
   23SOL     OW   89   2.266   0.888   0.825  0.0359 -0.5759  0.4665
   23SOL    HW2   90   2.262   0.976   0.862 -1.4095 -0.6887  0.6154
   23SOL    HW3   91   2.342   0.847   0.867  0.9166  0.7075  0.1408
   23SOL    MW4   92   2.276   0.894   0.836 -0.0386 -0.4214  0.4432
   24SOL     OW   93   1.812   1.933   0.388  0.0249 -0.3335  0.3778
   24SOL    HW2   94   1.823   2.027   0.398 -0.7115 -0.2947  0.8947
   24SOL    HW3   95   1.900   1.900   0.369  0.6131  0.2320  2.0253
   24SOL    MW4   96   1.825   1.941   0.387  0.0054 -0.2538  0.6634
   25SOL     OW   97   4.419   2.526   0.272 -0.2343 -0.0047 -0.4410
   25SOL    HW2   98   4.416   2.622   0.277  0.2288  0.0210 -0.6948
   25SOL    HW3   99   4.424   2.507   0.179  1.9956 -0.2118 -0.3060
   25SOL    MW4  100   4.419   2.536   0.260  0.1210 -0.0286 -0.4566
   26SOL     OW  101   0.460   0.077   0.462  0.2260 -0.0866 -0.2073
   26SOL    HW2  102   0.388   0.129   0.426 -0.2229 -0.6188 -0.0835
   26SOL    HW3  103   0.519   0.142   0.501  0.0034  0.3820 -0.6466
   26SOL    MW4  104   0.458   0.092   0.463  0.1374 -0.0950 -0.2489
   27SOL     OW  105   2.973   1.286   0.436  0.1142  0.2775  0.2963
   27SOL    HW2  106   2.905   1.321   0.377  0.9781  0.0843 -0.8244
   27SOL    HW3  107   2.975   1.193   0.417  1.3243  0.4235 -0.3209
   27SOL    MW4  108   2.964   1.279   0.426  0.3878  0.2713  0.0670
   28SOL     OW  109   4.283   4.624   0.867  0.2147  0.1188 -0.5279
   28SOL    HW2  110   4.275   4.623   0.963 -1.6242 -0.7066 -0.6792
   28SOL    HW3  111   4.366   4.669   0.851 -0.5960  2.4168  1.3818
   28SOL    MW4  112   4.293   4.630   0.878 -0.1349  0.3131 -0.2959
   29SOL     OW  113   2.793   0.792   0.490  0.0372  0.0089  0.5690
   29SOL    HW2  114   2.823   0.702   0.497  1.4960  0.3865 -0.5812
   29SOL    HW3  115   2.764   0.815   0.579 -0.1045 -1.4858  0.9227
   29SOL    MW4  116   2.793   0.783   0.503  0.2110 -0.1385  0.4639
   30SOL     OW  117   0.086   0.362   0.890  0.0929  0.0935 -0.2028
   30SOL    HW2  118   0.052   0.368   0.980  0.8451  1.4923  0.0010
   30SOL    HW3  119   0.039   0.431   0.843 -0.0960 -0.4615 -0.8218
   30SOL    MW4  120   0.075   0.372   0.896  0.1672  0.2048 -0.2576
   31SOL     OW  121   0.629   2.349   0.774  0.0735  0.4681  0.3375
   31SOL    HW2  122   0.650   2.330   0.866  0.4920  1.7290  0.5062
   31SOL    HW3  123   0.702   2.402   0.743 -1.4563  2.4986  0.1071
   31SOL    MW4  124   0.641   2.353   0.782 -0.0731  0.9024  0.3294
   32SOL     OW  125   2.009   0.479   0.759  0.4518 -0.1892  0.2603
   32SOL    HW2  126   2.048   0.486   0.672  0.4112 -1.1566  0.1579
   32SOL    HW3  127   2.029   0.563   0.801  0.0886  0.4460 -0.8290
   32SOL    MW4  128   2.017   0.491   0.753  0.3985 -0.2330  0.1031
   33SOL     OW  129   2.949   1.259   0.715  0.1977 -0.0652 -0.0245
   33SOL    HW2  130   2.967   1.281   0.624 -1.1638 -0.3276 -0.3738
   33SOL    HW3  131   2.931   1.343   0.758  0.5720  0.0316 -0.0567
   33SOL    MW4  132   2.949   1.273   0.709  0.0675 -0.0870 -0.0748
   34SOL     OW  133   2.049   0.716   1.162  0.0242 -0.2982 -0.5561
   34SOL    HW2  134   2.045   0.720   1.066  0.7139  0.2198 -0.5713
   34SOL    HW3  135   2.044   0.623   1.183  0.2743 -0.4371 -1.1157
   34SOL    MW4  136   2.048   0.704   1.152  0.1482 -0.2481 -0.6320
   35SOL     OW  137   2.031   1.144   0.430  0.0782  0.1526 -0.0516
   35SOL    HW2  138   2.103   1.089   0.400  0.5454  0.4909  0.4375
   35SOL    HW3  139   2.071   1.205   0.492 -0.7253 -0.0133  0.6485
   35SOL    MW4  140   2.046   1.145   0.434  0.0338  0.1753  0.1053
   36SOL     OW  141   2.673   3.494   0.608 -0.2089 -0.6799  0.3351
   36SOL    HW2  142   2.598   3.551   0.620  1.8021  2.1638 -0.1253
   36SOL    HW3  143   2.710   3.485   0.696  1.0273  1.0005  0.0147
   36SOL    MW4  144   2.668   3.500   0.622  0.2195 -0.0830  0.2321
   37SOL     OW  145   1.312   2.660   0.841  0.7751  0.2853 -0.4334
   37SOL    HW2  146   1.317   2.689   0.932  1.0053 -0.3641 -0.2390
   37SOL    HW3  147   1.292   2.567   0.846  1.4786  0.0964 -1.0369
   37SOL    MW4  148   1.310   2.652   0.853  0.8983  0.1747 -0.4873
   38SOL     OW  149   0.856   0.139   0.557 -0.8390 -0.0862 -0.2284
   38SOL    HW2  150   0.908   0.185   0.490  0.1409  0.2001  0.7060
   38SOL    HW3  151   0.773   0.187   0.560 -1.0260 -0.3264 -1.4958
   38SOL    MW4  152   0.852   0.152   0.549 -0.7344 -0.0801 -0.2723
   39SOL     OW  153   4.074   1.976   0.394 -0.1351  0.0668 -0.4678
   39SOL    HW2  154   4.085   1.901   0.453  0.6423 -0.5498 -1.3844
   39SOL    HW3  155   4.138   1.961   0.324 -1.5733  0.3950 -1.8695
   39SOL    MW4  156   4.084   1.964   0.393 -0.2223  0.0287 -0.7737
   40SOL     OW  157   0.368   2.697   0.633 -0.2670  0.3026  0.3687
   40SOL    HW2  158   0.371   2.604   0.658 -0.7126  0.5348  1.3445
   40SOL    HW3  159   0.392   2.744   0.713 -1.1415  1.0598  0.2017
   40SOL    MW4  160   0.371   2.691   0.647 -0.4412  0.4331  0.4754
   41SOL     OW  161   0.592   0.818   0.609 -0.2990  0.2869 -0.3151
   41SOL    HW2  162   0.594   0.906   0.648 -0.6805 -0.2180  0.8625
   41SOL    HW3  163   0.683   0.797   0.592 -0.2108  0.9544 -0.7199
   41SOL    MW4  164   0.604   0.827   0.612 -0.3377  0.3084 -0.2131
   42SOL     OW  165   3.810   4.283   0.789 -0.2319  0.0218 -0.1908
   42SOL    HW2  166   3.794   4.264   0.697 -1.1506  0.0145 -0.0285
   42SOL    HW3  167   3.823   4.378   0.792  1.5825 -0.1973 -0.5842
   42SOL    MW4  168   3.810   4.293   0.778 -0.1137 -0.0081 -0.2213
   43SOL     OW  169   4.475   1.649   0.806 -0.0747  0.0176  0.3410
   43SOL    HW2  170   4.407   1.590   0.838  0.9530 -0.8362  1.0139
   43SOL    HW3  171   4.478   1.634   0.711  0.1104 -0.9585  0.4972
   43SOL    MW4  172   4.467   1.639   0.798  0.0853 -0.2238  0.4504
   44SOL     OW  173   2.890   0.512   0.508  0.4564  0.8743  0.0722
   44SOL    HW2  174   2.904   0.495   0.602 -0.4625  0.7674  0.1965
   44SOL    HW3  175   2.840   0.436   0.478  0.1383  1.2531 -0.3478
   44SOL    MW4  176   2.885   0.499   0.517  0.2932  0.9102  0.0332
   45SOL     OW  177   1.425   2.411   0.345 -0.0105 -0.1166 -0.0059
   45SOL    HW2  178   1.357   2.473   0.372  0.3052  0.0166  0.4819
   45SOL    HW3  179   1.479   2.461   0.283  1.0280  0.5190  1.3990
   45SOL    MW4  180   1.423   2.426   0.340  0.1681 -0.0151  0.2438
   46SOL     OW  181   4.237   0.356   0.320 -0.2963  0.1243  0.1703
   46SOL    HW2  182   4.234   0.276   0.372  1.3103  0.1887  0.3701
   46SOL    HW3  183   4.328   0.364   0.292 -0.8468  0.8482 -1.4875
   46SOL    MW4  184   4.248   0.347   0.323 -0.1570  0.2283 -0.0220
   47SOL     OW  185   4.128   3.944   0.504 -0.2073  0.5590 -0.3779
   47SOL    HW2  186   4.109   3.954   0.597 -1.2313 -0.6631 -0.4405
   47SOL    HW3  187   4.219   3.972   0.495  0.4261 -0.8843  1.2612
   47SOL    MW4  188   4.138   3.949   0.515 -0.2589  0.2074 -0.1699
   48SOL     OW  189   0.464   2.135   0.405  0.0341 -0.0600  0.0127
   48SOL    HW2  190   0.441   2.223   0.376  0.3469  0.6206  1.7590
   48SOL    HW3  191   0.382   2.097   0.437 -0.0767 -0.3694 -0.6254
   48SOL    MW4  192   0.450   2.141   0.406  0.0608 -0.0110  0.1589
   49SOL     OW  193   3.072   2.038   0.465  0.3547 -0.4413  0.1741
   49SOL    HW2  194   3.027   2.035   0.549 -0.8111  0.7499 -0.4016
   49SOL    HW3  195   3.162   2.061   0.487 -0.5190  2.4314  0.8969
   49SOL    MW4  196   3.078   2.040   0.479  0.0856  0.0949  0.1935
   50SOL     OW  197   1.255   2.389   0.843 -0.1762 -0.0801 -0.8859
   50SOL    HW2  198   1.344   2.354   0.834 -0.3078 -0.0589 -2.3321
   50SOL    HW3  199   1.224   2.355   0.926  1.5892  0.7735  0.1565
   50SOL    MW4  200   1.263   2.380   0.853  0.0394  0.0353 -0.9392
   51SOL     OW  201   2.933   1.499   0.844  0.5975  0.0613  0.6138
   51SOL    HW2  202   2.861   1.552   0.809  0.2939  0.0864  1.2794
   51SOL    HW3  203   3.012   1.540   0.807  0.2503 -0.3237 -0.5878
   51SOL    MW4  204   2.934   1.511   0.834  0.5116  0.0138  0.5431
   52SOL     OW  205   0.921   3.982   0.777  0.3939  0.1483  0.3896
   52SOL    HW2  206   0.894   4.004   0.688 -0.8761  2.7621  1.3599
   52SOL    HW3  207   0.845   3.939   0.816  0.1606  0.9665  0.8618
   52SOL    MW4  208   0.908   3.979   0.771  0.1955  0.6011  0.5799
   53SOL     OW  209   0.491   3.200   0.473  0.0193 -0.4247 -0.1064
   53SOL    HW2  210   0.416   3.212   0.415  0.8627 -1.5048 -1.4734
   53SOL    HW3  211   0.516   3.108   0.461  1.0526 -0.2968  0.9345
   53SOL    MW4  212   0.485   3.189   0.463  0.2669 -0.5504 -0.1494
   54SOL     OW  213   0.868   4.407   0.824  0.2018 -0.2074  0.6297
   54SOL    HW2  214   0.776   4.433   0.821  0.6418  1.3502 -0.2488
   54SOL    HW3  215   0.889   4.381   0.734  0.7442 -0.0530  0.7069
   54SOL    MW4  216   0.859   4.407   0.812  0.3314  0.0185  0.5240
   55SOL     OW  217   0.728   3.228   0.900  0.4557  0.1802  0.0411
   55SOL    HW2  218   0.781   3.186   0.832 -0.3798  0.4191 -0.7760
   55SOL    HW3  219   0.647   3.253   0.855  0.8312  2.4549  0.5841
   55SOL    MW4  220   0.724   3.226   0.885  0.3950  0.5119  0.0050
   56SOL     OW  221   0.208   3.051   0.650 -0.0091  0.1036 -0.5769
   56SOL    HW2  222   0.130   3.099   0.675  0.3443  0.5288 -0.2826
   56SOL    HW3  223   0.178   2.961   0.637 -0.2121 -0.1326  1.3724
   56SOL    MW4  224   0.194   3.045   0.652  0.0107  0.1285 -0.2809
   57SOL     OW  225   3.741   3.111   0.876  0.2641  0.1918  0.3965
   57SOL    HW2  226   3.673   3.155   0.827 -1.6022 -0.5131  2.2742
   57SOL    HW3  227   3.745   3.023   0.839 -1.4400 -0.4763  1.7026
   57SOL    MW4  228   3.733   3.105   0.865 -0.2070  0.0107  0.8166
   58SOL     OW  229   2.675   2.508   0.509 -0.0865  0.4905 -0.1563
   58SOL    HW2  230   2.687   2.467   0.595  1.5984 -0.2784 -0.7328
   58SOL    HW3  231   2.588   2.548   0.513 -0.8506 -1.2555  1.2098
   58SOL    MW4  232   2.665   2.508   0.520  0.0350  0.1587 -0.0521
   59SOL     OW  233   4.026   0.345   0.827  0.3210 -0.2970  0.4496
   59SOL    HW2  234   4.024   0.251   0.812  0.6489 -0.3460  0.6940
   59SOL    HW3  235   3.937   0.375   0.810  0.5508 -0.4270 -1.0764
   59SOL    MW4  236   4.014   0.337   0.823  0.3946 -0.3206  0.2805
   60SOL     OW  237   2.878   2.685   0.476 -0.0303  0.3728 -0.1148
   60SOL    HW2  238   2.890   2.715   0.566  2.5711 -1.6595  0.2885
   60SOL    HW3  239   2.812   2.616   0.482 -0.7464  1.0591  0.0268
   60SOL    MW4  240   2.871   2.680   0.488  0.2185  0.1952 -0.0429
   61SOL     OW  241   3.156   0.579   0.411  0.2584  0.0240  0.2355
   61SOL    HW2  242   3.071   0.559   0.450 -0.0914 -0.2621 -0.6731
   61SOL    HW3  243   3.138   0.591   0.318  0.9460  1.6376  0.3010
   61SOL    MW4  244   3.143   0.578   0.404  0.3030  0.1991  0.1243
   62SOL     OW  245   3.058   3.195   0.738 -0.0272  0.1969 -0.0869
   62SOL    HW2  246   3.142   3.151   0.751 -0.4016 -0.6919 -0.6523
   62SOL    HW3  247   3.068   3.241   0.655 -0.2247 -0.1774 -0.3134
   62SOL    MW4  248   3.070   3.195   0.729 -0.1027  0.0302 -0.1914
   63SOL     OW  249   2.105   3.140   0.887 -0.4621 -0.1113  0.0519
   63SOL    HW2  250   2.098   3.235   0.894  0.5062 -0.2141  3.0619
   63SOL    HW3  251   2.196   3.124   0.863 -0.4921 -0.3244  0.0816
   63SOL    MW4  252   2.116   3.151   0.885 -0.3383 -0.1530  0.4530
   64SOL     OW  253   4.033   4.185   0.906  0.5760  0.4807 -0.0650
   64SOL    HW2  254   3.948   4.215   0.873  0.8299 -1.3254 -2.5553
   64SOL    HW3  255   4.096   4.243   0.863  0.7064  0.7419  0.4739
   64SOL    MW4  256   4.030   4.197   0.896  0.6267  0.2768 -0.3225
   65SOL     OW  257   2.702   1.658   0.739  0.5027  0.4655 -0.3474
   65SOL    HW2  258   2.693   1.663   0.643 -2.0662  2.9223 -0.0654
   65SOL    HW3  259   2.696   1.749   0.768  3.2504 -0.0472  2.0596
   65SOL    MW4  260   2.700   1.671   0.730  0.5263  0.7220  0.0074
   66SOL     OW  261   0.864   2.733   0.808  0.0187  0.1136 -0.4113
   66SOL    HW2  262   0.792   2.792   0.785 -0.3714 -0.3722 -0.4601
   66SOL    HW3  263   0.858   2.725   0.903  1.9143  2.4808 -0.0617
   66SOL    MW4  264   0.853   2.740   0.817  0.2173  0.3618 -0.3716
   67SOL     OW  265   4.417   0.874   0.505  0.4371  0.2817 -0.2363
   67SOL    HW2  266   4.323   0.859   0.498  0.1905  1.4749  0.4091
   67SOL    HW3  267   4.430   0.899   0.597  1.1752  1.5800 -0.6899
   67SOL    MW4  268   4.407   0.875   0.516  0.5019  0.6104 -0.2110
   68SOL     OW  269   1.204   1.726   0.677  0.1448 -0.4029 -0.2702
   68SOL    HW2  270   1.178   1.817   0.665 -1.1296 -0.6343  0.6279
   68SOL    HW3  271   1.295   1.730   0.704  0.1332  0.5936 -0.3694
   68SOL    MW4  272   1.212   1.739   0.679 -0.0249 -0.3020 -0.1648
   69SOL     OW  273   3.997   3.482   0.847 -0.0104 -0.0151  0.4477
   69SOL    HW2  274   3.981   3.389   0.829 -0.7649 -0.0585  1.3377
   69SOL    HW3  275   4.023   3.484   0.939  1.5344  0.4836  0.0257
   69SOL    MW4  276   3.999   3.470   0.856  0.0938  0.0449  0.5094
   70SOL     OW  277   0.763   3.322   0.372 -0.2492 -0.1371  0.2126
   70SOL    HW2  278   0.676   3.293   0.400  0.4004 -0.4479  1.9468
   70SOL    HW3  279   0.765   3.415   0.392 -0.6582  0.1711 -1.1001
   70SOL    MW4  280   0.751   3.330   0.378 -0.2175 -0.1374  0.2682
   71SOL     OW  281   1.389   0.926   0.528 -0.1991 -0.1605  0.2165
   71SOL    HW2  282   1.464   0.978   0.500 -0.0702  0.4869  1.7239
   71SOL    HW3  283   1.313   0.980   0.509 -0.1988 -0.2342 -0.0016
   71SOL    MW4  284   1.389   0.940   0.522 -0.1820 -0.0848  0.3866
   72SOL     OW  285   0.983   4.182   0.949  0.1593 -0.3099  0.1591
   72SOL    HW2  286   0.928   4.251   0.911  0.3350  0.1715  0.7747
   72SOL    HW3  287   0.966   4.105   0.894 -0.2662  0.1407 -0.3463
   72SOL    MW4  288   0.973   4.181   0.937  0.1263 -0.1869  0.1736
   73SOL     OW  289   1.579   0.506   0.509 -0.2246  0.1932 -0.8001
   73SOL    HW2  290   1.630   0.436   0.468  1.2932 -0.3689  1.9034
   73SOL    HW3  291   1.622   0.586   0.480  0.8123 -0.1959 -0.3914
   73SOL    MW4  292   1.592   0.507   0.500  0.1124  0.0677 -0.3895
   74SOL     OW  293   3.086   2.500   0.445 -0.0688 -0.0971  0.9053
   74SOL    HW2  294   3.087   2.474   0.537 -0.5222 -0.0307  0.9308
   74SOL    HW3  295   3.024   2.573   0.442 -0.9669 -0.8798  0.3372
   74SOL    MW4  296   3.078   2.506   0.457 -0.2471 -0.1916  0.8337
   75SOL     OW  297   1.215   0.221   0.661  0.3237 -0.0478  0.1351
   75SOL    HW2  298   1.129   0.211   0.701  0.6414  0.2045  0.8913
   75SOL    HW3  299   1.264   0.143   0.687  1.0552  0.8585  1.6149
   75SOL    MW4  300   1.210   0.210   0.670  0.4622  0.1050  0.4301
   76SOL     OW  301   1.090   2.379   0.617 -0.4048  0.0714  0.3984
   76SOL    HW2  302   1.068   2.286   0.605  0.7579 -0.4045  1.8669
   76SOL    HW3  303   1.156   2.380   0.686  0.5590  1.9022 -0.5084
   76SOL    MW4  304   1.096   2.367   0.625 -0.1242  0.2502  0.4725
   77SOL     OW  305   0.896   1.986   0.291  0.0516  0.1160  0.0135
   77SOL    HW2  306   0.971   1.931   0.270  0.5061  1.0357 -0.7935
   77SOL    HW3  307   0.820   1.929   0.278  0.5393 -0.4433 -0.4040
   77SOL    MW4  308   0.896   1.971   0.287  0.1759  0.1636 -0.1481
   78SOL     OW  309   3.865   1.253   0.799 -0.0841 -0.2527  0.0481
   78SOL    HW2  310   3.783   1.203   0.791 -0.3111  0.3573 -1.6536
   78SOL    HW3  311   3.909   1.240   0.715  0.9880  0.4389  0.4971
   78SOL    MW4  312   3.860   1.245   0.787  0.0274 -0.0810 -0.1172
   79SOL     OW  313   3.384   0.446   0.520  0.2784  0.4315 -0.1540
   79SOL    HW2  314   3.306   0.488   0.485 -0.4394 -0.3306  0.5095
   79SOL    HW3  315   3.370   0.353   0.505  1.2209  0.3183 -0.3525
   79SOL    MW4  316   3.372   0.439   0.514  0.3081  0.3160 -0.0926
   80SOL     OW  317   0.299   4.401   0.510 -0.4333  0.2684 -0.0199
   80SOL    HW2  318   0.267   4.392   0.600  1.1698  1.0339  0.6569
   80SOL    HW3  319   0.387   4.436   0.520 -0.4705  0.9505 -1.9380
   80SOL    MW4  320   0.307   4.404   0.523 -0.2267  0.4594 -0.1837
   81SOL     OW  321   3.883   3.593   0.389  0.0349  0.2157 -0.2994
   81SOL    HW2  322   3.955   3.616   0.448  0.2519 -1.3800  0.0863
   81SOL    HW3  323   3.840   3.676   0.371  1.5762  1.0994 -0.0107
   81SOL    MW4  324   3.887   3.607   0.395  0.2669  0.1217 -0.2104
   82SOL     OW  325   0.878   0.828   0.585 -0.3700  0.6021  0.0103
   82SOL    HW2  326   0.945   0.863   0.644 -0.2556  0.4048 -0.0015
   82SOL    HW3  327   0.902   0.736   0.574 -0.6464  0.5309  0.0076
   82SOL    MW4  328   0.890   0.821   0.591 -0.3914  0.5667  0.0084
   83SOL     OW  329   4.014   2.425   0.744  0.1227 -0.0303 -0.1124
   83SOL    HW2  330   3.939   2.382   0.784 -0.3447  0.5558 -0.3440
   83SOL    HW3  331   3.983   2.453   0.657  0.0401  1.7788  0.4670
   83SOL    MW4  332   4.000   2.423   0.738  0.0502  0.2857 -0.0665
   84SOL     OW  333   1.136   2.532   0.397 -0.0983  0.0236  0.2955
   84SOL    HW2  334   1.077   2.509   0.326  0.6322 -0.6241 -0.1109
   84SOL    HW3  335   1.110   2.477   0.470 -0.5823  0.3903  0.3988
   84SOL    MW4  336   1.125   2.522   0.397 -0.0658 -0.0135  0.2555
   85SOL     OW  337   0.780   1.843   0.923 -0.1790  0.0201  0.2677
   85SOL    HW2  338   0.823   1.876   1.002  1.2871  0.2719 -0.6399
   85SOL    HW3  339   0.771   1.748   0.938 -0.6477  0.1886  1.0773
   85SOL    MW4  340   0.784   1.834   0.936 -0.0474  0.0756  0.2548
   86SOL     OW  341   3.468   3.523   0.495 -0.8534 -0.3534  0.4665
   86SOL    HW2  342   3.558   3.494   0.511  0.7960  3.1896 -1.8537
   86SOL    HW3  343   3.428   3.525   0.581  2.5799  1.9637  2.1300
   86SOL    MW4  344   3.475   3.519   0.508 -0.1828  0.4198  0.3798
   87SOL     OW  345   0.301   1.316   0.721  0.2074  0.3394  0.3233
   87SOL    HW2  346   0.235   1.292   0.656  0.3409 -0.3288  0.4357
   87SOL    HW3  347   0.267   1.397   0.760 -0.6917 -0.1529  0.5847
   87SOL    MW4  348   0.288   1.324   0.718  0.1064  0.1863  0.3726
   88SOL     OW  349   0.903   1.307   0.649  0.7425  0.3033  0.2604
   88SOL    HW2  350   0.895   1.278   0.558 -0.0878 -0.8762  0.7141
   88SOL    HW3  351   0.829   1.367   0.661  0.6717  0.2148  0.2627
   88SOL    MW4  352   0.892   1.311   0.638  0.6236  0.1360  0.3206
   89SOL     OW  353   0.931   0.538   0.597 -0.1536  0.1045 -0.0989
   89SOL    HW2  354   0.972   0.539   0.510 -1.8959 -0.0138 -0.9415
   89SOL    HW3  355   0.997   0.577   0.655  1.0720  0.0751 -1.4468
   89SOL    MW4  356   0.945   0.543   0.593 -0.2218  0.0850 -0.3879
   90SOL     OW  357   2.491   0.477   0.551 -0.0191 -0.0575 -0.3695
   90SOL    HW2  358   2.492   0.556   0.496 -0.5365  0.8854  0.9338
   90SOL    HW3  359   2.560   0.422   0.515  0.2681  0.9359 -1.3907
   90SOL    MW4  360   2.500   0.480   0.539 -0.0494  0.1980 -0.3323
   91SOL     OW  361   2.061   1.577   0.853 -0.1164  0.2309  0.0974
   91SOL    HW2  362   2.046   1.483   0.866  1.0935 -0.1150 -0.9369
   91SOL    HW3  363   1.976   1.611   0.825 -0.4677 -0.6306  0.0980
   91SOL    MW4  364   2.048   1.569   0.851 -0.0031  0.0716 -0.0390
   92SOL     OW  365   0.009   1.314   0.583 -0.1108  0.2271  0.2914
   92SOL    HW2  366  -0.053   1.282   0.649 -0.0563 -0.7717 -0.1187
   92SOL    HW3  367  -0.018   1.269   0.502  0.4044  0.7072 -0.1517
   92SOL    MW4  368  -0.003   1.304   0.581 -0.0357  0.1587  0.1788
   93SOL     OW  369   4.031   4.653   0.527  0.3343  0.3218 -0.0200
   93SOL    HW2  370   3.952   4.687   0.485 -0.3104 -1.4398 -0.2701
   93SOL    HW3  371   4.099   4.718   0.506 -0.8847  1.5184 -0.3532
   93SOL    MW4  372   4.030   4.666   0.518  0.0884  0.2473 -0.0970
   94SOL     OW  373   2.493   0.511   0.822  0.3863  0.0983 -0.0959
   94SOL    HW2  374   2.407   0.472   0.836 -0.1331  1.4487  0.5528
   94SOL    HW3  375   2.503   0.512   0.727 -0.0678 -0.6073 -0.1530
   94SOL    MW4  376   2.483   0.506   0.811  0.2579  0.1834 -0.0178
   95SOL     OW  377   0.808   1.713   0.488 -0.1882 -0.4866  0.2260
   95SOL    HW2  378   0.855   1.775   0.545  1.8305 -1.5796 -0.2020
   95SOL    HW3  379   0.731   1.762   0.458  0.6765  1.3685  0.9306
   95SOL    MW4  380   0.804   1.728   0.492  0.1922 -0.3860  0.2625
   96SOL     OW  381   3.360   2.105   0.497  0.1513  0.6812 -0.4782
   96SOL    HW2  382   3.356   2.075   0.588  1.1583  0.5897 -0.4593
   96SOL    HW3  383   3.382   2.198   0.504  1.7980  0.3275 -0.6527
   96SOL    MW4  384   3.363   2.114   0.510  0.5014  0.6224 -0.4987
   97SOL     OW  385   3.531   4.408   0.501 -0.4144  0.3679 -0.3908
   97SOL    HW2  386   3.626   4.392   0.502 -0.4950 -0.0882  0.1538
   97SOL    HW3  387   3.497   4.350   0.433 -0.5226 -0.7282  0.5944
   97SOL    MW4  388   3.539   4.398   0.492 -0.4393  0.1631 -0.1890
   98SOL     OW  389   1.357   0.665   0.483  0.5815  0.7409  0.4530
   98SOL    HW2  390   1.430   0.602   0.475 -0.3738 -0.1465 -1.6327
   98SOL    HW3  391   1.399   0.751   0.478  1.5083  0.2363 -0.9275
   98SOL    MW4  392   1.372   0.668   0.481  0.5778  0.5572 -0.0043
   99SOL     OW  393   3.156   1.869   0.846  0.3445 -0.2560  0.0532
   99SOL    HW2  394   3.085   1.929   0.823  0.4013 -0.0628  0.3768
   99SOL    HW3  395   3.148   1.857   0.941  0.2337 -0.8895 -0.0310
   99SOL    MW4  396   3.146   1.875   0.856  0.3374 -0.3141  0.0848
  100SOL     OW  397   2.283   2.133   0.446 -0.2845  0.4992 -0.0834
  100SOL    HW2  398   2.277   2.226   0.466  1.0416  1.1185 -2.2724
  100SOL    HW3  399   2.377   2.113   0.451 -0.4276 -0.4233 -0.7552
  100SOL    MW4  400   2.295   2.142   0.449 -0.1284  0.4592 -0.4609
  101SOL     OW  401   0.822   1.560   0.940 -0.4012  0.1781 -0.0444
  101SOL    HW2  402   0.778   1.534   1.021  0.7982  0.5430  0.7439
  101SOL    HW3  403   0.761   1.537   0.871 -0.7922 -1.6129  0.8691
  101SOL    MW4  404   0.808   1.553   0.942 -0.2946 -0.0101  0.1801
  102SOL     OW  405   2.187   2.679   0.849  0.2300  0.0914  0.2493
  102SOL    HW2  406   2.205   2.587   0.836 -0.3978 -0.1268  0.8757
  102SOL    HW3  407   2.188   2.691   0.944  0.6541  0.7983  0.1596
  102SOL    MW4  408   2.189   2.669   0.860  0.2031  0.1559  0.3201
  103SOL     OW  409   3.094   0.014   0.534  0.2764  0.1024  0.0703
  103SOL    HW2  410   3.107  -0.080   0.521  1.1335  0.0615  1.1626
  103SOL    HW3  411   3.006   0.031   0.501  0.1180 -1.0916 -0.1307
  103SOL    MW4  412   3.084   0.004   0.528  0.3686 -0.0605  0.1879
  104SOL     OW  413   0.875   2.225   0.424 -0.1522 -0.1619  0.1023
  104SOL    HW2  414   0.799   2.212   0.480  0.0488  0.4789  0.5310
  104SOL    HW3  415   0.883   2.143   0.374 -1.3844 -0.0563 -0.2743
  104SOL    MW4  416   0.866   2.212   0.425 -0.2883 -0.0634  0.1092
  105SOL     OW  417   2.353   3.328   0.678 -0.1875  0.1895  0.6933
  105SOL    HW2  418   2.434   3.283   0.699  0.4564  0.2239 -1.6610
  105SOL    HW3  419   2.297   3.261   0.639 -0.3961  0.7176  0.0791
  105SOL    MW4  420   2.356   3.314   0.676 -0.1301  0.2637  0.3016
  106SOL     OW  421   1.724   3.235   0.703  0.0249  0.0489 -0.4578
  106SOL    HW2  422   1.763   3.304   0.756 -2.4964  1.0577  0.1716
  106SOL    HW3  423   1.715   3.273   0.616  0.5348 -0.2166 -0.6277
  106SOL    MW4  424   1.728   3.249   0.699 -0.2405  0.1470 -0.3972
  107SOL     OW  425   2.906   4.392   0.812  0.1942  0.2647 -0.3112
  107SOL    HW2  426   2.900   4.478   0.853 -1.0192 -1.1916  2.6915
  107SOL    HW3  427   2.823   4.349   0.834  1.0687 -1.9281 -1.1715
  107SOL    MW4  428   2.894   4.398   0.820  0.1494 -0.2167 -0.0285
  108SOL     OW  429   3.786   3.817   0.822 -0.1624  0.4214  0.0455
  108SOL    HW2  430   3.878   3.838   0.804 -0.2732  1.3215  0.4916
  108SOL    HW3  431   3.778   3.724   0.802  0.6136  0.5631 -0.9203
  108SOL    MW4  432   3.797   3.807   0.817 -0.0746  0.5588 -0.0230
  109SOL     OW  433   0.902   2.433   0.243  0.3307  0.2229 -0.1769
  109SOL    HW2  434   0.858   2.410   0.161 -1.1267  1.4387  0.2411
  109SOL    HW3  435   0.898   2.354   0.296 -0.0827 -0.1073 -0.6932
  109SOL    MW4  436   0.896   2.420   0.239  0.0839  0.3398 -0.1899
  110SOL     OW  437   2.562   1.211   0.912 -0.4060 -0.0776  0.3132
  110SOL    HW2  438   2.598   1.179   0.830 -1.0811 -0.5599  0.2031
  110SOL    HW3  439   2.571   1.306   0.907 -0.2740 -0.1179 -0.2389
  110SOL    MW4  440   2.568   1.219   0.901 -0.4777 -0.1465  0.2258
  111SOL     OW  441   3.681   1.279   0.420  0.3787  0.0200 -0.4680
  111SOL    HW2  442   3.603   1.319   0.459  0.2327  0.2248 -0.9621
  111SOL    HW3  443   3.646   1.216   0.357  0.6129  0.2980 -0.8746
  111SOL    MW4  444   3.666   1.276   0.417  0.3904  0.0837 -0.5869
  112SOL     OW  445   3.552   2.433   0.781  0.0441  0.4517 -0.4897
  112SOL    HW2  446   3.540   2.524   0.809 -1.5017  0.2567 -0.4896
  112SOL    HW3  447   3.498   2.382   0.842  0.8935 -0.4651 -0.5022
  112SOL    MW4  448   3.543   2.438   0.793 -0.0478  0.3050 -0.4913
  113SOL     OW  449   1.255   4.225   0.910 -0.1071  0.0035  0.1943
  113SOL    HW2  450   1.168   4.202   0.943  0.6634 -1.4153  1.3400
  113SOL    HW3  451   1.294   4.141   0.886  2.0158  0.2788  2.4869
  113SOL    MW4  452   1.248   4.211   0.911  0.2746 -0.1474  0.6479
  114SOL     OW  453   2.260   2.746   0.305  0.1810 -0.1026 -0.2381
  114SOL    HW2  454   2.256   2.754   0.210 -0.6209  0.5213 -0.1636
  114SOL    HW3  455   2.257   2.837   0.337  1.0918 -0.2748  0.3648
  114SOL    MW4  456   2.259   2.759   0.297  0.1954 -0.0430 -0.1487
  115SOL     OW  457   2.313   0.336   0.405  0.3039  0.5762  0.1520
  115SOL    HW2  458   2.359   0.379   0.477  0.8824 -0.7710  0.5898
  115SOL    HW3  459   2.379   0.283   0.361 -0.8762 -1.7151  1.0522
  115SOL    MW4  460   2.328   0.335   0.409  0.2245  0.0961  0.3286
  116SOL     OW  461   1.348   3.174   0.729 -0.3873 -0.1440  0.8206
  116SOL    HW2  462   1.373   3.261   0.758 -0.6006 -0.3256  1.5521
  116SOL    HW3  463   1.415   3.116   0.765  0.0731 -0.2248 -0.1383
  116SOL    MW4  464   1.360   3.178   0.737 -0.3547 -0.1786  0.7906
  117SOL     OW  465   4.413   4.055   0.532 -0.2227  0.2527  0.1026
  117SOL    HW2  466   4.433   4.033   0.623  0.5420  0.5258  0.0065
  117SOL    HW3  467   4.490   4.024   0.483 -0.7546 -0.1461 -0.4805
  117SOL    MW4  468   4.426   4.048   0.537 -0.1919  0.2361  0.0130
  118SOL     OW  469   1.481   2.160   0.464 -0.1897 -0.1531 -0.1819
  118SOL    HW2  470   1.447   2.241   0.426  0.8150  0.9470  1.1900
  118SOL    HW3  471   1.455   2.091   0.403 -0.9176  1.2321 -1.4499
  118SOL    MW4  472   1.473   2.162   0.451 -0.1532  0.1748 -0.1682
  119SOL     OW  473   3.143   3.534   0.192  0.7463 -0.1113  0.1010
  119SOL    HW2  474   3.193   3.453   0.183  0.2921 -0.3680 -0.1252
  119SOL    HW3  475   3.051   3.506   0.193  0.5657  0.4365 -0.4524
  119SOL    MW4  476   3.137   3.520   0.191  0.6626 -0.0729 -0.0019
  120SOL     OW  477   1.329   1.144   0.864 -0.0782 -0.0186 -0.0159
  120SOL    HW2  478   1.301   1.060   0.829  0.5468 -0.8091  1.3703
  120SOL    HW3  479   1.255   1.202   0.847 -0.6172 -0.9070 -0.7400
  120SOL    MW4  480   1.315   1.141   0.858 -0.0669 -0.2401  0.0715
  121SOL     OW  481   2.801   3.528   0.862  0.1435 -0.3277 -0.4312
  121SOL    HW2  482   2.749   3.511   0.940 -1.0688  0.3408 -1.0675
  121SOL    HW3  483   2.811   3.623   0.860 -0.6332 -0.2540 -1.5668
  121SOL    MW4  484   2.795   3.539   0.872 -0.1189 -0.2298 -0.6650
  122SOL     OW  485   3.735   3.551   0.771  0.2919  0.4908  0.8580
  122SOL    HW2  486   3.828   3.529   0.772 -0.1022 -1.3092 -0.1762
  122SOL    HW3  487   3.707   3.533   0.681 -0.8949  1.7311  0.9627
  122SOL    MW4  488   3.744   3.546   0.760  0.0833  0.4170  0.7354
  123SOL     OW  489   2.877   4.383   0.528  0.0331 -0.4892 -0.3522
  123SOL    HW2  490   2.970   4.368   0.507  0.1328  0.0425 -0.3021
  123SOL    HW3  491   2.875   4.392   0.623  0.3191  2.0277 -0.5367
  123SOL    MW4  492   2.889   4.383   0.538  0.0840 -0.0870 -0.3699
  124SOL     OW  493   2.445   0.945   0.246 -0.1922  0.0318 -0.1287
  124SOL    HW2  494   2.474   1.016   0.303  0.0346  0.1164 -0.3456
  124SOL    HW3  495   2.507   0.947   0.173  0.0680 -0.6574  0.0708
  124SOL    MW4  496   2.457   0.955   0.244 -0.1279 -0.0480 -0.1310
  125SOL     OW  497   2.642   2.840   0.442  0.3723 -0.5642 -0.2649
  125SOL    HW2  498   2.723   2.794   0.463 -0.8908 -1.9628  1.7704
  125SOL    HW3  499   2.575   2.771   0.440 -1.3181  0.9474  1.4729
  125SOL    MW4  500   2.644   2.825   0.445 -0.0174 -0.5493  0.2329
  126SOL     OW  501   2.744   1.413   0.307  0.0941 -0.4336 -0.2507
  126SOL    HW2  502   2.705   1.439   0.223 -2.0756 -1.3342  0.4518
  126SOL    HW3  503   2.726   1.486   0.366  0.9527 -0.1404 -0.3301
  126SOL    MW4  504   2.737   1.426   0.304 -0.0789 -0.5137 -0.1685
  127SOL     OW  505   0.018   0.429   0.294 -0.3202  0.1465  0.0803
  127SOL    HW2  506   0.041   0.471   0.211  2.3092 -0.6368  0.3476
  127SOL    HW3  507   0.007   0.502   0.355 -0.2305  0.6506 -0.4987
  127SOL    MW4  508   0.020   0.444   0.291  0.0386  0.1097  0.0392
  128SOL     OW  509   3.355   2.561   0.341  0.4003  0.1903  0.1568
  128SOL    HW2  510   3.267   2.554   0.378  0.3097  0.8850  0.0811
  128SOL    HW3  511   3.343   2.614   0.262  1.0080  0.9425  0.5626
  128SOL    MW4  512   3.341   2.567   0.335  0.4686  0.3812  0.2004
  129SOL     OW  513   1.427   2.833   0.396  0.0826 -0.2202  0.1711
  129SOL    HW2  514   1.442   2.830   0.490  0.9602 -0.7680  0.0241
  129SOL    HW3  515   1.333   2.819   0.386 -0.0848  0.2832  0.9808
  129SOL    MW4  516   1.417   2.831   0.407  0.1763 -0.2261  0.2585
  130SOL     OW  517   1.575   4.390   0.350 -0.3002  0.1006 -0.2903
  130SOL    HW2  518   1.496   4.435   0.381 -0.0123 -0.0175  0.6034
  130SOL    HW3  519   1.574   4.306   0.395  0.0209 -0.1528 -0.7496
  130SOL    MW4  520   1.564   4.385   0.360 -0.2198  0.0516 -0.2330
  131SOL     OW  521   3.123   4.036   0.614  0.1148 -0.0471  0.2033
  131SOL    HW2  522   3.117   3.958   0.669 -1.7653 -0.6215 -0.7933
  131SOL    HW3  523   3.116   4.109   0.676  1.7179 -0.6621  1.1155
  131SOL    MW4  524   3.121   4.036   0.630  0.0783 -0.2040  0.1922
  132SOL     OW  525   1.952   1.548   0.548  0.1529  0.1512 -0.0988
  132SOL    HW2  526   1.886   1.513   0.488 -0.2234 -0.6939  0.7934
  132SOL    HW3  527   1.901   1.590   0.617  0.5870  1.3285 -0.4896
  132SOL    MW4  528   1.936   1.549   0.549  0.1606  0.1950 -0.0326
  133SOL     OW  529   1.171   1.870   0.361  0.1527 -0.6450  0.1739
  133SOL    HW2  530   1.184   1.779   0.386  2.0637 -0.5580 -0.4377
  133SOL    HW3  531   1.237   1.886   0.293 -0.5147  1.0405 -0.1018
  133SOL    MW4  532   1.181   1.860   0.355  0.3168 -0.4112  0.0568
  134SOL     OW  533   3.102   2.680   0.841  0.3844 -0.0111 -0.0647
  134SOL    HW2  534   3.175   2.697   0.782  0.4066 -1.8078 -0.5855
  134SOL    HW3  535   3.088   2.585   0.836 -0.6613  0.0252  1.5767
  134SOL    MW4  536   3.110   2.670   0.833  0.2494 -0.2434  0.0832
  135SOL     OW  537   2.037   3.613   0.772  0.4635  0.2136 -0.5213
  135SOL    HW2  538   2.022   3.628   0.678 -0.1727  2.6693 -0.0859
  135SOL    HW3  539   2.033   3.701   0.810 -1.8044 -0.9780  2.1483
  135SOL    MW4  540   2.034   3.627   0.764  0.0803  0.3804 -0.1116
  136SOL     OW  541   2.698   0.127   0.762  0.0479 -0.0360 -0.2041
  136SOL    HW2  542   2.615   0.083   0.779 -0.9191  2.0787  0.7261
  136SOL    HW3  543   2.690   0.212   0.805  1.8324  1.0968 -1.9980
  136SOL    MW4  544   2.686   0.132   0.770  0.1558  0.3925 -0.3180
  137SOL     OW  545   0.771   2.620   0.432 -0.7443  0.2074  0.1859
  137SOL    HW2  546   0.791   2.579   0.516 -1.6214 -1.0271 -0.1823
  137SOL    HW3  547   0.820   2.569   0.368 -0.2953  0.9741 -0.0906
  137SOL    MW4  548   0.780   2.608   0.435 -0.8008  0.1456  0.1008
  138SOL     OW  549   3.429   1.381   0.490 -0.2802 -0.0276 -0.0316
  138SOL    HW2  550   3.417   1.306   0.548 -0.5939 -1.4482 -1.8724
  138SOL    HW3  551   3.341   1.419   0.481 -0.7339 -1.3977 -1.6290
  138SOL    MW4  552   3.416   1.376   0.496 -0.3814 -0.3958 -0.4852
  139SOL     OW  553   1.821   1.670   0.745  0.0745  0.2375 -0.3635
  139SOL    HW2  554   1.796   1.760   0.766 -2.1832 -0.0191 -1.8178
  139SOL    HW3  555   1.758   1.616   0.792  1.0799 -0.6012  0.0471
  139SOL    MW4  556   1.810   1.675   0.754 -0.0907  0.0930 -0.5012
  140SOL     OW  557   2.678   2.421   0.771 -0.3390 -0.0070 -0.6334
  140SOL    HW2  558   2.602   2.369   0.800  0.1716 -0.2161  0.3438
  140SOL    HW3  559   2.666   2.506   0.813  0.6517 -0.4628  0.5813
  140SOL    MW4  560   2.666   2.425   0.780 -0.1409 -0.0947 -0.3442
  141SOL     OW  561   3.600   3.979   0.497  0.5501  0.3471  0.2256
  141SOL    HW2  562   3.510   3.988   0.465  0.3466  0.6213  0.8635
  141SOL    HW3  563   3.590   3.967   0.591  1.3155  3.1712  0.6976
  141SOL    MW4  564   3.587   3.979   0.505  0.6243  0.7559  0.3720
  142SOL     OW  565   2.692   1.117   0.672  0.4422  0.1355 -0.5367
  142SOL    HW2  566   2.779   1.154   0.688  0.5137  0.1094 -0.8664
  142SOL    HW3  567   2.669   1.146   0.584  0.7610 -1.1106 -1.0399
  142SOL    MW4  568   2.701   1.126   0.663  0.4937 -0.0323 -0.6466
  143SOL     OW  569   2.719   3.986   0.710 -0.5132 -0.0833  0.1935
  143SOL    HW2  570   2.780   3.935   0.763  0.3711  1.6283  0.8534
  143SOL    HW3  571   2.756   3.985   0.622  0.3341  0.7300  0.5362
  143SOL    MW4  572   2.732   3.979   0.706 -0.2848  0.2498  0.3258
  144SOL     OW  573   2.894   4.662   0.890 -0.3604  0.0742  0.1477
  144SOL    HW2  574   2.825   4.705   0.839 -1.0478 -1.0002  0.1500
  144SOL    HW3  575   2.976   4.691   0.851 -0.8047  1.6241  0.3411
  144SOL    MW4  576   2.895   4.671   0.878 -0.5097  0.1370  0.1735
  145SOL     OW  577   2.242   0.361   0.848 -0.1169 -0.6404 -0.0823
  145SOL    HW2  578   2.238   0.267   0.829 -1.3913 -0.8003  0.8349
  145SOL    HW3  579   2.153   0.392   0.830  0.4297  0.4954 -0.8540
  145SOL    MW4  580   2.230   0.352   0.843 -0.2129 -0.5116 -0.0631
  146SOL     OW  581   1.995   3.356   0.401 -0.4393 -0.3386  0.0255
  146SOL    HW2  582   1.905   3.329   0.387 -1.5542  2.7300  0.7845
  146SOL    HW3  583   2.033   3.289   0.457 -2.7616 -0.7808  1.1060
  146SOL    MW4  584   1.988   3.344   0.406 -0.8928  0.0079  0.2682
  147SOL     OW  585   0.176   3.638   0.816 -0.3379  0.2728 -0.0111
  147SOL    HW2  586   0.257   3.594   0.840  0.2660  0.0309 -2.3794
  147SOL    HW3  587   0.108   3.571   0.827  0.3941 -0.8849 -2.2091
  147SOL    MW4  588   0.177   3.623   0.820 -0.1617  0.0881 -0.6136
  148SOL     OW  589   2.513   0.778   0.940  0.2514 -0.0249 -0.1325
  148SOL    HW2  590   2.499   0.691   0.904  0.4966  0.0738 -0.4683
  148SOL    HW3  591   2.590   0.811   0.895  0.4258  0.1899  0.3188
  148SOL    MW4  592   2.521   0.771   0.929  0.3067  0.0165 -0.1172
  149SOL     OW  593   2.045   2.586   0.407 -0.0915 -0.2147 -0.1170
  149SOL    HW2  594   2.103   2.643   0.356  1.1117 -0.5813  0.8147
  149SOL    HW3  595   2.010   2.642   0.476  0.0804 -0.2750  0.0213
  149SOL    MW4  596   2.048   2.600   0.409  0.0900 -0.2710  0.0241
  150SOL     OW  597   2.689   1.644   0.467  0.2523  0.2241 -0.4434
  150SOL    HW2  598   2.596   1.642   0.448  0.3777 -0.7205 -0.9676
  150SOL    HW3  599   2.719   1.728   0.433 -0.2293  0.1288 -1.1034
  150SOL    MW4  600   2.681   1.655   0.460  0.2053  0.0869 -0.5997
  151SOL     OW  601   4.335   3.514   0.374  0.2957 -0.0409  0.2755
  151SOL    HW2  602   4.313   3.527   0.282 -0.3635  0.0005  0.4387
  151SOL    HW3  603   4.259   3.546   0.422  0.4653 -0.4454  0.8195
  151SOL    MW4  604   4.322   3.520   0.368  0.2311 -0.0888  0.3688
  152SOL     OW  605   0.327   4.094   0.558  0.2866  0.1397 -0.0446
  152SOL    HW2  606   0.292   4.178   0.528 -0.7869 -0.7752 -1.4409
  152SOL    HW3  607   0.288   4.030   0.498  0.8737 -1.3764  1.1823
  152SOL    MW4  608   0.317   4.097   0.546  0.2224 -0.1810 -0.0670
  153SOL     OW  609   3.778   3.845   0.314  0.0530 -0.0777  0.5632
  153SOL    HW2  610   3.702   3.871   0.366  0.0317 -0.6545  0.8217
  153SOL    HW3  611   3.827   3.926   0.302 -0.8587  0.4011 -0.0364
  153SOL    MW4  612   3.774   3.859   0.320 -0.0701 -0.0906  0.5182
  154SOL     OW  613   3.643   1.633   0.715  0.0743  0.0408  0.7534
  154SOL    HW2  614   3.554   1.598   0.714 -0.3036  0.9789  1.1515
  154SOL    HW3  615   3.661   1.657   0.625 -0.1471  0.0156  0.7023
  154SOL    MW4  616   3.633   1.631   0.703 -0.0048  0.1612  0.7992
  155SOL     OW  617   1.585   3.563   0.522 -0.1093  0.2026  0.0189
  155SOL    HW2  618   1.594   3.558   0.617 -0.3091  0.1502  0.0359
  155SOL    HW3  619   1.651   3.627   0.494  0.9589 -0.8831  0.0327
  155SOL    MW4  620   1.595   3.571   0.530  0.0052  0.0524  0.0230
  156SOL     OW  621   2.480   1.486   0.805 -0.5244  0.0798  0.0493
  156SOL    HW2  622   2.404   1.528   0.764 -0.7280  0.5098  0.8554
  156SOL    HW3  623   2.554   1.542   0.781  0.0895 -2.0710 -3.4400
  156SOL    MW4  624   2.480   1.499   0.797 -0.4703 -0.1472 -0.3047
  157SOL     OW  625   0.374   2.432   0.679 -0.4275 -0.3701  0.0717
  157SOL    HW2  626   0.460   2.400   0.704  0.0236 -0.4684 -1.5514
  157SOL    HW3  627   0.366   2.410   0.586 -1.4892  1.1653 -0.2210
  157SOL    MW4  628   0.384   2.425   0.670 -0.5081 -0.1805 -0.1811
  158SOL     OW  629   3.462   2.350   0.533  0.0555 -0.2799  0.3005
  158SOL    HW2  630   3.490   2.371   0.622  1.3331 -0.7038  0.0144
  158SOL    HW3  631   3.443   2.434   0.493  1.8011  0.0973  0.2318
  158SOL    MW4  632   3.463   2.364   0.540  0.4544 -0.2860  0.2537
  159SOL     OW  633   0.046   4.486   0.460  0.2143 -0.2264 -0.2598
  159SOL    HW2  634   0.042   4.508   0.367  0.5274  0.4823 -0.1078
  159SOL    HW3  635   0.138   4.464   0.475  0.3069  0.3582  0.0382
  159SOL    MW4  636   0.058   4.486   0.449  0.2678 -0.0558 -0.2004
  160SOL     OW  637   1.472   1.730   0.717  0.1498 -0.1381 -0.1066
  160SOL    HW2  638   1.506   1.665   0.778  0.3653  0.5550  0.5186
  160SOL    HW3  639   1.480   1.813   0.764 -0.0111  0.3520 -0.9432
  160SOL    MW4  640   1.478   1.732   0.731  0.1570  0.0180 -0.1345
  161SOL     OW  641   2.744   2.275   0.349 -0.3181 -0.2063 -0.0353
  161SOL    HW2  642   2.724   2.362   0.383 -0.0133 -0.6716  1.3673
  161SOL    HW3  643   2.830   2.284   0.307 -0.3931  0.2119 -0.1013
  161SOL    MW4  644   2.753   2.287   0.348 -0.2878 -0.2125  0.1410
  162SOL     OW  645   3.851   2.041   0.704  0.0224 -0.5777  0.2086
  162SOL    HW2  646   3.829   2.044   0.611  1.4123 -0.7890 -0.1419
  162SOL    HW3  647   3.843   2.132   0.734 -1.0817 -0.6138  0.0537
  162SOL    MW4  648   3.847   2.053   0.696  0.0601 -0.6103  0.1419
  163SOL     OW  649   2.639   3.313   0.387 -0.0359  0.7744  0.1353
  163SOL    HW2  650   2.566   3.361   0.346 -0.6083  0.1680  0.4361
  163SOL    HW3  651   2.663   3.366   0.463 -0.2143  0.9432  0.0745
  163SOL    MW4  652   2.633   3.326   0.391 -0.1350  0.7167  0.1669
  164SOL     OW  653   1.956   3.020   0.671  0.2071 -0.6557 -0.4500
  164SOL    HW2  654   2.000   3.047   0.751  1.2385 -3.1903 -0.1428
  164SOL    HW3  655   1.870   3.064   0.675  0.3867 -0.4860  1.8486
  164SOL    MW4  656   1.950   3.029   0.682  0.3669 -0.9677 -0.1062
  165SOL     OW  657   3.838   0.427   0.503  0.3304  0.2231 -0.4467
  165SOL    HW2  658   3.828   0.332   0.496 -0.9468  0.3562 -0.5094
  165SOL    HW3  659   3.766   0.463   0.451  0.9112  1.2265 -0.5709
  165SOL    MW4  660   3.827   0.419   0.495  0.2386  0.3730 -0.4714
  166SOL     OW  661   1.618   3.601   0.801  0.0975  0.3002  0.0103
  166SOL    HW2  662   1.711   3.581   0.809 -0.3302 -1.3900  1.0470
  166SOL    HW3  663   1.609   3.689   0.839  1.1212  0.1074  0.7042
  166SOL    MW4  664   1.629   3.610   0.807  0.1761  0.0518  0.2386
  167SOL     OW  665   1.987   0.005   0.855 -0.0834 -0.1460 -0.3744
  167SOL    HW2  666   2.064   0.053   0.824 -0.2842  0.0489 -0.5714
  167SOL    HW3  667   1.913   0.055   0.822 -0.2999  0.3872  0.9180
  167SOL    MW4  668   1.988   0.018   0.847 -0.1384 -0.0500 -0.2298
  168SOL     OW  669   2.961   2.017   0.733 -0.1694  0.2587 -0.1941
  168SOL    HW2  670   2.882   1.966   0.748  0.3431 -0.6296 -0.4911
  168SOL    HW3  671   2.940   2.104   0.766 -0.7511 -0.3680  1.1265
  168SOL    MW4  672   2.948   2.022   0.739 -0.1786  0.0588 -0.0591
  169SOL     OW  673   3.111   0.360   0.872  0.0981 -0.5895  0.0820
  169SOL    HW2  674   3.195   0.406   0.859 -0.1629 -0.0844  0.1636
  169SOL    HW3  675   3.096   0.365   0.966 -0.2786 -0.2283  0.0024
  169SOL    MW4  676   3.120   0.367   0.883  0.0140 -0.4752  0.0823
  170SOL     OW  677   4.234   2.341   0.862 -0.0198 -0.0672 -0.1466
  170SOL    HW2  678   4.245   2.247   0.846  0.1638 -0.3513  1.5339
  170SOL    HW3  679   4.151   2.363   0.821 -0.3912 -1.1158  0.0205
  170SOL    MW4  680   4.225   2.332   0.855 -0.0446 -0.2430  0.0972
  171SOL     OW  681   3.643   1.018   0.272 -0.3252 -0.9039  0.0356
  171SOL    HW2  682   3.596   1.026   0.189 -0.5226 -0.7885  0.1560
  171SOL    HW3  683   3.586   0.965   0.327 -0.5937 -0.2679  0.3814
  171SOL    MW4  684   3.629   1.012   0.268 -0.3866 -0.8047  0.0971
  172SOL     OW  685   3.499   3.161   0.731 -0.3305 -0.6834 -0.2378
  172SOL    HW2  686   3.435   3.111   0.782  1.1092 -0.7283  1.6062
  172SOL    HW3  687   3.511   3.242   0.781  1.7048 -1.0753 -0.0516
  172SOL    MW4  688   3.492   3.165   0.745  0.1280 -0.7410  0.0300
  173SOL     OW  689   4.049   1.877   0.850  0.0937 -0.5680  0.3841
  173SOL    HW2  690   3.974   1.902   0.796  1.1029  2.0939  0.1201
  173SOL    HW3  691   4.050   1.781   0.847 -1.8741 -0.5748 -1.5307
  173SOL    MW4  692   4.039   1.867   0.843 -0.0328 -0.2177  0.0966
  174SOL     OW  693   2.688   0.355   0.901 -0.1227 -0.2739 -0.5869
  174SOL    HW2  694   2.618   0.411   0.868  1.0997  1.2616 -0.6822
  174SOL    HW3  695   2.677   0.356   0.996  0.7710  1.4050 -0.4696
  174SOL    MW4  696   2.678   0.363   0.909  0.1565  0.1502 -0.5840
  175SOL     OW  697   3.584   0.019   0.478 -0.3737  0.6860  0.4154
  175SOL    HW2  698   3.586   0.017   0.574 -3.3098  0.9064  0.5281
  175SOL    HW3  699   3.548  -0.067   0.454 -0.6339  1.0330 -0.4336
  175SOL    MW4  700   3.580   0.007   0.488 -0.7954  0.7609  0.3182
  176SOL     OW  701   1.771   2.498   0.411 -0.5162  0.0611 -0.3223
  176SOL    HW2  702   1.856   2.519   0.374 -0.2978  0.0947  0.2060
  176SOL    HW3  703   1.712   2.563   0.373  0.1259  1.5348  1.1719
  176SOL    MW4  704   1.774   2.509   0.401 -0.4026  0.2600 -0.0555
  177SOL     OW  705   0.497   1.888   0.889  0.2353  0.2849  0.0074
  177SOL    HW2  706   0.592   1.883   0.890  0.1796 -0.8305  0.6026
  177SOL    HW3  707   0.473   1.905   0.981 -0.2405 -1.8798  0.3123
  177SOL    MW4  708   0.506   1.889   0.902  0.1652 -0.1479  0.1261
  178SOL     OW  709   1.074   0.980   0.733 -0.1571 -0.2329 -0.1098
  178SOL    HW2  710   1.136   0.946   0.798 -0.4680 -0.3247  0.1409
  178SOL    HW3  711   1.008   1.026   0.785  1.1579  2.2017 -0.5503
  178SOL    MW4  712   1.073   0.981   0.749 -0.0246  0.0762 -0.1348
  179SOL     OW  713   3.818   0.163   0.387  0.1740  0.4352  0.0284
  179SOL    HW2  714   3.741   0.107   0.396  0.2273  0.4676  0.7568
  179SOL    HW3  715   3.802   0.215   0.309 -1.2044  1.4804  1.0002
  179SOL    MW4  716   3.806   0.162   0.378 -0.0008  0.5774  0.2527
  180SOL     OW  717   3.297   3.685   0.367 -0.6889 -0.3274  0.6673
  180SOL    HW2  718   3.361   3.625   0.404 -0.6567 -0.4635  0.3952
  180SOL    HW3  719   3.250   3.633   0.302  0.1577  0.2570 -0.4307
  180SOL    MW4  720   3.300   3.670   0.363 -0.5729 -0.2682  0.4865
  181SOL     OW  721   3.345   0.170   0.510  0.2942 -0.1466 -0.5327
  181SOL    HW2  722   3.418   0.119   0.475  0.0723  0.1454 -1.4440
  181SOL    HW3  723   3.271   0.109   0.510  0.6093 -0.5246  0.6608
  181SOL    MW4  724   3.345   0.155   0.505  0.3065 -0.1579 -0.4955
  182SOL     OW  725   2.433   3.620   0.681 -0.6075  0.2316 -0.3670
  182SOL    HW2  726   2.409   3.530   0.701  0.7871 -0.2278 -0.6691
  182SOL    HW3  727   2.390   3.639   0.598  1.4886 -1.1981 -1.8326
  182SOL    MW4  728   2.425   3.610   0.672 -0.1470 -0.0176 -0.6002
  183SOL     OW  729   4.120   1.154   0.208 -0.3656 -0.5901  0.1502
  183SOL    HW2  730   4.096   1.244   0.229  2.0070  0.0800  0.1197
  183SOL    HW3  731   4.142   1.156   0.115  1.1094 -0.8549  0.4739
  183SOL    MW4  732   4.120   1.166   0.199  0.1420 -0.5366  0.1889
  184SOL     OW  733   2.459   2.046   0.752  0.6352 -0.2874 -0.5972
  184SOL    HW2  734   2.477   2.046   0.658  1.0593 -0.8143 -0.5192
  184SOL    HW3  735   2.390   1.980   0.763 -0.4329  0.8038 -0.7261
  184SOL    MW4  736   2.453   2.037   0.741  0.5502 -0.2130 -0.6039
  185SOL     OW  737   1.482   2.802   0.682 -0.1859 -0.3288 -0.0657
  185SOL    HW2  738   1.418   2.750   0.731  0.0139 -0.2019  0.3259
  185SOL    HW3  739   1.500   2.877   0.737 -0.6840  0.3138 -0.7601
  185SOL    MW4  740   1.476   2.805   0.695 -0.2252 -0.2273 -0.1057
  186SOL     OW  741   3.377   2.028   0.772 -0.0712  0.0879  0.3732
  186SOL    HW2  742   3.311   1.966   0.804 -0.0994 -0.6203 -1.0071
  186SOL    HW3  743   3.457   2.004   0.817 -0.4344  0.0387  0.9973
  186SOL    MW4  744   3.379   2.017   0.782 -0.1229 -0.0121  0.2734
  187SOL     OW  745   1.485   1.957   0.858 -0.2144  0.4142 -0.0220
  187SOL    HW2  746   1.445   2.016   0.795 -0.5157  0.9057  0.6195
  187SOL    HW3  747   1.421   1.950   0.929  0.2761  0.1740  0.4057
  187SOL    MW4  748   1.471   1.964   0.859 -0.1894  0.4473  0.1190
  188SOL     OW  749   2.854   3.666   0.452  0.1007  0.4100 -0.6181
  188SOL    HW2  750   2.803   3.621   0.519  0.8180 -0.3368 -0.5590
  188SOL    HW3  751   2.858   3.604   0.379  1.0570  0.3899 -0.5541
  188SOL    MW4  752   2.848   3.652   0.452  0.3215  0.3088 -0.6018
  189SOL     OW  753   2.676   4.238   0.845  0.2660  0.0678  0.2149
  189SOL    HW2  754   2.670   4.207   0.935  0.2116  0.2647  0.2792
  189SOL    HW3  755   2.702   4.161   0.795  0.4130 -0.0134  0.4168
  189SOL    MW4  756   2.679   4.224   0.850  0.2782  0.0831  0.2501
  190SOL     OW  757   2.149   3.173   0.555 -0.0635 -0.0064 -0.0319
  190SOL    HW2  758   2.191   3.122   0.485 -1.3660 -0.4862 -0.4766
  190SOL    HW3  759   2.081   3.115   0.589 -1.6708  1.4638 -0.6529
  190SOL    MW4  760   2.145   3.159   0.550 -0.4474  0.1243 -0.1725
  191SOL     OW  761   4.197   2.458   0.437 -0.0486 -0.0188 -0.2765
  191SOL    HW2  762   4.203   2.367   0.464 -0.0165  0.0446 -0.0652
  191SOL    HW3  763   4.271   2.471   0.378  1.5807  0.6087  1.8605
  191SOL    MW4  764   4.207   2.448   0.433  0.1706  0.0724  0.0333
  192SOL     OW  765   2.278   3.034   0.359 -0.2134  0.7357  0.1276
  192SOL    HW2  766   2.263   3.091   0.283  0.0164  0.6493  0.0160
  192SOL    HW3  767   2.366   3.058   0.389  0.2949 -0.2712 -0.5349
  192SOL    MW4  768   2.288   3.045   0.353 -0.1160  0.5914  0.0255
  193SOL     OW  769   3.324   3.975   0.454 -0.3775 -0.0523  0.3163
  193SOL    HW2  770   3.244   3.974   0.505 -0.3665  0.3322  0.3401
  193SOL    HW3  771   3.334   3.885   0.423 -1.1243  0.0346 -0.1729
  193SOL    MW4  772   3.315   3.963   0.457 -0.4746  0.0099  0.2549
  194SOL     OW  773   0.661   2.119   0.616 -0.0925  0.7133 -0.4579
  194SOL    HW2  774   0.645   2.190   0.678 -1.8955 -0.1967  0.1391
  194SOL    HW3  775   0.588   2.124   0.555  0.5803  0.3042 -1.2936
  194SOL    MW4  776   0.649   2.129   0.617 -0.2416  0.5392 -0.4894
  195SOL     OW  777   0.074   0.622   0.516 -0.1957 -0.1080  0.1887
  195SOL    HW2  778   0.024   0.702   0.499 -0.0605 -0.3490 -1.4478
  195SOL    HW3  779   0.163   0.654   0.533 -0.4165  0.1652  0.8743
  195SOL    MW4  780   0.079   0.637   0.516 -0.2070 -0.1037  0.0633
  196SOL     OW  781   1.335   4.003   0.549 -0.3137  0.1800  0.3200
  196SOL    HW2  782   1.283   3.937   0.502 -0.9600  0.5956  0.4356
  196SOL    HW3  783   1.276   4.078   0.557 -0.2254  0.0957  1.8546
  196SOL    MW4  784   1.320   4.004   0.544 -0.3873  0.2237  0.5377
  197SOL     OW  785   0.118   2.797   0.609 -0.0976 -0.2390 -0.0573
  197SOL    HW2  786   0.200   2.750   0.619 -0.2511 -0.4489  0.2105
  197SOL    HW3  787   0.063   2.766   0.681 -0.8747 -1.0613 -1.0042
  197SOL    MW4  788   0.122   2.787   0.620 -0.2204 -0.3752 -0.1469
  198SOL     OW  789   1.576   3.037   0.833  0.2711  0.4004  0.1917
  198SOL    HW2  790   1.582   3.045   0.928  2.1546 -0.3839  0.1734
  198SOL    HW3  791   1.631   3.108   0.799  0.4892  0.0098 -0.2877
  198SOL    MW4  792   1.584   3.048   0.841  0.5484  0.2454  0.1260
  199SOL     OW  793   4.466   2.136   0.430 -0.0289 -0.3566  0.0500
  199SOL    HW2  794   4.500   2.223   0.450 -0.3735 -0.1476 -0.2914
  199SOL    HW3  795   4.372   2.143   0.443 -0.1683 -0.4324 -0.8762
  199SOL    MW4  796   4.458   2.148   0.435 -0.0928 -0.3391 -0.1173
  200SOL     OW  797   3.085   3.446   0.867 -0.1910  0.2388 -0.0182
  200SOL    HW2  798   2.993   3.473   0.865  0.1833  1.5792 -0.0243
  200SOL    HW3  799   3.087   3.361   0.824 -1.2942  0.6292 -0.8488
  200SOL    MW4  800   3.073   3.438   0.861 -0.2872  0.4672 -0.1286
  201SOL     OW  801   3.201   0.855   0.733  0.4825 -0.1925  0.3751
  201SOL    HW2  802   3.124   0.808   0.764  0.1566 -0.1470 -0.3434
  201SOL    HW3  803   3.187   0.945   0.759 -0.6378  0.1836 -1.4262
  201SOL    MW4  804   3.189   0.860   0.740  0.2917 -0.1369  0.0427
  202SOL     OW  805   3.966   2.963   0.441  0.2807 -0.4481  0.0524
  202SOL    HW2  806   4.009   3.041   0.477  0.2912  0.1015 -1.1233
  202SOL    HW3  807   4.026   2.891   0.462  0.2017 -0.1777  1.2736
  202SOL    MW4  808   3.980   2.964   0.449  0.2717 -0.3399  0.0584
  203SOL     OW  809   3.529   2.712   0.856  0.0459 -0.2043 -0.0700
  203SOL    HW2  810   3.602   2.773   0.843  0.6826 -1.1836 -1.1503
  203SOL    HW3  811   3.527   2.697   0.951 -0.1441  1.5238  0.2099
  203SOL    MW4  812   3.539   2.718   0.867  0.1049 -0.1055 -0.1756
  204SOL     OW  813   0.220   3.186   0.383  0.1330 -0.4882  0.2420
  204SOL    HW2  814   0.166   3.264   0.381  1.0944  0.1544 -1.6003
  204SOL    HW3  815   0.220   3.159   0.475 -0.8870  1.1840  0.7517
  204SOL    MW4  816   0.213   3.192   0.395  0.1253 -0.1828  0.0662
  205SOL     OW  817   1.131   1.355   0.786 -0.2024  0.2962 -0.7194
  205SOL    HW2  818   1.119   1.437   0.835 -0.6656  0.0575 -0.4271
  205SOL    HW3  819   1.051   1.346   0.734 -0.9472 -0.8596  0.5765
  205SOL    MW4  820   1.119   1.365   0.786 -0.3618  0.1122 -0.5098
  206SOL     OW  821   0.944   1.511   0.366  0.3277 -0.3014 -0.0332
  206SOL    HW2  822   0.891   1.586   0.393  0.3156 -0.1904 -0.3640
  206SOL    HW3  823   0.880   1.441   0.353  0.2146 -0.0580 -0.8206
  206SOL    MW4  824   0.929   1.512   0.368  0.3112 -0.2546 -0.1808
  207SOL     OW  825   4.037   1.609   0.811  0.3212 -0.1217  0.2727
  207SOL    HW2  826   3.959   1.570   0.852  0.5602 -1.2355 -0.3052
  207SOL    HW3  827   4.110   1.557   0.845  0.6578 -0.1211 -0.4532
  207SOL    MW4  828   4.036   1.597   0.821  0.3972 -0.2686  0.1007
  208SOL     OW  829   1.596   3.848   0.915 -0.4685 -0.3632 -0.5593
  208SOL    HW2  830   1.515   3.879   0.875 -0.9176 -0.3621  0.3316
  208SOL    HW3  831   1.666   3.890   0.865 -1.0217 -0.2582 -1.2435
  208SOL    MW4  832   1.594   3.857   0.903 -0.6007 -0.3492 -0.5320
  209SOL     OW  833   2.592   3.183   0.743  0.4870 -0.2638  0.7443
  209SOL    HW2  834   2.671   3.148   0.785 -0.5754 -1.7469  1.5239
  209SOL    HW3  835   2.600   3.156   0.651  0.2927 -1.4419  1.0756
  209SOL    MW4  836   2.603   3.175   0.736  0.3212 -0.6149  0.8909
  210SOL     OW  837   2.397   4.614   0.364  0.3157  0.1487 -0.3758
  210SOL    HW2  838   2.361   4.527   0.351  2.0743 -0.7842  0.7939
  210SOL    HW3  839   2.486   4.599   0.397 -0.0459  2.3603  1.7634
  210SOL    MW4  840   2.404   4.601   0.367  0.5000  0.3174  0.0608
  211SOL     OW  841   0.697   1.541   0.684 -0.0192  0.2991  0.0344
  211SOL    HW2  842   0.612   1.585   0.695 -0.1001  0.2877 -0.5510
  211SOL    HW3  843   0.746   1.599   0.626 -0.4028 -0.7724 -1.3672
  211SOL    MW4  844   0.692   1.555   0.678 -0.0805  0.1563 -0.2278
  212SOL     OW  845   1.279   0.852   0.868  0.7342  0.0496  0.2897
  212SOL    HW2  846   1.257   0.838   0.960 -0.0060  0.5905  0.2034
  212SOL    HW3  847   1.238   0.779   0.821  1.4751 -0.4631  0.4316
  212SOL    MW4  848   1.271   0.841   0.874  0.7343  0.0533  0.2970
  213SOL     OW  849   0.267   4.365   0.782  0.4334  0.0529 -0.1963
  213SOL    HW2  850   0.180   4.334   0.807 -0.0687 -1.5663 -3.6378
  213SOL    HW3  851   0.327   4.319   0.840 -0.8559 -0.8357  0.4421
  213SOL    MW4  852   0.264   4.355   0.793  0.1970 -0.2779 -0.5662
  214SOL     OW  853   4.040   3.211   0.512  0.0027 -0.0852  0.8492
  214SOL    HW2  854   3.994   3.266   0.449 -1.3101 -0.8001  1.1861
  214SOL    HW3  855   4.132   3.235   0.501 -0.3032  0.4083 -0.7307
  214SOL    MW4  856   4.046   3.221   0.502 -0.2108 -0.1144  0.6852
  215SOL     OW  857   4.025   1.739   0.545 -0.0670 -0.5295 -0.0327
  215SOL    HW2  858   3.933   1.722   0.525 -0.1268 -0.6385  0.3293
  215SOL    HW3  859   4.041   1.692   0.627 -0.4150  1.6642  1.3490
  215SOL    MW4  860   4.015   1.730   0.553 -0.1208 -0.2545  0.1974
  216SOL     OW  861   4.139   0.824   0.465 -0.2884  0.0970  0.0695
  216SOL    HW2  862   4.098   0.742   0.440 -0.1824 -0.2791  1.1088
  216SOL    HW3  863   4.075   0.891   0.442 -1.1031 -0.4145  0.8157
  216SOL    MW4  864   4.125   0.822   0.459 -0.3819 -0.0201  0.3051
  217SOL     OW  865   1.286   0.427   0.833 -0.1925  0.1405  0.5636
  217SOL    HW2  866   1.264   0.346   0.787  1.4488 -0.1853  0.3309
  217SOL    HW3  867   1.292   0.402   0.925  0.2254  0.0168  0.5025
  217SOL    MW4  868   1.284   0.413   0.839  0.0792  0.0812  0.5249
  218SOL     OW  869   1.134   4.631   0.377  0.1464  0.1145 -0.4373
  218SOL    HW2  870   1.043   4.605   0.392  0.0133  0.6643 -0.2673
  218SOL    HW3  871   1.134   4.726   0.390  1.1022 -0.1075  1.4567
  218SOL    MW4  872   1.122   4.641   0.381  0.2549  0.1577 -0.1650
  219SOL     OW  873   4.476   1.587   0.520  0.2731  0.0559  0.1047
  219SOL    HW2  874   4.475   1.492   0.536  1.7423 -0.0608 -0.4130
  219SOL    HW3  875   4.386   1.608   0.495 -0.2020 -1.1034  0.7711
  219SOL    MW4  876   4.464   1.577   0.519  0.4043 -0.1124  0.1243
  220SOL     OW  877   1.235   4.251   0.626  0.5143 -0.1016 -0.7282
  220SOL    HW2  878   1.274   4.330   0.588 -0.2263  0.8887  0.5165
  220SOL    HW3  879   1.239   4.265   0.721 -0.8660 -0.9493 -0.5292
  220SOL    MW4  880   1.241   4.263   0.634  0.2345 -0.0828 -0.5377
  221SOL     OW  881   3.730   2.302   0.457 -0.2004  0.1565 -0.0909
  221SOL    HW2  882   3.638   2.299   0.483  0.3472  2.1758  2.3189
  221SOL    HW3  883   3.756   2.210   0.448 -2.1009 -0.4599  0.5354
  221SOL    MW4  884   3.721   2.289   0.459 -0.3789  0.3416  0.3097
  222SOL     OW  885   0.343   2.406   0.405 -0.3373  0.1314  0.1312
  222SOL    HW2  886   0.251   2.424   0.424 -0.2632  0.4030  0.2282
  222SOL    HW3  887   0.376   2.487   0.367 -0.6165 -0.5812 -1.6454
  222SOL    MW4  888   0.335   2.419   0.403 -0.3644  0.0732 -0.0904
  223SOL     OW  889   1.762   3.744   0.409 -0.3742 -0.2674 -0.3910
  223SOL    HW2  890   1.777   3.752   0.315  2.0248  0.1929 -0.0161
  223SOL    HW3  891   1.750   3.835   0.439 -0.4478 -0.3519 -0.1615
  223SOL    MW4  892   1.762   3.757   0.401 -0.0674 -0.2179 -0.3112
  224SOL     OW  893   1.874   0.131   0.542 -0.1207 -0.6165  0.1363
  224SOL    HW2  894   1.966   0.132   0.514 -0.0856  0.2215  0.2654
  224SOL    HW3  895   1.847   0.040   0.532  0.9194 -0.9949  0.7198
  224SOL    MW4  896   1.883   0.119   0.537  0.0212 -0.5559  0.2303
  225SOL     OW  897   2.125   0.558   0.467  0.0736 -0.2732 -0.3291
  225SOL    HW2  898   2.197   0.510   0.424  0.7181 -0.1983  0.6407
  225SOL    HW3  899   2.168   0.634   0.506 -0.7975  0.5976 -1.0578
  225SOL    MW4  900   2.140   0.562   0.466  0.0437 -0.1484 -0.2973
  226SOL     OW  901   3.502   2.799   0.474 -0.1656  0.3347  0.0974
  226SOL    HW2  902   3.597   2.786   0.473 -0.2948 -0.6996  0.2525
  226SOL    HW3  903   3.467   2.726   0.423 -0.8434  1.1201 -0.5758
  226SOL    MW4  904   3.510   2.788   0.467 -0.2721  0.3019  0.0290
  227SOL     OW  905   2.259   4.386   0.356  0.0069 -0.1926 -0.3105
  227SOL    HW2  906   2.316   4.320   0.396 -0.1529  0.1927  0.5637
  227SOL    HW3  907   2.174   4.373   0.397 -0.5867 -0.8454 -1.7026
  227SOL    MW4  908   2.256   4.376   0.367 -0.0925 -0.2279 -0.3788
  228SOL     OW  909   4.232   3.088   0.894 -0.1220  0.0404  0.0246
  228SOL    HW2  910   4.243   3.004   0.851 -0.2306 -0.5341  1.0997
  228SOL    HW3  911   4.155   3.126   0.853 -0.0900 -0.3911 -0.4408
  228SOL    MW4  912   4.224   3.082   0.883 -0.1321 -0.0923  0.1050
  229SOL     OW  913   3.754   2.838   0.787 -0.3904 -0.2329 -0.1497
  229SOL    HW2  914   3.822   2.787   0.831 -0.5428  0.1708  0.5672
  229SOL    HW3  915   3.744   2.797   0.701  1.0217 -0.0500 -0.4066
  229SOL    MW4  916   3.762   2.826   0.781 -0.2242 -0.1555 -0.0890
  230SOL     OW  917   2.709   1.915   0.817 -0.0444  0.0410  0.0926
  230SOL    HW2  918   2.711   1.900   0.912  0.9736  0.2176  0.1113
  230SOL    HW3  919   2.630   1.967   0.803  0.0714  0.4618  0.9223
  230SOL    MW4  920   2.699   1.920   0.828  0.1052  0.1198  0.2045
  231SOL     OW  921   3.522   1.879   0.427 -0.3815 -0.1996  0.1742
  231SOL    HW2  922   3.479   1.960   0.456 -1.0302 -0.0436 -1.1910
  231SOL    HW3  923   3.449   1.823   0.399  0.1363 -0.8899  0.2085
  231SOL    MW4  924   3.506   1.882   0.427 -0.3988 -0.2701 -0.0014
  232SOL     OW  925   0.215   1.998   0.481 -0.2655  0.0780 -0.0901
  232SOL    HW2  926   0.131   2.039   0.463  0.0265  0.8016  0.1674
  232SOL    HW3  927   0.223   1.998   0.576 -0.0417 -0.1109 -0.1075
  232SOL    MW4  928   0.205   2.004   0.491 -0.1975  0.1485 -0.0584
  233SOL     OW  929   1.737   0.321   0.370  0.2136  0.1024 -0.3525
  233SOL    HW2  930   1.686   0.271   0.306  1.4910 -1.7243 -0.0140
  233SOL    HW3  931   1.794   0.255   0.411  1.3233  1.7075  0.7475
  233SOL    MW4  932   1.738   0.305   0.367  0.5286  0.0732 -0.1627
  234SOL     OW  933   1.574   4.184   0.535  0.1173  0.0806  0.0269
  234SOL    HW2  934   1.495   4.130   0.532 -0.0614  0.1975  1.8833
  234SOL    HW3  935   1.560   4.243   0.610  1.9535  0.0893  0.3839
  234SOL    MW4  936   1.562   4.185   0.545  0.3360  0.0972  0.3190
  235SOL     OW  937   1.644   1.533   0.894 -0.4377 -0.0219 -0.4260
  235SOL    HW2  938   1.600   1.545   0.979 -0.8368  1.2983 -0.7976
  235SOL    HW3  939   1.640   1.439   0.878 -1.6849 -0.1144  0.3198
  235SOL    MW4  940   1.638   1.523   0.903 -0.6549  0.1401 -0.3766
  236SOL     OW  941   4.211   4.340   0.760  0.3099  0.2048 -0.2467
  236SOL    HW2  942   4.243   4.332   0.670  1.3454 -1.1280  0.2208
  236SOL    HW3  943   4.243   4.425   0.789  1.2629 -0.0039 -0.6455
  236SOL    MW4  944   4.219   4.350   0.752  0.5723  0.0014 -0.2377
  237SOL     OW  945   4.220   2.844   0.769  0.0224 -0.0692 -0.0511
  237SOL    HW2  946   4.205   2.839   0.675  0.4007  0.4240 -0.1409
  237SOL    HW3  947   4.304   2.801   0.783  0.1703  0.2338  0.0043
  237SOL    MW4  948   4.229   2.838   0.759  0.0918  0.0358 -0.0556
  238SOL     OW  949   4.024   4.346   0.450 -0.2731 -0.1567 -0.2753
  238SOL    HW2  950   4.020   4.437   0.477 -0.3569 -0.2974  0.2034
  238SOL    HW3  951   4.116   4.323   0.454  0.0751  0.6160 -2.8482
  238SOL    MW4  952   4.035   4.355   0.454 -0.2382 -0.0733 -0.5516
  239SOL     OW  953   4.248   3.611   0.752 -0.0950  0.3216  0.2495
  239SOL    HW2  954   4.266   3.681   0.815 -0.5661  0.1759  0.5528
  239SOL    HW3  955   4.171   3.566   0.788  0.4503 -0.6037  0.2742
  239SOL    MW4  956   4.240   3.614   0.765 -0.0852  0.1803  0.2928
  240SOL     OW  957   3.388   1.523   0.831  0.1927  0.0465 -0.0089
  240SOL    HW2  958   3.414   1.432   0.821 -0.1505  0.0589 -1.0894
  240SOL    HW3  959   3.404   1.543   0.923  1.1532 -0.8264  0.0146
  240SOL    MW4  960   3.393   1.514   0.842  0.2742 -0.0671 -0.1484
  241SOL     OW  961   3.368   4.356   0.722  0.0759  0.0509  0.5529
  241SOL    HW2  962   3.374   4.441   0.764 -0.5178  0.5692 -0.4016
  241SOL    HW3  963   3.434   4.359   0.652  0.0392 -0.2571  0.5038
  241SOL    MW4  964   3.377   4.367   0.718 -0.0073  0.0787  0.4205
  242SOL     OW  965   0.600   4.438   0.779  0.3419  0.4981 -0.0057
  242SOL    HW2  966   0.564   4.361   0.821 -2.2250  0.8575 -1.4236
  242SOL    HW3  967   0.576   4.511   0.837 -1.0678  0.7024 -0.8066
  242SOL    MW4  968   0.592   4.438   0.792 -0.1828  0.5724 -0.2984
  243SOL     OW  969   4.029   3.937   0.773 -0.1211 -0.0520 -0.5088
  243SOL    HW2  970   4.022   4.019   0.821 -1.2170 -0.3723 -0.1017
  243SOL    HW3  971   4.095   3.887   0.820  0.6983  0.6602 -0.8744
  243SOL    MW4  972   4.037   3.941   0.785 -0.1576 -0.0003 -0.5033
  244SOL     OW  973   4.067   0.562   0.441  0.2395  0.6583  0.1803
  244SOL    HW2  974   3.992   0.512   0.474  0.5319  0.2640  0.2537
  244SOL    HW3  975   4.125   0.495   0.403  1.1043  0.8356  1.1844
  244SOL    MW4  976   4.064   0.546   0.440  0.3922  0.6296  0.3225
  245SOL     OW  977   3.952   1.011   0.362 -0.0363 -0.1405  0.1064
  245SOL    HW2  978   3.862   1.011   0.328  0.2894  1.0507 -0.7626
  245SOL    HW3  979   4.004   1.049   0.292  0.9053  0.7307  1.2699
  245SOL    MW4  980   3.947   1.016   0.348  0.1309  0.1316  0.1453
  246SOL     OW  981   2.523   3.087   0.474 -0.0524  0.0374 -0.1441
  246SOL    HW2  982   2.575   3.007   0.469  0.7108  0.3643  2.1201
  246SOL    HW3  983   2.574   3.151   0.425 -0.7475 -0.8575 -2.1154
  246SOL    MW4  984   2.537   3.085   0.467 -0.0435 -0.0376 -0.1055
  247SOL     OW  985   3.097   3.791   0.758 -0.2633  0.2819 -0.3257
  247SOL    HW2  986   3.166   3.790   0.825 -0.3616  1.2435 -0.2059
  247SOL    HW3  987   3.124   3.725   0.695  0.7583  0.6244 -0.2584
  247SOL    MW4  988   3.109   3.782   0.758 -0.1414  0.4540 -0.3010
  248SOL     OW  989   0.337   0.708   0.578 -0.4242 -0.2492  0.0996
  248SOL    HW2  990   0.295   0.727   0.662  0.3093  0.8473  0.2222
  248SOL    HW3  991   0.413   0.764   0.576  0.4277 -1.4057 -0.6286
  248SOL    MW4  992   0.341   0.718   0.589 -0.2150 -0.2571  0.0197
  249SOL     OW  993   2.593   1.188   0.407 -0.3771  0.1130  0.0115
  249SOL    HW2  994   2.654   1.258   0.384 -0.4416  0.1404 -0.0749
  249SOL    HW3  995   2.518   1.232   0.445 -0.0617  0.0372  0.7353
  249SOL    MW4  996   2.591   1.203   0.409 -0.3440  0.1066  0.0956
  250SOL     OW  997   3.287   1.710   0.335  0.1090 -0.7890 -0.4494
  250SOL    HW2  998   3.220   1.768   0.298  0.5531 -0.1664 -0.2824
  250SOL    HW3  999   3.236   1.639   0.376 -0.4554 -0.3278 -0.3331
  250SOL    MW4 1000   3.271   1.708   0.336  0.0931 -0.6460 -0.4120
  251SOL     OW 1001   2.430   1.574   0.358  0.3731  0.3258 -0.1118
  251SOL    HW2 1002   2.352   1.627   0.344  1.0194  1.7290  1.4277
  251SOL    HW3 1003   2.399   1.499   0.410 -0.3417 -0.2747 -1.3872
  251SOL    MW4 1004   2.416   1.571   0.363  0.3641  0.4317 -0.0770
  252SOL     OW 1005   3.154   0.107   0.802 -0.2362 -0.0235  0.1606
  252SOL    HW2 1006   3.147   0.095   0.707  0.5250  1.3457 -0.0735
  252SOL    HW3 1007   3.121   0.196   0.818 -1.1822 -0.5547  1.2861
  252SOL    MW4 1008   3.148   0.117   0.792 -0.2606  0.0870  0.2782
  253SOL     OW 1009   0.203   2.247   0.793 -0.1452  0.3574  0.4179
  253SOL    HW2 1010   0.273   2.305   0.763 -0.3038  0.0625 -0.5560
  253SOL    HW3 1011   0.208   2.250   0.888  0.9259  0.6554  0.3567
  253SOL    MW4 1012   0.213   2.255   0.801 -0.0248  0.3578  0.2813
  254SOL     OW 1013   3.493   3.082   0.452  0.2230 -0.2342  0.0180
  254SOL    HW2 1014   3.503   3.114   0.541 -0.4467  0.2230 -0.0661
  254SOL    HW3 1015   3.491   2.986   0.460  0.3891 -0.1977  0.4668
  254SOL    MW4 1016   3.494   3.073   0.465  0.1566 -0.1691  0.0661
  255SOL     OW 1017   1.309   3.546   0.521 -0.1764 -0.2046 -0.0642
  255SOL    HW2 1018   1.295   3.462   0.476 -0.6045  0.5128 -1.3155
  255SOL    HW3 1019   1.401   3.567   0.505 -0.4900  0.3610 -1.1778
  255SOL    MW4 1020   1.319   3.537   0.513 -0.2743 -0.0353 -0.3762
  256SOL     OW 1021   4.480   2.430   0.743 -0.2887  0.1036  0.2939
  256SOL    HW2 1022   4.556   2.373   0.758  0.7404  1.3693  0.0089
  256SOL    HW3 1023   4.410   2.391   0.796  0.9619 -0.2738  1.7204
  256SOL    MW4 1024   4.481   2.418   0.752  0.0121  0.2208  0.4445
  257SOL     OW 1025   3.089   2.421   0.745 -0.3369  0.1441  0.0198
  257SOL    HW2 1026   3.007   2.391   0.784 -0.3071 -0.2715 -0.2319
  257SOL    HW3 1027   3.155   2.359   0.777 -0.2294  0.1001 -0.2840
  257SOL    MW4 1028   3.087   2.409   0.754 -0.3188  0.0834 -0.0535
  258SOL     OW 1029   0.114   3.445   0.431 -0.0825 -0.1055  0.5725
  258SOL    HW2 1030   0.028   3.486   0.421  0.8882  1.8752  0.0232
  258SOL    HW3 1031   0.172   3.517   0.458  2.0046 -0.7371 -1.9667
  258SOL    MW4 1032   0.110   3.460   0.433  0.3209  0.0725  0.1650
  259SOL     OW 1033   1.585   1.741   0.449  0.2204  0.1471 -0.6467
  259SOL    HW2 1034   1.553   1.757   0.538 -0.3704 -0.4745 -0.7395
  259SOL    HW3 1035   1.659   1.800   0.439  0.0322  0.5218  0.1152
  259SOL    MW4 1036   1.590   1.751   0.459  0.1176  0.1145 -0.5585
  260SOL     OW 1037   2.427   4.204   0.476  0.1453  0.1669  0.0673
  260SOL    HW2 1038   2.379   4.121   0.471 -1.4760  0.9966  1.2488
  260SOL    HW3 1039   2.513   4.184   0.439 -1.0433 -1.4062 -1.9965
  260SOL    MW4 1040   2.432   4.190   0.470 -0.2254  0.0689 -0.0491
  261SOL     OW 1041   1.491   3.118   0.363  0.7341 -0.4637  0.1409
  261SOL    HW2 1042   1.465   3.026   0.357  0.7321 -0.5501  1.3493
  261SOL    HW3 1043   1.410   3.164   0.385  0.3189  0.1029 -2.3800
  261SOL    MW4 1044   1.477   3.112   0.365  0.6791 -0.4003 -0.0323
  262SOL     OW 1045   0.802   1.251   0.404 -0.4208  0.4750 -0.3174
  262SOL    HW2 1046   0.832   1.164   0.378  1.2529  1.0382 -0.3551
  262SOL    HW3 1047   0.716   1.237   0.443  0.2051 -1.2961  0.4432
  262SOL    MW4 1048   0.795   1.238   0.405 -0.1174  0.3157 -0.2221
  263SOL     OW 1049   0.050   0.075   0.844  0.0016  0.7886  0.3835
  263SOL    HW2 1050   0.133   0.033   0.863 -0.2421 -0.2085 -0.7083
  263SOL    HW3 1051   0.069   0.169   0.846  1.6258  0.5385 -1.9114
  263SOL    MW4 1052   0.063   0.082   0.846  0.1837  0.6240 -0.0633
  264SOL     OW 1053   4.488   4.311   0.842 -0.2674  0.3655 -0.3640
  264SOL    HW2 1054   4.401   4.316   0.801 -0.5548  1.6397  0.4044
  264SOL    HW3 1055   4.472   4.329   0.934  0.6544 -0.6468  0.0034
  264SOL    MW4 1056   4.474   4.314   0.849 -0.1837  0.4001 -0.2142
  265SOL     OW 1057   0.148   3.897   0.893  0.3977 -0.1331  0.1550
  265SOL    HW2 1058   0.144   3.803   0.875  0.1749  0.0266 -0.6736
  265SOL    HW3 1059   0.164   3.903   0.987 -1.7080 -0.9830  0.5951
  265SOL    MW4 1060   0.150   3.885   0.903  0.0905 -0.2241  0.1037
  266SOL     OW 1061   0.862   1.124   0.855  0.3441 -0.2033 -0.3199
  266SOL    HW2 1062   0.779   1.094   0.819 -0.9277  1.5625  1.0804
  266SOL    HW3 1063   0.900   1.178   0.786  1.0257 -2.1630 -1.5115
  266SOL    MW4 1064   0.856   1.127   0.841  0.2662 -0.2289 -0.2924
  267SOL     OW 1065   0.586   4.663   0.944  0.7177 -0.3487  0.3466
  267SOL    HW2 1066   0.611   4.647   1.035 -1.0360  1.7038  1.2182
  267SOL    HW3 1067   0.639   4.737   0.916 -0.0695  0.2086  0.3051
  267SOL    MW4 1068   0.596   4.670   0.952  0.3825 -0.0044  0.4561
  268SOL     OW 1069   0.229   0.832   0.786 -0.3473 -0.0352  0.0820
  268SOL    HW2 1070   0.226   0.795   0.874 -0.8137 -1.1272 -0.3887
  268SOL    HW3 1071   0.160   0.899   0.786  1.3190  1.7310  1.3114
  268SOL    MW4 1072   0.220   0.836   0.797 -0.1890  0.0538  0.1821
  269SOL     OW 1073   1.523   2.323   0.833 -0.2392 -0.3272 -0.4171
  269SOL    HW2 1074   1.496   2.252   0.776 -0.0903 -1.0085  0.3632
  269SOL    HW3 1075   1.562   2.387   0.774  0.1391 -1.1419 -1.0544
  269SOL    MW4 1076   1.525   2.322   0.818 -0.1696 -0.5246 -0.3982
  270SOL     OW 1077   0.502   3.267   0.756  0.3729 -0.0698  0.5988
  270SOL    HW2 1078   0.448   3.203   0.801  0.3655 -0.7538 -0.3623
  270SOL    HW3 1079   0.484   3.253   0.663  1.3948  0.4076  0.3157
  270SOL    MW4 1080   0.493   3.257   0.749  0.5067 -0.0970  0.4347
  271SOL     OW 1081   0.867   4.531   0.468 -0.2563 -0.1284  0.3824
  271SOL    HW2 1082   0.778   4.513   0.440  0.2443  0.5366 -1.6783
  271SOL    HW3 1083   0.862   4.615   0.514 -0.6263  0.0840 -0.0511
  271SOL    MW4 1084   0.855   4.540   0.470 -0.2391 -0.0126  0.0533
  272SOL     OW 1085   1.610   2.524   0.666 -0.2516 -0.0530 -0.1594
  272SOL    HW2 1086   1.647   2.517   0.578 -1.3847 -0.5445 -0.6196
  272SOL    HW3 1087   1.567   2.609   0.667 -1.1150 -0.4735 -0.4486
  272SOL    MW4 1088   1.609   2.534   0.655 -0.5150 -0.1734 -0.2583
  273SOL     OW 1089   0.625   1.872   0.360 -0.2444  0.2164 -0.3537
  273SOL    HW2 1090   0.567   1.856   0.285 -0.3849 -0.3074 -0.1342
  273SOL    HW3 1091   0.596   1.956   0.394 -0.8824 -0.0403 -0.2436
  273SOL    MW4 1092   0.613   1.881   0.354 -0.3471  0.1135 -0.3102
  274SOL     OW 1093   0.909   3.797   0.396  0.5631  0.1461 -0.3372
  274SOL    HW2 1094   0.878   3.871   0.449 -1.1360 -1.5721  1.1395
  274SOL    HW3 1095   0.880   3.817   0.307  0.1974  1.2973  0.0399
  274SOL    MW4 1096   0.901   3.809   0.391  0.2907  0.0713 -0.0926
  275SOL     OW 1097   3.951   1.238   0.534 -0.3082 -0.6538 -0.1145
  275SOL    HW2 1098   3.858   1.244   0.510 -0.1666 -2.0291 -1.0281
  275SOL    HW3 1099   3.980   1.154   0.499  1.0413 -0.6940  1.0427
  275SOL    MW4 1100   3.943   1.228   0.526 -0.1115 -0.8406 -0.0823
  276SOL     OW 1101   1.159   3.509   0.751 -0.0103  0.3003  0.1030
  276SOL    HW2 1102   1.132   3.595   0.781 -2.3580 -0.5686  0.6108
  276SOL    HW3 1103   1.199   3.524   0.665  0.9283  2.0360  0.8338
  276SOL    MW4 1104   1.161   3.522   0.744 -0.1962  0.4147  0.2665
  277SOL     OW 1105   3.327   2.296   0.874  0.1500  0.8017  0.0563
  277SOL    HW2 1106   3.327   2.283   0.969  0.4570  2.0133  0.2374
  277SOL    HW3 1107   3.339   2.209   0.837 -1.4898  0.1076  1.0993
  277SOL    MW4 1108   3.328   2.283   0.881 -0.0258  0.8700  0.2178
  278SOL     OW 1109   0.622   1.065   0.728 -0.1805 -0.1008  0.2300
  278SOL    HW2 1110   0.563   1.068   0.803  0.6294 -0.1448  0.8734
  278SOL    HW3 1111   0.608   1.148   0.683 -0.2582  0.1642  0.7465
  278SOL    MW4 1112   0.613   1.076   0.732 -0.0839 -0.0716  0.3831
  279SOL     OW 1113   3.519   0.817   0.430  0.5537  0.1859  0.7622
  279SOL    HW2 1114   3.557   0.811   0.517 -0.2387 -0.6829  1.0603
  279SOL    HW3 1115   3.425   0.832   0.445 -0.2077 -3.3431  0.1624
  279SOL    MW4 1116   3.511   0.818   0.443  0.3487 -0.3943  0.7224
  280SOL     OW 1117   1.193   3.808   0.411  0.1241 -0.1593  0.1422
  280SOL    HW2 1118   1.235   3.724   0.429  0.3695 -0.0039  0.2941
  280SOL    HW3 1119   1.103   3.796   0.442  0.2724 -0.2263  0.5488
  280SOL    MW4 1120   1.187   3.795   0.417  0.1760 -0.1476  0.2159
  281SOL     OW 1121   1.093   0.233   0.412  0.4137  0.1467  0.2585
  281SOL    HW2 1122   1.150   0.236   0.489  0.0337  0.0630  0.5430
  281SOL    HW3 1123   1.104   0.319   0.371  0.9523  0.0350  0.1606
  281SOL    MW4 1124   1.102   0.245   0.417  0.4346  0.1209  0.2831
  282SOL     OW 1125   2.210   2.398   0.778  0.0087 -0.1794  0.5114
  282SOL    HW2 1126   2.116   2.380   0.790  0.2730 -1.4562  0.6954
  282SOL    HW3 1127   2.222   2.397   0.683 -0.1009 -0.3793  0.4974
  282SOL    MW4 1128   2.199   2.395   0.767  0.0291 -0.3742  0.5338
  283SOL     OW 1129   0.847   4.051   0.527 -0.5347 -0.1516 -0.3454
  283SOL    HW2 1130   0.893   4.134   0.541 -1.0969 -0.0031  0.7515
  283SOL    HW3 1131   0.757   4.077   0.507 -0.6919 -0.4865 -0.0839
  283SOL    MW4 1132   0.841   4.065   0.526 -0.6296 -0.1762 -0.1662
  284SOL     OW 1133   1.119   0.805   0.281 -0.0381  0.0071  0.2789
  284SOL    HW2 1134   1.052   0.871   0.301  0.8529  1.1880 -0.5596
  284SOL    HW3 1135   1.199   0.840   0.319  0.7157  0.0547 -1.3084
  284SOL    MW4 1136   1.120   0.818   0.289  0.1789  0.1692 -0.0411
  285SOL     OW 1137   3.605   0.034   0.759 -0.3507 -0.4361  0.3261
  285SOL    HW2 1138   3.608   0.123   0.796 -0.2074 -0.0094 -0.7076
  285SOL    HW3 1139   3.516   0.005   0.776 -0.9254  0.5751 -0.8707
  285SOL    MW4 1140   3.594   0.042   0.766 -0.4076 -0.2464  0.0318
  286SOL     OW 1141   4.274   3.822   0.908  0.3720  0.2617  0.1142
  286SOL    HW2 1142   4.328   3.892   0.873  0.1031  0.0532 -0.7493
  286SOL    HW3 1143   4.271   3.837   1.002  2.5319 -0.1640  0.2646
  286SOL    MW4 1144   4.280   3.833   0.916  0.6215  0.1781  0.0201
  287SOL     OW 1145   0.198   3.910   0.389  0.2052  0.1565 -0.0707
  287SOL    HW2 1146   0.203   3.878   0.299 -1.5764  1.5335 -0.6878
  287SOL    HW3 1147   0.201   3.831   0.443 -0.8353 -0.8285 -1.4253
  287SOL    MW4 1148   0.199   3.895   0.384 -0.1671  0.2082 -0.3308
  288SOL     OW 1149   0.696   3.622   0.782  0.0351 -0.3980 -0.3761
  288SOL    HW2 1150   0.768   3.584   0.832 -0.4546 -0.7718  0.0433
  288SOL    HW3 1151   0.623   3.562   0.795  0.6092 -1.9882 -3.7138
  288SOL    MW4 1152   0.696   3.609   0.790  0.0462 -0.6571 -0.7611
  289SOL     OW 1153   1.121   3.803   0.847  0.0525  0.0828 -0.0974
  289SOL    HW2 1154   1.124   3.823   0.941  0.2184  2.2812 -0.5402
  289SOL    HW3 1155   1.048   3.855   0.814 -0.9277 -1.8134 -0.9420
  289SOL    MW4 1156   1.112   3.813   0.855 -0.0549  0.1227 -0.2673
  290SOL     OW 1157   3.346   4.228   0.344  0.4564 -0.0046 -0.1096
  290SOL    HW2 1158   3.337   4.204   0.252 -0.0698  0.2364 -0.1267
  290SOL    HW3 1159   3.331   4.147   0.392 -0.2129  0.0620 -0.2044
  290SOL    MW4 1160   3.343   4.214   0.338  0.2987  0.0360 -0.1244
  291SOL     OW 1161   1.647   4.400   0.732 -0.0131 -0.2406  0.1201
  291SOL    HW2 1162   1.705   4.353   0.792  1.7573 -0.2614 -1.5551
  291SOL    HW3 1163   1.603   4.465   0.786  0.9563 -0.7788  1.5716
  291SOL    MW4 1164   1.649   4.402   0.747  0.3484 -0.3144  0.0906
  292SOL     OW 1165   0.492   2.647   0.385 -0.2259 -0.4749  0.1955
  292SOL    HW2 1166   0.453   2.686   0.463 -0.6610 -0.2131 -0.1450
  292SOL    HW3 1167   0.575   2.611   0.415 -0.1385  0.0987  0.6677
  292SOL    MW4 1168   0.498   2.647   0.399 -0.2718 -0.3647  0.2129
  293SOL     OW 1169   0.377   1.080   0.857  0.1368 -0.3288 -0.2063
  293SOL    HW2 1170   0.326   1.005   0.827 -1.3132 -0.0076  1.3605
  293SOL    HW3 1171   0.324   1.156   0.833  0.2334  0.0438  0.7298
  293SOL    MW4 1172   0.363   1.080   0.850 -0.0418 -0.2373  0.1239
  294SOL     OW 1173   0.284   1.729   0.497 -0.1690  0.0493  0.0051
  294SOL    HW2 1174   0.208   1.673   0.484  0.2723 -0.8919  1.3415
  294SOL    HW3 1175   0.254   1.817   0.476 -1.3842 -0.4350 -0.2872
  294SOL    MW4 1176   0.270   1.733   0.492 -0.2711 -0.1388  0.1428
  295SOL     OW 1177   0.549   0.674   0.845 -0.0316  0.0290 -0.6981
  295SOL    HW2 1178   0.472   0.617   0.840 -0.2855  0.3409 -0.4202
  295SOL    HW3 1179   0.549   0.720   0.761 -0.4255  0.3753 -0.5127
  295SOL    MW4 1180   0.539   0.673   0.834 -0.1171  0.1158 -0.6370
  296SOL     OW 1181   2.217   1.901   0.814  0.0816 -0.2882  0.4296
  296SOL    HW2 1182   2.231   1.812   0.780  0.3759 -0.5775  1.3002
  296SOL    HW3 1183   2.175   1.948   0.742 -0.1189 -1.1490 -0.0167
  296SOL    MW4 1184   2.213   1.895   0.800  0.0940 -0.4399  0.4855
  297SOL     OW 1185   1.884   0.949   0.528 -0.0218  0.3241 -0.3852
  297SOL    HW2 1186   1.908   0.886   0.461 -0.6005 -0.0523 -0.2389
  297SOL    HW3 1187   1.939   1.025   0.510 -0.2890  0.2851 -1.3842
  297SOL    MW4 1188   1.894   0.951   0.517 -0.1334  0.2693 -0.4977
  298SOL     OW 1189   1.115   3.077   0.875 -0.4007 -0.4865 -0.0138
  298SOL    HW2 1190   1.181   3.132   0.833 -2.2965  0.7104 -1.4758
  298SOL    HW3 1191   1.132   2.989   0.840  2.5989 -0.9525  2.2914
  298SOL    MW4 1192   1.126   3.073   0.865 -0.2551 -0.3900  0.0974
  299SOL     OW 1193   2.235   0.113   0.752 -0.2647  0.1177 -0.0955
  299SOL    HW2 1194   2.303   0.048   0.768 -1.8362 -1.7934 -0.9175
  299SOL    HW3 1195   2.219   0.109   0.658 -1.2029  0.8478  0.0203
  299SOL    MW4 1196   2.242   0.104   0.742 -0.5958 -0.0381 -0.1887
  300SOL     OW 1197   1.778   4.524   0.506 -0.0388  0.1777 -0.1098
  300SOL    HW2 1198   1.741   4.485   0.585 -0.3231 -0.9625 -0.7911
  300SOL    HW3 1199   1.716   4.500   0.437  0.9300 -0.0329 -0.9182
  300SOL    MW4 1200   1.765   4.516   0.507  0.0515 -0.0005 -0.3063
  301SOL     OW 1201   3.539   3.387   0.876 -0.3681 -0.1148 -0.1541
  301SOL    HW2 1202   3.464   3.439   0.847 -0.6177 -0.2030  0.3294
  301SOL    HW3 1203   3.613   3.447   0.871 -0.4066 -0.1430 -1.0095
  301SOL    MW4 1204   3.539   3.402   0.872 -0.4061 -0.1302 -0.2031
  302SOL     OW 1205   3.011   2.253   0.266  0.0571 -0.2998 -0.1963
  302SOL    HW2 1206   3.068   2.200   0.321 -0.4671  1.0976  1.7194
  302SOL    HW3 1207   3.033   2.343   0.287 -0.8400  0.2625 -1.5607
  302SOL    MW4 1208   3.021   2.258   0.276 -0.1304 -0.0412 -0.1236
  303SOL     OW 1209   0.402   3.990   0.809 -0.3328  0.1696  0.3705
  303SOL    HW2 1210   0.376   4.046   0.736 -1.3249 -0.8894 -0.1022
  303SOL    HW3 1211   0.323   3.940   0.831  0.7051 -1.5063  0.3618
  303SOL    MW4 1212   0.388   3.991   0.803 -0.3267 -0.1912  0.3070
  304SOL     OW 1213   0.271   1.981   0.763 -0.0909  0.1796  0.0595
  304SOL    HW2 1214   0.361   1.965   0.790  0.0752 -0.5649 -0.9156
  304SOL    HW3 1215   0.255   2.073   0.786  0.6949  0.1375  0.8142
  304SOL    MW4 1216   0.281   1.991   0.770  0.0347  0.0758  0.0304
  305SOL     OW 1217   4.180   2.768   0.502  0.2824  0.0488  0.5337
  305SOL    HW2 1218   4.259   2.791   0.454  0.0464  0.9189  0.5636
  305SOL    HW3 1219   4.183   2.672   0.508  0.9088  0.0204 -0.1839
  305SOL    MW4 1220   4.191   2.758   0.497  0.3339  0.1599  0.4430
  306SOL     OW 1221   1.126   2.839   0.726  0.3852 -0.0653  0.2003
  306SOL    HW2 1222   1.173   2.763   0.759  0.3724  0.5458  1.6737
  306SOL    HW3 1223   1.033   2.818   0.739  0.3652 -0.0253  0.1230
  306SOL    MW4 1224   1.120   2.827   0.732  0.3809  0.0206  0.3845
  307SOL     OW 1225   3.999   3.217   0.785 -0.2516 -0.4110 -0.2407
  307SOL    HW2 1226   3.913   3.187   0.812  0.3113 -0.5022  1.5288
  307SOL    HW3 1227   3.996   3.218   0.690 -2.5418  0.5530 -0.1938
  307SOL    MW4 1228   3.987   3.213   0.776 -0.4795 -0.2958 -0.0010
  308SOL     OW 1229   2.049   0.727   0.885 -0.0793  0.2174  0.0630
  308SOL    HW2 1230   1.975   0.779   0.855 -0.8200  0.5631  2.3753
  308SOL    HW3 1231   2.126   0.774   0.852 -0.8516  0.5395 -1.2977
  308SOL    MW4 1232   2.049   0.740   0.877 -0.2789  0.3055  0.1885
  309SOL     OW 1233   0.870   1.918   0.679 -0.0132  0.3822 -0.0708
  309SOL    HW2 1234   0.802   1.982   0.657 -1.6520 -1.1227  0.5046
  309SOL    HW3 1235   0.858   1.901   0.772  0.9040 -0.1790 -0.0519
  309SOL    MW4 1236   0.859   1.924   0.688 -0.1084  0.1096  0.0076
  310SOL     OW 1237   0.678   3.883   0.886 -0.1989 -0.2689  0.3523
  310SOL    HW2 1238   0.591   3.917   0.864 -0.4725  0.2178  2.1071
  310SOL    HW3 1239   0.672   3.789   0.869 -0.1359  0.1623 -2.3571
  310SOL    MW4 1240   0.666   3.875   0.880 -0.2267 -0.1478  0.2263
  311SOL     OW 1241   4.157   3.446   0.104  0.5323  0.1021  0.1839
  311SOL    HW2 1242   4.117   3.508   0.041  1.7370  0.0212 -0.6742
  311SOL    HW3 1243   4.082   3.409   0.150 -0.3190  0.9832 -0.4423
  311SOL    MW4 1244   4.142   3.450   0.102  0.5789  0.2077 -0.0119
  312SOL     OW 1245   2.500   0.184   0.236 -0.3081 -0.4926 -0.2595
  312SOL    HW2 1246   2.467   0.095   0.250  0.1179 -0.5834  0.1520
  312SOL    HW3 1247   2.458   0.212   0.154  0.0692 -1.3064 -0.7295
  312SOL    MW4 1248   2.490   0.176   0.227 -0.2021 -0.6119 -0.2672
  313SOL     OW 1249   4.448   2.698   0.815 -0.0256 -0.2401 -0.2951
  313SOL    HW2 1250   4.471   2.703   0.908 -0.3786  0.5497 -0.2410
  313SOL    HW3 1251   4.430   2.606   0.799 -1.3886 -0.1721  0.7780
  313SOL    MW4 1252   4.448   2.687   0.825 -0.2520 -0.1269 -0.1464
  314SOL     OW 1253   1.793   3.979   0.795 -0.1394 -0.3540 -0.0521
  314SOL    HW2 1254   1.880   3.944   0.815 -0.2685 -1.2958 -1.0237
  314SOL    HW3 1255   1.788   3.974   0.699 -1.5791 -1.1120  0.0572
  314SOL    MW4 1256   1.804   3.973   0.785 -0.3464 -0.5783 -0.1659
  315SOL     OW 1257   3.617   0.544   0.386  0.2085  0.6089  0.2113
  315SOL    HW2 1258   3.586   0.632   0.364  0.3853  0.6241  0.0256
  315SOL    HW3 1259   3.541   0.502   0.427 -0.1460  0.5593 -0.4837
  315SOL    MW4 1260   3.603   0.550   0.388  0.1851  0.6044  0.0951
  316SOL     OW 1261   2.492   3.845   0.834 -0.9231 -0.1540 -0.4252
  316SOL    HW2 1262   2.564   3.890   0.789 -1.2733  0.0949 -0.7308
  316SOL    HW3 1263   2.492   3.757   0.797  0.4222 -0.7332  0.9002
  316SOL    MW4 1264   2.502   3.840   0.823 -0.7918 -0.1976 -0.2907
  317SOL     OW 1265   0.077   2.393   0.464 -0.4861  0.1813 -0.3880
  317SOL    HW2 1266   0.012   2.430   0.405 -0.5156 -0.8553 -1.0192
  317SOL    HW3 1267   0.040   2.406   0.551 -0.9320  0.7699 -0.6628
  317SOL    MW4 1268   0.064   2.399   0.468 -0.5488  0.1222 -0.5075
  318SOL     OW 1269   2.780   1.880   0.335 -0.1712 -0.4557 -0.3926
  318SOL    HW2 1270   2.866   1.846   0.310 -0.6014  0.1794 -2.8739
  318SOL    HW3 1271   2.796   1.970   0.361 -0.0402 -0.4099 -0.6303
  318SOL    MW4 1272   2.793   1.887   0.335 -0.2107 -0.3658 -0.7513
  319SOL     OW 1273   1.341   4.493   0.500  0.1851  0.0201 -0.0783
  319SOL    HW2 1274   1.347   4.536   0.585  0.0501  1.4859 -0.7854
  319SOL    HW3 1275   1.268   4.537   0.456 -0.5211 -1.5496 -0.4923
  319SOL    MW4 1276   1.332   4.505   0.505  0.0741  0.0064 -0.2262
  320SOL     OW 1277   4.260   1.492   0.865 -0.4613 -0.3085  0.0643
  320SOL    HW2 1278   4.276   1.402   0.837 -1.6751 -0.7031  0.6136
  320SOL    HW3 1279   4.271   1.490   0.960 -0.5952  0.0966  0.0898
  320SOL    MW4 1280   4.264   1.480   0.874 -0.6391 -0.3071  0.1401
  321SOL     OW 1281   1.934   2.137   0.661  0.3190  0.5795 -0.0286
  321SOL    HW2 1282   1.884   2.171   0.587  0.3063  0.9340  0.1443
  321SOL    HW3 1283   1.951   2.213   0.716 -0.0728  0.2423  0.5703
  321SOL    MW4 1284   1.930   2.151   0.659  0.2656  0.5818  0.0732
  322SOL     OW 1285   1.106   0.538   0.358 -0.0176 -0.4540 -0.3127
  322SOL    HW2 1286   1.199   0.544   0.378 -0.1501 -1.5487  0.6185
  322SOL    HW3 1287   1.082   0.627   0.330  1.3517 -0.2367 -0.8249
  322SOL    MW4 1288   1.115   0.551   0.357  0.1456 -0.5698 -0.2574
  323SOL     OW 1289   0.578   1.300   0.597 -0.0205  0.0159 -0.0981
  323SOL    HW2 1290   0.612   1.389   0.611 -0.2329 -0.2527  2.2657
  323SOL    HW3 1291   0.487   1.314   0.571  0.8826  0.5940 -3.2242
  323SOL    MW4 1292   0.571   1.314   0.595  0.0706  0.0567 -0.1987
  324SOL     OW 1293   3.153   1.626   0.716 -0.3565  0.4859  0.2538
  324SOL    HW2 1294   3.148   1.715   0.752  1.1464  0.5777  0.2510
  324SOL    HW3 1295   3.231   1.588   0.755 -0.0161 -0.2295 -1.0968
  324SOL    MW4 1296   3.162   1.633   0.726 -0.1133  0.4036  0.0752
  325SOL     OW 1297   0.235   1.551   0.861 -0.2573  0.0638  0.0195
  325SOL    HW2 1298   0.152   1.588   0.834  0.2187  1.1109 -0.0211
  325SOL    HW3 1299   0.301   1.596   0.807  0.2597 -1.4390 -0.6493
  325SOL    MW4 1300   0.233   1.561   0.850 -0.1263  0.0037 -0.0741
  326SOL     OW 1301   0.848   2.485   0.676  0.0927  0.0361 -0.6891
  326SOL    HW2 1302   0.936   2.453   0.657  0.7689  1.0300  0.6473
  326SOL    HW3 1303   0.862   2.559   0.735 -1.5924  0.7978 -1.2122
  326SOL    MW4 1304   0.861   2.491   0.682 -0.0404  0.2678 -0.5818
  327SOL     OW 1305   0.899   3.110   0.704 -0.5689 -0.6362  0.1786
  327SOL    HW2 1306   0.971   3.094   0.765 -1.1316  1.6800  1.5520
  327SOL    HW3 1307   0.940   3.113   0.618  0.5670 -1.9523  0.6658
  327SOL    MW4 1308   0.914   3.109   0.701 -0.4933 -0.5043  0.4241
  328SOL     OW 1309   4.464   3.187   0.706  0.5087 -0.1693 -0.4096
  328SOL    HW2 1310   4.406   3.163   0.779  1.1914 -3.4086 -0.8294
  328SOL    HW3 1311   4.405   3.206   0.633 -0.1407  1.9294  0.6129
  328SOL    MW4 1312   4.448   3.186   0.706  0.5131 -0.3198 -0.3301
  329SOL     OW 1313   1.588   4.637   0.872 -0.3898  0.3868 -0.5011
  329SOL    HW2 1314   1.656   4.698   0.844 -0.3974  0.2866 -0.7405
  329SOL    HW3 1315   1.590   4.641   0.967  0.5313 -0.2474 -0.4885
  329SOL    MW4 1316   1.597   4.645   0.881 -0.2693  0.2899 -0.5310
  330SOL     OW 1317   0.937   0.990   0.369  0.4881  0.2411  0.0297
  330SOL    HW2 1318   0.902   0.938   0.442  2.8757 -0.0616  0.9820
  330SOL    HW3 1319   1.008   1.040   0.407  0.0671  2.0783 -1.5444
  330SOL    MW4 1320   0.941   0.989   0.383  0.7476  0.4435 -0.0523
  331SOL     OW 1321   0.448   3.513   0.869 -0.4163  0.3102 -0.1928
  331SOL    HW2 1322   0.438   3.498   0.963 -1.1144  0.8348 -0.1846
  331SOL    HW3 1323   0.467   3.426   0.833 -0.5649  0.0392  0.3790
  331SOL    MW4 1324   0.449   3.500   0.877 -0.5280  0.3436 -0.1163
  332SOL     OW 1325   2.025   4.385   0.506 -0.2163 -0.2887  0.1970
  332SOL    HW2 1326   2.058   4.387   0.596  0.4163 -1.0238 -0.0097
  332SOL    HW3 1327   1.949   4.444   0.507 -1.8566 -2.3157  1.8779
  332SOL    MW4 1328   2.019   4.393   0.518 -0.3493 -0.6531  0.3915
  333SOL     OW 1329   0.624   0.289   0.592 -0.1814  0.0704 -0.2169
  333SOL    HW2 1330   0.548   0.339   0.565  0.2747  1.0410  0.2746
  333SOL    HW3 1331   0.668   0.344   0.657  1.3994 -0.1137 -1.1008
  333SOL    MW4 1332   0.620   0.303   0.597  0.0874  0.1741 -0.2687
  334SOL     OW 1333   2.267   4.006   0.757 -0.1572 -0.0821  0.1166
  334SOL    HW2 1334   2.335   3.947   0.789  0.6489 -0.9697 -3.0345
  334SOL    HW3 1335   2.289   4.091   0.795  2.0848 -0.5937  0.0503
  334SOL    MW4 1336   2.279   4.009   0.766  0.2450 -0.2667 -0.3079
  335SOL     OW 1337   3.720   1.702   0.475  0.0885 -0.0473 -0.2522
  335SOL    HW2 1338   3.724   1.629   0.414  0.2724  0.0439 -0.3476
  335SOL    HW3 1339   3.638   1.747   0.453 -1.1186 -1.4615  1.2156
  335SOL    MW4 1340   3.709   1.698   0.464 -0.0465 -0.2218 -0.0711
  336SOL     OW 1341   1.827   4.252   0.866  0.2064  0.0848  0.2330
  336SOL    HW2 1342   1.816   4.275   0.958  2.1635 -0.9126  0.7267
  336SOL    HW3 1343   1.809   4.158   0.862  0.3596  0.0781 -0.3602
  336SOL    MW4 1344   1.823   4.243   0.877  0.4849 -0.0477  0.2199
  337SOL     OW 1345   2.482   4.359   0.691  0.0996  0.2201  0.3512
  337SOL    HW2 1346   2.466   4.304   0.614 -2.0512  1.4348 -0.0971
  337SOL    HW3 1347   2.536   4.304   0.748  0.1352 -1.3995 -1.1873
  337SOL    MW4 1348   2.487   4.344   0.688 -0.1795  0.1667  0.0891
  338SOL     OW 1349   2.550   2.085   0.471  0.1797 -0.0748  0.1717
  338SOL    HW2 1350   2.620   2.149   0.452 -0.3326  0.2135 -0.7673
  338SOL    HW3 1351   2.575   2.008   0.421 -0.1641  0.0213 -0.1467
  338SOL    MW4 1352   2.563   2.084   0.462  0.0667 -0.0240  0.0058
  339SOL     OW 1353   1.754   0.387   0.887  0.1976 -0.1555 -0.4113
  339SOL    HW2 1354   1.829   0.438   0.854  1.0902 -0.2912  1.3654
  339SOL    HW3 1355   1.678   0.431   0.849  1.0626  1.2469 -0.5820
  339SOL    MW4 1356   1.754   0.400   0.877  0.4295  0.0116 -0.1994
  340SOL     OW 1357   0.883   2.862   0.364  0.2295 -0.7155  0.4808
  340SOL    HW2 1358   0.974   2.841   0.385  0.5706 -0.6018 -0.7812
  340SOL    HW3 1359   0.833   2.785   0.390  1.0454 -1.8430 -1.1734
  340SOL    MW4 1360   0.889   2.849   0.370  0.3821 -0.8492  0.0960
  341SOL     OW 1361   2.042   4.398   0.779  0.1053  0.7079  0.1430
  341SOL    HW2 1362   2.010   4.484   0.803  1.6387  1.1542  0.6475
  341SOL    HW3 1363   1.969   4.339   0.797 -0.9907  1.9035 -0.3112
  341SOL    MW4 1364   2.028   4.401   0.784  0.1630  0.9246  0.1497
  342SOL     OW 1365   4.330   1.218   0.843 -0.1151 -0.1667 -0.8165
  342SOL    HW2 1366   4.373   1.207   0.928  0.1978 -0.2996 -0.9948
  342SOL    HW3 1367   4.255   1.159   0.847 -0.4064  0.2175 -0.4273
  342SOL    MW4 1368   4.326   1.209   0.855 -0.1123 -0.1335 -0.7887
  343SOL     OW 1369   1.860   1.107   0.914  0.2604  0.1179 -0.7834
  343SOL    HW2 1370   1.780   1.155   0.894  0.0885  0.3168  0.3222
  343SOL    HW3 1371   1.851   1.024   0.867 -0.7128  0.0417 -0.4708
  343SOL    MW4 1372   1.849   1.102   0.906  0.1093  0.1341 -0.5962
  344SOL     OW 1373   0.004   1.909   0.893  0.1506  0.2582 -0.1264
  344SOL    HW2 1374   0.088   1.932   0.852  0.3406  0.2452  0.2514
  344SOL    HW3 1375  -0.016   1.822   0.859 -0.7780  1.1181 -1.8886
  344SOL    MW4 1376   0.013   1.901   0.883  0.0532  0.3699 -0.3090
  345SOL     OW 1377   2.971   1.005   0.428  0.2685  0.1961  0.4681
  345SOL    HW2 1378   3.052   0.955   0.418 -0.2668 -0.4703 -0.6881
  345SOL    HW3 1379   2.904   0.938   0.439 -0.4566  0.6585 -1.0485
  345SOL    MW4 1380   2.973   0.989   0.428  0.1022  0.1692  0.1154
  346SOL     OW 1381   2.408   1.344   0.554  0.0137 -0.3911 -0.1631
  346SOL    HW2 1382   2.313   1.346   0.567 -0.0532 -0.4820 -0.6548
  346SOL    HW3 1383   2.443   1.376   0.637 -0.4535 -0.1396 -0.0573
  346SOL    MW4 1384   2.400   1.348   0.567 -0.0567 -0.3699 -0.2140
  347SOL     OW 1385   1.100   1.597   0.903  0.1060  0.1222  0.2289
  347SOL    HW2 1386   1.130   1.650   0.829 -0.4699  0.1210 -0.0055
  347SOL    HW3 1387   1.005   1.596   0.895 -0.0253  0.9563  1.5402
  347SOL    MW4 1388   1.091   1.604   0.892  0.0127  0.2321  0.3710
  348SOL     OW 1389   1.936   0.757   0.308  0.0222  0.6899 -0.1211
  348SOL    HW2 1390   2.007   0.819   0.294  0.8183 -0.1043  0.3619
  348SOL    HW3 1391   1.980   0.675   0.333 -0.9838 -0.2204 -1.2738
  348SOL    MW4 1392   1.951   0.754   0.309 -0.0055  0.4650 -0.2095
  349SOL     OW 1393   0.404   0.434   0.554 -0.1779 -0.4235  0.0555
  349SOL    HW2 1394   0.396   0.529   0.545  1.0712 -0.2659  0.4688
  349SOL    HW3 1395   0.335   0.398   0.498 -1.2146  0.7377  0.5890
  349SOL    MW4 1396   0.394   0.442   0.546 -0.1499 -0.2495  0.1804
  350SOL     OW 1397   2.445   2.293   0.856  0.3628 -0.3495  0.4069
  350SOL    HW2 1398   2.448   2.204   0.821 -0.3274 -0.0447 -0.4370
  350SOL    HW3 1399   2.362   2.329   0.824  0.1669  0.2655  1.5630
  350SOL    MW4 1400   2.434   2.286   0.848  0.2459 -0.2282  0.4481
  351SOL     OW 1401   2.286   0.777   0.560 -0.1707  0.2194  0.5809
  351SOL    HW2 1402   2.376   0.757   0.536 -0.3723 -0.7427  0.6162
  351SOL    HW3 1403   2.292   0.825   0.642  0.3203  0.3238  0.4813
  351SOL    MW4 1404   2.298   0.781   0.567 -0.1325  0.1062  0.5724
  352SOL     OW 1405   1.817   2.608   0.828 -0.2058  0.3309 -0.1108
  352SOL    HW2 1406   1.747   2.578   0.771 -0.1679  1.5647 -0.8327
  352SOL    HW3 1407   1.859   2.679   0.778  0.5091  0.6927  0.9966
  352SOL    MW4 1408   1.814   2.613   0.814 -0.1065  0.5414 -0.0600
  353SOL     OW 1409   1.999   2.744   0.642  0.0532 -0.2782 -0.3435
  353SOL    HW2 1410   2.057   2.723   0.716 -1.4259 -0.5943  0.7496
  353SOL    HW3 1411   1.983   2.838   0.650  0.7348 -0.1081 -0.8966
  353SOL    MW4 1412   2.005   2.754   0.653 -0.0520 -0.2974 -0.2723
  354SOL     OW 1413   3.806   1.509   0.899  0.2226  0.1614 -0.5425
  354SOL    HW2 1414   3.755   1.550   0.829 -2.0998 -0.2854  0.8345
  354SOL    HW3 1415   3.812   1.417   0.874 -2.2662 -0.3820  0.7587
  354SOL    MW4 1416   3.800   1.502   0.887 -0.4122  0.0307 -0.1891
  355SOL     OW 1417   2.047   1.300   0.875  0.0128 -0.0496  0.7114
  355SOL    HW2 1418   2.131   1.253   0.874 -0.2148 -0.4666  1.3360
  355SOL    HW3 1419   1.982   1.232   0.893 -0.4455  0.3002  0.3775
  355SOL    MW4 1420   2.050   1.284   0.877 -0.0777 -0.0585  0.7497
  356SOL     OW 1421   2.250   3.263   0.188 -0.1385  0.1377  0.3398
  356SOL    HW2 1422   2.156   3.282   0.193 -0.2091 -0.1258  0.0509
  356SOL    HW3 1423   2.291   3.331   0.241 -0.6718 -1.1867  2.4978
  356SOL    MW4 1424   2.243   3.275   0.196 -0.2182 -0.0718  0.5864
  357SOL     OW 1425   1.142   2.800   0.440  0.0987  0.2177 -0.0427
  357SOL    HW2 1426   1.148   2.707   0.416 -0.9062 -0.3335  1.7606
  357SOL    HW3 1427   1.142   2.800   0.536  0.2625  2.1070 -0.0261
  357SOL    MW4 1428   1.143   2.788   0.450 -0.0123  0.3943  0.1974
  358SOL     OW 1429   1.399   3.426   0.852  0.0062 -0.1587 -0.3187
  358SOL    HW2 1430   1.467   3.490   0.831  0.8484 -1.4425 -1.5166
  358SOL    HW3 1431   1.317   3.471   0.833  0.5569  0.8530 -0.3376
  358SOL    MW4 1432   1.397   3.441   0.847  0.1899 -0.1946 -0.4792
  359SOL     OW 1433   1.552   0.527   0.778  0.0433  0.1899 -0.2421
  359SOL    HW2 1434   1.458   0.512   0.793 -0.0695  0.9270 -0.1814
  359SOL    HW3 1435   1.565   0.509   0.685  0.2170 -1.7759  0.1379
  359SOL    MW4 1436   1.541   0.523   0.768  0.0513  0.0278 -0.1840
  360SOL     OW 1437   2.249   4.001   0.479 -0.5083  0.2152 -0.1335
  360SOL    HW2 1438   2.246   4.014   0.573 -0.2400  0.9709 -0.2225
  360SOL    HW3 1439   2.171   4.047   0.446 -0.0234  0.8858 -0.3726
  360SOL    MW4 1440   2.238   4.009   0.487 -0.4089  0.4034 -0.1768
  361SOL     OW 1441   0.585   2.939   0.420 -0.8578 -0.7119  0.3266
  361SOL    HW2 1442   0.675   2.946   0.390 -0.5976 -0.9318  1.0459
  361SOL    HW3 1443   0.558   2.851   0.395 -0.9637 -0.5477 -0.1357
  361SOL    MW4 1444   0.593   2.928   0.413 -0.8374 -0.7193  0.3605
  362SOL     OW 1445   2.893   3.420   0.309 -0.0774  0.3280  0.1557
  362SOL    HW2 1446   2.809   3.375   0.313 -0.0087  0.3123  2.2212
  362SOL    HW3 1447   2.949   3.372   0.370  0.8293  1.5079  0.2763
  362SOL    MW4 1448   2.890   3.408   0.318  0.0513  0.4816  0.4441
  363SOL     OW 1449   3.804   2.293   0.838  0.2329  0.0557  0.5217
  363SOL    HW2 1450   3.796   2.306   0.932  1.0435 -0.3588  0.6513
  363SOL    HW3 1451   3.730   2.341   0.801  0.4978  1.0773  1.2976
  363SOL    MW4 1452   3.793   2.301   0.845  0.3748  0.1358  0.6412
  364SOL     OW 1453   1.639   1.057   0.422 -0.0157  0.2906  0.0959
  364SOL    HW2 1454   1.717   1.021   0.464 -0.0765 -1.5593 -1.3360
  364SOL    HW3 1455   1.669   1.088   0.337 -0.7347  0.0264 -0.2585
  364SOL    MW4 1456   1.653   1.056   0.416 -0.1186  0.0117 -0.1398
  365SOL     OW 1457   4.263   0.154   0.528  0.1338  0.3258  0.0472
  365SOL    HW2 1458   4.249   0.235   0.576  1.0889  0.1252  0.6588
  365SOL    HW3 1459   4.357   0.139   0.532 -0.1242 -1.2329  0.6125
  365SOL    MW4 1460   4.274   0.163   0.535  0.2257  0.0937  0.2025
  366SOL     OW 1461   2.955   0.762   0.857 -0.2045 -0.1058  0.0840
  366SOL    HW2 1462   2.964   0.761   0.953 -0.2748 -0.2312  0.0882
  366SOL    HW3 1463   2.932   0.673   0.834  0.1881 -0.1630 -0.0878
  366SOL    MW4 1464   2.953   0.750   0.867 -0.1619 -0.1299  0.0619
  367SOL     OW 1465   2.156   0.095   0.475  0.1815  0.4879  0.2896
  367SOL    HW2 1466   2.197   0.177   0.448 -0.1546  1.1637  1.7525
  367SOL    HW3 1467   2.218   0.027   0.449  0.0478  1.1318 -1.7450
  367SOL    MW4 1468   2.170   0.097   0.468  0.1195  0.6621  0.2142
  368SOL     OW 1469   2.276   1.143   0.931 -0.4831 -0.0892 -0.0227
  368SOL    HW2 1470   2.255   1.147   1.025 -0.0858 -0.1177  0.0679
  368SOL    HW3 1471   2.367   1.172   0.926  0.3800 -2.6639 -0.0840
  368SOL    MW4 1472   2.285   1.147   0.943 -0.3168 -0.4327 -0.0188
  369SOL     OW 1473   1.768   0.146   0.794 -0.4287  0.0937  0.0180
  369SOL    HW2 1474   1.790   0.159   0.702 -1.0344  1.4235  0.0575
  369SOL    HW3 1475   1.756   0.234   0.829 -0.0544 -0.3893  1.4138
  369SOL    MW4 1476   1.769   0.159   0.787 -0.4592  0.2054  0.2073
  370SOL     OW 1477   3.622   0.823   0.710 -0.1215 -0.1747 -0.2339
  370SOL    HW2 1478   3.553   0.797   0.771  2.0921 -1.9195  1.6193
  370SOL    HW3 1479   3.702   0.785   0.746  1.7018  1.0496 -2.7920
  370SOL    MW4 1480   3.623   0.814   0.723  0.4111 -0.2434 -0.3269
  371SOL     OW 1481   4.194   2.191   0.514 -0.5466 -0.1003  0.0096
  371SOL    HW2 1482   4.212   2.154   0.600  0.7339 -0.1163 -0.2539
  371SOL    HW3 1483   4.133   2.130   0.473 -1.7283  0.2944  1.1804
  371SOL    MW4 1484   4.189   2.178   0.520 -0.5336 -0.0504  0.1293
  372SOL     OW 1485   0.987   0.152   0.808 -0.0435  0.1083  0.2089
  372SOL    HW2 1486   0.922   0.195   0.863  0.6375 -0.5547  1.5583
  372SOL    HW3 1487   0.942   0.134   0.726 -1.6612 -0.7079  1.2688
  372SOL    MW4 1488   0.973   0.156   0.805 -0.1671 -0.0868  0.5268
  373SOL     OW 1489   3.387   0.727   0.892  0.1238  0.3699 -0.6695
  373SOL    HW2 1490   3.322   0.772   0.839 -0.6083 -0.4528 -0.4766
  373SOL    HW3 1491   3.375   0.635   0.872  0.5332  0.1325  0.1561
  373SOL    MW4 1492   3.377   0.721   0.883  0.0812  0.2300 -0.5351
  374SOL     OW 1493   1.839   3.442   0.864  0.1672 -0.0656  0.1507
  374SOL    HW2 1494   1.925   3.476   0.842  0.9502 -1.4239  1.0477
  374SOL    HW3 1495   1.833   3.451   0.959 -0.5789 -0.1857  0.1177
  374SOL    MW4 1496   1.849   3.448   0.874  0.1721 -0.2607  0.2647
  375SOL     OW 1497   4.068   0.832   0.742 -0.5591 -0.3481 -0.1152
  375SOL    HW2 1498   4.092   0.847   0.651  1.7136  0.0146  0.5146
  375SOL    HW3 1499   4.061   0.919   0.780  1.2526 -0.5389  0.7177
  375SOL    MW4 1500   4.070   0.845   0.735 -0.0202 -0.3254  0.0778
  376SOL     OW 1501   2.398   2.808   0.748  0.1020  0.0292 -0.2413
  376SOL    HW2 1502   2.385   2.894   0.786  0.3605  1.1895 -2.6887
  376SOL    HW3 1503   2.320   2.758   0.773 -1.0326  1.6320 -0.5359
  376SOL    MW4 1504   2.386   2.813   0.756 -0.0136  0.3938 -0.6031
  377SOL     OW 1505   2.426   2.641   0.507 -0.3342 -0.2979  0.3462
  377SOL    HW2 1506   2.367   2.680   0.443 -1.5706 -1.1059  0.9532
  377SOL    HW3 1507   2.419   2.698   0.584  0.1227 -0.0646  0.2112
  377SOL    MW4 1508   2.417   2.654   0.509 -0.4370 -0.3737  0.4085
  378SOL     OW 1509   2.367   3.057   0.863 -0.0627  0.6276  0.4137
  378SOL    HW2 1510   2.440   3.093   0.813 -0.4567 -0.6575 -1.1143
  378SOL    HW3 1511   2.396   3.064   0.955  1.0454  2.1411 -0.0253
  378SOL    MW4 1512   2.381   3.062   0.869  0.0315  0.6577  0.1542
  379SOL     OW 1513   2.023   3.620   0.496  0.3745  0.2278  0.0249
  379SOL    HW2 1514   2.009   3.529   0.470  1.5788  0.1056 -0.2546
  379SOL    HW3 1515   1.943   3.665   0.471 -0.2503 -0.7736  0.2189
  379SOL    MW4 1516   2.011   3.614   0.489  0.4509  0.0795  0.0136
  380SOL     OW 1517   4.486   0.973   0.762 -0.0536 -0.0003 -0.4861
  380SOL    HW2 1518   4.415   0.924   0.804  0.1908  0.3634  0.3553
  380SOL    HW3 1519   4.457   1.064   0.764  0.5454  0.1776  0.0717
  380SOL    MW4 1520   4.473   0.978   0.768  0.0577  0.0712 -0.3015
  381SOL     OW 1521   1.733   1.448   0.423  0.1826 -0.1679 -0.0142
  381SOL    HW2 1522   1.678   1.412   0.492 -0.5647  1.5883  0.3172
  381SOL    HW3 1523   1.696   1.534   0.405  0.5434 -0.4669 -2.3965
  381SOL    MW4 1524   1.721   1.454   0.430  0.1316  0.0243 -0.2848
  382SOL     OW 1525   3.145   4.258   0.846  0.1863  0.0283 -0.4473
  382SOL    HW2 1526   3.077   4.319   0.821 -0.1645  0.5600  1.6750
  382SOL    HW3 1527   3.227   4.302   0.823 -0.0946  0.9386  0.2764
  382SOL    MW4 1528   3.147   4.272   0.840  0.1030  0.2186 -0.0718
  383SOL     OW 1529   2.027   3.874   0.885 -0.2646 -0.1768  0.1081
  383SOL    HW2 1530   2.023   3.885   0.980 -0.2279  3.2839 -0.2176
  383SOL    HW3 1531   2.104   3.925   0.858  0.3940 -2.0131 -1.6977
  383SOL    MW4 1532   2.037   3.882   0.894 -0.1729  0.0375 -0.1731
  384SOL     OW 1533   1.587   2.643   0.268 -0.0139 -0.2123  0.1787
  384SOL    HW2 1534   1.549   2.722   0.307  0.5751  0.2417 -0.1682
  384SOL    HW3 1535   1.612   2.669   0.180 -0.7066 -1.0557 -0.2741
  384SOL    MW4 1536   1.585   2.657   0.262 -0.0276 -0.2637  0.0732
  385SOL     OW 1537   3.819   4.579   0.870  0.3391  0.0446  0.6055
  385SOL    HW2 1538   3.898   4.619   0.836  0.2437  1.7765  2.3272
  385SOL    HW3 1539   3.748   4.623   0.823  0.3726 -1.4309 -0.8593
  385SOL    MW4 1540   3.820   4.590   0.859  0.3310  0.0785  0.6394
  386SOL     OW 1541   3.357   4.606   0.851 -0.4341 -0.3481 -0.3642
  386SOL    HW2 1542   3.282   4.664   0.838  0.5676  1.0159 -0.1045
  386SOL    HW3 1543   3.370   4.605   0.946  0.4191  0.1344 -0.4677
  386SOL    MW4 1544   3.349   4.613   0.862 -0.1894 -0.1044 -0.3436
  387SOL     OW 1545   3.774   4.262   0.516  0.2127  0.4677 -0.2386
  387SOL    HW2 1546   3.774   4.172   0.483 -1.0114  0.2838  0.2153
  387SOL    HW3 1547   3.864   4.291   0.506  0.3833 -0.4296 -1.4156
  387SOL    MW4 1548   3.786   4.254   0.511  0.0737  0.3250 -0.3340
  388SOL     OW 1549   0.904   3.458   0.911 -0.3899 -0.1830 -0.2515
  388SOL    HW2 1550   0.974   3.440   0.848 -0.1427  0.5821 -0.1933
  388SOL    HW3 1551   0.845   3.383   0.902 -0.2162 -0.2208 -1.1960
  388SOL    MW4 1552   0.906   3.446   0.901 -0.3343 -0.0871 -0.3684
  389SOL     OW 1553   2.269   4.266   0.864  0.2329 -0.1687 -0.0706
  389SOL    HW2 1554   2.185   4.304   0.837  0.9076  0.6560 -1.0342
  389SOL    HW3 1555   2.335   4.316   0.815  1.3311 -0.3602  1.1802
  389SOL    MW4 1556   2.267   4.278   0.854  0.4668 -0.0851 -0.0327
  390SOL     OW 1557   3.045   1.849   0.271  0.1088 -0.1584  0.2338
  390SOL    HW2 1558   3.062   1.915   0.339 -1.6972 -0.1361  0.6753
  390SOL    HW3 1559   3.037   1.900   0.190 -1.9077  0.2478  0.6723
  390SOL    MW4 1560   3.046   1.865   0.269 -0.3955 -0.1018  0.3499
  391SOL     OW 1561   2.710   0.852   0.760  0.0876  0.5450  0.1909
  391SOL    HW2 1562   2.799   0.840   0.793  1.0304  0.4472 -2.2830
  391SOL    HW3 1563   2.704   0.946   0.739 -0.1040  0.4062 -0.4028
  391SOL    MW4 1564   2.721   0.863   0.762  0.1867  0.5138 -0.2139
  392SOL     OW 1565   3.778   2.758   0.509  0.0532 -0.2637 -0.3223
  392SOL    HW2 1566   3.841   2.824   0.482 -0.4461 -0.3029 -1.6314
  392SOL    HW3 1567   3.829   2.677   0.515  0.2767 -0.1449 -0.6237
  392SOL    MW4 1568   3.793   2.756   0.506  0.0168 -0.2532 -0.5348
  393SOL     OW 1569   0.694   2.933   0.706 -0.1181  0.0669  0.2569
  393SOL    HW2 1570   0.774   2.984   0.708 -0.1190  0.0940 -0.2831
  393SOL    HW3 1571   0.652   2.957   0.624 -1.0031  0.5363  0.8379
  393SOL    MW4 1572   0.699   2.943   0.696 -0.2350  0.1324  0.2623
  394SOL     OW 1573   2.284   1.636   0.667  0.4058  0.1260  0.0285
  394SOL    HW2 1574   2.241   1.649   0.583  0.7948 -0.5529 -0.2770
  394SOL    HW3 1575   2.215   1.600   0.723 -0.0166  1.1507  0.1836
  394SOL    MW4 1576   2.269   1.633   0.664  0.4014  0.1716  0.0086
  395SOL     OW 1577   2.811   0.100   0.504 -0.3063 -0.0342  0.0939
  395SOL    HW2 1578   2.771   0.104   0.591  1.3518 -1.8828  0.9618
  395SOL    HW3 1579   2.763   0.030   0.460 -1.4447  1.1997 -0.6561
  395SOL    MW4 1580   2.799   0.092   0.510 -0.2377 -0.1153  0.1095
  396SOL     OW 1581   2.896   0.495   0.783  0.2951  0.3101 -0.5401
  396SOL    HW2 1582   2.978   0.455   0.812  0.5440  0.4691 -1.0137
  396SOL    HW3 1583   2.828   0.451   0.834  0.7120  0.4585  0.1451
  396SOL    MW4 1584   2.898   0.484   0.794  0.3830  0.3507 -0.5122
  397SOL     OW 1585   4.303   3.197   0.092  0.4691 -0.6620 -0.2219
  397SOL    HW2 1586   4.241   3.266   0.114  0.1069 -1.4692  1.3665
  397SOL    HW3 1587   4.306   3.196  -0.003 -0.0835  1.0476 -0.2605
  397SOL    MW4 1588   4.295   3.206   0.083  0.3484 -0.5429 -0.0174
  398SOL     OW 1589   2.900   2.260   0.868 -0.2605  0.5618 -0.1799
  398SOL    HW2 1590   2.816   2.293   0.835 -0.7108 -0.8905 -0.5001
  398SOL    HW3 1591   2.886   2.251   0.962 -0.6452 -0.2051 -0.3081
  398SOL    MW4 1592   2.887   2.263   0.876 -0.3706  0.2690 -0.2390
  399SOL     OW 1593   2.643   2.697   0.858 -0.1629  0.0107 -0.3157
  399SOL    HW2 1594   2.562   2.729   0.820 -0.9004 -1.7945 -0.3357
  399SOL    HW3 1595   2.623   2.684   0.950  0.2459  0.0010 -0.2271
  399SOL    MW4 1596   2.630   2.699   0.865 -0.2063 -0.2288 -0.3066
  400SOL     OW 1597   3.631   1.106   0.791 -0.0271 -0.1059 -0.4347
  400SOL    HW2 1598   3.622   1.104   0.887 -0.8884  1.9477 -0.4451
  400SOL    HW3 1599   3.635   1.013   0.766 -1.1141 -0.7073  1.4700
  400SOL    MW4 1600   3.630   1.093   0.800 -0.2842  0.0857 -0.1848
  401SOL     OW 1601   0.457   2.812   0.864  0.2941 -0.0584 -0.2944
  401SOL    HW2 1602   0.527   2.841   0.806 -0.9924 -0.6578 -2.2087
  401SOL    HW3 1603   0.411   2.892   0.888 -0.0036  0.0662 -1.2432
  401SOL    MW4 1604   0.460   2.826   0.859  0.0851 -0.1210 -0.6721
  402SOL     OW 1605   1.774   1.948   0.828  0.7642 -0.0513  0.3420
  402SOL    HW2 1606   1.684   1.981   0.820  0.4788 -1.2466 -1.7015
  402SOL    HW3 1607   1.827   2.012   0.782  0.5978 -0.7892 -0.8939
  402SOL    MW4 1608   1.769   1.961   0.821  0.7046 -0.3064 -0.0907
  403SOL     OW 1609   2.876   2.795   0.724 -0.3352  0.4318 -0.3370
  403SOL    HW2 1610   2.798   2.768   0.772  0.1639 -0.6261 -0.1079
  403SOL    HW3 1611   2.949   2.764   0.778  0.2385  0.6281 -0.9971
  403SOL    MW4 1612   2.876   2.788   0.738 -0.1937  0.3181 -0.3939
  404SOL     OW 1613   3.961   3.360   0.271  0.4769 -0.0369  0.5487
  404SOL    HW2 1614   3.875   3.317   0.268  0.8062 -0.6665 -0.0157
  404SOL    HW3 1615   3.944   3.445   0.312 -0.5032  0.0496 -0.0233
  404SOL    MW4 1616   3.947   3.365   0.276  0.3910 -0.1086  0.3987
  405SOL     OW 1617   2.157   1.682   0.426  0.1643 -0.1005 -0.1865
  405SOL    HW2 1618   2.159   1.770   0.462 -0.2895  0.0622 -0.5587
  405SOL    HW3 1619   2.078   1.642   0.464 -0.0364 -0.0972 -0.5983
  405SOL    MW4 1620   2.147   1.688   0.436  0.0780 -0.0786 -0.2900
  406SOL     OW 1621   0.518   3.737   0.564 -0.4554  0.2882  0.6060
  406SOL    HW2 1622   0.577   3.668   0.535 -1.9538 -1.4183  1.5251
  406SOL    HW3 1623   0.565   3.782   0.634  0.2061 -0.3222  0.5541
  406SOL    MW4 1624   0.532   3.734   0.569 -0.5658 -0.0175  0.7204
  407SOL     OW 1625   2.365   3.428   0.408 -0.1292 -0.1229  0.1667
  407SOL    HW2 1626   2.354   3.408   0.501 -0.6303  1.2241  0.4048
  407SOL    HW3 1627   2.353   3.522   0.403  0.4502 -0.1219 -1.1914
  407SOL    MW4 1628   2.362   3.438   0.420 -0.1189  0.0549  0.0189
  408SOL     OW 1629   3.159   4.400   0.506  0.1012  0.4346 -0.3024
  408SOL    HW2 1630   3.204   4.382   0.588 -0.5680  1.2420  0.2479
  408SOL    HW3 1631   3.218   4.365   0.439  0.7363 -0.0695  0.4994
  408SOL    MW4 1632   3.173   4.393   0.508  0.0967  0.4746 -0.1240
  409SOL     OW 1633   4.230   1.631   0.401 -0.0716 -0.6927  0.0449
  409SOL    HW2 1634   4.189   1.574   0.336 -0.4736 -0.7085  0.3123
  409SOL    HW3 1635   4.156   1.666   0.452  0.1636  0.0818 -0.1346
  409SOL    MW4 1636   4.214   1.628   0.399 -0.0936 -0.5926  0.0565
  410SOL     OW 1637   3.549   4.217   0.907 -0.2504  0.1834  0.0459
  410SOL    HW2 1638   3.626   4.239   0.855 -0.7556 -0.1796 -0.8733
  410SOL    HW3 1639   3.475   4.236   0.849 -0.8147 -0.2880  0.6083
  410SOL    MW4 1640   3.550   4.222   0.892 -0.3915  0.0733 -0.0012
  411SOL     OW 1641   4.091   1.082   0.880 -0.0992 -0.0370  0.5516
  411SOL    HW2 1642   4.024   1.147   0.859 -0.5485 -0.8791 -0.7477
  411SOL    HW3 1643   4.089   1.074   0.975 -1.3738  0.4648  0.5783
  411SOL    MW4 1644   4.082   1.089   0.890 -0.3267 -0.0819  0.3837
  412SOL     OW 1645   0.727   0.463   0.774 -0.6596  0.6106 -0.4090
  412SOL    HW2 1646   0.786   0.497   0.706 -1.3160  1.7085 -0.4219
  412SOL    HW3 1647   0.662   0.531   0.787  0.3012  1.0537  2.4022
  412SOL    MW4 1648   0.726   0.476   0.766 -0.6194  0.8139 -0.0398
  413SOL     OW 1649   3.173   1.488   0.460 -0.0709  0.2475 -0.1803
  413SOL    HW2 1650   3.147   1.536   0.539 -0.8182 -0.7824  0.2058
  413SOL    HW3 1651   3.113   1.413   0.456  1.8735 -1.3431 -0.0977
  413SOL    MW4 1652   3.162   1.484   0.470  0.0871 -0.0983 -0.1185
  414SOL     OW 1653   3.920   2.521   0.491  0.0963  0.3578 -0.4975
  414SOL    HW2 1654   3.858   2.452   0.468 -0.3190  0.0939  1.3120
  414SOL    HW3 1655   3.999   2.500   0.443 -0.0361 -1.3683  0.0052
  414SOL    MW4 1656   3.922   2.509   0.482  0.0241  0.0952 -0.1924
  415SOL     OW 1657   1.775   3.990   0.505 -0.2041 -0.2407 -0.2959
  415SOL    HW2 1658   1.842   4.023   0.445 -0.3422 -0.2572 -0.4626
  415SOL    HW3 1659   1.705   4.055   0.501 -0.0410 -0.0378  0.1629
  415SOL    MW4 1660   1.775   4.003   0.496 -0.2008 -0.2161 -0.2574
  416SOL     OW 1661   1.348   3.955   0.822 -0.2380 -0.2390  0.3810
  416SOL    HW2 1662   1.355   3.993   0.735  0.6873 -2.0075 -0.3392
  416SOL    HW3 1663   1.273   3.895   0.816 -1.5720  1.2825  1.4476
  416SOL    MW4 1664   1.339   3.952   0.810 -0.2920 -0.2716  0.4267
  417SOL     OW 1665   1.550   0.793   0.864  0.4905 -0.6038 -0.1030
  417SOL    HW2 1666   1.543   0.706   0.823 -0.7421 -0.9025  0.7033
  417SOL    HW3 1667   1.460   0.827   0.862  0.8404  0.3441  0.2592
  417SOL    MW4 1668   1.537   0.786   0.858  0.3740 -0.5181  0.0511
  418SOL     OW 1669   2.671   0.319   0.419  0.0827  0.1061  0.2464
  418SOL    HW2 1670   2.725   0.244   0.445 -0.5738  0.0514  1.4953
  418SOL    HW3 1671   2.606   0.282   0.360 -0.5469 -0.4193  1.2481
  418SOL    MW4 1672   2.670   0.304   0.415 -0.0870  0.0296  0.5434
  419SOL     OW 1673   1.811   1.238   0.261 -0.3455 -0.6464  0.5397
  419SOL    HW2 1674   1.773   1.310   0.310 -2.1851 -1.8399  0.8919
  419SOL    HW3 1675   1.896   1.223   0.303 -0.0713  1.1017  0.6488
  419SOL    MW4 1676   1.817   1.246   0.273 -0.5520 -0.5733  0.6005
  420SOL     OW 1677   3.219   0.857   0.447  0.2038  0.3428  0.4225
  420SOL    HW2 1678   3.203   0.763   0.437 -0.8488  0.4520  0.9727
  420SOL    HW3 1679   3.204   0.875   0.540 -0.5630  1.2212  0.1399
  420SOL    MW4 1680   3.215   0.847   0.458 -0.0362  0.4731  0.4578
  421SOL     OW 1681   3.752   3.176   0.356 -0.6146 -0.3088  0.2496
  421SOL    HW2 1682   3.799   3.109   0.407 -1.3629  0.1897  1.6316
  421SOL    HW3 1683   3.660   3.150   0.361 -0.8078  0.3300  0.0452
  421SOL    MW4 1684   3.746   3.164   0.364 -0.7388 -0.1588  0.4049
  422SOL     OW 1685   3.504   1.538   0.253  0.3843 -0.0700  0.0300
  422SOL    HW2 1686   3.495   1.472   0.322  1.2067  0.9573  1.1454
  422SOL    HW3 1687   3.434   1.601   0.271  0.6947  0.2790  0.0380
  422SOL    MW4 1688   3.494   1.538   0.264  0.5337  0.1116  0.1782
  423SOL     OW 1689   3.799   2.041   0.434  0.3610 -0.5485 -0.2880
  423SOL    HW2 1690   3.737   1.971   0.412 -0.5411  0.0714  0.2236
  423SOL    HW3 1691   3.885   2.003   0.419 -0.0920 -2.0419  0.7314
  423SOL    MW4 1692   3.802   2.027   0.429  0.1822 -0.6638 -0.0860
  424SOL     OW 1693   4.040   1.416   0.312  0.2104  0.0101  0.0746
  424SOL    HW2 1694   4.035   1.371   0.397  0.4064  0.3589  0.2713
  424SOL    HW3 1695   3.949   1.435   0.290  0.2407  0.9500  0.7558
  424SOL    MW4 1696   4.028   1.412   0.321  0.2403  0.1801  0.1904
  425SOL     OW 1697   4.445   0.550   0.761  0.1269  0.2669  0.2807
  425SOL    HW2 1698   4.479   0.584   0.679  0.5488 -0.3941  0.1785
  425SOL    HW3 1699   4.380   0.485   0.734 -1.1386  1.4298  0.4717
  425SOL    MW4 1700   4.441   0.546   0.747  0.0156  0.3331  0.2924
  426SOL     OW 1701   4.222   0.437   0.653 -0.3489 -0.3567  0.1208
  426SOL    HW2 1702   4.201   0.489   0.575  0.7454 -1.8097 -1.1808
  426SOL    HW3 1703   4.137   0.422   0.695 -0.8390  1.2527 -0.2782
  426SOL    MW4 1704   4.208   0.442   0.648 -0.2692 -0.3361 -0.1036
  427SOL     OW 1705   1.711   3.332   0.426 -0.1740  0.1277 -0.2058
  427SOL    HW2 1706   1.644   3.274   0.389 -0.2050  1.2052 -1.8952
  427SOL    HW3 1707   1.664   3.412   0.449  0.2910  0.4016 -0.1876
  427SOL    MW4 1708   1.696   3.335   0.424 -0.1168  0.3060 -0.4263
  428SOL     OW 1709   1.762   2.226   0.455  0.0999 -0.1909 -0.3807
  428SOL    HW2 1710   1.757   2.317   0.424 -2.2070 -0.3313 -0.4624
  428SOL    HW3 1711   1.672   2.196   0.456  0.5891 -1.6573  2.1681
  428SOL    MW4 1712   1.750   2.234   0.451 -0.1399 -0.4029 -0.0552
  429SOL     OW 1713   3.041   2.041   0.087 -0.1359 -0.2191 -0.3197
  429SOL    HW2 1714   3.004   2.115   0.134 -0.8534 -0.1399 -0.9957
  429SOL    HW3 1715   3.126   2.073   0.055 -0.8161  0.6104 -1.3496
  429SOL    MW4 1716   3.047   2.055   0.089 -0.3203 -0.0992 -0.5448
  430SOL     OW 1717   1.078   4.582   0.904 -0.2633 -0.3397  0.1605
  430SOL    HW2 1718   1.009   4.515   0.899 -0.4363 -0.0347 -1.8498
  430SOL    HW3 1719   1.046   4.653   0.849  0.9714  0.4429  0.4454
  430SOL    MW4 1720   1.064   4.582   0.896 -0.1232 -0.1962 -0.0671
  431SOL     OW 1721   1.104   2.021   0.589  0.7472  0.1415  0.3226
  431SOL    HW2 1722   1.108   1.980   0.502  0.4465  0.9768 -0.0937
  431SOL    HW3 1723   1.015   2.003   0.620  0.9022 -0.2811  0.5137
  431SOL    MW4 1724   1.093   2.014   0.582  0.7280  0.1960  0.2929
  432SOL     OW 1725   2.843   3.808   0.883 -0.1716 -0.0372 -0.4210
  432SOL    HW2 1726   2.927   3.816   0.838  0.4299  1.3567  0.8835
  432SOL    HW3 1727   2.864   3.824   0.975 -1.8533  0.2773 -0.0754
  432SOL    MW4 1728   2.857   3.811   0.889 -0.3141  0.1882 -0.2033
  433SOL     OW 1729   3.713   3.407   0.514  0.0879 -0.2623 -0.2165
  433SOL    HW2 1730   3.723   3.320   0.475 -0.5387 -0.5972  0.3668
  433SOL    HW3 1731   3.756   3.466   0.452  2.5530 -1.2582  0.5133
  433SOL    MW4 1732   3.720   3.404   0.501  0.3305 -0.4379 -0.0432
  434SOL     OW 1733   1.610   1.240   0.834 -0.2242 -0.5508 -0.1272
  434SOL    HW2 1734   1.608   1.242   0.739  0.0467 -0.1790 -0.1238
  434SOL    HW3 1735   1.529   1.196   0.859 -0.7473  0.1968 -0.5014
  434SOL    MW4 1736   1.599   1.234   0.825 -0.2575 -0.4031 -0.1761
  435SOL     OW 1737   2.173   3.406   0.884 -0.1802 -0.3618  0.1057
  435SOL    HW2 1738   2.230   3.371   0.816 -0.3274 -0.4791  0.0405
  435SOL    HW3 1739   2.137   3.487   0.847  1.8742  1.0452  1.1062
  435SOL    MW4 1740   2.176   3.412   0.870  0.0715 -0.1916  0.2291
  436SOL     OW 1741   2.122   1.341   0.609 -0.1716  0.2140 -0.0735
  436SOL    HW2 1742   2.075   1.419   0.578  0.0244  0.6043  0.6034
  436SOL    HW3 1743   2.082   1.320   0.693  0.2233 -0.0161  0.0582
  436SOL    MW4 1744   2.111   1.349   0.616 -0.0936  0.2352  0.0332
  437SOL     OW 1745   3.376   0.443   0.785  0.0137 -0.1910  0.0395
  437SOL    HW2 1746   3.437   0.377   0.817  0.7925 -0.0411 -1.1050
  437SOL    HW3 1747   3.381   0.437   0.690 -0.8410  0.6638 -0.0753
  437SOL    MW4 1748   3.385   0.434   0.777  0.0037 -0.0584 -0.1266
  438SOL     OW 1749   3.846   0.725   0.834  0.3794  0.3057 -0.4892
  438SOL    HW2 1750   3.849   0.747   0.927  0.9832  0.6558 -0.5832
  438SOL    HW3 1751   3.929   0.760   0.799  0.7250 -0.9235 -0.9137
  438SOL    MW4 1752   3.858   0.733   0.841  0.5047  0.1897 -0.5576
  439SOL     OW 1753   3.166   1.112   0.828  0.3570 -0.4383  0.3739
  439SOL    HW2 1754   3.170   1.119   0.924 -0.2999 -0.0796  0.3743
  439SOL    HW3 1755   3.099   1.175   0.802  0.9597 -0.1021 -0.3782
  439SOL    MW4 1756   3.158   1.121   0.837  0.3499 -0.3466  0.2747
  440SOL     OW 1757   3.388   1.249   0.755  0.0377 -0.0432  0.1699
  440SOL    HW2 1758   3.315   1.199   0.791  0.5254  1.7328  3.8224
  440SOL    HW3 1759   3.461   1.187   0.753 -0.2226 -0.4098  1.5110
  440SOL    MW4 1760   3.388   1.234   0.759  0.0677  0.1427  0.8287
  441SOL     OW 1761   0.031   0.078   0.568 -0.2554  0.7637  0.0742
  441SOL    HW2 1762   0.056  -0.006   0.528  1.0864  1.6144 -0.9080
  441SOL    HW3 1763   0.052   0.067   0.661 -1.2868 -0.4332  0.1858
  441SOL    MW4 1764   0.037   0.065   0.575 -0.2144  0.7180 -0.0407
  442SOL     OW 1765   4.458   3.067   0.323  0.2818 -0.0164  0.0224
  442SOL    HW2 1766   4.550   3.096   0.327 -0.0485  0.8839  2.0777
  442SOL    HW3 1767   4.428   3.095   0.236  1.0126  2.7361  0.5917
  442SOL    MW4 1768   4.466   3.075   0.312  0.3346  0.4656  0.3687
  443SOL     OW 1769   3.080   3.324   0.494  0.3711 -0.6289 -0.3360
  443SOL    HW2 1770   3.094   3.412   0.530 -0.2220  0.0969 -1.8194
  443SOL    HW3 1771   3.160   3.307   0.443  0.9531 -1.4094  0.8078
  443SOL    MW4 1772   3.093   3.334   0.492  0.3696 -0.6361 -0.3808
  444SOL     OW 1773   3.617   1.882   0.863 -0.0171 -0.0435 -0.0502
  444SOL    HW2 1774   3.680   1.918   0.801  0.3199  0.1400  0.3973
  444SOL    HW3 1775   3.616   1.788   0.844 -0.2832  0.0784 -0.6609
  444SOL    MW4 1776   3.625   1.874   0.852 -0.0077 -0.0032 -0.0717
  445SOL     OW 1777   2.548   0.718   0.414  0.2133  0.1081  0.7321
  445SOL    HW2 1778   2.636   0.747   0.439  0.2633  0.5712  0.0301
  445SOL    HW3 1779   2.524   0.775   0.341  0.5704 -1.9987 -1.0968
  445SOL    MW4 1780   2.557   0.729   0.407  0.2670 -0.1088  0.3982
  446SOL     OW 1781   4.438   2.786   0.385 -0.3660  0.5901  0.3099
  446SOL    HW2 1782   4.504   2.788   0.455 -1.5216 -0.8036  1.4695
  446SOL    HW3 1783   4.447   2.871   0.342  0.0000  1.7146  2.5078
  446SOL    MW4 1784   4.448   2.798   0.389 -0.4701  0.5545  0.7529
  447SOL     OW 1785   1.453   1.960   0.287 -0.1853 -0.0286 -0.0440
  447SOL    HW2 1786   1.496   1.888   0.332  0.0382  0.4675  0.5335
  447SOL    HW3 1787   1.517   1.990   0.222  0.2353  0.5320  0.6305
  447SOL    MW4 1788   1.467   1.955   0.284 -0.1003  0.1108  0.1212
  448SOL     OW 1789   2.707   4.175   0.416 -0.0894  0.3401  0.0270
  448SOL    HW2 1790   2.750   4.090   0.416 -0.9805 -0.1102  0.0472
  448SOL    HW3 1791   2.775   4.236   0.447  0.5958 -0.3275 -0.1563
  448SOL    MW4 1792   2.722   4.172   0.420 -0.1165  0.1926  0.0055
  449SOL     OW 1793   4.282   1.859   0.232  0.2235 -0.1374 -0.2215
  449SOL    HW2 1794   4.366   1.901   0.248  0.1604 -0.2939  0.5588
  449SOL    HW3 1795   4.287   1.777   0.281  0.2889 -0.9697 -1.6084
  449SOL    MW4 1796   4.293   1.854   0.241  0.2238 -0.2679 -0.3015
  450SOL     OW 1797   2.172   0.920   0.352  0.2387 -0.2706  0.0448
  450SOL    HW2 1798   2.247   0.921   0.292 -0.8812 -0.2987 -1.3778
  450SOL    HW3 1799   2.206   0.879   0.432  1.4915 -1.1129 -0.9008
  450SOL    MW4 1800   2.186   0.915   0.355  0.2562 -0.3854 -0.2677
  451SOL     OW 1801   2.311   3.713   0.439  0.2299  0.0746  0.1595
  451SOL    HW2 1802   2.218   3.690   0.440  0.5467 -1.2411  0.3383
  451SOL    HW3 1803   2.312   3.808   0.449 -1.0521 -0.0702  1.9426
  451SOL    MW4 1804   2.299   3.722   0.441  0.1025 -0.1181  0.4184
  452SOL     OW 1805   3.773   0.450   0.770 -0.1897 -0.0187 -0.1942
  452SOL    HW2 1806   3.791   0.539   0.798 -1.1567  0.3100 -0.5711
  452SOL    HW3 1807   3.789   0.451   0.675  0.4115 -0.4087 -0.0986
  452SOL    MW4 1808   3.778   0.462   0.761 -0.2379 -0.0268 -0.2313
  453SOL     OW 1809   1.192   1.586   0.428  0.1244 -0.1913 -0.0613
  453SOL    HW2 1810   1.099   1.566   0.414 -0.2502  0.7016  1.0354
  453SOL    HW3 1811   1.195   1.624   0.516  1.3068  1.2128 -0.6897
  453SOL    MW4 1812   1.180   1.589   0.438  0.2310  0.1117  0.0005
  454SOL     OW 1813   3.561   3.958   0.774 -0.0488  0.3245 -0.3914
  454SOL    HW2 1814   3.569   4.031   0.836 -0.4562 -0.0414  0.0914
  454SOL    HW3 1815   3.645   3.913   0.781  0.4469  1.1160 -1.1616
  454SOL    MW4 1816   3.573   3.962   0.783 -0.0371  0.3806 -0.4293
  455SOL     OW 1817   3.352   3.795   0.869 -0.2756 -0.3685  0.2636
  455SOL    HW2 1818   3.423   3.846   0.830 -1.3112  0.9546  0.0891
  455SOL    HW3 1819   3.375   3.788   0.962 -0.5572  1.1714  0.4630
  455SOL    MW4 1820   3.365   3.801   0.876 -0.4494  0.0092  0.2669
  456SOL     OW 1821   2.643   4.527   0.470  0.5160 -0.2334 -0.0578
  456SOL    HW2 1822   2.719   4.471   0.453  0.0795 -0.8399 -0.0015
  456SOL    HW3 1823   2.594   4.483   0.539 -0.2923 -0.2369 -0.6167
  456SOL    MW4 1824   2.646   4.514   0.477  0.3518 -0.3139 -0.1241
  457SOL     OW 1825   3.583   0.293   0.872 -0.6369  0.1151 -0.1983
  457SOL    HW2 1826   3.645   0.349   0.825 -1.7468  0.7010 -0.9699
  457SOL    HW3 1827   3.590   0.320   0.964  0.9579 -0.4924 -0.1253
  457SOL    MW4 1828   3.592   0.304   0.878 -0.5729  0.1123 -0.2905
  458SOL     OW 1829   2.835   3.056   0.850 -0.4263  0.1320 -0.2816
  458SOL    HW2 1830   2.923   3.084   0.827 -0.3047  0.2557  0.3051
  458SOL    HW3 1831   2.815   2.984   0.790  0.6524 -0.8976  0.5731
  458SOL    MW4 1832   2.844   3.051   0.839 -0.2680  0.0125 -0.0914
  459SOL     OW 1833   3.326   3.540   0.746 -0.2474  0.0667 -0.7643
  459SOL    HW2 1834   3.238   3.511   0.771 -1.0502  1.2739 -2.0923
  459SOL    HW3 1835   3.335   3.627   0.784  0.7169 -0.3905  0.0793
  459SOL    MW4 1836   3.315   3.547   0.754 -0.2261  0.1656 -0.8282
  460SOL     OW 1837   4.305   3.266   0.486 -0.0063 -0.0969  0.2324
  460SOL    HW2 1838   4.313   3.359   0.462  1.6270  0.1462  1.6696
  460SOL    HW3 1839   4.351   3.220   0.416  0.5285  0.2849  0.3275
  460SOL    MW4 1840   4.312   3.272   0.474  0.2798 -0.0145  0.4346
  461SOL     OW 1841   4.130   3.672   0.507  0.0074 -0.1643  0.2864
  461SOL    HW2 1842   4.161   3.667   0.597  0.1857  0.3947  0.2585
  461SOL    HW3 1843   4.123   3.766   0.489  0.2924 -0.2712 -0.3905
  461SOL    MW4 1844   4.133   3.684   0.516  0.0685 -0.1046  0.1934
  462SOL     OW 1845   1.296   1.343   0.525 -0.2707 -0.0851 -0.3034
  462SOL    HW2 1846   1.263   1.350   0.614 -1.1485 -2.2972 -0.4488
  462SOL    HW3 1847   1.265   1.423   0.482 -1.1295  0.2620  0.9417
  462SOL    MW4 1848   1.288   1.355   0.531 -0.4998 -0.3311 -0.1583
  463SOL     OW 1849   1.656   0.755   0.382  0.0225 -0.2185 -0.2920
  463SOL    HW2 1850   1.741   0.742   0.341  0.7999  1.2831  0.8114
  463SOL    HW3 1851   1.643   0.850   0.381 -0.3057 -0.2143  2.1839
  463SOL    MW4 1852   1.665   0.766   0.376  0.0818 -0.0198  0.1803
  464SOL     OW 1853   0.749   0.226   0.944 -0.4660  0.1123  0.1002
  464SOL    HW2 1854   0.717   0.294   0.885  0.3992  0.9451  0.5908
  464SOL    HW3 1855   0.794   0.273   1.014  0.2736 -0.9655  0.3622
  464SOL    MW4 1856   0.751   0.241   0.945 -0.2543  0.0800  0.1995
  465SOL     OW 1857   3.317   2.806   0.714  0.1702 -0.0718 -0.1820
  465SOL    HW2 1858   3.390   2.779   0.770  0.0834 -0.2929 -0.1763
  465SOL    HW3 1859   3.357   2.816   0.627  0.2292 -0.0972 -0.1580
  465SOL    MW4 1860   3.332   2.803   0.710  0.1666 -0.1043 -0.1781
  466SOL     OW 1861   0.208   0.262   0.424 -0.5233 -0.2508 -0.0155
  466SOL    HW2 1862   0.147   0.317   0.376 -1.0345 -0.0355  0.8662
  466SOL    HW3 1863   0.152   0.206   0.478  0.0215 -0.9663 -0.1801
  466SOL    MW4 1864   0.192   0.262   0.425 -0.5189 -0.3168  0.0791
  467SOL     OW 1865   1.573   1.271   0.571  0.1355 -0.0292  0.4571
  467SOL    HW2 1866   1.480   1.272   0.546  0.1208  0.7663  0.5172
  467SOL    HW3 1867   1.609   1.194   0.527 -1.0953 -1.8128  2.4796
  467SOL    MW4 1868   1.565   1.261   0.562 -0.0288 -0.1596  0.7319
  468SOL     OW 1869   3.939   4.079   0.334 -0.2961 -0.1954 -0.1557
  468SOL    HW2 1870   4.011   4.041   0.384 -0.8217  0.2474  0.9314
  468SOL    HW3 1871   3.946   4.173   0.348 -0.1038 -0.0163 -1.3802
  468SOL    MW4 1872   3.950   4.086   0.342 -0.3401 -0.1134 -0.1738
  469SOL     OW 1873   4.385   1.109   0.358  0.0492  0.1035 -0.3086
  469SOL    HW2 1874   4.425   1.031   0.394  0.6985  0.2750 -0.6453
  469SOL    HW3 1875   4.298   1.081   0.329 -0.0117 -0.3085  0.2685
  469SOL    MW4 1876   4.379   1.095   0.359  0.1268  0.0718 -0.2769
  470SOL     OW 1877   2.102   1.939   0.545  0.1670 -0.1471 -0.1484
  470SOL    HW2 1878   2.028   1.990   0.579  0.6767  1.1533 -0.9510
  470SOL    HW3 1879   2.161   2.005   0.507  0.4302 -1.4218 -2.0017
  470SOL    MW4 1880   2.100   1.955   0.545  0.2690 -0.1437 -0.4988
  471SOL     OW 1881   4.259   2.068   0.774  0.4200 -0.1277 -0.4839
  471SOL    HW2 1882   4.176   2.028   0.797 -0.1566  2.0411  1.3768
  471SOL    HW3 1883   4.325   2.006   0.804 -0.4878 -0.9134 -0.0972
  471SOL    MW4 1884   4.257   2.055   0.781  0.2241  0.0548 -0.1874
  472SOL     OW 1885   2.468   4.623   0.819  0.0450 -0.3230  0.0663
  472SOL    HW2 1886   2.493   4.535   0.790 -0.3325  0.0563 -1.4036
  472SOL    HW3 1887   2.472   4.617   0.915  3.8392 -0.8184 -0.0444
  472SOL    MW4 1888   2.472   4.610   0.828  0.4958 -0.3383 -0.1423
  473SOL     OW 1889   3.981   2.688   0.841  0.5869  0.3614  0.8895
  473SOL    HW2 1890   3.997   2.601   0.804  0.6845  0.7010  0.1253
  473SOL    HW3 1891   4.058   2.740   0.814  0.0794  0.9391  0.5476
  473SOL    MW4 1892   3.993   2.684   0.833  0.5328  0.4824  0.7436
  474SOL     OW 1893   4.463   3.449   0.822 -0.0101 -0.7251  0.0953
  474SOL    HW2 1894   4.473   3.365   0.777 -1.6470 -0.4057 -0.9468
  474SOL    HW3 1895   4.382   3.486   0.785 -0.2519  0.5204  1.7942
  474SOL    MW4 1896   4.453   3.443   0.811 -0.2580 -0.5186  0.1819
  475SOL     OW 1897   0.355   0.448   0.851  0.7893 -0.0278  0.4393
  475SOL    HW2 1898   0.377   0.435   0.759  0.7964  1.6287  0.2052
  475SOL    HW3 1899   0.268   0.411   0.860  0.5467  0.3339 -0.3690
  475SOL    MW4 1900   0.347   0.441   0.840  0.7582  0.2385  0.3018
  476SOL     OW 1901   0.747   3.578   0.495 -0.4387 -0.2153  0.3847
  476SOL    HW2 1902   0.797   3.651   0.456 -0.3005 -1.0377 -1.0225
  476SOL    HW3 1903   0.764   3.585   0.589  2.5269 -0.5758 -0.0589
  476SOL    MW4 1904   0.756   3.589   0.502 -0.0292 -0.3714  0.1405
  477SOL     OW 1905   2.856   3.951   0.461 -0.2565  0.3170 -0.3890
  477SOL    HW2 1906   2.945   3.985   0.457  0.3651 -1.2473 -0.1781
  477SOL    HW3 1907   2.866   3.856   0.451 -1.8143  0.0410  0.5552
  477SOL    MW4 1908   2.869   3.943   0.459 -0.3800  0.0742 -0.2366
  478SOL     OW 1909   4.416   4.048   0.816  0.1434 -0.4131 -0.5562
  478SOL    HW2 1910   4.425   4.141   0.836 -0.3213 -0.6511  0.8142
  478SOL    HW3 1911   4.499   4.009   0.842  0.8395 -0.1956 -2.3600
  478SOL    MW4 1912   4.428   4.055   0.822  0.1739 -0.4158 -0.6134
  479SOL     OW 1913   1.334   4.638   0.757  0.0483  0.2580  0.1557
  479SOL    HW2 1914   1.263   4.630   0.820  0.6470  1.0636  0.9433
  479SOL    HW3 1915   1.414   4.632   0.810  0.5659 -0.2772 -0.6707
  479SOL    MW4 1916   1.335   4.636   0.772  0.1956  0.2937  0.1506
  480SOL     OW 1917   4.313   4.318   0.495 -0.1077  0.0394 -0.4016
  480SOL    HW2 1918   4.348   4.229   0.498 -0.1423  0.0370 -0.0508
  480SOL    HW3 1919   4.389   4.374   0.482  0.0674  0.0590  0.6337
  480SOL    MW4 1920   4.327   4.313   0.494 -0.0891  0.0417 -0.2187
  481SOL     OW 1921   1.989   4.123   0.394  0.6461  0.1634  0.1362
  481SOL    HW2 1922   1.990   4.216   0.419  0.8813  0.1210  0.2868
  481SOL    HW3 1923   1.989   4.124   0.298 -1.4394  0.3432  0.1266
  481SOL    MW4 1924   1.989   4.136   0.385  0.4020  0.1816  0.1548
  482SOL     OW 1925   0.262   4.647   1.159  0.1970 -0.3989  0.0294
  482SOL    HW2 1926   0.324   4.714   1.187 -0.2585  0.3898 -0.8186
  482SOL    HW3 1927   0.285   4.627   1.069 -0.3807 -0.5607 -0.0894
  482SOL    MW4 1928   0.273   4.653   1.151  0.0607 -0.3162 -0.0981
  483SOL     OW 1929   0.022   0.112   1.203 -0.2794  0.0769 -0.0392
  483SOL    HW2 1930  -0.055   0.070   1.165 -0.4319 -1.9501  2.3480
  483SOL    HW3 1931   0.095   0.058   1.174  0.1290  1.1571 -1.0978
  483SOL    MW4 1932   0.021   0.099   1.194 -0.2456 -0.0481  0.1361
  484SOL     OW 1933   0.039   0.386   1.150 -0.3215  0.1087 -0.4604
  484SOL    HW2 1934  -0.053   0.402   1.169 -0.0729 -0.1680  1.0324
  484SOL    HW3 1935   0.051   0.292   1.167  0.2218  0.1296 -0.7205
  484SOL    MW4 1936   0.029   0.375   1.155 -0.2170  0.0750 -0.2977
  485SOL     OW 1937   0.266   0.538   1.186  0.4170  0.8580  0.0282
  485SOL    HW2 1938   0.238   0.616   1.139 -0.2374 -0.4384 -1.8271
  485SOL    HW3 1939   0.194   0.475   1.172  1.2730 -0.3135  0.8343
  485SOL    MW4 1940   0.252   0.540   1.178  0.4436  0.5324 -0.1103
  486SOL     OW 1941   0.204   0.793   1.081 -0.2184  0.0279 -0.1995
  486SOL    HW2 1942   0.271   0.830   1.138 -0.1774 -1.0820  0.4674
  486SOL    HW3 1943   0.125   0.843   1.102  0.3418  1.2420 -0.8918
  486SOL    MW4 1944   0.202   0.805   1.091 -0.1391  0.0417 -0.2028
  487SOL     OW 1945   4.489   0.942   1.199  0.2882 -0.4891 -0.5214
  487SOL    HW2 1946   4.518   0.937   1.290 -0.6540  0.9505 -0.1239
  487SOL    HW3 1947   4.425   0.872   1.190 -0.2192 -0.1226  0.1687
  487SOL    MW4 1948   4.485   0.932   1.210  0.0970 -0.2508 -0.3779
  488SOL     OW 1949   4.443   1.206   1.104 -0.7495 -0.2248  0.4931
  488SOL    HW2 1950   4.382   1.249   1.164  0.8249  0.5064  1.6088
  488SOL    HW3 1951   4.455   1.119   1.140 -1.5891 -0.5926 -0.0810
  488SOL    MW4 1952   4.436   1.200   1.116 -0.6525 -0.1768  0.5646
  489SOL     OW 1953   0.205   1.336   1.217 -0.5156 -0.3079  0.2194
  489SOL    HW2 1954   0.266   1.270   1.184  0.2265 -0.4328  1.8189
  489SOL    HW3 1955   0.122   1.315   1.175 -0.1734 -1.9764  0.3520
  489SOL    MW4 1956   0.202   1.324   1.207 -0.3726 -0.5445  0.4480
  490SOL     OW 1957   0.246   1.599   1.133  0.3460 -0.4590  0.7194
  490SOL    HW2 1958   0.251   1.508   1.163 -0.8469 -1.3281 -1.5264
  490SOL    HW3 1959   0.252   1.592   1.037  1.2264  1.9213  0.5746
  490SOL    MW4 1960   0.248   1.586   1.124  0.3048 -0.2597  0.4040
  491SOL     OW 1961   0.023   1.709   1.250  0.4598 -0.2629  0.3356
  491SOL    HW2 1962   0.023   1.801   1.222 -1.4042 -0.0536  0.9359
  491SOL    HW3 1963   0.095   1.669   1.203  0.3891  1.1891 -1.0342
  491SOL    MW4 1964   0.032   1.716   1.240  0.2045 -0.0437  0.2341
  492SOL     OW 1965   0.024   1.969   1.167 -0.3777 -0.2518 -0.6647
  492SOL    HW2 1966  -0.056   2.018   1.186 -1.0316 -1.3724 -0.4726
  492SOL    HW3 1967   0.022   1.957   1.072  0.3480  1.0349 -0.8516
  492SOL    MW4 1968   0.013   1.974   1.157 -0.3682 -0.2299 -0.6640
  493SOL     OW 1969   0.246   2.106   1.262 -0.3300  0.4734  0.2891
  493SOL    HW2 1970   0.254   2.190   1.217  0.0760  0.7062  0.8006
  493SOL    HW3 1971   0.162   2.071   1.231  0.1575  0.4096 -1.0297
  493SOL    MW4 1972   0.236   2.112   1.252 -0.2121  0.4957  0.1826
  494SOL     OW 1973   0.219   2.309   1.070  0.4060 -0.2318 -0.0018
  494SOL    HW2 1974   0.305   2.345   1.095 -0.1439  1.4774 -0.4904
  494SOL    HW3 1975   0.156   2.363   1.117 -0.4213 -1.1621 -0.0371
  494SOL    MW4 1976   0.222   2.321   1.079  0.2243 -0.1290 -0.0709
  495SOL     OW 1977   0.041   2.455   1.194  0.1646  0.1136 -0.1244
  495SOL    HW2 1978   0.039   2.465   1.289 -0.2677  0.5569 -0.1793
  495SOL    HW3 1979  -0.040   2.408   1.173 -0.1086  0.6713 -0.3455
  495SOL    MW4 1980   0.030   2.450   1.203  0.0715  0.2456 -0.1608
  496SOL     OW 1981   0.037   2.712   1.086  0.4145 -0.1268  0.2745
  496SOL    HW2 1982  -0.045   2.739   1.128  0.8210 -0.2534  1.1649
  496SOL    HW3 1983   0.053   2.624   1.120  1.4451  0.2933  0.9030
  496SOL    MW4 1984   0.028   2.704   1.096  0.6041 -0.0881  0.4749
  497SOL     OW 1985   0.234   2.871   1.225  0.3927  0.1486 -0.2606
  497SOL    HW2 1986   0.222   2.852   1.318  0.0712  1.6084  0.0186
  497SOL    HW3 1987   0.160   2.827   1.183 -0.7107  1.2608  0.4357
  497SOL    MW4 1988   0.222   2.863   1.232  0.2047  0.4879 -0.1319
  498SOL     OW 1989   0.218   3.127   1.120  0.0242  0.2875  0.1974
  498SOL    HW2 1990   0.281   3.176   1.173  0.1439  0.6438 -0.2793
  498SOL    HW3 1991   0.221   3.038   1.156  0.2763  0.4711  0.6384
  498SOL    MW4 1992   0.226   3.121   1.132  0.0733  0.3587  0.1927
  499SOL     OW 1993   4.479   3.231   1.243  0.0509 -0.2923 -0.2210
  499SOL    HW2 1994   4.545   3.179   1.196 -0.3339 -0.5963 -0.4274
  499SOL    HW3 1995   4.396   3.194   1.214 -0.2341  0.7075 -0.6784
  499SOL    MW4 1996   4.477   3.219   1.233 -0.0375 -0.2005 -0.3086
  500SOL     OW 1997   0.012   3.483   1.124 -0.3789 -0.4901 -0.4811
  500SOL    HW2 1998   0.004   3.392   1.153  0.2251 -0.4107 -0.0549
  500SOL    HW3 1999  -0.027   3.484   1.036 -1.0205 -1.0099 -0.2083
  500SOL    MW4 2000   0.006   3.471   1.116 -0.3838 -0.5482 -0.3889
  501SOL     OW 2001   0.230   3.601   1.228  0.4880  0.2876  0.3970
  501SOL    HW2 2002   0.235   3.607   1.323 -0.4468 -2.4961  0.6650
  501SOL    HW3 2003   0.151   3.550   1.211  0.9351  0.3006 -1.8598
  501SOL    MW4 2004   0.221   3.595   1.238  0.4236 -0.0779  0.1346
  502SOL     OW 2005   0.218   3.871   1.164  0.5482 -0.1445  0.0609
  502SOL    HW2 2006   0.134   3.912   1.187  0.5202 -0.6348  0.8662
  502SOL    HW3 2007   0.209   3.781   1.195  1.9892  0.2360  1.6929
  502SOL    MW4 2008   0.206   3.865   1.171  0.7347 -0.1590  0.3825
  503SOL     OW 2009   4.473   4.000   1.223 -0.1054  0.4409  0.2579
  503SOL    HW2 2010   4.473   4.010   1.318  0.5444 -0.9061  0.4231
  503SOL    HW3 2011   4.395   3.948   1.204 -0.5819  1.2531 -0.0160
  503SOL    MW4 2012   4.463   3.994   1.233 -0.0826  0.3703  0.2435
  504SOL     OW 2013   4.487   4.262   1.132 -0.2303  0.6200 -0.4924
  504SOL    HW2 2014   4.560   4.306   1.176 -0.0266 -0.1152 -0.0826
  504SOL    HW3 2015   4.493   4.171   1.161 -2.0472  0.8011  0.5524
  504SOL    MW4 2016   4.497   4.255   1.142 -0.4431  0.5469 -0.3005
  505SOL     OW 2017   0.238   4.384   1.252  0.2455  0.0114 -0.4135
  505SOL    HW2 2018   0.250   4.396   1.346 -0.8963 -0.1555 -0.2460
  505SOL    HW3 2019   0.241   4.473   1.215  1.6638 -0.0008 -0.3401
  505SOL    MW4 2020   0.240   4.398   1.259  0.2820 -0.0122 -0.3817
  506SOL     OW 2021   0.697   4.631   1.200  0.2839 -0.0813  0.0764
  506SOL    HW2 2022   0.781   4.672   1.220 -0.3507  0.2635  2.1881
  506SOL    HW3 2023   0.706   4.542   1.232 -0.3464  0.1288  0.8527
  506SOL    MW4 2024   0.709   4.625   1.207  0.1170 -0.0081  0.4574
  507SOL     OW 2025   0.471   0.130   1.266  0.4443  0.1169  0.3675
  507SOL    HW2 2026   0.462   0.195   1.196 -0.4156  0.3679  0.7045
  507SOL    HW3 2027   0.549   0.081   1.242  1.4497  1.6468  0.4129
  507SOL    MW4 2028   0.480   0.132   1.253  0.4635  0.3518  0.4180
  508SOL     OW 2029   0.463   0.353   1.081  0.4751  0.4548 -0.0369
  508SOL    HW2 2030   0.405   0.414   1.125 -0.8862  0.8062 -2.2606
  508SOL    HW3 2031   0.447   0.367   0.988  2.3201 -1.1950 -0.6436
  508SOL    MW4 2032   0.454   0.363   1.075  0.5389  0.2835 -0.4104
  509SOL     OW 2033   0.646   0.500   1.235 -0.6564  0.1371  0.3870
  509SOL    HW2 2034   0.636   0.588   1.198 -0.7755  0.3114  0.8277
  509SOL    HW3 2035   0.582   0.447   1.188 -0.8749  0.3787  0.4073
  509SOL    MW4 2036   0.636   0.505   1.224 -0.7009  0.1920  0.4478
  510SOL     OW 2037   0.626   0.772   1.129  0.1942 -0.3121 -0.3578
  510SOL    HW2 2038   0.548   0.814   1.165  0.2045 -0.9737  0.4629
  510SOL    HW3 2039   0.606   0.758   1.036 -1.2492 -1.7757  0.1436
  510SOL    MW4 2040   0.613   0.776   1.121  0.0051 -0.5925 -0.1834
  511SOL     OW 2041   0.385   0.900   1.246  0.1150  0.2086 -0.0443
  511SOL    HW2 2042   0.383   0.891   1.341  1.1592 -0.9997 -0.1242
  511SOL    HW3 2043   0.413   0.991   1.232  0.8077  0.1403  0.8126
  511SOL    MW4 2044   0.389   0.911   1.256  0.3441  0.0402  0.0582
  512SOL     OW 2045   0.427   1.159   1.133  0.1370 -0.3634  0.2469
  512SOL    HW2 2046   0.505   1.192   1.177 -0.6521  2.4930 -0.3734
  512SOL    HW3 2047   0.452   1.152   1.041  0.2956 -1.4498  0.3776
  512SOL    MW4 2048   0.440   1.163   1.126  0.0538 -0.1298  0.1823
  513SOL     OW 2049   0.636   1.247   1.294  0.0039  0.9483  0.1152
  513SOL    HW2 2050   0.657   1.333   1.256  1.1359  0.7898  0.3525
  513SOL    HW3 2051   0.709   1.191   1.267 -0.8968 -0.0321 -0.3193
  513SOL    MW4 2052   0.649   1.251   1.285  0.0344  0.7981  0.0892
  514SOL     OW 2053   0.693   1.510   1.201 -0.1880 -0.9337  0.0828
  514SOL    HW2 2054   0.765   1.561   1.237 -1.0627 -0.6422  1.4878
  514SOL    HW3 2055   0.623   1.574   1.187 -0.0942 -1.1719 -1.4763
  514SOL    MW4 2056   0.693   1.525   1.204 -0.2910 -0.9266  0.0625
  515SOL     OW 2057   0.486   1.688   1.217  0.0796 -0.0502  0.0881
  515SOL    HW2 2058   0.486   1.699   1.312 -1.3531  1.6617 -0.0714
  515SOL    HW3 2059   0.396   1.664   1.196  0.6577 -1.5472 -0.7362
  515SOL    MW4 2060   0.474   1.687   1.227 -0.0332 -0.0218 -0.0417
  516SOL     OW 2061   0.442   1.953   1.158  0.2354 -0.0818 -0.2192
  516SOL    HW2 2062   0.437   1.868   1.202 -1.0862 -0.8474 -1.7919
  516SOL    HW3 2063   0.372   2.005   1.198 -0.6298 -0.6059 -1.0362
  516SOL    MW4 2064   0.432   1.949   1.169 -0.0531 -0.2519 -0.5345
  517SOL     OW 2065   0.678   2.074   1.230  0.2634  0.0371  0.0750
  517SOL    HW2 2066   0.664   2.085   1.324  0.1517  0.5305  0.0019
  517SOL    HW3 2067   0.599   2.031   1.199 -0.3389  1.1856 -0.0316
  517SOL    MW4 2068   0.665   2.070   1.238  0.1692  0.2537  0.0513
  518SOL     OW 2069   0.705   2.328   1.053  0.0670 -0.1249 -0.2665
  518SOL    HW2 2070   0.620   2.365   1.078 -0.2423  0.2743 -1.8982
  518SOL    HW3 2071   0.719   2.256   1.115 -0.0594  1.6769  1.9299
  518SOL    MW4 2072   0.696   2.324   1.065  0.0095  0.1655 -0.1920
  519SOL     OW 2073   0.459   2.411   1.157  0.5308 -0.4348 -0.0367
  519SOL    HW2 2074   0.454   2.415   1.252  0.9909 -0.8243  0.0094
  519SOL    HW3 2075   0.435   2.499   1.127  0.3997 -0.3093  0.4367
  519SOL    MW4 2076   0.455   2.423   1.165  0.5742 -0.4696  0.0318
  520SOL     OW 2077   0.441   2.702   1.139 -0.3209  0.0355 -0.6046
  520SOL    HW2 2078   0.362   2.741   1.177 -0.3013 -0.1275 -0.3986
  520SOL    HW3 2079   0.442   2.735   1.049  0.0109  0.9881 -0.2530
  520SOL    MW4 2080   0.430   2.712   1.132 -0.2745  0.1397 -0.5311
  521SOL     OW 2081   0.675   2.811   1.238  0.0896 -0.4602 -0.5530
  521SOL    HW2 2082   0.671   2.900   1.202 -0.0446  0.2315  1.1657
  521SOL    HW3 2083   0.592   2.771   1.211 -0.1850  0.1812 -0.6668
  521SOL    MW4 2084   0.664   2.818   1.229  0.0356 -0.2843 -0.3412
  522SOL     OW 2085   0.659   3.072   1.111 -0.9306  0.1718  0.0393
  522SOL    HW2 2086   0.723   3.118   1.164 -0.8912 -0.1021  0.2340
  522SOL    HW3 2087   0.669   3.108   1.023 -0.9056  0.5353  0.1918
  522SOL    MW4 2088   0.669   3.082   1.106 -0.9221  0.1836  0.0851
  523SOL     OW 2089   0.450   3.238   1.261  0.8726 -0.0941  0.2521
  523SOL    HW2 2090   0.458   3.326   1.224  0.7917 -0.0991  0.2233
  523SOL    HW3 2091   0.504   3.183   1.204 -0.6509 -0.4223 -0.9084
  523SOL    MW4 2092   0.458   3.243   1.248  0.6609 -0.1381  0.0952
  524SOL     OW 2093   0.460   3.500   1.146  0.1010  0.5296  0.8114
  524SOL    HW2 2094   0.530   3.566   1.150  0.0637  0.4988  2.4082
  524SOL    HW3 2095   0.384   3.544   1.185 -0.4101  0.1275  0.2720
  524SOL    MW4 2096   0.459   3.515   1.152  0.0287  0.4725  0.9509
  525SOL     OW 2097   0.690   3.628   1.209  0.1912 -0.0165 -0.2155
  525SOL    HW2 2098   0.675   3.628   1.304  0.3545 -2.1222 -0.1753
  525SOL    HW3 2099   0.719   3.717   1.190  2.6167 -0.2465  2.0947
  525SOL    MW4 2100   0.692   3.640   1.219  0.5328 -0.3247  0.0946
  526SOL     OW 2101   0.724   3.884   1.163 -0.3486  0.0855 -0.5749
  526SOL    HW2 2102   0.644   3.921   1.201 -0.9531 -0.2732 -1.4843
  526SOL    HW3 2103   0.711   3.890   1.069  0.4185 -0.5743 -0.7255
  526SOL    MW4 2104   0.712   3.889   1.156 -0.3271 -0.0489 -0.7147
  527SOL     OW 2105   0.464   3.964   1.263  0.0451  0.1123  0.0889
  527SOL    HW2 2106   0.462   4.051   1.224  0.8701  0.0242 -0.1560
  527SOL    HW3 2107   0.378   3.927   1.243 -0.3608  0.9099  0.3060
  527SOL    MW4 2108   0.452   3.971   1.255  0.1004  0.2059  0.0852
  528SOL     OW 2109   0.460   4.225   0.908 -0.1505 -0.3084 -0.3114
  528SOL    HW2 2110   0.445   4.135   0.877  0.3071 -0.4467 -0.1381
  528SOL    HW3 2111   0.470   4.216   1.002 -1.4011  0.0986 -0.1355
  528SOL    MW4 2112   0.460   4.212   0.916 -0.2551 -0.2730 -0.2653
  529SOL     OW 2113   0.452   4.215   1.192  0.0101  0.1037 -0.1204
  529SOL    HW2 2114   0.536   4.256   1.209 -0.2391 -0.3427  2.3081
  529SOL    HW3 2115   0.387   4.275   1.228 -0.5584 -0.7890  0.3556
  529SOL    MW4 2116   0.455   4.228   1.199 -0.0978 -0.0730  0.2628
  530SOL     OW 2117   1.111   4.654   1.164 -0.0895 -0.4364  0.0027
  530SOL    HW2 2118   1.119   4.567   1.204 -2.7166 -1.1124 -0.8201
  530SOL    HW3 2119   1.107   4.636   1.070 -1.1450  0.5192 -0.1424
  530SOL    MW4 2120   1.111   4.640   1.157 -0.5754 -0.3995 -0.1250
  531SOL     OW 2121   0.912   0.114   1.277  0.4336  0.6159  0.1309
  531SOL    HW2 2122   0.920   0.104   1.372  0.2572  1.6192  0.2597
  531SOL    HW3 2123   0.985   0.063   1.242  0.0310 -0.4194  0.7662
  531SOL    MW4 2124   0.922   0.106   1.285  0.3572  0.6117  0.2317
  532SOL     OW 2125   0.871   0.352   1.160 -0.2159 -0.8491 -0.3720
  532SOL    HW2 2126   0.883   0.269   1.206  0.4596 -0.0437  0.9014
  532SOL    HW3 2127   0.791   0.389   1.198  0.8971  0.2929  0.8943
  532SOL    MW4 2128   0.862   0.346   1.171  0.0201 -0.5922 -0.0369
  533SOL     OW 2129   1.094   0.500   1.250 -0.0393 -0.3147  0.1750
  533SOL    HW2 2130   1.080   0.519   1.343 -1.4366 -0.2722 -0.0330
  533SOL    HW3 2131   1.021   0.444   1.226 -1.5463  2.3311 -1.6967
  533SOL    MW4 2132   1.083   0.495   1.259 -0.4225  0.0400 -0.0994
  534SOL     OW 2133   1.139   0.753   1.103  0.1523  0.2114  0.0424
  534SOL    HW2 2134   1.062   0.805   1.124 -0.8603 -0.9045 -0.7993
  534SOL    HW3 2135   1.121   0.667   1.140  1.7209  0.3798  1.2475
  534SOL    MW4 2136   1.126   0.749   1.110  0.2257  0.0864  0.0903
  535SOL     OW 2137   0.884   0.861   1.198 -0.0111  0.6011 -0.4285
  535SOL    HW2 2138   0.868   0.954   1.179 -0.0513  0.6262 -0.2670
  535SOL    HW3 2139   0.805   0.817   1.165  0.6772  0.4512 -1.9408
  535SOL    MW4 2140   0.871   0.867   1.191  0.0744  0.5846 -0.6067
  536SOL     OW 2141   0.859   1.129   1.149 -0.0662 -0.1118 -0.0760
  536SOL    HW2 2142   0.938   1.173   1.180 -0.1780  0.2050 -0.2380
  536SOL    HW3 2143   0.862   1.139   1.054 -0.4678  0.1865 -0.0574
  536SOL    MW4 2144   0.870   1.136   1.141 -0.1339 -0.0306 -0.0949
  537SOL     OW 2145   1.103   1.230   1.226 -0.1169  0.0406  0.5867
  537SOL    HW2 2146   1.094   1.237   1.321 -0.0649  1.7775  0.4721
  537SOL    HW3 2147   1.195   1.205   1.213 -0.4071 -1.2907  1.0315
  537SOL    MW4 2148   1.114   1.227   1.237 -0.1483  0.0941  0.6302
  538SOL     OW 2149   1.133   1.495   1.167 -0.1380 -0.3028  0.4069
  538SOL    HW2 2150   1.120   1.400   1.169  0.8148 -0.4579 -0.4432
  538SOL    HW3 2151   1.125   1.519   1.075  0.2790  0.3452  0.5366
  538SOL    MW4 2152   1.130   1.486   1.155  0.0427 -0.2377  0.3119
  539SOL     OW 2153   0.924   1.677   1.281  0.3360  0.6637  0.2110
  539SOL    HW2 2154   0.923   1.761   1.235 -0.7548  0.5397  0.0069
  539SOL    HW3 2155   1.007   1.637   1.254  0.7235  1.5415  0.0763
  539SOL    MW4 2156   0.935   1.683   1.271  0.2432  0.7631  0.1663
  540SOL     OW 2157   0.897   1.918   1.155 -0.4560  0.2876 -0.1309
  540SOL    HW2 2158   0.979   1.968   1.154 -0.4327  0.2623  0.6164
  540SOL    HW3 2159   0.834   1.977   1.195 -0.5801 -0.0557  0.1737
  540SOL    MW4 2160   0.899   1.932   1.160 -0.4693  0.2389  0.0079
  541SOL     OW 2161   1.137   2.063   1.194  0.3617  0.0210  0.2521
  541SOL    HW2 2162   1.165   2.052   1.285  2.1177 -0.3370 -0.3103
  541SOL    HW3 2163   1.155   2.155   1.175 -0.2006  0.1483  0.3204
  541SOL    MW4 2164   1.143   2.074   1.204  0.5192 -0.0094  0.1869
  542SOL     OW 2165   1.180   2.311   1.098  0.2669  0.2518 -0.7160
  542SOL    HW2 2166   1.253   2.362   1.132 -0.1426  0.5960 -0.3533
  542SOL    HW3 2167   1.102   2.362   1.120 -0.1699 -0.6828 -0.0485
  542SOL    MW4 2168   1.179   2.324   1.105  0.1552  0.1739 -0.5801
  543SOL     OW 2169   0.937   2.462   1.161  0.0881 -0.3153  0.2573
  543SOL    HW2 2170   0.930   2.461   1.256  0.4128 -0.0171  0.2852
  543SOL    HW3 2171   0.854   2.427   1.130 -0.3777  0.4605  0.6295
  543SOL    MW4 2172   0.925   2.457   1.169  0.0695 -0.1736  0.3101
  544SOL     OW 2173   0.890   2.724   1.100  0.3063  0.4164  0.1876
  544SOL    HW2 2174   0.909   2.637   1.136 -0.3669  0.1536 -0.0799
  544SOL    HW3 2175   0.803   2.746   1.136 -0.3960  0.1302 -1.2934
  544SOL    MW4 2176   0.881   2.716   1.110  0.1248  0.3440 -0.0431
  545SOL     OW 2177   1.096   2.881   1.203 -0.0176  0.0007  0.4543
  545SOL    HW2 2178   1.106   2.843   1.290  1.7481 -0.4760  0.0711
  545SOL    HW3 2179   1.024   2.832   1.164  1.0941 -1.8105  0.6085
  545SOL    MW4 2180   1.088   2.869   1.209  0.3620 -0.3012  0.4241
  546SOL     OW 2181   1.119   3.145   1.140 -0.0925 -0.2168  0.1680
  546SOL    HW2 2182   1.116   3.134   1.045  1.6236  0.6328 -0.0088
  546SOL    HW3 2183   1.120   3.056   1.175 -0.7739 -0.5256 -0.6184
  546SOL    MW4 2184   1.119   3.132   1.132  0.0440 -0.1455  0.0409
  547SOL     OW 2185   0.856   3.210   1.236 -0.3905 -0.0442  0.2653
  547SOL    HW2 2186   0.856   3.306   1.234 -0.3572  0.0013  1.6076
  547SOL    HW3 2187   0.947   3.185   1.217 -0.4054  0.1923 -0.1082
  547SOL    MW4 2188   0.868   3.219   1.234 -0.3881 -0.0070  0.3931
  548SOL     OW 2189   0.907   3.472   1.196  0.0617  0.3134  0.0480
  548SOL    HW2 2190   0.835   3.533   1.212 -0.2190 -0.2404  0.9463
  548SOL    HW3 2191   0.918   3.472   1.101  0.3571  2.0866  0.0721
  548SOL    MW4 2192   0.899   3.480   1.185  0.0636  0.4743  0.1697
  549SOL     OW 2193   1.149   3.603   1.231  0.6033  0.1628 -0.1120
  549SOL    HW2 2194   1.223   3.549   1.204  0.3057 -0.3982  0.2022
  549SOL    HW3 2195   1.071   3.552   1.207  0.3281  0.1167  0.8496
  549SOL    MW4 2196   1.148   3.589   1.224  0.5277  0.0827  0.0563
  550SOL     OW 2197   1.146   3.872   1.155 -0.5787 -0.2529 -0.1287
  550SOL    HW2 2198   1.078   3.898   1.217 -0.4026 -0.8718  0.3292
  550SOL    HW3 2199   1.161   3.779   1.173  1.3282  0.1911  0.6730
  550SOL    MW4 2200   1.139   3.863   1.165 -0.3039 -0.2760  0.0375
  551SOL     OW 2201   0.947   3.960   1.315  0.0624 -0.2558  0.1115
  551SOL    HW2 2202   0.907   3.976   1.400 -0.1773  1.2706 -0.2697
  551SOL    HW3 2203   0.875   3.934   1.258 -0.0551  0.4055 -0.0456
  551SOL    MW4 2204   0.932   3.958   1.319  0.0153  0.0328  0.0405
  552SOL     OW 2205   0.678   4.346   1.277 -0.0239 -0.2281  0.4221
  552SOL    HW2 2206   0.760   4.299   1.261 -1.0521 -1.9376  0.0183
  552SOL    HW3 2207   0.667   4.345   1.372  0.1957 -0.3871  0.4452
  552SOL    MW4 2208   0.688   4.340   1.287 -0.1306 -0.4747  0.3719
  553SOL     OW 2209   1.129   4.404   1.280  0.1891 -0.5474 -0.5423
  553SOL    HW2 2210   1.130   4.398   1.376  1.4369 -1.4393 -0.5977
  553SOL    HW3 2211   1.051   4.355   1.253 -1.3865  1.5298  0.1087
  553SOL    MW4 2212   1.119   4.396   1.289  0.1458 -0.3910 -0.4637
  554SOL     OW 2213   1.556   4.651   1.153  0.2712 -0.2879  0.6581
  554SOL    HW2 2214   1.629   4.704   1.185 -1.2613  1.2346  1.7148
  554SOL    HW3 2215   1.564   4.568   1.201  1.4174 -0.2129  0.6068
  554SOL    MW4 2216   1.566   4.647   1.164  0.2202 -0.0771  0.7907
  555SOL     OW 2217   1.337   0.124   1.246 -0.5462  0.0739  0.0583
  555SOL    HW2 2218   1.412   0.080   1.205 -0.3518  0.7080 -0.2777
  555SOL    HW3 2219   1.263   0.066   1.230 -0.5597  0.5126 -1.5788
  555SOL    MW4 2220   1.337   0.111   1.239 -0.5223  0.2154 -0.2020
  556SOL     OW 2221   1.303   0.369   1.115 -0.3345  0.2918 -0.1770
  556SOL    HW2 2222   1.308   0.279   1.146 -0.3102  0.6969  1.0307
  556SOL    HW3 2223   1.223   0.404   1.155 -0.3980  0.7834 -0.7180
  556SOL    MW4 2224   1.293   0.362   1.124 -0.3397  0.4101 -0.0890
  557SOL     OW 2225   1.516   0.477   1.239 -0.4299  0.0240  0.1285
  557SOL    HW2 2226   1.517   0.561   1.194 -0.0014 -1.0649 -1.9860
  557SOL    HW3 2227   1.446   0.428   1.196 -0.0483 -1.0317  0.6902
  557SOL    MW4 2228   1.507   0.481   1.227 -0.3230 -0.2590 -0.0763
  558SOL     OW 2229   1.572   0.721   1.116  0.0451  0.2330 -0.5841
  558SOL    HW2 2230   1.655   0.759   1.146  0.3526 -0.4084 -0.6267
  558SOL    HW3 2231   1.566   0.745   1.024  0.6259 -0.5066 -0.8155
  558SOL    MW4 2232   1.582   0.730   1.108  0.1623  0.0508 -0.6203
  559SOL     OW 2233   1.351   0.859   1.226  0.2227  0.2417  0.1535
  559SOL    HW2 2234   1.428   0.808   1.200  0.6662  0.0716  1.7466
  559SOL    HW3 2235   1.277   0.809   1.192  0.7782  0.0464 -0.7988
  559SOL    MW4 2236   1.352   0.846   1.218  0.3545  0.1935  0.2380
  560SOL     OW 2237   1.365   1.134   1.148  0.0293  0.0254 -0.1239
  560SOL    HW2 2238   1.363   1.045   1.184 -0.7209 -0.0362 -0.3024
  560SOL    HW3 2239   1.350   1.122   1.054  0.3743  0.3033 -0.2129
  560SOL    MW4 2240   1.363   1.121   1.140 -0.0242  0.0539 -0.1592
  561SOL     OW 2241   1.585   1.297   1.265  0.1068  0.3272  0.4508
  561SOL    HW2 2242   1.651   1.233   1.238  0.6934  1.1282 -0.0528
  561SOL    HW3 2243   1.509   1.278   1.210  0.0559 -0.3463  0.7518
  561SOL    MW4 2244   1.584   1.286   1.254  0.1775  0.3440  0.4241
  562SOL     OW 2245   1.553   1.538   1.167 -0.1279 -0.0431  0.6473
  562SOL    HW2 2246   1.623   1.599   1.191 -0.3014  0.9420 -1.2198
  562SOL    HW3 2247   1.577   1.456   1.209  2.1990  0.2575 -0.0288
  562SOL    MW4 2248   1.566   1.536   1.176  0.1562  0.1265  0.3118
  563SOL     OW 2249   1.323   1.675   1.237 -0.0596  0.1759  0.0482
  563SOL    HW2 2250   1.407   1.631   1.224  0.2240 -0.0424  2.3554
  563SOL    HW3 2251   1.257   1.611   1.210  0.5025  0.2977 -1.6395
  563SOL    MW4 2252   1.325   1.661   1.232  0.0520  0.1632  0.1300
  564SOL     OW 2253   1.323   1.904   1.083  0.0455  0.2238 -0.4129
  564SOL    HW2 2254   1.308   1.821   1.128  1.8618  1.4669  2.6002
  564SOL    HW3 2255   1.255   1.962   1.117  1.6702  1.2828  1.1237
  564SOL    MW4 2256   1.312   1.900   1.093  0.4995  0.5275  0.1874
  565SOL     OW 2257   1.542   2.050   1.219 -0.4794  0.3061 -0.4800
  565SOL    HW2 2258   1.529   2.136   1.180 -0.4593  0.0761 -0.9974
  565SOL    HW3 2259   1.469   1.997   1.186 -1.7353  0.7109  1.5822
  565SOL    MW4 2260   1.531   2.055   1.209 -0.6424  0.3291 -0.2762
  566SOL     OW 2261   1.550   2.303   1.112  0.0450 -0.4393 -0.0876
  566SOL    HW2 2262   1.487   2.367   1.145  1.0944  0.3646  0.3834
  566SOL    HW3 2263   1.549   2.315   1.017 -1.4918 -1.3599 -0.1974
  566SOL    MW4 2264   1.542   2.313   1.104 -0.0193 -0.4547 -0.0399
  567SOL     OW 2265   1.358   2.483   1.216  0.2376 -0.1976  0.5734
  567SOL    HW2 2266   1.361   2.492   1.311  0.9000  0.2186  0.5197
  567SOL    HW3 2267   1.340   2.571   1.183  0.2638 -0.2911  0.3016
  567SOL    MW4 2268   1.356   2.496   1.224  0.3284 -0.1550  0.5305
  568SOL     OW 2269   1.320   2.729   1.103  0.0523 -0.0664 -0.1924
  568SOL    HW2 2270   1.399   2.768   1.140  0.0853 -1.1175  0.8677
  568SOL    HW3 2271   1.248   2.780   1.139  0.1250 -0.6265  0.7723
  568SOL    MW4 2272   1.321   2.741   1.112  0.0663 -0.2790  0.0748
  569SOL     OW 2273   1.563   2.832   1.217  0.0427 -0.2920 -0.8806
  569SOL    HW2 2274   1.637   2.790   1.174 -0.6302 -0.1351 -2.2525
  569SOL    HW3 2275   1.563   2.922   1.182 -0.7630 -0.2820 -0.8700
  569SOL    MW4 2276   1.573   2.839   1.207 -0.1524 -0.2700 -1.0602
  570SOL     OW 2277   1.587   3.095   1.104 -1.0111  0.8174  0.3789
  570SOL    HW2 2278   1.661   3.138   1.147 -1.9104  1.5167  1.2531
  570SOL    HW3 2279   1.509   3.137   1.142 -1.8883 -0.8232  0.4335
  570SOL    MW4 2280   1.586   3.106   1.115 -1.2455  0.6932  0.5014
  571SOL     OW 2281   1.364   3.222   1.221 -0.5173 -0.1314 -0.6751
  571SOL    HW2 2282   1.356   3.203   1.314 -0.4190  0.2044 -0.6000
  571SOL    HW3 2283   1.278   3.201   1.185 -0.4525 -0.5944 -0.5682
  571SOL    MW4 2284   1.352   3.216   1.228 -0.4958 -0.1482 -0.6511
  572SOL     OW 2285   1.375   3.475   1.126  0.5510  0.2022 -0.2155
  572SOL    HW2 2286   1.378   3.390   1.169  2.0684  0.3650  0.0414
  572SOL    HW3 2287   1.389   3.455   1.033 -1.0932  0.0044 -0.4396
  572SOL    MW4 2288   1.377   3.462   1.119  0.5343  0.1976 -0.2112
  573SOL     OW 2289   1.572   3.623   1.248  0.0825 -0.1477 -0.0349
  573SOL    HW2 2290   1.568   3.715   1.221 -0.4082 -0.7527 -2.1280
  573SOL    HW3 2291   1.500   3.581   1.201  1.3525 -1.9288 -0.4576
  573SOL    MW4 2292   1.562   3.630   1.238  0.1853 -0.4625 -0.3669
  574SOL     OW 2293   1.571   3.910   1.196 -0.2799 -0.2081  0.1063
  574SOL    HW2 2294   1.491   3.960   1.217 -0.9272 -0.7522 -1.0119
  574SOL    HW3 2295   1.563   3.890   1.103  1.1238 -0.3631  0.0134
  574SOL    MW4 2296   1.559   3.914   1.186 -0.1801 -0.3003 -0.0535
  575SOL     OW 2297   1.336   4.040   1.294 -0.0691  0.2674  0.1550
  575SOL    HW2 2298   1.269   3.987   1.250  0.2884  0.1938 -0.3054
  575SOL    HW3 2299   1.322   4.128   1.259 -0.8179  0.5311  1.0996
  575SOL    MW4 2300   1.325   4.045   1.283 -0.1207  0.2925  0.2189
  576SOL     OW 2301   1.337   4.284   1.163  0.2235  0.1406  0.0778
  576SOL    HW2 2302   1.270   4.347   1.188  0.2149 -0.2712  1.0946
  576SOL    HW3 2303   1.320   4.267   1.070 -0.4511  0.7995  0.0782
  576SOL    MW4 2304   1.326   4.290   1.154  0.1333  0.1732  0.2120
  577SOL     OW 2305   1.564   4.397   1.277 -0.5262  0.3201 -1.0067
  577SOL    HW2 2306   1.543   4.415   1.368  2.1563  1.1308 -0.5046
  577SOL    HW3 2307   1.492   4.343   1.246 -1.3460 -0.1802  1.6621
  577SOL    MW4 2308   1.552   4.392   1.285 -0.2805  0.3611 -0.5883
  578SOL     OW 2309   1.984   0.009   1.139  0.4634 -0.1110 -0.2467
  578SOL    HW2 2310   1.988  -0.082   1.169 -1.3657  0.2135  1.0570
  578SOL    HW3 2311   1.974   0.002   1.044  0.5757 -1.2674 -0.1823
  578SOL    MW4 2312   1.983  -0.004   1.130  0.2369 -0.2208 -0.0662
  579SOL     OW 2313   1.753   0.136   1.274 -0.3565  0.2409 -0.3302
  579SOL    HW2 2314   1.764   0.227   1.245  1.2899  0.5250  1.0706
  579SOL    HW3 2315   1.827   0.090   1.234  0.0989 -0.0085  0.7911
  579SOL    MW4 2316   1.765   0.142   1.265 -0.0792  0.2454  0.0025
  580SOL     OW 2317   1.774   0.399   1.164  0.3142 -0.0257 -0.1774
  580SOL    HW2 2318   1.693   0.441   1.193 -0.0791 -0.8586 -0.0388
  580SOL    HW3 2319   1.770   0.402   1.068  0.2209  0.1359 -0.1678
  580SOL    MW4 2320   1.763   0.405   1.155  0.2500 -0.1143 -0.1578
  581SOL     OW 2321   2.032   0.438   1.228  0.6688  0.3250 -0.4900
  581SOL    HW2 2322   2.033   0.456   1.322 -0.1146  0.9259 -0.5889
  581SOL    HW3 2323   1.939   0.423   1.208  0.4456  3.0627 -1.6938
  581SOL    MW4 2324   2.020   0.438   1.238  0.5360  0.7655 -0.6619
  582SOL     OW 2325   1.800   0.817   1.229 -0.0910 -0.1500  0.0613
  582SOL    HW2 2326   1.785   0.841   1.321 -0.0368 -0.1159  0.0611
  582SOL    HW3 2327   1.888   0.780   1.228  0.5864  1.4650 -0.2942
  582SOL    MW4 2328   1.809   0.815   1.241  0.0055  0.0676  0.0144
  583SOL     OW 2329   1.795   1.097   1.203 -0.1076  0.2042 -0.5807
  583SOL    HW2 2330   1.787   1.002   1.216  2.0907  0.1220  0.4056
  583SOL    HW3 2331   1.816   1.106   1.110  0.4290 -0.3201 -0.5122
  583SOL    MW4 2332   1.796   1.085   1.192  0.2532  0.1242 -0.4415
  584SOL     OW 2333   1.826   0.860   0.799 -0.2053 -0.3329 -0.2509
  584SOL    HW2 2334   1.830   0.860   0.703 -0.4673 -1.8489 -0.2753
  584SOL    HW3 2335   1.732   0.863   0.818 -0.2005 -1.3794 -0.0563
  584SOL    MW4 2336   1.814   0.861   0.789 -0.2393 -0.6710 -0.2285
  585SOL     OW 2337   1.988   1.308   1.231  0.1493 -0.1439  0.1804
  585SOL    HW2 2338   2.065   1.253   1.213  0.6551  0.2567  1.0674
  585SOL    HW3 2339   1.918   1.245   1.250  0.7548 -0.4854  1.3191
  585SOL    MW4 2340   1.989   1.292   1.231  0.2959 -0.1361  0.4476
  586SOL     OW 2341   2.017   1.572   1.162  0.5053 -0.5136 -0.0664
  586SOL    HW2 2342   1.993   1.485   1.194 -0.0103 -0.1595  0.5163
  586SOL    HW3 2343   2.032   1.560   1.068  0.9226 -1.3255  0.1019
  586SOL    MW4 2344   2.016   1.559   1.154  0.4923 -0.5740  0.0327
  587SOL     OW 2345   1.779   1.693   1.235  0.3021  0.0637 -0.0434
  587SOL    HW2 2346   1.776   1.779   1.193  0.6516  0.5831  0.9665
  587SOL    HW3 2347   1.859   1.653   1.202  1.1757  0.9306  0.9926
  587SOL    MW4 2348   1.789   1.699   1.225  0.4635  0.2466  0.2265
  588SOL     OW 2349   1.796   1.942   1.111  0.0742  0.4740 -0.4298
  588SOL    HW2 2350   1.706   1.973   1.120 -0.2254  0.0203 -1.8430
  588SOL    HW3 2351   1.816   1.952   1.018  1.3897  0.3216 -0.1679
  588SOL    MW4 2352   1.787   1.947   1.100  0.2082  0.3940 -0.5817
  589SOL     OW 2353   2.017   2.057   1.210 -0.1475  0.9021 -0.1890
  589SOL    HW2 2354   2.031   2.056   1.305  0.6491 -2.3937 -0.2745
  589SOL    HW3 2355   1.936   2.009   1.197  0.2772  0.4607 -1.2548
  589SOL    MW4 2356   2.008   2.051   1.221  0.0137  0.4090 -0.3409
  590SOL     OW 2357   1.970   2.295   1.100  0.0405  0.2372 -0.6655
  590SOL    HW2 2358   2.056   2.334   1.116 -0.0082  0.0453  0.1146
  590SOL    HW3 2359   1.981   2.203   1.125 -0.6358  0.4109  0.3094
  590SOL    MW4 2360   1.983   2.288   1.105 -0.0551  0.2348 -0.4339
  591SOL     OW 2361   1.749   2.422   1.239 -0.0218  0.0274 -0.2011
  591SOL    HW2 2362   1.822   2.385   1.189  0.7571  0.8832  0.2825
  591SOL    HW3 2363   1.671   2.398   1.189  0.4753 -2.0658 -0.0073
  591SOL    MW4 2364   1.748   2.414   1.226  0.1466 -0.1359 -0.1117
  592SOL     OW 2365   1.791   2.670   1.100  0.0751 -0.2169 -0.0539
  592SOL    HW2 2366   1.779   2.591   1.151  0.5032 -0.7437 -0.7640
  592SOL    HW3 2367   1.796   2.640   1.009  1.7932  0.4569 -0.1967
  592SOL    MW4 2368   1.790   2.656   1.094  0.3582 -0.1975 -0.1665
  593SOL     OW 2369   1.996   2.802   1.234 -0.2301 -0.0067 -0.7477
  593SOL    HW2 2370   2.012   2.890   1.200  1.6664 -0.8411 -2.1572
  593SOL    HW3 2371   1.923   2.769   1.182  0.2118  0.1105 -1.4587
  593SOL    MW4 2372   1.988   2.809   1.223  0.0784 -0.1013 -1.0275
  594SOL     OW 2373   2.011   3.064   1.134 -0.1074  0.5821  0.6592
  594SOL    HW2 2374   1.927   3.108   1.142 -0.9269 -0.6832 -0.8217
  594SOL    HW3 2375   2.033   3.069   1.041  0.7735 -0.3036  0.8091
  594SOL    MW4 2376   2.003   3.070   1.123 -0.0993  0.2983  0.4836
  595SOL     OW 2377   1.797   3.210   1.242  0.0390  0.0590  0.1979
  595SOL    HW2 2378   1.792   3.207   1.338 -0.1265  2.1207  0.2732
  595SOL    HW3 2379   1.801   3.304   1.221  0.3764 -0.3845 -1.7976
  595SOL    MW4 2380   1.797   3.222   1.252  0.0617  0.2725 -0.0554
  596SOL     OW 2381   1.799   3.469   1.194 -0.2424 -0.0524 -0.3949
  596SOL    HW2 2382   1.873   3.528   1.208 -0.4127  0.7651 -2.6613
  596SOL    HW3 2383   1.722   3.525   1.203 -0.5155 -0.5121  0.1320
  596SOL    MW4 2384   1.799   3.484   1.197 -0.3009 -0.0052 -0.6244
  597SOL     OW 2385   1.999   3.654   1.233 -0.0696 -0.5879 -0.1531
  597SOL    HW2 2386   2.017   3.670   1.325 -2.2798 -1.8466  0.5263
  597SOL    HW3 2387   2.072   3.600   1.203  1.1590  0.6345  0.5737
  597SOL    MW4 2388   2.011   3.649   1.241 -0.1991 -0.5927  0.0324
  598SOL     OW 2389   2.000   3.905   1.165  0.3859  0.2007 -0.1230
  598SOL    HW2 2390   1.930   3.945   1.215  0.7347  0.2418  0.3335
  598SOL    HW3 2391   1.991   3.811   1.180  1.1103  0.2811  0.8346
  598SOL    MW4 2392   1.990   3.897   1.173  0.5275  0.2167  0.0636
  599SOL     OW 2393   1.787   4.034   1.262  0.3233  0.3036 -0.0261
  599SOL    HW2 2394   1.789   4.031   1.357 -0.7546  0.5685  0.0091
  599SOL    HW3 2395   1.712   3.981   1.237 -0.0500  1.1295 -0.6798
  599SOL    MW4 2396   1.777   4.027   1.271  0.1319  0.4475 -0.1077
  600SOL     OW 2397   1.780   4.283   1.139  0.4077 -0.0229  0.5671
  600SOL    HW2 2398   1.782   4.192   1.170  0.2673 -0.5112 -0.7924
  600SOL    HW3 2399   1.711   4.324   1.190 -2.1774 -1.7089 -1.4231
  600SOL    MW4 2400   1.771   4.276   1.150  0.0481 -0.3098  0.1252
  601SOL     OW 2401   2.005   4.412   1.238  0.0826  0.3857 -0.3510
  601SOL    HW2 2402   1.995   4.422   1.332  0.7833 -0.1921 -0.2081
  601SOL    HW3 2403   1.924   4.369   1.209  0.4940 -0.7624  0.2060
  601SOL    MW4 2404   1.993   4.407   1.246  0.2293  0.1580 -0.2587
  602SOL     OW 2405   2.445   4.625   1.110  0.0604  0.2987 -0.1128
  602SOL    HW2 2406   2.522   4.670   1.143  1.3318 -2.1566  0.4168
  602SOL    HW3 2407   2.371   4.670   1.150  1.2324  2.3696 -0.2442
  602SOL    MW4 2408   2.445   4.637   1.119  0.3828  0.2480 -0.0602
  603SOL     OW 2409   2.239   0.099   1.239  0.1449  0.0440  0.3528
  603SOL    HW2 2410   2.246   0.191   1.211  0.7787 -0.1091  0.0067
  603SOL    HW3 2411   2.149   0.075   1.218  0.5990 -0.0526 -1.5487
  603SOL    MW4 2412   2.228   0.108   1.233  0.2884  0.0111  0.0563
  604SOL     OW 2413   2.280   0.355   1.120  0.3464  0.1236 -0.1500
  604SOL    HW2 2414   2.194   0.380   1.154  0.6996 -0.0759  0.9004
  604SOL    HW3 2415   2.271   0.361   1.025 -0.4370  1.3925 -0.0042
  604SOL    MW4 2416   2.268   0.359   1.112  0.2896  0.2647  0.0078
  605SOL     OW 2417   2.463   0.507   1.290  0.1314  0.2898  0.4373
  605SOL    HW2 2418   2.471   0.500   1.385  0.1433 -3.0178  0.2354
  605SOL    HW3 2419   2.383   0.460   1.269 -0.4504  1.9260 -1.1274
  605SOL    MW4 2420   2.453   0.500   1.300  0.0562  0.0693  0.2042
  606SOL     OW 2421   2.500   0.758   1.214 -0.2037 -0.2008  0.1616
  606SOL    HW2 2422   2.466   0.674   1.246  1.2879 -0.6027  0.7370
  606SOL    HW3 2423   2.489   0.753   1.119 -1.3365 -0.5015  0.2999
  606SOL    MW4 2424   2.494   0.746   1.205 -0.1564 -0.2935  0.2558
  607SOL     OW 2425   2.243   0.879   1.264 -0.6511  0.3742 -0.1123
  607SOL    HW2 2426   2.321   0.828   1.240 -1.8744 -1.6127 -0.0279
  607SOL    HW3 2427   2.171   0.834   1.220 -1.7958  1.9966  0.0704
  607SOL    MW4 2428   2.244   0.866   1.255 -0.9635  0.3261 -0.0771
  608SOL     OW 2429   2.227   1.160   1.217  0.8077 -0.2571  0.0372
  608SOL    HW2 2430   2.293   1.216   1.257  0.8548 -1.1897  1.2943
  608SOL    HW3 2431   2.255   1.071   1.238  0.8907 -0.7882 -2.1759
  608SOL    MW4 2432   2.239   1.156   1.225  0.8248 -0.4502 -0.0889
  609SOL     OW 2433   2.483   1.325   1.259 -0.0655 -0.0869  0.0844
  609SOL    HW2 2434   2.546   1.255   1.242  0.2890  0.0654  0.7734
  609SOL    HW3 2435   2.503   1.391   1.193 -0.0606 -0.4070 -0.2369
  609SOL    MW4 2436   2.494   1.324   1.248 -0.0181 -0.1090  0.1329
  610SOL     OW 2437   2.501   1.548   1.090  0.3675 -0.3030 -0.0389
  610SOL    HW2 2438   2.424   1.595   1.120  0.6195  0.6916 -0.9014
  610SOL    HW3 2439   2.489   1.541   0.995  0.7449 -1.2185 -0.0181
  610SOL    MW4 2440   2.490   1.553   1.081  0.4505 -0.2926 -0.1500
  611SOL     OW 2441   2.280   1.691   1.214  0.0406 -0.0832  0.2193
  611SOL    HW2 2442   2.273   1.783   1.188  0.0843  0.0291  0.6069
  611SOL    HW3 2443   2.192   1.656   1.199 -0.3556  0.3753  1.4103
  611SOL    MW4 2444   2.267   1.699   1.209 -0.0059 -0.0079  0.4275
  612SOL     OW 2445   2.288   1.934   1.081 -0.2479 -0.3148 -0.2497
  612SOL    HW2 2446   2.218   1.989   1.116  0.3671  0.6022 -0.4568
  612SOL    HW3 2447   2.266   1.924   0.988 -0.2649 -0.2822 -0.2492
  612SOL    MW4 2448   2.276   1.940   1.074 -0.1690 -0.1895 -0.2770
  613SOL     OW 2449   2.510   2.018   1.224 -0.2519 -0.7281 -0.3461
  613SOL    HW2 2450   2.579   1.979   1.171  0.0096 -2.2315  1.0480
  613SOL    HW3 2451   2.431   1.968   1.203  0.0625 -2.0142  1.3689
  613SOL    MW4 2452   2.509   2.006   1.215 -0.1759 -1.0961  0.0641
  614SOL     OW 2453   2.455   2.286   1.140 -0.5238 -0.0968  0.8101
  614SOL    HW2 2454   2.477   2.200   1.175 -2.2896 -0.5946  0.7562
  614SOL    HW3 2455   2.455   2.274   1.045 -1.5034 -0.2447  0.8202
  614SOL    MW4 2456   2.458   2.273   1.132 -0.8860 -0.1820  0.8043
  615SOL     OW 2457   2.211   2.410   1.184  0.3964  0.1872 -0.3591
  615SOL    HW2 2458   2.220   2.434   1.276 -0.8019  0.9046 -0.4263
  615SOL    HW3 2459   2.283   2.348   1.169  1.1682  0.7810  0.8048
  615SOL    MW4 2460   2.222   2.405   1.194  0.3402  0.3602 -0.2144
  616SOL     OW 2461   2.225   2.679   1.117 -0.1706  0.0684 -0.2196
  616SOL    HW2 2462   2.229   2.589   1.146  2.2665  0.5206  0.9814
  616SOL    HW3 2463   2.147   2.715   1.158 -1.0733 -1.4256 -0.5940
  616SOL    MW4 2464   2.215   2.672   1.126  0.0319 -0.0691 -0.1105
  617SOL     OW 2465   2.410   2.851   1.248  0.3411 -0.3238 -0.6978
  617SOL    HW2 2466   2.407   2.833   1.342 -1.4614  2.3894 -0.1753
  617SOL    HW3 2467   2.341   2.796   1.211 -1.9340  1.8317  0.2164
  617SOL    MW4 2468   2.400   2.841   1.255 -0.1969  0.3185 -0.5082
  618SOL     OW 2469   2.421   3.098   1.137 -0.6497 -0.3917 -0.5147
  618SOL    HW2 2470   2.338   3.137   1.165 -0.6197 -0.9033  0.3075
  618SOL    HW3 2471   2.426   3.016   1.185  1.0479  0.3325  0.5966
  618SOL    MW4 2472   2.410   3.092   1.147 -0.4218 -0.3636 -0.2596
  619SOL     OW 2473   2.205   3.218   1.255 -0.2990  0.0444  0.3052
  619SOL    HW2 2474   2.193   3.309   1.228 -0.0612  0.4296  1.4576
  619SOL    HW3 2475   2.141   3.169   1.204  0.5838  0.6638 -1.4158
  619SOL    MW4 2476   2.195   3.223   1.245 -0.1512  0.1769  0.2301
  620SOL     OW 2477   2.202   3.485   1.154  0.0508 -0.5625 -0.3078
  620SOL    HW2 2478   2.289   3.517   1.178 -0.1984 -0.2262  0.1599
  620SOL    HW3 2479   2.212   3.452   1.064  0.1662  1.4274 -1.0464
  620SOL    MW4 2480   2.215   3.485   1.145  0.0332 -0.2556 -0.3436
  621SOL     OW 2481   2.462   3.573   1.236 -0.2510  0.1190 -0.5187
  621SOL    HW2 2482   2.476   3.573   1.331 -1.2061  0.6942 -0.3775
  621SOL    HW3 2483   2.468   3.665   1.211 -1.5797  0.1440 -0.7845
  621SOL    MW4 2484   2.465   3.585   1.245 -0.5523  0.1982 -0.5351
  622SOL     OW 2485   2.473   3.825   1.114 -0.2306 -0.1716 -0.5857
  622SOL    HW2 2486   2.393   3.875   1.131 -0.1381  0.2071 -1.2184
  622SOL    HW3 2487   2.477   3.820   1.018  0.8535  0.3955 -0.5799
  622SOL    MW4 2488   2.463   3.831   1.104 -0.0753 -0.0468 -0.6684
  623SOL     OW 2489   2.271   3.969   1.212 -0.1600 -0.5227  0.2345
  623SOL    HW2 2490   2.260   4.060   1.185  0.5993 -0.3864  0.3747
  623SOL    HW3 2491   2.182   3.932   1.209 -0.6850  0.5690  1.4411
  623SOL    MW4 2492   2.257   3.976   1.208 -0.1291 -0.3607  0.4122
  624SOL     OW 2493   2.216   4.219   1.149  0.1639  0.2098 -0.5109
  624SOL    HW2 2494   2.147   4.276   1.185  1.6145  1.5063  0.2761
  624SOL    HW3 2495   2.222   4.244   1.057 -0.0993  0.4103 -0.4761
  624SOL    MW4 2496   2.207   4.230   1.142  0.3205  0.4073 -0.4025
  625SOL     OW 2497   2.460   4.363   1.213 -0.3683  0.2633 -0.0456
  625SOL    HW2 2498   2.384   4.304   1.207 -1.7010  1.6092  2.6837
  625SOL    HW3 2499   2.430   4.444   1.170 -0.6763  0.9470  1.4188
  625SOL    MW4 2500   2.446   4.366   1.206 -0.5848  0.5311  0.5077
  626SOL     OW 2501   2.919   4.617   1.171  0.2796 -0.7216  0.0470
  626SOL    HW2 2502   2.904   4.526   1.198  2.7780 -1.4403 -0.8199
  626SOL    HW3 2503   2.901   4.617   1.077 -0.7426 -0.0670  0.2382
  626SOL    MW4 2504   2.915   4.605   1.162  0.4744 -0.7300 -0.0422
  627SOL     OW 2505   2.648   0.084   1.216  0.0165 -0.1317 -0.3119
  627SOL    HW2 2506   2.649   0.088   1.312 -0.2329 -0.5680 -0.2889
  627SOL    HW3 2507   2.739   0.066   1.192  0.1466  0.3359 -0.1738
  627SOL    MW4 2508   2.660   0.082   1.226  0.0008 -0.1276 -0.2906
  628SOL     OW 2509   2.692   0.369   1.184 -0.0476  0.0526  0.4293
  628SOL    HW2 2510   2.676   0.277   1.205 -1.8898 -0.1790 -1.7456
  628SOL    HW3 2511   2.610   0.414   1.208  0.6959  1.0710  1.1107
  628SOL    MW4 2512   2.679   0.363   1.190 -0.1925  0.1564  0.2322
  629SOL     OW 2513   2.909   0.479   1.293  0.0972  0.0861 -0.4073
  629SOL    HW2 2514   2.915   0.569   1.264  0.1788 -0.1730 -1.1997
  629SOL    HW3 2515   2.827   0.446   1.255 -0.5247  0.1690  0.8345
  629SOL    MW4 2516   2.899   0.486   1.284  0.0259  0.0629 -0.3480
  630SOL     OW 2517   2.950   0.715   1.142  0.1414  0.0289  0.0173
  630SOL    HW2 2518   3.022   0.759   1.187 -0.3631  0.8276  0.0383
  630SOL    HW3 2519   2.876   0.776   1.148 -1.0474 -1.5096  1.5362
  630SOL    MW4 2520   2.950   0.729   1.149 -0.0821 -0.0687  0.2204
  631SOL     OW 2521   2.736   0.877   1.196 -0.0096 -0.2919 -0.0321
  631SOL    HW2 2522   2.736   0.970   1.172 -0.0827 -0.4780 -0.7702
  631SOL    HW3 2523   2.643   0.851   1.193 -0.0235 -0.3139  0.4835
  631SOL    MW4 2524   2.724   0.886   1.193 -0.0210 -0.3193 -0.0614
  632SOL     OW 2525   2.680   1.153   1.153 -0.3508  0.3812  0.0028
  632SOL    HW2 2526   2.765   1.196   1.156 -0.1815  0.0255  0.4417
  632SOL    HW3 2527   2.646   1.172   1.066  1.0035 -1.0450 -0.8759
  632SOL    MW4 2528   2.687   1.161   1.142 -0.1498  0.1461 -0.0552
  633SOL     OW 2529   2.947   1.266   1.190  0.0491 -0.1697 -0.4327
  633SOL    HW2 2530   2.950   1.268   1.286 -0.0863 -1.1137 -0.4078
  633SOL    HW3 2531   2.916   1.354   1.166  0.4932  0.2128  0.3671
  633SOL    MW4 2532   2.943   1.278   1.200  0.0898 -0.2438 -0.3239
  634SOL     OW 2533   2.915   1.526   1.117  0.6982 -0.2518  0.5189
  634SOL    HW2 2534   2.994   1.574   1.142  1.3670 -1.0512 -0.0089
  634SOL    HW3 2535   2.923   1.514   1.022 -0.3352  0.1419  0.3729
  634SOL    MW4 2536   2.926   1.531   1.108  0.6501 -0.3053  0.4300
  635SOL     OW 2537   2.695   1.674   1.239 -0.4201  0.1969 -0.3355
  635SOL    HW2 2538   2.779   1.637   1.214 -0.0181  0.5284  0.5359
  635SOL    HW3 2539   2.632   1.633   1.179  0.2606 -0.5512 -0.5391
  635SOL    MW4 2540   2.697   1.664   1.228 -0.2773  0.1419 -0.2474
  636SOL     OW 2541   2.725   1.926   1.091 -0.2896  0.1316  0.0133
  636SOL    HW2 2542   2.808   1.957   1.126  0.2418  0.3611 -1.3995
  636SOL    HW3 2543   2.713   1.840   1.131 -0.0681  0.6960  1.3052
  636SOL    MW4 2544   2.735   1.919   1.101 -0.1902  0.2364 -0.0027
  637SOL     OW 2545   2.962   1.996   1.230 -0.0313 -0.3175  0.2491
  637SOL    HW2 2546   2.944   1.996   1.324  0.4967  0.2736  0.3566
  637SOL    HW3 2547   2.966   2.089   1.206 -1.0955 -0.4601 -0.5414
  637SOL    MW4 2548   2.960   2.009   1.239 -0.1020 -0.2583  0.1590
  638SOL     OW 2549   2.911   2.261   1.152 -0.1148 -0.1564 -0.1514
  638SOL    HW2 2550   2.982   2.310   1.194  0.4778 -1.0642 -0.0733
  638SOL    HW3 2551   2.832   2.310   1.175  0.4868  0.8933 -0.2839
  638SOL    MW4 2552   2.910   2.274   1.161  0.0427 -0.1377 -0.1586
  639SOL     OW 2553   2.693   2.397   1.209 -0.2296  0.5044  0.1710
  639SOL    HW2 2554   2.682   2.398   1.304 -1.8631  1.0437 -0.0106
  639SOL    HW3 2555   2.619   2.345   1.177 -0.2859  1.2189 -0.8721
  639SOL    MW4 2556   2.681   2.390   1.217 -0.4525  0.6698  0.0094
  640SOL     OW 2557   2.611   2.671   1.172  0.2976 -0.0931  0.0331
  640SOL    HW2 2558   2.598   2.580   1.196  0.3691 -0.1613 -0.1840
  640SOL    HW3 2559   2.531   2.715   1.200  0.8456  0.0367  1.3925
  640SOL    MW4 2560   2.599   2.665   1.179  0.3794 -0.0850  0.1838
  641SOL     OW 2561   2.869   2.771   1.220 -0.0710 -0.5305 -0.4184
  641SOL    HW2 2562   2.871   2.791   1.313 -0.7343  0.2804 -0.5756
  641SOL    HW3 2563   2.784   2.728   1.207  0.0002 -0.5978 -0.6547
  641SOL    MW4 2564   2.858   2.768   1.231 -0.1491 -0.4324 -0.4703
  642SOL     OW 2565   2.853   3.024   1.121  0.5363 -0.0086 -0.2094
  642SOL    HW2 2566   2.866   2.931   1.136  0.1730  0.2294  1.6665
  642SOL    HW3 2567   2.849   3.033   1.025 -2.1786 -2.2855 -0.3719
  642SOL    MW4 2568   2.854   3.013   1.110  0.1302 -0.2776  0.0167
  643SOL     OW 2569   2.675   3.210   1.262  0.2499 -0.3088  0.1200
  643SOL    HW2 2570   2.728   3.134   1.240 -0.0068 -0.8009  1.1778
  643SOL    HW3 2571   2.586   3.184   1.240  0.5068  0.7883 -2.3704
  643SOL    MW4 2572   2.670   3.196   1.256  0.2499 -0.2290 -0.0690
  644SOL     OW 2573   2.682   3.452   1.097  0.1914  0.0899  0.0302
  644SOL    HW2 2574   2.697   3.366   1.137  1.2290  0.6780  0.9247
  644SOL    HW3 2575   2.607   3.488   1.145  0.2401  0.0033  0.1729
  644SOL    MW4 2576   2.674   3.445   1.109  0.3347  0.1561  0.1670
  645SOL     OW 2577   2.904   3.558   1.216  0.3065 -0.0561  0.0372
  645SOL    HW2 2578   2.982   3.503   1.212  0.2741 -0.0780 -0.2897
  645SOL    HW3 2579   2.838   3.509   1.168  0.3512  0.3953 -0.4873
  645SOL    MW4 2580   2.905   3.544   1.210  0.3081  0.0006 -0.0751
  646SOL     OW 2581   2.890   3.836   1.162  0.3105  0.1488 -0.5359
  646SOL    HW2 2582   2.982   3.863   1.160  0.2074  0.4773 -0.9299
  646SOL    HW3 2583   2.891   3.748   1.199  0.5933  0.9425  1.3960
  646SOL    MW4 2584   2.902   3.828   1.167  0.3342  0.2969 -0.3330
  647SOL     OW 2585   2.659   3.966   1.261 -0.0750  0.1166 -0.0601
  647SOL    HW2 2586   2.739   3.925   1.227  0.2785 -1.1368  2.1696
  647SOL    HW3 2587   2.588   3.922   1.213  0.4576 -0.5887 -0.2203
  647SOL    MW4 2588   2.660   3.954   1.250  0.0419 -0.1418  0.2130
  648SOL     OW 2589   2.716   4.221   1.144 -0.1157  0.2339 -0.1799
  648SOL    HW2 2590   2.699   4.137   1.187  0.6145  0.2944  0.2279
  648SOL    HW3 2591   2.640   4.275   1.167 -0.9605 -0.5617 -1.0837
  648SOL    MW4 2592   2.704   4.217   1.153 -0.1308  0.1369 -0.2453
  649SOL     OW 2593   2.923   4.345   1.269  0.1239  0.1489  1.1261
  649SOL    HW2 2594   2.994   4.285   1.248  0.5630  1.3373 -0.9529
  649SOL    HW3 2595   2.844   4.300   1.240  0.3344  0.0579  0.6813
  649SOL    MW4 2596   2.922   4.331   1.262  0.2096  0.2937  0.7931
  650SOL     OW 2597   3.393   4.592   1.121  0.2230 -0.1435  0.5804
  650SOL    HW2 2598   3.473   4.641   1.141 -0.2038  1.5612 -1.7406
  650SOL    HW3 2599   3.323   4.648   1.153 -0.1799 -0.1284 -0.3231
  650SOL    MW4 2600   3.395   4.606   1.128  0.1135  0.0834  0.1550
  651SOL     OW 2601   3.162   0.080   1.201  0.1985 -0.2034  0.1566
  651SOL    HW2 2602   3.168   0.088   1.296 -0.1788 -0.5841  0.2156
  651SOL    HW3 2603   3.082   0.029   1.186  0.3331 -0.2715 -0.3572
  651SOL    MW4 2604   3.152   0.074   1.211  0.1665 -0.2626  0.0966
  652SOL     OW 2605   3.114   0.357   1.152 -0.0129 -0.0932 -0.2253
  652SOL    HW2 2606   3.096   0.265   1.170  1.3526 -0.3081  0.0875
  652SOL    HW3 2607   3.039   0.404   1.190 -1.0165 -1.1014 -0.9260
  652SOL    MW4 2608   3.102   0.351   1.159  0.0349 -0.2546 -0.2765
  653SOL     OW 2609   3.356   0.442   1.222 -0.2580 -0.1137  0.0585
  653SOL    HW2 2610   3.362   0.533   1.193 -1.6615 -0.5466 -1.6903
  653SOL    HW3 2611   3.271   0.412   1.189 -0.2597 -1.7460  1.5007
  653SOL    MW4 2612   3.345   0.450   1.214 -0.4434 -0.3862  0.0181
  654SOL     OW 2613   3.400   0.700   1.166 -0.1474  0.2317  0.0929
  654SOL    HW2 2614   3.322   0.755   1.179  0.6815  1.6957 -0.8869
  654SOL    HW3 2615   3.412   0.698   1.071  0.5999 -0.5803  0.1998
  654SOL    MW4 2616   3.391   0.707   1.155  0.0605  0.3177 -0.0222
  655SOL     OW 2617   3.185   0.854   1.230  0.2390  0.3033  0.2763
  655SOL    HW2 2618   3.201   0.860   1.325 -0.1581  0.2115  0.3488
  655SOL    HW3 2619   3.192   0.944   1.199 -1.0537  0.5246  0.6176
  655SOL    MW4 2620   3.188   0.867   1.239  0.0160  0.3203  0.3309
  656SOL     OW 2621   3.167   1.125   1.104  0.1130 -0.0064 -0.1758
  656SOL    HW2 2622   3.234   1.165   1.159 -0.9923 -1.0881  2.0365
  656SOL    HW3 2623   3.086   1.166   1.132 -0.3280  0.3420 -1.9205
  656SOL    MW4 2624   3.165   1.136   1.115 -0.0910 -0.1031 -0.1141
  657SOL     OW 2625   3.379   1.254   1.236  0.0360 -0.3528 -0.2252
  657SOL    HW2 2626   3.404   1.260   1.328 -0.0955  0.8365 -0.2571
  657SOL    HW3 2627   3.373   1.345   1.207 -2.2912 -0.6683 -0.7762
  657SOL    MW4 2628   3.382   1.267   1.244 -0.2884 -0.2375 -0.3021
  658SOL     OW 2629   3.388   1.506   1.125 -0.3613  0.1144 -0.2620
  658SOL    HW2 2630   3.466   1.550   1.158 -1.2513  1.2399  0.3656
  658SOL    HW3 2631   3.316   1.565   1.147 -1.1729  0.1074 -2.7285
  658SOL    MW4 2632   3.389   1.520   1.132 -0.5858  0.2620 -0.5046
  659SOL     OW 2633   3.174   1.652   1.212  0.3760 -0.1320  0.3235
  659SOL    HW2 2634   3.207   1.647   1.301 -1.6705 -0.7536  1.0658
  659SOL    HW3 2635   3.182   1.744   1.188 -0.3168  0.2833  1.6487
  659SOL    MW4 2636   3.179   1.664   1.220  0.0146 -0.1592  0.5963
  660SOL     OW 2637   3.190   1.908   1.125 -0.2971  0.0481  0.1245
  660SOL    HW2 2638   3.272   1.946   1.158  0.0247 -0.6145  0.0882
  660SOL    HW3 2639   3.122   1.949   1.179  0.0243  0.8567 -0.0696
  660SOL    MW4 2640   3.192   1.919   1.136 -0.2122  0.0674  0.0941
  661SOL     OW 2641   3.400   2.005   1.254 -0.0671  0.2023 -0.2622
  661SOL    HW2 2642   3.472   1.952   1.218 -0.0739  0.4084 -0.5865
  661SOL    HW3 2643   3.400   2.084   1.199 -0.4946  0.2331 -0.2136
  661SOL    MW4 2644   3.410   2.008   1.242 -0.1244  0.2335 -0.2986
  662SOL     OW 2645   3.362   2.244   1.141  0.1977  0.4108 -0.1459
  662SOL    HW2 2646   3.435   2.305   1.156  0.9668 -0.7766  1.0936
  662SOL    HW3 2647   3.292   2.277   1.198  0.8010 -0.1678  0.9448
  662SOL    MW4 2648   3.362   2.257   1.151  0.3788  0.1778  0.1615
  663SOL     OW 2649   3.148   2.393   1.251 -0.1774  0.1113 -0.2803
  663SOL    HW2 2650   3.150   2.432   1.338  3.2274  1.9286 -1.0647
  663SOL    HW3 2651   3.128   2.467   1.193 -2.4553 -1.0918 -1.0635
  663SOL    MW4 2652   3.146   2.408   1.255 -0.0287  0.1923 -0.4871
  664SOL     OW 2653   3.125   2.673   1.118 -0.1514 -0.7833  0.1164
  664SOL    HW2 2654   3.052   2.705   1.171 -0.4768 -0.0552 -0.7516
  664SOL    HW3 2655   3.102   2.698   1.028  1.3995 -0.0877 -0.1074
  664SOL    MW4 2656   3.112   2.680   1.113  0.0103 -0.5954 -0.0277
  665SOL     OW 2657   3.353   2.812   1.231  0.2112 -0.2775 -0.4085
  665SOL    HW2 2658   3.343   2.896   1.186  0.6732 -0.8565 -1.6371
  665SOL    HW3 2659   3.278   2.760   1.202 -0.7098  0.0884  1.2552
  665SOL    MW4 2660   3.342   2.816   1.221  0.1506 -0.3056 -0.3511
  666SOL     OW 2661   3.328   3.065   1.131  0.0911 -0.4468  0.0573
  666SOL    HW2 2662   3.395   3.111   1.182 -0.7821 -1.2927  2.0108
  666SOL    HW3 2663   3.246   3.085   1.176 -0.7959 -0.6091 -1.4671
  666SOL    MW4 2664   3.326   3.073   1.144 -0.1411 -0.5798  0.1140
  667SOL     OW 2665   3.060   3.149   1.244 -0.5170  0.0701  0.4231
  667SOL    HW2 2666   3.066   3.237   1.208  0.0598 -0.1540 -0.0419
  667SOL    HW3 2667   2.992   3.106   1.192 -0.3587  0.0513  0.2268
  667SOL    MW4 2668   3.052   3.155   1.232 -0.4200  0.0380  0.3359
  668SOL     OW 2669   3.122   3.394   1.142 -0.3521  0.3066 -0.2151
  668SOL    HW2 2670   3.206   3.429   1.172  0.3415 -0.1000 -1.6129
  668SOL    HW3 2671   3.125   3.406   1.047 -1.2022 -1.1676 -0.4309
  668SOL    MW4 2672   3.134   3.400   1.133 -0.3727  0.0585 -0.4280
  669SOL     OW 2673   3.343   3.555   1.251 -0.2242  0.0537 -0.2566
  669SOL    HW2 2674   3.337   3.573   1.345 -1.4987 -1.6508  0.0230
  669SOL    HW3 2675   3.425   3.507   1.241 -0.2121  0.0053  0.0467
  669SOL    MW4 2676   3.353   3.551   1.262 -0.3907 -0.1776 -0.1797
  670SOL     OW 2677   3.398   3.803   1.147 -0.5654 -0.1093 -0.0681
  670SOL    HW2 2678   3.392   3.714   1.181 -1.3928  0.0575  0.2345
  670SOL    HW3 2679   3.331   3.852   1.194 -0.5703  0.5188 -0.7100
  670SOL    MW4 2680   3.388   3.797   1.157 -0.6752 -0.0044 -0.1129
  671SOL     OW 2681   3.168   3.938   1.234  0.1343  0.2633  0.3314
  671SOL    HW2 2682   3.154   3.943   1.328  1.3571  0.8973  0.4790
  671SOL    HW3 2683   3.165   4.029   1.204  0.2220  0.1023 -0.1776
  671SOL    MW4 2684   3.165   3.951   1.242  0.3072  0.3257  0.2837
  672SOL     OW 2685   3.165   4.194   1.134 -0.3521 -0.6955  0.1903
  672SOL    HW2 2686   3.239   4.246   1.166 -0.8053 -0.8190  1.4630
  672SOL    HW3 2687   3.158   4.217   1.041 -0.5791  1.5868  0.7372
  672SOL    MW4 2688   3.174   4.204   1.126 -0.4418 -0.4106  0.4303
  673SOL     OW 2689   3.382   4.354   1.235  0.1999  0.3548 -0.1093
  673SOL    HW2 2690   3.468   4.311   1.234  0.0946  0.1453 -2.1641
  673SOL    HW3 2691   3.396   4.437   1.190 -0.5881  0.5047 -0.0856
  673SOL    MW4 2692   3.395   4.359   1.229  0.0820  0.3470 -0.3773
  674SOL     OW 2693   3.828   4.636   1.140 -0.0313 -0.4095  0.1694
  674SOL    HW2 2694   3.820   4.549   1.179 -1.3222 -0.3777  0.0076
  674SOL    HW3 2695   3.821   4.620   1.045  0.2733 -0.1941  0.1125
  674SOL    MW4 2696   3.826   4.622   1.132 -0.1614 -0.3768  0.1406
  675SOL     OW 2697   3.597   0.074   1.228 -0.1810 -0.0760 -0.3462
  675SOL    HW2 2698   3.595   0.163   1.194 -0.5988 -0.3595 -1.0644
  675SOL    HW3 2699   3.682   0.040   1.199  0.6639  0.6021  1.2616
  675SOL    MW4 2700   3.608   0.081   1.220 -0.1246 -0.0240 -0.2288
  676SOL     OW 2701   3.603   0.348   1.146  0.4212  0.3847 -0.0817
  676SOL    HW2 2702   3.677   0.401   1.177  0.0484  0.9157 -0.0892
  676SOL    HW3 2703   3.526   0.393   1.179  0.0964 -0.1480 -0.1106
  676SOL    MW4 2704   3.603   0.361   1.154  0.3291  0.3845 -0.0865
  677SOL     OW 2705   3.819   0.515   1.231 -0.2301  0.3673 -0.2693
  677SOL    HW2 2706   3.891   0.464   1.193 -0.6230  0.1897 -0.7759
  677SOL    HW3 2707   3.826   0.601   1.190  0.4402  0.7303  0.5954
  677SOL    MW4 2708   3.829   0.520   1.220 -0.1935  0.3918 -0.2220
  678SOL     OW 2709   3.862   0.750   1.102  0.5030  0.3415  0.1603
  678SOL    HW2 2710   3.935   0.795   1.146  0.8186  0.2259 -0.2479
  678SOL    HW3 2711   3.783   0.788   1.142  0.7615  1.4135 -0.3246
  678SOL    MW4 2712   3.861   0.761   1.113  0.5787  0.4677  0.0425
  679SOL     OW 2713   3.628   0.860   1.208 -0.2408  0.3159  0.3371
  679SOL    HW2 2714   3.608   0.944   1.168 -0.0994 -0.0855 -0.5948
  679SOL    HW3 2715   3.551   0.806   1.191  0.9233 -0.7278 -1.8518
  679SOL    MW4 2716   3.615   0.864   1.201 -0.0686  0.1253 -0.0747
  680SOL     OW 2717   3.588   1.134   1.090 -0.1330 -0.1090  0.3180
  680SOL    HW2 2718   3.661   1.167   1.143  0.6496  1.1738 -1.5156
  680SOL    HW3 2719   3.510   1.173   1.130  0.2425 -0.7114  1.6919
  680SOL    MW4 2720   3.587   1.143   1.102  0.0198 -0.0193  0.2573
  681SOL     OW 2721   3.839   1.233   1.229  0.3682  0.2214  0.4969
  681SOL    HW2 2722   3.840   1.230   1.325  1.7210  0.0260  0.4885
  681SOL    HW3 2723   3.844   1.326   1.208 -0.6683  0.3059  0.6168
  681SOL    MW4 2724   3.840   1.245   1.239  0.4099  0.2068  0.5116
  682SOL     OW 2725   3.842   1.510   1.176 -0.0297  0.1339 -0.4213
  682SOL    HW2 2726   3.925   1.558   1.175  0.5418 -0.8347 -1.3113
  682SOL    HW3 2727   3.818   1.504   1.083 -0.3943 -0.7597 -0.2708
  682SOL    MW4 2728   3.850   1.515   1.163 -0.0024 -0.1118 -0.5189
  683SOL     OW 2729   3.602   1.647   1.245 -0.4981 -0.0235 -0.1890
  683SOL    HW2 2730   3.603   1.738   1.215 -0.5092 -0.0305 -0.2106
  683SOL    HW3 2731   3.687   1.612   1.217 -0.8299 -0.2573 -0.9107
  683SOL    MW4 2732   3.614   1.655   1.237 -0.5433 -0.0553 -0.2871
  684SOL     OW 2733   3.629   1.902   1.143 -0.1680 -0.4821 -0.1171
  684SOL    HW2 2734   3.711   1.945   1.167 -0.3538 -0.8520  1.2472
  684SOL    HW3 2735   3.625   1.907   1.048  1.3445 -0.2977 -0.1714
  684SOL    MW4 2736   3.639   1.909   1.134  0.0070 -0.5065  0.0557
  685SOL     OW 2737   3.856   2.066   1.218 -0.3272  0.1146 -0.0443
  685SOL    HW2 2738   3.833   2.059   1.311  0.6970  2.5926  0.4306
  685SOL    HW3 2739   3.938   2.018   1.210 -0.5600 -0.3449  0.2634
  685SOL    MW4 2740   3.863   2.059   1.230 -0.2228  0.3809  0.0589
  686SOL     OW 2741   3.802   2.313   1.111  0.4581  0.6778  0.0023
  686SOL    HW2 2742   3.872   2.368   1.146  1.6651 -0.0814 -1.1713
  686SOL    HW3 2743   3.821   2.225   1.145 -1.1274  0.8641  1.3938
  686SOL    MW4 2744   3.814   2.308   1.120  0.4081  0.6022  0.0311
  687SOL     OW 2745   3.556   2.421   1.212 -0.2678 -0.0371  0.2330
  687SOL    HW2 2746   3.567   2.416   1.307 -0.3403 -1.8178  0.1584
  687SOL    HW3 2747   3.636   2.384   1.176 -1.0228 -1.0952 -0.3844
  687SOL    MW4 2748   3.568   2.415   1.220 -0.3770 -0.4117  0.1417
  688SOL     OW 2749   3.587   2.679   1.142 -0.1809  0.5539 -0.1697
  688SOL    HW2 2750   3.563   2.592   1.174  0.6554  0.2719 -0.3023
  688SOL    HW3 2751   3.516   2.736   1.171  0.8593  0.4229  2.7257
  688SOL    MW4 2752   3.574   2.675   1.150  0.0667  0.4994  0.1948
  689SOL     OW 2753   3.812   2.813   1.218 -0.1496  0.2459 -0.4827
  689SOL    HW2 2754   3.827   2.792   1.310  2.3013  1.1240 -0.6408
  689SOL    HW3 2755   3.739   2.757   1.192  0.1536 -1.1499  1.5720
  689SOL    MW4 2756   3.805   2.803   1.226  0.2138  0.1776 -0.2325
  690SOL     OW 2757   3.740   3.066   1.157 -0.1280 -0.7667 -0.8106
  690SOL    HW2 2758   3.768   2.977   1.175 -0.4690 -0.9737 -1.2769
  690SOL    HW3 2759   3.741   3.073   1.061  0.2093 -0.1716 -0.7686
  690SOL    MW4 2760   3.744   3.055   1.146 -0.1285 -0.7155 -0.8666
  691SOL     OW 2761   3.520   3.157   1.289  0.3279  0.7275  0.0111
  691SOL    HW2 2762   3.517   3.247   1.256 -1.0300  0.4743 -0.6207
  691SOL    HW3 2763   3.597   3.118   1.248  0.8448  1.5608  0.1829
  691SOL    MW4 2764   3.529   3.164   1.279  0.2170  0.8040 -0.0496
  692SOL     OW 2765   3.572   3.418   1.161 -0.0648  1.0704  0.0390
  692SOL    HW2 2766   3.639   3.487   1.158  1.0816 -0.0744 -1.1270
  692SOL    HW3 2767   3.554   3.398   1.070  1.5353 -2.0234  0.3624
  692SOL    MW4 2768   3.578   3.425   1.149  0.2976  0.5111 -0.0722
  693SOL     OW 2769   3.793   3.587   1.168 -0.0515  0.1963 -0.4131
  693SOL    HW2 2770   3.801   3.599   1.262 -2.4600  1.0358 -0.2943
  693SOL    HW3 2771   3.825   3.669   1.131 -0.5474  0.4520 -0.2717
  693SOL    MW4 2772   3.798   3.599   1.175 -0.4347  0.3408 -0.3788
  694SOL     OW 2773   3.866   3.852   1.078  0.6071  0.5005  0.0536
  694SOL    HW2 2774   3.789   3.895   1.116 -0.2199 -1.3564  0.5132
  694SOL    HW3 2775   3.844   3.842   0.986 -0.3345 -1.3598  0.4664
  694SOL    MW4 2776   3.853   3.857   1.071  0.3738  0.0101  0.1687
  695SOL     OW 2777   3.636   3.944   1.237 -0.7741  0.1551  0.0080
  695SOL    HW2 2778   3.636   3.954   1.332  0.2591 -0.5138  0.0960
  695SOL    HW3 2779   3.569   3.877   1.220  0.0538 -0.8002  0.4107
  695SOL    MW4 2780   3.627   3.936   1.248 -0.5285 -0.0592  0.0727
  696SOL     OW 2781   3.608   4.202   1.162  0.0149 -0.4186  0.5868
  696SOL    HW2 2782   3.605   4.108   1.179 -1.3426 -0.1344  2.0917
  696SOL    HW3 2783   3.582   4.211   1.070 -1.7496 -1.3980  0.9596
  696SOL    MW4 2784   3.604   4.191   1.152 -0.3970 -0.5104  0.8345
  697SOL     OW 2785   3.807   4.366   1.232  0.3359 -0.6037  0.1499
  697SOL    HW2 2786   3.791   4.357   1.326 -0.6393 -0.7046 -0.0208
  697SOL    HW3 2787   3.742   4.309   1.191 -1.3702  1.9028 -0.7107
  697SOL    MW4 2788   3.796   4.357   1.239 -0.0179 -0.2863  0.0138
  698SOL     OW 2789   4.287   4.600   1.143 -0.2566 -0.2808  0.3335
  698SOL    HW2 2790   4.300   4.522   1.197 -0.4418  0.5872  1.6353
  698SOL    HW3 2791   4.199   4.631   1.166 -0.7285 -0.4419 -1.1686
  698SOL    MW4 2792   4.277   4.593   1.153 -0.3433 -0.1875  0.3071
  699SOL     OW 2793   4.063   0.092   1.233  0.0350  0.4107 -0.2071
  699SOL    HW2 2794   4.064   0.077   1.328  0.3921  1.0664 -0.1068
  699SOL    HW3 2795   3.979   0.055   1.205  0.4628 -0.9043  0.1752
  699SOL    MW4 2796   4.052   0.085   1.242  0.1386  0.3238 -0.1434
  700SOL     OW 2797   4.046   0.364   1.125 -0.0341 -0.0677 -0.2856
  700SOL    HW2 2798   4.071   0.275   1.149  0.1590  0.1554  0.3331
  700SOL    HW3 2799   4.047   0.363   1.029 -0.4607 -0.8524 -0.2945
  700SOL    MW4 2800   4.049   0.352   1.115 -0.0649 -0.1418 -0.2052
  701SOL     OW 2801   4.270   0.493   1.216  0.1676 -0.1814 -0.1454
  701SOL    HW2 2802   4.265   0.512   1.310 -0.4900  0.0330 -0.2235
  701SOL    HW3 2803   4.185   0.454   1.195 -0.1551  0.9090 -0.9022
  701SOL    MW4 2804   4.258   0.491   1.226  0.0383 -0.0093 -0.2556
  702SOL     OW 2805   4.312   0.743   1.130  0.0059 -0.0759 -0.2516
  702SOL    HW2 2806   4.294   0.650   1.142 -0.8256  0.2166  0.8479
  702SOL    HW3 2807   4.296   0.758   1.037  3.3226 -1.6846 -1.1458
  702SOL    MW4 2808   4.307   0.733   1.119  0.3338 -0.2495 -0.2245
  703SOL     OW 2809   4.075   0.862   1.224  0.0822 -0.1705 -0.2945
  703SOL    HW2 2810   4.088   0.871   1.318 -0.1401 -0.0468 -0.2752
  703SOL    HW3 2811   4.157   0.824   1.192  0.6298  0.9651 -0.2395
  703SOL    MW4 2812   4.087   0.858   1.232  0.1251 -0.0043 -0.2847
  704SOL     OW 2813   4.087   1.119   1.150  0.3517  0.1493  0.4210
  704SOL    HW2 2814   4.093   1.031   1.188  0.3347 -0.3705 -0.7663
  704SOL    HW3 2815   3.994   1.142   1.157  0.2495 -0.1822  0.1702
  704SOL    MW4 2816   4.075   1.110   1.156  0.3359  0.0369  0.2313
  705SOL     OW 2817   4.231   1.335   1.248 -0.5135  0.0931 -0.2271
  705SOL    HW2 2818   4.259   1.296   1.330  1.0489 -0.6932 -1.1190
  705SOL    HW3 2819   4.182   1.266   1.203  0.7518 -0.2985 -1.0319
  705SOL    MW4 2820   4.228   1.321   1.253 -0.1404 -0.0623 -0.4510
  706SOL     OW 2821   4.298   1.579   1.138  0.3586 -0.2779  0.5710
  706SOL    HW2 2822   4.276   1.504   1.193  0.2538 -0.0453  0.8478
  706SOL    HW3 2823   4.363   1.627   1.189  0.2273 -0.0373  0.5099
  706SOL    MW4 2824   4.304   1.575   1.152  0.3274 -0.2154  0.5994
  707SOL     OW 2825   4.062   1.685   1.229  0.1025  0.1308 -0.2880
  707SOL    HW2 2826   4.054   1.660   1.321 -0.6243  0.4239 -0.2694
  707SOL    HW3 2827   4.150   1.656   1.204  0.1411 -0.3370  0.3763
  707SOL    MW4 2828   4.073   1.678   1.238  0.0117  0.1077 -0.1979
  708SOL     OW 2829   4.098   1.928   1.111  0.6497  0.2599 -0.4277
  708SOL    HW2 2830   4.082   1.842   1.149  0.1883  0.8856  0.8133
  708SOL    HW3 2831   4.086   1.916   1.017  0.6405 -1.0380 -0.2587
  708SOL    MW4 2832   4.095   1.915   1.104  0.5876  0.1712 -0.2416
  709SOL     OW 2833   4.278   2.094   1.252  0.0507  0.7934 -0.1066
  709SOL    HW2 2834   4.253   2.184   1.230 -0.9386  0.5375 -0.0214
  709SOL    HW3 2835   4.219   2.039   1.201 -0.2660  0.1900  0.8852
  709SOL    MW4 2836   4.267   2.098   1.242 -0.1216  0.6800  0.0355
  710SOL     OW 2837   4.274   2.342   1.122  0.3294  0.0842  0.5048
  710SOL    HW2 2838   4.196   2.388   1.154  0.9696  0.6445  1.2818
  710SOL    HW3 2839   4.261   2.335   1.028 -1.7456 -1.8614  0.8824
  710SOL    MW4 2840   4.262   2.347   1.114  0.1401 -0.0986  0.6571
  711SOL     OW 2841   4.025   2.437   1.201  0.0387 -0.1686 -0.1615
  711SOL    HW2 2842   4.027   2.431   1.296  0.7139 -2.2297 -0.2818
  711SOL    HW3 2843   4.040   2.530   1.182 -1.2391  0.4433  1.7599
  711SOL    MW4 2844   4.027   2.449   1.211 -0.0408 -0.3598  0.0761
  712SOL     OW 2845   4.045   2.683   1.117  0.3479  0.1232 -0.2819
  712SOL    HW2 2846   3.969   2.735   1.144  0.8984  1.0886 -0.5440
  712SOL    HW3 2847   4.031   2.666   1.024  0.4477  0.3055 -0.3314
  712SOL    MW4 2848   4.033   2.688   1.108  0.4337  0.2746 -0.3230
  713SOL     OW 2849   4.288   2.802   1.209 -0.2296 -0.3332  0.2038
  713SOL    HW2 2850   4.278   2.896   1.192 -0.8686 -0.5400 -0.5595
  713SOL    HW3 2851   4.210   2.762   1.172 -0.0426 -1.1547  0.6850
  713SOL    MW4 2852   4.276   2.809   1.202 -0.2893 -0.4689  0.1666
  714SOL     OW 2853   4.241   3.069   1.175 -0.0851 -0.4334  0.7302
  714SOL    HW2 2854   4.163   3.119   1.200 -0.3854  0.1492 -1.2085
  714SOL    HW3 2855   4.234   3.062   1.079  2.4725  0.0407  0.4711
  714SOL    MW4 2856   4.230   3.075   1.166  0.2127 -0.2940  0.4402
  715SOL     OW 2857   3.990   3.173   1.217 -0.1382 -0.4930 -0.1094
  715SOL    HW2 2858   3.984   3.168   1.313 -1.2548  0.1616 -0.1435
  715SOL    HW3 2859   3.911   3.129   1.186 -1.0389  1.4725 -0.6814
  715SOL    MW4 2860   3.979   3.167   1.226 -0.4044 -0.1473 -0.1894
  716SOL     OW 2861   4.033   3.434   1.107 -0.0211  0.6593 -0.1530
  716SOL    HW2 2862   4.039   3.342   1.134  0.4115  0.3614 -1.2635
  716SOL    HW3 2863   3.947   3.462   1.139 -0.0598 -0.0616  0.3906
  716SOL    MW4 2864   4.022   3.426   1.115  0.0309  0.5249 -0.2278
  717SOL     OW 2865   4.258   3.570   1.227  0.1756  0.0924  0.1834
  717SOL    HW2 2866   4.189   3.518   1.186  1.5510 -0.0569 -1.9828
  717SOL    HW3 2867   4.339   3.537   1.188  1.3780  1.2167  1.6786
  717SOL    MW4 2868   4.260   3.559   1.217  0.5157  0.2210  0.0949
  718SOL     OW 2869   4.247   3.847   1.183 -0.1940  0.3168 -0.1349
  718SOL    HW2 2870   4.172   3.889   1.224  0.0464  1.6824 -1.0594
  718SOL    HW3 2871   4.234   3.753   1.198 -1.8086  0.5852  0.1610
  718SOL    MW4 2872   4.235   3.840   1.190 -0.3753  0.5324 -0.2179
  719SOL     OW 2873   4.026   3.979   1.276 -0.5521  0.3524  0.0679
  719SOL    HW2 2874   4.032   4.072   1.255 -1.7924  0.8989  2.0364
  719SOL    HW3 2875   3.970   3.942   1.207 -0.9625  1.2599 -0.0848
  719SOL    MW4 2876   4.019   3.986   1.264 -0.7699  0.5443  0.3075
  720SOL     OW 2877   4.272   4.357   1.281 -0.1667 -0.0494  0.0179
  720SOL    HW2 2878   4.191   4.322   1.245  0.6912 -0.2171 -1.7967
  720SOL    HW3 2879   4.341   4.312   1.233  0.9942  1.6362  0.0722
  720SOL    MW4 2880   4.271   4.346   1.270  0.0997  0.1509 -0.2144
  721SOL     OW 2881   4.040   4.234   1.175  0.0244 -0.5181  0.0465
  721SOL    HW2 2882   3.959   4.284   1.185  0.7199  1.1404 -2.0236
  721SOL    HW3 2883   4.047   4.217   1.081  0.6565 -3.1452  0.5266
  721SOL    MW4 2884   4.031   4.239   1.164  0.1996 -0.6459 -0.1633
  722SOL     OW 2885   0.234   4.644   1.664  0.5079  0.1312  0.5830
  722SOL    HW2 2886   0.314   4.687   1.634  0.1359  0.0870 -0.4921
  722SOL    HW3 2887   0.166   4.675   1.604  0.0931 -1.3637  0.2442
  722SOL    MW4 2888   0.235   4.654   1.652  0.4041 -0.0719  0.3965
  723SOL     OW 2889   0.032   0.094   1.507  0.3161 -0.0463 -0.2337
  723SOL    HW2 2890  -0.044   0.044   1.535 -0.3457  1.5254  0.8651
  723SOL    HW3 2891   0.023   0.102   1.413 -0.6847 -0.1879 -0.1502
  723SOL    MW4 2892   0.021   0.088   1.499  0.0967  0.1424 -0.0777
  724SOL     OW 2893   0.044   0.388   1.591 -0.1174 -0.4297 -0.3555
  724SOL    HW2 2894   0.045   0.393   1.687  1.8224 -0.7349 -0.3259
  724SOL    HW3 2895   0.025   0.296   1.572  2.0973 -0.9513 -0.1904
  724SOL    MW4 2896   0.042   0.376   1.601  0.4307 -0.5388 -0.3298
  725SOL     OW 2897   0.255   0.532   1.475  0.1503  0.3366  0.2336
  725SOL    HW2 2898   0.178   0.480   1.495  0.0516  0.6493  0.6642
  725SOL    HW3 2899   0.244   0.556   1.383 -0.5883  0.9180  0.4680
  725SOL    MW4 2900   0.243   0.528   1.465  0.0398  0.4546  0.3213
  726SOL     OW 2901   0.215   0.771   1.648  0.3588 -0.4526  0.1862
  726SOL    HW2 2902   0.274   0.838   1.613  1.7651 -1.6991  0.1120
  726SOL    HW3 2903   0.236   0.692   1.598 -0.7408 -1.1481  0.7922
  726SOL    MW4 2904   0.225   0.769   1.637  0.3992 -0.7088  0.2564
  727SOL     OW 2905   0.017   0.899   1.498 -0.1282 -0.0069 -0.5159
  727SOL    HW2 2906   0.028   0.986   1.536  0.9033 -0.2632 -0.2126
  727SOL    HW3 2907   0.080   0.844   1.545  0.1117 -0.6503 -1.5713
  727SOL    MW4 2908   0.026   0.903   1.510  0.0395 -0.1256 -0.6151
  728SOL     OW 2909   0.061   1.147   1.612 -0.6006  0.3801 -0.0462
  728SOL    HW2 2910   0.056   1.152   1.707  0.4616  0.4690  0.0188
  728SOL    HW3 2911   0.122   1.217   1.588 -0.2677 -0.1363 -0.7255
  728SOL    MW4 2912   0.069   1.157   1.621 -0.4165  0.3237 -0.1273
  729SOL     OW 2913   0.222   1.336   1.501 -0.0127  0.2885  0.1306
  729SOL    HW2 2914   0.238   1.421   1.542  0.1570 -0.2907  1.2793
  729SOL    HW3 2915   0.218   1.355   1.408  1.2369  1.3649  0.2909
  729SOL    MW4 2916   0.223   1.349   1.495  0.1746  0.3541  0.3033
  730SOL     OW 2917   0.274   1.583   1.624  0.1272 -0.4708 -0.0267
  730SOL    HW2 2918   0.255   1.569   1.717  0.6443  0.3378  0.2019
  730SOL    HW3 2919   0.190   1.610   1.587 -0.0875 -0.8216  0.1919
  730SOL    MW4 2920   0.260   1.585   1.631  0.1671 -0.4104  0.0323
  731SOL     OW 2921   0.012   1.645   1.529  0.0494 -0.5031 -0.2303
  731SOL    HW2 2922   0.002   1.729   1.575 -1.5449 -0.7852 -0.0468
  731SOL    HW3 2923   0.006   1.668   1.436 -3.3505 -0.7372 -0.1403
  731SOL    MW4 2924   0.010   1.659   1.523 -0.6095 -0.5712 -0.1942
  732SOL     OW 2925   4.483   1.904   1.601  0.0838  0.1852 -0.3083
  732SOL    HW2 2926   4.508   1.930   1.690  1.3661 -0.8874 -0.3383
  732SOL    HW3 2927   4.399   1.947   1.586 -0.3476  0.0456  1.5799
  732SOL    MW4 2928   4.475   1.913   1.611  0.1961  0.0252 -0.0631
  733SOL     OW 2929   0.211   2.065   1.530 -0.6715 -0.0363  0.4556
  733SOL    HW2 2930   0.221   2.089   1.438  0.9554  0.0697  0.6440
  733SOL    HW3 2931   0.125   2.022   1.535 -0.4419 -0.7200 -1.2379
  733SOL    MW4 2932   0.201   2.063   1.518 -0.4266 -0.1125  0.2570
  734SOL     OW 2933   0.206   2.345   1.586  0.1515 -0.0815  0.0249
  734SOL    HW2 2934   0.210   2.350   1.681 -0.9101 -1.2368  0.1310
  734SOL    HW3 2935   0.211   2.252   1.566 -1.6384  0.0110 -0.9451
  734SOL    MW4 2936   0.207   2.334   1.596 -0.2247 -0.2217 -0.0891
  735SOL     OW 2937   4.481   2.472   1.464  0.2670 -0.0853 -0.2011
  735SOL    HW2 2938   4.415   2.416   1.505  0.4613  0.3092  0.6698
  735SOL    HW3 2939   4.564   2.442   1.500  0.5303 -0.3172 -0.9891
  735SOL    MW4 2940   4.483   2.461   1.474  0.3274 -0.0638 -0.1902
  736SOL     OW 2941   4.478   2.697   1.620 -0.8479 -0.1516 -0.5840
  736SOL    HW2 2942   4.398   2.743   1.593 -0.9719 -0.6799 -1.1313
  736SOL    HW3 2943   4.475   2.615   1.572 -0.2391 -0.4020 -0.1916
  736SOL    MW4 2944   4.467   2.692   1.610 -0.7840 -0.2544 -0.6045
  737SOL     OW 2945   0.223   2.874   1.553  0.0088 -0.2369 -0.1958
  737SOL    HW2 2946   0.292   2.811   1.571 -0.1454 -0.4049 -0.1924
  737SOL    HW3 2947   0.142   2.831   1.581 -0.1121 -0.0918 -0.3163
  737SOL    MW4 2948   0.221   2.860   1.559 -0.0275 -0.2399 -0.2113
  738SOL     OW 2949   0.234   3.124   1.641 -0.2996 -0.3586  0.4488
  738SOL    HW2 2950   0.163   3.160   1.587  0.2488 -1.0514 -0.7457
  738SOL    HW3 2951   0.239   3.032   1.615  0.9039 -0.3570  0.6655
  738SOL    MW4 2952   0.225   3.117   1.630 -0.0685 -0.4498  0.3198
  739SOL     OW 2953   4.485   3.218   1.541  0.2826  0.4574  0.0355
  739SOL    HW2 2954   4.478   3.312   1.554 -2.8869  0.2722 -0.1255
  739SOL    HW3 2955   4.479   3.206   1.447  1.6898  0.1454 -0.0272
  739SOL    MW4 2956   4.484   3.229   1.531  0.0501  0.3918  0.0060
  740SOL     OW 2957   4.489   3.479   1.585 -0.1904  0.5212  0.2150
  740SOL    HW2 2958   4.479   3.484   1.680  0.4758  0.0564  0.3186
  740SOL    HW3 2959   4.408   3.514   1.550 -1.3942 -1.4213  0.9807
  740SOL    MW4 2960   4.477   3.484   1.593 -0.2613  0.2036  0.3297
  741SOL     OW 2961   0.222   3.619   1.511 -0.3586  0.0227 -0.4534
  741SOL    HW2 2962   0.214   3.712   1.533 -0.9935 -0.4465  1.3945
  741SOL    HW3 2963   0.140   3.580   1.542  1.3392 -1.7406  2.0585
  741SOL    MW4 2964   0.210   3.626   1.518 -0.2184 -0.2718  0.1218
  742SOL     OW 2965   0.212   3.873   1.602 -0.4858  0.1657 -0.1911
  742SOL    HW2 2966   0.217   3.877   1.698  0.1109  3.4661 -0.3199
  742SOL    HW3 2967   0.290   3.918   1.572 -1.4073  0.4564 -2.2442
  742SOL    MW4 2968   0.223   3.879   1.611 -0.5287  0.6395 -0.4790
  743SOL     OW 2969   0.002   4.023   1.512  0.3188  0.1134  0.1879
  743SOL    HW2 2970   0.016   4.104   1.561 -0.4879  0.4287 -0.0969
  743SOL    HW3 2971   0.078   3.969   1.534  0.9715  1.0217  0.2147
  743SOL    MW4 2972   0.014   4.026   1.521  0.2984  0.2749  0.1539
  744SOL     OW 2973   0.021   4.255   1.639  0.1186  0.0849  0.2265
  744SOL    HW2 2974   0.010   4.242   1.733  0.1692  1.1450  0.3921
  744SOL    HW3 2975  -0.066   4.279   1.608  0.3015  0.7014  0.1791
  744SOL    MW4 2976   0.008   4.257   1.648  0.1494  0.3061  0.2421
  745SOL     OW 2977   0.237   4.397   1.532  0.3998  0.0937  0.2588
  745SOL    HW2 2978   0.162   4.340   1.545 -0.2221  0.2699 -2.3733
  745SOL    HW3 2979   0.220   4.472   1.587 -0.1482 -0.9711  1.5668
  745SOL    MW4 2980   0.225   4.399   1.541  0.2455 -0.0235  0.0841
  746SOL     OW 2981   0.679   4.607   1.658 -0.0302  0.2070 -0.0167
  746SOL    HW2 2982   0.753   4.655   1.623  0.7685 -0.1056  1.2066
  746SOL    HW3 2983   0.604   4.664   1.644  0.7956  1.5010  0.7600
  746SOL    MW4 2984   0.679   4.621   1.651  0.1841  0.3364  0.2472
  747SOL     OW 2985   0.440   0.115   1.541 -0.0011 -0.3640  0.0659
  747SOL    HW2 2986   0.441   0.209   1.559 -1.8445 -0.2490 -0.3207
  747SOL    HW3 2987   0.445   0.109   1.445 -0.2283 -0.6454  0.0703
  747SOL    MW4 2988   0.441   0.127   1.530 -0.2743 -0.3859  0.0155
  748SOL     OW 2989   0.445   0.402   1.615  0.4915  0.9228 -0.2317
  748SOL    HW2 2990   0.523   0.450   1.588  0.3203  1.2921 -0.0656
  748SOL    HW3 2991   0.374   0.437   1.560  0.5248  0.2749 -0.6966
  748SOL    MW4 2992   0.446   0.413   1.604  0.4733  0.8860 -0.2711
  749SOL     OW 2993   0.684   0.526   1.520 -0.0933  0.2201  0.2231
  749SOL    HW2 2994   0.661   0.616   1.544 -0.4403  0.3850 -0.7406
  749SOL    HW3 2995   0.680   0.524   1.425  1.7745 -0.3243  0.1433
  749SOL    MW4 2996   0.680   0.538   1.511  0.1074  0.1700  0.0854
  750SOL     OW 2997   0.647   0.814   1.591  0.1075  0.3755 -0.1157
  750SOL    HW2 2998   0.672   0.794   1.681  0.0919  0.5363 -0.0754
  750SOL    HW3 2999   0.729   0.838   1.548 -0.0372  1.3330  0.1292
  750SOL    MW4 3000   0.661   0.815   1.597  0.0864  0.5231 -0.0780
  751SOL     OW 3001   0.409   0.943   1.525  0.4829  0.6895  0.0560
  751SOL    HW2 3002   0.410   1.036   1.548  0.0360  0.5037  0.8210
  751SOL    HW3 3003   0.501   0.916   1.529  0.9432  1.6846 -2.5684
  751SOL    MW4 3004   0.421   0.952   1.528  0.4847  0.7963 -0.1893
  752SOL     OW 3005   0.432   1.203   1.612 -0.1415  0.5324  0.1324
  752SOL    HW2 3006   0.512   1.252   1.593  0.1914  0.1355  0.5198
  752SOL    HW3 3007   0.363   1.253   1.569  0.1538  1.5454  0.8106
  752SOL    MW4 3008   0.433   1.216   1.604 -0.0586  0.6137  0.2730
  753SOL     OW 3009   0.681   1.296   1.559  0.7479  0.3168  0.3674
  753SOL    HW2 3010   0.691   1.392   1.561 -0.0412  0.3991  0.5449
  753SOL    HW3 3011   0.676   1.274   1.467 -3.1297  0.8953  0.3723
  753SOL    MW4 3012   0.682   1.306   1.547  0.1322  0.4040  0.3914
  754SOL     OW 3013   0.695   1.576   1.592 -0.2276 -0.8408 -0.1620
  754SOL    HW2 3014   0.768   1.631   1.563 -0.5206 -1.4916 -2.1638
  754SOL    HW3 3015   0.617   1.620   1.558 -0.5020 -2.1419 -1.2497
  754SOL    MW4 3016   0.695   1.589   1.584 -0.3025 -1.0983 -0.5696
  755SOL     OW 3017   0.489   1.720   1.504 -0.2855 -0.3951 -0.6012
  755SOL    HW2 3018   0.486   1.806   1.545  1.5675 -0.1250 -0.9918
  755SOL    HW3 3019   0.413   1.674   1.539 -1.4544  1.4775 -0.5863
  755SOL    MW4 3020   0.478   1.725   1.514 -0.1952 -0.1124 -0.6508
  756SOL     OW 3021   0.463   1.973   1.641 -0.4760 -0.3755  0.5934
  756SOL    HW2 3022   0.456   1.959   1.736 -0.8916  0.6581  0.7230
  756SOL    HW3 3023   0.376   2.002   1.614 -0.2481 -0.2603 -0.0309
  756SOL    MW4 3024   0.451   1.975   1.650 -0.5008 -0.2239  0.5281
  757SOL     OW 3025   0.682   2.084   1.504  0.2535 -0.0118  0.8133
  757SOL    HW2 3026   0.772   2.059   1.526 -0.4577 -1.7549  1.7950
  757SOL    HW3 3027   0.628   2.036   1.566 -1.4829 -0.5396 -1.0632
  757SOL    MW4 3028   0.687   2.074   1.515 -0.0694 -0.3114  0.6953
  758SOL     OW 3029   0.637   2.361   1.570 -0.1740 -0.3012 -0.2096
  758SOL    HW2 3030   0.555   2.394   1.534  0.1070  1.5450  0.7711
  758SOL    HW3 3031   0.641   2.269   1.542 -2.9653 -0.6417  0.4447
  758SOL    MW4 3032   0.627   2.353   1.561 -0.5052 -0.1026  0.0061
  759SOL     OW 3033   0.407   2.465   1.445  0.7024 -0.1221  0.3515
  759SOL    HW2 3034   0.423   2.542   1.499 -0.7241  0.8144 -0.5434
  759SOL    HW3 3035   0.334   2.420   1.488 -0.0387  0.3054 -0.4544
  759SOL    MW4 3036   0.399   2.469   1.458  0.4164  0.0579  0.1271
  760SOL     OW 3037   0.441   2.710   1.595  0.0329  0.1943  0.3068
  760SOL    HW2 3038   0.441   2.720   1.690  1.5955  0.0032  0.3333
  760SOL    HW3 3039   0.523   2.749   1.566 -0.2215 -0.1512 -0.9274
  760SOL    MW4 3040   0.452   2.717   1.604  0.2055  0.1235  0.1475
  761SOL     OW 3041   0.688   2.811   1.524 -0.2586  0.5690 -0.4310
  761SOL    HW2 3042   0.685   2.902   1.555 -2.2167  0.0071  1.1088
  761SOL    HW3 3043   0.692   2.819   1.429  1.5144  2.2751 -0.2711
  761SOL    MW4 3044   0.688   2.824   1.516 -0.2830  0.7200 -0.2067
  762SOL     OW 3045   0.668   3.066   1.601  0.2275  0.1660  0.2523
  762SOL    HW2 3046   0.748   3.113   1.578  0.3617 -0.6464 -0.9816
  762SOL    HW3 3047   0.597   3.129   1.588  0.3102 -0.2222 -2.3044
  762SOL    MW4 3048   0.669   3.081   1.596  0.2561  0.0076 -0.2478
  763SOL     OW 3049   0.472   3.253   1.543  0.2675 -0.0422 -0.1230
  763SOL    HW2 3050   0.395   3.200   1.567  0.8732 -0.5384  0.7602
  763SOL    HW3 3051   0.477   3.246   1.448 -1.0232  0.3280 -0.2221
  763SOL    MW4 3052   0.463   3.245   1.534  0.1771 -0.0588 -0.0196
  764SOL     OW 3053   0.456   3.513   1.640  0.1351  0.0970  0.1939
  764SOL    HW2 3054   0.481   3.423   1.621 -1.2785 -0.1936 -0.3169
  764SOL    HW3 3055   0.370   3.524   1.600 -0.3404  1.2422  1.4777
  764SOL    MW4 3056   0.448   3.503   1.632 -0.1141  0.2098  0.2959
  765SOL     OW 3057   0.683   3.628   1.498 -0.6399 -0.1836  0.2952
  765SOL    HW2 3058   0.756   3.591   1.549 -0.6929  0.7139  1.0359
  765SOL    HW3 3059   0.605   3.592   1.540 -0.6553 -0.3139  0.1554
  765SOL    MW4 3060   0.683   3.618   1.511 -0.6489 -0.0824  0.3745
  766SOL     OW 3061   0.647   3.862   1.654  0.3548  0.1833  0.0575
  766SOL    HW2 3062   0.720   3.918   1.630  0.1991  0.6099  0.5783
  766SOL    HW3 3063   0.658   3.784   1.599  0.5559  0.7256 -0.6753
  766SOL    MW4 3064   0.658   3.859   1.644  0.3608  0.3112  0.0295
  767SOL     OW 3065   0.444   4.019   1.537 -0.8136  0.4539  0.1205
  767SOL    HW2 3066   0.504   3.949   1.565  0.3146  1.1963 -0.4127
  767SOL    HW3 3067   0.446   4.014   1.441 -1.2817  0.7575  0.0983
  767SOL    MW4 3068   0.452   4.009   1.528 -0.7265  0.5919  0.0472
  768SOL     OW 3069   0.407   4.254   1.682 -0.1769  0.4149 -0.2456
  768SOL    HW2 3070   0.416   4.170   1.638  0.5253  0.1546  0.3834
  768SOL    HW3 3071   0.349   4.305   1.625  1.3653  0.3723 -1.9146
  768SOL    MW4 3072   0.401   4.250   1.668  0.1192  0.3749 -0.3829
  769SOL     OW 3073   0.645   4.351   1.561  0.2928 -0.3848  0.3939
  769SOL    HW2 3074   0.562   4.325   1.601  0.5574  0.2966  1.4108
  769SOL    HW3 3075   0.657   4.443   1.587  1.0497 -0.2862 -0.2708
  769SOL    MW4 3076   0.636   4.360   1.569  0.4276 -0.2819  0.4404
  770SOL     OW 3077   1.105   4.635   1.634 -0.3711 -0.3429  0.6709
  770SOL    HW2 3078   1.118   4.631   1.729 -3.1213  1.6282  1.2006
  770SOL    HW3 3079   1.164   4.705   1.605  0.9316 -1.3625  0.7936
  770SOL    MW4 3080   1.115   4.643   1.643 -0.5621 -0.2174  0.7570
  771SOL     OW 3081   0.882   0.110   1.564  0.3111  0.3131  0.3866
  771SOL    HW2 3082   0.892   0.205   1.573  1.2465  0.3662 -1.1161
  771SOL    HW3 3083   0.960   0.074   1.606  2.5618  0.4211 -3.4754
  771SOL    MW4 3084   0.893   0.118   1.571  0.7315  0.3344 -0.3212
  772SOL     OW 3085   0.904   0.390   1.600  0.6865  0.1117  0.0502
  772SOL    HW2 3086   0.913   0.383   1.695  0.8931 -0.6141 -0.0231
  772SOL    HW3 3087   0.817   0.428   1.587  0.6538  0.1988  0.5286
  772SOL    MW4 3088   0.893   0.394   1.611  0.7095  0.0274  0.1037
  773SOL     OW 3089   1.110   0.550   1.515 -0.1687 -0.1696 -0.5985
  773SOL    HW2 3090   1.094   0.642   1.532  1.7597 -0.1988  1.5505
  773SOL    HW3 3091   1.028   0.506   1.541 -0.6401  0.7929 -0.4563
  773SOL    MW4 3092   1.097   0.556   1.520  0.0235 -0.0465 -0.2962
  774SOL     OW 3093   1.091   0.814   1.627 -0.7365 -0.4316  0.2303
  774SOL    HW2 3094   1.118   0.796   1.717  0.2722 -1.4530 -0.2610
  774SOL    HW3 3095   1.166   0.859   1.588 -0.9821 -0.4197 -0.2327
  774SOL    MW4 3096   1.105   0.818   1.634 -0.6358 -0.5648  0.1044
  775SOL     OW 3097   0.874   0.919   1.474 -0.6685 -0.2552 -0.0769
  775SOL    HW2 3098   0.960   0.893   1.507 -0.3106 -0.5897 -1.2343
  775SOL    HW3 3099   0.880   0.906   1.379 -1.8293  0.2012 -0.2222
  775SOL    MW4 3100   0.886   0.914   1.466 -0.7744 -0.2391 -0.2488
  776SOL     OW 3101   0.885   1.148   1.648  0.2727  0.1430  0.0024
  776SOL    HW2 3102   0.883   1.075   1.587 -2.6106 -0.7018  1.0072
  776SOL    HW3 3103   0.815   1.207   1.617  0.6009  1.0211  0.9020
  776SOL    MW4 3104   0.875   1.146   1.636 -0.0644  0.1474  0.2536
  777SOL     OW 3105   1.080   1.282   1.507 -0.1924  0.0972 -0.0817
  777SOL    HW2 3106   1.171   1.261   1.529 -0.5090 -1.1339  0.1216
  777SOL    HW3 3107   1.029   1.234   1.572 -0.9393  2.6632  1.2848
  777SOL    MW4 3108   1.086   1.273   1.519 -0.3327  0.2733  0.1254
  778SOL     OW 3109   1.102   1.543   1.668  0.4644  0.5076 -0.2302
  778SOL    HW2 3110   1.175   1.588   1.625 -0.1105  0.9692 -0.7205
  778SOL    HW3 3111   1.086   1.466   1.612  1.6404 -0.4922  0.7665
  778SOL    MW4 3112   1.110   1.539   1.655  0.5437  0.4366 -0.1634
  779SOL     OW 3113   0.904   1.735   1.549  0.5617  0.3490  0.8755
  779SOL    HW2 3114   0.971   1.681   1.591  0.2850 -0.4020  0.3639
  779SOL    HW3 3115   0.920   1.724   1.456  0.0060  0.5196  0.7592
  779SOL    MW4 3116   0.915   1.726   1.543  0.4519  0.2724  0.7927
  780SOL     OW 3117   0.932   1.998   1.594 -0.4626 -0.3523 -0.5400
  780SOL    HW2 3118   1.020   2.032   1.575 -0.5295 -0.1115 -0.4063
  780SOL    HW3 3119   0.940   1.904   1.577 -0.1804 -0.3307 -0.5365
  780SOL    MW4 3120   0.945   1.990   1.589 -0.4342 -0.3177 -0.5219
  781SOL     OW 3121   1.191   2.060   1.463  0.1299 -0.2200 -0.6995
  781SOL    HW2 3122   1.258   2.006   1.504  0.4788 -0.1812 -1.2057
  781SOL    HW3 3123   1.209   2.149   1.492 -0.4801 -0.3784  0.1819
  781SOL    MW4 3124   1.202   2.064   1.472  0.0955 -0.2358 -0.6500
  782SOL     OW 3125   1.114   2.330   1.550 -0.4368 -0.1139  0.0366
  782SOL    HW2 3126   1.185   2.387   1.523 -0.3310 -0.6379 -0.8020
  782SOL    HW3 3127   1.037   2.361   1.501 -0.4946 -0.3611 -0.0308
  782SOL    MW4 3128   1.113   2.342   1.540 -0.4305 -0.2156 -0.0830
  783SOL     OW 3129   0.878   2.451   1.438  0.0695  0.1148  0.4600
  783SOL    HW2 3130   0.875   2.533   1.488 -1.5001  0.2428  0.1983
  783SOL    HW3 3131   0.800   2.404   1.467  0.7086 -1.0716  0.2414
  783SOL    MW4 3132   0.867   2.456   1.448 -0.0533 -0.0248  0.3967
  784SOL     OW 3133   0.915   2.667   1.589  0.0948 -0.1094  0.1474
  784SOL    HW2 3134   0.917   2.679   1.684 -1.4048 -1.7398  0.4106
  784SOL    HW3 3135   0.838   2.715   1.560  0.2926  0.0029 -0.1877
  784SOL    MW4 3136   0.905   2.675   1.598 -0.0769 -0.3097  0.1380
  785SOL     OW 3137   1.117   2.812   1.470  0.6221  0.1882  0.1290
  785SOL    HW2 3138   1.100   2.899   1.507 -0.3046  1.0407 -2.1892
  785SOL    HW3 3139   1.039   2.761   1.492 -0.1083  0.8128 -0.9547
  785SOL    MW4 3140   1.105   2.817   1.478  0.4035  0.3831 -0.3199
  786SOL     OW 3141   1.145   3.062   1.571  0.4428  0.1455 -0.5967
  786SOL    HW2 3142   1.154   3.049   1.666  0.3448  1.1636 -0.4422
  786SOL    HW3 3143   1.214   3.124   1.548 -1.2561  2.0613 -0.6958
  786SOL    MW4 3144   1.155   3.068   1.581  0.2057  0.5326 -0.5894
  787SOL     OW 3145   0.905   3.177   1.521  0.3883 -0.3239  0.5851
  787SOL    HW2 3146   0.988   3.142   1.552  0.5679 -0.9385 -0.5576
  787SOL    HW3 3147   0.914   3.182   1.426 -0.7272 -0.0231  0.4807
  787SOL    MW4 3148   0.917   3.173   1.513  0.2648 -0.3653  0.4206
  788SOL     OW 3149   0.884   3.468   1.604  0.0700 -0.0007 -0.2639
  788SOL    HW2 3150   0.960   3.511   1.564  0.6014 -0.7316 -0.0512
  788SOL    HW3 3151   0.877   3.384   1.557  1.6716 -1.5840  2.2173
  788SOL    MW4 3152   0.894   3.462   1.592  0.3514 -0.3060  0.0915
  789SOL     OW 3153   1.120   3.616   1.518  0.1402  0.6630 -0.1048
  789SOL    HW2 3154   1.205   3.584   1.547 -0.0661  0.0853 -0.1450
  789SOL    HW3 3155   1.130   3.632   1.424 -0.1624 -0.5911 -0.3556
  789SOL    MW4 3156   1.132   3.614   1.510  0.0730  0.4213 -0.1432
  790SOL     OW 3157   1.092   3.865   1.646  0.3309  0.4028 -0.1025
  790SOL    HW2 3158   1.171   3.908   1.613  1.2821 -1.2447 -0.0414
  790SOL    HW3 3159   1.095   3.777   1.609 -1.2774  0.1840  0.2345
  790SOL    MW4 3160   1.103   3.859   1.637  0.2442  0.1565 -0.0500
  791SOL     OW 3161   0.874   4.005   1.565  0.0693 -0.2972 -0.3258
  791SOL    HW2 3162   0.898   4.095   1.587 -0.0050 -0.5444  0.7788
  791SOL    HW3 3163   0.946   3.952   1.599 -0.1190 -0.7032 -0.5565
  791SOL    MW4 3164   0.887   4.010   1.572  0.0346 -0.3834 -0.2105
  792SOL     OW 3165   0.895   4.257   1.660 -0.2705  0.0579  0.2202
  792SOL    HW2 3166   0.870   4.254   1.752 -0.7476  1.5837  0.1615
  792SOL    HW3 3167   0.815   4.284   1.615 -0.4373 -2.0667 -0.8240
  792SOL    MW4 3168   0.881   4.260   1.666 -0.3555 -0.0211  0.0746
  793SOL     OW 3169   1.119   4.366   1.549  0.1893  0.0481  0.1423
  793SOL    HW2 3170   1.038   4.336   1.589  0.6716  0.0090  1.1007
  793SOL    HW3 3171   1.133   4.454   1.585 -0.3678  0.7766 -1.4043
  793SOL    MW4 3172   1.110   4.373   1.559  0.1794  0.1391  0.0647
  794SOL     OW 3173   1.535   0.016   1.627  0.2081  0.3623 -0.2334
  794SOL    HW2 3174   1.525   0.003   1.721  0.2526  2.9717  0.1641
  794SOL    HW3 3175   1.454   0.059   1.599  0.6834  0.6853 -1.1498
  794SOL    MW4 3176   1.523   0.020   1.636  0.2767  0.7492 -0.3019
  795SOL     OW 3177   1.293   0.143   1.541 -0.3851  0.2316 -0.5013
  795SOL    HW2 3178   1.310   0.234   1.566  0.2961 -0.1150  0.3204
  795SOL    HW3 3179   1.308   0.141   1.447  3.5630  0.0952  0.0383
  795SOL    MW4 3180   1.297   0.155   1.532  0.2257  0.1679 -0.3217
  796SOL     OW 3181   1.335   0.399   1.598 -0.2731 -0.1286  0.4316
  796SOL    HW2 3182   1.412   0.437   1.556 -0.2919 -0.6958 -0.1144
  796SOL    HW3 3183   1.261   0.445   1.559 -0.3056 -0.8462 -0.3592
  796SOL    MW4 3184   1.336   0.410   1.587 -0.2799 -0.2981  0.2552
  797SOL     OW 3185   1.598   0.533   1.522 -0.3320 -0.0966 -0.1995
  797SOL    HW2 3186   1.669   0.482   1.563 -0.0952 -1.2332 -1.9732
  797SOL    HW3 3187   1.603   0.510   1.429 -0.6851  2.6333 -0.9385
  797SOL    MW4 3188   1.608   0.523   1.515 -0.3473  0.1136 -0.5311
  798SOL     OW 3189   1.543   0.782   1.608  0.5344  0.0868  0.0503
  798SOL    HW2 3190   1.519   0.776   1.701  0.6276 -0.3376  0.0467
  798SOL    HW3 3191   1.556   0.691   1.581  0.1556  0.1861 -0.4704
  798SOL    MW4 3192   1.541   0.769   1.617  0.4967  0.0439 -0.0189
  799SOL     OW 3193   1.323   0.919   1.507 -0.0865 -0.2083 -0.0709
  799SOL    HW2 3194   1.401   0.880   1.545  0.1419 -0.8062 -1.1375
  799SOL    HW3 3195   1.327   0.896   1.414 -1.6066 -0.3693 -0.1140
  799SOL    MW4 3196   1.334   0.911   1.500 -0.2569 -0.3084 -0.2173
  800SOL     OW 3197   1.308   1.187   1.584 -0.2063  0.0306  0.1169
  800SOL    HW2 3198   1.305   1.182   1.679 -0.5339  1.2215  0.1818
  800SOL    HW3 3199   1.322   1.097   1.555  2.3556 -0.0437  1.3842
  800SOL    MW4 3200   1.310   1.175   1.593  0.0885  0.1779  0.2927
  801SOL     OW 3201   1.554   1.315   1.539  0.5241 -0.0324  0.7794
  801SOL    HW2 3202   1.480   1.256   1.551  0.2569  0.4398  1.4524
  801SOL    HW3 3203   1.569   1.315   1.444  1.1247 -1.9017  0.8514
  801SOL    MW4 3204   1.547   1.307   1.528  0.5681 -0.2167  0.8777
  802SOL     OW 3205   1.532   1.577   1.621  0.1621 -0.0500 -0.0003
  802SOL    HW2 3206   1.545   1.579   1.716 -0.8177 -0.3073  0.1414
  802SOL    HW3 3207   1.535   1.484   1.598 -0.2269 -0.0289 -0.1342
  802SOL    MW4 3208   1.534   1.565   1.630 -0.0185 -0.0812  0.0007
  803SOL     OW 3209   1.285   1.674   1.516 -0.2153 -0.3632 -0.0026
  803SOL    HW2 3210   1.372   1.651   1.548 -0.1613 -0.7738 -0.4427
  803SOL    HW3 3211   1.296   1.684   1.421 -0.6984 -0.6473 -0.0873
  803SOL    MW4 3212   1.298   1.673   1.507 -0.2719 -0.4549 -0.0718
  804SOL     OW 3213   1.377   1.933   1.624  0.3765 -0.5414 -0.4399
  804SOL    HW2 3214   1.373   1.940   1.719 -1.1555 -0.2360 -0.5169
  804SOL    HW3 3215   1.346   1.844   1.605  0.6112 -0.5779 -0.6559
  804SOL    MW4 3216   1.372   1.922   1.634  0.2054 -0.5059 -0.4786
  805SOL     OW 3217   1.565   2.096   1.497  0.0167  0.1402  0.1895
  805SOL    HW2 3218   1.510   2.026   1.531  0.5153 -0.2721  0.1423
  805SOL    HW3 3219   1.565   2.083   1.403 -0.4310  0.6028  0.1211
  805SOL    MW4 3220   1.558   2.085   1.489  0.0234  0.1468  0.1743
  806SOL     OW 3221   1.575   2.350   1.616 -0.0624  0.1821  0.2023
  806SOL    HW2 3222   1.650   2.393   1.576  0.2956  0.1044  0.7955
  806SOL    HW3 3223   1.574   2.263   1.577  0.0447  0.2466  0.0561
  806SOL    MW4 3224   1.585   2.344   1.606 -0.0011  0.1803  0.2613
  807SOL     OW 3225   1.340   2.474   1.491 -0.4639 -0.2912  0.0001
  807SOL    HW2 3226   1.336   2.556   1.541 -0.8888 -0.5912  0.4706
  807SOL    HW3 3227   1.409   2.424   1.535 -1.9928 -1.2485  1.3769
  807SOL    MW4 3228   1.348   2.478   1.504 -0.7216 -0.4571  0.2438
  808SOL     OW 3229   1.330   2.729   1.619  0.2310  0.4072  0.0711
  808SOL    HW2 3230   1.393   2.787   1.576 -0.6183  0.8573 -0.5853
  808SOL    HW3 3231   1.245   2.756   1.584 -0.3174 -0.2643  0.8645
  808SOL    MW4 3232   1.327   2.740   1.609  0.0466  0.3780  0.0892
  809SOL     OW 3233   1.553   2.854   1.489  0.2353  0.1844  0.9057
  809SOL    HW2 3234   1.628   2.820   1.539 -0.0086  1.5588  2.2692
  809SOL    HW3 3235   1.579   2.845   1.398  2.6059  1.7304  1.3652
  809SOL    MW4 3236   1.567   2.848   1.484  0.5159  0.5697  1.1462
  810SOL     OW 3237   1.567   3.120   1.613  0.1259 -0.2216  0.2440
  810SOL    HW2 3238   1.648   3.163   1.584 -1.2542  1.6110 -0.9668
  810SOL    HW3 3239   1.564   3.038   1.564  0.6970  0.2038 -0.4969
  810SOL    MW4 3240   1.578   3.115   1.603  0.0192  0.0763 -0.0135
  811SOL     OW 3241   1.354   3.234   1.500 -0.1097 -0.1038  0.4397
  811SOL    HW2 3242   1.350   3.326   1.527  2.4992 -0.1404  1.0233
  811SOL    HW3 3243   1.434   3.200   1.540  0.2102 -2.0063 -1.7106
  811SOL    MW4 3244   1.364   3.242   1.509  0.2767 -0.3596  0.2330
  812SOL     OW 3245   1.352   3.503   1.617  0.3467  0.0736  0.3244
  812SOL    HW2 3246   1.351   3.477   1.709 -0.4069 -2.4880 -0.3765
  812SOL    HW3 3247   1.442   3.533   1.602  0.3137  1.1321  2.0135
  812SOL    MW4 3248   1.364   3.504   1.627  0.2429 -0.1247  0.4548
  813SOL     OW 3249   1.621   3.639   1.518  0.4341 -0.2214  0.0573
  813SOL    HW2 3250   1.619   3.735   1.521  4.0971 -0.0682 -0.2806
  813SOL    HW3 3251   1.607   3.618   1.426 -1.5501 -0.1332  0.2977
  813SOL    MW4 3252   1.619   3.649   1.506  0.6556 -0.1896  0.0444
  814SOL     OW 3253   1.569   3.906   1.624  0.2304 -0.1494  0.0543
  814SOL    HW2 3254   1.592   3.886   1.714 -0.1856 -0.9238 -0.0091
  814SOL    HW3 3255   1.476   3.925   1.627 -0.0755 -1.5234 -0.4288
  814SOL    MW4 3256   1.560   3.906   1.636  0.1352 -0.4329 -0.0178
  815SOL     OW 3257   1.314   4.008   1.562 -0.3626  0.1347  0.0749
  815SOL    HW2 3258   1.334   4.099   1.586 -0.1785  0.1976 -0.3002
  815SOL    HW3 3259   1.318   4.008   1.466  0.4150 -0.4449  0.1026
  815SOL    MW4 3260   1.317   4.020   1.552 -0.2357  0.0665  0.0291
  816SOL     OW 3261   1.352   4.264   1.648 -0.3437  0.2791  0.0872
  816SOL    HW2 3262   1.415   4.326   1.613  0.3785 -1.0473 -1.0198
  816SOL    HW3 3263   1.267   4.295   1.617  0.1668 -0.1591 -1.7894
  816SOL    MW4 3264   1.349   4.276   1.640 -0.1811  0.0463 -0.3065
  817SOL     OW 3265   1.547   4.429   1.552 -0.3159 -0.0838  0.6690
  817SOL    HW2 3266   1.625   4.380   1.580 -0.3313 -0.9873 -0.8022
  817SOL    HW3 3267   1.562   4.518   1.583  1.6192 -0.0917 -0.1551
  817SOL    MW4 3268   1.560   4.434   1.560 -0.0626 -0.2041  0.3661
  818SOL     OW 3269   2.018   0.045   1.625 -0.3808 -0.0557  0.0655
  818SOL    HW2 3270   2.022   0.041   1.720  0.0824  0.5974  0.0727
  818SOL    HW3 3271   1.933   0.084   1.605 -0.0988  0.6310  0.2248
  818SOL    MW4 3272   2.007   0.049   1.635 -0.2824  0.1211  0.0875
  819SOL     OW 3273   1.761   0.147   1.541 -0.1821  0.1795 -0.0774
  819SOL    HW2 3274   1.684   0.094   1.563 -0.7264  1.1089  0.2816
  819SOL    HW3 3275   1.764   0.146   1.445  0.3710 -1.2762 -0.0699
  819SOL    MW4 3276   1.752   0.140   1.531 -0.1809  0.1101 -0.0291
  820SOL     OW 3277   1.807   0.396   1.643  0.3252 -0.1215  0.7041
  820SOL    HW2 3278   1.881   0.436   1.597  0.3866 -0.7785  0.2121
  820SOL    HW3 3279   1.799   0.309   1.603 -0.8290  0.0124  0.6155
  820SOL    MW4 3280   1.815   0.390   1.631  0.1810 -0.1905  0.6275
  821SOL     OW 3281   2.018   0.514   1.507  0.3559  0.7883 -0.4316
  821SOL    HW2 3282   2.100   0.483   1.546 -0.4342  0.7366  1.2040
  821SOL    HW3 3283   2.016   0.608   1.528 -0.0970  0.7513 -0.3106
  821SOL    MW4 3284   2.029   0.522   1.515  0.1919  0.7766 -0.1998
  822SOL     OW 3285   1.999   0.779   1.596  0.2522  0.0337  0.1495
  822SOL    HW2 3286   2.080   0.814   1.561  1.2863 -0.5547  1.8724
  822SOL    HW3 3287   1.930   0.833   1.557  1.6308  2.2383  0.6892
  822SOL    MW4 3288   2.001   0.791   1.586  0.5706  0.2470  0.4480
  823SOL     OW 3289   1.779   0.903   1.510 -0.0469  0.2117 -0.1522
  823SOL    HW2 3290   1.784   0.993   1.540 -0.1130 -0.1840  1.0554
  823SOL    HW3 3291   1.710   0.863   1.562 -1.8615  0.1483 -2.5263
  823SOL    MW4 3292   1.771   0.909   1.521 -0.2951  0.1511 -0.3061
  824SOL     OW 3293   1.785   1.169   1.660  0.4023  0.5759  0.3572
  824SOL    HW2 3294   1.867   1.197   1.621  0.9819 -1.7880 -0.2167
  824SOL    HW3 3295   1.718   1.223   1.618  1.4722  1.1621 -0.6138
  824SOL    MW4 3296   1.787   1.180   1.649  0.6199  0.3413  0.1534
  825SOL     OW 3297   2.009   1.270   1.511  0.4186 -0.5859  0.0649
  825SOL    HW2 3298   2.013   1.363   1.531  2.5920 -0.7830  0.5929
  825SOL    HW3 3299   2.011   1.267   1.415 -0.2862 -0.0727  0.0284
  825SOL    MW4 3300   2.009   1.282   1.501  0.6124 -0.5442  0.1297
  826SOL     OW 3301   2.020   1.542   1.578 -0.0353 -0.0855 -0.0234
  826SOL    HW2 3302   2.102   1.577   1.544 -0.5028 -0.8325 -2.0123
  826SOL    HW3 3303   1.954   1.607   1.556 -0.1635 -0.0358  0.5005
  826SOL    MW4 3304   2.022   1.555   1.570 -0.1139 -0.1775 -0.2167
  827SOL     OW 3305   1.785   1.690   1.500 -0.3613  0.0116 -0.2717
  827SOL    HW2 3306   1.701   1.652   1.524 -0.9043  0.7573 -0.9893
  827SOL    HW3 3307   1.779   1.706   1.406  0.6799 -0.1660 -0.3812
  827SOL    MW4 3308   1.773   1.687   1.491 -0.2955  0.0866 -0.3808
  828SOL     OW 3309   1.794   1.956   1.603  0.2502  0.1213 -0.3511
  828SOL    HW2 3310   1.791   1.866   1.571  0.3180  0.4907 -1.4331
  828SOL    HW3 3311   1.725   2.001   1.554  0.8187  0.8583 -0.4825
  828SOL    MW4 3312   1.785   1.950   1.592  0.3341  0.2673 -0.5112
  829SOL     OW 3313   2.031   2.070   1.494  0.1212 -0.0077  0.1194
  829SOL    HW2 3314   2.102   2.014   1.524 -1.0184 -1.3562  0.3376
  829SOL    HW3 3315   1.952   2.035   1.536 -1.0182  0.0650 -1.8665
  829SOL    MW4 3316   2.030   2.058   1.504 -0.1795 -0.1760 -0.1138
  830SOL     OW 3317   1.990   2.329   1.602  0.0385  0.1465  0.2584
  830SOL    HW2 3318   2.013   2.329   1.695  1.0480  0.8725  0.0103
  830SOL    HW3 3319   2.007   2.239   1.573  2.8956  0.7086  0.0209
  830SOL    MW4 3320   1.995   2.317   1.610  0.5486  0.3165  0.1943
  831SOL     OW 3321   1.786   2.488   1.508 -0.1326 -0.2350 -0.2264
  831SOL    HW2 3322   1.862   2.431   1.519 -0.6331 -0.8833 -0.1150
  831SOL    HW3 3323   1.770   2.488   1.413 -0.4343 -0.6809 -0.1782
  831SOL    MW4 3324   1.794   2.480   1.497 -0.2385 -0.3793 -0.2053
  832SOL     OW 3325   1.749   2.738   1.635 -0.6643  0.2333 -0.4158
  832SOL    HW2 3326   1.827   2.780   1.599 -0.2922  0.8467  1.0896
  832SOL    HW3 3327   1.757   2.647   1.609 -0.6133  0.7251 -2.2392
  832SOL    MW4 3328   1.760   2.732   1.627 -0.6085  0.3791 -0.4578
  833SOL     OW 3329   2.014   2.789   1.520  0.0871  0.1887 -0.0107
  833SOL    HW2 3330   2.017   2.885   1.529  1.6676  0.0846  0.7598
  833SOL    HW3 3331   2.006   2.774   1.426 -0.2830  1.0801 -0.1318
  833SOL    MW4 3332   2.013   2.800   1.509  0.2468  0.2926  0.0750
  834SOL     OW 3333   2.033   3.060   1.608 -0.2707  0.3303  0.2927
  834SOL    HW2 3334   2.021   3.072   1.702  0.8636  1.1524  0.3351
  834SOL    HW3 3335   2.102   3.123   1.584  0.3632 -0.7863 -0.8485
  834SOL    MW4 3336   2.040   3.070   1.617 -0.0374  0.2914  0.1477
  835SOL     OW 3337   1.829   3.234   1.529  0.4144 -0.0957  0.3956
  835SOL    HW2 3338   1.857   3.324   1.548  1.5892 -0.0906 -1.2316
  835SOL    HW3 3339   1.903   3.180   1.555  0.1350 -0.4945  0.3592
  835SOL    MW4 3340   1.842   3.239   1.535  0.5325 -0.1476  0.1761
  836SOL     OW 3341   1.852   3.504   1.572 -0.1231  0.5081  0.4782
  836SOL    HW2 3342   1.852   3.494   1.667 -1.1225 -2.7361  0.1996
  836SOL    HW3 3343   1.776   3.559   1.553 -0.4351  0.4377  1.5060
  836SOL    MW4 3344   1.842   3.510   1.582 -0.2961  0.0708  0.5771
  837SOL     OW 3345   2.031   3.685   1.504  0.3939  0.4162 -0.3747
  837SOL    HW2 3346   2.117   3.653   1.529 -0.3006 -1.0795  0.1369
  837SOL    HW3 3347   1.969   3.624   1.544 -0.8797  0.7963 -1.6910
  837SOL    MW4 3348   2.034   3.673   1.512  0.1343  0.2690 -0.4809
  838SOL     OW 3349   2.024   3.932   1.610  0.4757  0.2814 -0.1615
  838SOL    HW2 3350   2.096   3.970   1.560  0.7316 -0.2283 -0.1882
  838SOL    HW3 3351   2.013   3.844   1.573  0.9716 -0.2719  0.9740
  838SOL    MW4 3352   2.032   3.926   1.598  0.5749  0.1412 -0.0152
  839SOL     OW 3353   1.790   4.040   1.537  0.1625 -0.2759  0.3339
  839SOL    HW2 3354   1.864   3.986   1.566  0.0098 -1.0786 -0.7436
  839SOL    HW3 3355   1.714   4.002   1.580  0.1859 -0.2731  0.3784
  839SOL    MW4 3356   1.790   4.028   1.547  0.1454 -0.3814  0.1976
  840SOL     OW 3357   1.787   4.317   1.629 -0.1319 -0.0989 -0.1885
  840SOL    HW2 3358   1.870   4.341   1.589  0.2884 -0.3034  0.5458
  840SOL    HW3 3359   1.771   4.227   1.602  1.2448 -0.9920  1.8625
  840SOL    MW4 3360   1.796   4.309   1.620  0.1052 -0.2437  0.1790
  841SOL     OW 3361   2.022   4.429   1.520  0.0508  0.0227 -0.2954
  841SOL    HW2 3362   2.099   4.390   1.562  0.0661 -0.1063 -0.4415
  841SOL    HW3 3363   2.012   4.515   1.562  1.7294  1.0730 -1.9784
  841SOL    MW4 3364   2.031   4.435   1.531  0.2743  0.1443 -0.5368
  842SOL     OW 3365   2.467   4.646   1.604 -0.1541  0.2394 -0.0835
  842SOL    HW2 3366   2.469   4.658   1.699  0.1632  0.3856 -0.1093
  842SOL    HW3 3367   2.390   4.695   1.575 -0.5843 -0.2839  0.1660
  842SOL    MW4 3368   2.457   4.654   1.613 -0.1690  0.1896 -0.0540
  843SOL     OW 3369   2.262   0.131   1.521 -0.2179  0.2155  0.3267
  843SOL    HW2 3370   2.182   0.092   1.559 -1.3032  1.9046 -0.1878
  843SOL    HW3 3371   2.254   0.115   1.427 -0.4789  1.3077  0.1551
  843SOL    MW4 3372   2.250   0.124   1.514 -0.3955  0.5824  0.2362
  844SOL     OW 3373   2.243   0.395   1.599  0.4903  0.0868 -0.0052
  844SOL    HW2 3374   2.251   0.408   1.693 -2.1043  0.6106  0.1797
  844SOL    HW3 3375   2.244   0.299   1.588  0.7217  0.0222  0.5794
  844SOL    MW4 3376   2.244   0.384   1.610  0.1785  0.1474  0.0963
  845SOL     OW 3377   2.487   0.510   1.564 -0.4733 -0.0836 -0.2352
  845SOL    HW2 3378   2.557   0.452   1.594 -0.4875  0.1887  0.3171
  845SOL    HW3 3379   2.406   0.463   1.585 -0.4839  0.1199  0.1757
  845SOL    MW4 3380   2.486   0.496   1.570 -0.4766 -0.0208 -0.1081
  846SOL     OW 3381   2.509   0.783   1.616  0.2015  0.4346 -0.5260
  846SOL    HW2 3382   2.430   0.825   1.582  0.5511  1.6488  0.1156
  846SOL    HW3 3383   2.502   0.692   1.589 -1.5126  0.4893 -0.3185
  846SOL    MW4 3384   2.498   0.776   1.608  0.0214  0.6020 -0.4140
  847SOL     OW 3385   2.258   0.891   1.528  0.1304 -0.3699 -0.0940
  847SOL    HW2 3386   2.257   0.985   1.550 -0.6219 -0.5700  0.7640
  847SOL    HW3 3387   2.245   0.888   1.434  0.4391  0.4059 -0.1671
  847SOL    MW4 3388   2.256   0.903   1.519  0.0719 -0.2940  0.0095
  848SOL     OW 3389   2.266   1.170   1.584  0.1208 -0.1821  0.3473
  848SOL    HW2 3390   2.258   1.174   1.679  0.0396  1.5299  0.2893
  848SOL    HW3 3391   2.180   1.195   1.551  0.4247  0.1875 -0.1748
  848SOL    MW4 3392   2.254   1.174   1.592  0.1502  0.0926  0.2708
  849SOL     OW 3393   2.506   1.309   1.528 -0.1625 -0.1367  0.2552
  849SOL    HW2 3394   2.429   1.261   1.560 -1.4645  1.7388 -0.0068
  849SOL    HW3 3395   2.496   1.310   1.433  0.8046 -0.8647  0.1341
  849SOL    MW4 3396   2.494   1.302   1.520 -0.2067  0.0147  0.2047
  850SOL     OW 3397   2.487   1.569   1.610 -0.2693  0.0098 -0.9457
  850SOL    HW2 3398   2.571   1.605   1.580 -0.4513  0.0991 -1.3545
  850SOL    HW3 3399   2.489   1.478   1.583 -0.0649 -0.1373 -0.4469
  850SOL    MW4 3400   2.499   1.562   1.603 -0.2664  0.0022 -0.9338
  851SOL     OW 3401   2.266   1.669   1.487  1.0097  0.3602  0.1289
  851SOL    HW2 3402   2.348   1.639   1.526  1.0140 -0.5937 -0.5984
  851SOL    HW3 3403   2.286   1.678   1.394  0.1557 -0.3834 -0.1403
  851SOL    MW4 3404   2.279   1.666   1.480  0.8976  0.1362 -0.0026
  852SOL     OW 3405   2.244   1.937   1.595  0.5854  0.2616 -0.1382
  852SOL    HW2 3406   2.256   1.918   1.689  0.3099  0.7717 -0.0014
  852SOL    HW3 3407   2.241   1.850   1.554  0.5156  0.0300  0.3478
  852SOL    MW4 3408   2.246   1.923   1.602  0.5399  0.2983 -0.0561
  853SOL     OW 3409   2.475   2.052   1.497  0.0573  0.0905 -0.4239
  853SOL    HW2 3410   2.396   2.004   1.519 -0.4093  0.4874 -1.2449
  853SOL    HW3 3411   2.491   2.033   1.405  0.4953  0.6100 -0.4599
  853SOL    MW4 3412   2.467   2.043   1.488  0.0535  0.2114 -0.5369
  854SOL     OW 3413   2.434   2.323   1.589  0.1308 -0.0842  0.4350
  854SOL    HW2 3414   2.426   2.325   1.685 -0.0286 -0.2632  0.4257
  854SOL    HW3 3415   2.452   2.231   1.569  1.0699  0.1093  0.3662
  854SOL    MW4 3416   2.436   2.311   1.599  0.2336 -0.0823  0.4247
  855SOL     OW 3417   2.212   2.450   1.465 -0.2825  0.5509  0.1777
  855SOL    HW2 3418   2.289   2.404   1.499 -0.3697  0.7944  0.7022
  855SOL    HW3 3419   2.139   2.391   1.482 -0.3191  0.6519  0.3793
  855SOL    MW4 3420   2.213   2.436   1.472 -0.2989  0.5963  0.2735
  856SOL     OW 3421   2.222   2.654   1.677  0.6904 -0.1647  0.5209
  856SOL    HW2 3422   2.216   2.571   1.630  1.1101 -0.4114  0.9034
  856SOL    HW3 3423   2.151   2.707   1.640  0.3103 -0.7503  0.4004
  856SOL    MW4 3424   2.212   2.650   1.666  0.6957 -0.2745  0.5555
  857SOL     OW 3425   2.416   2.785   1.532 -0.0749  0.3102 -0.1443
  857SOL    HW2 3426   2.419   2.876   1.562  0.3661  0.3502 -0.3022
  857SOL    HW3 3427   2.357   2.741   1.593 -0.2694  0.6992 -0.0552
  857SOL    MW4 3428   2.409   2.791   1.544 -0.0424  0.3668 -0.1534
  858SOL     OW 3429   2.455   3.054   1.607 -0.3704 -0.1501 -0.1163
  858SOL    HW2 3430   2.528   3.107   1.577 -0.4689  0.0390 -0.0226
  858SOL    HW3 3431   2.377   3.106   1.586 -0.5744 -1.0437 -1.6825
  858SOL    MW4 3432   2.454   3.068   1.600 -0.4103 -0.2430 -0.3106
  859SOL     OW 3433   2.235   3.240   1.535 -0.4067  0.6687 -0.0950
  859SOL    HW2 3434   2.225   3.333   1.555 -1.4996  0.9072 -1.6875
  859SOL    HW3 3435   2.239   3.236   1.439 -0.7166 -0.9657 -0.0555
  859SOL    MW4 3436   2.234   3.252   1.525 -0.5918  0.4845 -0.2999
  860SOL     OW 3437   2.252   3.514   1.622 -0.0273 -0.1235 -0.1857
  860SOL    HW2 3438   2.260   3.510   1.717  0.0123  3.3579  0.0492
  860SOL    HW3 3439   2.338   3.543   1.592 -0.6559  0.8869 -1.0606
  860SOL    MW4 3440   2.264   3.517   1.631 -0.1050  0.4691 -0.2702
  861SOL     OW 3441   2.470   3.620   1.506 -0.3740 -0.0052 -0.1807
  861SOL    HW2 3442   2.543   3.578   1.551 -0.3209 -0.4912 -0.7168
  861SOL    HW3 3443   2.476   3.713   1.531 -0.3267 -0.2623  0.7723
  861SOL    MW4 3444   2.480   3.627   1.515 -0.3607 -0.1033 -0.1257
  862SOL     OW 3445   2.442   3.890   1.613  0.1055 -0.4174  0.3601
  862SOL    HW2 3446   2.464   3.861   1.702 -0.3498  1.2538  1.0347
  862SOL    HW3 3447   2.523   3.931   1.580  1.1044 -3.3797 -1.0190
  862SOL    MW4 3448   2.456   3.892   1.620  0.1772 -0.5877  0.2672
  863SOL     OW 3449   2.257   4.048   1.477 -0.4032 -0.5075 -0.0916
  863SOL    HW2 3450   2.319   3.994   1.526 -0.8107 -1.6412 -0.8013
  863SOL    HW3 3451   2.264   4.017   1.387 -0.8649  0.4323 -0.4549
  863SOL    MW4 3452   2.266   4.037   1.472 -0.5179 -0.5331 -0.2332
  864SOL     OW 3453   2.233   4.281   1.626 -0.8597 -0.2882 -0.4979
  864SOL    HW2 3454   2.315   4.320   1.596 -0.3952 -0.6324  0.3110
  864SOL    HW3 3455   2.224   4.201   1.575 -0.6916 -0.2563 -0.5781
  864SOL    MW4 3456   2.243   4.276   1.616 -0.7762 -0.3294 -0.4018
  865SOL     OW 3457   2.461   4.390   1.505  0.0761  0.3144 -0.0397
  865SOL    HW2 3458   2.482   4.479   1.536  0.5568  0.0962  0.2701
  865SOL    HW3 3459   2.467   4.396   1.410 -0.9243  0.8713 -0.0741
  865SOL    MW4 3460   2.464   4.403   1.497  0.0075  0.3591 -0.0034
  866SOL     OW 3461   2.920   4.634   1.608  0.0251 -0.1874 -0.1538
  866SOL    HW2 3462   2.929   4.640   1.703  0.0829 -2.2562 -0.0229
  866SOL    HW3 3463   2.845   4.690   1.588 -0.6916 -0.6477  1.2265
  866SOL    MW4 3464   2.911   4.642   1.618 -0.0618 -0.5211  0.0456
  867SOL     OW 3465   2.689   0.120   1.509  0.2869 -0.1643 -0.3869
  867SOL    HW2 3466   2.695   0.209   1.542 -0.9220  0.3383 -1.4530
  867SOL    HW3 3467   2.608   0.086   1.547  0.8629 -0.8936  0.2011
  867SOL    MW4 3468   2.679   0.127   1.518  0.2034 -0.1942 -0.4500
  868SOL     OW 3469   2.698   0.353   1.626 -0.4062 -0.1636 -0.5669
  868SOL    HW2 3470   2.679   0.357   1.720  0.7000  0.1153 -0.3450
  868SOL    HW3 3471   2.777   0.407   1.615  0.1715 -1.1587 -1.4667
  868SOL    MW4 3472   2.706   0.360   1.637 -0.1840 -0.2581 -0.6564
  869SOL     OW 3473   2.946   0.505   1.568  0.0882  0.0663  0.2257
  869SOL    HW2 3474   2.948   0.599   1.587  1.8585  0.3042 -1.1116
  869SOL    HW3 3475   2.937   0.499   1.473 -1.1865 -1.1397  0.3991
  869SOL    MW4 3476   2.945   0.516   1.558  0.1536 -0.0614  0.0722
  870SOL     OW 3477   2.946   0.782   1.598  0.4381  0.4326  0.1945
  870SOL    HW2 3478   2.934   0.768   1.692 -0.7480  0.6068  0.0789
  870SOL    HW3 3479   2.867   0.829   1.570  0.2625 -0.5832 -1.0883
  870SOL    MW4 3480   2.934   0.786   1.607  0.2584  0.3216  0.0100
  871SOL     OW 3481   2.727   0.906   1.477 -0.4869  0.0770 -0.2345
  871SOL    HW2 3482   2.646   0.860   1.500 -1.4727  0.7598 -2.2731
  871SOL    HW3 3483   2.735   0.895   1.383  0.8138  1.5833 -0.3192
  871SOL    MW4 3484   2.717   0.899   1.468 -0.4453  0.3658 -0.5146
  872SOL     OW 3485   2.735   1.183   1.587  0.2948 -0.4433 -0.3250
  872SOL    HW2 3486   2.742   1.098   1.544  1.3312  0.5675 -2.2112
  872SOL    HW3 3487   2.653   1.220   1.554  0.2846 -0.3463 -0.1911
  872SOL    MW4 3488   2.725   1.177   1.577  0.4302 -0.2971 -0.5562
  873SOL     OW 3489   2.957   1.298   1.455 -0.3157 -0.0407 -0.1701
  873SOL    HW2 3490   3.027   1.250   1.501 -0.2448  1.1096  0.9682
  873SOL    HW3 3491   2.877   1.272   1.500 -0.2024  1.4018  0.9043
  873SOL    MW4 3492   2.956   1.288   1.467 -0.2914  0.3014  0.1218
  874SOL     OW 3493   2.951   1.546   1.600  0.5418 -0.2369 -0.3876
  874SOL    HW2 3494   2.902   1.619   1.561 -0.7818 -1.0896 -0.3585
  874SOL    HW3 3495   2.950   1.478   1.532  0.4797 -0.7641  0.1412
  874SOL    MW4 3496   2.944   1.547   1.586  0.3590 -0.4190 -0.3140
  875SOL     OW 3497   2.724   1.671   1.508 -0.4163 -0.0363  0.3998
  875SOL    HW2 3498   2.699   1.762   1.524  1.8016  0.4926  0.9416
  875SOL    HW3 3499   2.722   1.662   1.413 -0.1646  0.7256  0.3179
  875SOL    MW4 3500   2.720   1.682   1.497 -0.0905  0.1340  0.4605
  876SOL     OW 3501   2.675   1.925   1.607  0.2907 -0.0262  0.1694
  876SOL    HW2 3502   2.656   1.930   1.701  0.1961 -1.7162  0.2717
  876SOL    HW3 3503   2.605   1.974   1.566  0.9400  1.6598  1.0351
  876SOL    MW4 3504   2.663   1.932   1.614  0.3639 -0.0267  0.2971
  877SOL     OW 3505   2.926   2.034   1.499  0.0847  0.0839 -0.4034
  877SOL    HW2 3506   2.926   2.129   1.507 -0.6825  0.1797 -1.3701
  877SOL    HW3 3507   2.847   2.006   1.545  0.1079 -0.0501 -0.4454
  877SOL    MW4 3508   2.916   2.043   1.506 -0.0135  0.0789 -0.5365
  878SOL     OW 3509   2.905   2.310   1.550  0.0122 -0.0285  0.0829
  878SOL    HW2 3510   2.905   2.319   1.645 -1.1679  1.3834 -0.0331
  878SOL    HW3 3511   2.831   2.363   1.520  1.4669  1.0772 -1.7502
  878SOL    MW4 3512   2.896   2.318   1.558  0.0484  0.3037 -0.1742
  879SOL     OW 3513   2.672   2.442   1.481 -0.0592 -0.5030  0.3092
  879SOL    HW2 3514   2.678   2.524   1.529 -0.1336  0.6070 -1.5470
  879SOL    HW3 3515   2.598   2.396   1.520  0.3339  0.0541  1.7264
  879SOL    MW4 3516   2.663   2.447   1.493 -0.0171 -0.2831  0.2513
  880SOL     OW 3517   2.675   2.679   1.603 -0.6321 -0.1231  0.1776
  880SOL    HW2 3518   2.740   2.739   1.566 -0.4172 -0.7206 -0.4182
  880SOL    HW3 3519   2.590   2.718   1.581 -0.4883  0.6583  0.9566
  880SOL    MW4 3520   2.672   2.692   1.596 -0.5848 -0.0988  0.2018
  881SOL     OW 3521   2.880   2.848   1.492 -0.1862 -0.4573  0.4267
  881SOL    HW2 3522   2.967   2.835   1.530 -0.3878 -1.9711  0.4226
  881SOL    HW3 3523   2.851   2.932   1.525  0.0493 -1.2776  2.8249
  881SOL    MW4 3524   2.888   2.857   1.501 -0.1817 -0.7652  0.7426
  882SOL     OW 3525   2.891   3.068   1.649  0.2805 -0.1389 -0.6437
  882SOL    HW2 3526   2.893   3.057   1.744 -0.0560 -1.2970 -0.7574
  882SOL    HW3 3527   2.977   3.102   1.626 -0.1433  1.5493  0.2359
  882SOL    MW4 3528   2.903   3.071   1.659  0.1802 -0.0690 -0.5427
  883SOL     OW 3529   2.679   3.207   1.550  0.1032 -0.2222  0.1075
  883SOL    HW2 3530   2.763   3.169   1.576  1.1027  0.6532 -1.6880
  883SOL    HW3 3531   2.684   3.210   1.454 -1.5345  0.8430  0.0479
  883SOL    MW4 3532   2.691   3.202   1.541  0.0190  0.0339 -0.1372
  884SOL     OW 3533   2.666   3.485   1.614 -0.4828  0.1362 -0.0016
  884SOL    HW2 3534   2.674   3.480   1.709 -1.8304  0.4478  0.1419
  884SOL    HW3 3535   2.652   3.395   1.586  0.4203 -0.0221  0.0364
  884SOL    MW4 3536   2.665   3.473   1.623 -0.5415  0.1565  0.0223
  885SOL     OW 3537   2.909   3.565   1.494 -0.1543 -0.0083  0.1524
  885SOL    HW2 3538   2.825   3.537   1.529 -0.1004 -0.4328 -0.0539
  885SOL    HW3 3539   2.900   3.558   1.399 -0.2021  0.8659  0.0893
  885SOL    MW4 3540   2.897   3.560   1.486 -0.1535  0.0511  0.1168
  886SOL     OW 3541   2.910   3.804   1.632 -0.0614 -0.5526 -0.0033
  886SOL    HW2 3542   2.832   3.850   1.600  0.9629  0.9550 -0.3531
  886SOL    HW3 3543   2.911   3.722   1.583 -1.5477 -0.6761  0.1515
  886SOL    MW4 3544   2.900   3.799   1.621 -0.1224 -0.3700 -0.0290
  887SOL     OW 3545   2.696   3.972   1.532 -0.2113  0.1565  0.4864
  887SOL    HW2 3546   2.696   4.065   1.557  1.6536  0.4249 -0.3839
  887SOL    HW3 3547   2.678   3.973   1.438  3.7533 -0.0217 -0.3654
  887SOL    MW4 3548   2.694   3.985   1.523  0.5578  0.1684  0.2592
  888SOL     OW 3549   2.668   4.247   1.624 -0.3800 -0.4918 -0.7441
  888SOL    HW2 3550   2.744   4.299   1.600 -1.2022  1.2535  0.3153
  888SOL    HW3 3551   2.594   4.292   1.582 -1.1398 -0.5923  0.4622
  888SOL    MW4 3552   2.668   4.260   1.615 -0.5887 -0.2748 -0.4452
  889SOL     OW 3553   2.911   4.375   1.549 -0.1476  0.6537  0.1863
  889SOL    HW2 3554   2.913   4.469   1.567  0.8452  0.6993 -0.1665
  889SOL    HW3 3555   2.907   4.368   1.454 -0.9094  0.3364  0.2325
  889SOL    MW4 3556   2.911   4.386   1.539 -0.1171  0.6179  0.1458
  890SOL     OW 3557   3.344   4.646   1.627 -0.0472 -0.0912  0.2807
  890SOL    HW2 3558   3.425   4.681   1.591 -0.0347  0.1291  0.5223
  890SOL    HW3 3559   3.350   4.551   1.613  0.4495 -0.1202  0.7005
  890SOL    MW4 3560   3.355   4.638   1.620  0.0200 -0.0660  0.3680
  891SOL     OW 3561   3.140   0.086   1.463 -0.3020  0.2825 -0.0769
  891SOL    HW2 3562   3.224   0.056   1.499 -0.1042  0.3149 -0.5061
  891SOL    HW3 3563   3.075   0.027   1.501  0.0463 -0.4780 -0.6486
  891SOL    MW4 3564   3.143   0.074   1.473 -0.2299  0.1865 -0.2090
  892SOL     OW 3565   3.144   0.330   1.624  0.6029 -0.7125  0.0981
  892SOL    HW2 3566   3.130   0.243   1.588  0.1608  0.0573 -1.6329
  892SOL    HW3 3567   3.071   0.382   1.591  1.2826  0.5061  0.4674
  892SOL    MW4 3568   3.133   0.326   1.615  0.6342 -0.4501 -0.0816
  893SOL     OW 3569   3.352   0.468   1.503  0.3351  0.0124  0.2540
  893SOL    HW2 3570   3.281   0.419   1.545  1.6772 -1.2860  1.0492
  893SOL    HW3 3571   3.339   0.453   1.409 -0.5529 -0.0363  0.3760
  893SOL    MW4 3572   3.341   0.460   1.496  0.3950 -0.1653  0.3750
  894SOL     OW 3573   3.381   0.725   1.574 -0.0863  0.3985 -0.0591
  894SOL    HW2 3574   3.393   0.718   1.669 -0.9474 -0.8423 -0.0272
  894SOL    HW3 3575   3.369   0.635   1.545  0.1059  0.7772 -1.3439
  894SOL    MW4 3576   3.381   0.712   1.583 -0.1746  0.2848 -0.2244
  895SOL     OW 3577   3.189   0.889   1.495 -0.0088  0.1630 -0.2385
  895SOL    HW2 3578   3.246   0.829   1.542  0.2270  0.7073  0.1716
  895SOL    HW3 3579   3.100   0.860   1.516  0.1006  0.2103  0.2793
  895SOL    MW4 3580   3.184   0.878   1.504  0.0368  0.2411 -0.1161
  896SOL     OW 3581   3.180   1.168   1.589  0.1428  0.4387 -0.2904
  896SOL    HW2 3582   3.177   1.140   1.680  0.7603  0.6048 -0.2146
  896SOL    HW3 3583   3.203   1.088   1.541 -1.7071 -0.0012 -0.4766
  896SOL    MW4 3584   3.183   1.154   1.594 -0.0198  0.4026 -0.3050
  897SOL     OW 3585   3.429   1.267   1.523  0.6938  0.2390  0.2044
  897SOL    HW2 3586   3.496   1.202   1.545  0.4220  0.5098  1.9842
  897SOL    HW3 3587   3.347   1.224   1.550  0.1141 -0.1792 -2.1441
  897SOL    MW4 3588   3.427   1.253   1.530  0.5815  0.2196  0.1293
  898SOL     OW 3589   3.391   1.526   1.617 -0.0083  0.5280 -0.2219
  898SOL    HW2 3590   3.387   1.506   1.710  1.8846 -2.0503 -0.6330
  898SOL    HW3 3591   3.410   1.442   1.575  3.8071  2.3805 -2.5185
  898SOL    MW4 3592   3.393   1.512   1.623  0.7449  0.4322 -0.5792
  899SOL     OW 3593   3.181   1.674   1.508 -0.2621  0.0541 -0.5546
  899SOL    HW2 3594   3.253   1.628   1.552 -0.5308  0.6962  0.5840
  899SOL    HW3 3595   3.102   1.630   1.540 -0.4085 -0.2255 -1.2981
  899SOL    MW4 3596   3.180   1.662   1.518 -0.3169  0.1019 -0.5025
  900SOL     OW 3597   3.152   1.927   1.608  0.1550 -0.6637 -0.1372
  900SOL    HW2 3598   3.171   1.839   1.577 -0.5240 -1.0701  0.5856
  900SOL    HW3 3599   3.070   1.951   1.564  0.1282 -0.5499 -0.0258
  900SOL    MW4 3600   3.144   1.919   1.598  0.0619 -0.7023 -0.0271
  901SOL     OW 3601   3.406   2.014   1.532  0.5631 -0.0430 -0.0230
  901SOL    HW2 3602   3.323   1.975   1.559 -0.2190  0.5410 -1.5122
  901SOL    HW3 3603   3.401   2.018   1.437  0.7009  3.4028  0.0417
  901SOL    MW4 3604   3.394   2.010   1.523  0.4781  0.4887 -0.2110
  902SOL     OW 3605   3.347   2.277   1.591 -0.0618 -0.2028  0.0411
  902SOL    HW2 3606   3.420   2.327   1.556  0.9051 -1.0375  0.8271
  902SOL    HW3 3607   3.362   2.187   1.561 -0.8055 -0.3620  0.1342
  902SOL    MW4 3608   3.359   2.272   1.583 -0.0323 -0.3339  0.1571
  903SOL     OW 3609   3.141   2.455   1.530  0.6706 -0.1065 -0.2416
  903SOL    HW2 3610   3.211   2.398   1.563  0.2185 -1.3643 -1.4107
  903SOL    HW3 3611   3.061   2.405   1.542  0.1585  0.6497 -0.4575
  903SOL    MW4 3612   3.140   2.441   1.536  0.5434 -0.1727 -0.4244
  904SOL     OW 3613   3.123   2.711   1.597 -0.0713 -0.1481  0.0765
  904SOL    HW2 3614   3.201   2.756   1.565 -0.1047 -0.4050 -0.3521
  904SOL    HW3 3615   3.132   2.621   1.567 -1.0224  0.0514 -0.8409
  904SOL    MW4 3616   3.134   2.705   1.589 -0.2012 -0.1557 -0.1011
  905SOL     OW 3617   3.353   2.823   1.519 -0.2525 -0.0638 -0.2149
  905SOL    HW2 3618   3.359   2.916   1.539 -3.2303 -0.1405  1.4445
  905SOL    HW3 3619   3.355   2.818   1.423 -0.8755  1.7938 -0.3375
  905SOL    MW4 3620   3.354   2.834   1.509 -0.7275  0.1712 -0.0121
  906SOL     OW 3621   3.374   3.097   1.623  0.2116 -0.7091  0.0995
  906SOL    HW2 3622   3.386   3.093   1.718 -2.5538  0.0298  0.5285
  906SOL    HW3 3623   3.446   3.151   1.591 -0.0213  0.7765  2.0315
  906SOL    MW4 3624   3.385   3.103   1.631 -0.1840 -0.4156  0.4110
  907SOL     OW 3625   3.113   3.170   1.541  0.2679 -0.3539  0.3178
  907SOL    HW2 3626   3.197   3.128   1.557  1.1213  1.1535 -0.0213
  907SOL    HW3 3627   3.100   3.162   1.446 -0.1640 -0.9612  0.4340
  907SOL    MW4 3628   3.122   3.164   1.530  0.3235 -0.2351  0.2884
  908SOL     OW 3629   3.140   3.429   1.627  0.2536 -0.2587 -0.1234
  908SOL    HW2 3630   3.125   3.339   1.600 -0.4304  0.0570 -0.8189
  908SOL    HW3 3631   3.056   3.474   1.610  0.9533  0.7754 -0.9376
  908SOL    MW4 3632   3.127   3.423   1.621  0.2557 -0.0806 -0.3226
  909SOL     OW 3633   3.357   3.589   1.520 -0.6916  0.1447  0.1630
  909SOL    HW2 3634   3.438   3.548   1.552 -0.6401 -0.6140 -0.9122
  909SOL    HW3 3635   3.287   3.531   1.548 -0.8093  0.4662  0.5374
  909SOL    MW4 3636   3.359   3.576   1.528 -0.7004  0.0870  0.0706
  910SOL     OW 3637   3.361   3.867   1.599 -0.2559 -0.2675 -0.3120
  910SOL    HW2 3638   3.281   3.893   1.553 -0.4823 -0.5449 -0.0752
  910SOL    HW3 3639   3.370   3.774   1.581 -0.0472 -0.2615 -0.2416
  910SOL    MW4 3640   3.352   3.858   1.591 -0.2582 -0.3033 -0.2715
  911SOL     OW 3641   3.125   3.965   1.505  0.3658  0.2144 -0.1204
  911SOL    HW2 3642   3.127   4.054   1.540  1.1032  0.0252  0.3218
  911SOL    HW3 3643   3.062   3.919   1.561 -3.2309  1.4796 -2.8581
  911SOL    MW4 3644   3.117   3.970   1.517 -0.0115  0.3564 -0.4233
  912SOL     OW 3645   3.151   4.231   1.589 -0.0784  0.0083 -0.0793
  912SOL    HW2 3646   3.150   4.232   1.684 -1.3746 -0.5864 -0.0848
  912SOL    HW3 3647   3.075   4.281   1.563  0.7855  0.9571 -0.8217
  912SOL    MW4 3648   3.141   4.237   1.598 -0.1354  0.0550 -0.1780
  913SOL     OW 3649   3.377   4.375   1.535  0.1772 -0.5831  0.0754
  913SOL    HW2 3650   3.293   4.333   1.556 -1.2239  1.5984 -0.9247
  913SOL    HW3 3651   3.374   4.389   1.440  1.3162  0.2589  0.1545
  913SOL    MW4 3652   3.365   4.372   1.525  0.1426 -0.1842 -0.0461
  914SOL     OW 3653   3.832   4.619   1.603  0.4169 -0.3771  0.0412
  914SOL    HW2 3654   3.816   4.633   1.696  0.0130 -2.2052  0.2574
  914SOL    HW3 3655   3.908   4.675   1.583 -0.5854  1.3734  1.0487
  914SOL    MW4 3656   3.840   4.628   1.613  0.2313 -0.3873  0.2027
  915SOL     OW 3657   3.589   0.072   1.524 -0.2224 -0.1599 -0.0144
  915SOL    HW2 3658   3.670   0.027   1.547 -0.2619 -0.7152 -0.9567
  915SOL    HW3 3659   3.596   0.087   1.430 -1.6196 -1.0589 -0.2755
  915SOL    MW4 3660   3.601   0.068   1.515 -0.4120 -0.3518 -0.1731
  916SOL     OW 3661   3.604   0.351   1.591  0.2614  0.3485  0.4882
  916SOL    HW2 3662   3.599   0.258   1.569 -0.4012  0.6740 -0.8097
  916SOL    HW3 3663   3.516   0.384   1.574  1.4943  2.0485 -2.9869
  916SOL    MW4 3664   3.591   0.343   1.586  0.3367  0.6158 -0.1415
  917SOL     OW 3665   3.864   0.462   1.508 -0.2876  0.8076 -0.2584
  917SOL    HW2 3666   3.779   0.422   1.529  0.4494 -1.2285 -1.0067
  917SOL    HW3 3667   3.860   0.478   1.414  0.7648 -0.8792 -0.6136
  917SOL    MW4 3668   3.852   0.459   1.498 -0.0515  0.3164 -0.4040
  918SOL     OW 3669   3.849   0.698   1.635  0.2331 -0.2265 -0.6556
  918SOL    HW2 3670   3.762   0.719   1.602  0.5237 -1.4084 -2.2503
  918SOL    HW3 3671   3.864   0.608   1.606  0.7849 -1.1146  2.1714
  918SOL    MW4 3672   3.839   0.689   1.627  0.3442 -0.4996 -0.4930
  919SOL     OW 3673   3.630   0.832   1.488  0.0294 -0.2096  0.0234
  919SOL    HW2 3674   3.543   0.798   1.509  0.0346 -0.1440  0.1581
  919SOL    HW3 3675   3.627   0.852   1.395  0.1641 -0.9685 -0.1423
  919SOL    MW4 3676   3.618   0.830   1.479  0.0479 -0.3011  0.0193
  920SOL     OW 3677   3.631   1.084   1.608  0.1113 -0.0309 -0.5413
  920SOL    HW2 3678   3.719   1.116   1.588  0.4903 -1.0002 -0.4612
  920SOL    HW3 3679   3.630   0.994   1.574  0.1006 -1.0223  1.9639
  920SOL    MW4 3680   3.642   1.076   1.601  0.1599 -0.2896 -0.2002
  921SOL     OW 3681   3.854   1.231   1.530 -0.3200  0.4589  0.0670
  921SOL    HW2 3682   3.942   1.201   1.555  0.5738  1.0016 -2.2328
  921SOL    HW3 3683   3.849   1.320   1.563 -0.2796  0.1879  0.8163
  921SOL    MW4 3684   3.865   1.239   1.537 -0.1968  0.4948 -0.1375
  922SOL     OW 3685   3.836   1.495   1.627 -0.1316  0.3974 -0.0220
  922SOL    HW2 3686   3.829   1.506   1.721 -0.8871  0.4986 -0.0849
  922SOL    HW3 3687   3.756   1.535   1.592 -0.1855 -0.2425 -0.6474
  922SOL    MW4 3688   3.825   1.501   1.635 -0.2384  0.3263 -0.1128
  923SOL     OW 3689   3.622   1.641   1.536  0.6148 -0.0816 -0.3336
  923SOL    HW2 3690   3.536   1.611   1.566  0.2068  1.1275 -0.2848
  923SOL    HW3 3691   3.615   1.644   1.441  0.8214 -0.6000 -0.3715
  923SOL    MW4 3692   3.610   1.637   1.527  0.5882  0.0095 -0.3321
  924SOL     OW 3693   3.611   1.879   1.664  0.1168 -0.0609 -0.2988
  924SOL    HW2 3694   3.624   1.799   1.613  0.8370  0.0878 -0.3484
  924SOL    HW3 3695   3.528   1.914   1.632 -0.3746 -0.9680 -0.0339
  924SOL    MW4 3696   3.602   1.873   1.653  0.1470 -0.1609 -0.2704
  925SOL     OW 3697   3.800   2.029   1.491 -0.3375  0.0052 -0.2258
  925SOL    HW2 3698   3.803   2.117   1.528  0.3398  0.0936 -0.4758
  925SOL    HW3 3699   3.740   1.981   1.548  0.6189  0.1618  0.9346
  925SOL    MW4 3700   3.792   2.034   1.503 -0.1220  0.0376 -0.1057
  926SOL     OW 3701   3.822   2.277   1.592 -0.2170 -0.0782 -0.5908
  926SOL    HW2 3702   3.832   2.286   1.686  0.4097 -1.4106 -0.5088
  926SOL    HW3 3703   3.898   2.323   1.556 -0.0370 -0.2394 -0.4169
  926SOL    MW4 3704   3.834   2.284   1.599 -0.1106 -0.2752 -0.5571
  927SOL     OW 3705   3.581   2.395   1.495  0.2675  0.1241 -0.0030
  927SOL    HW2 3706   3.588   2.486   1.522  0.1023 -0.4003  1.8921
  927SOL    HW3 3707   3.661   2.354   1.527 -0.5743 -0.8182  0.9743
  927SOL    MW4 3708   3.592   2.401   1.503  0.1347 -0.0694  0.3760
  928SOL     OW 3709   3.582   2.675   1.574 -0.3428 -0.3452 -0.4922
  928SOL    HW2 3710   3.591   2.678   1.669  1.3361 -0.8444 -0.6116
  928SOL    HW3 3711   3.503   2.725   1.555 -0.6880 -0.2495  1.1676
  928SOL    MW4 3712   3.573   2.682   1.584 -0.1668 -0.3985 -0.2889
  929SOL     OW 3713   3.817   2.798   1.510 -0.2970 -0.0930 -0.0591
  929SOL    HW2 3714   3.881   2.735   1.544 -0.8657  0.6503  2.5808
  929SOL    HW3 3715   3.732   2.757   1.527 -0.5940  0.2385 -0.7433
  929SOL    MW4 3716   3.815   2.784   1.517 -0.4112  0.0488  0.1989
  930SOL     OW 3717   3.828   3.067   1.622 -0.3685  0.1855  0.0575
  930SOL    HW2 3718   3.906   3.106   1.583 -0.9446  0.5890 -0.7087
  930SOL    HW3 3719   3.824   2.979   1.584  0.2312 -0.1684  0.8149
  930SOL    MW4 3720   3.838   3.061   1.612 -0.3654  0.1920  0.0564
  931SOL     OW 3721   3.618   3.223   1.538  0.1956 -0.0054  0.1217
  931SOL    HW2 3722   3.685   3.165   1.573  0.7247  0.0071 -0.8501
  931SOL    HW3 3723   3.613   3.200   1.445  1.1976  2.2639 -0.5248
  931SOL    MW4 3724   3.626   3.212   1.530  0.3976  0.2956 -0.0918
  932SOL     OW 3725   3.598   3.494   1.588 -0.2059 -0.1479  0.8189
  932SOL    HW2 3726   3.667   3.526   1.530 -0.6481  0.8313  0.8357
  932SOL    HW3 3727   3.595   3.400   1.570  1.6746 -0.3511  1.4103
  932SOL    MW4 3728   3.607   3.485   1.578 -0.0161 -0.0455  0.8991
  933SOL     OW 3729   3.821   3.575   1.459 -0.4405  0.3699  0.7590
  933SOL    HW2 3730   3.905   3.533   1.478  0.5343  1.6277 -0.7227
  933SOL    HW3 3731   3.815   3.645   1.524 -0.4693  0.1178  1.0309
  933SOL    MW4 3732   3.832   3.579   1.470 -0.3157  0.5026  0.5994
  934SOL     OW 3733   3.804   3.788   1.623  0.3304 -0.2905  0.3939
  934SOL    HW2 3734   3.891   3.822   1.604  0.8145 -2.9001 -2.5265
  934SOL    HW3 3735   3.745   3.858   1.594  1.4092  0.3901 -0.2250
  934SOL    MW4 3736   3.808   3.802   1.616  0.5366 -0.5450 -0.0730
  935SOL     OW 3737   3.604   3.969   1.515 -0.0274  0.2838 -0.1520
  935SOL    HW2 3738   3.607   4.059   1.548  1.0590 -0.3548  1.5494
  935SOL    HW3 3739   3.513   3.942   1.528  0.5253 -0.2237  3.1928
  935SOL    MW4 3740   3.593   3.977   1.521  0.1889  0.1326  0.5138
  936SOL     OW 3741   3.592   4.226   1.612  0.3371  0.3420  0.2541
  936SOL    HW2 3742   3.589   4.240   1.706 -1.9675  0.0575  0.2522
  936SOL    HW3 3743   3.511   4.266   1.579  0.7667 -0.1840 -1.5071
  936SOL    MW4 3744   3.581   4.233   1.620  0.0897  0.2351  0.0215
  937SOL     OW 3745   3.842   4.331   1.536 -0.1616 -0.2116 -0.2825
  937SOL    HW2 3746   3.756   4.295   1.557 -0.6025  0.2561 -1.2622
  937SOL    HW3 3747   3.840   4.421   1.567  0.1355 -0.3344  0.0989
  937SOL    MW4 3748   3.831   4.338   1.543 -0.1806 -0.1661 -0.3614
  938SOL     OW 3749   4.311   4.614   1.605  0.0812  0.0154  0.0665
  938SOL    HW2 3750   4.303   4.625   1.699 -1.7615  0.4962 -0.1298
  938SOL    HW3 3751   4.304   4.519   1.592 -0.9271  0.0557  0.3049
  938SOL    MW4 3752   4.309   4.603   1.616 -0.2950  0.0841  0.0720
  939SOL     OW 3753   4.069   0.074   1.514 -0.2353  0.3891 -0.0703
  939SOL    HW2 3754   4.095   0.164   1.533 -1.0457  0.6724 -0.2569
  939SOL    HW3 3755   4.144   0.021   1.539  0.6192  1.1999 -0.9140
  939SOL    MW4 3756   4.082   0.079   1.520 -0.2295  0.5334 -0.2063
  940SOL     OW 3757   4.112   0.338   1.588  0.1905  0.1778  0.1788
  940SOL    HW2 3758   4.112   0.354   1.682 -0.8671  2.5326 -0.1789
  940SOL    HW3 3759   4.029   0.376   1.557  1.4984  1.3506 -2.0043
  940SOL    MW4 3760   4.101   0.345   1.596  0.2235  0.6432 -0.1564
  941SOL     OW 3761   4.320   0.504   1.488  0.3794 -0.4008 -0.4366
  941SOL    HW2 3762   4.260   0.436   1.518 -1.0037  0.6145 -0.8349
  941SOL    HW3 3763   4.405   0.480   1.526 -0.3363 -1.6930  0.3793
  941SOL    MW4 3764   4.323   0.492   1.497  0.1025 -0.4373 -0.3815
  942SOL     OW 3765   4.311   0.739   1.632 -0.0033  0.1860 -0.7745
  942SOL    HW2 3766   4.324   0.654   1.590 -1.9217  0.0898 -1.2190
  942SOL    HW3 3767   4.367   0.799   1.583 -0.4989 -0.3576 -2.0192
  942SOL    MW4 3768   4.320   0.736   1.620 -0.3218  0.1016 -0.9974
  943SOL     OW 3769   4.070   0.854   1.523  0.6197  0.1042 -0.6020
  943SOL    HW2 3770   4.143   0.805   1.561  0.4335  2.0289  2.4200
  943SOL    HW3 3771   3.992   0.804   1.547  0.7181 -0.3847 -1.2798
  943SOL    MW4 3772   4.070   0.841   1.531  0.6081  0.2936 -0.2927
  944SOL     OW 3773   4.093   1.131   1.571  0.5850  0.3881 -0.4434
  944SOL    HW2 3774   4.098   1.139   1.666  0.3257 -0.5895 -0.3381
  944SOL    HW3 3775   4.092   1.037   1.555  0.7555  0.5439 -1.4241
  944SOL    MW4 3776   4.093   1.120   1.581  0.5733  0.2797 -0.5589
  945SOL     OW 3777   4.321   1.260   1.490  0.0489  0.4081 -0.2100
  945SOL    HW2 3778   4.241   1.220   1.524  0.1518  0.4127  0.0384
  945SOL    HW3 3779   4.390   1.232   1.550  0.4121 -0.4193 -0.9920
  945SOL    MW4 3780   4.320   1.251   1.502  0.1104  0.2995 -0.2804
  946SOL     OW 3781   4.287   1.505   1.614 -0.4015 -0.0606 -0.2952
  946SOL    HW2 3782   4.310   1.423   1.570 -0.8943  0.0513 -0.7625
  946SOL    HW3 3783   4.363   1.562   1.600 -0.3623 -0.1882 -0.5998
  946SOL    MW4 3784   4.300   1.502   1.606 -0.4613 -0.0627 -0.3971
  947SOL     OW 3785   4.055   1.640   1.515 -0.1942  0.2493  0.0634
  947SOL    HW2 3786   4.128   1.589   1.549 -0.3346  0.3703  0.5490
  947SOL    HW3 3787   3.977   1.593   1.544 -0.3020 -0.8025 -1.8772
  947SOL    MW4 3788   4.055   1.627   1.524 -0.2269  0.1265 -0.1286
  948SOL     OW 3789   4.045   1.928   1.582  0.6458  0.4245  0.1830
  948SOL    HW2 3790   4.031   1.835   1.569  0.1378  0.4155  0.7509
  948SOL    HW3 3791   3.961   1.969   1.559  0.6022  0.6597  0.7510
  948SOL    MW4 3792   4.032   1.921   1.577  0.5730  0.4543  0.3329
  949SOL     OW 3793   4.280   2.071   1.533 -0.1630  0.3310  0.3195
  949SOL    HW2 3794   4.202   2.023   1.559 -0.5381  0.6731 -0.1716
  949SOL    HW3 3795   4.280   2.067   1.437  1.2207 -0.9405  0.3450
  949SOL    MW4 3796   4.270   2.064   1.524 -0.0299  0.2084  0.2581
  950SOL     OW 3797   4.285   2.331   1.610 -0.2133  0.3368  0.6858
  950SOL    HW2 3798   4.277   2.344   1.705  1.1997 -0.2432  0.9086
  950SOL    HW3 3799   4.282   2.236   1.600  1.3612  0.3039  0.3485
  950SOL    MW4 3800   4.284   2.320   1.621  0.1809  0.2559  0.6707
  951SOL     OW 3801   4.052   2.409   1.483  0.1185 -0.0399  0.2441
  951SOL    HW2 3802   4.060   2.499   1.515  0.8300 -0.5212  1.4451
  951SOL    HW3 3803   4.134   2.367   1.508  0.0953 -0.8298 -0.9528
  951SOL    MW4 3804   4.064   2.415   1.491  0.2093 -0.2076  0.2446
  952SOL     OW 3805   4.049   2.659   1.600 -0.3557  0.0494 -0.1287
  952SOL    HW2 3806   4.049   2.665   1.695  1.0574 -0.6957 -0.0720
  952SOL    HW3 3807   4.121   2.715   1.572 -1.9803  1.8143 -0.8908
  952SOL    MW4 3808   4.059   2.667   1.609 -0.3836  0.1839 -0.2218
  953SOL     OW 3809   4.252   2.809   1.493  0.0194  0.1472  0.0675
  953SOL    HW2 3810   4.235   2.891   1.539 -1.2945 -0.2827  0.3632
  953SOL    HW3 3811   4.251   2.833   1.400  0.9911  0.7107  0.2032
  953SOL    MW4 3812   4.249   2.823   1.487 -0.0258  0.1648  0.1244
  954SOL     OW 3813   4.268   3.070   1.628  0.3115  0.1599 -0.1076
  954SOL    HW2 3814   4.255   3.070   1.723  0.7170 -0.9067 -0.0522
  954SOL    HW3 3815   4.345   3.126   1.615  0.2624  0.2999  0.1901
  954SOL    MW4 3816   4.276   3.078   1.639  0.3585  0.0376 -0.0610
  955SOL     OW 3817   4.058   3.173   1.485 -0.1277  0.1858  0.4561
  955SOL    HW2 3818   4.045   3.265   1.508  0.4252  0.3552  0.1149
  955SOL    HW3 3819   4.140   3.150   1.529 -0.7021 -0.3938  1.2465
  955SOL    MW4 3820   4.067   3.182   1.494 -0.1306  0.1317  0.5154
  956SOL     OW 3821   4.037   3.438   1.556 -0.4557 -0.0749 -0.1303
  956SOL    HW2 3822   4.017   3.455   1.648 -0.6106  2.2115 -0.5557
  956SOL    HW3 3823   4.118   3.486   1.539 -0.8132  0.1212 -1.3694
  956SOL    MW4 3824   4.045   3.446   1.566 -0.5233  0.2526 -0.3499
  957SOL     OW 3825   4.246   3.602   1.521 -0.0450  0.1335 -0.1518
  957SOL    HW2 3826   4.257   3.694   1.545  0.9535  0.0962 -0.4350
  957SOL    HW3 3827   4.257   3.601   1.426  0.4233 -0.3372 -0.0974
  957SOL    MW4 3828   4.249   3.614   1.512  0.1485  0.0664 -0.1820
  958SOL     OW 3829   4.293   3.875   1.608  0.0030  0.0172 -0.3584
  958SOL    HW2 3830   4.215   3.930   1.600  0.6398  0.9780  0.0548
  958SOL    HW3 3831   4.364   3.928   1.573  0.6881 -0.4047  0.3728
  958SOL    MW4 3832   4.292   3.889   1.602  0.1774  0.0883 -0.2074
  959SOL     OW 3833   4.031   3.952   1.578  0.2540  0.0888  0.2186
  959SOL    HW2 3834   4.024   4.039   1.616  1.5952  0.2330  0.1832
  959SOL    HW3 3835   4.003   3.962   1.487  2.2231  0.9038 -0.3195
  959SOL    MW4 3836   4.027   3.965   1.571  0.6908  0.2153  0.1429
  960SOL     OW 3837   4.052   4.215   1.654 -0.4531  0.3612 -0.0601
  960SOL    HW2 3838   4.019   4.229   1.743 -0.9026  0.7510 -0.2878
  960SOL    HW3 3839   3.985   4.252   1.597  1.0234  2.3992 -0.5063
  960SOL    MW4 3840   4.039   4.222   1.658 -0.3176  0.6815 -0.1490
  961SOL     OW 3841   4.272   4.346   1.554 -0.2616  0.4769 -0.0165
  961SOL    HW2 3842   4.198   4.302   1.596  1.5500 -1.3738  1.3569
  961SOL    HW3 3843   4.260   4.328   1.460 -0.4250 -1.6808  0.3776
  961SOL    MW4 3844   4.260   4.338   1.547 -0.0441 -0.0519  0.2167
  962SOL     OW 3845   0.218   4.641   1.945  0.7154 -0.0020  0.4792
  962SOL    HW2 3846   0.274   4.708   1.985 -0.1908  1.0831 -0.0606
  962SOL    HW3 3847   0.227   4.655   1.851 -0.7379  0.4132  0.3909
  962SOL    MW4 3848   0.227   4.652   1.938  0.4041  0.1960  0.3963
  963SOL     OW 3849   4.480   0.126   2.014 -0.2004  0.3453  0.0583
  963SOL    HW2 3850   4.487   0.202   1.957 -0.0372  1.1852  1.1842
  963SOL    HW3 3851   4.559   0.074   1.994 -0.0238  0.7458 -0.2965
  963SOL    MW4 3852   4.491   0.129   2.004 -0.1555  0.5090  0.1601
  964SOL     OW 3853   0.007   0.387   1.864  0.3525 -0.0547  0.5123
  964SOL    HW2 3854  -0.064   0.432   1.911 -0.1033 -1.0947  0.8601
  964SOL    HW3 3855   0.086   0.411   1.912 -0.0763 -0.8643  1.6513
  964SOL    MW4 3856   0.008   0.396   1.877  0.2358 -0.2987  0.7085
  965SOL     OW 3857   0.229   0.486   2.011  0.0990 -0.0179  0.2255
  965SOL    HW2 3858   0.305   0.447   1.967 -0.0077 -0.2516  0.2448
  965SOL    HW3 3859   0.236   0.579   1.992  0.2643 -0.0672  0.0315
  965SOL    MW4 3860   0.240   0.493   2.002  0.1068 -0.0553  0.2024
  966SOL     OW 3861   0.233   0.763   1.935  0.0841 -0.3489  0.0449
  966SOL    HW2 3862   0.304   0.818   1.967 -1.0568  0.1265  1.8126
  966SOL    HW3 3863   0.251   0.753   1.841  1.9895  0.4764  0.2985
  966SOL    MW4 3864   0.245   0.769   1.927  0.1849 -0.1773  0.3116
  967SOL     OW 3865   0.007   0.893   1.992  0.4470 -0.2437  0.6565
  967SOL    HW2 3866  -0.060   0.831   1.965 -0.7501  1.6317 -0.8431
  967SOL    HW3 3867   0.090   0.848   1.974 -0.3986 -1.5690  0.0103
  967SOL    MW4 3868   0.009   0.879   1.986  0.1775 -0.1711  0.3734
  968SOL     OW 3869   0.026   1.145   1.877 -0.2287  0.1918  0.0391
  968SOL    HW2 3870  -0.061   1.173   1.907 -0.3249 -0.8768  0.7597
  968SOL    HW3 3871   0.028   1.051   1.893  0.0185 -0.2843 -2.5706
  968SOL    MW4 3872   0.015   1.137   1.883 -0.2088 -0.0120 -0.2102
  969SOL     OW 3873   0.238   1.277   2.025  0.2698  0.0984 -0.2110
  969SOL    HW2 3874   0.248   1.357   1.973 -0.4122  0.0890 -0.3607
  969SOL    HW3 3875   0.167   1.230   1.983  1.7072 -1.3567 -1.0907
  969SOL    MW4 3876   0.230   1.281   2.013  0.3694 -0.0948 -0.3468
  970SOL     OW 3877   0.200   1.542   1.921 -0.1381  0.6375  0.3246
  970SOL    HW2 3878   0.281   1.574   1.961 -0.1131  1.9496 -0.7157
  970SOL    HW3 3879   0.132   1.602   1.952 -0.3583  0.7908 -0.4229
  970SOL    MW4 3880   0.202   1.554   1.930 -0.1639  0.8308  0.0887
  971SOL     OW 3881   4.472   1.719   1.991 -0.1023  0.0562  0.3576
  971SOL    HW2 3882   4.452   1.710   2.084  0.0454 -0.5699  0.3308
  971SOL    HW3 3883   4.413   1.657   1.948  1.3069 -1.1933  0.2115
  971SOL    MW4 3884   4.461   1.710   1.997  0.1031 -0.1913  0.3348
  972SOL     OW 3885   0.004   1.972   1.858  0.2502 -0.3021 -0.3770
  972SOL    HW2 3886  -0.072   2.027   1.877 -0.0293 -0.2405 -1.6237
  972SOL    HW3 3887  -0.014   1.890   1.904 -0.0891  0.0885  0.1822
  972SOL    MW4 3888  -0.008   1.968   1.866  0.1686 -0.2424 -0.4677
  973SOL     OW 3889   0.241   2.111   1.947  0.3503 -0.1274  0.1141
  973SOL    HW2 3890   0.230   2.206   1.941  1.1847 -0.1380 -1.7281
  973SOL    HW3 3891   0.160   2.075   1.911 -1.0514 -0.1354  3.1397
  973SOL    MW4 3892   0.229   2.118   1.941  0.2755 -0.1299  0.2703
  974SOL     OW 3893   0.178   2.369   1.871  0.3377 -0.0535 -0.4263
  974SOL    HW2 3894   0.258   2.410   1.902 -0.1362  0.7606 -0.2450
  974SOL    HW3 3895   0.110   2.403   1.929 -0.2547 -0.0870 -1.0920
  974SOL    MW4 3896   0.179   2.379   1.883  0.1970  0.0494 -0.4902
  975SOL     OW 3897   4.462   2.471   2.020  0.0115  0.0484  0.3052
  975SOL    HW2 3898   4.464   2.484   2.115 -2.4740  2.3858  0.0967
  975SOL    HW3 3899   4.472   2.559   1.984 -3.4075 -0.2069 -1.4855
  975SOL    MW4 3900   4.463   2.484   2.028 -0.7675  0.3231  0.0414
  976SOL     OW 3901   0.002   2.717   1.888 -0.2384  0.0219 -0.0908
  976SOL    HW2 3902  -0.080   2.757   1.918  0.4760  1.2575  0.2697
  976SOL    HW3 3903  -0.012   2.703   1.794 -1.3109 -0.9259  0.1988
  976SOL    MW4 3904  -0.011   2.721   1.879 -0.2856  0.0599 -0.0051
  977SOL     OW 3905   0.220   2.866   1.977 -0.8386 -0.0404  0.0303
  977SOL    HW2 3906   0.221   2.953   1.937  2.1232 -1.1810 -2.6476
  977SOL    HW3 3907   0.139   2.826   1.946 -0.9141  0.8131 -0.9111
  977SOL    MW4 3908   0.210   2.872   1.967 -0.4578 -0.0783 -0.4472
  978SOL     OW 3909   0.204   3.145   1.916 -0.4497 -0.1823 -0.3077
  978SOL    HW2 3910   0.289   3.170   1.952 -1.2589  1.0918  0.7409
  978SOL    HW3 3911   0.216   3.147   1.821  1.2428 -1.9599 -0.1580
  978SOL    MW4 3912   0.217   3.148   1.908 -0.3332 -0.2487 -0.1496
  979SOL     OW 3913   4.458   3.226   2.026 -0.4009  0.2627  0.6351
  979SOL    HW2 3914   4.392   3.171   1.983  0.4959 -1.2678  1.1692
  979SOL    HW3 3915   4.541   3.199   1.986  0.0093  1.5293  0.6123
  979SOL    MW4 3916   4.461   3.215   2.015 -0.2284  0.2279  0.7026
  980SOL     OW 3917   4.490   3.451   1.867 -0.0484  0.0444  0.1196
  980SOL    HW2 3918   4.564   3.489   1.915  0.3775  0.1698 -0.6118
  980SOL    HW3 3919   4.471   3.370   1.913 -0.6381  0.9009  1.3939
  980SOL    MW4 3920   4.497   3.445   1.879 -0.0700  0.1740  0.1912
  981SOL     OW 3921   0.210   3.584   1.998 -0.0862  0.0691  0.5664
  981SOL    HW2 3922   0.197   3.586   2.093 -1.3322 -0.4240  0.4100
  981SOL    HW3 3923   0.301   3.555   1.987  0.7066  2.0327  1.6370
  981SOL    MW4 3924   0.221   3.580   2.009 -0.1460  0.2631  0.6870
  982SOL     OW 3925   0.223   3.843   1.888 -0.1576  0.0478  0.4199
  982SOL    HW2 3926   0.299   3.884   1.931  0.3676 -1.3317  0.8310
  982SOL    HW3 3927   0.227   3.751   1.915 -0.6766 -0.5251 -1.3920
  982SOL    MW4 3928   0.234   3.837   1.897 -0.1568 -0.2098  0.2351
  983SOL     OW 3929   4.490   3.981   2.010  0.7522 -0.2794 -0.4874
  983SOL    HW2 3930   4.491   4.068   1.971  0.9396 -0.7093 -1.4619
  983SOL    HW3 3931   4.565   3.936   1.971  0.4159 -1.0083 -0.3080
  983SOL    MW4 3932   4.500   3.986   2.000  0.7325 -0.4323 -0.5923
  984SOL     OW 3933   4.487   4.240   1.907  0.2238 -0.0543 -0.4179
  984SOL    HW2 3934   4.402   4.266   1.943  0.6036  1.5346 -0.6003
  984SOL    HW3 3935   4.550   4.298   1.949  1.0508 -0.3080 -1.2767
  984SOL    MW4 3936   4.484   4.251   1.917  0.3830  0.1219 -0.5553
  985SOL     OW 3937   0.183   4.374   2.041 -0.6099 -0.1387 -0.0130
  985SOL    HW2 3938   0.190   4.375   2.137 -0.7243 -0.7465 -0.0008
  985SOL    HW3 3939   0.231   4.453   2.013  1.0482 -0.9735  0.4278
  985SOL    MW4 3940   0.191   4.385   2.050 -0.4062 -0.3291  0.0468
  986SOL     OW 3941   0.622   4.643   1.934 -0.8827 -0.2444 -0.5777
  986SOL    HW2 3942   0.629   4.568   1.993 -0.4960 -0.1670 -0.5222
  986SOL    HW3 3943   0.655   4.610   1.850 -0.0969  0.0414 -0.3904
  986SOL    MW4 3944   0.627   4.629   1.930 -0.7280 -0.1965 -0.5456
  987SOL     OW 3945   0.417   0.139   2.020 -0.6054  0.0098 -0.2742
  987SOL    HW2 3946   0.433   0.219   1.971 -0.7047 -0.4506 -1.0578
  987SOL    HW3 3947   0.479   0.076   1.985  0.6505  0.2036  1.5077
  987SOL    MW4 3948   0.427   0.141   2.009 -0.4528 -0.0254 -0.1424
  988SOL     OW 3949   0.440   0.363   1.878  0.0773 -0.0833 -0.1904
  988SOL    HW2 3950   0.515   0.420   1.900 -0.1572 -0.1519  0.8148
  988SOL    HW3 3951   0.444   0.354   1.783  1.2046  0.1225 -0.1729
  988SOL    MW4 3952   0.451   0.370   1.869  0.1951 -0.0652 -0.0555
  989SOL     OW 3953   0.657   0.507   1.964  0.1226  0.4330 -0.3090
  989SOL    HW2 3954   0.671   0.514   2.058  0.5503  0.8794 -0.4065
  989SOL    HW3 3955   0.729   0.454   1.932 -0.0579  0.2271 -0.3789
  989SOL    MW4 3956   0.668   0.501   1.972  0.1552  0.4647 -0.3311
  990SOL     OW 3957   0.702   0.762   1.873 -0.0150 -0.0866 -0.1174
  990SOL    HW2 3958   0.767   0.794   1.935 -1.0091 -1.9767  1.9796
  990SOL    HW3 3959   0.682   0.673   1.903 -0.6761 -0.9774 -3.0409
  990SOL    MW4 3960   0.708   0.754   1.885 -0.2334 -0.4535 -0.2264
  991SOL     OW 3961   0.468   0.914   1.985  0.3278  0.3943  0.6695
  991SOL    HW2 3962   0.473   1.005   1.957 -1.9652  0.1373 -0.7158
  991SOL    HW3 3963   0.545   0.872   1.945  0.0888  1.2169 -0.6731
  991SOL    MW4 3964   0.479   0.921   1.976 -0.0063  0.4689  0.3096
  992SOL     OW 3965   0.455   1.164   1.890 -0.2999  0.0539 -0.2686
  992SOL    HW2 3966   0.372   1.198   1.925 -0.4719 -0.7797  0.1445
  992SOL    HW3 3967   0.445   1.173   1.795 -0.2197  1.4226 -0.1608
  992SOL    MW4 3968   0.443   1.170   1.882 -0.3120  0.1245 -0.1999
  993SOL     OW 3969   0.680   1.288   1.983 -0.4143  0.1311  0.5829
  993SOL    HW2 3970   0.669   1.311   2.075 -0.5028 -1.1415  0.8896
  993SOL    HW3 3971   0.596   1.252   1.956 -0.1825 -0.1329  0.1912
  993SOL    MW4 3972   0.668   1.286   1.991 -0.3954 -0.0716  0.5717
  994SOL     OW 3973   0.680   1.543   1.867  0.0182 -0.4449  0.4455
  994SOL    HW2 3974   0.683   1.448   1.878 -0.9821 -0.3744  1.4747
  994SOL    HW3 3975   0.686   1.557   1.773  1.3623 -1.4678  0.3603
  994SOL    MW4 3976   0.681   1.532   1.856  0.0636 -0.5706  0.5700
  995SOL     OW 3977   0.430   1.686   1.980 -0.3396 -0.2304 -0.3886
  995SOL    HW2 3978   0.442   1.692   2.074 -1.5635 -0.5940 -0.2032
  995SOL    HW3 3979   0.508   1.640   1.949  1.1168  1.7996  0.1567
  995SOL    MW4 3980   0.442   1.681   1.988 -0.3089 -0.0105 -0.2922
  996SOL     OW 3981   0.454   1.950   1.916 -0.0936  0.1676  0.4184
  996SOL    HW2 3982   0.431   1.860   1.938  1.8045 -0.3032  0.6205
  996SOL    HW3 3983   0.371   1.997   1.912 -0.9361 -1.1095  2.4423
  996SOL    MW4 3984   0.440   1.944   1.918  0.0457 -0.0630  0.7121
  997SOL     OW 3985   0.678   2.076   1.980  0.3565 -0.3729  0.0176
  997SOL    HW2 3986   0.698   2.068   2.073  0.2643  0.4139  0.1130
  997SOL    HW3 3987   0.593   2.033   1.969  0.6496 -1.0009  0.1807
  997SOL    MW4 3988   0.669   2.070   1.991  0.3830 -0.3519  0.0517
  998SOL     OW 3989   0.657   2.327   1.851  0.0085 -0.2406  0.0932
  998SOL    HW2 3990   0.655   2.234   1.873 -0.7299 -0.2813 -0.1159
  998SOL    HW3 3991   0.668   2.329   1.756  1.0590 -0.0963  0.2138
  998SOL    MW4 3992   0.658   2.315   1.841  0.0496 -0.2269  0.0815
  999SOL     OW 3993   0.430   2.444   1.979  0.1696  0.6744 -0.0053
  999SOL    HW2 3994   0.441   2.447   2.074 -1.9818 -2.5640  0.4361
  999SOL    HW3 3995   0.515   2.416   1.946  0.4737  0.2434  1.1222
  999SOL    MW4 3996   0.442   2.440   1.987 -0.0742  0.1902  0.2017
 1000SOL     OW 3997   0.438   2.712   1.884  0.0997  0.1912 -0.3565
 1000SOL    HW2 3998   0.421   2.628   1.927  0.8964  0.2371  0.0473
 1000SOL    HW3 3999   0.360   2.765   1.904  0.3088  0.0970  0.7367
 1000SOL    MW4 4000   0.425   2.708   1.892  0.2324  0.1848 -0.1590
 1001SOL     OW 4001   0.655   2.836   1.969  0.4604 -0.0834 -0.0658
 1001SOL    HW2 4002   0.639   2.829   2.063 -0.0117 -0.2862 -0.1562
 1001SOL    HW3 4003   0.583   2.787   1.929  0.6005  0.0872 -0.5343
 1001SOL    MW4 4004   0.643   2.829   1.976  0.4166 -0.0876 -0.1395
 1002SOL     OW 4005   0.667   3.122   1.868 -0.4551  0.7076 -0.6017
 1002SOL    HW2 4006   0.641   3.041   1.913  0.0940  0.9203  0.1067
 1002SOL    HW3 4007   0.664   3.099   1.775 -1.2877  0.1677 -0.4514
 1002SOL    MW4 4008   0.663   3.108   1.862 -0.4925  0.6644 -0.4884
 1003SOL     OW 4009   0.444   3.230   2.006  0.2981  0.4197  0.0311
 1003SOL    HW2 4010   0.436   3.324   1.986 -0.8943  0.0838 -1.1132
 1003SOL    HW3 4011   0.512   3.199   1.946  1.0959  0.6691  0.8071
 1003SOL    MW4 4012   0.452   3.238   1.995  0.2461  0.4083 -0.0175
 1004SOL     OW 4013   0.451   3.489   1.925 -0.0213  0.4989 -0.4279
 1004SOL    HW2 4014   0.533   3.523   1.960  0.5756  0.5505 -1.8430
 1004SOL    HW3 4015   0.456   3.506   1.830 -0.9527 -0.9346 -0.7511
 1004SOL    MW4 4016   0.462   3.496   1.917 -0.0654  0.3165 -0.6573
 1005SOL     OW 4017   0.672   3.603   2.015  0.1147 -0.0139  0.4183
 1005SOL    HW2 4018   0.753   3.564   1.982 -1.3921 -1.0791 -2.1929
 1005SOL    HW3 4019   0.674   3.693   1.981  0.9775  0.4999  1.7895
 1005SOL    MW4 4020   0.683   3.610   2.006  0.0298 -0.0866  0.2547
 1006SOL     OW 4021   0.683   3.866   1.925 -0.1308 -0.2382 -0.4172
 1006SOL    HW2 4022   0.766   3.910   1.945 -0.5637  0.5697 -0.3779
 1006SOL    HW3 4023   0.678   3.866   1.830  0.3776 -1.1719 -0.4524
 1006SOL    MW4 4024   0.693   3.872   1.915 -0.1208 -0.2548 -0.4166
 1007SOL     OW 4025   0.429   3.956   2.039 -0.1605  0.0840  0.1266
 1007SOL    HW2 4026   0.427   4.050   2.023 -0.4325 -0.3196 -2.3505
 1007SOL    HW3 4027   0.508   3.925   1.994 -1.0094 -1.1173 -0.5730
 1007SOL    MW4 4028   0.440   3.964   2.031 -0.3084 -0.1278 -0.2925
 1008SOL     OW 4029   0.423   4.232   1.980 -0.1027 -0.0148 -0.2949
 1008SOL    HW2 4030   0.358   4.292   2.017  1.2803  1.3529 -0.0280
 1008SOL    HW3 4031   0.405   4.232   1.886 -0.7993 -0.0400 -0.1664
 1008SOL    MW4 4032   0.412   4.240   1.972 -0.0122  0.1623 -0.2427
 1009SOL     OW 4033   0.635   4.381   2.041 -0.3784  0.2496  0.3775
 1009SOL    HW2 4034   0.714   4.345   2.002  0.3917 -0.7020  2.7466
 1009SOL    HW3 4035   0.566   4.319   2.018  0.0472 -0.2312  0.3923
 1009SOL    MW4 4036   0.636   4.368   2.033 -0.2206  0.0606  0.6920
 1010SOL     OW 4037   1.081   4.656   1.903  0.0424  0.4309 -0.1197
 1010SOL    HW2 4038   1.153   4.701   1.947  0.9635  0.1906 -1.3355
 1010SOL    HW3 4039   1.091   4.564   1.930 -0.6098  0.6081  0.7485
 1010SOL    MW4 4040   1.092   4.650   1.912  0.0779  0.4226 -0.1656
 1011SOL     OW 4041   0.870   0.130   2.003  0.8134  0.1273 -0.1771
 1011SOL    HW2 4042   0.940   0.083   1.958  0.8118 -1.2943  1.2461
 1011SOL    HW3 4043   0.790   0.082   1.980  0.7236 -0.1616  0.7157
 1011SOL    MW4 4044   0.869   0.117   1.994  0.8013 -0.0984  0.1284
 1012SOL     OW 4045   0.897   0.373   1.887  0.0339  0.1710 -0.3638
 1012SOL    HW2 4046   0.973   0.414   1.927 -0.9258  1.2932  0.3707
 1012SOL    HW3 4047   0.882   0.294   1.939 -0.0348  0.5994  0.2760
 1012SOL    MW4 4048   0.905   0.368   1.899 -0.1018  0.3756 -0.1825
 1013SOL     OW 4049   1.134   0.497   1.962  0.1423  0.1440  0.0695
 1013SOL    HW2 4050   1.216   0.452   1.943  0.5476  0.8279  0.2076
 1013SOL    HW3 4051   1.148   0.587   1.933 -0.1068  0.5821  1.2621
 1013SOL    MW4 4052   1.146   0.503   1.956  0.1629  0.2920  0.2450
 1014SOL     OW 4053   1.151   0.773   1.893  0.5145  0.5644 -0.2359
 1014SOL    HW2 4054   1.221   0.827   1.928  0.8266  0.5131 -0.7906
 1014SOL    HW3 4055   1.074   0.796   1.946 -0.1246  3.8154 -2.4601
 1014SOL    MW4 4056   1.150   0.783   1.905  0.4714  0.9866 -0.6026
 1015SOL     OW 4057   0.915   0.852   2.030  0.0736  0.3247  0.2139
 1015SOL    HW2 4058   0.913   0.868   2.124  1.8764 -1.0592  0.4936
 1015SOL    HW3 4059   0.913   0.940   1.991 -0.0521  0.9161  1.5435
 1015SOL    MW4 4060   0.915   0.866   2.037  0.2948  0.2201  0.4262
 1016SOL     OW 4061   0.894   1.108   1.926 -0.4144 -0.2197 -0.2275
 1016SOL    HW2 4062   0.816   1.162   1.936  0.0132  0.2327  0.7008
 1016SOL    HW3 4063   0.907   1.103   1.831 -0.4042  1.4093 -0.3387
 1016SOL    MW4 4064   0.886   1.115   1.915 -0.3566  0.0549 -0.1197
 1017SOL     OW 4065   1.097   1.265   1.997 -0.0342  0.2281  0.6261
 1017SOL    HW2 4066   1.081   1.354   1.967  1.5651  0.3836  0.1527
 1017SOL    HW3 4067   1.020   1.215   1.969 -0.0245  1.0521 -0.9187
 1017SOL    MW4 4068   1.085   1.270   1.989  0.1781  0.3573  0.3598
 1018SOL     OW 4069   1.107   1.554   1.946  0.5352  0.2187  0.0082
 1018SOL    HW2 4070   1.041   1.620   1.968  0.6527  0.3500 -0.0336
 1018SOL    HW3 4071   1.098   1.543   1.851  0.5198  0.1780  0.0143
 1018SOL    MW4 4072   1.097   1.561   1.936  0.5486  0.2306  0.0035
 1019SOL     OW 4073   0.881   1.691   2.038 -0.1824 -0.3076  0.5446
 1019SOL    HW2 4074   0.862   1.778   2.003  0.8152 -0.6746 -0.9320
 1019SOL    HW3 4075   0.828   1.631   1.986 -0.6385 -0.6264  1.3615
 1019SOL    MW4 4076   0.872   1.694   2.027 -0.1109 -0.3981  0.4575
 1020SOL     OW 4077   0.891   1.931   1.860 -0.4811 -0.3501 -0.3291
 1020SOL    HW2 4078   0.805   1.972   1.876 -1.0533 -2.1261  1.3356
 1020SOL    HW3 4079   0.906   1.943   1.767 -1.3610  2.2413 -0.1855
 1020SOL    MW4 4080   0.882   1.938   1.850 -0.6727 -0.2425 -0.0905
 1021SOL     OW 4081   1.125   2.068   1.973  0.5278  0.2286 -0.3554
 1021SOL    HW2 4082   1.114   2.148   1.920 -0.4169 -0.8819 -1.8845
 1021SOL    HW3 4083   1.048   2.015   1.952 -0.1034 -0.0556  2.5402
 1021SOL    MW4 4084   1.114   2.072   1.963  0.3199  0.0446 -0.1751
 1022SOL     OW 4085   1.101   2.305   1.825 -0.1964 -0.0315  0.3613
 1022SOL    HW2 4086   1.175   2.344   1.871  0.7786 -0.9204 -0.4384
 1022SOL    HW3 4087   1.119   2.322   1.733 -1.3862  0.4249  0.2037
 1022SOL    MW4 4088   1.113   2.312   1.819 -0.2248 -0.0885  0.2350
 1023SOL     OW 4089   0.894   2.436   1.963  0.0788  0.1534 -0.1504
 1023SOL    HW2 4090   0.950   2.377   1.913 -0.5276 -0.3812 -0.2030
 1023SOL    HW3 4091   0.805   2.406   1.945 -0.2852  1.5701 -0.8107
 1023SOL    MW4 4092   0.889   2.424   1.954 -0.0492  0.2698 -0.2445
 1024SOL     OW 4093   0.889   2.704   1.866 -0.1810  0.3018 -0.3500
 1024SOL    HW2 4094   0.889   2.616   1.904 -1.1733  0.3810 -0.1471
 1024SOL    HW3 4095   0.819   2.750   1.912  0.8410  1.4367  0.0776
 1024SOL    MW4 4096   0.880   2.698   1.877 -0.1771  0.4620 -0.2668
 1025SOL     OW 4097   1.136   2.804   1.945 -0.2229  0.2651  0.2419
 1025SOL    HW2 4098   1.130   2.792   2.039 -0.6206  2.0196  0.4547
 1025SOL    HW3 4099   1.056   2.764   1.910  0.0635 -0.6474  0.6001
 1025SOL    MW4 4100   1.125   2.797   1.953 -0.2376  0.3762  0.3172
 1026SOL     OW 4101   1.155   3.074   1.869  0.0559 -0.1647  0.1443
 1026SOL    HW2 4102   1.068   3.111   1.887  0.0585  0.1066 -0.3584
 1026SOL    HW3 4103   1.152   2.986   1.905 -0.2138  0.0700  0.6945
 1026SOL    MW4 4104   1.143   3.067   1.876  0.0207 -0.0979  0.1506
 1027SOL     OW 4105   0.933   3.175   1.949  0.1971 -0.1548 -0.1685
 1027SOL    HW2 4106   0.941   3.193   2.042  0.2229  0.1158 -0.2222
 1027SOL    HW3 4107   0.841   3.150   1.937  0.0639  0.3190 -0.1552
 1027SOL    MW4 4108   0.922   3.174   1.959  0.1829 -0.0566 -0.1738
 1028SOL     OW 4109   0.888   3.474   1.892  0.3435 -0.0559 -0.3742
 1028SOL    HW2 4110   0.896   3.381   1.911 -0.1315 -0.3905 -1.8097
 1028SOL    HW3 4111   0.879   3.479   1.797 -1.0069  1.3496 -0.2005
 1028SOL    MW4 4112   0.888   3.463   1.882  0.1026  0.0854 -0.5407
 1029SOL     OW 4113   1.130   3.557   2.002  0.1301 -0.3441  0.3395
 1029SOL    HW2 4114   1.111   3.576   2.094 -0.4201 -0.8996  0.3395
 1029SOL    HW3 4115   1.052   3.513   1.970  0.6077 -0.7879 -0.2110
 1029SOL    MW4 4116   1.117   3.554   2.010  0.1205 -0.4760  0.2668
 1030SOL     OW 4117   1.156   3.851   1.935  0.0382 -0.2899  0.0151
 1030SOL    HW2 4118   1.150   3.758   1.955  0.2695 -0.4217 -0.5211
 1030SOL    HW3 4119   1.138   3.857   1.841 -0.2849  0.2400  0.1059
 1030SOL    MW4 4120   1.153   3.840   1.925  0.0261 -0.2374 -0.0437
 1031SOL     OW 4121   0.913   4.008   2.024 -0.1862  0.5591 -0.1971
 1031SOL    HW2 4122   0.884   4.003   2.115 -0.4121  0.3484 -0.2822
 1031SOL    HW3 4123   0.991   3.953   2.020 -1.7814 -1.7386 -0.7817
 1031SOL    MW4 4124   0.919   4.000   2.035 -0.4265  0.2281 -0.2855
 1032SOL     OW 4125   0.857   4.256   1.928 -0.3262  0.2164 -0.0904
 1032SOL    HW2 4126   0.943   4.292   1.949 -0.0639  0.5123 -1.6432
 1032SOL    HW3 4127   0.865   4.162   1.944 -0.6741  0.6267  2.8636
 1032SOL    MW4 4128   0.869   4.248   1.933 -0.3375  0.3096  0.0945
 1033SOL     OW 4129   1.098   4.392   1.997 -0.4852 -0.5771 -0.3558
 1033SOL    HW2 4130   1.099   4.382   2.092  0.5008  1.0137 -0.1640
 1033SOL    HW3 4131   1.175   4.345   1.966 -0.9979 -1.3881 -0.4099
 1033SOL    MW4 4132   1.108   4.385   2.005 -0.4227 -0.4742 -0.3376
 1034SOL     OW 4133   1.546   4.628   1.906  0.3219 -0.6574  0.1418
 1034SOL    HW2 4134   1.623   4.683   1.920  0.1250  0.3143 -2.3861
 1034SOL    HW3 4135   1.566   4.547   1.953  2.9739 -0.5254 -0.6759
 1034SOL    MW4 4136   1.559   4.625   1.914  0.6458 -0.5117 -0.2996
 1035SOL     OW 4137   1.304   0.126   2.003 -0.3032  0.0505 -0.6199
 1035SOL    HW2 4138   1.299   0.126   2.099  1.1672 -0.2261 -0.5420
 1035SOL    HW3 4139   1.379   0.070   1.983 -1.8051 -1.5161 -2.0132
 1035SOL    MW4 4140   1.313   0.119   2.013 -0.3073 -0.1927 -0.7935
 1036SOL     OW 4141   1.349   0.372   1.865 -0.3083 -0.3964 -0.2665
 1036SOL    HW2 4142   1.304   0.291   1.889 -2.7520  1.1593  0.5562
 1036SOL    HW3 4143   1.338   0.379   1.770 -2.2551  0.2181 -0.0062
 1036SOL    MW4 4144   1.342   0.362   1.855 -0.8876 -0.1101 -0.1236
 1037SOL     OW 4145   1.562   0.492   2.010 -0.3199  0.1303  0.6014
 1037SOL    HW2 4146   1.643   0.444   1.988 -0.2336  1.2470 -1.6280
 1037SOL    HW3 4147   1.493   0.444   1.964 -0.6287  0.4037  0.7818
 1037SOL    MW4 4148   1.564   0.479   2.001 -0.3492  0.3137  0.3311
 1038SOL     OW 4149   1.550   0.758   1.906  0.0850  0.1020 -0.6447
 1038SOL    HW2 4150   1.631   0.793   1.944 -0.2299  0.1873 -0.0571
 1038SOL    HW3 4151   1.540   0.671   1.945  0.3507 -0.2630 -1.3744
 1038SOL    MW4 4152   1.560   0.751   1.916  0.0785  0.0651 -0.6634
 1039SOL     OW 4153   1.350   0.939   1.986  0.0504 -0.3054 -0.2597
 1039SOL    HW2 4154   1.336   0.942   2.080  0.5120  0.0559 -0.2017
 1039SOL    HW3 4155   1.418   0.873   1.973  0.0493 -0.2938 -0.3289
 1039SOL    MW4 4156   1.357   0.931   1.997  0.1112 -0.2562 -0.2612
 1040SOL     OW 4157   1.332   1.186   1.855  0.0015  1.0818  0.3150
 1040SOL    HW2 4158   1.347   1.095   1.882 -1.0601  0.0382 -2.4201
 1040SOL    HW3 4159   1.259   1.215   1.908 -1.9269 -0.8540 -1.1950
 1040SOL    MW4 4160   1.325   1.177   1.865 -0.3930  0.6887 -0.2451
 1041SOL     OW 4161   1.532   1.301   2.019 -0.1962  0.3231 -0.5508
 1041SOL    HW2 4162   1.548   1.383   1.972 -0.5486 -0.1442 -1.5048
 1041SOL    HW3 4163   1.473   1.252   1.962  3.0910 -2.2777 -1.8913
 1041SOL    MW4 4164   1.526   1.305   2.005  0.1910 -0.0817 -0.8535
 1042SOL     OW 4165   1.567   1.553   1.895  0.2877  0.1105 -0.0379
 1042SOL    HW2 4166   1.645   1.605   1.916 -0.6634  1.6168 -0.1174
 1042SOL    HW3 4167   1.496   1.600   1.937 -0.7057 -0.7449 -0.7531
 1042SOL    MW4 4168   1.568   1.566   1.903  0.0311  0.1964 -0.1427
 1043SOL     OW 4169   1.336   1.673   2.033 -0.4054  0.3550 -0.1912
 1043SOL    HW2 4170   1.335   1.693   2.127 -1.3149 -0.6550  0.0293
 1043SOL    HW3 4171   1.261   1.614   2.020 -1.1661  1.6394 -1.8191
 1043SOL    MW4 4172   1.326   1.668   2.044 -0.6258  0.3912 -0.3769
 1044SOL     OW 4173   1.352   1.937   1.901 -0.0824 -0.1696 -0.0524
 1044SOL    HW2 4174   1.344   1.847   1.934 -0.6446 -0.7217 -1.6577
 1044SOL    HW3 4175   1.270   1.979   1.924 -0.8520 -0.8308 -1.5359
 1044SOL    MW4 4176   1.340   1.931   1.908 -0.2581 -0.3297 -0.4599
 1045SOL     OW 4177   1.585   2.059   1.993  0.2014 -0.3198 -0.5786
 1045SOL    HW2 4178   1.591   2.153   1.979 -0.1432 -0.3728 -1.1010
 1045SOL    HW3 4179   1.503   2.033   1.950  0.9258 -1.0561 -1.5736
 1045SOL    MW4 4180   1.575   2.068   1.985  0.2515 -0.4239 -0.7788
 1046SOL     OW 4181   1.595   2.327   1.889  0.2127  0.0887  0.4014
 1046SOL    HW2 4182   1.665   2.383   1.923  0.5705  0.3659 -0.7732
 1046SOL    HW3 4183   1.593   2.345   1.795 -0.2096 -1.2857  0.1376
 1046SOL    MW4 4184   1.604   2.337   1.882  0.2042 -0.0560  0.2116
 1047SOL     OW 4185   1.343   2.392   1.963 -0.1171 -0.1651 -0.8027
 1047SOL    HW2 4186   1.336   2.486   1.946 -0.5774  0.0914  0.7506
 1047SOL    HW3 4187   1.433   2.370   1.938  0.4297  0.9748  0.1363
 1047SOL    MW4 4188   1.354   2.401   1.958 -0.1057  0.0191 -0.4739
 1048SOL     OW 4189   1.358   2.669   1.905 -0.4169 -0.2067 -0.2127
 1048SOL    HW2 4190   1.269   2.699   1.920  0.1307  1.3512  0.0321
 1048SOL    HW3 4191   1.370   2.675   1.810 -0.8792 -1.3470 -0.3523
 1048SOL    MW4 4192   1.348   2.674   1.894 -0.4056 -0.1516 -0.1988
 1049SOL     OW 4193   1.551   2.834   2.014 -0.0312  0.5786 -0.6392
 1049SOL    HW2 4194   1.623   2.786   1.971  0.2776  1.5207 -1.2029
 1049SOL    HW3 4195   1.472   2.789   1.985  0.2792  0.0876 -0.7390
 1049SOL    MW4 4196   1.550   2.822   2.004  0.0505  0.6381 -0.7268
 1050SOL     OW 4197   1.588   3.100   1.898 -0.2168 -0.1927  0.1324
 1050SOL    HW2 4198   1.578   3.009   1.928  1.0949 -0.3393  0.1572
 1050SOL    HW3 4199   1.582   3.094   1.803 -2.1433 -0.0261  0.2287
 1050SOL    MW4 4200   1.586   3.087   1.890 -0.2979 -0.1900  0.1484
 1051SOL     OW 4201   1.363   3.215   2.022  0.4533  0.4427  0.3516
 1051SOL    HW2 4202   1.446   3.185   1.985  0.0524  2.3041 -2.1726
 1051SOL    HW3 4203   1.296   3.171   1.970 -0.1523  0.6237  0.9682
 1051SOL    MW4 4204   1.366   3.205   2.010  0.3205  0.7122  0.0999
 1052SOL     OW 4205   1.368   3.468   1.906 -0.3886 -0.4207 -0.0912
 1052SOL    HW2 4206   1.376   3.384   1.951 -0.4455  0.9607  2.5843
 1052SOL    HW3 4207   1.284   3.504   1.935  0.5144  1.4170  0.3421
 1052SOL    MW4 4208   1.358   3.462   1.916 -0.2770  0.0040  0.3190
 1053SOL     OW 4209   1.597   3.607   1.972 -0.2886  0.2296  0.2695
 1053SOL    HW2 4210   1.594   3.595   2.067  1.2090 -1.3635  0.1403
 1053SOL    HW3 4211   1.519   3.561   1.941  0.8986 -2.0074  0.4960
 1053SOL    MW4 4212   1.586   3.599   1.981  0.0656 -0.2757  0.2824
 1054SOL     OW 4213   1.629   3.875   1.898 -0.1691  0.2077  0.1881
 1054SOL    HW2 4214   1.719   3.890   1.928  0.1045  0.7187 -0.8573
 1054SOL    HW3 4215   1.614   3.782   1.914  0.2790  0.2808  1.0684
 1054SOL    MW4 4216   1.639   3.865   1.904 -0.0739  0.2847  0.1663
 1055SOL     OW 4217   1.377   4.009   2.004 -0.3245  0.2996 -0.0008
 1055SOL    HW2 4218   1.459   3.971   1.974 -0.2521  1.4594 -1.3558
 1055SOL    HW3 4219   1.309   3.950   1.971 -0.1460  0.5938 -0.9150
 1055SOL    MW4 4220   1.378   3.996   1.996 -0.2914  0.4915 -0.3002
 1056SOL     OW 4221   1.343   4.271   1.922  0.2744  0.1247  0.3178
 1056SOL    HW2 4222   1.349   4.180   1.949  0.0225  0.0031 -0.0340
 1056SOL    HW3 4223   1.339   4.268   1.827 -2.5565  0.3188  0.3830
 1056SOL    MW4 4224   1.343   4.259   1.913 -0.1323  0.1343  0.2800
 1057SOL     OW 4225   1.590   4.380   2.015 -0.0961 -0.3570  0.3101
 1057SOL    HW2 4226   1.596   4.379   2.111  0.6887  1.1777  0.3011
 1057SOL    HW3 4227   1.511   4.331   1.995  0.1108 -1.3096  1.7102
 1057SOL    MW4 4228   1.581   4.373   2.025  0.0347 -0.2802  0.4936
 1058SOL     OW 4229   2.017   4.665   1.896  0.2818 -0.2641 -0.4097
 1058SOL    HW2 4230   2.096   4.714   1.919  0.7275 -0.8180 -0.7499
 1058SOL    HW3 4231   2.028   4.579   1.938 -0.3986 -0.1515  0.0128
 1058SOL    MW4 4232   2.029   4.660   1.905  0.2508 -0.3223 -0.3988
 1059SOL     OW 4233   1.774   0.098   1.974  0.0617 -0.0228  0.0481
 1059SOL    HW2 4234   1.773   0.096   2.069  0.3179 -1.7009  0.0329
 1059SOL    HW3 4235   1.861   0.065   1.951  0.4428  1.5147 -0.7451
 1059SOL    MW4 4236   1.786   0.093   1.983  0.1458 -0.0413 -0.0586
 1060SOL     OW 4237   1.805   0.384   1.941  0.1681  0.3046  0.0457
 1060SOL    HW2 4238   1.797   0.290   1.953 -0.1806  0.4450  0.9401
 1060SOL    HW3 4239   1.824   0.395   1.848 -1.3332 -0.5620 -0.3786
 1060SOL    MW4 4240   1.807   0.373   1.930 -0.0760  0.2088  0.1077
 1061SOL     OW 4241   2.043   0.539   1.981 -0.2926  0.0567  0.4951
 1061SOL    HW2 4242   2.028   0.620   1.931 -1.1037 -0.6222 -0.3997
 1061SOL    HW3 4243   1.957   0.496   1.982  0.1084 -0.7347  1.0549
 1061SOL    MW4 4244   2.030   0.544   1.974 -0.3467 -0.1373  0.4509
 1062SOL     OW 4245   1.971   0.805   1.865  0.1772 -0.0820 -0.2247
 1062SOL    HW2 4246   2.054   0.838   1.898 -0.0674 -0.1409  0.4685
 1062SOL    HW3 4247   1.981   0.805   1.770  1.3055 -0.9477 -0.1296
 1062SOL    MW4 4248   1.983   0.809   1.857  0.2938 -0.2040 -0.1207
 1063SOL     OW 4249   1.764   0.905   1.999  0.4990 -0.4094 -0.0760
 1063SOL    HW2 4250   1.779   0.998   1.983 -0.1645  0.0384  1.8275
 1063SOL    HW3 4251   1.842   0.862   1.963  1.5989  1.0283  0.5318
 1063SOL    MW4 4252   1.776   0.911   1.992  0.5566 -0.1607  0.2553
 1064SOL     OW 4253   1.766   1.176   1.953  0.1581  0.3358 -0.0585
 1064SOL    HW2 4254   1.688   1.224   1.979 -0.0626 -0.2241  0.3198
 1064SOL    HW3 4255   1.766   1.180   1.857 -0.1364  0.6357 -0.0474
 1064SOL    MW4 4256   1.756   1.183   1.943  0.0901  0.3015 -0.0071
 1065SOL     OW 4257   2.004   1.318   1.968  0.0171  0.3179  0.0267
 1065SOL    HW2 4258   2.076   1.273   1.923 -0.0888  1.1793 -1.0280
 1065SOL    HW3 4259   1.931   1.255   1.965 -0.2636  0.7009 -1.8328
 1065SOL    MW4 4260   2.003   1.304   1.961 -0.0339  0.4821 -0.3578
 1066SOL     OW 4261   2.009   1.586   1.863  0.2149 -0.1301  0.1144
 1066SOL    HW2 4262   2.016   1.501   1.907 -2.6446 -0.2792  0.3584
 1066SOL    HW3 4263   2.005   1.563   1.769 -1.1874 -0.3530  0.2090
 1066SOL    MW4 4264   2.009   1.571   1.856 -0.3474 -0.1792  0.1591
 1067SOL     OW 4265   1.785   1.697   2.000 -0.0344  0.2831 -0.1285
 1067SOL    HW2 4266   1.774   1.784   1.962 -0.2497  0.4318  0.2740
 1067SOL    HW3 4267   1.869   1.666   1.966 -0.2042  0.4318 -0.6909
 1067SOL    MW4 4268   1.795   1.704   1.991 -0.0852  0.3224 -0.1496
 1068SOL     OW 4269   1.813   1.962   1.879 -0.0267 -0.0651 -0.4494
 1068SOL    HW2 4270   1.739   2.013   1.914  0.0908 -0.9749  1.1854
 1068SOL    HW3 4271   1.795   1.956   1.785 -1.8883 -0.0191 -0.1267
 1068SOL    MW4 4272   1.801   1.968   1.871 -0.2568 -0.1791 -0.1911
 1069SOL     OW 4273   2.032   2.051   2.004  0.2185  0.0099 -0.3656
 1069SOL    HW2 4274   2.115   2.009   1.978 -0.4850 -2.1896  0.7531
 1069SOL    HW3 4275   1.966   2.007   1.951 -0.5861 -0.5565  1.0910
 1069SOL    MW4 4276   2.034   2.039   1.994  0.0195 -0.3550 -0.0258
 1070SOL     OW 4277   2.051   2.289   1.887  0.4378 -0.1328 -0.3990
 1070SOL    HW2 4278   2.131   2.326   1.925 -0.0072  0.0244  0.4047
 1070SOL    HW3 4279   2.041   2.204   1.930 -0.7898  0.6095  0.8663
 1070SOL    MW4 4280   2.060   2.283   1.898  0.2171 -0.0141 -0.1260
 1071SOL     OW 4281   1.822   2.447   1.975  0.0011 -0.3298 -0.4543
 1071SOL    HW2 4282   1.839   2.467   2.067 -0.9948 -1.0548 -0.1153
 1071SOL    HW3 4283   1.902   2.402   1.945  0.7336  0.7919 -0.2287
 1071SOL    MW4 4284   1.835   2.444   1.983 -0.0336 -0.2775 -0.3798
 1072SOL     OW 4285   1.797   2.723   1.897 -0.5229  0.2703 -0.1869
 1072SOL    HW2 4286   1.781   2.629   1.904 -2.3028  0.5961  0.1647
 1072SOL    HW3 4287   1.794   2.741   1.803  2.2586 -0.4123 -0.4662
 1072SOL    MW4 4288   1.795   2.713   1.886 -0.3908  0.2232 -0.1774
 1073SOL     OW 4289   2.007   2.841   2.026 -0.8246  0.3257  0.0795
 1073SOL    HW2 4290   2.003   2.827   2.120  1.5569 -1.6664 -0.0465
 1073SOL    HW3 4291   1.933   2.793   1.990 -0.5362 -0.6685  0.7994
 1073SOL    MW4 4292   1.997   2.833   2.034 -0.4723 -0.0683  0.1579
 1074SOL     OW 4293   2.021   3.091   1.890  0.0134 -0.0163  0.4261
 1074SOL    HW2 4294   1.948   3.149   1.913  1.8012  2.2234  0.5796
 1074SOL    HW3 4295   2.005   3.012   1.941 -1.4802  1.0377  1.6419
 1074SOL    MW4 4296   2.009   3.088   1.899  0.0522  0.4183  0.6068
 1075SOL     OW 4297   1.815   3.249   1.985  0.0791  0.0451 -0.1829
 1075SOL    HW2 4298   1.803   3.265   2.078 -1.5347  2.4211 -0.7509
 1075SOL    HW3 4299   1.739   3.196   1.960  0.5776 -0.6977 -0.1118
 1075SOL    MW4 4300   1.803   3.244   1.994 -0.0681  0.2606 -0.2485
 1076SOL     OW 4301   1.833   3.503   1.841 -0.1669  0.8767 -0.2749
 1076SOL    HW2 4302   1.836   3.418   1.885  0.5152  0.8856 -0.2981
 1076SOL    HW3 4303   1.753   3.544   1.873 -0.5289  0.1994 -0.3088
 1076SOL    MW4 4304   1.823   3.497   1.851 -0.1246  0.7885 -0.2824
 1077SOL     OW 4305   2.026   3.628   2.009  0.1798  0.0888  0.2028
 1077SOL    HW2 4306   2.039   3.711   1.962 -0.1932 -0.6260 -1.1927
 1077SOL    HW3 4307   1.952   3.587   1.964  1.5970 -1.8872 -0.3685
 1077SOL    MW4 4308   2.018   3.634   1.997  0.3176 -0.2662 -0.0567
 1078SOL     OW 4309   2.045   3.896   1.907 -0.3800  0.1084 -0.3674
 1078SOL    HW2 4310   2.120   3.932   1.954  0.3746 -1.2256 -0.5440
 1078SOL    HW3 4311   2.067   3.908   1.814 -1.1423  1.2460 -0.4133
 1078SOL    MW4 4312   2.058   3.902   1.901 -0.3810  0.0825 -0.3968
 1079SOL     OW 4313   1.829   4.040   2.001  0.3057  0.1064 -0.5966
 1079SOL    HW2 4314   1.844   4.127   1.964 -0.2885 -0.3869 -2.0044
 1079SOL    HW3 4315   1.906   3.989   1.975 -0.1353 -0.2527 -1.2110
 1079SOL    MW4 4316   1.842   4.045   1.993  0.1691 -0.0061 -0.8634
 1080SOL     OW 4317   1.824   4.296   1.918  0.3393  0.1303 -0.0587
 1080SOL    HW2 4318   1.741   4.327   1.955 -0.1292  0.2517 -1.1625
 1080SOL    HW3 4319   1.805   4.284   1.825  0.9126 -2.0910  0.0782
 1080SOL    MW4 4320   1.810   4.298   1.910  0.3531 -0.1468 -0.1863
 1081SOL     OW 4321   2.046   4.407   2.046 -0.3361  0.0800  0.1262
 1081SOL    HW2 4322   2.115   4.344   2.029 -1.0618 -0.3624 -1.3053
 1081SOL    HW3 4323   1.969   4.370   2.002 -1.4962  0.5096  1.7684
 1081SOL    MW4 4324   2.045   4.394   2.038 -0.5849  0.0783  0.1540
 1082SOL     OW 4325   2.473   4.663   1.901  0.3696 -0.1210  0.3975
 1082SOL    HW2 4326   2.544   4.719   1.932  0.6668 -0.0567 -0.3905
 1082SOL    HW3 4327   2.490   4.578   1.941  1.1511 -0.2271 -0.1707
 1082SOL    MW4 4328   2.484   4.659   1.910  0.5119 -0.1265  0.2186
 1083SOL     OW 4329   2.254   0.123   2.007  0.3007 -0.6671 -0.2501
 1083SOL    HW2 4330   2.272   0.153   2.096  0.8644  0.1910 -0.6476
 1083SOL    HW3 4331   2.330   0.070   1.983 -0.4184 -1.9494  0.2272
 1083SOL    MW4 4332   2.266   0.120   2.016  0.2802 -0.7231 -0.2396
 1084SOL     OW 4333   2.258   0.383   1.887  0.0165 -0.2935 -0.6736
 1084SOL    HW2 4334   2.256   0.300   1.934  1.4512  0.3604  0.6003
 1084SOL    HW3 4335   2.183   0.432   1.922 -0.1911 -0.6316 -0.6404
 1084SOL    MW4 4336   2.248   0.379   1.898  0.1784 -0.2518 -0.5011
 1085SOL     OW 4337   2.483   0.553   1.979  0.5888  0.6083 -0.3388
 1085SOL    HW2 4338   2.554   0.491   1.966 -0.1520  0.0331 -1.6891
 1085SOL    HW3 4339   2.404   0.505   1.953 -0.2084  1.4692  0.4722
 1085SOL    MW4 4340   2.482   0.538   1.974  0.3859  0.6460 -0.4100
 1086SOL     OW 4341   2.481   0.820   1.897  0.5727 -0.4285  0.1826
 1086SOL    HW2 4342   2.491   0.735   1.938 -1.3033 -0.9231 -0.3598
 1086SOL    HW3 4343   2.483   0.802   1.803 -1.9151 -0.1602  0.0523
 1086SOL    MW4 4344   2.483   0.807   1.890 -0.0031 -0.4583  0.0939
 1087SOL     OW 4345   2.230   0.895   1.983 -0.2607 -0.1082 -0.1857
 1087SOL    HW2 4346   2.257   0.910   2.074 -0.9911  0.2695 -0.0225
 1087SOL    HW3 4347   2.311   0.878   1.936  0.2561  0.9480  0.2937
 1087SOL    MW4 4348   2.244   0.895   1.989 -0.2889  0.0810 -0.1010
 1088SOL     OW 4349   2.223   1.176   1.891 -0.2921 -0.0924  0.0054
 1088SOL    HW2 4350   2.308   1.210   1.917 -0.3828  0.6234 -0.6320
 1088SOL    HW3 4351   2.223   1.086   1.924  0.3671  0.1746  0.7552
 1088SOL    MW4 4352   2.234   1.168   1.899 -0.2171  0.0372  0.0202
 1089SOL     OW 4353   2.476   1.267   1.968  0.1161  0.1522 -0.6997
 1089SOL    HW2 4354   2.489   1.269   2.063  0.5163  0.8495 -0.7625
 1089SOL    HW3 4355   2.465   1.359   1.944  1.4028  0.1070 -1.5079
 1089SOL    MW4 4356   2.477   1.280   1.978  0.3387  0.2382 -0.8146
 1090SOL     OW 4357   2.469   1.535   1.883 -0.1810 -0.5581  0.0100
 1090SOL    HW2 4358   2.393   1.586   1.910  1.9693  2.3820  0.7813
 1090SOL    HW3 4359   2.468   1.540   1.787 -0.0684  0.8460  0.0745
 1090SOL    MW4 4360   2.459   1.542   1.874  0.1176  0.0151  0.1203
 1091SOL     OW 4361   2.244   1.682   1.954  0.0207  0.0561  0.6143
 1091SOL    HW2 4362   2.242   1.674   2.049 -2.0006  0.4578  0.6467
 1091SOL    HW3 4363   2.154   1.663   1.927  0.4580  0.4058 -1.1675
 1091SOL    MW4 4364   2.232   1.679   1.963 -0.1883  0.1553  0.3834
 1092SOL     OW 4365   2.264   1.943   1.868  0.2911 -0.3198  0.3704
 1092SOL    HW2 4366   2.340   1.988   1.903  1.7580 -0.2209 -2.7500
 1092SOL    HW3 4367   2.265   1.857   1.909  1.2578  0.1998  1.4370
 1092SOL    MW4 4368   2.274   1.938   1.878  0.6121 -0.2382  0.0994
 1093SOL     OW 4369   2.465   2.066   1.993  0.4636 -0.3113  0.1321
 1093SOL    HW2 4370   2.536   2.020   1.948  0.2134 -1.5277  0.9515
 1093SOL    HW3 4371   2.467   2.155   1.957  0.4586 -1.1609 -2.0566
 1093SOL    MW4 4372   2.475   2.072   1.982  0.4299 -0.5839 -0.0485
 1094SOL     OW 4373   2.469   2.307   1.875  0.4205  0.1671 -0.3881
 1094SOL    HW2 4374   2.551   2.346   1.906  0.2189 -0.0134  0.3961
 1094SOL    HW3 4375   2.404   2.334   1.940  0.3107 -1.6331  0.2806
 1094SOL    MW4 4376   2.471   2.316   1.888  0.3794 -0.0942 -0.1964
 1095SOL     OW 4377   2.270   2.414   2.032  0.2552 -0.0648  0.3242
 1095SOL    HW2 4378   2.273   2.400   2.127  3.0574 -1.6405  0.0551
 1095SOL    HW3 4379   2.263   2.509   2.022 -0.5300  0.0916  2.0888
 1095SOL    MW4 4380   2.269   2.425   2.043  0.5213 -0.2521  0.5215
 1096SOL     OW 4381   2.216   2.680   1.950 -0.7344 -0.2846  0.1273
 1096SOL    HW2 4382   2.138   2.733   1.962 -0.4347  0.4898 -1.2526
 1096SOL    HW3 4383   2.221   2.664   1.855  0.3625 -0.9578  0.2772
 1096SOL    MW4 4384   2.206   2.685   1.939 -0.5501 -0.2712 -0.0350
 1097SOL     OW 4385   2.459   2.834   2.006 -0.3519 -0.0536 -0.1706
 1097SOL    HW2 4386   2.447   2.919   1.965 -0.4541 -0.8079 -1.7504
 1097SOL    HW3 4387   2.379   2.785   1.986 -0.5629 -0.3287  1.2440
 1097SOL    MW4 4388   2.447   2.839   1.998 -0.3932 -0.1894 -0.1924
 1098SOL     OW 4389   2.443   3.071   1.889 -0.0069  0.3120 -0.2585
 1098SOL    HW2 4390   2.363   3.119   1.909 -1.3825 -1.8256 -0.4230
 1098SOL    HW3 4391   2.442   3.062   1.794  0.2684  0.0505 -0.2381
 1098SOL    MW4 4392   2.432   3.076   1.879 -0.1521 -0.0046 -0.2775
 1099SOL     OW 4393   2.228   3.232   1.981  0.1539  0.2557  0.2128
 1099SOL    HW2 4394   2.241   3.225   2.075 -1.4804  0.2021  0.4552
 1099SOL    HW3 4395   2.149   3.180   1.963  1.2225 -0.8574 -1.3903
 1099SOL    MW4 4396   2.219   3.224   1.991  0.0792  0.1018  0.0333
 1100SOL     OW 4397   2.247   3.490   1.888  0.0065  0.3393  0.1204
 1100SOL    HW2 4398   2.233   3.398   1.911 -0.3819 -0.0125 -1.4875
 1100SOL    HW3 4399   2.175   3.536   1.932 -1.1112 -0.4065 -0.8973
 1100SOL    MW4 4400   2.236   3.484   1.897 -0.1922  0.1945 -0.2260
 1101SOL     OW 4401   2.479   3.582   2.019 -0.5250 -0.0826  0.2739
 1101SOL    HW2 4402   2.474   3.550   2.109  0.4138  0.2576  0.4468
 1101SOL    HW3 4403   2.391   3.568   1.984 -0.8319 -0.4243  1.1714
 1101SOL    MW4 4404   2.467   3.576   2.026 -0.4416 -0.0828  0.4152
 1102SOL     OW 4405   2.481   3.836   1.886  0.0793 -0.2785  0.1897
 1102SOL    HW2 4406   2.402   3.881   1.914 -0.7176 -1.2658 -0.4240
 1102SOL    HW3 4407   2.481   3.754   1.935  1.3402  0.2044  1.0465
 1102SOL    MW4 4408   2.471   3.831   1.896  0.1405 -0.3451  0.2218
 1103SOL     OW 4409   2.281   3.996   2.002 -0.3638 -0.2489 -0.4658
 1103SOL    HW2 4410   2.281   3.979   2.097  0.2795 -1.4434 -0.6701
 1103SOL    HW3 4411   2.268   4.090   1.995  1.0384  0.0645  0.8669
 1103SOL    MW4 4412   2.279   4.006   2.014 -0.0939 -0.3652 -0.3169
 1104SOL     OW 4413   2.242   4.255   1.925  0.0754 -0.3396 -0.0196
 1104SOL    HW2 4414   2.321   4.305   1.945 -0.0232  0.1362 -0.8007
 1104SOL    HW3 4415   2.243   4.245   1.830 -0.1990 -1.3384  0.0843
 1104SOL    MW4 4416   2.252   4.261   1.915  0.0262 -0.4086 -0.1089
 1105SOL     OW 4417   2.477   4.408   1.992  0.2148 -0.2422  0.4534
 1105SOL    HW2 4418   2.486   4.386   2.085 -1.3336 -1.4810  0.3228
 1105SOL    HW3 4419   2.540   4.352   1.948  0.0948 -0.5379  0.6506
 1105SOL    MW4 4420   2.486   4.398   1.999 -0.0053 -0.4447  0.4622
 1106SOL     OW 4421   2.951   4.655   1.878 -0.4640 -0.0161 -0.4876
 1106SOL    HW2 4422   3.023   4.686   1.933 -0.3522 -0.9601 -0.0896
 1106SOL    HW3 4423   2.941   4.562   1.901 -1.3671 -0.0627 -1.0185
 1106SOL    MW4 4424   2.959   4.647   1.888 -0.5684 -0.1468 -0.5051
 1107SOL     OW 4425   2.699   0.117   1.988 -0.5660  0.2892 -0.2378
 1107SOL    HW2 4426   2.700   0.107   2.083 -0.1977  0.4247 -0.2274
 1107SOL    HW3 4427   2.772   0.063   1.957  0.3024  1.4783 -0.3188
 1107SOL    MW4 4428   2.709   0.109   1.997 -0.4029  0.4640 -0.2471
 1108SOL     OW 4429   2.684   0.384   1.906  0.1972 -0.2661 -0.4901
 1108SOL    HW2 4430   2.763   0.432   1.933 -0.6361  0.0513  1.4743
 1108SOL    HW3 4431   2.697   0.296   1.940  0.1274 -0.4819 -1.0158
 1108SOL    MW4 4432   2.696   0.379   1.914  0.0781 -0.2527 -0.3003
 1109SOL     OW 4433   2.915   0.513   1.987  0.2884 -0.1222  0.2342
 1109SOL    HW2 4434   2.972   0.453   1.938  0.5163  0.4497 -0.2043
 1109SOL    HW3 4435   2.928   0.598   1.945 -0.6627  0.0705  0.3168
 1109SOL    MW4 4436   2.924   0.516   1.975  0.1930 -0.0213  0.1872
 1110SOL     OW 4437   2.925   0.764   1.867 -0.1069 -0.1484  0.0958
 1110SOL    HW2 4438   3.001   0.811   1.903  0.3712 -0.3465 -0.6531
 1110SOL    HW3 4439   2.850   0.816   1.895  0.2716 -0.2126  1.2563
 1110SOL    MW4 4440   2.925   0.777   1.876  0.0062 -0.1830  0.1501
 1111SOL     OW 4441   2.722   0.919   1.972  0.4059  0.3988  0.0768
 1111SOL    HW2 4442   2.735   1.003   1.928 -1.4423  0.6831  0.0715
 1111SOL    HW3 4443   2.629   0.899   1.962  0.5922 -1.1039  1.0572
 1111SOL    MW4 4444   2.712   0.927   1.965  0.1866  0.2381  0.2055
 1112SOL     OW 4445   2.729   1.182   1.868 -0.2345  0.0607 -0.1878
 1112SOL    HW2 4446   2.638   1.193   1.894 -0.2351 -1.1790  0.4030
 1112SOL    HW3 4447   2.728   1.187   1.773 -0.7591  1.1098 -0.1302
 1112SOL    MW4 4448   2.717   1.184   1.859 -0.3038  0.0356 -0.1022
 1113SOL     OW 4449   2.963   1.276   1.978 -0.1260 -0.2720  0.1244
 1113SOL    HW2 4450   2.949   1.366   1.949  0.3295  0.1517  1.1779
 1113SOL    HW3 4451   2.878   1.233   1.967 -0.5572  0.5088  0.3890
 1113SOL    MW4 4452   2.950   1.282   1.973 -0.1228 -0.1131  0.2983
 1114SOL     OW 4453   2.936   1.534   1.877 -0.2358 -0.3638 -0.3428
 1114SOL    HW2 4454   3.020   1.568   1.909 -0.7045  1.1514 -0.6936
 1114SOL    HW3 4455   2.937   1.552   1.783 -1.3069  0.4124 -0.2065
 1114SOL    MW4 4456   2.947   1.541   1.869 -0.4390 -0.0615 -0.3711
 1115SOL     OW 4457   2.702   1.667   1.980 -0.2711  0.2492  0.2120
 1115SOL    HW2 4458   2.773   1.607   1.959 -0.6513 -0.9531  2.2314
 1115SOL    HW3 4459   2.622   1.622   1.953 -0.4210  0.7794 -0.2587
 1115SOL    MW4 4460   2.701   1.653   1.974 -0.3410  0.1605  0.4164
 1116SOL     OW 4461   2.672   1.925   1.889 -0.6678 -0.0115 -0.0352
 1116SOL    HW2 4462   2.760   1.958   1.909 -0.8204  0.6056 -0.3622
 1116SOL    HW3 4463   2.671   1.836   1.924 -0.3651  0.4564  1.1648
 1116SOL    MW4 4464   2.684   1.918   1.896 -0.6480  0.1316  0.0800
 1117SOL     OW 4465   2.909   2.067   1.962 -0.3793  0.3645 -0.1594
 1117SOL    HW2 4466   2.913   2.069   2.057  0.9015  1.2744 -0.2280
 1117SOL    HW3 4467   2.983   2.014   1.935 -1.3038 -0.7183 -0.6273
 1117SOL    MW4 4468   2.919   2.061   1.971 -0.3323  0.3417 -0.2302
 1118SOL     OW 4469   2.910   2.315   1.831 -0.1592 -0.2239  0.1264
 1118SOL    HW2 4470   2.991   2.352   1.867 -0.3682 -0.3869  0.7800
 1118SOL    HW3 4471   2.912   2.222   1.857 -0.3931 -0.3066 -0.1427
 1118SOL    MW4 4472   2.921   2.307   1.839 -0.2176 -0.2563  0.1771
 1119SOL     OW 4473   2.718   2.472   1.974  0.3214 -0.1100 -0.1304
 1119SOL    HW2 4474   2.715   2.559   1.934  0.9521  0.2369  0.5633
 1119SOL    HW3 4475   2.780   2.423   1.921 -0.4037 -0.3008 -0.8211
 1119SOL    MW4 4476   2.726   2.477   1.962  0.3089 -0.0894 -0.1300
 1120SOL     OW 4477   2.686   2.725   1.874 -0.0057 -0.2459 -0.0551
 1120SOL    HW2 4478   2.611   2.769   1.915 -0.0878 -1.1477  0.7603
 1120SOL    HW3 4479   2.659   2.710   1.784 -0.6992 -0.3217  0.1666
 1120SOL    MW4 4480   2.673   2.729   1.868 -0.1080 -0.3749  0.0818
 1121SOL     OW 4481   2.944   2.819   1.964  0.4869 -0.2231 -0.1757
 1121SOL    HW2 4482   2.926   2.913   1.960  1.6660 -0.0566 -2.2636
 1121SOL    HW3 4483   2.874   2.779   1.912 -0.0726 -0.5203  0.7952
 1121SOL    MW4 4484   2.932   2.826   1.956  0.5687 -0.2403 -0.3231
 1122SOL     OW 4485   2.910   3.087   1.932 -0.3948  0.0452 -0.3564
 1122SOL    HW2 4486   2.983   3.137   1.968 -0.0040 -1.0064  0.3597
 1122SOL    HW3 4487   2.832   3.138   1.954 -0.4113 -1.5962  4.0368
 1122SOL    MW4 4488   2.910   3.100   1.940 -0.3454 -0.3101  0.3177
 1123SOL     OW 4489   2.676   3.190   2.003  0.6107 -0.2529  0.2172
 1123SOL    HW2 4490   2.662   3.273   1.958  1.0443 -0.7333 -0.8273
 1123SOL    HW3 4491   2.606   3.134   1.972 -0.2529  0.0142  1.6654
 1123SOL    MW4 4492   2.665   3.193   1.993  0.5540 -0.2811  0.2705
 1124SOL     OW 4493   2.686   3.437   1.904  0.0918 -0.3875 -0.0392
 1124SOL    HW2 4494   2.766   3.468   1.945 -0.5742  0.3366  0.7130
 1124SOL    HW3 4495   2.615   3.479   1.953 -0.7775 -1.7333 -0.0990
 1124SOL    MW4 4496   2.687   3.447   1.916 -0.1108 -0.4695  0.0522
 1125SOL     OW 4497   2.905   3.554   2.017  0.4086  0.2264  0.0112
 1125SOL    HW2 4498   2.891   3.542   2.111  1.5542  1.8307  0.4094
 1125SOL    HW3 4499   2.993   3.521   2.001  0.5672  0.8035 -0.3250
 1125SOL    MW4 4500   2.915   3.548   2.027  0.5807  0.5142  0.0194
 1126SOL     OW 4501   2.927   3.842   1.918  0.2761  0.1986  0.0014
 1126SOL    HW2 4502   2.941   3.752   1.947  1.7297  0.2958 -0.3852
 1126SOL    HW3 4503   2.929   3.837   1.822  1.0259  0.7487 -0.0124
 1126SOL    MW4 4504   2.929   3.829   1.909  0.5668  0.2840 -0.0514
 1127SOL     OW 4505   2.710   3.990   1.970  0.4221  0.1834  0.4827
 1127SOL    HW2 4506   2.781   3.929   1.950 -0.0819 -0.5158  0.7994
 1127SOL    HW3 4507   2.630   3.943   1.947  0.0353  0.8115  0.5107
 1127SOL    MW4 4508   2.709   3.976   1.965  0.3046  0.1740  0.5282
 1128SOL     OW 4509   2.697   4.262   1.908 -0.0457 -0.1460  0.4029
 1128SOL    HW2 4510   2.705   4.169   1.931 -0.5231 -0.1328  0.6380
 1128SOL    HW3 4511   2.692   4.262   1.813  0.2561 -0.3396  0.3861
 1128SOL    MW4 4512   2.697   4.249   1.899 -0.0689 -0.1698  0.4317
 1129SOL     OW 4513   2.933   4.402   1.984  0.7314 -0.5870 -0.4636
 1129SOL    HW2 4514   2.918   4.402   2.079  0.5292 -0.0200 -0.4940
 1129SOL    HW3 4515   2.856   4.358   1.948  0.4213 -0.0909 -0.4186
 1129SOL    MW4 4516   2.921   4.396   1.992  0.6638 -0.4467 -0.4617
 1130SOL     OW 4517   3.371   4.663   1.910  0.2199  0.1046  0.3246
 1130SOL    HW2 4518   3.370   4.574   1.946 -0.7237  0.7341  1.9572
 1130SOL    HW3 4519   3.346   4.652   1.818 -0.3456 -1.2857  0.6222
 1130SOL    MW4 4520   3.367   4.650   1.903  0.0208  0.0042  0.5793
 1131SOL     OW 4521   3.146   0.121   2.027  0.0955 -0.3030  0.2372
 1131SOL    HW2 4522   3.144   0.124   2.123 -0.8607 -1.2199  0.2485
 1131SOL    HW3 4523   3.224   0.069   2.007 -0.0184 -0.5881  0.5306
 1131SOL    MW4 4524   3.156   0.114   2.037 -0.0457 -0.4616  0.2774
 1132SOL     OW 4525   3.126   0.366   1.910 -0.1636 -0.1639  0.1124
 1132SOL    HW2 4526   3.148   0.285   1.956 -1.2752 -0.4789  0.1041
 1132SOL    HW3 4527   3.132   0.344   1.817  1.1459  0.2137  0.1030
 1132SOL    MW4 4528   3.129   0.352   1.904 -0.1375 -0.1557  0.1101
 1133SOL     OW 4529   3.373   0.490   2.013  0.0293 -0.1083  0.1289
 1133SOL    HW2 4530   3.447   0.466   1.958 -0.9276  2.0602 -2.1577
 1133SOL    HW3 4531   3.301   0.434   1.982  0.6461 -2.2021  2.3344
 1133SOL    MW4 4532   3.373   0.479   2.002 -0.0156 -0.0984  0.1182
 1134SOL     OW 4533   3.374   0.732   1.857 -0.2330 -0.4886 -0.5405
 1134SOL    HW2 4534   3.291   0.777   1.875 -0.1943 -0.3040 -0.8226
 1134SOL    HW3 4535   3.376   0.660   1.920  0.8376  1.3058  1.5264
 1134SOL    MW4 4536   3.363   0.728   1.867 -0.0867 -0.2275 -0.3050
 1135SOL     OW 4537   3.160   0.877   1.955 -0.1152 -0.0999  0.0392
 1135SOL    HW2 4538   3.174   0.887   2.049  0.5673  0.9062 -0.1625
 1135SOL    HW3 4539   3.173   0.964   1.919 -1.1548 -0.3127 -0.9051
 1135SOL    MW4 4540   3.163   0.890   1.962 -0.1623  0.0048 -0.1120
 1136SOL     OW 4541   3.162   1.120   1.854  0.0779  0.3346 -0.0125
 1136SOL    HW2 4542   3.238   1.167   1.888  0.6697 -1.9887  1.9961
 1136SOL    HW3 4543   3.087   1.175   1.877  0.7908  0.5860  1.7779
 1136SOL    MW4 4544   3.162   1.133   1.861  0.2500  0.0612  0.4887
 1137SOL     OW 4545   3.394   1.235   1.977 -0.2807 -0.4343  0.0167
 1137SOL    HW2 4546   3.389   1.220   2.071 -1.6207  0.2621  0.0612
 1137SOL    HW3 4547   3.388   1.331   1.967 -1.1136 -0.5683 -0.8345
 1137SOL    MW4 4548   3.393   1.246   1.988 -0.5674 -0.3601 -0.0898
 1138SOL     OW 4549   3.387   1.517   1.893 -0.0514 -0.3222 -0.3701
 1138SOL    HW2 4550   3.458   1.560   1.941  0.0512 -2.1902  1.2323
 1138SOL    HW3 4551   3.308   1.564   1.918 -0.0628 -1.5621  2.0737
 1138SOL    MW4 4552   3.386   1.529   1.902 -0.0393 -0.7323  0.1637
 1139SOL     OW 4553   3.168   1.654   1.975  0.0651 -0.0644  0.0548
 1139SOL    HW2 4554   3.179   1.669   2.069  1.3733 -0.2750 -0.0502
 1139SOL    HW3 4555   3.167   1.742   1.937  0.8419 -0.0133  0.1406
 1139SOL    MW4 4556   3.170   1.668   1.983  0.3402 -0.0855  0.0523
 1140SOL     OW 4557   3.131   1.917   1.898 -0.2120 -0.4259 -0.4580
 1140SOL    HW2 4558   3.213   1.941   1.942 -0.8024 -1.9036  1.5584
 1140SOL    HW3 4559   3.145   1.938   1.806  1.9239  0.6435  0.0881
 1140SOL    MW4 4560   3.144   1.923   1.892 -0.0081 -0.4797 -0.1199
 1141SOL     OW 4561   3.375   2.025   1.995  0.2364  0.5815  0.1006
 1141SOL    HW2 4562   3.466   1.996   1.993 -0.5578 -2.1439  1.0347
 1141SOL    HW3 4563   3.375   2.109   1.949  2.7382 -0.7112 -2.4124
 1141SOL    MW4 4564   3.387   2.032   1.989  0.4617  0.0514 -0.1077
 1142SOL     OW 4565   3.376   2.277   1.873 -0.3707 -0.4649 -0.0216
 1142SOL    HW2 4566   3.292   2.313   1.900  0.3042  1.0277  0.1619
 1142SOL    HW3 4567   3.372   2.274   1.777  0.0756  1.4215 -0.1122
 1142SOL    MW4 4568   3.365   2.281   1.864 -0.2227 -0.0191 -0.0094
 1143SOL     OW 4569   3.154   2.423   1.953  0.6269 -0.0776  0.8248
 1143SOL    HW2 4570   3.143   2.420   2.048 -0.5064 -0.6995  0.6815
 1143SOL    HW3 4571   3.155   2.516   1.931 -0.0059  0.0489  1.3429
 1143SOL    MW4 4572   3.153   2.434   1.962  0.3939 -0.1429  0.8742
 1144SOL     OW 4573   3.173   2.693   1.874 -0.3027 -0.0685 -0.0563
 1144SOL    HW2 4574   3.093   2.735   1.906 -0.2275 -0.6017  0.8844
 1144SOL    HW3 4575   3.170   2.701   1.779 -1.2963  0.2408  0.0044
 1144SOL    MW4 4576   3.162   2.699   1.866 -0.4238 -0.0980  0.0758
 1145SOL     OW 4577   3.410   2.775   1.987 -0.3785  0.3952 -0.2524
 1145SOL    HW2 4578   3.399   2.805   2.077  1.3684 -0.6726  0.3473
 1145SOL    HW3 4579   3.321   2.754   1.957 -0.8314 -0.6575  1.7268
 1145SOL    MW4 4580   3.397   2.776   1.995 -0.2078  0.1154  0.0879
 1146SOL     OW 4581   3.383   3.060   1.923 -0.2853  0.0322 -0.3515
 1146SOL    HW2 4582   3.456   3.117   1.947 -0.4407  0.5885 -1.1912
 1146SOL    HW3 4583   3.415   2.971   1.938  1.0692  0.2111 -2.1006
 1146SOL    MW4 4584   3.397   3.056   1.929 -0.1271  0.1292 -0.6930
 1147SOL     OW 4585   3.165   3.208   2.021  0.1295 -0.0406  0.6801
 1147SOL    HW2 4586   3.161   3.296   1.983  0.8193 -0.2906  0.0111
 1147SOL    HW3 4587   3.229   3.162   1.967 -0.4369 -1.0415  0.8478
 1147SOL    MW4 4588   3.173   3.214   2.009  0.1458 -0.2057  0.6140
 1148SOL     OW 4589   3.144   3.453   1.895 -0.4776 -0.0957 -0.2353
 1148SOL    HW2 4590   3.223   3.500   1.921 -0.4081 -0.5101  0.3111
 1148SOL    HW3 4591   3.145   3.454   1.799  0.4193 -0.4958 -0.2292
 1148SOL    MW4 4592   3.154   3.460   1.886 -0.3501 -0.2032 -0.1624
 1149SOL     OW 4593   3.349   3.623   1.975 -0.2265  0.0580  0.3640
 1149SOL    HW2 4594   3.427   3.578   1.943 -0.9786 -0.5083 -0.7152
 1149SOL    HW3 4595   3.355   3.711   1.938  0.4983  0.3973  1.2678
 1149SOL    MW4 4596   3.360   3.629   1.966 -0.2301  0.0280  0.3408
 1150SOL     OW 4597   3.375   3.882   1.888 -0.1475 -0.2220 -0.5578
 1150SOL    HW2 4598   3.290   3.924   1.903 -0.1032 -0.5383  0.5766
 1150SOL    HW3 4599   3.389   3.892   1.794 -1.4093 -0.1064 -0.7494
 1150SOL    MW4 4600   3.366   3.889   1.878 -0.3081 -0.2485 -0.4334
 1151SOL     OW 4601   3.140   4.007   1.956  0.3058 -0.2234 -0.0889
 1151SOL    HW2 4602   3.135   4.019   2.051 -0.3264  1.5634 -0.3223
 1151SOL    HW3 4603   3.061   3.958   1.934  0.4437 -0.6244  0.3056
 1151SOL    MW4 4604   3.129   4.002   1.966  0.2406 -0.0406 -0.0676
 1152SOL     OW 4605   3.142   4.274   1.858 -0.1270  0.1173  0.2171
 1152SOL    HW2 4606   3.150   4.186   1.895  0.6166  0.1724  0.1937
 1152SOL    HW3 4607   3.068   4.313   1.904  0.5609  0.0587  1.4008
 1152SOL    MW4 4608   3.134   4.268   1.869  0.0618  0.1169  0.3702
 1153SOL     OW 4609   3.351   4.396   1.998 -0.4426  0.1102 -0.1277
 1153SOL    HW2 4610   3.428   4.356   1.957 -0.9056 -1.3044  0.3659
 1153SOL    HW3 4611   3.277   4.363   1.947 -0.9202 -0.6437  1.0155
 1153SOL    MW4 4612   3.351   4.386   1.986 -0.5667 -0.1759  0.0883
 1154SOL     OW 4613   3.812   4.647   1.877  0.2630 -0.1036  0.2890
 1154SOL    HW2 4614   3.796   4.567   1.928 -0.5216 -0.4044 -0.4104
 1154SOL    HW3 4615   3.741   4.705   1.903 -0.8951 -0.7290 -1.3970
 1154SOL    MW4 4616   3.800   4.644   1.887  0.0067 -0.2258 -0.0257
 1155SOL     OW 4617   3.603   0.138   1.982  0.3150 -0.2462  0.1293
 1155SOL    HW2 4618   3.610   0.111   2.074  0.5752 -0.1546  0.1381
 1155SOL    HW3 4619   3.530   0.086   1.947  0.6470 -0.7793  0.2112
 1155SOL    MW4 4620   3.594   0.127   1.990  0.3931 -0.3044  0.1412
 1156SOL     OW 4621   3.587   0.376   1.877  0.1461 -0.0619 -0.4765
 1156SOL    HW2 4622   3.583   0.290   1.918 -1.6813  0.3662  0.2920
 1156SOL    HW3 4623   3.591   0.358   1.783  0.9382 -0.9933 -0.2711
 1156SOL    MW4 4624   3.587   0.363   1.870  0.0095 -0.1283 -0.3480
 1157SOL     OW 4625   3.816   0.473   1.978 -0.2795 -0.4257 -0.3842
 1157SOL    HW2 4626   3.821   0.562   1.942  0.8868  0.0052  0.8009
 1157SOL    HW3 4627   3.732   0.439   1.946 -0.6167  1.0010 -1.0627
 1157SOL    MW4 4628   3.805   0.480   1.969 -0.1701 -0.1806 -0.3173
 1158SOL     OW 4629   3.834   0.731   1.914 -0.3825  0.1416  0.1835
 1158SOL    HW2 4630   3.765   0.792   1.936  0.5492  1.4411 -0.4161
 1158SOL    HW3 4631   3.831   0.724   1.818  0.3553  0.2886  0.1392
 1158SOL    MW4 4632   3.825   0.738   1.904 -0.1622  0.3324  0.0985
 1159SOL     OW 4633   3.605   0.869   1.973 -0.1350  0.3777 -0.0169
 1159SOL    HW2 4634   3.593   0.960   1.949 -0.1723  0.7847  1.4964
 1159SOL    HW3 4635   3.532   0.823   1.932 -0.8865  1.2341  0.3465
 1159SOL    MW4 4636   3.594   0.875   1.965 -0.2390  0.5444  0.2307
 1160SOL     OW 4637   3.623   1.123   1.874  0.6024  0.3944 -0.0044
 1160SOL    HW2 4638   3.542   1.171   1.891  1.1014  1.1619  0.2205
 1160SOL    HW3 4639   3.624   1.108   1.780 -0.4841 -0.8431  0.1672
 1160SOL    MW4 4640   3.613   1.127   1.864  0.5249  0.3324  0.0479
 1161SOL     OW 4641   3.851   1.261   1.932  0.4204 -0.2196  0.2342
 1161SOL    HW2 4642   3.863   1.251   2.027 -0.8621 -0.1609  0.4105
 1161SOL    HW3 4643   3.772   1.209   1.913 -0.9274  2.0038 -0.3417
 1161SOL    MW4 4644   3.842   1.253   1.942  0.0733  0.0815  0.1814
 1162SOL     OW 4645   3.828   1.533   1.884  0.0659 -0.3963 -0.4160
 1162SOL    HW2 4646   3.920   1.560   1.891  0.3972 -1.4550 -0.6784
 1162SOL    HW3 4647   3.828   1.442   1.912 -0.9109 -0.4017 -0.4363
 1162SOL    MW4 4648   3.840   1.525   1.889 -0.0192 -0.5367 -0.4533
 1163SOL     OW 4649   3.606   1.650   2.014 -0.4594 -0.1921 -0.0227
 1163SOL    HW2 4650   3.597   1.739   1.978  0.1295  0.2133  0.7914
 1163SOL    HW3 4651   3.675   1.610   1.961 -1.0138 -0.3141 -0.6619
 1163SOL    MW4 4652   3.614   1.657   2.002 -0.4549 -0.1547  0.0004
 1164SOL     OW 4653   3.610   1.916   1.927  0.4161 -0.0466  0.5992
 1164SOL    HW2 4654   3.690   1.963   1.952 -0.5265  1.8223  0.2234
 1164SOL    HW3 4655   3.616   1.907   1.832  0.1796  0.0816  0.5733
 1164SOL    MW4 4656   3.621   1.921   1.918  0.2605  0.2169  0.5462
 1165SOL     OW 4657   3.855   2.069   1.979 -0.1204  0.3685 -0.0803
 1165SOL    HW2 4658   3.931   2.029   1.938  0.4153  0.4124  0.8370
 1165SOL    HW3 4659   3.850   2.157   1.941  0.5296  0.5034  0.1385
 1165SOL    MW4 4660   3.864   2.075   1.969  0.0360  0.3921  0.0696
 1166SOL     OW 4661   3.846   2.312   1.869  0.6709  0.3686 -0.5130
 1166SOL    HW2 4662   3.916   2.354   1.919  0.5384  0.7632 -0.6580
 1166SOL    HW3 4663   3.765   2.340   1.912  0.6012 -0.1491 -0.2969
 1166SOL    MW4 4664   3.844   2.321   1.881  0.6443  0.3523 -0.5037
 1167SOL     OW 4665   3.598   2.402   1.998  0.2829 -0.3828  0.0811
 1167SOL    HW2 4666   3.618   2.482   1.951  0.8931 -1.4626 -1.5414
 1167SOL    HW3 4667   3.524   2.364   1.950  0.5998 -1.2579  0.2759
 1167SOL    MW4 4668   3.591   2.407   1.985  0.4052 -0.6407 -0.1072
 1168SOL     OW 4669   3.600   2.634   1.842  0.2608  0.3294 -0.0083
 1168SOL    HW2 4670   3.664   2.689   1.886 -0.2607  1.7605 -0.9778
 1168SOL    HW3 4671   3.516   2.661   1.879  0.0640 -0.2868 -0.0057
 1168SOL    MW4 4672   3.597   2.645   1.852  0.1660  0.4369 -0.1359
 1169SOL     OW 4673   3.780   2.783   1.988  0.4410 -0.0237 -0.6350
 1169SOL    HW2 4674   3.807   2.790   2.079 -1.2190 -0.4043 -0.0947
 1169SOL    HW3 4675   3.771   2.873   1.958 -1.8844  0.1476  0.4741
 1169SOL    MW4 4676   3.782   2.796   1.996 -0.0848 -0.0513 -0.4174
 1170SOL     OW 4677   3.799   3.044   1.891 -0.3865 -0.1140 -0.1584
 1170SOL    HW2 4678   3.732   3.104   1.924  0.8435  0.7132  0.8446
 1170SOL    HW3 4679   3.792   3.050   1.796 -3.0242 -1.4687 -0.1073
 1170SOL    MW4 4680   3.789   3.052   1.883 -0.5722 -0.1836 -0.0193
 1171SOL     OW 4681   3.596   3.212   1.963 -0.1492  0.6491  0.2981
 1171SOL    HW2 4682   3.583   3.227   2.057  0.5524  0.7478  0.3796
 1171SOL    HW3 4683   3.572   3.295   1.922 -3.0159 -0.1906  0.1513
 1171SOL    MW4 4684   3.591   3.225   1.970 -0.4349  0.5513  0.2895
 1172SOL     OW 4685   3.561   3.483   1.870  0.1550 -0.1108 -0.2442
 1172SOL    HW2 4686   3.647   3.488   1.911  0.4243 -0.1746 -0.8050
 1172SOL    HW3 4687   3.576   3.503   1.778 -0.7990  2.4824  0.1082
 1172SOL    MW4 4688   3.574   3.487   1.863  0.0647  0.2230 -0.2717
 1173SOL     OW 4689   3.819   3.572   1.978  0.0517 -0.0941  0.2208
 1173SOL    HW2 4690   3.896   3.545   1.928  0.2464  0.7299  0.0678
 1173SOL    HW3 4691   3.813   3.667   1.964 -0.2206  0.0555  1.2936
 1173SOL    MW4 4692   3.828   3.581   1.970  0.0415  0.0344  0.3421
 1174SOL     OW 4693   3.814   3.836   1.918  0.0824  0.0857  0.1128
 1174SOL    HW2 4694   3.747   3.903   1.933  0.2017  0.6719 -1.8317
 1174SOL    HW3 4695   3.813   3.822   1.823  1.2423 -1.4455  0.3047
 1174SOL    MW4 4696   3.805   3.843   1.908  0.2511 -0.0390 -0.1184
 1175SOL     OW 4697   3.613   4.020   1.970 -0.2799 -0.1661 -0.0470
 1175SOL    HW2 4698   3.622   4.021   2.066  0.2089 -0.5387 -0.0864
 1175SOL    HW3 4699   3.537   3.964   1.954  0.2918 -0.9988  0.0807
 1175SOL    MW4 4700   3.605   4.013   1.981 -0.1399 -0.3251 -0.0353
 1176SOL     OW 4701   3.568   4.270   1.887 -0.2280  0.3715  0.0411
 1176SOL    HW2 4702   3.634   4.328   1.925 -0.6762  0.8226  0.1386
 1176SOL    HW3 4703   3.593   4.183   1.917 -0.7050  0.7478  1.5591
 1176SOL    MW4 4704   3.580   4.266   1.896 -0.3501  0.4807  0.2543
 1177SOL     OW 4705   3.772   4.411   2.017  0.0957  0.6930  0.1022
 1177SOL    HW2 4706   3.778   4.410   2.113 -2.1320  0.1369  0.2612
 1177SOL    HW3 4707   3.847   4.359   1.988 -0.1645 -0.5591  1.6091
 1177SOL    MW4 4708   3.783   4.404   2.026 -0.2325  0.4545  0.3220
 1178SOL     OW 4709   4.285   4.625   1.881  0.0065 -0.0878  0.0775
 1178SOL    HW2 4710   4.206   4.668   1.912  0.7927 -0.2389  2.4230
 1178SOL    HW3 4711   4.354   4.659   1.938  1.4853 -0.6052 -1.3688
 1178SOL    MW4 4712   4.284   4.636   1.893  0.3053 -0.1760  0.1961
 1179SOL     OW 4713   4.067   0.081   1.970  0.2357  0.1416 -0.3120
 1179SOL    HW2 4714   4.056   0.094   2.064  1.9735 -3.2279  0.4432
 1179SOL    HW3 4715   3.982   0.047   1.941  0.5575 -1.4933  0.5979
 1179SOL    MW4 4716   4.054   0.078   1.979  0.5074 -0.5187 -0.0923
 1180SOL     OW 4717   4.076   0.348   1.890 -0.0513  0.3876  0.1376
 1180SOL    HW2 4718   4.070   0.256   1.916 -2.7436  0.6267  0.5138
 1180SOL    HW3 4719   3.990   0.384   1.910  0.2412  2.4427 -2.0899
 1180SOL    MW4 4720   4.064   0.341   1.896 -0.3679  0.6903 -0.1067
 1181SOL     OW 4721   4.289   0.479   2.026 -0.0884 -0.0435  0.2332
 1181SOL    HW2 4722   4.279   0.490   2.121 -1.4968 -0.4166  0.1459
 1181SOL    HW3 4723   4.210   0.431   1.999  0.5403 -0.3807 -1.0543
 1181SOL    MW4 4724   4.277   0.474   2.035 -0.1912 -0.1372  0.0518
 1182SOL     OW 4725   4.286   0.732   1.912  0.2057 -0.1011  0.0029
 1182SOL    HW2 4726   4.277   0.640   1.936 -0.9408  0.1552  0.5922
 1182SOL    HW3 4727   4.292   0.732   1.816 -0.7325 -0.7128 -0.0543
 1182SOL    MW4 4728   4.286   0.720   1.902 -0.0693 -0.1480  0.0731
 1183SOL     OW 4729   4.069   0.898   1.979  0.6288 -0.1794 -0.5808
 1183SOL    HW2 4730   4.148   0.845   1.971  1.0078  0.1167  1.0071
 1183SOL    HW3 4731   3.999   0.843   1.944  1.2396 -1.1521 -0.2746
 1183SOL    MW4 4732   4.070   0.884   1.973  0.7594 -0.2687 -0.3309
 1184SOL     OW 4733   4.092   1.148   1.847  0.3269  0.1059 -0.5086
 1184SOL    HW2 4734   4.082   1.068   1.898  0.3636 -0.3599 -1.2229
 1184SOL    HW3 4735   4.012   1.197   1.864 -0.0310 -0.4230 -0.6491
 1184SOL    MW4 4736   4.080   1.144   1.856  0.2845 -0.0253 -0.6214
 1185SOL     OW 4737   4.304   1.270   1.986  0.3701  0.1439 -0.1558
 1185SOL    HW2 4738   4.298   1.273   2.081  0.6444 -0.6468 -0.1157
 1185SOL    HW3 4739   4.223   1.229   1.957 -0.3975  1.7617 -0.3553
 1185SOL    MW4 4740   4.293   1.265   1.994  0.3050  0.2531 -0.1768
 1186SOL     OW 4741   4.275   1.551   1.889 -0.0287 -0.0661 -0.6498
 1186SOL    HW2 4742   4.298   1.466   1.927  0.6242  0.7567  0.8113
 1186SOL    HW3 4743   4.281   1.537   1.794  1.4059 -1.2763 -0.4031
 1186SOL    MW4 4744   4.279   1.538   1.882  0.2467 -0.1172 -0.4244
 1187SOL     OW 4745   4.049   1.689   1.977  0.1117 -0.2573  0.0200
 1187SOL    HW2 4746   4.042   1.663   2.069  1.0941 -1.2439 -0.1702
 1187SOL    HW3 4747   4.132   1.651   1.948  0.0930  0.5479 -1.1166
 1187SOL    MW4 4748   4.059   1.681   1.986  0.2389 -0.2812 -0.1551
 1188SOL     OW 4749   4.068   1.945   1.876 -0.0963 -0.3902  0.2356
 1188SOL    HW2 4750   4.068   1.859   1.917  0.5476 -1.6094 -2.2335
 1188SOL    HW3 4751   4.065   1.927   1.782  1.1874  2.2576 -0.3657
 1188SOL    MW4 4752   4.067   1.931   1.869  0.1580 -0.2017 -0.1695
 1189SOL     OW 4753   4.280   2.121   1.947  0.4267 -0.0864  0.3397
 1189SOL    HW2 4754   4.273   2.122   2.042 -0.1919 -0.0630  0.2962
 1189SOL    HW3 4755   4.210   2.062   1.918  0.5602 -0.0330 -0.0991
 1189SOL    MW4 4756   4.270   2.114   1.956  0.3627 -0.0763  0.2761
 1190SOL     OW 4757   4.234   2.371   1.900 -0.2492  0.0082 -0.1428
 1190SOL    HW2 4758   4.257   2.280   1.915  0.1678  0.1736  0.2372
 1190SOL    HW3 4759   4.307   2.421   1.937 -0.7094  0.5072  0.1076
 1190SOL    MW4 4760   4.247   2.366   1.907 -0.2549  0.0959 -0.0596
 1191SOL     OW 4761   4.011   2.452   2.046  0.2577  0.0951 -0.3629
 1191SOL    HW2 4762   4.009   2.418   2.135 -0.8082 -0.0567 -0.4329
 1191SOL    HW3 4763   4.092   2.419   2.009 -0.5805 -2.0839 -0.3161
 1191SOL    MW4 4764   4.021   2.444   2.053  0.0065 -0.2124 -0.3660
 1192SOL     OW 4765   4.031   2.708   1.881  0.5114  0.1019  0.3003
 1192SOL    HW2 4766   4.018   2.625   1.927  2.1945  0.1463  0.8847
 1192SOL    HW3 4767   3.955   2.761   1.907 -1.3396 -1.7262 -1.2246
 1192SOL    MW4 4768   4.019   2.704   1.891  0.4893 -0.1334  0.1762
 1193SOL     OW 4769   4.255   2.829   1.973 -0.0901 -0.1435  0.7048
 1193SOL    HW2 4770   4.238   2.824   2.067  0.0113  0.8530  0.7777
 1193SOL    HW3 4771   4.181   2.784   1.933 -0.7273  0.4572  1.2076
 1193SOL    MW4 4772   4.243   2.823   1.980 -0.1608  0.0672  0.7807
 1194SOL     OW 4773   4.254   3.082   1.903  0.0287  0.6472 -0.0142
 1194SOL    HW2 4774   4.172   3.122   1.932 -1.0123 -1.2475 -0.2811
 1194SOL    HW3 4775   4.252   2.994   1.940  1.3261  0.1279 -1.1421
 1194SOL    MW4 4776   4.243   3.076   1.912  0.0625  0.3287 -0.1983
 1195SOL     OW 4777   4.013   3.218   1.959  0.1505 -0.9146 -0.0203
 1195SOL    HW2 4778   3.989   3.210   2.051 -2.3314  0.5834 -0.5120
 1195SOL    HW3 4779   3.944   3.171   1.912 -0.4505  1.1917 -1.2990
 1195SOL    MW4 4780   4.001   3.211   1.965 -0.2563 -0.4390 -0.2539
 1196SOL     OW 4781   4.017   3.463   1.831 -0.1370  0.2441 -0.1769
 1196SOL    HW2 4782   4.100   3.502   1.858  0.8383 -1.2336 -0.9531
 1196SOL    HW3 4783   4.023   3.372   1.859 -0.9190 -0.2243 -1.4711
 1196SOL    MW4 4784   4.029   3.456   1.838 -0.1115 -0.0126 -0.4500
 1197SOL     OW 4785   4.246   3.566   1.969 -0.6040 -0.3876 -0.0334
 1197SOL    HW2 4786   4.274   3.649   1.930 -0.2380  0.6942  2.4471
 1197SOL    HW3 4787   4.314   3.504   1.943 -0.4136  0.2749 -1.1658
 1197SOL    MW4 4788   4.259   3.569   1.960 -0.5306 -0.1575  0.1445
 1198SOL     OW 4789   4.275   3.856   1.893  0.0468  0.0295  0.0423
 1198SOL    HW2 4790   4.353   3.893   1.935 -0.1769  1.1526 -0.5090
 1198SOL    HW3 4791   4.290   3.870   1.799  0.0799 -1.5464 -0.2019
 1198SOL    MW4 4792   4.288   3.863   1.886  0.0216 -0.0302 -0.0627
 1199SOL     OW 4793   4.031   3.976   1.976  0.1324  0.0741  0.0940
 1199SOL    HW2 4794   4.103   3.923   1.943  0.4942  0.4977  0.1936
 1199SOL    HW3 4795   3.956   3.917   1.978  0.5927 -0.5052  0.4555
 1199SOL    MW4 4796   4.031   3.961   1.972  0.2408  0.0536  0.1548
 1200SOL     OW 4797   3.981   4.251   1.915  0.3389  0.5320 -0.2808
 1200SOL    HW2 4798   4.060   4.302   1.935 -0.2886  0.3566  2.9109
 1200SOL    HW3 4799   4.002   4.162   1.945 -1.1086  0.5260  0.7635
 1200SOL    MW4 4800   3.994   4.246   1.922  0.0651  0.5080  0.2781
 1201SOL     OW 4801   4.231   4.369   1.985  0.0362 -0.1893  0.1078
 1201SOL    HW2 4802   4.228   4.380   2.080 -0.0129  1.0999 -0.0263
 1201SOL    HW3 4803   4.244   4.458   1.952  0.3797 -0.6774 -1.0761
 1201SOL    MW4 4804   4.232   4.382   1.993  0.0750 -0.0836 -0.0661
 1202SOL     OW 4805   0.201   0.008   2.374 -0.1052 -0.2405  0.1587
 1202SOL    HW2 4806   0.210   0.009   2.469  0.2711 -1.4146  0.1325
 1202SOL    HW3 4807   0.260   0.077   2.343 -0.8086  0.6606  0.8241
 1202SOL    MW4 4808   0.210   0.017   2.382 -0.1484 -0.2765  0.2430
 1203SOL     OW 4809   4.442   0.129   2.305  0.1629 -0.1023 -0.4627
 1203SOL    HW2 4810   4.523   0.085   2.331  0.7040  0.9279 -0.3865
 1203SOL    HW3 4811   4.443   0.128   2.210 -0.5333 -1.5240 -0.4712
 1203SOL    MW4 4812   4.453   0.123   2.296  0.1424 -0.1540 -0.4538
 1204SOL     OW 4813   4.455   0.404   2.396  0.1236 -0.0521 -0.2974
 1204SOL    HW2 4814   4.527   0.452   2.354  0.5469 -0.3407  0.1013
 1204SOL    HW3 4815   4.470   0.313   2.374 -0.7459 -0.0037 -1.1421
 1204SOL    MW4 4816   4.466   0.398   2.387  0.0648 -0.0838 -0.3562
 1205SOL     OW 4817   0.214   0.506   2.290 -0.6545 -0.0323  0.5987
 1205SOL    HW2 4818   0.300   0.479   2.322 -1.3320 -0.8341  1.8020
 1205SOL    HW3 4819   0.216   0.490   2.196  0.5628  0.1039  0.5989
 1205SOL    MW4 4820   0.225   0.500   2.282 -0.5833 -0.1202  0.7575
 1206SOL     OW 4821   0.215   0.786   2.341 -0.0498 -0.1736  0.2073
 1206SOL    HW2 4822   0.206   0.779   2.436  0.0173  0.8390  0.2975
 1206SOL    HW3 4823   0.233   0.697   2.312 -1.2712 -0.6913  1.0139
 1206SOL    MW4 4824   0.216   0.774   2.350 -0.2021 -0.1083  0.3256
 1207SOL     OW 4825   4.453   0.863   2.260 -0.3376 -0.0521  0.1254
 1207SOL    HW2 4826   4.536   0.829   2.292 -1.1615 -1.9475  0.3191
 1207SOL    HW3 4827   4.463   0.866   2.165  0.3100  0.7575  0.2078
 1207SOL    MW4 4828   4.465   0.859   2.252 -0.3608 -0.1953  0.1618
 1208SOL     OW 4829   4.489   1.127   2.385 -0.2462 -0.0358  0.1706
 1208SOL    HW2 4830   4.511   1.133   2.477 -0.5038 -0.6856  0.2724
 1208SOL    HW3 4831   4.476   1.034   2.368  0.8245 -0.0278 -0.7583
 1208SOL    MW4 4832   4.490   1.116   2.395 -0.1389 -0.1205  0.0615
 1209SOL     OW 4833   0.175   1.308   2.293 -0.0503  0.1713 -0.4919
 1209SOL    HW2 4834   0.102   1.251   2.313 -0.7739  0.6092 -1.7947
 1209SOL    HW3 4835   0.186   1.301   2.198  0.3551  1.5817 -0.5699
 1209SOL    MW4 4836   0.167   1.300   2.283 -0.0923  0.4152 -0.6741
 1210SOL     OW 4837   0.188   1.570   2.371  0.2441  0.4195 -0.6553
 1210SOL    HW2 4838   0.207   1.564   2.465 -0.4068  0.9618 -0.4896
 1210SOL    HW3 4839   0.179   1.479   2.343 -1.1695  0.2922  0.1487
 1210SOL    MW4 4840   0.189   1.557   2.380 -0.0282  0.4743 -0.5274
 1211SOL     OW 4841   4.425   1.692   2.264 -0.1525  0.1568  0.1018
 1211SOL    HW2 4842   4.434   1.784   2.286 -0.5975 -0.0350  1.1119
 1211SOL    HW3 4843   4.509   1.653   2.288 -0.2489  0.1485  0.4194
 1211SOL    MW4 4844   4.438   1.699   2.270 -0.2240  0.1304  0.2770
 1212SOL     OW 4845   0.003   1.961   2.342 -0.7446 -0.2192  0.6965
 1212SOL    HW2 4846  -0.066   2.016   2.305 -0.6069 -0.8671 -0.5802
 1212SOL    HW3 4847   0.083   1.993   2.302 -0.5118 -0.5416  0.9023
 1212SOL    MW4 4848   0.004   1.972   2.332 -0.6957 -0.3472  0.5552
 1213SOL     OW 4849   0.217   2.092   2.236 -0.2196  0.1330 -0.7663
 1213SOL    HW2 4850   0.297   2.055   2.275 -0.7601 -0.3354 -0.1050
 1213SOL    HW3 4851   0.234   2.089   2.142  0.2634 -0.6241 -0.6677
 1213SOL    MW4 4852   0.230   2.086   2.229 -0.2272 -0.0287 -0.6661
 1214SOL     OW 4853   0.218   2.337   2.356 -0.4629  0.0799 -0.0456
 1214SOL    HW2 4854   0.221   2.320   2.450 -1.5500  0.4845  0.0767
 1214SOL    HW3 4855   0.211   2.251   2.315 -0.6611 -0.0593  0.2853
 1214SOL    MW4 4856   0.218   2.323   2.363 -0.6325  0.1149  0.0142
 1215SOL     OW 4857   4.464   2.465   2.311 -0.0855  0.0978 -0.2699
 1215SOL    HW2 4858   4.461   2.557   2.337  0.2193  0.2963 -0.9242
 1215SOL    HW3 4859   4.555   2.439   2.327  0.1071  0.2242 -1.1230
 1215SOL    MW4 4860   4.475   2.474   2.316 -0.0199  0.1407 -0.4688
 1216SOL     OW 4861   4.465   2.738   2.386 -0.3432 -0.2709  0.4271
 1216SOL    HW2 4862   4.486   2.729   2.479 -1.1188 -0.9440  0.5382
 1216SOL    HW3 4863   4.546   2.772   2.347 -0.6080  1.8584  1.6396
 1216SOL    MW4 4864   4.479   2.741   2.393 -0.4805 -0.0788  0.6017
 1217SOL     OW 4865   0.197   2.843   2.259  0.6872  0.9903  0.0033
 1217SOL    HW2 4866   0.274   2.798   2.293 -0.7667 -1.5791 -0.0029
 1217SOL    HW3 4867   0.215   2.852   2.165 -0.1857 -2.1569 -0.5190
 1217SOL    MW4 4868   0.210   2.838   2.251  0.3802  0.2360 -0.0664
 1218SOL     OW 4869   0.246   3.110   2.349 -0.3145  0.4566  0.0723
 1218SOL    HW2 4870   0.160   3.145   2.324  0.5733  2.4289 -0.2554
 1218SOL    HW3 4871   0.242   3.018   2.322 -1.2403  1.2531 -2.6922
 1218SOL    MW4 4872   0.234   3.102   2.342 -0.3195  0.8219 -0.3357
 1219SOL     OW 4873   0.001   3.207   2.309  0.1778  0.6392  0.1944
 1219SOL    HW2 4874   0.000   3.300   2.333  0.0322  0.5879  0.3938
 1219SOL    HW3 4875  -0.014   3.206   2.215  0.0436  0.8129  0.2135
 1219SOL    MW4 4876  -0.001   3.219   2.300  0.1408  0.6554  0.2232
 1220SOL     OW 4877   0.001   3.486   2.385  0.3402 -0.2044  0.0786
 1220SOL    HW2 4878  -0.018   3.474   2.478 -0.7092  1.9888  0.1860
 1220SOL    HW3 4879  -0.085   3.494   2.343  0.8262 -0.0880 -0.9246
 1220SOL    MW4 4880  -0.013   3.486   2.392  0.2659  0.1003 -0.0396
 1221SOL     OW 4881   0.225   3.613   2.280  0.0575 -0.2991  0.3746
 1221SOL    HW2 4882   0.302   3.570   2.318  0.1463 -0.7963 -0.3668
 1221SOL    HW3 4883   0.152   3.580   2.332 -0.0088 -2.2729 -0.9475
 1221SOL    MW4 4884   0.226   3.603   2.292  0.0605 -0.6251  0.1023
 1222SOL     OW 4885   0.215   3.853   2.395 -0.4591 -0.0610 -0.2091
 1222SOL    HW2 4886   0.140   3.894   2.352 -2.0090 -2.4228  0.2040
 1222SOL    HW3 4887   0.226   3.770   2.350  0.4554 -0.7648  1.2949
 1222SOL    MW4 4888   0.207   3.848   2.383 -0.5429 -0.4654  0.0438
 1223SOL     OW 4889   0.004   4.007   2.278 -0.2125 -0.3361  0.5703
 1223SOL    HW2 4890  -0.017   4.094   2.310  0.1135 -0.5801  1.4939
 1223SOL    HW3 4891   0.004   4.014   2.183  1.0314  0.9593  0.6634
 1223SOL    MW4 4892   0.001   4.019   2.270 -0.0054 -0.1973  0.7044
 1224SOL     OW 4893   4.445   4.258   2.366 -0.0038 -0.3060 -0.4669
 1224SOL    HW2 4894   4.423   4.262   2.459 -1.0958 -2.2582 -0.6132
 1224SOL    HW3 4895   4.529   4.302   2.359 -0.1694  0.3237  1.3692
 1224SOL    MW4 4896   4.453   4.264   2.377 -0.1697 -0.4805 -0.2440
 1225SOL     OW 4897   0.199   4.394   2.308 -0.0822  0.4630 -0.0665
 1225SOL    HW2 4898   0.278   4.367   2.354  0.3773  1.7583 -0.0592
 1225SOL    HW3 4899   0.186   4.485   2.335 -0.2307  1.0067 -1.9197
 1225SOL    MW4 4900   0.208   4.403   2.318 -0.0411  0.7057 -0.3101
 1226SOL     OW 4901   0.604   4.627   2.388 -0.2388  0.2013  0.0704
 1226SOL    HW2 4902   0.618   4.615   2.482  0.2413 -0.4528 -0.0801
 1226SOL    HW3 4903   0.681   4.676   2.359 -0.4846  0.5770  0.0536
 1226SOL    MW4 4904   0.616   4.632   2.397 -0.2079  0.1646  0.0483
 1227SOL     OW 4905   0.428   0.176   2.305  0.7364 -0.0144 -0.2826
 1227SOL    HW2 4906   0.494   0.109   2.326  0.6447 -0.4223 -1.2699
 1227SOL    HW3 4907   0.423   0.175   2.210  0.1097  0.8089 -0.2599
 1227SOL    MW4 4908   0.436   0.167   2.295  0.6416  0.0404 -0.4098
 1228SOL     OW 4909   0.448   0.432   2.413  0.2455  0.4895 -0.2153
 1228SOL    HW2 4910   0.466   0.448   2.506  1.4906 -0.3385 -0.3044
 1228SOL    HW3 4911   0.453   0.337   2.404 -0.6175  0.5137 -0.9894
 1228SOL    MW4 4912   0.451   0.422   2.424  0.2959  0.3834 -0.3292
 1229SOL     OW 4913   0.670   0.540   2.245  0.0787  0.1515  0.1545
 1229SOL    HW2 4914   0.678   0.626   2.285  0.1659 -0.4543  1.4615
 1229SOL    HW3 4915   0.594   0.500   2.289  0.1020 -0.4715 -0.3673
 1229SOL    MW4 4916   0.661   0.546   2.256  0.0932 -0.0106  0.2581
 1230SOL     OW 4917   0.671   0.783   2.391 -0.1334 -0.1399 -0.1842
 1230SOL    HW2 4918   0.659   0.798   2.484 -1.2919 -1.0856 -0.1569
 1230SOL    HW3 4919   0.599   0.831   2.350 -0.7422 -1.2562 -0.4464
 1230SOL    MW4 4920   0.660   0.791   2.398 -0.3666 -0.4120 -0.2152
 1231SOL     OW 4921   0.455   0.927   2.268 -0.1663 -0.4080 -0.2615
 1231SOL    HW2 4922   0.374   0.882   2.292  0.0168 -0.1703  0.8232
 1231SOL    HW3 4923   0.460   0.918   2.173 -1.8920  0.2993 -0.4256
 1231SOL    MW4 4924   0.445   0.920   2.258 -0.3698 -0.2833 -0.1401
 1232SOL     OW 4925   0.417   1.198   2.379 -0.2876 -0.4031  0.0758
 1232SOL    HW2 4926   0.422   1.109   2.344 -2.4829 -0.7571  0.5754
 1232SOL    HW3 4927   0.329   1.228   2.355 -0.0996  1.0904  1.2019
 1232SOL    MW4 4928   0.406   1.191   2.371 -0.5525 -0.2528  0.2903
 1233SOL     OW 4929   0.637   1.334   2.257  0.1457  0.0183 -0.1029
 1233SOL    HW2 4930   0.635   1.411   2.314  0.6302 -1.1036  1.4469
 1233SOL    HW3 4931   0.568   1.278   2.290  0.6509 -0.7917 -0.4102
 1233SOL    MW4 4932   0.628   1.337   2.269  0.2763 -0.2366  0.0610
 1234SOL     OW 4933   0.642   1.568   2.406  0.4440 -0.1933  0.0811
 1234SOL    HW2 4934   0.652   1.583   2.501  1.5206 -1.5644  0.1890
 1234SOL    HW3 4935   0.720   1.607   2.368 -0.3006  0.9386 -0.3265
 1234SOL    MW4 4936   0.653   1.575   2.414  0.4878 -0.2249  0.0416
 1235SOL     OW 4937   0.429   1.703   2.273 -0.5593  0.1992  0.0349
 1235SOL    HW2 4938   0.494   1.667   2.333 -0.4047  1.5359  0.7133
 1235SOL    HW3 4939   0.346   1.663   2.300 -0.3551  0.1688  0.6280
 1235SOL    MW4 4940   0.426   1.693   2.285 -0.5120  0.3716  0.2027
 1236SOL     OW 4941   0.438   1.953   2.356 -0.4427  0.0112  0.0084
 1236SOL    HW2 4942   0.518   1.991   2.320  0.2344 -0.6888  0.7581
 1236SOL    HW3 4943   0.432   1.866   2.315 -0.9173  0.1288 -0.1794
 1236SOL    MW4 4944   0.448   1.946   2.346 -0.4160 -0.0656  0.0825
 1237SOL     OW 4945   0.686   2.067   2.256 -0.0723  0.0184 -0.1235
 1237SOL    HW2 4946   0.751   2.014   2.303 -0.6144 -1.2501 -0.7625
 1237SOL    HW3 4947   0.683   2.149   2.304  1.6804 -0.0674  0.1809
 1237SOL    MW4 4948   0.694   2.071   2.268  0.0874 -0.1602 -0.1677
 1238SOL     OW 4949   0.668   2.322   2.350 -0.1517  0.3049  0.4163
 1238SOL    HW2 4950   0.680   2.295   2.441  1.3349  0.2199  0.2039
 1238SOL    HW3 4951   0.757   2.337   2.318 -0.7572  1.8029 -0.5777
 1238SOL    MW4 4952   0.681   2.320   2.358 -0.0354  0.4913  0.2571
 1239SOL     OW 4953   0.470   2.468   2.260 -0.3614  0.7916 -0.3553
 1239SOL    HW2 4954   0.544   2.422   2.301 -0.5502 -0.2046 -1.1059
 1239SOL    HW3 4955   0.392   2.428   2.299 -0.5353  0.0199 -1.4790
 1239SOL    MW4 4956   0.470   2.457   2.270 -0.4093  0.5583 -0.6026
 1240SOL     OW 4957   0.431   2.721   2.373 -0.9005 -0.2549 -0.4244
 1240SOL    HW2 4958   0.454   2.712   2.466 -1.2475  0.5484 -0.2492
 1240SOL    HW3 4959   0.454   2.637   2.334 -1.9949 -1.0644  0.6475
 1240SOL    MW4 4960   0.437   2.709   2.380 -1.0907 -0.2557 -0.2599
 1241SOL     OW 4961   0.647   2.831   2.230  0.2202  0.8616  0.0265
 1241SOL    HW2 4962   0.719   2.775   2.258 -0.9259 -0.1320  1.0128
 1241SOL    HW3 4963   0.569   2.791   2.268 -0.8793  1.8270 -1.1851
 1241SOL    MW4 4964   0.646   2.819   2.239 -0.0761  0.8579 -0.0032
 1242SOL     OW 4965   0.689   3.070   2.360  0.0082 -0.1308 -0.0142
 1242SOL    HW2 4966   0.612   3.119   2.330 -0.1289  0.0480  0.6146
 1242SOL    HW3 4967   0.676   2.982   2.326 -0.8198 -0.2753  0.6484
 1242SOL    MW4 4968   0.677   3.065   2.352 -0.1192 -0.1263  0.1562
 1243SOL     OW 4969   0.490   3.214   2.278  0.0456  0.2188 -0.4405
 1243SOL    HW2 4970   0.407   3.170   2.296  0.1009 -0.8583 -2.7188
 1243SOL    HW3 4971   0.493   3.223   2.183  2.4257  0.4459 -0.3777
 1243SOL    MW4 4972   0.479   3.209   2.268  0.3669  0.1067 -0.7328
 1244SOL     OW 4973   0.439   3.465   2.380 -0.2952  0.1386  0.3911
 1244SOL    HW2 4974   0.514   3.514   2.347 -1.8496  1.1541 -1.6574
 1244SOL    HW3 4975   0.450   3.377   2.344  0.8863 -0.2667  1.6535
 1244SOL    MW4 4976   0.451   3.460   2.371 -0.3444  0.2191  0.2874
 1245SOL     OW 4977   0.676   3.588   2.303  0.0637  0.5414 -0.2645
 1245SOL    HW2 4978   0.656   3.677   2.330 -1.4929  0.3304 -0.6555
 1245SOL    HW3 4979   0.655   3.586   2.209 -0.0921 -0.2719 -0.2197
 1245SOL    MW4 4980   0.671   3.599   2.294 -0.1622  0.4062 -0.3102
 1246SOL     OW 4981   0.639   3.836   2.407  0.3705 -0.4203  0.0560
 1246SOL    HW2 4982   0.632   3.857   2.500  0.9054 -0.8135  0.1930
 1246SOL    HW3 4983   0.565   3.880   2.366 -1.1343 -2.0556  0.9731
 1246SOL    MW4 4984   0.629   3.845   2.414  0.2425 -0.6879  0.1950
 1247SOL     OW 4985   0.432   3.993   2.300  0.1235 -0.5013 -0.4158
 1247SOL    HW2 4986   0.351   3.951   2.330 -0.2645  0.6363  0.1502
 1247SOL    HW3 4987   0.432   3.979   2.206 -0.7886 -0.4196 -0.4349
 1247SOL    MW4 4988   0.421   3.986   2.292 -0.0480 -0.3404 -0.3437
 1248SOL     OW 4989   0.422   4.242   2.401  0.1423  0.4611  0.7187
 1248SOL    HW2 4990   0.500   4.280   2.362  1.3778 -1.4749  1.2541
 1248SOL    HW3 4991   0.416   4.154   2.363 -1.6367  0.4792  0.8823
 1248SOL    MW4 4992   0.431   4.236   2.391  0.0706  0.2081  0.8110
 1249SOL     OW 4993   0.642   4.381   2.315 -0.1130  0.0513 -0.0211
 1249SOL    HW2 4994   0.608   4.469   2.331  0.3613  0.4418 -1.1150
 1249SOL    HW3 4995   0.642   4.372   2.220  1.4899 -0.4651  0.0077
 1249SOL    MW4 4996   0.638   4.391   2.305  0.1610  0.0347 -0.1616
 1250SOL     OW 4997   1.102   4.627   2.363 -0.0924  0.2321 -0.0199
 1250SOL    HW2 4998   1.099   4.624   2.458 -0.3492 -1.6161 -0.0697
 1250SOL    HW3 4999   1.017   4.663   2.337 -0.0952  0.5534  0.4313
 1250SOL    MW4 5000   1.091   4.632   2.372 -0.1267  0.0306  0.0330
 1251SOL     OW 5001   0.844   0.087   2.274 -0.2134  0.4188  0.0029
 1251SOL    HW2 5002   0.867   0.167   2.320  0.0526 -0.1239  0.8089
 1251SOL    HW3 5003   0.859   0.108   2.181 -0.3235  1.3555  0.1928
 1251SOL    MW4 5004   0.849   0.100   2.268 -0.1928  0.4708  0.1343
 1252SOL     OW 5005   0.883   0.359   2.394  0.2924 -0.0943 -0.2790
 1252SOL    HW2 5006   0.961   0.402   2.358  0.8366 -0.1924  0.7686
 1252SOL    HW3 5007   0.810   0.416   2.367  0.7803  0.2964 -0.7885
 1252SOL    MW4 5008   0.883   0.372   2.386  0.4286 -0.0557 -0.2080
 1253SOL     OW 5009   1.119   0.504   2.264 -0.1375 -0.0685  0.6162
 1253SOL    HW2 5010   1.202   0.473   2.301  0.4280  0.5553 -0.0950
 1253SOL    HW3 5011   1.130   0.492   2.170 -0.9589 -0.2112  0.5404
 1253SOL    MW4 5012   1.132   0.498   2.257 -0.1713 -0.0050  0.5124
 1254SOL     OW 5013   1.135   0.769   2.372  0.3120 -0.5024 -0.0147
 1254SOL    HW2 5014   1.051   0.805   2.346  0.4962  0.0722  0.1822
 1254SOL    HW3 5015   1.139   0.683   2.329 -0.2848 -0.4456 -0.1798
 1254SOL    MW4 5016   1.125   0.762   2.363  0.2575 -0.4191 -0.0105
 1255SOL     OW 5017   0.893   0.912   2.301  0.0766  0.2854 -0.0268
 1255SOL    HW2 5018   0.891   0.991   2.355 -1.3442 -0.6057  1.2872
 1255SOL    HW3 5019   0.816   0.862   2.329 -0.0051 -0.7711 -2.0471
 1255SOL    MW4 5020   0.882   0.916   2.312 -0.1217  0.0284 -0.1200
 1256SOL     OW 5021   0.871   1.186   2.383  0.0466 -0.3924 -0.1095
 1256SOL    HW2 5022   0.936   1.215   2.318  0.0736 -0.2288 -0.0107
 1256SOL    HW3 5023   0.787   1.216   2.348  0.0453 -0.4357 -0.1436
 1256SOL    MW4 5024   0.869   1.194   2.370  0.0500 -0.3765 -0.1010
 1257SOL     OW 5025   1.103   1.275   2.273 -0.4664 -0.2586  0.2762
 1257SOL    HW2 5026   1.170   1.217   2.307  0.1244 -0.1525 -0.7000
 1257SOL    HW3 5027   1.107   1.264   2.178 -1.8198 -0.2446  0.2007
 1257SOL    MW4 5028   1.112   1.266   2.265 -0.5670 -0.2428  0.1374
 1258SOL     OW 5029   1.108   1.528   2.380 -0.2166  0.2939 -0.2272
 1258SOL    HW2 5030   1.020   1.557   2.354  0.0423  0.6076 -0.7661
 1258SOL    HW3 5031   1.121   1.446   2.332  0.0136  0.5488 -0.6028
 1258SOL    MW4 5032   1.098   1.521   2.370 -0.1521  0.3689 -0.3479
 1259SOL     OW 5033   0.883   1.654   2.309  0.5171 -0.5410 -0.5764
 1259SOL    HW2 5034   0.871   1.746   2.335  0.8533 -0.6845  0.1039
 1259SOL    HW3 5035   0.884   1.656   2.213  1.2550  0.2693 -0.5559
 1259SOL    MW4 5036   0.882   1.667   2.300  0.6588 -0.4530 -0.4840
 1260SOL     OW 5037   0.887   1.937   2.377  0.4103 -0.2589  0.3675
 1260SOL    HW2 5038   0.906   1.952   2.470  0.2102  1.6720  0.1195
 1260SOL    HW3 5039   0.962   1.975   2.331 -0.7570  1.2398 -0.3460
 1260SOL    MW4 5040   0.900   1.944   2.383  0.2299  0.1936  0.2406
 1261SOL     OW 5041   1.108   2.047   2.254 -0.1408 -0.4829  0.0811
 1261SOL    HW2 5042   1.197   2.029   2.284  0.3933  1.5625 -0.2225
 1261SOL    HW3 5043   1.114   2.047   2.158 -0.7616 -1.7301  0.0326
 1261SOL    MW4 5044   1.120   2.045   2.245 -0.1523 -0.3776  0.0346
 1262SOL     OW 5045   1.149   2.293   2.366  0.1572  0.2805 -0.3690
 1262SOL    HW2 5046   1.231   2.324   2.329  0.2044 -0.8526 -1.2404
 1262SOL    HW3 5047   1.123   2.221   2.309 -0.3525 -0.7531  1.1408
 1262SOL    MW4 5048   1.156   2.287   2.354  0.0962 -0.0054 -0.2848
 1263SOL     OW 5049   0.905   2.419   2.257 -0.1503  0.1144 -0.3979
 1263SOL    HW2 5050   0.987   2.388   2.297 -1.0327 -1.2053  0.4271
 1263SOL    HW3 5051   0.922   2.418   2.163  0.0322 -2.4428 -0.3746
 1263SOL    MW4 5052   0.918   2.415   2.250 -0.2426 -0.3971 -0.2860
 1264SOL     OW 5053   0.847   2.681   2.345 -0.2463  0.0780 -0.2141
 1264SOL    HW2 5054   0.846   2.677   2.440  0.3949  0.2966 -0.1927
 1264SOL    HW3 5055   0.853   2.590   2.317  0.6706  0.0698 -0.0183
 1264SOL    MW4 5056   0.848   2.669   2.354 -0.0407  0.1058 -0.1854
 1265SOL     OW 5057   1.094   2.742   2.214 -0.0039 -0.2186 -0.4579
 1265SOL    HW2 5058   1.170   2.738   2.272  0.6169  0.8707 -1.1711
 1265SOL    HW3 5059   1.021   2.709   2.266  0.3109  1.8048  1.3241
 1265SOL    MW4 5060   1.094   2.738   2.228  0.1195  0.1921 -0.3169
 1266SOL     OW 5061   1.093   3.016   2.327  0.2997 -0.1036  0.3571
 1266SOL    HW2 5062   1.018   3.065   2.293  0.3995 -0.6547 -0.6527
 1266SOL    HW3 5063   1.083   2.928   2.291  1.6249 -0.0868 -0.0808
 1266SOL    MW4 5064   1.082   3.011   2.318  0.4877 -0.1741  0.1661
 1267SOL     OW 5065   0.896   3.182   2.224  0.2911  1.2021  0.0862
 1267SOL    HW2 5066   0.897   3.264   2.273  1.4209  1.4531 -0.3361
 1267SOL    HW3 5067   0.823   3.133   2.260 -0.9574  2.7691 -0.2719
 1267SOL    MW4 5068   0.887   3.187   2.235  0.2755  1.4420 -0.0167
 1268SOL     OW 5069   0.889   3.433   2.374  0.3172  0.2694  0.1106
 1268SOL    HW2 5070   0.878   3.415   2.468 -1.3380  0.3707 -0.0584
 1268SOL    HW3 5071   0.812   3.485   2.350  0.0754 -0.8403 -1.5851
 1268SOL    MW4 5072   0.878   3.437   2.384  0.0669  0.1363 -0.1354
 1269SOL     OW 5073   1.113   3.610   2.273  0.2632  0.1500  0.2122
 1269SOL    HW2 5074   1.191   3.572   2.312 -0.1529  0.0328  0.9452
 1269SOL    HW3 5075   1.040   3.571   2.323 -0.2690  0.0698 -0.6169
 1269SOL    MW4 5076   1.113   3.600   2.285  0.1381  0.1239  0.1995
 1270SOL     OW 5077   1.096   3.869   2.377  0.5314 -0.4560 -0.0694
 1270SOL    HW2 5078   1.180   3.911   2.359  0.4621 -0.6605 -0.8633
 1270SOL    HW3 5079   1.105   3.780   2.343  0.4446 -0.8935  1.0119
 1270SOL    MW4 5080   1.108   3.863   2.370  0.5108 -0.5407 -0.0315
 1271SOL     OW 5081   0.855   3.979   2.284  0.0338  0.3209  0.2565
 1271SOL    HW2 5082   0.933   3.948   2.329 -0.0805 -1.9947 -1.1041
 1271SOL    HW3 5083   0.782   3.936   2.330 -0.4211  1.6881  0.8742
 1271SOL    MW4 5084   0.856   3.969   2.296 -0.0413  0.1958  0.1584
 1272SOL     OW 5085   0.875   4.242   2.378  0.0965 -0.2790  0.0807
 1272SOL    HW2 5086   0.857   4.153   2.346 -0.7196  0.0460 -0.3691
 1272SOL    HW3 5087   0.796   4.292   2.357  0.2721  0.3893  0.9575
 1272SOL    MW4 5088   0.862   4.237   2.371  0.0120 -0.1479  0.1370
 1273SOL     OW 5089   1.099   4.373   2.271  0.2920 -0.3674 -0.3847
 1273SOL    HW2 5090   1.033   4.327   2.322  1.4938 -0.6803  0.9295
 1273SOL    HW3 5091   1.089   4.465   2.296  1.3944 -0.6174  1.0443
 1273SOL    MW4 5092   1.089   4.379   2.281  0.5960 -0.4417 -0.0228
 1274SOL     OW 5093   1.542   4.630   2.392  0.1842 -0.0557 -0.2418
 1274SOL    HW2 5094   1.612   4.669   2.340  1.1788 -1.6317 -0.1221
 1274SOL    HW3 5095   1.462   4.673   2.361  0.9305  0.1081 -2.0015
 1274SOL    MW4 5096   1.540   4.641   2.381  0.4139 -0.2420 -0.4582
 1275SOL     OW 5097   1.326   0.130   2.265 -0.2652 -0.1183 -0.4734
 1275SOL    HW2 5098   1.319   0.224   2.285  0.2883 -0.1818  0.0440
 1275SOL    HW3 5099   1.254   0.090   2.314  0.7290 -0.2016  0.9443
 1275SOL    MW4 5100   1.315   0.137   2.274 -0.0610 -0.1377 -0.2181
 1276SOL     OW 5101   1.362   0.409   2.354 -0.2924  0.1557 -0.2157
 1276SOL    HW2 5102   1.367   0.375   2.443 -0.0827 -0.9270 -0.6296
 1276SOL    HW3 5103   1.430   0.477   2.350 -0.6754  0.5864  0.6077
 1276SOL    MW4 5104   1.372   0.414   2.365 -0.3153  0.0697 -0.1617
 1277SOL     OW 5105   1.617   0.552   2.277 -0.1731 -0.0907  0.2111
 1277SOL    HW2 5106   1.694   0.497   2.292 -0.3436 -0.0177  1.4427
 1277SOL    HW3 5107   1.591   0.534   2.187  1.5529  0.2146 -0.3704
 1277SOL    MW4 5108   1.624   0.543   2.267  0.0322 -0.0408  0.2969
 1278SOL     OW 5109   1.551   0.801   2.348  0.1254  0.0413 -0.1448
 1278SOL    HW2 5110   1.631   0.853   2.342 -0.8940  1.5439 -0.8138
 1278SOL    HW3 5111   1.576   0.715   2.315  1.3628  0.6202 -0.7320
 1278SOL    MW4 5112   1.565   0.797   2.343  0.1542  0.3159 -0.3105
 1279SOL     OW 5113   1.337   0.903   2.250  0.7127  0.0652 -0.5387
 1279SOL    HW2 5114   1.425   0.869   2.265  0.3148 -1.2278 -1.0984
 1279SOL    HW3 5115   1.283   0.861   2.317  0.4581  0.6116 -0.3975
 1279SOL    MW4 5116   1.341   0.893   2.261  0.6266 -0.0333 -0.5939
 1280SOL     OW 5117   1.334   1.151   2.348  0.1659 -0.5477  0.1016
 1280SOL    HW2 5118   1.340   1.154   2.444 -0.1868  0.1129  0.1030
 1280SOL    HW3 5119   1.328   1.058   2.327  2.9191 -0.8926  0.5638
 1280SOL    MW4 5120   1.334   1.139   2.358  0.4826 -0.5061  0.1628
 1281SOL     OW 5121   1.587   1.246   2.285  0.2434 -0.4369 -0.2137
 1281SOL    HW2 5122   1.505   1.217   2.325  0.7413 -1.6090 -0.0469
 1281SOL    HW3 5123   1.562   1.270   2.196 -0.1200 -1.6320 -0.4378
 1281SOL    MW4 5124   1.573   1.245   2.279  0.2612 -0.7492 -0.2213
 1282SOL     OW 5125   1.593   1.505   2.373  0.1146 -0.4492 -0.3363
 1282SOL    HW2 5126   1.680   1.541   2.353 -0.1683  0.0466 -0.6815
 1282SOL    HW3 5127   1.599   1.413   2.346  0.4085 -0.3182 -0.7236
 1282SOL    MW4 5128   1.605   1.498   2.367  0.1161 -0.3665 -0.4330
 1283SOL     OW 5129   1.349   1.673   2.304 -0.1130  0.5587  0.3544
 1283SOL    HW2 5130   1.421   1.616   2.333 -1.0721 -0.9477 -0.2013
 1283SOL    HW3 5131   1.270   1.630   2.335 -0.9506  0.7896 -1.4082
 1283SOL    MW4 5132   1.348   1.660   2.312 -0.3500  0.3904  0.0485
 1284SOL     OW 5133   1.355   1.959   2.367 -0.4360 -0.2635  0.1330
 1284SOL    HW2 5134   1.443   1.983   2.340 -0.5945 -0.2637 -0.3864
 1284SOL    HW3 5135   1.345   1.868   2.339 -1.1215  0.1870 -1.1262
 1284SOL    MW4 5136   1.365   1.950   2.360 -0.5474 -0.2041 -0.1017
 1285SOL     OW 5137   1.589   2.068   2.267  0.0309  0.4365  0.4408
 1285SOL    HW2 5138   1.669   2.020   2.286 -1.7612 -2.4252  1.0235
 1285SOL    HW3 5139   1.579   2.063   2.172 -1.1999 -2.1555  0.6773
 1285SOL    MW4 5140   1.598   2.061   2.257 -0.3679 -0.2831  0.5489
 1286SOL     OW 5141   1.609   2.335   2.352 -0.2524 -0.4433 -0.0799
 1286SOL    HW2 5142   1.621   2.336   2.447 -1.2572  1.7617  0.0545
 1286SOL    HW3 5143   1.595   2.243   2.331 -0.8291 -0.8770  2.0244
 1286SOL    MW4 5144   1.609   2.323   2.362 -0.4611 -0.2096  0.2154
 1287SOL     OW 5145   1.369   2.422   2.234  0.1505  0.2476  0.3146
 1287SOL    HW2 5146   1.454   2.387   2.257  0.5373  0.4952 -0.7048
 1287SOL    HW3 5147   1.363   2.411   2.139 -0.5813  1.0367  0.2569
 1287SOL    MW4 5148   1.379   2.416   2.224  0.1049  0.3844  0.1725
 1288SOL     OW 5149   1.326   2.699   2.354  0.0479 -0.2449  0.1611
 1288SOL    HW2 5150   1.398   2.756   2.325  0.2057 -0.2436  0.5438
 1288SOL    HW3 5151   1.345   2.614   2.315 -0.5195  0.1128 -0.9232
 1288SOL    MW4 5152   1.338   2.695   2.345 -0.0061 -0.1975  0.0685
 1289SOL     OW 5153   1.562   2.840   2.288  0.2933 -0.5583 -0.1183
 1289SOL    HW2 5154   1.559   2.935   2.293 -0.0883 -0.5498 -0.4589
 1289SOL    HW3 5155   1.570   2.821   2.195 -1.1301 -0.8929 -0.1788
 1289SOL    MW4 5156   1.563   2.850   2.277  0.0551 -0.6013 -0.1712
 1290SOL     OW 5157   1.578   3.106   2.365 -0.2101 -0.4675  0.0504
 1290SOL    HW2 5158   1.587   3.112   2.460 -1.4807  1.0266  0.1090
 1290SOL    HW3 5159   1.499   3.157   2.345  1.9997  2.2847 -2.1726
 1290SOL    MW4 5160   1.569   3.114   2.375 -0.0862  0.0928 -0.2352
 1291SOL     OW 5161   1.325   3.194   2.304 -0.2627  0.1169 -0.6286
 1291SOL    HW2 5162   1.255   3.132   2.321 -1.0777  1.1362 -0.2229
 1291SOL    HW3 5163   1.334   3.196   2.209 -0.3514 -0.4802 -0.6492
 1291SOL    MW4 5164   1.317   3.186   2.294 -0.3819  0.1726 -0.5778
 1292SOL     OW 5165   1.340   3.475   2.363 -0.0002  0.0989  0.3613
 1292SOL    HW2 5166   1.354   3.476   2.457  0.0393 -0.2589  0.3628
 1292SOL    HW3 5167   1.319   3.383   2.343  0.1092  0.1479  0.0061
 1292SOL    MW4 5168   1.339   3.463   2.373  0.0195  0.0581  0.3146
 1293SOL     OW 5169   1.563   3.606   2.225  0.3121  0.0428  0.4997
 1293SOL    HW2 5170   1.551   3.695   2.259  0.3955 -0.4525  1.8923
 1293SOL    HW3 5171   1.486   3.558   2.258 -0.8608  0.0914 -2.0376
 1293SOL    MW4 5172   1.551   3.611   2.234  0.1684 -0.0161  0.3487
 1294SOL     OW 5173   1.565   3.890   2.375  0.0175  0.6897  0.1094
 1294SOL    HW2 5174   1.558   3.920   2.466  1.7611  0.5876  0.3059
 1294SOL    HW3 5175   1.651   3.921   2.347 -0.1523 -0.0345 -1.2279
 1294SOL    MW4 5176   1.576   3.898   2.383  0.2251  0.5806 -0.0411
 1295SOL     OW 5177   1.325   3.992   2.281 -0.5216 -0.1830  0.1798
 1295SOL    HW2 5178   1.410   3.959   2.310 -0.1226  0.7681  0.1044
 1295SOL    HW3 5179   1.335   4.004   2.187 -0.4041  0.9264  0.3346
 1295SOL    MW4 5180   1.338   3.989   2.272 -0.4534  0.0889  0.1903
 1296SOL     OW 5181   1.345   4.273   2.336 -0.2616  0.3994  0.1580
 1296SOL    HW2 5182   1.321   4.181   2.322 -0.3941  0.2629  1.1967
 1296SOL    HW3 5183   1.262   4.320   2.329 -0.2194  0.4195 -0.2089
 1296SOL    MW4 5184   1.331   4.267   2.333 -0.2735  0.3841  0.2466
 1297SOL     OW 5185   1.618   4.360   2.313 -0.2111  0.0825  0.3045
 1297SOL    HW2 5186   1.535   4.316   2.330 -0.3041  0.2472  0.2687
 1297SOL    HW3 5187   1.599   4.453   2.320  0.2317  0.0957  1.5161
 1297SOL    MW4 5188   1.605   4.366   2.317 -0.1650  0.1060  0.4596
 1298SOL     OW 5189   2.020   4.666   2.346 -0.0099 -0.4521 -0.0221
 1298SOL    HW2 5190   2.104   4.708   2.332  0.1958 -0.5294  0.9740
 1298SOL    HW3 5191   2.037   4.573   2.332  0.2027 -0.5333  0.7894
 1298SOL    MW4 5192   2.033   4.659   2.342  0.0453 -0.4730  0.2164
 1299SOL     OW 5193   1.758   0.094   2.271 -0.3683 -0.2654  0.2340
 1299SOL    HW2 5194   1.762   0.185   2.300  1.1370 -0.5231  0.9116
 1299SOL    HW3 5195   1.846   0.059   2.290 -1.4736 -2.3683  1.7020
 1299SOL    MW4 5196   1.770   0.101   2.277 -0.3155 -0.5768  0.5171
 1300SOL     OW 5197   1.803   0.361   2.356 -0.0462  0.4507 -0.3894
 1300SOL    HW2 5198   1.795   0.354   2.452  0.5361 -0.5377 -0.4070
 1300SOL    HW3 5199   1.889   0.401   2.342  0.3686 -0.4823 -0.5271
 1300SOL    MW4 5200   1.813   0.365   2.367  0.0854  0.1972 -0.4099
 1301SOL     OW 5201   2.038   0.518   2.244  0.4444 -0.0051 -0.0174
 1301SOL    HW2 5202   2.054   0.609   2.268  0.3067  0.1128 -0.3788
 1301SOL    HW3 5203   2.040   0.517   2.149  0.3813 -0.3698 -0.0163
 1301SOL    MW4 5204   2.041   0.530   2.235  0.4179 -0.0377 -0.0649
 1302SOL     OW 5205   2.066   0.782   2.327 -0.2399 -0.3501 -0.4539
 1302SOL    HW2 5206   2.136   0.839   2.296  0.7938 -0.4340  1.6809
 1302SOL    HW3 5207   1.987   0.836   2.321  0.3189  0.4051 -1.0029
 1302SOL    MW4 5208   2.065   0.797   2.322 -0.0298 -0.2615 -0.2446
 1303SOL     OW 5209   1.802   0.909   2.274 -0.1601 -0.4138  0.1679
 1303SOL    HW2 5210   1.805   0.999   2.305  0.0899 -0.2569 -0.3021
 1303SOL    HW3 5211   1.789   0.917   2.180 -0.4496 -0.8750  0.1699
 1303SOL    MW4 5212   1.801   0.922   2.266 -0.1653 -0.4539  0.1061
 1304SOL     OW 5213   1.835   1.159   2.376  0.1006  0.0469  0.1324
 1304SOL    HW2 5214   1.911   1.203   2.337  0.3934  0.8181  1.5433
 1304SOL    HW3 5215   1.760   1.191   2.326  0.4960  0.8937  0.0668
 1304SOL    MW4 5216   1.835   1.169   2.364  0.1914  0.2604  0.3099
 1305SOL     OW 5217   2.049   1.320   2.251 -0.1704 -0.0602 -0.6510
 1305SOL    HW2 5218   2.047   1.404   2.298  1.6110 -0.3511 -0.0165
 1305SOL    HW3 5219   2.033   1.344   2.159  0.6891  1.0381 -0.5337
 1305SOL    MW4 5220   2.047   1.335   2.245  0.1780  0.0463 -0.5518
 1306SOL     OW 5221   2.035   1.583   2.370 -0.0296 -0.1038  0.1882
 1306SOL    HW2 5222   2.027   1.599   2.464 -0.1284  0.3744  0.1008
 1306SOL    HW3 5223   1.958   1.625   2.332 -0.2498 -0.7282 -0.0586
 1306SOL    MW4 5224   2.024   1.591   2.378 -0.0717 -0.1231  0.1441
 1307SOL     OW 5225   1.815   1.677   2.256  0.2023  0.7221  0.0683
 1307SOL    HW2 5226   1.809   1.766   2.290 -0.8631  0.3491  0.8611
 1307SOL    HW3 5227   1.801   1.686   2.161  1.2104  1.5198 -0.0059
 1307SOL    MW4 5228   1.812   1.690   2.248  0.1947  0.7781  0.1631
 1308SOL     OW 5229   1.810   1.938   2.348 -0.3988  0.7207 -0.2989
 1308SOL    HW2 5230   1.802   1.932   2.443  2.2856  0.6857 -0.0571
 1308SOL    HW3 5231   1.896   1.977   2.333  0.0425 -1.0490 -2.7203
 1308SOL    MW4 5232   1.820   1.942   2.359  0.0136  0.4826 -0.5865
 1309SOL     OW 5233   2.030   2.092   2.281  0.1240  0.2140  0.0099
 1309SOL    HW2 5234   2.113   2.052   2.304  0.6514 -0.0793 -2.3207
 1309SOL    HW3 5235   2.019   2.075   2.187 -1.8815  1.4611 -0.0309
 1309SOL    MW4 5236   2.039   2.084   2.272 -0.0710  0.3398 -0.3030
 1310SOL     OW 5237   2.029   2.342   2.387 -0.0137  0.0325  0.5132
 1310SOL    HW2 5238   2.118   2.364   2.358 -0.0974 -0.2216  0.0672
 1310SOL    HW3 5239   2.017   2.251   2.360 -0.5715  0.2048  0.1790
 1310SOL    MW4 5240   2.039   2.333   2.380 -0.0984  0.0217  0.4102
 1311SOL     OW 5241   1.830   2.489   2.270  0.0030  0.4750  0.2459
 1311SOL    HW2 5242   1.906   2.445   2.308  0.6060 -0.7771 -2.2949
 1311SOL    HW3 5243   1.755   2.440   2.303  0.2543  1.7320  2.7874
 1311SOL    MW4 5244   1.830   2.476   2.279  0.1157  0.4756  0.2460
 1312SOL     OW 5245   1.775   2.759   2.417 -0.2659  0.5751  0.4333
 1312SOL    HW2 5246   1.789   2.673   2.376  0.9969  0.5042  1.0188
 1312SOL    HW3 5247   1.694   2.791   2.377  0.0486 -0.2387 -0.8798
 1312SOL    MW4 5248   1.766   2.752   2.406 -0.0578  0.4583  0.3373
 1313SOL     OW 5249   2.020   2.854   2.326  0.2313 -0.0445 -0.5160
 1313SOL    HW2 5250   2.081   2.791   2.364  0.2069  0.9679  1.2902
 1313SOL    HW3 5251   1.935   2.830   2.363 -0.0843 -0.0734 -1.2554
 1313SOL    MW4 5252   2.017   2.842   2.336  0.1865  0.0853 -0.3752
 1314SOL     OW 5253   2.026   3.122   2.393  0.0896 -0.3334 -0.0800
 1314SOL    HW2 5254   2.097   3.167   2.347  0.4969 -0.0347  0.8341
 1314SOL    HW3 5255   2.038   3.029   2.370  0.9373 -0.3185  0.2756
 1314SOL    MW4 5256   2.037   3.115   2.384  0.2552 -0.2920  0.0875
 1315SOL     OW 5257   1.802   3.244   2.268 -0.4097 -0.5646 -0.6282
 1315SOL    HW2 5258   1.880   3.204   2.307 -0.3367  0.8406  0.6814
 1315SOL    HW3 5259   1.728   3.197   2.307 -0.2684 -0.7622 -0.5991
 1315SOL    MW4 5260   1.803   3.232   2.278 -0.3814 -0.4053 -0.4516
 1316SOL     OW 5261   1.785   3.490   2.375 -0.3250 -0.1199  0.3750
 1316SOL    HW2 5262   1.799   3.405   2.336 -0.7078 -0.4540  0.9471
 1316SOL    HW3 5263   1.709   3.526   2.329  0.5336  0.3982 -0.6426
 1316SOL    MW4 5264   1.777   3.484   2.364 -0.2622 -0.0956  0.3162
 1317SOL     OW 5265   2.027   3.590   2.280 -0.7259  0.0025  0.8546
 1317SOL    HW2 5266   1.932   3.581   2.292 -0.6095  0.6955  2.3027
 1317SOL    HW3 5267   2.038   3.595   2.185 -2.2513  1.0606  0.7131
 1317SOL    MW4 5268   2.016   3.590   2.269 -0.9118  0.2335  1.0270
 1318SOL     OW 5269   2.026   3.861   2.366 -0.1733 -0.1977  0.1483
 1318SOL    HW2 5270   2.036   3.874   2.460  0.7233  0.9173 -0.1032
 1318SOL    HW3 5271   2.042   3.767   2.354 -0.4344 -0.3802  1.1137
 1318SOL    MW4 5272   2.029   3.850   2.377 -0.0895 -0.0747  0.2425
 1319SOL     OW 5273   1.794   3.987   2.271  0.2490  0.3525  0.0518
 1319SOL    HW2 5274   1.874   3.937   2.288 -1.2571 -2.5106 -1.0265
 1319SOL    HW3 5275   1.794   4.002   2.176  0.6319  2.3741  0.3447
 1319SOL    MW4 5276   1.805   3.982   2.261  0.1008  0.2415 -0.0518
 1320SOL     OW 5277   1.826   4.215   2.408  0.1595 -0.2586  0.7786
 1320SOL    HW2 5278   1.811   4.131   2.365  1.4478  0.0650 -0.2986
 1320SOL    HW3 5279   1.757   4.272   2.373 -1.6439 -1.2184  2.6008
 1320SOL    MW4 5280   1.815   4.211   2.398  0.0915 -0.3425  0.8769
 1321SOL     OW 5281   2.043   4.383   2.313 -0.1547  0.2348 -0.2647
 1321SOL    HW2 5282   1.968   4.331   2.343  0.8812 -1.2189 -0.1868
 1321SOL    HW3 5283   2.035   4.384   2.218  0.4094 -0.9531 -0.3277
 1321SOL    MW4 5284   2.032   4.376   2.305  0.0564 -0.1137 -0.2627
 1322SOL     OW 5285   2.482   4.616   2.392 -0.1869 -0.0640  0.1503
 1322SOL    HW2 5286   2.545   4.673   2.348 -0.7595  0.3006 -0.2013
 1322SOL    HW3 5287   2.491   4.532   2.347 -0.1762  0.0764 -0.1138
 1322SOL    MW4 5288   2.491   4.613   2.380 -0.2611  0.0026  0.0690
 1323SOL     OW 5289   2.258   0.141   2.300 -0.3125 -0.0705  0.4751
 1323SOL    HW2 5290   2.272   0.232   2.325 -0.9366  0.0085  0.5358
 1323SOL    HW3 5291   2.329   0.093   2.344  0.3626  0.4541 -0.0222
 1323SOL    MW4 5292   2.269   0.146   2.309 -0.3057  0.0092  0.4175
 1324SOL     OW 5293   2.253   0.410   2.369 -0.3855  0.1537  0.4096
 1324SOL    HW2 5294   2.323   0.473   2.348  0.3572 -0.4865  0.9306
 1324SOL    HW3 5295   2.178   0.440   2.317 -0.2202  1.8095  1.0869
 1324SOL    MW4 5296   2.253   0.423   2.359 -0.2657  0.2877  0.5677
 1325SOL     OW 5297   2.465   0.557   2.266 -0.1801  0.1961 -0.0238
 1325SOL    HW2 5298   2.532   0.489   2.275 -0.9628 -0.6945 -0.9139
 1325SOL    HW3 5299   2.458   0.571   2.171  0.3381  1.8869  0.1637
 1325SOL    MW4 5300   2.473   0.550   2.254 -0.2150  0.3017 -0.1165
 1326SOL     OW 5301   2.509   0.807   2.372 -0.1722  0.1553  0.4595
 1326SOL    HW2 5302   2.587   0.847   2.332 -1.1861  1.1234 -0.5944
 1326SOL    HW3 5303   2.507   0.718   2.337 -0.9013  0.9078 -1.5268
 1326SOL    MW4 5304   2.519   0.801   2.362 -0.4021  0.3823  0.0584
 1327SOL     OW 5305   2.280   0.950   2.260  0.0577 -0.3950  0.0721
 1327SOL    HW2 5306   2.281   1.037   2.301 -0.7986 -0.2005 -0.3162
 1327SOL    HW3 5307   2.355   0.905   2.300 -0.0345  0.2075  0.9518
 1327SOL    MW4 5308   2.290   0.956   2.271 -0.0675 -0.2898  0.1369
 1328SOL     OW 5309   2.276   1.202   2.373 -0.1316 -0.0068  0.2590
 1328SOL    HW2 5310   2.352   1.234   2.324  0.0956 -2.3182 -0.9924
 1328SOL    HW3 5311   2.203   1.255   2.340  0.3348 -0.2917 -1.3074
 1328SOL    MW4 5312   2.276   1.213   2.362 -0.0401 -0.3493 -0.1128
 1329SOL     OW 5313   2.504   1.290   2.258 -0.4443  0.1765 -0.0069
 1329SOL    HW2 5314   2.588   1.256   2.290 -1.1782 -0.4855  1.2663
 1329SOL    HW3 5315   2.493   1.373   2.303 -0.9158 -0.1866  0.5500
 1329SOL    MW4 5316   2.514   1.296   2.268 -0.6033  0.0413  0.2346
 1330SOL     OW 5317   2.479   1.546   2.380 -0.0747  0.1873  0.2854
 1330SOL    HW2 5318   2.513   1.542   2.470 -1.1154  1.5988  0.7605
 1330SOL    HW3 5319   2.549   1.588   2.330 -0.4732  1.6507  0.9426
 1330SOL    MW4 5320   2.493   1.551   2.385 -0.2646  0.5666  0.4348
 1331SOL     OW 5321   2.265   1.679   2.242  0.1935  0.0176 -0.1365
 1331SOL    HW2 5322   2.340   1.649   2.294  0.4272 -1.9392 -1.5415
 1331SOL    HW3 5323   2.190   1.632   2.279  0.4226 -1.6982 -1.7749
 1331SOL    MW4 5324   2.265   1.669   2.254  0.2545 -0.4669 -0.5380
 1332SOL     OW 5325   2.272   1.960   2.331 -0.0821  0.2955  0.0584
 1332SOL    HW2 5326   2.352   2.008   2.311  0.1958 -0.2842 -0.2455
 1332SOL    HW3 5327   2.282   1.876   2.285 -0.4608 -0.1330  0.7453
 1332SOL    MW4 5328   2.284   1.955   2.323 -0.0954  0.1625  0.1089
 1333SOL     OW 5329   2.495   2.101   2.261 -0.7699 -0.3970  0.0337
 1333SOL    HW2 5330   2.567   2.042   2.285  0.3053  1.1139  0.6345
 1333SOL    HW3 5331   2.486   2.090   2.166  0.8201 -0.0289 -0.1881
 1333SOL    MW4 5332   2.504   2.092   2.252 -0.4182 -0.1491  0.0837
 1334SOL     OW 5333   2.529   2.325   2.413  0.1907  0.0424  0.0222
 1334SOL    HW2 5334   2.581   2.381   2.355 -0.9156  1.0977  0.0114
 1334SOL    HW3 5335   2.515   2.245   2.363  0.0755  0.5575 -0.7949
 1334SOL    MW4 5336   2.534   2.322   2.399  0.0295  0.2496 -0.0870
 1335SOL     OW 5337   2.286   2.435   2.338 -0.3488  0.2649  0.0924
 1335SOL    HW2 5338   2.271   2.523   2.374 -0.9365  0.3579 -0.3716
 1335SOL    HW3 5339   2.373   2.411   2.369 -0.7284  0.4645  1.3494
 1335SOL    MW4 5340   2.295   2.444   2.347 -0.4765  0.3035  0.1970
 1336SOL     OW 5341   2.238   2.695   2.397  0.0938 -0.0093 -0.0698
 1336SOL    HW2 5342   2.249   2.698   2.492  0.2114  0.0351 -0.0848
 1336SOL    HW3 5343   2.316   2.738   2.362 -0.2914  0.6241 -0.1621
 1336SOL    MW4 5344   2.250   2.701   2.405  0.0585  0.0801 -0.0839
 1337SOL     OW 5345   2.440   2.831   2.277  0.2515 -0.2584 -0.1361
 1337SOL    HW2 5346   2.528   2.802   2.297  0.2617 -0.3843 -0.3616
 1337SOL    HW3 5347   2.441   2.848   2.183  0.8950  2.7284  0.3807
 1337SOL    MW4 5348   2.451   2.829   2.268  0.3377  0.1191 -0.0977
 1338SOL     OW 5349   2.460   3.074   2.391  0.1476  0.0869 -0.2435
 1338SOL    HW2 5350   2.533   3.109   2.339  0.0150  1.1318  0.2585
 1338SOL    HW3 5351   2.442   2.989   2.352  1.2750  0.0532 -0.7285
 1338SOL    MW4 5352   2.468   3.067   2.379  0.2789  0.2203 -0.2413
 1339SOL     OW 5353   2.254   3.204   2.254 -0.5431 -0.2103  0.2701
 1339SOL    HW2 5354   2.256   3.289   2.298  0.1275  0.4093 -0.9339
 1339SOL    HW3 5355   2.315   3.150   2.305 -1.2650 -0.0928  1.2702
 1339SOL    MW4 5356   2.263   3.208   2.266 -0.5499 -0.1130  0.2432
 1340SOL     OW 5357   2.241   3.441   2.388  0.2939 -0.0722 -0.8411
 1340SOL    HW2 5358   2.250   3.434   2.483 -1.0833  0.3520 -0.6733
 1340SOL    HW3 5359   2.165   3.497   2.375  0.2095 -0.4806 -2.1951
 1340SOL    MW4 5360   2.233   3.447   2.399  0.1011 -0.0701 -0.9976
 1341SOL     OW 5361   2.483   3.560   2.296 -0.2425  0.4241  0.3981
 1341SOL    HW2 5362   2.481   3.654   2.311  1.0594  0.2243  1.9875
 1341SOL    HW3 5363   2.394   3.530   2.316 -0.4796  1.2152  0.5319
 1341SOL    MW4 5364   2.471   3.568   2.301 -0.1020  0.5021  0.6255
 1342SOL     OW 5365   2.474   3.827   2.374 -0.0035 -0.2161 -0.0573
 1342SOL    HW2 5366   2.487   3.847   2.466 -0.2274 -1.1609  0.1855
 1342SOL    HW3 5367   2.423   3.901   2.341 -1.1145 -0.5328  0.9037
 1342SOL    MW4 5368   2.469   3.839   2.382 -0.1797 -0.3825  0.1016
 1343SOL     OW 5369   2.271   3.980   2.270 -0.0078 -0.4408  0.5742
 1343SOL    HW2 5370   2.275   4.069   2.304  2.0630 -0.4115  0.3176
 1343SOL    HW3 5371   2.192   3.943   2.310 -1.3987  1.7631 -0.0253
 1343SOL    MW4 5372   2.261   3.987   2.280  0.0819 -0.1461  0.4613
 1344SOL     OW 5373   2.278   4.253   2.376  0.3822  0.1772  0.0456
 1344SOL    HW2 5374   2.272   4.263   2.471  1.0712  0.1645  0.0982
 1344SOL    HW3 5375   2.200   4.296   2.341  0.0543  0.0484  0.6277
 1344SOL    MW4 5376   2.267   4.260   2.384  0.4298  0.1585  0.1294
 1345SOL     OW 5377   2.511   4.367   2.284 -0.0746  0.0228 -0.2921
 1345SOL    HW2 5378   2.579   4.315   2.328  0.4786 -0.5170 -1.7500
 1345SOL    HW3 5379   2.428   4.330   2.315  0.3031 -0.4699  0.1387
 1345SOL    MW4 5380   2.509   4.355   2.294  0.0482 -0.1134 -0.4276
 1346SOL     OW 5381   2.872   0.002   2.400 -0.6966  0.0116 -0.3539
 1346SOL    HW2 5382   2.955   0.042   2.375  0.0266 -0.6212  0.9721
 1346SOL    HW3 5383   2.877  -0.087   2.365 -0.9803  0.0973 -0.6115
 1346SOL    MW4 5384   2.883  -0.004   2.392 -0.6386 -0.0606 -0.2129
 1347SOL     OW 5385   2.670   0.107   2.266  0.2640  0.3731 -0.0663
 1347SOL    HW2 5386   2.679   0.199   2.289  0.1653  0.1097  1.0385
 1347SOL    HW3 5387   2.739   0.063   2.317 -1.6833 -0.5588  1.8276
 1347SOL    MW4 5388   2.681   0.113   2.276 -0.0059  0.2154  0.3293
 1348SOL     OW 5389   2.675   0.369   2.328  0.1333 -0.2115  0.0683
 1348SOL    HW2 5390   2.676   0.373   2.423 -0.1048  0.6411  0.0425
 1348SOL    HW3 5391   2.754   0.416   2.301 -0.3541  0.4740 -0.1773
 1348SOL    MW4 5392   2.686   0.376   2.337  0.0376 -0.0085  0.0325
 1349SOL     OW 5393   2.915   0.496   2.277  0.1363 -0.3204  0.4822
 1349SOL    HW2 5394   2.919   0.588   2.300 -0.8612  0.2163 -1.3252
 1349SOL    HW3 5395   2.933   0.494   2.183  0.6415 -2.0248  0.5887
 1349SOL    MW4 5396   2.918   0.508   2.267  0.0714 -0.4744  0.2578
 1350SOL     OW 5397   2.972   0.779   2.359  0.0492 -0.0302  0.1006
 1350SOL    HW2 5398   2.951   0.769   2.452 -0.1204 -0.1937  0.0454
 1350SOL    HW3 5399   2.894   0.818   2.320 -1.0234 -2.6829 -0.5058
 1350SOL    MW4 5400   2.959   0.783   2.366 -0.1147 -0.4018  0.0133
 1351SOL     OW 5401   2.740   0.893   2.246  0.0458 -0.0326  0.1118
 1351SOL    HW2 5402   2.728   0.983   2.275  0.3503  0.3573 -0.9376
 1351SOL    HW3 5403   2.739   0.899   2.150  1.2589 -0.9821  0.0374
 1351SOL    MW4 5404   2.738   0.906   2.237  0.2460 -0.1064 -0.0365
 1352SOL     OW 5405   2.724   1.146   2.353 -0.2248 -0.6294 -0.6505
 1352SOL    HW2 5406   2.728   1.154   2.448 -0.1129  0.2148 -0.7238
 1352SOL    HW3 5407   2.809   1.176   2.322 -0.5050 -0.2545 -1.0608
 1352SOL    MW4 5408   2.736   1.151   2.361 -0.2470 -0.4685 -0.7143
 1353SOL     OW 5409   2.968   1.228   2.250 -0.2168 -0.3491 -0.0917
 1353SOL    HW2 5410   3.059   1.208   2.267 -0.5212 -0.4464  1.5164
 1353SOL    HW3 5411   2.963   1.242   2.155  1.3705 -0.7385 -0.2368
 1353SOL    MW4 5412   2.979   1.228   2.239 -0.0475 -0.4133  0.1013
 1354SOL     OW 5413   2.937   1.501   2.361 -0.1681 -0.6987  0.2806
 1354SOL    HW2 5414   2.951   1.498   2.456  3.1852 -1.6054 -0.1757
 1354SOL    HW3 5415   2.964   1.414   2.331 -1.0351 -0.3506 -1.5433
 1354SOL    MW4 5416   2.942   1.489   2.370  0.1599 -0.7724 -0.0202
 1355SOL     OW 5417   2.699   1.644   2.259  0.1254  0.2983  0.0879
 1355SOL    HW2 5418   2.780   1.617   2.302 -0.5553 -0.0656  1.1526
 1355SOL    HW3 5419   2.723   1.651   2.166  1.3249  0.0109  0.3624
 1355SOL    MW4 5420   2.713   1.641   2.252  0.1939  0.2123  0.2646
 1356SOL     OW 5421   2.698   1.909   2.336 -0.0858 -0.4182 -0.0898
 1356SOL    HW2 5422   2.700   1.901   2.431 -2.3808 -0.3253 -0.0022
 1356SOL    HW3 5423   2.697   1.818   2.304 -2.3039 -0.4838  0.0993
 1356SOL    MW4 5424   2.698   1.896   2.344 -0.6812 -0.4146 -0.0533
 1357SOL     OW 5425   2.926   2.029   2.240 -0.5514  0.0888 -0.0292
 1357SOL    HW2 5426   2.998   2.014   2.301 -1.4083 -1.2394  0.6671
 1357SOL    HW3 5427   2.851   1.983   2.279 -2.0990  2.4476 -0.1217
 1357SOL    MW4 5428   2.926   2.021   2.253 -0.8686  0.2248  0.0505
 1358SOL     OW 5429   2.912   2.306   2.311  0.4995 -0.1770  0.2419
 1358SOL    HW2 5430   2.915   2.323   2.405 -0.3194 -1.0238  0.4273
 1358SOL    HW3 5431   2.889   2.213   2.304 -0.1837  0.0566 -0.8002
 1358SOL    MW4 5432   2.909   2.296   2.322  0.3013 -0.2579  0.1289
 1359SOL     OW 5433   2.694   2.468   2.245 -0.3859 -0.1479 -0.2680
 1359SOL    HW2 5434   2.779   2.437   2.276 -0.9203 -1.2269  0.1330
 1359SOL    HW3 5435   2.698   2.460   2.150 -0.3770 -1.0940 -0.1910
 1359SOL    MW4 5436   2.705   2.463   2.237 -0.4552 -0.4151 -0.2050
 1360SOL     OW 5437   2.679   2.712   2.363  0.1420 -0.3192 -0.1053
 1360SOL    HW2 5438   2.764   2.743   2.331 -0.1787 -0.6588 -1.3043
 1360SOL    HW3 5439   2.666   2.627   2.319 -1.2514  0.1748 -0.6779
 1360SOL    MW4 5440   2.689   2.705   2.353 -0.0842 -0.2988 -0.3390
 1361SOL     OW 5441   2.924   2.802   2.258 -0.2980 -0.0688 -0.1564
 1361SOL    HW2 5442   2.926   2.896   2.271 -0.1069  0.2399 -2.2382
 1361SOL    HW3 5443   2.938   2.790   2.164 -0.8009 -2.1508 -0.0011
 1361SOL    MW4 5444   2.926   2.813   2.248 -0.3392 -0.3028 -0.4106
 1362SOL     OW 5445   2.915   3.045   2.402  0.0346 -0.2042  0.0546
 1362SOL    HW2 5446   2.990   3.087   2.361 -0.7982 -1.3392 -2.7589
 1362SOL    HW3 5447   2.840   3.097   2.372 -0.7195 -1.8736 -1.0142
 1362SOL    MW4 5448   2.915   3.058   2.393 -0.1748 -0.5742 -0.4576
 1363SOL     OW 5449   2.687   3.171   2.276 -0.3201  0.0653 -0.7298
 1363SOL    HW2 5450   2.678   3.261   2.307 -0.1061  0.1906 -1.0314
 1363SOL    HW3 5451   2.680   3.177   2.181 -0.8705 -0.3086 -0.7197
 1363SOL    MW4 5452   2.685   3.184   2.268 -0.3645  0.0325 -0.7683
 1364SOL     OW 5453   2.693   3.425   2.403 -0.2859 -0.1367 -0.7380
 1364SOL    HW2 5454   2.770   3.469   2.365 -0.4301 -0.9876 -2.0331
 1364SOL    HW3 5455   2.620   3.482   2.380 -0.1253  0.3948  0.0318
 1364SOL    MW4 5456   2.694   3.438   2.395 -0.2837 -0.1788 -0.8073
 1365SOL     OW 5457   2.889   3.568   2.280 -0.0769  0.0493  0.0061
 1365SOL    HW2 5458   2.971   3.542   2.324 -0.1919  2.3750  1.6722
 1365SOL    HW3 5459   2.896   3.663   2.271 -3.0339  0.4366  1.1273
 1365SOL    MW4 5460   2.901   3.577   2.285 -0.4822  0.4073  0.3739
 1366SOL     OW 5461   2.918   3.838   2.346  0.3134 -0.0723 -0.0237
 1366SOL    HW2 5462   2.921   3.840   2.442  0.5396  0.9357 -0.0436
 1366SOL    HW3 5463   2.828   3.863   2.324  0.4585  0.4084 -0.0830
 1366SOL    MW4 5464   2.907   3.842   2.356  0.3624  0.1241 -0.0341
 1367SOL     OW 5465   2.696   3.970   2.233 -0.0053 -0.6919  0.0944
 1367SOL    HW2 5466   2.632   3.900   2.252 -0.6818 -0.8811 -2.6521
 1367SOL    HW3 5467   2.701   3.972   2.137  3.0892  0.2910  0.2279
 1367SOL    MW4 5468   2.688   3.961   2.223  0.3137 -0.5872 -0.2503
 1368SOL     OW 5469   2.735   4.226   2.375 -0.1225 -0.1723  0.0304
 1368SOL    HW2 5470   2.728   4.221   2.470  3.2306 -0.9942  0.3006
 1368SOL    HW3 5471   2.736   4.134   2.347  2.3275 -0.0079 -0.4702
 1368SOL    MW4 5472   2.734   4.213   2.384  0.6432 -0.2590 -0.0000
 1369SOL     OW 5473   2.911   4.403   2.268 -0.0647 -0.0558  0.1771
 1369SOL    HW2 5474   3.001   4.381   2.293  0.3935  0.6262 -0.8175
 1369SOL    HW3 5475   2.857   4.334   2.308  0.9849 -0.9563  0.0661
 1369SOL    MW4 5476   2.916   4.391   2.276  0.1342 -0.0846  0.0312
 1370SOL     OW 5477   3.360   4.655   2.346 -0.0667 -0.3213  0.1449
 1370SOL    HW2 5478   3.372   4.655   2.440 -2.5038 -1.3157  0.5072
 1370SOL    HW3 5479   3.438   4.698   2.311  1.0565 -0.3197  2.5659
 1370SOL    MW4 5480   3.372   4.661   2.353 -0.2400 -0.4523  0.5121
 1371SOL     OW 5481   3.118   0.108   2.299  0.2796  0.5522 -0.1366
 1371SOL    HW2 5482   3.121   0.186   2.353  0.6909  0.8150 -0.5336
 1371SOL    HW3 5483   3.203   0.067   2.311  0.1905  0.3490 -0.1975
 1371SOL    MW4 5484   3.129   0.113   2.307  0.3221  0.5600 -0.1970
 1372SOL     OW 5485   3.124   0.378   2.420 -0.3682 -0.2708  0.2551
 1372SOL    HW2 5486   3.200   0.404   2.367  1.0723 -2.4719  1.1644
 1372SOL    HW3 5487   3.049   0.413   2.373  1.1679  1.3093 -1.0738
 1372SOL    MW4 5488   3.124   0.386   2.407  0.0246 -0.3527  0.1997
 1373SOL     OW 5489   3.352   0.484   2.288 -0.0553  0.3811  0.6251
 1373SOL    HW2 5490   3.429   0.435   2.318 -0.9286 -1.0551  0.5663
 1373SOL    HW3 5491   3.362   0.488   2.193  0.1077  0.4587  0.6457
 1373SOL    MW4 5492   3.364   0.478   2.280 -0.1490  0.2018  0.6200
 1374SOL     OW 5493   3.422   0.747   2.409  0.3111  0.3221  0.0725
 1374SOL    HW2 5494   3.491   0.787   2.355 -0.2050 -0.0315 -0.8617
 1374SOL    HW3 5495   3.399   0.667   2.363 -0.6115  0.3519  0.4737
 1374SOL    MW4 5496   3.428   0.742   2.396  0.1213  0.2794  0.0022
 1375SOL     OW 5497   3.213   0.863   2.242  0.0087 -0.1528  0.4366
 1375SOL    HW2 5498   3.280   0.834   2.303  0.2514  1.6314  1.0567
 1375SOL    HW3 5499   3.132   0.822   2.273  0.2228  0.3527  1.6761
 1375SOL    MW4 5500   3.211   0.854   2.254  0.0690  0.1493  0.6820
 1376SOL     OW 5501   3.216   1.085   2.409  0.1870  0.0013  0.1235
 1376SOL    HW2 5502   3.289   1.121   2.359  1.0765 -0.6844  0.9090
 1376SOL    HW3 5503   3.185   1.011   2.357  0.5981 -0.2182  0.1861
 1376SOL    MW4 5504   3.222   1.080   2.396  0.3586 -0.1181  0.2354
 1377SOL     OW 5505   3.397   1.227   2.264  0.2353 -0.5133  0.0754
 1377SOL    HW2 5506   3.481   1.194   2.296  1.3787  1.2161 -1.0808
 1377SOL    HW3 5507   3.393   1.318   2.296 -1.6510 -0.8841  0.9699
 1377SOL    MW4 5508   3.407   1.235   2.272  0.1373 -0.3340  0.0409
 1378SOL     OW 5509   3.377   1.481   2.340  0.1549  0.2395  0.0067
 1378SOL    HW2 5510   3.389   1.492   2.435  0.1856  1.1964 -0.1056
 1378SOL    HW3 5511   3.290   1.516   2.323  0.3708  0.5897 -0.4013
 1378SOL    MW4 5512   3.367   1.487   2.350  0.1874  0.4119 -0.0619
 1379SOL     OW 5513   3.155   1.648   2.271 -0.3255  0.2226 -0.5188
 1379SOL    HW2 5514   3.156   1.736   2.309 -1.8214 -0.1605  0.4232
 1379SOL    HW3 5515   3.082   1.604   2.314 -0.0061 -1.2701 -1.4815
 1379SOL    MW4 5516   3.146   1.654   2.282 -0.4807 -0.0249 -0.5216
 1380SOL     OW 5517   3.135   1.888   2.381 -0.1796 -0.1579 -0.2589
 1380SOL    HW2 5518   3.155   1.883   2.475  0.8819 -0.6186 -0.5016
 1380SOL    HW3 5519   3.209   1.936   2.344 -0.7722  0.3389 -0.8213
 1380SOL    MW4 5520   3.147   1.894   2.388 -0.1178 -0.1531 -0.3651
 1381SOL     OW 5521   3.356   2.023   2.282 -0.1478 -0.9142 -0.1687
 1381SOL    HW2 5522   3.437   1.984   2.316 -0.4259 -0.3529  1.2110
 1381SOL    HW3 5523   3.363   2.015   2.187  2.4405  0.8501 -0.1802
 1381SOL    MW4 5524   3.368   2.017   2.274  0.1570 -0.6074  0.0118
 1382SOL     OW 5525   3.350   2.275   2.375 -0.0637  0.7797 -0.1559
 1382SOL    HW2 5526   3.271   2.311   2.336 -0.0027  0.3597 -0.6690
 1382SOL    HW3 5527   3.356   2.186   2.341  0.9858  1.0253 -0.6380
 1382SOL    MW4 5528   3.340   2.268   2.366  0.0828  0.7567 -0.2872
 1383SOL     OW 5529   3.154   2.382   2.227 -0.2698 -0.1780 -0.0845
 1383SOL    HW2 5530   3.159   2.471   2.263 -1.2866  0.3445 -1.2084
 1383SOL    HW3 5531   3.064   2.354   2.244 -0.3134 -0.5125 -0.8598
 1383SOL    MW4 5532   3.143   2.390   2.234 -0.4097 -0.1532 -0.3351
 1384SOL     OW 5533   3.142   2.638   2.364 -0.3739  0.5504  0.5634
 1384SOL    HW2 5534   3.137   2.642   2.459 -0.2986 -0.6591  0.6360
 1384SOL    HW3 5535   3.079   2.703   2.333  0.1564  1.4767  1.4421
 1384SOL    MW4 5536   3.133   2.647   2.372 -0.2940  0.5130  0.6890
 1385SOL     OW 5537   3.339   2.817   2.264  0.0004 -0.0454 -0.2776
 1385SOL    HW2 5538   3.353   2.898   2.312 -3.8515  0.3824  0.2705
 1385SOL    HW3 5539   3.274   2.770   2.316  0.5604 -2.5263 -1.7392
 1385SOL    MW4 5540   3.332   2.821   2.277 -0.4340 -0.3162 -0.3981
 1386SOL     OW 5541   3.400   3.059   2.378  0.2199 -0.1001 -0.2420
 1386SOL    HW2 5542   3.466   3.105   2.326 -0.0356 -0.4773 -0.9097
 1386SOL    HW3 5543   3.318   3.105   2.357  0.2292  0.2064  0.3878
 1386SOL    MW4 5544   3.398   3.071   2.368  0.1874 -0.1094 -0.2470
 1387SOL     OW 5545   3.143   3.173   2.297  0.3865  0.7197 -0.2143
 1387SOL    HW2 5546   3.115   3.264   2.308  1.4745  1.0235  0.0627
 1387SOL    HW3 5547   3.139   3.158   2.203  0.1783  1.0511 -0.2594
 1387SOL    MW4 5548   3.139   3.183   2.286  0.5026  0.8035 -0.1837
 1388SOL     OW 5549   3.142   3.439   2.355  0.0044 -0.1123 -0.2932
 1388SOL    HW2 5550   3.154   3.444   2.450 -0.3627 -0.1224 -0.2451
 1388SOL    HW3 5551   3.211   3.494   2.319  1.0471 -1.2440 -0.0696
 1388SOL    MW4 5552   3.153   3.447   2.363  0.0935 -0.2629 -0.2573
 1389SOL     OW 5553   3.339   3.607   2.252 -0.4569 -0.1613  0.1806
 1389SOL    HW2 5554   3.424   3.569   2.275 -0.3689 -0.3555 -0.4380
 1389SOL    HW3 5555   3.344   3.620   2.157 -0.4953  1.3633  0.3682
 1389SOL    MW4 5556   3.351   3.604   2.242 -0.4504  0.0142  0.1238
 1390SOL     OW 5557   3.359   3.860   2.350  0.5447 -0.6073  0.0877
 1390SOL    HW2 5558   3.448   3.887   2.328  1.6725 -1.5221  3.1396
 1390SOL    HW3 5559   3.356   3.766   2.329  0.8064 -0.9071  1.3370
 1390SOL    MW4 5560   3.370   3.851   2.345  0.7281 -0.7676  0.6552
 1391SOL     OW 5561   3.119   3.997   2.241  0.1769  0.0044  0.3617
 1391SOL    HW2 5562   3.192   3.943   2.271 -0.0972 -0.4637  0.1907
 1391SOL    HW3 5563   3.041   3.945   2.262 -0.0120 -0.4426 -1.3979
 1391SOL    MW4 5564   3.118   3.983   2.248  0.1158 -0.1163  0.1070
 1392SOL     OW 5565   3.116   4.246   2.362 -0.0480  0.2190 -0.5076
 1392SOL    HW2 5566   3.203   4.280   2.344 -0.0845  0.3849 -0.3649
 1392SOL    HW3 5567   3.118   4.156   2.329  0.4449 -0.0539  0.2457
 1392SOL    MW4 5568   3.127   4.238   2.355  0.0122  0.2049 -0.3894
 1393SOL     OW 5569   3.354   4.372   2.276  0.0865 -0.8612  0.0844
 1393SOL    HW2 5570   3.328   4.460   2.304  3.0778 -0.1011  0.6591
 1393SOL    HW3 5571   3.344   4.373   2.181 -0.6178 -0.1632  0.1627
 1393SOL    MW4 5572   3.350   4.384   2.267  0.3882 -0.6688  0.1706
 1394SOL     OW 5573   3.800   4.634   2.393  0.3914 -0.0297 -0.1165
 1394SOL    HW2 5574   3.831   4.628   2.483  0.5195 -1.2888 -0.2430
 1394SOL    HW3 5575   3.872   4.674   2.345  0.9347 -0.8308  0.0340
 1394SOL    MW4 5576   3.813   4.639   2.398  0.4800 -0.3015 -0.1133
 1395SOL     OW 5577   3.604   0.095   2.254 -0.3962  0.3092  0.0975
 1395SOL    HW2 5578   3.591   0.179   2.299 -2.2009  0.2225 -0.2041
 1395SOL    HW3 5579   3.678   0.054   2.299 -1.4660  0.7013  2.2865
 1395SOL    MW4 5580   3.612   0.101   2.266 -0.7755  0.3495  0.3465
 1396SOL     OW 5581   3.574   0.344   2.373 -0.2885  0.0137  0.0746
 1396SOL    HW2 5582   3.590   0.356   2.467 -1.8367  1.3939  0.1813
 1396SOL    HW3 5583   3.652   0.380   2.331  0.5525 -0.8939  0.8297
 1396SOL    MW4 5584   3.587   0.351   2.380 -0.3818  0.0761  0.1883
 1397SOL     OW 5585   3.776   0.463   2.269  0.4673 -0.3763  0.6027
 1397SOL    HW2 5586   3.808   0.545   2.307 -0.5389  0.4240 -0.2542
 1397SOL    HW3 5587   3.786   0.475   2.175 -2.2151 -0.1477  0.3058
 1397SOL    MW4 5588   3.782   0.476   2.262 -0.0194 -0.2406  0.4505
 1398SOL     OW 5589   3.869   0.710   2.345  0.2725 -0.0998  0.0770
 1398SOL    HW2 5590   3.861   0.743   2.435  1.1346  0.2343  0.0332
 1398SOL    HW3 5591   3.911   0.781   2.297 -0.8659  0.0262 -0.7753
 1398SOL    MW4 5592   3.873   0.724   2.351  0.2360 -0.0391 -0.0412
 1399SOL     OW 5593   3.628   0.854   2.246 -0.0756  0.3243 -0.0179
 1399SOL    HW2 5594   3.715   0.818   2.262  0.2668  1.6214  1.1199
 1399SOL    HW3 5595   3.614   0.841   2.153  0.3715 -1.9863  0.1955
 1399SOL    MW4 5596   3.638   0.848   2.236  0.0286  0.1906  0.1604
 1400SOL     OW 5597   3.634   1.125   2.365  0.3788  0.1072  0.2038
 1400SOL    HW2 5598   3.612   1.129   2.458 -0.3061 -0.7223  0.0889
 1400SOL    HW3 5599   3.623   1.032   2.342  2.1066  0.0146 -0.3321
 1400SOL    MW4 5600   3.629   1.113   2.374  0.5164 -0.0145  0.1180
 1401SOL     OW 5601   3.854   1.280   2.233 -0.1339  0.0162  0.1232
 1401SOL    HW2 5602   3.862   1.353   2.294 -0.0933 -0.0253  0.1671
 1401SOL    HW3 5603   3.784   1.226   2.270  1.2558 -1.0723  1.2147
 1401SOL    MW4 5604   3.845   1.283   2.246  0.0548 -0.1329  0.2730
 1402SOL     OW 5605   3.837   1.504   2.386 -0.3440 -0.3575 -0.2728
 1402SOL    HW2 5606   3.847   1.480   2.479  0.5750 -1.9170 -0.7555
 1402SOL    HW3 5607   3.743   1.522   2.376 -0.6257 -1.1838  0.7398
 1402SOL    MW4 5608   3.826   1.503   2.397 -0.2599 -0.6723 -0.2029
 1403SOL     OW 5609   3.594   1.640   2.290  0.1904  0.2779 -0.3697
 1403SOL    HW2 5610   3.509   1.597   2.298 -0.1621  0.9196 -0.5940
 1403SOL    HW3 5611   3.610   1.645   2.196 -0.1912  1.4416 -0.3761
 1403SOL    MW4 5612   3.585   1.635   2.278  0.0936  0.5161 -0.4001
 1404SOL     OW 5613   3.593   1.902   2.376  0.1864 -0.5721  0.4346
 1404SOL    HW2 5614   3.656   1.956   2.327 -0.5205  0.3857  0.5688
 1404SOL    HW3 5615   3.608   1.813   2.343  1.8082 -0.4091  0.6763
 1404SOL    MW4 5616   3.603   1.898   2.365  0.3071 -0.4242  0.4842
 1405SOL     OW 5617   3.817   2.031   2.264  0.1492  0.0151  0.7677
 1405SOL    HW2 5618   3.890   1.998   2.316  0.2927 -0.0294  0.5365
 1405SOL    HW3 5619   3.854   2.046   2.177 -0.3860 -1.0482  0.3575
 1405SOL    MW4 5620   3.832   2.029   2.259  0.0975 -0.1311  0.6831
 1406SOL     OW 5621   3.797   2.285   2.410 -0.1798  0.5349 -0.0957
 1406SOL    HW2 5622   3.729   2.336   2.367 -0.4479  0.4468  0.2206
 1406SOL    HW3 5623   3.799   2.202   2.362 -1.6680 -0.2319  1.1233
 1406SOL    MW4 5624   3.788   2.281   2.398 -0.4115  0.4221  0.1069
 1407SOL     OW 5625   3.581   2.416   2.283  0.3590  0.4307  0.0423
 1407SOL    HW2 5626   3.505   2.362   2.303 -0.2517  1.2228 -0.1220
 1407SOL    HW3 5627   3.595   2.406   2.189 -1.1700  2.3460 -0.4277
 1407SOL    MW4 5628   3.573   2.408   2.273  0.0767  0.7879 -0.0414
 1408SOL     OW 5629   3.601   2.692   2.323 -0.1981 -0.2250  0.4505
 1408SOL    HW2 5630   3.588   2.599   2.309 -0.2691  0.0834 -1.6788
 1408SOL    HW3 5631   3.528   2.734   2.277 -0.0155  0.8959  1.1545
 1408SOL    MW4 5632   3.590   2.686   2.315 -0.1834 -0.0365  0.2624
 1409SOL     OW 5633   3.837   2.813   2.255  0.3499 -0.1545  0.1410
 1409SOL    HW2 5634   3.841   2.905   2.282 -0.5685 -0.4328  1.2570
 1409SOL    HW3 5635   3.747   2.786   2.275  0.9695 -1.6423  0.9816
 1409SOL    MW4 5636   3.825   2.821   2.261  0.3105 -0.3875  0.3991
 1410SOL     OW 5637   3.773   3.085   2.338 -0.4301  0.1393 -0.7395
 1410SOL    HW2 5638   3.771   3.087   2.434 -0.9066 -1.3263 -0.6950
 1410SOL    HW3 5639   3.850   3.137   2.314 -0.3914  0.6385  0.4303
 1410SOL    MW4 5640   3.783   3.092   2.348 -0.4879  0.0118 -0.5793
 1411SOL     OW 5641   3.579   3.237   2.224 -0.0199  0.4860  0.3352
 1411SOL    HW2 5642   3.573   3.321   2.269 -0.5585 -0.0758  1.3185
 1411SOL    HW3 5643   3.652   3.191   2.266 -0.1780  0.1762  0.2777
 1411SOL    MW4 5644   3.588   3.242   2.235 -0.1118  0.3710  0.4573
 1412SOL     OW 5645   3.585   3.472   2.350  0.1159 -0.0452 -0.0333
 1412SOL    HW2 5646   3.590   3.473   2.445 -0.0550  0.8128 -0.0266
 1412SOL    HW3 5647   3.666   3.513   2.320  0.1404 -0.2512 -0.2556
 1412SOL    MW4 5648   3.596   3.478   2.358  0.0966  0.0409 -0.0618
 1413SOL     OW 5649   3.819   3.592   2.250 -0.1158 -0.1985 -0.1169
 1413SOL    HW2 5650   3.814   3.687   2.267  1.5498 -0.2926  1.0736
 1413SOL    HW3 5651   3.822   3.585   2.155 -0.8654  0.9017 -0.2434
 1413SOL    MW4 5652   3.819   3.604   2.240  0.0050 -0.0658  0.0235
 1414SOL     OW 5653   3.818   3.863   2.345 -0.1579 -0.2841  0.2348
 1414SOL    HW2 5654   3.822   3.860   2.441 -0.0033  1.5511  0.3034
 1414SOL    HW3 5655   3.907   3.883   2.317  0.2191 -2.7024 -0.4192
 1414SOL    MW4 5656   3.830   3.865   2.354 -0.0878 -0.3610  0.1576
 1415SOL     OW 5657   3.585   3.988   2.262  0.2022  0.0579 -0.3795
 1415SOL    HW2 5658   3.572   4.071   2.307  0.1194 -1.1818  2.0116
 1415SOL    HW3 5659   3.670   3.956   2.294 -0.7364 -1.7480  0.3999
 1415SOL    MW4 5660   3.595   3.995   2.272  0.0675 -0.3439  0.0388
 1416SOL     OW 5661   3.581   4.226   2.363  0.3249 -0.3324  0.0330
 1416SOL    HW2 5662   3.648   4.287   2.332 -0.5722  0.1415 -0.9949
 1416SOL    HW3 5663   3.499   4.263   2.334 -0.4275 -0.7736  1.5268
 1416SOL    MW4 5664   3.579   4.239   2.355  0.1072 -0.3281  0.0945
 1417SOL     OW 5665   3.786   4.383   2.285  0.2838  0.1824 -0.2761
 1417SOL    HW2 5666   3.869   4.350   2.318 -0.1884 -0.1361  0.5974
 1417SOL    HW3 5667   3.780   4.473   2.318  0.2986  0.2217 -0.3786
 1417SOL    MW4 5668   3.796   4.391   2.293  0.2234  0.1456 -0.1744
 1418SOL     OW 5669   4.215   4.643   2.385  0.1884 -0.0192  0.6835
 1418SOL    HW2 5670   4.228   4.621   2.477  0.5200 -0.7405  0.4638
 1418SOL    HW3 5671   4.293   4.692   2.361  1.3832 -2.1841  0.0487
 1418SOL    MW4 5672   4.227   4.647   2.394  0.3898 -0.4000  0.5708
 1419SOL     OW 5673   4.022   0.110   2.245 -0.1196  0.2169  0.6799
 1419SOL    HW2 5674   4.026   0.190   2.297 -1.0479 -1.4313  3.4305
 1419SOL    HW3 5675   4.103   0.063   2.267  0.5523  0.4807 -1.1230
 1419SOL    MW4 5676   4.034   0.114   2.255 -0.1534  0.0343  0.8049
 1420SOL     OW 5677   4.024   0.360   2.367  0.6246 -0.0184 -0.0512
 1420SOL    HW2 5678   4.104   0.402   2.336  0.9503 -0.4114  0.2557
 1420SOL    HW3 5679   3.954   0.422   2.346  0.8701 -0.1765 -1.3858
 1420SOL    MW4 5680   4.025   0.373   2.360  0.7000 -0.0911 -0.1868
 1421SOL     OW 5681   4.229   0.507   2.291  0.0101  0.3166 -0.1635
 1421SOL    HW2 5682   4.219   0.599   2.316  1.2882  0.3309  0.2878
 1421SOL    HW3 5683   4.309   0.478   2.333 -0.9173 -1.3108  0.5354
 1421SOL    MW4 5684   4.238   0.516   2.300  0.0564  0.1038 -0.0118
 1422SOL     OW 5685   4.234   0.766   2.404  0.3988 -0.1309  0.3591
 1422SOL    HW2 5686   4.171   0.814   2.351 -0.5441  0.1595  1.7022
 1422SOL    HW3 5687   4.318   0.778   2.360 -0.1735  1.0265 -0.4284
 1422SOL    MW4 5688   4.237   0.774   2.391  0.1989  0.0601  0.4324
 1423SOL     OW 5689   4.032   0.906   2.242  0.5973 -0.5628  0.3065
 1423SOL    HW2 5690   4.041   0.992   2.281  0.7001 -0.7364  0.6618
 1423SOL    HW3 5691   4.049   0.920   2.148 -0.0771 -0.0766  0.2552
 1423SOL    MW4 5692   4.035   0.919   2.235  0.5218 -0.5216  0.3466
 1424SOL     OW 5693   4.059   1.161   2.349  0.1621 -0.1114 -0.1490
 1424SOL    HW2 5694   4.036   1.150   2.441  0.2295  0.9423  0.0104
 1424SOL    HW3 5695   3.982   1.203   2.310 -0.0491 -0.9774 -0.6808
 1424SOL    MW4 5696   4.046   1.165   2.356  0.1431 -0.0866 -0.1982
 1425SOL     OW 5697   4.295   1.287   2.259 -0.1060 -0.4981 -0.7063
 1425SOL    HW2 5698   4.210   1.253   2.287 -0.2422 -1.2281 -1.9855
 1425SOL    HW3 5699   4.359   1.232   2.306 -0.3242  0.5457  0.8458
 1425SOL    MW4 5700   4.292   1.275   2.269 -0.1528 -0.4567 -0.6703
 1426SOL     OW 5701   4.225   1.543   2.393 -0.5114 -0.1890  0.1824
 1426SOL    HW2 5702   4.233   1.452   2.366 -0.7665  0.0775 -0.7942
 1426SOL    HW3 5703   4.298   1.588   2.351  0.3623 -0.1718  1.6934
 1426SOL    MW4 5704   4.235   1.537   2.384 -0.4298 -0.1515  0.2529
 1427SOL     OW 5705   4.006   1.677   2.257  0.0894 -0.1844  0.1853
 1427SOL    HW2 5706   4.071   1.631   2.310  0.2090 -0.9576 -0.6143
 1427SOL    HW3 5707   3.924   1.630   2.275 -0.3235  0.9791  1.4301
 1427SOL    MW4 5708   4.004   1.665   2.266  0.0507 -0.1329  0.2440
 1428SOL     OW 5709   4.060   1.920   2.340  0.1721 -0.2949  0.2148
 1428SOL    HW2 5710   4.090   1.910   2.431  1.2634 -0.1983 -0.1297
 1428SOL    HW3 5711   4.042   1.830   2.311  0.6750 -0.4058  0.2421
 1428SOL    MW4 5712   4.061   1.907   2.348  0.3824 -0.2968  0.1729
 1429SOL     OW 5713   4.264   2.067   2.216  0.0185 -0.1424 -0.4712
 1429SOL    HW2 5714   4.254   2.140   2.278 -0.0677 -1.0606  0.6137
 1429SOL    HW3 5715   4.189   2.010   2.234  0.4222 -0.8119 -0.8866
 1429SOL    MW4 5716   4.253   2.069   2.226  0.0604 -0.3519 -0.3829
 1430SOL     OW 5717   4.271   2.271   2.395  0.3938  0.3149  0.7169
 1430SOL    HW2 5718   4.186   2.309   2.368  0.1695 -0.8365 -0.2446
 1430SOL    HW3 5719   4.336   2.332   2.359  0.0017  0.5597  0.4098
 1430SOL    MW4 5720   4.268   2.284   2.387  0.3125  0.1953  0.5495
 1431SOL     OW 5721   4.048   2.401   2.317  0.0499 -0.3551  0.2921
 1431SOL    HW2 5722   4.063   2.494   2.335 -0.2343 -0.3256  0.3905
 1431SOL    HW3 5723   3.967   2.381   2.364  0.7589 -0.9595  1.2855
 1431SOL    MW4 5724   4.039   2.411   2.326  0.1060 -0.4309  0.4362
 1432SOL     OW 5725   4.033   2.672   2.385  0.2061  0.2717 -0.2303
 1432SOL    HW2 5726   4.019   2.702   2.475  2.2390 -0.0450  0.2207
 1432SOL    HW3 5727   3.955   2.700   2.338 -0.7055  0.8026  1.5458
 1432SOL    MW4 5728   4.021   2.679   2.391  0.3541  0.3000  0.0636
 1433SOL     OW 5729   4.229   2.833   2.254 -0.3037  0.3340  0.0703
 1433SOL    HW2 5730   4.156   2.778   2.283 -0.6686  0.2098 -1.0608
 1433SOL    HW3 5731   4.304   2.802   2.305 -0.6567 -0.7295 -0.0510
 1433SOL    MW4 5732   4.229   2.822   2.265 -0.3984  0.1773 -0.0950
 1434SOL     OW 5733   4.243   3.103   2.397  0.3730  0.4382 -0.2500
 1434SOL    HW2 5734   4.243   3.014   2.360  0.3022  0.7871 -1.1091
 1434SOL    HW3 5735   4.326   3.141   2.368  0.5195  0.5646  0.3341
 1434SOL    MW4 5736   4.254   3.096   2.388  0.3830  0.5009 -0.2862
 1435SOL     OW 5737   4.012   3.210   2.252 -0.0119  0.0325  0.0336
 1435SOL    HW2 5738   4.005   3.299   2.287  0.4212 -0.5169  1.5492
 1435SOL    HW3 5739   4.086   3.172   2.298  0.8030 -0.6106 -1.7636
 1435SOL    MW4 5740   4.021   3.217   2.263  0.1528 -0.1248 -0.0036
 1436SOL     OW 5741   4.036   3.464   2.377 -0.2682  0.2860 -0.2667
 1436SOL    HW2 5742   4.099   3.508   2.321 -0.0269 -0.6929 -0.7826
 1436SOL    HW3 5743   3.952   3.504   2.355  0.0536  1.0132 -0.1781
 1436SOL    MW4 5744   4.033   3.475   2.367 -0.1939  0.2528 -0.3231
 1437SOL     OW 5745   4.261   3.572   2.248 -0.3886  0.2109 -0.0689
 1437SOL    HW2 5746   4.268   3.664   2.274 -0.1445  0.3902 -0.7617
 1437SOL    HW3 5747   4.255   3.575   2.152 -0.6130 -0.4813 -0.0762
 1437SOL    MW4 5748   4.261   3.585   2.239 -0.3860  0.1432 -0.1612
 1438SOL     OW 5749   4.262   3.852   2.323 -0.0346  0.3192 -0.5348
 1438SOL    HW2 5750   4.252   3.851   2.418 -0.2842 -0.9880 -0.5643
 1438SOL    HW3 5751   4.334   3.914   2.307  0.3434  0.1694  0.5263
 1438SOL    MW4 5752   4.270   3.860   2.333 -0.0177  0.1270 -0.3987
 1439SOL     OW 5753   4.049   3.989   2.253 -0.2817  0.5411  0.5938
 1439SOL    HW2 5754   4.124   3.931   2.266  0.8381  1.9002  0.2275
 1439SOL    HW3 5755   4.035   3.990   2.158  0.6722  2.0615  0.4508
 1439SOL    MW4 5756   4.057   3.981   2.242 -0.0081  0.9210  0.5266
 1440SOL     OW 5757   4.032   4.247   2.372 -0.5655 -0.0468 -0.1713
 1440SOL    HW2 5758   4.093   4.301   2.321  0.4306 -0.5032  0.5310
 1440SOL    HW3 5759   4.031   4.163   2.328 -0.7744 -0.0044 -0.2486
 1440SOL    MW4 5760   4.039   4.243   2.360 -0.4616 -0.1014 -0.0889
 1441SOL     OW 5761   4.226   4.405   2.265 -0.1631 -0.2453 -0.1357
 1441SOL    HW2 5762   4.221   4.491   2.307 -1.2040 -0.2153 -0.3058
 1441SOL    HW3 5763   4.287   4.355   2.319 -1.5800 -0.2434  1.4766
 1441SOL    MW4 5764   4.233   4.410   2.277 -0.4873 -0.2411  0.0546
 1442SOL     OW 5765   0.209   0.021   2.657  0.5084  0.2007 -0.1496
 1442SOL    HW2 5766   0.226  -0.067   2.689  1.6239  0.0358 -1.1717
 1442SOL    HW3 5767   0.131   0.049   2.705 -0.8008 -1.9243 -0.9786
 1442SOL    MW4 5768   0.201   0.013   2.668  0.4828 -0.1014 -0.3939
 1443SOL     OW 5769   4.475   0.110   2.773  0.2247 -0.1022 -0.1263
 1443SOL    HW2 5770   4.470   0.108   2.869 -0.4507 -0.3073 -0.1621
 1443SOL    HW3 5771   4.455   0.201   2.750  0.5737 -0.0098 -0.0603
 1443SOL    MW4 5772   4.471   0.122   2.783  0.1817 -0.1171 -0.1223
 1444SOL     OW 5773   4.467   0.377   2.674 -0.1340  0.1364 -0.0201
 1444SOL    HW2 5774   4.554   0.414   2.688  0.2004 -0.9582  0.8315
 1444SOL    HW3 5775   4.456   0.379   2.579  0.6117  0.7599 -0.0985
 1444SOL    MW4 5776   4.477   0.382   2.663  0.0085  0.0742  0.0819
 1445SOL     OW 5777   0.215   0.508   2.735  0.1518  0.2307  0.8185
 1445SOL    HW2 5778   0.209   0.511   2.831 -0.0315  0.3513  0.8027
 1445SOL    HW3 5779   0.301   0.471   2.718  0.5574  1.0722  1.0246
 1445SOL    MW4 5780   0.225   0.503   2.746  0.1812  0.3577  0.8436
 1446SOL     OW 5781   0.198   0.776   2.628  0.3276 -0.1173  0.3290
 1446SOL    HW2 5782   0.261   0.823   2.682  1.6000  0.6248 -1.7719
 1446SOL    HW3 5783   0.195   0.688   2.666  0.4961  0.6533  2.1606
 1446SOL    MW4 5784   0.206   0.770   2.640  0.5177  0.0823  0.2934
 1447SOL     OW 5785   4.482   0.912   2.801 -0.1314 -0.5033 -0.1721
 1447SOL    HW2 5786   4.396   0.893   2.764  0.2637 -2.2834 -0.2018
 1447SOL    HW3 5787   4.543   0.859   2.750  0.8541 -0.1299  0.5947
 1447SOL    MW4 5788   4.479   0.902   2.789  0.0507 -0.6889 -0.0748
 1448SOL     OW 5789   0.023   1.168   2.672 -0.1364  0.2349  0.5094
 1448SOL    HW2 5790   0.105   1.207   2.704  0.7525 -1.1793 -0.0013
 1448SOL    HW3 5791   0.022   1.080   2.710 -0.5758 -0.3688 -0.8688
 1448SOL    MW4 5792   0.034   1.162   2.681 -0.0771 -0.0313  0.2602
 1449SOL     OW 5793   0.237   1.300   2.780 -0.3390 -0.3203  0.2813
 1449SOL    HW2 5794   0.311   1.264   2.730  0.2192  0.6585  0.4030
 1449SOL    HW3 5795   0.218   1.384   2.738 -0.6312 -0.0337  0.9926
 1449SOL    MW4 5796   0.244   1.306   2.768 -0.3039 -0.1533  0.3912
 1450SOL     OW 5797   0.216   1.541   2.644 -0.1874 -0.0321  0.2147
 1450SOL    HW2 5798   0.294   1.586   2.677 -0.5792 -0.4766  1.7986
 1450SOL    HW3 5799   0.143   1.596   2.673 -0.5502 -0.4518  0.0978
 1450SOL    MW4 5800   0.216   1.554   2.652 -0.2869 -0.1461  0.4083
 1451SOL     OW 5801   0.011   1.700   2.719 -0.3430  0.0366 -0.4594
 1451SOL    HW2 5802   0.014   1.714   2.813 -0.1398 -0.1570 -0.4366
 1451SOL    HW3 5803   0.006   1.788   2.682  1.2129  0.1823 -0.3305
 1451SOL    MW4 5804   0.010   1.713   2.726 -0.1109  0.0303 -0.4394
 1452SOL     OW 5805   4.490   1.960   2.654 -0.3835  0.4441 -0.1140
 1452SOL    HW2 5806   4.556   2.024   2.682 -0.0805 -0.5081  1.4637
 1452SOL    HW3 5807   4.495   1.960   2.559  0.2624  2.0802 -0.1005
 1452SOL    MW4 5808   4.500   1.968   2.645 -0.2583  0.5343  0.0959
 1453SOL     OW 5809   0.236   2.098   2.739  0.2125 -0.2668  1.2054
 1453SOL    HW2 5810   0.316   2.048   2.722  0.1910 -0.5729  1.9978
 1453SOL    HW3 5811   0.243   2.175   2.681  1.2516 -0.1018  1.5409
 1453SOL    MW4 5812   0.248   2.102   2.729  0.3468 -0.2854  1.3542
 1454SOL     OW 5813   0.239   2.357   2.628 -0.5693 -0.5181 -0.0332
 1454SOL    HW2 5814   0.317   2.394   2.669 -0.5350 -1.0236  0.3558
 1454SOL    HW3 5815   0.167   2.379   2.688 -1.2548  2.6971 -1.8881
 1454SOL    MW4 5816   0.239   2.365   2.641 -0.6552 -0.1606 -0.2266
 1455SOL     OW 5817   0.007   2.453   2.734  0.4684 -0.1895  0.2341
 1455SOL    HW2 5818   0.006   2.457   2.829  0.5956  1.7016  0.1770
 1455SOL    HW3 5819  -0.077   2.413   2.711 -0.1426  0.5696  1.1051
 1455SOL    MW4 5820  -0.004   2.448   2.743  0.4046  0.1602  0.3415
 1456SOL     OW 5821   0.046   2.724   2.650  0.3736  0.1117  0.3144
 1456SOL    HW2 5822  -0.036   2.758   2.686 -0.4156  0.2086 -1.4889
 1456SOL    HW3 5823   0.046   2.631   2.672  0.8789  0.5541  2.2670
 1456SOL    MW4 5824   0.035   2.716   2.657  0.3361  0.1828  0.3341
 1457SOL     OW 5825   0.278   2.844   2.724  0.4515  0.5613  0.2213
 1457SOL    HW2 5826   0.250   2.936   2.730 -0.5745  0.1856  1.3703
 1457SOL    HW3 5827   0.201   2.798   2.690  1.0332  0.1427 -0.5462
 1457SOL    MW4 5828   0.264   2.850   2.720  0.3929  0.4565  0.2716
 1458SOL     OW 5829   0.208   3.104   2.619 -0.0700  0.1048 -0.3706
 1458SOL    HW2 5830   0.286   3.151   2.648  0.1970  0.3795 -1.5178
 1458SOL    HW3 5831   0.225   3.083   2.527 -0.7934 -0.9808 -0.2633
 1458SOL    MW4 5832   0.221   3.107   2.610 -0.1302 -0.0022 -0.5078
 1459SOL     OW 5833   4.479   3.209   2.755 -0.1540 -0.7658 -0.0658
 1459SOL    HW2 5834   4.410   3.152   2.721 -0.8664 -0.0328  0.1245
 1459SOL    HW3 5835   4.557   3.183   2.707 -0.2688 -2.5108  0.6630
 1459SOL    MW4 5836   4.480   3.198   2.744 -0.2632 -0.8993  0.0555
 1460SOL     OW 5837   4.445   3.477   2.686 -0.2731 -0.4148  0.2398
 1460SOL    HW2 5838   4.525   3.518   2.720 -0.8562 -0.2018  1.3949
 1460SOL    HW3 5839   4.445   3.390   2.725 -0.9389 -0.1737  0.7932
 1460SOL    MW4 5840   4.456   3.471   2.696 -0.4379 -0.3549  0.4652
 1461SOL     OW 5841   0.198   3.609   2.753 -0.7363 -0.2513 -0.0462
 1461SOL    HW2 5842   0.209   3.610   2.849 -0.9585  0.8989 -0.0263
 1461SOL    HW3 5843   0.271   3.556   2.722 -1.0146 -1.1518  0.8092
 1461SOL    MW4 5844   0.209   3.602   2.762 -0.8024 -0.2183  0.0693
 1462SOL     OW 5845   0.186   3.861   2.659  0.1311  1.0178 -0.8243
 1462SOL    HW2 5846   0.191   3.772   2.693 -3.4248  0.4254 -1.5709
 1462SOL    HW3 5847   0.199   3.852   2.565 -0.8551  1.1691 -0.9841
 1462SOL    MW4 5848   0.188   3.848   2.651 -0.4682  0.9596 -0.9439
 1463SOL     OW 5849   4.461   4.015   2.744  0.2522  0.3850  0.2522
 1463SOL    HW2 5850   4.470   4.103   2.709  0.4833  1.0946  2.0921
 1463SOL    HW3 5851   4.545   3.973   2.723  0.6254  1.0012  0.4933
 1463SOL    MW4 5852   4.473   4.021   2.736  0.3319  0.5599  0.5268
 1464SOL     OW 5853   4.465   4.274   2.664  0.0120 -0.0681  0.0595
 1464SOL    HW2 5854   4.383   4.301   2.704  0.1799  2.3391 -1.1602
 1464SOL    HW3 5855   4.529   4.338   2.695  1.1501 -1.0769 -0.1620
 1464SOL    MW4 5856   4.463   4.286   2.674  0.1843  0.1164 -0.1306
 1465SOL     OW 5857   0.248   4.407   2.734 -0.0971 -0.4011  0.1026
 1465SOL    HW2 5858   0.234   4.409   2.829  1.5504  0.8978  0.3415
 1465SOL    HW3 5859   0.316   4.342   2.720  0.1990 -0.0501 -0.1081
 1465SOL    MW4 5860   0.255   4.399   2.745  0.1593 -0.1834  0.1063
 1466SOL     OW 5861   0.656   4.618   2.657  1.0020  0.1826 -0.2377
 1466SOL    HW2 5862   0.736   4.664   2.683  1.4057 -0.0070 -1.1537
 1466SOL    HW3 5863   0.585   4.669   2.698  1.5759  0.4052  0.4850
 1466SOL    MW4 5864   0.657   4.631   2.666  1.1310  0.1870 -0.2632
 1467SOL     OW 5865   0.476   0.131   2.738  0.6178 -0.2547  0.2988
 1467SOL    HW2 5866   0.463   0.134   2.832 -1.5420  0.4399  0.0033
 1467SOL    HW3 5867   0.394   0.097   2.703  0.8482  0.8651 -1.4243
 1467SOL    MW4 5868   0.463   0.127   2.746  0.3632 -0.0153  0.0324
 1468SOL     OW 5869   0.467   0.406   2.681  0.4899 -0.2282  0.3993
 1468SOL    HW2 5870   0.540   0.445   2.728  0.8639  0.0184 -0.3680
 1468SOL    HW3 5871   0.474   0.312   2.699  1.9034 -0.3898 -0.8820
 1468SOL    MW4 5872   0.478   0.399   2.689  0.7258 -0.2170  0.1290
 1469SOL     OW 5873   0.695   0.543   2.782 -0.1265  0.2569  0.1241
 1469SOL    HW2 5874   0.686   0.521   2.875 -1.2909 -0.4143 -0.1368
 1469SOL    HW3 5875   0.769   0.491   2.753 -0.9010 -0.9711  0.2621
 1469SOL    MW4 5876   0.703   0.533   2.791 -0.3823  0.0063  0.1079
 1470SOL     OW 5877   0.645   0.792   2.673  0.8032 -0.2217 -0.0035
 1470SOL    HW2 5878   0.734   0.827   2.678  0.5621  0.2712  0.9032
 1470SOL    HW3 5879   0.652   0.702   2.705  1.0874 -0.3888 -0.5369
 1470SOL    MW4 5880   0.657   0.785   2.678  0.8089 -0.1787  0.0457
 1471SOL     OW 5881   0.398   0.905   2.795 -0.0683  0.1778 -0.6086
 1471SOL    HW2 5882   0.385   0.990   2.755 -1.6488  0.3802  0.3075
 1471SOL    HW3 5883   0.486   0.878   2.767 -0.0569  1.5333 -1.9110
 1471SOL    MW4 5884   0.408   0.912   2.786 -0.2753  0.3833 -0.6596
 1472SOL     OW 5885   0.424   1.126   2.638 -0.0890  0.4457 -0.0950
 1472SOL    HW2 5886   0.499   1.174   2.671  0.9666  0.1962 -2.0822
 1472SOL    HW3 5887   0.409   1.162   2.550 -0.5273 -1.4550 -0.8150
 1472SOL    MW4 5888   0.432   1.137   2.631 -0.0076  0.1620 -0.4521
 1473SOL     OW 5889   0.639   1.310   2.724 -0.2737  0.0011  0.0953
 1473SOL    HW2 5890   0.643   1.319   2.819  0.3763  0.3258  0.0386
 1473SOL    HW3 5891   0.721   1.266   2.701 -0.4837 -0.1839 -0.3021
 1473SOL    MW4 5892   0.650   1.305   2.734 -0.2157  0.0195  0.0354
 1474SOL     OW 5893   0.661   1.571   2.683  0.5824 -0.5491 -0.0281
 1474SOL    HW2 5894   0.584   1.617   2.717  0.3677 -0.5200 -0.5514
 1474SOL    HW3 5895   0.641   1.478   2.694 -0.3688 -0.6052 -1.9537
 1474SOL    MW4 5896   0.648   1.565   2.689  0.4286 -0.5526 -0.3512
 1475SOL     OW 5897   0.417   1.681   2.757 -0.4385 -0.2168  0.2077
 1475SOL    HW2 5898   0.425   1.679   2.852  2.3363  0.0833 -0.0008
 1475SOL    HW3 5899   0.410   1.774   2.736  0.7196 -0.1738 -0.0060
 1475SOL    MW4 5900   0.417   1.693   2.767  0.0804 -0.1716  0.1520
 1476SOL     OW 5901   0.439   1.943   2.631 -0.0015  0.0823 -0.1012
 1476SOL    HW2 5902   0.524   1.982   2.652 -0.3796  0.6076  0.4645
 1476SOL    HW3 5903   0.430   1.953   2.537 -0.3170  1.8156  0.0945
 1476SOL    MW4 5904   0.449   1.949   2.622 -0.0930  0.3803 -0.0008
 1477SOL     OW 5905   0.667   2.042   2.723  0.2217 -0.0843 -0.6113
 1477SOL    HW2 5906   0.676   2.061   2.817 -0.7953  0.1516 -0.5558
 1477SOL    HW3 5907   0.755   2.018   2.695  0.1675 -2.0111  0.8021
 1477SOL    MW4 5908   0.680   2.042   2.732  0.0804 -0.3074 -0.4175
 1478SOL     OW 5909   0.691   2.298   2.644  0.1990 -0.1035 -0.1889
 1478SOL    HW2 5910   0.775   2.335   2.672 -0.0536 -0.1912  0.7172
 1478SOL    HW3 5911   0.690   2.209   2.680 -0.3324 -0.0574 -0.0756
 1478SOL    MW4 5912   0.702   2.291   2.653  0.0956 -0.1090 -0.0544
 1479SOL     OW 5913   0.482   2.435   2.744 -0.2287 -0.2301 -0.2533
 1479SOL    HW2 5914   0.479   2.521   2.703 -0.1530 -0.0710  0.0765
 1479SOL    HW3 5915   0.556   2.391   2.700  0.2283  0.1519  0.1281
 1479SOL    MW4 5916   0.492   2.440   2.732 -0.1584 -0.1587 -0.1595
 1480SOL     OW 5917   0.490   2.686   2.634  0.0255 -0.3623 -0.1704
 1480SOL    HW2 5918   0.578   2.719   2.654 -0.0501 -0.9976  1.1964
 1480SOL    HW3 5919   0.431   2.750   2.672 -0.1194 -0.0136 -0.9637
 1480SOL    MW4 5920   0.494   2.699   2.641 -0.0036 -0.4001 -0.0947
 1481SOL     OW 5921   0.701   2.811   2.743 -0.0798  0.2254  0.2589
 1481SOL    HW2 5922   0.716   2.822   2.837 -0.2680  1.8211  0.1157
 1481SOL    HW3 5923   0.682   2.899   2.712  0.0415 -0.2910 -1.2928
 1481SOL    MW4 5924   0.701   2.824   2.752 -0.0886  0.3678  0.0353
 1482SOL     OW 5925   0.649   3.071   2.647  0.1919  0.2954 -0.2816
 1482SOL    HW2 5926   0.724   3.120   2.680  0.4008  0.2051 -0.6095
 1482SOL    HW3 5927   0.658   3.075   2.551  0.8052 -1.2683 -0.3175
 1482SOL    MW4 5928   0.660   3.078   2.638  0.3003  0.0772 -0.3296
 1483SOL     OW 5929   0.438   3.220   2.752 -0.2852  0.0816  0.0491
 1483SOL    HW2 5930   0.422   3.190   2.842  0.8714  1.3576  0.7042
 1483SOL    HW3 5931   0.509   3.164   2.721 -1.0560 -0.7273 -0.2738
 1483SOL    MW4 5932   0.445   3.209   2.760 -0.2343  0.1433  0.0930
 1484SOL     OW 5933   0.414   3.475   2.661 -0.5484  0.6979  0.1737
 1484SOL    HW2 5934   0.428   3.383   2.682 -0.3865  0.6947  0.0513
 1484SOL    HW3 5935   0.414   3.478   2.565 -3.4290  0.3775  0.1037
 1484SOL    MW4 5936   0.416   3.463   2.651 -0.9071  0.6552  0.1483
 1485SOL     OW 5937   0.665   3.599   2.736 -0.0526  0.0052  0.2404
 1485SOL    HW2 5938   0.674   3.587   2.830  0.3936 -1.8285 -0.0277
 1485SOL    HW3 5939   0.577   3.567   2.715  0.8595 -2.2137 -0.3555
 1485SOL    MW4 5940   0.655   3.594   2.745  0.1266 -0.5295  0.1264
 1486SOL     OW 5941   0.661   3.873   2.678  0.0280 -0.0165  0.1235
 1486SOL    HW2 5942   0.581   3.907   2.717  0.5092 -0.0003  1.1100
 1486SOL    HW3 5943   0.661   3.780   2.700  0.3188 -0.0005  0.1918
 1486SOL    MW4 5944   0.651   3.865   2.686  0.1299 -0.0122  0.2626
 1487SOL     OW 5945   0.414   3.963   2.763 -0.3813  0.1730  0.1026
 1487SOL    HW2 5946   0.431   4.050   2.727  1.3098 -0.6580 -1.2056
 1487SOL    HW3 5947   0.328   3.940   2.729  0.3547  0.2103 -1.8686
 1487SOL    MW4 5948   0.405   3.972   2.754 -0.0611  0.0683 -0.3301
 1488SOL     OW 5949   0.468   4.225   2.694  0.3956 -0.4379 -0.1083
 1488SOL    HW2 5950   0.542   4.270   2.735 -0.7265  1.2769  0.0722
 1488SOL    HW3 5951   0.485   4.231   2.600 -0.9715  2.6300 -0.2275
 1488SOL    MW4 5952   0.480   4.232   2.687  0.0672  0.1932 -0.1002
 1489SOL     OW 5953   0.677   4.375   2.804 -0.3522  0.2296  0.1150
 1489SOL    HW2 5954   0.748   4.329   2.760  0.5900  1.1709  0.6128
 1489SOL    HW3 5955   0.678   4.463   2.766  0.0404  0.8466  1.5194
 1489SOL    MW4 5956   0.687   4.381   2.793 -0.1761  0.4352  0.3659
 1490SOL     OW 5957   1.121   4.606   2.639 -0.1422  0.7215  0.1499
 1490SOL    HW2 5958   1.196   4.653   2.676 -1.5655  1.7182  1.8413
 1490SOL    HW3 5959   1.125   4.520   2.681 -0.1404  0.8901  0.4977
 1490SOL    MW4 5960   1.132   4.601   2.650 -0.3298  0.8753  0.4189
 1491SOL     OW 5961   0.895   0.091   2.729  0.5695  0.0791  0.0472
 1491SOL    HW2 5962   0.901   0.100   2.824 -0.6215 -1.0023  0.2369
 1491SOL    HW3 5963   0.972   0.041   2.705  0.8179  0.2605  0.4642
 1491SOL    MW4 5964   0.906   0.086   2.738  0.4451 -0.0396  0.1272
 1492SOL     OW 5965   0.890   0.373   2.675 -0.3314  0.2216  0.3108
 1492SOL    HW2 5966   0.905   0.284   2.708 -0.7351  0.3329  0.8010
 1492SOL    HW3 5967   0.897   0.364   2.580 -0.5314 -0.3690  0.3447
 1492SOL    MW4 5968   0.893   0.360   2.666 -0.4110  0.1584  0.3799
 1493SOL     OW 5969   1.149   0.488   2.731 -0.2935  0.0258 -0.7823
 1493SOL    HW2 5970   1.148   0.576   2.695  0.2726 -0.4590 -2.0257
 1493SOL    HW3 5971   1.060   0.455   2.718 -0.3460  0.1974 -0.8532
 1493SOL    MW4 5972   1.138   0.495   2.724 -0.2257 -0.0155 -0.9557
 1494SOL     OW 5973   1.127   0.741   2.640  0.2927 -0.6624  0.1241
 1494SOL    HW2 5974   1.209   0.776   2.675 -1.2398  0.7176  2.4774
 1494SOL    HW3 5975   1.130   0.760   2.547  1.5099  1.7115  0.6146
 1494SOL    MW4 5976   1.138   0.748   2.633  0.2511 -0.1671  0.4993
 1495SOL     OW 5977   0.888   0.921   2.722 -0.1641 -0.2171  0.0886
 1495SOL    HW2 5978   0.867   0.924   2.816 -1.8535  0.3185 -0.2922
 1495SOL    HW3 5979   0.962   0.861   2.716  0.4533  0.3343  1.8601
 1495SOL    MW4 5980   0.895   0.914   2.734 -0.3056 -0.0737  0.2721
 1496SOL     OW 5981   0.897   1.186   2.666 -0.2663 -0.8817  0.2923
 1496SOL    HW2 5982   0.893   1.091   2.673  0.4509 -0.9272  0.0807
 1496SOL    HW3 5983   0.896   1.203   2.571 -0.2013 -0.6831  0.3274
 1496SOL    MW4 5984   0.896   1.176   2.654 -0.1631 -0.8615  0.2690
 1497SOL     OW 5985   1.148   1.303   2.725  0.3113  0.1917 -0.3333
 1497SOL    HW2 5986   1.137   1.396   2.705 -0.7627  0.0150 -0.6387
 1497SOL    HW3 5987   1.061   1.265   2.708  0.5198 -0.7177  0.5859
 1497SOL    MW4 5988   1.135   1.310   2.720  0.1971  0.0484 -0.2523
 1498SOL     OW 5989   1.114   1.575   2.653  0.1888  0.0030  0.3325
 1498SOL    HW2 5990   1.038   1.628   2.676  0.7641  0.1574  1.9323
 1498SOL    HW3 5991   1.113   1.571   2.557 -0.5047  1.9352  0.2544
 1498SOL    MW4 5992   1.104   1.581   2.643  0.1732  0.2783  0.5332
 1499SOL     OW 5993   0.892   1.739   2.755 -0.2248  0.3282 -0.6231
 1499SOL    HW2 5994   0.892   1.731   2.850  2.4408  0.9229 -0.5242
 1499SOL    HW3 5995   0.816   1.689   2.726 -0.4786 -0.7163  1.7553
 1499SOL    MW4 5996   0.882   1.731   2.764  0.0934  0.2689 -0.2962
 1500SOL     OW 5997   0.923   1.997   2.643  0.4286 -0.0864 -0.0846
 1500SOL    HW2 5998   0.991   2.039   2.696  1.2832 -0.1949 -1.0635
 1500SOL    HW3 5999   0.916   1.908   2.678  0.9674 -0.1466 -0.1201
 1500SOL    MW4 6000   0.931   1.991   2.654  0.6125 -0.1087 -0.2185
 1501SOL     OW 6001   1.143   2.097   2.770  0.0920  0.2139 -0.5272
 1501SOL    HW2 6002   1.212   2.048   2.726  0.1024 -0.5832  0.3604
 1501SOL    HW3 6003   1.141   2.182   2.726  1.5693  0.1969 -0.6300
 1501SOL    MW4 6004   1.152   2.102   2.759  0.2883  0.1065 -0.4236
 1502SOL     OW 6005   1.142   2.341   2.643 -0.3423  0.0838 -0.2385
 1502SOL    HW2 6006   1.226   2.384   2.659 -0.7494  1.0904 -0.7892
 1502SOL    HW3 6007   1.139   2.329   2.548 -1.3860  1.2466 -0.3711
 1502SOL    MW4 6008   1.153   2.345   2.633 -0.5337  0.3700 -0.3286
 1503SOL     OW 6009   0.915   2.435   2.767  0.2827 -0.9841 -0.5045
 1503SOL    HW2 6010   0.896   2.516   2.720 -2.0679 -1.9221 -1.2660
 1503SOL    HW3 6011   0.995   2.401   2.726  0.4829  0.2217 -1.1292
 1503SOL    MW4 6012   0.923   2.441   2.756 -0.0010 -0.9487 -0.6874
 1504SOL     OW 6013   0.910   2.668   2.616  0.0289  0.2843  0.5070
 1504SOL    HW2 6014   0.992   2.713   2.634 -0.7129  1.8488  0.0987
 1504SOL    HW3 6015   0.845   2.713   2.670 -0.9163  0.4255 -0.7089
 1504SOL    MW4 6016   0.912   2.680   2.625 -0.1937  0.5094  0.2927
 1505SOL     OW 6017   1.098   2.839   2.743 -0.1679  0.3564 -0.1099
 1505SOL    HW2 6018   1.110   2.855   2.836 -0.7547  2.1082 -0.3119
 1505SOL    HW3 6019   1.176   2.789   2.717  0.4389  0.6294  1.1285
 1505SOL    MW4 6020   1.110   2.834   2.752 -0.1652  0.6236  0.0268
 1506SOL     OW 6021   1.116   3.080   2.625 -0.3037 -0.3144  0.2497
 1506SOL    HW2 6022   1.110   2.991   2.661 -1.2285 -0.7589 -0.9787
 1506SOL    HW3 6023   1.106   3.069   2.530  0.5185  1.0087 -0.0094
 1506SOL    MW4 6024   1.114   3.067   2.617 -0.3172 -0.1985  0.0534
 1507SOL     OW 6025   0.865   3.201   2.751 -0.6071 -0.1258 -0.3388
 1507SOL    HW2 6026   0.875   3.289   2.714 -0.7606 -0.2430 -0.6648
 1507SOL    HW3 6027   0.947   3.157   2.729  0.9097  0.9625  2.7334
 1507SOL    MW4 6028   0.877   3.207   2.743 -0.4272  0.0023  0.0236
 1508SOL     OW 6029   0.887   3.462   2.657  0.0000  0.0000 -0.4425
 1508SOL    HW2 6030   0.961   3.509   2.698  0.0000  0.0000 -0.4595
 1508SOL    HW3 6031   0.810   3.512   2.684  0.0000  0.0000 -0.4509
 1508SOL    MW4 6032   0.887   3.475   2.666  0.0000  0.0000 -0.4459
 1509SOL     OW 6033   1.102   3.599   2.763  0.0000  0.0000 -0.1169
 1509SOL    HW2 6034   1.101   3.626   2.855  0.0000  0.0000 -0.1186
 1509SOL    HW3 6035   1.100   3.681   2.714  0.0000  0.0000 -0.1219
 1509SOL    MW4 6036   1.102   3.613   2.769  0.0000  0.0000 -0.1178
 1510SOL     OW 6037   1.098   3.851   2.656  0.0000  0.0000  0.2147
 1510SOL    HW2 6038   1.178   3.889   2.694  0.0000  0.0000  0.2097
 1510SOL    HW3 6039   1.110   3.859   2.561  0.0000  0.0000  0.2137
 1510SOL    MW4 6040   1.110   3.857   2.648  0.0000  0.0000  0.2139
 1511SOL     OW 6041   0.893   4.008   2.732  0.0000  0.0000 -0.3917
 1511SOL    HW2 6042   0.957   3.963   2.677  0.0000  0.0000 -0.3870
 1511SOL    HW3 6043   0.809   3.969   2.706  0.0000  0.0000 -0.3977
 1511SOL    MW4 6044   0.890   3.997   2.721  0.0000  0.0000 -0.3919
 1512SOL     OW 6045   0.888   4.266   2.653  0.0000  0.0000 -0.2456
 1512SOL    HW2 6046   0.892   4.174   2.678  0.0000  0.0000 -0.2551
 1512SOL    HW3 6047   0.884   4.265   2.557  0.0000  0.0000 -0.2455
 1512SOL    MW4 6048   0.888   4.254   2.644  0.0000  0.0000 -0.2468
 1513SOL     OW 6049   1.144   4.351   2.758  0.0000  0.0000  0.2412
 1513SOL    HW2 6050   1.136   4.378   2.850  0.0000  0.0000  0.2417
 1513SOL    HW3 6051   1.055   4.327   2.733  0.0000  0.0000  0.2362
 1513SOL    MW4 6052   1.131   4.351   2.767  0.0000  0.0000  0.2406
 1514SOL     OW 6053   1.593   4.643   2.660  0.0000  0.0000 -0.3527
 1514SOL    HW2 6054   1.588   4.549   2.676  0.0000  0.0000 -0.3498
 1514SOL    HW3 6055   1.581   4.652   2.565  0.0000  0.0000 -0.3534
 1514SOL    MW4 6056   1.591   4.632   2.650  0.0000  0.0000 -0.3524
 1515SOL     OW 6057   1.351   0.086   2.747  0.0000  0.0000 -0.1113
 1515SOL    HW2 6058   1.350   0.170   2.701  0.0000  0.0000 -0.1148
 1515SOL    HW3 6059   1.437   0.049   2.725  0.0000  0.0000 -0.1266
 1515SOL    MW4 6060   1.362   0.092   2.738  0.0000  0.0000 -0.1138
 1516SOL     OW 6061   1.360   0.344   2.620  0.0000  0.0000  0.4881
 1516SOL    HW2 6062   1.437   0.387   2.658  0.0000  0.0000  0.5111
 1516SOL    HW3 6063   1.286   0.395   2.654  0.0000  0.0000  0.4507
 1516SOL    MW4 6064   1.360   0.356   2.629  0.0000  0.0000  0.4862
 1517SOL     OW 6065   1.565   0.481   2.745 -0.3348 -0.4438 -0.1026
 1517SOL    HW2 6066   1.647   0.443   2.713 -0.6384 -1.0444 -0.1915
 1517SOL    HW3 6067   1.559   0.566   2.703  0.3470 -0.3131  0.0627
 1517SOL    MW4 6068   1.575   0.487   2.735 -0.2849 -0.5058 -0.0925
 1518SOL     OW 6069   1.571   0.751   2.628 -0.1393  0.5014 -0.4188
 1518SOL    HW2 6070   1.505   0.796   2.681 -0.7047 -1.2854  0.4471
 1518SOL    HW3 6071   1.547   0.772   2.538  0.0357  2.4906 -0.0262
 1518SOL    MW4 6072   1.559   0.759   2.623 -0.1908  0.5281 -0.2527
 1519SOL     OW 6073   1.355   0.891   2.740 -0.5095  0.0465 -0.1280
 1519SOL    HW2 6074   1.356   0.895   2.835 -0.0581 -1.4469 -0.0503
 1519SOL    HW3 6075   1.344   0.982   2.712 -2.0778  0.3410  1.3551
 1519SOL    MW4 6076   1.354   0.904   2.749 -0.6568 -0.1117  0.0780
 1520SOL     OW 6077   1.360   1.151   2.624  0.4416  0.3352  0.3300
 1520SOL    HW2 6078   1.437   1.202   2.648  0.2099  0.7289  0.2282
 1520SOL    HW3 6079   1.286   1.207   2.643  0.1825  0.0151  0.2782
 1520SOL    MW4 6080   1.360   1.165   2.630  0.3769  0.3449  0.3097
 1521SOL     OW 6081   1.567   1.305   2.738  0.3426 -0.1926  0.0045
 1521SOL    HW2 6082   1.548   1.289   2.830  0.0404 -0.2944 -0.0727
 1521SOL    HW3 6083   1.648   1.259   2.721  1.7480  1.8816  0.8425
 1521SOL    MW4 6084   1.575   1.297   2.748  0.4882  0.0676  0.1049
 1522SOL     OW 6085   1.550   1.565   2.643 -0.0329  0.2372 -0.1921
 1522SOL    HW2 6086   1.551   1.480   2.687 -1.6775 -0.5088 -1.5001
 1522SOL    HW3 6087   1.544   1.543   2.550 -3.2708  1.7466 -0.4214
 1522SOL    MW4 6088   1.549   1.551   2.637 -0.6771  0.3379 -0.3950
 1523SOL     OW 6089   1.325   1.713   2.747 -0.4098  0.0049  0.1388
 1523SOL    HW2 6090   1.398   1.665   2.709 -0.4580 -0.4588  0.6302
 1523SOL    HW3 6091   1.247   1.670   2.711 -0.4924 -1.6009  2.1349
 1523SOL    MW4 6092   1.324   1.701   2.737 -0.4271 -0.2682  0.4670
 1524SOL     OW 6093   1.350   1.954   2.638 -0.1464 -0.0375  0.4376
 1524SOL    HW2 6094   1.345   1.862   2.667 -1.4754  0.2244  1.0827
 1524SOL    HW3 6095   1.342   1.949   2.543  1.6103 -0.7158  0.3142
 1524SOL    MW4 6096   1.348   1.941   2.629 -0.0900 -0.0924  0.5064
 1525SOL     OW 6097   1.596   2.045   2.746  0.4437 -0.3056  0.2466
 1525SOL    HW2 6098   1.666   2.007   2.694  0.1332  0.2726 -0.6160
 1525SOL    HW3 6099   1.516   2.008   2.709  0.2408 -0.1202  0.4970
 1525SOL    MW4 6100   1.594   2.035   2.734  0.3760 -0.2048  0.1658
 1526SOL     OW 6101   1.594   2.343   2.641  0.0032 -0.2626 -0.2007
 1526SOL    HW2 6102   1.665   2.388   2.688  0.3438 -1.6671  0.6776
 1526SOL    HW3 6103   1.591   2.256   2.681 -1.4450 -0.6126 -1.0418
 1526SOL    MW4 6104   1.603   2.337   2.653 -0.1429 -0.4941 -0.1958
 1527SOL     OW 6105   1.363   2.466   2.737 -0.1315  0.1968 -0.3521
 1527SOL    HW2 6106   1.370   2.558   2.712 -0.3565  0.6223  1.1054
 1527SOL    HW3 6107   1.435   2.423   2.692  0.2671  1.1735 -0.6496
 1527SOL    MW4 6108   1.373   2.473   2.728 -0.1086  0.3818 -0.1990
 1528SOL     OW 6109   1.347   2.742   2.652 -0.3492 -0.1176 -0.0165
 1528SOL    HW2 6110   1.410   2.801   2.694  1.3121 -1.7165 -0.1983
 1528SOL    HW3 6111   1.362   2.756   2.558  0.1916 -0.9640 -0.0582
 1528SOL    MW4 6112   1.357   2.752   2.645 -0.0586 -0.4403 -0.0460
 1529SOL     OW 6113   1.544   2.895   2.763 -0.2898  0.0401  0.0202
 1529SOL    HW2 6114   1.545   2.886   2.858 -0.3674  1.0450  0.1227
 1529SOL    HW3 6115   1.623   2.850   2.733  0.9045  1.5953  0.7443
 1529SOL    MW4 6116   1.555   2.888   2.772 -0.1425  0.3779  0.1293
 1530SOL     OW 6117   1.567   3.147   2.637 -0.1682  0.2513  0.3088
 1530SOL    HW2 6118   1.625   3.210   2.680 -1.2340  1.0032  0.6680
 1530SOL    HW3 6119   1.579   3.066   2.687 -0.6512  0.8492  1.4383
 1530SOL    MW4 6120   1.576   3.145   2.650 -0.3725  0.4294  0.5052
 1531SOL     OW 6121   1.310   3.220   2.731  0.5120  0.3463  0.1221
 1531SOL    HW2 6122   1.392   3.183   2.698 -0.3031 -0.9077 -0.5634
 1531SOL    HW3 6123   1.242   3.168   2.688 -0.6280  0.8774  1.2578
 1531SOL    MW4 6124   1.312   3.208   2.721  0.2541  0.2510  0.1815
 1532SOL     OW 6125   1.339   3.494   2.648  0.3022  0.0268  0.5450
 1532SOL    HW2 6126   1.331   3.399   2.662  0.2344  0.1201  1.1544
 1532SOL    HW3 6127   1.260   3.531   2.687  1.3906  0.5323  2.3712
 1532SOL    MW4 6128   1.328   3.486   2.655  0.4369  0.1058  0.8664
 1533SOL     OW 6129   1.562   3.647   2.744  0.2380 -0.1142  0.0943
 1533SOL    HW2 6130   1.635   3.604   2.699  0.2927 -1.0491  1.0679
 1533SOL    HW3 6131   1.487   3.590   2.728 -0.3381  0.9419 -1.0626
 1533SOL    MW4 6132   1.562   3.634   2.736  0.1692 -0.0982  0.0701
 1534SOL     OW 6133   1.563   3.905   2.658  0.1253 -0.0825  0.2554
 1534SOL    HW2 6134   1.494   3.952   2.705 -1.4573 -0.6322 -1.4958
 1534SOL    HW3 6135   1.553   3.814   2.686  0.5309 -0.0635  0.4627
 1534SOL    MW4 6136   1.553   3.900   2.668 -0.0300 -0.1525  0.0517
 1535SOL     OW 6137   1.322   3.998   2.748  0.6081  0.1173  0.2050
 1535SOL    HW2 6138   1.326   4.016   2.842 -1.0032  0.8126  0.1646
 1535SOL    HW3 6139   1.318   4.085   2.707 -0.2789 -0.1973 -0.4039
 1535SOL    MW4 6140   1.322   4.012   2.755  0.2785  0.1675  0.1193
 1536SOL     OW 6141   1.366   4.254   2.624 -0.1197  0.0665  0.0065
 1536SOL    HW2 6142   1.288   4.300   2.655  0.5678  1.2682 -0.0044
 1536SOL    HW3 6143   1.361   4.261   2.529  1.5779  2.9019  0.0602
 1536SOL    MW4 6144   1.355   4.261   2.615  0.1950  0.5992  0.0121
 1537SOL     OW 6145   1.597   4.355   2.757 -0.1089 -0.0606  0.5247
 1537SOL    HW2 6146   1.574   4.356   2.850 -0.8620  0.4884  0.3410
 1537SOL    HW3 6147   1.525   4.306   2.716  0.7215 -1.1670  0.3524
 1537SOL    MW4 6148   1.584   4.348   2.764 -0.0987 -0.1342  0.4777
 1538SOL     OW 6149   2.043   4.624   2.624 -0.5824 -0.5084 -0.0661
 1538SOL    HW2 6150   2.121   4.674   2.646 -1.5308  0.9616  0.0028
 1538SOL    HW3 6151   2.040   4.625   2.528  0.1615 -1.6516 -0.1145
 1538SOL    MW4 6152   2.053   4.630   2.614 -0.6094 -0.4653 -0.0634
 1539SOL     OW 6153   1.827   0.093   2.718  0.1878 -0.4139 -1.0454
 1539SOL    HW2 6154   1.898   0.038   2.684  0.0641 -0.6057 -0.9919
 1539SOL    HW3 6155   1.747   0.049   2.691  0.0883 -0.5459 -0.5445
 1539SOL    MW4 6156   1.826   0.080   2.710  0.1583 -0.4566 -0.9722
 1540SOL     OW 6157   1.799   0.373   2.670  0.1541 -0.5446 -0.5897
 1540SOL    HW2 6158   1.882   0.411   2.698  0.0280 -1.0266  0.4686
 1540SOL    HW3 6159   1.810   0.279   2.683 -0.9626 -0.5153  0.6642
 1540SOL    MW4 6160   1.812   0.366   2.676 -0.0098 -0.6043 -0.2846
 1541SOL     OW 6161   2.013   0.535   2.753  0.1071 -0.0715  0.0800
 1541SOL    HW2 6162   2.082   0.482   2.713 -0.6631 -0.4446 -0.7662
 1541SOL    HW3 6163   2.021   0.620   2.711  1.9799  0.8218  2.1417
 1541SOL    MW4 6164   2.023   0.539   2.742  0.2525 -0.0029  0.2403
 1542SOL     OW 6165   2.052   0.791   2.623  0.0134 -0.1536 -0.0637
 1542SOL    HW2 6166   1.966   0.829   2.637 -0.0229  0.2576 -1.3295
 1542SOL    HW3 6167   2.064   0.793   2.528  1.4033 -0.2177  0.1006
 1542SOL    MW4 6168   2.043   0.796   2.613  0.1920 -0.1078 -0.2091
 1543SOL     OW 6169   1.798   0.874   2.684  0.1557 -0.3266 -0.1583
 1543SOL    HW2 6170   1.780   0.965   2.660 -1.5250 -0.4571  0.5260
 1543SOL    HW3 6171   1.717   0.827   2.660  1.0142 -1.6410 -0.5291
 1543SOL    MW4 6172   1.785   0.880   2.678  0.0472 -0.5172 -0.1169
 1544SOL     OW 6173   1.765   1.150   2.646 -0.2044  0.1211 -0.1929
 1544SOL    HW2 6174   1.850   1.184   2.673 -0.7793  0.4928  1.2322
 1544SOL    HW3 6175   1.765   1.156   2.550  1.1957  0.5129 -0.1731
 1544SOL    MW4 6176   1.776   1.156   2.637 -0.0955  0.2218 -0.0023
 1545SOL     OW 6177   2.018   1.253   2.696  0.4778 -0.2472  0.0896
 1545SOL    HW2 6178   2.006   1.259   2.791  0.8458  0.0651  0.1181
 1545SOL    HW3 6179   2.108   1.225   2.684  1.1084  1.8181 -0.1994
 1545SOL    MW4 6180   2.028   1.250   2.707  0.6096  0.0665  0.0552
 1546SOL     OW 6181   2.069   1.516   2.661  0.0485  0.2363  0.0334
 1546SOL    HW2 6182   1.988   1.552   2.696  0.2846  0.4886  0.3243
 1546SOL    HW3 6183   2.059   1.421   2.669 -0.2628  0.2635 -0.0355
 1546SOL    MW4 6184   2.057   1.508   2.666  0.0385  0.2732  0.0627
 1547SOL     OW 6185   1.828   1.625   2.700 -0.3806  0.1063  0.0218
 1547SOL    HW2 6186   1.804   1.631   2.792 -3.3068 -0.4578 -0.6569
 1547SOL    HW3 6187   1.749   1.595   2.656  1.0349  0.1001 -2.6617
 1547SOL    MW4 6188   1.815   1.622   2.706 -0.5799  0.0311 -0.4218
 1548SOL     OW 6189   1.804   1.900   2.644  0.1598  0.1958  0.2915
 1548SOL    HW2 6190   1.884   1.935   2.682  0.1370  0.8801 -0.2606
 1548SOL    HW3 6191   1.807   1.806   2.660 -0.6144  0.6599  3.3624
 1548SOL    MW4 6192   1.815   1.892   2.651  0.0546  0.3473  0.6238
 1549SOL     OW 6193   2.037   2.034   2.702  0.0083  0.4176  0.1076
 1549SOL    HW2 6194   2.047   2.041   2.797 -0.7408  2.8556  0.0307
 1549SOL    HW3 6195   2.032   2.125   2.671 -0.7080 -0.3524 -2.1629
 1549SOL    MW4 6196   2.038   2.047   2.710 -0.1851  0.6377 -0.2021
 1550SOL     OW 6197   2.027   2.353   2.665  0.1853 -0.0723  0.4843
 1550SOL    HW2 6198   2.117   2.372   2.690  0.7369 -0.1636 -1.3590
 1550SOL    HW3 6199   2.026   2.362   2.570 -1.1709 -2.3949  0.2298
 1550SOL    MW4 6200   2.039   2.357   2.656  0.0792 -0.3908  0.2076
 1551SOL     OW 6201   1.804   2.498   2.759 -0.6151 -0.1306  0.2677
 1551SOL    HW2 6202   1.796   2.479   2.853 -1.9263 -1.5995 -0.1009
 1551SOL    HW3 6203   1.885   2.456   2.733 -0.4739 -0.1072  0.6612
 1551SOL    MW4 6204   1.813   2.490   2.768 -0.7694 -0.3213  0.2710
 1552SOL     OW 6205   1.774   2.769   2.704  0.2234 -0.2019 -0.0795
 1552SOL    HW2 6206   1.783   2.678   2.732 -0.4858 -0.0240  0.7466
 1552SOL    HW3 6207   1.766   2.765   2.609 -0.0132 -1.0105 -0.0262
 1552SOL    MW4 6208   1.774   2.757   2.695  0.0986 -0.2851  0.0365
 1553SOL     OW 6209   2.033   2.862   2.780 -0.0121 -0.4394  0.7028
 1553SOL    HW2 6210   2.099   2.801   2.747  0.7578  1.7104 -1.8529
 1553SOL    HW3 6211   1.954   2.842   2.730  0.5129  1.2586 -0.8642
 1553SOL    MW4 6212   2.032   2.851   2.769  0.1588  0.0683  0.1588
 1554SOL     OW 6213   1.989   3.121   2.676 -0.2212  0.0431 -0.2040
 1554SOL    HW2 6214   2.000   3.031   2.706 -1.0183 -0.3014 -0.9346
 1554SOL    HW3 6215   2.000   3.117   2.581 -0.4335  0.6860 -0.2597
 1554SOL    MW4 6216   1.992   3.109   2.667 -0.3544  0.0824 -0.3078
 1555SOL     OW 6217   1.783   3.276   2.754 -0.3194 -0.2102  0.1979
 1555SOL    HW2 6218   1.789   3.350   2.694 -0.1482 -0.3631  0.0250
 1555SOL    HW3 6219   1.849   3.214   2.722 -0.7080 -0.5890  0.1276
 1555SOL    MW4 6220   1.793   3.277   2.742 -0.3481 -0.2803  0.1658
 1556SOL     OW 6221   1.785   3.520   2.640 -0.2702 -0.1574  0.4120
 1556SOL    HW2 6222   1.868   3.564   2.656  0.0489 -0.0936 -1.2776
 1556SOL    HW3 6223   1.785   3.504   2.546 -2.3227  0.1420  0.3465
 1556SOL    MW4 6224   1.796   3.523   2.630 -0.4989 -0.1095  0.1805
 1557SOL     OW 6225   2.023   3.634   2.735  0.1914  0.0868  0.4212
 1557SOL    HW2 6226   2.023   3.633   2.831 -1.1838 -2.4438  0.4367
 1557SOL    HW3 6227   2.097   3.579   2.711  0.1660  0.2129  0.0638
 1557SOL    MW4 6228   2.032   3.626   2.745  0.0066 -0.2305  0.3761
 1558SOL     OW 6229   2.010   3.880   2.645  0.0744 -0.3106  0.5186
 1558SOL    HW2 6230   1.928   3.913   2.680  0.3481  0.5067  0.3905
 1558SOL    HW3 6231   2.014   3.789   2.674 -0.0568  0.1435  1.9707
 1558SOL    MW4 6232   2.000   3.872   2.653  0.0932 -0.1429  0.6933
 1559SOL     OW 6233   1.802   3.990   2.781  0.0423  0.1672 -0.4215
 1559SOL    HW2 6234   1.818   4.076   2.742  0.5147 -0.2112 -1.0725
 1559SOL    HW3 6235   1.715   3.966   2.749  0.1686  0.1317 -0.7449
 1559SOL    MW4 6236   1.793   3.999   2.771  0.1213  0.1126 -0.5501
 1560SOL     OW 6237   1.835   4.237   2.688 -0.2256 -0.3115  0.4713
 1560SOL    HW2 6238   1.755   4.282   2.714  0.1359  0.4303  0.2857
 1560SOL    HW3 6239   1.834   4.240   2.592 -0.4926 -1.2075  0.4395
 1560SOL    MW4 6240   1.824   4.243   2.679 -0.2131 -0.3318  0.4426
 1561SOL     OW 6241   2.062   4.389   2.743 -0.0527  0.4484  0.1053
 1561SOL    HW2 6242   1.982   4.342   2.722 -0.2444  0.2871  1.1674
 1561SOL    HW3 6243   2.051   4.475   2.703  0.4374 -0.4940 -2.1098
 1561SOL    MW4 6244   2.050   4.394   2.735 -0.0133  0.3028 -0.0468
 1562SOL     OW 6245   2.486   4.618   2.665  0.6951 -0.1080  0.2803
 1562SOL    HW2 6246   2.558   4.669   2.702  0.9766 -0.3521  0.0659
 1562SOL    HW3 6247   2.500   4.622   2.570  0.3356 -0.0216  0.2278
 1562SOL    MW4 6248   2.497   4.625   2.657  0.6848 -0.1288  0.2451
 1563SOL     OW 6249   2.266   0.097   2.697  0.4908  0.2179 -0.2703
 1563SOL    HW2 6250   2.251   0.095   2.792  2.3152  2.6196  0.1012
 1563SOL    HW3 6251   2.350   0.052   2.685 -0.4008 -1.3296 -0.9412
 1563SOL    MW4 6252   2.275   0.091   2.708  0.6139  0.3306 -0.3098
 1564SOL     OW 6253   2.209   0.356   2.630  0.0796 -0.1715 -0.1397
 1564SOL    HW2 6254   2.221   0.261   2.636  1.3027 -0.1181 -1.5191
 1564SOL    HW3 6255   2.220   0.376   2.537 -1.1824  1.1990 -0.0065
 1564SOL    MW4 6256   2.212   0.346   2.619  0.0745  0.0163 -0.3041
 1565SOL     OW 6257   2.439   0.462   2.708 -0.3722 -0.0239  0.6295
 1565SOL    HW2 6258   2.439   0.550   2.670  0.4440  0.1866  1.1052
 1565SOL    HW3 6259   2.361   0.420   2.672 -1.2983  1.2234  1.1245
 1565SOL    MW4 6260   2.428   0.468   2.698 -0.3867  0.1685  0.7576
 1566SOL     OW 6261   2.453   0.741   2.624  0.4713 -0.0523 -0.4467
 1566SOL    HW2 6262   2.389   0.803   2.658  0.4806 -0.3637  0.1357
 1566SOL    HW3 6263   2.469   0.770   2.534  0.6862  0.9431 -0.0893
 1566SOL    MW4 6264   2.446   0.753   2.616  0.5009  0.0379 -0.3227
 1567SOL     OW 6265   2.272   0.927   2.724  0.2038  0.5631  0.1972
 1567SOL    HW2 6266   2.293   0.904   2.815  1.5342 -0.2106 -0.2986
 1567SOL    HW3 6267   2.186   0.886   2.710  0.2979  0.1028  0.8964
 1567SOL    MW4 6268   2.263   0.918   2.734  0.3918  0.4003  0.2241
 1568SOL     OW 6269   2.276   1.192   2.633 -0.4472  0.7625  0.4699
 1568SOL    HW2 6270   2.261   1.099   2.647  0.1991  0.6311  0.2894
 1568SOL    HW3 6271   2.276   1.203   2.538  1.4416  0.6107  0.4251
 1568SOL    MW4 6272   2.274   1.181   2.622 -0.1127  0.7251  0.4402
 1569SOL     OW 6273   2.515   1.301   2.731 -0.2664  0.1978 -0.4554
 1569SOL    HW2 6274   2.585   1.244   2.699 -0.8858 -1.3988  0.9134
 1569SOL    HW3 6275   2.435   1.256   2.706 -0.7955  1.2736 -0.7168
 1569SOL    MW4 6276   2.514   1.287   2.724 -0.4179  0.1290 -0.3093
 1570SOL     OW 6277   2.537   1.560   2.661 -0.2577  0.8654  0.1093
 1570SOL    HW2 6278   2.458   1.602   2.695 -0.7775 -0.8454  1.0383
 1570SOL    HW3 6279   2.530   1.469   2.687 -0.1288 -0.3016 -3.6926
 1570SOL    MW4 6280   2.526   1.554   2.669 -0.3093  0.4857 -0.2697
 1571SOL     OW 6281   2.297   1.662   2.739 -0.0736  0.3211  0.0514
 1571SOL    HW2 6282   2.279   1.738   2.685 -0.9549 -0.8669 -1.3831
 1571SOL    HW3 6283   2.234   1.596   2.710  0.6865 -0.9679  1.2286
 1571SOL    MW4 6284   2.287   1.663   2.728 -0.0896 -0.0057  0.0174
 1572SOL     OW 6285   2.278   1.938   2.612  0.0476  0.0604  0.5390
 1572SOL    HW2 6286   2.193   1.968   2.644  0.1648  0.4338  0.5024
 1572SOL    HW3 6287   2.272   1.945   2.516 -0.4667 -1.4887  0.4340
 1572SOL    MW4 6288   2.266   1.942   2.603 -0.0048 -0.0947  0.5203
 1573SOL     OW 6289   2.505   2.020   2.747 -0.0874  0.0291 -0.3292
 1573SOL    HW2 6290   2.508   2.111   2.717 -0.9834  0.3851  0.6257
 1573SOL    HW3 6291   2.432   1.981   2.699  0.0524 -0.0811 -0.4520
 1573SOL    MW4 6292   2.496   2.027   2.737 -0.1872  0.0615 -0.2194
 1574SOL     OW 6293   2.515   2.287   2.673  0.1578 -0.1713  0.6565
 1574SOL    HW2 6294   2.589   2.339   2.704  1.6682 -1.3210 -0.8977
 1574SOL    HW3 6295   2.521   2.291   2.578 -1.4925 -0.7051  0.5081
 1574SOL    MW4 6296   2.525   2.294   2.665  0.1394 -0.3934  0.4319
 1575SOL     OW 6297   2.281   2.417   2.740  0.3646  0.0558  0.2308
 1575SOL    HW2 6298   2.282   2.427   2.835  0.1093 -1.1110  0.3687
 1575SOL    HW3 6299   2.363   2.372   2.720  0.6608  0.7590 -0.1636
 1575SOL    MW4 6300   2.292   2.412   2.750  0.3700 -0.0054  0.1969
 1576SOL     OW 6301   2.228   2.678   2.690 -0.3525 -0.1917 -0.0309
 1576SOL    HW2 6302   2.309   2.725   2.708 -0.1785  0.0422 -1.3717
 1576SOL    HW3 6303   2.249   2.586   2.704 -0.1179 -0.0484  0.5589
 1576SOL    MW4 6304   2.241   2.672   2.694 -0.2986 -0.1419 -0.1300
 1577SOL     OW 6305   2.462   2.817   2.752 -0.4457  0.4383 -0.6742
 1577SOL    HW2 6306   2.531   2.769   2.708 -0.2674  0.2699 -0.2146
 1577SOL    HW3 6307   2.453   2.898   2.702 -0.5776  0.0353 -1.3026
 1577SOL    MW4 6308   2.470   2.822   2.740 -0.4395  0.3629 -0.6965
 1578SOL     OW 6309   2.477   3.090   2.659 -0.1014  0.1380  0.1298
 1578SOL    HW2 6310   2.397   3.133   2.691  0.4066  1.7100 -0.6377
 1578SOL    HW3 6311   2.466   3.088   2.564  0.8808  0.5986  0.0010
 1578SOL    MW4 6312   2.465   3.096   2.651  0.0952  0.4062  0.0115
 1579SOL     OW 6313   2.247   3.214   2.754  0.2171  0.0793  0.0013
 1579SOL    HW2 6314   2.251   3.231   2.848  0.5160  0.8401 -0.1424
 1579SOL    HW3 6315   2.157   3.188   2.737 -0.3040  1.6978  0.2178
 1579SOL    MW4 6316   2.236   3.213   2.764  0.1878  0.3933  0.0109
 1580SOL     OW 6317   2.241   3.479   2.665 -0.1526  0.1360 -0.6092
 1580SOL    HW2 6318   2.317   3.514   2.711 -0.3577  0.1346 -0.2723
 1580SOL    HW3 6319   2.250   3.384   2.674 -0.9185  0.1712  0.5909
 1580SOL    MW4 6320   2.253   3.471   2.672 -0.2807  0.1405 -0.4064
 1581SOL     OW 6321   2.481   3.567   2.777 -0.5733 -0.1167  0.2688
 1581SOL    HW2 6322   2.463   3.587   2.869  0.0388  0.1407  0.3286
 1581SOL    HW3 6323   2.472   3.651   2.732  0.4109 -0.0027  0.2857
 1581SOL    MW4 6324   2.477   3.580   2.783 -0.3627 -0.0677  0.2790
 1582SOL     OW 6325   2.491   3.830   2.647 -0.8720  0.1083 -0.1106
 1582SOL    HW2 6326   2.572   3.864   2.685 -0.8892  0.9626 -0.8257
 1582SOL    HW3 6327   2.422   3.886   2.684 -1.1513 -0.6680  0.5616
 1582SOL    MW4 6328   2.493   3.842   2.657 -0.9111  0.1186 -0.1163
 1583SOL     OW 6329   2.267   3.957   2.769 -0.1231  0.1048 -0.4398
 1583SOL    HW2 6330   2.270   3.967   2.864  0.7564 -0.4170 -0.4148
 1583SOL    HW3 6331   2.177   3.929   2.751  0.0981 -1.1588  0.3660
 1583SOL    MW4 6332   2.255   3.955   2.779  0.0222 -0.1308 -0.3302
 1584SOL     OW 6333   2.275   4.211   2.665 -0.6199  0.2087  0.1333
 1584SOL    HW2 6334   2.276   4.123   2.704  0.2368  0.6284  1.0823
 1584SOL    HW3 6335   2.194   4.250   2.697 -2.1345 -1.0154 -2.0976
 1584SOL    MW4 6336   2.265   4.205   2.675 -0.7067  0.1025 -0.0358
 1585SOL     OW 6337   2.488   4.356   2.769  0.2005 -0.0720  0.7779
 1585SOL    HW2 6338   2.409   4.315   2.734 -0.1015  0.0715  1.2861
 1585SOL    HW3 6339   2.490   4.442   2.728  0.7394 -0.5199 -0.1532
 1585SOL    MW4 6340   2.478   4.362   2.759  0.2317 -0.1122  0.7221
 1586SOL     OW 6341   2.926   4.607   2.668 -0.1045  0.5549 -0.0694
 1586SOL    HW2 6342   3.003   4.655   2.700  1.3486 -2.0190  0.4336
 1586SOL    HW3 6343   2.924   4.625   2.574  2.1627 -0.6835 -0.4068
 1586SOL    MW4 6344   2.936   4.615   2.660  0.3863  0.0519 -0.0476
 1587SOL     OW 6345   2.696   0.112   2.740  0.0730  0.1849  0.4576
 1587SOL    HW2 6346   2.687   0.121   2.835 -0.8969 -0.2506  0.4069
 1587SOL    HW3 6347   2.778   0.065   2.728  0.5748  0.8866  1.0504
 1587SOL    MW4 6348   2.706   0.107   2.751  0.0112  0.2201  0.5291
 1588SOL     OW 6349   2.672   0.368   2.601 -0.4431 -0.3024 -0.4297
 1588SOL    HW2 6350   2.684   0.281   2.639  0.4848 -0.1045 -0.2755
 1588SOL    HW3 6351   2.586   0.396   2.634  0.5178  0.0293  1.8468
 1588SOL    MW4 6352   2.662   0.360   2.610 -0.1939 -0.2325 -0.1090
 1589SOL     OW 6353   2.891   0.490   2.757 -0.0397 -0.0300  0.2314
 1589SOL    HW2 6354   2.905   0.572   2.709  1.0561 -1.2164 -1.5322
 1589SOL    HW3 6355   2.809   0.456   2.722 -1.1594  0.8934  1.8647
 1589SOL    MW4 6356   2.882   0.496   2.746 -0.0429 -0.0647  0.2142
 1590SOL     OW 6357   2.922   0.733   2.631 -0.7727  0.2593  0.2257
 1590SOL    HW2 6358   2.996   0.762   2.684 -1.0465 -0.0565  0.7920
 1590SOL    HW3 6359   2.847   0.778   2.669 -0.8104  0.9535 -0.6477
 1590SOL    MW4 6360   2.922   0.743   2.643 -0.8138  0.3092  0.1852
 1591SOL     OW 6361   2.682   0.889   2.712 -0.3847 -0.2320  0.2219
 1591SOL    HW2 6362   2.691   0.880   2.807 -1.1029  0.8854  0.4079
 1591SOL    HW3 6363   2.604   0.838   2.690 -1.1484  0.8115  0.4675
 1591SOL    MW4 6364   2.673   0.881   2.722 -0.5802  0.0531  0.2789
 1592SOL     OW 6365   2.731   1.157   2.618  0.2561  0.0042  0.2285
 1592SOL    HW2 6366   2.778   1.197   2.692 -0.4735  0.5162  0.4203
 1592SOL    HW3 6367   2.724   1.065   2.643  0.5592  0.0541  0.5146
 1592SOL    MW4 6368   2.737   1.150   2.631  0.1998  0.0784  0.2915
 1593SOL     OW 6369   2.907   1.272   2.801 -0.0241  0.2570  0.4595
 1593SOL    HW2 6370   2.936   1.275   2.892 -0.8027 -0.1943  0.7247
 1593SOL    HW3 6371   2.976   1.223   2.756  1.0521  1.6752  0.5277
 1593SOL    MW4 6372   2.920   1.266   2.807  0.0151  0.3845  0.5035
 1594SOL     OW 6373   2.940   1.527   2.659 -0.2846  0.6305  0.5116
 1594SOL    HW2 6374   2.884   1.589   2.706 -0.7052  0.6596 -0.0169
 1594SOL    HW3 6375   2.929   1.444   2.705 -1.5550  0.3915 -0.1876
 1594SOL    MW4 6376   2.931   1.524   2.671 -0.5077  0.6028  0.3496
 1595SOL     OW 6377   2.763   1.692   2.782 -0.0512 -0.0437  0.2664
 1595SOL    HW2 6378   2.743   1.682   2.875 -0.3560 -1.9518  0.0118
 1595SOL    HW3 6379   2.686   1.656   2.737 -0.1455  1.3606 -0.7450
 1595SOL    MW4 6380   2.750   1.686   2.788 -0.1039 -0.1101  0.0994
 1596SOL     OW 6381   2.733   1.916   2.633 -0.0411 -0.5165  0.4894
 1596SOL    HW2 6382   2.742   1.840   2.690 -1.3696 -0.9689  0.1321
 1596SOL    HW3 6383   2.654   1.960   2.666  1.0403  1.0210  1.0516
 1596SOL    MW4 6384   2.724   1.912   2.645 -0.0737 -0.3733  0.5164
 1597SOL     OW 6385   2.951   2.052   2.737  0.1403 -0.3056 -0.1416
 1597SOL    HW2 6386   2.963   2.124   2.675 -0.5195  0.0908  0.1879
 1597SOL    HW3 6387   2.872   2.007   2.706  0.3524 -0.6762 -0.1419
 1597SOL    MW4 6388   2.942   2.055   2.724  0.0812 -0.3022 -0.0982
 1598SOL     OW 6389   2.944   2.298   2.589  0.0207 -0.3591 -0.1665
 1598SOL    HW2 6390   3.016   2.324   2.646 -0.2427 -2.1857  1.0348
 1598SOL    HW3 6391   2.866   2.335   2.631  0.1098  0.4996 -0.7535
 1598SOL    MW4 6392   2.943   2.306   2.602 -0.0023 -0.4868 -0.0854
 1599SOL     OW 6393   2.737   2.438   2.737 -0.2809 -0.1867 -0.3366
 1599SOL    HW2 6394   2.748   2.448   2.832  0.3532 -1.0567 -0.3145
 1599SOL    HW3 6395   2.713   2.525   2.707 -0.8567  0.0192  0.6773
 1599SOL    MW4 6396   2.735   2.451   2.746 -0.2732 -0.2743 -0.1999
 1600SOL     OW 6397   2.690   2.681   2.633 -0.3794 -0.4165 -0.3833
 1600SOL    HW2 6398   2.776   2.710   2.661 -1.6572  2.0928  1.1192
 1600SOL    HW3 6399   2.690   2.694   2.538  0.1773  1.6947 -0.1283
 1600SOL    MW4 6400   2.701   2.687   2.624 -0.4746  0.1931 -0.1514
 1601SOL     OW 6401   2.925   2.783   2.784 -0.6006 -0.1510 -0.1968
 1601SOL    HW2 6402   2.910   2.797   2.877 -0.2091  0.2972 -0.1980
 1601SOL    HW3 6403   2.932   2.871   2.747  0.6009 -0.3332 -0.4226
 1601SOL    MW4 6404   2.924   2.796   2.791 -0.3905 -0.1159 -0.2267
 1602SOL     OW 6405   2.930   3.047   2.690 -0.1182 -0.6325  0.3499
 1602SOL    HW2 6406   2.852   3.092   2.722  0.6192 -0.1202  1.4618
 1602SOL    HW3 6407   2.917   3.041   2.595 -0.3871  1.6224  0.2072
 1602SOL    MW4 6408   2.918   3.052   2.682 -0.0564 -0.2674  0.4778
 1603SOL     OW 6409   2.707   3.192   2.779 -0.1436  0.1844 -0.0498
 1603SOL    HW2 6410   2.711   3.281   2.745  3.1088 -0.3730 -1.2824
 1603SOL    HW3 6411   2.628   3.155   2.740 -0.5943  1.9554 -0.8798
 1603SOL    MW4 6412   2.697   3.199   2.770  0.2260  0.3445 -0.3219
 1604SOL     OW 6413   2.731   3.471   2.666  0.1329  0.0950  0.0481
 1604SOL    HW2 6414   2.645   3.501   2.696  0.3485  0.0097  0.7437
 1604SOL    HW3 6415   2.717   3.447   2.574 -1.3039 -2.7472  0.9518
 1604SOL    MW4 6416   2.718   3.472   2.658 -0.0282 -0.2912  0.2591
 1605SOL     OW 6417   2.950   3.587   2.766 -0.5371  0.0257 -0.0139
 1605SOL    HW2 6418   2.939   3.580   2.861  1.7056  0.4068  0.2912
 1605SOL    HW3 6419   2.871   3.547   2.730 -1.8057  0.6238  2.0135
 1605SOL    MW4 6420   2.938   3.581   2.774 -0.4086  0.1549  0.2938
 1606SOL     OW 6421   2.924   3.838   2.619 -0.4185 -0.1611  0.0978
 1606SOL    HW2 6422   2.990   3.890   2.665 -0.9899  0.3242  0.3584
 1606SOL    HW3 6423   2.918   3.757   2.669  0.5458 -0.5339 -0.3664
 1606SOL    MW4 6424   2.932   3.834   2.632 -0.3667 -0.1462  0.0709
 1607SOL     OW 6425   2.709   3.960   2.735  0.2124 -0.3507 -0.1953
 1607SOL    HW2 6426   2.688   4.048   2.703 -1.0386 -0.9827 -1.1613
 1607SOL    HW3 6427   2.784   3.933   2.683  0.0450 -0.1988 -0.5155
 1607SOL    MW4 6428   2.716   3.968   2.724  0.0252 -0.4140 -0.3650
 1608SOL     OW 6429   2.684   4.218   2.647  0.2242  0.1452  0.1071
 1608SOL    HW2 6430   2.759   4.264   2.685  0.6147 -0.6593  0.3112
 1608SOL    HW3 6431   2.608   4.263   2.683  0.6028  0.4692  0.5079
 1608SOL    MW4 6432   2.684   4.230   2.657  0.3257  0.0818  0.1869
 1609SOL     OW 6433   2.874   4.356   2.760 -0.5071  0.5691  0.7924
 1609SOL    HW2 6434   2.876   4.371   2.854  0.5477  0.7831  0.7424
 1609SOL    HW3 6435   2.894   4.441   2.721  0.2457  0.2201  0.4029
 1609SOL    MW4 6436   2.877   4.369   2.767 -0.2686  0.5513  0.7344
 1610SOL     OW 6437   3.378   4.628   2.631  0.2827 -0.4415  0.3591
 1610SOL    HW2 6438   3.372   4.545   2.678  1.1754 -0.6813  0.0618
 1610SOL    HW3 6439   3.310   4.683   2.670 -1.3602 -1.8297 -0.5107
 1610SOL    MW4 6440   3.368   4.625   2.643  0.1837 -0.6563  0.2051
 1611SOL     OW 6441   3.138   0.088   2.754  0.5160  0.3218 -0.5079
 1611SOL    HW2 6442   3.136   0.108   2.848 -0.8322 -1.0870 -0.2243
 1611SOL    HW3 6443   3.131   0.173   2.711 -2.0633  0.7635  0.6874
 1611SOL    MW4 6444   3.137   0.102   2.761 -0.0022  0.1942 -0.3127
 1612SOL     OW 6445   3.157   0.355   2.688  0.0788  0.0229  0.5809
 1612SOL    HW2 6446   3.069   0.379   2.715 -0.5276 -0.9537 -0.4922
 1612SOL    HW3 6447   3.157   0.367   2.593  1.2386  0.4398  0.6201
 1612SOL    MW4 6448   3.146   0.360   2.679  0.1518 -0.0510  0.4445
 1613SOL     OW 6449   3.364   0.537   2.733 -0.4764 -0.5212  0.3810
 1613SOL    HW2 6450   3.359   0.624   2.692  0.7267  0.0873  1.5009
 1613SOL    HW3 6451   3.285   0.492   2.703 -1.4836  1.2233  0.3529
 1613SOL    MW4 6452   3.353   0.543   2.724 -0.4505 -0.2108  0.5251
 1614SOL     OW 6453   3.393   0.813   2.675  0.2273  0.4255 -0.2440
 1614SOL    HW2 6454   3.478   0.837   2.710  0.5806 -0.1290 -0.7260
 1614SOL    HW3 6455   3.410   0.792   2.583 -0.4359  0.3589 -0.3534
 1614SOL    MW4 6456   3.406   0.814   2.667  0.1864  0.3436 -0.3220
 1615SOL     OW 6457   3.119   0.871   2.762  0.0683 -0.2229 -0.4921
 1615SOL    HW2 6458   3.135   0.887   2.855 -0.3115 -0.5308 -0.3699
 1615SOL    HW3 6459   3.205   0.854   2.725  0.2582  0.2374 -0.2610
 1615SOL    MW4 6460   3.132   0.871   2.770  0.0433 -0.2028 -0.4455
 1616SOL     OW 6461   3.115   1.129   2.675  0.3121  0.1149  0.0521
 1616SOL    HW2 6462   3.111   1.036   2.698  0.1732  0.4192  1.3019
 1616SOL    HW3 6463   3.139   1.130   2.582 -0.1402 -1.1737 -0.0830
 1616SOL    MW4 6464   3.118   1.117   2.666  0.2341 -0.0150  0.1992
 1617SOL     OW 6465   3.366   1.268   2.736 -0.1869  0.4667 -0.1743
 1617SOL    HW2 6466   3.388   1.270   2.829  0.2789  0.0380 -0.2725
 1617SOL    HW3 6467   3.284   1.218   2.732 -0.6915  1.2661  0.0958
 1617SOL    MW4 6468   3.358   1.262   2.748 -0.1920  0.5156 -0.1516
 1618SOL     OW 6469   3.405   1.516   2.634  0.1249  0.3193  0.0380
 1618SOL    HW2 6470   3.316   1.547   2.647 -0.1478  0.0481 -1.1112
 1618SOL    HW3 6471   3.405   1.427   2.670 -0.1401  0.2277 -0.1849
 1618SOL    MW4 6472   3.393   1.508   2.640  0.0539  0.2715 -0.1430
 1619SOL     OW 6473   3.167   1.627   2.764 -0.0793 -0.3053 -0.1999
 1619SOL    HW2 6474   3.164   1.715   2.726  0.0346 -0.0041  0.4801
 1619SOL    HW3 6475   3.088   1.585   2.731 -0.3885  0.2162 -0.1411
 1619SOL    MW4 6476   3.156   1.633   2.755 -0.1051 -0.1968 -0.1024
 1620SOL     OW 6477   3.177   1.881   2.670 -0.0038 -0.1440  0.1945
 1620SOL    HW2 6478   3.248   1.916   2.724 -0.1000  0.0442  0.2004
 1620SOL    HW3 6479   3.099   1.928   2.700  0.2455  1.3204 -1.3797
 1620SOL    MW4 6480   3.176   1.892   2.681  0.0164  0.0740 -0.0124
 1621SOL     OW 6481   3.393   2.018   2.774  0.1280 -0.5375  0.1300
 1621SOL    HW2 6482   3.406   2.025   2.868 -1.5604 -1.1207  0.4296
 1621SOL    HW3 6483   3.381   2.109   2.744 -0.4505 -0.4323  0.6667
 1621SOL    MW4 6484   3.393   2.031   2.782 -0.1711 -0.6005  0.2403
 1622SOL     OW 6485   3.371   2.286   2.656 -0.4486 -0.1783 -0.2723
 1622SOL    HW2 6486   3.438   2.353   2.669 -0.3577 -0.3655  0.2521
 1622SOL    HW3 6487   3.357   2.283   2.561  0.5609 -0.4104 -0.4197
 1622SOL    MW4 6488   3.378   2.294   2.645 -0.3034 -0.2336 -0.2226
 1623SOL     OW 6489   3.142   2.400   2.789 -0.1285 -0.6730  0.2672
 1623SOL    HW2 6490   3.126   2.476   2.732 -0.0901  0.0678  1.2291
 1623SOL    HW3 6491   3.222   2.360   2.754  0.9911  0.9030  0.9540
 1623SOL    MW4 6492   3.151   2.405   2.777  0.0243 -0.3673  0.4847
 1624SOL     OW 6493   3.136   2.641   2.643  0.2878  0.2827 -0.4946
 1624SOL    HW2 6494   3.221   2.679   2.667  0.0210  1.6999 -1.7426
 1624SOL    HW3 6495   3.073   2.685   2.700  0.0511  1.2678 -1.5169
 1624SOL    MW4 6496   3.139   2.652   2.654  0.2214  0.5996 -0.7942
 1625SOL     OW 6497   3.345   2.779   2.715 -0.3210  0.0528 -0.0277
 1625SOL    HW2 6498   3.347   2.781   2.811  0.1807  2.1462 -0.0499
 1625SOL    HW3 6499   3.432   2.748   2.690  0.1616  1.1726  0.2002
 1625SOL    MW4 6500   3.357   2.775   2.725 -0.1911  0.4768 -0.0006
 1626SOL     OW 6501   3.371   3.032   2.645  0.0230  0.2365 -0.2243
 1626SOL    HW2 6502   3.379   2.938   2.660 -1.9587  0.4432  2.4619
 1626SOL    HW3 6503   3.391   3.043   2.552  0.7596 -2.7703 -0.4746
 1626SOL    MW4 6504   3.375   3.021   2.635 -0.1413 -0.1329  0.0971
 1627SOL     OW 6505   3.154   3.195   2.775  0.2689 -0.1665 -0.7175
 1627SOL    HW2 6506   3.232   3.154   2.739  0.5578  0.4548 -0.8072
 1627SOL    HW3 6507   3.082   3.138   2.749  0.5513 -0.0593 -1.7345
 1627SOL    MW4 6508   3.155   3.182   2.767  0.3443 -0.0704 -0.8635
 1628SOL     OW 6509   3.146   3.434   2.636 -0.3587  0.2460 -0.1148
 1628SOL    HW2 6510   3.151   3.342   2.661  0.4760 -0.7011 -3.5236
 1628SOL    HW3 6511   3.085   3.473   2.699 -2.2187 -3.0389  0.2137
 1628SOL    MW4 6512   3.139   3.427   2.648 -0.4940 -0.3124 -0.5212
 1629SOL     OW 6513   3.368   3.608   2.672  0.1346 -0.5720 -0.2689
 1629SOL    HW2 6514   3.387   3.618   2.765 -0.0477 -0.0372 -0.2835
 1629SOL    HW3 6515   3.278   3.575   2.669  0.3988 -1.2858 -0.2387
 1629SOL    MW4 6516   3.358   3.605   2.684  0.1454 -0.5956 -0.2669
 1630SOL     OW 6517   3.348   3.877   2.634  0.3882  0.3524  0.1411
 1630SOL    HW2 6518   3.353   3.782   2.645 -0.7061  0.3963  1.1857
 1630SOL    HW3 6519   3.346   3.890   2.539 -0.7662 -0.7714 -0.0112
 1630SOL    MW4 6520   3.348   3.866   2.623  0.0915  0.2099  0.2588
 1631SOL     OW 6521   3.110   3.982   2.749  0.0412 -0.3415 -0.3532
 1631SOL    HW2 6522   3.111   4.074   2.723  0.4536 -0.3864 -0.4898
 1631SOL    HW3 6523   3.184   3.942   2.704  0.2173 -0.6154  0.1677
 1631SOL    MW4 6524   3.120   3.989   2.740  0.1189 -0.3836 -0.3025
 1632SOL     OW 6525   3.100   4.233   2.646 -0.0930 -0.4475 -0.1814
 1632SOL    HW2 6526   3.026   4.281   2.684  0.9997  1.3273 -0.2465
 1632SOL    HW3 6527   3.084   4.235   2.552 -0.8098 -1.4891 -0.0810
 1632SOL    MW4 6528   3.088   4.240   2.639 -0.0434 -0.3507 -0.1767
 1633SOL     OW 6529   3.355   4.383   2.740  0.3030  0.1128  0.0642
 1633SOL    HW2 6530   3.341   4.399   2.833 -0.9507 -2.8455  0.4256
 1633SOL    HW3 6531   3.272   4.348   2.708  1.4939 -1.2633 -1.6207
 1633SOL    MW4 6532   3.342   4.380   2.748  0.2947 -0.4591 -0.1104
 1634SOL     OW 6533   3.844   4.631   2.675 -0.0868  0.2330  0.0882
 1634SOL    HW2 6534   3.833   4.541   2.707  0.0297  0.6575  1.3595
 1634SOL    HW3 6535   3.767   4.678   2.709  1.4235  1.3231  2.0827
 1634SOL    MW4 6536   3.832   4.625   2.684  0.1278  0.4329  0.5191
 1635SOL     OW 6537   3.592   0.091   2.772 -0.1187 -0.3175  0.2376
 1635SOL    HW2 6538   3.581   0.181   2.742  0.9585 -1.0901 -2.5474
 1635SOL    HW3 6539   3.524   0.042   2.726 -0.9245 -0.9046  2.0063
 1635SOL    MW4 6540   3.581   0.096   2.762 -0.0829 -0.4969  0.1035
 1636SOL     OW 6541   3.563   0.345   2.667 -0.5173 -0.0448 -0.0369
 1636SOL    HW2 6542   3.633   0.403   2.697 -0.5180  0.2601 -0.6177
 1636SOL    HW3 6543   3.483   0.395   2.678 -0.4834  0.2052 -0.8756
 1636SOL    MW4 6544   3.561   0.359   2.672 -0.5129  0.0284 -0.2242
 1637SOL     OW 6545   3.802   0.483   2.732  0.6026 -0.1875  0.2083
 1637SOL    HW2 6546   3.824   0.499   2.824  0.7582  1.9196 -0.1740
 1637SOL    HW3 6547   3.881   0.442   2.696  0.2466 -1.7810  1.1859
 1637SOL    MW4 6548   3.816   0.479   2.739  0.5762 -0.1198  0.2869
 1638SOL     OW 6549   3.833   0.755   2.621  0.3530 -0.2446 -0.1398
 1638SOL    HW2 6550   3.772   0.813   2.667  0.4461 -0.2073 -0.0646
 1638SOL    HW3 6551   3.825   0.671   2.666 -0.6636 -0.6226 -0.9913
 1638SOL    MW4 6552   3.824   0.751   2.633  0.2312 -0.2895 -0.2423
 1639SOL     OW 6553   3.652   0.887   2.755  0.4292 -0.2086 -0.1574
 1639SOL    HW2 6554   3.637   0.887   2.850  0.3284 -0.8100 -0.1701
 1639SOL    HW3 6555   3.639   0.978   2.729 -0.8060 -0.2628  0.2113
 1639SOL    MW4 6556   3.648   0.899   2.764  0.2529 -0.2951 -0.1104
 1640SOL     OW 6557   3.629   1.165   2.647 -0.0885 -0.0313 -0.1977
 1640SOL    HW2 6558   3.691   1.213   2.702  0.1020 -0.4419 -0.0499
 1640SOL    HW3 6559   3.543   1.189   2.680 -0.0432  1.3534 -1.0789
 1640SOL    MW4 6560   3.626   1.174   2.659 -0.0574  0.0972 -0.2944
 1641SOL     OW 6561   3.849   1.256   2.789 -1.0345 -0.0118 -0.1149
 1641SOL    HW2 6562   3.910   1.207   2.733 -0.9749  0.2047 -0.2388
 1641SOL    HW3 6563   3.854   1.346   2.758 -2.4242 -0.2249 -1.0066
 1641SOL    MW4 6564   3.858   1.261   2.777 -1.2100 -0.0113 -0.2489
 1642SOL     OW 6565   3.852   1.504   2.674  0.6746  0.1881 -0.4740
 1642SOL    HW2 6566   3.924   1.566   2.686  1.6770 -1.0877  0.1162
 1642SOL    HW3 6567   3.774   1.555   2.694  1.5889  0.9088  1.3916
 1642SOL    MW4 6568   3.851   1.519   2.678  0.9275  0.1148 -0.1500
 1643SOL     OW 6569   3.612   1.652   2.760  0.0059 -0.1854  0.1260
 1643SOL    HW2 6570   3.606   1.742   2.729  1.3631  0.1001  0.6570
 1643SOL    HW3 6571   3.528   1.612   2.735 -0.9244  1.4365  0.5943
 1643SOL    MW4 6572   3.600   1.658   2.752  0.0622  0.0663  0.2579
 1644SOL     OW 6573   3.631   1.916   2.659  0.4037  0.3250 -0.2662
 1644SOL    HW2 6574   3.542   1.944   2.679 -0.1266 -1.7775  0.4875
 1644SOL    HW3 6575   3.626   1.887   2.568 -0.0454 -1.1011  0.1978
 1644SOL    MW4 6576   3.619   1.916   2.650  0.2745 -0.1406 -0.1055
 1645SOL     OW 6577   3.835   2.064   2.751 -0.1582 -0.1154  0.3437
 1645SOL    HW2 6578   3.917   2.028   2.716 -0.2948  0.3154 -0.4200
 1645SOL    HW3 6579   3.767   2.006   2.717 -0.2415 -0.0126  0.3336
 1645SOL    MW4 6580   3.837   2.052   2.742 -0.1872 -0.0450  0.2416
 1646SOL     OW 6581   3.808   2.327   2.677  0.3915 -0.1475  0.7457
 1646SOL    HW2 6582   3.819   2.244   2.725  2.0651 -0.0052  0.6375
 1646SOL    HW3 6583   3.801   2.300   2.586  2.3402 -0.1134  0.5580
 1646SOL    MW4 6584   3.809   2.312   2.672  0.8694 -0.1243  0.7067
 1647SOL     OW 6585   3.578   2.459   2.753 -0.1372 -0.0473 -0.3520
 1647SOL    HW2 6586   3.595   2.473   2.846  1.5814  1.0403 -0.7974
 1647SOL    HW3 6587   3.656   2.411   2.722 -0.9159 -0.8163 -1.1332
 1647SOL    MW4 6588   3.591   2.454   2.761 -0.0132 -0.0053 -0.5139
 1648SOL     OW 6589   3.578   2.698   2.617  0.1784  0.2862  0.2186
 1648SOL    HW2 6590   3.577   2.609   2.654  1.1366 -0.0767 -0.6063
 1648SOL    HW3 6591   3.568   2.685   2.523 -0.1466  1.0860  0.1397
 1648SOL    MW4 6592   3.577   2.684   2.609  0.2619  0.3438  0.0994
 1649SOL     OW 6593   3.784   2.826   2.733  0.5205 -0.1596  0.5468
 1649SOL    HW2 6594   3.858   2.790   2.684  0.7567  1.5068 -0.3550
 1649SOL    HW3 6595   3.708   2.779   2.698  0.8901 -0.2250 -0.1820
 1649SOL    MW4 6596   3.783   2.815   2.722  0.6004  0.0517  0.3316
 1650SOL     OW 6597   3.794   3.075   2.610 -0.4563  0.0535  0.1681
 1650SOL    HW2 6598   3.727   3.111   2.668 -0.9048  0.3786 -0.5377
 1650SOL    HW3 6599   3.795   2.981   2.628 -0.6220  0.1484  0.6683
 1650SOL    MW4 6600   3.786   3.068   2.620 -0.5373  0.1089  0.1410
 1651SOL     OW 6601   3.582   3.203   2.748  0.3317  0.0872 -0.2461
 1651SOL    HW2 6602   3.580   3.284   2.697 -1.2486  0.8331  0.9355
 1651SOL    HW3 6603   3.498   3.161   2.730 -0.6074  0.7575  2.2575
 1651SOL    MW4 6604   3.571   3.208   2.739 -0.0007  0.2740  0.2402
 1652SOL     OW 6605   3.585   3.447   2.627 -0.0815 -0.2109 -0.4512
 1652SOL    HW2 6606   3.657   3.498   2.665 -0.2676  0.4205 -0.9405
 1652SOL    HW3 6607   3.508   3.502   2.638 -0.4532 -0.7841 -0.1542
 1652SOL    MW4 6608   3.584   3.461   2.634 -0.1551 -0.2032 -0.4766
 1653SOL     OW 6609   3.777   3.624   2.740 -0.0670  0.0704 -0.0367
 1653SOL    HW2 6610   3.846   3.570   2.703 -0.8221 -0.9065 -0.0669
 1653SOL    HW3 6611   3.786   3.709   2.697  0.8267 -0.1931 -0.3683
 1653SOL    MW4 6612   3.787   3.628   2.729 -0.0487 -0.0933 -0.0844
 1654SOL     OW 6613   3.818   3.880   2.620  0.3612  0.1956 -0.1350
 1654SOL    HW2 6614   3.892   3.915   2.670  0.4861 -0.8947  0.4539
 1654SOL    HW3 6615   3.741   3.908   2.671  0.4598 -0.3819  0.3328
 1654SOL    MW4 6616   3.818   3.889   2.634  0.3907 -0.0244  0.0044
 1655SOL     OW 6617   3.592   3.977   2.758 -0.5429 -0.0381  0.1557
 1655SOL    HW2 6618   3.599   4.070   2.734 -0.2148  0.3135  1.5603
 1655SOL    HW3 6619   3.507   3.950   2.724 -0.6362  0.7881 -0.2716
 1655SOL    MW4 6620   3.582   3.986   2.751 -0.5119  0.1173  0.2846
 1656SOL     OW 6621   3.570   4.227   2.640 -0.2391 -0.7230 -0.1678
 1656SOL    HW2 6622   3.491   4.270   2.672  0.5602 -0.1031  0.9912
 1656SOL    HW3 6623   3.560   4.228   2.544 -1.3829 -0.1830 -0.0571
 1656SOL    MW4 6624   3.558   4.233   2.631 -0.2845 -0.5700 -0.0003
 1657SOL     OW 6625   3.771   4.373   2.749  0.0624 -0.5753  0.2322
 1657SOL    HW2 6626   3.850   4.324   2.727  0.4174  0.3085 -0.5163
 1657SOL    HW3 6627   3.701   4.330   2.699  0.5724  0.3693 -1.3156
 1657SOL    MW4 6628   3.772   4.361   2.739  0.1766 -0.3341 -0.0708
 1658SOL     OW 6629   4.234   4.639   2.652  0.0649  0.2783 -0.1115
 1658SOL    HW2 6630   4.176   4.708   2.685 -0.6121 -0.5843  0.5491
 1658SOL    HW3 6631   4.321   4.664   2.683 -0.3766  0.1457  1.3035
 1658SOL    MW4 6632   4.238   4.651   2.661 -0.0827  0.1470  0.1623
 1659SOL     OW 6633   4.031   0.149   2.763  0.0424  0.0357 -0.2686
 1659SOL    HW2 6634   4.030   0.145   2.859  1.6187  0.2828 -0.2274
 1659SOL    HW3 6635   3.970   0.080   2.735 -0.1561 -0.2719  0.9003
 1659SOL    MW4 6636   4.023   0.139   2.772  0.2242  0.0277 -0.1090
 1660SOL     OW 6637   4.054   0.388   2.639 -0.7624  0.4632  0.6808
 1660SOL    HW2 6638   4.042   0.302   2.679  0.6959  0.7617  1.8220
 1660SOL    HW3 6639   4.048   0.372   2.545  2.5619 -1.4491  0.7133
 1660SOL    MW4 6640   4.051   0.375   2.632 -0.1314  0.2503  0.8356
 1661SOL     OW 6641   4.256   0.534   2.760 -0.0698 -0.1684  0.2343
 1661SOL    HW2 6642   4.192   0.481   2.711 -0.0446  1.3435 -1.5012
 1661SOL    HW3 6643   4.341   0.503   2.728  0.0252 -1.0614  1.3460
 1661SOL    MW4 6644   4.259   0.523   2.749 -0.0539 -0.0867  0.1520
 1662SOL     OW 6645   4.236   0.805   2.693  0.0648 -0.0510  0.4383
 1662SOL    HW2 6646   4.239   0.715   2.725  0.1381 -0.4285 -0.6135
 1662SOL    HW3 6647   4.242   0.797   2.598  1.5560  1.1449  0.4221
 1662SOL    MW4 6648   4.237   0.792   2.685  0.2712  0.0570  0.2974
 1663SOL     OW 6649   3.992   0.875   2.803 -0.6480 -0.5379  0.2339
 1663SOL    HW2 6650   4.083   0.855   2.780 -0.4336  1.8401 -1.2272
 1663SOL    HW3 6651   3.941   0.834   2.733 -0.5439 -0.0897 -0.1084
 1663SOL    MW4 6652   3.997   0.867   2.791 -0.6060 -0.1650 -0.0041
 1664SOL     OW 6653   4.038   1.128   2.643 -0.8704 -0.0359  0.3630
 1664SOL    HW2 6654   4.114   1.180   2.668 -0.3411  0.1951 -1.6873
 1664SOL    HW3 6655   4.057   1.040   2.678  0.4583 -0.0437 -0.3518
 1664SOL    MW4 6656   4.050   1.123   2.651 -0.6253 -0.0065 -0.0018
 1665SOL     OW 6657   4.262   1.283   2.718  0.1936  0.4828 -0.0818
 1665SOL    HW2 6658   4.278   1.376   2.699  1.9522  0.1939 -0.0622
 1665SOL    HW3 6659   4.347   1.242   2.709 -0.7715 -1.3396 -1.1939
 1665SOL    MW4 6660   4.275   1.290   2.714  0.2983  0.2042 -0.2260
 1666SOL     OW 6661   4.273   1.554   2.665  0.2727  0.0892 -0.4712
 1666SOL    HW2 6662   4.355   1.603   2.673  0.7132 -0.1809 -2.7621
 1666SOL    HW3 6663   4.263   1.541   2.570 -0.8275 -2.5945 -0.0151
 1666SOL    MW4 6664   4.282   1.559   2.653  0.1857 -0.3006 -0.7133
 1667SOL     OW 6665   4.047   1.690   2.750 -0.3931  0.0368  0.5582
 1667SOL    HW2 6666   4.047   1.685   2.845  0.0496 -0.9012  0.5110
 1667SOL    HW3 6667   4.131   1.653   2.724 -0.8881 -0.5321 -0.2436
 1667SOL    MW4 6668   4.058   1.685   2.759 -0.4000 -0.1620  0.4462
 1668SOL     OW 6669   4.071   1.938   2.647 -0.2619  0.1001  0.2026
 1668SOL    HW2 6670   4.125   1.979   2.714 -0.0792 -0.5803  0.4729
 1668SOL    HW3 6671   4.051   1.851   2.682  0.4624 -0.5436 -0.9471
 1668SOL    MW4 6672   4.075   1.932   2.660 -0.1422 -0.0746  0.0866
 1669SOL     OW 6673   4.272   2.059   2.802 -0.0234  0.0013  0.4997
 1669SOL    HW2 6674   4.278   2.149   2.769 -0.4109 -0.2367 -0.2184
 1669SOL    HW3 6675   4.329   2.008   2.743  0.0658 -0.2553  0.8044
 1669SOL    MW4 6676   4.281   2.064   2.790 -0.0628 -0.0639  0.4452
 1670SOL     OW 6677   4.268   2.320   2.674 -0.7689 -0.1547 -0.4665
 1670SOL    HW2 6678   4.189   2.370   2.697  0.8566  1.8260  0.9435
 1670SOL    HW3 6679   4.263   2.310   2.579 -3.1958 -0.9088 -0.3072
 1670SOL    MW4 6680   4.257   2.325   2.665 -0.8746  0.0071 -0.2594
 1671SOL     OW 6681   4.035   2.483   2.720  0.1360  0.5504 -0.3401
 1671SOL    HW2 6682   4.031   2.493   2.815 -0.7510 -1.1234 -0.1822
 1671SOL    HW3 6683   3.954   2.437   2.698  1.4755 -1.2266 -1.6152
 1671SOL    MW4 6684   4.023   2.479   2.730  0.1957  0.0951 -0.4875
 1672SOL     OW 6685   4.018   2.755   2.639  0.3516 -0.7002 -0.2872
 1672SOL    HW2 6686   4.094   2.808   2.663  0.1040 -0.7678  0.6738
 1672SOL    HW3 6687   4.040   2.666   2.668  0.7489 -1.1334 -1.8562
 1672SOL    MW4 6688   4.031   2.750   2.646  0.3713 -0.7663 -0.3674
 1673SOL     OW 6689   4.290   2.846   2.724 -0.7298 -0.2756 -0.3050
 1673SOL    HW2 6690   4.300   2.850   2.819 -1.4324 -1.5737 -0.1697
 1673SOL    HW3 6691   4.291   2.938   2.696  0.9602  0.0701  0.7895
 1673SOL    MW4 6692   4.291   2.859   2.733 -0.5995 -0.4013 -0.1427
 1674SOL     OW 6693   4.243   3.106   2.676 -0.0099  0.4549  0.1751
 1674SOL    HW2 6694   4.170   3.153   2.716  0.5861  1.9404 -0.4753
 1674SOL    HW3 6695   4.227   3.112   2.582 -1.2687 -2.8081  0.1137
 1674SOL    MW4 6696   4.231   3.113   2.669 -0.0973  0.2204  0.0812
 1675SOL     OW 6697   4.003   3.213   2.761  0.2673 -0.0846 -0.1852
 1675SOL    HW2 6698   3.985   3.298   2.719 -0.5558  0.0664  0.4490
 1675SOL    HW3 6699   3.949   3.151   2.712  1.2604 -0.3326 -0.9763
 1675SOL    MW4 6700   3.993   3.216   2.749  0.2897 -0.0974 -0.2059
 1676SOL     OW 6701   3.997   3.450   2.644 -0.2423 -0.1141  0.4540
 1676SOL    HW2 6702   4.064   3.501   2.689 -0.3651 -0.4744  1.0557
 1676SOL    HW3 6703   4.015   3.462   2.551  1.1665 -0.8809  0.6103
 1676SOL    MW4 6704   4.008   3.458   2.638 -0.0726 -0.2628  0.5540
 1677SOL     OW 6705   4.207   3.607   2.738  0.6043  0.4133 -0.3189
 1677SOL    HW2 6706   4.218   3.640   2.828  0.2878  0.3245 -0.2466
 1677SOL    HW3 6707   4.291   3.565   2.718 -0.2763 -2.1121  1.0003
 1677SOL    MW4 6708   4.219   3.606   2.747  0.4463  0.0684 -0.1353
 1678SOL     OW 6709   4.254   3.855   2.610  0.6643  0.5631 -0.4215
 1678SOL    HW2 6710   4.251   3.765   2.643  1.0093  0.5213 -0.5027
 1678SOL    HW3 6711   4.330   3.894   2.654  2.0483  0.0506 -2.2787
 1678SOL    MW4 6712   4.264   3.848   2.620  0.8924  0.4900 -0.6772
 1679SOL     OW 6713   4.050   4.002   2.737  0.2558 -0.0623 -0.1299
 1679SOL    HW2 6714   4.077   4.006   2.829  0.5535  2.7749 -0.2904
 1679SOL    HW3 6715   4.119   3.951   2.695  0.1929 -1.2724  1.1843
 1679SOL    MW4 6716   4.063   3.996   2.744  0.2868  0.1523  0.0223
 1680SOL     OW 6717   4.005   4.264   2.646  0.2259  0.4538  0.3240
 1680SOL    HW2 6718   4.013   4.170   2.660 -3.4187  0.1330  0.6301
 1680SOL    HW3 6719   4.024   4.276   2.552  1.6180 -0.4394  0.4883
 1680SOL    MW4 6720   4.008   4.253   2.635 -0.0713  0.2936  0.3860
 1681SOL     OW 6721   4.235   4.373   2.757  0.1394 -0.1184 -0.5722
 1681SOL    HW2 6722   4.160   4.328   2.719 -1.2836  0.4826  1.4262
 1681SOL    HW3 6723   4.222   4.465   2.734  0.2345 -0.0101 -0.1965
 1681SOL    MW4 6724   4.223   4.379   2.749 -0.0358 -0.0248 -0.2590
 1682SOL     OW 6725   0.236   0.008   3.143 -0.1633  0.1372  0.2999
 1682SOL    HW2 6726   0.222   0.003   3.237 -2.8785 -1.8685 -0.1435
 1682SOL    HW3 6727   0.154   0.044   3.108  1.5765  2.8534 -1.1493
 1682SOL    MW4 6728   0.223   0.012   3.151 -0.2920  0.2309  0.0502
 1683SOL     OW 6729   4.467   0.114   3.072 -0.6259 -0.0272  0.1146
 1683SOL    HW2 6730   4.388   0.087   3.118 -0.1559 -1.2432  0.2533
 1683SOL    HW3 6731   4.478   0.207   3.093 -2.0069  0.1441  0.0834
 1683SOL    MW4 6732   4.458   0.123   3.081 -0.7461 -0.1651  0.1288
 1684SOL     OW 6733   0.002   0.378   3.123  0.3011 -0.0365 -0.2185
 1684SOL    HW2 6734   0.006   0.399   3.216  0.5601 -1.0920  0.0142
 1684SOL    HW3 6735  -0.088   0.400   3.097  0.3081  0.5036  0.2153
 1684SOL    MW4 6736  -0.009   0.383   3.132  0.3362 -0.1045 -0.1306
 1685SOL     OW 6737   0.223   0.505   3.010  0.6397 -0.0337  0.5227
 1685SOL    HW2 6738   0.300   0.462   3.048  0.6740 -0.7108 -0.2923
 1685SOL    HW3 6739   0.149   0.463   3.052  0.6866 -0.4066  0.2312
 1685SOL    MW4 6740   0.224   0.494   3.020  0.6504 -0.1722  0.3767
 1686SOL     OW 6741   0.212   0.748   3.138  0.0413 -0.6141 -0.1228
 1686SOL    HW2 6742   0.205   0.745   3.234  0.9540  0.6635  0.0011
 1686SOL    HW3 6743   0.190   0.660   3.109  1.7508 -1.5727  1.4056
 1686SOL    MW4 6744   0.208   0.736   3.147  0.3873 -0.5720  0.0952
 1687SOL     OW 6745   4.476   0.912   3.090  0.0894 -0.1340  0.2710
 1687SOL    HW2 6746   4.547   0.857   3.121 -0.5073 -0.8603  0.3603
 1687SOL    HW3 6747   4.487   0.917   2.995  0.2346 -0.2736  0.2818
 1687SOL    MW4 6748   4.487   0.906   3.082  0.0298 -0.2482  0.2842
 1688SOL     OW 6749   0.005   1.200   3.125  0.2171  0.0355  0.1567
 1688SOL    HW2 6750  -0.078   1.230   3.089  0.4982  0.3150 -0.2516
 1688SOL    HW3 6751   0.006   1.106   3.106  1.2486  0.5160 -2.3271
 1688SOL    MW4 6752  -0.006   1.191   3.118  0.3903  0.1358 -0.2249
 1689SOL     OW 6753   0.220   1.345   3.048 -0.3158 -0.0108 -0.1444
 1689SOL    HW2 6754   0.145   1.294   3.080  1.4916 -1.9773  1.1465
 1689SOL    HW3 6755   0.227   1.322   2.955  0.8810 -2.7558  0.5658
 1689SOL    MW4 6756   0.211   1.335   3.040  0.0806 -0.6324  0.1196
 1690SOL     OW 6757   0.239   1.601   3.104  0.7615  0.4072  0.5328
 1690SOL    HW2 6758   0.169   1.640   3.051  1.3107  0.6870  0.0036
 1690SOL    HW3 6759   0.234   1.507   3.084  1.1615  0.5453 -0.2688
 1690SOL    MW4 6760   0.229   1.594   3.094  0.8867  0.4623  0.3572
 1691SOL     OW 6761   0.008   1.710   2.990  0.1081  0.4171  0.0915
 1691SOL    HW2 6762  -0.051   1.657   3.044  0.2805  0.6341  0.4948
 1691SOL    HW3 6763  -0.004   1.799   3.022  0.6437  0.4637  0.1649
 1691SOL    MW4 6764  -0.002   1.715   3.001  0.2015  0.4519  0.1544
 1692SOL     OW 6765   0.024   1.946   3.147  0.6265 -0.1490 -0.0200
 1692SOL    HW2 6766  -0.052   2.001   3.132  0.9879 -0.2240 -2.2724
 1692SOL    HW3 6767   0.096   1.992   3.103  1.6990 -0.5612  1.2601
 1692SOL    MW4 6768   0.024   1.959   3.139  0.8157 -0.2133 -0.1483
 1693SOL     OW 6769   0.207   2.087   3.011 -0.2449  0.0958 -0.6954
 1693SOL    HW2 6770   0.208   2.180   3.033 -1.2733  0.6033 -2.6368
 1693SOL    HW3 6771   0.210   2.085   2.915  0.3255 -1.8870 -0.6571
 1693SOL    MW4 6772   0.208   2.099   3.001 -0.3053 -0.0989 -0.9465
 1694SOL     OW 6773   0.233   2.357   3.090 -0.3414  0.0484 -0.0432
 1694SOL    HW2 6774   0.251   2.364   3.184 -0.7378 -2.1081  0.2115
 1694SOL    HW3 6775   0.313   2.389   3.048  0.4430 -0.4951  1.0256
 1694SOL    MW4 6776   0.246   2.362   3.097 -0.2902 -0.3078  0.1314
 1695SOL     OW 6777   4.484   2.488   3.007  0.2766 -0.2524  0.1940
 1695SOL    HW2 6778   4.485   2.576   3.043  0.3193 -0.3027  0.3165
 1695SOL    HW3 6779   4.562   2.446   3.044 -0.7035 -0.9043  1.5313
 1695SOL    MW4 6780   4.495   2.494   3.017  0.1529 -0.3450  0.3866
 1696SOL     OW 6781   0.016   2.725   3.158 -0.3866 -0.4219  0.3048
 1696SOL    HW2 6782   0.025   2.738   3.253  0.2696  0.1303  0.1663
 1696SOL    HW3 6783   0.096   2.762   3.121 -2.0250  2.1870 -0.7201
 1696SOL    MW4 6784   0.028   2.732   3.166 -0.5162 -0.0049  0.1513
 1697SOL     OW 6785   0.224   2.823   3.006  0.4555 -0.4338  0.2836
 1697SOL    HW2 6786   0.308   2.808   3.049  0.7753 -2.2215 -0.9033
 1697SOL    HW3 6787   0.241   2.810   2.913 -0.5798  1.7828 -0.2603
 1697SOL    MW4 6788   0.237   2.819   2.999  0.3611 -0.3772  0.0552
 1698SOL     OW 6789   0.188   3.107   3.100  0.2410 -0.8885  0.3365
 1698SOL    HW2 6790   0.109   3.152   3.070 -0.8592 -2.4011  0.8860
 1698SOL    HW3 6791   0.184   3.021   3.060  3.5304  0.2016 -2.5974
 1698SOL    MW4 6792   0.177   3.102   3.091  0.5299 -0.9443  0.0219
 1699SOL     OW 6793   4.450   3.261   3.028 -0.2227 -0.3106  0.3565
 1699SOL    HW2 6794   4.378   3.213   3.069 -0.8583  0.4452  0.1637
 1699SOL    HW3 6795   4.435   3.251   2.934 -0.0458 -0.2053  0.3171
 1699SOL    MW4 6796   4.438   3.254   3.021 -0.2832 -0.1970  0.3258
 1700SOL     OW 6797   4.443   3.518   3.111 -0.0335  0.5850 -0.0140
 1700SOL    HW2 6798   4.378   3.571   3.064 -0.2525  0.2078 -0.1354
 1700SOL    HW3 6799   4.433   3.430   3.074 -0.3711  0.2335  0.9048
 1700SOL    MW4 6800   4.433   3.514   3.100 -0.1069  0.4889  0.0912
 1701SOL     OW 6801   0.213   3.619   3.039  0.1796  0.2512  0.1487
 1701SOL    HW2 6802   0.209   3.708   3.074 -0.9067  0.5491 -0.6954
 1701SOL    HW3 6803   0.129   3.579   3.064  0.4930 -0.3992  0.1759
 1701SOL    MW4 6804   0.201   3.625   3.047  0.0776  0.2047  0.0409
 1702SOL     OW 6805   0.186   3.881   3.126 -0.3705  0.4224  0.0903
 1702SOL    HW2 6806   0.208   3.855   3.216  2.8255  0.2616 -0.6584
 1702SOL    HW3 6807   0.263   3.930   3.097 -1.5229  0.7937 -2.4443
 1702SOL    MW4 6808   0.199   3.884   3.134 -0.1009  0.4502 -0.3429
 1703SOL     OW 6809   4.460   4.033   3.028  0.0005  0.0653  0.1256
 1703SOL    HW2 6810   4.527   3.968   3.049  1.2300  1.1092 -0.4485
 1703SOL    HW3 6811   4.459   4.038   2.933 -0.2253  0.7340  0.1560
 1703SOL    MW4 6812   4.469   4.025   3.018  0.1329  0.2913  0.0539
 1704SOL     OW 6813   0.003   4.271   3.154 -0.3164 -0.2782 -0.2721
 1704SOL    HW2 6814   0.021   4.264   3.248 -0.1650  0.6275 -0.2264
 1704SOL    HW3 6815   0.002   4.181   3.123  2.6117 -0.4512  0.0545
 1704SOL    MW4 6816   0.005   4.259   3.163  0.0899 -0.1815 -0.2230
 1705SOL     OW 6817   0.169   4.410   2.997 -0.2971  0.2258 -0.0436
 1705SOL    HW2 6818   0.103   4.372   3.054  1.5419 -1.8597  0.7777
 1705SOL    HW3 6819   0.196   4.491   3.041 -0.5321 -0.1961  0.8925
 1705SOL    MW4 6820   0.164   4.416   3.010 -0.0854 -0.1050  0.1883
 1706SOL     OW 6821   0.679   0.025   3.108 -0.4577  0.5598  0.4072
 1706SOL    HW2 6822   0.658  -0.068   3.099  1.3735  0.1341  0.4525
 1706SOL    HW3 6823   0.603   0.069   3.070 -1.0032 -0.9580 -0.3449
 1706SOL    MW4 6824   0.666   0.018   3.102 -0.2880  0.3034  0.3139
 1707SOL     OW 6825   0.439   0.140   3.024  0.0481 -0.2294  0.1163
 1707SOL    HW2 6826   0.449   0.228   3.059  1.2902 -0.5357  0.5514
 1707SOL    HW3 6827   0.366   0.103   3.074 -0.6651  0.6424 -0.2666
 1707SOL    MW4 6828   0.430   0.147   3.035  0.1179 -0.1548  0.1232
 1708SOL     OW 6829   0.455   0.406   3.135 -0.2729  0.5360  0.2140
 1708SOL    HW2 6830   0.468   0.400   3.229  0.1164 -0.5781  0.0994
 1708SOL    HW3 6831   0.537   0.443   3.102  0.7037 -1.7016  0.0326
 1708SOL    MW4 6832   0.467   0.410   3.143 -0.0927  0.0938  0.1750
 1709SOL     OW 6833   0.695   0.529   3.063  0.2058  0.4561 -0.0476
 1709SOL    HW2 6834   0.770   0.479   3.095 -0.6930 -0.9740 -0.1266
 1709SOL    HW3 6835   0.711   0.618   3.092  1.3667 -0.0631  0.9402
 1709SOL    MW4 6836   0.707   0.534   3.071  0.2404  0.1989  0.0723
 1710SOL     OW 6837   0.692   0.791   3.145  0.0450 -0.3283  0.1030
 1710SOL    HW2 6838   0.675   0.770   3.236 -0.3024 -0.2773  0.0502
 1710SOL    HW3 6839   0.615   0.840   3.116 -1.2138 -2.8333 -1.0285
 1710SOL    MW4 6840   0.680   0.794   3.153 -0.1669 -0.6521 -0.0533
 1711SOL     OW 6841   0.437   0.917   3.065 -0.2280 -0.0611  0.0158
 1711SOL    HW2 6842   0.374   0.852   3.096 -1.7151  1.0919 -0.5293
 1711SOL    HW3 6843   0.432   0.913   2.970  1.0422 -0.4325 -0.0524
 1711SOL    MW4 6844   0.428   0.908   3.057 -0.2566  0.0420 -0.0651
 1712SOL     OW 6845   0.426   1.181   3.156  0.0079 -0.0136 -0.2396
 1712SOL    HW2 6846   0.419   1.094   3.118 -1.1767 -0.1453  0.2595
 1712SOL    HW3 6847   0.346   1.226   3.128 -2.1280 -0.9079  4.0504
 1712SOL    MW4 6848   0.415   1.176   3.147 -0.4302 -0.1490  0.3923
 1713SOL     OW 6849   0.635   1.321   3.013  0.4925  0.3195 -1.1913
 1713SOL    HW2 6850   0.712   1.274   3.043 -0.3883 -0.9928 -0.9619
 1713SOL    HW3 6851   0.561   1.276   3.055 -0.4998  0.6520 -2.5402
 1713SOL    MW4 6852   0.635   1.309   3.022  0.2454  0.1903 -1.3390
 1714SOL     OW 6853   0.672   1.552   3.140 -0.1202  0.1656 -0.1632
 1714SOL    HW2 6854   0.674   1.543   3.235  0.8067 -0.1541 -0.2077
 1714SOL    HW3 6855   0.649   1.465   3.108 -0.5789  0.3099 -0.2257
 1714SOL    MW4 6856   0.669   1.539   3.148 -0.0584  0.1425 -0.1773
 1715SOL     OW 6857   0.482   1.709   3.023  0.4203 -0.4922  0.3729
 1715SOL    HW2 6858   0.557   1.660   3.056  0.1886 -1.3602 -0.3577
 1715SOL    HW3 6859   0.406   1.660   3.055  0.1898 -0.9323 -0.8094
 1715SOL    MW4 6860   0.481   1.696   3.031  0.3593 -0.6648  0.1205
 1716SOL     OW 6861   0.436   1.966   3.122  0.0079  0.0325  0.0713
 1716SOL    HW2 6862   0.436   1.882   3.077 -0.1098 -0.0874  0.2964
 1716SOL    HW3 6863   0.359   2.012   3.087  1.8619  1.3512 -2.4904
 1716SOL    MW4 6864   0.426   1.961   3.111  0.2370  0.1906 -0.2369
 1717SOL     OW 6865   0.678   2.071   3.007 -0.0231  0.1761  0.2855
 1717SOL    HW2 6866   0.755   2.035   3.052  0.2023  0.7122  0.3262
 1717SOL    HW3 6867   0.604   2.033   3.055  0.2145  0.3035  0.7592
 1717SOL    MW4 6868   0.678   2.061   3.019  0.0380  0.2636  0.3534
 1718SOL     OW 6869   0.658   2.324   3.103  0.3000 -0.0365  0.4174
 1718SOL    HW2 6870   0.649   2.339   3.197  0.1257 -0.7237  0.5093
 1718SOL    HW3 6871   0.669   2.230   3.095  0.8432  0.0769 -0.2117
 1718SOL    MW4 6872   0.658   2.314   3.114  0.3487 -0.1122  0.3465
 1719SOL     OW 6873   0.462   2.505   3.014  0.2728  0.1950 -0.2436
 1719SOL    HW2 6874   0.526   2.450   3.059  0.3973  0.4275 -0.1339
 1719SOL    HW3 6875   0.471   2.481   2.922 -1.2850 -1.6136  0.0456
 1719SOL    MW4 6876   0.472   2.495   3.008  0.0837 -0.0129 -0.1910
 1720SOL     OW 6877   0.476   2.760   3.116  0.0208  0.6023 -0.0628
 1720SOL    HW2 6878   0.556   2.797   3.079  0.0812 -0.2651 -0.8155
 1720SOL    HW3 6879   0.476   2.669   3.086 -1.3574  0.6632 -0.2501
 1720SOL    MW4 6880   0.487   2.753   3.107 -0.1530  0.4959 -0.1868
 1721SOL     OW 6881   0.739   2.842   3.019  0.4083 -0.0618  0.2709
 1721SOL    HW2 6882   0.806   2.785   3.057  0.2917  0.4804  1.2864
 1721SOL    HW3 6883   0.746   2.924   3.067  0.4839  0.7563 -1.1072
 1721SOL    MW4 6884   0.749   2.845   3.030  0.4029  0.1177  0.2230
 1722SOL     OW 6885   0.707   3.079   3.147 -0.0583 -0.1357  0.1985
 1722SOL    HW2 6886   0.716   3.100   3.240  1.0284  0.7327 -0.0887
 1722SOL    HW3 6887   0.618   3.106   3.124 -0.2415 -0.1249  0.9347
 1722SOL    MW4 6888   0.696   3.086   3.156  0.0609 -0.0197  0.2577
 1723SOL     OW 6889   0.455   3.171   3.058  0.2529 -0.3728  0.0771
 1723SOL    HW2 6890   0.459   3.267   3.061  1.6421 -0.4400  0.5176
 1723SOL    HW3 6891   0.363   3.151   3.072 -0.0379  0.9027  0.0605
 1723SOL    MW4 6892   0.443   3.181   3.060  0.3978 -0.2134  0.1331
 1724SOL     OW 6893   0.451   3.451   3.089 -0.0699 -0.1057 -0.0416
 1724SOL    HW2 6894   0.446   3.462   3.184 -0.0577 -1.0540  0.0677
 1724SOL    HW3 6895   0.373   3.496   3.056  0.2423  0.7511  0.3665
 1724SOL    MW4 6896   0.440   3.459   3.097 -0.0271 -0.1177  0.0267
 1725SOL     OW 6897   0.674   3.616   3.019 -0.0657 -0.2872 -0.0550
 1725SOL    HW2 6898   0.746   3.574   3.066  0.3350  0.4813  0.0235
 1725SOL    HW3 6899   0.597   3.564   3.042  0.3424 -0.6752  0.4458
 1725SOL    MW4 6900   0.674   3.604   3.028  0.0410 -0.2370  0.0214
 1726SOL     OW 6901   0.695   3.874   3.102  0.4105 -0.1703  0.0320
 1726SOL    HW2 6902   0.676   3.869   3.196 -0.4689  2.8541  0.0707
 1726SOL    HW3 6903   0.679   3.785   3.069 -0.8825 -0.8653  2.4407
 1726SOL    MW4 6904   0.691   3.861   3.110  0.1239  0.1370  0.3549
 1727SOL     OW 6905   0.420   3.989   3.033  0.0483  0.4892  0.2647
 1727SOL    HW2 6906   0.509   3.970   3.062  0.5569  1.6547 -0.5052
 1727SOL    HW3 6907   0.421   3.972   2.939 -0.1158  2.0155 -0.0219
 1727SOL    MW4 6908   0.432   3.984   3.024  0.0937  0.8444  0.1253
 1728SOL     OW 6909   0.404   4.260   3.099  0.2020  0.0755 -0.2896
 1728SOL    HW2 6910   0.407   4.182   3.042 -0.2137  0.4378 -0.8110
 1728SOL    HW3 6911   0.325   4.307   3.071  0.7874  1.0042 -0.3944
 1728SOL    MW4 6912   0.394   4.256   3.088  0.2244  0.2459 -0.3722
 1729SOL     OW 6913   0.621   4.428   3.064 -0.2479  0.1672 -0.2845
 1729SOL    HW2 6914   0.545   4.372   3.079 -0.2853  0.2473 -0.1682
 1729SOL    HW3 6915   0.645   4.413   2.972 -0.1796 -0.1321 -0.2181
 1729SOL    MW4 6916   0.614   4.419   3.054 -0.2438  0.1383 -0.2604
 1730SOL     OW 6917   1.123   4.664   3.164 -0.1180  0.1043 -0.2335
 1730SOL    HW2 6918   1.199   4.709   3.126 -1.1082 -0.0491 -2.4537
 1730SOL    HW3 6919   1.048   4.701   3.119 -1.1943 -1.4008  0.2867
 1730SOL    MW4 6920   1.123   4.674   3.153 -0.3906 -0.1145 -0.4578
 1731SOL     OW 6921   0.925   0.110   3.006 -0.4892 -0.7638 -0.2639
 1731SOL    HW2 6922   0.919   0.202   3.033 -0.1403 -0.6925 -0.4257
 1731SOL    HW3 6923   0.849   0.068   3.047 -0.9564 -0.2878 -0.6283
 1731SOL    MW4 6924   0.914   0.117   3.015 -0.5048 -0.6916 -0.3333
 1732SOL     OW 6925   0.913   0.365   3.112  0.1184  0.1552 -0.0430
 1732SOL    HW2 6926   0.921   0.347   3.205 -0.1175 -1.1025 -0.2593
 1732SOL    HW3 6927   0.990   0.419   3.091  1.0879 -0.9830  0.5276
 1732SOL    MW4 6928   0.924   0.370   3.121  0.2152 -0.1609  0.0037
 1733SOL     OW 6929   1.130   0.486   3.014  0.3121  0.1018 -0.2914
 1733SOL    HW2 6930   1.209   0.452   3.056  1.7174  2.0973 -1.2751
 1733SOL    HW3 6931   1.146   0.475   2.920 -0.5851  0.5185 -0.4971
 1733SOL    MW4 6932   1.143   0.480   3.007  0.3791  0.4200 -0.4483
 1734SOL     OW 6933   1.135   0.777   3.092  0.1615  0.4315  0.0423
 1734SOL    HW2 6934   1.122   0.777   3.187  1.2667 -0.0865  0.2087
 1734SOL    HW3 6935   1.140   0.684   3.068 -0.8280  0.5499 -0.6300
 1734SOL    MW4 6936   1.134   0.765   3.101  0.1768  0.3788 -0.0245
 1735SOL     OW 6937   0.918   0.932   2.994  0.0560 -0.5848  0.1537
 1735SOL    HW2 6938   0.996   0.877   3.001 -0.5171 -1.2624  1.2499
 1735SOL    HW3 6939   0.852   0.888   3.048 -1.2122 -0.2298 -1.0701
 1735SOL    MW4 6940   0.919   0.919   3.002 -0.1869 -0.6274  0.1369
 1736SOL     OW 6941   0.870   1.203   3.075 -0.0521  0.2857  0.4786
 1736SOL    HW2 6942   0.939   1.262   3.043  0.9767 -1.0869  0.1165
 1736SOL    HW3 6943   0.896   1.117   3.044 -1.2910 -0.4474  1.4251
 1736SOL    MW4 6944   0.883   1.200   3.066 -0.0798  0.0079  0.5557
 1737SOL     OW 6945   1.115   1.324   3.000 -0.1647 -0.5142  0.1254
 1737SOL    HW2 6946   1.175   1.263   3.044 -0.5122 -0.3140  0.8791
 1737SOL    HW3 6947   1.133   1.311   2.906  1.2943 -0.2087  0.3479
 1737SOL    MW4 6948   1.126   1.314   2.993 -0.0181 -0.4475  0.2542
 1738SOL     OW 6949   1.114   1.587   3.112  0.1731 -0.0779 -0.1644
 1738SOL    HW2 6950   1.186   1.643   3.082  1.3116 -1.0105  0.8134
 1738SOL    HW3 6951   1.130   1.503   3.071  1.0043 -0.9862  1.9594
 1738SOL    MW4 6952   1.126   1.584   3.103  0.4330 -0.3208  0.2448
 1739SOL     OW 6953   0.879   1.706   3.043 -0.0822  0.2316  0.4582
 1739SOL    HW2 6954   0.960   1.665   3.073  0.0200 -0.3839 -0.6157
 1739SOL    HW3 6955   0.810   1.645   3.071  0.0597 -0.6364 -1.0301
 1739SOL    MW4 6956   0.880   1.693   3.051 -0.0500  0.0359  0.1202
 1740SOL     OW 6957   0.930   1.950   3.143  0.1762  0.3843 -0.1357
 1740SOL    HW2 6958   0.918   1.937   3.237  0.1644 -0.7434 -0.2782
 1740SOL    HW3 6959   0.896   1.869   3.104 -0.8839  1.3283 -1.1846
 1740SOL    MW4 6960   0.924   1.938   3.150  0.0348  0.3600 -0.2929
 1741SOL     OW 6961   1.157   2.051   3.048 -0.0791  0.5369  0.1707
 1741SOL    HW2 6962   1.072   2.015   3.074 -0.4316  1.6986  0.6326
 1741SOL    HW3 6963   1.146   2.071   2.955  0.4224 -1.4153 -0.3203
 1741SOL    MW4 6964   1.144   2.049   3.039 -0.0594  0.4326  0.1668
 1742SOL     OW 6965   1.175   2.306   3.134  0.0939  0.1349  0.2306
 1742SOL    HW2 6966   1.088   2.344   3.122  0.0673  0.5487  1.6790
 1742SOL    HW3 6967   1.168   2.218   3.095 -1.6268 -0.6853  2.2775
 1742SOL    MW4 6968   1.163   2.299   3.127 -0.1367  0.0813  0.6917
 1743SOL     OW 6969   0.921   2.402   3.043 -0.4085  0.1724  0.2929
 1743SOL    HW2 6970   0.837   2.373   3.078 -0.6182  0.4899  0.0545
 1743SOL    HW3 6971   0.901   2.430   2.954 -0.3440  1.7240  0.7586
 1743SOL    MW4 6972   0.907   2.402   3.036 -0.4277  0.4190  0.3229
 1744SOL     OW 6973   0.935   2.685   3.122 -0.1183 -0.7563  0.2040
 1744SOL    HW2 6974   0.914   2.691   3.215 -0.3929  0.6063  0.0750
 1744SOL    HW3 6975   0.939   2.591   3.104 -0.0728 -1.0357  1.5814
 1744SOL    MW4 6976   0.932   2.674   3.132 -0.1485 -0.6134  0.3687
 1745SOL     OW 6977   1.151   2.829   3.018 -0.1255  0.0448 -0.0810
 1745SOL    HW2 6978   1.136   2.917   3.052  1.4879  0.0665  0.6290
 1745SOL    HW3 6979   1.080   2.776   3.054 -0.0461  0.6651  0.9832
 1745SOL    MW4 6980   1.140   2.834   3.027  0.0978  0.1295  0.1531
 1746SOL     OW 6981   1.083   3.081   3.113  0.5508  0.1395 -0.2464
 1746SOL    HW2 6982   1.164   3.123   3.086 -0.1203  0.9726 -1.0296
 1746SOL    HW3 6983   1.014   3.136   3.074 -0.3941 -0.1366  1.0224
 1746SOL    MW4 6984   1.084   3.094   3.104  0.3376  0.2130 -0.1823
 1747SOL     OW 6985   0.883   3.249   3.031  0.5432  0.1854 -0.6295
 1747SOL    HW2 6986   0.818   3.194   3.074  2.7662 -0.3578  2.2131
 1747SOL    HW3 6987   0.870   3.233   2.938 -1.3353 -2.2717 -0.0030
 1747SOL    MW4 6988   0.873   3.240   3.025  0.5887 -0.2104 -0.1718
 1748SOL     OW 6989   0.891   3.497   3.162 -0.1377 -0.3237  0.0483
 1748SOL    HW2 6990   0.967   3.546   3.131 -0.5546 -0.6732 -1.5490
 1748SOL    HW3 6991   0.885   3.421   3.103 -1.7128 -0.3055  0.1651
 1748SOL    MW4 6992   0.900   3.493   3.150 -0.4005 -0.3674 -0.1470
 1749SOL     OW 6993   1.091   3.633   3.035  0.1870  0.1141 -0.2738
 1749SOL    HW2 6994   1.175   3.595   3.059  0.3517 -0.0018 -1.0390
 1749SOL    HW3 6995   1.104   3.728   3.042  0.5220  0.1108 -0.8628
 1749SOL    MW4 6996   1.103   3.641   3.039  0.2529  0.0983 -0.4524
 1750SOL     OW 6997   1.104   3.909   3.076  0.3852  0.5811 -0.1597
 1750SOL    HW2 6998   1.092   3.909   3.171  0.5636 -0.3109 -0.1262
 1750SOL    HW3 6999   1.030   3.958   3.041 -1.1267 -1.3555  0.2738
 1750SOL    MW4 7000   1.093   3.915   3.084  0.2093  0.2079 -0.0981
 1751SOL     OW 7001   0.895   4.053   3.021 -0.3115  0.3159  0.1440
 1751SOL    HW2 7002   0.824   3.992   3.041  0.8707 -1.1403  0.0111
 1751SOL    HW3 7003   0.903   4.049   2.925 -1.0184  1.5960  0.0257
 1751SOL    MW4 7004   0.887   4.044   3.011 -0.2488  0.2927  0.1109
 1752SOL     OW 7005   0.865   4.301   3.144 -0.3960  0.0255 -0.4636
 1752SOL    HW2 7006   0.845   4.216   3.104  1.7535 -0.5793 -0.3215
 1752SOL    HW3 7007   0.791   4.357   3.120 -1.3801 -1.6226 -1.3620
 1752SOL    MW4 7008   0.853   4.297   3.135 -0.2423 -0.2717 -0.5634
 1753SOL     OW 7009   1.103   4.398   3.033  0.3520 -0.4701 -0.2797
 1753SOL    HW2 7010   1.035   4.342   3.070 -0.2981  0.3841 -0.1882
 1753SOL    HW3 7011   1.083   4.486   3.064  1.3668 -0.1691 -0.4348
 1753SOL    MW4 7012   1.092   4.402   3.042  0.4001 -0.3177 -0.2881
 1754SOL     OW 7013   1.586   4.667   3.066  0.0657  0.1044 -0.6045
 1754SOL    HW2 7014   1.596   4.667   3.161 -0.5364  0.2684 -0.5414
 1754SOL    HW3 7015   1.508   4.720   3.050 -0.6705 -1.0915 -1.0994
 1754SOL    MW4 7016   1.577   4.674   3.077 -0.1109 -0.0318 -0.6615
 1755SOL     OW 7017   1.350   0.120   3.025  0.1441  0.3857 -0.2513
 1755SOL    HW2 7018   1.337   0.215   3.030 -1.0582  0.2285 -0.3805
 1755SOL    HW3 7019   1.346   0.101   2.931 -0.8959  0.0296 -0.1355
 1755SOL    MW4 7020   1.348   0.130   3.013 -0.1517  0.3180 -0.2530
 1756SOL     OW 7021   1.362   0.389   3.127 -0.0299 -0.0340 -0.1205
 1756SOL    HW2 7022   1.361   0.399   3.222 -2.0386 -1.8380  0.0874
 1756SOL    HW3 7023   1.440   0.437   3.099  0.6948  0.3790  2.4384
 1756SOL    MW4 7024   1.372   0.397   3.136 -0.1993 -0.2175  0.2445
 1757SOL     OW 7025   1.597   0.493   3.014 -0.0746 -0.4386 -0.4957
 1757SOL    HW2 7026   1.600   0.587   3.031 -1.2311 -0.4462 -0.2527
 1757SOL    HW3 7027   1.586   0.486   2.919  0.0265 -0.3300 -0.5152
 1757SOL    MW4 7028   1.596   0.504   3.003 -0.2139 -0.4253 -0.4662
 1758SOL     OW 7029   1.615   0.767   3.108 -0.3399 -0.1804  0.5230
 1758SOL    HW2 7030   1.599   0.742   3.199 -0.1535 -1.4197  0.2240
 1758SOL    HW3 7031   1.536   0.814   3.082 -0.6292 -0.3212  1.1401
 1758SOL    MW4 7032   1.603   0.770   3.116 -0.3535 -0.3625  0.5650
 1759SOL     OW 7033   1.368   0.884   3.016 -0.3771 -0.1828 -0.4221
 1759SOL    HW2 7034   1.336   0.974   3.020 -0.3221 -0.1990  0.4579
 1759SOL    HW3 7035   1.296   0.831   3.050 -0.2623 -0.4352 -0.5687
 1759SOL    MW4 7036   1.354   0.888   3.021 -0.3547 -0.2182 -0.3254
 1760SOL     OW 7037   1.303   1.158   3.101  0.0491 -0.2213 -0.0393
 1760SOL    HW2 7038   1.293   1.138   3.194 -1.7816  0.0014 -0.1668
 1760SOL    HW3 7039   1.385   1.208   3.096  0.0196  0.0147  1.4810
 1760SOL    MW4 7040   1.313   1.162   3.113 -0.1963 -0.1608  0.1445
 1761SOL     OW 7041   1.555   1.254   3.019  0.2470 -0.2662 -0.3926
 1761SOL    HW2 7042   1.643   1.219   3.033  0.1582 -0.6489 -0.7637
 1761SOL    HW3 7043   1.558   1.342   3.055  0.4918 -0.6413  0.5325
 1761SOL    MW4 7044   1.567   1.261   3.026  0.2675 -0.3661 -0.3195
 1762SOL     OW 7045   1.554   1.502   3.131  0.2810 -0.2994 -0.4298
 1762SOL    HW2 7046   1.636   1.535   3.093  0.4777 -1.5648 -1.0975
 1762SOL    HW3 7047   1.486   1.559   3.095  0.5052 -1.2446 -2.3794
 1762SOL    MW4 7048   1.556   1.514   3.121  0.3365 -0.5910 -0.7751
 1763SOL     OW 7049   1.355   1.685   3.040  0.5711  0.4813  0.6033
 1763SOL    HW2 7050   1.374   1.765   3.089 -2.3734  0.9900  1.0408
 1763SOL    HW3 7051   1.357   1.713   2.948  0.1169  0.9280  0.7281
 1763SOL    MW4 7052   1.358   1.699   3.034  0.1227  0.6074  0.6775
 1764SOL     OW 7053   1.391   1.929   3.167  0.2853 -0.3348  0.3156
 1764SOL    HW2 7054   1.381   1.946   3.260  0.2386  0.6130  0.1456
 1764SOL    HW3 7055   1.306   1.954   3.129  0.4383 -0.3361 -0.0272
 1764SOL    MW4 7056   1.378   1.935   3.174  0.2994 -0.2099  0.2479
 1765SOL     OW 7057   1.583   2.073   3.039  0.0833 -0.2042 -0.4254
 1765SOL    HW2 7058   1.509   2.014   3.057 -0.2297  0.1375 -0.5785
 1765SOL    HW3 7059   1.592   2.070   2.944  1.1151 -1.2609 -0.3032
 1765SOL    MW4 7060   1.574   2.064   3.029  0.1781 -0.2986 -0.4294
 1766SOL     OW 7061   1.584   2.325   3.148 -0.1070 -0.1039 -0.3965
 1766SOL    HW2 7062   1.506   2.360   3.107 -0.5401 -0.2048  0.3198
 1766SOL    HW3 7063   1.589   2.234   3.117  0.1396  0.1218 -1.0193
 1766SOL    MW4 7064   1.574   2.317   3.139 -0.1316 -0.0874 -0.3841
 1767SOL     OW 7065   1.373   2.463   3.027 -0.6586 -0.4957 -0.1467
 1767SOL    HW2 7066   1.293   2.421   3.057 -0.0080 -1.4389  0.2735
 1767SOL    HW3 7067   1.370   2.453   2.932 -1.3951  0.1281 -0.1991
 1767SOL    MW4 7068   1.362   2.457   3.018 -0.6700 -0.5378 -0.0982
 1768SOL     OW 7069   1.352   2.714   3.158  0.2780 -0.0665 -0.0933
 1768SOL    HW2 7070   1.367   2.633   3.109 -2.8132 -0.5811 -0.3253
 1768SOL    HW3 7071   1.281   2.757   3.111  1.2652  2.3465  0.5732
 1768SOL    MW4 7072   1.344   2.709   3.145  0.0004  0.1840 -0.0360
 1769SOL     OW 7073   1.555   2.881   3.038  0.3825  0.2304  0.6510
 1769SOL    HW2 7074   1.633   2.827   3.052 -0.4096 -0.7842  1.2670
 1769SOL    HW3 7075   1.486   2.837   3.088 -0.9142  0.3537 -0.9874
 1769SOL    MW4 7076   1.556   2.868   3.047  0.1069  0.1128  0.5161
 1770SOL     OW 7077   1.576   3.151   3.093  0.0181 -0.3109 -0.2699
 1770SOL    HW2 7078   1.572   3.145   3.188  2.1291  0.6630 -0.1040
 1770SOL    HW3 7079   1.578   3.060   3.063 -0.0291 -0.6055  0.6285
 1770SOL    MW4 7080   1.576   3.138   3.101  0.2904 -0.2212 -0.1295
 1771SOL     OW 7081   1.316   3.204   3.018 -0.1082 -0.4208 -0.0428
 1771SOL    HW2 7082   1.408   3.183   3.035 -0.5042 -1.8588  0.3311
 1771SOL    HW3 7083   1.308   3.199   2.922  0.4239  0.7043 -0.1631
 1771SOL    MW4 7084   1.327   3.201   3.007 -0.0902 -0.4621 -0.0093
 1772SOL     OW 7085   1.340   3.496   3.091 -0.1303 -0.2079  0.0608
 1772SOL    HW2 7086   1.340   3.486   3.186  0.7603 -0.9667 -0.0059
 1772SOL    HW3 7087   1.337   3.406   3.058 -1.2362  0.0779 -0.6350
 1772SOL    MW4 7088   1.340   3.482   3.099 -0.1587 -0.2703 -0.0398
 1773SOL     OW 7089   1.585   3.636   3.029  0.1430 -0.1578 -0.0580
 1773SOL    HW2 7090   1.512   3.575   3.040 -1.6633  1.6541 -1.3121
 1773SOL    HW3 7091   1.587   3.653   2.934  1.6935  0.4299  0.0677
 1773SOL    MW4 7092   1.575   3.631   3.018  0.1092  0.1588 -0.2069
 1774SOL     OW 7093   1.541   3.898   3.137  0.1201 -0.6363  0.7002
 1774SOL    HW2 7094   1.621   3.943   3.110 -1.1741  1.0957 -0.3409
 1774SOL    HW3 7095   1.560   3.805   3.123  1.3272 -0.1123 -1.2705
 1774SOL    MW4 7096   1.554   3.891   3.131  0.1086 -0.3386  0.3028
 1775SOL     OW 7097   1.333   4.056   3.019 -0.4282 -0.7118 -0.1207
 1775SOL    HW2 7098   1.407   4.009   3.057 -0.5977 -0.0256  1.0687
 1775SOL    HW3 7099   1.257   4.005   3.045 -0.4590 -0.8261 -0.4355
 1775SOL    MW4 7100   1.333   4.043   3.027 -0.4546 -0.6363 -0.0053
 1776SOL     OW 7101   1.350   4.315   3.131  0.3980 -0.3188 -0.1951
 1776SOL    HW2 7102   1.349   4.224   3.102  1.7512 -0.3747 -0.1017
 1776SOL    HW3 7103   1.275   4.355   3.087  0.2209 -1.3093 -0.8075
 1776SOL    MW4 7104   1.340   4.308   3.121  0.5532 -0.4568 -0.2636
 1777SOL     OW 7105   1.586   4.391   3.032  0.1273 -0.2868 -0.1163
 1777SOL    HW2 7106   1.503   4.360   3.069  0.3501 -0.9918 -0.2009
 1777SOL    HW3 7107   1.580   4.486   3.036 -0.6423 -0.3373 -0.0180
 1777SOL    MW4 7108   1.574   4.399   3.037  0.0551 -0.3865 -0.1145
 1778SOL     OW 7109   2.051   4.648   3.099 -0.2214 -0.0443 -0.1534
 1778SOL    HW2 7110   2.047   4.655   3.195 -1.7546  0.9368 -0.2755
 1778SOL    HW3 7111   1.971   4.691   3.069  0.8276  0.6874 -1.9351
 1778SOL    MW4 7112   2.040   4.655   3.108 -0.2853  0.1817 -0.4046
 1779SOL     OW 7113   1.828   0.109   3.002 -0.1131  0.0374  0.4723
 1779SOL    HW2 7114   1.746   0.069   3.031  0.0824  0.1709  1.2245
 1779SOL    HW3 7115   1.826   0.103   2.907 -0.9586 -0.0308  0.4980
 1779SOL    MW4 7116   1.817   0.103   2.994 -0.1989  0.0460  0.5749
 1780SOL     OW 7117   1.819   0.370   3.119  0.1490  0.0163 -0.2265
 1780SOL    HW2 7118   1.826   0.287   3.072  1.3156 -0.6301  1.0636
 1780SOL    HW3 7119   1.744   0.415   3.078  0.4192 -1.0311 -1.8889
 1780SOL    MW4 7120   1.810   0.365   3.108  0.3386 -0.2072 -0.2756
 1781SOL     OW 7121   2.040   0.516   3.015 -0.1127 -0.1235 -0.2303
 1781SOL    HW2 7122   1.966   0.466   3.048  0.4539 -1.4458 -0.9158
 1781SOL    HW3 7123   2.022   0.529   2.922  0.3577 -0.1744 -0.3325
 1781SOL    MW4 7124   2.028   0.511   3.007  0.0241 -0.3047 -0.3343
 1782SOL     OW 7125   2.032   0.782   3.096  0.0909 -0.1490 -1.0964
 1782SOL    HW2 7126   1.958   0.820   3.049 -0.8569 -0.3013  0.2505
 1782SOL    HW3 7127   2.026   0.688   3.079 -1.2399 -0.4049  0.6684
 1782SOL    MW4 7128   2.022   0.775   3.087 -0.2097 -0.2028 -0.6859
 1783SOL     OW 7129   1.829   0.911   2.964  0.2656 -0.1027  0.2826
 1783SOL    HW2 7130   1.756   0.868   3.008 -0.0242  0.8253  0.7244
 1783SOL    HW3 7131   1.809   0.905   2.871  0.5266 -1.4510  0.3060
 1783SOL    MW4 7132   1.817   0.905   2.958  0.2618 -0.1582  0.3439
 1784SOL     OW 7133   1.785   1.136   3.098 -0.3928 -0.2600  0.0565
 1784SOL    HW2 7134   1.812   1.126   3.189  2.2556  0.3707 -0.5965
 1784SOL    HW3 7135   1.791   1.048   3.061  1.1918 -0.0948 -0.1435
 1784SOL    MW4 7136   1.790   1.123   3.105  0.1657 -0.1550 -0.0560
 1785SOL     OW 7137   2.005   1.250   2.979  0.5307  0.0409  0.4242
 1785SOL    HW2 7138   2.088   1.226   3.022  1.2307  0.5187 -0.6524
 1785SOL    HW3 7139   1.943   1.184   3.010  1.3183 -0.3466  1.2206
 1785SOL    MW4 7140   2.008   1.238   2.989  0.7269  0.0528  0.3872
 1786SOL     OW 7141   2.010   1.506   3.088 -0.7329  0.1358 -0.3297
 1786SOL    HW2 7142   1.989   1.495   3.181 -0.5257  1.2326 -0.1422
 1786SOL    HW3 7143   1.992   1.421   3.049  0.0563 -0.6006  0.8794
 1786SOL    MW4 7144   2.005   1.494   3.095 -0.6014  0.1834 -0.1454
 1787SOL     OW 7145   1.780   1.616   2.987 -0.2124 -0.2138 -0.1454
 1787SOL    HW2 7146   1.780   1.707   3.016 -0.6460 -0.9074  2.1341
 1787SOL    HW3 7147   1.865   1.582   3.016 -0.4756 -0.8114 -0.0697
 1787SOL    MW4 7148   1.791   1.623   2.994 -0.3044 -0.3842  0.1653
 1788SOL     OW 7149   1.790   1.889   3.043  0.2829 -0.2760  0.7364
 1788SOL    HW2 7150   1.868   1.939   3.021 -0.3395  0.7240  0.7814
 1788SOL    HW3 7151   1.721   1.955   3.055 -0.1152 -1.0047  2.5979
 1788SOL    MW4 7152   1.791   1.904   3.042  0.1483 -0.2402  0.9880
 1789SOL     OW 7153   2.014   2.041   2.983 -0.0789 -0.0563  0.0551
 1789SOL    HW2 7154   2.084   1.998   3.032 -0.2827 -0.8300 -0.3245
 1789SOL    HW3 7155   2.023   2.134   3.006  2.6206  0.2402 -1.8744
 1789SOL    MW4 7156   2.025   2.048   2.993  0.2504 -0.1192 -0.2496
 1790SOL     OW 7157   2.021   2.325   3.081 -0.1288 -0.0638  0.0899
 1790SOL    HW2 7158   2.097   2.375   3.051 -0.1965 -0.2780 -0.4424
 1790SOL    HW3 7159   1.946   2.383   3.065 -0.5744 -1.4923 -3.4406
 1790SOL    MW4 7160   2.021   2.339   3.075 -0.1966 -0.2805 -0.4461
 1791SOL     OW 7161   1.795   2.477   3.041 -0.2655 -0.2474  0.2248
 1791SOL    HW2 7162   1.795   2.570   3.065  0.3981  0.0044 -0.6891
 1791SOL    HW3 7163   1.720   2.440   3.086  0.1812  0.4809  1.5955
 1791SOL    MW4 7164   1.785   2.485   3.050 -0.1190 -0.1181  0.2851
 1792SOL     OW 7165   1.780   2.740   3.101  0.2628  0.1994  0.1216
 1792SOL    HW2 7166   1.790   2.740   3.196  1.2909  0.8476  0.0156
 1792SOL    HW3 7167   1.858   2.784   3.068  0.1169 -0.3905 -1.0507
 1792SOL    MW4 7168   1.792   2.745   3.109  0.3792  0.2071 -0.0471
 1793SOL     OW 7169   2.032   2.864   3.063  0.1134 -0.1177  0.1846
 1793SOL    HW2 7170   2.028   2.957   3.082 -0.9905 -0.2725  0.7618
 1793SOL    HW3 7171   2.039   2.859   2.968  1.6457  0.5730  0.2403
 1793SOL    MW4 7172   2.033   2.875   3.053  0.1699 -0.0470  0.2681
 1794SOL     OW 7173   2.021   3.133   3.139 -0.4083 -0.9220  0.1591
 1794SOL    HW2 7174   2.010   3.137   3.234  0.4376 -1.9410  0.3082
 1794SOL    HW3 7175   1.948   3.185   3.104  1.2257  2.4153  1.4415
 1794SOL    MW4 7176   2.010   3.141   3.147 -0.0811 -0.6162  0.3480
 1795SOL     OW 7177   1.812   3.277   3.023 -0.2626 -0.3988 -0.3897
 1795SOL    HW2 7178   1.733   3.233   3.055 -0.6120  1.6236  1.6947
 1795SOL    HW3 7179   1.805   3.272   2.928 -2.4834 -0.9871 -0.2383
 1795SOL    MW4 7180   1.800   3.270   3.015 -0.6017 -0.2096 -0.0947
 1796SOL     OW 7181   1.825   3.535   3.157  0.5917 -0.2753  0.3344
 1796SOL    HW2 7182   1.831   3.448   3.117  1.2415 -0.3649  0.6140
 1796SOL    HW3 7183   1.752   3.577   3.112 -0.4769 -1.3856  0.9761
 1796SOL    MW4 7184   1.816   3.529   3.146  0.5365 -0.4336  0.4560
 1797SOL     OW 7185   2.014   3.656   3.010  0.0727  0.0711  0.6120
 1797SOL    HW2 7186   2.029   3.743   3.048  1.0277  0.6154 -0.9956
 1797SOL    HW3 7187   1.937   3.623   3.057  0.0630  1.5264  1.6646
 1797SOL    MW4 7188   2.006   3.663   3.022  0.1974  0.3349  0.5388
 1798SOL     OW 7189   2.051   3.900   3.116 -0.5075  0.1707 -0.4976
 1798SOL    HW2 7190   2.033   3.877   3.207 -1.6541  0.2886 -0.6770
 1798SOL    HW3 7191   1.972   3.946   3.087 -0.5082 -0.6086 -1.7963
 1798SOL    MW4 7192   2.038   3.903   3.124 -0.6589  0.0834 -0.6926
 1799SOL     OW 7193   1.795   3.992   3.054 -0.2114 -0.1741 -0.4555
 1799SOL    HW2 7194   1.804   4.085   3.077 -0.2650  0.3053 -2.3429
 1799SOL    HW3 7195   1.795   3.990   2.959 -0.1600 -2.1323 -0.4404
 1799SOL    MW4 7196   1.797   4.004   3.045 -0.2117 -0.3692 -0.7026
 1800SOL     OW 7197   1.812   4.262   3.137  0.3874  0.2530 -0.2362
 1800SOL    HW2 7198   1.886   4.309   3.098  0.3370  1.1392  0.7294
 1800SOL    HW3 7199   1.735   4.304   3.099  0.3270  1.5790  1.3489
 1800SOL    MW4 7200   1.811   4.273   3.127  0.3728  0.5449  0.1003
 1801SOL     OW 7201   2.012   4.404   3.017 -0.1878  0.1284 -0.8152
 1801SOL    HW2 7202   2.017   4.496   3.043 -0.3360  0.1975 -1.0335
 1801SOL    HW3 7203   2.025   4.404   2.923 -0.1334 -0.0795 -0.8090
 1801SOL    MW4 7204   2.014   4.416   3.008 -0.2002  0.1101 -0.8432
 1802SOL     OW 7205   2.482   4.657   3.106  0.1850  0.4103 -0.2260
 1802SOL    HW2 7206   2.482   4.564   3.083 -0.4484  0.2948  0.2209
 1802SOL    HW3 7207   2.409   4.695   3.057  0.7193  0.7689 -0.7592
 1802SOL    MW4 7208   2.472   4.650   3.097  0.1719  0.4424 -0.2374
 1803SOL     OW 7209   2.259   0.130   3.001  0.4105 -0.0569 -0.5831
 1803SOL    HW2 7210   2.262   0.214   3.047  2.3092 -1.1654  1.4633
 1803SOL    HW3 7211   2.183   0.085   3.038  0.6351 -0.0697 -0.1329
 1803SOL    MW4 7212   2.250   0.135   3.012  0.6906 -0.2049 -0.2537
 1804SOL     OW 7213   2.279   0.398   3.128  0.4419  0.1010 -0.2072
 1804SOL    HW2 7214   2.276   0.375   3.221 -1.0706 -0.7293 -0.4468
 1804SOL    HW3 7215   2.206   0.458   3.116  1.9311  1.8986 -0.4348
 1804SOL    MW4 7216   2.269   0.403   3.139  0.4389  0.2286 -0.2688
 1805SOL     OW 7217   2.495   0.497   2.981 -0.1151  0.0864  0.7065
 1805SOL    HW2 7218   2.424   0.465   3.037 -0.0280 -0.3473  0.5660
 1805SOL    HW3 7219   2.463   0.488   2.892 -0.3643  1.0497  0.6943
 1805SOL    MW4 7220   2.482   0.492   2.977 -0.1365  0.1563  0.6863
 1806SOL     OW 7221   2.516   0.747   3.081  0.5324  0.0271  0.3118
 1806SOL    HW2 7222   2.587   0.796   3.039 -0.6985  0.2459 -1.6111
 1806SOL    HW3 7223   2.518   0.661   3.039 -1.2167  0.5050 -0.8092
 1806SOL    MW4 7224   2.525   0.742   3.070  0.1392  0.1190 -0.0898
 1807SOL     OW 7225   2.271   0.876   3.005 -0.2089  0.3110 -0.2197
 1807SOL    HW2 7226   2.342   0.818   3.034 -2.3689 -2.1808  0.2347
 1807SOL    HW3 7227   2.191   0.834   3.036 -1.9438  2.9514 -0.9312
 1807SOL    MW4 7228   2.270   0.863   3.013 -0.7228  0.3306 -0.2536
 1808SOL     OW 7229   2.259   1.148   3.068 -0.0866  0.3360 -0.2931
 1808SOL    HW2 7230   2.263   1.153   3.164  1.7887  0.6663 -0.3707
 1808SOL    HW3 7231   2.254   1.054   3.050  0.1835  0.2461  0.0971
 1808SOL    MW4 7232   2.259   1.136   3.078  0.1965  0.3677 -0.2518
 1809SOL     OW 7233   2.487   1.293   3.008  0.2874  0.3277 -0.3236
 1809SOL    HW2 7234   2.398   1.257   3.008  1.5900 -3.0636 -0.2259
 1809SOL    HW3 7235   2.510   1.301   2.916  0.5178 -0.5159 -0.3457
 1809SOL    MW4 7236   2.478   1.289   2.996  0.4897 -0.2310 -0.3136
 1810SOL     OW 7237   2.459   1.533   3.108  0.1423 -0.2507  0.0029
 1810SOL    HW2 7238   2.379   1.563   3.064  0.1073 -0.9526 -0.4107
 1810SOL    HW3 7239   2.471   1.444   3.078  1.3448  0.0105 -0.2902
 1810SOL    MW4 7240   2.450   1.525   3.098  0.2963 -0.3089 -0.0903
 1811SOL     OW 7241   2.245   1.658   3.003 -0.4058  0.0964 -0.4559
 1811SOL    HW2 7242   2.164   1.608   3.017 -0.5132  0.3771 -0.0640
 1811SOL    HW3 7243   2.252   1.664   2.908 -0.9092  0.1687 -0.4932
 1811SOL    MW4 7244   2.235   1.652   2.993 -0.4864  0.1430 -0.4091
 1812SOL     OW 7245   2.221   1.911   3.105 -0.0828 -0.4009 -0.0754
 1812SOL    HW2 7246   2.301   1.961   3.088  0.9007 -1.2623  1.8285
 1812SOL    HW3 7247   2.236   1.826   3.062 -0.2098 -0.3635 -0.1940
 1812SOL    MW4 7248   2.234   1.906   3.097  0.0302 -0.5096  0.1601
 1813SOL     OW 7249   2.457   2.042   3.037 -0.0446  0.0609  0.3716
 1813SOL    HW2 7250   2.543   2.016   3.069  0.2551  1.4564  0.7275
 1813SOL    HW3 7251   2.462   2.031   2.942  0.6427  0.4664  0.3594
 1813SOL    MW4 7252   2.469   2.037   3.028  0.0856  0.2986  0.4170
 1814SOL     OW 7253   2.496   2.314   3.118 -0.1545 -0.4728  0.0514
 1814SOL    HW2 7254   2.508   2.310   3.213 -0.4431  0.2330  0.1260
 1814SOL    HW3 7255   2.478   2.224   3.092  0.3467 -0.7400  0.6101
 1814SOL    MW4 7256   2.495   2.302   3.127 -0.1265 -0.4149  0.1349
 1815SOL     OW 7257   2.263   2.439   3.011 -0.4768 -0.0015 -0.1541
 1815SOL    HW2 7258   2.273   2.519   3.064 -1.9739 -1.0935  1.8508
 1815SOL    HW3 7259   2.336   2.384   3.038 -0.0030  0.2903 -0.8255
 1815SOL    MW4 7260   2.274   2.442   3.022 -0.6118 -0.1070  0.0218
 1816SOL     OW 7261   2.242   2.693   3.145  0.0933  0.3797 -0.2058
 1816SOL    HW2 7262   2.323   2.728   3.108 -0.4192  0.3888 -1.3619
 1816SOL    HW3 7263   2.174   2.755   3.115 -0.1950  0.9953  1.6690
 1816SOL    MW4 7264   2.244   2.706   3.136 -0.0124  0.4621 -0.1110
 1817SOL     OW 7265   2.473   2.828   3.038 -0.3674 -0.4820 -0.0403
 1817SOL    HW2 7266   2.457   2.917   3.071  0.9600 -0.3830  0.3399
 1817SOL    HW3 7267   2.471   2.838   2.943 -0.5029 -0.0952  0.0004
 1817SOL    MW4 7268   2.470   2.841   3.030 -0.2102 -0.4179  0.0153
 1818SOL     OW 7269   2.443   3.088   3.121  0.0766  0.2046  0.4909
 1818SOL    HW2 7270   2.525   3.125   3.088 -0.3510  0.1023 -0.7287
 1818SOL    HW3 7271   2.377   3.154   3.100 -0.4320 -0.5099 -0.2070
 1818SOL    MW4 7272   2.445   3.101   3.114 -0.0469  0.0968  0.2379
 1819SOL     OW 7273   2.238   3.262   3.027  0.5450  0.4769  0.3604
 1819SOL    HW2 7274   2.237   3.353   3.058  0.0078  0.1242  1.3917
 1819SOL    HW3 7275   2.162   3.221   3.068  1.7546 -0.8874  1.2870
 1819SOL    MW4 7276   2.228   3.269   3.036  0.6337  0.2504  0.6187
 1820SOL     OW 7277   2.206   3.500   3.155  0.1579 -0.0930 -0.0115
 1820SOL    HW2 7278   2.292   3.526   3.122  0.2614 -0.6876 -0.2197
 1820SOL    HW3 7279   2.144   3.555   3.107  0.2970 -1.0148 -1.2870
 1820SOL    MW4 7280   2.209   3.511   3.144  0.1899 -0.2931 -0.2072
 1821SOL     OW 7281   2.447   3.565   3.053  0.0161 -0.3129 -0.1659
 1821SOL    HW2 7282   2.525   3.514   3.076  0.7274  0.4227 -0.8943
 1821SOL    HW3 7283   2.471   3.655   3.076 -0.1610  0.0866 -1.5307
 1821SOL    MW4 7284   2.461   3.571   3.059  0.0866 -0.1631 -0.4421
 1822SOL     OW 7285   2.485   3.855   3.105 -0.3224 -0.2656  0.1979
 1822SOL    HW2 7286   2.486   3.852   3.201 -0.3149 -1.4011  0.1740
 1822SOL    HW3 7287   2.572   3.889   3.082 -0.2090 -0.2783  0.5897
 1822SOL    MW4 7288   2.497   3.859   3.115 -0.3065 -0.4171  0.2465
 1823SOL     OW 7289   2.295   4.026   3.021 -0.2339  0.0661 -0.0940
 1823SOL    HW2 7290   2.367   3.968   3.049 -1.0613 -1.8902 -1.8653
 1823SOL    HW3 7291   2.218   3.991   3.066 -0.7272 -0.1916 -1.1281
 1823SOL    MW4 7292   2.294   4.014   3.031 -0.4081 -0.2260 -0.4642
 1824SOL     OW 7293   2.258   4.297   3.107 -0.1074 -0.4763 -0.0009
 1824SOL    HW2 7294   2.252   4.208   3.071  0.0216 -0.2937 -0.4738
 1824SOL    HW3 7295   2.178   4.340   3.078 -0.1325 -0.4091  0.1644
 1824SOL    MW4 7296   2.246   4.291   3.099 -0.0937 -0.4433 -0.0415
 1825SOL     OW 7297   2.489   4.390   3.031 -0.2968 -0.3096 -0.1485
 1825SOL    HW2 7298   2.415   4.343   3.069 -0.9889  0.2650 -0.7516
 1825SOL    HW3 7299   2.486   4.368   2.938 -0.8441  1.1666 -0.4997
 1825SOL    MW4 7300   2.479   4.381   3.024 -0.4603 -0.0390 -0.2744
 1826SOL     OW 7301   2.922   4.637   3.162  0.5530 -0.1491 -0.0981
 1826SOL    HW2 7302   2.990   4.673   3.105  1.3322 -0.1655  0.8133
 1826SOL    HW3 7303   2.895   4.556   3.117  0.2040  0.5284 -1.1238
 1826SOL    MW4 7304   2.928   4.631   3.148  0.6097 -0.0619 -0.1132
 1827SOL     OW 7305   2.705   0.106   3.029  0.3456 -0.2218 -0.1229
 1827SOL    HW2 7306   2.768   0.056   3.082 -0.9365 -2.1959 -0.4150
 1827SOL    HW3 7307   2.620   0.070   3.053 -0.5924  1.5969 -0.6280
 1827SOL    MW4 7308   2.702   0.095   3.039  0.0527 -0.2423 -0.2281
 1828SOL     OW 7309   2.684   0.365   3.106  0.7486  0.2082 -0.3910
 1828SOL    HW2 7310   2.697   0.272   3.087 -1.0334 -0.2481  0.6039
 1828SOL    HW3 7311   2.613   0.392   3.047 -0.7940  0.1958  1.4132
 1828SOL    MW4 7312   2.676   0.356   3.095  0.3100  0.1464 -0.0217
 1829SOL     OW 7313   2.913   0.514   3.033  0.0616 -0.3193 -0.0206
 1829SOL    HW2 7314   2.830   0.470   3.053  0.2145 -0.2384  0.8189
 1829SOL    HW3 7315   2.916   0.517   2.938 -1.8322  1.4263 -0.0500
 1829SOL    MW4 7316   2.903   0.508   3.023 -0.1681 -0.0783  0.0863
 1830SOL     OW 7317   2.942   0.767   3.116  0.4604  0.4302 -0.1831
 1830SOL    HW2 7318   2.927   0.766   3.211 -2.9733 -1.9402 -0.6358
 1830SOL    HW3 7319   2.939   0.675   3.090  1.4965  1.0287 -2.6061
 1830SOL    MW4 7320   2.939   0.754   3.125  0.1441  0.1964 -0.5625
 1831SOL     OW 7321   2.725   0.892   2.992 -0.3915  0.2091 -0.0130
 1831SOL    HW2 7322   2.708   0.979   3.026  0.8186  0.2565  0.5171
 1831SOL    HW3 7323   2.798   0.859   3.046 -0.8551 -1.1334 -0.1775
 1831SOL    MW4 7324   2.733   0.899   3.004 -0.2930  0.0382  0.0353
 1832SOL     OW 7325   2.680   1.142   3.131  0.6321 -0.4949 -0.3230
 1832SOL    HW2 7326   2.762   1.183   3.103  0.0769  0.9548  0.1140
 1832SOL    HW3 7327   2.612   1.198   3.093 -0.1397 -1.0442  0.2449
 1832SOL    MW4 7328   2.682   1.155   3.122  0.4570 -0.3761 -0.1904
 1833SOL     OW 7329   2.922   1.269   3.098 -0.3573  0.2288  0.2324
 1833SOL    HW2 7330   3.005   1.224   3.114  0.1312  0.5270 -1.3333
 1833SOL    HW3 7331   2.930   1.352   3.145 -0.5386 -0.5461  1.6457
 1833SOL    MW4 7332   2.934   1.274   3.106 -0.3168  0.1659  0.2123
 1834SOL     OW 7333   2.955   1.541   3.143  0.2591 -0.4246 -0.0544
 1834SOL    HW2 7334   2.974   1.558   3.235  0.8444  1.1667 -0.4531
 1834SOL    HW3 7335   3.029   1.579   3.096 -0.2054 -0.9216 -1.2070
 1834SOL    MW4 7336   2.967   1.548   3.149  0.2750 -0.2802 -0.2591
 1835SOL     OW 7337   2.716   1.666   3.064 -0.1498  0.4924 -0.3481
 1835SOL    HW2 7338   2.792   1.610   3.084  0.4735  0.6305 -2.1947
 1835SOL    HW3 7339   2.641   1.615   3.094  0.3196 -1.9404 -3.0525
 1835SOL    MW4 7340   2.716   1.652   3.070 -0.0056  0.1896 -0.9485
 1836SOL     OW 7341   2.717   1.944   3.101 -0.0731 -0.5594  0.2367
 1836SOL    HW2 7342   2.800   1.975   3.063  0.4431  0.6693  2.2914
 1836SOL    HW3 7343   2.705   1.856   3.064  0.7547  0.3147 -2.1892
 1836SOL    MW4 7344   2.726   1.936   3.091  0.1042 -0.2819  0.1877
 1837SOL     OW 7345   2.977   2.041   3.010  0.0287 -0.1841 -0.1916
 1837SOL    HW2 7346   2.972   2.129   3.047  3.6686  0.2675 -0.6216
 1837SOL    HW3 7347   2.964   2.054   2.916 -0.3268 -0.2446 -0.1535
 1837SOL    MW4 7348   2.975   2.054   3.002  0.4620 -0.1325 -0.2433
 1838SOL     OW 7349   2.943   2.290   3.143  0.4280 -0.3896 -0.1477
 1838SOL    HW2 7350   3.019   2.339   3.109 -0.0600  0.7184  0.3337
 1838SOL    HW3 7351   2.869   2.321   3.091  0.0629 -0.4038  0.3619
 1838SOL    MW4 7352   2.944   2.301   3.131  0.3155 -0.2453 -0.0169
 1839SOL     OW 7353   2.742   2.448   3.009  0.1376  0.1716 -0.2165
 1839SOL    HW2 7354   2.755   2.535   3.047  2.1931 -0.6713  1.1428
 1839SOL    HW3 7355   2.662   2.416   3.050  0.7911  0.4189  1.3062
 1839SOL    MW4 7356   2.733   2.455   3.020  0.4950  0.0931  0.1637
 1840SOL     OW 7357   2.720   2.687   3.134 -0.0475  0.0206 -0.1474
 1840SOL    HW2 7358   2.691   2.681   3.225 -0.4043 -2.2769 -0.3958
 1840SOL    HW3 7359   2.648   2.732   3.090 -0.4066  0.0584  0.4708
 1840SOL    MW4 7360   2.706   2.692   3.140 -0.1419 -0.2775 -0.0986
 1841SOL     OW 7361   2.929   2.846   3.050 -0.0808  0.8727 -0.2850
 1841SOL    HW2 7362   3.010   2.802   3.076 -0.6757 -1.1916 -1.8443
 1841SOL    HW3 7363   2.860   2.798   3.096 -0.7650 -0.0477 -2.2265
 1841SOL    MW4 7364   2.931   2.834   3.060 -0.2496  0.4789 -0.7469
 1842SOL     OW 7365   2.943   3.100   3.131  0.2550 -0.2097 -0.7570
 1842SOL    HW2 7366   2.853   3.122   3.108 -0.1719 -1.3863 -0.2223
 1842SOL    HW3 7367   2.956   3.011   3.096  0.7477 -0.5980  0.3906
 1842SOL    MW4 7368   2.933   3.091   3.123  0.2637 -0.4162 -0.5350
 1843SOL     OW 7369   2.686   3.194   3.048  0.1640 -0.0579 -0.3107
 1843SOL    HW2 7370   2.686   3.286   3.077  0.6123 -0.1622  0.0291
 1843SOL    HW3 7371   2.693   3.199   2.953 -0.0872  0.2673 -0.3131
 1843SOL    MW4 7372   2.687   3.207   3.039  0.1900 -0.0287 -0.2662
 1844SOL     OW 7373   2.696   3.450   3.138  0.0889 -0.2420 -0.3950
 1844SOL    HW2 7374   2.730   3.446   3.228 -1.4579  2.0887  0.3371
 1844SOL    HW3 7375   2.766   3.491   3.088 -0.2992  1.4817  0.4381
 1844SOL    MW4 7376   2.710   3.455   3.143 -0.1664  0.2930 -0.1885
 1845SOL     OW 7377   2.918   3.566   3.029  0.2881 -0.0747 -0.2612
 1845SOL    HW2 7378   2.999   3.523   3.055  0.6187  0.9370  0.4183
 1845SOL    HW3 7379   2.922   3.652   3.071 -1.7233 -0.4994  0.8526
 1845SOL    MW4 7380   2.929   3.571   3.038  0.0664  0.0028 -0.0246
 1846SOL     OW 7381   2.938   3.831   3.133 -0.3960  0.0847  0.1599
 1846SOL    HW2 7382   2.930   3.836   3.228  0.5162 -0.3793  0.2667
 1846SOL    HW3 7383   2.869   3.887   3.100 -2.2363 -1.5799  1.0756
 1846SOL    MW4 7384   2.928   3.839   3.141 -0.5185 -0.1961  0.2948
 1847SOL     OW 7385   2.735   3.976   3.025 -0.3773  0.0225 -0.0313
 1847SOL    HW2 7386   2.725   4.063   3.062  0.6984  0.1574 -0.0271
 1847SOL    HW3 7387   2.721   3.989   2.931 -1.2299  0.0143  0.0921
 1847SOL    MW4 7388   2.732   3.989   3.017 -0.3478  0.0392 -0.0145
 1848SOL     OW 7389   2.701   4.233   3.140 -0.1974  0.0224  0.3342
 1848SOL    HW2 7390   2.714   4.243   3.234 -0.0796 -1.1068  0.4379
 1848SOL    HW3 7391   2.624   4.288   3.121  0.8307  1.6614  0.7730
 1848SOL    MW4 7392   2.692   4.242   3.150 -0.0462  0.0897  0.4058
 1849SOL     OW 7393   2.906   4.409   3.017  0.2835 -0.4419 -0.1494
 1849SOL    HW2 7394   2.998   4.386   3.032  0.0696 -1.4074 -0.2649
 1849SOL    HW3 7395   2.857   4.343   3.065 -0.3667 -1.4140 -2.1049
 1849SOL    MW4 7396   2.912   4.397   3.025  0.1695 -0.6976 -0.4227
 1850SOL     OW 7397   3.361   4.658   3.140  0.0215 -0.4726  0.2876
 1850SOL    HW2 7398   3.440   4.696   3.103  0.2278 -1.4426 -0.2688
 1850SOL    HW3 7399   3.346   4.578   3.089 -1.1136 -0.4797  0.6161
 1850SOL    MW4 7400   3.369   4.653   3.128 -0.1011 -0.6015  0.2576
 1851SOL     OW 7401   3.134   0.119   3.044  0.1091 -0.0434  0.8335
 1851SOL    HW2 7402   3.135   0.208   3.080 -0.6183  0.1702  0.3206
 1851SOL    HW3 7403   3.215   0.079   3.078  1.8721  1.6948 -1.1765
 1851SOL    MW4 7404   3.145   0.125   3.053  0.2457  0.2141  0.5007
 1852SOL     OW 7405   3.124   0.383   3.148  0.0742  0.0115 -1.0853
 1852SOL    HW2 7406   3.196   0.432   3.108  0.0697  0.5511 -0.4386
 1852SOL    HW3 7407   3.045   0.417   3.104  0.1435  0.0155 -1.2060
 1852SOL    MW4 7408   3.123   0.394   3.137  0.0828  0.0833 -1.0159
 1853SOL     OW 7409   3.322   0.513   3.012 -0.0795 -0.0727 -0.3775
 1853SOL    HW2 7410   3.404   0.471   3.038 -1.3073 -3.0933 -1.1261
 1853SOL    HW3 7411   3.328   0.522   2.917 -0.6412 -0.4169 -0.4505
 1853SOL    MW4 7412   3.334   0.509   3.003 -0.3156 -0.5167 -0.4859
 1854SOL     OW 7413   3.365   0.765   3.137  0.2766 -0.4253 -0.3189
 1854SOL    HW2 7414   3.344   0.748   3.229 -2.1152  1.2074 -0.5287
 1854SOL    HW3 7415   3.342   0.683   3.092  1.2315 -1.1445  0.4681
 1854SOL    MW4 7416   3.359   0.752   3.143  0.0870 -0.3048 -0.2427
 1855SOL     OW 7417   3.165   0.913   3.016  0.1717  0.1933  0.1127
 1855SOL    HW2 7418   3.240   0.864   3.048  0.0542  0.3661  0.6476
 1855SOL    HW3 7419   3.089   0.868   3.053 -0.0817 -0.9345 -1.6790
 1855SOL    MW4 7420   3.164   0.900   3.025  0.1228  0.0673 -0.0531
 1856SOL     OW 7421   3.176   1.158   3.155  0.0844  0.2710  0.2506
 1856SOL    HW2 7422   3.248   1.200   3.106 -0.7228  0.9546 -0.3809
 1856SOL    HW3 7423   3.164   1.074   3.112 -0.7252  0.9333 -0.8729
 1856SOL    MW4 7424   3.184   1.153   3.143 -0.1289  0.4486  0.0190
 1857SOL     OW 7425   3.388   1.277   3.026 -0.0187  0.2144 -0.3173
 1857SOL    HW2 7426   3.447   1.228   3.083  0.7540 -0.5550 -1.7286
 1857SOL    HW3 7427   3.390   1.366   3.059 -0.0799 -0.3394  1.2315
 1857SOL    MW4 7428   3.396   1.282   3.038  0.0752  0.0398 -0.2991
 1858SOL     OW 7429   3.377   1.535   3.113 -0.2082 -0.0801  0.6992
 1858SOL    HW2 7430   3.382   1.533   3.209  0.7033 -1.5839  0.6439
 1858SOL    HW3 7431   3.446   1.595   3.086 -1.0551  1.0510  1.0046
 1858SOL    MW4 7432   3.387   1.543   3.122 -0.1997 -0.1293  0.7322
 1859SOL     OW 7433   3.163   1.681   3.026  0.5345  0.1700 -0.4148
 1859SOL    HW2 7434   3.225   1.617   3.060 -2.3079 -3.3421 -1.4657
 1859SOL    HW3 7435   3.157   1.662   2.932 -2.7313 -0.2228 -0.2035
 1859SOL    MW4 7436   3.170   1.670   3.018 -0.2714 -0.3452 -0.5256
 1860SOL     OW 7437   3.169   1.931   3.164  0.2921 -0.2903 -0.0283
 1860SOL    HW2 7438   3.173   1.845   3.124  0.1675 -0.7767  0.9818
 1860SOL    HW3 7439   3.101   1.978   3.115 -1.1094 -1.4766  0.7422
 1860SOL    MW4 7440   3.160   1.926   3.152  0.0907 -0.5110  0.2066
 1861SOL     OW 7441   3.411   2.054   3.053 -0.8480  0.4199  0.2823
 1861SOL    HW2 7442   3.488   2.006   3.083  0.4077  1.5593 -1.0784
 1861SOL    HW3 7443   3.338   1.992   3.066  0.2271 -0.5837  1.7788
 1861SOL    MW4 7444   3.411   2.039   3.059 -0.5405  0.4378  0.3002
 1862SOL     OW 7445   3.388   2.313   3.125 -0.3083 -0.1661 -0.0817
 1862SOL    HW2 7446   3.379   2.317   3.220  0.6187 -0.9636  0.0422
 1862SOL    HW3 7447   3.403   2.220   3.106 -0.2705  0.0183 -0.9892
 1862SOL    MW4 7448   3.389   2.301   3.135 -0.1810 -0.2470 -0.1851
 1863SOL     OW 7449   3.154   2.447   3.047 -0.0774 -0.3364 -0.1390
 1863SOL    HW2 7450   3.235   2.401   3.072 -0.2463 -0.1616  0.7267
 1863SOL    HW3 7451   3.147   2.431   2.953  0.1116 -1.7135  0.0681
 1863SOL    MW4 7452   3.164   2.439   3.038 -0.0747 -0.4951  0.0026
 1864SOL     OW 7453   3.159   2.718   3.162 -0.3375  0.2443  0.0058
 1864SOL    HW2 7454   3.156   2.703   3.257 -0.2176  1.0756  0.1452
 1864SOL    HW3 7455   3.138   2.633   3.124 -2.9039  0.4769  0.7950
 1864SOL    MW4 7456   3.156   2.705   3.170 -0.6603  0.3847  0.1283
 1865SOL     OW 7457   3.359   2.792   2.989  0.1351 -0.2761 -0.0671
 1865SOL    HW2 7458   3.363   2.886   3.006 -1.8944 -0.3143  0.7011
 1865SOL    HW3 7459   3.290   2.759   3.046  2.4883 -2.6805  1.5370
 1865SOL    MW4 7460   3.350   2.800   2.999  0.1778 -0.5984  0.2459
 1866SOL     OW 7461   3.385   3.060   3.076  0.1062 -0.7006 -0.0328
 1866SOL    HW2 7462   3.404   3.058   3.170  0.7466 -0.0674 -0.1442
 1866SOL    HW3 7463   3.309   3.117   3.067 -0.1079 -0.9626  0.1290
 1866SOL    MW4 7464   3.378   3.067   3.087  0.1624 -0.6516 -0.0261
 1867SOL     OW 7465   3.172   3.245   3.045  0.2669  0.1286  0.1947
 1867SOL    HW2 7466   3.095   3.199   3.079 -0.9178  1.2246 -0.9417
 1867SOL    HW3 7467   3.166   3.234   2.950  0.8996  1.1728  0.0286
 1867SOL    MW4 7468   3.161   3.238   3.037  0.1941  0.4110  0.0228
 1868SOL     OW 7469   3.191   3.508   3.131 -0.0487  0.0399  0.0832
 1868SOL    HW2 7470   3.253   3.545   3.069  0.3833 -0.2944  0.3097
 1868SOL    HW3 7471   3.202   3.413   3.122  0.0098 -0.0136  0.6550
 1868SOL    MW4 7472   3.200   3.500   3.122  0.0160 -0.0112  0.1886
 1869SOL     OW 7473   3.391   3.628   2.966  0.6332  0.1507  0.0161
 1869SOL    HW2 7474   3.456   3.573   3.008 -1.3089 -0.6561  2.0447
 1869SOL    HW3 7475   3.374   3.698   3.029 -0.3400  0.4319 -0.5406
 1869SOL    MW4 7476   3.397   3.630   2.980  0.2486  0.0813  0.2103
 1870SOL     OW 7477   3.371   3.861   3.103  0.0372 -0.1508 -0.2371
 1870SOL    HW2 7478   3.368   3.855   3.199  0.5583 -0.7398 -0.2579
 1870SOL    HW3 7479   3.285   3.897   3.079 -0.4358 -0.8486  0.3937
 1870SOL    MW4 7480   3.359   3.865   3.113  0.0436 -0.3206 -0.1566
 1871SOL     OW 7481   3.133   3.991   3.021  0.3696  0.3339  0.0698
 1871SOL    HW2 7482   3.049   3.957   3.054  0.7554 -1.2230 -0.4795
 1871SOL    HW3 7483   3.127   3.980   2.926  1.0808  0.4721  0.0115
 1871SOL    MW4 7484   3.121   3.985   3.013  0.5144  0.1468 -0.0104
 1872SOL     OW 7485   3.128   4.264   3.106  0.5762  0.2389 -0.2420
 1872SOL    HW2 7486   3.145   4.264   3.201 -0.4048  0.5869 -0.0581
 1872SOL    HW3 7487   3.130   4.172   3.082 -2.9911 -0.2180  0.8551
 1872SOL    MW4 7488   3.130   4.252   3.116 -0.0239  0.2245 -0.0730
 1873SOL     OW 7489   3.342   4.416   3.013  0.0203 -0.2269 -0.3372
 1873SOL    HW2 7490   3.423   4.379   3.047  0.7266  1.3639 -0.2184
 1873SOL    HW3 7491   3.272   4.366   3.056  0.9343 -1.0210  0.2276
 1873SOL    MW4 7492   3.343   4.405   3.023  0.2341 -0.1218 -0.2470
 1874SOL     OW 7493   3.825   4.648   3.167 -0.0988  0.3939  0.0159
 1874SOL    HW2 7494   3.809   4.563   3.124 -1.6556 -0.3887  2.0826
 1874SOL    HW3 7495   3.750   4.702   3.141  0.1476  0.6651 -0.1278
 1874SOL    MW4 7496   3.813   4.644   3.158 -0.2717  0.3265  0.2696
 1875SOL     OW 7497   3.617   0.118   3.042 -0.5220  0.9865 -0.2882
 1875SOL    HW2 7498   3.584   0.208   3.054 -1.4079  0.5919  0.2862
 1875SOL    HW3 7499   3.610   0.103   2.948 -0.2729  1.5618 -0.4034
 1875SOL    MW4 7500   3.611   0.128   3.031 -0.6060  1.0103 -0.2276
 1876SOL     OW 7501   3.559   0.389   3.107  0.2826  0.7516 -0.1067
 1876SOL    HW2 7502   3.560   0.422   3.197 -0.0257  2.1363 -0.5941
 1876SOL    HW3 7503   3.636   0.429   3.066 -0.3195  1.1797 -0.8203
 1876SOL    MW4 7504   3.569   0.399   3.114  0.1625  0.9907 -0.2651
 1877SOL     OW 7505   3.823   0.510   3.031 -0.6512  0.1033 -0.1049
 1877SOL    HW2 7506   3.878   0.450   3.080  0.0722 -0.4814 -1.5800
 1877SOL    HW3 7507   3.836   0.595   3.073 -0.6961 -0.5290  1.2037
 1877SOL    MW4 7508   3.832   0.513   3.043 -0.5617 -0.0573 -0.1268
 1878SOL     OW 7509   3.794   0.758   3.166 -0.2537  0.1549  0.1324
 1878SOL    HW2 7510   3.804   0.782   3.258 -1.0617  1.0726 -0.0096
 1878SOL    HW3 7511   3.872   0.792   3.123  0.4032 -0.7747  0.5651
 1878SOL    MW4 7512   3.806   0.766   3.173 -0.2736  0.1533  0.1708
 1879SOL     OW 7513   3.599   0.881   3.033  0.1700  0.2638  0.0537
 1879SOL    HW2 7514   3.662   0.827   3.082 -0.4426  1.3407  2.1152
 1879SOL    HW3 7515   3.514   0.843   3.055 -0.0134 -0.3325 -1.6206
 1879SOL    MW4 7516   3.596   0.869   3.043  0.0650  0.3272  0.1048
 1880SOL     OW 7517   3.583   1.139   3.179  0.5503 -0.1967  0.0964
 1880SOL    HW2 7518   3.655   1.175   3.127 -0.7471  1.9598 -0.2184
 1880SOL    HW3 7519   3.577   1.048   3.150  1.4085  0.3291 -1.7968
 1880SOL    MW4 7520   3.592   1.131   3.168  0.4924  0.1572 -0.1949
 1881SOL     OW 7521   3.803   1.242   3.059 -0.3839 -0.3716 -0.5822
 1881SOL    HW2 7522   3.834   1.331   3.073 -1.5364  0.0351 -0.6004
 1881SOL    HW3 7523   3.817   1.226   2.966 -1.4982  0.3118 -0.8783
 1881SOL    MW4 7524   3.809   1.252   3.049 -0.6830 -0.2278 -0.6237
 1882SOL     OW 7525   3.849   1.542   3.121 -0.0986 -0.0011  0.3595
 1882SOL    HW2 7526   3.841   1.543   3.216 -2.4106  1.6662  0.1888
 1882SOL    HW3 7527   3.761   1.562   3.089  0.9080  0.7138 -2.1107
 1882SOL    MW4 7528   3.836   1.545   3.129 -0.2708  0.3132  0.0111
 1883SOL     OW 7529   3.606   1.648   3.045 -0.0524 -0.0120  0.2895
 1883SOL    HW2 7530   3.617   1.738   3.074  1.8732 -0.4483  0.9989
 1883SOL    HW3 7531   3.612   1.652   2.950  0.8626  0.5191  0.3630
 1883SOL    MW4 7532   3.608   1.660   3.036  0.3224  0.0005  0.3928
 1884SOL     OW 7533   3.613   1.903   3.136  0.4280  0.5722 -0.3630
 1884SOL    HW2 7534   3.627   1.913   3.230  0.8483 -0.8380 -0.2721
 1884SOL    HW3 7535   3.684   1.954   3.095  2.0555 -1.2799  0.0940
 1884SOL    MW4 7536   3.624   1.911   3.143  0.6982  0.1418 -0.2907
 1885SOL     OW 7537   3.825   2.058   3.021 -0.2029 -0.0230  0.3636
 1885SOL    HW2 7538   3.807   2.149   3.046  0.9397  0.3502 -0.1516
 1885SOL    HW3 7539   3.831   2.059   2.926  0.7512 -0.4642  0.4138
 1885SOL    MW4 7540   3.823   2.070   3.012  0.0737 -0.0320  0.3022
 1886SOL     OW 7541   3.811   2.349   3.121 -0.0804  0.5806  0.4915
 1886SOL    HW2 7542   3.801   2.328   3.214 -0.3260 -0.2631  0.2731
 1886SOL    HW3 7543   3.728   2.389   3.097 -0.5266 -0.4721  0.2894
 1886SOL    MW4 7544   3.799   2.352   3.130 -0.1717  0.3304  0.4360
 1887SOL     OW 7545   3.592   2.479   3.031 -0.7082 -0.3055 -0.2757
 1887SOL    HW2 7546   3.590   2.565   3.074 -0.4199  0.5670 -1.9227
 1887SOL    HW3 7547   3.509   2.438   3.054 -1.2942  0.8528 -0.2793
 1887SOL    MW4 7548   3.581   2.485   3.040 -0.7475 -0.0376 -0.4935
 1888SOL     OW 7549   3.596   2.725   3.164 -0.1283  0.4303  0.1184
 1888SOL    HW2 7550   3.671   2.746   3.109 -0.6210  1.4600 -0.1693
 1888SOL    HW3 7551   3.520   2.751   3.112 -0.6448  0.3636  0.8346
 1888SOL    MW4 7552   3.596   2.731   3.150 -0.2615  0.5574  0.1750
 1889SOL     OW 7553   3.804   2.807   3.010  0.4721  0.0329 -0.4264
 1889SOL    HW2 7554   3.821   2.899   3.028  1.5732 -0.3721  0.7138
 1889SOL    HW3 7555   3.796   2.802   2.915  2.0288  1.0431 -0.6292
 1889SOL    MW4 7556   3.806   2.818   3.000  0.8228  0.1128 -0.3027
 1890SOL     OW 7557   3.833   3.083   3.124 -0.4658  0.4959 -0.0573
 1890SOL    HW2 7558   3.912   3.126   3.092  0.3343 -1.0859 -0.2651
 1890SOL    HW3 7559   3.762   3.143   3.102  0.5626  1.4465 -0.8281
 1890SOL    MW4 7560   3.834   3.096   3.117 -0.2246  0.4126 -0.1864
 1891SOL     OW 7561   3.604   3.224   3.028  0.3928 -0.0971  0.0211
 1891SOL    HW2 7562   3.530   3.168   3.049  1.2610 -0.7477  1.4083
 1891SOL    HW3 7563   3.601   3.234   2.932 -0.4578 -1.5285 -0.1029
 1891SOL    MW4 7564   3.594   3.218   3.018  0.3951 -0.3718  0.1877
 1892SOL     OW 7565   3.581   3.496   3.104  0.1959  0.2694 -0.2254
 1892SOL    HW2 7566   3.659   3.539   3.071  0.1110 -0.0591 -0.8577
 1892SOL    HW3 7567   3.590   3.404   3.078 -0.1300  0.1131  0.1873
 1892SOL    MW4 7568   3.592   3.489   3.096  0.1417  0.2054 -0.2544
 1893SOL     OW 7569   3.825   3.648   3.017 -0.4298  0.5258  0.0661
 1893SOL    HW2 7570   3.832   3.740   3.040 -0.9730  0.4576  0.5162
 1893SOL    HW3 7571   3.799   3.647   2.925  0.0431  0.8153 -0.0712
 1893SOL    MW4 7572   3.823   3.660   3.008 -0.4391  0.5550  0.1074
 1894SOL     OW 7573   3.842   3.925   3.159  0.0767  0.0410 -0.0228
 1894SOL    HW2 7574   3.842   3.928   3.254  0.2616  0.1741 -0.0261
 1894SOL    HW3 7575   3.760   3.966   3.133 -0.5186 -1.0542  0.1097
 1894SOL    MW4 7576   3.831   3.931   3.168  0.0225 -0.0859 -0.0058
 1895SOL     OW 7577   3.596   4.025   3.018  0.4314  0.1815 -0.5355
 1895SOL    HW2 7578   3.523   3.974   3.054  0.6698 -0.5224 -1.0386
 1895SOL    HW3 7579   3.587   4.014   2.923  1.3443 -0.1213 -0.5894
 1895SOL    MW4 7580   3.585   4.017   3.010  0.5833  0.0487 -0.6090
 1896SOL     OW 7581   3.563   4.279   3.146 -0.4544  0.1130 -0.0223
 1896SOL    HW2 7582   3.639   4.331   3.118  0.0587 -0.2002  0.7450
 1896SOL    HW3 7583   3.572   4.196   3.100  0.2222 -0.2887  0.7971
 1896SOL    MW4 7584   3.574   4.275   3.136 -0.2974  0.0187  0.1870
 1897SOL     OW 7585   3.781   4.421   3.025 -0.9721  0.3338  0.1456
 1897SOL    HW2 7586   3.853   4.365   3.054 -0.7341  0.1789 -0.7366
 1897SOL    HW3 7587   3.776   4.407   2.931 -1.5330  1.0777  0.0584
 1897SOL    MW4 7588   3.790   4.412   3.017 -1.0147  0.4115  0.0177
 1898SOL     OW 7589   4.236   4.663   3.177  0.1284  0.4992 -0.2562
 1898SOL    HW2 7590   4.233   4.629   3.266  1.4553  0.6756 -0.1353
 1898SOL    HW3 7591   4.259   4.587   3.123 -1.5230  0.2076 -0.5552
 1898SOL    MW4 7592   4.239   4.649   3.182  0.0856  0.4840 -0.2797
 1899SOL     OW 7593   4.025   0.101   3.036 -0.1721 -0.1098 -0.1791
 1899SOL    HW2 7594   4.103   0.065   3.078  0.1127 -2.1405 -2.3647
 1899SOL    HW3 7595   3.952   0.060   3.083  0.1341 -1.6875 -1.0490
 1899SOL    MW4 7596   4.026   0.091   3.048 -0.0941 -0.5859 -0.5823
 1900SOL     OW 7597   4.004   0.353   3.154 -0.6036 -0.4316 -0.1619
 1900SOL    HW2 7598   4.077   0.393   3.106 -0.8612  0.9299  0.5512
 1900SOL    HW3 7599   3.999   0.264   3.120  0.6288 -0.1701 -1.0768
 1900SOL    MW4 7600   4.013   0.346   3.143 -0.4750 -0.2175 -0.1885
 1901SOL     OW 7601   4.222   0.474   3.022  0.0628  0.3413  0.0037
 1901SOL    HW2 7602   4.237   0.561   3.059 -0.6897  0.4978 -0.0554
 1901SOL    HW3 7603   4.211   0.489   2.928  1.2469  0.0269 -0.1893
 1901SOL    MW4 7604   4.223   0.487   3.015  0.1197  0.3204 -0.0296
 1902SOL     OW 7605   4.249   0.725   3.139  0.0911 -0.0174  0.3840
 1902SOL    HW2 7606   4.164   0.757   3.108 -0.5488  0.6929  2.7528
 1902SOL    HW3 7607   4.308   0.800   3.129 -0.2609  0.4068  1.4044
 1902SOL    MW4 7608   4.246   0.739   3.134 -0.0397  0.1323  0.8312
 1903SOL     OW 7609   4.024   0.859   3.078  0.2539 -0.1102  0.0591
 1903SOL    HW2 7610   4.036   0.949   3.109  0.1850 -0.1557  0.2175
 1903SOL    HW3 7611   4.008   0.868   2.985  0.7151  0.0124 -0.0116
 1903SOL    MW4 7612   4.023   0.872   3.070  0.3057 -0.1001  0.0707
 1904SOL     OW 7613   4.042   1.123   3.123 -0.1008 -0.6622 -0.2520
 1904SOL    HW2 7614   4.045   1.138   3.217  0.7337  0.4128 -0.4309
 1904SOL    HW3 7615   3.956   1.153   3.095 -0.6526 -1.7340  0.2808
 1904SOL    MW4 7616   4.031   1.129   3.131 -0.0635 -0.6617 -0.2053
 1905SOL     OW 7617   4.255   1.277   3.028 -0.4058  0.4915  0.2825
 1905SOL    HW2 7618   4.200   1.205   3.059 -0.0431 -0.1058 -0.4579
 1905SOL    HW3 7619   4.239   1.281   2.934 -0.4644  1.4112  0.3345
 1905SOL    MW4 7620   4.246   1.268   3.020 -0.3657  0.5341  0.1917
 1906SOL     OW 7621   4.307   1.571   3.111  0.0685 -0.0182 -0.2982
 1906SOL    HW2 7622   4.218   1.605   3.095 -0.7252 -1.7620  0.3085
 1906SOL    HW3 7623   4.309   1.487   3.065  1.0210 -0.5065  0.6204
 1906SOL    MW4 7624   4.295   1.564   3.103  0.0894 -0.3127 -0.0970
 1907SOL     OW 7625   4.071   1.696   3.025  0.0115 -0.0392 -0.0530
 1907SOL    HW2 7626   4.053   1.781   3.066 -1.9302  0.0104 -0.9453
 1907SOL    HW3 7627   4.004   1.638   3.060 -0.1951 -0.5806 -1.3104
 1907SOL    MW4 7628   4.060   1.700   3.035 -0.2720 -0.1041 -0.3366
 1908SOL     OW 7629   4.029   1.925   3.149 -0.4625 -0.0085 -0.3998
 1908SOL    HW2 7630   4.108   1.966   3.114 -0.4113  0.3551  0.1402
 1908SOL    HW3 7631   3.957   1.962   3.098 -0.2920 -0.2731 -0.8321
 1908SOL    MW4 7632   4.030   1.935   3.138 -0.4333  0.0046 -0.3856
 1909SOL     OW 7633   4.261   2.054   3.085  0.2737 -0.4968 -0.4755
 1909SOL    HW2 7634   4.235   2.144   3.106  2.3405  0.4275 -1.7692
 1909SOL    HW3 7635   4.272   2.053   2.990  0.6958 -2.0060 -0.4312
 1909SOL    MW4 7636   4.259   2.066   3.075  0.6020 -0.5740 -0.6404
 1910SOL     OW 7637   4.246   2.348   3.130 -0.3721 -0.4309 -0.0822
 1910SOL    HW2 7638   4.176   2.395   3.084  0.2514 -0.5725 -1.2061
 1910SOL    HW3 7639   4.327   2.383   3.093  0.2081  0.7269  2.1949
 1910SOL    MW4 7640   4.248   2.359   3.119 -0.2133 -0.2968  0.0699
 1911SOL     OW 7641   4.033   2.482   3.005 -0.4545 -0.0077  0.3149
 1911SOL    HW2 7642   4.044   2.568   3.046  1.4598 -0.9391  1.8728
 1911SOL    HW3 7643   3.960   2.442   3.053 -2.3925  1.3176 -1.4646
 1911SOL    MW4 7644   4.025   2.488   3.017 -0.4577  0.0443  0.2857
 1912SOL     OW 7645   4.046   2.725   3.134  0.3683 -0.0384  0.3169
 1912SOL    HW2 7646   4.056   2.722   3.229  2.4958  0.3293  0.1317
 1912SOL    HW3 7647   3.957   2.757   3.121  0.6218  1.5835  2.2137
 1912SOL    MW4 7648   4.035   2.729   3.145  0.6825  0.2241  0.5427
 1913SOL     OW 7649   4.280   2.837   3.031 -0.4382 -0.3117 -0.1670
 1913SOL    HW2 7650   4.200   2.799   3.067 -0.3549  0.4082  0.7917
 1913SOL    HW3 7651   4.351   2.790   3.073 -0.3441 -0.4664 -0.4922
 1913SOL    MW4 7652   4.279   2.826   3.041 -0.4148 -0.2371 -0.0834
 1914SOL     OW 7653   4.263   3.110   3.146 -0.0843  0.4297  0.3654
 1914SOL    HW2 7654   4.186   3.148   3.104  0.6015 -0.0028 -1.3247
 1914SOL    HW3 7655   4.274   3.025   3.104  1.6264  0.7122  0.1919
 1914SOL    MW4 7656   4.255   3.104   3.135  0.2319  0.4099  0.1195
 1915SOL     OW 7657   4.040   3.241   3.036  0.4259  0.2683  0.0973
 1915SOL    HW2 7658   4.037   3.328   3.075 -0.4272  0.0596  0.5067
 1915SOL    HW3 7659   4.028   3.255   2.942  0.1630  0.5709  0.1795
 1915SOL    MW4 7660   4.038   3.254   3.029  0.2787  0.2807  0.1622
 1916SOL     OW 7661   4.036   3.499   3.120  0.0224  0.0293 -0.2714
 1916SOL    HW2 7662   4.050   3.516   3.213 -0.6286  0.9151 -0.3270
 1916SOL    HW3 7663   3.964   3.558   3.096 -0.1534 -0.5667 -1.2116
 1916SOL    MW4 7664   4.029   3.509   3.129 -0.0867  0.0676 -0.4028
 1917SOL     OW 7665   4.221   3.670   3.005 -0.4904 -0.2710 -0.0833
 1917SOL    HW2 7666   4.226   3.746   3.063 -1.7631  0.4664 -0.9112
 1917SOL    HW3 7667   4.153   3.614   3.043 -1.7289  0.4801 -1.1348
 1917SOL    MW4 7668   4.212   3.672   3.017 -0.8218 -0.0746 -0.3313
 1918SOL     OW 7669   4.255   3.903   3.161 -0.1824  0.0584  0.1016
 1918SOL    HW2 7670   4.179   3.954   3.133  0.0812  0.3510 -0.0808
 1918SOL    HW3 7671   4.329   3.945   3.118  0.0886 -0.1993  0.3157
 1918SOL    MW4 7672   4.254   3.915   3.152 -0.1119  0.0630  0.1058
 1919SOL     OW 7673   4.067   4.057   3.022 -0.1992 -0.4890 -0.7522
 1919SOL    HW2 7674   4.058   4.150   3.042 -0.3347 -0.3906 -1.2619
 1919SOL    HW3 7675   3.988   4.017   3.057 -0.6471 -0.2522 -1.4666
 1919SOL    MW4 7676   4.056   4.064   3.029 -0.2762 -0.4448 -0.9137
 1920SOL     OW 7677   4.018   4.313   3.118 -0.1859  0.2278  0.3130
 1920SOL    HW2 7678   4.027   4.292   3.211  0.7945 -0.1803  0.1287
 1920SOL    HW3 7679   4.089   4.375   3.101 -0.5228  0.5007 -0.1116
 1920SOL    MW4 7680   4.028   4.318   3.128 -0.1010  0.2100  0.2327
 1921SOL     OW 7681   4.259   4.434   3.026  0.4117  0.3327  0.1450
 1921SOL    HW2 7682   4.329   4.375   3.052  0.1148  0.1738  0.6026
 1921SOL    HW3 7683   4.241   4.412   2.935  0.1942 -0.3945  0.3584
 1921SOL    MW4 7684   4.266   4.423   3.017  0.3439  0.2158  0.2336
 1922SOL     OW 7685   0.222   4.663   3.428 -0.0536 -0.3004  0.2617
 1922SOL    HW2 7686   0.305   4.697   3.460 -0.3522 -1.2116  2.0607
 1922SOL    HW3 7687   0.225   4.570   3.450 -1.5792 -0.3214  0.4112
 1922SOL    MW4 7688   0.233   4.655   3.435 -0.2943 -0.4234  0.5188
 1923SOL     OW 7689   4.489   0.117   3.526  0.0359 -0.2087  0.2450
 1923SOL    HW2 7690   4.494   0.206   3.490  0.2056 -0.7100 -0.9762
 1923SOL    HW3 7691   4.562   0.070   3.484  1.7479 -0.1674  3.0322
 1923SOL    MW4 7692   4.500   0.123   3.516  0.2842 -0.2694  0.4516
 1924SOL     OW 7693   0.001   0.381   3.407  0.4698  0.2417  0.3551
 1924SOL    HW2 7694  -0.071   0.412   3.462  0.0121 -0.4477  0.1416
 1924SOL    HW3 7695   0.078   0.427   3.442  0.0442  0.4650  1.0177
 1924SOL    MW4 7696   0.002   0.391   3.419  0.3532  0.1802  0.4143
 1925SOL     OW 7697   0.215   0.488   3.510  0.1403  0.2346 -0.0441
 1925SOL    HW2 7698   0.292   0.443   3.476  0.8160  0.6770  0.8656
 1925SOL    HW3 7699   0.226   0.579   3.482  0.7929  0.6414  1.4647
 1925SOL    MW4 7700   0.227   0.494   3.502  0.3155  0.3466  0.2750
 1926SOL     OW 7701   0.211   0.756   3.436  0.0287 -0.0842 -0.0534
 1926SOL    HW2 7702   0.280   0.812   3.473  0.1488 -0.7243  0.7072
 1926SOL    HW3 7703   0.129   0.798   3.461  0.0754 -1.1422  2.0132
 1926SOL    MW4 7704   0.210   0.769   3.444  0.0507 -0.3082  0.3196
 1927SOL     OW 7705   4.475   0.906   3.492  0.3492  0.4444  0.6861
 1927SOL    HW2 7706   4.503   0.915   3.583  0.5239  0.0748  0.6710
 1927SOL    HW3 7707   4.484   0.994   3.455  1.2853  0.3757  0.7391
 1927SOL    MW4 7708   4.480   0.919   3.499  0.4958  0.3866  0.6911
 1928SOL     OW 7709   0.021   1.175   3.398 -0.1329 -0.4086 -0.1205
 1928SOL    HW2 7710   0.097   1.222   3.434 -0.9846  1.1950 -0.3562
 1928SOL    HW3 7711   0.020   1.199   3.305 -1.5336  0.4707  0.0954
 1928SOL    MW4 7712   0.031   1.184   3.391 -0.4301 -0.0810 -0.1231
 1929SOL     OW 7713   0.243   1.303   3.503  0.1243 -0.2775 -0.1683
 1929SOL    HW2 7714   0.314   1.254   3.462  1.1507  1.6984 -0.8430
 1929SOL    HW3 7715   0.245   1.389   3.460 -1.4509  0.4519  1.1394
 1929SOL    MW4 7716   0.252   1.308   3.492  0.0519  0.0794 -0.0848
 1930SOL     OW 7717   0.223   1.559   3.393 -0.2338 -0.6270  0.0593
 1930SOL    HW2 7718   0.302   1.599   3.428  0.0034 -0.9090 -0.1483
 1930SOL    HW3 7719   0.218   1.591   3.303 -1.0331  0.3783  0.4441
 1930SOL    MW4 7720   0.233   1.568   3.386 -0.3079 -0.5316  0.0827
 1931SOL     OW 7721   0.002   1.682   3.534 -0.1078 -0.2178 -0.1184
 1931SOL    HW2 7722  -0.070   1.631   3.496 -0.4833  0.2330 -0.0101
 1931SOL    HW3 7723   0.080   1.647   3.492 -0.5182  0.3147 -1.3559
 1931SOL    MW4 7724   0.003   1.671   3.524 -0.2115 -0.0881 -0.2674
 1932SOL     OW 7725   0.034   1.948   3.431 -0.5735  0.5551 -0.5881
 1932SOL    HW2 7726   0.020   1.856   3.455  0.7738  0.3982 -0.3927
 1932SOL    HW3 7727   0.028   1.949   3.336 -1.2060  0.3780 -0.5564
 1932SOL    MW4 7728   0.031   1.936   3.422 -0.4792  0.5110 -0.5582
 1933SOL     OW 7729   0.280   2.076   3.511 -0.1719  0.0898  0.2916
 1933SOL    HW2 7730   0.281   2.069   3.607  0.8833  0.1622  0.2866
 1933SOL    HW3 7731   0.208   2.019   3.484  0.5343 -1.1595  1.0225
 1933SOL    MW4 7732   0.271   2.068   3.520  0.0605 -0.0655  0.3874
 1934SOL     OW 7733   0.284   2.327   3.356  0.2733  0.5105  0.2608
 1934SOL    HW2 7734   0.210   2.362   3.406  1.5417  0.9110  1.8963
 1934SOL    HW3 7735   0.298   2.239   3.392  1.1149  0.7538  0.5497
 1934SOL    MW4 7736   0.276   2.320   3.368  0.5517  0.5954  0.5147
 1935SOL     OW 7737   0.051   2.435   3.504 -0.2620  0.2443  0.0744
 1935SOL    HW2 7738   0.046   2.435   3.600  0.6472  2.5034  0.1553
 1935SOL    HW3 7739  -0.023   2.381   3.476 -2.7598  2.5551  1.9864
 1935SOL    MW4 7740   0.041   2.428   3.513 -0.4716  0.8473  0.3373
 1936SOL     OW 7741   0.059   2.715   3.421 -0.3077  0.7914  0.2937
 1936SOL    HW2 7742   0.144   2.746   3.453 -0.0170  0.5861 -0.2902
 1936SOL    HW3 7743   0.055   2.624   3.448  1.1229 -0.1818 -2.6513
 1936SOL    MW4 7744   0.069   2.707   3.429 -0.0806  0.6359 -0.1719
 1937SOL     OW 7745   0.281   2.877   3.530 -0.2402 -0.2275  0.0590
 1937SOL    HW2 7746   0.363   2.842   3.495 -0.4744 -0.9483  0.2269
 1937SOL    HW3 7747   0.264   2.955   3.477  0.8561  0.2484  0.4104
 1937SOL    MW4 7748   0.289   2.883   3.518 -0.1264 -0.2598  0.1275
 1938SOL     OW 7749   0.246   3.117   3.379 -0.0452  0.7028 -0.0402
 1938SOL    HW2 7750   0.185   3.172   3.428  1.7103  3.0284 -0.4324
 1938SOL    HW3 7751   0.207   3.111   3.292 -0.9439  0.1573  0.3889
 1938SOL    MW4 7752   0.233   3.123   3.374  0.0678  0.9377 -0.0353
 1939SOL     OW 7753   0.004   3.243   3.493 -0.3202 -0.0908 -0.2107
 1939SOL    HW2 7754  -0.083   3.204   3.482 -1.2501  0.9643  2.9476
 1939SOL    HW3 7755  -0.007   3.334   3.466 -0.3084  0.1267  0.4967
 1939SOL    MW4 7756  -0.009   3.250   3.488 -0.4413  0.0771  0.2993
 1940SOL     OW 7757   4.429   3.496   3.381  0.0754  0.0664  0.2844
 1940SOL    HW2 7758   4.353   3.547   3.409 -0.9082 -2.5152  2.6464
 1940SOL    HW3 7759   4.423   3.494   3.286 -1.8498  1.3706  0.3564
 1940SOL    MW4 7760   4.418   3.502   3.372 -0.3084 -0.1021  0.6055
 1941SOL     OW 7761   0.207   3.558   3.455 -0.2323  0.7097 -0.2499
 1941SOL    HW2 7762   0.206   3.554   3.550  0.5068 -0.9443 -0.2978
 1941SOL    HW3 7763   0.132   3.505   3.427  0.0383  0.5145 -0.6108
 1941SOL    MW4 7764   0.197   3.551   3.464 -0.0990  0.4657 -0.3038
 1942SOL     OW 7765   0.230   3.833   3.404  0.2716  0.3290 -0.0194
 1942SOL    HW2 7766   0.151   3.877   3.434 -0.3208  0.0737 -1.1668
 1942SOL    HW3 7767   0.215   3.741   3.422 -0.3136  0.1071 -1.5189
 1942SOL    MW4 7768   0.218   3.827   3.410  0.1162  0.2660 -0.3686
 1943SOL     OW 7769   0.016   3.985   3.496  0.3285  0.4200  0.1573
 1943SOL    HW2 7770   0.025   3.995   3.591 -0.6627  0.2112  0.2824
 1943SOL    HW3 7771   0.029   4.073   3.461  2.6846  0.1550  0.3099
 1943SOL    MW4 7772   0.019   3.997   3.504  0.5086  0.3575  0.1940
 1944SOL     OW 7773   0.046   4.252   3.419  0.2228  0.5344  0.1319
 1944SOL    HW2 7774  -0.025   4.277   3.478  1.0447  0.3180  1.2407
 1944SOL    HW3 7775   0.117   4.313   3.440  0.4823  0.5464 -0.7426
 1944SOL    MW4 7776   0.046   4.263   3.430  0.3654  0.5075  0.1628
 1945SOL     OW 7777   0.238   4.410   3.498  0.1409  0.2077 -0.0233
 1945SOL    HW2 7778   0.230   4.398   3.593  0.8191  0.9503  0.1299
 1945SOL    HW3 7779   0.315   4.359   3.474 -1.4650 -2.0301 -0.5759
 1945SOL    MW4 7780   0.247   4.402   3.507  0.0185  0.0104 -0.0760
 1946SOL     OW 7781   0.701   4.658   3.389 -0.0083 -0.3768  0.0247
 1946SOL    HW2 7782   0.789   4.684   3.415 -0.2493 -0.1548  0.6294
 1946SOL    HW3 7783   0.697   4.674   3.295  1.3879 -2.6103 -0.4586
 1946SOL    MW4 7784   0.712   4.663   3.380  0.1441 -0.6422  0.0407
 1947SOL     OW 7785   0.459   0.115   3.491  0.3094  0.3873  0.3181
 1947SOL    HW2 7786   0.460   0.124   3.587  0.1151 -1.0375  0.4644
 1947SOL    HW3 7787   0.543   0.073   3.471  0.6150  1.2305 -0.2057
 1947SOL    MW4 7788   0.470   0.110   3.501  0.3241  0.3106  0.2683
 1948SOL     OW 7789   0.465   0.377   3.426 -0.4420 -0.3917 -0.2094
 1948SOL    HW2 7790   0.545   0.416   3.461 -0.7937  0.5328 -0.4191
 1948SOL    HW3 7791   0.471   0.284   3.449  0.8525 -0.3942 -0.5239
 1948SOL    MW4 7792   0.476   0.370   3.433 -0.3176 -0.2700 -0.2786
 1949SOL     OW 7793   0.694   0.511   3.528  0.5433 -0.0958 -0.2227
 1949SOL    HW2 7794   0.709   0.512   3.623 -0.3897 -2.5671  0.0075
 1949SOL    HW3 7795   0.768   0.462   3.493  0.3659 -0.0549 -0.6523
 1949SOL    MW4 7796   0.705   0.504   3.536  0.3968 -0.4164 -0.2490
 1950SOL     OW 7797   0.649   0.756   3.418 -0.2399 -0.0652  0.0244
 1950SOL    HW2 7798   0.566   0.795   3.445 -0.8733  0.0409 -1.9767
 1950SOL    HW3 7799   0.651   0.671   3.461 -0.6228  0.6069  1.3807
 1950SOL    MW4 7800   0.639   0.750   3.427 -0.3740  0.0375 -0.0607
 1951SOL     OW 7801   0.429   0.910   3.489 -0.0282  0.2581 -0.3001
 1951SOL    HW2 7802   0.446   0.923   3.583  1.5342 -0.7351 -0.4143
 1951SOL    HW3 7803   0.437   0.997   3.451  1.5824  0.3486  0.1870
 1951SOL    MW4 7804   0.433   0.923   3.497  0.3904  0.1390 -0.2509
 1952SOL     OW 7805   0.486   1.175   3.432 -0.0008  0.2110  0.0080
 1952SOL    HW2 7806   0.578   1.185   3.457 -0.2164 -0.5061  1.1436
 1952SOL    HW3 7807   0.487   1.172   3.336  1.0256  1.3834 -0.0405
 1952SOL    MW4 7808   0.498   1.176   3.423  0.1062  0.2711  0.1514
 1953SOL     OW 7809   0.751   1.277   3.483  0.2383  0.2447 -0.6500
 1953SOL    HW2 7810   0.820   1.245   3.425  0.7711  0.3315 -0.0739
 1953SOL    HW3 7811   0.733   1.366   3.452  0.6227  0.3423 -0.6031
 1953SOL    MW4 7812   0.758   1.285   3.471  0.3593  0.2690 -0.5678
 1954SOL     OW 7813   0.685   1.541   3.404  0.2744  0.4557  0.2462
 1954SOL    HW2 7814   0.756   1.604   3.419  0.9227 -0.4715  1.2022
 1954SOL    HW3 7815   0.607   1.584   3.439  0.7573  0.6342  1.1185
 1954SOL    MW4 7816   0.684   1.555   3.411  0.4236  0.3569  0.4874
 1955SOL     OW 7817   0.455   1.673   3.489 -0.2532  0.1809  0.4489
 1955SOL    HW2 7818   0.487   1.673   3.579 -0.9349  0.2472  0.6898
 1955SOL    HW3 7819   0.458   1.765   3.463 -0.6496  0.2394  0.6124
 1955SOL    MW4 7820   0.460   1.685   3.498 -0.3955  0.1973  0.5022
 1956SOL     OW 7821   0.485   1.929   3.395  0.1858 -0.1695 -0.1844
 1956SOL    HW2 7822   0.412   1.974   3.438  1.3367  0.6846  0.8949
 1956SOL    HW3 7823   0.466   1.937   3.301 -0.3479  1.3105  0.0376
 1956SOL    MW4 7824   0.473   1.936   3.388  0.2672  0.1384 -0.0127
 1957SOL     OW 7825   0.654   2.112   3.512 -0.0237 -0.4055 -0.2184
 1957SOL    HW2 7826   0.672   2.082   3.601 -0.8714 -0.1223  0.0495
 1957SOL    HW3 7827   0.596   2.045   3.476 -0.6852  0.1301 -0.1393
 1957SOL    MW4 7828   0.649   2.099   3.519 -0.2228 -0.2975 -0.1726
 1958SOL     OW 7829   0.684   2.374   3.394 -0.0518  0.4332  0.3136
 1958SOL    HW2 7830   0.775   2.394   3.418  0.2904 -0.4241 -0.2395
 1958SOL    HW3 7831   0.665   2.292   3.439 -0.1352 -0.0260 -0.5333
 1958SOL    MW4 7832   0.694   2.366   3.403 -0.0176  0.2595  0.1289
 1959SOL     OW 7833   0.446   2.507   3.480  0.2000 -0.3615  0.1955
 1959SOL    HW2 7834   0.535   2.475   3.467 -0.0779 -0.8983 -0.3732
 1959SOL    HW3 7835   0.392   2.450   3.426 -0.6568 -0.9341  1.6366
 1959SOL    MW4 7836   0.451   2.495   3.471  0.0503 -0.5078  0.3106
 1960SOL     OW 7837   0.471   2.766   3.387 -0.3307  0.4480  0.1602
 1960SOL    HW2 7838   0.449   2.678   3.417 -0.4881  0.4501  0.0489
 1960SOL    HW3 7839   0.478   2.758   3.292 -1.5467  0.8139  0.0307
 1960SOL    MW4 7840   0.469   2.753   3.379 -0.5119  0.4966  0.1284
 1961SOL     OW 7841   0.696   2.881   3.506  0.3520 -0.4857 -0.0812
 1961SOL    HW2 7842   0.765   2.822   3.476  1.4761  0.2323  1.0497
 1961SOL    HW3 7843   0.615   2.840   3.476  1.2488 -1.4260 -1.2708
 1961SOL    MW4 7844   0.694   2.868   3.498  0.6187 -0.5150 -0.0889
 1962SOL     OW 7845   0.741   3.135   3.402  0.3407  0.0530  0.3107
 1962SOL    HW2 7846   0.656   3.178   3.416  0.5855  0.2928  1.1064
 1962SOL    HW3 7847   0.732   3.051   3.447  0.5596  0.1209  0.4794
 1962SOL    MW4 7848   0.728   3.130   3.410  0.4019  0.0936  0.4379
 1963SOL     OW 7849   0.490   3.235   3.471 -0.3763 -0.3264  0.3848
 1963SOL    HW2 7850   0.477   3.218   3.564 -0.0027 -0.2480  0.4525
 1963SOL    HW3 7851   0.413   3.197   3.428 -1.5182  1.3468  0.8989
 1963SOL    MW4 7852   0.478   3.228   3.478 -0.4776 -0.0953  0.4615
 1964SOL     OW 7853   0.462   3.519   3.381 -0.3007  0.0717  0.7357
 1964SOL    HW2 7854   0.472   3.427   3.404  0.1972  0.1257  0.7286
 1964SOL    HW3 7855   0.383   3.547   3.428 -0.3079 -0.2875  0.9373
 1964SOL    MW4 7856   0.453   3.511   3.390 -0.2360  0.0315  0.7613
 1965SOL     OW 7857   0.686   3.633   3.502  0.4460  0.2573 -0.2510
 1965SOL    HW2 7858   0.765   3.578   3.495  0.2736 -0.0267 -0.0112
 1965SOL    HW3 7859   0.616   3.578   3.467  0.0444 -0.1819  1.2024
 1965SOL    MW4 7860   0.687   3.618   3.497  0.3703  0.1619 -0.0276
 1966SOL     OW 7861   0.652   3.891   3.389 -0.5392 -0.2840 -0.3428
 1966SOL    HW2 7862   0.572   3.926   3.429 -0.3743  0.0135 -0.2731
 1966SOL    HW3 7863   0.661   3.804   3.426 -0.6808 -0.2137 -0.1409
 1966SOL    MW4 7864   0.643   3.884   3.399 -0.5361 -0.2355 -0.3069
 1967SOL     OW 7865   0.425   3.988   3.532  0.2296 -0.6767 -0.2285
 1967SOL    HW2 7866   0.410   4.074   3.492 -0.7394 -0.1708  1.1787
 1967SOL    HW3 7867   0.366   3.929   3.486  0.3912 -0.4503 -0.7274
 1967SOL    MW4 7868   0.415   3.991   3.521  0.1231 -0.5801 -0.1086
 1968SOL     OW 7869   0.439   4.252   3.383 -0.9866 -0.0738  0.2211
 1968SOL    HW2 7870   0.520   4.299   3.401 -1.6999  0.9026  0.8792
 1968SOL    HW3 7871   0.433   4.250   3.287 -1.4510  2.0382  0.1998
 1968SOL    MW4 7872   0.449   4.258   3.372 -1.1420  0.3337  0.3051
 1969SOL     OW 7873   0.659   4.400   3.496  0.1632  0.8128 -0.2179
 1969SOL    HW2 7874   0.745   4.364   3.476  0.2657  0.7232  0.3699
 1969SOL    HW3 7875   0.667   4.493   3.475  0.7389  1.0140  0.8476
 1969SOL    MW4 7876   0.671   4.408   3.491  0.2527  0.8275  0.0002
 1970SOL     OW 7877   1.177   4.622   3.421  0.0880 -0.0927  0.3700
 1970SOL    HW2 7878   1.250   4.679   3.444  0.1604  0.0418 -0.1655
 1970SOL    HW3 7879   1.165   4.637   3.327 -0.6923 -0.0385  0.4737
 1970SOL    MW4 7880   1.185   4.632   3.411 -0.0054 -0.0678  0.3131
 1971SOL     OW 7881   0.946   0.095   3.501 -0.1410  0.5875  0.0342
 1971SOL    HW2 7882   0.928   0.102   3.594 -0.3551  1.4491 -0.0687
 1971SOL    HW3 7883   1.018   0.032   3.495 -0.3225  0.3085  0.7535
 1971SOL    MW4 7884   0.953   0.088   3.512 -0.1932  0.6643  0.1155
 1972SOL     OW 7885   0.894   0.353   3.406 -0.0298  0.1221  0.2961
 1972SOL    HW2 7886   0.961   0.411   3.442  0.8336 -1.1261  0.7556
 1972SOL    HW3 7887   0.911   0.269   3.449 -0.6919 -0.6885 -1.0234
 1972SOL    MW4 7888   0.905   0.349   3.417 -0.0032 -0.1495  0.1826
 1973SOL     OW 7889   1.096   0.532   3.482  0.1856  0.0493  0.6324
 1973SOL    HW2 7890   1.102   0.551   3.575  0.7522  1.6038  0.2902
 1973SOL    HW3 7891   1.090   0.618   3.440  0.1220 -0.6278 -0.7784
 1973SOL    MW4 7892   1.096   0.546   3.489  0.2519  0.1651  0.4011
 1974SOL     OW 7893   1.108   0.788   3.386  0.1164  0.8068  0.3200
 1974SOL    HW2 7894   1.189   0.826   3.421 -0.0434  1.3734  0.0754
 1974SOL    HW3 7895   1.038   0.831   3.434  0.0116 -1.4700  2.2943
 1974SOL    MW4 7896   1.110   0.799   3.397  0.0815  0.5812  0.5482
 1975SOL     OW 7897   0.877   0.915   3.513 -0.5705 -0.3482  0.0267
 1975SOL    HW2 7898   0.886   0.992   3.456 -2.4554 -0.5815 -0.5898
 1975SOL    HW3 7899   0.794   0.876   3.488 -0.3017 -1.7881  1.3464
 1975SOL    MW4 7900   0.867   0.920   3.502 -0.7837 -0.5690  0.1195
 1976SOL     OW 7901   0.937   1.141   3.338 -0.1696 -0.1479 -0.2616
 1976SOL    HW2 7902   1.029   1.166   3.345 -0.2434 -0.0657  0.3922
 1976SOL    HW3 7903   0.912   1.169   3.250 -0.3390  2.3633  0.5621
 1976SOL    MW4 7904   0.946   1.148   3.327 -0.2017  0.1942 -0.0667
 1977SOL     OW 7905   1.150   1.277   3.511  0.2636 -0.1282 -0.1003
 1977SOL    HW2 7906   1.139   1.281   3.606  0.2215  0.2319 -0.1201
 1977SOL    HW3 7907   1.139   1.368   3.481 -0.7327 -0.4002 -0.5639
 1977SOL    MW4 7908   1.147   1.290   3.520  0.1266 -0.1166 -0.1641
 1978SOL     OW 7909   1.139   1.526   3.383  0.4682  0.4318  0.1843
 1978SOL    HW2 7910   1.218   1.569   3.415 -0.3273  1.4766  0.7874
 1978SOL    HW3 7911   1.140   1.538   3.289  0.5895  1.2119  0.2833
 1978SOL    MW4 7912   1.149   1.533   3.375  0.3793  0.6725  0.2769
 1979SOL     OW 7913   0.908   1.683   3.480  0.3337 -0.4239 -0.3404
 1979SOL    HW2 7914   0.921   1.771   3.445  1.1350 -0.5787 -0.4482
 1979SOL    HW3 7915   0.979   1.631   3.441  0.8611 -0.7481  1.0156
 1979SOL    MW4 7916   0.919   1.687   3.470  0.5090 -0.4871 -0.1757
 1980SOL     OW 7917   0.876   1.953   3.421 -0.0052 -0.0837  0.3591
 1980SOL    HW2 7918   0.958   1.998   3.445 -0.3391  0.6370  0.1657
 1980SOL    HW3 7919   0.813   2.024   3.407 -0.1327 -0.5356 -1.5063
 1980SOL    MW4 7920   0.879   1.969   3.422 -0.0661 -0.0482  0.0875
 1981SOL     OW 7921   1.114   2.064   3.519  0.1008  0.0140 -0.4379
 1981SOL    HW2 7922   1.191   2.016   3.490 -0.4915 -1.0729 -0.2100
 1981SOL    HW3 7923   1.121   2.149   3.474  0.6373 -0.6335 -1.5943
 1981SOL    MW4 7924   1.125   2.069   3.509  0.0934 -0.2148 -0.5604
 1982SOL     OW 7925   1.151   2.319   3.400  0.3338  0.2595  0.1959
 1982SOL    HW2 7926   1.217   2.381   3.430  1.4875 -0.5112 -0.7325
 1982SOL    HW3 7927   1.164   2.314   3.305  0.2958 -1.4607  0.2733
 1982SOL    MW4 7928   1.161   2.327   3.391  0.4810 -0.0692  0.0836
 1983SOL     OW 7929   0.929   2.430   3.504  0.2957 -0.2116 -0.3806
 1983SOL    HW2 7930   0.947   2.430   3.598 -0.9248 -2.3779 -0.1037
 1983SOL    HW3 7931   1.007   2.391   3.465  0.2108 -0.6437 -0.1252
 1983SOL    MW4 7932   0.942   2.425   3.511  0.1235 -0.5544 -0.3104
 1984SOL     OW 7933   0.892   2.685   3.400  0.2341  0.2089  0.0632
 1984SOL    HW2 7934   0.965   2.737   3.433  1.0550 -0.8920  0.0085
 1984SOL    HW3 7935   0.895   2.604   3.451 -0.0285 -0.4536 -0.9625
 1984SOL    MW4 7936   0.902   2.682   3.411  0.3078 -0.0237 -0.0794
 1985SOL     OW 7937   1.094   2.820   3.521 -0.1568 -0.0493 -0.2922
 1985SOL    HW2 7938   1.096   2.829   3.616 -0.1269 -0.9544 -0.1961
 1985SOL    HW3 7939   1.183   2.796   3.498  0.1212  1.3688 -0.6828
 1985SOL    MW4 7940   1.106   2.818   3.531 -0.1162  0.0184 -0.3311
 1986SOL     OW 7941   1.116   3.062   3.395 -0.6588 -0.2120  0.1199
 1986SOL    HW2 7942   1.094   2.979   3.437  0.5738 -0.3670  0.4982
 1986SOL    HW3 7943   1.110   3.044   3.301 -2.0357 -0.2616  0.2159
 1986SOL    MW4 7944   1.112   3.049   3.388 -0.6778 -0.2390  0.1825
 1987SOL     OW 7945   0.957   3.239   3.553 -0.6226 -0.4555 -0.4152
 1987SOL    HW2 7946   1.020   3.184   3.507  0.6639  1.6333 -1.2118
 1987SOL    HW3 7947   0.872   3.214   3.517  0.0450 -1.2043 -1.4933
 1987SOL    MW4 7948   0.954   3.228   3.542 -0.3648 -0.2787 -0.6625
 1988SOL     OW 7949   0.921   3.478   3.436  0.3462 -0.0613 -0.4043
 1988SOL    HW2 7950   0.949   3.393   3.469 -0.0116  0.5758  1.5659
 1988SOL    HW3 7951   0.914   3.465   3.341 -0.4544 -2.4357 -0.0580
 1988SOL    MW4 7952   0.924   3.465   3.428  0.1934 -0.2905 -0.0986
 1989SOL     OW 7953   1.134   3.641   3.490 -0.0499  0.5930 -0.0814
 1989SOL    HW2 7954   1.145   3.642   3.585 -0.3607 -0.1478 -0.0343
 1989SOL    HW3 7955   1.053   3.593   3.476  0.4509 -0.0621 -0.7610
 1989SOL    MW4 7956   1.125   3.635   3.501 -0.0249  0.4088 -0.1648
 1990SOL     OW 7957   1.123   3.896   3.392  0.3396 -0.1550 -0.0999
 1990SOL    HW2 7958   1.195   3.939   3.437  0.2748 -1.3238  1.1185
 1990SOL    HW3 7959   1.123   3.806   3.424 -2.4664  0.1506  0.9240
 1990SOL    MW4 7960   1.132   3.890   3.402 -0.0392 -0.2689  0.1959
 1991SOL     OW 7961   0.868   4.006   3.484 -0.3710  0.0571  0.0006
 1991SOL    HW2 7962   0.932   3.946   3.444  0.3526  0.7501  0.1038
 1991SOL    HW3 7963   0.783   3.971   3.458  0.0147 -1.5404  0.7982
 1991SOL    MW4 7964   0.865   3.994   3.476 -0.2246 -0.0622  0.1195
 1992SOL     OW 7965   0.890   4.268   3.432  0.7103  0.0909  0.4139
 1992SOL    HW2 7966   0.892   4.173   3.445 -1.9380 -0.1762 -0.9124
 1992SOL    HW3 7967   0.884   4.279   3.337 -0.1905  1.5647  0.6341
 1992SOL    MW4 7968   0.890   4.257   3.422  0.2420  0.2501  0.2679
 1993SOL     OW 7969   1.135   4.364   3.515  0.3668 -0.0713 -0.3421
 1993SOL    HW2 7970   1.053   4.332   3.478 -0.2075  0.3692  0.5247
 1993SOL    HW3 7971   1.142   4.454   3.483  1.0020 -0.4146 -1.1945
 1993SOL    MW4 7972   1.125   4.372   3.506  0.3749 -0.0585 -0.3402
 1994SOL     OW 7973   1.601   0.004   3.351  0.4940  0.0369  0.2617
 1994SOL    HW2 7974   1.616  -0.082   3.389 -0.0126 -0.2762 -0.2257
 1994SOL    HW3 7975   1.523   0.037   3.396 -1.0388 -0.9850 -1.5158
 1994SOL    MW4 7976   1.593  -0.003   3.362  0.2250 -0.1392 -0.0371
 1995SOL     OW 7977   1.391   0.121   3.497  0.1216 -0.4826  0.3074
 1995SOL    HW2 7978   1.401   0.137   3.591  0.2035 -1.9151  0.5504
 1995SOL    HW3 7979   1.356   0.203   3.463  0.7054  0.2714  1.4807
 1995SOL    MW4 7980   1.387   0.134   3.505  0.2094 -0.5721  0.4943
 1996SOL     OW 7981   1.297   0.376   3.404 -0.2224 -0.3096  0.0227
 1996SOL    HW2 7982   1.377   0.417   3.437  0.1947 -0.3871 -0.8641
 1996SOL    HW3 7983   1.226   0.434   3.431  0.1838 -0.0087  0.4294
 1996SOL    MW4 7984   1.298   0.389   3.412 -0.1138 -0.2801 -0.0407
 1997SOL     OW 7985   1.551   0.469   3.486  0.0230  0.4118 -0.2376
 1997SOL    HW2 7986   1.542   0.454   3.580 -0.2942  2.2415  0.0557
 1997SOL    HW3 7987   1.628   0.419   3.460  0.4986  0.4178  1.1346
 1997SOL    MW4 7988   1.560   0.460   3.495  0.0439  0.6540 -0.0178
 1998SOL     OW 7989   1.584   0.708   3.371 -0.3005  0.1227 -0.0682
 1998SOL    HW2 7990   1.515   0.759   3.414  0.3111  0.2620  0.7479
 1998SOL    HW3 7991   1.575   0.620   3.409  0.3763  0.2986  0.4997
 1998SOL    MW4 7992   1.574   0.703   3.382 -0.1305  0.1643  0.1144
 1999SOL     OW 7993   1.353   0.859   3.517  0.1724 -0.7817 -0.4184
 1999SOL    HW2 7994   1.363   0.877   3.610 -1.8533 -1.5911 -0.0047
 1999SOL    HW3 7995   1.364   0.943   3.474 -0.1987 -0.1657  0.6770
 1999SOL    MW4 7996   1.356   0.872   3.524 -0.1438 -0.8072 -0.2193
 2000SOL     OW 7997   1.348   1.119   3.378  0.3666  0.2124 -0.1050
 2000SOL    HW2 7998   1.439   1.147   3.390  0.6407 -1.5822  2.5034
 2000SOL    HW3 7999   1.297   1.175   3.437  0.5018 -2.3435  2.5333
 2000SOL    MW4 8000   1.353   1.130   3.387  0.4206 -0.3616  0.5872
 2001SOL     OW 8001   1.576   1.233   3.471  0.4302 -0.4650  0.0814
 2001SOL    HW2 8002   1.594   1.235   3.564  1.5551  3.4397 -0.1365
 2001SOL    HW3 8003   1.659   1.210   3.430 -0.0271 -2.0349  0.0119
 2001SOL    MW4 8004   1.589   1.230   3.478  0.5183 -0.1569  0.0435
 2002SOL     OW 8005   1.611   1.501   3.403 -0.0488  0.2079 -0.2294
 2002SOL    HW2 8006   1.587   1.415   3.439 -1.2880  0.5464 -0.2339
 2002SOL    HW3 8007   1.585   1.496   3.311  1.0377  0.1468 -0.5376
 2002SOL    MW4 8008   1.605   1.489   3.395 -0.0689  0.2445 -0.2706
 2003SOL     OW 8009   1.386   1.651   3.459  0.1918  0.1651 -0.3314
 2003SOL    HW2 8010   1.388   1.647   3.554  0.0545  2.4019 -0.1947
 2003SOL    HW3 8011   1.463   1.602   3.430  0.2062 -0.5603  0.9178
 2003SOL    MW4 8012   1.396   1.644   3.468  0.1756  0.3645 -0.1485
 2004SOL     OW 8013   1.329   1.937   3.433 -0.5302 -0.0970 -0.1422
 2004SOL    HW2 8014   1.416   1.974   3.448 -0.4662 -0.6308  0.8636
 2004SOL    HW3 8015   1.340   1.843   3.450 -1.0623 -0.3358 -1.0728
 2004SOL    MW4 8016   1.342   1.929   3.437 -0.5920 -0.1990 -0.1323
 2005SOL     OW 8017   1.575   2.046   3.478 -0.2348 -0.1277 -0.0704
 2005SOL    HW2 8018   1.649   2.020   3.423  0.1110  2.1522 -0.7367
 2005SOL    HW3 8019   1.575   2.142   3.474 -1.4365  0.0089  2.2922
 2005SOL    MW4 8020   1.585   2.055   3.470 -0.3478  0.1912  0.1534
 2006SOL     OW 8021   1.594   2.331   3.429  0.1888 -0.2790 -0.8243
 2006SOL    HW2 8022   1.515   2.357   3.476  1.9161  1.6900  1.1192
 2006SOL    HW3 8023   1.572   2.338   3.337 -1.6941  0.8788 -0.2982
 2006SOL    MW4 8024   1.581   2.335   3.423  0.1683  0.1336 -0.4985
 2007SOL     OW 8025   1.359   2.473   3.513  0.1804 -0.0708  0.2157
 2007SOL    HW2 8026   1.350   2.463   3.608  1.2143  0.4911  0.3830
 2007SOL    HW3 8027   1.358   2.568   3.499  1.1197 -0.1161 -0.2132
 2007SOL    MW4 8028   1.358   2.484   3.523  0.4407 -0.0027  0.1812
 2008SOL     OW 8029   1.351   2.743   3.430  0.2779  0.2200  0.3695
 2008SOL    HW2 8030   1.435   2.780   3.458 -0.5689  0.0502  3.3018
 2008SOL    HW3 8031   1.362   2.727   3.336  3.1983  1.0331  0.5178
 2008SOL    MW4 8032   1.364   2.746   3.421  0.5515  0.3049  0.7759
 2009SOL     OW 8033   1.594   2.864   3.499 -0.1260 -0.0748  0.2714
 2009SOL    HW2 8034   1.665   2.814   3.459 -0.1711  0.2268 -0.1892
 2009SOL    HW3 8035   1.586   2.942   3.445 -0.5461  0.0821  0.5550
 2009SOL    MW4 8036   1.602   2.867   3.487 -0.1874 -0.0143  0.2480
 2010SOL     OW 8037   1.543   3.118   3.370  0.5036  0.1964 -0.4816
 2010SOL    HW2 8038   1.613   3.157   3.423 -0.1447  0.5665  0.1126
 2010SOL    HW3 8039   1.463   3.145   3.414  0.0007 -0.5868 -0.9174
 2010SOL    MW4 8040   1.542   3.127   3.383  0.3517  0.1419 -0.4607
 2011SOL     OW 8041   1.325   3.214   3.503 -0.0366 -0.0018 -0.3660
 2011SOL    HW2 8042   1.299   3.219   3.595 -0.4255  3.1900 -0.5793
 2011SOL    HW3 8043   1.257   3.162   3.461 -0.6916 -0.1523  0.8605
 2011SOL    MW4 8044   1.313   3.208   3.510 -0.1744  0.3995 -0.2323
 2012SOL     OW 8045   1.341   3.481   3.374 -0.5708  0.5477  0.7501
 2012SOL    HW2 8046   1.307   3.398   3.407 -1.6130  0.2188 -1.0778
 2012SOL    HW3 8047   1.274   3.545   3.396  0.5443  1.0458  2.7690
 2012SOL    MW4 8048   1.328   3.479   3.381 -0.5612  0.5700  0.7753
 2013SOL     OW 8049   1.550   3.631   3.471 -0.8060 -0.1598  0.1185
 2013SOL    HW2 8050   1.552   3.624   3.566  0.2268  0.9788  0.1836
 2013SOL    HW3 8051   1.465   3.595   3.446 -0.9760 -0.6912  1.4474
 2013SOL    MW4 8052   1.539   3.625   3.480 -0.6922 -0.0797  0.3024
 2014SOL     OW 8053   1.528   3.900   3.420  0.2909 -0.0269 -0.6657
 2014SOL    HW2 8054   1.544   3.807   3.436  0.6842  0.2679  0.6696
 2014SOL    HW3 8055   1.530   3.908   3.324  0.0924 -1.4137 -0.7975
 2014SOL    MW4 8056   1.530   3.889   3.409  0.3166 -0.1709 -0.5069
 2015SOL     OW 8057   1.322   4.040   3.528  0.2408  0.2811 -0.1599
 2015SOL    HW2 8058   1.354   4.129   3.511  0.2650  0.0760 -1.2226
 2015SOL    HW3 8059   1.388   3.983   3.489 -1.2790 -0.1545 -2.1850
 2015SOL    MW4 8060   1.335   4.044   3.520  0.0435  0.1966 -0.5673
 2016SOL     OW 8061   1.384   4.299   3.423 -0.2154 -0.3416  0.0284
 2016SOL    HW2 8062   1.299   4.315   3.464 -1.2330 -2.6625 -1.0801
 2016SOL    HW3 8063   1.367   4.303   3.329  0.3963 -2.9462 -0.2394
 2016SOL    MW4 8064   1.371   4.302   3.416 -0.2690 -0.9915 -0.1532
 2017SOL     OW 8065   1.617   4.423   3.499 -0.0267  0.2224  0.4931
 2017SOL    HW2 8066   1.685   4.357   3.481 -1.7539 -1.8947  1.4941
 2017SOL    HW3 8067   1.536   4.381   3.471 -1.3099  1.4609  2.3294
 2017SOL    MW4 8068   1.615   4.409   3.493 -0.4239  0.1065  0.8675
 2018SOL     OW 8069   2.035   4.650   3.373  0.0890 -0.4223  0.0914
 2018SOL    HW2 8070   2.120   4.684   3.402 -0.2010  1.0320 -0.7133
 2018SOL    HW3 8071   1.972   4.696   3.428 -0.2690 -0.2831 -0.4403
 2018SOL    MW4 8072   2.038   4.660   3.384  0.0035 -0.2121 -0.0849
 2019SOL     OW 8073   1.821   0.099   3.491 -0.2707  0.2813  0.9307
 2019SOL    HW2 8074   1.814   0.103   3.586  0.1498 -0.0584  0.9778
 2019SOL    HW3 8075   1.735   0.070   3.461 -0.2426 -0.1260  1.2438
 2019SOL    MW4 8076   1.809   0.096   3.499 -0.2115  0.1828  0.9782
 2020SOL     OW 8077   1.794   0.357   3.392  0.2643  0.1737 -0.1309
 2020SOL    HW2 8078   1.834   0.273   3.414  0.2233 -0.0550 -0.8915
 2020SOL    HW3 8079   1.799   0.361   3.296  0.2975  1.0536 -0.0956
 2020SOL    MW4 8080   1.799   0.347   3.382  0.2632  0.2596 -0.2266
 2021SOL     OW 8081   2.017   0.495   3.478 -0.4895 -0.0577  0.3296
 2021SOL    HW2 8082   2.007   0.585   3.448 -0.0996  0.0911  0.6334
 2021SOL    HW3 8083   1.936   0.451   3.453 -0.8145  0.4588  0.4726
 2021SOL    MW4 8084   2.005   0.501   3.471 -0.4809  0.0301  0.3886
 2022SOL     OW 8085   2.036   0.764   3.388 -0.4374 -0.4483 -0.4369
 2022SOL    HW2 8086   2.113   0.806   3.427 -0.2714 -0.7944 -0.3918
 2022SOL    HW3 8087   2.039   0.788   3.296 -0.1590 -0.6355 -0.4765
 2022SOL    MW4 8088   2.047   0.773   3.381 -0.3787 -0.5187 -0.4362
 2023SOL     OW 8089   1.805   0.878   3.471  0.3694 -0.0272  0.1036
 2023SOL    HW2 8090   1.875   0.827   3.429  0.2962  0.2176 -0.3150
 2023SOL    HW3 8091   1.724   0.835   3.443  0.3148  0.2141 -0.1022
 2023SOL    MW4 8092   1.804   0.865   3.462  0.3526  0.0369  0.0212
 2024SOL     OW 8093   1.839   1.139   3.386 -0.6927  0.2006  0.3126
 2024SOL    HW2 8094   1.922   1.173   3.419 -0.1889  0.3733 -1.0990
 2024SOL    HW3 8095   1.837   1.048   3.415 -0.1012  0.2514  0.5174
 2024SOL    MW4 8096   1.850   1.132   3.394 -0.5482  0.2301  0.1534
 2025SOL     OW 8097   2.050   1.296   3.491  0.3796  0.1020  0.3030
 2025SOL    HW2 8098   2.069   1.315   3.583 -1.2622 -0.2027  0.7258
 2025SOL    HW3 8099   2.018   1.379   3.456  0.7839  0.1570  0.0582
 2025SOL    MW4 8100   2.048   1.309   3.498  0.2163  0.0691  0.3265
 2026SOL     OW 8101   1.980   1.531   3.383 -0.1323 -0.6666  0.0646
 2026SOL    HW2 8102   2.060   1.581   3.396 -0.9801  0.4327  1.1030
 2026SOL    HW3 8103   1.912   1.583   3.425 -1.6730 -0.7963 -2.1833
 2026SOL    MW4 8104   1.982   1.544   3.390 -0.4475 -0.5387 -0.0950
 2027SOL     OW 8105   1.778   1.696   3.474 -0.0877  0.7889  0.5595
 2027SOL    HW2 8106   1.753   1.769   3.417 -1.1138  2.7447  3.3867
 2027SOL    HW3 8107   1.710   1.630   3.459 -0.5766  1.4388 -0.1542
 2027SOL    MW4 8108   1.765   1.697   3.465 -0.2876  1.1327  0.8383
 2028SOL     OW 8109   1.785   1.939   3.321  0.2721 -0.1875 -0.4085
 2028SOL    HW2 8110   1.869   1.968   3.356  0.3679 -0.7726 -0.1387
 2028SOL    HW3 8111   1.803   1.917   3.229  0.4623 -0.5019 -0.2976
 2028SOL    MW4 8112   1.799   1.940   3.313  0.3098 -0.3062 -0.3582
 2029SOL     OW 8113   2.008   2.049   3.442  0.1262  0.2197 -0.0352
 2029SOL    HW2 8114   2.098   2.020   3.428  0.3935  1.3233 -0.6752
 2029SOL    HW3 8115   2.011   2.144   3.430 -0.5496  0.6608  2.9403
 2029SOL    MW4 8116   2.020   2.058   3.438  0.0723  0.4235  0.2730
 2030SOL     OW 8117   2.020   2.322   3.364  0.1287  0.1707 -0.1914
 2030SOL    HW2 8118   2.097   2.364   3.402  1.4817 -1.2321 -1.3194
 2030SOL    HW3 8119   2.036   2.323   3.270 -1.3755  0.1397 -0.4545
 2030SOL    MW4 8120   2.032   2.327   3.357  0.1088 -0.0185 -0.3750
 2031SOL     OW 8121   1.820   2.469   3.456 -0.4970 -0.4280 -0.5023
 2031SOL    HW2 8122   1.884   2.408   3.420 -1.6283 -1.5323 -0.6467
 2031SOL    HW3 8123   1.735   2.426   3.444 -1.3445  1.2653 -0.8469
 2031SOL    MW4 8124   1.817   2.455   3.449 -0.7581 -0.3503 -0.5668
 2032SOL     OW 8125   1.803   2.736   3.384 -0.7183 -0.0250 -0.1977
 2032SOL    HW2 8126   1.891   2.767   3.405 -0.3633 -0.2316 -1.3359
 2032SOL    HW3 8127   1.807   2.641   3.396 -0.9474  0.0224  0.2852
 2032SOL    MW4 8128   1.815   2.728   3.388 -0.7017 -0.0460 -0.2842
 2033SOL     OW 8129   2.031   2.878   3.523 -0.4472 -0.2037 -0.3164
 2033SOL    HW2 8130   2.018   2.887   3.618  0.7715  0.3994 -0.2018
 2033SOL    HW3 8131   2.034   2.968   3.491 -1.5334 -0.4145 -1.0312
 2033SOL    MW4 8132   2.030   2.891   3.531 -0.4297 -0.1520 -0.3956
 2034SOL     OW 8133   1.978   3.129   3.414 -0.1451 -0.3250 -0.0676
 2034SOL    HW2 8134   2.051   3.172   3.459 -0.5226  0.1798  0.0738
 2034SOL    HW3 8135   1.900   3.165   3.456 -0.4813 -0.6759 -0.3883
 2034SOL    MW4 8136   1.978   3.139   3.426 -0.2392 -0.3047 -0.0913
 2035SOL     OW 8137   1.749   3.223   3.533  0.6761  0.4472 -0.2108
 2035SOL    HW2 8138   1.756   3.236   3.627 -0.4673  0.4646 -0.1244
 2035SOL    HW3 8139   1.747   3.312   3.497  1.5875  0.4381 -0.2914
 2035SOL    MW4 8140   1.750   3.236   3.540  0.6455  0.4483 -0.2100
 2036SOL     OW 8141   1.763   3.477   3.430 -0.9804  0.3264  0.5174
 2036SOL    HW2 8142   1.678   3.517   3.449 -1.9021 -0.6467 -1.3390
 2036SOL    HW3 8143   1.770   3.481   3.334 -0.2551 -2.1425  0.4131
 2036SOL    MW4 8144   1.753   3.483   3.420 -1.0063 -0.1277  0.2587
 2037SOL     OW 8145   2.000   3.604   3.510 -0.2975  0.3627 -0.6106
 2037SOL    HW2 8146   2.082   3.559   3.491 -0.0490  0.3582  0.4631
 2037SOL    HW3 8147   1.934   3.557   3.458 -0.1646 -1.6531  1.0110
 2037SOL    MW4 8148   2.002   3.592   3.500 -0.2472  0.0961 -0.2550
 2038SOL     OW 8149   2.018   3.860   3.385  0.1637 -0.1722 -1.0210
 2038SOL    HW2 8150   1.943   3.908   3.419  0.3130 -0.0814 -0.8158
 2038SOL    HW3 8151   2.011   3.773   3.424 -0.1693 -0.3520 -1.4827
 2038SOL    MW4 8152   2.007   3.855   3.394  0.1395 -0.1839 -1.0548
 2039SOL     OW 8153   1.778   3.989   3.500  0.0951  0.3278  0.4614
 2039SOL    HW2 8154   1.774   3.987   3.595 -2.2623  0.2134  0.3781
 2039SOL    HW3 8155   1.689   3.967   3.471  0.9531 -0.3872 -1.7704
 2039SOL    MW4 8156   1.766   3.985   3.509 -0.1027  0.2183  0.1560
 2040SOL     OW 8157   1.830   4.245   3.418  0.0361  0.0273 -0.1564
 2040SOL    HW2 8158   1.831   4.154   3.447 -0.7933 -0.2951 -1.1396
 2040SOL    HW3 8159   1.825   4.241   3.323 -0.7680  1.0915 -0.1744
 2040SOL    MW4 8160   1.829   4.233   3.410 -0.1795  0.1252 -0.2885
 2041SOL     OW 8161   2.047   4.390   3.501 -0.4133  0.4505 -0.5060
 2041SOL    HW2 8162   1.972   4.339   3.470 -0.1533  0.4651 -1.1621
 2041SOL    HW3 8163   2.042   4.472   3.453  0.8095 -0.0898 -1.5719
 2041SOL    MW4 8164   2.036   4.394   3.491 -0.2177  0.3811 -0.7332
 2042SOL     OW 8165   2.490   4.657   3.382 -1.0031  0.1147 -0.3640
 2042SOL    HW2 8166   2.464   4.567   3.405 -0.5489  0.0925  0.0779
 2042SOL    HW3 8167   2.507   4.654   3.288  0.1561 -0.5454 -0.1399
 2042SOL    MW4 8168   2.489   4.644   3.373 -0.7902  0.0247 -0.2761
 2043SOL     OW 8169   2.263   0.095   3.476  0.1506 -0.3291  0.5751
 2043SOL    HW2 8170   2.255   0.188   3.455 -1.2946 -0.8225 -1.1683
 2043SOL    HW3 8171   2.338   0.065   3.425  0.0000 -0.3315  0.3536
 2043SOL    MW4 8172   2.272   0.103   3.466 -0.0599 -0.3945  0.3159
 2044SOL     OW 8173   2.255   0.358   3.412 -0.3298  0.6341 -0.1579
 2044SOL    HW2 8174   2.319   0.425   3.437 -1.9570  1.9442  0.6028
 2044SOL    HW3 8175   2.170   0.404   3.414 -1.5092 -1.4967  0.6011
 2044SOL    MW4 8176   2.252   0.373   3.416 -0.7001  0.5258  0.0426
 2045SOL     OW 8177   2.462   0.510   3.485 -0.2867  0.0265  0.0263
 2045SOL    HW2 8178   2.528   0.457   3.442  0.7808 -0.2906  2.0161
 2045SOL    HW3 8179   2.471   0.597   3.445 -0.7465 -0.7631 -1.8536
 2045SOL    MW4 8180   2.472   0.515   3.474 -0.2065 -0.1195  0.0408
 2046SOL     OW 8181   2.485   0.765   3.366  0.1335  0.2318 -0.2733
 2046SOL    HW2 8182   2.554   0.815   3.409 -0.2331 -0.2361  0.8651
 2046SOL    HW3 8183   2.506   0.771   3.273  3.4754 -2.4655  0.1755
 2046SOL    MW4 8184   2.497   0.772   3.359  0.5261 -0.1858 -0.0639
 2047SOL     OW 8185   2.256   0.899   3.468 -0.7136  0.1114  0.2420
 2047SOL    HW2 8186   2.248   0.989   3.436 -2.4802  0.1717  0.7761
 2047SOL    HW3 8187   2.328   0.862   3.417  0.1877  1.8844  0.1737
 2047SOL    MW4 8188   2.264   0.906   3.457 -0.8277  0.3533  0.3034
 2048SOL     OW 8189   2.254   1.163   3.353  0.0595 -0.3759 -0.1373
 2048SOL    HW2 8190   2.331   1.205   3.389  0.8044 -0.8666 -1.1237
 2048SOL    HW3 8191   2.181   1.202   3.401  0.8600  0.6209  0.3021
 2048SOL    MW4 8192   2.254   1.174   3.364  0.2634 -0.3091 -0.2094
 2049SOL     OW 8193   2.467   1.289   3.478 -0.2625  0.3203 -0.1163
 2049SOL    HW2 8194   2.485   1.298   3.572 -0.2880 -1.6275  0.1146
 2049SOL    HW3 8195   2.548   1.251   3.442 -0.2065  1.1728 -0.9099
 2049SOL    MW4 8196   2.480   1.285   3.486 -0.2585  0.1758 -0.1905
 2050SOL     OW 8197   2.479   1.553   3.399 -0.4530  0.1403 -0.0097
 2050SOL    HW2 8198   2.466   1.462   3.425 -0.5933  0.2493  0.3123
 2050SOL    HW3 8199   2.465   1.554   3.304 -0.8175 -0.1067  0.0407
 2050SOL    MW4 8200   2.476   1.541   3.390 -0.5196  0.1221  0.0395
 2051SOL     OW 8201   2.221   1.656   3.449  0.1125  0.2909 -0.3515
 2051SOL    HW2 8202   2.230   1.647   3.544  0.5466 -0.8700 -0.5001
 2051SOL    HW3 8203   2.305   1.629   3.414  0.1658  1.3276 -1.0468
 2051SOL    MW4 8204   2.233   1.652   3.457  0.1768  0.2745 -0.4628
 2052SOL     OW 8205   2.249   1.928   3.385 -0.7615  0.3132  0.0862
 2052SOL    HW2 8206   2.208   1.844   3.405  0.9101 -0.1732  1.5708
 2052SOL    HW3 8207   2.246   1.933   3.289 -1.0817 -1.3194 -0.0114
 2052SOL    MW4 8208   2.243   1.918   3.375 -0.5832  0.0336  0.2692
 2053SOL     OW 8209   2.481   2.054   3.463 -0.4715  0.0700 -0.0802
 2053SOL    HW2 8210   2.480   2.069   3.557 -0.8184 -0.3897 -0.0099
 2053SOL    HW3 8211   2.399   2.009   3.445 -0.3482  0.0460 -0.5839
 2053SOL    MW4 8212   2.470   2.050   3.473 -0.5010  0.0062 -0.1374
 2054SOL     OW 8213   2.453   2.313   3.401  0.2087 -0.0942  0.1905
 2054SOL    HW2 8214   2.523   2.363   3.441  0.8798 -0.3749 -0.6166
 2054SOL    HW3 8215   2.466   2.224   3.432 -0.1981 -0.0197  0.5787
 2054SOL    MW4 8216   2.464   2.308   3.410  0.2435 -0.1214  0.1353
 2055SOL     OW 8217   2.225   2.428   3.511 -0.2769  0.5498 -0.3278
 2055SOL    HW2 8218   2.229   2.521   3.488  1.7205  0.3283 -0.9335
 2055SOL    HW3 8219   2.300   2.389   3.468 -0.8717 -1.2978  0.2498
 2055SOL    MW4 8220   2.235   2.435   3.502 -0.0918  0.2768 -0.3315
 2056SOL     OW 8221   2.218   2.692   3.438 -0.3757 -0.1167  0.2070
 2056SOL    HW2 8222   2.148   2.749   3.468 -0.5945  0.4632 -1.3551
 2056SOL    HW3 8223   2.227   2.712   3.345  0.7602 -1.3464  0.0353
 2056SOL    MW4 8224   2.210   2.702   3.430 -0.2547 -0.2024 -0.0217
 2057SOL     OW 8225   2.449   2.839   3.502  0.6244  0.3006 -0.1690
 2057SOL    HW2 8226   2.443   2.927   3.466  0.9121  0.3155 -0.1874
 2057SOL    HW3 8227   2.365   2.798   3.483  0.4486  0.6123 -0.0527
 2057SOL    MW4 8228   2.437   2.845   3.495  0.6392  0.3437 -0.1561
 2058SOL     OW 8229   2.455   3.096   3.405 -0.4547  0.0585  0.0288
 2058SOL    HW2 8230   2.541   3.123   3.435 -0.4216 -0.2677  0.2332
 2058SOL    HW3 8231   2.461   3.095   3.310 -0.5591  1.0967  0.0059
 2058SOL    MW4 8232   2.467   3.099   3.397 -0.4641  0.1524  0.0527
 2059SOL     OW 8233   2.215   3.223   3.518  0.1888  0.5258  0.1287
 2059SOL    HW2 8234   2.234   3.221   3.612  0.4117 -1.7741  0.0642
 2059SOL    HW3 8235   2.292   3.183   3.477 -1.0219 -0.9158 -0.8021
 2059SOL    MW4 8236   2.228   3.217   3.525  0.0585  0.0322 -0.0026
 2060SOL     OW 8237   2.241   3.494   3.431  0.1297  0.4079  0.0057
 2060SOL    HW2 8238   2.234   3.408   3.473 -0.2023  0.6369  0.4149
 2060SOL    HW3 8239   2.218   3.477   3.339  0.4702 -0.0171 -0.0042
 2060SOL    MW4 8240   2.237   3.480   3.424  0.1308  0.3820  0.0584
 2061SOL     OW 8241   2.497   3.595   3.471  0.4116 -0.1036 -0.2360
 2061SOL    HW2 8242   2.497   3.687   3.445  0.3851 -0.0168  0.0637
 2061SOL    HW3 8243   2.405   3.568   3.464  0.4906 -0.2385 -0.7737
 2061SOL    MW4 8244   2.485   3.604   3.467  0.4185 -0.1099 -0.2674
 2062SOL     OW 8245   2.465   3.857   3.369  0.4423 -0.1128 -0.1763
 2062SOL    HW2 8246   2.541   3.900   3.409  0.4257 -0.3182  0.0754
 2062SOL    HW3 8247   2.389   3.904   3.404  0.4737  0.4352 -0.8362
 2062SOL    MW4 8248   2.465   3.869   3.379  0.4442 -0.0676 -0.2302
 2063SOL     OW 8249   2.239   3.982   3.466 -0.3927  0.0231 -0.2910
 2063SOL    HW2 8250   2.241   4.074   3.439 -1.1855  0.5764  1.4380
 2063SOL    HW3 8251   2.158   3.948   3.428 -1.0494  0.5632  0.5776
 2063SOL    MW4 8252   2.228   3.990   3.458 -0.5840  0.1674  0.0517
 2064SOL     OW 8253   2.252   4.242   3.383 -0.7177  0.5230  0.0931
 2064SOL    HW2 8254   2.187   4.292   3.433 -1.6390 -1.5516  1.0109
 2064SOL    HW3 8255   2.234   4.264   3.292 -0.5098  2.5725  0.5123
 2064SOL    MW4 8256   2.241   4.252   3.378 -0.8118  0.5197  0.2695
 2065SOL     OW 8257   2.473   4.399   3.468 -0.2125 -0.3704  0.5350
 2065SOL    HW2 8258   2.476   4.392   3.563  0.0956 -1.1736  0.4731
 2065SOL    HW3 8259   2.395   4.349   3.443 -0.0267 -0.5585  0.3323
 2065SOL    MW4 8260   2.463   4.391   3.477 -0.1474 -0.5012  0.5001
 2066SOL     OW 8261   2.949   4.637   3.434  0.0315  0.3370  0.6220
 2066SOL    HW2 8262   2.870   4.685   3.460  0.3992  1.4330 -0.2570
 2066SOL    HW3 8263   2.939   4.624   3.340  0.6223 -0.0640  0.6101
 2066SOL    MW4 8264   2.937   4.641   3.425  0.1579  0.4287  0.5045
 2067SOL     OW 8265   2.714   0.103   3.501  0.5343 -0.3835  0.0257
 2067SOL    HW2 8266   2.698   0.191   3.466  0.2892 -0.5143 -0.1866
 2067SOL    HW3 8267   2.646   0.048   3.462 -0.3626 -0.3301  1.4988
 2067SOL    MW4 8268   2.703   0.107   3.491  0.3836 -0.3938  0.1921
 2068SOL     OW 8269   2.663   0.364   3.382 -0.4567 -0.3388  0.0922
 2068SOL    HW2 8270   2.745   0.400   3.417  0.3386 -1.3452 -0.6896
 2068SOL    HW3 8271   2.672   0.373   3.287 -2.2335  1.6135  0.0854
 2068SOL    MW4 8272   2.675   0.370   3.374 -0.5862 -0.2140 -0.0118
 2069SOL     OW 8273   2.880   0.500   3.475 -0.0380  0.5612  0.3288
 2069SOL    HW2 8274   2.909   0.503   3.567  2.1221  0.5523 -0.3150
 2069SOL    HW3 8275   2.899   0.588   3.442  1.0372 -0.0116 -0.6175
 2069SOL    MW4 8276   2.887   0.512   3.483  0.3889  0.4844  0.1190
 2070SOL     OW 8277   2.926   0.767   3.405 -0.1055 -0.0013  0.4713
 2070SOL    HW2 8278   3.000   0.815   3.441  0.3904 -0.2697 -0.1705
 2070SOL    HW3 8279   2.851   0.796   3.457  0.5309 -0.1268  1.4761
 2070SOL    MW4 8280   2.926   0.777   3.416  0.0439 -0.0532  0.5192
 2071SOL     OW 8281   2.702   0.887   3.502  0.1809 -0.0054 -0.3694
 2071SOL    HW2 8282   2.690   0.897   3.596 -0.8937  0.8282 -0.5804
 2071SOL    HW3 8283   2.697   0.976   3.467  1.7647 -0.1801 -1.0942
 2071SOL    MW4 8284   2.700   0.900   3.510  0.2481  0.0815 -0.4929
 2072SOL     OW 8285   2.717   1.138   3.401 -0.5101 -0.5034  0.6178
 2072SOL    HW2 8286   2.786   1.199   3.426  0.8196 -2.2856  1.3517
 2072SOL    HW3 8287   2.710   1.147   3.306 -0.5356  0.9856  0.7480
 2072SOL    MW4 8288   2.725   1.148   3.392 -0.3380 -0.5421  0.7318
 2073SOL     OW 8289   2.954   1.297   3.494 -0.1031 -0.4744 -0.2908
 2073SOL    HW2 8290   2.939   1.289   3.588  1.2654 -0.5756 -0.0768
 2073SOL    HW3 8291   3.034   1.248   3.478  0.1827  0.3155 -1.3575
 2073SOL    MW4 8292   2.963   1.290   3.504  0.1151 -0.3836 -0.4033
 2074SOL     OW 8293   2.935   1.562   3.422 -0.1433 -0.0137 -0.2019
 2074SOL    HW2 8294   2.845   1.594   3.429 -0.2912 -0.7325  1.5815
 2074SOL    HW3 8295   2.928   1.470   3.448  1.0020 -0.2446 -0.7228
 2074SOL    MW4 8296   2.922   1.554   3.427 -0.0117 -0.1390 -0.0353
 2075SOL     OW 8297   2.707   1.675   3.484  0.3757  0.3071 -0.1400
 2075SOL    HW2 8298   2.714   1.767   3.461  0.0392  0.3935  0.1064
 2075SOL    HW3 8299   2.624   1.647   3.446  0.1449  0.2788  0.3940
 2075SOL    MW4 8300   2.697   1.683   3.476  0.3008  0.3147 -0.0370
 2076SOL     OW 8301   2.729   1.941   3.394  0.4304 -0.0728 -0.4493
 2076SOL    HW2 8302   2.642   1.974   3.418  0.4026 -1.5005  1.5521
 2076SOL    HW3 8303   2.725   1.932   3.299 -1.0592  1.4197 -0.5622
 2076SOL    MW4 8304   2.717   1.944   3.385  0.2302 -0.0643 -0.2002
 2077SOL     OW 8305   2.950   2.057   3.503 -0.2852  0.0475 -0.2151
 2077SOL    HW2 8306   2.941   2.029   3.594 -1.1068  0.0449 -0.2982
 2077SOL    HW3 8307   2.869   2.029   3.461  0.2256 -0.2153 -1.0180
 2077SOL    MW4 8308   2.938   2.050   3.510 -0.3262  0.0125 -0.3320
 2078SOL     OW 8309   2.922   2.330   3.452  0.0914 -0.0147  0.3195
 2078SOL    HW2 8310   2.930   2.239   3.481  1.2594  0.1302  0.4546
 2078SOL    HW3 8311   2.933   2.326   3.357  1.4027  0.1263  0.4545
 2078SOL    MW4 8312   2.924   2.317   3.443  0.4185  0.0231  0.3551
 2079SOL     OW 8313   2.665   2.429   3.535  0.2923 -0.2116 -0.6950
 2079SOL    HW2 8314   2.674   2.423   3.630  0.7090  0.5564 -0.6852
 2079SOL    HW3 8315   2.753   2.410   3.501  0.0182 -1.0555 -0.9578
 2079SOL    MW4 8316   2.678   2.426   3.543  0.3111 -0.2217 -0.7284
 2080SOL     OW 8317   2.670   2.708   3.423 -0.1732  0.2335 -0.1373
 2080SOL    HW2 8318   2.661   2.628   3.475  1.6607 -0.3797 -0.7179
 2080SOL    HW3 8319   2.600   2.765   3.454 -1.8744 -1.8150 -0.1042
 2080SOL    MW4 8320   2.660   2.705   3.434 -0.1557 -0.1177 -0.2095
 2081SOL     OW 8321   2.930   2.795   3.480  0.1795 -0.1260  0.3468
 2081SOL    HW2 8322   2.933   2.794   3.576  0.9736  2.0564  0.3717
 2081SOL    HW3 8323   2.840   2.771   3.459 -0.2203  0.1675  1.6659
 2081SOL    MW4 8324   2.918   2.792   3.490  0.2315  0.2006  0.5241
 2082SOL     OW 8325   2.956   3.068   3.412  0.6845 -0.3633  0.0267
 2082SOL    HW2 8326   2.938   2.975   3.426 -1.5382  0.2885  1.7643
 2082SOL    HW3 8327   2.968   3.076   3.317 -1.1182 -2.0859 -0.3709
 2082SOL    MW4 8328   2.955   3.057   3.401  0.1534 -0.5046  0.2035
 2083SOL     OW 8329   2.713   3.177   3.494 -0.1216 -0.4715  0.4562
 2083SOL    HW2 8330   2.730   3.181   3.588  1.8498 -1.2537  0.1583
 2083SOL    HW3 8331   2.796   3.151   3.456 -1.3894 -2.0523 -1.3365
 2083SOL    MW4 8332   2.726   3.174   3.501 -0.0288 -0.7833  0.1804
 2084SOL     OW 8333   2.705   3.440   3.412  0.1240  0.0249  0.1622
 2084SOL    HW2 8334   2.692   3.353   3.449 -1.1541  0.4455  0.7452
 2084SOL    HW3 8335   2.635   3.493   3.450  0.8420  1.2929 -0.2416
 2084SOL    MW4 8336   2.694   3.436   3.422  0.0501  0.2477  0.1858
 2085SOL     OW 8337   2.930   3.596   3.508 -0.0992 -0.1101  0.2800
 2085SOL    HW2 8338   2.932   3.687   3.481  1.2107 -0.8555 -2.2972
 2085SOL    HW3 8339   2.850   3.561   3.470 -0.0664 -0.2861  0.3691
 2085SOL    MW4 8340   2.920   3.603   3.500  0.0780 -0.2317 -0.0483
 2086SOL     OW 8341   2.928   3.852   3.414 -0.2160 -0.0360  0.1682
 2086SOL    HW2 8342   3.003   3.907   3.440  1.1885 -1.9326  0.2012
 2086SOL    HW3 8343   2.851   3.907   3.431  1.1169  1.6331  0.9377
 2086SOL    MW4 8344   2.928   3.867   3.419  0.1452 -0.0660  0.2740
 2087SOL     OW 8345   2.693   3.998   3.488  0.1114 -0.2250  0.2547
 2087SOL    HW2 8346   2.704   3.993   3.582 -1.0250 -0.1612  0.3970
 2087SOL    HW3 8347   2.708   4.090   3.466  1.2726 -0.4063  0.2444
 2087SOL    MW4 8348   2.696   4.009   3.497  0.1147 -0.2405  0.2721
 2088SOL     OW 8349   2.700   4.258   3.413 -0.1048 -0.0240  0.3612
 2088SOL    HW2 8350   2.767   4.298   3.469 -1.4405 -0.4717  2.3294
 2088SOL    HW3 8351   2.625   4.317   3.420 -0.2664 -0.0717 -0.9949
 2088SOL    MW4 8352   2.699   4.271   3.422 -0.3024 -0.0893  0.4420
 2089SOL     OW 8353   2.947   4.378   3.515  0.7308 -0.2400  0.1035
 2089SOL    HW2 8354   2.940   4.373   3.610 -1.2917 -0.2667 -0.0249
 2089SOL    HW3 8355   2.941   4.472   3.495  1.4408 -0.2094  0.0080
 2089SOL    MW4 8356   2.945   4.390   3.525  0.5577 -0.2395  0.0740
 2090SOL     OW 8357   3.405   4.667   3.402  0.1372  0.1876  0.2122
 2090SOL    HW2 8358   3.329   4.719   3.428  0.2290  0.4475 -0.0357
 2090SOL    HW3 8359   3.397   4.657   3.307 -0.5102 -1.2638  0.3997
 2090SOL    MW4 8360   3.394   4.672   3.393  0.0639  0.0304  0.2042
 2091SOL     OW 8361   3.170   0.120   3.512  0.3937 -0.6816 -0.5151
 2091SOL    HW2 8362   3.163   0.207   3.474 -1.3019 -0.5342  0.1189
 2091SOL    HW3 8363   3.094   0.073   3.479  1.0339 -1.7800 -0.4592
 2091SOL    MW4 8364   3.159   0.125   3.503  0.2544 -0.8071 -0.4240
 2092SOL     OW 8365   3.143   0.383   3.421  0.4008 -0.1964 -0.5101
 2092SOL    HW2 8366   3.063   0.430   3.445  0.6085  0.2402 -0.6727
 2092SOL    HW3 8367   3.140   0.379   3.325  1.1185  0.7840 -0.5790
 2092SOL    MW4 8368   3.132   0.389   3.412  0.5229 -0.0094 -0.5406
 2093SOL     OW 8369   3.362   0.509   3.542 -0.3048 -0.8964  0.0681
 2093SOL    HW2 8370   3.331   0.507   3.633 -0.1525 -1.1359  0.1156
 2093SOL    HW3 8371   3.293   0.466   3.492 -0.2784 -0.9773  0.1022
 2093SOL    MW4 8372   3.349   0.503   3.547 -0.2812 -0.9387  0.0789
 2094SOL     OW 8373   3.395   0.767   3.411  0.0788 -0.0016 -0.2671
 2094SOL    HW2 8374   3.467   0.820   3.446 -1.3195  1.8748 -0.0963
 2094SOL    HW3 8375   3.391   0.691   3.468  1.0200  0.5853  0.6036
 2094SOL    MW4 8376   3.404   0.764   3.423  0.0185  0.3234 -0.1297
 2095SOL     OW 8377   3.151   0.874   3.529 -0.0473 -0.9215  0.1011
 2095SOL    HW2 8378   3.162   0.967   3.507  1.6500 -1.1577 -0.0974
 2095SOL    HW3 8379   3.217   0.829   3.475 -1.0570 -2.2740 -0.0271
 2095SOL    MW4 8380   3.161   0.880   3.519  0.0434 -1.1311  0.0580
 2096SOL     OW 8381   3.185   1.137   3.433 -0.7497  0.1170  0.0120
 2096SOL    HW2 8382   3.261   1.189   3.459 -0.7883 -0.0941  0.5673
 2096SOL    HW3 8383   3.184   1.141   3.338 -1.0039  1.4756  0.0696
 2096SOL    MW4 8384   3.195   1.144   3.424 -0.7883  0.2684  0.0929
 2097SOL     OW 8385   3.384   1.307   3.539 -0.4792  0.0836  0.2226
 2097SOL    HW2 8386   3.469   1.268   3.521  0.2407  1.3262  0.9015
 2097SOL    HW3 8387   3.379   1.382   3.479 -1.7976 -0.9230 -0.9805
 2097SOL    MW4 8388   3.394   1.312   3.528 -0.5582  0.1147  0.1535
 2098SOL     OW 8389   3.376   1.568   3.394 -0.1910  0.0855  0.2999
 2098SOL    HW2 8390   3.453   1.607   3.436  0.3096 -0.8004  0.2184
 2098SOL    HW3 8391   3.302   1.598   3.447  0.2495  0.5740  0.6495
 2098SOL    MW4 8392   3.376   1.577   3.407 -0.0668  0.0331  0.3353
 2099SOL     OW 8393   3.159   1.657   3.544  0.3036  0.2627 -0.4786
 2099SOL    HW2 8394   3.167   1.737   3.494 -1.1536  1.0053  0.4238
 2099SOL    HW3 8395   3.076   1.619   3.515 -0.7908  0.9357  1.6490
 2099SOL    MW4 8396   3.149   1.662   3.534 -0.0331  0.4495 -0.0788
 2100SOL     OW 8397   3.172   1.903   3.439  0.1946 -0.2549  0.3088
 2100SOL    HW2 8398   3.094   1.944   3.476  0.3612 -0.6174  1.0755
 2100SOL    HW3 8399   3.171   1.927   3.347 -0.9792 -0.4921  0.2538
 2100SOL    MW4 8400   3.161   1.911   3.432  0.0617 -0.3340  0.4027
 2101SOL     OW 8401   3.413   2.047   3.497 -0.1782 -0.0071 -0.1242
 2101SOL    HW2 8402   3.407   2.136   3.464  0.4641  0.2017  0.3024
 2101SOL    HW3 8403   3.339   2.001   3.458 -0.2123  0.5819 -0.7549
 2101SOL    MW4 8404   3.403   2.053   3.488 -0.0980  0.0981 -0.1511
 2102SOL     OW 8405   3.390   2.315   3.407 -0.3594 -0.0473 -0.1302
 2102SOL    HW2 8406   3.462   2.360   3.451 -1.0378  1.4873 -0.5676
 2102SOL    HW3 8407   3.311   2.359   3.438 -0.9475 -0.0791 -1.5542
 2102SOL    MW4 8408   3.389   2.327   3.417 -0.5265  0.1510 -0.3758
 2103SOL     OW 8409   3.172   2.445   3.509  0.5150  0.0556 -0.5009
 2103SOL    HW2 8410   3.181   2.539   3.493 -2.0975  0.6075  1.0127
 2103SOL    HW3 8411   3.083   2.424   3.481  0.5735 -1.6662  0.5264
 2103SOL    MW4 8412   3.161   2.455   3.504  0.1780 -0.0987 -0.1656
 2104SOL     OW 8413   3.185   2.715   3.427  0.1104 -0.5756 -0.5583
 2104SOL    HW2 8414   3.246   2.783   3.453 -0.0838 -0.4511 -0.4222
 2104SOL    HW3 8415   3.098   2.753   3.443 -0.0045 -0.6878 -0.8997
 2104SOL    MW4 8416   3.181   2.729   3.433  0.0696 -0.5740 -0.5854
 2105SOL     OW 8417   3.388   2.882   3.536  0.0216 -0.1357 -0.0792
 2105SOL    HW2 8418   3.461   2.828   3.507 -0.0203 -0.1469 -0.1621
 2105SOL    HW3 8419   3.398   2.965   3.489 -1.3473 -0.9627 -1.8427
 2105SOL    MW4 8420   3.399   2.886   3.526 -0.1646 -0.2462 -0.3228
 2106SOL     OW 8421   3.354   3.112   3.369 -0.0878  0.2087  0.4673
 2106SOL    HW2 8422   3.429   3.169   3.387 -0.2560  0.8113 -0.6564
 2106SOL    HW3 8423   3.284   3.145   3.425  0.7387 -0.9318  2.2001
 2106SOL    MW4 8424   3.355   3.124   3.379 -0.0009  0.1378  0.5476
 2107SOL     OW 8425   3.153   3.235   3.533  0.2630  0.0534  0.3886
 2107SOL    HW2 8426   3.154   3.314   3.479 -0.6344 -0.0441  0.2271
 2107SOL    HW3 8427   3.084   3.180   3.495 -0.0079 -0.2475  1.2955
 2107SOL    MW4 8428   3.144   3.238   3.521  0.1089  0.0008  0.4869
 2108SOL     OW 8429   3.194   3.479   3.413 -0.1580  0.3535  0.1246
 2108SOL    HW2 8430   3.113   3.519   3.442 -0.8988 -1.0735  0.0723
 2108SOL    HW3 8431   3.197   3.497   3.319 -0.5946  0.1126  0.0618
 2108SOL    MW4 8432   3.184   3.487   3.404 -0.3134  0.1334  0.1094
 2109SOL     OW 8433   3.400   3.615   3.518 -0.6675 -0.3926  0.0063
 2109SOL    HW2 8434   3.401   3.694   3.465  1.3118 -1.6215 -1.8897
 2109SOL    HW3 8435   3.329   3.562   3.482  1.0717 -1.4964 -1.9280
 2109SOL    MW4 8436   3.391   3.618   3.507 -0.1769 -0.7004 -0.4991
 2110SOL     OW 8437   3.400   3.861   3.375  0.3382 -0.1907  0.2829
 2110SOL    HW2 8438   3.464   3.918   3.418  0.7514  0.4762 -1.1470
 2110SOL    HW3 8439   3.316   3.905   3.389  0.5058  0.1653  0.1886
 2110SOL    MW4 8440   3.398   3.875   3.382  0.4148 -0.0557  0.0818
 2111SOL     OW 8441   3.160   3.996   3.462  0.1801  0.0148 -0.8417
 2111SOL    HW2 8442   3.175   4.000   3.556 -3.4007 -2.6311 -0.0432
 2111SOL    HW3 8443   3.172   4.086   3.431  2.3232  0.7379  1.9421
 2111SOL    MW4 8444   3.163   4.008   3.470 -0.0095 -0.2389 -0.3691
 2112SOL     OW 8445   3.166   4.277   3.385 -0.3908 -0.0547 -0.3769
 2112SOL    HW2 8446   3.234   4.324   3.432 -0.4549 -1.4480  1.1508
 2112SOL    HW3 8447   3.084   4.309   3.422 -0.4362 -1.2751  0.6238
 2112SOL    MW4 8448   3.164   4.288   3.396 -0.4052 -0.3995 -0.0433
 2113SOL     OW 8449   3.383   4.420   3.500  0.1159 -0.5092  0.2905
 2113SOL    HW2 8450   3.386   4.429   3.596 -1.0793  1.7589  0.1424
 2113SOL    HW3 8451   3.382   4.510   3.468 -1.2928 -1.2354 -1.7861
 2113SOL    MW4 8452   3.383   4.433   3.509 -0.2276 -0.3058 -0.0030
 2114SOL     OW 8453   3.788   4.654   3.452  0.5972  0.4003  1.0225
 2114SOL    HW2 8454   3.728   4.725   3.475  0.9889  0.6531  1.2523
 2114SOL    HW3 8455   3.807   4.668   3.359  0.5847  0.5230  1.0389
 2114SOL    MW4 8456   3.783   4.665   3.442  0.6472  0.4498  1.0550
 2115SOL     OW 8457   3.601   0.166   3.512  0.4400  0.2625  0.7460
 2115SOL    HW2 8458   3.592   0.243   3.456  0.2304 -0.0701  0.3246
 2115SOL    HW3 8459   3.530   0.108   3.485  1.3907 -0.6480  0.1489
 2115SOL    MW4 8460   3.591   0.168   3.501  0.5378  0.0985  0.6116
 2116SOL     OW 8461   3.577   0.429   3.389  0.1570 -0.0878 -0.6396
 2116SOL    HW2 8462   3.656   0.473   3.421  0.8626 -3.0239  1.8898
 2116SOL    HW3 8463   3.510   0.450   3.454  0.0726 -1.4169 -0.2958
 2116SOL    MW4 8464   3.578   0.438   3.402  0.2389 -0.6506 -0.2605
 2117SOL     OW 8465   3.802   0.552   3.536 -0.0463  0.3532  0.1602
 2117SOL    HW2 8466   3.776   0.559   3.628  0.4334  2.5549  0.1617
 2117SOL    HW3 8467   3.863   0.478   3.534  2.4223  2.2102  2.2490
 2117SOL    MW4 8468   3.807   0.544   3.548  0.3427  0.8887  0.4360
 2118SOL     OW 8469   3.829   0.811   3.441  0.2165  0.3442  0.1715
 2118SOL    HW2 8470   3.911   0.848   3.474  1.1072 -1.3451 -0.0723
 2118SOL    HW3 8471   3.831   0.719   3.469 -1.4258  0.1941 -0.1597
 2118SOL    MW4 8472   3.840   0.803   3.449  0.1173  0.1015  0.0956
 2119SOL     OW 8473   3.605   0.917   3.539 -0.0827 -0.3389 -0.2630
 2119SOL    HW2 8474   3.624   0.908   3.633  0.8323 -1.2509 -0.5332
 2119SOL    HW3 8475   3.683   0.884   3.495 -0.6299 -0.1980 -1.3551
 2119SOL    MW4 8476   3.618   0.911   3.546 -0.0342 -0.4406 -0.4427
 2120SOL     OW 8477   3.603   1.166   3.456  0.3074 -0.1637 -0.1590
 2120SOL    HW2 8478   3.596   1.079   3.494  0.4966 -0.5057 -0.8843
 2120SOL    HW3 8479   3.587   1.152   3.362 -0.0472  0.6360 -0.2215
 2120SOL    MW4 8480   3.600   1.153   3.448  0.2856 -0.1033 -0.2629
 2121SOL     OW 8481   3.853   1.272   3.511 -0.3693  0.1446 -0.0715
 2121SOL    HW2 8482   3.856   1.263   3.606 -0.8740  0.2567 -0.0399
 2121SOL    HW3 8483   3.767   1.236   3.487  0.4715 -1.5001 -0.6662
 2121SOL    MW4 8484   3.842   1.266   3.520 -0.3249 -0.0576 -0.1458
 2122SOL     OW 8485   3.832   1.531   3.411 -0.1139  0.5498  0.1402
 2122SOL    HW2 8486   3.909   1.576   3.446  0.8820  2.0128 -3.7305
 2122SOL    HW3 8487   3.840   1.441   3.444  3.0868  0.7556  0.0782
 2122SOL    MW4 8488   3.844   1.525   3.420  0.4398  0.7700 -0.3787
 2123SOL     OW 8489   3.610   1.679   3.517  0.3237  0.3813 -0.0300
 2123SOL    HW2 8490   3.639   1.766   3.489  0.9195  0.6111  1.2500
 2123SOL    HW3 8491   3.678   1.619   3.487  0.3209  0.4631 -0.1987
 2123SOL    MW4 8492   3.622   1.683   3.510  0.4020  0.4224  0.1166
 2124SOL     OW 8493   3.650   1.928   3.418 -0.3586 -0.3435  0.7127
 2124SOL    HW2 8494   3.721   1.991   3.435  0.0131 -0.3983 -0.6139
 2124SOL    HW3 8495   3.571   1.973   3.447 -0.0494  0.5829  0.1441
 2124SOL    MW4 8496   3.649   1.942   3.424 -0.2688 -0.2285  0.4627
 2125SOL     OW 8497   3.851   2.083   3.523 -0.0501  0.4600 -0.3724
 2125SOL    HW2 8498   3.860   2.088   3.618  0.7595  0.9167 -0.4756
 2125SOL    HW3 8499   3.922   2.025   3.495 -0.2460  0.3821 -0.7134
 2125SOL    MW4 8500   3.862   2.076   3.532  0.0309  0.5100 -0.4310
 2126SOL     OW 8501   3.815   2.314   3.391 -0.0126 -0.1307  0.2963
 2126SOL    HW2 8502   3.895   2.366   3.394  0.4078 -0.7344 -0.3042
 2126SOL    HW3 8503   3.839   2.230   3.430 -0.7276  0.1698  1.3977
 2126SOL    MW4 8504   3.829   2.310   3.397 -0.0515 -0.1707  0.3624
 2127SOL     OW 8505   3.605   2.447   3.516  0.2401 -0.2913 -0.2939
 2127SOL    HW2 8506   3.610   2.538   3.487 -0.6173 -0.3948 -0.7997
 2127SOL    HW3 8507   3.678   2.403   3.473  1.3098  0.3740  0.8063
 2127SOL    MW4 8508   3.615   2.453   3.507  0.2681 -0.2172 -0.2154
 2128SOL     OW 8509   3.597   2.721   3.453  0.0653 -0.6043 -0.2768
 2128SOL    HW2 8510   3.686   2.742   3.482 -0.7897  1.0595  1.2903
 2128SOL    HW3 8511   3.595   2.742   3.360  0.7605  1.3235  0.1207
 2128SOL    MW4 8512   3.608   2.727   3.445  0.0442 -0.1304 -0.0176
 2129SOL     OW 8513   3.844   2.802   3.543 -0.4251 -0.0239 -0.1773
 2129SOL    HW2 8514   3.844   2.806   3.638 -0.9440  0.5565 -0.1954
 2129SOL    HW3 8515   3.846   2.893   3.515  0.1865 -0.2041 -0.7236
 2129SOL    MW4 8516   3.844   2.815   3.552 -0.4128  0.0289 -0.2517
 2130SOL     OW 8517   3.840   3.052   3.413  0.5466 -0.0147  0.5017
 2130SOL    HW2 8518   3.907   3.113   3.445  0.0373 -0.1060  1.7815
 2130SOL    HW3 8519   3.846   3.058   3.318  2.0255  0.3619  0.6022
 2130SOL    MW4 8520   3.849   3.061   3.405  0.6745  0.0229  0.6838
 2131SOL     OW 8521   3.608   3.213   3.450 -0.1956 -0.1815 -0.3704
 2131SOL    HW2 8522   3.645   3.300   3.433 -0.8547  0.1339 -0.2169
 2131SOL    HW3 8523   3.680   3.152   3.435  0.3457  0.4182 -0.2110
 2131SOL    MW4 8524   3.622   3.217   3.446 -0.2111 -0.0608 -0.3291
 2132SOL     OW 8525   3.608   3.500   3.377  0.2674 -0.2716  0.2068
 2132SOL    HW2 8526   3.534   3.539   3.422  1.7958  0.3830  2.2380
 2132SOL    HW3 8527   3.578   3.487   3.287 -3.0049 -2.0077  1.4845
 2132SOL    MW4 8528   3.594   3.504   3.371  0.0373 -0.4143  0.6434
 2133SOL     OW 8529   3.822   3.642   3.478  0.5512 -0.1909 -0.0202
 2133SOL    HW2 8530   3.822   3.627   3.572 -0.7703 -0.1003  0.0018
 2133SOL    HW3 8531   3.753   3.584   3.444 -0.8189  1.7401 -0.5935
 2133SOL    MW4 8532   3.813   3.632   3.486  0.1961  0.0758 -0.0930
 2134SOL     OW 8533   3.820   3.934   3.442 -0.0253  0.5947  0.3427
 2134SOL    HW2 8534   3.732   3.954   3.475  0.8035  1.3086  2.2164
 2134SOL    HW3 8535   3.826   3.839   3.447 -0.7570  0.5225  0.0024
 2134SOL    MW4 8536   3.809   3.924   3.447 -0.0125  0.6794  0.5450
 2135SOL     OW 8537   3.573   4.022   3.532 -0.1396 -0.3468 -0.0026
 2135SOL    HW2 8538   3.574   4.039   3.626 -0.5406  0.3415 -0.1259
 2135SOL    HW3 8539   3.575   4.109   3.491 -0.4233 -0.6301 -0.6294
 2135SOL    MW4 8540   3.574   4.036   3.539 -0.2299 -0.2934 -0.1015
 2136SOL     OW 8541   3.588   4.277   3.420  0.1599 -0.1870 -0.2326
 2136SOL    HW2 8542   3.517   4.335   3.450  0.2449 -0.0980 -0.2016
 2136SOL    HW3 8543   3.576   4.272   3.325  0.2488  0.0103 -0.2545
 2136SOL    MW4 8544   3.577   4.284   3.411  0.1828 -0.1492 -0.2314
 2137SOL     OW 8545   3.826   4.391   3.512  0.5083 -0.2467 -0.2555
 2137SOL    HW2 8546   3.744   4.355   3.479  0.0059 -0.9421  1.6899
 2137SOL    HW3 8547   3.820   4.485   3.495 -0.8937 -0.2398  0.2991
 2137SOL    MW4 8548   3.815   4.399   3.505  0.2571 -0.3376  0.0743
 2138SOL     OW 8549   4.253   4.618   3.472  0.3918  0.2507  0.3740
 2138SOL    HW2 8550   4.269   4.532   3.509 -0.3929  0.0155  0.1711
 2138SOL    HW3 8551   4.339   4.661   3.473  0.9278 -0.8052 -0.2449
 2138SOL    MW4 8552   4.266   4.613   3.477  0.3590  0.0804  0.2656
 2139SOL     OW 8553   4.025   0.087   3.546 -0.0401  0.1198 -0.3982
 2139SOL    HW2 8554   4.103   0.042   3.514 -0.0376  0.2449 -0.5684
 2139SOL    HW3 8555   3.952   0.036   3.511 -0.0373  0.2747 -0.6284
 2139SOL    MW4 8556   4.026   0.074   3.537 -0.0394  0.1567 -0.4511
 2140SOL     OW 8557   4.004   0.365   3.466 -0.5770  0.1147  0.3390
 2140SOL    HW2 8558   4.010   0.272   3.487 -1.7711 -0.1842 -0.6392
 2140SOL    HW3 8559   4.003   0.369   3.371 -2.0095  1.0137  0.3727
 2140SOL    MW4 8560   4.005   0.353   3.457 -0.9236  0.1939  0.2144
 2141SOL     OW 8561   4.270   0.458   3.532  0.3141  0.0536 -0.3591
 2141SOL    HW2 8562   4.260   0.553   3.520  0.1378  0.2389  1.1222
 2141SOL    HW3 8563   4.186   0.421   3.503 -0.6555  0.6151  1.6074
 2141SOL    MW4 8564   4.257   0.466   3.526  0.1629  0.1521  0.0958
 2142SOL     OW 8565   4.265   0.730   3.443 -0.3620 -0.3523 -0.2964
 2142SOL    HW2 8566   4.354   0.762   3.460 -0.6310 -0.0611  0.6352
 2142SOL    HW3 8567   4.256   0.733   3.348  1.2524 -2.0848 -0.5326
 2142SOL    MW4 8568   4.276   0.735   3.433 -0.1845 -0.5425 -0.2046
 2143SOL     OW 8569   4.066   0.909   3.523 -0.3396 -0.4406  0.0310
 2143SOL    HW2 8570   4.071   0.996   3.484  1.7200  0.7520  2.7592
 2143SOL    HW3 8571   4.140   0.861   3.486 -1.1707 -0.8842 -1.0795
 2143SOL    MW4 8572   4.077   0.914   3.513 -0.1775 -0.3418  0.2444
 2144SOL     OW 8573   4.068   1.151   3.398 -0.0765  0.0488  0.4557
 2144SOL    HW2 8574   4.139   1.198   3.443 -0.3516 -0.0540  1.0054
 2144SOL    HW3 8575   3.988   1.181   3.442 -0.2323 -1.1472  1.0071
 2144SOL    MW4 8576   4.067   1.161   3.410 -0.1334 -0.1225  0.6010
 2145SOL     OW 8577   4.288   1.284   3.534 -0.2584  0.4474 -0.0478
 2145SOL    HW2 8578   4.290   1.369   3.490 -3.1388  0.2867 -0.5290
 2145SOL    HW3 8579   4.351   1.231   3.485 -0.4546  1.4856 -1.4677
 2145SOL    MW4 8580   4.297   1.289   3.522 -0.6643  0.5632 -0.2986
 2146SOL     OW 8581   4.313   1.528   3.385  0.2887 -0.6843  0.1806
 2146SOL    HW2 8582   4.232   1.567   3.417 -0.2170 -0.8434 -0.9082
 2146SOL    HW3 8583   4.308   1.537   3.290  1.1466 -1.4926  0.0583
 2146SOL    MW4 8584   4.302   1.535   3.377  0.3352 -0.8119  0.0208
 2147SOL     OW 8585   4.070   1.649   3.495 -0.1935  0.2665 -0.1328
 2147SOL    HW2 8586   4.086   1.665   3.588  0.7138 -1.3348 -0.0013
 2147SOL    HW3 8587   4.052   1.736   3.459 -0.1169  0.9612  1.4459
 2147SOL    MW4 8588   4.070   1.663   3.503 -0.0637  0.1469  0.0928
 2148SOL     OW 8589   4.072   1.917   3.431  0.3642 -0.4643 -0.0235
 2148SOL    HW2 8590   4.149   1.959   3.467 -0.1230  0.7192 -0.3554
 2148SOL    HW3 8591   4.081   1.924   3.336 -0.4164  0.1758 -0.0590
 2148SOL    MW4 8592   4.083   1.923   3.423  0.1969 -0.2237 -0.0720
 2149SOL     OW 8593   4.283   2.064   3.517 -0.0325  0.0391  0.2000
 2149SOL    HW2 8594   4.290   2.149   3.473  0.6216  0.0978  0.4020
 2149SOL    HW3 8595   4.366   2.021   3.498 -0.5191 -0.7114 -0.2083
 2149SOL    MW4 8596   4.295   2.070   3.509 -0.0104 -0.0522  0.1728
 2150SOL     OW 8597   4.294   2.340   3.404  0.5129  0.6285 -0.0395
 2150SOL    HW2 8598   4.222   2.385   3.449  0.2275  0.0283  0.1057
 2150SOL    HW3 8599   4.266   2.336   3.313 -0.2190 -0.7250  0.2266
 2150SOL    MW4 8600   4.280   2.345   3.398  0.3787  0.3707  0.0148
 2151SOL     OW 8601   4.046   2.455   3.472 -0.2037 -0.9057  0.1374
 2151SOL    HW2 8602   4.020   2.456   3.564  0.0404 -1.5379  0.2181
 2151SOL    HW3 8603   4.084   2.541   3.456 -0.6696 -0.6338  0.5068
 2151SOL    MW4 8604   4.048   2.466   3.482 -0.2330 -0.9532  0.1968
 2152SOL     OW 8605   4.076   2.736   3.407  0.4441  0.4006  0.2016
 2152SOL    HW2 8606   4.144   2.794   3.443 -0.4386  1.2034  0.6142
 2152SOL    HW3 8607   3.997   2.760   3.456 -0.7901  1.4864 -2.2287
 2152SOL    MW4 8608   4.074   2.747   3.418  0.1648  0.6498 -0.0646
 2153SOL     OW 8609   4.322   2.851   3.518  0.2957 -0.4478 -0.0625
 2153SOL    HW2 8610   4.326   2.829   3.611  0.6041  0.9672  0.2767
 2153SOL    HW3 8611   4.402   2.815   3.481  2.2431  2.5232  1.0509
 2153SOL    MW4 8612   4.333   2.843   3.526  0.5934  0.1309  0.1292
 2154SOL     OW 8613   4.252   3.104   3.427  0.3737  0.6960  0.2934
 2154SOL    HW2 8614   4.268   3.015   3.456 -1.0773 -0.3241 -1.9247
 2154SOL    HW3 8615   4.254   3.099   3.332 -0.3403  2.9062  0.1333
 2154SOL    MW4 8616   4.254   3.092   3.419  0.0881  0.8530 -0.0204
 2155SOL     OW 8617   4.027   3.235   3.529 -0.0482  0.5031  0.1828
 2155SOL    HW2 8618   4.031   3.321   3.486  0.0478 -0.3626 -1.6090
 2155SOL    HW3 8619   4.110   3.193   3.507 -0.1603 -0.1010  0.9062
 2155SOL    MW4 8620   4.038   3.241   3.520 -0.0504  0.3092  0.0418
 2156SOL     OW 8621   4.038   3.493   3.401  0.0625 -0.3497 -0.5338
 2156SOL    HW2 8622   4.100   3.542   3.456 -0.1474 -1.4403  0.6931
 2156SOL    HW3 8623   3.954   3.537   3.415 -0.0410 -0.7830  0.2252
 2156SOL    MW4 8624   4.035   3.505   3.410  0.0212 -0.5507 -0.2718
 2157SOL     OW 8625   4.225   3.654   3.517  0.3871  0.3368  0.6456
 2157SOL    HW2 8626   4.221   3.639   3.611 -0.7329 -0.0892  0.5308
 2157SOL    HW3 8627   4.230   3.750   3.508 -1.8878  0.5297  1.0705
 2157SOL    MW4 8628   4.225   3.665   3.528 -0.0608  0.3060  0.6865
 2158SOL     OW 8629   4.252   3.918   3.435  0.1567 -0.3558 -0.1921
 2158SOL    HW2 8630   4.343   3.943   3.451  0.0251  0.6229 -0.8938
 2158SOL    HW3 8631   4.241   3.930   3.340 -0.4202 -1.4252 -0.2673
 2158SOL    MW4 8632   4.263   3.923   3.424  0.0632 -0.3678 -0.2946
 2159SOL     OW 8633   4.044   4.040   3.563 -0.1868 -0.1944 -0.1320
 2159SOL    HW2 8634   4.116   3.988   3.528  1.3278 -0.8227  3.6543
 2159SOL    HW3 8635   3.965   3.993   3.535  1.0173 -1.6352 -1.1591
 2159SOL    MW4 8636   4.043   4.027   3.555  0.1719 -0.4674  0.2321
 2160SOL     OW 8637   4.035   4.263   3.393  0.3147 -0.1865 -0.0498
 2160SOL    HW2 8638   4.033   4.177   3.436 -1.9918  0.0576  0.3820
 2160SOL    HW3 8639   3.965   4.313   3.435  0.2531  1.2083 -1.7472
 2160SOL    MW4 8640   4.025   4.258   3.404  0.0022  0.0297 -0.2168
 2161SOL     OW 8641   4.278   4.316   3.518  0.3723 -0.1355  0.2915
 2161SOL    HW2 8642   4.252   4.324   3.609  1.0473 -1.0575  0.5618
 2161SOL    HW3 8643   4.201   4.282   3.473  0.0449  0.3113  0.5132
 2161SOL    MW4 8644   4.265   4.313   3.524  0.4182 -0.1982  0.3564
 2162SOL     OW 8645   0.228   0.001   3.871  0.7130  0.2751  0.3865
 2162SOL    HW2 8646   0.227   0.029   3.962  0.4054  0.9888  0.1693
 2162SOL    HW3 8647   0.139   0.017   3.840  0.3246 -1.5972  0.4398
 2162SOL    MW4 8648   0.216   0.007   3.879  0.6211  0.1222  0.3649
 2163SOL     OW 8649   4.467   0.079   3.783  0.0435 -0.0783  0.2143
 2163SOL    HW2 8650   4.488   0.164   3.822 -0.3296 -0.1483  0.5723
 2163SOL    HW3 8651   4.473   0.094   3.689  0.4630  0.2185  0.2844
 2163SOL    MW4 8652   4.471   0.093   3.776  0.0496 -0.0484  0.2708
 2164SOL     OW 8653   0.014   0.340   3.893 -0.3853 -0.3504 -0.1033
 2164SOL    HW2 8654  -0.073   0.371   3.870 -0.3860 -1.8435 -2.2929
 2164SOL    HW3 8655   0.074   0.403   3.853 -0.4416  0.0423  0.4276
 2164SOL    MW4 8656   0.010   0.352   3.885 -0.3928 -0.4956 -0.3221
 2165SOL     OW 8657   0.220   0.508   3.790 -0.0176 -0.4999 -0.4488
 2165SOL    HW2 8658   0.250   0.594   3.819 -2.0729  0.9425 -2.3425
 2165SOL    HW3 8659   0.227   0.511   3.694 -2.9346 -1.2758 -0.7480
 2165SOL    MW4 8660   0.225   0.520   3.781 -0.6737 -0.4120 -0.7381
 2166SOL     OW 8661   0.301   0.764   3.854 -0.1384  0.1330  0.0992
 2166SOL    HW2 8662   0.283   0.791   3.944  0.2318  0.7502 -0.0128
 2166SOL    HW3 8663   0.217   0.772   3.809 -0.0650  0.9464  0.1044
 2166SOL    MW4 8664   0.288   0.768   3.860 -0.0799  0.3218  0.0851
 2167SOL     OW 8665   0.060   0.854   3.744 -0.0250 -0.3945 -0.7390
 2167SOL    HW2 8666  -0.024   0.824   3.780 -0.0031 -0.5614 -0.8279
 2167SOL    HW3 8667   0.073   0.940   3.783  0.5353 -1.0429  0.5337
 2167SOL    MW4 8668   0.050   0.861   3.754  0.0518 -0.5021 -0.5828
 2168SOL     OW 8669   0.044   1.120   3.849 -0.1862 -0.2522  0.3678
 2168SOL    HW2 8670  -0.027   1.184   3.847  0.1663  0.1420  0.1805
 2168SOL    HW3 8671   0.119   1.168   3.813  0.1310 -0.7107  0.4213
 2168SOL    MW4 8672   0.045   1.135   3.844 -0.0978 -0.2607  0.3502
 2169SOL     OW 8673   0.269   1.287   3.778 -0.6623  0.0023 -0.0106
 2169SOL    HW2 8674   0.264   1.376   3.812 -1.0253 -0.0140 -0.0145
 2169SOL    HW3 8675   0.272   1.297   3.683  2.4176  0.1300  0.0641
 2169SOL    MW4 8676   0.269   1.300   3.770 -0.3039  0.0170 -0.0013
 2170SOL     OW 8677   0.295   1.538   3.885  0.0761 -0.0376 -0.0037
 2170SOL    HW2 8678   0.295   1.537   3.981  0.6550 -1.6303 -0.0133
 2170SOL    HW3 8679   0.213   1.581   3.861 -0.6216 -0.6898  1.2005
 2170SOL    MW4 8680   0.284   1.544   3.894  0.0604 -0.3338  0.1539
 2171SOL     OW 8681   0.043   1.656   3.802 -0.0817 -0.1662  0.0628
 2171SOL    HW2 8682   0.035   1.745   3.837 -0.8532  0.2680 -1.1724
 2171SOL    HW3 8683   0.035   1.667   3.707  2.5814 -1.2437 -0.3336
 2171SOL    MW4 8684   0.041   1.669   3.794  0.1679 -0.2511 -0.1525
 2172SOL     OW 8685   0.022   1.926   3.891 -0.0076 -0.0598 -0.0580
 2172SOL    HW2 8686   0.017   1.944   3.985 -1.0539 -1.0729  0.0954
 2172SOL    HW3 8687  -0.056   1.968   3.855  0.4939  0.4882 -0.5021
 2172SOL    MW4 8688   0.011   1.934   3.899 -0.0795 -0.1211 -0.0963
 2173SOL     OW 8689   0.247   2.040   3.778  0.4125 -0.2272 -0.2987
 2173SOL    HW2 8690   0.245   2.133   3.801  3.2477 -0.2538  0.2037
 2173SOL    HW3 8691   0.176   2.001   3.829  0.8306  1.2484  1.4657
 2173SOL    MW4 8692   0.237   2.047   3.788  0.8417 -0.0360  0.0004
 2174SOL     OW 8693   0.228   2.308   3.892  0.1191  0.5479  0.2554
 2174SOL    HW2 8694   0.224   2.314   3.987 -0.5691  0.9474  0.2071
 2174SOL    HW3 8695   0.158   2.366   3.861  1.0370  1.2711 -0.5197
 2174SOL    MW4 8696   0.218   2.316   3.900  0.1494  0.6961  0.1467
 2175SOL     OW 8697   0.028   2.460   3.789  0.3188  0.2508 -0.1262
 2175SOL    HW2 8698  -0.056   2.420   3.809  0.1630 -0.1741 -1.5862
 2175SOL    HW3 8699   0.022   2.549   3.824 -0.0562 -0.3582  1.3756
 2175SOL    MW4 8700   0.016   2.467   3.796  0.2488  0.1144 -0.1207
 2176SOL     OW 8701   0.022   2.734   3.911  0.3329  0.0485  0.0416
 2176SOL    HW2 8702   0.025   2.751   4.005 -0.6404  0.6590 -0.0309
 2176SOL    HW3 8703   0.100   2.778   3.876  0.6079 -0.0402  0.5337
 2176SOL    MW4 8704   0.033   2.742   3.919  0.2408  0.1173  0.0969
 2177SOL     OW 8705   0.241   2.854   3.806  0.2762 -0.3429 -0.0461
 2177SOL    HW2 8706   0.321   2.808   3.828  1.0009  0.8592 -0.1215
 2177SOL    HW3 8707   0.245   2.867   3.712  0.5532  0.7357  0.1072
 2177SOL    MW4 8708   0.252   2.850   3.797  0.4083 -0.0420 -0.0358
 2178SOL     OW 8709   0.229   3.108   3.898 -0.3528  0.1185 -0.5893
 2178SOL    HW2 8710   0.231   3.014   3.880 -2.6954  0.0537 -0.6100
 2178SOL    HW3 8711   0.221   3.113   3.993 -0.4589  0.3135 -0.6104
 2178SOL    MW4 8712   0.228   3.096   3.908 -0.6758  0.1357 -0.5948
 2179SOL     OW 8713   4.488   3.228   3.800  0.2033  1.0260 -0.0498
 2179SOL    HW2 8714   4.564   3.192   3.845 -0.2929 -2.3806 -1.7871
 2179SOL    HW3 8715   4.509   3.220   3.707 -1.5430  1.7225 -0.5266
 2179SOL    MW4 8716   4.501   3.222   3.793 -0.0926  0.6684 -0.3419
 2180SOL     OW 8717   4.469   3.496   3.853  0.1161 -0.1343 -0.4245
 2180SOL    HW2 8718   4.536   3.539   3.800  1.1356 -1.6937 -0.4224
 2180SOL    HW3 8719   4.481   3.403   3.837 -0.1696 -0.6000  1.8406
 2180SOL    MW4 8720   4.479   3.490   3.844  0.2130 -0.4015 -0.1254
 2181SOL     OW 8721   0.226   3.594   3.728 -0.3553 -0.7167  0.5771
 2181SOL    HW2 8722   0.277   3.531   3.780  0.5091 -0.2608  0.2857
 2181SOL    HW3 8723   0.237   3.677   3.773 -0.9938 -0.6432  0.6088
 2181SOL    MW4 8724   0.234   3.597   3.741 -0.3255 -0.6469  0.5428
 2182SOL     OW 8725   0.248   3.848   3.836  0.0679 -0.6156  0.3032
 2182SOL    HW2 8726   0.238   3.857   3.931  1.3067 -1.3670  0.5144
 2182SOL    HW3 8727   0.327   3.898   3.816  0.5246 -1.5128 -0.1522
 2182SOL    MW4 8728   0.257   3.856   3.846  0.2916 -0.8331  0.2710
 2183SOL     OW 8729   0.021   3.980   3.784 -0.0947  0.7270  0.0741
 2183SOL    HW2 8730  -0.047   3.928   3.825 -0.1161  1.6730  1.2887
 2183SOL    HW3 8731   0.103   3.936   3.808 -0.2032  0.2858 -0.3555
 2183SOL    MW4 8732   0.023   3.968   3.793 -0.1118  0.7936  0.1776
 2184SOL     OW 8733   0.016   4.244   3.883  0.2356 -0.2536  0.1033
 2184SOL    HW2 8734   0.066   4.311   3.837 -0.2502  0.5252  0.6943
 2184SOL    HW3 8735   0.029   4.165   3.831  1.2609  0.1657 -0.2940
 2184SOL    MW4 8736   0.024   4.243   3.870  0.3068 -0.0955  0.1289
 2185SOL     OW 8737   0.231   4.382   3.782 -0.0776 -0.3353  0.0797
 2185SOL    HW2 8738   0.303   4.334   3.821  0.4606 -0.9579 -1.6299
 2185SOL    HW3 8739   0.245   4.473   3.808  1.4068 -0.4345 -0.3328
 2185SOL    MW4 8740   0.242   4.388   3.790  0.1892 -0.4305 -0.2003
 2186SOL     OW 8741   0.682   0.004   3.906 -0.2463 -0.5281  0.1434
 2186SOL    HW2 8742   0.678  -0.081   3.861  0.0554 -0.9796  0.9647
 2186SOL    HW3 8743   0.601   0.048   3.882 -1.1132 -1.6721  0.9356
 2186SOL    MW4 8744   0.671  -0.001   3.897 -0.3209 -0.7386  0.3563
 2187SOL     OW 8745   0.452   0.107   3.757 -0.2891  0.1472  0.3169
 2187SOL    HW2 8746   0.435   0.195   3.789 -1.9718  0.2201 -0.6956
 2187SOL    HW3 8747   0.387   0.052   3.801  0.3212 -0.4741  0.4521
 2187SOL    MW4 8748   0.441   0.111   3.767 -0.4306  0.0748  0.2012
 2188SOL     OW 8749   0.443   0.373   3.885  0.7111  0.5017  0.5089
 2188SOL    HW2 8750   0.526   0.419   3.875  0.5852  0.6608  0.1875
 2188SOL    HW3 8751   0.380   0.425   3.836  0.5339  0.0788  0.2777
 2188SOL    MW4 8752   0.446   0.386   3.877  0.6711  0.4669  0.4360
 2189SOL     OW 8753   0.689   0.519   3.821  0.0208  0.1491 -0.5248
 2189SOL    HW2 8754   0.768   0.478   3.856 -0.5516 -1.6431 -1.2934
 2189SOL    HW3 8755   0.700   0.612   3.840  1.8812 -0.2016  0.2042
 2189SOL    MW4 8756   0.701   0.526   3.828  0.1907 -0.1336 -0.5300
 2190SOL     OW 8757   0.722   0.792   3.875 -0.1368  0.1940 -0.3086
 2190SOL    HW2 8758   0.712   0.793   3.970  0.2529 -1.5779 -0.2289
 2190SOL    HW3 8759   0.639   0.828   3.842 -0.3727  0.5835  0.6929
 2190SOL    MW4 8760   0.710   0.797   3.883 -0.1165  0.0116 -0.1659
 2191SOL     OW 8761   0.501   0.919   3.754  0.2180  0.2661  0.2812
 2191SOL    HW2 8762   0.521   0.997   3.806  0.1214  0.6355 -0.2368
 2191SOL    HW3 8763   0.426   0.879   3.799 -0.2509  0.9133  0.0836
 2191SOL    MW4 8764   0.494   0.924   3.767  0.1434  0.4002  0.1868
 2192SOL     OW 8765   0.505   1.170   3.897  0.4976  0.0533  0.0486
 2192SOL    HW2 8766   0.573   1.225   3.860  0.4835 -1.5909 -2.5355
 2192SOL    HW3 8767   0.424   1.202   3.857  0.0970  0.1202  0.8921
 2192SOL    MW4 8768   0.503   1.181   3.887  0.4429 -0.1548 -0.1811
 2193SOL     OW 8769   0.718   1.312   3.747  0.2513  1.0824  0.2701
 2193SOL    HW2 8770   0.780   1.246   3.779 -1.0674 -0.6902 -0.8144
 2193SOL    HW3 8771   0.725   1.307   3.652 -2.8604 -0.4085  0.0773
 2193SOL    MW4 8772   0.727   1.303   3.739 -0.3332  0.6518  0.1016
 2194SOL     OW 8773   0.713   1.550   3.886  0.2587 -0.1572 -0.0492
 2194SOL    HW2 8774   0.780   1.602   3.842  0.1058 -0.8253 -1.1076
 2194SOL    HW3 8775   0.719   1.464   3.844 -2.2117  0.1845 -1.1769
 2194SOL    MW4 8776   0.723   1.545   3.875 -0.0874 -0.2002 -0.3376
 2195SOL     OW 8777   0.508   1.674   3.772  0.4197 -0.0262  0.1468
 2195SOL    HW2 8778   0.578   1.622   3.811 -0.5772 -1.0290  0.6661
 2195SOL    HW3 8779   0.431   1.652   3.825 -0.3116  0.9223 -0.5159
 2195SOL    MW4 8780   0.507   1.664   3.784  0.1917 -0.0333  0.1279
 2196SOL     OW 8781   0.500   1.959   3.873  0.0251 -0.5155 -0.4464
 2196SOL    HW2 8782   0.499   1.873   3.830  1.1213  0.3443 -2.2404
 2196SOL    HW3 8783   0.421   2.003   3.840 -0.1759 -0.5703 -0.0465
 2196SOL    MW4 8784   0.489   1.953   3.863  0.1432 -0.4093 -0.6303
 2197SOL     OW 8785   0.726   2.090   3.776 -0.5556 -0.0719 -0.5412
 2197SOL    HW2 8786   0.732   2.172   3.824 -1.5951 -1.1852  1.5256
 2197SOL    HW3 8787   0.648   2.046   3.810  0.2903 -2.1870 -1.1925
 2197SOL    MW4 8788   0.717   2.095   3.787 -0.5812 -0.4978 -0.3545
 2198SOL     OW 8789   0.724   2.339   3.882 -0.3271 -0.1174 -0.2443
 2198SOL    HW2 8790   0.798   2.395   3.857 -0.4628  0.2824  0.2320
 2198SOL    HW3 8791   0.651   2.370   3.830 -0.2449 -0.2803 -0.4571
 2198SOL    MW4 8792   0.724   2.350   3.872 -0.3341 -0.0861 -0.2096
 2199SOL     OW 8793   0.462   2.436   3.778 -0.5369 -0.0287 -0.0405
 2199SOL    HW2 8794   0.397   2.394   3.834 -0.8454  1.7807  0.9629
 2199SOL    HW3 8795   0.425   2.430   3.690 -0.9236 -1.1831  0.1890
 2199SOL    MW4 8796   0.449   2.429   3.774 -0.6287  0.0577  0.1222
 2200SOL     OW 8797   0.473   2.709   3.866  0.1733  0.2181 -0.0199
 2200SOL    HW2 8798   0.560   2.738   3.839 -0.1049  0.2734 -0.8604
 2200SOL    HW3 8799   0.467   2.619   3.833  1.2491 -1.0602  3.0411
 2200SOL    MW4 8800   0.484   2.701   3.858  0.2786  0.0568  0.2731
 2201SOL     OW 8801   0.698   2.844   3.808  0.6275  0.5160  0.0577
 2201SOL    HW2 8802   0.775   2.791   3.830  0.2937  0.2120  0.5041
 2201SOL    HW3 8803   0.696   2.844   3.713  0.0555 -1.1346  0.0427
 2201SOL    MW4 8804   0.708   2.837   3.799  0.5080  0.2581  0.1146
 2202SOL     OW 8805   0.664   3.123   3.909 -0.1120 -0.4256  0.5916
 2202SOL    HW2 8806   0.674   3.123   4.004  0.8070 -0.3754  0.4981
 2202SOL    HW3 8807   0.675   3.031   3.884  2.2852 -0.0742  0.2732
 2202SOL    MW4 8808   0.667   3.111   3.918  0.3255 -0.3726  0.5373
 2203SOL     OW 8809   0.441   3.174   3.760 -0.0488 -0.6362 -0.6165
 2203SOL    HW2 8810   0.513   3.135   3.811  0.0659 -2.2679 -1.9850
 2203SOL    HW3 8811   0.362   3.152   3.810  0.3203  0.6814  0.5977
 2203SOL    MW4 8812   0.440   3.166   3.773  0.0150 -0.6776 -0.6368
 2204SOL     OW 8813   0.453   3.452   3.860 -0.3740 -0.4157  0.2225
 2204SOL    HW2 8814   0.530   3.490   3.818 -0.8329  0.0231 -0.2377
 2204SOL    HW3 8815   0.445   3.365   3.820 -0.6333 -0.1174 -0.3871
 2204SOL    MW4 8816   0.462   3.446   3.849 -0.4688 -0.3185  0.0814
 2205SOL     OW 8817   0.700   3.622   3.786  0.1588  0.4467 -0.2127
 2205SOL    HW2 8818   0.680   3.709   3.823  2.7030  0.3853  1.4759
 2205SOL    HW3 8819   0.697   3.635   3.691 -0.6698  2.0795  0.0138
 2205SOL    MW4 8820   0.697   3.636   3.779  0.3852  0.6540  0.0399
 2206SOL     OW 8821   0.678   3.873   3.891 -0.1096  0.1082 -0.0681
 2206SOL    HW2 8822   0.688   3.873   3.986  0.3932  0.0179 -0.1205
 2206SOL    HW3 8823   0.753   3.923   3.859  1.5745 -2.6979 -0.6149
 2206SOL    MW4 8824   0.689   3.880   3.899  0.1789 -0.2740 -0.1472
 2207SOL     OW 8825   0.460   4.016   3.793  0.2349 -0.1449 -0.2064
 2207SOL    HW2 8826   0.541   3.971   3.818  0.2782  0.1527  0.2034
 2207SOL    HW3 8827   0.450   3.997   3.700 -0.3123 -1.8768  0.1914
 2207SOL    MW4 8828   0.470   4.007   3.784  0.1684 -0.3341 -0.0998
 2208SOL     OW 8829   0.455   4.282   3.893 -0.6329 -0.5454  0.0830
 2208SOL    HW2 8830   0.525   4.323   3.841 -1.6485  0.9548 -0.1278
 2208SOL    HW3 8831   0.456   4.190   3.866  0.6265 -0.3469 -0.6138
 2208SOL    MW4 8832   0.465   4.275   3.883 -0.6007 -0.3212 -0.0368
 2209SOL     OW 8833   0.653   4.439   3.766  0.0768 -0.1955 -0.0566
 2209SOL    HW2 8834   0.734   4.390   3.783  1.2056  1.5982 -0.1302
 2209SOL    HW3 8835   0.635   4.425   3.673 -0.2287 -1.3435  0.1613
 2209SOL    MW4 8836   0.661   4.431   3.756  0.1854 -0.1103 -0.0375
 2210SOL     OW 8837   1.115   4.658   3.909 -0.3960 -0.1681  0.0685
 2210SOL    HW2 8838   1.194   4.696   3.870 -0.9493  0.3583 -0.5435
 2210SOL    HW3 8839   1.105   4.574   3.866  0.1740 -0.5030  0.5847
 2210SOL    MW4 8840   1.124   4.652   3.898 -0.3938 -0.1428  0.0558
 2211SOL     OW 8841   0.895   0.139   3.789 -0.0319  0.0094  0.0679
 2211SOL    HW2 8842   0.969   0.088   3.820  0.2383 -0.1035 -0.7740
 2211SOL    HW3 8843   0.818   0.090   3.819  0.2255 -0.6794 -0.3934
 2211SOL    MW4 8844   0.894   0.126   3.797  0.0377 -0.0964 -0.1041
 2212SOL     OW 8845   0.911   0.386   3.910 -0.0193 -0.5144  0.5594
 2212SOL    HW2 8846   0.905   0.371   4.004  1.2252 -0.6207  0.6353
 2212SOL    HW3 8847   0.901   0.299   3.871  4.1301 -1.2248  0.8492
 2212SOL    MW4 8848   0.909   0.372   3.917  0.6924 -0.6222  0.6077
 2213SOL     OW 8849   1.099   0.548   3.765 -0.0580 -0.7345  0.2466
 2213SOL    HW2 8850   1.174   0.491   3.786 -0.3155 -1.1277  0.0975
 2213SOL    HW3 8851   1.027   0.512   3.817  0.1872  0.4758  1.4451
 2213SOL    MW4 8852   1.100   0.536   3.774 -0.0596 -0.6267  0.3851
 2214SOL     OW 8853   1.131   0.812   3.892 -0.7875  0.2694  0.0121
 2214SOL    HW2 8854   1.056   0.870   3.878 -0.3308  0.9507  0.4207
 2214SOL    HW3 8855   1.114   0.737   3.834 -1.5256  0.6620 -0.2797
 2214SOL    MW4 8856   1.119   0.810   3.882 -0.8246  0.4111  0.0275
 2215SOL     OW 8857   0.913   0.958   3.791 -0.3024 -0.2148 -0.6014
 2215SOL    HW2 8858   0.855   0.884   3.806 -1.7883  0.6992 -1.7339
 2215SOL    HW3 8859   0.926   0.958   3.696  0.0644  0.7102 -0.5515
 2215SOL    MW4 8860   0.907   0.948   3.780 -0.4500  0.0278 -0.7443
 2216SOL     OW 8861   0.919   1.207   3.907 -0.2729 -0.1024 -0.5156
 2216SOL    HW2 8862   0.939   1.203   4.001 -1.3195 -0.1776 -0.2994
 2216SOL    HW3 8863   0.929   1.117   3.877 -0.8813 -0.2532 -0.2797
 2216SOL    MW4 8864   0.923   1.195   3.915 -0.4912 -0.1322 -0.4560
 2217SOL     OW 8865   1.134   1.304   3.778 -0.2037 -0.4328 -0.5111
 2217SOL    HW2 8866   1.147   1.399   3.783  0.1115 -0.5372  0.6478
 2217SOL    HW3 8867   1.054   1.289   3.828  0.8428 -1.0172  1.0007
 2217SOL    MW4 8868   1.125   1.315   3.785 -0.0240 -0.5237 -0.1587
 2218SOL     OW 8869   1.183   1.567   3.807 -0.2795 -0.0648  0.2210
 2218SOL    HW2 8870   1.187   1.573   3.902 -0.9788  0.0041  0.2496
 2218SOL    HW3 8871   1.268   1.600   3.777  0.3687 -1.1264  0.8583
 2218SOL    MW4 8872   1.195   1.573   3.816 -0.2862 -0.1958  0.3089
 2219SOL     OW 8873   0.929   1.695   3.754 -0.1060 -0.1613 -0.4596
 2219SOL    HW2 8874   1.016   1.654   3.762 -0.6952 -1.6558 -1.5599
 2219SOL    HW3 8875   0.911   1.695   3.660 -1.1407  0.4828 -0.2678
 2219SOL    MW4 8876   0.938   1.689   3.742 -0.3203 -0.2735 -0.5795
 2220SOL     OW 8877   0.934   1.939   3.885  0.5127  0.0591 -0.8061
 2220SOL    HW2 8878   0.922   1.854   3.844 -1.6045 -0.0702  0.0585
 2220SOL    HW3 8879   0.867   1.995   3.845  0.8601  0.9059 -0.2267
 2220SOL    MW4 8880   0.924   1.935   3.874  0.2792  0.1538 -0.6156
 2221SOL     OW 8881   1.170   2.047   3.784  0.0442 -0.3928  0.2631
 2221SOL    HW2 8882   1.089   2.024   3.830 -0.6411  1.0290 -0.1790
 2221SOL    HW3 8883   1.149   2.038   3.691  0.7198 -1.0182  0.1630
 2221SOL    MW4 8884   1.157   2.043   3.778  0.0429 -0.2877  0.1916
 2222SOL     OW 8885   1.181   2.300   3.892  0.0398  0.2189 -0.6127
 2222SOL    HW2 8886   1.168   2.292   3.986  0.7595  0.0199 -0.5270
 2222SOL    HW3 8887   1.179   2.210   3.860 -1.1122  0.3450 -0.9151
 2222SOL    MW4 8888   1.179   2.287   3.900 -0.0172  0.2093 -0.6413
 2223SOL     OW 8889   0.956   2.437   3.783 -0.2221  0.2956  0.0756
 2223SOL    HW2 8890   0.955   2.529   3.807  0.0885  0.2307  0.3494
 2223SOL    HW3 8891   1.033   2.401   3.827  1.2930  0.5106 -2.2711
 2223SOL    MW4 8892   0.966   2.444   3.792  0.0188  0.3154 -0.1979
 2224SOL     OW 8893   0.927   2.704   3.875 -0.4560 -0.1745 -0.1173
 2224SOL    HW2 8894   0.923   2.695   3.971 -0.3257  0.6769 -0.0326
 2224SOL    HW3 8895   0.998   2.766   3.860 -0.3932 -0.4108 -0.7765
 2224SOL    MW4 8896   0.936   2.711   3.886 -0.4305 -0.0934 -0.1931
 2225SOL     OW 8897   1.134   2.877   3.793  0.1922  0.4096 -0.4260
 2225SOL    HW2 8898   1.215   2.829   3.811  0.5520  1.2191  0.1476
 2225SOL    HW3 8899   1.128   2.941   3.864 -1.2088  0.0245 -0.1882
 2225SOL    MW4 8900   1.144   2.879   3.805  0.0548  0.4656 -0.3190
 2226SOL     OW 8901   1.134   3.123   3.967 -0.1525  0.1445  0.1708
 2226SOL    HW2 8902   1.206   3.161   3.918 -1.1247  0.4932 -1.0208
 2226SOL    HW3 8903   1.055   3.160   3.927 -0.9991 -0.3222  1.3649
 2226SOL    MW4 8904   1.133   3.133   3.955 -0.3925  0.1289  0.1711
 2227SOL     OW 8905   0.909   3.231   3.829  0.1199 -0.1558  0.4245
 2227SOL    HW2 8906   0.817   3.207   3.840  0.6973 -2.5748  0.1508
 2227SOL    HW3 8907   0.922   3.230   3.734 -0.0409  2.1209  0.3481
 2227SOL    MW4 8908   0.898   3.228   3.818  0.1749 -0.1745  0.3783
 2228SOL     OW 8909   0.935   3.503   3.880 -0.0377  0.2420  0.4931
 2228SOL    HW2 8910   0.939   3.409   3.862 -1.5780  0.2941 -0.2317
 2228SOL    HW3 8911   0.851   3.531   3.843  0.4459  1.9239  0.6074
 2228SOL    MW4 8912   0.924   3.495   3.873 -0.1771  0.4708  0.4125
 2229SOL     OW 8913   1.127   3.662   3.759  0.0597 -0.0845  0.2826
 2229SOL    HW2 8914   1.110   3.753   3.783 -0.7593 -0.0960 -0.2248
 2229SOL    HW3 8915   1.055   3.613   3.798  0.1761 -0.4356  0.0622
 2229SOL    MW4 8916   1.115   3.668   3.767 -0.0330 -0.1323  0.1866
 2230SOL     OW 8917   1.121   3.912   3.868  0.3996  0.1845  0.3661
 2230SOL    HW2 8918   1.128   3.910   3.964  1.0007  2.0913  0.3795
 2230SOL    HW3 8919   1.211   3.926   3.838  0.2914 -0.9528 -0.5102
 2230SOL    MW4 8920   1.134   3.913   3.877  0.4647  0.2860  0.2523
 2231SOL     OW 8921   0.883   3.994   3.758 -0.4257  0.0532 -0.9815
 2231SOL    HW2 8922   0.974   3.981   3.783 -0.5479  0.9716 -0.0282
 2231SOL    HW3 8923   0.886   4.015   3.664  0.1415 -2.1826 -1.4846
 2231SOL    MW4 8924   0.895   3.995   3.749 -0.3670 -0.1206 -0.9221
 2232SOL     OW 8925   0.865   4.272   3.852 -0.0670  0.2968 -0.1916
 2232SOL    HW2 8926   0.854   4.258   3.946 -0.0104 -0.2597 -0.2640
 2232SOL    HW3 8927   0.867   4.184   3.815  3.3765  0.4031 -0.3488
 2232SOL    MW4 8928   0.864   4.259   3.859  0.3948  0.2374 -0.2219
 2233SOL     OW 8929   1.110   4.410   3.790 -0.0460  0.2565  0.2957
 2233SOL    HW2 8930   1.030   4.368   3.821  0.1974  0.5685  1.3797
 2233SOL    HW3 8931   1.107   4.401   3.695 -0.6255 -1.0658  0.4348
 2233SOL    MW4 8932   1.099   4.403   3.781 -0.0903  0.1232  0.4571
 2234SOL     OW 8933   1.555   4.650   3.870 -0.1054  0.1175  0.0546
 2234SOL    HW2 8934   1.581   4.638   3.961 -1.9839  0.0478  0.5910
 2234SOL    HW3 8935   1.550   4.561   3.835  0.0355  0.1161  0.0354
 2234SOL    MW4 8936   1.558   4.637   3.877 -0.3346  0.1081  0.1229
 2235SOL     OW 8937   1.335   0.141   3.778 -0.2877  0.6836  0.1840
 2235SOL    HW2 8938   1.318   0.224   3.821  0.6719  0.5486  0.8450
 2235SOL    HW3 8939   1.411   0.105   3.824 -1.0450 -0.8249  0.2697
 2235SOL    MW4 8940   1.343   0.147   3.789 -0.2610  0.4668  0.2825
 2236SOL     OW 8941   1.299   0.393   3.858  0.0761 -0.0843 -0.1182
 2236SOL    HW2 8942   1.307   0.393   3.954 -0.1020  1.7565 -0.0819
 2236SOL    HW3 8943   1.386   0.419   3.827 -0.6359  2.1587 -0.3335
 2236SOL    MW4 8944   1.312   0.397   3.867 -0.0414  0.4545 -0.1418
 2237SOL     OW 8945   1.545   0.456   3.757 -0.0907  0.3137 -0.2150
 2237SOL    HW2 8946   1.624   0.411   3.789 -1.2482 -0.9107  0.9650
 2237SOL    HW3 8947   1.558   0.547   3.784  1.5636  0.4236 -1.2708
 2237SOL    MW4 8948   1.557   0.462   3.765 -0.0251  0.1667 -0.1986
 2238SOL     OW 8949   1.601   0.729   3.830  0.1002 -0.3264  0.3943
 2238SOL    HW2 8950   1.528   0.790   3.818  0.5649  0.1077 -0.1976
 2238SOL    HW3 8951   1.673   0.767   3.781  0.9948 -0.3073  1.6919
 2238SOL    MW4 8952   1.601   0.742   3.822  0.2795 -0.2666  0.4874
 2239SOL     OW 8953   1.363   0.881   3.777 -0.0431 -0.3486  0.0363
 2239SOL    HW2 8954   1.366   0.976   3.785 -0.1822 -0.3983  0.6924
 2239SOL    HW3 8955   1.284   0.855   3.825  0.8578 -0.9219  1.2402
 2239SOL    MW4 8956   1.353   0.890   3.785  0.0574 -0.4308  0.2817
 2240SOL     OW 8957   1.373   1.162   3.823  0.5057 -0.0850 -0.0959
 2240SOL    HW2 8958   1.451   1.212   3.799  0.1356  0.9606  0.8660
 2240SOL    HW3 8959   1.300   1.220   3.802  0.0140 -0.7317 -0.1967
 2240SOL    MW4 8960   1.374   1.176   3.817  0.3920 -0.0324  0.0177
 2241SOL     OW 8961   1.617   1.279   3.745  0.2532 -0.1619 -0.4495
 2241SOL    HW2 8962   1.703   1.249   3.776  0.5914  1.4347  0.2148
 2241SOL    HW3 8963   1.609   1.368   3.779 -0.3247  0.8531 -3.1197
 2241SOL    MW4 8964   1.628   1.287   3.753  0.2215  0.1827 -0.7142
 2242SOL     OW 8965   1.646   1.514   3.886 -0.3859 -0.1717  0.1528
 2242SOL    HW2 8966   1.659   1.505   3.980  0.4441 -0.7754 -0.0158
 2242SOL    HW3 8967   1.724   1.558   3.855 -1.1931  1.1078 -0.0881
 2242SOL    MW4 8968   1.658   1.518   3.894 -0.3829 -0.0826  0.0988
 2243SOL     OW 8969   1.427   1.654   3.729  0.0318  0.0681  0.1588
 2243SOL    HW2 8970   1.407   1.733   3.779  0.0941  0.0721  0.1774
 2243SOL    HW3 8971   1.500   1.614   3.776 -1.0575 -0.8727  1.0903
 2243SOL    MW4 8972   1.434   1.659   3.742 -0.1037 -0.0555  0.2842
 2244SOL     OW 8973   1.365   1.874   3.882 -0.3838 -0.4786  0.3904
 2244SOL    HW2 8974   1.367   1.880   3.978 -0.2379 -0.0856  0.3682
 2244SOL    HW3 8975   1.290   1.927   3.857  0.7107  1.0187  0.1925
 2244SOL    MW4 8976   1.355   1.882   3.892 -0.2201 -0.2292  0.3614
 2245SOL     OW 8977   1.585   2.052   3.767 -0.3483  0.5067  0.9220
 2245SOL    HW2 8978   1.511   2.006   3.807  0.1516 -0.3955  0.8184
 2245SOL    HW3 8979   1.576   2.035   3.673 -0.5015  1.1296  0.8201
 2245SOL    MW4 8980   1.574   2.044   3.760 -0.3025  0.4699  0.8949
 2246SOL     OW 8981   1.597   2.315   3.847 -0.1432 -0.0970 -0.0770
 2246SOL    HW2 8982   1.599   2.225   3.814 -1.8430  0.4056 -1.6493
 2246SOL    HW3 8983   1.667   2.360   3.798 -0.0723 -0.2814 -0.1463
 2246SOL    MW4 8984   1.607   2.309   3.836 -0.3581 -0.0550 -0.2936
 2247SOL     OW 8985   1.362   2.458   3.784  0.7226 -0.5024 -0.2889
 2247SOL    HW2 8986   1.441   2.413   3.814  0.3870 -0.7427  0.2448
 2247SOL    HW3 8987   1.290   2.400   3.809  0.4086 -0.5340 -1.2470
 2247SOL    MW4 8988   1.363   2.445   3.791  0.6369 -0.5382 -0.3449
 2248SOL     OW 8989   1.353   2.735   3.873 -0.1969  0.2618 -0.0113
 2248SOL    HW2 8990   1.355   2.744   3.968 -1.6423  1.5412 -0.0809
 2248SOL    HW3 8991   1.362   2.641   3.857 -2.1001 -0.1905  1.4591
 2248SOL    MW4 8992   1.355   2.724   3.884 -0.6387  0.3709  0.1735
 2249SOL     OW 8993   1.593   2.863   3.780 -0.1129  0.5002 -0.2507
 2249SOL    HW2 8994   1.506   2.825   3.791 -0.4418  0.6308 -2.2906
 2249SOL    HW3 8995   1.604   2.872   3.685  1.9768  0.8190 -0.0028
 2249SOL    MW4 8996   1.583   2.859   3.769  0.1195  0.5595 -0.4871
 2250SOL     OW 8997   1.556   3.118   3.874  0.0469 -0.4986 -0.1916
 2250SOL    HW2 8998   1.557   3.122   3.970  1.2259  0.9697 -0.2484
 2250SOL    HW3 8999   1.558   3.024   3.854  3.4027 -0.7906  1.2189
 2250SOL    MW4 9000   1.556   3.106   3.884  0.6452 -0.3434 -0.0130
 2251SOL     OW 9001   1.312   3.242   3.789 -0.1166 -0.2691  0.4750
 2251SOL    HW2 9002   1.326   3.333   3.815 -0.3137 -0.4777  1.3192
 2251SOL    HW3 9003   1.399   3.203   3.787 -0.1914 -0.5321  1.8808
 2251SOL    MW4 9004   1.325   3.249   3.792 -0.1525 -0.3313  0.7719
 2252SOL     OW 9005   1.347   3.511   3.877  0.2268  0.4765 -0.2397
 2252SOL    HW2 9006   1.420   3.558   3.837 -0.2040  1.4831  0.1210
 2252SOL    HW3 9007   1.269   3.554   3.841 -0.1808 -0.1445 -0.1121
 2252SOL    MW4 9008   1.346   3.523   3.867  0.1162  0.5274 -0.1753
 2253SOL     OW 9009   1.575   3.644   3.760  0.1487  0.1270  0.4634
 2253SOL    HW2 9010   1.637   3.586   3.805 -0.1132 -0.6087 -0.1109
 2253SOL    HW3 9011   1.556   3.713   3.824  0.7180 -0.2409  1.0388
 2253SOL    MW4 9012   1.581   3.645   3.774  0.1893 -0.0186  0.4636
 2254SOL     OW 9013   1.589   3.880   3.920 -0.5557 -0.3509  0.8097
 2254SOL    HW2 9014   1.577   3.891   4.014 -0.4029  0.1665  0.7675
 2254SOL    HW3 9015   1.521   3.934   3.880 -0.4718 -0.3838  0.6210
 2254SOL    MW4 9016   1.578   3.888   3.927 -0.5244 -0.2870  0.7793
 2255SOL     OW 9017   1.392   4.020   3.794 -0.4154  0.0550 -0.1832
 2255SOL    HW2 9018   1.364   4.103   3.832 -0.8688 -0.2166  0.0709
 2255SOL    HW3 9019   1.360   4.023   3.704  0.1146  0.4251 -0.3650
 2255SOL    MW4 9020   1.384   4.031   3.787 -0.4053  0.0680 -0.1737
 2256SOL     OW 9021   1.330   4.275   3.883 -0.1621 -0.0086 -0.0775
 2256SOL    HW2 9022   1.400   4.313   3.830  0.1820 -0.3134  0.1577
 2256SOL    HW3 9023   1.251   4.323   3.856  0.0602  0.0429 -0.6486
 2256SOL    MW4 9024   1.328   4.287   3.873 -0.0873 -0.0420 -0.1218
 2257SOL     OW 9025   1.566   4.398   3.764  0.8684  0.4142  0.4138
 2257SOL    HW2 9026   1.633   4.338   3.797  0.3117 -0.8582 -0.7167
 2257SOL    HW3 9027   1.576   4.396   3.669 -0.3519  0.7131  0.2689
 2257SOL    MW4 9028   1.576   4.390   3.756  0.6339  0.2858  0.2455
 2258SOL     OW 9029   1.999   4.618   3.873 -0.2259  0.1482 -0.4733
 2258SOL    HW2 9030   2.076   4.654   3.830  0.6171  0.4721  1.2488
 2258SOL    HW3 9031   2.016   4.524   3.876  1.0185  0.3927  1.5535
 2258SOL    MW4 9032   2.011   4.610   3.868  0.0495  0.2232  0.0214
 2259SOL     OW 9033   1.793   0.076   3.764  0.2269 -0.1436 -0.3414
 2259SOL    HW2 9034   1.860   0.018   3.800 -0.2029 -0.6365 -0.3328
 2259SOL    HW3 9035   1.710   0.036   3.790 -0.0740  0.3159 -0.5885
 2259SOL    MW4 9036   1.791   0.063   3.772  0.1305 -0.1480 -0.3729
 2260SOL     OW 9037   1.798   0.326   3.849 -0.4415  0.0159 -0.0993
 2260SOL    HW2 9038   1.809   0.328   3.944 -0.2307  1.7402 -0.1586
 2260SOL    HW3 9039   1.804   0.233   3.826  2.2366 -0.1846  1.2572
 2260SOL    MW4 9040   1.800   0.314   3.858 -0.0604  0.2170  0.0718
 2261SOL     OW 9041   2.013   0.493   3.752 -0.1766 -0.1337  0.3759
 2261SOL    HW2 9042   1.938   0.436   3.772  0.1171 -0.6376  0.0554
 2261SOL    HW3 9043   2.020   0.491   3.657 -1.2948  1.9091  0.2210
 2261SOL    MW4 9044   2.004   0.485   3.742 -0.2854  0.0693  0.3132
 2262SOL     OW 9045   2.032   0.758   3.860  0.1162 -0.3714 -0.7090
 2262SOL    HW2 9046   2.008   0.752   3.953  1.7796  1.6996 -0.1209
 2262SOL    HW3 9047   2.046   0.667   3.833  1.0137 -0.8988  1.4505
 2262SOL    MW4 9048   2.030   0.745   3.869  0.4541 -0.1677 -0.3465
 2263SOL     OW 9049   1.819   0.878   3.744  0.1544 -0.1958 -0.2110
 2263SOL    HW2 9050   1.897   0.848   3.790 -0.5161  0.6452  1.5186
 2263SOL    HW3 9051   1.844   0.880   3.652  2.6894  1.5674  0.4742
 2263SOL    MW4 9052   1.832   0.874   3.738  0.4004  0.1478  0.1076
 2264SOL     OW 9053   1.860   1.184   3.823 -0.0759  0.0477 -0.1415
 2264SOL    HW2 9054   1.829   1.174   3.913  1.0409 -0.0587  0.2373
 2264SOL    HW3 9055   1.858   1.096   3.786  0.2664 -0.0400  0.0479
 2264SOL    MW4 9056   1.856   1.171   3.830  0.1166  0.0221 -0.0665
 2265SOL     OW 9057   2.085   1.329   3.772  0.5219 -0.7620  0.4981
 2265SOL    HW2 9058   2.147   1.257   3.787 -1.5651 -2.3221  1.8019
 2265SOL    HW3 9059   2.001   1.294   3.801 -0.6848  1.9063  0.2631
 2265SOL    MW4 9060   2.082   1.315   3.778  0.0873 -0.6158  0.6391
 2266SOL     OW 9061   2.047   1.562   3.906 -0.2920  0.1263 -0.1674
 2266SOL    HW2 9062   1.982   1.594   3.844  0.5011  0.9792 -0.5615
 2266SOL    HW3 9063   2.075   1.478   3.870 -0.0096  0.5078 -0.8327
 2266SOL    MW4 9064   2.042   1.555   3.893 -0.1501  0.2892 -0.3072
 2267SOL     OW 9065   1.845   1.653   3.739  0.2208 -0.2873  0.0654
 2267SOL    HW2 9066   1.830   1.743   3.768  1.9094 -0.2921  1.0336
 2267SOL    HW3 9067   1.830   1.655   3.645  0.9178  1.1539 -0.0246
 2267SOL    MW4 9068   1.841   1.665   3.730  0.5355 -0.0978  0.1813
 2268SOL     OW 9069   1.812   1.910   3.832  0.5369  0.4492 -0.3412
 2268SOL    HW2 9070   1.811   1.898   3.927 -0.6776 -2.7687 -0.7057
 2268SOL    HW3 9071   1.730   1.955   3.813  0.2984  0.1671  0.0209
 2268SOL    MW4 9072   1.801   1.915   3.842  0.3452 -0.0126 -0.3415
 2269SOL     OW 9073   2.055   2.016   3.719  0.2875  0.3106  0.5734
 2269SOL    HW2 9074   1.971   1.982   3.748 -0.6419  0.4919 -1.8030
 2269SOL    HW3 9075   2.052   2.010   3.623  3.3164 -0.5217  0.4745
 2269SOL    MW4 9076   2.044   2.011   3.710  0.5645  0.2247  0.2468
 2270SOL     OW 9077   1.971   2.301   3.871  0.0655  0.2579  0.2553
 2270SOL    HW2 9078   1.916   2.357   3.817 -0.9861 -1.6801 -0.7341
 2270SOL    HW3 9079   1.977   2.219   3.822  2.2462 -0.2160  1.2819
 2270SOL    MW4 9080   1.964   2.298   3.858  0.2145 -0.0604  0.2602
 2271SOL     OW 9081   1.807   2.473   3.730 -0.4827 -0.0361  0.2521
 2271SOL    HW2 9082   1.823   2.559   3.766 -1.3407  0.1383  0.2429
 2271SOL    HW3 9083   1.827   2.481   3.636  0.1777 -0.0519  0.3963
 2271SOL    MW4 9084   1.812   2.485   3.722 -0.5088 -0.0152  0.2699
 2272SOL     OW 9085   1.822   2.723   3.872 -0.3222 -0.2150 -0.0243
 2272SOL    HW2 9086   1.793   2.720   3.963 -1.2669 -1.8161 -0.3530
 2272SOL    HW3 9087   1.753   2.770   3.826 -0.7628 -1.0376 -0.2195
 2272SOL    MW4 9088   1.809   2.729   3.878 -0.5050 -0.5348 -0.0934
 2273SOL     OW 9089   2.074   2.864   3.806  0.0321  0.1524  0.2896
 2273SOL    HW2 9090   2.148   2.815   3.841 -0.0872 -1.6290 -1.8235
 2273SOL    HW3 9091   1.997   2.821   3.843 -0.0014  0.9465  1.1594
 2273SOL    MW4 9092   2.074   2.852   3.816  0.0119  0.0222  0.1256
 2274SOL     OW 9093   2.051   3.122   3.878 -0.0327  0.0866 -0.3332
 2274SOL    HW2 9094   2.130   3.167   3.849 -0.2902  1.2545  0.7481
 2274SOL    HW3 9095   2.065   3.031   3.852  1.8007  0.2162  0.0843
 2274SOL    MW4 9096   2.063   3.116   3.871  0.1752  0.2578 -0.1355
 2275SOL     OW 9097   1.798   3.219   3.803  0.0558  0.0157  0.3211
 2275SOL    HW2 9098   1.869   3.168   3.844  0.0501 -0.3914 -0.1702
 2275SOL    HW3 9099   1.718   3.177   3.834  0.0391  0.0863  0.3745
 2275SOL    MW4 9100   1.797   3.206   3.813  0.0529 -0.0287  0.2633
 2276SOL     OW 9101   1.760   3.485   3.898 -0.2656  0.0538  0.5194
 2276SOL    HW2 9102   1.836   3.536   3.871 -0.8083  0.8513  0.4703
 2276SOL    HW3 9103   1.775   3.397   3.863  0.6802  0.1773  0.6141
 2276SOL    MW4 9104   1.772   3.480   3.890 -0.2124  0.1753  0.5254
 2277SOL     OW 9105   2.003   3.610   3.793 -0.4708  0.2811  0.1127
 2277SOL    HW2 9106   2.091   3.573   3.806 -1.0359 -1.0214  0.3189
 2277SOL    HW3 9107   1.991   3.609   3.698 -1.1773 -1.7751  0.1953
 2277SOL    MW4 9108   2.013   3.605   3.782 -0.6385 -0.1621  0.1508
 2278SOL     OW 9109   2.039   3.867   3.898 -0.1068  0.0398 -0.1984
 2278SOL    HW2 9110   2.115   3.895   3.846 -0.6188  1.6774 -0.0800
 2278SOL    HW3 9111   2.020   3.779   3.866  0.9854  0.1532 -1.2064
 2278SOL    MW4 9112   2.047   3.859   3.887 -0.0302  0.2709 -0.3158
 2279SOL     OW 9113   1.820   3.992   3.766  0.3001 -0.2374 -0.1562
 2279SOL    HW2 9114   1.900   3.976   3.815  0.0903  1.6695  0.8815
 2279SOL    HW3 9115   1.752   3.948   3.817  0.3517  0.1846  0.2850
 2279SOL    MW4 9116   1.821   3.984   3.779  0.2792  0.0698  0.0389
 2280SOL     OW 9117   1.779   4.250   3.857 -0.0948  0.7345  0.3072
 2280SOL    HW2 9118   1.856   4.295   3.821  0.0334 -0.4627 -0.9579
 2280SOL    HW3 9119   1.795   4.157   3.838 -1.5490  0.4126  0.6326
 2280SOL    MW4 9120   1.791   4.244   3.850 -0.2698  0.5341  0.1832
 2281SOL     OW 9121   2.010   4.360   3.781 -0.6256  0.0364  0.0528
 2281SOL    HW2 9122   2.095   4.325   3.807 -0.7018 -1.0951 -1.1726
 2281SOL    HW3 9123   2.023   4.388   3.690 -1.7072 -0.6909 -0.3371
 2281SOL    MW4 9124   2.023   4.359   3.772 -0.7784 -0.2089 -0.1603
 2282SOL     OW 9125   2.459   4.630   3.837  0.2182 -0.0249 -0.4704
 2282SOL    HW2 9126   2.463   4.640   3.933 -0.3895  0.0117 -0.4507
 2282SOL    HW3 9127   2.537   4.676   3.806 -0.6106  1.6335 -0.1266
 2282SOL    MW4 9128   2.470   4.637   3.846  0.0286  0.1988 -0.4224
 2283SOL     OW 9129   2.219   0.070   3.761 -0.0457  0.2447  0.2648
 2283SOL    HW2 9130   2.307   0.040   3.785 -1.1117 -1.7878  1.8011
 2283SOL    HW3 9131   2.222   0.081   3.666  1.9557  0.5151  0.3379
 2283SOL    MW4 9132   2.231   0.067   3.752  0.0777  0.0122  0.4771
 2284SOL     OW 9133   2.226   0.341   3.854  0.0253  0.3772 -0.0947
 2284SOL    HW2 9134   2.238   0.258   3.807 -0.1778  1.0258 -1.3082
 2284SOL    HW3 9135   2.154   0.384   3.808 -0.2936  0.9519  0.9357
 2284SOL    MW4 9136   2.218   0.336   3.842 -0.0436  0.5386 -0.1189
 2285SOL     OW 9137   2.424   0.514   3.751  0.1601 -0.0389  0.7374
 2285SOL    HW2 9138   2.352   0.453   3.769  0.8593 -0.8748  0.7532
 2285SOL    HW3 9139   2.433   0.512   3.655 -0.2608  0.5609  0.6843
 2285SOL    MW4 9140   2.416   0.506   3.740  0.1968 -0.0701  0.7325
 2286SOL     OW 9141   2.487   0.774   3.852 -0.1389 -0.2865  0.9086
 2286SOL    HW2 9142   2.419   0.839   3.833  0.1888 -0.4959 -1.1511
 2286SOL    HW3 9143   2.457   0.694   3.810  0.5049 -0.8786  1.5621
 2286SOL    MW4 9144   2.474   0.772   3.844 -0.0107 -0.3922  0.7231
 2287SOL     OW 9145   2.269   0.921   3.741  0.4320  0.3360  0.3202
 2287SOL    HW2 9146   2.194   0.874   3.780  0.1812 -0.0626 -0.6230
 2287SOL    HW3 9147   2.258   0.908   3.647  1.0828  1.2189  0.1227
 2287SOL    MW4 9148   2.257   0.913   3.734  0.4847  0.3999  0.1697
 2288SOL     OW 9149   2.282   1.154   3.882  0.2619  0.0787 -0.2412
 2288SOL    HW2 9150   2.262   1.137   3.974  3.2582 -0.3263  0.3646
 2288SOL    HW3 9151   2.277   1.068   3.840 -1.1514  0.2699 -0.5203
 2288SOL    MW4 9152   2.278   1.140   3.889  0.4707  0.0505 -0.1981
 2289SOL     OW 9153   2.507   1.293   3.769  0.1098 -0.0277 -0.2692
 2289SOL    HW2 9154   2.496   1.383   3.800  2.4637  0.2932 -0.3091
 2289SOL    HW3 9155   2.437   1.244   3.813 -1.1940  1.7987 -0.2468
 2289SOL    MW4 9156   2.496   1.298   3.779  0.2483  0.2556 -0.2715
 2290SOL     OW 9157   2.470   1.560   3.843 -0.3132  0.3248 -0.2834
 2290SOL    HW2 9158   2.541   1.603   3.795  0.6740  0.8397  1.6158
 2290SOL    HW3 9159   2.390   1.597   3.805  0.4957  2.9457  0.4781
 2290SOL    MW4 9160   2.469   1.570   3.832 -0.0763  0.7385  0.0676
 2291SOL     OW 9161   2.242   1.672   3.731 -0.4508  0.2400 -0.4856
 2291SOL    HW2 9162   2.256   1.756   3.775  0.0922  0.5522 -1.2561
 2291SOL    HW3 9163   2.173   1.630   3.783  1.1291  0.0101  1.4945
 2291SOL    MW4 9164   2.235   1.678   3.744 -0.1707  0.2508 -0.3260
 2292SOL     OW 9165   2.277   1.911   3.849  0.3062 -0.0239  0.2272
 2292SOL    HW2 9166   2.269   1.903   3.944  0.9522  1.0506  0.3896
 2292SOL    HW3 9167   2.196   1.954   3.822 -0.0308 -0.6439  0.2461
 2292SOL    MW4 9168   2.265   1.916   3.858  0.3470  0.0361  0.2511
 2293SOL     OW 9169   2.457   2.078   3.729  0.2963 -0.1145 -0.2422
 2293SOL    HW2 9170   2.453   2.164   3.772 -0.3682 -0.5008  0.4731
 2293SOL    HW3 9171   2.390   2.026   3.773  2.6020 -1.9137  1.3376
 2293SOL    MW4 9172   2.448   2.083   3.741  0.5129 -0.4028  0.0606
 2294SOL     OW 9173   2.450   2.325   3.859  0.2852 -0.4291  0.2028
 2294SOL    HW2 9174   2.370   2.372   3.834  0.8428 -0.0625 -0.9535
 2294SOL    HW3 9175   2.432   2.291   3.946  0.0054  2.2861  1.2668
 2294SOL    MW4 9176   2.437   2.327   3.867  0.3219 -0.0225  0.1906
 2295SOL     OW 9177   2.209   2.430   3.804 -0.0018  0.1503  0.3032
 2295SOL    HW2 9178   2.128   2.388   3.832  1.0858 -1.9197  0.4215
 2295SOL    HW3 9179   2.216   2.411   3.711 -0.2927  1.4074  0.0229
 2295SOL    MW4 9180   2.199   2.422   3.796  0.1033  0.0431  0.2818
 2296SOL     OW 9181   2.282   2.707   3.892  0.2405  0.2100 -0.2213
 2296SOL    HW2 9182   2.284   2.689   3.986 -1.0698 -0.8130 -0.3857
 2296SOL    HW3 9183   2.247   2.628   3.852 -2.5543  1.8869 -1.2527
 2296SOL    MW4 9184   2.278   2.694   3.899 -0.3011  0.2963 -0.3790
 2297SOL     OW 9185   2.497   2.857   3.785 -0.1020 -0.1467 -0.3367
 2297SOL    HW2 9186   2.424   2.813   3.827 -1.1806  0.8719 -1.0979
 2297SOL    HW3 9187   2.483   2.842   3.691  1.2421 -0.8097 -0.4570
 2297SOL    MW4 9188   2.486   2.849   3.778 -0.0670 -0.0998 -0.4530
 2298SOL     OW 9189   2.491   3.099   3.938 -0.1377  0.1039  0.2883
 2298SOL    HW2 9190   2.488   3.074   4.030 -1.9588 -1.3130 -0.1102
 2298SOL    HW3 9191   2.490   3.016   3.890  1.2669  0.8021 -1.0226
 2298SOL    MW4 9192   2.490   3.085   3.943 -0.1927  0.0091  0.0627
 2299SOL     OW 9193   2.286   3.240   3.801 -0.0739 -0.3742  0.5781
 2299SOL    HW2 9194   2.275   3.327   3.840 -1.0159 -0.2287  0.0125
 2299SOL    HW3 9195   2.364   3.204   3.844  0.6561  0.9742  0.4197
 2299SOL    MW4 9196   2.295   3.247   3.812 -0.1019 -0.1771  0.4826
 2300SOL     OW 9197   2.258   3.516   3.846 -0.2223 -0.6525  0.3805
 2300SOL    HW2 9198   2.277   3.539   3.937  0.0704  0.9929 -0.0797
 2300SOL    HW3 9199   2.339   3.537   3.799  0.0629 -2.6924 -0.0603
 2300SOL    MW4 9200   2.271   3.522   3.852 -0.1460 -0.7045  0.2616
 2301SOL     OW 9201   2.497   3.586   3.743  0.2657 -0.0833 -0.5220
 2301SOL    HW2 9202   2.561   3.523   3.775  0.7403  0.1204 -1.0589
 2301SOL    HW3 9203   2.495   3.572   3.649  0.2196  0.5559 -0.6183
 2301SOL    MW4 9204   2.505   3.576   3.735  0.3222  0.0279 -0.6056
 2302SOL     OW 9205   2.490   3.879   3.802 -0.6067  0.0406  0.1472
 2302SOL    HW2 9206   2.575   3.921   3.794 -0.1659 -0.7177  0.8091
 2302SOL    HW3 9207   2.507   3.786   3.788 -1.4520 -0.0250 -0.5197
 2302SOL    MW4 9208   2.503   3.872   3.799 -0.6601 -0.0681  0.1465
 2303SOL     OW 9209   2.236   3.999   3.737 -0.5678 -0.3386  0.2951
 2303SOL    HW2 9210   2.318   3.952   3.753 -0.7492 -0.7508  0.0063
 2303SOL    HW3 9211   2.216   3.982   3.645 -0.5368  0.4520  0.1383
 2303SOL    MW4 9212   2.244   3.991   3.727 -0.5876 -0.2887  0.2363
 2304SOL     OW 9213   2.271   4.262   3.835 -0.3297  0.0460  0.0784
 2304SOL    HW2 9214   2.280   4.253   3.930  1.2103 -0.6012 -0.1039
 2304SOL    HW3 9215   2.256   4.173   3.804 -0.7547  0.2464 -0.2953
 2304SOL    MW4 9216   2.271   4.249   3.844 -0.1826 -0.0129  0.0050
 2305SOL     OW 9217   2.514   4.381   3.763  0.2366  0.4065 -0.2181
 2305SOL    HW2 9218   2.433   4.330   3.771 -0.0973  0.6960 -1.5424
 2305SOL    HW3 9219   2.489   4.469   3.788  0.4228  0.2501  0.5109
 2305SOL    MW4 9220   2.500   4.386   3.767  0.2171  0.4241 -0.2966
 2306SOL     OW 9221   2.922   0.007   3.856  0.0596  0.0005  0.4749
 2306SOL    HW2 9222   2.926  -0.002   3.951  2.2079 -3.0236  0.1703
 2306SOL    HW3 9223   2.995   0.066   3.835  0.1020  0.0086  0.6456
 2306SOL    MW4 9224   2.932   0.014   3.866  0.3486 -0.3974  0.4572
 2307SOL     OW 9225   2.675   0.110   3.764 -0.2473  0.0161 -0.0049
 2307SOL    HW2 9226   2.761   0.087   3.801 -0.3705 -3.6906 -1.7571
 2307SOL    HW3 9227   2.687   0.101   3.670 -2.3181  0.4573 -0.3175
 2307SOL    MW4 9228   2.688   0.106   3.757 -0.5368 -0.4147 -0.2773
 2308SOL     OW 9229   2.667   0.417   3.819  0.0566  0.1491  0.6217
 2308SOL    HW2 9230   2.655   0.330   3.782  0.2715  0.3706  0.0309
 2308SOL    HW3 9231   2.584   0.461   3.806  0.1005  0.1935  0.4918
 2308SOL    MW4 9232   2.655   0.411   3.813  0.0907  0.1842  0.5266
 2309SOL     OW 9233   2.920   0.533   3.752  0.3625 -0.6406 -0.3528
 2309SOL    HW2 9234   2.994   0.489   3.793 -0.0887  0.6315  1.9490
 2309SOL    HW3 9235   2.843   0.484   3.783  0.0486  0.0208 -0.0642
 2309SOL    MW4 9236   2.920   0.521   3.762  0.2615 -0.3855 -0.0110
 2310SOL     OW 9237   2.923   0.793   3.845 -0.7734 -0.5025  0.2826
 2310SOL    HW2 9238   3.011   0.827   3.830 -0.7117 -0.0300  1.6356
 2310SOL    HW3 9239   2.927   0.702   3.815 -0.0637 -0.2362 -0.4419
 2310SOL    MW4 9240   2.935   0.786   3.839 -0.6717 -0.4050  0.3655
 2311SOL     OW 9241   2.692   0.926   3.774  0.0513 -0.0815  0.7269
 2311SOL    HW2 9242   2.773   0.877   3.790  0.4693  0.3958  0.1128
 2311SOL    HW3 9243   2.622   0.861   3.784  0.5556 -0.6411  0.6334
 2311SOL    MW4 9244   2.694   0.911   3.777  0.1730 -0.0924  0.6335
 2312SOL     OW 9245   2.710   1.180   3.921  0.8633  0.0567 -0.2261
 2312SOL    HW2 9246   2.725   1.091   3.889 -0.0182 -0.2379  0.1582
 2312SOL    HW3 9247   2.642   1.215   3.865 -0.9915 -0.6131  1.5362
 2312SOL    MW4 9248   2.703   1.173   3.910  0.5023 -0.0706  0.0571
 2313SOL     OW 9249   2.946   1.324   3.781  0.3698 -0.1296  0.3565
 2313SOL    HW2 9250   2.946   1.418   3.800 -0.7801  0.0720 -0.5554
 2313SOL    HW3 9251   2.867   1.291   3.825  0.1591 -0.4541 -0.2573
 2313SOL    MW4 9252   2.935   1.332   3.790  0.1903 -0.1458  0.1552
 2314SOL     OW 9253   2.922   1.585   3.902 -0.4908  0.2324  0.1369
 2314SOL    HW2 9254   2.922   1.575   3.997 -0.3815 -0.7441  0.0337
 2314SOL    HW3 9255   2.996   1.643   3.885 -0.4753  0.3655  0.6417
 2314SOL    MW4 9256   2.932   1.591   3.913 -0.4743  0.1211  0.1899
 2315SOL     OW 9257   2.701   1.700   3.753 -0.2805  0.1163  0.0799
 2315SOL    HW2 9258   2.775   1.661   3.800 -1.8188 -1.2938  1.4262
 2315SOL    HW3 9259   2.711   1.670   3.663  1.3160  0.7449  0.0404
 2315SOL    MW4 9260   2.712   1.691   3.747 -0.2728  0.0132  0.2523
 2316SOL     OW 9261   2.650   1.950   3.879 -0.1964 -0.0229 -0.7192
 2316SOL    HW2 9262   2.649   1.868   3.830  0.4601 -0.8527  0.6197
 2316SOL    HW3 9263   2.580   2.002   3.841  0.5175 -0.5071 -2.7565
 2316SOL    MW4 9264   2.641   1.946   3.868 -0.0156 -0.1962 -0.8114
 2317SOL     OW 9265   2.907   2.034   3.784 -0.6232 -0.1622  0.0075
 2317SOL    HW2 9266   2.911   2.126   3.813  1.1395 -0.0761 -0.4610
 2317SOL    HW3 9267   2.816   2.009   3.798 -0.3994  0.6479  3.2319
 2317SOL    MW4 9268   2.896   2.043   3.790 -0.3611 -0.0439  0.3711
 2318SOL     OW 9269   2.918   2.304   3.894  0.2466 -0.4274 -0.1349
 2318SOL    HW2 9270   2.928   2.336   3.983  1.7425  0.1815 -0.5164
 2318SOL    HW3 9271   3.000   2.325   3.850 -1.0782  0.8136 -2.1379
 2318SOL    MW4 9272   2.930   2.311   3.900  0.2692 -0.1833 -0.4495
 2319SOL     OW 9273   2.693   2.433   3.804 -0.2230 -0.5655 -0.5270
 2319SOL    HW2 9274   2.614   2.400   3.847  0.0942 -0.4042  0.1672
 2319SOL    HW3 9275   2.764   2.384   3.843  0.4210  1.9469  1.5822
 2319SOL    MW4 9276   2.692   2.422   3.815 -0.0962 -0.2127 -0.1572
 2320SOL     OW 9277   2.730   2.703   3.872  0.5777 -0.2452  0.0596
 2320SOL    HW2 9278   2.718   2.613   3.841 -0.4612  0.0253 -0.3348
 2320SOL    HW3 9279   2.656   2.751   3.836  2.0680  1.1621 -1.2300
 2320SOL    MW4 9280   2.719   2.697   3.863  0.6373 -0.0238 -0.1626
 2321SOL     OW 9281   2.939   2.821   3.749  0.2907 -0.2080 -0.5721
 2321SOL    HW2 9282   2.950   2.908   3.787  0.9661 -0.0790 -1.0602
 2321SOL    HW3 9283   2.865   2.783   3.797  1.2317 -0.1140  0.9834
 2321SOL    MW4 9284   2.931   2.827   3.760  0.5040 -0.1786 -0.4313
 2322SOL     OW 9285   2.921   3.074   3.896  0.1490  0.0309 -0.0728
 2322SOL    HW2 9286   2.847   3.111   3.847  0.7984  0.7804 -0.5013
 2322SOL    HW3 9287   2.996   3.128   3.870  0.8519 -0.7454  0.3333
 2322SOL    MW4 9288   2.921   3.086   3.886  0.3274  0.0273 -0.0758
 2323SOL     OW 9289   2.721   3.194   3.776 -0.4162  0.4436  0.1290
 2323SOL    HW2 9290   2.725   3.285   3.805 -0.2172  0.5287 -0.1574
 2323SOL    HW3 9291   2.640   3.160   3.814  1.4127 -0.3918  3.5084
 2323SOL    MW4 9292   2.711   3.202   3.785 -0.1486  0.3446  0.5371
 2324SOL     OW 9293   2.698   3.447   3.871 -0.3249 -0.1047 -0.3444
 2324SOL    HW2 9294   2.689   3.473   3.963  1.6342 -1.9728  0.4042
 2324SOL    HW3 9295   2.757   3.513   3.834 -0.2846  0.0623  0.0105
 2324SOL    MW4 9296   2.705   3.459   3.878 -0.0611 -0.3291 -0.1988
 2325SOL     OW 9297   2.911   3.611   3.791  0.0979 -0.5265  0.3037
 2325SOL    HW2 9298   2.986   3.565   3.828 -0.9073 -1.0703  1.6911
 2325SOL    HW3 9299   2.931   3.618   3.698  3.2266  1.9644  1.0935
 2325SOL    MW4 9300   2.923   3.605   3.783  0.3780 -0.2696  0.5910
 2326SOL     OW 9301   3.011   3.866   3.862 -0.4000  0.1207 -0.0783
 2326SOL    HW2 9302   2.979   3.876   3.952 -0.3142 -0.9858  0.0719
 2326SOL    HW3 9303   3.007   3.772   3.845 -1.0358  0.3905 -1.4608
 2326SOL    MW4 9304   3.006   3.855   3.872 -0.4726  0.0103 -0.2409
 2327SOL     OW 9305   2.751   3.981   3.740 -0.3030  0.4108 -0.2493
 2327SOL    HW2 9306   2.758   4.072   3.767 -1.9544  0.4414  0.0914
 2327SOL    HW3 9307   2.827   3.939   3.781  0.4233  1.6047 -0.3505
 2327SOL    MW4 9308   2.762   3.987   3.749 -0.4250  0.5724 -0.2177
 2328SOL     OW 9309   2.730   4.244   3.863  0.1384  0.1291 -0.4495
 2328SOL    HW2 9310   2.805   4.301   3.846  0.4473 -0.3796 -0.8117
 2328SOL    HW3 9311   2.656   4.290   3.824  0.0907  1.0951  0.7467
 2328SOL    MW4 9312   2.730   4.258   3.856  0.1729  0.1894 -0.3395
 2329SOL     OW 9313   2.950   4.397   3.788  0.2247  0.0825 -0.5050
 2329SOL    HW2 9314   3.040   4.372   3.808 -0.0784 -0.0438  0.7390
 2329SOL    HW3 9315   2.944   4.489   3.812 -0.2473 -0.1731  0.4089
 2329SOL    MW4 9316   2.961   4.406   3.794  0.1225  0.0321 -0.2203
 2330SOL     OW 9317   3.383   0.027   3.865  0.5022  0.0786 -0.2903
 2330SOL    HW2 9318   3.393   0.030   3.960  0.6334 -1.2088 -0.2647
 2330SOL    HW3 9319   3.456   0.080   3.832 -0.1146  1.3435  0.3497
 2330SOL    MW4 9320   3.394   0.035   3.873  0.4381  0.0756 -0.2025
 2331SOL     OW 9321   3.153   0.134   3.788 -0.7707  0.1264  0.2981
 2331SOL    HW2 9322   3.232   0.090   3.821 -1.1051 -0.8468 -0.1791
 2331SOL    HW3 9323   3.160   0.128   3.693 -1.9231 -0.9050  0.2609
 2331SOL    MW4 9324   3.165   0.127   3.780 -0.9669 -0.1381  0.2302
 2332SOL     OW 9325   3.118   0.380   3.874 -0.0004  0.1690 -1.0411
 2332SOL    HW2 9326   3.145   0.368   3.965 -2.9636 -0.4326 -0.1960
 2332SOL    HW3 9327   3.137   0.296   3.832 -0.0635 -0.0775 -0.5796
 2332SOL    MW4 9328   3.124   0.367   3.880 -0.3997  0.0571 -0.8687
 2333SOL     OW 9329   3.332   0.540   3.836  0.6274  0.0625 -0.0588
 2333SOL    HW2 9330   3.412   0.500   3.868  1.0116  0.3421 -0.6588
 2333SOL    HW3 9331   3.263   0.479   3.859  0.9418  0.1092  1.0092
 2333SOL    MW4 9332   3.333   0.527   3.843  0.7195  0.1055  0.0029
 2334SOL     OW 9333   3.383   0.810   3.897  0.0115  0.4651 -0.3215
 2334SOL    HW2 9334   3.396   0.815   3.991 -1.5563  0.4127 -0.1027
 2334SOL    HW3 9335   3.373   0.717   3.878 -0.4637  0.5408 -0.4409
 2334SOL    MW4 9336   3.384   0.798   3.907 -0.2580  0.4682 -0.3084
 2335SOL     OW 9337   3.164   0.931   3.810  0.1071 -0.0534 -0.2149
 2335SOL    HW2 9338   3.240   0.889   3.849 -0.1635 -0.5172 -0.1771
 2335SOL    HW3 9339   3.161   0.899   3.720 -0.5279 -0.7009  0.0335
 2335SOL    MW4 9340   3.173   0.921   3.803 -0.0124 -0.2000 -0.1771
 2336SOL     OW 9341   3.163   1.181   3.924 -0.1057  0.4212 -0.5877
 2336SOL    HW2 9342   3.164   1.096   3.881 -0.9162 -0.0886  0.3971
 2336SOL    HW3 9343   3.091   1.228   3.882 -1.4975 -0.4063  0.8038
 2336SOL    MW4 9344   3.154   1.176   3.913 -0.3962  0.2447 -0.2742
 2337SOL     OW 9345   3.401   1.282   3.809  0.2583 -0.1163  0.4387
 2337SOL    HW2 9346   3.312   1.268   3.841 -0.2798 -0.0983 -1.0448
 2337SOL    HW3 9347   3.392   1.287   3.714  1.6252  1.5963  0.3934
 2337SOL    MW4 9348   3.388   1.281   3.801  0.3676  0.1120  0.2370
 2338SOL     OW 9349   3.417   1.557   3.888  0.2780  0.0075  0.2695
 2338SOL    HW2 9350   3.414   1.469   3.849  1.1299 -0.3651  1.0132
 2338SOL    HW3 9351   3.330   1.593   3.873  0.1524 -0.6757 -0.7150
 2338SOL    MW4 9352   3.405   1.550   3.881  0.3738 -0.1318  0.2377
 2339SOL     OW 9353   3.177   1.678   3.817 -0.4892  0.3786  0.0361
 2339SOL    HW2 9354   3.200   1.771   3.816  1.1490 -0.0142 -0.0033
 2339SOL    HW3 9355   3.192   1.650   3.726  0.5633 -0.2850  0.4118
 2339SOL    MW4 9356   3.182   1.687   3.805 -0.1342  0.2392  0.0805
 2340SOL     OW 9357   3.165   1.949   3.841  0.6379 -0.7553 -0.1675
 2340SOL    HW2 9358   3.169   1.955   3.936  0.7458 -2.6366 -0.0206
 2340SOL    HW3 9359   3.076   1.975   3.819  0.8365  0.3921  0.3784
 2340SOL    MW4 9360   3.154   1.953   3.851  0.6783 -0.8521 -0.0761
 2341SOL     OW 9361   3.406   2.070   3.775 -0.0347 -0.2202 -0.0295
 2341SOL    HW2 9362   3.328   2.019   3.799  1.2429 -2.2875 -0.1612
 2341SOL    HW3 9363   3.402   2.075   3.679 -1.0003  1.3366  0.0724
 2341SOL    MW4 9364   3.395   2.064   3.765  0.0065 -0.2875 -0.0335
 2342SOL     OW 9365   3.398   2.337   3.862  0.2116 -0.3020 -0.3981
 2342SOL    HW2 9366   3.313   2.370   3.831 -0.5564 -0.8649  1.0353
 2342SOL    HW3 9367   3.400   2.246   3.834  0.7164 -0.0616 -1.1565
 2342SOL    MW4 9368   3.387   2.330   3.854  0.1769 -0.3445 -0.3090
 2343SOL     OW 9369   3.134   2.432   3.781 -0.2184 -0.0142  0.1346
 2343SOL    HW2 9370   3.143   2.525   3.802 -2.3925  0.1555  0.4018
 2343SOL    HW3 9371   3.162   2.425   3.690  0.0624  0.8687  0.1463
 2343SOL    MW4 9372   3.139   2.443   3.772 -0.4682  0.1247  0.1714
 2344SOL     OW 9373   3.172   2.694   3.838  0.2424 -0.0072  0.6923
 2344SOL    HW2 9374   3.156   2.717   3.930  0.7577 -0.1737  0.8276
 2344SOL    HW3 9375   3.101   2.736   3.790  0.2631  0.5193  1.1149
 2344SOL    MW4 9376   3.161   2.703   3.844  0.3131  0.0403  0.7659
 2345SOL     OW 9377   3.389   2.844   3.807  0.2863  0.3334 -0.3987
 2345SOL    HW2 9378   3.315   2.785   3.821  0.5896 -0.3957 -1.7622
 2345SOL    HW3 9379   3.382   2.870   3.715 -0.0997  2.8096  0.2800
 2345SOL    MW4 9380   3.378   2.840   3.796  0.2754  0.5639 -0.4890
 2346SOL     OW 9381   3.374   3.111   3.894 -0.4761 -0.4357  0.0591
 2346SOL    HW2 9382   3.377   3.018   3.870 -2.1898 -0.1131 -1.5319
 2346SOL    HW3 9383   3.445   3.151   3.844 -0.8113 -0.6189 -0.5683
 2346SOL    MW4 9384   3.384   3.104   3.884 -0.7464 -0.4173 -0.2335
 2347SOL     OW 9385   3.137   3.245   3.815  0.0683 -0.1420  0.3687
 2347SOL    HW2 9386   3.214   3.204   3.854 -0.1149 -1.4285 -0.6180
 2347SOL    HW3 9387   3.155   3.246   3.721 -1.0232 -0.2229  0.1550
 2347SOL    MW4 9388   3.150   3.240   3.808 -0.0998 -0.3224  0.2103
 2348SOL     OW 9389   3.133   3.498   3.908  0.0600  0.4804  0.0053
 2348SOL    HW2 9390   3.201   3.553   3.868 -1.0294  1.4052 -0.6164
 2348SOL    HW3 9391   3.148   3.411   3.871 -0.0074  1.0033 -1.3011
 2348SOL    MW4 9392   3.144   3.494   3.898 -0.0926  0.6714 -0.2491
 2349SOL     OW 9393   3.358   3.641   3.797 -0.2103 -0.1413 -0.6777
 2349SOL    HW2 9394   3.373   3.727   3.834  2.1975 -1.0568  0.6048
 2349SOL    HW3 9395   3.368   3.653   3.703 -0.7593  1.1315 -0.5789
 2349SOL    MW4 9396   3.362   3.654   3.790  0.0349 -0.0941 -0.4954
 2350SOL     OW 9397   3.437   3.888   3.882  0.2481  0.0561 -0.2008
 2350SOL    HW2 9398   3.516   3.940   3.867  1.0847 -1.6793 -2.0910
 2350SOL    HW3 9399   3.371   3.928   3.826  0.3176  0.3808 -0.0470
 2350SOL    MW4 9400   3.439   3.900   3.872  0.3676 -0.1300 -0.4299
 2351SOL     OW 9401   3.216   4.028   3.751  0.4341  0.3879 -0.4885
 2351SOL    HW2 9402   3.204   4.113   3.793  2.3049  0.4545 -0.0612
 2351SOL    HW3 9403   3.153   3.971   3.796  0.7421  1.0249  0.7897
 2351SOL    MW4 9404   3.206   4.031   3.763  0.7216  0.4807 -0.2635
 2352SOL     OW 9405   3.214   4.282   3.857 -0.1023 -0.0798 -0.3002
 2352SOL    HW2 9406   3.210   4.288   3.953  0.5708  0.8521 -0.3258
 2352SOL    HW3 9407   3.286   4.340   3.832  0.9112 -1.7161 -1.2386
 2352SOL    MW4 9408   3.223   4.291   3.866  0.1202 -0.1727 -0.4274
 2353SOL     OW 9409   3.423   4.444   3.777 -0.3335  0.0092  0.0387
 2353SOL    HW2 9410   3.513   4.422   3.800  0.4411  0.9089 -2.0384
 2353SOL    HW3 9411   3.410   4.532   3.811 -0.9349 -0.6742  1.6300
 2353SOL    MW4 9412   3.433   4.453   3.785 -0.3107  0.0378 -0.0254
 2354SOL     OW 9413   3.760   0.028   3.929 -0.1351  0.0860  0.3783
 2354SOL    HW2 9414   3.850   0.019   3.897 -0.2448 -1.6784  0.4848
 2354SOL    HW3 9415   3.719  -0.055   3.906 -1.4549  0.4925  1.2446
 2354SOL    MW4 9416   3.766   0.016   3.921 -0.3237 -0.0932  0.5067
 2355SOL     OW 9417   3.594   0.186   3.785  0.5679 -0.0203  0.0017
 2355SOL    HW2 9418   3.665   0.134   3.823  1.5404  0.5374 -1.0447
 2355SOL    HW3 9419   3.602   0.173   3.691 -0.1985  0.7376 -0.1711
 2355SOL    MW4 9420   3.604   0.177   3.778  0.5951  0.1532 -0.1591
 2356SOL     OW 9421   3.534   0.411   3.949 -0.1267  0.3236 -0.2094
 2356SOL    HW2 9422   3.603   0.473   3.927 -1.1714  1.3616 -0.5889
 2356SOL    HW3 9423   3.553   0.333   3.896  1.0022  0.4417  0.0299
 2356SOL    MW4 9424   3.545   0.409   3.939 -0.1156  0.4762 -0.2279
 2357SOL     OW 9425   3.761   0.538   3.815  0.2468 -0.3421  0.0980
 2357SOL    HW2 9426   3.834   0.482   3.840 -0.2794 -0.3648  1.6553
 2357SOL    HW3 9427   3.779   0.621   3.860 -1.0981 -0.6228  1.1854
 2357SOL    MW4 9428   3.773   0.542   3.824 -0.0000 -0.3821  0.4469
 2358SOL     OW 9429   3.854   0.774   3.940  0.2528  0.0282 -0.2279
 2358SOL    HW2 9430   3.933   0.792   3.889  0.0802  0.3043 -0.3926
 2358SOL    HW3 9431   3.784   0.816   3.892 -0.0866 -0.7207 -0.3959
 2358SOL    MW4 9432   3.855   0.782   3.927  0.1852 -0.0342 -0.2718
 2359SOL     OW 9433   3.633   0.896   3.815 -0.7124 -0.1686 -0.7129
 2359SOL    HW2 9434   3.647   0.979   3.861  0.6019 -0.0256 -1.3532
 2359SOL    HW3 9435   3.547   0.866   3.845 -0.1104  0.1822  1.4468
 2359SOL    MW4 9436   3.623   0.903   3.825 -0.4596 -0.1034 -0.5124
 2360SOL     OW 9437   3.637   1.166   3.911 -0.3857 -0.6592 -0.1646
 2360SOL    HW2 9438   3.704   1.193   3.849 -0.6479 -0.0503 -0.1893
 2360SOL    HW3 9439   3.559   1.216   3.885 -0.5194 -0.4664  0.5914
 2360SOL    MW4 9440   3.635   1.176   3.900 -0.4380 -0.5534 -0.0682
 2361SOL     OW 9441   3.868   1.270   3.787 -0.0695  0.1127 -0.3889
 2361SOL    HW2 9442   3.943   1.222   3.823  0.8507  1.2793 -0.7038
 2361SOL    HW3 9443   3.873   1.356   3.829 -1.6716 -0.0421  0.1453
 2361SOL    MW4 9444   3.879   1.275   3.797 -0.1594  0.2462 -0.3600
 2362SOL     OW 9445   3.856   1.546   3.904  0.5942  0.2443  0.0993
 2362SOL    HW2 9446   3.843   1.559   3.997  1.1080  0.4979  0.1325
 2362SOL    HW3 9447   3.779   1.586   3.863 -0.1409 -0.7835  0.4730
 2362SOL    MW4 9448   3.844   1.553   3.911  0.5650  0.1422  0.1530
 2363SOL     OW 9449   3.632   1.691   3.804  0.1572 -0.2901  0.4329
 2363SOL    HW2 9450   3.549   1.659   3.838  0.0700 -0.6368 -0.1093
 2363SOL    HW3 9451   3.621   1.693   3.709  0.0904  1.5444  0.4693
 2363SOL    MW4 9452   3.620   1.687   3.796  0.1369 -0.0938  0.3662
 2364SOL     OW 9453   3.625   1.952   3.907 -0.0090  0.1454 -0.1018
 2364SOL    HW2 9454   3.635   1.866   3.868 -0.6979 -0.3276  0.7469
 2364SOL    HW3 9455   3.551   1.991   3.860  0.5431  0.4273 -0.7446
 2364SOL    MW4 9456   3.617   1.946   3.896 -0.0271  0.1201 -0.0746
 2365SOL     OW 9457   3.852   2.066   3.828  0.0225 -0.3342  0.4121
 2365SOL    HW2 9458   3.917   1.999   3.849  0.2291 -0.0254  0.7605
 2365SOL    HW3 9459   3.769   2.030   3.860  0.2076 -0.2204  1.0283
 2365SOL    MW4 9460   3.849   2.052   3.835  0.0742 -0.2785  0.5394
 2366SOL     OW 9461   3.857   2.350   3.905  0.3196  0.1193  0.0092
 2366SOL    HW2 9462   3.789   2.385   3.847  0.2224 -0.4651 -0.2338
 2366SOL    HW3 9463   3.855   2.256   3.890 -0.9848 -0.2530  2.3520
 2366SOL    MW4 9464   3.848   2.342   3.895  0.1347 -0.0069  0.2862
 2367SOL     OW 9465   3.624   2.479   3.788  0.1984  0.0289  0.1835
 2367SOL    HW2 9466   3.547   2.423   3.802  0.3532 -0.1741  0.2349
 2367SOL    HW3 9467   3.629   2.489   3.693 -0.2966  0.6171  0.2146
 2367SOL    MW4 9468   3.614   2.473   3.778  0.1535  0.0797  0.1943
 2368SOL     OW 9469   3.615   2.720   3.919 -0.3606 -0.4708  0.4158
 2368SOL    HW2 9470   3.615   2.632   3.880 -0.7479 -0.3276  0.0949
 2368SOL    HW3 9471   3.536   2.761   3.886  0.7807  0.6691 -0.9378
 2368SOL    MW4 9472   3.605   2.713   3.910 -0.2611 -0.3015  0.1949
 2369SOL     OW 9473   3.832   2.856   3.814  0.0822 -0.1264 -0.1887
 2369SOL    HW2 9474   3.908   2.804   3.840  0.4449  0.7847  0.5979
 2369SOL    HW3 9475   3.756   2.800   3.833  0.4582 -0.2879  0.8506
 2369SOL    MW4 9476   3.832   2.842   3.820  0.1797 -0.0275  0.0522
 2370SOL     OW 9477   3.794   3.136   3.896  0.0124  0.3127  0.2979
 2370SOL    HW2 9478   3.721   3.168   3.844 -0.6078 -2.7112 -0.7939
 2370SOL    HW3 9479   3.815   3.050   3.858  1.6168 -0.5710  3.0130
 2370SOL    MW4 9480   3.787   3.129   3.884  0.1422 -0.2029  0.5121
 2371SOL     OW 9481   3.579   3.235   3.744  0.1064  0.3608 -0.2060
 2371SOL    HW2 9482   3.566   3.324   3.777 -0.4857 -0.1794  1.0745
 2371SOL    HW3 9483   3.555   3.239   3.652  0.8879  1.7167 -0.3539
 2371SOL    MW4 9484   3.574   3.247   3.736  0.1314  0.4684 -0.0565
 2372SOL     OW 9485   3.581   3.499   3.854 -0.0415  0.2279 -0.2056
 2372SOL    HW2 9486   3.585   3.499   3.950 -0.3302 -0.8168 -0.1878
 2372SOL    HW3 9487   3.494   3.534   3.834 -0.1059  0.1432 -0.0786
 2372SOL    MW4 9488   3.570   3.504   3.864 -0.0880  0.0789 -0.1865
 2373SOL     OW 9489   3.835   3.601   3.772  0.5963 -0.2737  0.1899
 2373SOL    HW2 9490   3.854   3.675   3.829 -1.1225  1.0679 -0.8761
 2373SOL    HW3 9491   3.754   3.563   3.808 -0.7632  0.8703 -1.5338
 2373SOL    MW4 9492   3.827   3.606   3.784  0.1902  0.0542 -0.1781
 2374SOL     OW 9493   3.857   3.833   3.924  0.3003  0.3724 -0.0395
 2374SOL    HW2 9494   3.859   3.834   4.019  0.6717  0.0224 -0.0390
 2374SOL    HW3 9495   3.937   3.879   3.898  0.5773 -0.1630 -0.1694
 2374SOL    MW4 9496   3.868   3.839   3.933  0.3858  0.2556 -0.0566
 2375SOL     OW 9497   3.678   4.024   3.818  0.7572 -0.1290  0.1977
 2375SOL    HW2 9498   3.728   4.089   3.769  1.0753 -1.2751 -1.0185
 2375SOL    HW3 9499   3.739   3.952   3.832 -0.5533 -1.5599 -1.3359
 2375SOL    MW4 9500   3.693   4.023   3.814  0.6263 -0.4690 -0.1651
 2376SOL     OW 9501   3.684   4.419   3.892 -0.0859  0.1039  0.7026
 2376SOL    HW2 9502   3.666   4.368   3.971  3.1553  0.6315  1.8339
 2376SOL    HW3 9503   3.723   4.355   3.832  3.0221  0.9204  1.7535
 2376SOL    MW4 9504   3.687   4.404   3.895  0.7518  0.2813  0.9905
 2377SOL     OW 9505   3.816   4.230   3.723 -0.2402  0.1730  0.3740
 2377SOL    HW2 9506   3.903   4.223   3.763 -0.4498 -1.7416  0.5485
 2377SOL    HW3 9507   3.830   4.283   3.645  0.9737  0.3522  0.6957
 2377SOL    MW4 9508   3.829   4.236   3.718 -0.1077 -0.0559  0.4395
 2378SOL     OW 9509   3.854   0.748   4.625 -0.1703 -0.0304  0.9787
 2378SOL    HW2 9510   3.792   0.816   4.600  0.6717  0.3762 -0.0742
 2378SOL    HW3 9511   3.856   0.750   4.720 -0.9627  0.6802  0.9840
 2378SOL    MW4 9512   3.846   0.757   4.634 -0.1638  0.1170  0.8405
 2379SOL     OW 9513   4.247   4.607   3.885 -0.8188  0.2577 -0.1188
 2379SOL    HW2 9514   4.261   4.603   3.979  2.0802 -0.7685 -0.5703
 2379SOL    HW3 9515   4.326   4.649   3.850 -1.2891 -0.5476 -2.2233
 2379SOL    MW4 9516   4.259   4.612   3.893 -0.4984  0.0160 -0.4560
 2380SOL     OW 9517   4.026   0.112   3.836 -0.2065 -0.1672  0.1046
 2380SOL    HW2 9518   4.101   0.059   3.866  0.9653  0.5364 -1.5006
 2380SOL    HW3 9519   4.015   0.088   3.744 -1.8397 -0.1094  0.2805
 2380SOL    MW4 9520   4.035   0.102   3.828 -0.2674 -0.0668 -0.0840
 2381SOL     OW 9521   4.269   0.444   3.810 -0.3306 -0.0721 -0.4540
 2381SOL    HW2 9522   4.179   0.418   3.829 -0.4364  0.2814 -0.4711
 2381SOL    HW3 9523   4.272   0.450   3.714 -0.6477  1.1740 -0.4015
 2381SOL    MW4 9524   4.257   0.442   3.800 -0.3864  0.1390 -0.4494
 2382SOL     OW 9525   4.310   0.764   3.877  0.0534  0.0575 -0.4334
 2382SOL    HW2 9526   4.227   0.798   3.845  0.1355 -0.8257 -1.6064
 2382SOL    HW3 9527   4.299   0.669   3.880  0.2418  0.0723  1.6500
 2382SOL    MW4 9528   4.298   0.756   3.873  0.0891 -0.0570 -0.3133
 2383SOL     OW 9529   4.074   0.875   3.792 -0.3786  0.2534  0.7799
 2383SOL    HW2 9530   4.107   0.957   3.828 -0.7054  0.7541 -0.0480
 2383SOL    HW3 9531   4.064   0.892   3.698  0.6888 -1.0996  0.3917
 2383SOL    MW4 9532   4.077   0.888   3.784 -0.2809  0.1409  0.6195
 2384SOL     OW 9533   4.087   1.135   3.925  0.2258 -0.4880 -0.2784
 2384SOL    HW2 9534   4.083   1.171   4.014 -1.2196  0.8717 -0.8728
 2384SOL    HW3 9535   4.161   1.181   3.885 -0.1699  0.1308 -0.3054
 2384SOL    MW4 9536   4.096   1.146   3.931 -0.0171 -0.2270 -0.3604
 2385SOL     OW 9537   4.303   1.264   3.818  0.0487  0.9400  0.2631
 2385SOL    HW2 9538   4.295   1.353   3.854  0.0921  1.4455 -0.9669
 2385SOL    HW3 9539   4.302   1.276   3.724 -0.0900 -0.3932  0.0867
 2385SOL    MW4 9540   4.302   1.278   3.811  0.0361  0.8308  0.0776
 2386SOL     OW 9541   4.281   1.520   3.903  0.0548  0.1086 -0.0108
 2386SOL    HW2 9542   4.213   1.571   3.858 -0.7866 -1.9479 -1.0964
 2386SOL    HW3 9543   4.363   1.566   3.881 -0.8979  2.4029  1.0311
 2386SOL    MW4 9544   4.283   1.533   3.894 -0.1819  0.1400 -0.0166
 2387SOL     OW 9545   4.092   1.675   3.774 -0.3407  0.4070 -0.0168
 2387SOL    HW2 9546   4.104   1.762   3.813 -1.4281  0.6460 -0.1918
 2387SOL    HW3 9547   4.011   1.642   3.813 -0.0426 -0.4396 -0.1129
 2387SOL    MW4 9548   4.083   1.682   3.784 -0.4448  0.3269 -0.0526
 2388SOL     OW 9549   4.080   1.923   3.893 -0.0041 -0.1270  0.1277
 2388SOL    HW2 9550   4.093   1.921   3.988 -0.1264  1.3171  0.1838
 2388SOL    HW3 9551   4.153   1.976   3.861 -0.2528 -0.1948 -0.5487
 2388SOL    MW4 9552   4.092   1.929   3.901 -0.0531  0.0546  0.0458
 2389SOL     OW 9553   4.315   2.074   3.792 -0.2063  0.2403 -0.5172
 2389SOL    HW2 9554   4.327   2.164   3.821 -1.4510  0.1042  0.4315
 2389SOL    HW3 9555   4.301   2.082   3.697 -1.3465  1.1505 -0.2896
 2389SOL    MW4 9556   4.315   2.087   3.783 -0.5210  0.3424 -0.3620
 2390SOL     OW 9557   4.270   2.335   3.874 -0.6224 -0.8165  0.2418
 2390SOL    HW2 9558   4.265   2.347   3.969  1.3382  0.8567  0.1654
 2390SOL    HW3 9559   4.197   2.387   3.840  0.4572  1.0153  0.6746
 2390SOL    MW4 9560   4.259   2.343   3.882 -0.2213 -0.3541  0.2888
 2391SOL     OW 9561   4.053   2.472   3.761  0.1674 -0.2501 -0.5221
 2391SOL    HW2 9562   4.048   2.556   3.806 -0.3971 -0.7036  0.2747
 2391SOL    HW3 9563   3.984   2.419   3.802 -0.6353 -0.5246 -2.1904
 2391SOL    MW4 9564   4.043   2.476   3.772 -0.0130 -0.3462 -0.6371
 2392SOL     OW 9565   4.050   2.719   3.884 -0.1329  0.0309  0.3287
 2392SOL    HW2 9566   4.049   2.735   3.978  2.9927 -1.6279  0.7171
 2392SOL    HW3 9567   4.134   2.754   3.855 -0.5659 -0.4951 -1.6537
 2392SOL    MW4 9568   4.061   2.726   3.892  0.2223 -0.2573  0.1184
 2393SOL     OW 9569   4.289   2.831   3.795 -0.0224 -0.1011 -0.1294
 2393SOL    HW2 9570   4.281   2.919   3.832  1.0974  0.1472 -0.4735
 2393SOL    HW3 9571   4.367   2.794   3.836  0.5613 -0.2590 -1.3659
 2393SOL    MW4 9572   4.298   2.837   3.806  0.2023 -0.0892 -0.3379
 2394SOL     OW 9573   4.291   3.077   3.918  0.2884  0.3473  0.1466
 2394SOL    HW2 9574   4.207   3.119   3.903  0.4644  0.6236 -0.0703
 2394SOL    HW3 9575   4.353   3.127   3.865  0.3376 -0.7725 -0.8935
 2394SOL    MW4 9576   4.288   3.089   3.909  0.3181  0.2360 -0.0192
 2395SOL     OW 9577   4.041   3.209   3.798 -0.3203 -0.1997 -0.3600
 2395SOL    HW2 9578   3.948   3.206   3.821 -0.5479  1.6357 -1.0088
 2395SOL    HW3 9579   4.042   3.237   3.707  0.8912  0.0037 -0.2800
 2395SOL    MW4 9580   4.029   3.212   3.789 -0.1905  0.0693 -0.4350
 2396SOL     OW 9581   4.033   3.468   3.922  0.0971  1.0174 -0.0314
 2396SOL    HW2 9582   4.047   3.375   3.904 -0.0346  0.7759  1.0940
 2396SOL    HW3 9583   3.966   3.494   3.859 -0.6437  0.0868  0.3603
 2396SOL    MW4 9584   4.026   3.459   3.912 -0.0180  0.8628  0.1688
 2397SOL     OW 9585   4.233   3.604   3.786 -0.1820  0.6049 -0.3267
 2397SOL    HW2 9586   4.167   3.560   3.839  0.5674 -0.1140  0.0243
 2397SOL    HW3 9587   4.314   3.557   3.804 -0.0341 -0.0875 -2.6391
 2397SOL    MW4 9588   4.235   3.592   3.795 -0.0636  0.4187 -0.5855
 2398SOL     OW 9589   4.291   3.823   3.927  0.4488  0.1229 -0.0635
 2398SOL    HW2 9590   4.220   3.882   3.904  0.0437 -0.1690  0.4388
 2398SOL    HW3 9591   4.274   3.743   3.876  2.7989  1.5644 -3.3352
 2398SOL    MW4 9592   4.280   3.820   3.917  0.7054  0.2746 -0.4289
 2399SOL     OW 9593   4.080   3.976   3.836  0.4397  0.6169 -0.1853
 2399SOL    HW2 9594   4.074   4.066   3.867 -0.0526  0.9554 -1.2232
 2399SOL    HW3 9595   4.065   3.983   3.741  3.0085 -0.2524 -0.6822
 2399SOL    MW4 9596   4.077   3.989   3.827  0.7136  0.5468 -0.3878
 2400SOL     OW 9597   4.043   4.240   3.913  0.9966  0.0720  0.6439
 2400SOL    HW2 9598   4.015   4.257   4.003  0.5731 -0.7841  0.6826
 2400SOL    HW3 9599   4.116   4.299   3.899 -1.2272  2.8410  0.3264
 2400SOL    MW4 9600   4.049   4.250   3.923  0.6473  0.3244  0.6071
 2401SOL     OW 9601   4.265   4.350   3.793 -0.1603  0.2566  0.0600
 2401SOL    HW2 9602   4.259   4.440   3.827  1.0040  0.1556  0.5507
 2401SOL    HW3 9603   4.350   4.319   3.824 -0.3562 -0.8525 -0.5195
 2401SOL    MW4 9604   4.276   4.358   3.802 -0.0326  0.0969  0.0483
 2402SOL     OW 9605   1.561   2.280   4.141  0.5516 -0.3828 -0.0185
 2402SOL    HW2 9606   1.573   2.293   4.046 -1.4137  1.4364 -0.0567
 2402SOL    HW3 9607   1.631   2.330   4.181  0.1243  0.5997 -0.4818
 2402SOL    MW4 9608   1.572   2.288   4.133  0.2360 -0.0132 -0.0846
 2403SOL     OW 9609   0.270   2.826   4.338  0.5289  0.1718  0.4071
 2403SOL    HW2 9610   0.288   2.916   4.367 -0.0749  0.6964 -0.8110
 2403SOL    HW3 9611   0.341   2.806   4.278  0.7397 -0.2201  0.7862
 2403SOL    MW4 9612   0.282   2.835   4.334  0.4770  0.1893  0.2964
 2404SOL     OW 9613   3.841   3.621   4.301  0.2340 -0.3345  0.2750
 2404SOL    HW2 9614   3.930   3.594   4.276  0.0212 -0.6424 -0.1446
 2404SOL    HW3 9615   3.783   3.570   4.244 -0.2333 -0.6780  1.0558
 2404SOL    MW4 9616   3.845   3.611   4.290  0.1442 -0.4205  0.3226
 2405SOL     OW 9617   2.666   4.057   4.510  0.1617  0.0086 -0.2080
 2405SOL    HW2 9618   2.571   4.053   4.500  0.4117 -1.8630 -2.2389
 2405SOL    HW3 9619   2.700   4.019   4.428  2.6382  0.2774  0.6637
 2405SOL    MW4 9620   2.658   4.051   4.498  0.5214 -0.2029 -0.3609
 2406SOL     OW 9621   2.593   3.219   4.810 -0.0171 -0.4627  0.3229
 2406SOL    HW2 9622   2.524   3.283   4.826  0.1667 -0.2267  0.1796
 2406SOL    HW3 9623   2.556   3.161   4.744 -0.4175 -0.8730  0.8979
 2406SOL    MW4 9624   2.579   3.220   4.804 -0.0457 -0.4857  0.3798
 2407SOL     OW 9625   1.314   0.643   4.492 -0.1341  0.0208  0.1850
 2407SOL    HW2 9626   1.405   0.614   4.495  0.0239  0.4150 -0.4798
 2407SOL    HW3 9627   1.318   0.735   4.517 -0.2755  0.1797 -0.3632
 2407SOL    MW4 9628   1.327   0.651   4.495 -0.1319  0.0938  0.0249
 2408SOL     OW 9629   1.655   2.063   4.562 -0.4505 -0.0125  0.2790
 2408SOL    HW2 9630   1.674   1.970   4.570 -0.3605 -0.3695 -3.2602
 2408SOL    HW3 9631   1.563   2.071   4.586 -0.2091 -0.8631  1.5136
 2408SOL    MW4 9632   1.646   2.052   4.566 -0.4068 -0.1718 -0.0251
 2409SOL     OW 9633   4.264   0.803   4.158  0.0740  0.3664 -0.5715
 2409SOL    HW2 9634   4.272   0.709   4.172  0.1797  0.4361 -0.1686
 2409SOL    HW3 9635   4.247   0.812   4.064 -0.8904 -0.1084 -0.4454
 2409SOL    MW4 9636   4.263   0.792   4.147 -0.0393  0.3129 -0.5017
 2410SOL     OW 9637   2.935   3.624   4.547 -0.3246 -0.1669  0.5545
 2410SOL    HW2 9638   3.028   3.619   4.565  0.0416  0.3018 -1.1094
 2410SOL    HW3 9639   2.906   3.705   4.589  0.0595 -0.2065  0.8901
 2410SOL    MW4 9640   2.943   3.634   4.555 -0.2256 -0.1103  0.3792
 2411SOL     OW 9641   4.270   1.549   4.174 -0.0607 -0.0485 -0.0377
 2411SOL    HW2 9642   4.265   1.459   4.207 -0.1797 -0.1213 -0.2516
 2411SOL    HW3 9643   4.280   1.539   4.079  2.2355  0.1218  0.1740
 2411SOL    MW4 9644   4.270   1.535   4.166  0.2265 -0.0356 -0.0380
 2412SOL     OW 9645   0.321   3.441   4.610 -0.1701 -0.3316  0.2756
 2412SOL    HW2 9646   0.282   3.528   4.599  0.4154  0.1269  1.7241
 2412SOL    HW3 9647   0.246   3.382   4.619 -0.5631  0.2484  0.8444
 2412SOL    MW4 9648   0.306   3.444   4.610 -0.1447 -0.1945  0.5418
 2413SOL     OW 9649   1.112   3.537   4.675  0.0579  0.6224 -0.1285
 2413SOL    HW2 9650   1.156   3.472   4.620  0.2370  0.1164  0.6001
 2413SOL    HW3 9651   1.100   3.612   4.618  0.6192  0.2580 -0.7423
 2413SOL    MW4 9652   1.116   3.538   4.660  0.1556  0.5076 -0.1134
 2414SOL     OW 9653   0.217   2.337   4.185 -0.6248  0.1683 -0.2718
 2414SOL    HW2 9654   0.301   2.373   4.213 -0.2750  0.2387 -1.4134
 2414SOL    HW3 9655   0.210   2.253   4.231 -0.0886  0.3143  0.0743
 2414SOL    MW4 9656   0.227   2.330   4.195 -0.5079  0.1968 -0.3768
 2415SOL     OW 9657   4.441   4.076   4.669  0.5267 -0.1953  0.1418
 2415SOL    HW2 9658   4.350   4.060   4.642  0.7899 -0.8356 -0.3805
 2415SOL    HW3 9659   4.458   4.167   4.643  0.6100 -0.6328 -1.4105
 2415SOL    MW4 9660   4.431   4.086   4.662  0.5724 -0.3375 -0.1319
 2416SOL     OW 9661   1.911   1.137   4.451  0.4467 -0.0587  0.0974
 2416SOL    HW2 9662   1.931   1.203   4.384 -0.0018 -0.8784 -0.8438
 2416SOL    HW3 9663   1.884   1.188   4.527  2.6440  0.9653  0.2499
 2416SOL    MW4 9664   1.910   1.153   4.452  0.6774 -0.0318 -0.0067
 2417SOL     OW 9665   2.357   2.205   4.757  0.5671  0.0097  0.0106
 2417SOL    HW2 9666   2.323   2.117   4.744  0.3012 -0.1462  1.7398
 2417SOL    HW3 9667   2.452   2.195   4.762  0.5324 -0.1718  0.2585
 2417SOL    MW4 9668   2.365   2.192   4.756  0.5274 -0.0348  0.2715
 2418SOL     OW 9669   4.481   4.274   4.164 -0.1596  0.1038  0.2535
 2418SOL    HW2 9670   4.484   4.267   4.068  1.8860  0.5549  0.2421
 2418SOL    HW3 9671   4.504   4.187   4.195  1.1631  0.4625  0.3049
 2418SOL    MW4 9672   4.485   4.262   4.155  0.2848  0.2106  0.2588
 2419SOL     OW 9673   1.434   2.984   4.695  0.2733 -0.2222  0.0500
 2419SOL    HW2 9674   1.355   3.032   4.720  0.5211  0.4781 -0.4958
 2419SOL    HW3 9675   1.500   3.010   4.760 -0.1488 -1.3834  0.9474
 2419SOL    MW4 9676   1.432   2.994   4.707  0.2503 -0.2830  0.0964
 2420SOL     OW 9677   4.284   2.367   4.150 -0.4360  0.0572 -0.1734
 2420SOL    HW2 9678   4.283   2.275   4.175  1.4746 -0.0491 -0.4627
 2420SOL    HW3 9679   4.205   2.403   4.191 -0.0764 -1.2333  1.7281
 2420SOL    MW4 9680   4.273   2.360   4.159 -0.1365 -0.1271  0.0393
 2421SOL     OW 9681   0.430   4.257   4.209 -0.1334 -0.0097  0.2042
 2421SOL    HW2 9682   0.451   4.250   4.116 -1.1878 -1.0541  0.0381
 2421SOL    HW3 9683   0.511   4.287   4.249 -0.1687  2.1947 -1.2839
 2421SOL    MW4 9684   0.444   4.260   4.202 -0.2772  0.1433 -0.0140
 2422SOL     OW 9685   3.056   3.139   4.509 -0.6496  0.2090  0.5515
 2422SOL    HW2 9686   2.974   3.112   4.550 -0.6609 -1.5566 -0.5832
 2422SOL    HW3 9687   3.121   3.077   4.541 -0.3337 -0.1641 -0.7828
 2422SOL    MW4 9688   3.054   3.127   4.519 -0.6094 -0.0732  0.2257
 2423SOL     OW 9689   3.165   2.772   4.115  1.0820  0.0487  0.2833
 2423SOL    HW2 9690   3.094   2.803   4.171  0.0682 -0.4364 -0.6845
 2423SOL    HW3 9691   3.245   2.796   4.160  0.2895  0.7274  1.3405
 2423SOL    MW4 9692   3.166   2.779   4.128  0.8437  0.0742  0.2951
 2424SOL     OW 9693   2.769   4.495   4.725 -0.7114  0.2437  0.1814
 2424SOL    HW2 9694   2.750   4.426   4.662 -2.0346  1.3698 -0.6819
 2424SOL    HW3 9695   2.683   4.531   4.748 -0.0244  1.7589  0.4266
 2424SOL    MW4 9696   2.755   4.490   4.720 -0.7953  0.5922  0.0999
 2425SOL     OW 9697   4.153   4.031   4.580 -0.2450 -0.1988  0.4101
 2425SOL    HW2 9698   4.117   4.107   4.626 -0.1035  0.3119 -0.3171
 2425SOL    HW3 9699   4.126   3.956   4.633 -0.2730  0.3635  1.2077
 2425SOL    MW4 9700   4.145   4.031   4.593 -0.2300 -0.0573  0.4194
 2426SOL     OW 9701   4.275   2.107   4.254  0.4057 -0.5127  0.1012
 2426SOL    HW2 9702   4.256   2.113   4.348  1.9497 -0.6998  0.4544
 2426SOL    HW3 9703   4.195   2.075   4.215 -0.2453 -0.4853  1.3773
 2426SOL    MW4 9704   4.262   2.104   4.261  0.5235 -0.5338  0.3162
 2427SOL     OW 9705   4.064   1.931   4.186 -0.1412 -0.0461  0.0195
 2427SOL    HW2 9706   3.977   1.970   4.200  0.4237  1.0669  0.4921
 2427SOL    HW3 9707   4.065   1.855   4.244 -1.1860 -0.6723 -0.7705
 2427SOL    MW4 9708   4.053   1.926   4.196 -0.2045  0.0181 -0.0223
 2428SOL     OW 9709   3.831   3.639   4.604 -0.1478 -0.4112 -0.2867
 2428SOL    HW2 9710   3.920   3.668   4.624 -0.0825 -1.3347  0.8057
 2428SOL    HW3 9711   3.827   3.641   4.508  0.5614  1.0406 -0.2941
 2428SOL    MW4 9712   3.842   3.643   4.594 -0.0456 -0.3415 -0.1436
 2429SOL     OW 9713   1.732   2.339   4.518  0.2952  0.1642 -0.1081
 2429SOL    HW2 9714   1.814   2.361   4.563 -0.1109  1.2653  0.1159
 2429SOL    HW3 9715   1.713   2.249   4.545  0.6102  0.4505  1.1042
 2429SOL    MW4 9716   1.740   2.330   4.528  0.2832  0.3472  0.0814
 2430SOL     OW 9717   3.350   0.550   4.290 -0.1608 -0.9511  0.0438
 2430SOL    HW2 9718   3.432   0.499   4.289 -0.3695 -1.2847 -0.1999
 2430SOL    HW3 9719   3.328   0.556   4.383  0.7236  0.0892  0.1989
 2430SOL    MW4 9720   3.358   0.544   4.302 -0.0717 -0.8578  0.0321
 2431SOL     OW 9721   3.600   0.068   4.581 -0.4632  0.3203  0.0665
 2431SOL    HW2 9722   3.533   0.043   4.645 -0.2643  0.4739  0.3300
 2431SOL    HW3 9723   3.641  -0.015   4.555 -0.5648  0.2571  0.1122
 2431SOL    MW4 9724   3.596   0.054   4.586 -0.4504  0.3322  0.1073
 2432SOL     OW 9725   4.290   1.467   4.621 -0.1946 -0.3686 -0.3364
 2432SOL    HW2 9726   4.322   1.384   4.586  0.5604 -0.8756  1.4663
 2432SOL    HW3 9727   4.363   1.528   4.608 -0.3102 -0.2876 -0.6029
 2432SOL    MW4 9728   4.304   1.465   4.615 -0.1102 -0.4248 -0.1337
 2433SOL     OW 9729   3.808   1.325   4.315  0.4591 -0.2460 -0.2644
 2433SOL    HW2 9730   3.757   1.371   4.381  0.3553 -0.8439  0.0776
 2433SOL    HW3 9731   3.754   1.249   4.293  0.3789  0.0767 -1.2135
 2433SOL    MW4 9732   3.794   1.321   4.320  0.4348 -0.2823 -0.3445
 2434SOL     OW 9733   0.927   1.669   4.197 -0.2708  0.0404 -0.0081
 2434SOL    HW2 9734   0.834   1.649   4.183 -0.1932  0.2977 -0.9558
 2434SOL    HW3 9735   0.937   1.674   4.292 -1.2727  0.2223  0.0893
 2434SOL    MW4 9736   0.916   1.667   4.208 -0.3928  0.0984 -0.1203
 2435SOL     OW 9737   2.513   0.134   4.549  0.1867  0.0929  0.0416
 2435SOL    HW2 9738   2.505   0.229   4.540 -0.8095  0.1417  1.2544
 2435SOL    HW3 9739   2.602   0.115   4.520 -0.0803  1.2031 -1.6331
 2435SOL    MW4 9740   2.523   0.144   4.544  0.0200  0.2458 -0.0194
 2436SOL     OW 9741   0.199   2.077   4.254 -0.2798 -0.4110 -0.1867
 2436SOL    HW2 9742   0.266   2.028   4.207 -0.6848 -0.9012 -0.2589
 2436SOL    HW3 9743   0.116   2.037   4.226 -0.5964  0.1778 -0.0849
 2436SOL    MW4 9744   0.197   2.065   4.244 -0.3750 -0.3980 -0.1828
 2437SOL     OW 9745   2.874   0.714   4.559  0.2864 -0.0574  0.5444
 2437SOL    HW2 9746   2.880   0.619   4.564  0.6347 -0.0621  0.0883
 2437SOL    HW3 9747   2.965   0.745   4.559  0.2607  0.1163 -1.8603
 2437SOL    MW4 9748   2.887   0.706   4.559  0.3290 -0.0351  0.1670
 2438SOL     OW 9749   1.383   1.657   4.237  0.0716 -0.1819  0.0138
 2438SOL    HW2 9750   1.400   1.681   4.328  0.2674 -2.2775  0.5413
 2438SOL    HW3 9751   1.463   1.615   4.207 -1.2460 -2.8118  0.0255
 2438SOL    MW4 9752   1.396   1.655   4.245 -0.0764 -0.8054  0.0850
 2439SOL     OW 9753   2.695   1.667   4.222  0.0471  0.2198 -0.0736
 2439SOL    HW2 9754   2.688   1.760   4.198  0.7400  0.0103 -1.1360
 2439SOL    HW3 9755   2.701   1.667   4.317  1.4352  1.3630 -0.1443
 2439SOL    MW4 9756   2.695   1.679   4.231  0.3217  0.3430 -0.2231
 2440SOL     OW 9757   0.464   2.454   4.251 -0.2604 -0.1462  0.3748
 2440SOL    HW2 9758   0.547   2.413   4.226 -0.0983 -1.2078  2.5392
 2440SOL    HW3 9759   0.466   2.539   4.208  0.9557 -1.0065 -1.3886
 2440SOL    MW4 9760   0.475   2.459   4.242 -0.0786 -0.3998  0.4277
 2441SOL     OW 9761   1.572   3.889   4.194  0.2668 -0.0568  0.3209
 2441SOL    HW2 9762   1.661   3.924   4.190  0.5246 -0.7942 -0.8443
 2441SOL    HW3 9763   1.582   3.801   4.232  0.0030 -0.0118  0.4942
 2441SOL    MW4 9764   1.585   3.882   4.198  0.2660 -0.1482  0.1900
 2442SOL     OW 9765   1.719   3.751   4.760 -0.2296 -0.1339 -0.5249
 2442SOL    HW2 9766   1.809   3.768   4.734  0.8465  0.5356  3.2490
 2442SOL    HW3 9767   1.672   3.832   4.739  0.5601  0.3490 -0.4436
 2442SOL    MW4 9768   1.725   3.764   4.754  0.0166  0.0182 -0.0162
 2443SOL     OW 9769   3.832   3.355   4.640 -0.2992 -0.0649 -0.4246
 2443SOL    HW2 9770   3.828   3.450   4.639 -0.4589 -0.0648  0.3051
 2443SOL    HW3 9771   3.908   3.333   4.585  0.4173  0.5138  0.3249
 2443SOL    MW4 9772   3.841   3.365   4.633 -0.2258  0.0115 -0.2294
 2444SOL     OW 9773   3.097   0.389   4.622 -0.0785  0.4630  0.0599
 2444SOL    HW2 9774   3.131   0.343   4.699 -0.9586  0.6718  0.5837
 2444SOL    HW3 9775   3.160   0.460   4.606  0.1827  0.3331  0.4995
 2444SOL    MW4 9776   3.110   0.392   4.630 -0.1602  0.4734  0.1870
 2445SOL     OW 9777   3.810   0.249   4.645  0.1838  0.3954 -0.1922
 2445SOL    HW2 9778   3.795   0.338   4.611 -0.0850  1.3060  2.2196
 2445SOL    HW3 9779   3.727   0.204   4.631  0.3622  0.4538 -1.5457
 2445SOL    MW4 9780   3.797   0.255   4.638  0.1719  0.5233 -0.0526
 2446SOL     OW 9781   3.622   0.890   4.589  0.3716  0.3352 -0.1572
 2446SOL    HW2 9782   3.585   0.968   4.629  1.0059 -0.0370  1.1896
 2446SOL    HW3 9783   3.615   0.906   4.495 -0.2513  1.6508  0.0950
 2446SOL    MW4 9784   3.616   0.902   4.582  0.3731  0.4597  0.0538
 2447SOL     OW 9785   4.322   3.105   4.188  0.3304 -0.3992  0.2326
 2447SOL    HW2 9786   4.320   3.100   4.093  0.7717  2.0175  0.0539
 2447SOL    HW3 9787   4.251   3.167   4.209  1.3922  0.4731  1.3241
 2447SOL    MW4 9788   4.312   3.113   4.178  0.5287  0.0347  0.3530
 2448SOL     OW 9789   1.010   2.875   4.671 -0.0200 -0.2325  0.3310
 2448SOL    HW2 9790   0.938   2.903   4.614  1.3601  1.9732 -0.3787
 2448SOL    HW3 9791   0.976   2.797   4.715 -2.0695 -0.4678 -1.5623
 2448SOL    MW4 9792   0.996   2.869   4.670 -0.1083  0.0274 -0.0125
 2449SOL     OW 9793   2.682   1.268   4.673 -0.3181  0.6108 -0.4444
 2449SOL    HW2 9794   2.761   1.289   4.623 -0.8241  1.0637 -1.0689
 2449SOL    HW3 9795   2.709   1.273   4.765  0.4288  0.5339 -0.6560
 2449SOL    MW4 9796   2.696   1.271   4.678 -0.2863  0.6604 -0.5547
 2450SOL     OW 9797   1.296   4.260   4.192  1.0316 -0.3288 -0.1477
 2450SOL    HW2 9798   1.272   4.233   4.103 -1.4559 -1.9204  0.9479
 2450SOL    HW3 9799   1.221   4.313   4.221  2.4337  1.3205  0.5487
 2450SOL    MW4 9800   1.283   4.264   4.184  0.8884 -0.3212  0.0887
 2451SOL     OW 9801   2.215   4.495   4.559  0.6748  0.4782  0.4525
 2451SOL    HW2 9802   2.139   4.439   4.572 -0.2501  1.2592 -1.4977
 2451SOL    HW3 9803   2.286   4.434   4.538 -0.3456  0.0253 -1.7720
 2451SOL    MW4 9804   2.215   4.479   4.558  0.4182  0.5215 -0.0983
 2452SOL     OW 9805   1.152   4.643   4.190 -0.4341 -0.4500 -0.2928
 2452SOL    HW2 9806   1.235   4.680   4.220 -0.7746 -0.2770  0.4351
 2452SOL    HW3 9807   1.142   4.677   4.101  0.6451 -1.0907 -0.6686
 2452SOL    MW4 9808   1.162   4.653   4.182 -0.3366 -0.5117 -0.2464
 2453SOL     OW 9809   0.862   0.345   4.168  0.1570  0.0538 -0.4331
 2453SOL    HW2 9810   0.779   0.393   4.172  0.1445  0.1296 -1.4764
 2453SOL    HW3 9811   0.841   0.257   4.199 -0.5434 -0.2230 -1.6638
 2453SOL    MW4 9812   0.848   0.340   4.172  0.0629  0.0273 -0.7331
 2454SOL     OW 9813   0.896   2.642   4.758 -0.6122  0.0115 -0.2032
 2454SOL    HW2 9814   0.866   2.574   4.817 -0.7727  0.7263  0.5388
 2454SOL    HW3 9815   0.824   2.654   4.696 -0.4984 -0.6337 -0.4743
 2454SOL    MW4 9816   0.883   2.634   4.758 -0.6183  0.0206 -0.1411
 2455SOL     OW 9817   4.449   0.265   4.735  0.5794 -0.6839  0.3492
 2455SOL    HW2 9818   4.388   0.209   4.687  0.7540 -0.0616 -0.6160
 2455SOL    HW3 9819   4.431   0.247   4.827 -1.6599  0.1173  0.1008
 2455SOL    MW4 9820   4.439   0.255   4.741  0.3070 -0.4961  0.1891
 2456SOL     OW 9821   0.679   0.802   4.166  0.0857  0.1359 -0.2111
 2456SOL    HW2 9822   0.675   0.708   4.185 -1.4767  0.5231  1.4573
 2456SOL    HW3 9823   0.754   0.833   4.217  0.0415 -0.0299 -0.0439
 2456SOL    MW4 9824   0.688   0.793   4.175 -0.1263  0.1651  0.0311
 2457SOL     OW 9825   1.064   4.387   4.268  0.5471  0.3944 -0.1145
 2457SOL    HW2 9826   0.987   4.358   4.219 -0.2520 -0.0594  1.3648
 2457SOL    HW3 9827   1.085   4.473   4.231 -1.2706  0.9620  0.0819
 2457SOL    MW4 9828   1.056   4.395   4.257  0.2019  0.4095  0.1066
 2458SOL     OW 9829   2.623   3.645   4.681 -0.2930  0.1496  0.5734
 2458SOL    HW2 9830   2.669   3.561   4.672  0.9075  0.4681  3.3218
 2458SOL    HW3 9831   2.688   3.711   4.658 -0.0107  0.4954  2.2943
 2458SOL    MW4 9832   2.638   3.642   4.677 -0.0974  0.2373  1.1631
 2459SOL     OW 9833   1.776   0.702   4.484 -0.1252 -0.1227 -0.5292
 2459SOL    HW2 9834   1.791   0.755   4.562 -1.6133  0.9617 -0.9691
 2459SOL    HW3 9835   1.852   0.644   4.480 -0.0208 -0.1875  1.7101
 2459SOL    MW4 9836   1.788   0.701   4.493 -0.3078  0.0118 -0.2918
 2460SOL     OW 9837   1.154   2.271   4.173  0.0368  0.3426 -0.2056
 2460SOL    HW2 9838   1.162   2.187   4.219 -0.2433  0.4118 -0.0298
 2460SOL    HW3 9839   1.204   2.332   4.227  0.2501  0.2854 -0.3398
 2460SOL    MW4 9840   1.162   2.268   4.186  0.0280  0.3442 -0.2001
 2461SOL     OW 9841   2.272   0.331   4.123  0.6068  0.6109  0.2314
 2461SOL    HW2 9842   2.269   0.239   4.148  3.8400  0.3957  0.0133
 2461SOL    HW3 9843   2.259   0.332   4.029 -0.9356  0.5282  0.4326
 2461SOL    MW4 9844   2.270   0.319   4.114  0.8299  0.5716  0.2291
 2462SOL     OW 9845   1.634   1.519   4.161  0.0631 -0.0447 -0.1501
 2462SOL    HW2 9846   1.680   1.580   4.217  0.4959 -0.8046  0.3259
 2462SOL    HW3 9847   1.626   1.439   4.213  0.2085 -0.6590 -1.0555
 2462SOL    MW4 9848   1.639   1.516   4.175  0.1394 -0.2260 -0.2068
 2463SOL     OW 9849   1.128   2.804   4.271 -0.1045 -0.3146 -0.4601
 2463SOL    HW2 9850   1.128   2.776   4.362 -0.5631  0.7013 -0.1421
 2463SOL    HW3 9851   1.213   2.775   4.237  0.2118 -0.3871  0.3812
 2463SOL    MW4 9852   1.139   2.796   4.278 -0.1233 -0.1901 -0.3071
 2464SOL     OW 9853   1.654   4.037   4.675  0.4707  0.3562  0.2361
 2464SOL    HW2 9854   1.569   4.039   4.631  0.3349  1.4839  0.5228
 2464SOL    HW3 9855   1.649   4.107   4.740  0.9757 -0.7302  1.4688
 2464SOL    MW4 9856   1.642   4.047   4.678  0.5194  0.3616  0.4365
 2465SOL     OW 9857   2.284   2.668   4.600 -0.0982 -0.0198 -0.1896
 2465SOL    HW2 9858   2.361   2.724   4.611  0.1582 -0.3476 -0.3121
 2465SOL    HW3 9859   2.217   2.725   4.561  0.5161 -0.0902 -1.3635
 2465SOL    MW4 9860   2.285   2.683   4.597  0.0166 -0.0723 -0.3606
 2466SOL     OW 9861   1.372   2.694   4.142 -0.1430  0.3428  0.4988
 2466SOL    HW2 9862   1.365   2.610   4.188 -1.0919  1.0367  1.6274
 2466SOL    HW3 9863   1.441   2.741   4.188  0.6354  0.0710 -0.3535
 2466SOL    MW4 9864   1.380   2.689   4.154 -0.1655  0.3985  0.5353
 2467SOL     OW 9865   1.124   3.081   4.237  0.5116  0.2443 -0.1150
 2467SOL    HW2 9866   1.125   2.985   4.243  2.2440  0.1775 -1.1602
 2467SOL    HW3 9867   1.121   3.099   4.143 -1.2675  1.2303  0.1172
 2467SOL    MW4 9868   1.124   3.070   4.225  0.5054  0.3656 -0.2222
 2468SOL     OW 9869   0.932   3.503   4.155  0.2813 -0.3708 -0.2848
 2468SOL    HW2 9870   0.921   3.412   4.184  0.9577 -0.0569  1.0064
 2468SOL    HW3 9871   0.928   3.498   4.060  0.8032 -1.8384 -0.2564
 2468SOL    MW4 9872   0.930   3.490   4.147  0.4394 -0.5230 -0.1107
 2469SOL     OW 9873   1.165   3.648   4.263 -0.0604 -0.7960 -0.0183
 2469SOL    HW2 9874   1.083   3.619   4.224 -1.3376  0.7810  1.4207
 2469SOL    HW3 9875   1.172   3.740   4.238  1.5772 -1.0643 -0.6168
 2469SOL    MW4 9876   1.155   3.656   4.254 -0.0129 -0.6233  0.0926
 2470SOL     OW 9877   1.173   3.911   4.182 -0.0048  0.4958 -0.0078
 2470SOL    HW2 9878   1.091   3.956   4.199 -0.1481  0.3768 -0.3671
 2470SOL    HW3 9879   1.239   3.962   4.228 -0.2852  0.5759  0.3051
 2470SOL    MW4 9880   1.171   3.923   4.190 -0.0607  0.4906 -0.0139
 2471SOL     OW 9881   4.362   3.565   4.271  0.4364  0.1068  0.0374
 2471SOL    HW2 9882   4.425   3.520   4.215  1.2714  0.2228  0.8838
 2471SOL    HW3 9883   4.390   3.545   4.360 -2.3504 -2.1869  0.4790
 2471SOL    MW4 9884   4.374   3.556   4.275  0.1789 -0.1805  0.2074
 2472SOL     OW 9885   1.462   2.772   4.528  0.3136 -0.0329 -0.1639
 2472SOL    HW2 9886   1.494   2.822   4.454 -0.8441  1.1974  0.1441
 2472SOL    HW3 9887   1.456   2.836   4.599 -2.1284 -0.3532 -0.0334
 2472SOL    MW4 9888   1.465   2.787   4.528 -0.1613  0.0871 -0.1060
 2473SOL     OW 9889   3.709   4.228   4.643  0.1824  0.6761 -0.2398
 2473SOL    HW2 9890   3.661   4.166   4.589  1.0479  0.1332 -0.3996
 2473SOL    HW3 9891   3.643   4.267   4.700 -0.7090  1.0571 -1.4950
 2473SOL    MW4 9892   3.694   4.225   4.643  0.1790  0.6547 -0.4265
 2474SOL     OW 9893   4.057   0.221   4.487 -0.5779 -0.0054 -0.0001
 2474SOL    HW2 9894   3.980   0.242   4.541  0.9041  1.6481  1.5416
 2474SOL    HW3 9895   4.095   0.306   4.465  0.4030 -0.7802 -1.3680
 2474SOL    MW4 9896   4.052   0.235   4.491 -0.2529  0.1105  0.0228
 2475SOL     OW 9897   2.388   4.042   4.496  0.1492  0.3007 -0.1169
 2475SOL    HW2 9898   2.343   4.007   4.419 -0.5387  0.7856  0.0527
 2475SOL    HW3 9899   2.347   3.997   4.570  0.7945 -0.1514 -0.0343
 2475SOL    MW4 9900   2.377   4.032   4.496  0.1436  0.3050 -0.0836
 2476SOL     OW 9901   4.057   2.738   4.161  0.3334 -0.2730 -0.1672
 2476SOL    HW2 9902   3.989   2.789   4.204 -0.3011  0.3444 -1.8693
 2476SOL    HW3 9903   4.138   2.764   4.205 -0.3209  0.1760  0.7847
 2476SOL    MW4 9904   4.059   2.748   4.172  0.1633 -0.1323 -0.2662
 2477SOL     OW 9905   1.408   0.047   4.510 -0.1036  0.1964  0.2817
 2477SOL    HW2 9906   1.312   0.044   4.516 -0.1370 -0.8242 -0.5516
 2477SOL    HW3 9907   1.433   0.124   4.562 -1.3483  0.2913  0.7642
 2477SOL    MW4 9908   1.398   0.057   4.518 -0.2722  0.0742  0.2354
 2478SOL     OW 9909   1.662   1.533   4.643 -0.0170  0.4081  0.2111
 2478SOL    HW2 9910   1.593   1.466   4.640 -0.8460  1.3146 -1.4131
 2478SOL    HW3 9911   1.741   1.487   4.614 -0.4881  0.0155 -0.4660
 2478SOL    MW4 9912   1.663   1.518   4.639 -0.1885  0.4759 -0.0925
 2479SOL     OW 9913   1.377   1.198   4.107 -0.2410 -0.0992  0.1777
 2479SOL    HW2 9914   1.375   1.111   4.148  1.3430 -0.5691 -0.6981
 2479SOL    HW3 9915   1.378   1.180   4.013  1.1088  0.8138 -0.0079
 2479SOL    MW4 9916   1.377   1.184   4.100  0.1461 -0.0408  0.0377
 2480SOL     OW 9917   2.789   0.145   4.477  0.2860  0.0192  0.0125
 2480SOL    HW2 9918   2.829   0.232   4.482 -1.0239  0.6498 -0.4070
 2480SOL    HW3 9919   2.850   0.088   4.524  0.8884  1.2566  0.7549
 2480SOL    MW4 9920   2.802   0.149   4.484  0.1927  0.2657  0.0551
 2481SOL     OW 9921   2.986   4.260   4.749  0.0694  0.4870  0.2731
 2481SOL    HW2 9922   2.927   4.320   4.795 -0.3689  0.3310 -0.0767
 2481SOL    HW3 9923   3.005   4.304   4.666  0.3934  0.5018  0.3530
 2481SOL    MW4 9924   2.981   4.274   4.744  0.0544  0.4684  0.2375
 2482SOL     OW 9925   4.438   0.504   4.587 -0.0846  0.2113  0.3174
 2482SOL    HW2 9926   4.533   0.513   4.597  0.0669 -1.4537  0.4475
 2482SOL    HW3 9927   4.417   0.420   4.627 -1.7381  0.9254  0.9976
 2482SOL    MW4 9928   4.448   0.494   4.594 -0.2827  0.0858  0.4243
 2483SOL     OW 9929   0.435   2.502   4.540  0.0177  0.2019 -0.2890
 2483SOL    HW2 9930   0.466   2.477   4.453  0.8836  1.2917 -0.3043
 2483SOL    HW3 9931   0.435   2.420   4.590 -0.7786 -0.4838 -1.3942
 2483SOL    MW4 9932   0.439   2.488   4.535  0.0269  0.2552 -0.4368
 2484SOL     OW 9933   1.473   2.486   4.505  0.1450 -0.3092  0.2153
 2484SOL    HW2 9934   1.495   2.579   4.506 -1.2279  0.0208 -0.3445
 2484SOL    HW3 9935   1.558   2.442   4.495  0.5876  0.9691 -2.0340
 2484SOL    MW4 9936   1.487   2.492   4.504  0.0223 -0.0970 -0.1554
 2485SOL     OW 9937   3.149   3.515   4.183  0.1623 -0.2790  0.1377
 2485SOL    HW2 9938   3.131   3.501   4.090 -1.8618 -2.1333  0.7663
 2485SOL    HW3 9939   3.145   3.428   4.222  1.1843  0.4499  1.9521
 2485SOL    MW4 9940   3.146   3.502   4.176  0.0301 -0.4275  0.4600
 2486SOL     OW 9941   2.012   0.719   4.137  0.4390  0.3675 -0.0734
 2486SOL    HW2 9942   2.091   0.766   4.162  1.1368 -0.1625 -1.2217
 2486SOL    HW3 9943   2.033   0.627   4.151 -0.0282  0.2337 -0.2328
 2486SOL    MW4 9944   2.025   0.713   4.142  0.4694  0.2799 -0.2460
 2487SOL     OW 9945   2.473   3.854   4.080 -0.1343  0.0808  0.0045
 2487SOL    HW2 9946   2.546   3.899   4.121  0.4160  0.4656 -1.3446
 2487SOL    HW3 9947   2.484   3.872   3.986 -1.6374 -0.3203 -0.2606
 2487SOL    MW4 9948   2.484   3.862   4.073 -0.2600  0.0786 -0.2085
 2488SOL     OW 9949   0.214   1.563   4.161  0.1204  0.0681 -0.1705
 2488SOL    HW2 9950   0.288   1.604   4.204 -1.1015  0.2784  1.7766
 2488SOL    HW3 9951   0.221   1.470   4.183  0.1755 -0.0198 -0.5512
 2488SOL    MW4 9952   0.225   1.556   4.169 -0.0336  0.0842  0.0362
 2489SOL     OW 9953   0.436   0.141   4.245  0.2397 -0.0259 -0.3113
 2489SOL    HW2 9954   0.505   0.075   4.234  0.7828  0.4143  0.3401
 2489SOL    HW3 9955   0.356   0.098   4.215  0.6766 -0.8051 -0.3775
 2489SOL    MW4 9956   0.435   0.127   4.240  0.3690 -0.0706 -0.2341
 2490SOL     OW 9957   2.939   2.100   4.464  0.1627  0.3377 -0.5101
 2490SOL    HW2 9958   2.904   2.186   4.491  0.0952 -0.1556  1.0450
 2490SOL    HW3 9959   3.032   2.105   4.485  0.0659 -0.1383  0.0508
 2490SOL    MW4 9960   2.947   2.112   4.470  0.1410  0.2098 -0.2309
 2491SOL     OW 9961   3.352   4.429   4.478 -0.2651 -0.1165 -0.4000
 2491SOL    HW2 9962   3.360   4.523   4.488 -1.3579 -0.0591 -0.0017
 2491SOL    HW3 9963   3.373   4.393   4.564 -0.1425 -0.2260 -0.4740
 2491SOL    MW4 9964   3.356   4.436   4.490 -0.3931 -0.1233 -0.3572
 2492SOL     OW 9965   0.907   3.264   4.281  0.2484 -0.1159  0.2628
 2492SOL    HW2 9966   0.978   3.201   4.268 -0.2793 -0.6856  0.1193
 2492SOL    HW3 9967   0.884   3.256   4.373  1.1041  0.8596  0.5743
 2492SOL    MW4 9968   0.913   3.255   4.291  0.2916 -0.0624  0.2849
 2493SOL     OW 9969   2.238   3.435   4.137  0.1407 -0.0739  0.1058
 2493SOL    HW2 9970   2.153   3.480   4.139  0.1782  0.0717 -1.5061
 2493SOL    HW3 9971   2.300   3.499   4.173 -0.3389  0.0097  0.7923
 2493SOL    MW4 9972   2.235   3.449   4.142  0.0823 -0.0437 -0.0163
 2494SOL     OW 9973   1.774   3.456   4.174  0.0915 -0.3163 -0.0957
 2494SOL    HW2 9974   1.703   3.507   4.213  1.1784  0.5234  0.8221
 2494SOL    HW3 9975   1.753   3.452   4.081 -0.3398  1.2631 -0.0730
 2494SOL    MW4 9976   1.762   3.462   4.167  0.1780  0.0029  0.0284
 2495SOL     OW 9977   1.335   0.949   4.232  0.0701  0.0720  0.5324
 2495SOL    HW2 9978   1.407   0.899   4.193 -0.2301 -1.3645  1.8169
 2495SOL    HW3 9979   1.258   0.893   4.223 -0.5193  0.8226  0.8431
 2495SOL    MW4 9980   1.335   0.935   4.226 -0.0473 -0.0185  0.7429
 2496SOL     OW 9981   0.951   0.238   4.529  0.0392 -0.3456 -0.1466
 2496SOL    HW2 9982   1.001   0.319   4.540 -1.3160  0.4367  0.3400
 2496SOL    HW3 9983   0.867   0.256   4.572 -0.5571 -1.7389 -0.7186
 2496SOL    MW4 9984   0.946   0.251   4.536 -0.2183 -0.4262 -0.1579
 2497SOL     OW 9985   0.733   0.344   4.643 -0.0395 -0.1698 -0.0768
 2497SOL    HW2 9986   0.734   0.418   4.583  1.5539 -0.2431 -0.1545
 2497SOL    HW3 9987   0.650   0.299   4.624 -0.6751  1.1699 -0.5213
 2497SOL    MW4 9988   0.722   0.347   4.632  0.0869 -0.0027 -0.1457
 2498SOL     OW 9989   0.074   0.990   4.491 -0.1787 -0.2085  0.3926
 2498SOL    HW2 9990   0.164   0.958   4.488 -0.2856 -0.4812  0.0613
 2498SOL    HW3 9991   0.028   0.928   4.546 -0.3942 -0.6478 -0.2791
 2498SOL    MW4 9992   0.080   0.978   4.498 -0.2212 -0.3024  0.2603
 2499SOL     OW 9993   1.348   3.222   4.332 -0.2723 -0.1750  0.0620
 2499SOL    HW2 9994   1.279   3.157   4.316 -1.2653  0.0366  3.2324
 2499SOL    HW3 9995   1.324   3.296   4.276 -0.4188 -1.5935 -1.8125
 2499SOL    MW4 9996   1.335   3.223   4.322 -0.4226 -0.3342  0.2330
 2500SOL     OW 9997   2.917   0.494   4.238 -0.3540 -0.2756  0.3435
 2500SOL    HW2 9998   2.853   0.449   4.183  1.9844 -1.6404 -1.4007
 2500SOL    HW3 9999   2.914   0.585   4.208  0.0473 -0.7714 -1.3027
 2500SOL    MW410000   2.908   0.500   4.227  0.0075 -0.5211 -0.1038
 2501SOL     OW10001   4.289   2.837   4.290  0.1598 -0.0491  0.2226
 2501SOL    HW210002   4.374   2.796   4.270  0.2164 -0.8074  1.9068
 2501SOL    HW310003   4.302   2.929   4.268  0.8630 -0.4713 -1.1917
 2501SOL    MW410004   4.302   2.844   4.285  0.2600 -0.2048  0.2582
 2502SOL     OW10005   2.212   0.671   4.488  0.6151 -0.0223 -0.1648
 2502SOL    HW210006   2.179   0.756   4.518  0.0324  0.2542 -1.5430
 2502SOL    HW310007   2.145   0.608   4.514  0.2392  0.1809 -0.6241
 2502SOL    MW410008   2.199   0.674   4.495  0.4887  0.0410 -0.4073
 2503SOL     OW10009   3.621   3.492   4.129  0.0490  0.2521 -0.7749
 2503SOL    HW210010   3.545   3.536   4.166 -1.3285 -0.7435 -2.3526
 2503SOL    HW310011   3.622   3.406   4.171  1.3754  0.8986  0.5707
 2503SOL    MW410012   3.611   3.486   4.139  0.0422  0.2060 -0.8055
 2504SOL     OW10013   1.610   1.276   4.273  0.0475 -0.0537 -0.2748
 2504SOL    HW210014   1.527   1.247   4.236 -0.0530 -1.1105  0.7751
 2504SOL    HW310015   1.677   1.230   4.223 -0.0614 -0.7342  0.2002
 2504SOL    MW410016   1.608   1.266   4.261  0.0199 -0.2829 -0.0736
 2505SOL     OW10017   2.222   0.106   4.535 -0.0119 -0.5151 -0.1340
 2505SOL    HW210018   2.317   0.118   4.528 -0.0446 -1.2286 -1.9022
 2505SOL    HW310019   2.211   0.014   4.557 -0.2876 -0.3332  0.5010
 2505SOL    MW410020   2.233   0.096   4.537 -0.0526 -0.5852 -0.2835
 2506SOL     OW10021   1.986   1.549   4.186  0.3602 -0.3398  0.0441
 2506SOL    HW210022   2.001   1.547   4.092  1.2162 -1.5953  0.2000
 2506SOL    HW310023   2.072   1.568   4.224 -0.4655  2.8868  0.4744
 2506SOL    MW410024   2.000   1.551   4.179  0.3642 -0.0798  0.1215
 2507SOL     OW10025   1.320   0.367   4.138 -0.0223  0.1665  0.4296
 2507SOL    HW210026   1.242   0.405   4.178  1.0928  0.9245  1.9606
 2507SOL    HW310027   1.327   0.279   4.177 -0.2846 -0.0228  0.0519
 2507SOL    MW410028   1.311   0.360   4.149  0.0903  0.2415  0.5818
 2508SOL     OW10029   1.773   1.886   4.123  0.0492  0.2547 -0.3757
 2508SOL    HW210030   1.700   1.933   4.164 -0.0257  1.4343 -1.8030
 2508SOL    HW310031   1.850   1.940   4.142  0.6615 -1.2615  1.5795
 2508SOL    MW410032   1.773   1.899   4.131  0.1201  0.2103 -0.3061
 2509SOL     OW10033   2.030   2.279   4.600 -0.1517  0.2288 -0.6437
 2509SOL    HW210034   2.048   2.282   4.694 -0.0398 -2.3355 -0.5548
 2509SOL    HW310035   2.111   2.309   4.559  0.1594  0.3415  0.0530
 2509SOL    MW410036   2.043   2.284   4.607 -0.0959 -0.0946 -0.5400
 2510SOL     OW10037   2.903   1.853   4.599 -0.1311  0.1940  0.4828
 2510SOL    HW210038   2.813   1.824   4.584 -0.5774  1.3759  0.7511
 2510SOL    HW310039   2.924   1.907   4.523  1.1024 -1.7427 -0.5894
 2510SOL    MW410040   2.894   1.857   4.587 -0.0272  0.0944  0.3768
 2511SOL     OW10041   2.411   4.316   4.479 -0.4812  0.0158  0.0554
 2511SOL    HW210042   2.498   4.327   4.517 -0.0126 -0.5226 -0.8485
 2511SOL    HW310043   2.388   4.225   4.497  0.4608 -0.7535 -2.3709
 2511SOL    MW410044   2.420   4.305   4.486 -0.2951 -0.1567 -0.3840
 2512SOL     OW10045   3.181   0.127   4.206 -0.2944 -0.1718  0.1785
 2512SOL    HW210046   3.161   0.219   4.190 -0.9684 -0.6113 -1.6343
 2512SOL    HW310047   3.267   0.114   4.167 -1.0403 -0.7524 -1.3131
 2512SOL    MW410048   3.190   0.138   4.199 -0.4818 -0.3064 -0.2575
 2513SOL     OW10049   0.453   0.898   4.245  0.2449  0.6123  0.1770
 2513SOL    HW210050   0.534   0.858   4.212  0.3467 -1.8552  3.1214
 2513SOL    HW310051   0.383   0.848   4.205  0.1900  1.7031 -1.1183
 2513SOL    MW410052   0.455   0.886   4.235  0.2511  0.4306  0.3946
 2514SOL     OW10053   2.001   3.033   4.138 -0.3278  0.1850 -0.6916
 2514SOL    HW210054   1.935   3.094   4.171  0.1362  0.2910  0.0740
 2514SOL    HW310055   2.027   3.069   4.053  0.9875  1.8923  0.3851
 2514SOL    MW410056   1.996   3.046   4.131 -0.0930  0.4242 -0.4485
 2515SOL     OW10057   3.203   3.828   4.762  0.8186 -0.0798  0.1386
 2515SOL    HW210058   3.214   3.741   4.724 -1.7500  0.0363 -0.9627
 2515SOL    HW310059   3.239   3.888   4.697 -0.6317 -0.1122 -0.7323
 2515SOL    MW410060   3.209   3.824   4.749  0.2884 -0.0688 -0.1216
 2516SOL     OW10061   2.011   3.581   4.232 -0.3688 -0.3135 -0.0056
 2516SOL    HW210062   2.013   3.676   4.221 -1.3020 -0.1887  0.8767
 2516SOL    HW310063   1.920   3.556   4.214  0.0202 -1.1295 -0.9046
 2516SOL    MW410064   1.999   3.590   4.228 -0.4406 -0.4047 -0.0078
 2517SOL     OW10065   3.345   2.791   4.537  0.8707  0.2345  0.3321
 2517SOL    HW210066   3.420   2.773   4.594 -0.0699  0.9720  1.8409
 2517SOL    HW310067   3.301   2.707   4.529  0.4226  0.3297  1.5925
 2517SOL    MW410068   3.349   2.778   4.544  0.6875  0.3444  0.6975
 2518SOL     OW10069   3.212   0.143   4.719 -0.6111  0.4122  0.3625
 2518SOL    HW210070   3.131   0.094   4.731 -2.0953  2.5747 -0.4926
 2518SOL    HW310071   3.230   0.136   4.625  0.6919 -0.7717  0.6808
 2518SOL    MW410072   3.204   0.135   4.708 -0.6350  0.5413  0.2917
 2519SOL     OW10073   0.016   2.187   4.616 -0.4213  0.0251 -0.5478
 2519SOL    HW210074   0.014   2.282   4.603 -0.9505 -0.0420 -1.0070
 2519SOL    HW310075  -0.069   2.157   4.584 -0.1081 -0.6505 -0.7573
 2519SOL    MW410076   0.004   2.196   4.610 -0.4498 -0.0729 -0.6361
 2520SOL     OW10077   0.715   2.851   4.252 -0.6743 -0.3053  0.1115
 2520SOL    HW210078   0.801   2.814   4.231 -0.1402  1.0768 -0.2120
 2520SOL    HW310079   0.719   2.869   4.346 -0.0671  1.0836 -0.1631
 2520SOL    MW410080   0.727   2.849   4.261 -0.5237  0.0603  0.0326
 2521SOL     OW10081   4.439   0.121   4.291 -0.4024 -0.6271  0.4567
 2521SOL    HW210082   4.452   0.214   4.271  0.1981 -0.6561  0.6967
 2521SOL    HW310083   4.428   0.118   4.386  1.3675 -0.9885  0.6659
 2521SOL    MW410084   4.439   0.133   4.301 -0.0897 -0.6786  0.5159
 2522SOL     OW10085   3.740   4.482   4.537 -0.1585 -0.4950  0.3405
 2522SOL    HW210086   3.717   4.401   4.583 -2.0192  0.3042  0.8348
 2522SOL    HW310087   3.821   4.511   4.580 -0.1373 -1.4678  0.9673
 2522SOL    MW410088   3.748   4.475   4.549 -0.4012 -0.5179  0.4884
 2523SOL     OW10089   2.486   4.630   4.125 -0.2796 -0.5120  0.4832
 2523SOL    HW210090   2.567   4.671   4.157  0.1330 -1.4512  0.6719
 2523SOL    HW310091   2.419   4.659   4.187 -0.0272 -0.0023  0.5248
 2523SOL    MW410092   2.488   4.640   4.138 -0.1919 -0.5686  0.5136
 2524SOL     OW10093   3.781   0.018   4.217 -0.0046  0.0780  0.0118
 2524SOL    HW210094   3.793  -0.072   4.249 -1.5884  0.2731  1.1798
 2524SOL    HW310095   3.776   0.008   4.122  0.1718 -1.0338  0.1028
 2524SOL    MW410096   3.782   0.005   4.208 -0.1903 -0.0429  0.1779
 2525SOL     OW10097   0.006   2.480   4.274 -0.2696  0.0550 -0.1675
 2525SOL    HW210098   0.082   2.428   4.249 -0.3622  0.3911 -1.1645
 2525SOL    HW310099  -0.068   2.433   4.235 -0.3480  0.9699 -1.1194
 2525SOL    MW410100   0.006   2.467   4.266 -0.2922  0.2200 -0.4246
 2526SOL     OW10101   2.464   0.739   4.140  0.4380 -0.2500  0.1414
 2526SOL    HW210102   2.463   0.648   4.167 -0.0768  0.2311  1.7739
 2526SOL    HW310103   2.496   0.737   4.050 -0.9910 -2.1582 -0.3354
 2526SOL    MW410104   2.468   0.727   4.132  0.1815 -0.4383  0.2939
 2527SOL     OW10105   2.903   1.317   4.253  0.2225 -0.5362 -0.3276
 2527SOL    HW210106   2.832   1.255   4.234  0.0319 -1.1342  2.0716
 2527SOL    HW310107   2.983   1.269   4.233  0.0271 -1.0138  0.0091
 2527SOL    MW410108   2.904   1.302   4.248  0.1716 -0.6781  0.0334
 2528SOL     OW10109   1.789   1.135   4.110  0.5812  0.5095 -0.1075
 2528SOL    HW210110   1.793   1.046   4.147  1.1881  0.2967 -0.6869
 2528SOL    HW310111   1.870   1.176   4.139  0.3627  0.8274  0.0446
 2528SOL    MW410112   1.800   1.128   4.119  0.6325  0.5234 -0.1639
 2529SOL     OW10113   1.797   1.691   4.309 -0.1510 -0.3598 -0.2073
 2529SOL    HW210114   1.870   1.639   4.276  0.2015  0.1001 -0.1469
 2529SOL    HW310115   1.791   1.765   4.249 -0.7969 -0.5837 -0.4233
 2529SOL    MW410116   1.806   1.694   4.297 -0.1897 -0.3287 -0.2278
 2530SOL     OW10117   1.773   0.850   4.231 -0.6608  0.0394 -0.0812
 2530SOL    HW210118   1.838   0.803   4.179 -0.0135  1.5612 -0.6863
 2530SOL    HW310119   1.774   0.807   4.316  0.9378 -0.1276 -0.1744
 2530SOL    MW410120   1.782   0.838   4.235 -0.3644  0.2182 -0.1733
 2531SOL     OW10121   3.803   1.572   4.198  0.3780  0.4005 -0.0451
 2531SOL    HW210122   3.889   1.605   4.224  1.0122 -0.4452 -1.0309
 2531SOL    HW310123   3.802   1.481   4.226 -0.3321  0.5055  0.2785
 2531SOL    MW410124   3.814   1.565   4.205  0.3680  0.3028 -0.1324
 2532SOL     OW10125   2.014   2.023   4.231  0.0328  0.0105 -0.2767
 2532SOL    HW210126   2.022   2.117   4.217  2.2334 -0.0319  0.5036
 2532SOL    HW310127   2.016   2.012   4.326 -1.6805 -0.7348 -0.2923
 2532SOL    MW410128   2.015   2.034   4.242  0.0971 -0.0934 -0.1758
 2533SOL     OW10129   3.324   1.771   4.526 -0.4064  0.4549 -0.4375
 2533SOL    HW210130   3.300   1.770   4.433 -1.4538  2.1987 -0.2207
 2533SOL    HW310131   3.410   1.813   4.528  0.2264 -0.8331 -0.7444
 2533SOL    MW410132   3.332   1.777   4.514 -0.4611  0.5151 -0.4494
 2534SOL     OW10133   0.224   0.496   4.588  0.3345 -0.1791 -0.0402
 2534SOL    HW210134   0.215   0.494   4.493  1.9506 -0.0633 -0.2197
 2534SOL    HW310135   0.249   0.407   4.611  1.2695  0.1206  0.1203
 2534SOL    MW410136   0.226   0.484   4.579  0.6711 -0.1243 -0.0427
 2535SOL     OW10137   3.813   3.061   4.722 -0.0852  0.1570 -0.3737
 2535SOL    HW210138   3.807   3.156   4.719 -0.5880  0.1076 -1.3041
 2535SOL    HW310139   3.730   3.033   4.761  0.3746  0.1333  0.5890
 2535SOL    MW410140   3.801   3.070   4.727 -0.0909  0.1474 -0.3694
 2536SOL     OW10141   2.246   2.643   4.157  0.2097  0.4489  0.3168
 2536SOL    HW210142   2.162   2.682   4.182  0.2676 -0.0521  1.3144
 2536SOL    HW310143   2.308   2.675   4.222  0.2899 -1.1616  1.0692
 2536SOL    MW410144   2.243   2.652   4.169  0.2279  0.1703  0.5477
 2537SOL     OW10145   1.777   2.434   4.245  0.2984 -0.3622  0.1034
 2537SOL    HW210146   1.851   2.375   4.227 -0.5021 -1.4823  0.4493
 2537SOL    HW310147   1.752   2.414   4.335 -1.2480 -0.9138 -0.4315
 2537SOL    MW410148   1.784   2.423   4.255 -0.0113 -0.5828  0.0784
 2538SOL     OW10149   2.319   3.427   4.603  0.3813 -0.0333  0.4555
 2538SOL    HW210150   2.376   3.371   4.550 -0.7794  0.6455 -1.5546
 2538SOL    HW310151   2.342   3.405   4.694  2.4477 -1.1652 -0.3065
 2538SOL    MW410152   2.330   3.417   4.608  0.5008 -0.0931  0.0898
 2539SOL     OW10153   0.667   0.576   4.492  0.1262  0.1589 -0.2624
 2539SOL    HW210154   0.586   0.593   4.540 -0.0987  0.8718 -0.8850
 2539SOL    HW310155   0.724   0.648   4.516 -0.2371  0.9104 -1.6082
 2539SOL    MW410156   0.664   0.587   4.502  0.0486  0.3521 -0.5221
 2540SOL     OW10157   2.098   0.943   4.510 -0.1572 -0.2959  0.2575
 2540SOL    HW210158   2.047   1.009   4.464  0.7186  0.7120  0.7056
 2540SOL    HW310159   2.188   0.976   4.507  0.0826 -0.8112  1.6596
 2540SOL    MW410160   2.103   0.956   4.503 -0.0100 -0.2309  0.5016
 2541SOL     OW10161   0.003   0.380   4.189 -0.0276  0.1297  0.3970
 2541SOL    HW210162   0.026   0.373   4.096 -0.3970 -1.3045  0.4006
 2541SOL    HW310163  -0.078   0.431   4.189 -1.6746 -2.3697 -0.3410
 2541SOL    MW410164  -0.005   0.385   4.177 -0.2936 -0.3893  0.3001
 2542SOL     OW10165   1.784   0.339   4.123 -0.3902 -0.1422 -0.5677
 2542SOL    HW210166   1.706   0.390   4.144  0.3915  1.0887 -0.5996
 2542SOL    HW310167   1.779   0.262   4.180 -0.3871  1.1321  1.1844
 2542SOL    MW410168   1.773   0.336   4.133 -0.2867  0.1883 -0.3407
 2543SOL     OW10169   2.908   3.021   4.709  0.1598 -0.1959  0.2548
 2543SOL    HW210170   2.996   2.984   4.711  0.1759 -0.2573 -1.1541
 2543SOL    HW310171   2.853   2.950   4.675  0.0217  0.7001 -1.4579
 2543SOL    MW410172   2.913   3.007   4.705  0.1437 -0.0858 -0.1571
 2544SOL     OW10173   2.014   4.327   4.244  0.5365  0.4645  0.5625
 2544SOL    HW210174   2.024   4.305   4.336  1.0453 -1.6366  0.0192
 2544SOL    HW310175   2.093   4.292   4.202  1.0491  2.7161 -0.4602
 2544SOL    MW410176   2.026   4.320   4.250  0.6713  0.4844  0.3559
 2545SOL     OW10177   2.269   0.077   4.257 -0.1862 -0.3824 -0.0711
 2545SOL    HW210178   2.236   0.086   4.347 -1.3437 -0.9040 -0.4292
 2545SOL    HW310179   2.199   0.031   4.211  0.3001  0.0990 -1.3065
 2545SOL    MW410180   2.255   0.072   4.263 -0.2748 -0.3877 -0.2813
 2546SOL     OW10181   2.257   3.839   4.653  0.2888  0.4843 -0.0327
 2546SOL    HW210182   2.297   3.807   4.733  0.0266 -1.5606 -0.6935
 2546SOL    HW310183   2.289   3.780   4.584 -2.0184  0.2085 -0.9186
 2546SOL    MW410184   2.266   3.827   4.654 -0.0502  0.1781 -0.2367
 2547SOL     OW10185   3.166   0.390   4.150  0.0980  0.5808 -0.1166
 2547SOL    HW210186   3.080   0.432   4.154  0.3473  1.1747 -0.8703
 2547SOL    HW310187   3.223   0.449   4.200  0.1539  0.3946  0.0400
 2547SOL    MW410188   3.162   0.404   4.157  0.1383  0.6346 -0.1954
 2548SOL     OW10189   0.217   0.200   4.619 -0.2120  0.3060 -0.0083
 2548SOL    HW210190   0.208   0.115   4.577 -0.3263  0.5652 -0.5126
 2548SOL    HW310191   0.132   0.217   4.660 -0.8341  1.0723 -1.5972
 2548SOL    MW410192   0.205   0.191   4.619 -0.3091  0.4413 -0.2845
 2549SOL     OW10193   0.934   1.949   4.610  0.2328  0.7953  0.1611
 2549SOL    HW210194   0.862   2.011   4.598 -0.2634  0.5655  1.7991
 2549SOL    HW310195   1.011   2.003   4.624  0.0902  1.0406  0.0061
 2549SOL    MW410196   0.935   1.964   4.610  0.1485  0.7974  0.3568
 2550SOL     OW10197   1.126   2.154   4.573  0.0740  0.3376 -0.1600
 2550SOL    HW210198   1.133   2.249   4.566 -1.9231  0.5312  0.0600
 2550SOL    HW310199   1.124   2.123   4.483  0.1560  0.5536 -0.2375
 2550SOL    MW410200   1.127   2.162   4.561 -0.1786  0.3917 -0.1412
 2551SOL     OW10201   0.216   1.772   4.593  0.1938 -0.1590  0.1387
 2551SOL    HW210202   0.226   1.866   4.581  0.9921 -0.3020 -0.3177
 2551SOL    HW310203   0.305   1.741   4.612  0.0537 -0.9238 -0.4500
 2551SOL    MW410204   0.229   1.780   4.594  0.2807 -0.2788  0.0008
 2552SOL     OW10205   2.667   1.154   4.208 -0.7021  0.1950 -0.1492
 2552SOL    HW210206   2.684   1.063   4.230 -1.2487  0.2088  0.3470
 2552SOL    HW310207   2.667   1.156   4.112  0.3565 -0.1222 -0.1607
 2552SOL    MW410208   2.670   1.142   4.198 -0.6345  0.1550 -0.0852
 2553SOL     OW10209   3.011   1.594   4.520  0.2102 -0.4438 -0.0077
 2553SOL    HW210210   2.967   1.671   4.558 -0.1274  0.4971 -2.2496
 2553SOL    HW310211   3.054   1.627   4.442 -0.3000 -2.6400 -1.2588
 2553SOL    MW410212   3.011   1.609   4.515  0.0984 -0.6094 -0.4685
 2554SOL     OW10213   1.801   1.799   4.565 -0.0358  0.3755 -0.0165
 2554SOL    HW210214   1.801   1.766   4.475 -0.4217  0.8770 -0.2046
 2554SOL    HW310215   1.757   1.731   4.616 -0.3359  0.3500 -0.3106
 2554SOL    MW410216   1.795   1.786   4.560 -0.1263  0.4383 -0.0801
 2555SOL     OW10217   2.474   1.512   4.131 -0.6505 -0.3806 -0.2026
 2555SOL    HW210218   2.555   1.556   4.158 -1.6499  0.1782  1.9878
 2555SOL    HW310219   2.477   1.514   4.035  1.4514  0.5114 -0.1533
 2555SOL    MW410220   2.486   1.518   4.122 -0.5051 -0.1892  0.0929
 2556SOL     OW10221   2.694   1.950   4.141 -0.3449 -0.0318 -0.0339
 2556SOL    HW210222   2.676   1.939   4.047 -0.6688 -0.8514  0.1216
 2556SOL    HW310223   2.779   1.992   4.144 -0.9160  1.2288 -0.7326
 2556SOL    MW410224   2.703   1.954   4.129 -0.4629  0.0264 -0.1056
 2557SOL     OW10225   2.721   0.073   4.223 -0.3079 -0.0648 -0.1055
 2557SOL    HW210226   2.717   0.163   4.189 -0.3007 -0.2607 -0.6219
 2557SOL    HW310227   2.730   0.084   4.318  0.4393  0.4877 -0.2392
 2557SOL    MW410228   2.721   0.087   4.231 -0.2084 -0.0177 -0.1913
 2558SOL     OW10229   1.795   4.476   4.528  0.0361 -0.1435  0.0434
 2558SOL    HW210230   1.702   4.453   4.528 -0.4296  1.3738 -3.6877
 2558SOL    HW310231   1.796   4.572   4.524  1.8005 -0.0994  0.9707
 2558SOL    MW410232   1.783   4.486   4.527  0.2075  0.0625 -0.3265
 2559SOL     OW10233   0.196   4.550   4.523 -0.0717  0.2401  0.1606
 2559SOL    HW210234   0.208   4.522   4.432  0.3691  3.3044 -0.7685
 2559SOL    HW310235   0.276   4.524   4.567  0.9465  1.3114 -1.0181
 2559SOL    MW410236   0.208   4.543   4.517  0.1208  0.7857 -0.1175
 2560SOL     OW10237   4.448   2.757   4.696 -0.1540 -0.3123  0.0713
 2560SOL    HW210238   4.531   2.732   4.656  0.2253  0.2045  0.5344
 2560SOL    HW310239   4.420   2.834   4.646 -0.3770 -0.5139 -0.1152
 2560SOL    MW410240   4.455   2.764   4.684 -0.1333 -0.2707  0.1078
 2561SOL     OW10241   3.114   3.339   4.706  0.0424  0.2741  0.2193
 2561SOL    HW210242   3.055   3.313   4.776  0.1637  0.2002  0.2951
 2561SOL    HW310243   3.084   3.290   4.630  0.6723 -0.5904  0.5185
 2561SOL    MW410244   3.102   3.329   4.705  0.1415  0.1503  0.2688
 2562SOL     OW10245   1.345   3.461   4.172 -0.0993  0.0429  0.5800
 2562SOL    HW210246   1.278   3.523   4.200 -0.4033  0.2760 -0.6291
 2562SOL    HW310247   1.352   3.474   4.078  0.9219 -0.6985  0.5434
 2562SOL    MW410248   1.337   3.471   4.163 -0.0047 -0.0241  0.4156
 2563SOL     OW10249   2.423   3.620   4.220  0.3672 -0.6943  0.1423
 2563SOL    HW210250   2.439   3.701   4.172  0.4601 -0.9818 -0.3112
 2563SOL    HW310251   2.404   3.649   4.309 -1.4697 -0.0562 -0.4232
 2563SOL    MW410252   2.423   3.635   4.225  0.1371 -0.6480  0.0078
 2564SOL     OW10253   4.478   4.347   4.580 -0.3317  0.0327 -0.0914
 2564SOL    HW210254   4.432   4.368   4.499  0.2659 -2.2567 -1.0621
 2564SOL    HW310255   4.550   4.410   4.584 -0.5205  0.3276 -1.2074
 2564SOL    MW410256   4.482   4.358   4.570 -0.2777 -0.2304 -0.3667
 2565SOL     OW10257   3.603   2.757   4.684  0.7065  0.1307  0.0952
 2565SOL    HW210258   3.587   2.834   4.739  0.4360  0.5346 -0.5378
 2565SOL    HW310259   3.693   2.769   4.653  1.3920 -0.8524  1.6247
 2565SOL    MW410260   3.613   2.769   4.687  0.7612  0.0543  0.2135
 2566SOL     OW10261   2.911   3.917   4.141 -0.0049  0.4349  0.1232
 2566SOL    HW210262   2.992   3.937   4.187 -0.8126 -0.3174  1.9109
 2566SOL    HW310263   2.888   3.828   4.168 -2.3553  1.2748  1.0999
 2566SOL    MW410264   2.918   3.908   4.151 -0.4215  0.4465  0.4879
 2567SOL     OW10265   1.549   3.092   4.169 -0.3462  0.1112 -0.2005
 2567SOL    HW210266   1.638   3.101   4.202 -0.2631  1.1244 -0.6999
 2567SOL    HW310267   1.495   3.139   4.232 -1.0604 -3.8251  2.3412
 2567SOL    MW410268   1.553   3.099   4.182 -0.4294 -0.2745  0.0689
 2568SOL     OW10269   2.716   4.284   4.139 -0.6085  0.2228 -0.0067
 2568SOL    HW210270   2.626   4.312   4.156 -0.2836  1.2697  0.0728
 2568SOL    HW310271   2.719   4.269   4.045 -0.9545 -0.1552  0.0389
 2568SOL    MW410272   2.704   4.286   4.129 -0.6113  0.3111  0.0098
 2569SOL     OW10273   0.912   2.693   4.157 -0.3751 -0.0819 -0.4617
 2569SOL    HW210274   0.894   2.606   4.192  0.6774  0.1010  0.5824
 2569SOL    HW310275   0.996   2.717   4.197 -2.0975  2.6544  1.6435
 2569SOL    MW410276   0.921   2.685   4.167 -0.4635  0.3033 -0.0462
 2570SOL     OW10277   3.156   3.995   4.263 -0.1274 -0.3432 -0.2104
 2570SOL    HW210278   3.234   3.953   4.226  1.3496  0.0751  2.3042
 2570SOL    HW310279   3.160   4.085   4.231  1.0648 -0.0211  0.8045
 2570SOL    MW410280   3.167   4.001   4.254  0.2248 -0.2455  0.2553
 2571SOL     OW10281   4.056   2.476   4.274 -0.3551 -0.2670 -0.1427
 2571SOL    HW210282   4.033   2.562   4.240 -1.1693 -0.3120  0.2578
 2571SOL    HW310283   3.978   2.422   4.257 -1.6514  0.2603  3.6384
 2571SOL    MW410284   4.043   2.480   4.268 -0.6335 -0.2033  0.4090
 2572SOL     OW10285   1.566   3.610   4.245 -0.4940  0.0452  0.5191
 2572SOL    HW210286   1.502   3.561   4.193 -0.2033 -1.4040  1.4793
 2572SOL    HW310287   1.547   3.585   4.336  0.4487  0.7751  0.9283
 2572SOL    MW410288   1.555   3.600   4.250 -0.3312 -0.0497  0.6998
 2573SOL     OW10289   3.411   0.812   4.179  0.5961 -0.1030 -0.0971
 2573SOL    HW210290   3.404   0.723   4.213 -3.3276  0.3571  0.5895
 2573SOL    HW310291   3.483   0.851   4.228  0.5155 -2.0565  1.6254
 2573SOL    MW410292   3.420   0.806   4.190  0.0678 -0.3000  0.2207
 2574SOL     OW10293   3.155   0.924   4.264 -0.6141  0.6879 -0.2169
 2574SOL    HW210294   3.084   0.882   4.217 -0.9068  1.0253 -0.0786
 2574SOL    HW310295   3.234   0.880   4.233 -0.9696 -0.4543  0.4687
 2574SOL    MW410296   3.156   0.913   4.254 -0.6996  0.5817 -0.1082
 2575SOL     OW10297   0.212   3.669   4.506  0.2590 -0.5327  0.1931
 2575SOL    HW210298   0.301   3.685   4.473 -0.2080  0.6494 -0.5044
 2575SOL    HW310299   0.180   3.756   4.530 -1.3987 -0.6985 -1.3332
 2575SOL    MW410300   0.220   3.683   4.505 -0.0213 -0.3986 -0.1003
 2576SOL     OW10301   3.124   1.200   4.191 -0.3309  0.4956 -0.0997
 2576SOL    HW210302   3.110   1.107   4.209  0.1363  0.6263  1.0085
 2576SOL    HW310303   3.139   1.204   4.096 -0.5309 -0.5308 -0.1862
 2576SOL    MW410304   3.124   1.188   4.181 -0.2956  0.3774  0.0351
 2577SOL     OW10305   1.910   1.375   4.614  0.0434 -0.4675  0.3314
 2577SOL    HW210306   1.955   1.303   4.657  0.4673  1.2857  2.8962
 2577SOL    HW310307   1.979   1.437   4.591 -0.7125  0.9048  1.6699
 2577SOL    MW410308   1.925   1.374   4.616 -0.0004 -0.0551  0.8464
 2578SOL     OW10309   4.110   4.001   4.316  0.1621 -0.2195  0.4008
 2578SOL    HW210310   4.162   3.929   4.281 -2.2918 -1.8576 -0.0507
 2578SOL    HW310311   4.139   4.009   4.407  1.8054 -0.4958 -0.0859
 2578SOL    MW410312   4.120   3.992   4.324  0.0552 -0.4721  0.2770
 2579SOL     OW10313   3.559   1.953   4.173 -0.3574 -0.3173 -0.8678
 2579SOL    HW210314   3.567   1.951   4.077  0.1733 -0.5228 -0.8189
 2579SOL    HW310315   3.563   1.862   4.199 -0.8664 -0.2828 -0.6789
 2579SOL    MW410316   3.561   1.941   4.164 -0.3545 -0.3399 -0.8365
 2580SOL     OW10317   3.201   3.585   4.611  0.2036  0.7065 -0.7071
 2580SOL    HW210318   3.291   3.588   4.577 -0.5665 -1.8196 -3.1707
 2580SOL    HW310319   3.192   3.497   4.648 -0.9492  1.3034  0.4750
 2580SOL    MW410320   3.212   3.574   4.611 -0.0501  0.4519 -0.8762
 2581SOL     OW10321   2.656   3.235   4.229  0.5506 -0.4615  0.1603
 2581SOL    HW210322   2.740   3.190   4.220  0.2698 -0.6234 -1.7468
 2581SOL    HW310323   2.677   3.328   4.214  0.5185 -0.3996  0.4900
 2581SOL    MW410324   2.670   3.242   4.226  0.5093 -0.4747 -0.0478
 2582SOL     OW10325   2.264   3.965   4.240 -0.0335  0.2460  0.2727
 2582SOL    HW210326   2.177   3.930   4.226  0.0891  0.1621 -0.3083
 2582SOL    HW310327   2.318   3.924   4.172  0.4934  0.1617  0.7353
 2582SOL    MW410328   2.260   3.955   4.229  0.0522  0.2238  0.2571
 2583SOL     OW10329   3.616   4.283   4.129 -0.2074 -0.0903  0.4365
 2583SOL    HW210330   3.613   4.194   4.165 -0.2731  0.4831  1.8665
 2583SOL    HW310331   3.686   4.326   4.178  0.3170  0.4416 -0.7566
 2583SOL    MW410332   3.625   4.277   4.140 -0.1469  0.0556  0.4677
 2584SOL     OW10333   3.160   2.511   4.220  0.0110 -0.1646  0.1081
 2584SOL    HW210334   3.081   2.466   4.188 -0.1956  0.5734 -0.4382
 2584SOL    HW310335   3.166   2.589   4.165  1.1051 -0.1986  0.1803
 2584SOL    MW410336   3.150   2.515   4.208  0.1281 -0.0717  0.0455
 2585SOL     OW10337   1.862   3.173   4.526 -0.3507  0.3750 -0.2866
 2585SOL    HW210338   1.820   3.239   4.581 -0.9583 -1.7525  1.9130
 2585SOL    HW310339   1.953   3.172   4.554 -0.6086 -0.5379  0.5760
 2585SOL    MW410340   1.868   3.181   4.537 -0.4649 -0.0262  0.1175
 2586SOL     OW10341   1.557   0.479   4.182  0.4538  0.3545 -0.2514
 2586SOL    HW210342   1.472   0.435   4.176  0.5676  0.1252 -0.1872
 2586SOL    HW310343   1.540   0.569   4.153  0.1395  0.3727 -0.0123
 2586SOL    MW410344   1.543   0.485   4.178  0.4274  0.3267 -0.2114
 2587SOL     OW10345   0.959   3.993   4.535 -0.4444 -0.3543  0.3321
 2587SOL    HW210346   1.015   3.915   4.526 -0.1829 -0.2820  1.3306
 2587SOL    HW310347   1.017   4.061   4.569 -1.0982 -0.2269  1.1982
 2587SOL    MW410348   0.974   3.991   4.538 -0.4962 -0.3279  0.5781
 2588SOL     OW10349   2.780   3.404   4.613 -0.2827 -0.3438 -0.2410
 2588SOL    HW210350   2.814   3.346   4.681 -0.7330 -0.5767 -0.2064
 2588SOL    HW310351   2.845   3.473   4.604  0.5411 -1.1672 -0.6756
 2588SOL    MW410352   2.793   3.405   4.621 -0.2334 -0.4831 -0.2938
 2589SOL     OW10353   3.614   4.011   4.245 -0.1728  0.0356  0.0035
 2589SOL    HW210354   3.550   3.944   4.220 -0.1685  0.7482 -2.0494
 2589SOL    HW310355   3.698   3.965   4.244 -0.3876 -0.3712  0.4547
 2589SOL    MW410356   3.617   3.996   4.241 -0.2006  0.0759 -0.2078
 2590SOL     OW10357   2.421   3.068   4.625 -0.0325 -0.0910  0.3009
 2590SOL    HW210358   2.469   3.128   4.568 -0.2167  1.0843  1.3686
 2590SOL    HW310359   2.458   2.982   4.606 -0.0623  0.2903 -1.5548
 2590SOL    MW410360   2.432   3.065   4.615 -0.0607  0.1144  0.1969
 2591SOL     OW10361   3.220   2.040   4.535 -0.0206  0.1342  0.3762
 2591SOL    HW210362   3.232   1.949   4.561  2.1305  0.0899 -0.6607
 2591SOL    HW310363   3.282   2.053   4.464 -0.6957  2.2673  0.1360
 2591SOL    MW410364   3.229   2.030   4.529  0.1741  0.4098  0.2077
 2592SOL     OW10365   3.255   4.204   4.684 -0.3552  0.0545  0.1192
 2592SOL    HW210366   3.262   4.130   4.623  0.2870  1.5374 -1.6583
 2592SOL    HW310367   3.165   4.199   4.716 -0.1350 -1.8692  0.5313
 2592SOL    MW410368   3.244   4.193   4.680 -0.2414 -0.0037 -0.0610
 2593SOL     OW10369   2.957   2.564   4.633  0.5207  0.1498  0.2563
 2593SOL    HW210370   2.960   2.541   4.725  0.7589 -0.1826  0.1656
 2593SOL    HW310371   3.049   2.573   4.607  0.5224 -1.5053 -0.3806
 2593SOL    MW410372   2.969   2.562   4.642  0.5524 -0.1124  0.1603
 2594SOL     OW10373   4.441   1.706   4.546  0.0651 -0.1326 -0.3411
 2594SOL    HW210374   4.442   1.694   4.451  0.3384  1.0955 -0.4931
 2594SOL    HW310375   4.532   1.719   4.570  0.1570 -1.8087  0.2782
 2594SOL    MW410376   4.453   1.706   4.537  0.1133 -0.1917 -0.2795
 2595SOL     OW10377   0.878   1.958   4.162  0.2852 -0.0276  0.2278
 2595SOL    HW210378   0.894   1.864   4.162 -1.0839 -0.2561 -0.5360
 2595SOL    HW310379   0.897   1.986   4.073  1.4823  0.5773  0.6497
 2595SOL    MW410380   0.883   1.949   4.151  0.2625  0.0221  0.1827
 2596SOL     OW10381   2.454   3.044   4.222  0.1629 -0.3979  0.6141
 2596SOL    HW210382   2.374   3.093   4.243  0.1472  0.3200 -1.0419
 2596SOL    HW310383   2.524   3.110   4.226  0.5723 -0.8718  1.3432
 2596SOL    MW410384   2.453   3.059   4.225  0.2148 -0.3657  0.4918
 2597SOL     OW10385   2.926   2.384   4.156  0.3379  0.6236  0.5884
 2597SOL    HW210386   2.944   2.294   4.185 -1.2118  0.0467 -0.1414
 2597SOL    HW310387   2.832   2.395   4.172  0.3524  1.8180 -0.1216
 2597SOL    MW410388   2.916   2.373   4.162  0.1353  0.7051  0.3985
 2598SOL     OW10389   0.460   2.182   4.647  0.0908  0.8750 -0.5259
 2598SOL    HW210390   0.388   2.133   4.608 -0.1183  0.7348  0.0209
 2598SOL    HW310391   0.444   2.176   4.742 -0.1005  2.2462 -0.4713
 2598SOL    MW410392   0.449   2.174   4.655  0.0380  1.0374 -0.4465
 2599SOL     OW10393   1.213   1.784   4.632 -0.2865 -0.1618 -0.3443
 2599SOL    HW210394   1.193   1.802   4.723 -0.3540  1.0335 -0.5933
 2599SOL    HW310395   1.183   1.694   4.618 -0.9338 -0.0979  0.6094
 2599SOL    MW410396   1.207   1.774   4.642 -0.3808  0.0044 -0.2513
 2600SOL     OW10397   2.710   4.313   4.526  0.0106  0.0803 -0.1644
 2600SOL    HW210398   2.785   4.337   4.471 -0.0857  0.0237 -0.3213
 2600SOL    HW310399   2.706   4.218   4.520 -0.6868  0.1514 -0.9687
 2600SOL    MW410400   2.719   4.304   4.518 -0.0942  0.0822 -0.2912
 2601SOL     OW10401   3.184   4.273   4.131 -0.2738  0.4603 -0.1796
 2601SOL    HW210402   3.253   4.334   4.157  0.7549 -0.4006 -0.8813
 2601SOL    HW310403   3.103   4.321   4.147  0.4151  0.9386  2.0700
 2601SOL    MW410404   3.182   4.287   4.137 -0.0472  0.4098  0.0247
 2602SOL     OW10405   1.758   4.276   4.139 -0.1828 -0.1717  0.4249
 2602SOL    HW210406   1.765   4.275   4.043  0.1216  0.3793  0.4401
 2602SOL    HW310407   1.846   4.300   4.169  0.1416 -1.8687  0.8957
 2602SOL    MW410408   1.771   4.279   4.130 -0.0999 -0.3229  0.4890
 2603SOL     OW10409   2.944   4.395   4.252  0.3962 -0.1179 -0.3127
 2603SOL    HW210410   2.941   4.478   4.204 -1.7939  0.7713  1.2366
 2603SOL    HW310411   2.869   4.346   4.218  0.5266 -0.6470  0.1632
 2603SOL    MW410412   2.934   4.400   4.241  0.1245 -0.0704 -0.0455
 2604SOL     OW10413   3.542   1.123   4.731  0.3231 -0.1197  0.6100
 2604SOL    HW210414   3.573   1.186   4.796 -0.9592 -0.3218  1.4396
 2604SOL    HW310415   3.479   1.172   4.679  0.7748 -0.1788  0.0045
 2604SOL    MW410416   3.538   1.138   4.733  0.2135 -0.1542  0.6396
 2605SOL     OW10417   2.553   0.399   4.492  0.0249 -0.3015  0.0896
 2605SOL    HW210418   2.544   0.480   4.542 -0.6795 -0.6544  0.5362
 2605SOL    HW310419   2.647   0.381   4.494  0.0587 -0.0555  0.8701
 2605SOL    MW410420   2.564   0.408   4.499 -0.0635 -0.3156  0.2515
 2606SOL     OW10421   1.150   4.167   4.639 -0.0286 -0.1123  0.7216
 2606SOL    HW210422   1.226   4.116   4.609 -0.0486 -0.3467  1.0724
 2606SOL    HW310423   1.184   4.256   4.651 -0.1862  0.1616 -0.7203
 2606SOL    MW410424   1.165   4.172   4.636 -0.0521 -0.1071  0.5777
 2607SOL     OW10425   3.461   3.577   4.508 -0.3170  0.4623  0.8036
 2607SOL    HW210426   3.510   3.655   4.535  1.4069  0.0412 -1.0296
 2607SOL    HW310427   3.515   3.504   4.538  0.3118 -0.0042 -1.3723
 2607SOL    MW410428   3.475   3.578   4.516 -0.0066  0.3452  0.2747
 2608SOL     OW10429   3.383   2.350   4.155 -0.6188 -0.6187 -0.4655
 2608SOL    HW210430   3.406   2.356   4.062  0.6901  2.6344  0.0059
 2608SOL    HW310431   3.301   2.398   4.163  0.1532  0.6094  0.3115
 2608SOL    MW410432   3.375   2.357   4.144 -0.3442 -0.0275 -0.3008
 2609SOL     OW10433   1.772   3.479   4.638  0.3375 -0.1545  0.0341
 2609SOL    HW210434   1.743   3.559   4.681 -0.3574 -0.2270 -0.2986
 2609SOL    HW310435   1.865   3.493   4.621  1.1209 -0.8418  3.2704
 2609SOL    MW410436   1.780   3.491   4.642  0.3492 -0.2548  0.4172
 2610SOL     OW10437   3.540   2.302   4.537  0.0915  0.0680  0.0987
 2610SOL    HW210438   3.586   2.371   4.584  0.4442 -0.2048  0.1564
 2610SOL    HW310439   3.594   2.224   4.551 -0.4571 -0.2766  0.2667
 2610SOL    MW410440   3.553   2.301   4.545  0.0657 -0.0134  0.1285
 2611SOL     OW10441   1.083   0.499   4.256 -0.3718 -0.0891 -0.1186
 2611SOL    HW210442   1.007   0.448   4.226  1.5401 -3.9280  1.1791
 2611SOL    HW310443   1.071   0.504   4.351  0.6605 -0.1235  0.0137
 2611SOL    MW410444   1.071   0.493   4.265  0.0167 -0.6002  0.0701
 2612SOL     OW10445   4.000   2.500   4.541 -0.3843 -0.6492 -0.2189
 2612SOL    HW210446   3.995   2.514   4.447 -0.4049  0.9912  0.0145
 2612SOL    HW310447   4.093   2.509   4.562 -0.4345 -0.5919 -0.0184
 2612SOL    MW410448   4.012   2.503   4.532 -0.3936 -0.4252 -0.1616
 2613SOL     OW10449   4.017   0.156   4.221  0.4022 -0.1894  0.0289
 2613SOL    HW210450   4.036   0.170   4.314 -0.2215 -1.8314  0.4111
 2613SOL    HW310451   3.928   0.121   4.220  0.5781 -0.6082 -1.1602
 2613SOL    MW410452   4.007   0.153   4.233  0.3431 -0.4613 -0.0776
 2614SOL     OW10453   0.237   0.765   4.124 -0.3434 -0.2577 -0.2621
 2614SOL    HW210454   0.160   0.816   4.146 -0.5743 -0.9479  0.6066
 2614SOL    HW310455   0.232   0.689   4.182  1.6259  0.2982  0.6830
 2614SOL    MW410456   0.227   0.761   4.135 -0.1141 -0.2754 -0.0228
 2615SOL     OW10457   2.928   2.103   4.188 -0.1218  0.3095  0.1069
 2615SOL    HW210458   2.921   2.104   4.284 -1.0035  1.5834  0.0388
 2615SOL    HW310459   3.009   2.054   4.171 -0.8848 -1.4856  1.4279
 2615SOL    MW410460   2.938   2.097   4.199 -0.3388  0.2407  0.2722
 2616SOL     OW10461   4.051   3.235   4.258  0.4122 -0.1677 -0.0527
 2616SOL    HW210462   4.063   3.329   4.244 -1.1960  0.3205  1.5387
 2616SOL    HW310463   3.964   3.217   4.223  0.6341 -1.0141 -0.1736
 2616SOL    MW410464   4.041   3.245   4.252  0.2293 -0.2150  0.1413
 2617SOL     OW10465   0.003   1.166   4.119 -0.1290 -0.7679 -0.4474
 2617SOL    HW210466   0.028   1.147   4.028  0.0756 -2.4359 -0.0522
 2617SOL    HW310467   0.017   1.083   4.165 -0.8302 -0.0938  0.9795
 2617SOL    MW410468   0.008   1.152   4.113 -0.1945 -0.8991 -0.2070
 2618SOL     OW10469   1.182   2.444   4.550 -0.2147  0.1125  0.4689
 2618SOL    HW210470   1.171   2.539   4.541 -1.0823 -0.0131  0.1589
 2618SOL    HW310471   1.277   2.430   4.544 -0.1926  0.8036 -1.1121
 2618SOL    MW410472   1.193   2.455   4.548 -0.3263  0.1871  0.2194
 2619SOL     OW10473   2.807   1.963   4.838  0.2609 -0.5040 -0.3834
 2619SOL    HW210474   2.849   1.929   4.759  1.1079  0.2857 -0.2711
 2619SOL    HW310475   2.862   1.932   4.910  1.4193  1.6094 -0.3116
 2619SOL    MW410476   2.820   1.954   4.837  0.5255 -0.1210 -0.3591
 2620SOL     OW10477   2.337   1.085   4.503  0.3676 -0.2068 -0.0005
 2620SOL    HW210478   2.373   1.149   4.442  1.8709 -1.6509 -0.6720
 2620SOL    HW310479   2.408   1.069   4.566 -0.2156 -0.7226  0.5339
 2620SOL    MW410480   2.351   1.091   4.504  0.4890 -0.4654 -0.0186
 2621SOL     OW10481   0.218   4.436   4.228  0.0678 -0.3515  0.0175
 2621SOL    HW210482   0.291   4.376   4.216  0.6804  0.6040 -1.1199
 2621SOL    HW310483   0.142   4.388   4.196  0.2338 -1.2213  0.8884
 2621SOL    MW410484   0.218   4.422   4.222  0.1705 -0.3402 -0.0176
 2622SOL     OW10485   0.192   0.535   4.305 -0.2344  0.1039  0.2761
 2622SOL    HW210486   0.116   0.485   4.275 -0.1645 -0.3585  0.8520
 2622SOL    HW310487   0.266   0.496   4.258 -0.5095  1.4008 -1.2562
 2622SOL    MW410488   0.192   0.523   4.295 -0.2615  0.2140  0.1499
 2623SOL     OW10489   4.049   1.177   4.202  0.3253 -0.2400  0.4380
 2623SOL    HW210490   4.125   1.229   4.228  0.9662 -0.5208 -0.8478
 2623SOL    HW310491   3.975   1.220   4.244  0.9622  1.1796  0.1176
 2623SOL    MW410492   4.049   1.189   4.211  0.4939 -0.0897  0.2261
 2624SOL     OW10493   3.852   0.782   4.208  0.5213  0.3901 -0.4502
 2624SOL    HW210494   3.850   0.790   4.113  0.4745  0.8466 -0.4111
 2624SOL    HW310495   3.919   0.844   4.236 -0.1308  0.9533 -0.1170
 2624SOL    MW410496   3.861   0.791   4.199  0.4291  0.5246 -0.4011
 2625SOL     OW10497   4.248   2.553   4.642  0.3335 -0.0816 -0.2224
 2625SOL    HW210498   4.286   2.626   4.691 -1.7174 -0.2301  1.6372
 2625SOL    HW310499   4.324   2.498   4.620  1.5534  1.0925  0.9081
 2625SOL    MW410500   4.263   2.555   4.645  0.2239  0.0537  0.1721
 2626SOL     OW10501   3.833   0.530   4.284 -0.4612  0.1452 -0.0413
 2626SOL    HW210502   3.850   0.619   4.253 -0.4084  0.1699  0.0590
 2626SOL    HW310503   3.750   0.507   4.243 -1.1005  0.7105  0.9328
 2626SOL    MW410504   3.824   0.539   4.274 -0.5386  0.2230  0.1005
 2627SOL     OW10505   4.307   0.104   4.554 -0.0684 -0.1699 -0.2753
 2627SOL    HW210506   4.288   0.011   4.569 -0.6099  0.0879  0.7445
 2627SOL    HW310507   4.222   0.141   4.531  0.1214  0.0956 -0.5390
 2627SOL    MW410508   4.293   0.096   4.553 -0.1148 -0.1008 -0.1755
 2628SOL     OW10509   0.690   4.366   4.575 -0.0904 -0.1362  0.0798
 2628SOL    HW210510   0.775   4.409   4.583 -0.9387  1.4248  1.0681
 2628SOL    HW310511   0.708   4.273   4.590  1.5459  0.0534 -0.5513
 2628SOL    MW410512   0.704   4.359   4.578  0.0136  0.0948  0.1270
 2629SOL     OW10513   2.666   2.401   4.226  0.3739  0.1321  0.5241
 2629SOL    HW210514   2.599   2.341   4.192  1.1629 -1.8759  2.3816
 2629SOL    HW310515   2.629   2.431   4.309  1.2276 -0.0040  0.9501
 2629SOL    MW410516   2.652   2.397   4.233  0.5906 -0.1508  0.8254
 2630SOL     OW10517   3.988   2.209   4.598  0.4489 -0.0337  0.1506
 2630SOL    HW210518   3.969   2.211   4.692  0.3541  0.3688  0.1240
 2630SOL    HW310519   3.988   2.301   4.571 -1.0433 -0.2258 -0.5479
 2630SOL    MW410520   3.986   2.222   4.607  0.2395 -0.0059  0.0550
 2631SOL     OW10521   2.716   0.344   4.097  0.2025 -0.4879  0.4200
 2631SOL    HW210522   2.646   0.391   4.143  0.0555 -0.0154 -0.2828
 2631SOL    HW310523   2.697   0.358   4.005  1.6113  0.2063  0.2323
 2631SOL    MW410524   2.704   0.352   4.091  0.3690 -0.3340  0.3025
 2632SOL     OW10525   4.274   0.536   4.218 -0.2470  0.1307  0.2071
 2632SOL    HW210526   4.252   0.534   4.312 -1.7348  0.1312 -0.1370
 2632SOL    HW310527   4.201   0.492   4.175  0.5103 -0.0211 -0.9570
 2632SOL    MW410528   4.262   0.530   4.225 -0.3434  0.1107  0.0081
 2633SOL     OW10529   0.036   2.755   4.188  0.1295 -0.3253  0.3976
 2633SOL    HW210530   0.120   2.794   4.214  0.4264  0.2307 -1.3155
 2633SOL    HW310531   0.035   2.669   4.231  1.2822 -0.0807  0.9432
 2633SOL    MW410532   0.047   2.749   4.197  0.3207 -0.2197  0.2436
 2634SOL     OW10533   3.269   2.316   4.632 -0.3170  0.0669 -0.0027
 2634SOL    HW210534   3.238   2.225   4.629  0.7773 -0.2715 -1.3603
 2634SOL    HW310535   3.362   2.311   4.612 -0.0487  1.4037  0.8483
 2634SOL    MW410536   3.277   2.303   4.629 -0.1372  0.1986 -0.0695
 2635SOL     OW10537   0.200   0.036   4.145 -0.0801 -0.2243 -0.2638
 2635SOL    HW210538   0.213  -0.058   4.156  0.7966 -0.1695 -0.8102
 2635SOL    HW310539   0.139   0.060   4.214 -0.7265 -1.2914 -0.4527
 2635SOL    MW410540   0.193   0.027   4.155 -0.0497 -0.3579 -0.3608
 2636SOL     OW10541   3.801   3.120   4.185  0.0052 -1.0428  0.0959
 2636SOL    HW210542   3.817   3.035   4.226 -0.6080 -1.2531 -0.0918
 2636SOL    HW310543   3.793   3.100   4.091  0.1577 -0.7349  0.0154
 2636SOL    MW410544   3.802   3.106   4.178 -0.0556 -1.0299  0.0605
 2637SOL     OW10545   0.508   0.174   4.533  0.0010  0.3188 -0.0968
 2637SOL    HW210546   0.470   0.150   4.449 -0.1689  0.8946 -0.1884
 2637SOL    HW310547   0.435   0.169   4.595  0.1801 -0.3520  0.0696
 2637SOL    MW410548   0.493   0.170   4.530  0.0022  0.3063 -0.0869
 2638SOL     OW10549   1.454   1.727   4.493  0.9198  0.2791 -0.6162
 2638SOL    HW210550   1.376   1.738   4.546  0.8226 -1.2361 -0.4280
 2638SOL    HW310551   1.516   1.681   4.549  1.8594  1.2636 -0.8429
 2638SOL    MW410552   1.452   1.722   4.507  1.0310  0.2091 -0.6213
 2639SOL     OW10553   0.457   3.920   4.559  0.1904 -0.4787  0.2578
 2639SOL    HW210554   0.528   3.968   4.601  0.5702 -0.1325 -0.7936
 2639SOL    HW310555   0.491   3.832   4.545  0.3861 -0.3330 -0.1792
 2639SOL    MW410556   0.471   3.915   4.563  0.2663 -0.4138  0.0614
 2640SOL     OW10557   0.988   3.307   4.744 -0.2188 -0.0532  0.0630
 2640SOL    HW210558   1.032   3.388   4.717  1.0399 -0.7211  0.0615
 2640SOL    HW310559   0.933   3.333   4.818 -0.5960  0.9934 -0.5798
 2640SOL    MW410560   0.987   3.321   4.750 -0.1025 -0.0032 -0.0220
 2641SOL     OW10561   3.555   3.005   4.837  0.0001 -0.2319  0.3133
 2641SOL    HW210562   3.549   3.007   4.932 -0.8769  0.0437  0.2566
 2641SOL    HW310563   3.497   3.075   4.808  0.7996  0.1466 -0.4039
 2641SOL    MW410564   3.547   3.015   4.846 -0.0101 -0.1456  0.2112
 2642SOL     OW10565   2.060   4.593   4.163  0.1143 -0.2561 -0.3681
 2642SOL    HW210566   2.037   4.505   4.193 -0.7308  0.4620  1.0850
 2642SOL    HW310567   2.031   4.596   4.072 -0.7128 -1.1525 -0.1299
 2642SOL    MW410568   2.053   4.582   4.155 -0.1063 -0.2796 -0.1449
 2643SOL     OW10569   1.104   3.748   4.514 -0.3092 -0.1647 -0.0570
 2643SOL    HW210570   1.194   3.755   4.546 -1.2031 -0.4307  2.5969
 2643SOL    HW310571   1.113   3.713   4.425  2.2131  0.1887  0.0269
 2643SOL    MW410572   1.117   3.744   4.506 -0.0944 -0.1532  0.3042
 2644SOL     OW10573   0.693   4.064   4.641 -0.1030 -0.5683 -0.1385
 2644SOL    HW210574   0.710   4.035   4.731 -0.1625 -0.6842 -0.1635
 2644SOL    HW310575   0.772   4.037   4.592  0.0085 -0.3403 -0.0829
 2644SOL    MW410576   0.706   4.056   4.646 -0.0961 -0.5535 -0.1345
 2645SOL     OW10577   2.003   2.008   4.515 -0.2858  0.1749  0.1781
 2645SOL    HW210578   1.924   1.963   4.545 -0.2907  0.1976  0.1996
 2645SOL    HW310579   1.996   2.096   4.554  0.4342 -0.2632  1.3360
 2645SOL    MW410580   1.992   2.014   4.524 -0.1914  0.1201  0.3337
 2646SOL     OW10581   3.473   4.361   4.747  0.3131 -0.2701  0.1520
 2646SOL    HW210582   3.402   4.297   4.748 -0.1418  0.2225 -0.0235
 2646SOL    HW310583   3.434   4.441   4.782  1.2805 -0.4897  1.7527
 2646SOL    MW410584   3.459   4.363   4.752  0.3807 -0.2341  0.3401
 2647SOL     OW10585   2.542   2.802   4.551  0.1049 -0.1087  0.4782
 2647SOL    HW210586   2.516   2.804   4.459  0.0153  0.0222  0.5055
 2647SOL    HW310587   2.638   2.799   4.549  0.0731 -1.6155  0.3594
 2647SOL    MW410588   2.551   2.802   4.539  0.0889 -0.2903  0.4661
 2648SOL     OW10589   0.397   0.422   4.155  0.5477  0.6600  0.3570
 2648SOL    HW210590   0.419   0.404   4.064 -1.2832  0.6405 -0.1169
 2648SOL    HW310591   0.406   0.338   4.199 -1.8889 -0.1484 -0.5548
 2648SOL    MW410592   0.401   0.408   4.149 -0.0154  0.5508  0.1742
 2649SOL     OW10593   1.132   0.768   4.166  0.6160 -0.1383 -0.1002
 2649SOL    HW210594   1.122   0.674   4.183  0.8410 -0.1892 -0.2523
 2649SOL    HW310595   1.129   0.775   4.071 -0.9091  0.1773 -0.0543
 2649SOL    MW410596   1.130   0.756   4.156  0.4445 -0.1034 -0.1142
 2650SOL     OW10597   4.244   2.094   4.543  0.2259 -0.4098 -0.3219
 2650SOL    HW210598   4.158   2.130   4.564 -0.7310 -2.0901 -1.2200
 2650SOL    HW310599   4.248   2.012   4.592  0.8792 -0.8372 -1.0842
 2650SOL    MW410600   4.233   2.087   4.552  0.1859 -0.6879 -0.5410
 2651SOL     OW10601   1.127   0.031   4.555 -0.8449 -0.0311 -0.2227
 2651SOL    HW210602   1.074   0.110   4.557 -0.5111  0.2450 -1.6030
 2651SOL    HW310603   1.065  -0.040   4.539 -0.9532  0.1452 -0.5836
 2651SOL    MW410604   1.112   0.032   4.553 -0.8152  0.0286 -0.4524
 2652SOL     OW10605   2.226   0.853   4.230  1.0222  0.5694  0.2107
 2652SOL    HW210606   2.228   0.806   4.314  1.2191 -0.2796 -0.2722
 2652SOL    HW310607   2.306   0.825   4.185 -0.5346 -1.2463 -1.4995
 2652SOL    MW410608   2.237   0.843   4.235  0.8428  0.2179 -0.0786
 2653SOL     OW10609   0.904   1.694   4.485 -0.0582  0.3701 -0.0657
 2653SOL    HW210610   0.977   1.641   4.517 -1.3003 -1.0400  0.5121
 2653SOL    HW310611   0.920   1.781   4.521  1.0476 -0.0683  0.5173
 2653SOL    MW410612   0.916   1.699   4.494 -0.0762  0.1262  0.0875
 2654SOL     OW10613   2.834   2.806   4.535 -0.3527  0.2981  0.1358
 2654SOL    HW210614   2.883   2.829   4.456  1.2566 -0.4380  0.8905
 2654SOL    HW310615   2.878   2.727   4.568 -2.9903 -1.2732  0.0147
 2654SOL    MW410616   2.846   2.799   4.529 -0.4883 -0.0063  0.2194
 2655SOL     OW10617   3.834   2.315   4.192  0.1948  0.2950 -0.2387
 2655SOL    HW210618   3.752   2.359   4.215 -1.1910 -1.7078 -1.2466
 2655SOL    HW310619   3.835   2.316   4.097  0.8043 -0.6836 -0.2414
 2655SOL    MW410620   3.823   2.321   4.183  0.0924 -0.0984 -0.3720
 2656SOL     OW10621   3.391   3.624   4.243  0.2286 -0.2435  0.1555
 2656SOL    HW210622   3.305   3.588   4.222 -0.0064 -0.2538  1.1453
 2656SOL    HW310623   3.406   3.600   4.334  1.0240  0.2796  0.1664
 2656SOL    MW410624   3.382   3.616   4.252  0.3025 -0.1759  0.2876
 2657SOL     OW10625   0.716   3.893   4.188  0.4526 -0.0575  0.5589
 2657SOL    HW210626   0.714   3.801   4.213 -1.3049 -0.5356 -1.1386
 2657SOL    HW310627   0.630   3.926   4.215 -0.1410  0.2618 -1.6118
 2657SOL    MW410628   0.704   3.885   4.195  0.1424 -0.0784  0.0486
 2658SOL     OW10629   3.337   2.089   4.285  0.2077  0.2869 -0.3918
 2658SOL    HW210630   3.409   2.042   4.244  0.8255  1.0874 -0.2413
 2658SOL    HW310631   3.345   2.179   4.252 -0.2386  0.5626  0.2325
 2658SOL    MW410632   3.348   2.095   4.275  0.2303  0.4289 -0.2896
 2659SOL     OW10633   0.655   0.531   4.197 -0.6955  0.4364 -0.7738
 2659SOL    HW210634   0.649   0.553   4.290 -0.9671 -0.5534 -0.5505
 2659SOL    HW310635   0.567   0.500   4.174 -0.1396 -1.1067 -0.8849
 2659SOL    MW410636   0.642   0.530   4.206 -0.6580  0.1022 -0.7590
 2660SOL     OW10637   1.541   0.783   4.095  0.0919  0.2036  0.3339
 2660SOL    HW210638   1.618   0.813   4.143  0.5856 -0.3887 -0.0832
 2660SOL    HW310639   1.572   0.772   4.005 -0.4101 -0.3016  0.2214
 2660SOL    MW410640   1.555   0.786   4.089  0.0908  0.0588  0.2641
 2661SOL     OW10641   2.849   0.420   4.500  0.3282 -0.2823 -0.2715
 2661SOL    HW210642   2.877   0.440   4.411  0.8692  0.6209  0.0955
 2661SOL    HW310643   2.929   0.392   4.544  0.2689  0.3148  0.2208
 2661SOL    MW410644   2.863   0.419   4.494  0.3917 -0.0843 -0.1581
 2662SOL     OW10645   0.762   2.936   4.551  0.1080 -0.0189  0.1071
 2662SOL    HW210646   0.775   3.026   4.583  0.7430  0.7946 -2.3141
 2662SOL    HW310647   0.680   2.908   4.593 -0.3636  1.8785  0.5347
 2662SOL    MW410648   0.753   2.944   4.560  0.1295  0.3388 -0.1560
 2663SOL     OW10649   1.173   1.592   4.078 -0.0686 -0.0217 -0.1745
 2663SOL    HW210650   1.092   1.634   4.107 -1.1612 -2.4981  0.4384
 2663SOL    HW310651   1.241   1.630   4.133 -0.9734  1.2106  0.1051
 2663SOL    MW410652   1.171   1.603   4.089 -0.3321 -0.1858 -0.0567
 2664SOL     OW10653   1.523   4.379   4.254 -0.6331 -0.1985 -0.0421
 2664SOL    HW210654   1.450   4.346   4.202  1.0534 -2.1037 -1.2875
 2664SOL    HW310655   1.597   4.324   4.229  1.1403  1.3949  1.5152
 2664SOL    MW410656   1.523   4.367   4.244 -0.1766 -0.2396 -0.0009
 2665SOL     OW10657   0.945   4.041   4.262 -0.3288  0.0630  0.5656
 2665SOL    HW210658   0.947   4.032   4.358  2.6960 -0.2190  0.5282
 2665SOL    HW310659   0.872   3.986   4.235 -0.9275 -0.2531  2.6841
 2665SOL    MW410660   0.936   4.033   4.271 -0.0087 -0.0159  0.8402
 2666SOL     OW10661   4.474   1.949   4.153 -0.1184 -0.4736  0.1821
 2666SOL    HW210662   4.477   1.863   4.195 -0.6935 -1.1470 -1.0942
 2666SOL    HW310663   4.401   1.994   4.194 -0.5439 -1.0393  0.0447
 2666SOL    MW410664   4.465   1.944   4.164 -0.2504 -0.6371 -0.0044
 2667SOL     OW10665   0.259   3.111   4.402  0.0230 -0.5052  0.1998
 2667SOL    HW210666   0.346   3.146   4.381 -0.0911 -0.0802  0.4291
 2667SOL    HW310667   0.206   3.129   4.324  0.2357 -1.1101 -0.0939
 2667SOL    MW410668   0.264   3.118   4.389  0.0360 -0.5289  0.1913
 2668SOL     OW10669   4.084   1.663   4.585 -0.0680  0.1150 -0.3846
 2668SOL    HW210670   4.139   1.585   4.588 -1.2467 -0.6852  1.0521
 2668SOL    HW310671   4.129   1.726   4.641 -0.9856 -0.8061  1.4299
 2668SOL    MW410672   4.097   1.661   4.593 -0.3446 -0.1121  0.0444
 2669SOL     OW10673   2.166   3.076   4.518 -0.4907 -0.0836  0.0820
 2669SOL    HW210674   2.193   3.116   4.436 -0.0469  0.3974  0.4558
 2669SOL    HW310675   2.246   3.076   4.572 -1.2097  1.3336  1.1981
 2669SOL    MW410676   2.180   3.081   4.515 -0.5270  0.1669  0.2786
 2670SOL     OW10677   4.293   1.280   4.267  0.2398 -1.0000  0.0561
 2670SOL    HW210678   4.354   1.249   4.199  2.3800  3.1645 -0.0795
 2670SOL    HW310679   4.341   1.267   4.349  0.6855  0.7740  0.0932
 2670SOL    MW410680   4.308   1.274   4.269  0.5810 -0.2165  0.0431
 2671SOL     OW10681   1.842   0.912   4.665  0.3434  0.1509 -0.6650
 2671SOL    HW210682   1.794   0.988   4.632 -0.5946  0.4950  1.4220
 2671SOL    HW310683   1.925   0.914   4.617  0.2254  2.3318 -0.8403
 2671SOL    MW410684   1.847   0.922   4.654  0.2041  0.4841 -0.4128
 2672SOL     OW10685   1.974   3.780   4.609 -0.6210 -0.5718  0.1965
 2672SOL    HW210686   1.992   3.691   4.580 -1.0096 -0.5026 -0.2724
 2672SOL    HW310687   2.058   3.813   4.640 -0.0397 -0.3896 -1.5562
 2672SOL    MW410688   1.987   3.773   4.610 -0.5956 -0.5386 -0.0966
 2673SOL     OW10689   2.454   4.368   4.201 -0.4269 -0.0377  0.1910
 2673SOL    HW210690   2.462   4.461   4.178  0.3397 -0.3905 -1.0199
 2673SOL    HW310691   2.433   4.368   4.294  2.0295  1.3055  0.7826
 2673SOL    MW410692   2.453   4.381   4.210 -0.0017  0.0930  0.1093
 2674SOL     OW10693   2.030   3.848   4.175 -0.4218  0.0680  0.0537
 2674SOL    HW210694   1.955   3.900   4.205 -0.9228  0.0656 -1.1922
 2674SOL    HW310695   2.025   3.850   4.080  0.6984 -0.6177 -0.0313
 2674SOL    MW410696   2.020   3.855   4.167 -0.3401 -0.0228 -0.1219
 2675SOL     OW10697   2.011   4.260   4.514 -0.3767 -0.1171  0.0810
 2675SOL    HW210698   1.967   4.175   4.506 -1.2977  0.3610  0.0494
 2675SOL    HW310699   1.940   4.322   4.529  0.3528  0.5617  0.7259
 2675SOL    MW410700   1.996   4.257   4.515 -0.4020  0.0356  0.1619
 2676SOL     OW10701   0.206   2.666   4.578  0.3591 -0.3304 -0.1929
 2676SOL    HW210702   0.220   2.716   4.497  0.6632 -1.1167 -0.6273
 2676SOL    HW310703   0.283   2.610   4.586  0.6165  0.1730  0.9656
 2676SOL    MW410704   0.218   2.665   4.568  0.4332 -0.3677 -0.0974
 2677SOL     OW10705   2.970   4.634   4.134 -0.2612  0.4511  0.4917
 2677SOL    HW210706   3.047   4.688   4.152  0.6337 -0.8545  0.6798
 2677SOL    HW310707   2.896   4.687   4.163  0.6619  1.2096  1.5081
 2677SOL    MW410708   2.970   4.648   4.140 -0.0214  0.3789  0.6506
 2678SOL     OW10709   1.561   0.261   4.630 -0.3633  0.0242 -0.3449
 2678SOL    HW210710   1.561   0.346   4.586  3.0242  0.3223  0.1137
 2678SOL    HW310711   1.562   0.282   4.723 -1.7385 -0.5755 -0.1749
 2678SOL    MW410712   1.561   0.275   4.636 -0.0978 -0.0156 -0.2620
 2679SOL     OW10713   1.510   3.524   4.504 -0.5760  0.2937  0.9246
 2679SOL    HW210714   1.440   3.468   4.537 -0.7808  1.4607  2.5255
 2679SOL    HW310715   1.587   3.497   4.554 -0.6588  1.3724  1.6530
 2679SOL    MW410716   1.511   3.513   4.515 -0.6139  0.5900  1.2319
 2680SOL     OW10717   3.105   3.249   4.254  0.1175  0.3211  0.2192
 2680SOL    HW210718   3.093   3.209   4.340 -1.4256 -1.3687 -0.7264
 2680SOL    HW310719   3.185   3.209   4.220  0.3957  0.5296  0.6267
 2680SOL    MW410720   3.114   3.238   4.261 -0.0494  0.1257  0.1482
 2681SOL     OW10721   2.966   4.652   4.617  0.2923  0.1515 -0.1403
 2681SOL    HW210722   2.898   4.604   4.664  1.5555  0.7332  2.3928
 2681SOL    HW310723   3.014   4.585   4.568  0.1339 -0.7398  0.9201
 2681SOL    MW410724   2.963   4.637   4.617  0.4381  0.1107  0.3338
 2682SOL     OW10725   2.034   0.425   4.219 -0.0193 -0.1507  0.0049
 2682SOL    HW210726   1.954   0.397   4.176  0.4143  1.5661 -2.0062
 2682SOL    HW310727   2.104   0.381   4.171  0.3181 -0.7539  1.0301
 2682SOL    MW410728   2.033   0.415   4.207  0.0824 -0.0038 -0.1252
 2683SOL     OW10729   0.891   0.089   4.285 -0.0141 -0.1025 -0.1153
 2683SOL    HW210730   0.900   0.140   4.365  0.8212 -0.1883 -0.1522
 2683SOL    HW310731   0.981   0.071   4.257 -0.2974 -0.2294 -0.9693
 2683SOL    MW410732   0.904   0.093   4.292  0.0587 -0.1306 -0.2328
 2684SOL     OW10733   3.970   0.388   3.882 -0.2076 -0.5180  0.1250
 2684SOL    HW210734   3.990   0.408   3.973 -0.6136  0.3342  0.0360
 2684SOL    HW310735   3.990   0.295   3.872  0.8667 -0.3575  0.7987
 2684SOL    MW410736   3.975   0.379   3.892 -0.1195 -0.3844  0.2022
 2685SOL     OW10737   3.851   2.836   4.548 -0.0116  0.0752  0.0617
 2685SOL    HW210738   3.841   2.916   4.599 -0.7814 -0.0212  0.0587
 2685SOL    HW310739   3.941   2.808   4.566 -0.1540  0.2485  1.0483
 2685SOL    MW410740   3.862   2.843   4.557 -0.1319  0.0854  0.1915
 2686SOL     OW10741   0.239   1.296   4.222  0.1418 -0.3422  0.0565
 2686SOL    HW210742   0.324   1.261   4.197  0.6406  0.2601  0.8852
 2686SOL    HW310743   0.176   1.238   4.180  0.9570 -0.8169 -0.5274
 2686SOL    MW410744   0.242   1.284   4.213  0.3151 -0.3254  0.0888
 2687SOL     OW10745   0.730   1.320   4.244  0.0113 -0.1723 -0.0018
 2687SOL    HW210746   0.645   1.276   4.243  0.7771 -1.6997  0.1159
 2687SOL    HW310747   0.734   1.364   4.329  0.3790 -2.2482  1.0888
 2687SOL    MW410748   0.720   1.320   4.255  0.1608 -0.6477  0.1576
 2688SOL     OW10749   0.098   3.157   4.150 -0.4616  0.1463 -0.2313
 2688SOL    HW210750   0.010   3.131   4.179 -0.0750  0.7974  1.6157
 2688SOL    HW310751   0.089   3.250   4.129  0.1534  0.6584  1.6468
 2688SOL    MW410752   0.085   3.166   4.151 -0.3294  0.2997  0.2601
 2689SOL     OW10753   0.490   3.504   4.133  0.5815  0.2557  0.1562
 2689SOL    HW210754   0.405   3.537   4.163 -0.7254 -2.1016 -0.7719
 2689SOL    HW310755   0.479   3.493   4.039  1.5960 -0.9492  0.1687
 2689SOL    MW410756   0.477   3.507   4.125  0.5429 -0.2143  0.0354
 2690SOL     OW10757   1.779   0.098   4.539  0.0223  0.0921 -0.2014
 2690SOL    HW210758   1.851   0.136   4.589  0.0352 -0.6995  0.3935
 2690SOL    HW310759   1.701   0.144   4.569 -0.2676 -1.7767  2.0854
 2690SOL    MW410760   1.778   0.109   4.549 -0.0143 -0.2589  0.1788
 2691SOL     OW10761   2.279   2.381   4.530  0.4051 -0.0064  0.2210
 2691SOL    HW210762   2.251   2.470   4.554 -0.6405 -0.4501  0.6759
 2691SOL    HW310763   2.294   2.337   4.613 -1.5384 -1.0164  0.0795
 2691SOL    MW410764   2.277   2.387   4.544  0.0107 -0.1982  0.2624
 2692SOL     OW10765   1.363   1.916   4.164 -0.0164  0.1525  0.2067
 2692SOL    HW210766   1.382   1.827   4.194 -0.8061 -0.3822 -0.8581
 2692SOL    HW310767   1.436   1.969   4.197 -0.1055 -0.6878  1.7830
 2692SOL    MW410768   1.375   1.911   4.172 -0.1323 -0.0289  0.2742
 2693SOL     OW10769   3.583   3.276   4.284  0.2447  0.4992 -0.1644
 2693SOL    HW210770   3.503   3.240   4.247  0.7633 -0.4312 -0.3839
 2693SOL    HW310771   3.652   3.215   4.258  0.9552  1.0384  0.4212
 2693SOL    MW410772   3.582   3.263   4.276  0.4069  0.4476 -0.1161
 2694SOL     OW10773   2.031   2.791   4.260 -0.2083  0.0498  0.1618
 2694SOL    HW210774   2.012   2.879   4.227  0.1513 -0.2205 -0.7721
 2694SOL    HW310775   2.021   2.799   4.355  0.0866  1.1669  0.1064
 2694SOL    MW410776   2.027   2.804   4.268 -0.1220  0.1615  0.0313
 2695SOL     OW10777   0.154   3.940   4.532  0.1664 -0.0733  0.2990
 2695SOL    HW210778   0.234   3.979   4.566  0.3166  0.6548 -0.8370
 2695SOL    HW310779   0.085   3.969   4.592  0.3610  1.4984 -0.2062
 2695SOL    MW410780   0.155   3.949   4.544  0.2119  0.2301  0.0825
 2696SOL     OW10781   1.287   3.358   4.567  0.2415  0.1305  0.2221
 2696SOL    HW210782   1.295   3.324   4.477 -1.4454  0.1984  0.0208
 2696SOL    HW310783   1.286   3.279   4.622  1.6058  0.1027  0.2187
 2696SOL    MW410784   1.288   3.343   4.562  0.1989  0.1358  0.1951
 2697SOL     OW10785   4.040   0.420   4.147 -0.1421  0.0137 -0.0602
 2697SOL    HW210786   4.032   0.327   4.170 -0.0041  0.1926  0.7298
 2697SOL    HW310787   3.968   0.462   4.194  0.0101  0.3544 -0.1356
 2697SOL    MW410788   4.030   0.413   4.157 -0.1038  0.0822  0.0341
 2698SOL     OW10789   0.685   2.318   4.157  0.1101  0.3012 -0.3351
 2698SOL    HW210790   0.702   2.324   4.063  1.3689  1.4588 -0.0538
 2698SOL    HW310791   0.660   2.227   4.171  0.5276 -0.0386 -1.6906
 2698SOL    MW410792   0.684   2.307   4.147  0.3313  0.4091 -0.4768
 2699SOL     OW10793   3.624   0.930   4.314 -0.3536  0.3020 -0.3738
 2699SOL    HW210794   3.703   0.881   4.290 -0.3725 -0.1256  0.4337
 2699SOL    HW310795   3.629   1.011   4.262  1.9698  1.4989  1.6080
 2699SOL    MW410796   3.635   0.934   4.304 -0.0496  0.4035 -0.0058
 2700SOL     OW10797   4.449   1.264   4.518 -0.1108  0.2522 -0.3243
 2700SOL    HW210798   4.526   1.319   4.535  0.1579 -0.0534 -0.5557
 2700SOL    HW310799   4.484   1.175   4.514 -0.6040  0.0204  0.4579
 2700SOL    MW410800   4.464   1.260   4.520 -0.1404  0.1813 -0.2516
 2701SOL     OW10801   0.721   1.478   4.493  0.7190  0.1475  0.0690
 2701SOL    HW210802   0.636   1.510   4.523  1.0947  0.2742  1.0316
 2701SOL    HW310803   0.776   1.557   4.489  0.9608 -0.0188  0.0716
 2701SOL    MW410804   0.717   1.493   4.497  0.8005  0.1423  0.1963
 2702SOL     OW10805   3.359   3.133   4.171 -0.3721  0.6421 -0.1742
 2702SOL    HW210806   3.371   3.126   4.077 -1.2548 -0.6546 -0.1962
 2702SOL    HW310807   3.362   3.043   4.203  0.0388  1.0738  1.0515
 2702SOL    MW410808   3.361   3.121   4.163 -0.4343  0.5280 -0.0154
 2703SOL     OW10809   4.198   3.532   4.590  0.0613  0.0975  0.1463
 2703SOL    HW210810   4.171   3.441   4.577 -1.2533  0.3087  1.1711
 2703SOL    HW310811   4.293   3.532   4.579 -0.2179 -0.9025 -2.4926
 2703SOL    MW410812   4.207   3.520   4.587 -0.1490 -0.0066 -0.0666
 2704SOL     OW10813   2.377   3.394   4.889 -0.0474  0.6006 -0.2109
 2704SOL    HW210814   2.367   3.489   4.880  0.6029  0.8673  1.5765
 2704SOL    HW310815   2.346   3.375   4.978  0.6158 -0.7265 -0.2545
 2704SOL    MW410816   2.372   3.404   4.900  0.1259  0.4607  0.0192
 2705SOL     OW10817   4.173   0.479   4.484  0.7051  0.2117  0.3123
 2705SOL    HW210818   4.125   0.560   4.500 -1.3577 -1.3100  2.2793
 2705SOL    HW310819   4.256   0.491   4.530  0.2086  1.0203  1.0169
 2705SOL    MW410820   4.178   0.491   4.492  0.3674  0.1176  0.6648
 2706SOL     OW10821   3.611   3.795   4.617  0.0689  0.1680  0.0816
 2706SOL    HW210822   3.691   3.745   4.633 -1.3827 -2.3774 -0.4056
 2706SOL    HW310823   3.570   3.804   4.703 -0.1178 -0.2354  0.0321
 2706SOL    MW410824   3.616   3.790   4.630 -0.1472 -0.2211  0.0108
 2707SOL     OW10825   2.888   3.098   4.172 -0.2736  0.2826  0.3713
 2707SOL    HW210826   2.887   3.078   4.079 -0.3981 -1.0340  0.6502
 2707SOL    HW310827   2.962   3.158   4.183 -1.3817  1.9238 -0.8531
 2707SOL    MW410828   2.898   3.103   4.161 -0.4362  0.3255  0.2466
 2708SOL     OW10829   0.244   3.628   4.213 -0.0257 -0.0442 -0.8163
 2708SOL    HW210830   0.237   3.714   4.171  0.2043 -0.3492 -1.4879
 2708SOL    HW310831   0.208   3.641   4.301  0.6461  0.9058 -0.6782
 2708SOL    MW410832   0.238   3.641   4.219  0.0933  0.0409 -0.8867
 2709SOL     OW10833   2.067   1.585   4.534 -0.1992  0.1285 -0.0624
 2709SOL    HW210834   2.028   1.670   4.550 -1.3286 -0.2479 -0.7359
 2709SOL    HW310835   2.160   1.597   4.553 -0.3732  1.4585 -0.0067
 2709SOL    MW410836   2.074   1.597   4.539 -0.3712  0.2543 -0.1439
 2710SOL     OW10837   2.623   0.797   4.499  0.5328 -0.4464  0.1858
 2710SOL    HW210838   2.551   0.740   4.529  0.0122  0.5434  0.8685
 2710SOL    HW310839   2.700   0.766   4.547  0.0824 -0.0679  1.1709
 2710SOL    MW410840   2.623   0.785   4.510  0.4047 -0.2658  0.4058
 2711SOL     OW10841   1.127   2.041   4.314 -0.0417  0.2215 -0.6141
 2711SOL    HW210842   1.049   2.003   4.275 -0.9625 -0.3196  1.7099
 2711SOL    HW310843   1.197   1.978   4.293 -0.8898 -1.0188  0.2291
 2711SOL    MW410844   1.126   2.027   4.306 -0.2751 -0.0136 -0.1962
 2712SOL     OW10845   3.595   2.456   4.299  0.3277 -0.0474 -0.3175
 2712SOL    HW210846   3.601   2.396   4.373  1.3802 -0.9697 -1.1309
 2712SOL    HW310847   3.513   2.433   4.256  0.1075 -0.0475  0.0988
 2712SOL    MW410848   3.585   2.445   4.303  0.4375 -0.1691 -0.3699
 2713SOL     OW10849   2.493   0.474   4.221 -0.1906  0.1413  0.2031
 2713SOL    HW210850   2.408   0.433   4.203 -1.9055  2.8580  1.7172
 2713SOL    HW310851   2.508   0.458   4.314 -0.0685  1.4378  0.4187
 2713SOL    MW410852   2.484   0.467   4.231 -0.4007  0.6708  0.4313
 2714SOL     OW10853   2.450   1.986   4.277  0.2753 -0.2080  0.1320
 2714SOL    HW210854   2.535   1.990   4.233 -0.1135 -2.2767 -0.8634
 2714SOL    HW310855   2.471   1.973   4.370  1.0399 -0.2268 -0.0446
 2714SOL    MW410856   2.464   1.985   4.284  0.3249 -0.4834 -0.0226
 2715SOL     OW10857   2.806   3.850   4.639  0.1297 -0.4711  0.0576
 2715SOL    HW210858   2.858   3.904   4.698  1.1706 -0.8371 -0.5024
 2715SOL    HW310859   2.746   3.911   4.596  2.3024  0.5094 -1.6643
 2715SOL    MW410860   2.805   3.865   4.641  0.5537 -0.3900 -0.2434
 2716SOL     OW10861   2.827   2.342   4.521  0.2366 -0.1898  0.4816
 2716SOL    HW210862   2.745   2.385   4.499  0.2902  0.0531  0.7449
 2716SOL    HW310863   2.883   2.413   4.553  0.6624 -0.2969 -0.0198
 2716SOL    MW410864   2.824   2.357   4.523  0.2999 -0.1718  0.4502
 2717SOL     OW10865   0.703   3.595   4.281  0.2571  0.1566 -0.0183
 2717SOL    HW210866   0.638   3.554   4.224  0.0091  0.0627  0.3303
 2717SOL    HW310867   0.787   3.563   4.249  0.2170  1.2962 -1.3051
 2717SOL    MW410868   0.706   3.586   4.270  0.2191  0.2946 -0.1421
 2718SOL     OW10869   1.142   1.338   4.148  0.0572  0.0598 -0.0182
 2718SOL    HW210870   1.224   1.295   4.124 -0.8223 -0.5705 -1.9427
 2718SOL    HW310871   1.155   1.429   4.123  0.4765  0.1294  0.4450
 2718SOL    MW410872   1.155   1.344   4.142 -0.0035 -0.0142 -0.2110
 2719SOL     OW10873   4.078   3.514   4.204  0.3090 -0.3320  0.5156
 2719SOL    HW210874   4.171   3.530   4.221 -0.3348  2.2201  1.8949
 2719SOL    HW310875   4.070   3.523   4.109  1.3638  0.0813  0.4522
 2719SOL    MW410876   4.089   3.518   4.194  0.3632  0.0593  0.6892
 2720SOL     OW10877   0.419   1.951   4.142 -0.0430 -0.0955 -0.0370
 2720SOL    HW210878   0.492   1.986   4.192 -0.5957  1.0102  0.0126
 2720SOL    HW310879   0.444   1.961   4.051 -0.0532  0.1162 -0.0162
 2720SOL    MW410880   0.432   1.957   4.137 -0.1172  0.0783 -0.0277
 2721SOL     OW10881   3.297   0.070   4.463 -0.0523  0.0702 -0.5016
 2721SOL    HW210882   3.359   0.143   4.456  1.8598 -1.6081 -1.8405
 2721SOL    HW310883   3.244   0.075   4.384 -1.2858  1.1676  0.3715
 2721SOL    MW410884   3.298   0.080   4.452  0.0372 -0.0065 -0.5630
 2722SOL     OW10885   2.473   2.775   4.289 -0.3744 -0.5749  0.7673
 2722SOL    HW210886   2.471   2.868   4.268  1.0136 -0.6642  0.1343
 2722SOL    HW310887   2.551   2.742   4.244 -0.2832 -1.8373  1.8005
 2722SOL    MW410888   2.483   2.783   4.280 -0.1792 -0.7532  0.8201
 2723SOL     OW10889   0.916   0.884   4.287 -0.2722 -0.4107 -0.0643
 2723SOL    HW210890   0.974   0.829   4.234 -0.4756 -0.5907 -0.1018
 2723SOL    HW310891   0.946   0.973   4.271  0.4126 -0.5468  0.4145
 2723SOL    MW410892   0.928   0.888   4.278 -0.2087 -0.4524 -0.0061
 2724SOL     OW10893   0.476   4.545   4.572  0.4871  0.0879  0.7272
 2724SOL    HW210894   0.521   4.462   4.592 -0.0451 -0.7710 -1.4871
 2724SOL    HW310895   0.547   4.609   4.563  0.9264 -0.1933  2.1588
 2724SOL    MW410896   0.492   4.542   4.573  0.4749 -0.0625  0.6239
 2725SOL     OW10897   0.813   3.207   4.546  0.0033  0.1527  0.1945
 2725SOL    HW210898   0.873   3.245   4.610  0.7974  0.0420 -0.4907
 2725SOL    HW310899   0.733   3.260   4.553  0.4191  0.7171  0.6191
 2725SOL    MW410900   0.810   3.219   4.556  0.1629  0.2126  0.1601
 2726SOL     OW10901   2.549   1.012   4.678  0.2863  0.2630 -0.1424
 2726SOL    HW210902   2.585   0.940   4.626  0.4252 -0.2885  0.7058
 2726SOL    HW310903   2.607   1.086   4.661 -0.3077  0.4057 -1.6341
 2726SOL    MW410904   2.561   1.012   4.669  0.2263  0.2090 -0.2273
 2727SOL     OW10905   3.802   4.410   4.284  0.3522  0.9377  0.0320
 2727SOL    HW210906   3.890   4.375   4.273  0.0537 -0.3215  1.4453
 2727SOL    HW310907   3.796   4.434   4.377 -1.0157  0.3281  0.1207
 2727SOL    MW410908   3.813   4.408   4.295  0.1324  0.6912  0.2302
 2728SOL     OW10909   3.264   1.522   4.659 -0.3440 -0.1770 -0.7814
 2728SOL    HW210910   3.295   1.606   4.626 -1.8154  0.5395 -0.4185
 2728SOL    HW310911   3.171   1.520   4.635 -0.1838 -1.9691 -1.3157
 2728SOL    MW410912   3.256   1.533   4.651 -0.5170 -0.3189 -0.8040
 2729SOL     OW10913   1.372   2.444   4.259 -0.0337 -0.1903  0.2199
 2729SOL    HW210914   1.430   2.387   4.208 -0.2921 -0.5408  0.3087
 2729SOL    HW310915   1.401   2.433   4.349 -0.1349 -0.2414  0.2461
 2729SOL    MW410916   1.383   2.435   4.264 -0.0811 -0.2433  0.2351
 2730SOL     OW10917   0.470   2.718   4.169 -0.0232 -0.1967 -0.2327
 2730SOL    HW210918   0.553   2.756   4.197 -0.1741 -1.3078  1.7901
 2730SOL    HW310919   0.478   2.711   4.074  2.3594 -0.6678 -0.0246
 2730SOL    MW410920   0.482   2.722   4.160  0.2713 -0.4054  0.0616
 2731SOL     OW10921   2.692   1.683   4.505 -0.1274 -0.4973  0.0360
 2731SOL    HW210922   2.639   1.607   4.528  0.2488 -0.3847  1.3150
 2731SOL    HW310923   2.636   1.758   4.523  0.2732 -0.3973  0.8876
 2731SOL    MW410924   2.678   1.683   4.510 -0.0249 -0.4693  0.3171
 2732SOL     OW10925   4.106   2.993   4.703 -0.4873  0.7562 -0.2008
 2732SOL    HW210926   4.117   2.917   4.645 -1.1921 -0.6487  1.4690
 2732SOL    HW310927   4.012   2.997   4.720 -0.2441  0.9100  1.1479
 2732SOL    MW410928   4.095   2.983   4.697 -0.5482  0.5911  0.1975
 2733SOL     OW10929   3.389   1.293   4.566  0.4019 -0.6565  0.3936
 2733SOL    HW210930   3.365   1.285   4.473  2.0287 -1.4698  0.0226
 2733SOL    HW310931   3.346   1.373   4.595 -0.9639 -0.9319 -0.8021
 2733SOL    MW410932   3.380   1.302   4.557  0.4363 -0.8002  0.1869
 2734SOL     OW10933   3.209   2.549   4.501  0.2079  0.4240  0.1545
 2734SOL    HW210934   3.232   2.467   4.543 -0.0754  1.3552  2.1757
 2734SOL    HW310935   3.176   2.524   4.414  0.6358 -1.5287  0.5561
 2734SOL    MW410936   3.208   2.535   4.495  0.2270  0.2893  0.4742
 2735SOL     OW10937   0.437   1.582   4.516  0.3313 -0.7512 -0.1054
 2735SOL    HW210938   0.363   1.520   4.515  0.0937 -0.4663 -0.5435
 2735SOL    HW310939   0.438   1.618   4.428  0.3912 -0.0391  0.1832
 2735SOL    MW410940   0.427   1.579   4.504  0.3079 -0.6197 -0.1251
 2736SOL     OW10941   1.398   0.105   4.236 -0.1040  0.1570  0.2397
 2736SOL    HW210942   1.476   0.062   4.202 -0.5906  0.1610 -0.9236
 2736SOL    HW310943   1.398   0.086   4.330  0.4455 -1.1794 -0.0244
 2736SOL    MW410944   1.408   0.097   4.244 -0.0957 -0.0188  0.0513
 2737SOL     OW10945   0.025   0.921   4.223  0.0870  0.6025 -0.5483
 2737SOL    HW210946  -0.063   0.889   4.205 -0.1363  0.1608  1.2612
 2737SOL    HW310947   0.030   0.927   4.318  1.8951  0.9601 -0.6413
 2737SOL    MW410948   0.014   0.918   4.233  0.2961  0.5914 -0.3218
 2738SOL     OW10949   1.349   0.933   4.511  0.1889 -0.3265  0.5592
 2738SOL    HW210950   1.359   0.943   4.416 -1.0755 -0.3965  0.4104
 2738SOL    HW310951   1.436   0.954   4.546  0.9071 -1.1619 -0.6684
 2738SOL    MW410952   1.362   0.937   4.503  0.1168 -0.4460  0.3776
 2739SOL     OW10953   2.941   2.850   4.286 -0.0079  0.0509 -0.1659
 2739SOL    HW210954   2.920   2.938   4.255 -1.0083  0.0872  0.6057
 2739SOL    HW310955   2.876   2.793   4.245  0.2959 -0.2535 -0.2296
 2739SOL    MW410956   2.930   2.854   4.276 -0.0998  0.0155 -0.0725
 2740SOL     OW10957   4.468   3.495   4.523  0.1967 -0.7330 -0.1813
 2740SOL    HW210958   4.507   3.413   4.553 -0.2438 -1.6466 -2.0323
 2740SOL    HW310959   4.542   3.555   4.515  0.4916 -0.8594  1.3899
 2740SOL    MW410960   4.483   3.492   4.526  0.1775 -0.8702 -0.2182
 2741SOL     OW10961   0.661   4.371   4.309 -0.5768  0.2956  0.7607
 2741SOL    HW210962   0.680   4.459   4.274  0.3602 -0.3807 -0.4997
 2741SOL    HW310963   0.688   4.376   4.401  1.9566  0.5910  0.0515
 2741SOL    MW410964   0.667   4.383   4.316 -0.1189  0.2454  0.5009
 2742SOL     OW10965   1.241   1.325   4.437 -0.0070  0.2916  0.2218
 2742SOL    HW210966   1.225   1.351   4.346  0.3685  0.8790  0.3207
 2742SOL    HW310967   1.166   1.270   4.460 -0.1070  0.1522 -0.4430
 2742SOL    MW410968   1.229   1.321   4.428  0.0294  0.3507  0.1471
 2743SOL     OW10969   0.653   1.587   4.162  0.2438 -0.1832  0.5795
 2743SOL    HW210970   0.655   1.576   4.067 -0.1335 -0.3834  0.5933
 2743SOL    HW310971   0.680   1.503   4.197  1.7210  0.3089  0.6377
 2743SOL    MW410972   0.656   1.575   4.154  0.3889 -0.1447  0.5890
 2744SOL     OW10973   2.244   1.662   4.249  0.0731 -0.7166 -0.2464
 2744SOL    HW210974   2.221   1.742   4.201 -1.8060 -1.6412 -0.9360
 2744SOL    HW310975   2.328   1.635   4.213  0.1969  0.3545 -0.7632
 2744SOL    MW410976   2.252   1.669   4.238 -0.1585 -0.6973 -0.4056
 2745SOL     OW10977   3.057   1.111   4.595 -0.3131  0.0557 -0.3070
 2745SOL    HW210978   2.991   1.177   4.574 -0.2091  0.4130  0.4478
 2745SOL    HW310979   3.131   1.131   4.537 -0.0240  1.0203  0.3690
 2745SOL    MW410980   3.058   1.123   4.585 -0.2612  0.2301 -0.1182
 2746SOL     OW10981   1.106   1.542   4.582  0.1428 -0.3950 -0.2589
 2746SOL    HW210982   1.038   1.501   4.636  0.3923  1.0843  1.2316
 2746SOL    HW310983   1.158   1.469   4.549  0.0265 -1.3401  1.5995
 2746SOL    MW410984   1.104   1.527   4.585  0.1604 -0.3245  0.1829
 2747SOL     OW10985   0.867   2.383   4.516  0.2063 -0.1634  0.4521
 2747SOL    HW210986   0.898   2.381   4.425  0.6512  0.7060  0.5805
 2747SOL    HW310987   0.947   2.396   4.568  0.0640 -1.5545  1.0322
 2747SOL    MW410988   0.882   2.384   4.511  0.2462 -0.2322  0.5456
 2748SOL     OW10989   3.733   2.479   4.664  0.7126  0.5979  0.3266
 2748SOL    HW210990   3.820   2.500   4.629  0.2268 -0.2345 -1.4717
 2748SOL    HW310991   3.692   2.564   4.678  1.2770  0.9792 -0.2741
 2748SOL    MW410992   3.739   2.493   4.661  0.7230  0.5384  0.0101
 2749SOL     OW10993   2.244   4.200   4.122  0.5339  0.2069  0.6583
 2749SOL    HW210994   2.250   4.115   4.167 -1.3040  0.3792  1.2789
 2749SOL    HW310995   2.322   4.248   4.151  1.2405 -1.0271  0.8235
 2749SOL    MW410996   2.255   4.195   4.132  0.3846  0.0668  0.7620
 2750SOL     OW10997   4.114   0.745   4.500  0.1159  0.1863 -0.0963
 2750SOL    HW210998   4.106   0.814   4.435  0.4675 -1.2065 -1.6355
 2750SOL    HW310999   4.032   0.749   4.549 -0.3145  0.9885 -0.8706
 2750SOL    MW411000   4.102   0.755   4.498  0.1055  0.1083 -0.4016
 2751SOL     OW11001   2.498   1.450   4.496 -0.1368  0.6131 -0.4246
 2751SOL    HW211002   2.478   1.396   4.420 -1.6042 -1.2513  1.2137
 2751SOL    HW311003   2.545   1.390   4.556  0.3481  1.8296  0.4424
 2751SOL    MW411004   2.502   1.435   4.494 -0.2665  0.5276 -0.0940
 2752SOL     OW11005   1.563   2.823   4.269 -0.8731 -0.1934  0.1585
 2752SOL    HW211006   1.562   2.909   4.226 -1.4964  0.1563  0.8708
 2752SOL    HW311007   1.636   2.777   4.227 -0.4181  0.7484 -0.1012
 2752SOL    MW411008   1.573   2.828   4.258 -0.8953 -0.0230  0.2182
 2753SOL     OW11009   1.990   0.501   4.487  0.3292  0.1691  0.3403
 2753SOL    HW211010   1.978   0.416   4.529  0.7814 -0.3621 -0.5956
 2753SOL    HW311011   2.002   0.481   4.394  1.5204  1.1646  0.2629
 2753SOL    MW411012   1.990   0.487   4.481  0.5460  0.2304  0.2066
 2754SOL     OW11013   2.555   2.469   4.478  0.0303 -0.2283  0.2388
 2754SOL    HW211014   2.539   2.561   4.499  0.1957 -0.4748  1.4491
 2754SOL    HW311015   2.468   2.429   4.476 -0.2210  0.3438 -2.2288
 2754SOL    MW411016   2.541   2.476   4.481  0.0190 -0.1853  0.0729
 2755SOL     OW11017   4.278   1.847   4.710  0.5852 -0.0245  0.4097
 2755SOL    HW211018   4.322   1.810   4.635  0.4414  0.1543  0.2347
 2755SOL    HW311019   4.342   1.842   4.781  0.6682 -0.3284  0.3117
 2755SOL    MW411020   4.292   1.841   4.710  0.5771 -0.0410  0.3737
 2756SOL     OW11021   2.239   2.372   4.255 -0.1440 -0.7401  0.3073
 2756SOL    HW211022   2.246   2.465   4.233 -2.0846 -0.7232 -0.2835
 2756SOL    HW311023   2.251   2.369   4.350  1.0531 -0.0224  0.1927
 2756SOL    MW411024   2.242   2.384   4.264 -0.2421 -0.6432  0.2142
 2757SOL     OW11025   3.544   0.631   4.654 -0.5653 -0.2459 -0.1080
 2757SOL    HW211026   3.618   0.582   4.620 -0.9849 -1.1302  0.2449
 2757SOL    HW311027   3.572   0.723   4.650  0.5797 -0.5802  0.1198
 2757SOL    MW411028   3.557   0.637   4.649 -0.4696 -0.4067 -0.0314
 2758SOL     OW11029   0.698   3.108   4.172  0.1642  0.5158 -0.3760
 2758SOL    HW211030   0.726   3.019   4.194  0.5714  1.3236  2.5734
 2758SOL    HW311031   0.773   3.163   4.196 -1.3035  1.9853  0.8926
 2758SOL    MW411032   0.712   3.104   4.178  0.0243  0.8163  0.1805
 2759SOL     OW11033   2.682   2.667   4.147 -0.1139 -0.3333  0.1044
 2759SOL    HW211034   2.705   2.683   4.056 -1.3661 -0.5766 -0.2522
 2759SOL    HW311035   2.677   2.572   4.155  1.8526 -0.3961  0.8941
 2759SOL    MW411036   2.685   2.657   4.136 -0.0197 -0.3736  0.1615
 2760SOL     OW11037   0.983   4.439   4.532 -0.3347 -0.1124 -0.5090
 2760SOL    HW211038   1.001   4.419   4.440  1.3016  0.0818 -0.2573
 2760SOL    HW311039   1.059   4.403   4.579 -0.5761  0.8485  0.6341
 2760SOL    MW411040   0.996   4.432   4.526 -0.1506  0.0400 -0.3249
 2761SOL     OW11041   0.667   4.616   4.182 -0.0346 -0.0125  0.2923
 2761SOL    HW211042   0.671   4.638   4.089  0.4558 -0.1900  0.2704
 2761SOL    HW311043   0.732   4.674   4.223 -0.4339  0.2469  0.5582
 2761SOL    MW411044   0.676   4.626   4.175 -0.0226 -0.0017  0.3245
 2762SOL     OW11045   3.557   3.318   4.558 -0.1283 -0.3467  0.0293
 2762SOL    HW211046   3.649   3.309   4.582  0.1971  0.7867 -0.7527
 2762SOL    HW311047   3.555   3.304   4.463 -0.6609  0.3201 -0.0587
 2762SOL    MW411048   3.568   3.315   4.549 -0.1556 -0.1092 -0.0855
 2763SOL     OW11049   0.728   2.125   4.549  0.5385  0.0975  0.2086
 2763SOL    HW211050   0.647   2.126   4.599  1.3257  0.6697  1.5140
 2763SOL    HW311051   0.755   2.217   4.545  1.6188 -0.1847  0.6323
 2763SOL    MW411052   0.721   2.138   4.555  0.7849  0.1358  0.4367
 2764SOL     OW11053   0.950   1.160   4.224  0.0247  0.0763  0.1447
 2764SOL    HW211054   0.872   1.216   4.223  0.2299  0.3572 -1.2852
 2764SOL    HW311055   1.021   1.218   4.200  0.4926 -0.4540  0.2473
 2764SOL    MW411056   0.949   1.175   4.221  0.1135  0.0434 -0.0304
 2765SOL     OW11057   3.624   1.834   4.521  0.5385 -0.0415 -0.3214
 2765SOL    HW211058   3.652   1.925   4.536  0.0981 -0.2325  1.9167
 2765SOL    HW311059   3.678   1.782   4.581 -0.8121 -0.9891  0.1018
 2765SOL    MW411060   3.635   1.839   4.531  0.3022 -0.1917  0.0297
 2766SOL     OW11061   1.524   4.443   4.523 -0.1119 -0.1221 -0.1660
 2766SOL    HW211062   1.513   4.537   4.514 -0.4619 -0.1302  0.1520
 2766SOL    HW311063   1.527   4.410   4.433 -0.4660  0.1379 -0.2723
 2766SOL    MW411064   1.523   4.451   4.510 -0.2048 -0.0888 -0.1381
 2767SOL     OW11065   4.067   0.923   4.296  0.3906  0.1791 -0.0245
 2767SOL    HW211066   4.139   0.881   4.248 -1.4039 -1.6502 -1.2137
 2767SOL    HW311067   4.064   1.012   4.261  1.4192 -0.0242 -0.6683
 2767SOL    MW411068   4.076   0.929   4.285  0.2895 -0.0891 -0.2663
 2768SOL     OW11069   2.695   0.872   4.253 -0.2010  0.1400 -0.1433
 2768SOL    HW211070   2.682   0.846   4.344  0.7798 -1.1629 -0.3633
 2768SOL    HW311071   2.618   0.839   4.207  0.1456 -0.7408 -0.0925
 2768SOL    MW411072   2.683   0.864   4.259 -0.0259 -0.1481 -0.1656
 2769SOL     OW11073   2.029   3.508   4.520  0.1031 -0.1357 -0.3566
 2769SOL    HW211074   2.006   3.502   4.427  0.2214  1.7344 -0.5233
 2769SOL    HW311075   2.121   3.484   4.524  0.6830  1.8502 -1.0439
 2769SOL    MW411076   2.038   3.504   4.508  0.1952  0.3730 -0.4692
 2770SOL     OW11077   3.822   2.046   4.233 -0.0661 -0.3541 -0.0647
 2770SOL    HW211078   3.823   2.141   4.219 -0.7352 -0.4674 -0.9601
 2770SOL    HW311079   3.748   2.015   4.181  1.3849 -1.6026 -1.4437
 2770SOL    MW411080   3.812   2.054   4.224  0.0371 -0.5338 -0.3647
 2771SOL     OW11081   1.357   3.738   4.632 -0.0265  0.1818 -0.3109
 2771SOL    HW211082   1.327   3.684   4.706  0.0490  1.3553  0.5946
 2771SOL    HW311083   1.419   3.681   4.586  0.4842 -0.3243  0.9582
 2771SOL    MW411084   1.362   3.723   4.636  0.0508  0.2698 -0.0240
 2772SOL     OW11085   4.090   3.255   4.536  0.0192  0.0872 -0.0675
 2772SOL    HW211086   4.115   3.169   4.570 -0.4873 -0.2398 -0.5003
 2772SOL    HW311087   4.083   3.242   4.441  0.9529  0.8686 -0.2527
 2772SOL    MW411088   4.092   3.242   4.528  0.0756  0.1472 -0.1491
 2773SOL     OW11089   0.232   1.378   4.488  0.0352 -0.3400  0.0534
 2773SOL    HW211090   0.303   1.318   4.510 -0.5860 -0.9320  0.4640
 2773SOL    HW311091   0.219   1.368   4.394 -0.7964 -1.6584  0.2979
 2773SOL    MW411092   0.240   1.369   4.479 -0.1565 -0.5921  0.1399
 2774SOL     OW11093   1.587   2.037   4.270 -0.3709 -0.0613 -0.4937
 2774SOL    HW211094   1.619   2.063   4.356 -0.2224 -0.7168 -0.3493
 2774SOL    HW311095   1.568   2.120   4.225  0.9402  0.3158 -0.3608
 2774SOL    MW411096   1.588   2.051   4.275 -0.1783 -0.0980 -0.4571
 2775SOL     OW11097   0.101   3.249   4.592  0.2079 -0.9348  0.1143
 2775SOL    HW211098   0.147   3.207   4.520  1.1789 -0.9269  0.7320
 2775SOL    HW311099   0.046   3.179   4.629 -1.3176 -0.6063 -1.4650
 2775SOL    MW411100   0.100   3.234   4.587  0.1347 -0.8904 -0.0126
 2776SOL     OW11101   3.582   0.160   4.332 -0.1657  0.4654  0.2240
 2776SOL    HW211102   3.581   0.132   4.423 -0.0873  0.1969  0.1432
 2776SOL    HW311103   3.653   0.111   4.292 -0.1596  0.6274  0.0314
 2776SOL    MW411104   3.591   0.150   4.339 -0.1546  0.4513  0.1879
 2777SOL     OW11105   0.488   1.181   4.167  0.1906  0.4947  0.2974
 2777SOL    HW211106   0.477   1.094   4.203  0.3098  0.4189  0.1515
 2777SOL    HW311107   0.496   1.168   4.073  0.0569  0.6751  0.2599
 2777SOL    MW411108   0.488   1.168   4.159  0.1887  0.5085  0.2732
 2778SOL     OW11109   2.237   1.926   4.120  0.3416 -0.0765 -0.0204
 2778SOL    HW211110   2.158   1.968   4.155  0.2960  0.7423 -1.0899
 2778SOL    HW311111   2.302   1.935   4.189 -1.1080 -2.7052  1.7865
 2778SOL    MW411112   2.235   1.933   4.134  0.1443 -0.3153  0.0769
 2779SOL     OW11113   1.622   1.047   4.526  0.0660  0.1710 -0.2688
 2779SOL    HW211114   1.590   1.134   4.552  0.1330  0.2547 -0.4636
 2779SOL    HW311115   1.698   1.065   4.471  1.4654 -0.0525  1.5355
 2779SOL    MW411116   1.628   1.061   4.522  0.2595  0.1526 -0.0564
 2780SOL     OW11117   1.064   0.487   4.536 -0.2598  0.0379  0.2767
 2780SOL    HW211118   1.150   0.529   4.533 -1.0284  1.5407 -1.1472
 2780SOL    HW311119   1.002   0.560   4.540 -1.4553 -1.0399  2.2022
 2780SOL    MW411120   1.068   0.502   4.536 -0.5189  0.0940  0.3429
 2781SOL     OW11121   1.525   1.307   4.537  0.0922  0.8740  0.3929
 2781SOL    HW211122   1.569   1.314   4.453 -0.5732 -0.6445 -0.1002
 2781SOL    HW311123   1.432   1.306   4.517 -0.0676  0.1238  1.0971
 2781SOL    MW411124   1.519   1.308   4.524 -0.0167  0.5747  0.4208
 2782SOL     OW11125   1.567   0.516   4.474 -0.2169  0.0002 -0.0045
 2782SOL    HW211126   1.563   0.499   4.380  0.5662  0.6465 -0.1571
 2782SOL    HW311127   1.631   0.586   4.483  0.7680 -1.0381  1.1506
 2782SOL    MW411128   1.575   0.523   4.463  0.0164 -0.0515  0.1277
 2783SOL     OW11129   1.992   2.288   4.144  0.5396 -0.0757 -0.0994
 2783SOL    HW211130   1.995   2.289   4.049 -0.6826 -0.3913 -0.1589
 2783SOL    HW311131   2.067   2.341   4.172 -0.0519  1.4168 -1.2650
 2783SOL    MW411132   2.002   2.295   4.135  0.3003  0.0796 -0.2610
 2784SOL     OW11133   2.000   1.279   4.219  0.1544  0.2302  0.3612
 2784SOL    HW211134   2.088   1.254   4.189 -0.3121 -0.5019 -0.4143
 2784SOL    HW311135   2.003   1.375   4.224  1.1811  0.1850  0.9331
 2784SOL    MW411136   2.012   1.289   4.216  0.2283  0.1276  0.3344
 2785SOL     OW11137   4.297   3.847   4.210  0.3261 -0.1053 -0.0028
 2785SOL    HW211138   4.298   3.759   4.247 -1.3256 -0.1665 -0.0758
 2785SOL    HW311139   4.291   3.834   4.116 -0.6871  0.0761  0.0279
 2785SOL    MW411140   4.296   3.834   4.203 -0.0255 -0.0894 -0.0084
 2786SOL     OW11141   0.454   3.982   4.270  0.1659  0.0873 -0.2729
 2786SOL    HW211142   0.462   3.959   4.363  0.6327 -1.7952 -0.7526
 2786SOL    HW311143   0.446   4.077   4.270  1.0331  0.2028  1.6544
 2786SOL    MW411144   0.454   3.992   4.282  0.3419 -0.1459 -0.0819
 2787SOL     OW11145   3.603   1.186   4.188 -0.0468  0.3636  0.1861
 2787SOL    HW211146   3.627   1.205   4.097 -1.2435 -0.9008 -0.4075
 2787SOL    HW311147   3.519   1.231   4.200 -0.6263 -0.6967  0.1882
 2787SOL    MW411148   3.595   1.195   4.177 -0.2811  0.0569  0.1081
 2788SOL     OW11149   3.360   1.311   4.282  0.1642  0.1274  0.1388
 2788SOL    HW211150   3.290   1.267   4.234  0.3795  1.3036 -1.3019
 2788SOL    HW311151   3.352   1.403   4.257  1.6340  0.4189  0.6987
 2788SOL    MW411152   3.350   1.318   4.272  0.3866  0.3210  0.0226
 2789SOL     OW11153   0.908   0.722   4.524 -0.3877  0.1703 -0.3051
 2789SOL    HW211154   0.979   0.761   4.576  1.1858 -2.4309 -0.3807
 2789SOL    HW311155   0.913   0.767   4.440  2.0124 -0.8068 -0.7278
 2789SOL    MW411156   0.918   0.733   4.520  0.1366 -0.3018 -0.3708
 2790SOL     OW11157   1.366   4.023   4.325  0.0855 -0.0403  0.3334
 2790SOL    HW211158   1.439   3.991   4.272  0.0256 -0.9942  0.8119
 2790SOL    HW311159   1.359   4.116   4.303  1.2992  0.0048  0.1087
 2790SOL    MW411160   1.375   4.031   4.315  0.2377 -0.1602  0.3669
 2791SOL     OW11161   4.237   4.646   4.162 -0.2827 -0.2234  0.6484
 2791SOL    HW211162   4.312   4.690   4.202  0.1888 -0.1284 -0.3559
 2791SOL    HW311163   4.162   4.698   4.191  0.2102  0.8486  0.0408
 2791SOL    MW411164   4.237   4.658   4.171 -0.1554 -0.0694  0.4357
 2792SOL     OW11165   3.999   4.238   4.704 -0.5036  0.0891 -0.0228
 2792SOL    HW211166   3.924   4.250   4.645 -0.3305 -0.5377 -0.3745
 2792SOL    HW311167   3.960   4.236   4.792 -0.9000 -0.2722 -0.2058
 2792SOL    MW411168   3.984   4.240   4.708 -0.5330 -0.0412 -0.0933
 2793SOL     OW11169   2.486   0.809   4.860  0.1870 -0.0585  0.4906
 2793SOL    HW211170   2.515   0.887   4.813  2.1140  0.3956  2.3522
 2793SOL    HW311171   2.466   0.840   4.948 -0.9939 -1.3225  0.6800
 2793SOL    MW411172   2.487   0.823   4.865  0.2855 -0.1653  0.7612
 2794SOL     OW11173   2.910   1.342   4.531 -0.1228 -0.1069  0.4933
 2794SOL    HW211174   2.944   1.431   4.538  1.6293 -0.5805 -1.2045
 2794SOL    HW311175   2.914   1.323   4.437 -1.0027 -1.7606  0.7783
 2794SOL    MW411176   2.915   1.351   4.519 -0.0077 -0.3876  0.3069
 2795SOL     OW11177   0.423   1.694   4.268 -0.1015 -0.3671 -0.1282
 2795SOL    HW211178   0.417   1.782   4.231  1.2362  0.3010  1.1778
 2795SOL    HW311179   0.506   1.660   4.234  1.1746  0.2781  2.2331
 2795SOL    MW411180   0.433   1.701   4.259  0.2434 -0.1939  0.3557
 2796SOL     OW11181   4.050   1.666   4.302  0.2792 -0.0133  0.0080
 2796SOL    HW211182   4.129   1.629   4.261  1.2914  0.8908  1.0949
 2796SOL    HW311183   4.057   1.639   4.394 -1.0589 -0.5336 -0.0343
 2796SOL    MW411184   4.062   1.657   4.309  0.2362  0.0373  0.1458
 2797SOL     OW11185   2.546   3.289   4.492  0.2629  0.1632  0.0173
 2797SOL    HW211186   2.630   3.323   4.523  0.8870 -1.9445  0.7589
 2797SOL    HW311187   2.562   3.267   4.400  0.4195  0.1145  0.0561
 2797SOL    MW411188   2.559   3.291   4.484  0.3659 -0.1213  0.1202
 2798SOL     OW11189   1.241   4.429   4.662 -0.4896  0.5043  0.1077
 2798SOL    HW211190   1.330   4.427   4.628 -0.8572  1.0952 -0.8942
 2798SOL    HW311191   1.220   4.522   4.670 -0.5742  0.3722  1.5124
 2798SOL    MW411192   1.250   4.441   4.659 -0.5493  0.5648  0.1609
 2799SOL     OW11193   1.183   3.107   4.697 -0.3026  0.1408  0.2031
 2799SOL    HW211194   1.136   3.024   4.685 -0.2077  0.2887 -1.3378
 2799SOL    HW311195   1.114   3.172   4.712 -0.5236  0.1420 -0.7807
 2799SOL    MW411196   1.168   3.105   4.697 -0.3193  0.1605 -0.1300
 2800SOL     OW11197   0.048   4.033   4.274  0.0640  0.3646  0.4710
 2800SOL    HW211198  -0.033   3.982   4.273  0.9679 -1.0993  0.6581
 2800SOL    HW311199   0.087   4.014   4.360 -0.1007  2.2152  0.9858
 2800SOL    MW411200   0.042   4.024   4.285  0.1615  0.4156  0.5636
 2801SOL     OW11201   1.788   2.707   4.142 -0.3212 -0.1117 -0.5933
 2801SOL    HW211202   1.864   2.749   4.181 -0.8455  0.3950 -0.1103
 2801SOL    HW311203   1.791   2.617   4.174 -0.7335  0.2905  0.6054
 2801SOL    MW411204   1.798   2.700   4.151 -0.4448  0.0082 -0.3715
 2802SOL     OW11205   1.811   4.011   4.207  0.5389  0.7511  0.4525
 2802SOL    HW211206   1.822   4.099   4.172  0.0793  0.9487  0.7919
 2802SOL    HW311207   1.825   4.021   4.301 -0.0639  0.5690  0.5637
 2802SOL    MW411208   1.814   4.024   4.215  0.3988  0.7531  0.5119
 2803SOL     OW11209   3.622   2.723   4.186 -0.1012  0.0840 -0.2340
 2803SOL    HW211210   3.609   2.636   4.224 -0.7078  0.4947  0.5038
 2803SOL    HW311211   3.619   2.708   4.091 -1.5683 -0.5056 -0.1094
 2803SOL    MW411212   3.620   2.710   4.178 -0.3748  0.0604 -0.1202
 2804SOL     OW11213   0.649   2.043   4.289 -0.2878  0.1998 -0.1612
 2804SOL    HW211214   0.726   2.010   4.243 -1.4031 -0.2448 -1.7629
 2804SOL    HW311215   0.678   2.056   4.379  0.8676 -2.9035 -0.0196
 2804SOL    MW411216   0.663   2.040   4.295 -0.2825 -0.2683 -0.3538
 2805SOL     OW11217   2.246   1.127   4.160  0.0854 -0.0073 -0.1645
 2805SOL    HW211218   2.322   1.154   4.213 -0.4776 -1.2421  1.3068
 2805SOL    HW311219   2.222   1.042   4.195 -3.3408  1.3292  0.9060
 2805SOL    MW411220   2.253   1.120   4.172 -0.4409  0.0061  0.1709
 2806SOL     OW11221   2.397   3.662   4.501  0.1759 -0.5064  0.0231
 2806SOL    HW211222   2.359   3.581   4.534 -0.1722 -0.2747  0.1928
 2806SOL    HW311223   2.474   3.677   4.557  0.3142 -0.7852 -0.0909
 2806SOL    MW411224   2.402   3.653   4.513  0.1483 -0.5126  0.0304
 2807SOL     OW11225   4.058   4.257   4.208 -0.0269 -0.3661 -0.3329
 2807SOL    HW211226   4.075   4.170   4.244 -0.8670  0.2655  1.6513
 2807SOL    HW311227   4.137   4.307   4.228 -0.0464 -0.3252 -0.3591
 2807SOL    MW411228   4.070   4.252   4.216 -0.1403 -0.2774 -0.0746
 2808SOL     OW11229   2.869   3.261   4.831 -0.3851  0.6088  0.0954
 2808SOL    HW211230   2.775   3.273   4.841 -0.7228 -1.8136  0.2126
 2808SOL    HW311231   2.880   3.166   4.820  1.7774  1.1027 -2.6396
 2808SOL    MW411232   2.858   3.250   4.831 -0.1443  0.3543 -0.2500
 2809SOL     OW11233   0.685   2.637   4.572 -0.0293  0.0164 -0.1830
 2809SOL    HW211234   0.597   2.598   4.575 -0.3822  0.8813  0.7382
 2809SOL    HW311235   0.740   2.567   4.536 -1.2616 -0.2166 -1.6820
 2809SOL    MW411236   0.681   2.622   4.567 -0.2385  0.0998 -0.2593
 2810SOL     OW11237   1.813   2.914   4.597  0.0482 -0.1625 -0.2652
 2810SOL    HW211238   1.724   2.903   4.564 -0.2534 -0.0471  0.5018
 2810SOL    HW311239   1.838   3.002   4.569 -0.2112 -0.0598 -0.1745
 2810SOL    MW411240   1.805   2.924   4.589 -0.0258 -0.1337 -0.1520
 2811SOL     OW11241   2.449   2.229   4.125  0.1546 -0.3904  0.1261
 2811SOL    HW211242   2.379   2.273   4.173  1.2298  1.1909  0.2470
 2811SOL    HW311243   2.452   2.141   4.164 -0.7674  0.0020  1.1217
 2811SOL    MW411244   2.440   2.223   4.136  0.1748 -0.1300  0.2734
 2812SOL     OW11245   1.814   0.083   4.244 -0.1839  0.7067 -0.1310
 2812SOL    HW211246   1.904   0.056   4.223 -0.0207  0.4533  0.8856
 2812SOL    HW311247   1.811   0.084   4.339 -1.3931  0.3070 -0.1632
 2812SOL    MW411248   1.826   0.080   4.254 -0.3219  0.6205 -0.0011
 2813SOL     OW11249   2.009   0.232   4.656  0.2238  0.0847 -0.1743
 2813SOL    HW211250   2.034   0.237   4.748  1.6022 -1.5187 -0.4455
 2813SOL    HW311251   2.086   0.199   4.611 -0.9196 -0.6120 -1.6904
 2813SOL    MW411252   2.022   0.228   4.662  0.2548 -0.2188 -0.4101
 2814SOL     OW11253   0.928   2.436   4.227  0.0143 -0.1989  0.2930
 2814SOL    HW211254   0.995   2.388   4.180  0.7051  0.4458  0.6128
 2814SOL    HW311255   0.848   2.384   4.215  0.5037 -0.8127 -0.3251
 2814SOL    MW411256   0.926   2.423   4.219  0.1700 -0.1948  0.2536
 2815SOL     OW11257   3.189   1.722   4.265  0.4386 -0.1575 -0.2523
 2815SOL    HW211258   3.107   1.685   4.233  0.5047 -0.9790  0.5011
 2815SOL    HW311259   3.257   1.678   4.215  0.4258  0.4528 -0.8094
 2815SOL    MW411260   3.188   1.711   4.254  0.4457 -0.1854 -0.2264
 2816SOL     OW11261   3.577   0.417   4.222  0.2304 -0.2015 -0.6756
 2816SOL    HW211262   3.553   0.410   4.129  1.0539 -0.5708 -0.8718
 2816SOL    HW311263   3.576   0.326   4.253 -1.8207  0.0840  0.1559
 2816SOL    MW411264   3.574   0.404   4.214  0.0684 -0.2126 -0.5918
 2817SOL     OW11265   3.374   1.561   4.168  0.0608  0.2909  0.0686
 2817SOL    HW211266   3.398   1.556   4.076 -0.3508  0.1766 -0.0339
 2817SOL    HW311267   3.453   1.592   4.212  1.0717 -2.1386  0.0289
 2817SOL    MW411268   3.388   1.565   4.162  0.1399 -0.0448  0.0499
 2818SOL     OW11269   3.577   1.704   4.290 -0.2741 -0.0887  0.1747
 2818SOL    HW211270   3.598   1.731   4.380  0.8652 -1.3614  0.3140
 2818SOL    HW311271   3.652   1.650   4.263 -0.7737 -0.0142 -1.4140
 2818SOL    MW411272   3.590   1.700   4.299 -0.1897 -0.2468 -0.0165
 2819SOL     OW11273   2.258   1.930   4.614  0.3161  0.4191  0.4411
 2819SOL    HW211274   2.269   1.835   4.614 -0.3568  0.3407  0.7131
 2819SOL    HW311275   2.171   1.945   4.577 -0.1583  0.8519  1.6857
 2819SOL    MW411276   2.248   1.920   4.609  0.1648  0.4658  0.6412
 2820SOL     OW11277   3.882   3.878   4.200  0.3095 -0.2598  0.3945
 2820SOL    HW211278   3.875   3.799   4.253 -1.5173  0.0684  0.6733
 2820SOL    HW311279   3.957   3.925   4.236  2.0158 -2.3071 -0.3955
 2820SOL    MW411280   3.891   3.873   4.211  0.2936 -0.4866  0.3271
 2821SOL     OW11281   0.521   3.659   4.494 -0.2943 -0.0946 -0.1813
 2821SOL    HW211282   0.591   3.649   4.429  0.9932 -0.7295  1.2904
 2821SOL    HW311283   0.510   3.572   4.531 -1.2042  0.2143  0.2852
 2821SOL    MW411284   0.529   3.646   4.490 -0.2445 -0.1376  0.0744
 2822SOL     OW11285   4.218   4.494   4.639  0.3427  0.3310  0.1767
 2822SOL    HW211286   4.302   4.456   4.664  0.1578 -0.2252 -0.0372
 2822SOL    HW311287   4.156   4.421   4.647 -0.0132  0.5897 -0.2357
 2822SOL    MW411288   4.221   4.479   4.643  0.2714  0.2917  0.0941
 2823SOL     OW11289   2.958   3.979   4.816 -0.2330 -0.0284  0.2641
 2823SOL    HW211290   3.046   3.948   4.793 -0.7893 -0.2571 -1.6128
 2823SOL    HW311291   2.965   4.074   4.816  0.6514 -0.0379  2.7850
 2823SOL    MW411292   2.971   3.987   4.813 -0.1897 -0.0598  0.3491
 2824SOL     OW11293   1.005   1.172   4.490  0.2630  0.0337  0.4337
 2824SOL    HW211294   0.981   1.156   4.399  1.4084  0.5666  0.0383
 2824SOL    HW311295   1.020   1.085   4.527  0.0299 -0.1693  0.0514
 2824SOL    MW411296   1.003   1.158   4.483  0.3834  0.0772  0.3311
 2825SOL     OW11297   3.780   1.654   4.687 -0.1536  0.2048  0.0317
 2825SOL    HW211298   3.867   1.647   4.649 -0.0663 -0.9772  0.4256
 2825SOL    HW311299   3.791   1.625   4.778 -1.0276 -0.2759 -0.0130
 2825SOL    MW411300   3.793   1.649   4.694 -0.2574 -0.0145  0.0778
 2826SOL     OW11301   2.540   1.914   4.533 -0.5726 -0.0103 -0.3360
 2826SOL    HW211302   2.579   1.998   4.559 -1.9124  1.2250 -2.2069
 2826SOL    HW311303   2.450   1.919   4.566 -0.9249 -0.3315 -1.2536
 2826SOL    MW411304   2.534   1.926   4.541 -0.7958  0.1103 -0.7039
 2827SOL     OW11305   2.927   0.762   4.150 -0.0432  0.2556  0.1017
 2827SOL    HW211306   2.919   0.765   4.055 -0.7361  0.1720  0.1566
 2827SOL    HW311307   2.847   0.802   4.182  1.4296  2.9043  0.6455
 2827SOL    MW411308   2.916   0.768   4.142  0.0597  0.5940  0.1807
 2828SOL     OW11309   1.168   2.711   4.525 -0.0234 -0.3024  0.0442
 2828SOL    HW211310   1.118   2.772   4.580 -0.5342 -0.2845 -0.4316
 2828SOL    HW311311   1.258   2.743   4.531 -0.3834  0.9131 -0.7185
 2828SOL    MW411312   1.173   2.723   4.533 -0.1383 -0.1397 -0.1192
 2829SOL     OW11313   0.229   2.039   4.529  0.3918  0.1301  0.0737
 2829SOL    HW211314   0.152   2.090   4.552 -0.5250 -1.4984  0.7198
 2829SOL    HW311315   0.233   2.042   4.433 -0.7661 -0.1808  0.0111
 2829SOL    MW411316   0.220   2.046   4.519  0.1181 -0.1258  0.1507
 2830SOL     OW11317   2.056   2.821   4.537 -0.0192  0.5696  0.2087
 2830SOL    HW211318   2.102   2.905   4.547 -1.4629  1.4574 -0.4489
 2830SOL    HW311319   1.971   2.836   4.577  0.4068 -1.2132  1.8437
 2830SOL    MW411320   2.051   2.834   4.544 -0.1534  0.4515  0.3376
 2831SOL     OW11321   2.323   1.662   4.526 -0.1889  0.0174  0.0257
 2831SOL    HW211322   2.381   1.586   4.526 -0.1056  0.0669  2.0452
 2831SOL    HW311323   2.301   1.675   4.433  2.9293 -0.0382 -0.7693
 2831SOL    MW411324   2.328   1.654   4.513  0.2335  0.0166  0.1873
 2832SOL     OW11325   1.082   0.932   4.606  0.1754  0.2333 -0.2842
 2832SOL    HW211326   1.108   0.931   4.699  0.7487 -0.7086 -0.4439
 2832SOL    HW311327   1.165   0.930   4.559 -0.1313  0.1182 -0.8143
 2832SOL    MW411328   1.097   0.932   4.612  0.2106  0.0939 -0.3752
 2833SOL     OW11329   3.379   3.882   4.156 -0.1384 -0.2202 -0.1339
 2833SOL    HW211330   3.373   3.789   4.177 -2.0832 -0.0386  0.2546
 2833SOL    HW311331   3.399   3.885   4.063 -1.8307 -1.0513 -0.5459
 2833SOL    MW411332   3.381   3.870   4.147 -0.6183 -0.3059 -0.1370
 2834SOL     OW11333   3.852   2.867   4.271  0.0296  0.3254  0.6252
 2834SOL    HW211334   3.783   2.812   4.233  0.6856 -0.7098  0.9064
 2834SOL    HW311335   3.844   2.853   4.366  1.7321 -1.1965  0.5891
 2834SOL    MW411336   3.842   2.858   4.279  0.3408 -0.0120  0.6576
 2835SOL     OW11337   3.753   2.075   4.498 -0.2165 -0.1282  0.0639
 2835SOL    HW211338   3.834   2.110   4.536 -0.4826  1.5105 -0.8531
 2835SOL    HW311339   3.773   2.062   4.405 -0.9724  0.1812 -0.1457
 2835SOL    MW411340   3.767   2.077   4.491 -0.3513  0.1288 -0.0848
 2836SOL     OW11341   3.423   4.650   4.802 -0.0136 -0.1482 -0.2115
 2836SOL    HW211342   3.347   4.705   4.781  0.3431  0.6154  0.4797
 2836SOL    HW311343   3.467   4.696   4.873  1.2399 -0.4645 -0.7680
 2836SOL    MW411344   3.419   4.664   4.808  0.1989 -0.0892 -0.1937
 2837SOL     OW11345   0.229   3.886   4.129  0.1143  0.1426 -0.3992
 2837SOL    HW211346   0.150   3.923   4.167  0.5480 -0.1276  0.7976
 2837SOL    HW311347   0.298   3.906   4.193  0.9243 -0.0345 -1.2018
 2837SOL    MW411348   0.228   3.894   4.143  0.2784  0.0836 -0.3472
 2838SOL     OW11349   4.366   0.781   4.590 -0.0591 -0.2998  0.7041
 2838SOL    HW211350   4.275   0.774   4.562 -0.7949  1.0090  2.6942
 2838SOL    HW311351   4.396   0.690   4.598 -0.8459 -0.7227 -0.9776
 2838SOL    MW411352   4.358   0.768   4.588 -0.2600 -0.1829  0.7448
 2839SOL     OW11353   2.660   3.501   4.147  0.3141 -0.2521 -0.0762
 2839SOL    HW211354   2.734   3.550   4.182  0.8131  0.7214 -2.4036
 2839SOL    HW311355   2.583   3.545   4.183  0.8178  0.6600 -0.0898
 2839SOL    MW411356   2.660   3.513   4.156  0.4464 -0.0033 -0.3851
 2840SOL     OW11357   3.070   4.391   4.502  0.1578  0.3011  0.4205
 2840SOL    HW211358   3.166   4.389   4.500  0.1714  0.3023  0.8879
 2840SOL    HW311359   3.044   4.384   4.410  0.5994  0.0183  0.3126
 2840SOL    MW411360   3.079   4.390   4.490  0.2179  0.2639  0.4679
 2841SOL     OW11361   2.894   3.656   4.256 -0.2424 -0.1652  0.2963
 2841SOL    HW211362   2.891   3.649   4.352  0.3826  1.1352  0.4199
 2841SOL    HW311363   2.979   3.621   4.232 -0.2361 -0.1162  0.2478
 2841SOL    MW411364   2.905   3.651   4.265 -0.1591  0.0128  0.3062
 2842SOL     OW11365   0.064   3.437   4.105  0.6328  0.4424 -0.4256
 2842SOL    HW211366   0.129   3.506   4.119 -0.2459  0.9287  1.2697
 2842SOL    HW311367   0.035   3.450   4.015 -0.3460  2.9967  0.2192
 2842SOL    MW411368   0.069   3.448   4.095  0.3877  0.8436 -0.1168
 2843SOL     OW11369   3.150   1.956   4.115 -0.2569 -0.1866 -0.3956
 2843SOL    HW211370   3.151   1.867   4.150  0.6076 -0.8307 -1.9815
 2843SOL    HW311371   3.213   2.004   4.168  0.0096 -0.7773 -0.1756
 2843SOL    MW411372   3.158   1.950   4.127 -0.1077 -0.3495 -0.5759
 2844SOL     OW11373   4.152   2.788   4.528  0.3968 -0.4777 -0.2099
 2844SOL    HW211374   4.204   2.709   4.541 -0.4704 -0.9960  0.1745
 2844SOL    HW311375   4.179   2.822   4.443  0.5768 -1.3381 -0.4945
 2844SOL    MW411376   4.163   2.782   4.519  0.3061 -0.6596 -0.1968
 2845SOL     OW11377   0.493   3.277   4.302  0.0104  0.0955 -0.1958
 2845SOL    HW211378   0.556   3.217   4.263  0.8596  1.4810 -1.0057
 2845SOL    HW311379   0.484   3.347   4.237 -2.1955  0.0322  0.0112
 2845SOL    MW411380   0.500   3.278   4.288 -0.1686  0.2700 -0.2753
 2846SOL     OW11381   3.193   2.964   4.685 -0.3852  0.0217  0.4200
 2846SOL    HW211382   3.239   2.900   4.631 -1.1674  0.7724 -1.2122
 2846SOL    HW311383   3.253   3.039   4.690  0.2773 -0.6030  1.8083
 2846SOL    MW411384   3.207   2.966   4.678 -0.4010  0.0383  0.3878
 2847SOL     OW11385   2.214   3.187   4.261 -0.0494 -0.2578 -0.1766
 2847SOL    HW211386   2.220   3.275   4.224 -0.0420  0.1635  0.7959
 2847SOL    HW311387   2.147   3.143   4.209 -0.3996  0.4851 -0.3666
 2847SOL    MW411388   2.206   3.193   4.250 -0.0947 -0.1042 -0.0734
 2848SOL     OW11389   2.436   0.619   4.634  0.7222 -0.2169 -0.1893
 2848SOL    HW211390   2.357   0.646   4.588  1.0847 -1.5222 -1.6362
 2848SOL    HW311391   2.425   0.651   4.724 -1.2078  0.0383 -0.5120
 2848SOL    MW411392   2.424   0.626   4.640  0.5154 -0.3555 -0.4228
 2849SOL     OW11393   3.669   1.440   4.521 -0.5119 -0.2752  0.1416
 2849SOL    HW211394   3.580   1.410   4.541 -0.1237 -0.7672  1.1410
 2849SOL    HW311395   3.688   1.505   4.588 -0.2292  0.0468 -0.2499
 2849SOL    MW411396   3.660   1.444   4.532 -0.4234 -0.2977  0.2218
 2850SOL     OW11397   1.381   3.996   4.596 -0.2125  0.1230  0.2112
 2850SOL    HW211398   1.381   4.000   4.501  0.0069  0.1793  0.2145
 2850SOL    HW311399   1.381   3.902   4.616 -1.0103  0.1075  0.1532
 2850SOL    MW411400   1.381   3.984   4.586 -0.2888  0.1284  0.2040
 2851SOL     OW11401   3.363   3.195   4.727 -0.4505  0.3247  0.3183
 2851SOL    HW211402   3.434   3.244   4.686  0.1671 -0.3981  0.4992
 2851SOL    HW311403   3.297   3.260   4.747  0.2453  1.0405  0.3134
 2851SOL    MW411404   3.364   3.210   4.724 -0.2772  0.3237  0.3415
 2852SOL     OW11405   0.877   1.343   4.669 -0.5779  0.0167  0.5072
 2852SOL    HW211406   0.921   1.274   4.619  1.0262  1.9489 -0.8073
 2852SOL    HW311407   0.822   1.387   4.604  0.5641  1.7555  0.7136
 2852SOL    MW411408   0.876   1.340   4.654 -0.2156  0.5011  0.3610
 2853SOL     OW11409   2.677   4.030   4.200 -0.0879 -0.1519 -0.1689
 2853SOL    HW211410   2.763   3.991   4.182  0.1637  0.1292  0.3885
 2853SOL    HW311411   2.687   4.122   4.175 -0.4306 -0.2603 -0.7170
 2853SOL    MW411412   2.690   4.037   4.194 -0.0999 -0.1291 -0.1677
 2854SOL     OW11413   3.547   4.045   4.504  0.3196 -0.4129 -0.0257
 2854SOL    HW211414   3.573   3.962   4.544  0.2104 -0.4267  0.0175
 2854SOL    HW311415   3.569   4.035   4.412  1.5785  0.0353  0.2249
 2854SOL    MW411416   3.553   4.032   4.497  0.4713 -0.3556  0.0131
 2855SOL     OW11417   3.148   0.821   4.548 -0.2122  0.1259 -0.5796
 2855SOL    HW211418   3.136   0.904   4.594  1.3054 -0.2129  0.4423
 2855SOL    HW311419   3.160   0.846   4.457 -1.4462  0.9125 -0.5453
 2855SOL    MW411420   3.148   0.835   4.542 -0.1748  0.1850 -0.4403
 2856SOL     OW11421   3.268   3.992   4.523 -0.0094 -0.0012  0.1406
 2856SOL    HW211422   3.360   4.013   4.510 -0.5189  1.2937 -1.3988
 2856SOL    HW311423   3.226   4.012   4.440 -1.4981 -1.7238  0.4337
 2856SOL    MW411424   3.274   3.997   4.511 -0.2731 -0.0576 -0.0238
 2857SOL     OW11425   0.571   3.326   4.553 -0.0701  0.3907 -0.0293
 2857SOL    HW211426   0.488   3.363   4.584 -0.3033 -0.1646  0.0092
 2857SOL    HW311427   0.557   3.311   4.460 -0.2811 -0.4279  0.1307
 2857SOL    MW411428   0.558   3.329   4.545 -0.1287  0.2094 -0.0031
 2858SOL     OW11429   0.346   0.928   4.516  0.0251  0.4121  0.2595
 2858SOL    HW211430   0.384   0.902   4.432  1.2063  1.6539  0.3860
 2858SOL    HW311431   0.373   1.019   4.527 -2.4436  1.1421  0.6861
 2858SOL    MW411432   0.355   0.937   4.506 -0.1448  0.6722  0.3325
 2859SOL     OW11433   4.299   4.402   4.318  0.2965  0.0246  0.4602
 2859SOL    HW211434   4.272   4.473   4.261  0.1948  0.6406  1.2638
 2859SOL    HW311435   4.360   4.350   4.265  0.3990  0.7268 -0.1172
 2859SOL    MW411436   4.304   4.404   4.304  0.2966  0.1985  0.4900
 2860SOL     OW11437   4.379   3.057   4.690 -0.1976 -0.1616  0.0957
 2860SOL    HW211438   4.408   3.037   4.779  1.0200 -1.0933 -0.5037
 2860SOL    HW311439   4.285   3.038   4.691 -0.4324  0.9203  1.4801
 2860SOL    MW411440   4.370   3.052   4.702 -0.0679 -0.1417  0.1993
 2861SOL     OW11441   3.383   2.870   4.267  0.6080 -0.1982 -0.1384
 2861SOL    HW211442   3.466   2.825   4.250  0.2164 -0.9306 -0.1296
 2861SOL    HW311443   3.367   2.856   4.361  0.1755 -0.5760 -0.2662
 2861SOL    MW411444   3.391   2.862   4.277  0.4992 -0.3447 -0.1541
 2862SOL     OW11445   1.362   2.032   4.605 -0.1074  0.1338 -0.0281
 2862SOL    HW211446   1.290   2.095   4.606  0.0245  0.2994  2.1413
 2862SOL    HW311447   1.320   1.948   4.622  0.0144 -0.0243 -0.4974
 2862SOL    MW411448   1.347   2.029   4.607 -0.0740  0.1348  0.1962
 2863SOL     OW11449   0.847   4.260   4.137 -0.7434  0.2630  0.1880
 2863SOL    HW211450   0.778   4.299   4.191 -0.9423  0.0893  0.0584
 2863SOL    HW311451   0.875   4.182   4.185 -0.8372  0.1747  0.0989
 2863SOL    MW411452   0.841   4.255   4.150 -0.7820  0.2285  0.1591
 2864SOL     OW11453   3.960   4.604   4.664  0.3124  0.1587  0.0975
 2864SOL    HW211454   3.946   4.692   4.701  0.0570 -0.3345  1.1880
 2864SOL    HW311455   4.055   4.596   4.656  0.3200  0.6717 -0.3286
 2864SOL    MW411456   3.970   4.615   4.668  0.2797  0.1613  0.1851
 2865SOL     OW11457   2.618   2.138   4.701 -0.2005 -0.3336 -0.0557
 2865SOL    HW211458   2.683   2.086   4.747  0.6427  0.4778 -0.2974
 2865SOL    HW311459   2.669   2.208   4.659 -1.3276  0.8170  0.4611
 2865SOL    MW411460   2.634   2.141   4.701 -0.2380 -0.0747 -0.0194
 2866SOL     OW11461   1.597   4.626   4.133 -0.9015  0.0725 -0.3670
 2866SOL    HW211462   1.602   4.539   4.172 -1.2628  0.3811  0.3789
 2866SOL    HW311463   1.680   4.668   4.157 -0.1379 -0.5453 -1.8957
 2866SOL    MW411464   1.609   4.620   4.142 -0.8484  0.0317 -0.4703
 2867SOL     OW11465   2.432   3.678   4.870 -0.1501  0.6059  0.3235
 2867SOL    HW211466   2.501   3.682   4.803 -0.8405  0.4535 -0.4086
 2867SOL    HW311467   2.475   3.708   4.950  1.0335 -0.4173  0.0963
 2867SOL    MW411468   2.447   3.682   4.872 -0.0850  0.4508  0.1969
 2868SOL     OW11469   4.061   3.751   4.670  0.6070 -0.1851  0.2459
 2868SOL    HW211470   4.126   3.689   4.636 -0.6086 -1.2629 -0.1976
 2868SOL    HW311471   4.052   3.727   4.762 -0.2868 -1.0843 -0.0606
 2868SOL    MW411472   4.068   3.739   4.678  0.3287 -0.4460  0.1469
 2869SOL     OW11473   4.483   1.685   4.274  0.3363  0.0051 -0.1903
 2869SOL    HW211474   4.562   1.641   4.241 -0.9143 -2.4195 -0.1137
 2869SOL    HW311475   4.411   1.630   4.243 -1.1768  0.7409  1.9081
 2869SOL    MW411476   4.484   1.672   4.265 -0.0283 -0.2177  0.0967
 2870SOL     OW11477   3.386   4.453   4.207 -0.1552  0.3784 -0.3780
 2870SOL    HW211478   3.356   4.430   4.296  1.1228  1.4439  0.3344
 2870SOL    HW311479   3.458   4.393   4.190  0.1477  0.7393 -0.3657
 2870SOL    MW411480   3.391   4.442   4.217  0.0534  0.5666 -0.2824
 2871SOL     OW11481   1.821   3.196   4.256  0.3115  0.2298  0.4011
 2871SOL    HW211482   1.844   3.196   4.349 -1.7102  0.7576  0.9152
 2871SOL    HW311483   1.804   3.287   4.235  1.0310  0.1524 -0.5720
 2871SOL    MW411484   1.822   3.208   4.266  0.1397  0.2892  0.3406
 2872SOL     OW11485   1.858   4.018   4.487 -0.4274 -0.0143  0.1830
 2872SOL    HW211486   1.796   4.032   4.558 -0.3866 -0.7657  0.3726
 2872SOL    HW311487   1.900   3.934   4.508  0.1982  0.1819 -0.2709
 2872SOL    MW411488   1.856   4.009   4.499 -0.3394 -0.0876  0.1481
 2873SOL     OW11489   2.054   1.173   4.728 -0.0447 -0.5904 -0.2087
 2873SOL    HW211490   2.084   1.124   4.652  0.2318  0.8851 -1.0621
 2873SOL    HW311491   2.014   1.107   4.785  2.3189 -2.1606 -0.2919
 2873SOL    MW411492   2.052   1.158   4.726  0.3036 -0.6029 -0.3322
 2874SOL     OW11493   3.295   0.584   4.575 -0.0550 -0.5776  0.1305
 2874SOL    HW211494   3.379   0.605   4.615  0.1426 -0.0453 -0.5614
 2874SOL    HW311495   3.244   0.664   4.584  0.3731 -0.0794 -1.6735
 2874SOL    MW411496   3.299   0.597   4.581  0.0275 -0.4417 -0.1988
 2875SOL     OW11497   3.432   0.042   4.133 -0.1058 -0.2541  0.0694
 2875SOL    HW211498   3.419  -0.049   4.161  0.5568 -0.1748  0.6366
 2875SOL    HW311499   3.494   0.078   4.196  0.9987  0.0763 -1.1860
 2875SOL    MW411500   3.438   0.035   4.145  0.1273 -0.2001 -0.0214
 2876SOL     OW11501   3.771   0.498   4.549 -0.3078  0.6497 -0.5117
 2876SOL    HW211502   3.800   0.508   4.458  1.5148  1.1289  0.1002
 2876SOL    HW311503   3.798   0.578   4.592 -2.7577  1.2117  0.0913
 2876SOL    MW411504   3.778   0.510   4.542 -0.3906  0.7871 -0.3514
 2877SOL     OW11505   2.446   1.275   4.283  0.5305  0.1109  0.2788
 2877SOL    HW211506   2.532   1.234   4.269  0.2491 -0.1485 -0.7736
 2877SOL    HW311507   2.448   1.354   4.229 -0.5761 -0.8936 -1.2837
 2877SOL    MW411508   2.458   1.280   4.274  0.3474 -0.0559 -0.0662
 2878SOL     OW11509   3.459   3.823   4.850 -0.2413  0.4525  0.0839
 2878SOL    HW211510   3.363   3.826   4.844 -0.3646 -1.9033  0.5136
 2878SOL    HW311511   3.482   3.897   4.906 -1.6082  2.4519 -1.9004
 2878SOL    MW411512   3.449   3.833   4.856 -0.4379  0.4055 -0.1212
 2879SOL     OW11513   4.490   2.459   4.538 -0.1986 -0.2145 -0.4355
 2879SOL    HW211514   4.555   2.522   4.569 -2.4688  1.5218  0.9694
 2879SOL    HW311515   4.496   2.463   4.443  2.1348 -0.5489 -0.3366
 2879SOL    MW411516   4.500   2.468   4.530 -0.1903 -0.0295 -0.2371
 2880SOL     OW11517   2.957   1.595   4.190  0.2750 -0.1355  0.0901
 2880SOL    HW211518   2.934   1.502   4.194 -0.2680 -0.0667 -1.0352
 2880SOL    HW311519   2.873   1.640   4.199  0.4706  0.2318  0.0748
 2880SOL    MW411520   2.943   1.588   4.192  0.2292 -0.0780 -0.0604
 2881SOL     OW11521   0.444   0.666   4.603  0.0337  0.1542  0.1902
 2881SOL    HW211522   0.407   0.754   4.599 -1.1813 -0.2851  1.4802
 2881SOL    HW311523   0.369   0.609   4.620  1.0329 -0.9734  0.9092
 2881SOL    MW411524   0.429   0.670   4.605  0.0052 -0.0525  0.4553
   4.49070   4.66690  10.00000
