Gromacs Runs On Most of All Computer Systems in water
11764
    1DMSO    SD    1   3.404   0.312   4.923 -0.3197 -0.5193  0.0686
    1DMSO   CD1    2   3.265   0.267   5.030 -0.1711  0.3094  0.4892
    1DMSO    OD    3   3.523   0.229   4.968  0.0398  0.8627 -0.4384
    1DMSO   CD2    4   3.341   0.244   4.771 -0.5647 -0.9351 -0.8892
    2DMSO    SD    5   0.765   2.070   4.456 -0.1428  0.0286  0.3979
    2DMSO   CD1    6   0.611   1.992   4.517  0.0496 -0.4964  0.3454
    2DMSO    OD    7   0.745   2.222   4.486  0.1677 -0.4817  0.0335
    2DMSO   CD2    8   0.875   2.004   4.578  0.5141 -0.2268  0.3365
    3DMSO    SD    9   3.398   1.964   4.791 -0.0613 -0.3362  0.0253
    3DMSO   CD1   10   3.338   2.134   4.803 -0.6255  0.1330  0.0758
    3DMSO    OD   11   3.466   1.933   4.926  0.0505  0.4226 -0.5050
    3DMSO   CD2   12   3.236   1.882   4.804  0.2323 -0.4843  0.3181
    4DMSO    SD   13   0.065   3.315   4.308  0.0172 -0.0172  0.0468
    4DMSO   CD1   14  -0.064   3.374   4.415  0.0068  0.0111  0.5904
    4DMSO    OD   15   0.176   3.257   4.392 -0.4489 -0.0815 -0.3408
    4DMSO   CD2   16  -0.025   3.184   4.229 -0.5836  0.1149  0.4003
    5DMSO    SD   17   1.624   2.436   4.991  0.0598 -0.1066 -0.0314
    5DMSO   CD1   18   1.792   2.493   4.962  0.1449  0.0410 -0.1213
    5DMSO    OD   19   1.542   2.456   4.863 -0.0390  0.0546 -0.5237
    5DMSO   CD2   20   1.662   2.260   5.002  0.2900 -0.0160  0.1871
    6DMSO    SD   21   3.990   1.762   4.530 -0.3291  0.1971  0.1340
    6DMSO   CD1   22   4.110   1.886   4.474 -0.6054  0.2122  0.8170
    6DMSO    OD   23   4.030   1.632   4.467 -0.4807  0.4578 -0.4987
    6DMSO   CD2   24   4.048   1.756   4.704 -0.1800  0.1369  0.3395
    7DMSO    SD   25   4.021   2.453   4.632 -0.3027  0.2155  0.1036
    7DMSO   CD1   26   4.021   2.563   4.776 -0.2378 -0.1938  0.1008
    7DMSO    OD   27   3.962   2.529   4.513 -0.3580  0.5107  0.3128
    7DMSO   CD2   28   4.199   2.450   4.610  0.1746 -1.1323 -0.0650
    8DMSO    SD   29   0.298   3.773   4.511 -0.1344  0.1029 -0.2991
    8DMSO   CD1   30   0.413   3.634   4.529 -0.0390  0.0660 -0.0027
    8DMSO    OD   31   0.174   3.720   4.434  0.2643 -0.0605 -0.1415
    8DMSO   CD2   32   0.248   3.781   4.681  0.1434 -0.0831 -0.0717
    9DMSO    SD   33   1.278   0.107   4.853  0.2040 -0.0243 -0.0483
    9DMSO   CD1   34   1.230   0.252   4.763 -0.3039 -0.3892 -0.3168
    9DMSO    OD   35   1.262  -0.017   4.760  0.5178 -0.3637  0.1284
    9DMSO   CD2   36   1.450   0.138   4.875 -0.4317  0.0753  0.6755
   10DMSO    SD   37   2.019   1.802   4.864 -0.1282  0.0961 -0.0429
   10DMSO   CD1   38   2.041   1.773   5.044  0.0550  0.0809 -0.2354
   10DMSO    OD   39   1.912   1.908   4.853 -0.2480 -0.1293  0.0299
   10DMSO   CD2   40   2.181   1.886   4.842  0.4349  0.6988  0.2303
   11DMSO    SD   41   0.799   2.186   4.863 -0.0429 -0.1107 -0.0326
   11DMSO   CD1   42   0.836   2.289   5.001 -0.0407 -0.5766 -0.7261
   11DMSO    OD   43   0.782   2.045   4.911  0.3978  0.4555  0.3044
   11DMSO   CD2   44   0.628   2.251   4.837 -0.0630  0.2980  0.5283
   12DMSO    SD   45   4.168   0.329   4.790 -0.3066 -0.0693 -0.1362
   12DMSO   CD1   46   4.120   0.450   4.664  0.7380 -0.0292 -0.0114
   12DMSO    OD   47   4.315   0.349   4.817  0.6814 -0.6163 -0.4439
   12DMSO   CD2   48   4.084   0.409   4.932  0.5949 -0.3278 -0.0615
   13DMSO    SD   49   1.809   4.234   4.651  0.2884  0.0459 -0.4917
   13DMSO   CD1   50   1.940   4.241   4.774 -0.1539  0.0766  0.0207
   13DMSO    OD   51   1.730   4.361   4.664  0.4846  0.5210 -0.0973
   13DMSO   CD2   52   1.916   4.256   4.505  0.6239 -0.0554  0.6111
   14DMSO    SD   53   0.766   0.138   4.739  0.0737 -0.1733 -0.3054
   14DMSO   CD1   54   0.829   0.186   4.899  0.3684 -0.2303  0.3379
   14DMSO    OD   55   0.830   0.008   4.694 -0.0397 -0.1329 -0.1645
   14DMSO   CD2   56   0.599   0.089   4.788 -0.4044  0.0146  0.0558
   15DMSO    SD   57   3.320   1.076   4.954  0.3255 -0.0439 -0.2137
   15DMSO   CD1   58   3.306   0.947   5.080  0.5147  0.1969  0.1933
   15DMSO    OD   59   3.456   1.150   4.979 -0.1420 -0.2302 -0.3329
   15DMSO   CD2   60   3.344   0.968   4.817 -0.4128 -0.5578  0.0854
   16DMSO    SD   61   1.447   1.043   4.908  0.0884 -0.0693 -0.2083
   16DMSO   CD1   62   1.421   0.868   4.880 -0.0154 -0.0626 -0.0424
   16DMSO    OD   63   1.456   1.108   4.768 -0.8797  0.2821 -0.4462
   16DMSO   CD2   64   1.293   1.081   4.982  0.6292 -0.1356  0.0129
   17DMSO    SD   65   2.310   4.522   4.784  0.3405 -0.2910  0.0608
   17DMSO   CD1   66   2.469   4.473   4.845 -0.4494 -0.3223 -0.1664
   17DMSO    OD   67   2.285   4.453   4.649 -0.1102 -0.4175 -0.6870
   17DMSO   CD2   68   2.208   4.433   4.901  0.1566 -0.7610  0.2367
   18DMSO    SD   69   4.147   0.010   4.518 -0.0060 -0.1371 -0.1330
   18DMSO   CD1   70   3.998   0.091   4.583  0.5835  0.3926 -0.1092
   18DMSO    OD   71   4.222  -0.050   4.637 -0.1977 -0.5785 -0.5456
   18DMSO   CD2   72   4.059  -0.126   4.438 -0.2413 -0.1662 -0.1810
   19DMSO    SD   73   4.374   1.484   4.675  0.1383  0.0969  0.6610
   19DMSO   CD1   74   4.417   1.553   4.519  0.1462  0.0895  0.2291
   19DMSO    OD   75   4.245   1.401   4.657  0.3972 -0.8086 -0.5337
   19DMSO   CD2   76   4.510   1.366   4.691 -0.1829 -0.5930  0.0601
   20DMSO    SD   77   3.096   2.090   4.463  0.2455  0.0237  0.6860
   20DMSO   CD1   78   3.037   2.175   4.612 -0.3021  0.0377 -0.5879
   20DMSO    OD   79   3.206   1.992   4.509 -0.3942 -0.2870  0.0545
   20DMSO   CD2   80   2.949   1.983   4.439  0.2065  0.2371 -0.1742
   21DMSO    SD   81   4.104   0.822   4.887 -0.0701 -0.4377  0.2692
   21DMSO   CD1   82   4.193   0.832   5.044 -0.4293 -0.4387  0.0744
   21DMSO    OD   83   3.995   0.715   4.907  0.1408 -0.4455 -0.2222
   21DMSO   CD2   84   4.015   0.982   4.904  0.1118 -0.5604  0.0182
   22DMSO    SD   85   2.423   1.521   4.975  0.3478  0.1203  0.0964
   22DMSO   CD1   86   2.330   1.430   4.851 -0.3898  0.1075  0.6072
   22DMSO    OD   87   2.381   1.667   4.965  0.0210 -0.2010  0.1368
   22DMSO   CD2   88   2.340   1.450   5.117  0.1742 -0.0062  0.0340
   23DMSO    SD   89   0.181   1.685   4.881  0.0781 -0.3730  0.3278
   23DMSO   CD1   90   0.335   1.607   4.947  0.4072  0.0417  0.6436
   23DMSO    OD   91   0.068   1.634   4.970  0.2460 -0.2172  0.2451
   23DMSO   CD2   92   0.226   1.852   4.936 -0.4630 -0.1903 -0.4965
   24DMSO    SD   93   3.847   3.098   4.556 -0.1798  0.1428 -0.2199
   24DMSO   CD1   94   3.725   3.227   4.595  0.0278  0.0324  0.4269
   24DMSO    OD   95   3.980   3.171   4.527  0.7282 -0.0748 -0.0701
   24DMSO   CD2   96   3.858   3.025   4.718 -0.2409  0.2447  0.1842
   25DMSO    SD   97   2.231   4.035   4.766 -0.1452 -0.4942 -0.1204
   25DMSO   CD1   98   2.258   3.865   4.777 -0.1735  0.2994  0.1415
   25DMSO    OD   99   2.159   4.090   4.890 -0.1341  0.0116  0.4333
   25DMSO   CD2  100   2.408   4.086   4.789  0.5387  0.3590  0.0370
   26DMSO    SD  101   1.880   3.813   5.088  0.1268  0.1549 -0.1765
   26DMSO   CD1  102   2.037   3.897   5.120  0.4139  0.2376 -0.6532
   26DMSO    OD  103   1.802   3.898   4.992 -0.3440  0.0639 -0.0996
   26DMSO   CD2  104   1.945   3.678   4.992  0.1176  0.0839  0.3142
   27DMSO    SD  105   4.297   3.888   4.495 -0.0226  0.4264  0.2721
   27DMSO   CD1  106   4.272   3.978   4.645  0.0691  0.0428  0.4062
   27DMSO    OD  107   4.450   3.884   4.468  0.2724 -0.1613 -0.2346
   27DMSO   CD2  108   4.249   3.725   4.548  0.4279  1.1997  0.6072
   28DMSO    SD  109   2.469   2.892   4.526 -0.1963  0.1623  0.1689
   28DMSO   CD1  110   2.534   2.894   4.695  0.3313 -0.3159 -0.3570
   28DMSO    OD  111   2.405   3.030   4.502 -0.2683 -0.4515  0.1251
   28DMSO   CD2  112   2.625   2.887   4.440  0.3455 -0.6611  0.3159
   29DMSO    SD  113   3.425   4.584   4.937  0.1194  0.3911  0.3131
   29DMSO   CD1  114   3.579   4.581   4.843  0.0913 -0.1188 -0.1231
   29DMSO    OD  115   3.315   4.603   4.831  0.4596  0.7273 -0.3225
   29DMSO   CD2  116   3.418   4.413   4.984 -0.8184 -0.0706 -0.1579
   30DMSO    SD  117   3.454   2.377   5.045  0.0832  0.0280 -0.2959
   30DMSO   CD1  118   3.527   2.470   5.183 -0.1230  0.2949 -0.4441
   30DMSO    OD  119   3.380   2.478   4.953 -0.4950 -0.0920 -0.2064
   30DMSO   CD2  120   3.608   2.344   4.960  0.4960  0.1880 -0.5112
   31DMSO    SD  121   3.432   1.267   4.569  0.2533  0.0686 -0.0243
   31DMSO   CD1  122   3.289   1.379   4.562 -0.7199 -0.1974 -0.2123
   31DMSO    OD  123   3.387   1.133   4.516 -0.2430  0.4640  0.1999
   31DMSO   CD2  124   3.536   1.349   4.455  0.5804 -0.0472 -0.1538
   32DMSO    SD  125   4.229   1.743   5.001  0.2606 -0.3528 -0.1885
   32DMSO   CD1  126   4.282   1.607   5.093  0.3773 -0.4391 -0.4096
   32DMSO    OD  127   4.102   1.803   5.054  0.1430  0.0461  0.3100
   32DMSO   CD2  128   4.362   1.857   5.025  0.4124 -0.4270 -0.4403
   33DMSO    SD  129   2.845   1.760   5.208 -0.0731 -0.0732  0.1998
   33DMSO   CD1  130   2.942   1.614   5.242  0.1887  0.0742 -0.2182
   33DMSO    OD  131   2.879   1.806   5.063  0.4101 -0.2924 -0.0074
   33DMSO   CD2  132   2.684   1.679   5.188 -0.0023  0.1893 -0.0105
   34DMSO    SD  133   1.223   3.971   4.878 -0.3147 -0.0389 -0.1024
   34DMSO   CD1  134   1.265   4.144   4.897 -0.7843  0.1155  0.3227
   34DMSO    OD  135   1.322   3.898   4.969  0.5905  0.2798  0.3742
   34DMSO   CD2  136   1.069   3.980   4.969  0.0203 -0.8991 -0.2293
   35DMSO    SD  137   1.498   3.166   4.864  0.3468 -0.2011  0.0104
   35DMSO   CD1  138   1.399   3.302   4.918  0.1080 -0.3513  0.1431
   35DMSO    OD  139   1.640   3.181   4.909  0.2322 -0.5653  0.3614
   35DMSO   CD2  140   1.420   3.036   4.966  0.0610  0.0926 -0.1273
   36DMSO    SD  141   0.096   0.607   4.818 -0.1492  0.4168  0.2670
   36DMSO   CD1  142  -0.020   0.654   4.691  0.1485  0.0957 -0.2791
   36DMSO    OD  143   0.220   0.691   4.804  0.8480  0.1543  0.2662
   36DMSO   CD2  144   0.006   0.662   4.961  0.0812  0.2231 -0.4388
   37DMSO    SD  145   4.271   4.622   4.990 -0.0339 -0.4553 -0.0549
   37DMSO   CD1  146   4.259   4.528   5.144  0.2482  0.2874  0.3892
   37DMSO    OD  147   4.165   4.728   4.995 -0.3483 -0.2260 -0.5669
   37DMSO   CD2  148   4.428   4.697   5.013 -0.0193  0.3914  0.2030
   38DMSO    SD  149   3.061   0.569   4.824  0.0665 -0.1939 -0.0296
   38DMSO   CD1  150   2.900   0.604   4.889 -0.0072 -0.1682  0.4085
   38DMSO    OD  151   3.054   0.450   4.731  0.0071  0.1807  0.0575
   38DMSO   CD2  152   3.075   0.714   4.714 -0.4814  0.2994 -0.2266
   39DMSO    SD  153   3.224   3.720   4.486 -0.0673 -0.4776  0.0697
   39DMSO   CD1  154   3.220   3.758   4.661  0.0669 -0.2928 -0.4182
   39DMSO    OD  155   3.363   3.677   4.443 -0.3265 -0.2809 -0.1791
   39DMSO   CD2  156   3.135   3.557   4.500  0.6406  0.0642  0.0996
   40DMSO    SD  157   2.808   2.152   5.079  0.0689  0.0793 -0.1959
   40DMSO   CD1  158   2.977   2.100   5.108  0.2927 -0.3056  0.2451
   40DMSO    OD  159   2.818   2.302   5.037 -0.0685  0.7441 -0.1781
   40DMSO   CD2  160   2.785   2.065   4.920  0.0549 -0.5823  0.2548
   41DMSO    SD  161   2.852   4.666   4.763  0.4902 -0.1514  0.1325
   41DMSO   CD1  162   2.891   4.490   4.789  0.1106  0.3156  0.1528
   41DMSO    OD  163   2.760   4.705   4.873  0.0757  0.5179  0.4989
   41DMSO   CD2  164   3.015   4.734   4.805 -0.0308  0.1998 -0.2401
   42DMSO    SD  165   4.458   2.806   4.657 -0.0102  0.1157 -0.1226
   42DMSO   CD1  166   4.502   2.906   4.517 -0.0973  0.1639 -0.2511
   42DMSO    OD  167   4.584   2.742   4.710  0.0668 -0.3606 -0.1560
   42DMSO   CD2  168   4.405   2.934   4.771  0.6078 -0.6244 -0.3128
   43DMSO    SD  169   1.887   3.867   4.479  0.0689  0.1652  0.2523
   43DMSO   CD1  170   1.853   3.693   4.443  0.0393  0.1403  0.0701
   43DMSO    OD  171   1.763   3.944   4.442  0.0710  0.0045 -0.0373
   43DMSO   CD2  172   1.887   3.854   4.661 -0.0213 -0.0456  0.2463
   44DMSO    SD  173   1.112   1.711   4.846  0.1659 -0.0995  0.0595
   44DMSO   CD1  174   1.141   1.794   4.996 -0.1084  0.0849  0.1517
   44DMSO    OD  175   1.089   1.558   4.873  0.1792 -0.0081  0.1365
   44DMSO   CD2  176   0.949   1.774   4.804  0.0031  0.6376 -0.0835
   45DMSO    SD  177   3.273   3.097   4.856 -0.4171 -0.0620 -0.3457
   45DMSO   CD1  178   3.219   3.070   5.028  0.2341  0.4728  0.0656
   45DMSO    OD  179   3.247   3.245   4.822  0.6745  0.1836 -0.3967
   45DMSO   CD2  180   3.445   3.067   4.878  0.3802  0.2756  0.3449
   46DMSO    SD  181   3.787   4.330   5.136 -0.2838  0.2062  0.4252
   46DMSO   CD1  182   3.890   4.312   5.285 -0.1251 -0.4596  0.3850
   46DMSO    OD  183   3.784   4.479   5.105  0.1385 -0.0310  0.6141
   46DMSO   CD2  184   3.895   4.248   5.019 -0.3946 -0.1323 -0.2139
   47DMSO    SD  185   0.458   2.956   4.602 -0.3690  0.0313  0.0157
   47DMSO   CD1  186   0.378   2.903   4.447 -0.3279 -0.4633 -0.1320
   47DMSO    OD  187   0.600   3.008   4.564 -0.2521 -0.0460  0.1254
   47DMSO   CD2  188   0.357   3.100   4.636  0.0612 -0.1863 -0.6086
   48DMSO    SD  189   2.401   0.635   5.038 -0.1335 -0.0981  0.6913
   48DMSO   CD1  190   2.513   0.510   4.965  0.1144 -0.3957 -0.2561
   48DMSO    OD  191   2.469   0.772   5.014 -0.2475 -0.0485 -0.1547
   48DMSO   CD2  192   2.270   0.616   4.915 -0.3393  0.3177  0.0124
   49DMSO    SD  193   2.514   3.141   4.991 -0.0280 -0.2080 -0.1380
   49DMSO   CD1  194   2.358   3.094   5.066  0.3176  0.1802  0.7318
   49DMSO    OD  195   2.599   3.015   4.972 -0.0820 -0.0828 -0.1007
   49DMSO   CD2  196   2.456   3.198   4.834  0.1252  0.2245  0.4030
   50DMSO    SD  197   0.982   0.964   4.743  0.0926  0.0734  0.0195
   50DMSO   CD1  198   0.825   0.963   4.835 -0.1713  0.4276  0.0326
   50DMSO    OD  199   1.078   0.873   4.818 -0.3411  0.4960 -0.1418
   50DMSO   CD2  200   0.930   0.879   4.594 -0.2838 -0.0252  0.2580
   51DMSO    SD  201   1.436   1.572   4.656  0.1636  0.2766  0.2296
   51DMSO   CD1  202   1.560   1.486   4.564 -0.0987  0.0514  0.4029
   51DMSO    OD  203   1.314   1.598   4.564 -0.2318  0.1941  0.2880
   51DMSO   CD2  204   1.387   1.435   4.764 -0.0074 -0.4543  0.0016
   52DMSO    SD  205   0.815   3.260   4.820 -0.2127  0.5131  0.1895
   52DMSO   CD1  206   0.951   3.337   4.911 -0.1944  0.2298  0.4127
   52DMSO    OD  207   0.784   3.130   4.898  0.5769  0.2052 -0.1548
   52DMSO   CD2  208   0.689   3.384   4.864  0.5905  0.2039  0.2458
   53DMSO    SD  209   3.452   1.587   4.953  0.0418  0.0036  0.2894
   53DMSO   CD1  210   3.559   1.446   5.013  0.2839 -0.3067 -0.2415
   53DMSO    OD  211   3.374   1.518   4.836 -0.1331 -0.1372 -0.1759
   53DMSO   CD2  212   3.339   1.586   5.092 -0.1112 -0.1751  0.3664
   54DMSO    SD  213   0.333   1.518   4.407  0.1663 -0.2435 -0.2286
   54DMSO   CD1  214   0.260   1.350   4.405  0.2285 -0.4048  0.1610
   54DMSO    OD  215   0.303   1.570   4.551  0.4318  0.1416 -0.2447
   54DMSO   CD2  216   0.505   1.477   4.411  0.3206 -0.1461 -0.1366
   55DMSO    SD  217   4.428   2.024   4.658  0.1094  0.1357  0.2538
   55DMSO   CD1  218   4.462   2.199   4.697 -0.6180  0.0646  0.4127
   55DMSO    OD  219   4.286   1.997   4.699 -0.1257 -0.4022  0.0725
   55DMSO   CD2  220   4.439   2.037   4.480 -0.0989  0.3107 -0.2646
   56DMSO    SD  221   3.553   0.688   4.994  0.2311 -0.1953  0.1001
   56DMSO   CD1  222   3.656   0.833   4.973  0.2721 -0.2897 -0.4068
   56DMSO    OD  223   3.439   0.695   4.892  0.6316 -0.2442 -0.1368
   56DMSO   CD2  224   3.668   0.566   4.922  0.1996  0.3602 -0.3984
   57DMSO    SD  225   0.686   1.359   4.922 -0.1314 -0.0057  0.1239
   57DMSO   CD1  226   0.580   1.322   5.059 -0.0732  0.6418 -0.0334
   57DMSO    OD  227   0.603   1.455   4.830 -0.3167 -0.2398  0.7741
   57DMSO   CD2  228   0.805   1.466   5.011  0.3343 -0.1862  0.3713
   58DMSO    SD  229   2.346   2.710   4.949 -0.2400 -0.1383  0.1869
   58DMSO   CD1  230   2.316   2.596   4.812 -0.0393  0.0437 -0.4499
   58DMSO    OD  231   2.235   2.819   4.942 -0.6957  0.1848  0.2141
   58DMSO   CD2  232   2.300   2.600   5.081 -0.8092 -0.0851  0.4997
   59DMSO    SD  233   0.129   4.374   4.909 -0.0391 -0.4064 -0.3491
   59DMSO   CD1  234   0.196   4.209   4.903  0.0304 -0.0316 -0.5526
   59DMSO    OD  235   0.017   4.376   5.012 -0.5389 -0.4183 -0.3854
   59DMSO   CD2  236   0.269   4.457   4.984  0.3042  0.3846  0.1792
   60DMSO    SD  237   1.175   2.168   4.790 -0.1245  0.3445  0.1972
   60DMSO   CD1  238   1.256   2.283   4.671 -0.1319 -0.1400 -0.4891
   60DMSO    OD  239   1.262   2.042   4.783  0.3265  0.3201 -0.2791
   60DMSO   CD2  240   1.225   2.254   4.940  0.2265 -0.2620  0.0477
   61DMSO    SD  241   0.317   1.002   4.213 -0.5863 -0.2569 -0.2218
   61DMSO   CD1  242   0.405   0.875   4.118 -0.9311 -0.5700 -0.3964
   61DMSO    OD  243   0.173   0.974   4.210  0.3255  0.0933 -0.6839
   61DMSO   CD2  244   0.385   0.957   4.374  0.0433 -0.5152  0.4159
   62SOL     OW  245   4.258   1.800   0.382 -0.2067 -0.2622 -0.5084
   62SOL    HW2  246   4.185   1.751   0.420  0.4062 -1.3830 -0.7672
   62SOL    HW3  247   4.232   1.892   0.392 -1.5514 -0.6395 -0.4090
   62SOL    MW4  248   4.245   1.806   0.389 -0.3033 -0.4599 -0.5294
   63SOL     OW  249   0.384   2.194   0.427  0.3128 -0.1975 -0.3958
   63SOL    HW2  250   0.466   2.151   0.404  0.6917 -0.1016  0.7483
   63SOL    HW3  251   0.355   2.149   0.506  0.0420  0.7714  0.0660
   63SOL    MW4  252   0.391   2.182   0.435  0.3271 -0.0570 -0.1839
   64SOL     OW  253   1.731   1.941   0.832 -0.0448  0.2123  0.3698
   64SOL    HW2  254   1.723   1.847   0.818 -1.8882  0.6374 -1.7719
   64SOL    HW3  255   1.815   1.964   0.792  0.7857 -0.6353  1.6078
   64SOL    MW4  256   1.741   1.932   0.825 -0.1784  0.1566  0.2505
   65SOL     OW  257   3.172   0.916   0.677  0.1829  0.1974 -0.1218
   65SOL    HW2  258   3.165   1.002   0.719  0.9243  0.2412 -0.0788
   65SOL    HW3  259   3.110   0.861   0.725  1.0801  0.2271  1.0993
   65SOL    MW4  260   3.163   0.920   0.689  0.3991  0.2071  0.0450
   66SOL     OW  261   0.057   4.062   0.420 -0.3671 -0.1302  0.5620
   66SOL    HW2  262   0.048   4.043   0.513 -0.8680 -0.3081  0.4769
   66SOL    HW3  263   0.073   4.157   0.416 -1.3727  0.0591  0.7702
   66SOL    MW4  264   0.058   4.072   0.432 -0.5658 -0.1287  0.5783
   67SOL     OW  265   0.253   4.637   0.808  0.0331  0.0185  0.3581
   67SOL    HW2  266   0.174   4.681   0.780 -0.6504 -0.5939  1.2998
   67SOL    HW3  267   0.246   4.549   0.771  0.0834 -0.1584  0.7610
   67SOL    MW4  268   0.242   4.631   0.799 -0.0504 -0.0857  0.5355
   68SOL     OW  269   2.289   2.684   0.858  0.0231  0.3674 -0.3187
   68SOL    HW2  270   2.376   2.720   0.839 -0.3039  1.3220 -0.0397
   68SOL    HW3  271   2.283   2.686   0.954 -0.4172  0.5766 -0.3506
   68SOL    MW4  272   2.300   2.689   0.868 -0.0782  0.5210 -0.2861
   69SOL     OW  273   1.795   0.148   0.672 -0.1250  0.3863  0.1543
   69SOL    HW2  274   1.804   0.231   0.719  0.5504  0.6680 -0.4613
   69SOL    HW3  275   1.861   0.091   0.712  1.4209  1.0588 -1.3573
   69SOL    MW4  276   1.805   0.152   0.683  0.1681  0.5122 -0.1264
   70SOL     OW  277   2.269   0.390   0.854 -0.1175 -0.2514 -0.2702
   70SOL    HW2  278   2.346   0.437   0.823 -0.4195  0.7327  0.4576
   70SOL    HW3  279   2.197   0.426   0.802  0.0007 -1.6304 -1.4067
   70SOL    MW4  280   2.269   0.401   0.843 -0.1417 -0.3035 -0.3241
   71SOL     OW  281   1.022   4.333   0.460 -0.4318 -0.3830 -0.4024
   71SOL    HW2  282   1.113   4.316   0.437 -0.1040 -0.5750  1.0078
   71SOL    HW3  283   0.978   4.249   0.444 -0.4442 -0.1814 -1.4555
   71SOL    MW4  284   1.028   4.319   0.455 -0.3902 -0.3817 -0.3553
   72SOL     OW  285   1.990   2.043   0.729  0.1175 -0.1352 -0.0735
   72SOL    HW2  286   1.998   2.136   0.750 -0.9951 -0.0673  0.0987
   72SOL    HW3  287   1.991   2.040   0.633 -1.8746  0.2746 -0.1290
   72SOL    MW4  288   1.991   2.055   0.719 -0.2921 -0.0722 -0.0581
   73SOL     OW  289   1.966   0.382   0.257 -0.0047  0.1945  0.1300
   73SOL    HW2  290   2.006   0.389   0.343 -0.8134 -0.8294  0.5984
   73SOL    HW3  291   1.872   0.377   0.274 -0.0785 -1.8643 -0.6779
   73SOL    MW4  292   1.959   0.382   0.270 -0.1212 -0.2122  0.0852
   74SOL     OW  293   2.318   2.520   0.459  0.3270  0.4280 -0.2660
   74SOL    HW2  294   2.292   2.505   0.549  2.2012 -1.8120 -0.0606
   74SOL    HW3  295   2.238   2.549   0.415 -0.8951  0.2364  1.7878
   74SOL    MW4  296   2.304   2.522   0.465  0.4130  0.1072  0.0321
   75SOL     OW  297   2.049   3.803   0.374  0.1861 -0.0700  0.0470
   75SOL    HW2  298   2.046   3.708   0.373 -1.1414 -0.0483  0.7556
   75SOL    HW3  299   1.973   3.829   0.426  1.1983  1.3429  0.8684
   75SOL    MW4  300   2.039   3.794   0.381  0.1445  0.1193  0.2489
   76SOL     OW  301   2.382   0.362   0.169 -0.0904  0.0412 -0.5160
   76SOL    HW2  302   2.322   0.436   0.164 -0.7427 -0.3268  1.4366
   76SOL    HW3  303   2.325   0.285   0.162  0.4996 -0.3032 -1.7606
   76SOL    MW4  304   2.366   0.361   0.167 -0.0986 -0.0528 -0.4226
   77SOL     OW  305   2.922   0.254   0.305  0.2239  0.5316 -0.4903
   77SOL    HW2  306   2.958   0.227   0.220  0.2234  0.3696 -0.4400
   77SOL    HW3  307   2.833   0.283   0.286  0.3316  0.7971 -0.5936
   77SOL    MW4  308   2.915   0.254   0.291  0.2381  0.5452 -0.4973
   78SOL     OW  309   3.413   0.778   0.848  0.0847  0.0271 -0.6173
   78SOL    HW2  310   3.345   0.835   0.810  1.0553  2.8008  1.5779
   78SOL    HW3  311   3.491   0.796   0.796  0.0776 -0.2954 -0.7393
   78SOL    MW4  312   3.414   0.788   0.836  0.2118  0.3505 -0.3438
   79SOL     OW  313   0.020   1.699   0.394  0.1108  0.2647 -0.3231
   79SOL    HW2  314  -0.065   1.733   0.367 -0.9787 -1.1633  1.2229
   79SOL    HW3  315   0.016   1.606   0.376  0.8323 -0.0376  0.9889
   79SOL    MW4  316   0.008   1.691   0.388  0.0622  0.0364  0.0540
   80SOL     OW  317   3.116   2.690   0.452 -0.0318 -0.0633 -0.2350
   80SOL    HW2  318   3.070   2.774   0.453 -0.7707 -0.4825  1.0000
   80SOL    HW3  319   3.207   2.713   0.433  0.0288  1.1398  1.4406
   80SOL    MW4  320   3.122   2.704   0.449 -0.1213  0.0401  0.1490
   81SOL     OW  321   0.694   1.241   0.722 -0.2302 -0.5839 -0.2171
   81SOL    HW2  322   0.609   1.216   0.760 -1.2972  1.5846 -1.1024
   81SOL    HW3  323   0.696   1.336   0.727  2.0721 -0.5875 -0.4600
   81SOL    MW4  324   0.683   1.250   0.728 -0.0672 -0.2983 -0.3660
   82SOL     OW  325   4.065   0.320   0.373  0.2568  0.2712 -0.0420
   82SOL    HW2  326   4.142   0.358   0.417 -0.2126  2.5960 -1.1586
   82SOL    HW3  327   4.086   0.326   0.280 -0.6457 -0.5145 -0.2984
   82SOL    MW4  328   4.078   0.326   0.367  0.0758  0.4742 -0.2232
   83SOL     OW  329   4.413   0.111   0.454  0.5601 -0.3133 -0.3999
   83SOL    HW2  330   4.474   0.131   0.383  1.5235 -1.8391 -0.0356
   83SOL    HW3  331   4.355   0.187   0.458  1.8330  0.7435 -1.3892
   83SOL    MW4  332   4.414   0.124   0.445  0.8552 -0.3752 -0.4824
   84SOL     OW  333   2.961   1.083   0.337  0.0177  0.1585  0.6961
   84SOL    HW2  334   2.957   1.177   0.350 -0.7989  0.3886 -1.0605
   84SOL    HW3  335   2.879   1.049   0.375  1.2964 -0.1341  3.3144
   84SOL    MW4  336   2.950   1.091   0.344  0.0787  0.1503  0.8098
   85SOL     OW  337   1.666   3.053   0.376  0.0335  0.1234  0.0061
   85SOL    HW2  338   1.622   3.075   0.458 -0.3965 -0.9045  0.0599
   85SOL    HW3  339   1.662   2.958   0.372  0.5906  0.1358 -0.9192
   85SOL    MW4  340   1.660   3.044   0.387  0.0503 -0.0106 -0.1089
   86SOL     OW  341   1.141   3.122   0.774  0.5700  0.2681 -0.1703
   86SOL    HW2  342   1.151   3.043   0.721 -0.4686 -0.5530  0.8466
   86SOL    HW3  343   1.206   3.183   0.738  0.9789 -0.8340 -1.3352
   86SOL    MW4  344   1.151   3.120   0.762  0.4869  0.0144 -0.1898
   87SOL     OW  345   2.520   3.871   0.324 -0.1706 -0.0207  0.2402
   87SOL    HW2  346   2.446   3.901   0.378  0.1645 -0.3425  0.8914
   87SOL    HW3  347   2.479   3.825   0.251 -0.6164 -0.5167  0.7906
   87SOL    MW4  348   2.505   3.869   0.322 -0.1852 -0.1286  0.3988
   88SOL     OW  349   2.652   3.966   0.753 -0.3956 -0.1301 -0.2640
   88SOL    HW2  350   2.739   3.932   0.771 -0.6801 -1.0407 -0.5599
   88SOL    HW3  351   2.657   3.997   0.662  0.1621  1.6017  0.3493
   88SOL    MW4  352   2.664   3.966   0.743 -0.3595 -0.0217 -0.2221
   89SOL     OW  353   3.889   4.257   0.466  0.0421  0.3209  0.4990
   89SOL    HW2  354   3.940   4.319   0.413 -0.3296 -1.7341 -2.3193
   89SOL    HW3  355   3.799   4.268   0.435 -0.1063 -1.2215  0.3731
   89SOL    MW4  356   3.884   4.267   0.455 -0.0265 -0.1537  0.1106
   90SOL     OW  357   2.269   0.132   0.469 -0.2170  0.0585 -0.0749
   90SOL    HW2  358   2.350   0.082   0.471 -0.3180 -0.1989 -1.7048
   90SOL    HW3  359   2.231   0.120   0.557  0.6087 -1.2848  0.1081
   90SOL    MW4  360   2.274   0.124   0.481 -0.1214 -0.1527 -0.2658
   91SOL     OW  361   0.460   2.464   0.720  0.3490 -0.2387  0.1674
   91SOL    HW2  362   0.441   2.476   0.628  0.6017  2.3308  0.4055
   91SOL    HW3  363   0.383   2.419   0.756  0.3473 -1.4411 -1.2954
   91SOL    MW4  364   0.448   2.459   0.713  0.3821 -0.0583  0.0058
   92SOL     OW  365   3.565   2.571   0.466 -0.3855  0.6447  0.1120
   92SOL    HW2  366   3.500   2.641   0.457 -0.5806  0.7121  1.8933
   92SOL    HW3  367   3.649   2.616   0.460 -0.5096  0.9705  0.8077
   92SOL    MW4  368   3.567   2.587   0.464 -0.4276  0.6965  0.4388
   93SOL     OW  369   0.234   1.279   0.717 -0.0826 -0.1413 -0.2665
   93SOL    HW2  370   0.239   1.295   0.623 -0.6893 -1.4345 -0.5256
   93SOL    HW3  371   0.151   1.233   0.730  0.4012 -0.7376  0.7884
   93SOL    MW4  372   0.224   1.275   0.706 -0.0988 -0.3906 -0.1615
   94SOL     OW  373   0.458   4.025   0.702  0.3958 -0.0283 -0.1394
   94SOL    HW2  374   0.450   4.117   0.728  0.0359  0.0547 -0.5299
   94SOL    HW3  375   0.478   4.028   0.608 -0.8322 -0.3593 -0.4273
   94SOL    MW4  376   0.459   4.038   0.693  0.1863 -0.0610 -0.2289
   95SOL     OW  377   2.712   2.817   0.360  0.4534 -0.2163 -0.3476
   95SOL    HW2  378   2.740   2.728   0.340 -1.4396 -0.5448 -1.6274
   95SOL    HW3  379   2.619   2.809   0.385  0.5612  1.2448  0.6428
   95SOL    MW4  380   2.703   2.804   0.361  0.2179 -0.0669 -0.3858
   96SOL     OW  381   3.845   0.492   0.444  0.5131 -0.0439  0.3192
   96SOL    HW2  382   3.921   0.444   0.410  0.4973  0.5210 -0.5287
   96SOL    HW3  383   3.870   0.584   0.437  1.3973  0.0643  3.9545
   96SOL    MW4  384   3.858   0.498   0.439  0.6277  0.0449  0.6869
   97SOL     OW  385   3.827   1.309   0.715  0.3716 -0.6353 -0.5630
   97SOL    HW2  386   3.913   1.273   0.739  0.5861 -0.1325 -0.5750
   97SOL    HW3  387   3.818   1.388   0.768  0.5669  0.1257 -1.6522
   97SOL    MW4  388   3.837   1.315   0.725  0.4257 -0.4686 -0.7083
   98SOL     OW  389   0.245   2.062   0.644 -0.3726 -0.4677  0.3920
   98SOL    HW2  390   0.254   2.152   0.675 -0.2613  0.1249 -1.3417
   98SOL    HW3  391   0.305   2.012   0.699  0.6654  0.7374  0.3846
   98SOL    MW4  392   0.254   2.067   0.656 -0.2210 -0.2305  0.1623
   99SOL     OW  393   4.477   1.140   0.754  0.1053 -0.1580  0.2373
   99SOL    HW2  394   4.406   1.197   0.724  0.8410  0.1832 -0.8717
   99SOL    HW3  395   4.470   1.143   0.850  0.2177  1.9286  0.2176
   99SOL    MW4  396   4.467   1.148   0.763  0.2172  0.1623  0.0884
  100SOL     OW  397   3.369   0.413   0.500 -0.5198 -0.0113  0.0204
  100SOL    HW2  398   3.318   0.481   0.455  0.2227 -0.3988 -1.4393
  100SOL    HW3  399   3.381   0.447   0.589 -1.6263  0.9833 -0.1984
  100SOL    MW4  400   3.364   0.427   0.505 -0.5678  0.0688 -0.2010
  101SOL     OW  401   2.171   0.182   0.223  0.1096 -0.0379  0.2113
  101SOL    HW2  402   2.200   0.169   0.313  0.1309 -0.5769  0.1267
  101SOL    HW3  403   2.102   0.248   0.229  0.9330  0.8129  0.4863
  101SOL    MW4  404   2.166   0.189   0.236  0.2211  0.0032  0.2364
  102SOL     OW  405   0.141   0.184   0.295  0.4085  0.0296 -0.2412
  102SOL    HW2  406   0.215   0.192   0.355 -0.4322  0.1919  0.7824
  102SOL    HW3  407   0.132   0.272   0.257  0.9718 -0.0870 -0.6502
  102SOL    MW4  408   0.150   0.197   0.298  0.3719  0.0356 -0.1601
  103SOL     OW  409   2.606   3.097   0.318 -0.1099 -0.1858  0.0943
  103SOL    HW2  410   2.640   3.007   0.319  0.4618 -0.0295 -2.1496
  103SOL    HW3  411   2.675   3.149   0.358  0.0221 -0.5996  0.4147
  103SOL    MW4  412   2.619   3.092   0.323 -0.0170 -0.2197 -0.1595
  104SOL     OW  413   3.232   0.625   0.343 -0.2536  0.0680  0.1799
  104SOL    HW2  414   3.146   0.588   0.361 -0.8885  1.3012 -0.2202
  104SOL    HW3  415   3.219   0.720   0.351  0.5932  0.3705 -1.8897
  104SOL    MW4  416   3.219   0.633   0.347 -0.2256  0.2706 -0.1459
  105SOL     OW  417   2.959   2.909   0.472 -0.1570 -0.4594 -0.2032
  105SOL    HW2  418   2.877   2.878   0.433  0.2844  0.6569 -2.1245
  105SOL    HW3  419   2.951   2.889   0.565 -2.2550 -1.1268 -0.4949
  105SOL    MW4  420   2.947   2.902   0.479 -0.3756 -0.4002 -0.4952
  106SOL     OW  421   3.861   3.398   0.369  0.0083 -0.1443 -0.0112
  106SOL    HW2  422   3.775   3.368   0.400  0.6253 -0.4950  1.4133
  106SOL    HW3  423   3.855   3.396   0.274 -1.6763  0.1371  0.0736
  106SOL    MW4  424   3.849   3.394   0.361 -0.1325 -0.1534  0.1880
  107SOL     OW  425   3.650   2.707   0.820  0.6721 -0.3541 -0.3809
  107SOL    HW2  426   3.630   2.713   0.913  0.8947  0.1720 -0.3641
  107SOL    HW3  427   3.630   2.616   0.797  3.1801 -1.2862  0.8020
  107SOL    MW4  428   3.645   2.696   0.829  1.0323 -0.4077 -0.2226
  108SOL     OW  429   1.396   1.137   0.802 -0.1100  0.1776 -0.2967
  108SOL    HW2  430   1.478   1.181   0.781  0.0589  0.3958  0.7628
  108SOL    HW3  431   1.398   1.057   0.750  1.7072 -0.7898  1.1933
  108SOL    MW4  432   1.407   1.132   0.793  0.1521  0.0788  0.0397
  109SOL     OW  433   3.180   1.162   0.808 -0.5650  0.3020 -0.7099
  109SOL    HW2  434   3.243   1.232   0.793 -1.7840  1.3425 -1.0849
  109SOL    HW3  435   3.191   1.138   0.899 -1.2183  2.1017 -0.1291
  109SOL    MW4  436   3.190   1.168   0.818 -0.8120  0.6768 -0.6827
  110SOL     OW  437   1.126   4.323   0.717  0.2272  0.3315 -0.0095
  110SOL    HW2  438   1.082   4.334   0.632 -0.3077 -1.0298  0.0943
  110SOL    HW3  439   1.190   4.254   0.701 -0.3774 -0.4327  0.9029
  110SOL    MW4  440   1.129   4.315   0.703  0.0769  0.0511  0.1246
  111SOL     OW  441   0.452   1.507   0.427 -0.7609 -0.3113 -0.2324
  111SOL    HW2  442   0.448   1.558   0.509 -0.1744 -0.0868 -0.3374
  111SOL    HW3  443   0.423   1.568   0.360  0.5803  0.1088 -0.4523
  111SOL    MW4  444   0.448   1.522   0.429 -0.5065 -0.2262 -0.2753
  112SOL     OW  445   1.373   3.333   0.394 -0.5458  0.6272  0.1301
  112SOL    HW2  446   1.449   3.347   0.339  0.7194 -0.6242  1.5106
  112SOL    HW3  447   1.314   3.278   0.341 -0.8383  2.2030 -1.2110
  112SOL    MW4  448   1.375   3.327   0.380 -0.4175  0.6700  0.1353
  113SOL     OW  449   0.678   2.607   0.353  0.3751  0.3558 -0.5132
  113SOL    HW2  450   0.687   2.702   0.356 -1.0243  0.4342  2.0563
  113SOL    HW3  451   0.589   2.590   0.384  1.4696 -1.9479  1.4991
  113SOL    MW4  452   0.667   2.617   0.357  0.3349  0.0622  0.0913
  114SOL     OW  453   2.393   1.816   0.477  0.3591 -0.1370 -0.0714
  114SOL    HW2  454   2.335   1.892   0.480 -0.4821 -0.7471 -0.7071
  114SOL    HW3  455   2.337   1.744   0.449  1.4415 -0.7038 -0.8369
  114SOL    MW4  456   2.378   1.817   0.473  0.3909 -0.2923 -0.2563
  115SOL     OW  457   2.575   3.609   0.492 -0.2512 -0.2208  0.3352
  115SOL    HW2  458   2.665   3.578   0.497 -0.4577 -0.9050 -0.1139
  115SOL    HW3  459   2.579   3.690   0.442  0.1951  0.0855  0.8647
  115SOL    MW4  460   2.587   3.615   0.486 -0.2196 -0.2706  0.3458
  116SOL     OW  461   0.629   1.779   0.357  0.0347  0.0786  0.0800
  116SOL    HW2  462   0.548   1.758   0.310 -0.0330 -1.1895  0.7469
  116SOL    HW3  463   0.639   1.874   0.346 -0.3346 -0.0831 -1.9202
  116SOL    MW4  464   0.619   1.789   0.349 -0.0230 -0.1100 -0.0959
  117SOL     OW  465   2.731   0.375   0.804 -0.2964  0.0833  0.3829
  117SOL    HW2  466   2.713   0.360   0.897 -1.9775 -0.2516  0.0238
  117SOL    HW3  467   2.728   0.288   0.765  0.5580  0.2049  0.0239
  117SOL    MW4  468   2.728   0.361   0.811 -0.4055  0.0552  0.2881
  118SOL     OW  469   2.263   0.878   0.722  0.5592  0.0004 -0.0170
  118SOL    HW2  470   2.341   0.834   0.758  0.3570 -0.7934 -0.5268
  118SOL    HW3  471   2.270   0.866   0.628 -0.4403 -0.5436 -0.0352
  118SOL    MW4  472   2.274   0.870   0.715  0.4006 -0.1761 -0.0867
  119SOL     OW  473   1.373   3.515   0.803 -0.3088  0.0530  0.1335
  119SOL    HW2  474   1.404   3.595   0.760 -0.2918 -1.0130 -1.9015
  119SOL    HW3  475   1.279   3.514   0.787 -0.0960 -1.0552 -1.0978
  119SOL    MW4  476   1.365   3.526   0.795 -0.2785 -0.2338 -0.2975
  120SOL     OW  477   2.957   2.297   0.864 -0.3725 -0.5331 -0.0490
  120SOL    HW2  478   2.941   2.282   0.957  0.6100  0.1508  0.2398
  120SOL    HW3  479   2.972   2.210   0.827 -0.5859 -0.7907  0.4694
  120SOL    MW4  480   2.957   2.284   0.871 -0.2711 -0.4769  0.0575
  121SOL     OW  481   3.599   1.688   0.717 -0.0834 -0.7085  0.3497
  121SOL    HW2  482   3.544   1.645   0.782 -1.4687 -0.3729 -0.5948
  121SOL    HW3  483   3.602   1.779   0.744 -0.3935 -0.6304  0.1130
  121SOL    MW4  484   3.592   1.694   0.729 -0.3071 -0.6539  0.1938
  122SOL     OW  485   0.084   3.474   0.336 -0.4350  0.0244 -0.2145
  122SOL    HW2  486   0.170   3.452   0.301  0.3661  0.2134  1.6007
  122SOL    HW3  487   0.051   3.392   0.372 -0.7285  0.1154 -0.2689
  122SOL    MW4  488   0.091   3.460   0.336 -0.3681  0.0613  0.0178
  123SOL     OW  489   1.586   3.109   0.643 -0.4557 -0.3261 -0.4973
  123SOL    HW2  490   1.503   3.152   0.665 -0.1334 -0.4383  1.0002
  123SOL    HW3  491   1.581   3.024   0.686  0.6955 -0.0817  0.1408
  123SOL    MW4  492   1.574   3.104   0.651 -0.2613 -0.3087 -0.2156
  124SOL     OW  493   1.560   0.277   0.063  0.7153 -0.3970  0.3580
  124SOL    HW2  494   1.594   0.277  -0.027 -1.5732 -2.7690 -0.6003
  124SOL    HW3  495   1.488   0.340   0.062  1.0437 -0.0152  0.6810
  124SOL    MW4  496   1.555   0.285   0.051  0.4567 -0.6596  0.2742
  125SOL     OW  497   2.229   1.692   0.726 -0.4118  0.4511 -0.6418
  125SOL    HW2  498   2.157   1.644   0.768  0.2892 -0.2453 -0.2386
  125SOL    HW3  499   2.219   1.782   0.757  0.5653 -0.1940  1.6680
  125SOL    MW4  500   2.218   1.698   0.735 -0.1904  0.2741 -0.2839
  126SOL     OW  501   1.084   0.182   0.326  0.6304 -0.1021 -0.0944
  126SOL    HW2  502   1.084   0.097   0.281  0.7837 -0.7014  1.0039
  126SOL    HW3  503   1.012   0.175   0.389  1.7368 -0.0840  1.1969
  126SOL    MW4  504   1.074   0.170   0.328  0.7966 -0.1788  0.2209
  127SOL     OW  505   1.127   2.346   0.771 -0.2835  0.0409  0.0444
  127SOL    HW2  506   1.136   2.253   0.752 -0.5487  0.1450 -0.5895
  127SOL    HW3  507   1.117   2.350   0.867 -0.1204 -0.5659  0.0868
  127SOL    MW4  508   1.127   2.334   0.781 -0.2969 -0.0254 -0.0336
  128SOL     OW  509   3.996   1.213   0.343  0.2066 -0.0409 -0.1705
  128SOL    HW2  510   3.955   1.290   0.383  0.7013 -0.0331  0.3305
  128SOL    HW3  511   3.924   1.168   0.298  0.1749  1.4497 -1.6480
  128SOL    MW4  512   3.981   1.217   0.342  0.2677  0.1568 -0.2993
  129SOL     OW  513   3.399   3.601   0.800 -0.0641  0.3548  0.1843
  129SOL    HW2  514   3.488   3.567   0.808  0.6772  1.7033 -1.7922
  129SOL    HW3  515   3.410   3.694   0.783 -1.9101  0.7869  1.2263
  129SOL    MW4  516   3.412   3.609   0.799 -0.2098  0.5897  0.0610
  130SOL     OW  517   4.301   3.103   0.849  0.0349 -0.3661 -0.1481
  130SOL    HW2  518   4.221   3.146   0.818  0.4688 -0.2501 -1.1566
  130SOL    HW3  519   4.291   3.012   0.821  1.0212  0.0203 -1.8699
  130SOL    MW4  520   4.289   3.097   0.841  0.2223 -0.2998 -0.5083
  131SOL     OW  521   2.794   1.620   0.558 -0.1324  0.0453 -0.3869
  131SOL    HW2  522   2.728   1.672   0.603  0.3874  1.2537 -0.9767
  131SOL    HW3  523   2.843   1.684   0.507 -0.2307 -1.2008 -2.0676
  131SOL    MW4  524   2.792   1.635   0.557 -0.0768  0.0403 -0.6865
  132SOL     OW  525   3.252   4.106   0.470  0.6694 -0.3492 -0.1747
  132SOL    HW2  526   3.286   4.193   0.448  0.3036  0.1139  1.0205
  132SOL    HW3  527   3.160   4.109   0.442  0.9892 -0.7929 -1.2840
  132SOL    MW4  528   3.244   4.118   0.464  0.6633 -0.3466 -0.1634
  133SOL     OW  529   1.545   2.007   0.463  0.1901 -0.1175 -0.1979
  133SOL    HW2  530   1.557   2.055   0.545 -0.5945 -0.2457 -0.0032
  133SOL    HW3  531   1.474   2.052   0.418  0.0969 -0.5135 -0.4545
  133SOL    MW4  532   1.538   2.019   0.468  0.0743 -0.1866 -0.2061
  134SOL     OW  533   0.709   2.886   0.397  0.3424 -0.0707 -0.0006
  134SOL    HW2  534   0.627   2.935   0.386  0.1850 -0.5501 -0.9369
  134SOL    HW3  535   0.713   2.867   0.491 -0.2268  0.6295  0.1709
  134SOL    MW4  536   0.699   2.890   0.408  0.2465 -0.0416 -0.1015
  135SOL     OW  537   2.161   2.883   0.438 -0.4167  0.6954  0.0007
  135SOL    HW2  538   2.122   2.857   0.521  0.0571  0.2690  0.0977
  135SOL    HW3  539   2.137   2.813   0.377  0.3396  0.3347  0.1082
  135SOL    MW4  540   2.153   2.871   0.441 -0.2544  0.5915  0.0277
  136SOL     OW  541   1.626   0.752   0.781 -0.3469  0.3287 -0.4719
  136SOL    HW2  542   1.554   0.807   0.752 -0.9582  0.0608  0.5183
  136SOL    HW3  543   1.602   0.663   0.753 -0.0463  0.3439 -0.7895
  136SOL    MW4  544   1.614   0.747   0.773 -0.3879  0.2953 -0.3832
  137SOL     OW  545   0.024   0.860   0.704  0.0489 -0.1412 -0.0871
  137SOL    HW2  546   0.022   0.955   0.709  0.0438 -0.0772 -1.1657
  137SOL    HW3  547   0.113   0.837   0.733  0.6618  0.3190 -1.5395
  137SOL    MW4  548   0.036   0.869   0.709  0.1291 -0.0720 -0.4211
  138SOL     OW  549   0.689   4.392   0.737  0.2194 -0.0180 -0.0230
  138SOL    HW2  550   0.693   4.377   0.643 -1.4224  1.2662 -0.3267
  138SOL    HW3  551   0.603   4.357   0.763 -0.5673  2.1992  0.4708
  138SOL    MW4  552   0.678   4.385   0.728 -0.1010  0.4440  0.0021
  139SOL     OW  553   1.358   0.657   0.306  0.1470  0.3992 -0.6975
  139SOL    HW2  554   1.276   0.609   0.322 -0.0998  0.7822 -0.8093
  139SOL    HW3  555   1.426   0.602   0.346 -0.1478  0.0160 -0.7165
  139SOL    MW4  556   1.356   0.643   0.313  0.0756  0.3992 -0.7148
  140SOL     OW  557   1.357   0.210   0.413  0.0134  0.2302 -0.3030
  140SOL    HW2  558   1.275   0.196   0.366  0.9054 -0.4932 -1.6723
  140SOL    HW3  559   1.410   0.132   0.393  1.1863  0.8723  0.2498
  140SOL    MW4  560   1.353   0.198   0.404  0.2858  0.2194 -0.4107
  141SOL     OW  561   1.812   2.499   0.697 -0.3662  0.2109  0.2216
  141SOL    HW2  562   1.877   2.448   0.744 -1.3783 -0.2068  1.1988
  141SOL    HW3  563   1.821   2.588   0.732  1.9858  0.9505 -2.0996
  141SOL    MW4  564   1.822   2.504   0.708 -0.1894  0.2534  0.0443
  142SOL     OW  565   2.289   3.947   0.469  0.1503  0.2694  0.5240
  142SOL    HW2  566   2.265   4.036   0.443  2.0837  0.6006 -0.1818
  142SOL    HW3  567   2.221   3.892   0.431 -0.4077  1.3332 -0.0406
  142SOL    MW4  568   2.277   3.951   0.460  0.3318  0.4535  0.3564
  143SOL     OW  569   0.890   1.978   1.022 -0.1659  0.5260 -0.1775
  143SOL    HW2  570   0.827   2.025   1.077 -1.1418 -1.6178  0.5873
  143SOL    HW3  571   0.975   2.000   1.060 -0.6637  0.9821  0.7046
  143SOL    MW4  572   0.893   1.987   1.035 -0.3604  0.3033  0.0398
  144SOL     OW  573   0.887   1.658   0.394 -0.9013 -0.2690  0.0509
  144SOL    HW2  574   0.890   1.570   0.356 -0.5574 -0.0027 -0.5497
  144SOL    HW3  575   0.794   1.681   0.395 -0.9062 -0.2476 -0.7079
  144SOL    MW4  576   0.875   1.649   0.389 -0.8565 -0.2311 -0.1284
  145SOL     OW  577   0.942   0.875   0.719 -0.2494 -0.3978  0.1454
  145SOL    HW2  578   0.870   0.822   0.755 -0.1936 -1.2256 -0.9113
  145SOL    HW3  579   1.021   0.834   0.753 -0.2900  0.9864  1.9339
  145SOL    MW4  580   0.943   0.862   0.728 -0.2474 -0.3244  0.2420
  146SOL     OW  581   1.339   0.441   0.122  0.1695  0.7608 -0.3620
  146SOL    HW2  582   1.361   0.529   0.151  0.8116 -0.5146  3.2545
  146SOL    HW3  583   1.245   0.433   0.140  0.4834  0.1108  1.0419
  146SOL    MW4  584   1.330   0.452   0.128  0.2956  0.5068  0.3004
  147SOL     OW  585   0.161   2.115   0.259  0.2181  0.3872  0.0123
  147SOL    HW2  586   0.193   2.032   0.294  1.4068  1.5211  1.7343
  147SOL    HW3  587   0.229   2.178   0.282 -0.7706  1.8825 -1.0736
  147SOL    MW4  588   0.174   2.112   0.267  0.2445  0.7341  0.0962
  148SOL     OW  589   3.642   0.863   0.710 -0.0715  0.0019  0.3262
  148SOL    HW2  590   3.640   0.948   0.755 -1.4072  0.1326  0.0233
  148SOL    HW3  591   3.731   0.830   0.727 -0.1185  0.6434  1.9422
  148SOL    MW4  592   3.654   0.870   0.718 -0.2540  0.1038  0.4994
  149SOL     OW  593   0.281   0.536   0.730 -0.4551  0.1975 -0.1269
  149SOL    HW2  594   0.357   0.490   0.764  0.1096  1.0038 -0.2833
  149SOL    HW3  595   0.206   0.483   0.759  0.0222  0.6372  1.9945
  149SOL    MW4  596   0.281   0.523   0.738 -0.3176  0.3619  0.1323
  150SOL     OW  597   2.059   3.026   0.809 -0.1575  0.2912  0.1295
  150SOL    HW2  598   2.137   3.067   0.772 -0.8725  0.8470 -0.7824
  150SOL    HW3  599   1.986   3.079   0.776 -1.1586 -2.1719 -1.7212
  150SOL    MW4  600   2.059   3.039   0.800 -0.3839  0.0395 -0.2350
  151SOL     OW  601   3.609   0.143   0.727  0.1797 -0.4036 -0.1367
  151SOL    HW2  602   3.528   0.091   0.724  0.2593 -0.4382 -1.9541
  151SOL    HW3  603   3.674   0.085   0.767 -0.5332 -0.5699  0.8042
  151SOL    MW4  604   3.607   0.129   0.732  0.0961 -0.4301 -0.2523
  152SOL     OW  605   1.580   4.376   0.721  0.4272 -0.2112 -0.2241
  152SOL    HW2  606   1.585   4.364   0.626 -0.2493  0.9906 -0.4266
  152SOL    HW3  607   1.568   4.470   0.732  0.7978 -0.3103  1.0699
  152SOL    MW4  608   1.579   4.387   0.710  0.3868 -0.0657 -0.0801
  153SOL     OW  609   0.687   2.057   0.691 -0.0827 -0.0473 -0.2690
  153SOL    HW2  610   0.700   2.150   0.707  0.3223 -0.3536  1.2919
  153SOL    HW3  611   0.769   2.016   0.718 -0.7156 -0.9808  0.2768
  153SOL    MW4  612   0.699   2.064   0.697 -0.1128 -0.2109  0.0089
  154SOL     OW  613   2.309   3.176   0.762 -0.3090 -0.2044 -0.2416
  154SOL    HW2  614   2.323   3.170   0.667  1.2904 -0.1558 -0.0087
  154SOL    HW3  615   2.390   3.143   0.801 -1.6679 -2.0244  1.1332
  154SOL    MW4  616   2.321   3.171   0.754 -0.2773 -0.4381 -0.0295
  155SOL     OW  617   1.141   0.524   0.686  0.2598  0.1017 -0.3725
  155SOL    HW2  618   1.066   0.484   0.731 -0.0492  0.7963 -0.2635
  155SOL    HW3  619   1.216   0.471   0.712 -0.1677 -0.5046 -0.3534
  155SOL    MW4  620   1.141   0.512   0.695  0.1626  0.1134 -0.3556
  156SOL     OW  621   2.940   4.318   0.729 -0.2382  0.0783  0.1567
  156SOL    HW2  622   2.966   4.266   0.652 -0.0484  1.9994 -1.1006
  156SOL    HW3  623   2.865   4.270   0.765 -0.2259 -0.9430 -1.1141
  156SOL    MW4  624   2.933   4.305   0.724 -0.2116  0.1970 -0.1769
  157SOL     OW  625   2.335   1.144   0.353 -0.1359  0.0382  0.2661
  157SOL    HW2  626   2.418   1.189   0.373 -0.0963 -0.1612  0.5675
  157SOL    HW3  627   2.271   1.214   0.342  0.5293  0.2953 -2.1625
  157SOL    MW4  628   2.338   1.159   0.354 -0.0429  0.0458 -0.0146
  158SOL     OW  629   4.328   4.478   0.466 -0.4527  0.5556 -0.0378
  158SOL    HW2  630   4.355   4.568   0.482  0.8471  0.2441 -0.3877
  158SOL    HW3  631   4.310   4.443   0.553 -1.3946  1.2785  0.0630
  158SOL    MW4  632   4.329   4.485   0.480 -0.4055  0.6099 -0.0707
  159SOL     OW  633   0.534   3.090   0.461 -0.2454  0.0384  0.4151
  159SOL    HW2  634   0.584   3.165   0.428 -0.5988  0.7167  1.3600
  159SOL    HW3  635   0.515   3.114   0.552 -1.2503 -0.7446  0.4122
  159SOL    MW4  636   0.538   3.103   0.469 -0.4246  0.0246  0.5394
  160SOL     OW  637   3.641   3.438   0.836  0.0759 -0.3286  0.0306
  160SOL    HW2  638   3.652   3.359   0.783  1.1962 -1.0107  1.2579
  160SOL    HW3  639   3.718   3.492   0.816  0.6633 -0.7278  1.1964
  160SOL    MW4  640   3.653   3.435   0.826  0.3012 -0.4713  0.3464
  161SOL     OW  641   2.016   0.679   0.257 -0.0280  0.1761 -0.4011
  161SOL    HW2  642   2.111   0.683   0.271 -0.0141 -0.1090 -0.4061
  161SOL    HW3  643   1.998   0.586   0.242 -0.6704 -0.1779  2.2558
  161SOL    MW4  644   2.026   0.668   0.257 -0.1109  0.0918 -0.0512
  162SOL     OW  645   0.646   2.082   0.406 -0.0213  0.4505  0.0330
  162SOL    HW2  646   0.731   2.122   0.387 -0.2595  1.1424  0.3965
  162SOL    HW3  647   0.644   2.074   0.501 -0.6902  1.1906  0.0916
  162SOL    MW4  648   0.657   2.086   0.416 -0.1410  0.6394  0.0887
  163SOL     OW  649   0.615   1.104   0.268 -0.2320  0.1619  0.3952
  163SOL    HW2  650   0.523   1.126   0.249  0.0715  1.2507  0.1442
  163SOL    HW3  651   0.636   1.155   0.347  0.6796  1.3461 -0.5835
  163SOL    MW4  652   0.605   1.114   0.276 -0.0717  0.4618  0.2329
  164SOL     OW  653   1.844   3.197   0.703 -0.0390  0.0797 -0.0840
  164SOL    HW2  654   1.758   3.166   0.676  0.0701 -0.2864 -0.0100
  164SOL    HW3  655   1.828   3.287   0.732 -0.1333  0.5123 -1.4449
  164SOL    MW4  656   1.830   3.205   0.704 -0.0371  0.0885 -0.2538
  165SOL     OW  657   2.066   4.044   0.197  0.0060  0.2048  0.3447
  165SOL    HW2  658   2.032   3.963   0.234  1.8218 -0.2844  0.9971
  165SOL    HW3  659   2.110   4.016   0.117 -2.4458  1.0394 -1.3619
  165SOL    MW4  660   2.067   4.030   0.191 -0.0779  0.2503  0.2056
  166SOL     OW  661   3.194   2.737   0.843  0.1492 -0.2885 -0.5263
  166SOL    HW2  662   3.273   2.776   0.806  0.4560 -0.2064  0.1989
  166SOL    HW3  663   3.188   2.650   0.802  0.1095  0.0654 -1.2642
  166SOL    MW4  664   3.204   2.730   0.833  0.1844 -0.2310 -0.5280
  167SOL     OW  665   1.343   3.268   0.671  0.2008 -0.0199  0.2241
  167SOL    HW2  666   1.347   3.357   0.707  0.3529 -0.3462  1.0288
  167SOL    HW3  667   1.357   3.280   0.577  2.0738  0.6349  0.5617
  167SOL    MW4  668   1.345   3.282   0.663  0.4680  0.0235  0.3748
  168SOL     OW  669   1.347   1.921   0.822  0.1978  0.0148  0.2068
  168SOL    HW2  670   1.406   1.990   0.793  1.5711 -1.4449 -0.4963
  168SOL    HW3  671   1.359   1.918   0.917  0.0919  0.7677  0.2471
  168SOL    MW4  672   1.356   1.930   0.831  0.3650 -0.0785  0.1193
  169SOL     OW  673   2.330   2.093   0.505  0.1208 -0.0251 -0.2819
  169SOL    HW2  674   2.368   2.164   0.453  1.3642  0.2435  0.9595
  169SOL    HW3  675   2.236   2.096   0.486  0.3236  1.2131 -1.1127
  169SOL    MW4  676   2.323   2.103   0.496  0.3116  0.1737 -0.2277
  170SOL     OW  677   1.763   0.110   0.407 -0.4188  0.1706 -0.2232
  170SOL    HW2  678   1.795   0.132   0.495 -0.4176  0.1345 -0.2145
  170SOL    HW3  679   1.836   0.063   0.367 -0.5165 -0.0395 -0.1517
  170SOL    MW4  680   1.777   0.107   0.413 -0.4315  0.1381 -0.2126
  171SOL     OW  681   1.076   4.628   0.179 -0.0291  0.4002  0.0542
  171SOL    HW2  682   1.004   4.588   0.229 -0.3087  1.0938  0.2128
  171SOL    HW3  683   1.044   4.631   0.089 -0.6503  1.7293  0.3100
  171SOL    MW4  684   1.062   4.623   0.174 -0.1480  0.6670  0.1089
  172SOL     OW  685   2.051   3.590   0.703  0.5141 -0.1531 -0.3588
  172SOL    HW2  686   2.051   3.558   0.613  1.2973  0.7240 -0.6761
  172SOL    HW3  687   2.128   3.550   0.743  0.6956  0.2027 -0.3496
  172SOL    MW4  688   2.061   3.581   0.696  0.6414  0.0096 -0.3995
  173SOL     OW  689   3.154   3.506   0.878  0.1491  0.0821 -0.1601
  173SOL    HW2  690   3.091   3.549   0.820 -0.2605 -1.9690 -1.3097
  173SOL    HW3  691   3.238   3.542   0.852 -0.1545  0.0228 -1.2596
  173SOL    MW4  692   3.156   3.516   0.867  0.0550 -0.1964 -0.4568
  174SOL     OW  693   0.940   1.915   0.758 -0.1526  0.6151 -0.2824
  174SOL    HW2  694   0.926   1.928   0.852  0.0812  0.1759 -0.1840
  174SOL    HW3  695   0.921   1.822   0.743  0.8733  0.4196 -0.4604
  174SOL    MW4  696   0.936   1.904   0.768  0.0136  0.5314 -0.2929
  175SOL     OW  697   4.271   3.109   0.369  0.4250 -0.3176  0.5201
  175SOL    HW2  698   4.285   3.017   0.392 -0.9273 -0.5853  0.3113
  175SOL    HW3  699   4.275   3.111   0.273  0.2732 -0.1935  0.5153
  175SOL    MW4  700   4.273   3.097   0.359  0.2266 -0.3366  0.4919
  176SOL     OW  701   3.814   2.717   0.483  0.0084 -0.1078 -0.1440
  176SOL    HW2  702   3.813   2.799   0.433  0.9892 -0.5684 -0.9271
  176SOL    HW3  703   3.857   2.739   0.565  0.3081  0.1554 -0.3702
  176SOL    MW4  704   3.819   2.731   0.487  0.1774 -0.1338 -0.2772
  177SOL     OW  705   1.952   1.774   0.362 -0.0208 -0.3574 -0.1306
  177SOL    HW2  706   1.880   1.823   0.324 -0.2347  0.4304  1.2473
  177SOL    HW3  707   1.911   1.695   0.398 -0.1064 -0.1752  0.1686
  177SOL    MW4  708   1.937   1.770   0.362 -0.0603 -0.2294  0.0907
  178SOL     OW  709   2.464   2.297   0.383 -0.1516  0.3652 -0.0380
  178SOL    HW2  710   2.413   2.377   0.399 -0.8095  0.1538 -0.9818
  178SOL    HW3  711   2.555   2.327   0.382 -0.3875  1.0965 -0.2913
  178SOL    MW4  712   2.469   2.312   0.385 -0.2695  0.4338 -0.1960
  179SOL     OW  713   2.904   0.037   0.502  0.6025 -0.1488  0.2352
  179SOL    HW2  714   2.903   0.111   0.442  1.1047 -0.7540 -0.5176
  179SOL    HW3  715   2.960   0.066   0.574 -0.4573  0.7935  0.6991
  179SOL    MW4  716   2.911   0.051   0.504  0.5290 -0.1043  0.1971
  180SOL     OW  717   0.680   3.570   0.638 -0.6793  0.1165 -0.5048
  180SOL    HW2  718   0.683   3.661   0.666 -0.3992  0.5818 -2.0218
  180SOL    HW3  719   0.594   3.539   0.665  0.1125  0.0921  2.2009
  180SOL    MW4  720   0.669   3.578   0.645 -0.5379  0.1747 -0.3479
  181SOL     OW  721   4.048   2.437   0.755 -0.1783  0.1317 -0.1204
  181SOL    HW2  722   4.026   2.465   0.666  0.3496 -0.3993 -0.4160
  181SOL    HW3  723   3.978   2.376   0.779 -1.1735  1.4505  0.4168
  181SOL    MW4  724   4.036   2.433   0.746 -0.2399  0.2356 -0.0885
  182SOL     OW  725   2.044   0.502   0.713 -0.0156  0.2140 -0.2539
  182SOL    HW2  726   2.049   0.598   0.718  1.4180  0.1544 -0.2799
  182SOL    HW3  727   2.065   0.482   0.622 -0.6327 -0.1130 -0.3272
  182SOL    MW4  728   2.048   0.512   0.701  0.0921  0.1630 -0.2670
  183SOL     OW  729   2.824   3.246   0.494  0.0503  0.0567 -0.0035
  183SOL    HW2  730   2.901   3.203   0.456 -0.2144  0.5478 -1.1078
  183SOL    HW3  731   2.843   3.340   0.486 -1.1317  0.2062 -1.2987
  183SOL    MW4  732   2.837   3.253   0.488 -0.1406  0.1413 -0.3201
  184SOL     OW  733   0.880   3.977   0.680  0.3327  0.1253 -0.4247
  184SOL    HW2  734   0.965   3.934   0.692  0.4560  0.5441  0.2545
  184SOL    HW3  735   0.888   4.058   0.731 -0.5821  0.0303 -0.1298
  184SOL    MW4  736   0.893   3.982   0.688  0.2283  0.1680 -0.2962
  185SOL     OW  737   0.859   0.109   0.481  0.0766  0.0588 -0.1235
  185SOL    HW2  738   0.835   0.023   0.449  0.3486  0.7654 -2.2694
  185SOL    HW3  739   0.893   0.093   0.569  0.2186 -2.0261 -0.5417
  185SOL    MW4  740   0.861   0.096   0.489  0.1312 -0.1230 -0.4618
  186SOL     OW  741   0.471   0.697   0.290 -0.2527  0.6165 -0.2291
  186SOL    HW2  742   0.424   0.618   0.318 -0.4143  0.4876 -0.8626
  186SOL    HW3  743   0.552   0.695   0.341 -0.0139 -0.2494 -0.6261
  186SOL    MW4  744   0.475   0.686   0.301 -0.2425  0.4853 -0.3650
  187SOL     OW  745   0.117   2.806   0.473 -0.3337 -0.3970 -0.0498
  187SOL    HW2  746   0.155   2.818   0.560  0.5237 -0.1425 -0.4600
  187SOL    HW3  747   0.142   2.884   0.424  0.6703 -1.3282 -1.0565
  187SOL    MW4  748   0.125   2.818   0.478 -0.0881 -0.4863 -0.2368
  188SOL     OW  749   3.850   3.892   0.840  0.1552 -0.2632  0.3791
  188SOL    HW2  750   3.776   3.930   0.793 -0.0872 -1.6717 -0.3977
  188SOL    HW3  751   3.852   3.800   0.812  1.8753 -0.3679  0.7881
  188SOL    MW4  752   3.840   3.885   0.830  0.3502 -0.4628  0.3306
  189SOL     OW  753   4.196   2.399   0.150  0.0413 -0.0470  0.3930
  189SOL    HW2  754   4.181   2.400   0.055 -1.3663  1.2115  0.6099
  189SOL    HW3  755   4.269   2.339   0.162  1.5098  1.2488 -1.7007
  189SOL    MW4  756   4.204   2.391   0.139  0.0494  0.2900  0.1453
  190SOL     OW  757   3.169   4.005   0.728 -0.2656 -0.3295 -0.0834
  190SOL    HW2  758   3.200   4.026   0.640  1.2070  0.4230  0.6097
  190SOL    HW3  759   3.175   4.087   0.776 -0.7270 -0.8177  0.8284
  190SOL    MW4  760   3.174   4.018   0.722 -0.1322 -0.2947  0.1283
  191SOL     OW  761   2.962   2.843   0.746  0.1223 -0.3393 -0.0643
  191SOL    HW2  762   2.898   2.783   0.783 -0.7389  0.6308  0.0469
  191SOL    HW3  763   3.047   2.807   0.770 -0.4002 -1.0687  0.6802
  191SOL    MW4  764   2.965   2.830   0.754 -0.0603 -0.3075  0.0486
  192SOL     OW  765   2.651   4.495   0.351 -0.3360 -0.2507  0.1872
  192SOL    HW2  766   2.745   4.489   0.370 -0.4491  0.7759  1.1455
  192SOL    HW3  767   2.647   4.513   0.257  0.4065 -0.7926  0.0455
  192SOL    MW4  768   2.663   4.497   0.341 -0.2530 -0.1867  0.2949
  193SOL     OW  769   2.504   2.817   0.738  0.1345 -0.2056  0.1680
  193SOL    HW2  770   2.511   2.911   0.754 -1.5655  0.0085 -0.1792
  193SOL    HW3  771   2.473   2.811   0.648  0.3696 -1.1100  0.1468
  193SOL    MW4  772   2.501   2.829   0.728 -0.0588 -0.2967  0.1194
  194SOL     OW  773   3.614   3.196   0.673  0.0877  0.0194 -0.0013
  194SOL    HW2  774   3.542   3.180   0.734  0.0220  0.2697 -0.0108
  194SOL    HW3  775   3.688   3.148   0.709  0.8580  2.5374  1.8645
  194SOL    MW4  776   3.614   3.188   0.686  0.1807  0.3846  0.2436
  195SOL     OW  777   1.402   1.178   0.371 -0.0798  0.1296  0.3229
  195SOL    HW2  778   1.369   1.090   0.386 -1.2636  0.3380 -0.9111
  195SOL    HW3  779   1.331   1.236   0.399  0.1828  0.6474 -0.0605
  195SOL    MW4  780   1.388   1.174   0.376 -0.2013  0.2254  0.1095
  196SOL     OW  781   2.983   1.554   0.834  0.1146 -0.1428  0.3015
  196SOL    HW2  782   2.919   1.623   0.816 -0.6385 -0.8217  0.3620
  196SOL    HW3  783   3.062   1.583   0.788 -0.9477 -0.4692 -1.8307
  196SOL    MW4  784   2.985   1.567   0.825 -0.1249 -0.2755  0.0282
  197SOL     OW  785   3.996   3.182   0.486 -0.0701  0.1876 -0.4235
  197SOL    HW2  786   4.083   3.184   0.446 -0.9138  1.0143 -2.2705
  197SOL    HW3  787   3.948   3.252   0.442 -1.7892 -0.5057  0.3314
  197SOL    MW4  788   4.001   3.192   0.475 -0.4082  0.2052 -0.5676
  198SOL     OW  789   0.008   1.718   0.687  0.1212  0.3526 -0.3778
  198SOL    HW2  790   0.011   1.696   0.594 -0.5815  1.1781 -0.6022
  198SOL    HW3  791   0.088   1.680   0.724 -0.8441 -2.2365 -0.8137
  198SOL    MW4  792   0.019   1.710   0.680 -0.0988  0.1199 -0.4649
  199SOL     OW  793   2.187   1.619   0.452  0.2898 -0.3173  0.6166
  199SOL    HW2  794   2.117   1.679   0.427 -0.2711 -0.7964  1.0334
  199SOL    HW3  795   2.193   1.625   0.547  1.4019  0.3660  0.5134
  199SOL    MW4  796   2.179   1.627   0.461  0.3625 -0.2904  0.6580
  200SOL     OW  797   1.122   3.585   0.687 -0.1198 -0.0571 -0.2304
  200SOL    HW2  798   1.136   3.559   0.597  1.3412  1.1090 -0.3541
  200SOL    HW3  799   1.044   3.536   0.714 -0.0309 -1.1134 -1.8147
  200SOL    MW4  800   1.113   3.575   0.679  0.0847 -0.0426 -0.4557
  201SOL     OW  801   3.794   1.794   0.372  0.3007  0.0050  0.1980
  201SOL    HW2  802   3.792   1.889   0.362 -0.2409  0.0770  0.9801
  201SOL    HW3  803   3.702   1.768   0.369  0.5003 -0.6348 -1.2529
  201SOL    MW4  804   3.782   1.803   0.370  0.2555 -0.0699  0.1097
  202SOL     OW  805   0.243   2.298   0.778  0.1828 -0.1037  0.2290
  202SOL    HW2  806   0.244   2.290   0.873  0.3526  1.4138  0.3677
  202SOL    HW3  807   0.157   2.334   0.757 -0.1029 -1.0330 -0.2659
  202SOL    MW4  808   0.232   2.301   0.787  0.1675 -0.0261  0.1820
  203SOL     OW  809   4.066   1.197   0.803 -0.4539  0.0146  0.7495
  203SOL    HW2  810   4.086   1.113   0.761 -1.8498 -0.0612  0.1993
  203SOL    HW3  811   4.068   1.179   0.897 -2.5002 -1.0923  0.6228
  203SOL    MW4  812   4.069   1.184   0.810 -0.9081 -0.1415  0.6602
  204SOL     OW  813   1.450   3.731   0.644 -0.3036 -0.0854  0.1348
  204SOL    HW2  814   1.535   3.690   0.629  0.0546  0.6048  0.2758
  204SOL    HW3  815   1.468   3.803   0.704 -1.0761 -0.2827  0.6125
  204SOL    MW4  816   1.463   3.735   0.650 -0.3582 -0.0204  0.2164
  205SOL     OW  817   4.052   1.644   0.722  0.1846  0.6418  0.3028
  205SOL    HW2  818   4.139   1.615   0.749  0.2570  0.0729 -0.5192
  205SOL    HW3  819   4.051   1.633   0.627 -0.4992  1.4224  0.2093
  205SOL    MW4  820   4.063   1.639   0.713  0.1040  0.6697  0.1820
  206SOL     OW  821   1.444   2.398   0.107  0.1458  0.4621  0.6018
  206SOL    HW2  822   1.443   2.361   0.018  1.0762  0.8149  0.4407
  206SOL    HW3  823   1.402   2.331   0.161  0.4652 -0.1823  0.0588
  206SOL    MW4  824   1.438   2.384   0.102  0.3107  0.4236  0.5089
  207SOL     OW  825   1.553   2.098   0.724  0.3542 -0.0779 -0.5169
  207SOL    HW2  826   1.580   2.185   0.754 -2.6182  0.0278  2.1790
  207SOL    HW3  827   1.613   2.038   0.767  0.3754  0.4867  0.2729
  207SOL    MW4  828   1.564   2.102   0.734 -0.0352  0.0106 -0.0570
  208SOL     OW  829   1.844   2.553   0.416  0.2944 -0.1770  0.1858
  208SOL    HW2  830   1.783   2.499   0.366  0.7327 -0.3913 -0.1155
  208SOL    HW3  831   1.841   2.517   0.504 -1.0170  0.6447  0.4935
  208SOL    MW4  832   1.835   2.541   0.421  0.1792 -0.0969  0.1866
  209SOL     OW  833   2.687   1.208   0.839  0.2014 -0.2191  0.4631
  209SOL    HW2  834   2.620   1.252   0.786 -0.9055 -0.1163  1.9164
  209SOL    HW3  835   2.769   1.250   0.813 -0.3951  0.2130 -0.7609
  209SOL    MW4  836   2.689   1.219   0.828 -0.0233 -0.1485  0.4934
  210SOL     OW  837   2.232   0.887   0.448  0.1678 -0.1899  0.2459
  210SOL    HW2  838   2.140   0.889   0.424  0.4758 -1.9351 -1.1943
  210SOL    HW3  839   2.269   0.968   0.410 -0.3030 -0.6458 -1.2215
  210SOL    MW4  840   2.225   0.898   0.440  0.1463 -0.4803 -0.1377
  211SOL     OW  841   2.851   3.527   0.477  0.2191 -0.0583  0.0384
  211SOL    HW2  842   2.934   3.519   0.430  0.3311 -1.9378  0.5170
  211SOL    HW3  843   2.876   3.559   0.564  0.3523  0.2015 -0.0940
  211SOL    MW4  844   2.865   3.530   0.482  0.2515 -0.2720  0.0841
  212SOL     OW  845   3.417   2.374   0.358  0.2939 -0.4113 -0.2576
  212SOL    HW2  846   3.484   2.427   0.402 -1.1071  0.8518  0.4069
  212SOL    HW3  847   3.408   2.413   0.271  0.6265 -0.7762 -0.4594
  212SOL    MW4  848   3.425   2.386   0.352  0.1529 -0.2928 -0.1965
  213SOL     OW  849   2.978   0.524   0.439 -0.1214 -0.2205  0.0458
  213SOL    HW2  850   2.964   0.435   0.407 -1.1697  0.0728 -0.3422
  213SOL    HW3  851   2.984   0.515   0.534  0.3267 -0.7704 -0.0345
  213SOL    MW4  852   2.977   0.511   0.448 -0.2006 -0.2543 -0.0160
  214SOL     OW  853   4.084   1.943   0.792  0.0538  0.0462  0.0790
  214SOL    HW2  854   4.018   1.980   0.733  0.3905 -0.2990 -0.5259
  214SOL    HW3  855   4.081   1.849   0.775  0.4726 -0.0066  0.2884
  214SOL    MW4  856   4.075   1.936   0.782  0.1535 -0.0063  0.0268
  215SOL     OW  857   4.021   1.650   0.457  0.2884  0.6063 -0.0330
  215SOL    HW2  858   3.951   1.709   0.429 -0.9980  0.0803  1.9332
  215SOL    HW3  859   3.984   1.562   0.445  1.5492  0.2335 -1.3160
  215SOL    MW4  860   4.007   1.646   0.452  0.2850  0.4878  0.0571
  216SOL     OW  861   0.715   3.301   0.417 -0.0381 -0.2277 -0.2957
  216SOL    HW2  862   0.786   3.331   0.360  0.4255 -0.2087  0.2791
  216SOL    HW3  863   0.693   3.377   0.470 -0.0167 -0.4261  0.0016
  216SOL    MW4  864   0.721   3.315   0.417  0.0259 -0.2514 -0.1806
  217SOL     OW  865   2.146   0.400   0.479 -0.1463  0.8268 -0.0051
  217SOL    HW2  866   2.179   0.311   0.493 -0.2243  0.9911  1.2229
  217SOL    HW3  867   2.216   0.444   0.430 -0.4857 -0.1597 -1.4240
  217SOL    MW4  868   2.160   0.394   0.474 -0.2014  0.7183 -0.0303
  218SOL     OW  869   2.735   2.341   0.474  0.4991 -0.0530 -0.3042
  218SOL    HW2  870   2.817   2.292   0.480  2.0579  2.5166  0.2532
  218SOL    HW3  871   2.721   2.375   0.562 -0.5879  0.4130 -0.6529
  218SOL    MW4  872   2.744   2.339   0.486  0.5613  0.3475 -0.2767
  219SOL     OW  873   1.537   1.522   0.871 -0.1192 -0.1966 -0.1869
  219SOL    HW2  874   1.545   1.550   0.962  1.2037  1.9808 -0.9279
  219SOL    HW3  875   1.475   1.583   0.832  1.1885  0.4304 -1.3291
  219SOL    MW4  876   1.530   1.534   0.878  0.2279  0.1734 -0.4354
  220SOL     OW  877   1.356   2.477   0.706 -0.4462  0.6667  0.5968
  220SOL    HW2  878   1.394   2.438   0.627  0.7630  0.1589  1.4049
  220SOL    HW3  879   1.273   2.432   0.718 -0.0945 -0.0784  0.2520
  220SOL    MW4  880   1.350   2.466   0.697 -0.2403  0.5014  0.6579
  221SOL     OW  881   1.995   4.659   0.812  0.0500  0.2422 -0.2372
  221SOL    HW2  882   2.085   4.691   0.813  0.5965 -1.2520  0.2132
  221SOL    HW3  883   2.002   4.567   0.786 -1.4901  0.5105 -1.6768
  221SOL    MW4  884   2.008   4.651   0.809 -0.0811  0.0805 -0.3677
  222SOL     OW  885   0.682   1.528   0.777  0.1572  0.6223  0.0859
  222SOL    HW2  886   0.690   1.535   0.872  0.1885  3.5328 -0.0966
  222SOL    HW3  887   0.760   1.572   0.743 -0.3889  0.5504 -1.3048
  222SOL    MW4  888   0.693   1.535   0.785  0.0893  0.9968 -0.1217
  223SOL     OW  889   1.144   4.579   0.834 -0.3723 -0.0387 -0.3473
  223SOL    HW2  890   1.143   4.497   0.785 -1.7643  0.2678 -0.8497
  223SOL    HW3  891   1.202   4.637   0.783  0.4829 -0.6420 -0.0763
  223SOL    MW4  892   1.152   4.576   0.821 -0.4431 -0.0779 -0.3778
  224SOL     OW  893   4.293   2.339   0.858 -0.5113 -0.2252  0.0287
  224SOL    HW2  894   4.216   2.383   0.822  0.4332 -0.0965 -1.9406
  224SOL    HW3  895   4.293   2.254   0.814  0.3768 -0.2791  0.1362
  224SOL    MW4  896   4.283   2.334   0.847 -0.2695 -0.2153 -0.2170
  225SOL     OW  897   0.914   1.647   0.674 -0.0020 -0.2643  0.4527
  225SOL    HW2  898   0.912   1.647   0.578 -0.1043 -1.1238  0.4423
  225SOL    HW3  899   0.987   1.590   0.696 -0.8413 -1.1955  0.8776
  225SOL    MW4  900   0.923   1.639   0.664 -0.1263 -0.5005  0.5074
  226SOL     OW  901   3.253   0.164   0.444 -0.2736 -0.1496 -0.0124
  226SOL    HW2  902   3.210   0.137   0.525  0.2537 -0.9370  0.0070
  226SOL    HW3  903   3.290   0.250   0.464 -1.2962  0.2604  0.1616
  226SOL    MW4  904   3.252   0.172   0.457 -0.3389 -0.1994  0.0131
  227SOL     OW  905   3.016   2.047   0.749  0.4343  0.1120  0.1904
  227SOL    HW2  906   2.961   1.973   0.774  1.1088 -0.4253  0.0872
  227SOL    HW3  907   3.104   2.022   0.776  1.0745 -0.1958 -2.1182
  227SOL    MW4  908   3.021   2.034   0.756  0.6077  0.0005 -0.1278
  228SOL     OW  909   1.608   2.893   0.819  0.4649  0.2864 -0.2128
  228SOL    HW2  910   1.521   2.853   0.820  0.0368  1.2250  0.5877
  228SOL    HW3  911   1.608   2.952   0.894  1.9097  0.0536 -0.0253
  228SOL    MW4  912   1.596   2.896   0.829  0.5990  0.3795 -0.0824
  229SOL     OW  913   3.183   3.363   0.512 -0.3336  0.0826 -0.5634
  229SOL    HW2  914   3.130   3.313   0.451 -0.8555 -0.6466  0.4790
  229SOL    HW3  915   3.174   3.317   0.596 -0.9040  1.9484  0.4321
  229SOL    MW4  916   3.175   3.351   0.515 -0.4777  0.2326 -0.2946
  230SOL     OW  917   3.868   0.523   0.727 -0.0184  0.5328 -0.0108
  230SOL    HW2  918   3.783   0.506   0.767  0.1638 -0.9568 -0.2438
  230SOL    HW3  919   3.855   0.505   0.634  0.8752 -0.9647  0.1442
  230SOL    MW4  920   3.855   0.518   0.720  0.1236  0.1387 -0.0211
  231SOL     OW  921   3.180   0.147   0.168 -0.4887  0.5188  0.0292
  231SOL    HW2  922   3.245   0.184   0.108 -0.1891  2.0206  1.2441
  231SOL    HW3  923   3.218   0.160   0.255 -2.3445  1.3150  0.7527
  231SOL    MW4  924   3.194   0.154   0.172 -0.6940  0.8220  0.2849
  232SOL     OW  925   3.368   4.660   0.763  0.6391  0.5216  0.0554
  232SOL    HW2  926   3.365   4.567   0.742  1.9476  0.0597  1.8219
  232SOL    HW3  927   3.360   4.664   0.858 -0.5490  2.2924 -0.0875
  232SOL    MW4  928   3.366   4.648   0.773  0.6550  0.6943  0.2696
  233SOL     OW  929   0.949   3.424   0.293 -0.0153 -0.6153 -0.2622
  233SOL    HW2  930   0.991   3.339   0.284 -0.6872 -1.0026  0.2547
  233SOL    HW3  931   1.019   3.481   0.326  0.2851 -1.1070 -0.0402
  233SOL    MW4  932   0.964   3.421   0.296 -0.0643 -0.7313 -0.1647
  234SOL     OW  933   1.650   3.326   0.303  0.6039 -0.1026  0.1108
  234SOL    HW2  934   1.741   3.344   0.325  0.2655 -1.4322  2.7831
  234SOL    HW3  935   1.640   3.232   0.317 -0.7002 -0.3020 -2.0082
  234SOL    MW4  936   1.661   3.316   0.308  0.3872 -0.3043  0.1838
  235SOL     OW  937   3.375   1.530   1.157  0.2452  0.2184 -0.3341
  235SOL    HW2  938   3.304   1.587   1.187 -0.2031 -0.4957  0.0006
  235SOL    HW3  939   3.455   1.573   1.187 -0.1742 -0.2565  1.5495
  235SOL    MW4  940   3.376   1.543   1.165  0.1307  0.0615 -0.0414
  236SOL     OW  941   0.491   2.723   0.818  0.4114  0.1836  0.7876
  236SOL    HW2  942   0.413   2.763   0.780  0.7732  0.3716  0.2237
  236SOL    HW3  943   0.493   2.634   0.781 -0.2569 -0.2724  1.8433
  236SOL    MW4  944   0.481   2.716   0.808  0.3709  0.1482  0.8525
  237SOL     OW  945   4.051   4.451   0.368 -0.1630  0.3347 -0.1777
  237SOL    HW2  946   4.141   4.442   0.401 -0.6443  0.9767  1.3127
  237SOL    HW3  947   4.028   4.542   0.384 -0.8317  0.3681 -1.2451
  237SOL    MW4  948   4.060   4.462   0.374 -0.3148  0.4238 -0.1219
  238SOL     OW  949   1.967   0.941   0.412  0.0520 -0.4996  0.5510
  238SOL    HW2  950   1.950   0.888   0.335 -0.1744  0.7098 -0.2435
  238SOL    HW3  951   1.909   0.906   0.479 -1.0395 -0.4034 -0.3417
  238SOL    MW4  952   1.957   0.930   0.411 -0.1219 -0.3274  0.3284
  239SOL     OW  953   4.281   2.102   0.713 -0.0292 -0.3007  0.8634
  239SOL    HW2  954   4.361   2.061   0.744 -0.5256 -1.7816  0.2085
  239SOL    HW3  955   4.211   2.042   0.737 -0.7692  0.1669 -0.0732
  239SOL    MW4  956   4.282   2.089   0.720 -0.1923 -0.4344  0.6534
  240SOL     OW  957   1.762   2.087   0.308 -0.4997 -0.2883  0.3042
  240SOL    HW2  958   1.682   2.069   0.357 -2.1146  0.1377 -2.0851
  240SOL    HW3  959   1.758   2.027   0.233  1.2139  0.0373 -0.0614
  240SOL    MW4  960   1.751   2.077   0.305 -0.4867 -0.1892 -0.0593
  241SOL     OW  961   2.956   0.526   0.711 -0.2079 -0.0140 -0.2292
  241SOL    HW2  962   2.877   0.478   0.736  0.3734 -1.4194 -1.0291
  241SOL    HW3  963   3.026   0.484   0.761  0.3010  0.0430 -0.8993
  241SOL    MW4  964   2.954   0.514   0.721 -0.0640 -0.1919 -0.4231
  242SOL     OW  965   3.116   4.540   0.214  0.3724  0.1304  0.1118
  242SOL    HW2  966   3.205   4.526   0.246 -0.1055 -0.1184  1.3416
  242SOL    HW3  967   3.113   4.632   0.189  0.8113  0.2774  0.6030
  242SOL    MW4  968   3.127   4.550   0.215  0.3673  0.1169  0.3388
  243SOL     OW  969   1.789   4.539   0.183 -0.5787 -0.1816 -0.0807
  243SOL    HW2  970   1.775   4.446   0.166 -0.4585 -0.7238  2.5432
  243SOL    HW3  971   1.705   4.580   0.160 -0.6271 -0.9175 -1.2682
  243SOL    MW4  972   1.776   4.532   0.178 -0.5692 -0.3502  0.1088
  244SOL     OW  973   2.266   2.449   0.733 -0.1391  0.2123  0.5290
  244SOL    HW2  974   2.341   2.394   0.754 -0.7317 -0.5405  0.7238
  244SOL    HW3  975   2.276   2.526   0.790 -0.2166 -0.4951  1.5180
  244SOL    MW4  976   2.277   2.452   0.743 -0.2275  0.0196  0.6852
  245SOL     OW  977   2.484   2.314   0.847 -0.0956  0.0288  0.1802
  245SOL    HW2  978   2.564   2.357   0.818 -0.3237 -0.3441 -1.0330
  245SOL    HW3  979   2.491   2.225   0.812 -0.2032 -0.5461  1.5991
  245SOL    MW4  980   2.496   2.308   0.838 -0.1399 -0.0962  0.2074
  246SOL     OW  981   0.357   0.880   0.475  0.1622  0.0530  0.0766
  246SOL    HW2  982   0.403   0.820   0.417 -0.0149 -0.3137  0.3133
  246SOL    HW3  983   0.264   0.857   0.464  0.1676 -0.3713  0.8976
  246SOL    MW4  984   0.351   0.869   0.466  0.1396 -0.0514  0.2161
  247SOL     OW  985   3.819   2.271   0.809  0.2088  0.1915  0.7489
  247SOL    HW2  986   3.754   2.329   0.768  0.4680  1.2222  1.7778
  247SOL    HW3  987   3.819   2.295   0.901  2.6703  0.8289  0.6383
  247SOL    MW4  988   3.811   2.282   0.815  0.5677  0.4116  0.8700
  248SOL     OW  989   3.841   3.083   0.774  0.0186  0.1526  0.0493
  248SOL    HW2  990   3.914   3.142   0.755 -0.1189 -0.1031 -1.3136
  248SOL    HW3  991   3.879   2.995   0.769 -0.1206  0.0621  0.5522
  248SOL    MW4  992   3.856   3.079   0.771 -0.0179  0.1070 -0.0641
  249SOL     OW  993   2.587   0.079   0.465 -0.0779 -0.5236 -0.7524
  249SOL    HW2  994   2.656   0.090   0.531  0.1584  0.0198 -1.0882
  249SOL    HW3  995   2.597  -0.011   0.436  0.7307 -0.3445 -1.0592
  249SOL    MW4  996   2.597   0.069   0.470  0.0600 -0.4283 -0.8372
  250SOL     OW  997   4.321   3.863   0.863  0.0160  0.0735 -0.2553
  250SOL    HW2  998   4.322   3.875   0.959 -1.7980  0.6638 -0.2742
  250SOL    HW3  999   4.324   3.769   0.850  0.2409 -0.0106  0.3984
  250SOL    MW4 1000   4.321   3.852   0.874 -0.1937  0.1403 -0.1716
  251SOL     OW 1001   2.441   2.768   0.456 -0.0212 -0.0255  0.1797
  251SOL    HW2 1002   2.356   2.811   0.456  0.1503  0.3168 -0.5701
  251SOL    HW3 1003   2.421   2.675   0.452 -0.3875 -0.0220  1.4851
  251SOL    MW4 1004   2.428   2.762   0.456 -0.0469  0.0201  0.2530
  252SOL     OW 1005   2.249   1.153   0.765 -0.2616 -0.0238 -0.4347
  252SOL    HW2 1006   2.273   1.170   0.856 -1.4213 -0.5345 -0.0190
  252SOL    HW3 1007   2.256   1.058   0.756  0.4697  0.0898 -1.0599
  252SOL    MW4 1008   2.253   1.142   0.776 -0.3181 -0.0762 -0.4623
  253SOL     OW 1009   2.820   1.831   0.852  0.3519 -0.0826 -0.2772
  253SOL    HW2 1010   2.745   1.796   0.803  1.2252 -1.7798 -0.4467
  253SOL    HW3 1011   2.785   1.850   0.939 -0.7142  0.9277 -0.9113
  253SOL    MW4 1012   2.806   1.829   0.857  0.3265 -0.1733 -0.3832
  254SOL     OW 1013   2.476   1.317   0.686 -0.4936 -0.3831 -0.9789
  254SOL    HW2 1014   2.399   1.260   0.692 -1.5869  1.1060 -0.7379
  254SOL    HW3 1015   2.526   1.281   0.613 -0.9533 -1.9115 -0.5714
  254SOL    MW4 1016   2.473   1.304   0.677 -0.6985 -0.3883 -0.8933
  255SOL     OW 1017   0.681   4.321   0.472  0.8263  0.5563 -0.0040
  255SOL    HW2 1018   0.593   4.289   0.450  0.4227  0.2797  1.8643
  255SOL    HW3 1019   0.736   4.243   0.468  1.0892  0.8083 -1.6044
  255SOL    MW4 1020   0.677   4.307   0.469  0.8077  0.5530  0.0314
  256SOL     OW 1021   1.150   2.879   0.661  0.2001 -0.1029  0.1162
  256SOL    HW2 1022   1.228   2.847   0.706 -0.0759 -0.7119  0.1763
  256SOL    HW3 1023   1.078   2.851   0.717 -0.0210  1.2505  0.5336
  256SOL    MW4 1024   1.151   2.871   0.674  0.1345 -0.0047  0.1792
  257SOL     OW 1025   1.804   3.455   0.780 -0.1801 -0.0193  0.3468
  257SOL    HW2 1026   1.789   3.467   0.873 -0.1742  0.5681  0.2729
  257SOL    HW3 1027   1.886   3.502   0.763 -0.7494  0.7901 -0.1655
  257SOL    MW4 1028   1.813   3.463   0.790 -0.2544  0.1650  0.2695
  258SOL     OW 1029   3.822   4.647   0.827 -0.3189  0.0929  0.0574
  258SOL    HW2 1030   3.816   4.555   0.802  0.9260 -0.1255  0.5038
  258SOL    HW3 1031   3.895   4.681   0.776 -0.6555  0.7908  0.0340
  258SOL    MW4 1032   3.831   4.639   0.817 -0.1991  0.1562  0.1132
  259SOL     OW 1033   0.434   1.931   0.781 -0.0464 -0.0794 -0.0243
  259SOL    HW2 1034   0.511   1.981   0.754 -0.0203 -0.2776 -0.3082
  259SOL    HW3 1035   0.447   1.917   0.875  0.8886 -1.2140 -0.3153
  259SOL    MW4 1036   0.446   1.936   0.790  0.0804 -0.2552 -0.1002
  260SOL     OW 1037   3.800   1.025   0.219 -0.1430  0.1149  0.1228
  260SOL    HW2 1038   3.731   0.998   0.280 -1.4164  0.9679 -0.9064
  260SOL    HW3 1039   3.812   0.950   0.161  0.4100 -0.3491  0.8282
  260SOL    MW4 1040   3.793   1.011   0.219 -0.2381  0.1662  0.0801
  261SOL     OW 1041   1.320   1.635   0.412  0.7515 -0.5748  0.5579
  261SOL    HW2 1042   1.268   1.696   0.359  2.1484  0.2782  0.1084
  261SOL    HW3 1043   1.276   1.551   0.403 -1.4249  0.4340  1.4756
  261SOL    MW4 1044   1.307   1.632   0.404  0.6487 -0.3292  0.6197
  262SOL     OW 1045   4.288   1.306   0.367 -0.1577  0.6010  0.0549
  262SOL    HW2 1046   4.200   1.318   0.332 -0.4028  0.2546  0.5512
  262SOL    HW3 1047   4.278   1.312   0.462  0.3373  0.4430  0.1219
  262SOL    MW4 1048   4.275   1.309   0.375 -0.1248  0.5344  0.1292
  263SOL     OW 1049   3.140   0.357   0.819  0.4488  0.0125  0.3445
  263SOL    HW2 1050   3.136   0.336   0.913  0.3867 -1.1399  0.0981
  263SOL    HW3 1051   3.226   0.396   0.807  1.1324 -1.3932  0.5865
  263SOL    MW4 1052   3.151   0.359   0.830  0.5308 -0.3250  0.3439
  264SOL     OW 1053   1.317   0.088   0.693 -0.7648  0.3052 -0.2909
  264SOL    HW2 1054   1.407   0.064   0.714 -0.8788 -1.5960 -1.7946
  264SOL    HW3 1055   1.318   0.108   0.600 -2.2000 -1.4041 -0.7059
  264SOL    MW4 1056   1.329   0.087   0.684 -0.9692 -0.1712 -0.5440
  265SOL     OW 1057   4.308   1.553   0.794 -0.0237 -0.2810 -0.4416
  265SOL    HW2 1058   4.387   1.603   0.774 -0.1864  0.2005  0.0938
  265SOL    HW3 1059   4.297   1.562   0.888 -0.4304 -0.7734 -0.4396
  265SOL    MW4 1060   4.317   1.561   0.803 -0.0988 -0.2825 -0.3707
  266SOL     OW 1061   3.599   1.434   0.327  0.0190  0.2458 -0.8559
  266SOL    HW2 1062   3.582   1.392   0.242 -0.9552  0.2583 -0.6697
  266SOL    HW3 1063   3.537   1.393   0.387 -0.1610  1.1395 -0.4265
  266SOL    MW4 1064   3.589   1.423   0.323 -0.1333  0.3654 -0.7747
  267SOL     OW 1065   2.224   1.953   0.838  0.1339 -0.3420  0.1004
  267SOL    HW2 1066   2.146   1.989   0.798 -0.1233 -1.2893 -0.2702
  267SOL    HW3 1067   2.294   2.015   0.817 -0.1731 -0.3891 -1.0503
  267SOL    MW4 1068   2.223   1.966   0.830  0.0595 -0.4732 -0.1003
  268SOL     OW 1069   2.892   1.380   0.475 -0.5113 -0.0373 -0.2553
  268SOL    HW2 1070   2.910   1.327   0.552 -0.2987 -1.7031 -1.4301
  268SOL    HW3 1071   2.855   1.462   0.510  0.9476 -0.1719  1.6719
  268SOL    MW4 1072   2.890   1.384   0.490 -0.2908 -0.2748 -0.1561
  269SOL     OW 1073   1.131   3.853   0.731 -0.5045 -0.3817 -0.0633
  269SOL    HW2 1074   1.124   3.762   0.703  1.1785 -0.1940 -1.1423
  269SOL    HW3 1075   1.158   3.848   0.822 -0.3674 -0.9640 -0.1313
  269SOL    MW4 1076   1.133   3.840   0.739 -0.2644 -0.4337 -0.2146
  270SOL     OW 1077   1.768   3.839   0.478  0.5338 -0.2317  0.1919
  270SOL    HW2 1078   1.764   3.885   0.561 -1.0432  0.7063 -0.3703
  270SOL    HW3 1079   1.750   3.747   0.501 -1.5158  0.2649  0.7298
  270SOL    MW4 1080   1.765   3.833   0.492  0.0553 -0.0424  0.1887
  271SOL     OW 1081   1.038   0.877   0.453  0.1337 -0.2446 -0.2253
  271SOL    HW2 1082   0.973   0.905   0.389 -0.2007  0.8638  0.5895
  271SOL    HW3 1083   0.996   0.891   0.538  0.9284 -0.8120  0.2703
  271SOL    MW4 1084   1.024   0.883   0.456  0.1944 -0.1732 -0.0524
  272SOL     OW 1085   0.106   1.014   0.156 -0.2989  0.2864 -0.0916
  272SOL    HW2 1086   0.183   1.056   0.194 -0.6225  0.5721  0.2512
  272SOL    HW3 1087   0.126   0.921   0.156 -0.0447  0.3407  0.2060
  272SOL    MW4 1088   0.119   1.007   0.161 -0.3081  0.3313 -0.0071
  273SOL     OW 1089   0.226   3.072   0.799  0.2806  0.3918 -0.0406
  273SOL    HW2 1090   0.307   3.115   0.771  0.5584  0.0707  0.2446
  273SOL    HW3 1091   0.233   3.070   0.895 -1.0781  2.3019  0.1202
  273SOL    MW4 1092   0.238   3.077   0.808  0.1380  0.6015  0.0183
  274SOL     OW 1093   0.269   3.936   0.318 -0.2536 -0.3116  0.1957
  274SOL    HW2 1094   0.249   3.848   0.350  0.2506 -0.1482  0.9656
  274SOL    HW3 1095   0.191   3.987   0.340 -0.2927 -0.4220  0.3163
  274SOL    MW4 1096   0.256   3.931   0.325 -0.1922 -0.3046  0.3132
  275SOL     OW 1097   0.640   0.260   0.375  0.2319 -0.2414  0.1113
  275SOL    HW2 1098   0.709   0.218   0.425  1.5475  0.0865 -1.3734
  275SOL    HW3 1099   0.683   0.334   0.332 -1.3458  0.7827  0.2258
  275SOL    MW4 1100   0.655   0.265   0.376  0.1973 -0.0630 -0.0695
  276SOL     OW 1101   2.949   4.190   0.481  0.2152 -0.0911 -0.1770
  276SOL    HW2 1102   2.873   4.135   0.462  0.8518 -1.2805  0.7278
  276SOL    HW3 1103   2.923   4.277   0.449 -1.6225 -0.4273  0.3341
  276SOL    MW4 1104   2.935   4.195   0.474  0.0567 -0.2924  0.0098
  277SOL     OW 1105   3.249   1.908   0.862 -0.1748  0.2978  0.0655
  277SOL    HW2 1106   3.228   1.896   0.955 -1.2382  0.1235 -0.1846
  277SOL    HW3 1107   3.238   1.821   0.824  0.2237  0.3774 -0.2328
  277SOL    MW4 1108   3.245   1.895   0.870 -0.2625  0.2853 -0.0068
  278SOL     OW 1109   3.867   2.037   0.655 -0.1935 -0.0331  0.2267
  278SOL    HW2 1110   3.863   2.050   0.560  0.9067 -0.9647  0.0281
  278SOL    HW3 1111   3.866   2.125   0.692  1.1148  0.4144 -0.7433
  278SOL    MW4 1112   3.867   2.050   0.647  0.1242 -0.0970  0.0725
  279SOL     OW 1113   3.883   0.797   0.793 -0.3920 -0.0210 -0.7681
  279SOL    HW2 1114   3.892   0.707   0.763  0.2303  0.0548 -0.8230
  279SOL    HW3 1115   3.872   0.790   0.888  1.2327 -0.0870 -0.5609
  279SOL    MW4 1116   3.883   0.784   0.802 -0.0956 -0.0197 -0.7480
  280SOL     OW 1117   1.613   2.352   0.813 -0.2103 -0.5056  0.1018
  280SOL    HW2 1118   1.680   2.411   0.779  0.3402  0.1915  2.3686
  280SOL    HW3 1119   1.530   2.391   0.783  0.1023  1.7902  2.0759
  280SOL    MW4 1120   1.611   2.365   0.804 -0.0964 -0.1107  0.6613
  281SOL     OW 1121   2.595   1.774   0.684 -0.4141 -0.1436  0.0143
  281SOL    HW2 1122   2.548   1.705   0.731 -1.0784 -0.4929 -1.1507
  281SOL    HW3 1123   2.542   1.791   0.606 -1.0905  2.7990  1.0469
  281SOL    MW4 1124   2.582   1.767   0.680 -0.5910  0.1986 -0.0032
  282SOL     OW 1125   2.479   3.598   0.762 -0.6392  0.0152 -0.0369
  282SOL    HW2 1126   2.505   3.625   0.674  0.0462 -0.1747  0.1059
  282SOL    HW3 1127   2.471   3.679   0.811  0.3756  0.0376  0.1067
  282SOL    MW4 1128   2.481   3.612   0.757 -0.4149 -0.0069  0.0009
  283SOL     OW 1129   0.714   3.611   0.355 -0.1274  0.3876 -0.3380
  283SOL    HW2 1130   0.796   3.573   0.324  0.8540  1.7109  0.5972
  283SOL    HW3 1131   0.719   3.608   0.450 -0.7444  1.3434 -0.2618
  283SOL    MW4 1132   0.725   3.606   0.363 -0.0793  0.6883 -0.2045
  284SOL     OW 1133   0.935   0.097   0.743 -0.2143  0.2751  0.2512
  284SOL    HW2 1134   0.852   0.073   0.784  0.4697 -1.4454  0.6977
  284SOL    HW3 1135   1.000   0.046   0.791  1.0517  1.3129 -0.3498
  284SOL    MW4 1136   0.933   0.087   0.755  0.0429  0.1850  0.2308
  285SOL     OW 1137   4.266   0.756   0.770 -0.0022 -0.1022  0.4112
  285SOL    HW2 1138   4.207   0.825   0.740 -1.4333 -1.3608  0.2413
  285SOL    HW3 1139   4.354   0.789   0.751 -0.7401  0.7247 -1.7076
  285SOL    MW4 1140   4.270   0.769   0.763 -0.2884 -0.1591  0.1093
  286SOL     OW 1141   0.711   2.819   0.677  0.4787  0.5356 -0.3057
  286SOL    HW2 1142   0.636   2.784   0.724 -0.4154  1.2513 -1.1881
  286SOL    HW3 1143   0.786   2.800   0.734 -0.4865  0.7105  1.0316
  286SOL    MW4 1144   0.711   2.811   0.690  0.2334  0.6531 -0.2457
  287SOL     OW 1145   3.167   2.458   0.780 -0.4266 -0.1332 -0.0390
  287SOL    HW2 1146   3.167   2.439   0.686  1.8652 -1.0289  0.1154
  287SOL    HW3 1147   3.085   2.422   0.812 -1.3485  0.4024 -1.7303
  287SOL    MW4 1148   3.156   2.451   0.772 -0.2459 -0.1807 -0.2417
  288SOL     OW 1149   4.000   2.500   0.474  0.4643  0.5223  0.0387
  288SOL    HW2 1150   3.975   2.420   0.428 -1.1342  0.3317  1.2045
  288SOL    HW3 1151   3.933   2.564   0.449  0.0920  0.6693  1.4060
  288SOL    MW4 1152   3.988   2.498   0.465  0.2043  0.5166  0.3730
  289SOL     OW 1153   3.828   4.381   0.713  0.0661  0.1765  0.2974
  289SOL    HW2 1154   3.899   4.345   0.765  0.5274 -0.5168 -0.7840
  289SOL    HW3 1155   3.840   4.342   0.626  0.3865  2.6744 -0.8341
  289SOL    MW4 1156   3.839   4.372   0.708  0.1692  0.4146  0.0055
  290SOL     OW 1157   3.183   0.906   0.394 -0.3026  0.0926  0.1281
  290SOL    HW2 1158   3.119   0.972   0.370 -1.3365 -0.6047  0.9498
  290SOL    HW3 1159   3.185   0.907   0.490 -1.5573 -2.1997  0.2207
  290SOL    MW4 1160   3.175   0.915   0.404 -0.6045 -0.3018  0.2487
  291SOL     OW 1161   2.001   2.327   0.803  0.5496  0.6222 -0.1625
  291SOL    HW2 1162   2.091   2.344   0.775  0.7172 -0.7281 -0.4829
  291SOL    HW3 1163   2.008   2.307   0.896  0.4939  1.1637 -0.0400
  291SOL    MW4 1164   2.014   2.326   0.811  0.5644  0.5154 -0.1886
  292SOL     OW 1165   1.537   3.918   0.815  0.0062  0.3752  0.3504
  292SOL    HW2 1166   1.493   4.002   0.828  0.4316  0.6252  0.2019
  292SOL    HW3 1167   1.625   3.942   0.786 -0.1257 -0.1282 -0.4845
  292SOL    MW4 1168   1.543   3.932   0.813  0.0449  0.3418  0.2206
  293SOL     OW 1169   4.395   1.051   0.348 -0.1412  0.3798 -0.6501
  293SOL    HW2 1170   4.449   1.054   0.269 -0.9027 -0.0512 -1.2018
  293SOL    HW3 1171   4.346   1.133   0.348 -1.6112 -0.4563 -1.7134
  293SOL    MW4 1172   4.396   1.062   0.337 -0.4356  0.2126 -0.8631
  294SOL     OW 1173   3.375   0.502   0.769  0.1428 -0.2911  0.2364
  294SOL    HW2 1174   3.378   0.594   0.797  0.4084 -0.0607 -0.5471
  294SOL    HW3 1175   3.461   0.467   0.791  0.5316  0.0308 -0.7719
  294SOL    MW4 1176   3.387   0.510   0.776  0.2291 -0.2182  0.0000
  295SOL     OW 1177   0.027   1.412   0.296 -0.0125  0.0003 -0.2123
  295SOL    HW2 1178   0.012   1.443   0.207 -0.3362  0.0058 -0.1581
  295SOL    HW3 1179  -0.055   1.369   0.320 -0.5141  1.3771  0.6439
  295SOL    MW4 1180   0.014   1.411   0.288 -0.1214  0.1827 -0.0922
  296SOL     OW 1181   3.549   1.689   0.432  0.6353  0.3989 -0.2805
  296SOL    HW2 1182   3.567   1.607   0.385  1.2783  0.3044  0.1290
  296SOL    HW3 1183   3.560   1.666   0.524  0.1923  0.7919 -0.1347
  296SOL    MW4 1184   3.553   1.675   0.438  0.6617  0.4383 -0.2072
  297SOL     OW 1185   1.148   2.086   0.417 -0.2761 -0.6909  0.0081
  297SOL    HW2 1186   1.149   2.059   0.509 -0.6090 -0.3536  0.1138
  297SOL    HW3 1187   1.141   2.004   0.368  1.8505 -1.0186  0.2016
  297SOL    MW4 1188   1.147   2.072   0.422 -0.0394 -0.6897  0.0475
  298SOL     OW 1189   1.639   1.301   0.482  0.0520 -0.0076 -0.0184
  298SOL    HW2 1190   1.567   1.268   0.429 -0.5770  1.6402 -0.2211
  298SOL    HW3 1191   1.718   1.275   0.435 -0.4540 -0.0808 -0.8312
  298SOL    MW4 1192   1.640   1.293   0.469 -0.0978  0.2002 -0.1524
  299SOL     OW 1193   2.023   1.287   0.713  0.4143  0.0761 -0.3484
  299SOL    HW2 1194   2.111   1.251   0.722  1.1137  1.3731 -1.7161
  299SOL    HW3 1195   2.003   1.278   0.620 -0.2635  1.2212 -0.3243
  299SOL    MW4 1196   2.032   1.281   0.702  0.4171  0.3983 -0.5257
  300SOL     OW 1197   2.977   1.831   0.437  0.2130  0.6770  0.0412
  300SOL    HW2 1198   2.958   1.925   0.446  0.0470  0.6170  0.3587
  300SOL    HW3 1199   3.072   1.826   0.431  0.1558  0.9522 -1.1266
  300SOL    MW4 1200   2.987   1.843   0.438  0.1835  0.7054 -0.0710
  301SOL     OW 1201   2.267   4.200   0.352  0.0111 -0.4002  0.3145
  301SOL    HW2 1202   2.229   4.166   0.271 -0.2695 -0.5243  0.4982
  301SOL    HW3 1203   2.201   4.260   0.387 -0.4038 -1.2909  1.0907
  301SOL    MW4 1204   2.253   4.203   0.346 -0.0806 -0.5341  0.4411
  302SOL     OW 1205   2.513   4.294   0.474 -0.2356  0.1811 -0.0665
  302SOL    HW2 1206   2.559   4.356   0.418  1.1932 -0.6376  0.1858
  302SOL    HW3 1207   2.428   4.282   0.432 -0.5386  2.2874 -0.1267
  302SOL    MW4 1208   2.508   4.301   0.461 -0.0871  0.3510 -0.0411
  303SOL     OW 1209   4.055   0.366   0.861  0.4572 -0.4241 -0.0203
  303SOL    HW2 1210   4.001   0.430   0.814  0.6319  0.4076  0.8794
  303SOL    HW3 1211   4.028   0.281   0.826 -0.2734  0.0955 -0.7441
  303SOL    MW4 1212   4.044   0.363   0.850  0.3839 -0.2458  0.0029
  304SOL     OW 1213   0.047   0.370   0.823 -0.1099 -0.1635 -0.0116
  304SOL    HW2 1214  -0.030   0.423   0.804  0.7638  0.9437 -0.5017
  304SOL    HW3 1215   0.044   0.358   0.918 -1.1286 -0.5158 -0.0833
  304SOL    MW4 1216   0.037   0.376   0.833 -0.1290 -0.0639 -0.0858
  305SOL     OW 1217   2.473   2.059   0.751  0.1368  0.1341 -0.1292
  305SOL    HW2 1218   2.530   1.982   0.747 -0.7730 -0.5455 -0.2155
  305SOL    HW3 1219   2.445   2.073   0.661  0.4267  0.6644 -0.1361
  305SOL    MW4 1220   2.477   2.051   0.739  0.0550  0.1144 -0.1415
  306SOL     OW 1221   0.020   1.974   0.797  0.4952  0.2570 -0.1365
  306SOL    HW2 1222   0.098   2.005   0.751  2.6524 -2.3159  1.6522
  306SOL    HW3 1223   0.000   1.889   0.757  0.3008 -0.3869  1.2811
  306SOL    MW4 1224   0.027   1.967   0.786  0.7542 -0.1674  0.2865
  307SOL     OW 1225   1.696   0.353   0.302 -0.1767 -0.2268  0.0750
  307SOL    HW2 1226   1.713   0.267   0.342  0.8302 -0.1200 -0.1247
  307SOL    HW3 1227   1.656   0.333   0.217  0.2492 -0.4966 -0.0599
  307SOL    MW4 1228   1.693   0.339   0.296  0.0123 -0.2483  0.0309
  308SOL     OW 1229   1.840   1.093   0.824 -0.2333 -0.2983  0.1351
  308SOL    HW2 1230   1.765   1.152   0.817 -1.7845 -2.0873  0.9976
  308SOL    HW3 1231   1.914   1.143   0.791 -1.5887  1.9416  0.4112
  308SOL    MW4 1232   1.840   1.107   0.819 -0.6168 -0.2388  0.2854
  309SOL     OW 1233   1.711   1.837   0.181 -0.1611  0.2401  0.3384
  309SOL    HW2 1234   1.712   1.787   0.100  0.0709 -0.3206  0.6846
  309SOL    HW3 1235   1.668   1.779   0.244 -3.0438  1.7982 -0.1037
  309SOL    MW4 1236   1.705   1.823   0.179 -0.5108  0.3717  0.3257
  310SOL     OW 1237   2.364   3.113   0.478  0.0119  0.1655 -0.0779
  310SOL    HW2 1238   2.302   3.054   0.435 -0.5995 -0.1917  1.2351
  310SOL    HW3 1239   2.443   3.110   0.425 -0.1517 -1.5461 -0.2329
  310SOL    MW4 1240   2.366   3.105   0.465 -0.0904 -0.1074  0.0749
  311SOL     OW 1241   0.676   1.327   0.456  0.0710 -0.3854  0.0667
  311SOL    HW2 1242   0.673   1.294   0.546  0.4348 -1.2234 -0.2284
  311SOL    HW3 1243   0.603   1.389   0.451  0.0636 -0.3144  0.9456
  311SOL    MW4 1244   0.666   1.331   0.467  0.1180 -0.4866  0.1438
  312SOL     OW 1245   3.404   2.069   0.691 -0.3632  0.1153 -0.4719
  312SOL    HW2 1246   3.357   2.005   0.743 -0.9451 -0.2953 -1.4834
  312SOL    HW3 1247   3.394   2.152   0.738 -1.3678 -0.1408 -0.2355
  312SOL    MW4 1248   3.396   2.072   0.704 -0.5725  0.0273 -0.5742
  313SOL     OW 1249   4.271   0.487   0.737  0.2663  0.4542  0.3540
  313SOL    HW2 1250   4.247   0.578   0.752  0.0435  0.7679 -1.7592
  313SOL    HW3 1251   4.204   0.436   0.783 -0.4326  1.3596  0.3480
  313SOL    MW4 1252   4.259   0.492   0.745  0.1447  0.6151  0.0744
  314SOL     OW 1253   0.094   4.344   0.435  0.0233  0.8243  0.0023
  314SOL    HW2 1254   0.002   4.368   0.436 -0.1319  0.3569 -1.5343
  314SOL    HW3 1255   0.132   4.399   0.366  0.9291  1.1148  0.7199
  314SOL    MW4 1256   0.087   4.355   0.426  0.1224  0.8010 -0.1058
  315SOL     OW 1257   1.789   1.574   0.506 -0.1281 -0.3021  0.1322
  315SOL    HW2 1258   1.708   1.622   0.490 -0.7846 -0.9859  1.3284
  315SOL    HW3 1259   1.765   1.482   0.496  0.8189 -0.4512 -0.8467
  315SOL    MW4 1260   1.775   1.569   0.502 -0.0897 -0.4120  0.1609
  316SOL     OW 1261   4.398   2.206   0.263  0.0740  0.0286  0.7344
  316SOL    HW2 1262   4.409   2.265   0.338 -1.0045 -0.5959  1.3937
  316SOL    HW3 1263   4.482   2.162   0.254  0.9248  1.7066  0.1841
  316SOL    MW4 1264   4.410   2.208   0.272  0.0440  0.1676  0.7488
  317SOL     OW 1265   4.490   2.674   0.812 -0.0911 -0.3462  0.1663
  317SOL    HW2 1266   4.499   2.583   0.783  0.2694 -0.1256 -0.4129
  317SOL    HW3 1267   4.512   2.672   0.905  1.1325 -0.6378 -0.1284
  317SOL    MW4 1268   4.494   2.662   0.820  0.1179 -0.3555  0.0510
  318SOL     OW 1269   4.070   3.741   0.430 -0.5507 -0.2060 -0.0674
  318SOL    HW2 1270   4.153   3.701   0.403 -0.9591  0.0832 -1.7671
  318SOL    HW3 1271   4.083   3.835   0.413 -1.0901 -0.1122  0.0502
  318SOL    MW4 1272   4.083   3.748   0.425 -0.6758 -0.1554 -0.2761
  319SOL     OW 1273   0.232   3.879   0.785 -0.1594 -0.3331 -0.6165
  319SOL    HW2 1274   0.306   3.936   0.767 -1.2316  1.4438  0.5127
  319SOL    HW3 1275   0.232   3.868   0.880 -0.4723 -1.5494 -0.7413
  319SOL    MW4 1276   0.242   3.885   0.795 -0.3421 -0.2592 -0.4840
  320SOL     OW 1277   0.018   3.237   0.724 -0.5608  0.4664 -0.4287
  320SOL    HW2 1278  -0.058   3.197   0.767 -0.3592  1.6579  1.0736
  320SOL    HW3 1279   0.093   3.186   0.755 -0.4135  1.3365  0.6841
  320SOL    MW4 1280   0.018   3.225   0.734 -0.5148  0.7384 -0.0837
  321SOL     OW 1281   2.455   1.575   0.826  0.6579  0.2540 -0.0687
  321SOL    HW2 1282   2.457   1.493   0.778  0.3835 -0.1346  0.5834
  321SOL    HW3 1283   2.377   1.620   0.794  1.3953  0.7607 -1.2305
  321SOL    MW4 1284   2.445   1.570   0.815  0.7190  0.2696 -0.1360
  322SOL     OW 1285   0.064   3.478   0.825  0.3813 -0.4839  0.2506
  322SOL    HW2 1286   0.042   3.397   0.781  1.0022 -0.1066 -0.7914
  322SOL    HW3 1287   0.136   3.514   0.773 -0.3138  1.0422  0.3235
  322SOL    MW4 1288   0.071   3.472   0.813  0.3715 -0.2328  0.1227
  323SOL     OW 1289   0.229   3.044   0.351 -0.2298 -0.5695  0.0913
  323SOL    HW2 1290   0.316   3.072   0.378 -0.2839 -0.2408 -0.0820
  323SOL    HW3 1291   0.173   3.119   0.367 -0.4231 -0.6697 -0.1118
  323SOL    MW4 1292   0.233   3.057   0.356 -0.2624 -0.5393  0.0416
  324SOL     OW 1293   4.293   4.657   0.804 -0.3378 -0.3160  0.0175
  324SOL    HW2 1294   4.385   4.680   0.793 -0.4869 -0.0063 -0.5886
  324SOL    HW3 1295   4.277   4.668   0.898  0.5416 -1.5021  0.3186
  324SOL    MW4 1296   4.303   4.661   0.815 -0.2414 -0.4317 -0.0228
  325SOL     OW 1297   2.539   3.051   0.871  0.3609 -0.0195  0.1911
  325SOL    HW2 1298   2.605   3.119   0.855 -0.7522  1.4159  1.4781
  325SOL    HW3 1299   2.527   3.052   0.966 -0.3767 -1.3581  0.1198
  325SOL    MW4 1300   2.546   3.060   0.881  0.1167 -0.0067  0.3515
  326SOL     OW 1301   0.466   0.109   0.719  0.0117  0.0657 -0.2356
  326SOL    HW2 1302   0.393   0.063   0.759 -0.1102  0.7588  0.3385
  326SOL    HW3 1303   0.543   0.079   0.766 -0.1670  1.1254  0.7410
  326SOL    MW4 1304   0.467   0.099   0.730 -0.0280  0.2969 -0.0310
  327SOL     OW 1305   0.893   1.402   0.301 -0.1094 -0.7898  0.3343
  327SOL    HW2 1306   0.829   1.369   0.364  0.1440 -0.4744  0.7572
  327SOL    HW3 1307   0.843   1.413   0.219 -0.6963 -0.0938  0.7849
  327SOL    MW4 1308   0.878   1.399   0.298 -0.1534 -0.6564  0.4495
  328SOL     OW 1309   0.498   0.373   0.809  0.3557 -0.3008 -0.0023
  328SOL    HW2 1310   0.492   0.290   0.761 -0.3366 -0.5296  0.4698
  328SOL    HW3 1311   0.575   0.417   0.771 -0.2800 -0.3904 -1.4294
  328SOL    MW4 1312   0.508   0.368   0.798  0.1805 -0.3428 -0.1283
  329SOL     OW 1313   2.691   0.102   0.736  0.3954  0.0334 -0.1724
  329SOL    HW2 1314   2.618   0.046   0.763  0.4738  1.6727  3.7272
  329SOL    HW3 1315   2.768   0.045   0.741 -0.0013 -0.4749  0.1115
  329SOL    MW4 1316   2.691   0.087   0.740  0.3534  0.1826  0.3795
  330SOL     OW 1317   0.926   1.143   0.848 -0.1366 -0.0781 -0.2253
  330SOL    HW2 1318   0.927   1.047   0.839 -0.2604 -0.2231  1.1160
  330SOL    HW3 1319   0.848   1.170   0.801 -1.8544 -0.9684  1.9837
  330SOL    MW4 1320   0.916   1.134   0.841 -0.3796 -0.2147  0.2431
  331SOL     OW 1321   3.602   0.392   0.352 -0.1775  0.1630  0.1287
  331SOL    HW2 1322   3.673   0.432   0.401  0.3729 -0.8795  0.1975
  331SOL    HW3 1323   3.530   0.383   0.415  0.1784 -0.2376  0.4803
  331SOL    MW4 1324   3.602   0.396   0.366 -0.0579 -0.0274  0.1842
  332SOL     OW 1325   0.475   0.908   0.727 -0.1130 -0.8598  0.1504
  332SOL    HW2 1326   0.414   0.862   0.784 -1.0280  0.1443 -0.0055
  332SOL    HW3 1327   0.434   0.905   0.640 -0.0750  0.0536  0.0982
  332SOL    MW4 1328   0.462   0.901   0.723 -0.2287 -0.6068  0.1229
  333SOL     OW 1329   3.315   1.839   0.499  0.1659  0.2029 -0.6152
  333SOL    HW2 1330   3.350   1.925   0.476  0.7915 -0.2243 -1.2856
  333SOL    HW3 1331   3.379   1.777   0.464  0.4961 -0.5030  1.1587
  333SOL    MW4 1332   3.328   1.842   0.491  0.2920  0.0534 -0.4696
  334SOL     OW 1333   1.972   3.081   0.340  0.1486  0.4074 -0.4753
  334SOL    HW2 1334   1.886   3.038   0.341  0.5673 -0.4363 -0.6419
  334SOL    HW3 1335   2.034   3.013   0.366  0.5946  1.4413  1.2532
  334SOL    MW4 1336   1.969   3.066   0.343  0.2627  0.4325 -0.2693
  335SOL     OW 1337   0.445   1.630   0.684  0.9570 -0.5672 -0.0410
  335SOL    HW2 1338   0.448   1.726   0.689  2.2372 -0.5611 -0.8459
  335SOL    HW3 1339   0.531   1.601   0.714  0.6932 -1.4487 -0.1313
  335SOL    MW4 1340   0.456   1.639   0.688  1.0911 -0.6827 -0.1591
  336SOL     OW 1341   1.690   2.372   0.284  0.5430  0.1168  0.1152
  336SOL    HW2 1342   1.627   2.382   0.213  1.3046  1.1016 -0.4378
  336SOL    HW3 1343   1.718   2.281   0.279  0.3280  0.0894 -0.6191
  336SOL    MW4 1344   1.686   2.361   0.274  0.6151  0.2431 -0.0546
  337SOL     OW 1345   1.180   1.344   0.439 -0.1315 -0.2118  0.4182
  337SOL    HW2 1346   1.159   1.302   0.523  0.6058 -0.1857  0.6152
  337SOL    HW3 1347   1.100   1.335   0.387  0.2136 -2.4146  0.2330
  337SOL    MW4 1348   1.167   1.337   0.443  0.0113 -0.4990  0.4198
  338SOL     OW 1349   1.787   3.985   0.723  0.1305 -0.0979 -0.5582
  338SOL    HW2 1350   1.865   3.947   0.763 -0.4380 -0.7245 -0.0331
  338SOL    HW3 1351   1.793   4.078   0.744 -0.2998 -0.4553  1.2817
  338SOL    MW4 1352   1.798   3.992   0.731 -0.0012 -0.2277 -0.2462
  339SOL     OW 1353   0.663   3.826   0.773  0.1507  0.0060  0.6884
  339SOL    HW2 1354   0.733   3.878   0.734 -0.4618 -1.1058 -2.0341
  339SOL    HW3 1355   0.583   3.873   0.752 -0.2889 -1.2544 -0.5963
  339SOL    MW4 1356   0.662   3.839   0.765  0.0119 -0.3070  0.1597
  340SOL     OW 1357   0.177   2.550   0.334 -0.1104  0.5179 -0.0102
  340SOL    HW2 1358   0.160   2.623   0.394 -0.4183  0.2086  0.2841
  340SOL    HW3 1359   0.162   2.586   0.247  0.9072  1.1254  0.0679
  340SOL    MW4 1360   0.173   2.564   0.330 -0.0167  0.5572  0.0389
  341SOL     OW 1361   0.975   3.002   0.405  0.0285  0.0342  0.1453
  341SOL    HW2 1362   1.030   2.923   0.399 -0.8908 -0.7064  1.2585
  341SOL    HW3 1363   0.885   2.969   0.398 -0.3195  1.2001 -1.3119
  341SOL    MW4 1364   0.970   2.987   0.403 -0.1387  0.0903  0.0999
  342SOL     OW 1365   1.340   3.745   0.376 -0.0035 -0.0789 -0.5472
  342SOL    HW2 1366   1.418   3.742   0.320 -0.8870 -2.2386 -1.7305
  342SOL    HW3 1367   1.374   3.748   0.465  1.4323 -1.2705 -1.0388
  342SOL    MW4 1368   1.355   3.745   0.380  0.0694 -0.5210 -0.7682
  343SOL     OW 1369   2.431   3.859   0.870 -0.2906  0.4430 -0.2145
  343SOL    HW2 1370   2.351   3.908   0.852 -0.1686  0.8280  0.2842
  343SOL    HW3 1371   2.500   3.909   0.826 -0.1423  0.8112  0.4374
  343SOL    MW4 1372   2.430   3.872   0.862 -0.2549  0.5424 -0.0627
  344SOL     OW 1373   0.264   3.636   0.686  0.1576  0.3387  0.1753
  344SOL    HW2 1374   0.255   3.727   0.714 -1.2433  0.7040 -1.3641
  344SOL    HW3 1375   0.259   3.640   0.590 -2.4060 -1.5705  0.1654
  344SOL    MW4 1376   0.262   3.648   0.677 -0.3655  0.1350 -0.0291
  345SOL     OW 1377   3.388   4.355   0.395  0.2087  0.1762  0.1723
  345SOL    HW2 1378   3.400   4.450   0.383  1.1094  0.3062  2.0529
  345SOL    HW3 1379   3.472   4.317   0.369 -0.2133 -0.1552 -0.7658
  345SOL    MW4 1380   3.400   4.363   0.390  0.2719  0.1496  0.2967
  346SOL     OW 1381   0.865   4.523   0.333  0.0631  0.3957  0.0220
  346SOL    HW2 1382   0.786   4.476   0.360  0.0639 -0.2403 -1.0676
  346SOL    HW3 1383   0.937   4.467   0.365  0.0641 -0.3004 -1.1850
  346SOL    MW4 1384   0.864   4.509   0.341  0.0633  0.2199 -0.2810
  347SOL     OW 1385   1.831   0.870   0.635 -0.0004  0.1693 -0.1667
  347SOL    HW2 1386   1.820   0.957   0.674  0.9793  0.7128 -1.0799
  347SOL    HW3 1387   1.754   0.821   0.663  0.1963  0.8533  1.6164
  347SOL    MW4 1388   1.819   0.875   0.644  0.1548  0.3313 -0.0519
  348SOL     OW 1389   0.449   4.284   0.815  0.2290  0.3850 -0.7348
  348SOL    HW2 1390   0.465   4.286   0.909  0.6174 -0.9749 -0.7640
  348SOL    HW3 1391   0.364   4.328   0.804 -0.3595 -0.4437  0.3632
  348SOL    MW4 1392   0.440   4.290   0.826  0.2026  0.0962 -0.5938
  349SOL     OW 1393   4.319   0.405   0.467 -0.2766 -0.0326 -0.5176
  349SOL    HW2 1394   4.393   0.457   0.437  0.8298 -0.3280  1.6318
  349SOL    HW3 1395   4.307   0.430   0.558 -2.4544 -0.4298 -0.6773
  349SOL    MW4 1396   4.327   0.415   0.475 -0.4180 -0.1240 -0.2551
  350SOL     OW 1397   0.520   4.054   0.434  0.1366  0.2248  0.5361
  350SOL    HW2 1398   0.440   4.014   0.401  0.4535  0.3598 -0.4169
  350SOL    HW3 1399   0.590   3.998   0.402  0.5807  1.4705 -0.7577
  350SOL    MW4 1400   0.519   4.042   0.426  0.2370  0.4070  0.2396
  351SOL     OW 1401   0.712   3.077   0.808 -0.3210 -0.4298  0.2838
  351SOL    HW2 1402   0.772   3.123   0.749 -1.7057  0.4496 -0.4726
  351SOL    HW3 1403   0.686   2.999   0.758  1.1674 -1.5069  1.1293
  351SOL    MW4 1404   0.717   3.073   0.793 -0.3073 -0.4559  0.2956
  352SOL     OW 1405   4.223   2.581   0.346 -0.1967  0.4796 -0.4464
  352SOL    HW2 1406   4.152   2.547   0.401  1.4493 -1.0560  0.8027
  352SOL    HW3 1407   4.214   2.533   0.264 -1.2249  1.0464 -0.6735
  352SOL    MW4 1408   4.212   2.570   0.343 -0.1152  0.3518 -0.3116
  353SOL     OW 1409   1.342   4.041   0.348 -0.6180  0.0616  0.4046
  353SOL    HW2 1410   1.436   4.051   0.336 -0.7154  0.2225 -0.1976
  353SOL    HW3 1411   1.328   3.946   0.350 -0.5918  0.0327 -0.6387
  353SOL    MW4 1412   1.352   4.030   0.347 -0.6274  0.0791  0.1875
  354SOL     OW 1413   0.235   1.892   0.404  0.3718 -0.0795 -0.1186
  354SOL    HW2 1414   0.172   1.819   0.401  1.5192 -1.0257 -1.6739
  354SOL    HW3 1415   0.210   1.942   0.482 -1.5349 -1.1416 -0.0304
  354SOL    MW4 1416   0.223   1.889   0.414  0.2716 -0.3445 -0.3122
  355SOL     OW 1417   3.863   1.426   0.445 -0.2632  0.1772  0.2797
  355SOL    HW2 1418   3.848   1.400   0.536  0.7107  0.8703  0.6489
  355SOL    HW3 1419   3.776   1.434   0.407 -0.6559 -0.6442  1.0031
  355SOL    MW4 1420   3.850   1.424   0.452 -0.1865  0.1602  0.4239
  356SOL     OW 1421   0.696   0.778   0.845 -0.1408  0.0088  0.3669
  356SOL    HW2 1422   0.634   0.838   0.803 -0.1656  0.0257  0.4270
  356SOL    HW3 1423   0.687   0.696   0.796 -0.7887 -0.2328  0.8761
  356SOL    MW4 1424   0.686   0.775   0.833 -0.2295 -0.0209  0.4420
  357SOL     OW 1425   2.838   2.572   0.352 -0.2646  0.2243 -0.4813
  357SOL    HW2 1426   2.807   2.494   0.398  0.3479  1.3019  1.7734
  357SOL    HW3 1427   2.933   2.566   0.355 -0.2094  0.4975 -1.3257
  357SOL    MW4 1428   2.846   2.561   0.358 -0.1765  0.4025 -0.2952
  358SOL     OW 1429   4.008   2.250   0.308 -0.3639  0.4808 -0.0343
  358SOL    HW2 1430   4.060   2.298   0.243 -0.4172  0.4434 -0.1049
  358SOL    HW3 1431   4.068   2.184   0.343 -0.5132  0.1015 -0.4875
  358SOL    MW4 1432   4.023   2.248   0.304 -0.3906  0.4258 -0.1034
  359SOL     OW 1433   0.461   1.174   0.840 -0.2220 -0.0972  0.0678
  359SOL    HW2 1434   0.454   1.082   0.815  0.0395  0.1028 -0.7624
  359SOL    HW3 1435   0.389   1.217   0.795 -0.0496  0.1840  0.0581
  359SOL    MW4 1436   0.451   1.167   0.831 -0.1648 -0.0337 -0.0430
  360SOL     OW 1437   3.557   1.257   0.126  0.2617  0.1860 -0.1500
  360SOL    HW2 1438   3.488   1.216   0.178  0.9911  0.4037  0.9992
  360SOL    HW3 1439   3.632   1.198   0.133  0.1248 -0.1971 -1.6311
  360SOL    MW4 1440   3.558   1.244   0.134  0.3399  0.1642 -0.1938
  361SOL     OW 1441   2.918   4.460   0.393  0.0188 -0.3764  0.0025
  361SOL    HW2 1442   2.919   4.533   0.455  0.6894 -1.0454  0.7902
  361SOL    HW3 1443   2.978   4.488   0.323  1.5123 -0.8144  1.0736
  361SOL    MW4 1444   2.926   4.474   0.392  0.3043 -0.5225  0.2477
  362SOL     OW 1445   4.321   3.905   0.397  0.2785 -0.1727 -0.1350
  362SOL    HW2 1446   4.252   3.958   0.437  0.6782 -0.4024  0.8791
  362SOL    HW3 1447   4.387   3.969   0.368  0.2518 -0.0421  0.0938
  362SOL    MW4 1448   4.321   3.920   0.399  0.3277 -0.1858  0.0290
  363SOL     OW 1449   0.724   0.550   0.696 -0.4930 -0.2383  0.0089
  363SOL    HW2 1450   0.803   0.498   0.713 -1.0227 -0.7471  0.9683
  363SOL    HW3 1451   0.732   0.577   0.605  0.3339 -1.0838 -0.1789
  363SOL    MW4 1452   0.735   0.547   0.686 -0.4538 -0.4170  0.1107
  364SOL     OW 1453   0.318   0.502   0.439  0.0541  0.0458 -0.0106
  364SOL    HW2 1454   0.306   0.533   0.529 -0.4458  1.6534 -0.6063
  364SOL    HW3 1455   0.333   0.408   0.448 -1.5944 -0.1037  1.6531
  364SOL    MW4 1456   0.318   0.494   0.452 -0.2294  0.2382  0.1303
  365SOL     OW 1457   2.666   0.337   1.067  0.3352  0.2120 -0.2270
  365SOL    HW2 1458   2.676   0.256   1.118  1.2802 -0.2934 -1.1921
  365SOL    HW3 1459   2.609   0.392   1.120 -0.6137 -1.2346  0.2761
  365SOL    MW4 1460   2.660   0.333   1.081  0.3347 -0.0455 -0.2880
  366SOL     OW 1461   0.475   3.199   0.737 -0.0280 -0.0941  0.3657
  366SOL    HW2 1462   0.469   3.293   0.755  0.0486 -0.1205  0.5312
  366SOL    HW3 1463   0.558   3.172   0.777 -0.1448 -0.2709  0.4906
  366SOL    MW4 1464   0.486   3.208   0.744 -0.0333 -0.1209  0.4040
  367SOL     OW 1465   1.128   1.815   0.313  0.0136  0.0340 -0.2010
  367SOL    HW2 1466   1.055   1.773   0.358  1.3565 -0.3632  1.6661
  367SOL    HW3 1467   1.095   1.833   0.225 -2.1115 -0.7053  0.4179
  367SOL    MW4 1468   1.114   1.812   0.308 -0.0896 -0.1160  0.1270
  368SOL     OW 1469   0.720   3.899   0.282  0.1809  0.4879 -0.0559
  368SOL    HW2 1470   0.640   3.891   0.229  0.0990  1.0124 -0.0204
  368SOL    HW3 1471   0.742   3.810   0.307 -0.4199  0.3398 -0.0431
  368SOL    MW4 1472   0.712   3.887   0.279  0.0909  0.5376 -0.0495
  369SOL     OW 1473   0.007   2.409   0.720  0.0987 -0.2803  0.0258
  369SOL    HW2 1474  -0.070   2.394   0.775 -0.5464 -0.6940 -0.9768
  369SOL    HW3 1475  -0.026   2.402   0.630  1.6209 -2.0527 -0.4225
  369SOL    MW4 1476  -0.007   2.406   0.715  0.2144 -0.5688 -0.1656
  370SOL     OW 1477   1.419   4.181   0.864  0.3898 -0.4725 -0.3022
  370SOL    HW2 1478   1.477   4.252   0.835  0.7849 -0.4743  0.4790
  370SOL    HW3 1479   1.371   4.156   0.785  1.2644 -0.2869 -0.9027
  370SOL    MW4 1480   1.420   4.187   0.850  0.5573 -0.4482 -0.2784
  371SOL     OW 1481   1.374   2.739   0.800 -0.1886 -0.3047  0.4253
  371SOL    HW2 1482   1.369   2.657   0.751  1.7089  0.0569 -0.4166
  371SOL    HW3 1483   1.363   2.713   0.892  0.4852 -1.5248  0.1758
  371SOL    MW4 1484   1.372   2.725   0.806  0.1507 -0.4180  0.2813
  372SOL     OW 1485   1.563   0.486   0.710  0.3986  0.3815 -0.2210
  372SOL    HW2 1486   1.486   0.443   0.747 -1.2094  3.3564  0.1081
  372SOL    HW3 1487   1.548   0.486   0.616 -0.1150  1.1189 -0.1435
  372SOL    MW4 1488   1.551   0.480   0.703  0.1187  0.8713 -0.1673
  373SOL     OW 1489   0.937   0.369   0.786  0.4967 -0.5478 -0.1279
  373SOL    HW2 1490   0.918   0.366   0.880  0.3563 -0.9270 -0.1651
  373SOL    HW3 1491   0.950   0.277   0.762  1.0597 -0.4044 -0.3742
  373SOL    MW4 1492   0.936   0.356   0.796  0.5525 -0.5789 -0.1653
  374SOL     OW 1493   2.021   2.028   0.453 -0.0580 -0.1763  0.6418
  374SOL    HW2 1494   2.021   1.941   0.412  0.2862 -0.1931  0.6729
  374SOL    HW3 1495   1.950   2.075   0.410  1.5013  0.4350 -1.3418
  374SOL    MW4 1496   2.012   2.023   0.442  0.1932 -0.0979  0.3842
  375SOL     OW 1497   3.578   3.029   0.429  0.3442 -0.1474 -0.2434
  375SOL    HW2 1498   3.555   3.115   0.395 -0.5588 -0.2588  0.0689
  375SOL    HW3 1499   3.601   3.044   0.520 -1.0463 -0.4100  0.1624
  375SOL    MW4 1500   3.578   3.042   0.436  0.0416 -0.1967 -0.1486
  376SOL     OW 1501   1.561   4.661   0.775 -0.1014  0.1163  0.5878
  376SOL    HW2 1502   1.623   4.726   0.743  0.1529 -0.1070  0.6297
  376SOL    HW3 1503   1.574   4.660   0.869 -0.9876  0.9177  0.7367
  376SOL    MW4 1504   1.571   4.670   0.783 -0.1848  0.1926  0.6130
  377SOL     OW 1505   1.383   0.888   0.688  0.2828 -0.3009 -0.3336
  377SOL    HW2 1506   1.355   0.871   0.598 -0.9637  1.3287 -0.2875
  377SOL    HW3 1507   1.314   0.849   0.742  1.0132 -1.2504 -0.0683
  377SOL    MW4 1508   1.370   0.881   0.684  0.2147 -0.2111 -0.2925
  378SOL     OW 1509   1.487   0.459   0.450  0.6253  0.0337  0.3090
  378SOL    HW2 1510   1.442   0.375   0.455  1.0294 -0.2759 -1.1406
  378SOL    HW3 1511   1.568   0.441   0.403  1.2532  1.0158  0.9846
  378SOL    MW4 1512   1.492   0.446   0.445  0.7615  0.1225  0.2069
  379SOL     OW 1513   0.490   3.597   0.183  0.1668 -0.1032 -0.0382
  379SOL    HW2 1514   0.477   3.688   0.155 -1.1774  0.1325  1.2726
  379SOL    HW3 1515   0.563   3.601   0.245  0.0988  0.0850  0.0299
  379SOL    MW4 1516   0.498   3.610   0.188 -0.0195 -0.0472  0.1437
  380SOL     OW 1517   3.586   3.318   0.432 -0.1112  0.0245 -0.2567
  380SOL    HW2 1518   3.539   3.400   0.448 -0.0861  0.0977 -0.5419
  380SOL    HW3 1519   3.605   3.284   0.519 -2.3408 -0.9715 -0.1206
  380SOL    MW4 1520   3.582   3.324   0.446 -0.4020 -0.0973 -0.2764
  381SOL     OW 1521   3.952   0.062   0.447 -0.0917 -0.5006  0.4127
  381SOL    HW2 1522   3.860   0.086   0.438  0.0342 -0.1308  0.0898
  381SOL    HW3 1523   4.000   0.134   0.406  0.3040 -1.2403 -0.4349
  381SOL    MW4 1524   3.946   0.075   0.441 -0.0229 -0.5494  0.2582
  382SOL     OW 1525   2.569   0.551   0.441 -0.5563 -0.1218  0.1106
  382SOL    HW2 1526   2.647   0.605   0.428 -0.6475 -0.1652 -0.6340
  382SOL    HW3 1527   2.590   0.467   0.401 -1.5188  0.3434 -1.4249
  382SOL    MW4 1528   2.582   0.547   0.434 -0.6953 -0.0662 -0.1902
  383SOL     OW 1529   3.047   3.153   0.358  0.0322  0.6002  0.3605
  383SOL    HW2 1530   3.111   3.131   0.290 -1.5018  1.2067 -1.2998
  383SOL    HW3 1531   3.012   3.069   0.387  1.0316  0.3114  0.7782
  383SOL    MW4 1532   3.051   3.139   0.353 -0.0384  0.6421  0.1965
  384SOL     OW 1533   2.291   0.621   0.345  0.3776 -0.0956 -0.3226
  384SOL    HW2 1534   2.279   0.705   0.389 -2.1071 -0.5920  0.0723
  384SOL    HW3 1535   2.383   0.599   0.359  1.0120  2.4343 -0.2368
  384SOL    MW4 1536   2.301   0.629   0.353  0.1335  0.1727 -0.2592
  385SOL     OW 1537   0.698   2.345   0.763 -0.7739  0.1185 -0.3981
  385SOL    HW2 1538   0.616   2.388   0.738 -0.9901 -0.1259 -0.1034
  385SOL    HW3 1539   0.699   2.349   0.859  1.4793  3.7772 -0.4580
  385SOL    MW4 1540   0.687   2.351   0.772 -0.5051  0.5689 -0.3671
  386SOL     OW 1541   1.572   1.732   0.399  0.0686 -0.6497 -0.2405
  386SOL    HW2 1542   1.495   1.675   0.395  0.1089 -0.7363  0.1726
  386SOL    HW3 1543   1.540   1.812   0.442  0.4248 -1.0441  0.7686
  386SOL    MW4 1544   1.557   1.735   0.404  0.1209 -0.7132 -0.0529
  387SOL     OW 1545   0.360   0.228   0.467  0.7888  0.5179  0.0993
  387SOL    HW2 1546   0.448   0.234   0.430  0.4727 -0.3503 -0.8210
  387SOL    HW3 1547   0.374   0.191   0.555  1.3433  0.3737 -0.0448
  387SOL    MW4 1548   0.374   0.224   0.474  0.8203  0.3843 -0.0411
  388SOL     OW 1549   0.075   0.835   0.442 -0.2782  0.3419 -0.0230
  388SOL    HW2 1550   0.030   0.905   0.394 -1.9631 -1.3100 -0.9097
  388SOL    HW3 1551   0.056   0.854   0.534 -0.9232  0.9156 -0.2658
  388SOL    MW4 1552   0.066   0.847   0.448 -0.5856  0.1996 -0.1720
  389SOL     OW 1553   2.942   0.780   0.817 -0.2231 -0.2694 -0.3977
  389SOL    HW2 1554   2.931   0.704   0.760 -0.4049 -0.7934  0.3317
  389SOL    HW3 1555   2.951   0.744   0.905  2.4916  0.3983 -0.3654
  389SOL    MW4 1556   2.942   0.765   0.821  0.1111 -0.2504 -0.2972
  390SOL     OW 1557   0.428   2.474   0.457  0.3013 -0.0118  0.7216
  390SOL    HW2 1558   0.464   2.385   0.462  0.2319 -0.0808  0.0588
  390SOL    HW3 1559   0.339   2.462   0.425  0.0848  0.2555  1.2136
  390SOL    MW4 1560   0.421   2.461   0.454  0.2636  0.0144  0.6991
  391SOL     OW 1561   0.781   0.470   0.254 -0.1228  0.3445  0.2265
  391SOL    HW2 1562   0.767   0.529   0.180  0.3777 -0.1613 -0.2688
  391SOL    HW3 1563   0.871   0.439   0.244 -0.8962 -1.7416 -0.3873
  391SOL    MW4 1564   0.791   0.474   0.243 -0.1588  0.0025  0.0802
  392SOL     OW 1565   4.122   3.485   0.823  0.1002 -0.2583  0.5427
  392SOL    HW2 1566   4.121   3.499   0.918  0.4950 -0.5197  0.5871
  392SOL    HW3 1567   4.199   3.533   0.792 -0.9640  1.2304  0.1245
  392SOL    MW4 1568   4.132   3.493   0.831  0.0119 -0.0964  0.4934
  393SOL     OW 1569   0.018   3.223   0.438  0.7523  0.1323 -0.2874
  393SOL    HW2 1570  -0.071   3.192   0.424 -0.3172  2.9807 -0.0621
  393SOL    HW3 1571   0.024   3.238   0.532  1.0012  1.2324 -0.4689
  393SOL    MW4 1572   0.007   3.221   0.449  0.6441  0.6532 -0.2816
  394SOL     OW 1573   1.594   3.844   1.071  0.2006 -0.1077 -0.2503
  394SOL    HW2 1574   1.570   3.871   0.982  0.4410  0.4974 -0.1366
  394SOL    HW3 1575   1.516   3.862   1.123 -0.1385 -1.0000 -0.4405
  394SOL    MW4 1576   1.581   3.850   1.066  0.1876 -0.1456 -0.2604
  395SOL     OW 1577   2.717   3.239   0.767 -0.5584 -0.0760  0.2814
  395SOL    HW2 1578   2.713   3.330   0.796 -0.9620 -0.2494  0.7728
  395SOL    HW3 1579   2.754   3.244   0.679  0.2457  0.4949  0.6371
  395SOL    MW4 1580   2.722   3.252   0.760 -0.5055 -0.0236  0.3931
  396SOL     OW 1581   0.896   4.214   0.831  0.5097  0.3015 -0.0087
  396SOL    HW2 1582   0.972   4.271   0.818  0.2007  1.1252  1.7330
  396SOL    HW3 1583   0.822   4.267   0.803  0.2342  0.7183  1.4984
  396SOL    MW4 1584   0.897   4.228   0.825  0.4326  0.4651  0.4199
  397SOL     OW 1585   0.948   2.763   0.819 -0.0956 -1.0390 -0.2612
  397SOL    HW2 1586   0.924   2.759   0.912 -3.4412 -2.4419 -1.1248
  397SOL    HW3 1587   0.951   2.671   0.792  0.0273 -0.5988 -1.7380
  397SOL    MW4 1588   0.945   2.750   0.828 -0.5208 -1.1660 -0.5700
  398SOL     OW 1589   3.650   4.011   0.701 -0.0469  0.0541 -0.4108
  398SOL    HW2 1590   3.658   3.995   0.607 -1.9205  2.0318 -0.9710
  398SOL    HW3 1591   3.570   3.965   0.726  0.4473 -0.4681  0.2130
  398SOL    MW4 1592   3.640   4.003   0.692 -0.2289  0.2461 -0.4024
  399SOL     OW 1593   0.895   3.461   0.740 -0.0044 -0.7768  0.0432
  399SOL    HW2 1594   0.899   3.372   0.703 -0.3443 -0.1568 -1.5500
  399SOL    HW3 1595   0.807   3.492   0.716  0.3402  0.2047  0.0642
  399SOL    MW4 1596   0.884   3.453   0.732 -0.0038 -0.5655 -0.1642
  400SOL     OW 1597   1.631   1.267   0.764  0.1362  0.5211 -0.2227
  400SOL    HW2 1598   1.599   1.352   0.796 -1.6336 -0.3867  0.4913
  400SOL    HW3 1599   1.624   1.274   0.668 -1.5307  0.6282 -0.1107
  400SOL    MW4 1600   1.626   1.279   0.755 -0.3173  0.4155 -0.1137
  401SOL     OW 1601   2.702   0.964   0.460  0.2024  0.0076 -0.2117
  401SOL    HW2 1602   2.739   0.884   0.423 -0.1924 -0.5457  0.5684
  401SOL    HW3 1603   2.694   0.945   0.554  0.4941  1.1107  0.0419
  401SOL    MW4 1604   2.706   0.951   0.468  0.1888  0.0801 -0.0753
  402SOL     OW 1605   2.634   0.333   0.303  0.5589 -0.0467 -0.0579
  402SOL    HW2 1606   2.601   0.254   0.345 -0.7619  0.4297 -0.1986
  402SOL    HW3 1607   2.566   0.357   0.241  1.8983  0.0001 -1.5531
  402SOL    MW4 1608   2.621   0.325   0.300  0.5614  0.0223 -0.2737
  403SOL     OW 1609   1.158   1.245   0.725 -0.1989 -0.2732  0.1504
  403SOL    HW2 1610   1.234   1.204   0.766 -0.5792 -0.5416  0.5897
  403SOL    HW3 1611   1.083   1.199   0.762 -0.5209 -1.2821 -1.6947
  403SOL    MW4 1612   1.158   1.234   0.735 -0.2916 -0.4417 -0.0351
  404SOL     OW 1613   1.336   0.351   0.805  0.0492  0.0981  0.2019
  404SOL    HW2 1614   1.327   0.348   0.900  0.7187  0.2370  0.2710
  404SOL    HW3 1615   1.318   0.262   0.776  1.9585 -0.4481  0.6529
  404SOL    MW4 1616   1.333   0.339   0.814  0.3894  0.0444  0.2706
  405SOL     OW 1617   2.015   1.544   0.827  0.0095  0.0654 -0.0778
  405SOL    HW2 1618   1.924   1.572   0.814 -0.2669 -0.1367  1.2722
  405SOL    HW3 1619   2.013   1.450   0.809 -0.6877 -0.5072  2.6636
  405SOL    MW4 1620   2.002   1.535   0.823 -0.1189 -0.0368  0.4620
  406SOL     OW 1621   2.488   0.792   0.868  0.1633 -0.3393 -0.0958
  406SOL    HW2 1622   2.563   0.845   0.841  0.9685 -1.1824  0.4584
  406SOL    HW3 1623   2.499   0.710   0.820 -1.2042  0.0602 -1.1319
  406SOL    MW4 1624   2.499   0.788   0.858  0.0891 -0.3978 -0.1594
  407SOL     OW 1625   2.802   0.715   0.359  0.0404  0.0066 -0.2127
  407SOL    HW2 1626   2.797   0.700   0.264 -1.9367 -1.1554  0.0534
  407SOL    HW3 1627   2.862   0.648   0.391  0.7199  0.4068 -0.6351
  407SOL    MW4 1628   2.809   0.704   0.350 -0.1308 -0.0939 -0.2333
  408SOL     OW 1629   3.409   1.313   0.477 -0.2509 -0.1931  0.0818
  408SOL    HW2 1630   3.323   1.353   0.489 -0.1210  0.8748 -2.3047
  408SOL    HW3 1631   3.390   1.228   0.437 -0.3286 -1.2404  2.2435
  408SOL    MW4 1632   3.395   1.307   0.474 -0.2440 -0.1904  0.0522
  409SOL     OW 1633   2.682   4.038   0.497 -0.1286  0.2372 -0.0688
  409SOL    HW2 1634   2.645   4.126   0.503  0.0442  0.3173 -0.2000
  409SOL    HW3 1635   2.624   3.992   0.436 -0.4277  0.1532  0.2751
  409SOL    MW4 1636   2.669   4.044   0.490 -0.1452  0.2367 -0.0407
  410SOL     OW 1637   4.263   4.392   0.723  0.7364  0.0029  0.1228
  410SOL    HW2 1638   4.336   4.349   0.766  0.2667  0.4063  1.3300
  410SOL    HW3 1639   4.255   4.477   0.767 -0.5860 -0.1195  0.1484
  410SOL    MW4 1640   4.271   4.398   0.734  0.5000  0.0399  0.2855
  411SOL     OW 1641   0.884   2.245   0.426  0.1429  0.3052 -0.7543
  411SOL    HW2 1642   0.890   2.335   0.393  1.3778  0.0293 -1.2792
  411SOL    HW3 1643   0.964   2.202   0.396 -0.6013 -1.0826 -0.8283
  411SOL    MW4 1644   0.895   2.251   0.417  0.2077  0.0857 -0.8333
  412SOL     OW 1645   1.133   3.198   0.264 -0.0349 -0.0259 -0.1557
  412SOL    HW2 1646   1.092   3.131   0.318  0.1719 -0.3008 -0.3412
  412SOL    HW3 1647   1.136   3.160   0.176  0.7363 -0.0511 -0.1190
  412SOL    MW4 1648   1.128   3.184   0.259  0.0941 -0.0655 -0.1753
  413SOL     OW 1649   0.058   0.554   0.389 -0.3778  0.3259  0.1451
  413SOL    HW2 1650   0.145   0.524   0.414 -0.9279 -0.4303  1.1572
  413SOL    HW3 1651   0.059   0.648   0.407  0.0692  0.2281  0.6224
  413SOL    MW4 1652   0.069   0.563   0.395 -0.3914  0.2133  0.3416
  414SOL     OW 1653   3.392   2.805   0.439  0.0789 -0.1524  0.3519
  414SOL    HW2 1654   3.398   2.821   0.533 -0.9931  1.8088  0.1034
  414SOL    HW3 1655   3.444   2.874   0.399  0.1268 -0.6823 -0.5228
  414SOL    MW4 1656   3.399   2.816   0.446 -0.0562  0.0365  0.2037
  415SOL     OW 1657   1.308   0.914   0.424  0.1832 -0.1860  0.1439
  415SOL    HW2 1658   1.345   0.838   0.381 -0.7480  0.9069 -2.6842
  415SOL    HW3 1659   1.213   0.902   0.418  0.0204  0.0587  1.8082
  415SOL    MW4 1660   1.300   0.902   0.418  0.0388 -0.0095 -0.0097
  416SOL     OW 1661   2.228   4.028   0.748  0.3123  0.5686  0.0377
  416SOL    HW2 1662   2.250   4.010   0.656  1.3862 -0.0941  0.4243
  416SOL    HW3 1663   2.156   3.968   0.768 -0.6421  1.4389 -0.6647
  416SOL    MW4 1664   2.221   4.018   0.738  0.3281  0.5960 -0.0040
  417SOL     OW 1665   0.465   3.874   0.127  0.2039  0.2743  0.8911
  417SOL    HW2 1666   0.389   3.890   0.184 -0.3954 -0.4585  0.3097
  417SOL    HW3 1667   0.452   3.933   0.053 -0.7206 -1.0746 -0.0531
  417SOL    MW4 1668   0.453   3.884   0.125  0.0028 -0.0004  0.6898
  418SOL     OW 1669   1.989   4.629   0.331 -0.0475  0.6099 -0.1579
  418SOL    HW2 1670   1.934   4.605   0.257  0.5089  0.7669 -0.6252
  418SOL    HW3 1671   2.056   4.686   0.293  1.4446 -0.9459  0.1144
  418SOL    MW4 1672   1.990   4.634   0.316  0.2228  0.4254 -0.1836
  419SOL     OW 1673   3.661   0.104   0.424  0.3823  0.1674 -0.2516
  419SOL    HW2 1674   3.619   0.114   0.509  0.5594 -2.1826  0.1566
  419SOL    HW3 1675   3.666   0.192   0.388 -2.3220  0.8250  0.9233
  419SOL    MW4 1676   3.656   0.117   0.430  0.0488 -0.0559 -0.0427
  420SOL     OW 1677   1.526   4.623   0.375  0.4812 -0.7282 -0.5034
  420SOL    HW2 1678   1.536   4.530   0.396 -0.9429 -0.9314 -0.7332
  420SOL    HW3 1679   1.605   4.663   0.412  0.6142 -1.8707  0.5126
  420SOL    MW4 1680   1.538   4.616   0.383  0.3109 -0.9058 -0.3997
  421SOL     OW 1681   2.080   2.782   0.680 -0.3800  0.3085  0.2585
  421SOL    HW2 1682   2.065   2.859   0.735 -0.3108  1.5982 -1.4612
  421SOL    HW3 1683   2.157   2.740   0.717  0.2578  1.7153  0.5542
  421SOL    MW4 1684   2.088   2.787   0.692 -0.2867  0.6643  0.0706
  422SOL     OW 1685   2.453   4.590   1.097 -0.0687  0.5392  0.0418
  422SOL    HW2 1686   2.522   4.645   1.134 -0.1639  0.4437  0.3635
  422SOL    HW3 1687   2.372   4.629   1.130 -0.1209 -0.0056  0.5553
  422SOL    MW4 1688   2.451   4.603   1.106 -0.0882  0.4547  0.1520
  423SOL     OW 1689   3.788   2.072   0.392  0.1575  0.1447  0.2736
  423SOL    HW2 1690   3.695   2.095   0.399  0.3185  0.7876  0.2671
  423SOL    HW3 1691   3.826   2.139   0.336  0.7067  0.0981  0.5891
  423SOL    MW4 1692   3.781   2.084   0.386  0.2512  0.2233  0.3144
  424SOL     OW 1693   2.035   0.772   0.804 -0.2797  0.1723  0.4076
  424SOL    HW2 1694   2.117   0.807   0.767  0.2321 -0.3803  1.0116
  424SOL    HW3 1695   1.966   0.810   0.749  0.5349 -1.8880 -2.1892
  424SOL    MW4 1696   2.037   0.781   0.792 -0.1047 -0.1725  0.1447
  425SOL     OW 1697   1.806   0.394   0.807  0.4487  0.3132 -0.3443
  425SOL    HW2 1698   1.732   0.443   0.771  0.1237  0.2720  0.2544
  425SOL    HW3 1699   1.883   0.436   0.771  0.1145 -0.1638 -1.6394
  425SOL    MW4 1700   1.806   0.406   0.797  0.3617  0.2448 -0.4362
  426SOL     OW 1701   1.151   1.517   0.780  0.0281 -0.3786 -0.4115
  426SOL    HW2 1702   1.234   1.560   0.765  0.4244  0.1234  2.7989
  426SOL    HW3 1703   1.169   1.424   0.765  1.0412 -0.2191 -0.2209
  426SOL    MW4 1704   1.164   1.510   0.776  0.2141 -0.2913  0.0372
  427SOL     OW 1705   1.673   2.770   0.392  0.2898 -0.4434 -0.1419
  427SOL    HW2 1706   1.593   2.718   0.382 -0.1592  0.1052  0.5231
  427SOL    HW3 1707   1.744   2.706   0.393 -0.2266 -1.0086  0.2569
  427SOL    MW4 1708   1.672   2.755   0.391  0.1624 -0.4456 -0.0016
  428SOL     OW 1709   2.945   3.110   0.867  0.4827  0.0709  0.2245
  428SOL    HW2 1710   2.864   3.153   0.842  0.5621  0.8305  1.2345
  428SOL    HW3 1711   2.941   3.024   0.825 -0.6184  0.2835 -0.1155
  428SOL    MW4 1712   2.934   3.105   0.858  0.3479  0.1992  0.3129
  429SOL     OW 1713   3.171   1.448   0.557  0.2843 -0.0763  0.3395
  429SOL    HW2 1714   3.085   1.456   0.515  0.5725  1.6420  0.0448
  429SOL    HW3 1715   3.174   1.521   0.620  1.5616 -0.0587  0.2722
  429SOL    MW4 1716   3.160   1.459   0.560  0.4909  0.1528  0.2917
  430SOL     OW 1717   3.505   0.631   0.334  0.2616 -0.2649 -0.2501
  430SOL    HW2 1718   3.552   0.547   0.330  0.6357 -0.2181  2.2496
  430SOL    HW3 1719   3.414   0.609   0.317  0.4378 -1.1092 -0.1185
  430SOL    MW4 1720   3.499   0.617   0.332  0.3342 -0.3701  0.0971
  431SOL     OW 1721   1.563   4.345   0.433  0.0065  0.0301  0.2986
  431SOL    HW2 1722   1.474   4.325   0.403 -0.5144  1.3226  0.9308
  431SOL    HW3 1723   1.620   4.292   0.377 -1.0410  0.8914 -1.6376
  431SOL    MW4 1724   1.559   4.335   0.422 -0.2004  0.3143  0.1266
  432SOL     OW 1725   0.206   1.528   0.829 -0.0110  0.0213 -0.0332
  432SOL    HW2 1726   0.202   1.439   0.795 -0.9536  0.6509 -1.6625
  432SOL    HW3 1727   0.294   1.558   0.808  0.3737 -0.5809  0.6940
  432SOL    MW4 1728   0.217   1.520   0.821 -0.0846  0.0249 -0.1522
  433SOL     OW 1729   4.037   4.266   0.855 -0.5181 -0.1456 -0.1026
  433SOL    HW2 1730   4.113   4.308   0.815 -0.7551  0.4782  0.0995
  433SOL    HW3 1731   4.042   4.175   0.826  0.5583 -0.2159  0.2839
  433SOL    MW4 1732   4.048   4.259   0.846 -0.4073 -0.0726 -0.0250
  434SOL     OW 1733   4.091   2.685   0.880 -0.1578 -0.1261  0.3654
  434SOL    HW2 1734   4.081   2.601   0.836 -0.9195  0.3196 -0.3330
  434SOL    HW3 1735   4.154   2.733   0.826 -0.2899  0.0215  0.3395
  434SOL    MW4 1736   4.098   2.680   0.867 -0.2757 -0.0478  0.2699
  435SOL     OW 1737   2.103   3.526   0.418  0.0425 -0.4158  0.3879
  435SOL    HW2 1738   2.188   3.487   0.442 -0.2330 -0.5930  1.0837
  435SOL    HW3 1739   2.042   3.453   0.419  0.1232 -0.5277 -1.4243
  435SOL    MW4 1740   2.106   3.511   0.421  0.0168 -0.4539  0.2406
  436SOL     OW 1741   1.833   2.734   0.856  0.4625 -0.4262 -0.6350
  436SOL    HW2 1742   1.909   2.754   0.800  0.0776  1.2047 -0.5914
  436SOL    HW3 1743   1.766   2.796   0.828 -0.1869 -0.5159  0.7089
  436SOL    MW4 1744   1.834   2.745   0.845  0.3261 -0.2229 -0.4519
  437SOL     OW 1745   1.666   3.584   0.543  0.4615 -0.3099  0.0079
  437SOL    HW2 1746   1.686   3.538   0.624 -2.6525 -0.2688  0.8738
  437SOL    HW3 1747   1.645   3.514   0.480 -0.6870 -0.2254  0.2879
  437SOL    MW4 1748   1.666   3.569   0.545 -0.1009 -0.2934  0.1591
  438SOL     OW 1749   2.513   3.113   1.155  0.1509  0.1941 -0.3104
  438SOL    HW2 1750   2.503   3.025   1.191 -0.3669  0.3886  0.0395
  438SOL    HW3 1751   2.437   3.161   1.189  2.1155  1.6769  2.1899
  438SOL    MW4 1752   2.501   3.108   1.164  0.3418  0.4154  0.0656
  439SOL     OW 1753   0.338   1.114   0.291  0.5308 -0.2659 -0.1230
  439SOL    HW2 1754   0.311   1.186   0.348  0.4465  0.2156 -0.7681
  439SOL    HW3 1755   0.355   1.041   0.351 -0.3557 -0.0096  0.4483
  439SOL    MW4 1756   0.337   1.114   0.307  0.4027 -0.1686 -0.1328
  440SOL     OW 1757   3.823   1.563   0.850  0.1379 -0.4343 -0.0468
  440SOL    HW2 1758   3.906   1.581   0.808  1.2682 -1.2186  1.7918
  440SOL    HW3 1759   3.760   1.618   0.804  1.4377 -0.8061 -2.3049
  440SOL    MW4 1760   3.825   1.573   0.839  0.4585 -0.5869 -0.1022
  441SOL     OW 1761   2.262   3.447   0.848  0.0932  0.1714 -0.0328
  441SOL    HW2 1762   2.254   3.361   0.805 -0.1725 -1.0903  2.4659
  441SOL    HW3 1763   2.340   3.485   0.810 -0.2116 -0.8504 -1.7486
  441SOL    MW4 1764   2.271   3.440   0.837  0.0179 -0.1299  0.0705
  442SOL     OW 1765   2.268   4.288   0.880 -0.3095  0.3170  0.1345
  442SOL    HW2 1766   2.334   4.327   0.823  1.0799 -0.3876  1.2280
  442SOL    HW3 1767   2.259   4.198   0.847 -0.3187  0.2459  0.3305
  442SOL    MW4 1768   2.276   4.281   0.868 -0.1274  0.2146  0.3047
  443SOL     OW 1769   3.646   0.864   0.413  0.4942 -0.0968  0.0509
  443SOL    HW2 1770   3.617   0.780   0.378  0.4539 -0.4236  0.8659
  443SOL    HW3 1771   3.624   0.861   0.506  1.3819  0.4144  0.2903
  443SOL    MW4 1772   3.639   0.852   0.420  0.6060 -0.0725  0.1900
  444SOL     OW 1773   1.386   2.189   0.313  0.1963  0.0218 -0.1647
  444SOL    HW2 1774   1.294   2.173   0.336 -0.4230  1.3447 -1.5920
  444SOL    HW3 1775   1.414   2.259   0.372  0.1283 -0.0124 -0.0913
  444SOL    MW4 1776   1.377   2.196   0.324  0.1056  0.1918 -0.3433
  445SOL     OW 1777   3.901   0.750   0.432 -0.3033 -0.0326  0.4179
  445SOL    HW2 1778   3.971   0.812   0.410  0.6590 -1.3119 -0.1972
  445SOL    HW3 1779   3.821   0.802   0.429  0.5097  1.2112  0.0364
  445SOL    MW4 1780   3.900   0.765   0.428 -0.0691 -0.0373  0.2864
  446SOL     OW 1781   2.922   4.605   0.813  0.2468 -0.2257 -0.4136
  446SOL    HW2 1782   2.933   4.521   0.768  0.6873  0.4975 -1.6856
  446SOL    HW3 1783   2.990   4.661   0.775 -0.1188  0.7422  0.3454
  446SOL    MW4 1784   2.933   4.601   0.802  0.2567 -0.0025 -0.4813
  447SOL     OW 1785   3.178   4.254   0.842 -0.2895  0.1574  0.0698
  447SOL    HW2 1786   3.244   4.290   0.783  0.7332 -2.2642 -0.3361
  447SOL    HW3 1787   3.095   4.287   0.809  0.5866  1.9625 -0.3816
  447SOL    MW4 1788   3.176   4.263   0.830 -0.0390  0.0761 -0.0433
  448SOL     OW 1789   2.444   4.620   0.823 -0.5456 -0.2889  0.5017
  448SOL    HW2 1790   2.445   4.603   0.917  1.2844 -0.7373  0.4189
  448SOL    HW3 1791   2.456   4.534   0.783 -1.5626 -0.1399 -0.1711
  448SOL    MW4 1792   2.445   4.606   0.830 -0.4383 -0.3284  0.4020
  449SOL     OW 1793   1.140   2.716   0.417 -0.0024  0.3135  0.2931
  449SOL    HW2 1794   1.149   2.765   0.498  0.8848 -1.7238  1.4366
  449SOL    HW3 1795   1.065   2.658   0.432 -1.9108  2.1682 -1.5415
  449SOL    MW4 1796   1.131   2.715   0.429 -0.1371  0.2895  0.2019
  450SOL     OW 1797   1.929   1.220   0.431  0.1315 -0.1826  0.2871
  450SOL    HW2 1798   1.948   1.127   0.415 -2.4148 -0.4927 -1.1707
  450SOL    HW3 1799   1.991   1.267   0.375  0.4253 -1.0474 -0.1234
  450SOL    MW4 1800   1.940   1.214   0.421 -0.1657 -0.3376  0.0406
  451SOL     OW 1801   3.647   1.118   0.809  0.2645 -0.0353  0.0967
  451SOL    HW2 1802   3.709   1.182   0.772 -0.1133  0.9981  1.2214
  451SOL    HW3 1803   3.653   1.131   0.903 -1.1204 -0.4587  0.2526
  451SOL    MW4 1804   3.656   1.128   0.816  0.0319  0.0452  0.2656
  452SOL     OW 1805   1.831   4.232   0.247  0.4466 -0.2215 -0.5462
  452SOL    HW2 1806   1.873   4.274   0.322 -1.0362  1.2705 -0.5173
  452SOL    HW3 1807   1.901   4.180   0.206  1.2185 -1.2294  1.9626
  452SOL    MW4 1808   1.846   4.231   0.252  0.3528 -0.1576 -0.2114
  453SOL     OW 1809   1.476   2.391   0.465 -0.5461  0.2156  0.1345
  453SOL    HW2 1810   1.558   2.370   0.421  0.0801  1.6317  0.6024
  453SOL    HW3 1811   1.446   2.472   0.422 -0.6313  0.8414  1.3456
  453SOL    MW4 1812   1.483   2.399   0.454 -0.4747  0.4850  0.3560
  454SOL     OW 1813   1.639   4.051   0.349 -0.0650 -0.0315  0.3000
  454SOL    HW2 1814   1.708   4.108   0.316  0.4412  0.0409  1.4794
  454SOL    HW3 1815   1.685   3.981   0.395 -0.7465 -0.4241  0.3873
  454SOL    MW4 1816   1.654   4.049   0.351 -0.0881 -0.0738  0.4671
  455SOL     OW 1817   0.055   0.110   0.714 -0.1432  0.2503  0.5973
  455SOL    HW2 1818   0.040   0.199   0.745  0.2042  0.6540 -0.3738
  455SOL    HW3 1819   0.031   0.112   0.622  2.3668  0.0092 -0.1049
  455SOL    MW4 1820   0.050   0.122   0.706  0.2338  0.2718  0.3765
  456SOL     OW 1821   3.407   1.069   0.366  0.1746  0.1469 -0.1295
  456SOL    HW2 1822   3.466   0.994   0.366  0.7898  0.6345 -0.7280
  456SOL    HW3 1823   3.319   1.030   0.368  0.4704 -0.6052 -1.2933
  456SOL    MW4 1824   3.403   1.054   0.366  0.2948  0.1120 -0.3620
  457SOL     OW 1825   2.242   0.125   0.763 -0.4963  0.4654  0.3761
  457SOL    HW2 1826   2.320   0.078   0.793 -0.9683  0.5998  1.8198
  457SOL    HW3 1827   2.250   0.211   0.803 -1.0923  0.6729  0.0403
  457SOL    MW4 1828   2.254   0.130   0.772 -0.6372  0.5105  0.5223
  458SOL     OW 1829   2.723   2.418   0.749  0.3502 -0.1616  0.0323
  458SOL    HW2 1830   2.806   2.382   0.780 -0.7763 -0.9882  2.1745
  458SOL    HW3 1831   2.724   2.510   0.777  0.0196 -0.4971  1.1740
  458SOL    MW4 1832   2.734   2.426   0.756  0.1580 -0.3149  0.4655
  459SOL     OW 1833   0.901   3.188   0.652 -0.3874  0.0581  0.3191
  459SOL    HW2 1834   0.896   3.145   0.567  0.0028 -0.0452  0.3461
  459SOL    HW3 1835   0.987   3.162   0.687 -0.1756  0.8200  0.3574
  459SOL    MW4 1836   0.912   3.179   0.646 -0.3080  0.1450  0.3277
  460SOL     OW 1837   0.176   4.569   0.246 -0.4421  0.2268  0.6707
  460SOL    HW2 1838   0.158   4.573   0.152 -0.3723 -0.8731  0.6002
  460SOL    HW3 1839   0.167   4.659   0.276  1.8944  1.0097 -0.8201
  460SOL    MW4 1840   0.173   4.582   0.237 -0.1247  0.1850  0.4647
  461SOL     OW 1841   2.043   4.379   0.719 -0.4606 -0.2595 -0.2272
  461SOL    HW2 1842   2.106   4.360   0.789 -0.7302  1.9766  0.6829
  461SOL    HW3 1843   1.969   4.321   0.738 -0.8241  0.7865  1.8203
  461SOL    MW4 1844   2.042   4.369   0.731 -0.5441  0.1735  0.1630
  462SOL     OW 1845   3.534   2.124   0.438  0.3046 -0.3269  0.4582
  462SOL    HW2 1846   3.491   2.204   0.406  0.2708 -0.3843  0.3611
  462SOL    HW3 1847   3.498   2.112   0.526 -1.8489 -1.8187 -0.5900
  462SOL    MW4 1848   3.523   2.133   0.445  0.0161 -0.5313  0.3071
  463SOL     OW 1849   0.073   0.418   0.137  0.4952 -0.4493  0.4636
  463SOL    HW2 1850   0.053   0.483   0.205  0.0394 -1.1324  0.9875
  463SOL    HW3 1851  -0.007   0.414   0.084  0.3126 -0.9995  0.7760
  463SOL    MW4 1852   0.060   0.426   0.139  0.4110 -0.6120  0.5739
  464SOL     OW 1853   2.717   3.491   0.882  0.0463 -0.0929  0.0681
  464SOL    HW2 1854   2.633   3.532   0.860 -0.2483  0.0512  1.4067
  464SOL    HW3 1855   2.726   3.505   0.976  0.5746 -1.9585  0.3142
  464SOL    MW4 1856   2.707   3.498   0.891  0.0771 -0.3200  0.2772
  465SOL     OW 1857   2.133   1.354   0.305  0.5754  0.2804  0.5076
  465SOL    HW2 1858   2.164   1.427   0.360 -1.3678  1.7081 -0.2351
  465SOL    HW3 1859   2.141   1.387   0.216 -0.2012 -0.4596  0.1594
  465SOL    MW4 1860   2.138   1.368   0.301  0.2166  0.3711  0.3637
  466SOL     OW 1861   2.920   3.897   0.833 -0.5283 -0.0208  0.0349
  466SOL    HW2 1862   2.943   3.901   0.926  0.4483 -2.6873 -0.0451
  466SOL    HW3 1863   2.992   3.940   0.789 -0.4728  0.3090  0.4422
  466SOL    MW4 1864   2.932   3.903   0.840 -0.3921 -0.3291  0.0781
  467SOL     OW 1865   2.710   4.217   0.854 -0.5229  0.3311  0.3701
  467SOL    HW2 1866   2.697   4.124   0.834 -0.3673  0.2980  0.4219
  467SOL    HW3 1867   2.712   4.221   0.949  1.4670  0.1054  0.3611
  467SOL    MW4 1868   2.708   4.205   0.864 -0.2398  0.2970  0.3758
  468SOL     OW 1869   1.525   4.631   0.099 -0.9381  0.0743 -0.1411
  468SOL    HW2 1870   1.515   4.722   0.071 -1.0379 -0.3788 -1.5996
  468SOL    HW3 1871   1.514   4.634   0.195 -1.5786  1.5014 -0.2474
  468SOL    MW4 1872   1.522   4.643   0.108 -1.0358  0.2028 -0.3476
  469SOL     OW 1873   1.109   0.619   0.419  0.1308  0.4123  0.4869
  469SOL    HW2 1874   1.060   0.700   0.430 -0.6198  0.0806 -0.4197
  469SOL    HW3 1875   1.132   0.593   0.508  0.1511  1.4732  0.8007
  469SOL    MW4 1876   1.106   0.626   0.432  0.0344  0.5085  0.4087
  470SOL     OW 1877   2.605   1.244   0.450  0.2083  0.3185  0.2345
  470SOL    HW2 1878   2.679   1.301   0.431 -0.0067  0.5835  0.1819
  470SOL    HW3 1879   2.640   1.155   0.443 -0.0744  0.3758 -2.2804
  470SOL    MW4 1880   2.619   1.240   0.446  0.1426  0.3610 -0.1043
  471SOL     OW 1881   1.047   0.429   0.216 -0.4289 -0.4029 -0.1395
  471SOL    HW2 1882   1.070   0.496   0.280 -1.6868 -0.0717 -0.0212
  471SOL    HW3 1883   1.070   0.346   0.258  1.4500 -0.0591 -0.4226
  471SOL    MW4 1884   1.053   0.427   0.230 -0.3469 -0.3138 -0.1612
  472SOL     OW 1885   3.122   0.114   0.694  0.3385  0.2221 -0.0398
  472SOL    HW2 1886   3.201   0.068   0.722  0.7678  0.6913 -0.4585
  472SOL    HW3 1887   3.131   0.202   0.729 -0.2505  0.1286  0.3508
  472SOL    MW4 1888   3.133   0.119   0.702  0.3174  0.2717 -0.0435
  473SOL     OW 1889   2.965   2.212   0.501  0.1138 -0.1504  0.0580
  473SOL    HW2 1890   2.972   2.159   0.580 -0.2437 -0.7770 -0.3323
  473SOL    HW3 1891   3.033   2.279   0.511  0.7490 -0.8435  0.4194
  473SOL    MW4 1892   2.975   2.214   0.513  0.1505 -0.3245  0.0542
  474SOL     OW 1893   3.194   1.121   1.090  0.5617 -0.7574 -0.4328
  474SOL    HW2 1894   3.268   1.162   1.135  0.5217  0.0287 -1.0829
  474SOL    HW3 1895   3.117   1.168   1.123  0.3939 -1.2442 -0.1276
  474SOL    MW4 1896   3.193   1.133   1.101  0.5343 -0.7179 -0.4783
  475SOL     OW 1897   4.283   1.312   0.658 -0.4502  0.5097  0.2980
  475SOL    HW2 1898   4.207   1.273   0.702  0.0009 -0.5847  0.1341
  475SOL    HW3 1899   4.301   1.392   0.708 -1.3698  0.4866  0.6785
  475SOL    MW4 1900   4.276   1.317   0.671 -0.5120  0.3623  0.3266
  476SOL     OW 1901   4.085   4.022   0.478  0.2901 -0.2544 -0.0191
  476SOL    HW2 1902   4.093   4.020   0.573 -1.2275 -2.2354  0.0818
  476SOL    HW3 1903   4.015   4.085   0.461  0.6822  0.2323  0.1470
  476SOL    MW4 1904   4.077   4.030   0.488  0.1416 -0.4516  0.0161
  477SOL     OW 1905   3.221   1.677   0.723  0.5292 -0.4509 -0.1780
  477SOL    HW2 1906   3.295   1.629   0.761 -0.0187 -2.0106 -1.0293
  477SOL    HW3 1907   3.258   1.725   0.649  0.8656 -0.4418 -0.0056
  477SOL    MW4 1908   3.236   1.677   0.719  0.5013 -0.6555 -0.2675
  478SOL     OW 1909   3.401   1.556   0.890 -0.2970  0.2131 -0.2939
  478SOL    HW2 1910   3.396   1.549   0.985  0.6704 -1.2063 -0.3186
  478SOL    HW3 1911   3.411   1.466   0.860  3.7458  0.9073 -1.4157
  478SOL    MW4 1912   3.402   1.543   0.899  0.3640  0.1174 -0.4452
  479SOL     OW 1913   4.117   0.957   0.413 -0.4346 -0.2531  0.1749
  479SOL    HW2 1914   4.212   0.968   0.412 -0.4625 -0.0397 -0.2821
  479SOL    HW3 1915   4.083   1.047   0.413 -0.6425 -0.3230 -0.6838
  479SOL    MW4 1916   4.125   0.971   0.413 -0.4657 -0.2342  0.0013
  480SOL     OW 1917   0.856   4.097   0.442 -0.1672  0.0217  0.1422
  480SOL    HW2 1918   0.882   4.042   0.516  0.1181 -1.2421 -0.8574
  480SOL    HW3 1919   0.833   4.034   0.373  1.2394  1.1410 -1.4062
  480SOL    MW4 1920   0.857   4.081   0.443  0.0560  0.0026 -0.1940
  481SOL     OW 1921   1.364   1.667   0.707  0.1422 -0.0859 -0.0177
  481SOL    HW2 1922   1.359   1.759   0.731  0.1891 -0.0418 -0.1720
  481SOL    HW3 1923   1.338   1.665   0.615 -1.3671 -0.4334  0.4113
  481SOL    MW4 1924   1.360   1.679   0.698 -0.0507 -0.1259  0.0185
  482SOL     OW 1925   3.388   2.308   0.846 -0.1301  0.3451 -0.4086
  482SOL    HW2 1926   3.392   2.312   0.942 -0.5573  0.4056 -0.3904
  482SOL    HW3 1927   3.310   2.358   0.824  0.2471  0.7518 -0.8225
  482SOL    MW4 1928   3.378   2.315   0.856 -0.1367  0.4067 -0.4608
  483SOL     OW 1929   0.237   1.331   0.448  0.1959 -0.1855 -0.4397
  483SOL    HW2 1930   0.299   1.404   0.441 -0.9090  0.9078  0.8282
  483SOL    HW3 1931   0.161   1.360   0.397 -1.0117  0.4108  1.6343
  483SOL    MW4 1932   0.235   1.344   0.441 -0.1092  0.0374  0.0013
  484SOL     OW 1933   2.514   4.363   0.741 -0.0936  0.0226 -0.3417
  484SOL    HW2 1934   2.507   4.341   0.648 -1.3315 -0.8877 -0.0483
  484SOL    HW3 1935   2.583   4.306   0.774  0.0674  0.0580 -0.6169
  484SOL    MW4 1936   2.522   4.352   0.733 -0.2357 -0.0928 -0.3393
  485SOL     OW 1937   4.280   2.842   0.739  0.0114  0.5269 -0.0555
  485SOL    HW2 1938   4.281   2.838   0.644  0.9345  0.0520 -0.0330
  485SOL    HW3 1939   4.342   2.774   0.767  0.4022  1.2422  0.8632
  485SOL    MW4 1940   4.288   2.832   0.730  0.1847  0.5586  0.0686
  486SOL     OW 1941   0.461   3.480   0.794  0.1787 -0.1154  0.2272
  486SOL    HW2 1942   0.446   3.483   0.888  0.0631  0.8975  0.1799
  486SOL    HW3 1943   0.388   3.529   0.757 -0.0352 -0.9085 -0.4226
  486SOL    MW4 1944   0.449   3.487   0.801  0.1352 -0.0864  0.1352
  487SOL     OW 1945   4.211   2.069   0.444  0.1847 -0.2547  0.2294
  487SOL    HW2 1946   4.247   2.089   0.531  2.3484 -0.3165 -0.6243
  487SOL    HW3 1947   4.276   2.105   0.383 -0.7206 -1.2895 -1.3534
  487SOL    MW4 1948   4.224   2.077   0.447  0.3507 -0.3994 -0.0921
  488SOL     OW 1949   3.146   3.245   0.756  0.6040 -0.2125 -0.0089
  488SOL    HW2 1950   3.077   3.191   0.795  1.3280 -0.2453  1.2539
  488SOL    HW3 1951   3.143   3.327   0.805  1.1119 -0.0180 -0.2986
  488SOL    MW4 1952   3.137   3.249   0.768  0.7665 -0.1912  0.1194
  489SOL     OW 1953   0.327   3.390   0.241 -0.0756  0.0909 -0.2797
  489SOL    HW2 1954   0.357   3.315   0.190  0.1401 -0.5066  0.7304
  489SOL    HW3 1955   0.383   3.462   0.212 -1.3189  0.2552 -2.4077
  489SOL    MW4 1956   0.339   3.390   0.230 -0.2112  0.0338 -0.4272
  490SOL     OW 1957   3.429   3.895   0.764  0.2431 -0.1021  0.1423
  490SOL    HW2 1958   3.348   3.942   0.747 -0.0971 -0.6569  0.1898
  490SOL    HW3 1959   3.425   3.873   0.858  0.7018  0.3443  0.2679
  490SOL    MW4 1960   3.418   3.898   0.774  0.2588 -0.1164  0.1652
  491SOL     OW 1961   0.712   0.706   0.101  0.3330 -0.7536  0.0807
  491SOL    HW2 1962   0.682   0.723   0.012  0.3837 -0.9711  0.0219
  491SOL    HW3 1963   0.632   0.684   0.149  0.3649 -1.0948 -0.0197
  491SOL    MW4 1964   0.697   0.705   0.095  0.3439 -0.8273  0.0597
  492SOL     OW 1965   3.831   3.639   0.515  0.5127  0.5515 -0.3788
  492SOL    HW2 1966   3.844   3.555   0.469  0.9085 -0.4761  1.5341
  492SOL    HW3 1967   3.908   3.691   0.492  0.6456  0.0874 -0.9802
  492SOL    MW4 1968   3.843   3.634   0.506  0.5824  0.3547 -0.2057
  493SOL     OW 1969   2.104   2.627   0.282 -0.3646 -0.0741 -0.2520
  493SOL    HW2 1970   2.121   2.578   0.201  0.3145 -1.1190  0.5169
  493SOL    HW3 1971   2.024   2.588   0.317  0.2904 -0.7722  0.4675
  493SOL    MW4 1972   2.096   2.615   0.276 -0.1886 -0.3041 -0.0557
  494SOL     OW 1973   1.821   4.247   0.803 -0.5626  0.4075 -0.0217
  494SOL    HW2 1974   1.825   4.257   0.898  0.0622 -0.5258  0.0549
  494SOL    HW3 1975   1.747   4.301   0.776  1.1183  3.1691  0.6565
  494SOL    MW4 1976   1.812   4.255   0.812 -0.2584  0.6487  0.0779
  495SOL     OW 1977   4.072   3.227   0.755  0.0711 -0.4127 -0.3565
  495SOL    HW2 1978   4.075   3.217   0.660  1.6597 -0.3634 -0.3176
  495SOL    HW3 1979   4.077   3.322   0.770 -2.1695 -0.2721 -0.2702
  495SOL    MW4 1980   4.073   3.238   0.744 -0.0149 -0.3876 -0.3400
  496SOL     OW 1981   3.626   0.396   0.840 -0.5596 -0.4372 -0.6205
  496SOL    HW2 1982   3.617   0.308   0.802  1.0435 -0.2364 -1.5166
  496SOL    HW3 1983   3.641   0.381   0.933  1.5542 -1.2123 -1.0636
  496SOL    MW4 1984   3.627   0.382   0.847 -0.0692 -0.5130 -0.7972
  497SOL     OW 1985   2.020   3.845   0.796  0.2947 -0.1283 -0.1900
  497SOL    HW2 1986   2.036   3.839   0.891 -0.3319 -1.9082 -0.1674
  497SOL    HW3 1987   2.038   3.757   0.764 -1.3815 -0.0306 -1.4217
  497SOL    MW4 1988   2.024   3.832   0.805 -0.0092 -0.3502 -0.3496
  498SOL     OW 1989   0.210   4.374   0.713 -0.2531  0.1842  0.1323
  498SOL    HW2 1990   0.140   4.332   0.762  1.3665 -1.4321  1.1298
  498SOL    HW3 1991   0.180   4.374   0.622 -1.5537 -0.4110  0.5533
  498SOL    MW4 1992   0.197   4.369   0.708 -0.2110 -0.1076  0.3195
  499SOL     OW 1993   1.397   2.625   0.341  0.2118  0.2935  0.3265
  499SOL    HW2 1994   1.409   2.578   0.258  0.0720  2.7709 -1.1402
  499SOL    HW3 1995   1.306   2.653   0.338 -0.0246 -0.3103  1.7250
  499SOL    MW4 1996   1.386   2.622   0.329  0.1622  0.5407  0.3175
  500SOL     OW 1997   3.418   1.289   0.760 -0.2482 -0.2780 -0.3432
  500SOL    HW2 1998   3.466   1.208   0.777  0.1097 -0.1256 -0.6169
  500SOL    HW3 1999   3.434   1.307   0.667  0.0454  0.3527 -0.1717
  500SOL    MW4 2000   3.427   1.281   0.750 -0.1623 -0.1747 -0.3567
  501SOL     OW 2001   4.410   2.419   0.460 -0.2171 -0.2672  0.1771
  501SOL    HW2 2002   4.491   2.456   0.424 -0.9749 -0.1157 -1.4062
  501SOL    HW3 2003   4.340   2.472   0.423 -1.0236  0.2044  2.2757
  501SOL    MW4 2004   4.412   2.431   0.450 -0.4235 -0.1850  0.2451
  502SOL     OW 2005   3.618   1.949   0.791 -0.4284  0.3947  0.2803
  502SOL    HW2 2006   3.694   1.970   0.736 -0.0833 -1.4067  0.0064
  502SOL    HW3 2007   3.544   1.989   0.746  0.1300  0.6911 -0.3876
  502SOL    MW4 2008   3.618   1.957   0.778 -0.3092  0.1961  0.1560
  503SOL     OW 2009   0.003   4.011   0.700 -0.4276 -0.7589 -0.1320
  503SOL    HW2 2010   0.074   3.952   0.724 -0.1973 -1.0083 -1.4178
  503SOL    HW3 2011  -0.074   3.974   0.742  0.0889 -0.7755  0.8379
  503SOL    MW4 2012   0.003   3.998   0.709 -0.3291 -0.7940 -0.1737
  504SOL     OW 2013   1.274   4.445   0.120  0.1491 -0.2932  0.4796
  504SOL    HW2 2014   1.196   4.497   0.143 -0.6099 -1.0857 -0.2708
  504SOL    HW3 2015   1.340   4.510   0.098 -1.4093  0.3679 -2.4945
  504SOL    MW4 2016   1.272   4.461   0.120 -0.1566 -0.3106 -0.0118
  505SOL     OW 2017   0.898   2.519   0.710 -0.1292 -0.4237 -0.1069
  505SOL    HW2 2018   0.815   2.476   0.732  0.8962 -1.6932  1.4746
  505SOL    HW3 2019   0.965   2.455   0.736  1.3438  0.6455 -1.2150
  505SOL    MW4 2020   0.896   2.505   0.717  0.2005 -0.4501 -0.0444
  506SOL     OW 2021   2.935   3.610   0.755 -0.3044  0.0153  0.5300
  506SOL    HW2 2022   2.924   3.705   0.762 -1.0991  0.0368 -0.8770
  506SOL    HW3 2023   2.861   3.574   0.805 -0.7120  0.1432  0.0221
  506SOL    MW4 2024   2.924   3.618   0.763 -0.4630  0.0350  0.2774
  507SOL     OW 2025   1.769   1.660   0.779  0.8667 -0.4071  0.0727
  507SOL    HW2 2026   1.775   1.638   0.686  0.8987 -0.6770  0.1396
  507SOL    HW3 2027   1.699   1.604   0.813  1.2590 -0.7353  0.3408
  507SOL    MW4 2028   1.760   1.650   0.771  0.9227 -0.4860  0.1169
  508SOL     OW 2029   3.417   2.869   0.736  0.0307 -0.1656 -0.2341
  508SOL    HW2 2030   3.404   2.953   0.780 -0.8761 -0.5992  0.3465
  508SOL    HW3 2031   3.503   2.840   0.764  0.6079  0.8473 -0.9104
  508SOL    MW4 2032   3.427   2.876   0.746 -0.0128 -0.0892 -0.2467
  509SOL     OW 2033   0.263   3.670   0.390 -0.3925 -0.1826 -0.4136
  509SOL    HW2 2034   0.185   3.615   0.389 -0.4912 -0.0485 -0.0950
  509SOL    HW3 2035   0.326   3.624   0.334 -0.0006 -1.3006  0.9203
  509SOL    MW4 2036   0.261   3.657   0.382 -0.3538 -0.3124 -0.1956
  510SOL     OW 2037   3.589   3.738   0.418 -0.5538  0.0047  0.4489
  510SOL    HW2 2038   3.521   3.672   0.433  0.4165 -1.0293  0.3405
  510SOL    HW3 2039   3.669   3.698   0.451 -0.2300  1.7786  1.9052
  510SOL    MW4 2040   3.590   3.724   0.424 -0.3831  0.1023  0.6268
  511SOL     OW 2041   3.390   3.130   0.830  0.4463 -0.3135 -0.6871
  511SOL    HW2 2042   3.304   3.165   0.806  0.7485  0.0019 -1.3134
  511SOL    HW3 2043   3.397   3.148   0.924  0.8147  1.8288 -1.0813
  511SOL    MW4 2044   3.379   3.137   0.839  0.5348  0.0108 -0.8218
  512SOL     OW 2045   0.242   2.798   0.730 -0.6803  0.0990  0.1727
  512SOL    HW2 2046   0.238   2.891   0.756  0.6339  0.4088 -0.6637
  512SOL    HW3 2047   0.168   2.758   0.774 -1.5261  1.6429  0.2110
  512SOL    MW4 2048   0.232   2.805   0.739 -0.6185  0.3436  0.0674
  513SOL     OW 2049   3.892   2.801   0.735 -0.7263  0.7167  0.9131
  513SOL    HW2 2050   3.810   2.768   0.770 -0.0575 -1.9003  0.1011
  513SOL    HW3 2051   3.960   2.759   0.789  0.1148  2.0710  0.9388
  513SOL    MW4 2052   3.890   2.791   0.747 -0.5271  0.5501  0.8094
  514SOL     OW 2053   3.886   3.602   0.778 -0.3829  0.0841  0.0884
  514SOL    HW2 2054   3.972   3.560   0.784 -0.8331 -0.6764  1.4892
  514SOL    HW3 2055   3.866   3.603   0.684  0.0362 -2.0151 -0.0496
  514SOL    MW4 2056   3.895   3.597   0.766 -0.3870 -0.2932  0.2550
  515SOL     OW 2057   0.387   1.738   0.220 -0.4056 -0.5357 -0.4820
  515SOL    HW2 2058   0.392   1.781   0.135  0.0296 -0.9528 -0.6696
  515SOL    HW3 2059   0.339   1.800   0.275 -3.4790 -1.6294 -1.8592
  515SOL    MW4 2060   0.382   1.752   0.216 -0.7537 -0.7350 -0.6885
  516SOL     OW 2061   3.592   4.275   0.789 -0.1872 -0.2956  0.5424
  516SOL    HW2 2062   3.672   4.324   0.770  0.5362 -0.5168  2.8431
  516SOL    HW3 2063   3.613   4.185   0.767 -1.0498  0.1461 -2.3287
  516SOL    MW4 2064   3.605   4.270   0.783 -0.2056 -0.2665  0.4671
  517SOL     OW 2065   3.614   2.445   0.721  0.4904 -0.1101 -0.0197
  517SOL    HW2 2066   3.599   2.481   0.633 -1.0112  0.3789  0.4378
  517SOL    HW3 2067   3.533   2.400   0.743  0.8262 -0.1301  1.1858
  517SOL    MW4 2068   3.601   2.444   0.712  0.3366 -0.0482  0.1997
  518SOL     OW 2069   4.045   0.108   0.721  0.1075  0.3314 -0.0023
  518SOL    HW2 2070   4.030   0.086   0.629  0.5617 -2.4011  0.5282
  518SOL    HW3 2071   4.128   0.065   0.742  0.8682  2.3872  1.2221
  518SOL    MW4 2072   4.054   0.099   0.711  0.2678  0.2421  0.2292
  519SOL     OW 2073   1.156   2.072   0.693 -0.5563 -0.3184 -0.0708
  519SOL    HW2 2074   1.216   2.014   0.741  0.1437  0.5224  0.0917
  519SOL    HW3 2075   1.070   2.032   0.703 -0.0255 -1.5505 -0.3036
  519SOL    MW4 2076   1.153   2.059   0.701 -0.3939 -0.3700 -0.0801
  520SOL     OW 2077   1.963   4.355   0.445  0.1591 -0.1884 -0.0951
  520SOL    HW2 2078   1.965   4.442   0.404 -0.1874  0.0961  0.4784
  520SOL    HW3 2079   2.001   4.370   0.532 -2.3022 -0.0725  0.9963
  520SOL    MW4 2080   1.968   4.369   0.451 -0.2114 -0.1356  0.1245
  521SOL     OW 2081   3.178   2.389   0.513 -0.0515 -0.0420 -0.1479
  521SOL    HW2 2082   3.246   2.346   0.461 -0.3609  0.2195 -0.7682
  521SOL    HW3 2083   3.157   2.468   0.464 -0.3214  0.2241  0.3935
  521SOL    MW4 2084   3.184   2.394   0.500 -0.1279  0.0276 -0.1583
  522SOL     OW 2085   4.098   0.949   0.690  0.3815  0.1166 -0.1198
  522SOL    HW2 2086   4.024   0.899   0.726 -0.1424  0.8659 -0.1412
  522SOL    HW3 2087   4.089   0.940   0.596  1.5110 -1.4990 -0.0899
  522SOL    MW4 2088   4.087   0.941   0.683  0.4614  0.0023 -0.1187
  523SOL     OW 2089   2.718   0.921   0.748  0.2985 -0.1450  0.0030
  523SOL    HW2 2090   2.796   0.877   0.782 -0.2143  0.1140  1.5999
  523SOL    HW3 2091   2.718   1.006   0.793 -0.0571  0.4745 -1.1697
  523SOL    MW4 2092   2.728   0.926   0.759  0.1839 -0.0291  0.0590
  524SOL     OW 2093   1.172   0.769   0.807 -0.5253  0.0147 -0.1552
  524SOL    HW2 2094   1.189   0.681   0.773  0.9092 -0.1365  0.8763
  524SOL    HW3 2095   1.134   0.754   0.894 -2.9224  0.4021 -1.1078
  524SOL    MW4 2096   1.170   0.755   0.814 -0.6523  0.0459 -0.1448
  525SOL     OW 2097   2.331   3.392   0.518  0.1943  0.1633 -0.4787
  525SOL    HW2 2098   2.344   3.298   0.508  0.2232 -0.3286  3.2821
  525SOL    HW3 2099   2.419   3.429   0.516  0.2404  0.0101 -1.2150
  525SOL    MW4 2100   2.344   3.385   0.517  0.2042  0.0782 -0.0797
  526SOL     OW 2101   0.829   0.889   0.270 -0.0931  0.0902 -0.4874
  526SOL    HW2 2102   0.799   0.828   0.203  1.3532 -0.7849 -0.3661
  526SOL    HW3 2103   0.771   0.965   0.261 -1.3642 -0.9524 -1.1990
  526SOL    MW4 2104   0.818   0.891   0.260 -0.0700 -0.1628 -0.5653
  527SOL     OW 2105   3.354   4.378   0.669 -0.3506  0.2499  0.2377
  527SOL    HW2 2106   3.440   4.343   0.693 -0.4430  0.4592  0.8616
  527SOL    HW3 2107   3.353   4.374   0.573 -0.1342 -0.9278  0.2776
  527SOL    MW4 2108   3.365   4.373   0.659 -0.3343  0.1221  0.3253
  528SOL     OW 2109   3.512   4.002   0.392  0.3185 -0.3233  0.3360
  528SOL    HW2 2110   3.419   4.018   0.411  0.7310  2.0185  0.5553
  528SOL    HW3 2111   3.524   3.909   0.409 -1.6550 -0.3607  1.7546
  528SOL    MW4 2112   3.501   3.992   0.396  0.1126 -0.0193  0.5521
  529SOL     OW 2113   3.420   3.532   0.517 -0.1662  0.0741 -0.1578
  529SOL    HW2 2114   3.343   3.476   0.504 -0.5930  0.7274 -0.4400
  529SOL    HW3 2115   3.423   3.548   0.611 -0.6846  0.4978 -0.2167
  529SOL    MW4 2116   3.410   3.526   0.528 -0.2909  0.2162 -0.2028
  530SOL     OW 2117   0.706   0.665   0.436 -0.4130 -0.0830  0.0815
  530SOL    HW2 2118   0.738   0.597   0.377  0.0338  0.2600 -0.0796
  530SOL    HW3 2119   0.743   0.746   0.400 -1.1095  0.2670  0.1473
  530SOL    MW4 2120   0.715   0.667   0.423 -0.4459  0.0084  0.0690
  531SOL     OW 2121   4.346   3.633   0.439 -0.2662  0.1493  0.3406
  531SOL    HW2 2122   4.412   3.598   0.379  0.0225 -0.8461  1.2153
  531SOL    HW3 2123   4.345   3.727   0.422 -0.9039 -0.2249 -1.9295
  531SOL    MW4 2124   4.355   3.641   0.429 -0.3123 -0.0314  0.1565
  532SOL     OW 2125   4.319   2.818   0.455 -0.0009 -0.1615  0.0470
  532SOL    HW2 2126   4.293   2.739   0.407 -1.1858  0.6396 -0.6639
  532SOL    HW3 2127   4.412   2.805   0.474  0.3744 -0.7316 -2.0099
  532SOL    MW4 2128   4.328   2.806   0.451 -0.1077 -0.1310 -0.3182
  533SOL     OW 2129   0.269   0.792   0.840  0.3671 -0.0546  0.2583
  533SOL    HW2 2130   0.235   0.772   0.927 -1.8392  0.7220 -0.4012
  533SOL    HW3 2131   0.271   0.708   0.795 -2.8529  0.2011 -0.4274
  533SOL    MW4 2132   0.265   0.778   0.846 -0.3488  0.0816  0.0808
  534SOL     OW 2133   4.475   4.268   0.848  0.2679 -0.2919 -0.0649
  534SOL    HW2 2134   4.492   4.178   0.821  0.5535 -0.5089  0.8242
  534SOL    HW3 2135   4.462   4.263   0.943  0.9049  0.6897  0.0793
  534SOL    MW4 2136   4.475   4.256   0.857  0.3896 -0.1910  0.0715
  535SOL     OW 2137   1.283   4.309   0.367 -0.1370  0.6359  0.2269
  535SOL    HW2 2138   1.275   4.347   0.280  2.9555  0.6830 -0.0738
  535SOL    HW3 2139   1.277   4.214   0.352  1.6308  0.5735 -0.2401
  535SOL    MW4 2140   1.281   4.301   0.353  0.5043  0.6339  0.1256
  536SOL     OW 2141   3.841   2.964   0.359  0.2750  0.0761  0.9148
  536SOL    HW2 2142   3.761   3.014   0.370 -0.0081 -0.2895  0.5752
  536SOL    HW3 2143   3.910   3.019   0.396 -0.1056  0.4759  1.0321
  536SOL    MW4 2144   3.840   2.978   0.365  0.1874  0.0806  0.8855
  537SOL     OW 2145   4.343   3.611   0.741  0.0382 -0.2161 -0.3160
  537SOL    HW2 2146   4.422   3.564   0.769  0.5167  0.2217 -0.8966
  537SOL    HW3 2147   4.359   3.629   0.648  0.1965  1.7385  0.0757
  537SOL    MW4 2148   4.356   3.607   0.733  0.1222  0.0996 -0.3409
  538SOL     OW 2149   3.642   4.266   0.337 -0.7539 -0.2333 -0.1891
  538SOL    HW2 2150   3.692   4.259   0.256 -0.2151  0.5210  0.0701
  538SOL    HW3 2151   3.615   4.176   0.357  2.5101 -0.9922  0.9472
  538SOL    MW4 2152   3.645   4.253   0.329 -0.2522 -0.2339 -0.0050
  539SOL     OW 2153   4.105   4.009   0.752  0.1773  0.1368  0.1315
  539SOL    HW2 2154   4.171   3.956   0.796  0.2428 -1.6818 -2.0639
  539SOL    HW3 2155   4.022   3.969   0.776  0.0389  0.7765  0.7313
  539SOL    MW4 2156   4.103   3.997   0.761  0.1677 -0.0187 -0.0790
  540SOL     OW 2157   0.930   2.537   0.440  0.6817  0.3134 -0.1623
  540SOL    HW2 2158   0.920   2.518   0.534  0.6624  0.1780 -0.1912
  540SOL    HW3 2159   0.843   2.562   0.411  0.2549 -1.5024 -0.5567
  540SOL    MW4 2160   0.917   2.537   0.449  0.6228  0.0559 -0.2181
  541SOL     OW 2161   0.678   4.661   0.836 -0.4234 -0.0571 -0.2788
  541SOL    HW2 2162   0.678   4.645   0.930 -0.5452 -0.8539 -0.4078
  541SOL    HW3 2163   0.678   4.573   0.797  0.1058  0.2696 -1.0197
  541SOL    MW4 2164   0.678   4.647   0.843 -0.3696 -0.1191 -0.3936
  542SOL     OW 2165   0.229   0.030   1.088 -0.5138  0.4495 -0.1123
  542SOL    HW2 2166   0.312   0.049   1.132 -0.6472 -1.2292  0.9294
  542SOL    HW3 2167   0.254  -0.002   1.001 -0.0630  0.0214  0.1734
  542SOL    MW4 2168   0.243   0.028   1.082 -0.4719  0.1715  0.0629
  543SOL     OW 2169   4.480   0.124   1.196 -0.3643  0.3225  0.0917
  543SOL    HW2 2170   4.403   0.077   1.162 -0.6690 -0.1190  1.3598
  543SOL    HW3 2171   4.555   0.080   1.156 -0.6979 -0.4847  0.3439
  543SOL    MW4 2172   4.479   0.112   1.186 -0.4485  0.1578  0.2923
  544SOL     OW 2173   0.025   0.367   1.102 -0.0164 -0.3008  0.3208
  544SOL    HW2 2174  -0.038   0.425   1.142 -0.5405  0.2590 -1.2655
  544SOL    HW3 2175   0.008   0.281   1.142 -1.3464 -0.0214  0.3834
  544SOL    MW4 2176   0.015   0.363   1.112 -0.2610 -0.1901  0.1197
  545SOL     OW 2177   0.265   0.464   1.180 -0.2394 -0.3715  0.3096
  545SOL    HW2 2178   0.265   0.554   1.148  1.5801 -0.5175 -0.1419
  545SOL    HW3 2179   0.183   0.427   1.148  0.3255  0.2729 -1.9201
  545SOL    MW4 2180   0.254   0.471   1.172  0.0752 -0.3057 -0.0441
  546SOL     OW 2181   0.211   0.727   1.100 -0.3735  0.1563  0.2037
  546SOL    HW2 2182   0.287   0.783   1.118 -0.0492 -0.5476  1.0758
  546SOL    HW3 2183   0.135   0.782   1.118 -0.0623  0.5745  0.2429
  546SOL    MW4 2184   0.211   0.742   1.105 -0.2897  0.1186  0.3239
  547SOL     OW 2185   4.479   0.874   1.149 -0.3964  0.1082 -0.0262
  547SOL    HW2 2186   4.463   0.882   1.243  0.1136  0.8865 -0.0019
  547SOL    HW3 2187   4.400   0.834   1.114 -0.3844 -0.6549  0.8091
  547SOL    MW4 2188   4.467   0.870   1.157 -0.3276  0.1102  0.0872
  548SOL     OW 2189   0.011   1.147   1.031  0.1042  0.4348 -0.1468
  548SOL    HW2 2190  -0.065   1.197   1.062 -1.0740 -0.8075 -0.9873
  548SOL    HW3 2191   0.001   1.061   1.072  0.1476 -0.2674 -1.6060
  548SOL    MW4 2192  -0.000   1.142   1.041 -0.0455  0.1783 -0.4502
  549SOL     OW 2193   0.228   1.275   1.219 -0.0160 -0.1073 -0.0194
  549SOL    HW2 2194   0.307   1.233   1.184 -0.3902 -1.5058  0.7629
  549SOL    HW3 2195   0.156   1.232   1.173 -0.5840 -2.9199  3.2839
  549SOL    MW4 2196   0.229   1.264   1.208 -0.1403 -0.6629  0.5196
  550SOL     OW 2197   0.212   1.529   1.106  0.0529 -0.6355 -0.2960
  550SOL    HW2 2198   0.212   1.438   1.135 -1.1030 -0.5527 -0.0186
  550SOL    HW3 2199   0.201   1.523   1.011  2.2663 -0.8459 -0.5807
  550SOL    MW4 2200   0.211   1.516   1.097  0.1924 -0.6523 -0.2970
  551SOL     OW 2201   4.476   1.672   1.178 -0.4324  0.4443 -0.1535
  551SOL    HW2 2202   4.491   1.764   1.157 -0.4083  0.4417 -0.1476
  551SOL    HW3 2203   4.551   1.627   1.141  0.5791  0.6602  1.5832
  551SOL    MW4 2204   4.488   1.678   1.170 -0.2957  0.4724  0.0764
  552SOL     OW 2205   0.035   1.955   1.082 -0.0124  0.0391 -0.2118
  552SOL    HW2 2206  -0.044   1.996   1.116  1.5532  3.0940 -0.1283
  552SOL    HW3 2207   0.033   1.973   0.988  0.4904 -0.0766 -0.2461
  552SOL    MW4 2208   0.024   1.962   1.074  0.2605  0.4269 -0.2053
  553SOL     OW 2209   0.265   2.064   1.165 -0.6889  0.0779 -0.2728
  553SOL    HW2 2210   0.267   2.157   1.140 -0.7122  0.0995 -0.1950
  553SOL    HW3 2211   0.182   2.032   1.131 -1.1942  0.3644  0.6743
  553SOL    MW4 2212   0.254   2.072   1.157 -0.7586  0.1185 -0.1376
  554SOL     OW 2213   0.241   2.331   1.057 -0.2577 -0.6283  0.0521
  554SOL    HW2 2214   0.324   2.360   1.095 -0.5179  0.7972 -0.4056
  554SOL    HW3 2215   0.174   2.376   1.108 -0.7209 -1.3119  0.0453
  554SOL    MW4 2216   0.243   2.341   1.069 -0.3531 -0.5304 -0.0092
  555SOL     OW 2217   0.054   2.437   1.227 -0.1745  0.2741 -0.1458
  555SOL    HW2 2218   0.061   2.433   1.323 -0.6404 -1.7428 -0.1680
  555SOL    HW3 2219  -0.027   2.392   1.207  0.1944  0.1999 -1.5356
  555SOL    MW4 2220   0.045   2.430   1.237 -0.1873 -0.0018 -0.3321
  556SOL     OW 2221   0.024   2.675   1.100  0.5254  0.2486  0.2312
  556SOL    HW2 2222  -0.056   2.719   1.130  1.5730  1.7230  0.9062
  556SOL    HW3 2223   0.037   2.604   1.163 -0.2005  0.0539  0.1678
  556SOL    MW4 2224   0.015   2.671   1.113  0.5678  0.4174  0.3119
  557SOL     OW 2225   0.215   2.854   1.204 -0.0330  0.3727 -0.2283
  557SOL    HW2 2226   0.224   2.852   1.299  0.2442  1.5697 -0.2215
  557SOL    HW3 2227   0.146   2.790   1.184  2.3198 -2.5248  0.4805
  557SOL    MW4 2228   0.207   2.845   1.214  0.3140  0.1483 -0.1339
  558SOL     OW 2229   0.235   3.096   1.072 -0.0006 -0.4960  0.1912
  558SOL    HW2 2230   0.314   3.141   1.102  0.5870 -0.4652 -1.3623
  558SOL    HW3 2231   0.242   3.008   1.108  1.5129 -0.9666 -1.1917
  558SOL    MW4 2232   0.246   3.090   1.081  0.2766 -0.5540 -0.1962
  559SOL     OW 2233   0.023   3.219   1.201 -0.3116 -0.2247  0.0864
  559SOL    HW2 2234  -0.057   3.170   1.183  0.0501 -1.0998  0.8482
  559SOL    HW3 2235   0.093   3.168   1.161 -0.0453  0.1840  0.0212
  559SOL    MW4 2236   0.021   3.206   1.193 -0.2288 -0.2862  0.1783
  560SOL     OW 2237   0.038   3.478   1.111 -0.1738  0.2656  0.2518
  560SOL    HW2 2238   0.044   3.385   1.135 -2.0087  0.2337  0.6034
  560SOL    HW3 2239   0.033   3.478   1.016  1.8598  0.1343  0.1077
  560SOL    MW4 2240   0.038   3.466   1.102 -0.1476  0.2441  0.2791
  561SOL     OW 2241   0.245   3.622   1.210  0.1060 -0.2213 -0.0533
  561SOL    HW2 2242   0.248   3.609   1.305 -1.1296  0.8621  0.1458
  561SOL    HW3 2243   0.158   3.589   1.184  0.7603 -1.3034 -0.9426
  561SOL    MW4 2244   0.234   3.616   1.219  0.0293 -0.2211 -0.1444
  562SOL     OW 2245   0.247   3.867   1.077 -0.2078  0.4364  0.2534
  562SOL    HW2 2246   0.198   3.935   1.123 -3.3063 -1.0454 -0.7252
  562SOL    HW3 2247   0.238   3.789   1.132 -1.7486 -0.6777 -1.5240
  562SOL    MW4 2248   0.239   3.865   1.090 -0.8199  0.0939 -0.1102
  563SOL     OW 2249   0.069   4.025   1.232  0.5502 -0.0179 -0.2525
  563SOL    HW2 2250   0.070   4.026   1.327  2.9357 -1.4183 -0.2237
  563SOL    HW3 2251  -0.005   3.969   1.209  0.5558 -0.4620  0.7942
  563SOL    MW4 2252   0.059   4.018   1.241  0.8657 -0.2612 -0.1106
  564SOL     OW 2253   4.485   4.290   1.119  0.3578  0.8698  0.3673
  564SOL    HW2 2254   4.570   4.335   1.119  0.3199  0.9650  1.1598
  564SOL    HW3 2255   4.502   4.209   1.168  0.5913 -0.3187 -1.6465
  564SOL    MW4 2256   4.499   4.286   1.126  0.3836  0.7255  0.2062
  565SOL     OW 2257   0.245   4.412   1.175  0.4230 -0.3702 -0.1615
  565SOL    HW2 2258   0.232   4.405   1.269 -0.2237 -1.4452 -0.3262
  565SOL    HW3 2259   0.236   4.505   1.156  1.6008 -0.0177  0.9857
  565SOL    MW4 2260   0.242   4.423   1.185  0.4930 -0.4655 -0.0319
  566SOL     OW 2261   0.691   4.629   1.115 -0.2108 -0.0458  0.4530
  566SOL    HW2 2262   0.776   4.669   1.134 -0.1392 -0.0918  0.2312
  566SOL    HW3 2263   0.701   4.538   1.144 -0.0055 -0.1926 -0.0563
  566SOL    MW4 2264   0.703   4.622   1.121 -0.1743 -0.0712  0.3565
  567SOL     OW 2265   0.471   0.078   1.220  0.2899 -0.3522 -0.1772
  567SOL    HW2 2266   0.463   0.166   1.184  0.3758 -0.1200  0.3675
  567SOL    HW3 2267   0.556   0.047   1.188  0.6504  0.0915  0.3427
  567SOL    MW4 2268   0.481   0.086   1.211  0.3488 -0.2630 -0.0367
  568SOL     OW 2269   0.491   0.338   1.080 -0.1046 -0.5531 -0.2337
  568SOL    HW2 2270   0.418   0.393   1.108  0.4362 -0.4745  1.0811
  568SOL    HW3 2271   0.498   0.352   0.986 -0.6076  0.8482 -0.0671
  568SOL    MW4 2272   0.482   0.347   1.072 -0.0996 -0.3579 -0.0383
  569SOL     OW 2273   0.708   0.462   1.218 -0.5894 -0.2369  0.3633
  569SOL    HW2 2274   0.700   0.554   1.192  0.2477 -0.9470 -2.7320
  569SOL    HW3 2275   0.630   0.420   1.182 -0.1631 -1.0001  0.3114
  569SOL    MW4 2276   0.697   0.469   1.210 -0.4227 -0.4313 -0.0519
  570SOL     OW 2277   0.684   0.746   1.128  0.0088 -0.3528 -0.1028
  570SOL    HW2 2278   0.603   0.796   1.145 -0.5150 -0.7739 -1.3040
  570SOL    HW3 2279   0.693   0.746   1.033  1.0423 -0.9308 -0.0147
  570SOL    MW4 2280   0.674   0.753   1.118  0.0760 -0.4846 -0.2496
  571SOL     OW 2281   0.445   0.895   1.153 -0.1802  0.1007 -0.1342
  571SOL    HW2 2282   0.455   0.903   1.248  2.0447 -0.0516 -0.3377
  571SOL    HW3 2283   0.453   0.984   1.120  1.4709 -0.1262 -0.3779
  571SOL    MW4 2284   0.447   0.908   1.161  0.3312  0.0507 -0.1932
  572SOL     OW 2285   0.452   1.178   1.107 -0.0390 -0.1060  0.0709
  572SOL    HW2 2286   0.519   1.243   1.128 -0.8404  1.1116 -1.0559
  572SOL    HW3 2287   0.447   1.179   1.011 -1.1918 -0.6693  0.1204
  572SOL    MW4 2288   0.460   1.187   1.097 -0.2968 -0.0197 -0.0712
  573SOL     OW 2289   0.674   1.314   1.178  0.2696 -0.0797 -0.2640
  573SOL    HW2 2290   0.756   1.268   1.160  1.3460  1.4983  0.4627
  573SOL    HW3 2291   0.686   1.402   1.141  0.4336  1.4378  3.1901
  573SOL    MW4 2292   0.686   1.320   1.171  0.4332  0.3287  0.2876
  574SOL     OW 2293   0.682   1.562   1.043  0.3132 -0.0770 -0.8524
  574SOL    HW2 2294   0.747   1.623   1.076  1.9882 -1.8296 -0.8132
  574SOL    HW3 2295   0.598   1.599   1.069  1.3722  1.2803  0.6905
  574SOL    MW4 2296   0.679   1.575   1.051  0.6739 -0.1291 -0.6437
  575SOL     OW 2297   0.446   1.665   1.151  0.3591 -0.2846 -0.0243
  575SOL    HW2 2298   0.444   1.664   1.247  0.0186  0.0148 -0.0251
  575SOL    HW3 2299   0.372   1.609   1.125  0.4115 -0.3130 -0.1098
  575SOL    MW4 2300   0.436   1.658   1.160  0.3211 -0.2489 -0.0356
  576SOL     OW 2301   0.473   1.929   1.064  0.1996 -0.1792 -0.4430
  576SOL    HW2 2302   0.474   1.837   1.092 -1.1027  0.3048  1.2031
  576SOL    HW3 2303   0.393   1.965   1.102  0.0361  1.3229 -2.1512
  576SOL    MW4 2304   0.462   1.921   1.072  0.0062  0.0829 -0.4512
  577SOL     OW 2305   0.671   2.345   1.041 -0.5824  0.1566  0.1524
  577SOL    HW2 2306   0.613   2.390   1.102 -1.8668 -0.8276 -0.3092
  577SOL    HW3 2307   0.666   2.253   1.066 -1.3573 -0.3004 -1.6010
  577SOL    MW4 2308   0.663   2.339   1.052 -0.8541 -0.0335 -0.1398
  578SOL     OW 2309   1.921   3.322   0.465  0.4975 -0.2148  0.0706
  578SOL    HW2 2310   1.897   3.286   0.550  0.6684 -0.7265 -0.0962
  578SOL    HW3 2311   1.957   3.248   0.416 -0.6572 -0.1861 -0.8565
  578SOL    MW4 2312   1.922   3.308   0.470  0.3677 -0.2785 -0.0737
  579SOL     OW 2313   0.479   2.450   1.192 -0.3178  0.0135 -0.3991
  579SOL    HW2 2314   0.485   2.460   1.287 -0.0714 -1.4820 -0.2441
  579SOL    HW3 2315   0.470   2.540   1.158  0.3375  0.6060  0.9795
  579SOL    MW4 2316   0.479   2.463   1.200 -0.1989 -0.1056 -0.1968
  580SOL     OW 2317   0.420   2.703   1.081 -0.3662  0.2897 -0.7584
  580SOL    HW2 2318   0.350   2.766   1.095 -0.2262  0.5661 -1.2882
  580SOL    HW3 2319   0.436   2.705   0.987  0.4033  0.2861 -0.6348
  580SOL    MW4 2320   0.413   2.711   1.070 -0.2462  0.3257 -0.8120
  581SOL     OW 2321   0.650   2.824   1.212 -0.7403 -0.2383 -0.1068
  581SOL    HW2 2322   0.649   2.913   1.177 -0.5929 -0.9409 -1.9303
  581SOL    HW3 2323   0.575   2.781   1.172 -0.4093 -1.1506  0.2291
  581SOL    MW4 2324   0.640   2.830   1.202 -0.6772 -0.4513 -0.3031
  582SOL     OW 2325   0.705   3.079   1.100 -0.1899  0.3019 -0.6506
  582SOL    HW2 2326   0.790   3.116   1.125  0.2063 -0.4515 -0.8861
  582SOL    HW3 2327   0.712   3.068   1.005 -0.1781 -0.7040 -0.5372
  582SOL    MW4 2328   0.717   3.083   1.091 -0.1361  0.0698 -0.6667
  583SOL     OW 2329   0.472   3.216   1.155  0.1301 -0.0437  0.3954
  583SOL    HW2 2330   0.470   3.300   1.109 -0.3463 -0.4753 -0.3794
  583SOL    HW3 2331   0.545   3.169   1.114  0.7176  0.1776  1.1710
  583SOL    MW4 2332   0.481   3.221   1.144  0.1447 -0.0715  0.3955
  584SOL     OW 2333   0.436   3.497   1.070 -0.1989  0.3247 -0.6412
  584SOL    HW2 2334   0.517   3.532   1.106 -0.1358 -0.1979 -0.2650
  584SOL    HW3 2335   0.367   3.534   1.126 -0.1264 -0.2078 -0.1935
  584SOL    MW4 2336   0.438   3.506   1.082 -0.1810  0.1855 -0.5325
  585SOL     OW 2337   0.674   3.609   1.164  0.0872  0.3821  0.1463
  585SOL    HW2 2338   0.676   3.611   1.259 -1.8784  1.4017  0.1896
  585SOL    HW3 2339   0.689   3.700   1.137 -0.5136  0.3085 -0.4706
  585SOL    MW4 2340   0.676   3.621   1.173 -0.2514  0.5069  0.0707
  586SOL     OW 2341   0.691   3.863   1.078  0.1182 -0.1617  0.5132
  586SOL    HW2 2342   0.622   3.916   1.117 -1.0876 -1.7682  0.6053
  586SOL    HW3 2343   0.662   3.848   0.988  1.0892  0.4094  0.0911
  586SOL    MW4 2344   0.678   3.868   1.071  0.0872 -0.2983  0.4696
  587SOL     OW 2345   0.475   3.995   1.191  0.6544  0.0987 -0.1803
  587SOL    HW2 2346   0.452   4.082   1.159 -1.9128  0.0435  1.3678
  587SOL    HW3 2347   0.414   3.936   1.147  1.4138 -0.7405 -0.1212
  587SOL    MW4 2348   0.464   3.999   1.181  0.4159 -0.0193  0.0317
  588SOL     OW 2349   0.455   4.259   1.078 -0.1873  0.2582  0.1246
  588SOL    HW2 2350   0.533   4.291   1.123 -1.5942  0.8683  2.1994
  588SOL    HW3 2351   0.384   4.313   1.112 -1.5459 -0.3594 -1.6556
  588SOL    MW4 2352   0.456   4.270   1.089 -0.5522  0.2572  0.1634
  589SOL     OW 2353   0.691   4.355   1.177  0.0868  0.2758 -0.1346
  589SOL    HW2 2354   0.688   4.357   1.272  1.7322 -0.7041 -0.0349
  589SOL    HW3 2355   0.759   4.291   1.157 -0.1065  0.6175 -1.9670
  589SOL    MW4 2356   0.700   4.347   1.187  0.2784  0.1916 -0.3632
  590SOL     OW 2357   1.136   4.590   1.096 -0.0343  0.0791 -0.0812
  590SOL    HW2 2358   1.138   4.501   1.132 -1.2195 -0.1705 -0.6357
  590SOL    HW3 2359   1.148   4.578   1.002  1.5435  0.6346  0.0344
  590SOL    MW4 2360   1.138   4.577   1.088  0.0175  0.1194 -0.1391
  591SOL     OW 2361   0.939   0.095   1.193 -0.1981 -0.0031  0.2373
  591SOL    HW2 2362   0.939   0.086   1.289  0.8635  2.2549  0.4960
  591SOL    HW3 2363   0.997   0.025   1.163 -0.3090 -0.5501  1.2654
  591SOL    MW4 2364   0.947   0.085   1.202 -0.0727  0.2226  0.4071
  592SOL     OW 2365   0.886   0.326   1.059 -0.3550 -0.1482  0.1359
  592SOL    HW2 2366   0.898   0.252   1.118 -0.0810 -0.3690 -0.1969
  592SOL    HW3 2367   0.812   0.375   1.096 -1.3513 -1.2626 -0.3403
  592SOL    MW4 2368   0.878   0.323   1.072 -0.4503 -0.3244  0.0291
  593SOL     OW 2369   1.101   0.488   1.185 -0.6883  0.0779  0.4054
  593SOL    HW2 2370   1.103   0.479   1.280  0.6486 -1.1599  0.2854
  593SOL    HW3 2371   1.020   0.446   1.159 -0.5026 -0.6139  0.9211
  593SOL    MW4 2372   1.091   0.481   1.194 -0.4874 -0.1767  0.4576
  594SOL     OW 2373   1.112   0.739   1.068  0.0544 -0.2562 -0.0294
  594SOL    HW2 2374   1.043   0.789   1.111 -0.6568 -0.2764 -1.1312
  594SOL    HW3 2375   1.110   0.654   1.111 -0.6284 -0.2655 -0.0674
  594SOL    MW4 2376   1.103   0.734   1.079 -0.1296 -0.2601 -0.1798
  595SOL     OW 2377   0.917   0.897   1.198 -0.1181  0.1061 -0.2558
  595SOL    HW2 2378   0.915   0.989   1.172  1.8612 -0.0860 -1.1707
  595SOL    HW3 2379   0.831   0.863   1.172  0.0835  1.0735 -2.3131
  595SOL    MW4 2380   0.905   0.905   1.191  0.1696  0.2084 -0.6480
  596SOL     OW 2381   0.910   1.170   1.120  0.0053 -0.2744  0.6975
  596SOL    HW2 2382   0.994   1.214   1.133  1.6688 -3.1626  0.2288
  596SOL    HW3 2383   0.897   1.169   1.025 -0.2041 -0.4578  0.7266
  596SOL    MW4 2384   0.920   1.176   1.109  0.1971 -0.6797  0.6395
  597SOL     OW 2385   1.151   1.305   1.170  0.7656 -0.0025  0.0295
  597SOL    HW2 2386   1.166   1.307   1.265  1.4364 -1.4373 -0.0384
  597SOL    HW3 2387   1.232   1.269   1.134 -0.8458 -2.9675 -0.7873
  597SOL    MW4 2388   1.164   1.301   1.178  0.6415 -0.5830 -0.0873
  598SOL     OW 2389   1.089   1.571   1.069  0.0700 -0.2268  0.1410
  598SOL    HW2 2390   1.100   1.486   1.112  0.6457 -0.6061 -0.7618
  598SOL    HW3 2391   1.106   1.555   0.977  0.9469  1.0257  0.0674
  598SOL    MW4 2392   1.093   1.558   1.063  0.2617 -0.1116  0.0122
  599SOL     OW 2393   0.869   1.713   1.166  0.3466  0.2359  0.1966
  599SOL    HW2 2394   0.874   1.801   1.127  1.0278  0.6346  1.1578
  599SOL    HW3 2395   0.954   1.674   1.146  0.2841  0.0370  0.3289
  599SOL    MW4 2396   0.881   1.720   1.158  0.4283  0.2623  0.3409
  600SOL     OW 2397   0.690   2.083   1.185  0.1612  0.0998  0.0355
  600SOL    HW2 2398   0.680   2.090   1.280 -1.2122  2.1564 -0.2305
  600SOL    HW3 2399   0.612   2.033   1.158  0.8915 -1.0629  0.0407
  600SOL    MW4 2400   0.678   2.077   1.194  0.0763  0.2177  0.0011
  601SOL     OW 2401   1.132   2.056   1.179  0.1220 -0.0608 -0.0057
  601SOL    HW2 2402   1.159   2.061   1.271 -0.0512 -1.4476  0.1338
  601SOL    HW3 2403   1.117   2.147   1.153  0.5530  0.3698  1.2212
  601SOL    MW4 2404   1.134   2.069   1.188  0.1560 -0.1870  0.1746
  602SOL     OW 2405   1.126   2.307   1.076  0.1245 -0.1670 -0.4179
  602SOL    HW2 2406   1.214   2.335   1.102  0.7615 -1.2560 -1.3774
  602SOL    HW3 2407   1.067   2.368   1.122  1.3686  0.5767  0.2181
  602SOL    MW4 2408   1.129   2.319   1.086  0.3727 -0.2125 -0.4606
  603SOL     OW 2409   0.905   2.464   1.178  0.1052 -0.1526  0.0544
  603SOL    HW2 2410   0.878   2.450   1.269  1.2508  0.1096  0.4530
  603SOL    HW3 2411   0.840   2.418   1.126 -0.5428 -0.3423  1.0131
  603SOL    MW4 2412   0.893   2.456   1.183  0.1709 -0.1430  0.2335
  604SOL     OW 2413   0.887   2.723   1.097 -0.0214 -0.5601 -0.0022
  604SOL    HW2 2414   0.893   2.637   1.138 -1.2780 -1.5355 -1.8065
  604SOL    HW3 2415   0.800   2.754   1.120  0.8310  0.7461  1.5752
  604SOL    MW4 2416   0.876   2.716   1.106 -0.0747 -0.5165 -0.0321
  605SOL     OW 2417   1.143   2.841   1.157  0.0129 -0.5629 -0.1793
  605SOL    HW2 2418   1.143   2.830   1.252 -1.1622  0.0206 -0.0973
  605SOL    HW3 2419   1.056   2.812   1.130 -0.1553  0.5805 -0.9147
  605SOL    MW4 2420   1.131   2.836   1.166 -0.1643 -0.3351 -0.2655
  606SOL     OW 2421   1.156   3.099   1.070 -0.5953 -0.0817 -0.1312
  606SOL    HW2 2422   1.154   3.007   1.098 -1.8529 -0.0451 -0.0989
  606SOL    HW3 2423   1.172   3.096   0.976 -1.5490 -0.3546 -0.2801
  606SOL    MW4 2424   1.158   3.087   1.061 -0.8870 -0.1129 -0.1466
  607SOL     OW 2425   0.927   3.244   1.181 -0.1955 -0.0870 -0.6474
  607SOL    HW2 2426   0.927   3.329   1.138 -1.0789 -0.1862 -0.8619
  607SOL    HW3 2427   1.009   3.203   1.154  1.1272  1.4229  0.9560
  607SOL    MW4 2428   0.938   3.250   1.172 -0.1376  0.0991 -0.4642
  608SOL     OW 2429   0.928   3.480   1.049  0.1023  0.2137 -0.0267
  608SOL    HW2 2430   0.855   3.531   1.084  0.7217  1.5097 -0.5933
  608SOL    HW3 2431   0.898   3.451   0.963  0.2324  0.7029 -0.2386
  608SOL    MW4 2432   0.914   3.483   1.042  0.2012  0.4492 -0.1294
  609SOL     OW 2433   1.153   3.601   1.180 -0.0677 -0.2246 -0.2085
  609SOL    HW2 2434   1.228   3.562   1.135 -0.5627  0.5513 -1.7727
  609SOL    HW3 2435   1.078   3.548   1.152 -0.4985  0.7680 -1.0050
  609SOL    MW4 2436   1.153   3.589   1.170 -0.1898  0.0087 -0.5200
  610SOL     OW 2437   1.160   3.841   1.023  0.6646 -0.1452  0.0863
  610SOL    HW2 2438   1.094   3.877   1.082  1.0076  0.5459  0.0613
  610SOL    HW3 2439   1.158   3.747   1.039  1.1456  0.0823  1.6098
  610SOL    MW4 2440   1.151   3.834   1.033  0.7733 -0.0240  0.2840
  611SOL     OW 2441   0.945   3.928   1.177  0.1165  0.8039 -0.2337
  611SOL    HW2 2442   0.925   3.922   1.270  0.3350  0.2679 -0.2175
  611SOL    HW3 2443   0.860   3.917   1.133  0.1027  0.4507 -0.1151
  611SOL    MW4 2444   0.931   3.926   1.183  0.1435  0.6865 -0.2159
  612SOL     OW 2445   0.936   4.194   1.112  0.3434 -0.2409 -0.0169
  612SOL    HW2 2446   0.928   4.106   1.149 -1.8157 -0.0758 -0.0350
  612SOL    HW3 2447   0.932   4.181   1.017  2.0594 -0.2950 -0.1003
  612SOL    MW4 2448   0.934   4.181   1.104  0.2849 -0.2263 -0.0303
  613SOL     OW 2449   1.162   4.347   1.201 -0.1125  0.2231 -0.2585
  613SOL    HW2 2450   1.143   4.342   1.294 -1.3816  2.1114 -0.4023
  613SOL    HW3 2451   1.106   4.280   1.161 -0.7661  0.5189  0.1591
  613SOL    MW4 2452   1.152   4.337   1.208 -0.3662  0.5113 -0.2224
  614SOL     OW 2453   1.577   4.623   1.052  0.1004 -0.1604  0.1975
  614SOL    HW2 2454   1.631   4.677   1.110 -0.8715  0.0096  0.9756
  614SOL    HW3 2455   1.565   4.541   1.100  1.1720 -0.8974 -0.7719
  614SOL    MW4 2456   1.582   4.619   1.066  0.1136 -0.2352  0.1722
  615SOL     OW 2457   1.342   0.087   1.177  0.3707 -0.5207 -0.1870
  615SOL    HW2 2458   1.423   0.062   1.131  0.3086 -0.3510 -0.3894
  615SOL    HW3 2459   1.273   0.037   1.132  0.2031  0.2600 -0.8015
  615SOL    MW4 2460   1.344   0.077   1.165  0.3404 -0.3953 -0.2948
  616SOL     OW 2461   1.329   0.358   1.087  0.3253  0.0308  0.0615
  616SOL    HW2 2462   1.341   0.276   1.133 -1.1243 -0.7059 -0.8395
  616SOL    HW3 2463   1.260   0.404   1.135  0.3931  0.2526 -0.0475
  616SOL    MW4 2464   1.321   0.353   1.099  0.1429 -0.0371 -0.0718
  617SOL     OW 2465   1.529   0.508   1.183 -0.3682 -0.2027  0.1536
  617SOL    HW2 2466   1.545   0.591   1.137  0.2929 -0.4467 -0.0633
  617SOL    HW3 2467   1.465   0.462   1.129 -1.3487  0.5082  0.6928
  617SOL    MW4 2468   1.523   0.513   1.170 -0.4103 -0.1411  0.1961
  618SOL     OW 2469   1.556   0.759   1.051  0.1751 -0.1440 -0.2691
  618SOL    HW2 2470   1.624   0.809   1.097  0.2896  0.3555 -0.9698
  618SOL    HW3 2471   1.586   0.757   0.960 -0.1990 -0.8738 -0.3765
  618SOL    MW4 2472   1.569   0.765   1.045  0.1409 -0.1744 -0.3757
  619SOL     OW 2473   1.335   0.902   1.173  0.0631 -0.3370 -0.0527
  619SOL    HW2 2474   1.416   0.875   1.130  1.0395  2.2850  0.0104
  619SOL    HW3 2475   1.266   0.850   1.131  1.7673 -2.5717 -0.1257
  619SOL    MW4 2476   1.336   0.892   1.162  0.4168 -0.2859 -0.0540
  620SOL     OW 2477   1.363   1.161   1.081 -0.1691  0.1520 -0.4377
  620SOL    HW2 2478   1.341   1.073   1.112 -1.0761  0.1731 -1.0167
  620SOL    HW3 2479   1.363   1.154   0.986  1.1335  0.4549 -0.4721
  620SOL    MW4 2480   1.360   1.149   1.073 -0.1169  0.1948 -0.5186
  621SOL     OW 2481   1.596   1.244   1.235  0.0027 -0.3009  0.3246
  621SOL    HW2 2482   1.676   1.222   1.188 -0.4843 -0.3958 -0.4787
  621SOL    HW3 2483   1.525   1.212   1.178 -0.6294  0.7753  0.4825
  621SOL    MW4 2484   1.597   1.237   1.221 -0.1449 -0.1715  0.2394
  622SOL     OW 2485   1.573   1.508   1.162 -0.1550  0.3979 -0.0045
  622SOL    HW2 2486   1.655   1.557   1.160 -0.1183  0.3313 -0.1860
  622SOL    HW3 2487   1.599   1.419   1.187 -0.1436  0.3235 -0.2790
  622SOL    MW4 2488   1.587   1.502   1.165 -0.1486  0.3793 -0.0647
  623SOL     OW 2489   1.342   1.654   1.205  0.3171  0.0314  0.2983
  623SOL    HW2 2490   1.417   1.600   1.179  0.6469  1.2072 -1.2706
  623SOL    HW3 2491   1.270   1.621   1.151  0.1338  0.1110  0.4948
  623SOL    MW4 2492   1.342   1.642   1.194  0.3365  0.1970  0.1172
  624SOL     OW 2493   1.367   1.913   1.092 -0.0763  0.0897 -0.3005
  624SOL    HW2 2494   1.369   1.822   1.121 -1.1581 -0.2768 -1.3504
  624SOL    HW3 2495   1.280   1.944   1.114  0.7996  1.3563  1.4608
  624SOL    MW4 2496   1.356   1.905   1.099 -0.1034  0.2085 -0.2066
  625SOL     OW 2497   1.575   2.032   1.242 -0.3584  0.3691  0.0779
  625SOL    HW2 2498   1.600   2.108   1.190 -0.1086  0.2446  0.0195
  625SOL    HW3 2499   1.507   1.989   1.191  0.5427 -0.2744 -0.5776
  625SOL    MW4 2500   1.569   2.037   1.229 -0.2066  0.2677 -0.0163
  626SOL     OW 2501   1.583   2.267   1.078  0.0647  0.2165 -0.1845
  626SOL    HW2 2502   1.512   2.327   1.101  1.3225  1.7179 -0.1526
  626SOL    HW3 2503   1.595   2.278   0.984 -0.4382 -0.8223 -0.3795
  626SOL    MW4 2504   1.575   2.276   1.069  0.1643  0.2775 -0.2060
  627SOL     OW 2505   1.368   2.426   1.184  0.2584  0.3266  0.2953
  627SOL    HW2 2506   1.346   2.436   1.276  0.6542  0.4080  0.3807
  627SOL    HW3 2507   1.355   2.513   1.146 -1.4361 -0.0704 -0.0518
  627SOL    MW4 2508   1.363   2.439   1.191  0.0870  0.2849  0.2608
  628SOL     OW 2509   1.356   2.685   1.072  0.2320 -0.7473 -0.0019
  628SOL    HW2 2510   1.429   2.733   1.112  0.3131 -0.3069 -0.6804
  628SOL    HW3 2511   1.278   2.735   1.097  0.4815  0.9429 -2.4311
  628SOL    MW4 2512   1.355   2.698   1.081  0.2756 -0.4662 -0.4119
  629SOL     OW 2513   1.587   2.817   1.168  0.7929  0.0933  0.0793
  629SOL    HW2 2514   1.671   2.775   1.148  0.4330 -0.1790 -0.9091
  629SOL    HW3 2515   1.590   2.901   1.121 -0.4356 -0.9515 -1.9679
  629SOL    MW4 2516   1.598   2.822   1.159  0.5833 -0.0805 -0.3212
  630SOL     OW 2517   1.613   3.059   1.051  0.5650 -0.2444  0.3041
  630SOL    HW2 2518   1.688   3.107   1.086  1.0100  0.6218 -1.7758
  630SOL    HW3 2519   1.539   3.119   1.064  0.1714 -1.1502  2.4724
  630SOL    MW4 2520   1.613   3.074   1.058  0.5718 -0.2496  0.3158
  631SOL     OW 2521   1.371   3.211   1.181  0.5754  0.0954  0.1146
  631SOL    HW2 2522   1.351   3.212   1.275 -0.5333  2.2786 -0.0988
  631SOL    HW3 2523   1.296   3.166   1.142 -0.5228  1.9223  0.0197
  631SOL    MW4 2524   1.358   3.205   1.189  0.2842  0.6245  0.0739
  632SOL     OW 2525   1.384   3.470   1.081 -0.1645 -0.1818 -0.2589
  632SOL    HW2 2526   1.368   3.381   1.113 -0.4773  0.3987  1.2397
  632SOL    HW3 2527   1.376   3.463   0.985 -0.3244 -1.7288 -0.1415
  632SOL    MW4 2528   1.381   3.458   1.072 -0.2269 -0.3093 -0.0457
  633SOL     OW 2529   1.596   3.599   1.203  0.0219 -0.1951  0.6503
  633SOL    HW2 2530   1.601   3.683   1.158  0.6450 -0.8454 -0.5163
  633SOL    HW3 2531   1.517   3.558   1.168  0.9880 -1.0815 -0.5511
  633SOL    MW4 2532   1.586   3.605   1.193  0.2316 -0.3979  0.3379
  634SOL     OW 2533   1.806   4.013   1.159  0.0982 -0.2098 -0.0999
  634SOL    HW2 2534   1.786   4.023   1.252  2.0201 -0.1627  0.3303
  634SOL    HW3 2535   1.731   3.966   1.123 -0.0524 -1.4291  1.7355
  634SOL    MW4 2536   1.793   4.008   1.166  0.3319 -0.3645  0.1990
  635SOL     OW 2537   1.359   3.935   1.207  0.3448  0.1882  0.0905
  635SOL    HW2 2538   1.358   4.030   1.190 -0.6880  0.4309  1.4201
  635SOL    HW3 2539   1.294   3.899   1.146  2.0666  0.0770 -1.7273
  635SOL    MW4 2540   1.350   3.943   1.197  0.4357  0.2055  0.0261
  636SOL     OW 2541   1.415   4.203   1.153  0.0048  0.0645 -0.1792
  636SOL    HW2 2542   1.346   4.257   1.192  1.1129  1.4256 -0.0212
  636SOL    HW3 2543   1.390   4.194   1.062 -1.0325 -0.5187  0.1624
  636SOL    MW4 2544   1.403   4.209   1.146  0.0142  0.1671 -0.1133
  637SOL     OW 2545   1.610   4.386   1.218  0.0277 -0.2446  0.1260
  637SOL    HW2 2546   1.625   4.370   1.311  3.1745 -0.9586 -0.4672
  637SOL    HW3 2547   1.537   4.328   1.195 -1.6556  0.9064  2.4056
  637SOL    MW4 2548   1.602   4.376   1.227  0.2208 -0.1870  0.3485
  638SOL     OW 2549   1.980   4.643   1.101 -0.2194 -0.1488  0.0020
  638SOL    HW2 2550   1.995   4.553   1.128  0.7975  0.4419  1.5026
  638SOL    HW3 2551   1.999   4.644   1.007  3.3255 -0.7692  0.6463
  638SOL    MW4 2552   1.985   4.632   1.092  0.3825 -0.1527  0.2850
  639SOL     OW 2553   1.763   0.107   1.189  0.5226  0.3108 -0.1202
  639SOL    HW2 2554   1.760   0.195   1.153  0.4196  0.4533  0.2328
  639SOL    HW3 2555   1.847   0.072   1.158  0.5850  0.5474 -0.2242
  639SOL    MW4 2556   1.774   0.114   1.180  0.5172  0.3608 -0.0874
  640SOL     OW 2557   1.755   0.361   1.099  0.1039  0.1226 -0.4220
  640SOL    HW2 2558   1.679   0.409   1.134  0.8950  1.4211 -0.4421
  640SOL    HW3 2559   1.748   0.373   1.004  1.0099  1.3152 -0.3514
  640SOL    MW4 2560   1.744   0.369   1.091  0.3278  0.4513 -0.4153
  641SOL     OW 2561   2.001   0.468   1.138  0.0970 -0.0252  0.4931
  641SOL    HW2 2562   1.992   0.468   1.234 -0.2596  0.8429  0.4674
  641SOL    HW3 2563   1.913   0.448   1.106 -0.0076  0.6827  0.3357
  641SOL    MW4 2564   1.989   0.465   1.147  0.0362  0.1828  0.4689
  642SOL     OW 2565   2.030   0.743   1.102  0.2871  0.0823 -0.0669
  642SOL    HW2 2566   2.036   0.758   1.007  0.7275 -0.0969 -0.0725
  642SOL    HW3 2567   2.020   0.648   1.110 -1.3339  0.2496  0.0095
  642SOL    MW4 2568   2.030   0.732   1.090  0.1314  0.0807 -0.0576
  643SOL     OW 2569   1.788   0.893   1.182  0.2187  0.1814  0.2721
  643SOL    HW2 2570   1.786   0.865   1.274  1.5654  2.1381  0.9299
  643SOL    HW3 2571   1.862   0.845   1.144 -1.7103 -2.3374 -0.4021
  643SOL    MW4 2572   1.798   0.883   1.189  0.1418  0.1073  0.2699
  644SOL     OW 2573   1.820   1.151   1.098 -0.5300  0.4866 -0.6443
  644SOL    HW2 2574   1.806   1.065   1.138 -0.9120  1.1404  0.6393
  644SOL    HW3 2575   1.816   1.134   1.004 -0.5982 -0.9023 -0.3982
  644SOL    MW4 2576   1.817   1.137   1.091 -0.5894  0.3896 -0.4425
  645SOL     OW 2577   2.048   1.282   1.154 -0.0941 -0.0483 -0.0833
  645SOL    HW2 2578   2.118   1.233   1.111 -0.0561 -0.5110  0.5045
  645SOL    HW3 2579   1.967   1.244   1.119 -0.0611 -0.2468  0.0553
  645SOL    MW4 2580   2.047   1.271   1.144 -0.0848 -0.1355  0.0126
  646SOL     OW 2581   2.015   1.542   1.122 -0.7906 -0.7347 -0.3198
  646SOL    HW2 2582   2.034   1.449   1.132  3.0218  0.0636  0.4706
  646SOL    HW3 2583   2.022   1.559   1.028  0.6204 -0.8452 -0.2426
  646SOL    MW4 2584   2.018   1.532   1.111 -0.1015 -0.6440 -0.2053
  647SOL     OW 2585   1.786   1.673   1.219  0.2783  0.6534  0.0505
  647SOL    HW2 2586   1.798   1.759   1.178  0.5027 -0.1679 -1.6598
  647SOL    HW3 2587   1.864   1.623   1.195 -1.1752 -0.9750 -1.4762
  647SOL    MW4 2588   1.798   1.678   1.211  0.1161  0.3302 -0.3766
  648SOL     OW 2589   1.804   1.931   1.119  0.4139 -0.2510  0.1206
  648SOL    HW2 2590   1.734   1.977   1.165 -0.1487 -1.4436  0.4728
  648SOL    HW3 2591   1.778   1.935   1.027  1.4042  1.8973 -0.0847
  648SOL    MW4 2592   1.791   1.937   1.113  0.4703 -0.1249  0.1399
  649SOL     OW 2593   2.033   2.042   1.247  0.2250 -0.0470  0.4211
  649SOL    HW2 2594   2.020   2.046   1.342 -2.6436  0.4559  0.0331
  649SOL    HW3 2595   1.951   2.009   1.212  1.1210  0.1276 -1.9431
  649SOL    MW4 2596   2.021   2.039   1.255 -0.0353  0.0424  0.0580
  650SOL     OW 2597   2.057   2.268   1.079  0.1771  0.5460  0.1063
  650SOL    HW2 2598   2.121   2.329   1.117 -0.9101  2.2660 -0.8045
  650SOL    HW3 2599   2.056   2.194   1.140  1.3953  1.4961  1.3084
  650SOL    MW4 2600   2.066   2.266   1.092  0.1944  0.8983  0.1447
  651SOL     OW 2601   1.814   2.414   1.148  0.1734 -0.0162 -0.2239
  651SOL    HW2 2602   1.876   2.360   1.099  0.1725  0.3490 -0.6280
  651SOL    HW3 2603   1.728   2.387   1.116  0.2068  0.8307 -1.0629
  651SOL    MW4 2604   1.811   2.403   1.137  0.1777  0.1437 -0.3879
  652SOL     OW 2605   1.827   2.696   1.118 -0.2953 -0.4098 -0.2833
  652SOL    HW2 2606   1.808   2.602   1.120  1.8536 -0.8688  0.2925
  652SOL    HW3 2607   1.846   2.715   1.026  1.1625 -0.9761 -0.1207
  652SOL    MW4 2608   1.827   2.686   1.106  0.1806 -0.5451 -0.1859
  653SOL     OW 2609   2.062   2.839   1.211 -0.2674  0.2339 -0.2588
  653SOL    HW2 2610   2.070   2.922   1.164 -0.5326  0.3160 -0.1627
  653SOL    HW3 2611   1.983   2.799   1.174  0.0965 -0.1676 -0.6015
  653SOL    MW4 2612   2.053   2.845   1.200 -0.2544  0.1917 -0.2914
  654SOL     OW 2613   2.080   3.082   1.075  0.2155 -0.3383  0.4964
  654SOL    HW2 2614   1.992   3.112   1.097  1.0803  1.8151  1.2487
  654SOL    HW3 2615   2.078   3.070   0.980 -0.9112 -0.4236  0.5199
  654SOL    MW4 2616   2.068   3.085   1.065  0.1809 -0.0654  0.5988
  655SOL     OW 2617   1.833   3.213   1.147  0.3696  0.4459  0.2316
  655SOL    HW2 2618   1.815   3.242   1.237  2.2730  0.2643  0.6857
  655SOL    HW3 2619   1.849   3.293   1.098 -0.3952  0.5269  0.1030
  655SOL    MW4 2620   1.833   3.227   1.152  0.5198  0.4326  0.2745
  656SOL     OW 2621   1.813   3.480   1.064 -0.3347 -0.3828 -0.0820
  656SOL    HW2 2622   1.883   3.526   1.110 -0.2491  0.1762 -0.7619
  656SOL    HW3 2623   1.734   3.501   1.113  0.0963 -1.7458  1.2144
  656SOL    MW4 2624   1.812   3.489   1.076 -0.2665 -0.4889 -0.0006
  657SOL     OW 2625   2.019   3.608   1.202 -0.2282  0.2792 -0.0965
  657SOL    HW2 2626   2.020   3.612   1.298 -0.9851  2.5804 -0.1375
  657SOL    HW3 2627   2.105   3.575   1.178  0.5161  1.1198  1.3461
  657SOL    MW4 2628   2.031   3.605   1.212 -0.2299  0.6938  0.0884
  658SOL     OW 2629   2.046   3.865   1.090 -0.2861  0.0695  0.3164
  658SOL    HW2 2630   1.969   3.916   1.116 -0.1321  0.4923 -0.0484
  658SOL    HW3 2631   2.031   3.778   1.127 -0.0307  0.6809  1.9287
  658SOL    MW4 2632   2.034   3.860   1.098 -0.2320  0.2059  0.4810
  659SOL     OW 2633   1.816   4.270   1.086 -0.3191  0.2389  0.1180
  659SOL    HW2 2634   1.744   4.322   1.120 -0.7053  0.6538 -1.3054
  659SOL    HW3 2635   1.797   4.180   1.115 -2.6534 -0.0720 -2.1959
  659SOL    MW4 2636   1.804   4.265   1.094 -0.6781  0.2526 -0.3751
  660SOL     OW 2637   1.274   4.079   0.650 -0.3022  0.0031  0.0830
  660SOL    HW2 2638   1.253   3.987   0.663 -0.2497  0.1844  1.4586
  660SOL    HW3 2639   1.312   4.083   0.562 -2.3749 -0.9396 -0.8912
  660SOL    MW4 2640   1.276   4.067   0.640 -0.5687 -0.0973  0.1360
  661SOL     OW 2641   2.036   4.398   1.192 -0.2752  0.3892 -0.1734
  661SOL    HW2 2642   2.015   4.405   1.285  0.9827  0.5755  0.1044
  661SOL    HW3 2643   1.967   4.343   1.156  0.4548 -1.5498  1.2979
  661SOL    MW4 2644   2.024   4.392   1.200 -0.0129  0.1579  0.0574
  662SOL     OW 2645   2.483   4.354   1.237  0.0380 -0.3403  0.1401
  662SOL    HW2 2646   2.475   4.427   1.176 -0.0003 -0.1805  0.3342
  662SOL    HW3 2647   2.405   4.300   1.220 -0.6785  0.4138  0.9704
  662SOL    MW4 2648   2.471   4.356   1.227 -0.0616 -0.2197  0.2752
  663SOL     OW 2649   2.230   0.055   1.203 -0.1746 -0.1061 -0.2208
  663SOL    HW2 2650   2.140   0.031   1.182 -0.3932  0.1581  0.3953
  663SOL    HW3 2651   2.236   0.148   1.181  0.1212 -0.2688 -0.8268
  663SOL    MW4 2652   2.219   0.064   1.198 -0.1644 -0.0927 -0.2194
  664SOL     OW 2653   2.513   0.540   0.753  0.2037  0.1312  1.0471
  664SOL    HW2 2654   2.506   0.542   0.657  0.2937  0.6331  1.0495
  664SOL    HW3 2655   2.582   0.477   0.771  0.1632  0.0102  0.7794
  664SOL    MW4 2656   2.521   0.532   0.743  0.2103  0.1815  1.0121
  665SOL     OW 2657   2.245   0.332   1.123 -0.6627  0.2529  0.5538
  665SOL    HW2 2658   2.160   0.369   1.144  0.3059  2.3745  0.9029
  665SOL    HW3 2659   2.264   0.363   1.034 -0.8268 -1.3137 -0.0476
  665SOL    MW4 2660   2.236   0.341   1.114 -0.5566  0.3262  0.5205
  666SOL     OW 2661   2.463   0.772   1.167  0.3972 -0.5214 -0.2803
  666SOL    HW2 2662   2.471   0.677   1.174 -1.3498 -0.7990 -1.5600
  666SOL    HW3 2663   2.469   0.790   1.073  0.1904  0.5781 -0.0935
  666SOL    MW4 2664   2.465   0.762   1.156  0.1394 -0.4130 -0.4245
  667SOL     OW 2665   2.226   0.916   1.200  0.8291 -0.1255  0.1813
  667SOL    HW2 2666   2.307   0.869   1.183  0.4484 -0.9128  0.5575
  667SOL    HW3 2667   2.157   0.859   1.167  0.1921 -0.9280  2.7407
  667SOL    MW4 2668   2.228   0.903   1.194  0.6948 -0.3353  0.5686
  668SOL     OW 2669   2.268   1.154   1.044 -0.5070  0.3220 -0.0733
  668SOL    HW2 2670   2.244   1.071   1.086  0.4672  0.2050  0.2642
  668SOL    HW3 2671   2.341   1.187   1.095 -0.4915  1.0925 -0.5792
  668SOL    MW4 2672   2.274   1.147   1.056 -0.3764  0.4083 -0.0955
  669SOL     OW 2673   2.493   1.255   1.191  0.9080  0.4127  0.2644
  669SOL    HW2 2674   2.558   1.213   1.133  0.2925  0.7104 -0.6416
  669SOL    HW3 2675   2.481   1.342   1.155 -0.0454  0.3404  0.4060
  669SOL    MW4 2676   2.500   1.261   1.179  0.7010  0.4424  0.1635
  670SOL     OW 2677   2.503   1.537   1.111 -0.1613  0.2742  0.9511
  670SOL    HW2 2678   2.430   1.591   1.143 -0.3262  0.4387  0.2947
  670SOL    HW3 2679   2.501   1.548   1.016  1.0083  0.6337  0.9720
  670SOL    MW4 2680   2.493   1.546   1.103 -0.0288  0.3434  0.8673
  671SOL     OW 2681   2.247   1.641   1.205 -0.2705 -0.0679  0.0351
  671SOL    HW2 2682   2.241   1.735   1.187 -1.3379 -0.1146  0.1054
  671SOL    HW3 2683   2.165   1.605   1.171  0.4431 -1.0895 -0.6389
  671SOL    MW4 2684   2.235   1.649   1.198 -0.3172 -0.2089 -0.0445
  672SOL     OW 2685   2.236   1.918   1.123 -0.4991 -0.0963 -0.0745
  672SOL    HW2 2686   2.166   1.963   1.170  0.0719 -0.5244  1.2260
  672SOL    HW3 2687   2.235   1.955   1.035 -0.8522  1.5514  0.6095
  672SOL    MW4 2688   2.227   1.929   1.118 -0.4703  0.0646  0.1873
  673SOL     OW 2689   2.489   2.032   1.216  0.2021 -0.0153  0.0638
  673SOL    HW2 2690   2.563   1.976   1.191 -0.4669 -0.4554 -0.9511
  673SOL    HW3 2691   2.412   1.985   1.184 -0.4777  0.7251  0.6050
  673SOL    MW4 2692   2.489   2.018   1.209  0.0241  0.0243  0.0013
  674SOL     OW 2693   2.466   2.300   1.124 -0.4224 -0.4109 -0.5472
  674SOL    HW2 2694   2.479   2.210   1.154  0.6009 -0.1849 -0.3116
  674SOL    HW3 2695   2.491   2.299   1.032  0.4214 -0.1807 -0.3256
  674SOL    MW4 2696   2.471   2.288   1.116 -0.1761 -0.3507 -0.4869
  675SOL     OW 2697   2.231   2.430   1.191  0.6016  0.3012  0.1818
  675SOL    HW2 2698   2.251   2.431   1.285  1.0902 -1.7208  0.1183
  675SOL    HW3 2699   2.300   2.377   1.152 -1.1867 -1.2469 -0.9435
  675SOL    MW4 2700   2.243   2.423   1.199  0.4301 -0.1698  0.0249
  676SOL     OW 2701   2.282   2.705   1.123  0.5482 -0.6562 -0.1661
  676SOL    HW2 2702   2.265   2.615   1.151  0.0436 -0.7714 -0.8316
  676SOL    HW3 2703   2.202   2.753   1.146  1.1856 -0.1566  1.0858
  676SOL    MW4 2704   2.269   2.700   1.130  0.5657 -0.6055 -0.0887
  677SOL     OW 2705   2.723   2.733   1.123  0.1874  0.2311 -0.5885
  677SOL    HW2 2706   2.640   2.769   1.152  1.2358  1.9986  0.2910
  677SOL    HW3 2707   2.737   2.656   1.178 -0.5714  0.2797 -0.3263
  677SOL    MW4 2708   2.714   2.728   1.134  0.2256  0.4707 -0.4378
  678SOL     OW 2709   2.502   2.836   1.224 -0.3480 -0.3927  0.3536
  678SOL    HW2 2710   2.429   2.786   1.188  0.2744 -1.4963  0.6003
  678SOL    HW3 2711   2.503   2.813   1.317 -0.8795  1.1088  0.7481
  678SOL    MW4 2712   2.493   2.827   1.232 -0.3360 -0.3402  0.4382
  679SOL     OW 2713   2.258   3.223   1.228 -0.0468  0.2430  0.1079
  679SOL    HW2 2714   2.241   3.313   1.202  1.4108 -0.0958 -2.1134
  679SOL    HW3 2715   2.187   3.172   1.188  0.5326  0.1029 -0.7595
  679SOL    MW4 2716   2.246   3.228   1.220  0.2220  0.1798 -0.2996
  680SOL     OW 2717   2.246   3.475   1.123  0.3181 -0.1944 -0.3596
  680SOL    HW2 2718   2.313   3.542   1.132 -0.9664  1.4038 -2.3786
  680SOL    HW3 2719   2.239   3.460   1.029 -2.5164  0.0765 -0.2486
  680SOL    MW4 2720   2.254   3.482   1.112 -0.2253  0.0522 -0.6113
  681SOL     OW 2721   2.461   3.635   1.188  0.1239 -0.1860 -0.3255
  681SOL    HW2 2722   2.467   3.619   1.283 -0.1809 -0.5753 -0.3729
  681SOL    HW3 2723   2.457   3.731   1.181 -0.1829 -0.1661  0.0739
  681SOL    MW4 2724   2.461   3.646   1.200  0.0432 -0.2348 -0.2791
  682SOL     OW 2725   2.460   3.904   1.148  0.1288  0.1487 -0.7638
  682SOL    HW2 2726   2.377   3.940   1.179  0.7737  0.3281  0.7928
  682SOL    HW3 2727   2.442   3.875   1.059 -1.1835  1.6187 -0.9871
  682SOL    MW4 2728   2.447   3.905   1.141  0.0407  0.3663 -0.5879
  683SOL     OW 2729   2.218   3.983   1.264  0.1741 -0.2887 -0.3725
  683SOL    HW2 2730   2.230   4.063   1.212  1.0657 -0.6427 -0.7318
  683SOL    HW3 2731   2.153   3.933   1.215 -0.1917  0.0961 -0.2857
  683SOL    MW4 2732   2.211   3.987   1.250  0.2434 -0.2847 -0.4084
  684SOL     OW 2733   1.172   3.534   0.412 -0.5204 -0.0900  0.3248
  684SOL    HW2 2734   1.235   3.605   0.398 -1.4823  0.9039  0.9941
  684SOL    HW3 2735   1.227   3.455   0.418  0.6155  0.6799  0.2958
  684SOL    MW4 2736   1.188   3.533   0.411 -0.4974  0.1427  0.4093
  685SOL     OW 2737   2.243   4.234   1.157 -0.0777  0.4758  0.7988
  685SOL    HW2 2738   2.266   4.255   1.066  0.2827  1.8188  1.1929
  685SOL    HW3 2739   2.171   4.294   1.177 -1.1340 -0.8232  0.9355
  685SOL    MW4 2740   2.236   4.245   1.148 -0.1695  0.4816  0.8688
  686SOL     OW 2741   2.888   4.659   1.083  0.0863  0.1109  0.0524
  686SOL    HW2 2742   2.885   4.578   1.134 -1.4101 -0.6800 -1.2242
  686SOL    HW3 2743   2.887   4.629   0.992 -1.9627  1.5673 -0.4537
  686SOL    MW4 2744   2.887   4.644   1.078 -0.3815  0.1987 -0.1828
  687SOL     OW 2745   2.657   0.097   1.197 -0.0194 -0.7801  0.0630
  687SOL    HW2 2746   2.671   0.097   1.291  0.1599  0.5075  0.0366
  687SOL    HW3 2747   2.734   0.053   1.161 -0.1449 -1.3810  0.5160
  687SOL    MW4 2748   2.669   0.091   1.204 -0.0123 -0.6895  0.1193
  688SOL     OW 2749   2.481   0.474   1.217  0.6103  0.2131  0.2151
  688SOL    HW2 2750   2.398   0.438   1.184  0.6889  1.3670 -1.3308
  688SOL    HW3 2751   2.468   0.481   1.311 -1.0875  0.4227 -0.0082
  688SOL    MW4 2752   2.468   0.470   1.225  0.3966  0.3930 -0.0183
  689SOL     OW 2753   2.906   0.464   1.190  0.2427 -0.1665 -0.2933
  689SOL    HW2 2754   2.913   0.554   1.157 -1.0245  0.7114  1.7280
  689SOL    HW3 2755   2.828   0.429   1.146 -1.0836  0.7937  1.2267
  689SOL    MW4 2756   2.896   0.471   1.180 -0.0995  0.0760  0.1739
  690SOL     OW 2757   2.926   0.718   1.091 -0.0098  0.0840  0.1318
  690SOL    HW2 2758   3.007   0.767   1.105  0.7525 -1.2235  0.4142
  690SOL    HW3 2759   2.862   0.759   1.150 -0.1810  2.5405 -1.6902
  690SOL    MW4 2760   2.928   0.730   1.101  0.0682  0.2356 -0.0714
  691SOL     OW 2761   2.720   0.868   1.240 -0.3824 -0.3498  0.1934
  691SOL    HW2 2762   2.723   0.955   1.200  0.2577  0.4763  1.9918
  691SOL    HW3 2763   2.634   0.833   1.215 -0.5178  0.6614 -0.7988
  691SOL    MW4 2764   2.709   0.874   1.231 -0.3158 -0.1074  0.2998
  692SOL     OW 2765   2.725   1.120   1.103 -0.1819  0.3439  0.1611
  692SOL    HW2 2766   2.787   1.173   1.153  1.0456 -0.7541 -0.1510
  692SOL    HW3 2767   2.729   1.156   1.014 -0.5431  0.7506  0.3123
  692SOL    MW4 2768   2.734   1.131   1.098 -0.0676  0.2527  0.1399
  693SOL     OW 2769   2.951   1.255   1.197 -0.5998  0.3845  0.0660
  693SOL    HW2 2770   2.952   1.263   1.292  0.9414 -0.3971  0.1276
  693SOL    HW3 2771   2.957   1.346   1.166 -0.0153  0.5687  0.7083
  693SOL    MW4 2772   2.952   1.268   1.205 -0.3193  0.3057  0.1589
  694SOL     OW 2773   2.928   1.504   1.092 -0.1606 -0.4020 -0.2489
  694SOL    HW2 2774   2.999   1.546   1.140 -0.0704 -0.2534 -0.5068
  694SOL    HW3 2775   2.949   1.522   1.000 -0.4029 -0.5650 -0.3344
  694SOL    MW4 2776   2.940   1.512   1.086 -0.1807 -0.4039 -0.2942
  695SOL     OW 2777   2.733   1.639   1.226  0.5584  0.3399  0.1011
  695SOL    HW2 2778   2.803   1.591   1.182 -0.9231  0.4498 -2.4908
  695SOL    HW3 2779   2.654   1.589   1.207 -0.2807  0.9959  1.7875
  695SOL    MW4 2780   2.732   1.626   1.218  0.2522  0.4410 -0.0183
  696SOL     OW 2781   2.722   1.877   1.102 -0.1185 -0.1173  0.2557
  696SOL    HW2 2782   2.804   1.922   1.122 -0.1408  0.1009 -0.1422
  696SOL    HW3 2783   2.730   1.792   1.145  0.7254 -0.4737 -0.5877
  696SOL    MW4 2784   2.734   1.871   1.110 -0.0101 -0.1355  0.0920
  697SOL     OW 2785   2.947   2.019   1.194  0.1189  0.0143  0.2009
  697SOL    HW2 2786   2.962   2.021   1.288 -2.3628 -0.0044  0.6175
  697SOL    HW3 2787   2.969   2.108   1.165  2.8638 -0.5441  0.4369
  697SOL    MW4 2788   2.952   2.031   1.203  0.1536 -0.0619  0.2870
  698SOL     OW 2789   2.938   2.286   1.145  0.2895 -0.2103 -0.6816
  698SOL    HW2 2790   3.009   2.348   1.163 -0.2140 -0.1314  1.0810
  698SOL    HW3 2791   2.861   2.327   1.184 -0.4022 -1.0966 -1.1176
  698SOL    MW4 2792   2.937   2.300   1.152  0.1318 -0.3168 -0.5065
  699SOL     OW 2793   2.708   2.426   1.237 -0.3017 -0.0977  0.0704
  699SOL    HW2 2794   2.689   2.436   1.331 -1.1877 -0.5655 -0.0607
  699SOL    HW3 2795   2.629   2.387   1.200  0.4529 -0.9099 -0.6941
  699SOL    MW4 2796   2.695   2.422   1.245 -0.3190 -0.2666 -0.0478
  700SOL     OW 2797   2.746   2.687   0.838  0.1177 -0.2728  0.0170
  700SOL    HW2 2798   2.677   2.745   0.806  0.2054  0.0957  0.4940
  700SOL    HW3 2799   2.753   2.706   0.932  0.7248 -0.4557  0.0127
  700SOL    MW4 2800   2.738   2.697   0.846  0.2094 -0.2483  0.0794
  701SOL     OW 2801   2.940   2.852   1.218 -0.1993  0.2855 -0.5878
  701SOL    HW2 2802   2.937   2.829   1.311 -0.1515 -1.4479 -1.0101
  701SOL    HW3 2803   2.853   2.829   1.185  0.3021 -0.5975 -1.3130
  701SOL    MW4 2804   2.928   2.846   1.226 -0.1269 -0.0597 -0.7392
  702SOL     OW 2805   2.922   3.118   1.134  0.0533  0.4034 -0.1267
  702SOL    HW2 2806   2.942   3.031   1.168 -0.4002  0.4324  0.2205
  702SOL    HW3 2807   2.917   3.106   1.039 -1.7089 -0.3088  0.0349
  702SOL    MW4 2808   2.924   3.105   1.126 -0.2390  0.3133 -0.0595
  703SOL     OW 2809   2.711   3.268   1.236 -0.0984 -0.1468 -0.2617
  703SOL    HW2 2810   2.792   3.226   1.205  0.2219  0.3095 -0.0441
  703SOL    HW3 2811   2.642   3.206   1.212  0.4491 -1.2041  0.7912
  703SOL    MW4 2812   2.713   3.254   1.229  0.0161 -0.2261 -0.0941
  704SOL     OW 2813   2.726   3.524   1.154 -0.0457  0.1222 -0.3868
  704SOL    HW2 2814   2.716   3.431   1.176 -0.1161  0.4319  0.9273
  704SOL    HW3 2815   2.637   3.558   1.155 -0.0301  0.1830 -0.9765
  704SOL    MW4 2816   2.713   3.516   1.157 -0.0529  0.1711 -0.2912
  705SOL     OW 2817   2.948   3.639   1.256 -0.0379  0.0271  0.0548
  705SOL    HW2 2818   3.026   3.598   1.219  0.5746 -0.5372  1.9060
  705SOL    HW3 2819   2.875   3.586   1.224  0.3949 -0.0013 -0.9191
  705SOL    MW4 2820   2.948   3.627   1.247  0.1000 -0.0511  0.1706
  706SOL     OW 2821   2.940   3.876   1.110  0.0746 -0.1682 -0.0105
  706SOL    HW2 2822   3.024   3.913   1.138 -0.6661  1.1447  0.5377
  706SOL    HW3 2823   2.944   3.784   1.136  1.2101 -0.0381  0.3070
  706SOL    MW4 2824   2.951   3.869   1.117  0.1267  0.0222  0.1037
  707SOL     OW 2825   2.704   3.982   1.246  0.6601 -0.3837 -0.4510
  707SOL    HW2 2826   2.782   3.933   1.219  0.3835 -1.8396  1.2569
  707SOL    HW3 2827   2.631   3.932   1.209  0.4686  0.0028 -0.5934
  707SOL    MW4 2828   2.705   3.969   1.237  0.5984 -0.5248 -0.2445
  708SOL     OW 2829   2.711   4.235   1.138  0.0369  0.5229 -0.3764
  708SOL    HW2 2830   2.711   4.144   1.169 -0.8317  0.2275 -1.2114
  708SOL    HW3 2831   2.637   4.275   1.183  1.8723  1.5028  1.8757
  708SOL    MW4 2832   2.701   4.228   1.148  0.1644  0.6132 -0.1895
  709SOL     OW 2833   2.904   4.412   1.206 -0.1626  0.3044  0.1093
  709SOL    HW2 2834   2.987   4.387   1.168  0.0226 -1.0378  1.3672
  709SOL    HW3 2835   2.842   4.345   1.176 -0.7388  1.1286 -0.5794
  709SOL    MW4 2836   2.907   4.400   1.197 -0.2142  0.2361  0.1844
  710SOL     OW 2837   3.390   4.602   1.029 -0.0732  0.4649 -0.2494
  710SOL    HW2 2838   3.454   4.656   1.075  0.0790  0.0015  0.0976
  710SOL    HW3 2839   3.306   4.626   1.068  0.1122 -0.3153  0.6797
  710SOL    MW4 2840   3.388   4.612   1.041 -0.0286  0.3008 -0.0810
  711SOL     OW 2841   3.147   0.066   1.142 -0.3509  0.4256  0.0934
  711SOL    HW2 2842   3.145   0.081   1.237 -0.7122  0.1902  0.1219
  711SOL    HW3 2843   3.056   0.047   1.119 -0.1098 -0.4028 -0.1629
  711SOL    MW4 2844   3.135   0.066   1.151 -0.3668  0.2853  0.0633
  712SOL     OW 2845   3.145   0.336   1.100 -0.4447 -0.3415  0.0522
  712SOL    HW2 2846   3.143   0.242   1.118 -0.6747 -0.2934  0.2847
  712SOL    HW3 2847   3.070   0.371   1.148 -0.0098  0.0459  0.4605
  712SOL    MW4 2848   3.135   0.329   1.109 -0.4177 -0.2840  0.1367
  713SOL     OW 2849   3.371   0.439   1.234  0.2235  0.1870  0.2019
  713SOL    HW2 2850   3.371   0.531   1.209 -1.3140  0.8497  2.5170
  713SOL    HW3 2851   3.295   0.401   1.189  0.5517  0.1643 -0.3344
  713SOL    MW4 2852   3.361   0.446   1.225  0.0639  0.2714  0.4366
  714SOL     OW 2853   3.409   0.717   1.157  0.4966 -0.0403  0.2224
  714SOL    HW2 2854   3.330   0.770   1.169 -0.5614 -1.9109  1.7196
  714SOL    HW3 2855   3.422   0.716   1.062 -0.9768  0.7208 -0.0119
  714SOL    MW4 2856   3.400   0.724   1.146  0.1626 -0.1867  0.3890
  715SOL     OW 2857   3.157   0.863   1.145  0.0043 -0.0412  0.2128
  715SOL    HW2 2858   3.162   0.869   1.240 -3.6171  1.5219  0.3725
  715SOL    HW3 2859   3.181   0.951   1.114 -1.3956  0.2194 -0.1626
  715SOL    MW4 2860   3.161   0.875   1.154 -0.6582  0.1994  0.1844
  716SOL     OW 2861   2.936   1.303   0.747 -0.2455  0.0104  0.1672
  716SOL    HW2 2862   2.949   1.392   0.781 -1.0256 -0.3646  1.4767
  716SOL    HW3 2863   3.018   1.258   0.768 -0.6786 -0.1883  1.4948
  716SOL    MW4 2864   2.949   1.309   0.754 -0.4056 -0.0653  0.5151
  717SOL     OW 2865   3.391   1.265   1.229 -0.2094 -0.3425  0.1310
  717SOL    HW2 2866   3.379   1.277   1.324 -0.7917 -0.4706  0.0777
  717SOL    HW3 2867   3.382   1.353   1.193  2.5018  0.0845  0.4393
  717SOL    MW4 2868   3.388   1.278   1.237  0.0715 -0.3030  0.1647
  718SOL     OW 2869   3.600   1.673   1.194 -0.2878  0.2994 -0.3400
  718SOL    HW2 2870   3.685   1.631   1.190 -0.2987  0.2508 -0.1083
  718SOL    HW3 2871   3.614   1.761   1.158 -0.3996 -0.1077 -1.4013
  718SOL    MW4 2872   3.613   1.679   1.189 -0.3040  0.2393 -0.4494
  719SOL     OW 2873   3.129   1.631   1.240 -0.1180  0.0494 -0.3016
  719SOL    HW2 2874   3.122   1.717   1.198  1.1847  0.4362  0.2585
  719SOL    HW3 2875   3.118   1.648   1.333  1.9984 -0.1165  0.0080
  719SOL    MW4 2876   3.127   1.644   1.247  0.3331  0.0786 -0.1869
  720SOL     OW 2877   3.172   1.894   1.129 -0.2730 -0.4834  0.0227
  720SOL    HW2 2878   3.247   1.944   1.162 -0.7057  0.4608 -0.3979
  720SOL    HW3 2879   3.100   1.956   1.131 -0.8056 -1.0815 -0.5871
  720SOL    MW4 2880   3.172   1.909   1.134 -0.4004 -0.4377 -0.1132
  721SOL     OW 2881   3.397   2.027   1.219 -0.2709 -0.8785 -0.1683
  721SOL    HW2 2882   3.462   1.997   1.156  1.8081  0.1906  1.4147
  721SOL    HW3 2883   3.386   2.120   1.201 -0.9741 -0.9385 -0.0752
  721SOL    MW4 2884   3.404   2.035   1.208 -0.0894 -0.7454  0.0528
  722SOL     OW 2885   3.368   2.303   1.126  0.0755  0.2532  0.5843
  722SOL    HW2 2886   3.446   2.358   1.136 -0.1684  0.6972  0.0534
  722SOL    HW3 2887   3.295   2.361   1.145 -0.4100  1.1066 -3.3467
  722SOL    MW4 2888   3.369   2.318   1.130 -0.0207  0.4244 -0.0044
  723SOL     OW 2889   3.157   2.461   1.202 -0.3293  0.6053  0.3594
  723SOL    HW2 2890   3.167   2.453   1.296  1.9529  0.6426  0.1509
  723SOL    HW3 2891   3.184   2.551   1.183 -0.0730  0.3754 -0.3957
  723SOL    MW4 2892   3.162   2.472   1.212  0.0056  0.5799  0.2322
  724SOL     OW 2893   3.171   2.723   1.126 -0.0048  0.0196  0.5130
  724SOL    HW2 2894   3.095   2.773   1.157  1.2851  2.2301  0.2429
  724SOL    HW3 2895   3.168   2.732   1.031  0.7085  0.2820  0.5156
  724SOL    MW4 2896   3.160   2.731   1.117  0.2595  0.3459  0.4777
  725SOL     OW 2897   3.384   2.876   1.189 -0.0567 -0.2604 -0.1902
  725SOL    HW2 2898   3.376   2.958   1.141  0.2567 -0.3426 -0.3830
  725SOL    HW3 2899   3.308   2.825   1.162  1.4562 -1.3225 -2.5597
  725SOL    MW4 2900   3.373   2.880   1.179  0.1842 -0.4114 -0.5283
  726SOL     OW 2901   3.377   3.141   1.102  0.6270  0.0940  0.1609
  726SOL    HW2 2902   3.441   3.186   1.157  0.9577  0.0522 -0.1910
  726SOL    HW3 2903   3.292   3.173   1.134  0.8611  1.0976 -0.1935
  726SOL    MW4 2904   3.374   3.151   1.113  0.7015  0.2209  0.0677
  727SOL     OW 2905   3.143   3.231   1.270  0.5706 -0.0808 -0.1173
  727SOL    HW2 2906   3.154   3.317   1.231  2.1517 -0.2271 -0.0582
  727SOL    HW3 2907   3.069   3.192   1.224  1.7003  0.1768 -2.2010
  727SOL    MW4 2908   3.135   3.237   1.259  0.9283 -0.0661 -0.3844
  728SOL     OW 2909   3.149   3.473   1.153  0.6810  0.1082  0.0342
  728SOL    HW2 2910   3.233   3.517   1.168  0.8972 -0.1372 -0.4360
  728SOL    HW3 2911   3.144   3.464   1.058  0.2402 -0.1140  0.0794
  728SOL    MW4 2912   3.159   3.478   1.143  0.6514  0.0465 -0.0219
  729SOL     OW 2913   3.385   3.622   1.201 -0.0192 -0.1436  0.4275
  729SOL    HW2 2914   3.376   3.636   1.295  1.2307  0.6959  0.4348
  729SOL    HW3 2915   3.460   3.563   1.193 -0.2454 -0.3685 -0.0398
  729SOL    MW4 2916   3.393   3.616   1.212  0.1159 -0.0625  0.3668
  730SOL     OW 2917   3.418   3.855   1.046 -0.7836 -0.0591 -0.4896
  730SOL    HW2 2918   3.354   3.917   1.082 -0.5546 -0.1944  0.1578
  730SOL    HW3 2919   3.406   3.775   1.097 -0.0190 -0.0494 -0.2872
  730SOL    MW4 2920   3.408   3.853   1.057 -0.6525 -0.0757 -0.3775
  731SOL     OW 2921   3.230   4.027   1.187  0.1738 -0.1518 -0.3504
  731SOL    HW2 2922   3.204   3.998   1.275 -0.8403 -0.8368 -0.8698
  731SOL    HW3 2923   3.201   4.118   1.182 -0.3851 -0.3259 -0.2351
  731SOL    MW4 2924   3.223   4.035   1.198 -0.0337 -0.2652 -0.4037
  732SOL     OW 2925   3.158   4.298   1.141  0.1292  0.2725  0.2277
  732SOL    HW2 2926   3.236   4.334   1.183  0.5864 -0.8276  0.3523
  732SOL    HW3 2927   3.184   4.284   1.050  0.1825 -0.3643  0.3339
  732SOL    MW4 2928   3.172   4.301   1.135  0.1966  0.0434  0.2581
  733SOL     OW 2929   3.413   4.404   1.211  0.0666 -0.0712  0.2411
  733SOL    HW2 2930   3.469   4.337   1.170  1.4485  0.8533  0.5679
  733SOL    HW3 2931   3.398   4.468   1.141  1.0338  0.6606  0.6953
  733SOL    MW4 2932   3.419   4.404   1.196  0.3765  0.1474  0.3442
  734SOL     OW 2933   3.817   4.634   1.093  0.0884 -0.2772 -0.2053
  734SOL    HW2 2934   3.832   4.543   1.115 -1.2075 -0.4959 -0.2248
  734SOL    HW3 2935   3.830   4.638   0.998  0.2165 -0.4178 -0.1946
  734SOL    MW4 2936   3.821   4.623   1.083 -0.0657 -0.3246 -0.2064
  735SOL     OW 2937   3.576   0.064   1.197  0.2665 -0.2760  0.3205
  735SOL    HW2 2938   3.588   0.150   1.157  0.5734 -0.7062 -0.5392
  735SOL    HW3 2939   3.655   0.015   1.172  0.4048 -0.5931  1.3604
  735SOL    MW4 2940   3.588   0.069   1.188  0.3253 -0.3746  0.3443
  736SOL     OW 2941   3.605   0.327   1.123  0.3084 -0.4053  0.1303
  736SOL    HW2 2942   3.671   0.383   1.164  0.2729  0.2540 -0.6984
  736SOL    HW3 2943   3.521   0.363   1.152  0.2902 -1.0844  0.9716
  736SOL    MW4 2944   3.602   0.339   1.133  0.3013 -0.4079  0.1319
  737SOL     OW 2945   3.818   0.498   1.206  0.1731  0.1470  0.0432
  737SOL    HW2 2946   3.900   0.458   1.177  0.8779  2.0061 -0.6012
  737SOL    HW3 2947   3.814   0.581   1.159 -2.1634  0.0028 -0.0446
  737SOL    MW4 2948   3.828   0.504   1.196 -0.0422  0.3733 -0.0534
  738SOL     OW 2949   3.830   0.748   1.061 -0.1014  0.2071 -0.1465
  738SOL    HW2 2950   3.906   0.789   1.101  0.2375 -1.6680  1.1982
  738SOL    HW3 2951   3.755   0.795   1.098  0.3662  1.7486 -1.1217
  738SOL    MW4 2952   3.830   0.759   1.071  0.0050  0.1631 -0.0977
  739SOL     OW 2953   3.638   0.874   1.197 -0.4253  0.4554  0.2315
  739SOL    HW2 2954   3.621   0.964   1.169 -3.0968 -0.4841 -1.3340
  739SOL    HW3 2955   3.555   0.828   1.182  1.2405 -2.5545 -0.1375
  739SOL    MW4 2956   3.625   0.880   1.192 -0.5580 -0.0657 -0.0238
  740SOL     OW 2957   3.611   1.141   1.093 -0.6503  0.4831 -0.2879
  740SOL    HW2 2958   3.684   1.192   1.129 -0.1957  0.2522 -0.8837
  740SOL    HW3 2959   3.534   1.175   1.139  0.0244 -0.3949  1.5497
  740SOL    MW4 2960   3.610   1.152   1.104 -0.5013  0.3368 -0.1240
  741SOL     OW 2961   3.847   1.267   1.209 -0.5063 -0.1863 -0.3840
  741SOL    HW2 2962   3.841   1.253   1.304 -3.4553 -0.4501 -0.5730
  741SOL    HW3 2963   3.833   1.361   1.198  0.4592 -0.0559 -0.5240
  741SOL    MW4 2964   3.845   1.278   1.220 -0.7680 -0.2039 -0.4274
  742SOL     OW 2965   3.830   1.534   1.145  0.2371 -0.2917 -0.3295
  742SOL    HW2 2966   3.895   1.596   1.175  0.4010 -0.5617 -0.1216
  742SOL    HW3 2967   3.836   1.536   1.050  0.4946 -0.2602 -0.3111
  742SOL    MW4 2968   3.839   1.542   1.136  0.2927 -0.3232 -0.2996
  743SOL     OW 2969   3.602   1.919   1.078 -0.2932 -0.1269  0.2623
  743SOL    HW2 2970   3.676   1.969   1.111 -0.8512  0.0646  1.2437
  743SOL    HW3 2971   3.601   1.936   0.983  1.3765 -0.7613  0.1179
  743SOL    MW4 2972   3.612   1.928   1.070 -0.1466 -0.1853  0.3727
  744SOL     OW 2973   3.409   4.630   0.340 -0.4434 -0.4236 -0.3847
  744SOL    HW2 2974   3.504   4.643   0.344 -0.4503  0.4010 -2.2157
  744SOL    HW3 2975   3.372   4.702   0.390 -0.0847 -1.1639  0.9516
  744SOL    MW4 2976   3.417   4.641   0.347 -0.3970 -0.4125 -0.4500
  745SOL     OW 2977   3.818   2.068   1.156  0.2951 -0.0885  0.1554
  745SOL    HW2 2978   3.819   2.060   1.252 -0.1997  1.3496  0.2879
  745SOL    HW3 2979   3.900   2.026   1.128  0.4771 -0.4569  1.2129
  745SOL    MW4 2980   3.829   2.062   1.165  0.2539  0.0527  0.3124
  746SOL     OW 2981   3.788   2.327   1.083  0.3311 -0.3102  0.1218
  746SOL    HW2 2982   3.865   2.364   1.125  1.4796 -0.4147 -1.8142
  746SOL    HW3 2983   3.800   2.232   1.092 -0.2087 -0.2978  0.9369
  746SOL    MW4 2984   3.800   2.319   1.090  0.4115 -0.3224 -0.0261
  747SOL     OW 2985   3.577   2.483   1.184 -0.1772 -0.1817 -0.6285
  747SOL    HW2 2986   3.580   2.463   1.278  0.6899  1.1439 -0.3529
  747SOL    HW3 2987   3.657   2.445   1.149  0.0722  0.3269 -0.6161
  747SOL    MW4 2988   3.588   2.475   1.192 -0.0299  0.0603 -0.5905
  748SOL     OW 2989   3.595   2.738   1.086  0.0547 -0.6377  0.3609
  748SOL    HW2 2990   3.582   2.648   1.117 -1.3933 -0.1475  1.2126
  748SOL    HW3 2991   3.515   2.784   1.111  1.1619  1.1233  0.7616
  748SOL    MW4 2992   3.583   2.732   1.093  0.0097 -0.3407  0.5261
  749SOL     OW 2993   3.804   2.877   1.200  0.4344  0.1668 -0.0799
  749SOL    HW2 2994   3.808   2.868   1.295  0.8704 -0.3561 -0.1394
  749SOL    HW3 2995   3.736   2.816   1.173 -0.2548  0.9080 -0.0374
  749SOL    MW4 2996   3.796   2.868   1.209  0.4010  0.1956 -0.0822
  750SOL     OW 2997   3.830   3.121   1.078 -0.0709 -0.0399  0.0308
  750SOL    HW2 2998   3.834   3.031   1.112  0.6735 -0.0755 -0.1306
  750SOL    HW3 2999   3.842   3.111   0.984 -1.1432  0.1377 -0.1235
  750SOL    MW4 3000   3.832   3.108   1.070 -0.1141 -0.0212 -0.0109
  751SOL     OW 3001   3.604   3.229   1.235  0.0975  0.0947 -0.3401
  751SOL    HW2 3002   3.613   3.320   1.208 -0.0139 -0.8025 -3.6311
  751SOL    HW3 3003   3.671   3.182   1.185 -1.1888 -1.8955 -0.2461
  751SOL    MW4 3004   3.614   3.235   1.225 -0.0869 -0.2862 -0.7619
  752SOL     OW 3005   3.621   3.473   1.145  0.6729 -0.1476 -0.2136
  752SOL    HW2 3006   3.710   3.509   1.155  0.9648 -1.0360  0.4489
  752SOL    HW3 3007   3.603   3.480   1.051  1.8937 -1.0001 -0.5320
  752SOL    MW4 3008   3.631   3.479   1.134  0.8725 -0.3773 -0.1682
  753SOL     OW 3009   3.854   3.600   1.195 -0.2395  0.2664  0.1658
  753SOL    HW2 3010   3.857   3.608   1.290  0.6267  1.6358  0.0329
  753SOL    HW3 3011   3.862   3.690   1.163 -0.4937 -0.1862 -1.1976
  753SOL    MW4 3012   3.856   3.613   1.203 -0.1588  0.3874 -0.0316
  754SOL     OW 3013   3.847   3.871   1.128 -0.0120  0.1211 -0.0652
  754SOL    HW2 3014   3.849   3.885   1.033  0.1832  0.9872  0.0660
  754SOL    HW3 3015   3.764   3.910   1.156  0.8163  1.5832  0.3860
  754SOL    MW4 3016   3.836   3.878   1.119  0.1230  0.4282  0.0117
  755SOL     OW 3017   3.618   3.993   1.182 -0.2050  0.0310  0.2585
  755SOL    HW2 3018   3.601   3.999   1.276 -2.5824 -0.4187 -0.1074
  755SOL    HW3 3019   3.546   3.939   1.148  0.5974  0.2265 -1.8258
  755SOL    MW4 3020   3.606   3.986   1.190 -0.4128 -0.0025 -0.0648
  756SOL     OW 3021   3.576   4.242   1.074  0.5732 -0.1368  0.6365
  756SOL    HW2 3022   3.576   4.149   1.098 -0.5787 -0.6475 -1.1803
  756SOL    HW3 3023   3.569   4.241   0.978  1.5185  1.8232  0.5416
  756SOL    MW4 3024   3.575   4.229   1.064  0.5459  0.0545  0.3843
  757SOL     OW 3025   3.821   4.364   1.168  0.2480 -0.4889 -0.6005
  757SOL    HW2 3026   3.817   4.369   1.263 -0.5695  0.8531 -0.6962
  757SOL    HW3 3027   3.737   4.328   1.142  0.4355 -0.7697 -0.8245
  757SOL    MW4 3028   3.810   4.360   1.177  0.1649 -0.3489 -0.6427
  758SOL     OW 3029   4.242   4.655   1.077 -0.0782 -0.1847 -0.1297
  758SOL    HW2 3030   4.246   4.572   1.125 -1.0427 -0.7191 -0.9684
  758SOL    HW3 3031   4.171   4.704   1.119  2.1475  1.2993  2.0399
  758SOL    MW4 3032   4.233   4.650   1.089  0.0882 -0.0595  0.0459
  759SOL     OW 3033   4.029   0.116   1.215 -0.3724 -0.0793 -0.0008
  759SOL    HW2 3034   4.037   0.106   1.310  0.3802 -1.6162 -0.2021
  759SOL    HW3 3035   3.954   0.063   1.191 -2.2325  2.4315  0.0229
  759SOL    MW4 3036   4.020   0.108   1.224 -0.5185  0.0492 -0.0243
  760SOL     OW 3037   4.078   0.379   1.132  0.5166 -0.0796  0.0484
  760SOL    HW2 3038   4.072   0.292   1.172  0.7135  0.1366  0.5627
  760SOL    HW3 3039   4.069   0.364   1.038  0.1733 -0.6139  0.1686
  760SOL    MW4 3040   4.076   0.366   1.125  0.4973 -0.1216  0.1321
  761SOL     OW 3041   4.298   0.522   1.209 -0.0622 -0.2517  0.2561
  761SOL    HW2 3042   4.305   0.503   1.303 -0.4387 -1.1567  0.0998
  761SOL    HW3 3043   4.213   0.487   1.183  0.0952 -0.1210 -0.4487
  761SOL    MW4 3044   4.288   0.515   1.218 -0.0911 -0.3538  0.1425
  762SOL     OW 3045   4.267   0.739   1.049 -0.4208 -0.1998 -0.0534
  762SOL    HW2 3046   4.296   0.655   1.084 -1.7161 -0.0272  1.5019
  762SOL    HW3 3047   4.280   0.732   0.955  0.6303 -1.6814  0.1851
  762SOL    MW4 3048   4.273   0.727   1.041 -0.4530 -0.3725  0.1833
  763SOL     OW 3049   4.059   0.858   1.179 -0.5425 -0.0428  0.1303
  763SOL    HW2 3050   4.062   0.843   1.274 -1.8053 -0.3578  0.1222
  763SOL    HW3 3051   4.138   0.814   1.146 -0.7180 -0.9470  0.8987
  763SOL    MW4 3052   4.070   0.850   1.187 -0.7323 -0.2037  0.2306
  764SOL     OW 3053   4.064   1.127   1.079 -0.3481 -0.2258 -0.2718
  764SOL    HW2 3054   4.047   1.038   1.112 -0.0687 -0.0137  0.4571
  764SOL    HW3 3055   3.991   1.179   1.112 -0.0014  0.0153  0.1076
  764SOL    MW4 3056   4.052   1.122   1.088 -0.2655 -0.1660 -0.1256
  765SOL     OW 3057   4.273   1.275   1.152 -0.0102  0.1183  0.0556
  765SOL    HW2 3058   4.296   1.254   1.243 -1.3640 -0.7635  0.2152
  765SOL    HW3 3059   4.203   1.213   1.131 -0.3113  0.9137 -1.2990
  765SOL    MW4 3060   4.266   1.264   1.161 -0.2286  0.1069 -0.1020
  766SOL     OW 3061   4.268   1.558   1.057 -0.2984  0.3604  0.7170
  766SOL    HW2 3062   4.275   1.472   1.097 -0.5874 -0.4842 -0.9987
  766SOL    HW3 3063   4.347   1.605   1.086  0.4882 -0.9047  0.6546
  766SOL    MW4 3064   4.279   1.553   1.066 -0.2328  0.0820  0.4824
  767SOL     OW 3065   4.065   1.686   1.183  0.1897  0.3103  0.0642
  767SOL    HW2 3066   4.084   1.677   1.276 -0.0984 -1.3873 -0.0343
  767SOL    HW3 3067   4.134   1.635   1.140 -0.2208  0.3336 -0.6229
  767SOL    MW4 3068   4.077   1.678   1.189  0.0975  0.0894 -0.0394
  768SOL     OW 3069   4.047   1.943   1.076  0.3350 -0.0142  0.0496
  768SOL    HW2 3070   4.048   1.853   1.108 -0.4560  0.0203  0.1893
  768SOL    HW3 3071   4.055   1.936   0.981 -0.3148 -0.2639  0.0106
  768SOL    MW4 3072   4.048   1.931   1.068  0.1449 -0.0426  0.0629
  769SOL     OW 3073   4.275   2.050   1.188  0.3801 -0.0361  0.3821
  769SOL    HW2 3074   4.258   2.144   1.185 -0.4548 -0.1825  0.2881
  769SOL    HW3 3075   4.200   2.011   1.143 -0.2334 -0.8564  2.0907
  769SOL    MW4 3076   4.263   2.058   1.182  0.1890 -0.1637  0.5951
  770SOL     OW 3077   4.262   2.325   1.146 -0.4223 -0.3056 -0.3161
  770SOL    HW2 3078   4.188   2.374   1.180 -0.9567 -1.5179  0.2864
  770SOL    HW3 3079   4.250   2.326   1.051  0.1467  1.6149 -0.3811
  770SOL    MW4 3080   4.251   2.331   1.138 -0.4177 -0.2122 -0.2452
  771SOL     OW 3081   4.005   2.430   1.202  0.5533  0.2863  0.4021
  771SOL    HW2 3082   4.009   2.420   1.297  1.7455  0.0356  0.3411
  771SOL    HW3 3083   4.022   2.523   1.187 -0.2206  0.4422  0.4542
  771SOL    MW4 3084   4.008   2.441   1.213  0.6085  0.2738  0.4009
  772SOL     OW 3085   4.022   2.697   1.136 -0.4228  0.4102 -0.2018
  772SOL    HW2 3086   3.951   2.759   1.147 -0.1898  0.8726 -1.2737
  772SOL    HW3 3087   4.038   2.694   1.042  1.9981  1.4678  0.1475
  772SOL    MW4 3088   4.015   2.705   1.125 -0.0726  0.6108 -0.2971
  773SOL     OW 3089   4.286   2.809   1.188  0.1733  0.5210  0.2323
  773SOL    HW2 3090   4.287   2.903   1.170 -1.1496  0.5736  0.3769
  773SOL    HW3 3091   4.196   2.782   1.169  0.3215 -0.5468  0.9963
  773SOL    MW4 3092   4.274   2.818   1.183  0.0183  0.3871  0.3522
  774SOL     OW 3093   4.283   3.076   1.137  0.3450 -0.2852 -0.1366
  774SOL    HW2 3094   4.200   3.112   1.167  0.7864  0.5079  0.1558
  774SOL    HW3 3095   4.292   3.107   1.047  0.8769  0.6441  0.2190
  774SOL    MW4 3096   4.273   3.085   1.129  0.4734 -0.0580 -0.0511
  775SOL     OW 3097   4.056   3.205   1.215  0.2653 -0.4257 -0.2253
  775SOL    HW2 3098   4.032   3.205   1.308  0.2436  0.3072 -0.2304
  775SOL    HW3 3099   3.974   3.185   1.169 -0.0191  0.5796 -0.1614
  775SOL    MW4 3100   4.042   3.202   1.222  0.2249 -0.1964 -0.2176
  776SOL     OW 3101   4.077   3.476   1.093 -0.1612 -0.1768 -0.2452
  776SOL    HW2 3102   4.081   3.397   1.148 -0.4336 -0.0958 -0.1088
  776SOL    HW3 3103   3.999   3.522   1.123  0.7528  0.8518  0.6276
  776SOL    MW4 3104   4.068   3.471   1.104 -0.0766 -0.0304 -0.1120
  777SOL     OW 3105   4.295   3.592   1.229 -0.5325 -0.0615 -0.3350
  777SOL    HW2 3106   4.216   3.543   1.207  0.3573 -2.1890  1.0208
  777SOL    HW3 3107   4.367   3.538   1.195  0.4837  0.0711  1.5471
  777SOL    MW4 3108   4.294   3.578   1.222 -0.2810 -0.3247  0.0922
  778SOL     OW 3109   4.335   3.875   1.139 -0.1634 -0.0883  0.0299
  778SOL    HW2 3110   4.255   3.927   1.151  0.0287  0.3543 -0.6526
  778SOL    HW3 3111   4.315   3.792   1.183 -0.7907  0.2279  0.3551
  778SOL    MW4 3112   4.322   3.871   1.147 -0.2208  0.0118 -0.0172
  779SOL     OW 3113   4.089   3.995   1.205  0.4627  0.3021 -0.4480
  779SOL    HW2 3114   4.071   4.081   1.167  0.5819 -0.5489 -2.4717
  779SOL    HW3 3115   4.013   3.942   1.183  0.1860 -0.0145  1.1729
  779SOL    MW4 3116   4.077   4.000   1.197  0.4419  0.1480 -0.5012
  780SOL     OW 3117   4.055   4.242   1.119 -0.3460 -0.0594  0.2028
  780SOL    HW2 3118   3.973   4.282   1.147  0.9031  2.1113  0.8771
  780SOL    HW3 3119   4.056   4.252   1.024  0.0082  1.6555  0.3793
  780SOL    MW4 3120   4.045   4.248   1.110 -0.1345  0.4533  0.3150
  781SOL     OW 3121   4.248   4.418   1.218 -0.0379  0.3817 -0.3828
  781SOL    HW2 3122   4.183   4.356   1.185 -0.9567  1.6578 -1.0087
  781SOL    HW3 3123   4.331   4.386   1.184 -0.5167 -0.4675 -0.7722
  781SOL    MW4 3124   4.250   4.406   1.209 -0.2223  0.4380 -0.5168
  782SOL     OW 3125   0.261   4.628   1.583 -0.6015  0.0680  0.2148
  782SOL    HW2 3126   0.337   4.681   1.560 -0.2943 -0.3402  0.2903
  782SOL    HW3 3127   0.189   4.668   1.535 -0.2370  0.1132 -0.3011
  782SOL    MW4 3128   0.262   4.640   1.574 -0.5129  0.0201  0.1567
  783SOL     OW 3129   0.025   0.063   1.457 -0.2496 -0.2298  0.0578
  783SOL    HW2 3130  -0.058   0.032   1.492 -0.4132  0.3739  0.2232
  783SOL    HW3 3131   0.006   0.088   1.367 -0.6075  1.3171  0.5473
  783SOL    MW4 3132   0.012   0.063   1.450 -0.3184  0.0539  0.1442
  784SOL     OW 3133   0.052   0.342   1.542  0.1460  0.2664 -0.6814
  784SOL    HW2 3134   0.037   0.336   1.637 -0.1990  0.2443 -0.7374
  784SOL    HW3 3135   0.054   0.251   1.513 -1.7745  0.3215 -1.0128
  784SOL    MW4 3136   0.051   0.329   1.551 -0.1529  0.2707 -0.7325
  785SOL     OW 3137   0.273   0.503   1.467  0.0863  0.9164 -0.0302
  785SOL    HW2 3138   0.187   0.468   1.488  0.6555  0.3071  1.3207
  785SOL    HW3 3139   0.281   0.492   1.372 -1.3292  1.0168 -0.1703
  785SOL    MW4 3140   0.263   0.497   1.457 -0.0253  0.8492  0.1295
  786SOL     OW 3141   0.235   0.755   1.544 -0.1055  0.1975 -0.6829
  786SOL    HW2 3142   0.310   0.808   1.518 -0.4940  1.0967  0.0104
  786SOL    HW3 3143   0.260   0.665   1.521  1.4280  0.4000  0.1173
  786SOL    MW4 3144   0.248   0.750   1.538  0.0455  0.3429 -0.4859
  787SOL     OW 3145   4.485   0.879   1.432  0.2090  0.4953  0.1310
  787SOL    HW2 3146   4.487   0.956   1.488  0.5911  0.6195 -0.0575
  787SOL    HW3 3147   4.564   0.830   1.455 -0.0518  0.1385  0.2789
  787SOL    MW4 3148   4.495   0.883   1.443  0.2250  0.4646  0.1256
  788SOL     OW 3149   0.019   1.107   1.585 -0.2239  0.4435 -0.1667
  788SOL    HW2 3150   0.011   1.121   1.679 -0.3666 -0.4252 -0.0474
  788SOL    HW3 3151   0.094   1.159   1.559 -1.3539  2.2513  0.0947
  788SOL    MW4 3152   0.028   1.116   1.594 -0.3918  0.5674 -0.1165
  789SOL     OW 3153   0.226   1.252   1.493  0.0479 -0.3556 -0.0517
  789SOL    HW2 3154   0.246   1.345   1.508  0.1949 -0.3853 -0.0649
  789SOL    HW3 3155   0.223   1.243   1.398 -0.8834 -0.1672 -0.0446
  789SOL    MW4 3156   0.228   1.263   1.482 -0.0556 -0.3347 -0.0525
  790SOL     OW 3157   0.217   1.527   1.571  0.0034  0.5370 -0.5867
  790SOL    HW2 3158   0.196   1.529   1.665  0.5021 -0.4085 -0.4461
  790SOL    HW3 3159   0.149   1.580   1.530 -2.0319 -1.5552 -0.0148
  790SOL    MW4 3160   0.205   1.534   1.578 -0.1993  0.1362 -0.4927
  791SOL     OW 3161   0.010   1.662   1.455  0.0479 -0.3193 -0.1136
  791SOL    HW2 3162   0.010   1.749   1.495 -1.7194 -0.5560  0.4151
  791SOL    HW3 3163   0.001   1.678   1.361 -0.0451  0.0658 -0.0389
  791SOL    MW4 3164   0.009   1.676   1.448 -0.1975 -0.2997 -0.0340
  792SOL     OW 3165   0.007   1.939   1.539  0.1915  0.3733  0.2726
  792SOL    HW2 3166   0.005   1.945   1.634 -0.7001 -0.4435  0.3166
  792SOL    HW3 3167  -0.079   1.972   1.512 -0.5621 -1.8209 -0.0900
  792SOL    MW4 3168  -0.005   1.945   1.548 -0.0256 -0.0239  0.2306
  793SOL     OW 3169   0.224   2.107   1.434 -0.1134 -0.1890  0.0520
  793SOL    HW2 3170   0.156   2.048   1.467  0.2195  0.0797  1.2462
  793SOL    HW3 3171   0.229   2.087   1.341 -0.1398 -1.9157  0.3983
  793SOL    MW4 3172   0.215   2.097   1.426 -0.0730 -0.3814  0.2552
  794SOL     OW 3173   0.305   2.339   1.550 -0.1778  0.0150 -0.0090
  794SOL    HW2 3174   0.294   2.316   1.642  0.3280 -0.7854 -0.1468
  794SOL    HW3 3175   0.292   2.257   1.502 -2.0965  0.7484 -0.7776
  794SOL    MW4 3176   0.302   2.325   1.556 -0.3642  0.0062 -0.1286
  795SOL     OW 3177   0.032   2.425   1.511  0.6444 -0.0051  0.1743
  795SOL    HW2 3178  -0.030   2.371   1.560 -0.1847  1.0748  0.3147
  795SOL    HW3 3179   0.118   2.389   1.533  0.1618 -0.6250  1.0554
  795SOL    MW4 3180   0.035   2.413   1.520  0.4713  0.0556  0.3091
  796SOL     OW 3181   0.005   2.692   1.581  0.1517  0.1487 -0.1596
  796SOL    HW2 3182  -0.077   2.728   1.547 -0.6220 -0.9939  0.4592
  796SOL    HW3 3183   0.002   2.600   1.555  1.1624  0.0661  0.0291
  796SOL    MW4 3184  -0.007   2.685   1.573  0.1829 -0.0130 -0.0531
  797SOL     OW 3185   0.232   2.836   1.470 -0.2450  0.4545 -0.2493
  797SOL    HW2 3186   0.305   2.802   1.521 -0.2787  0.6993 -0.0369
  797SOL    HW3 3187   0.155   2.789   1.503 -0.1708  0.1233 -0.5427
  797SOL    MW4 3188   0.232   2.825   1.481 -0.2397  0.4431 -0.2600
  798SOL     OW 3189   0.261   3.099   1.539  0.4535 -0.3729 -0.0608
  798SOL    HW2 3190   0.176   3.138   1.521  0.5224 -0.1257  0.1595
  798SOL    HW3 3191   0.250   3.006   1.516  0.2148 -0.2822 -0.3198
  798SOL    MW4 3192   0.249   3.092   1.533  0.4311 -0.3283 -0.0659
  799SOL     OW 3193   0.005   3.221   1.473  0.2965 -0.4977 -0.1037
  799SOL    HW2 3194   0.011   3.310   1.510  0.8370 -0.9033  0.8090
  799SOL    HW3 3195   0.023   3.233   1.380  0.0693  0.3935 -0.0439
  799SOL    MW4 3196   0.009   3.235   1.466  0.3379 -0.4337  0.0246
  800SOL     OW 3197   4.481   3.454   1.602 -0.1068 -0.8302  0.0032
  800SOL    HW2 3198   4.493   3.487   1.691  0.5015 -1.0203 -0.0068
  800SOL    HW3 3199   4.404   3.501   1.569 -1.0128 -1.5931  1.0214
  800SOL    MW4 3200   4.472   3.465   1.609 -0.1461 -0.9560  0.1362
  801SOL     OW 3201   0.218   3.590   1.497 -0.1391 -0.0853  0.1288
  801SOL    HW2 3202   0.229   3.678   1.532  0.8288 -0.0004 -0.3772
  801SOL    HW3 3203   0.132   3.563   1.528 -0.2682  0.8759  0.6360
  801SOL    MW4 3204   0.208   3.598   1.506 -0.0285  0.0527  0.1290
  802SOL     OW 3205   0.260   3.853   1.607 -0.1817  0.4877 -0.2575
  802SOL    HW2 3206   0.264   3.845   1.702  1.7529 -1.2241 -0.4417
  802SOL    HW3 3207   0.334   3.910   1.584 -0.0105  0.0437 -0.8193
  802SOL    MW4 3208   0.270   3.860   1.616  0.0961  0.2032 -0.3559
  803SOL     OW 3209   0.030   3.966   1.502 -0.2316 -0.0562 -0.0158
  803SOL    HW2 3210   0.027   4.054   1.539 -0.7063 -0.0010 -0.1884
  803SOL    HW3 3211   0.119   3.936   1.520 -0.1904  0.3054  0.3950
  803SOL    MW4 3212   0.041   3.974   1.509 -0.2888 -0.0012  0.0156
  804SOL     OW 3213   0.033   4.253   1.538  0.1097 -0.6456  0.4480
  804SOL    HW2 3214   0.032   4.248   1.634 -0.2220  0.7907  0.5327
  804SOL    HW3 3215  -0.047   4.300   1.516  0.2593 -0.8453 -0.5236
  804SOL    MW4 3216   0.022   4.259   1.548  0.0857 -0.4824  0.3310
  805SOL     OW 3217   0.264   4.394   1.448 -0.0201 -0.3073 -0.0949
  805SOL    HW2 3218   0.190   4.353   1.493 -1.8051  1.6044 -1.2246
  805SOL    HW3 3219   0.279   4.475   1.496  0.7268 -0.2151 -0.4729
  805SOL    MW4 3220   0.256   4.399   1.460 -0.1570 -0.0429 -0.2938
  806SOL     OW 3221   0.727   4.626   1.615  0.6568  0.2425  0.6129
  806SOL    HW2 3222   0.804   4.670   1.578 -0.8243  0.2549 -2.5474
  806SOL    HW3 3223   0.653   4.677   1.584 -0.8238 -1.5958  1.0572
  806SOL    MW4 3224   0.728   4.638   1.606  0.2660  0.0016  0.2546
  807SOL     OW 3225   0.486   0.069   1.490  0.6614 -0.5002  0.0375
  807SOL    HW2 3226   0.495   0.163   1.506  1.9447 -0.6542  0.3241
  807SOL    HW3 3227   0.487   0.061   1.395  3.0925 -0.4148  0.0232
  807SOL    MW4 3228   0.488   0.081   1.480  1.1515 -0.5092  0.0734
  808SOL     OW 3229   0.485   0.338   1.583 -0.2505 -0.1516  0.0977
  808SOL    HW2 3230   0.565   0.379   1.551  0.0186 -0.8756 -0.1578
  808SOL    HW3 3231   0.415   0.392   1.547  0.1261  0.6003  0.4873
  808SOL    MW4 3232   0.486   0.350   1.574 -0.1653 -0.1479  0.1154
  809SOL     OW 3233   0.719   0.476   1.503 -0.2143 -0.1153  0.0813
  809SOL    HW2 3234   0.679   0.558   1.531 -0.6504 -0.5446  0.7534
  809SOL    HW3 3235   0.713   0.476   1.408 -0.1932  0.6356  0.0815
  809SOL    MW4 3236   0.713   0.487   1.494 -0.2691 -0.0729  0.1700
  810SOL     OW 3237   0.644   0.731   1.558  0.5150  0.0451 -0.0492
  810SOL    HW2 3238   0.640   0.724   1.653 -0.8242  0.3864 -0.0758
  810SOL    HW3 3239   0.729   0.772   1.541  0.4788  0.5922  1.0327
  810SOL    MW4 3240   0.655   0.736   1.568  0.3335  0.1623  0.0901
  811SOL     OW 3241   0.440   0.891   1.431  0.1796 -0.5338  0.1230
  811SOL    HW2 3242   0.451   0.977   1.472  1.9290 -0.4257 -0.5233
  811SOL    HW3 3243   0.519   0.843   1.455  1.5657 -0.2520 -3.5746
  811SOL    MW4 3244   0.452   0.896   1.439  0.5933 -0.4824 -0.4502
  812SOL     OW 3245   0.474   1.134   1.551  0.5842 -0.0690 -0.5720
  812SOL    HW2 3246   0.534   1.197   1.512  0.1024  1.2301  0.7528
  812SOL    HW3 3247   0.388   1.174   1.542 -0.0674 -1.6824 -1.9801
  812SOL    MW4 3248   0.471   1.147   1.544  0.4347 -0.1104 -0.5830
  813SOL     OW 3249   0.679   1.299   1.461 -0.1952  0.0064 -0.2972
  813SOL    HW2 3250   0.678   1.392   1.487  0.8568 -0.2771  0.8130
  813SOL    HW3 3251   0.669   1.301   1.366  0.0244  1.2747 -0.3128
  813SOL    MW4 3252   0.677   1.312   1.452 -0.0274  0.1363 -0.1528
  814SOL     OW 3253   0.675   1.572   1.529 -0.4785 -0.5283 -0.2023
  814SOL    HW2 3254   0.744   1.633   1.501 -1.5296  1.4529  1.3717
  814SOL    HW3 3255   0.594   1.613   1.502 -1.2461 -0.8877  1.4666
  814SOL    MW4 3256   0.674   1.586   1.522 -0.7184 -0.3143  0.2256
  815SOL     OW 3257   0.442   1.673   1.434  0.0824  0.0807  0.1075
  815SOL    HW2 3258   0.419   1.762   1.459 -0.2012  0.1304 -0.3266
  815SOL    HW3 3259   0.371   1.619   1.469  1.6155 -0.2958  2.7281
  815SOL    MW4 3260   0.429   1.678   1.442  0.2472  0.0376  0.3960
  816SOL     OW 3261   0.422   1.926   1.507 -0.0931  0.1867 -0.3650
  816SOL    HW2 3262   0.426   1.951   1.599  0.4140  0.2157 -0.3913
  816SOL    HW3 3263   0.359   1.987   1.468 -2.0034 -1.2577  0.4070
  816SOL    MW4 3264   0.414   1.938   1.514 -0.2783 -0.0000 -0.2666
  817SOL     OW 3265   0.688   2.087   1.475  0.0600  0.0955 -0.0645
  817SOL    HW2 3266   0.770   2.050   1.506 -0.4844 -0.5105  0.6848
  817SOL    HW3 3267   0.623   2.018   1.490 -1.0645  1.5055  1.7774
  817SOL    MW4 3268   0.690   2.073   1.481 -0.1602  0.2016  0.2774
  818SOL     OW 3269   0.728   2.328   1.627 -0.1510  0.0541 -0.2015
  818SOL    HW2 3270   0.662   2.382   1.585  0.3832  0.1973 -0.8716
  818SOL    HW3 3271   0.733   2.249   1.573  0.7388  0.3631 -0.5819
  818SOL    MW4 3272   0.720   2.324   1.615  0.0369  0.1138 -0.3401
  819SOL     OW 3273   0.538   2.466   1.494  0.6775 -0.1095 -0.1105
  819SOL    HW2 3274   0.517   2.556   1.521  1.7925  0.7933 -2.1254
  819SOL    HW3 3275   0.457   2.418   1.508 -0.6097  1.7139 -1.0006
  819SOL    MW4 3276   0.525   2.472   1.499  0.6548  0.2502 -0.4938
  820SOL     OW 3277   0.465   2.730   1.574 -0.2536  0.0533  0.2061
  820SOL    HW2 3278   0.473   2.688   1.659  1.1668 -0.6748 -0.2748
  820SOL    HW3 3279   0.550   2.771   1.559 -0.0743 -0.8642 -1.3990
  820SOL    MW4 3280   0.478   2.730   1.583 -0.0425 -0.1638 -0.0691
  821SOL     OW 3281   0.696   2.847   1.490  0.6541 -0.4618 -0.0760
  821SOL    HW2 3282   0.689   2.940   1.511 -0.4784 -0.9373  1.8248
  821SOL    HW3 3283   0.692   2.843   1.395 -1.7468  1.2441 -0.0838
  821SOL    MW4 3284   0.695   2.859   1.480  0.1879 -0.2995  0.1737
  822SOL     OW 3285   0.654   3.109   1.573 -0.5624 -0.1355 -0.1671
  822SOL    HW2 3286   0.735   3.159   1.566 -0.2014 -0.8412 -1.1911
  822SOL    HW3 3287   0.591   3.155   1.518 -1.4790  1.5485  2.1779
  822SOL    MW4 3288   0.656   3.121   1.565 -0.6357 -0.0065  0.0072
  823SOL     OW 3289   0.471   3.245   1.427  0.1003  0.5174  0.1867
  823SOL    HW2 3290   0.395   3.191   1.449  0.7475  0.0075  1.1750
  823SOL    HW3 3291   0.474   3.243   1.331 -1.9266  1.6494  0.0695
  823SOL    MW4 3292   0.461   3.238   1.417 -0.0817  0.5995  0.3016
  824SOL     OW 3293   0.454   3.472   1.575 -0.3967  0.3854  0.3036
  824SOL    HW2 3294   0.460   3.392   1.523 -0.1614  1.0555 -0.7089
  824SOL    HW3 3295   0.374   3.516   1.544 -0.9091  0.2053  1.3428
  824SOL    MW4 3296   0.444   3.468   1.564 -0.4333  0.4501  0.3071
  825SOL     OW 3297   0.667   3.609   1.447 -0.1569 -0.7237  0.2000
  825SOL    HW2 3298   0.742   3.567   1.489 -1.0297 -0.5913  1.9472
  825SOL    HW3 3299   0.591   3.563   1.483 -0.9549 -0.3682 -0.9881
  825SOL    MW4 3300   0.667   3.597   1.457 -0.3773 -0.6593  0.2738
  826SOL     OW 3301   0.672   3.856   1.572 -0.0015 -0.3003 -0.2754
  826SOL    HW2 3302   0.736   3.896   1.513  0.0615  0.1110  0.0718
  826SOL    HW3 3303   0.663   3.766   1.540  1.1714 -0.5319  0.0247
  826SOL    MW4 3304   0.679   3.849   1.560  0.1616 -0.2766 -0.1900
  827SOL     OW 3305   0.465   4.009   1.491 -0.0280 -0.3572  0.1149
  827SOL    HW2 3306   0.539   3.957   1.521  0.3603 -0.1640 -0.4885
  827SOL    HW3 3307   0.464   3.997   1.396 -1.1826 -0.9050  0.1834
  827SOL    MW4 3308   0.475   4.001   1.482 -0.1291 -0.4040  0.0444
  828SOL     OW 3309   0.458   4.271   1.592  0.6143 -0.2027 -0.1048
  828SOL    HW2 3310   0.465   4.180   1.562  0.3749  0.2824 -1.6758
  828SOL    HW3 3311   0.402   4.313   1.526 -2.0962  0.2866  2.3903
  828SOL    MW4 3312   0.451   4.265   1.579  0.2251 -0.0741  0.0172
  829SOL     OW 3313   0.668   4.386   1.470  0.3954 -0.4328  0.9638
  829SOL    HW2 3314   0.598   4.340   1.515 -0.4492 -0.4176 -0.3039
  829SOL    HW3 3315   0.685   4.463   1.524 -0.4752 -0.5065  1.3532
  829SOL    MW4 3316   0.661   4.390   1.483  0.1691 -0.4405  0.8480
  830SOL     OW 3317   1.123   4.596   1.577  0.3779 -0.1474  0.0761
  830SOL    HW2 3318   1.122   4.614   1.671  3.1607  0.1301  0.1047
  830SOL    HW3 3319   1.198   4.646   1.544  0.1050 -1.1212 -2.1093
  830SOL    MW4 3320   1.133   4.605   1.585  0.7090 -0.2392 -0.2084
  831SOL     OW 3321   0.915   0.078   1.466 -0.0859  0.0784  0.3891
  831SOL    HW2 3322   0.922   0.157   1.520 -0.9440  0.0536  0.5415
  831SOL    HW3 3323   0.981   0.018   1.503 -1.1269 -0.1841  1.8516
  831SOL    MW4 3324   0.925   0.080   1.478 -0.3364  0.0405  0.6022
  832SOL     OW 3325   0.913   0.310   1.611  0.0320 -0.1516 -0.3559
  832SOL    HW2 3326   0.906   0.313   1.707 -0.5593 -0.7505 -0.3746
  832SOL    HW3 3327   0.834   0.356   1.580  0.5182  0.5623 -0.5612
  832SOL    MW4 3328   0.901   0.317   1.620  0.0182 -0.1364 -0.3855
  833SOL     OW 3329   1.102   0.482   1.460 -0.1593  0.4041 -0.0875
  833SOL    HW2 3330   1.102   0.571   1.494 -0.6302  1.2661 -2.2210
  833SOL    HW3 3331   1.054   0.431   1.525 -2.5147  2.3052 -0.2405
  833SOL    MW4 3332   1.096   0.487   1.473 -0.5322  0.7687 -0.3892
  834SOL     OW 3333   1.119   0.742   1.561  0.1754 -0.3429  0.2949
  834SOL    HW2 3334   1.124   0.756   1.655 -0.4906  0.6478  0.1860
  834SOL    HW3 3335   1.190   0.795   1.525 -1.4059  1.6640  0.0113
  834SOL    MW4 3336   1.129   0.751   1.569 -0.1211  0.0526  0.2431
  835SOL     OW 3337   0.876   0.865   1.475 -0.1227 -0.0843  0.3994
  835SOL    HW2 3338   0.956   0.816   1.498 -0.2912  0.1360  1.4948
  835SOL    HW3 3339   0.880   0.874   1.380  1.5844  0.6504  0.5264
  835SOL    MW4 3340   0.887   0.860   1.466  0.0803  0.0417  0.5607
  836SOL     OW 3341   0.889   1.137   1.540  0.2583 -0.3990 -0.1689
  836SOL    HW2 3342   0.877   1.048   1.507  0.2913 -0.5228  0.1514
  836SOL    HW3 3343   0.808   1.182   1.516 -0.2497 -0.8346  0.6793
  836SOL    MW4 3344   0.876   1.131   1.533  0.1957 -0.4728 -0.0147
  837SOL     OW 3345   1.112   1.288   1.470 -0.0454  0.2354  0.1859
  837SOL    HW2 3346   1.182   1.249   1.523 -0.2790 -0.7513 -0.2281
  837SOL    HW3 3347   1.035   1.233   1.487  0.1287 -0.6983 -1.9573
  837SOL    MW4 3348   1.111   1.276   1.479 -0.0532 -0.0179 -0.1515
  838SOL     OW 3349   1.089   1.546   1.557 -0.3568  0.0291  0.3850
  838SOL    HW2 3350   1.172   1.584   1.527 -0.3980 -0.2341 -0.0736
  838SOL    HW3 3351   1.096   1.453   1.533 -0.8420  0.0352  0.2267
  838SOL    MW4 3352   1.101   1.539   1.550 -0.4263 -0.0048  0.3036
  839SOL     OW 3353   0.902   1.728   1.442  0.1712  0.2668 -0.3830
  839SOL    HW2 3354   0.963   1.657   1.461  1.7538  1.6282 -0.1806
  839SOL    HW3 3355   0.881   1.719   1.349 -0.0903 -0.7985 -0.2173
  839SOL    MW4 3356   0.907   1.718   1.432  0.3455  0.3058 -0.3344
  840SOL     OW 3357   0.900   1.954   1.573  0.2031  0.1517  0.0284
  840SOL    HW2 3358   0.986   1.988   1.551  0.2932  0.1839  0.4293
  840SOL    HW3 3359   0.892   1.874   1.520  0.9864 -0.5212  0.9252
  840SOL    MW4 3360   0.910   1.948   1.563  0.3183  0.0672  0.1996
  841SOL     OW 3361   1.124   2.065   1.461  0.5091  0.2230 -0.0278
  841SOL    HW2 3362   1.200   2.023   1.501  1.0063  1.2188  0.0888
  841SOL    HW3 3363   1.131   2.157   1.486  0.0262  0.5868 -1.1638
  841SOL    MW4 3364   1.135   2.071   1.469  0.5110  0.4024 -0.1623
  842SOL     OW 3365   1.115   2.348   1.550 -0.3996 -0.1493  0.1313
  842SOL    HW2 3366   1.185   2.405   1.519 -0.2956 -0.2010  0.2691
  842SOL    HW3 3367   1.035   2.386   1.514 -0.3805  0.3542  0.6135
  842SOL    MW4 3368   1.113   2.360   1.541 -0.3833 -0.0897  0.2131
  843SOL     OW 3369   0.881   2.455   1.453 -0.0731  0.3163  0.0538
  843SOL    HW2 3370   0.902   2.542   1.486 -2.4234  1.2578 -0.8652
  843SOL    HW3 3371   0.831   2.414   1.525  1.0612 -0.3086  0.5012
  843SOL    MW4 3372   0.877   2.461   1.467 -0.2336  0.3581 -0.0084
  844SOL     OW 3373   0.937   2.697   1.546 -0.1110 -0.1559  0.0974
  844SOL    HW2 3374   0.916   2.671   1.635 -0.3872 -0.5951 -0.0941
  844SOL    HW3 3375   0.870   2.761   1.522 -0.3205 -0.4007  0.0327
  844SOL    MW4 3376   0.926   2.702   1.554 -0.1750 -0.2461  0.0636
  845SOL     OW 3377   1.137   2.883   1.438 -0.0209  0.1903  0.5643
  845SOL    HW2 3378   1.132   2.970   1.479 -0.5158 -0.5875  2.2278
  845SOL    HW3 3379   1.074   2.830   1.487  0.9489 -1.3479  0.2001
  845SOL    MW4 3380   1.128   2.888   1.450  0.0418 -0.1152  0.7357
  846SOL     OW 3381   1.107   3.110   1.583 -1.1178 -0.6320  0.0292
  846SOL    HW2 3382   1.097   3.094   1.677 -0.2031 -0.7729  0.1062
  846SOL    HW3 3383   1.190   3.156   1.575 -1.0308 -0.9153 -0.7404
  846SOL    MW4 3384   1.116   3.114   1.594 -0.9857 -0.6880 -0.0622
  847SOL     OW 3385   0.876   3.218   1.465  0.2147  0.2326 -0.1594
  847SOL    HW2 3386   0.952   3.173   1.501  0.6957  0.9530 -0.2616
  847SOL    HW3 3387   0.891   3.219   1.371  0.2768  0.7282 -0.1465
  847SOL    MW4 3388   0.888   3.212   1.457  0.2863  0.3931 -0.1712
  848SOL     OW 3389   0.867   3.464   1.590  0.2571 -0.4381  0.1384
  848SOL    HW2 3390   0.943   3.509   1.554 -0.5998  0.5667 -0.4475
  848SOL    HW3 3391   0.871   3.376   1.553  0.4404 -0.0046 -0.8752
  848SOL    MW4 3392   0.878   3.458   1.580  0.1682 -0.2484 -0.0726
  849SOL     OW 3393   1.078   3.608   1.471 -0.3888 -0.3319 -0.0879
  849SOL    HW2 3394   1.143   3.546   1.504 -0.9517 -0.9965 -0.2126
  849SOL    HW3 3395   1.093   3.610   1.376 -1.6799 -1.8236 -0.3463
  849SOL    MW4 3396   1.089   3.600   1.463 -0.6334 -0.6164 -0.1384
  850SOL     OW 3397   1.104   3.864   1.571  0.0600 -0.2601  0.1926
  850SOL    HW2 3398   1.181   3.903   1.529  0.9141 -0.9939  1.0733
  850SOL    HW3 3399   1.094   3.779   1.529 -0.6106  0.0530 -0.3035
  850SOL    MW4 3400   1.113   3.858   1.560  0.0842 -0.3156  0.2433
  851SOL     OW 3401   0.880   3.977   1.444  0.0710  0.3609  0.2228
  851SOL    HW2 3402   0.899   4.068   1.469  0.1792  0.3805  0.0713
  851SOL    HW3 3403   0.940   3.925   1.497 -1.2260  0.2583  1.6492
  851SOL    MW4 3404   0.890   3.982   1.455 -0.0858  0.3499  0.3910
  852SOL     OW 3405   0.883   4.231   1.557 -0.1350 -0.6980  0.1016
  852SOL    HW2 3406   0.877   4.246   1.651  2.1334  2.1620 -0.1401
  852SOL    HW3 3407   0.801   4.263   1.522 -0.6023 -0.9054  0.9796
  852SOL    MW4 3408   0.871   4.237   1.565  0.1027 -0.3481  0.1855
  853SOL     OW 3409   1.121   4.338   1.487 -0.5405 -0.2442  0.2637
  853SOL    HW2 3410   1.048   4.290   1.526 -0.4412  0.2807  1.0944
  853SOL    HW3 3411   1.110   4.428   1.517  0.3589 -0.1267  0.2565
  853SOL    MW4 3412   1.110   4.344   1.496 -0.4087 -0.1595  0.3724
  854SOL     OW 3413   1.565   4.613   1.590  0.0036  0.2033 -0.5276
  854SOL    HW2 3414   1.556   4.643   1.681 -0.4809 -0.5885 -0.3141
  854SOL    HW3 3415   1.484   4.641   1.547  1.6728  3.6780 -1.6218
  854SOL    MW4 3416   1.553   4.621   1.596  0.1599  0.5572 -0.6438
  855SOL     OW 3417   1.351   0.063   1.465 -0.2140 -0.2499 -0.2840
  855SOL    HW2 3418   1.329   0.154   1.485 -0.6893 -0.4650  0.1850
  855SOL    HW3 3419   1.356   0.060   1.369 -1.1508  0.0452 -0.3449
  855SOL    MW4 3420   1.349   0.075   1.455 -0.4003 -0.2394 -0.2302
  856SOL     OW 3421   1.308   0.328   1.550  0.1631  0.0695  0.1305
  856SOL    HW2 3422   1.383   0.380   1.523 -0.7314  0.9287 -0.7264
  856SOL    HW3 3423   1.233   0.369   1.507 -0.5490 -1.9946 -0.7039
  856SOL    MW4 3424   1.308   0.340   1.541 -0.0489 -0.0895 -0.0926
  857SOL     OW 3425   1.523   0.470   1.457 -0.2738 -0.2681  0.4609
  857SOL    HW2 3426   1.609   0.439   1.484  0.3518  0.2251 -0.9332
  857SOL    HW3 3427   1.528   0.475   1.362 -1.6035  0.4595  0.4213
  857SOL    MW4 3428   1.535   0.467   1.448 -0.3667 -0.1070  0.2717
  858SOL     OW 3429   1.529   0.741   1.561  0.1324 -0.5114  0.6999
  858SOL    HW2 3430   1.527   0.737   1.657 -1.4469 -0.0282  0.7118
  858SOL    HW3 3431   1.547   0.652   1.533  0.4639 -0.6806  1.4579
  858SOL    MW4 3432   1.531   0.729   1.570 -0.0322 -0.4700  0.8015
  859SOL     OW 3433   1.320   0.902   1.460  0.2286 -0.5433  0.7294
  859SOL    HW2 3434   1.403   0.858   1.478  0.6405  0.5343  1.5185
  859SOL    HW3 3435   1.316   0.907   1.364  0.1562 -2.2865  0.6142
  859SOL    MW4 3436   1.330   0.897   1.449  0.2734 -0.6311  0.8183
  860SOL     OW 3437   1.321   1.153   1.574 -0.2427 -0.5745 -0.2756
  860SOL    HW2 3438   1.333   1.133   1.667  0.0946 -0.1920 -0.2339
  860SOL    HW3 3439   1.320   1.067   1.531 -1.1194 -0.7864  0.1630
  860SOL    MW4 3440   1.323   1.139   1.581 -0.3138 -0.5520 -0.2122
  861SOL     OW 3441   1.574   1.261   1.514  0.3191  0.1669  0.0419
  861SOL    HW2 3442   1.487   1.224   1.528  0.3022  0.2327  0.1081
  861SOL    HW3 3443   1.590   1.249   1.420  1.5118 -2.6478  0.5555
  861SOL    MW4 3444   1.564   1.255   1.504  0.4743 -0.1958  0.1184
  862SOL     OW 3445   1.525   1.534   1.564 -0.1038 -0.0033 -0.1259
  862SOL    HW2 3446   1.547   1.541   1.656 -1.1605 -0.2582  0.1524
  862SOL    HW3 3447   1.535   1.441   1.544  0.1080  0.0489 -0.2597
  862SOL    MW4 3448   1.529   1.523   1.573 -0.2153 -0.0300 -0.1069
  863SOL     OW 3449   1.316   1.694   1.478 -0.0300  0.0777 -0.1273
  863SOL    HW2 3450   1.387   1.638   1.509 -0.7235 -0.6242  0.1876
  863SOL    HW3 3451   1.317   1.684   1.383  0.6961  0.5617 -0.1778
  863SOL    MW4 3452   1.325   1.685   1.469 -0.0257  0.0490 -0.0924
  864SOL     OW 3453   1.320   1.930   1.589  0.0116  0.1718  0.0663
  864SOL    HW2 3454   1.346   1.919   1.680 -1.9455  0.0961  0.6411
  864SOL    HW3 3455   1.309   1.841   1.556  0.6867  0.1992 -0.2420
  864SOL    MW4 3456   1.322   1.917   1.596 -0.1575  0.1654  0.1015
  865SOL     OW 3457   1.532   2.084   1.503 -0.3097  0.7145 -0.7484
  865SOL    HW2 3458   1.463   2.021   1.523  0.7954  0.1541  1.5492
  865SOL    HW3 3459   1.550   2.072   1.410 -1.5896 -0.8693 -0.8124
  865SOL    MW4 3460   1.525   2.075   1.493 -0.3328  0.4316 -0.4537
  866SOL     OW 3461   1.544   2.338   1.543 -0.2908  0.7262  0.1451
  866SOL    HW2 3462   1.628   2.354   1.501 -1.1159  0.1431 -1.7564
  866SOL    HW3 3463   1.532   2.243   1.539 -0.0902  0.5638  2.3373
  866SOL    MW4 3464   1.554   2.328   1.537 -0.3732  0.6279  0.1835
  867SOL     OW 3465   1.332   2.499   1.453 -0.5288 -0.5258  0.4591
  867SOL    HW2 3466   1.333   2.585   1.495 -2.4083 -0.4973  0.4779
  867SOL    HW3 3467   1.399   2.449   1.499  0.5505  0.9015  0.4772
  867SOL    MW4 3468   1.341   2.504   1.464 -0.6344 -0.3337  0.4639
  868SOL     OW 3469   1.332   2.745   1.575 -0.1176  0.4066 -0.5412
  868SOL    HW2 3470   1.421   2.772   1.550 -0.2470  0.3767 -1.0402
  868SOL    HW3 3471   1.275   2.792   1.514 -0.4736  0.8012  0.0919
  868SOL    MW4 3472   1.336   2.755   1.564 -0.1816  0.4547 -0.5235
  869SOL     OW 3473   1.573   2.818   1.477 -0.7963 -0.0875 -0.5903
  869SOL    HW2 3474   1.653   2.766   1.479 -0.9301 -0.2858 -0.2960
  869SOL    HW3 3475   1.565   2.848   1.387 -0.9376 -0.9191 -0.8485
  869SOL    MW4 3476   1.582   2.815   1.466 -0.8326 -0.2234 -0.5855
  870SOL     OW 3477   1.559   3.073   1.600 -0.7118 -0.4892 -0.0586
  870SOL    HW2 3478   1.630   3.124   1.562 -1.9900  0.6756 -0.9332
  870SOL    HW3 3479   1.572   2.985   1.565  0.4189 -0.3457 -0.0316
  870SOL    MW4 3480   1.570   3.068   1.591 -0.7313 -0.3166 -0.1704
  871SOL     OW 3481   1.347   3.207   1.456 -0.6476  0.0831 -0.0803
  871SOL    HW2 3482   1.356   3.293   1.497  0.0323 -0.8503  1.8205
  871SOL    HW3 3483   1.416   3.154   1.497 -0.5345 -1.1539 -1.8132
  871SOL    MW4 3484   1.357   3.211   1.467 -0.5430 -0.2032 -0.0581
  872SOL     OW 3485   1.318   3.455   1.564 -0.3312 -0.2579 -0.0719
  872SOL    HW2 3486   1.315   3.445   1.659  0.8958 -0.4867 -0.0429
  872SOL    HW3 3487   1.395   3.510   1.549 -0.5725 -0.1485 -0.9297
  872SOL    MW4 3488   1.328   3.461   1.575 -0.2012 -0.2736 -0.1812
  873SOL     OW 3489   1.558   3.606   1.498 -0.7201  0.0426  0.6383
  873SOL    HW2 3490   1.568   3.698   1.523 -2.2510 -0.1529  2.0704
  873SOL    HW3 3491   1.574   3.605   1.404 -0.3146  1.7152  0.6675
  873SOL    MW4 3492   1.561   3.618   1.489 -0.8686  0.2375  0.8311
  874SOL     OW 3493   1.582   3.874   1.561 -0.0439 -0.5041  0.4419
  874SOL    HW2 3494   1.551   3.855   1.649 -1.9600  1.4964  0.2439
  874SOL    HW3 3495   1.504   3.901   1.513  0.8222 -2.3504 -2.1224
  874SOL    MW4 3496   1.568   3.875   1.566 -0.1825 -0.4838  0.0775
  875SOL     OW 3497   1.341   3.958   1.462  0.2883  0.2857  0.4943
  875SOL    HW2 3498   1.368   4.047   1.487  0.6939  0.3388 -0.0976
  875SOL    HW3 3499   1.351   3.957   1.367 -2.0050  0.3516  0.2249
  875SOL    MW4 3500   1.346   3.970   1.453  0.0392  0.3014  0.3806
  876SOL     OW 3501   1.351   4.233   1.582  0.1371  0.2354  0.6770
  876SOL    HW2 3502   1.434   4.273   1.555 -0.4286  0.6274 -0.5388
  876SOL    HW3 3503   1.284   4.293   1.547 -0.6405  0.2588  2.1921
  876SOL    MW4 3504   1.353   4.246   1.574 -0.0401  0.2902  0.7165
  877SOL     OW 3505   1.597   4.359   1.500  0.2628 -0.1249  0.0689
  877SOL    HW2 3506   1.674   4.316   1.537 -0.8555 -1.8038  0.5169
  877SOL    HW3 3507   1.592   4.443   1.545  2.7243  0.7200 -1.1088
  877SOL    MW4 3508   1.607   4.364   1.511  0.4400 -0.2349 -0.0274
  878SOL     OW 3509   1.997   4.630   1.574 -0.0083  0.0625  0.1217
  878SOL    HW2 3510   1.992   4.637   1.669  1.1028 -0.4005  0.2294
  878SOL    HW3 3511   1.928   4.687   1.541  0.3734  1.1643  1.1973
  878SOL    MW4 3512   1.988   4.639   1.582  0.1887  0.1468  0.2778
  879SOL     OW 3513   1.770   0.082   1.466  0.2684 -0.0343  0.2591
  879SOL    HW2 3514   1.689   0.037   1.492  0.0504  0.5646  0.6297
  879SOL    HW3 3515   1.762   0.092   1.371 -0.6705  1.1370  0.4531
  879SOL    MW4 3516   1.758   0.077   1.457  0.1157  0.1993  0.3336
  880SOL     OW 3517   1.775   0.369   1.521 -0.2621 -0.0827  0.3096
  880SOL    HW2 3518   1.859   0.404   1.493 -0.0763  1.6761  2.9079
  880SOL    HW3 3519   1.781   0.275   1.502  2.7159 -0.1778  1.3802
  880SOL    MW4 3520   1.787   0.361   1.515  0.1553  0.1368  0.7937
  881SOL     OW 3521   2.022   0.470   1.430  0.6050  0.5009  0.2927
  881SOL    HW2 3522   2.108   0.436   1.454  0.9898  0.3483 -1.2260
  881SOL    HW3 3523   2.024   0.563   1.455  0.8327  0.2522  1.1979
  881SOL    MW4 3524   2.033   0.478   1.436  0.6858  0.4479  0.2118
  882SOL     OW 3525   2.006   0.736   1.551  0.0159 -0.0541  0.0680
  882SOL    HW2 3526   2.082   0.792   1.533  0.4646 -0.1166  1.6509
  882SOL    HW3 3527   1.932   0.781   1.510  0.4218  1.5454  1.0517
  882SOL    MW4 3528   2.007   0.750   1.543  0.1287  0.1487  0.4066
  883SOL     OW 3529   1.761   0.848   1.471 -0.0646  0.0236  0.2595
  883SOL    HW2 3530   1.763   0.940   1.499 -0.9971  0.5288 -1.2633
  883SOL    HW3 3531   1.676   0.815   1.503 -1.2536  0.6786 -2.1026
  883SOL    MW4 3532   1.750   0.856   1.479 -0.3445  0.1767 -0.2530
  884SOL     OW 3533   1.782   1.089   1.577  0.2089 -0.2450 -0.0154
  884SOL    HW2 3534   1.848   1.139   1.528 -0.1611 -0.4520 -0.7269
  884SOL    HW3 3535   1.702   1.141   1.570  0.1094 -0.3700  0.2028
  884SOL    MW4 3536   1.780   1.103   1.569  0.1470 -0.2888 -0.0805
  885SOL     OW 3537   1.977   1.234   1.430 -0.0331  0.4560 -0.1775
  885SOL    HW2 3538   1.953   1.322   1.459 -1.5840  0.1446 -0.4433
  885SOL    HW3 3539   2.013   1.246   1.342  0.0374  0.8574 -0.0917
  885SOL    MW4 3540   1.978   1.247   1.422 -0.2285  0.4679 -0.2013
  886SOL     OW 3541   1.962   1.507   1.542  0.0482 -0.3641 -0.0883
  886SOL    HW2 3542   2.039   1.559   1.521  1.2226 -1.2924  1.7943
  886SOL    HW3 3543   1.889   1.568   1.533  1.0734  0.7632 -0.9861
  886SOL    MW4 3544   1.962   1.522   1.538  0.3384 -0.3378  0.0417
  887SOL     OW 3545   1.742   1.677   1.500 -0.0719 -0.0012  0.5718
  887SOL    HW2 3546   1.664   1.626   1.523  0.3058 -0.7286  0.2721
  887SOL    HW3 3547   1.747   1.671   1.405  0.6027 -0.3413  0.6240
  887SOL    MW4 3548   1.733   1.669   1.491  0.0669 -0.1420  0.5392
  888SOL     OW 3549   1.767   1.946   1.576  0.0013  0.4826 -0.2853
  888SOL    HW2 3550   1.751   1.854   1.555  0.3015  0.1249  1.0376
  888SOL    HW3 3551   1.688   1.991   1.545 -1.3623 -0.5922  1.5205
  888SOL    MW4 3552   1.754   1.940   1.569 -0.1390  0.2936  0.1275
  889SOL     OW 3553   2.025   2.049   1.530 -0.2335 -0.3006 -0.2881
  889SOL    HW2 3554   2.089   1.986   1.561  0.0127  0.1565  0.1369
  889SOL    HW3 3555   1.940   2.009   1.551 -0.0657  0.0650  1.1004
  889SOL    MW4 3556   2.022   2.035   1.537 -0.1789 -0.1920 -0.0488
  890SOL     OW 3557   2.020   2.309   1.555 -0.6588  0.2334 -0.1420
  890SOL    HW2 3558   2.022   2.327   1.649 -0.4196  1.5594 -0.3788
  890SOL    HW3 3559   2.022   2.214   1.548  1.7830  0.1463  1.1377
  890SOL    MW4 3560   2.020   2.299   1.566 -0.3051  0.3968 -0.0044
  891SOL     OW 3561   1.825   2.444   1.419  0.1058 -0.2385 -0.1130
  891SOL    HW2 3562   1.891   2.388   1.461  0.7988  0.5487 -0.1433
  891SOL    HW3 3563   1.841   2.434   1.325  1.1435  1.0915 -0.0876
  891SOL    MW4 3564   1.836   2.435   1.412  0.3342  0.0408 -0.1137
  892SOL     OW 3565   1.805   2.676   1.551 -0.5690  0.0062 -0.0542
  892SOL    HW2 3566   1.879   2.730   1.521  0.3275 -0.9761  0.3381
  892SOL    HW3 3567   1.814   2.594   1.503 -1.7650  0.0965 -0.4444
  892SOL    MW4 3568   1.816   2.672   1.541 -0.6085 -0.1115 -0.0539
  893SOL     OW 3569   2.035   2.820   1.485  0.3215  0.2880  0.2500
  893SOL    HW2 3570   2.027   2.912   1.512 -0.9234  0.4032 -0.4840
  893SOL    HW3 3571   2.053   2.825   1.391  1.7164 -0.1956  0.4745
  893SOL    MW4 3572   2.036   2.833   1.476  0.3413  0.2394  0.1828
  894SOL     OW 3573   1.986   3.074   1.570 -0.1556 -0.2780  0.0273
  894SOL    HW2 3574   1.999   3.057   1.664 -0.3675  0.6584  0.2382
  894SOL    HW3 3575   2.065   3.121   1.544  0.3367 -1.3837 -0.4954
  894SOL    MW4 3576   1.998   3.078   1.579 -0.1186 -0.3003 -0.0139
  895SOL     OW 3577   1.785   3.215   1.461  0.3314 -0.5388  0.2066
  895SOL    HW2 3578   1.790   3.294   1.515  0.7902 -1.4905  1.5907
  895SOL    HW3 3579   1.849   3.156   1.500 -1.0392 -2.1300  0.0743
  895SOL    MW4 3580   1.794   3.218   1.473  0.2111 -0.8743  0.3718
  896SOL     OW 3581   1.796   3.479   1.589  0.1262  0.0138  0.2584
  896SOL    HW2 3582   1.797   3.468   1.684 -1.6889  0.2047  0.3222
  896SOL    HW3 3583   1.710   3.517   1.571  0.4319 -0.1000 -1.4766
  896SOL    MW4 3584   1.785   3.483   1.599 -0.0729  0.0240  0.0379
  897SOL     OW 3585   2.039   3.596   1.479  0.1723  0.1299  0.0335
  897SOL    HW2 3586   2.110   3.555   1.528 -0.2822 -0.4529  0.2059
  897SOL    HW3 3587   1.960   3.550   1.508 -0.2733  0.7629 -0.1704
  897SOL    MW4 3588   2.038   3.585   1.489  0.0536  0.1365  0.0294
  898SOL     OW 3589   2.006   3.854   1.536  0.1455  0.5173  0.0297
  898SOL    HW2 3590   2.091   3.897   1.539  1.1214 -1.5237  1.9923
  898SOL    HW3 3591   2.024   3.766   1.502 -1.2278  0.1618  0.1851
  898SOL    MW4 3592   2.019   3.848   1.532  0.0930  0.2011  0.3091
  899SOL     OW 3593   1.783   4.007   1.444  0.1344  0.2605  0.4164
  899SOL    HW2 3594   1.855   3.946   1.455  1.0335  1.5466  1.9909
  899SOL    HW3 3595   1.710   3.968   1.493  0.2464 -0.2571  0.1715
  899SOL    MW4 3596   1.783   3.994   1.452  0.2678  0.3619  0.5918
  900SOL     OW 3597   1.813   4.224   1.591  0.3374  0.0451  0.6413
  900SOL    HW2 3598   1.876   4.272   1.538 -0.4791  0.1194 -0.2661
  900SOL    HW3 3599   1.800   4.141   1.544 -0.8475  0.3619  0.3952
  900SOL    MW4 3600   1.820   4.219   1.578  0.0733  0.0967  0.4891
  901SOL     OW 3601   2.027   4.360   1.487 -0.0790 -0.2212 -0.0209
  901SOL    HW2 3602   2.106   4.327   1.529 -0.1664 -0.6368 -0.1786
  901SOL    HW3 3603   2.027   4.453   1.506  1.5615  0.1679 -1.8110
  901SOL    MW4 3604   2.038   4.368   1.495  0.1259 -0.2247 -0.2779
  902SOL     OW 3605   2.483   4.612   1.575  0.0454  0.0389  0.1161
  902SOL    HW2 3606   2.489   4.624   1.669 -1.9474  0.0685  0.2637
  902SOL    HW3 3607   2.401   4.655   1.550 -0.0226 -0.9311 -1.4552
  902SOL    MW4 3608   2.473   4.619   1.584 -0.2265 -0.0852 -0.0718
  903SOL     OW 3609   2.252   0.077   1.493 -0.4963  0.1857  0.2487
  903SOL    HW2 3610   2.178   0.024   1.522  0.0703 -0.5575  0.3605
  903SOL    HW3 3611   2.242   0.082   1.398 -1.2463  0.9419  0.3628
  903SOL    MW4 3612   2.241   0.071   1.484 -0.5205  0.1874  0.2785
  904SOL     OW 3613   2.254   0.367   1.529 -0.0424  0.4971 -0.3274
  904SOL    HW2 3614   2.264   0.384   1.622  0.5182 -0.3282 -0.2249
  904SOL    HW3 3615   2.261   0.271   1.521 -1.4696  0.4423 -1.0499
  904SOL    MW4 3616   2.256   0.356   1.540 -0.1568  0.3810 -0.4092
  905SOL     OW 3617   2.487   0.516   1.493 -0.4012 -0.3942  0.1352
  905SOL    HW2 3618   2.569   0.477   1.523  0.1655 -0.3029 -1.2743
  905SOL    HW3 3619   2.420   0.452   1.517  0.1730 -0.8386  0.5654
  905SOL    MW4 3620   2.489   0.503   1.500 -0.2507 -0.4408  0.0060
  906SOL     OW 3621   2.457   0.793   1.549 -0.8361 -0.0286  0.2737
  906SOL    HW2 3622   2.372   0.824   1.519 -0.8391 -0.3714 -0.0704
  906SOL    HW3 3623   2.459   0.700   1.525 -0.3200  0.0079  0.1672
  906SOL    MW4 3624   2.446   0.785   1.542 -0.7684 -0.0690  0.2143
  907SOL     OW 3625   2.214   0.900   1.464 -0.3451  0.0790 -0.5239
  907SOL    HW2 3626   2.216   0.989   1.499 -1.2200 -0.5376  1.1464
  907SOL    HW3 3627   2.188   0.910   1.373  0.9623  1.6358 -0.7431
  907SOL    MW4 3628   2.211   0.913   1.457 -0.2881  0.2030 -0.3324
  908SOL     OW 3629   2.236   1.179   1.548  0.4094  0.3207 -0.3059
  908SOL    HW2 3630   2.229   1.167   1.643  0.8392  0.0423 -0.3119
  908SOL    HW3 3631   2.145   1.193   1.520  0.1839 -0.3981  0.0348
  908SOL    MW4 3632   2.223   1.179   1.557  0.4364  0.1892 -0.2618
  909SOL     OW 3633   2.480   1.272   1.462  0.2596 -0.2971 -0.1292
  909SOL    HW2 3634   2.394   1.236   1.480 -0.1413  0.9847  0.5948
  909SOL    HW3 3635   2.488   1.269   1.367 -0.4930 -0.6378 -0.1805
  909SOL    MW4 3636   2.470   1.267   1.452  0.1074 -0.1730 -0.0405
  910SOL     OW 3637   2.449   1.530   1.569  0.2550  0.3686 -0.4183
  910SOL    HW2 3638   2.535   1.572   1.560 -0.4428  1.5078 -1.7918
  910SOL    HW3 3639   2.461   1.444   1.529  0.9449  0.2468  0.0274
  910SOL    MW4 3640   2.462   1.524   1.563  0.2540  0.5028 -0.5407
  911SOL     OW 3641   2.195   1.644   1.503 -0.0627 -0.0914 -0.4605
  911SOL    HW2 3642   2.263   1.592   1.547  0.2863  1.1183  0.4625
  911SOL    HW3 3643   2.219   1.641   1.410 -1.0936 -3.1145 -0.6959
  911SOL    MW4 3644   2.207   1.636   1.497 -0.1527 -0.3306 -0.3698
  912SOL     OW 3645   2.251   1.898   1.594 -0.0185 -0.4871  0.0891
  912SOL    HW2 3646   2.243   1.909   1.689  0.4667  1.1257 -0.0434
  912SOL    HW3 3647   2.221   1.809   1.578 -0.3862 -0.6791  1.7249
  912SOL    MW4 3648   2.246   1.888   1.605 -0.0030 -0.2997  0.2874
  913SOL     OW 3649   2.487   2.013   1.495  0.0467  0.1280  0.2751
  913SOL    HW2 3650   2.416   1.955   1.523  0.3173 -0.1867  0.3139
  913SOL    HW3 3651   2.484   2.010   1.400 -0.3707  0.5779  0.2755
  913SOL    MW4 3652   2.477   2.005   1.486  0.0273  0.1458  0.2803
  914SOL     OW 3653   2.463   2.283   1.557  0.3579  0.3770  0.4308
  914SOL    HW2 3654   2.480   2.288   1.651 -1.4731 -0.2186  0.8132
  914SOL    HW3 3655   2.461   2.189   1.538 -1.1267  0.4482  0.1716
  914SOL    MW4 3656   2.465   2.271   1.567 -0.0796  0.3078  0.4471
  915SOL     OW 3657   2.261   2.432   1.458 -0.0356 -0.1458 -0.2200
  915SOL    HW2 3658   2.327   2.370   1.490  0.6489  1.6334  1.9978
  915SOL    HW3 3659   2.178   2.385   1.467  0.7228 -1.6858 -1.1286
  915SOL    MW4 3660   2.258   2.418   1.464  0.1548 -0.1142 -0.0473
  916SOL     OW 3661   2.255   2.685   1.595 -0.0346  0.0311  0.1259
  916SOL    HW2 3662   2.253   2.603   1.545 -0.6821 -0.2732  0.6361
  916SOL    HW3 3663   2.188   2.739   1.554  0.9399  0.6184 -0.7184
  916SOL    MW4 3664   2.246   2.681   1.583  0.0085  0.0684  0.0818
  917SOL     OW 3665   2.494   2.800   1.508 -0.1532  0.2766 -0.7062
  917SOL    HW2 3666   2.487   2.886   1.549 -1.5312  0.9180 -2.2442
  917SOL    HW3 3667   2.414   2.754   1.535  0.2230 -0.2728 -0.5023
  917SOL    MW4 3668   2.482   2.805   1.517 -0.2854  0.2888 -0.8822
  918SOL     OW 3669   2.487   3.079   1.584  0.1543  0.0853 -0.2083
  918SOL    HW2 3670   2.555   3.130   1.539 -0.1252  1.2291  0.6713
  918SOL    HW3 3671   2.405   3.115   1.553 -0.0468  1.0738  1.4102
  918SOL    MW4 3672   2.485   3.090   1.574  0.0909  0.3666  0.1213
  919SOL     OW 3673   2.252   3.200   1.516 -0.1307 -0.1275 -0.1934
  919SOL    HW2 3674   2.241   3.279   1.570  0.3608 -0.1110 -0.1180
  919SOL    HW3 3675   2.272   3.234   1.429  1.1622 -0.1853  0.0815
  919SOL    MW4 3676   2.253   3.215   1.512  0.1047 -0.1330 -0.1471
  920SOL     OW 3677   2.240   3.456   1.613  0.3546  0.5086  0.0898
  920SOL    HW2 3678   2.243   3.479   1.706  0.4481 -0.1918  0.2609
  920SOL    HW3 3679   2.308   3.509   1.573  0.1007  1.0549  0.3661
  920SOL    MW4 3680   2.249   3.466   1.620  0.3334  0.4883  0.1488
  921SOL     OW 3681   2.447   3.612   1.482  0.0710  0.1577 -0.5796
  921SOL    HW2 3682   2.522   3.572   1.524 -1.3159 -1.6512  0.2348
  921SOL    HW3 3683   2.448   3.703   1.512  1.2746 -0.1439  0.3073
  921SOL    MW4 3684   2.457   3.619   1.491  0.0468 -0.1207 -0.3552
  922SOL     OW 3685   2.477   3.854   1.604  0.2096  0.2474  0.1535
  922SOL    HW2 3686   2.480   3.862   1.700  0.3411  4.2668 -0.0986
  922SOL    HW3 3687   2.561   3.887   1.574 -0.5264  0.7561 -1.4202
  922SOL    MW4 3688   2.488   3.859   1.613  0.1299  0.8448 -0.0874
  923SOL     OW 3689   2.243   3.980   1.558 -0.5317  0.3207 -0.1104
  923SOL    HW2 3690   2.327   3.935   1.563 -0.5856  0.3869  1.3749
  923SOL    HW3 3691   2.230   3.995   1.464  0.1558 -1.4792 -0.5087
  923SOL    MW4 3692   2.252   3.976   1.546 -0.4481  0.0920  0.0330
  924SOL     OW 3693   2.242   4.257   1.619 -0.2182  0.3028 -0.0694
  924SOL    HW2 3694   2.322   4.289   1.579  0.3184 -1.4694 -0.4459
  924SOL    HW3 3695   2.239   4.164   1.597 -1.4497 -0.0478  1.4671
  924SOL    MW4 3696   2.252   4.249   1.611 -0.3099  0.0227  0.0836
  925SOL     OW 3697   2.502   4.354   1.515 -0.0362  0.1928  0.0173
  925SOL    HW2 3698   2.504   4.445   1.545 -0.4499  0.4530 -0.7394
  925SOL    HW3 3699   2.494   4.360   1.420  0.7985 -0.6316 -0.1092
  925SOL    MW4 3700   2.501   4.367   1.506  0.0194  0.1184 -0.0992
  926SOL     OW 3701   2.919   4.633   1.582  0.1904  0.4766 -0.3528
  926SOL    HW2 3702   2.908   4.635   1.677  0.6871  1.0722 -0.3078
  926SOL    HW3 3703   2.847   4.687   1.548 -1.1633 -1.3148 -0.4305
  926SOL    MW4 3704   2.908   4.641   1.590  0.0773  0.3188 -0.3571
  927SOL     OW 3705   2.691   0.093   1.466 -0.1346  0.3835  0.1130
  927SOL    HW2 3706   2.686   0.173   1.518 -1.0590  1.0186 -0.9326
  927SOL    HW3 3707   2.625   0.035   1.505 -0.2019  0.5215  0.2045
  927SOL    MW4 3708   2.682   0.096   1.478 -0.2654  0.4855 -0.0129
  928SOL     OW 3709   2.694   0.332   1.591 -0.3638 -0.0667  0.7093
  928SOL    HW2 3710   2.707   0.337   1.686 -1.7566 -0.7086  0.9516
  928SOL    HW3 3711   2.771   0.374   1.554  0.9817 -1.2309  2.1050
  928SOL    MW4 3712   2.705   0.338   1.599 -0.3701 -0.3050  0.9254
  929SOL     OW 3713   2.896   0.472   1.458  0.2578  0.1081 -0.2318
  929SOL    HW2 3714   2.923   0.557   1.495  1.1425 -0.2673 -0.0077
  929SOL    HW3 3715   2.887   0.489   1.365  0.3280  0.4778 -0.1733
  929SOL    MW4 3716   2.898   0.486   1.451  0.3838  0.1073 -0.1945
  930SOL     OW 3717   2.947   0.746   1.562  0.3988 -0.4447  0.3200
  930SOL    HW2 3718   2.948   0.778   1.653  0.3938  0.5458 -0.0258
  930SOL    HW3 3719   2.868   0.783   1.524  1.7513  1.2873 -0.8415
  930SOL    MW4 3720   2.937   0.755   1.569  0.5766 -0.0855  0.1211
  931SOL     OW 3721   2.706   0.898   1.507 -0.3165  0.1622 -0.0156
  931SOL    HW2 3722   2.626   0.852   1.534 -0.9738  1.8743  1.0114
  931SOL    HW3 3723   2.711   0.884   1.412 -0.6351 -1.7867  0.2349
  931SOL    MW4 3724   2.696   0.890   1.498 -0.4453  0.1310  0.1530
  932SOL     OW 3725   2.704   1.164   1.591  0.1463  0.2232 -0.2450
  932SOL    HW2 3726   2.696   1.073   1.562 -1.4688  0.1432  0.3954
  932SOL    HW3 3727   2.637   1.211   1.540  0.9773  1.0516 -0.5827
  932SOL    MW4 3728   2.694   1.158   1.580  0.0429  0.3219 -0.2051
  933SOL     OW 3729   2.943   1.258   1.483  0.3565 -0.5553  0.4721
  933SOL    HW2 3730   3.010   1.198   1.514  0.1969 -0.6748  0.5892
  933SOL    HW3 3731   2.861   1.224   1.520  0.2096 -0.5029  0.1992
  933SOL    MW4 3732   2.941   1.246   1.492  0.3161 -0.5642  0.4516
  934SOL     OW 3733   2.913   1.497   1.619  0.2370 -0.4241  0.5553
  934SOL    HW2 3734   2.840   1.538   1.571  1.9670  1.1346 -0.8170
  934SOL    HW3 3735   2.919   1.409   1.583 -0.7173 -0.4245  0.3915
  934SOL    MW4 3736   2.904   1.491   1.608  0.3393 -0.2185  0.3526
  935SOL     OW 3737   2.697   1.617   1.506  0.3925  0.3137 -0.3062
  935SOL    HW2 3738   2.714   1.707   1.532 -0.2496  0.2085  0.4967
  935SOL    HW3 3739   2.715   1.615   1.412  0.4847  1.2541 -0.3116
  935SOL    MW4 3740   2.702   1.628   1.497  0.3200  0.4239 -0.2010
  936SOL     OW 3741   2.718   1.887   1.576 -0.1330  0.2608 -0.7327
  936SOL    HW2 3742   2.731   1.900   1.670 -0.5766  0.2175 -0.6641
  936SOL    HW3 3743   2.644   1.943   1.554 -1.9692 -1.9576 -0.4638
  936SOL    MW4 3744   2.710   1.896   1.586 -0.4338 -0.0376 -0.6882
  937SOL     OW 3745   2.937   2.035   1.468  0.1009 -0.1683 -0.3519
  937SOL    HW2 3746   2.929   2.126   1.497  0.4623 -0.5787  1.0760
  937SOL    HW3 3747   2.848   2.000   1.476  0.0223 -0.0271 -0.6073
  937SOL    MW4 3748   2.924   2.043   1.473  0.1382 -0.2038 -0.1972
  938SOL     OW 3749   2.946   2.286   1.561  0.0881  0.4539  0.2340
  938SOL    HW2 3750   2.954   2.284   1.657 -0.3720  0.7501  0.2794
  938SOL    HW3 3751   2.866   2.335   1.545 -0.4465 -0.5760 -0.2773
  938SOL    MW4 3752   2.937   2.292   1.572 -0.0432  0.3571  0.1725
  939SOL     OW 3753   2.687   2.428   1.500  0.0034 -0.0278  0.0868
  939SOL    HW2 3754   2.679   2.516   1.536 -0.5389 -0.2936  0.6248
  939SOL    HW3 3755   2.604   2.385   1.522  1.2881 -1.5310  2.1554
  939SOL    MW4 3756   2.675   2.434   1.507  0.1014 -0.2612  0.4307
  940SOL     OW 3757   2.715   2.677   1.631  0.1020 -0.3390 -0.3086
  940SOL    HW2 3758   2.794   2.719   1.598  0.3439 -1.7514 -1.5786
  940SOL    HW3 3759   2.643   2.722   1.586  0.2346  0.3213  0.1435
  940SOL    MW4 3760   2.716   2.688   1.620  0.1514 -0.4382 -0.4165
  941SOL     OW 3761   2.928   2.794   1.506 -0.1208  0.2439  0.0180
  941SOL    HW2 3762   3.010   2.751   1.531  0.9179  0.7794 -2.2947
  941SOL    HW3 3763   2.932   2.880   1.549  1.1416  0.7539 -1.0752
  941SOL    MW4 3764   2.940   2.800   1.515  0.1828  0.3818 -0.4313
  942SOL     OW 3765   2.916   3.057   1.616  0.1844  0.3440  0.3398
  942SOL    HW2 3766   2.919   3.039   1.710  0.7691 -0.7271  0.1280
  942SOL    HW3 3767   2.989   3.117   1.601 -0.7582  1.6043  0.7925
  942SOL    MW4 3768   2.926   3.062   1.626  0.1372  0.3690  0.3716
  943SOL     OW 3769   2.712   3.220   1.518 -0.4206  0.1296 -0.4330
  943SOL    HW2 3770   2.788   3.165   1.534  0.7533  1.3998 -1.5373
  943SOL    HW3 3771   2.715   3.239   1.425 -0.5888  2.3492 -0.0243
  943SOL    MW4 3772   2.722   3.215   1.508 -0.2879  0.5901 -0.5248
  944SOL     OW 3773   2.658   3.495   1.592  0.1228 -0.1905 -0.3132
  944SOL    HW2 3774   2.659   3.515   1.686  0.2263 -1.8915  0.0591
  944SOL    HW3 3775   2.667   3.400   1.587 -0.2205 -0.1557 -2.0418
  944SOL    MW4 3776   2.659   3.485   1.604  0.0911 -0.4104 -0.4921
  945SOL     OW 3777   2.921   3.543   1.517 -0.0931  0.0587 -0.0615
  945SOL    HW2 3778   2.833   3.512   1.538  0.9067 -3.4377 -0.7557
  945SOL    HW3 3779   2.917   3.565   1.424 -0.4306  0.7883  0.1150
  945SOL    MW4 3780   2.909   3.542   1.508 -0.0057 -0.3063 -0.1298
  946SOL     OW 3781   2.944   3.809   1.610  0.5248  0.0875 -0.0494
  946SOL    HW2 3782   2.862   3.852   1.586  0.9250  0.7322 -0.2753
  946SOL    HW3 3783   2.939   3.723   1.568  0.1010  0.2457 -0.3248
  946SOL    MW4 3784   2.932   3.804   1.601  0.5217  0.1935 -0.1156
  947SOL     OW 3785   2.715   3.961   1.516 -0.0742  0.3251  0.0341
  947SOL    HW2 3786   2.724   4.052   1.545 -1.0554  0.2745  0.5078
  947SOL    HW3 3787   2.727   3.965   1.421  0.7529  0.8233  0.1516
  947SOL    MW4 3788   2.718   3.973   1.507 -0.0945  0.3841  0.1121
  948SOL     OW 3789   2.724   4.242   1.628 -0.4517 -0.4326 -0.3463
  948SOL    HW2 3790   2.794   4.271   1.569 -0.6569  0.8652  0.0320
  948SOL    HW3 3791   2.644   4.278   1.590 -0.4050  1.8870  1.6022
  948SOL    MW4 3792   2.723   4.251   1.615 -0.4726  0.0447 -0.0393
  949SOL     OW 3793   2.936   4.378   1.471  0.1490  0.3611  0.1597
  949SOL    HW2 3794   2.919   4.461   1.515 -0.3495  0.7048 -0.6664
  949SOL    HW3 3795   2.915   4.395   1.379 -0.0187 -0.6934 -0.0056
  949SOL    MW4 3796   2.931   4.391   1.465  0.0611  0.2673  0.0289
  950SOL     OW 3797   3.375   0.016   1.590 -0.5431  0.2424  0.6711
  950SOL    HW2 3798   3.442   0.073   1.553 -0.2239 -0.7838 -0.3767
  950SOL    HW3 3799   3.396  -0.071   1.555 -0.2069 -0.7777  3.2773
  950SOL    MW4 3800   3.387   0.012   1.581 -0.4566 -0.0276  0.8767
  951SOL     OW 3801   3.131   0.076   1.427 -0.2889  0.0316  0.5243
  951SOL    HW2 3802   3.203   0.048   1.484 -1.1918 -1.9543  0.7209
  951SOL    HW3 3803   3.055   0.028   1.459 -1.4146  1.0864 -0.5415
  951SOL    MW4 3804   3.131   0.066   1.438 -0.5566 -0.0913  0.4096
  952SOL     OW 3805   3.113   0.325   1.574 -0.2826 -0.0447  0.4789
  952SOL    HW2 3806   3.098   0.239   1.533 -1.7170  0.0308  0.8087
  952SOL    HW3 3807   3.065   0.387   1.519  1.7204  0.7375 -0.4330
  952SOL    MW4 3808   3.105   0.322   1.561 -0.2076  0.0684  0.4021
  953SOL     OW 3809   3.359   0.441   1.494  0.5477  0.4318 -1.1501
  953SOL    HW2 3810   3.294   0.376   1.521  0.0933  2.3117  2.5198
  953SOL    HW3 3811   3.364   0.430   1.399 -2.8361 -1.8721 -1.1899
  953SOL    MW4 3812   3.351   0.431   1.485  0.0413  0.3759 -0.6712
  954SOL     OW 3813   3.381   0.724   1.542 -0.3858  0.0755 -0.1362
  954SOL    HW2 3814   3.353   0.754   1.628  1.4713  0.6535  0.2947
  954SOL    HW3 3815   3.376   0.628   1.547  0.6231  0.0694  0.9450
  954SOL    MW4 3816   3.377   0.715   1.554 -0.0076  0.1509  0.0633
  955SOL     OW 3817   3.150   0.856   1.421 -0.0533  0.3564  0.2289
  955SOL    HW2 3818   3.223   0.803   1.454  0.2966  1.1918  0.8353
  955SOL    HW3 3819   3.074   0.823   1.468  0.1304  0.2546  0.4578
  955SOL    MW4 3820   3.150   0.845   1.432  0.0171  0.4532  0.3391
  956SOL     OW 3821   3.167   1.104   1.553 -0.5127  0.3677  0.2953
  956SOL    HW2 3822   3.158   1.102   1.649 -0.8999  0.5628  0.2635
  956SOL    HW3 3823   3.178   1.013   1.528  1.6288  0.4849  0.7260
  956SOL    MW4 3824   3.167   1.092   1.563 -0.2813  0.4089  0.3479
  957SOL     OW 3825   3.377   1.298   1.499  0.1078  0.4765  0.1072
  957SOL    HW2 3826   3.451   1.272   1.555 -1.3383  0.2901  1.9816
  957SOL    HW3 3827   3.311   1.231   1.515 -1.2878  1.8483  0.1419
  957SOL    MW4 3828   3.378   1.286   1.509 -0.2671  0.6329  0.3591
  958SOL     OW 3829   3.365   1.568   1.546 -0.2845 -0.0417 -0.0525
  958SOL    HW2 3830   3.382   1.566   1.640 -0.8940  1.3431  0.1086
  958SOL    HW3 3831   3.369   1.476   1.519  1.0890 -0.3432  1.0929
  958SOL    MW4 3832   3.368   1.556   1.555 -0.1837  0.1012  0.1199
  959SOL     OW 3833   3.105   1.655   1.501 -0.3615  0.0636  0.3138
  959SOL    HW2 3834   3.188   1.609   1.517 -0.7893 -0.2845  1.6356
  959SOL    HW3 3835   3.040   1.605   1.552 -1.2010  0.9008  0.0743
  959SOL    MW4 3836   3.107   1.642   1.510 -0.5287  0.1281  0.4566
  960SOL     OW 3837   3.153   1.926   1.579  0.0139 -0.4652 -0.2836
  960SOL    HW2 3838   3.151   1.835   1.548 -0.1208 -0.7123  0.4424
  960SOL    HW3 3839   3.072   1.965   1.546 -0.5653 -0.9810  0.5136
  960SOL    MW4 3840   3.142   1.919   1.570 -0.0803 -0.5659 -0.0826
  961SOL     OW 3841   3.408   2.010   1.507  0.0644  0.0336  0.5742
  961SOL    HW2 3842   3.318   1.988   1.532 -0.2308 -0.2850 -0.7731
  961SOL    HW3 3843   3.404   2.026   1.413  1.2370  0.9876  0.6737
  961SOL    MW4 3844   3.395   2.009   1.498  0.1802  0.1174  0.4096
  962SOL     OW 3845   3.389   2.286   1.595  0.1536 -0.2888  0.0495
  962SOL    HW2 3846   3.463   2.325   1.548  0.9694  0.0155  1.5363
  962SOL    HW3 3847   3.396   2.192   1.575  1.4378 -0.3768  0.8162
  962SOL    MW4 3848   3.400   2.279   1.586  0.4307 -0.2603  0.3468
  963SOL     OW 3849   3.191   2.422   1.471 -0.0012  0.2449  0.1683
  963SOL    HW2 3850   3.266   2.379   1.512  0.5478  2.4125  1.4892
  963SOL    HW3 3851   3.115   2.368   1.496  0.7875 -0.4848  1.0058
  963SOL    MW4 3852   3.191   2.409   1.479  0.1753  0.4346  0.4530
  964SOL     OW 3853   3.156   2.668   1.590 -0.4859 -0.5252  0.3086
  964SOL    HW2 3854   3.213   2.709   1.526 -0.9345  0.2651  0.4131
  964SOL    HW3 3855   3.157   2.575   1.567 -1.2734 -0.1430 -1.3288
  964SOL    MW4 3856   3.163   2.661   1.579 -0.6490 -0.3705  0.1063
  965SOL     OW 3857   3.366   2.801   1.464 -0.0079  0.3476  0.3552
  965SOL    HW2 3858   3.353   2.880   1.516 -2.0402 -0.2572  0.8003
  965SOL    HW3 3859   3.370   2.831   1.374  1.4161  1.1685  0.6655
  965SOL    MW4 3860   3.365   2.815   1.459 -0.0881  0.3761  0.4549
  966SOL     OW 3861   3.386   3.037   1.588  0.1537 -0.1389  0.3866
  966SOL    HW2 3862   3.390   3.062   1.680  0.9289  0.4867  0.1848
  966SOL    HW3 3863   3.466   3.072   1.550 -0.3066 -0.1360 -0.5935
  966SOL    MW4 3864   3.397   3.045   1.595  0.1953 -0.0560  0.2306
  967SOL     OW 3865   3.152   3.178   1.537 -0.4064 -0.2162 -0.0551
  967SOL    HW2 3866   3.234   3.132   1.556 -0.3451  0.7265  2.1000
  967SOL    HW3 3867   3.149   3.184   1.441  1.6943 -0.8595 -0.1772
  967SOL    MW4 3868   3.162   3.173   1.527 -0.1212 -0.1767  0.2131
  968SOL     OW 3869   3.181   3.468   1.588  0.2443 -0.1713 -0.0313
  968SOL    HW2 3870   3.180   3.373   1.578  1.2144 -0.2537  0.5677
  968SOL    HW3 3871   3.093   3.496   1.564 -0.4171 -1.3400  0.9692
  968SOL    MW4 3872   3.170   3.459   1.584  0.2851 -0.3364  0.1797
  969SOL     OW 3873   3.413   3.617   1.489  0.3513  0.5451  0.4704
  969SOL    HW2 3874   3.488   3.564   1.516 -0.0340 -0.8779 -1.1111
  969SOL    HW3 3875   3.336   3.569   1.520  0.0522  1.2684  0.8665
  969SOL    MW4 3876   3.412   3.604   1.496  0.2610  0.4528  0.3140
  970SOL     OW 3877   3.387   3.882   1.582  0.0673 -0.0294 -0.2568
  970SOL    HW2 3878   3.304   3.901   1.540  0.3109  0.6560 -0.4401
  970SOL    HW3 3879   3.403   3.790   1.564 -1.0115 -0.3584  0.4142
  970SOL    MW4 3880   3.378   3.873   1.574 -0.0429  0.0176 -0.1925
  971SOL     OW 3881   3.140   3.956   1.462 -0.1750 -0.2126  0.1240
  971SOL    HW2 3882   3.148   4.037   1.513  0.7109 -1.3727  1.9273
  971SOL    HW3 3883   3.064   3.911   1.500 -0.4502 -0.3707 -0.6211
  971SOL    MW4 3884   3.131   3.961   1.474 -0.0945 -0.3866  0.2636
  972SOL     OW 3885   3.198   4.243   1.579  0.1065  0.5496 -0.1056
  972SOL    HW2 3886   3.191   4.242   1.675 -1.3549 -0.2713 -0.2023
  972SOL    HW3 3887   3.112   4.272   1.549  0.0964 -0.5692 -1.2031
  972SOL    MW4 3888   3.186   4.247   1.588 -0.0876  0.2937 -0.2632
  973SOL     OW 3889   3.394   4.427   1.488 -0.0178  0.3056  0.4652
  973SOL    HW2 3890   3.322   4.367   1.506  1.0723 -0.5863  1.9358
  973SOL    HW3 3891   3.422   4.406   1.399 -1.2662  0.3528  0.0553
  973SOL    MW4 3892   3.388   4.417   1.479 -0.0387  0.1942  0.6052
  974SOL     OW 3893   3.835   4.617   1.567  0.0102 -0.1161  0.2280
  974SOL    HW2 3894   3.826   4.624   1.662  1.4364 -0.9069  0.4387
  974SOL    HW3 3895   3.917   4.663   1.547  0.5216 -1.2604 -0.4081
  974SOL    MW4 3896   3.845   4.624   1.577  0.2658 -0.3714  0.1719
  975SOL     OW 3897   3.613   0.108   1.468 -0.1344  0.1427  0.1069
  975SOL    HW2 3898   3.689   0.056   1.494 -0.5516 -0.0999  0.8908
  975SOL    HW3 3899   3.611   0.103   1.373  0.7339  0.0119  0.0972
  975SOL    MW4 3900   3.622   0.100   1.459 -0.0749  0.0934  0.2090
  976SOL     OW 3901   3.607   0.359   1.582  0.0574 -0.4028  0.2999
  976SOL    HW2 3902   3.618   0.272   1.543  0.3107 -1.2496  2.2186
  976SOL    HW3 3903   3.521   0.388   1.552 -1.3604 -2.6146  2.0712
  976SOL    MW4 3904   3.597   0.351   1.572 -0.0963 -0.8063  0.7867
  977SOL     OW 3905   3.848   0.485   1.489  0.3106  0.0218  0.0112
  977SOL    HW2 3906   3.771   0.434   1.516  1.5891 -2.0259 -0.0442
  977SOL    HW3 3907   3.840   0.492   1.394 -0.2936  0.6413  0.1047
  977SOL    MW4 3908   3.837   0.479   1.480  0.3995 -0.1666  0.0162
  978SOL     OW 3909   3.839   0.746   1.551  0.0837  0.7826  0.0766
  978SOL    HW2 3910   3.754   0.787   1.543 -0.0836  0.3378 -0.4809
  978SOL    HW3 3911   3.824   0.654   1.528  0.4272  0.3807  1.3833
  978SOL    MW4 3912   3.826   0.739   1.547  0.1069  0.6709  0.1755
  979SOL     OW 3913   3.597   0.872   1.488 -0.3722 -0.5513 -0.5099
  979SOL    HW2 3914   3.524   0.813   1.509  0.3891 -1.5015 -0.4711
  979SOL    HW3 3915   3.603   0.870   1.393  0.3710 -1.4403 -0.4535
  979SOL    MW4 3916   3.588   0.864   1.478 -0.1737 -0.7940 -0.4973
  980SOL     OW 3917   3.580   1.133   1.579 -0.2182 -0.3704  0.0189
  980SOL    HW2 3918   3.668   1.156   1.552 -0.3768 -0.7135 -0.8116
  980SOL    HW3 3919   3.567   1.045   1.546 -0.4431 -0.7902  1.1844
  980SOL    MW4 3920   3.590   1.125   1.571 -0.2688 -0.4710  0.0631
  981SOL     OW 3921   3.821   1.224   1.480 -0.7941  0.1403  0.3449
  981SOL    HW2 3922   3.904   1.181   1.499 -0.1008  0.3016 -2.1750
  981SOL    HW3 3923   3.828   1.311   1.519 -0.5452 -0.5202  1.7921
  981SOL    MW4 3924   3.833   1.229   1.488 -0.6698  0.0744  0.2034
  982SOL     OW 3925   3.832   1.484   1.563 -0.1643 -0.2895  0.1009
  982SOL    HW2 3926   3.830   1.492   1.658 -1.0894 -0.3930  0.0925
  982SOL    HW3 3927   3.761   1.541   1.532  2.1547  2.2519 -0.7237
  982SOL    MW4 3928   3.822   1.493   1.571  0.0196  0.0321 -0.0090
  983SOL     OW 3929   3.613   1.644   1.461 -0.1343  0.0282 -0.0599
  983SOL    HW2 3930   3.524   1.619   1.487  0.0939  0.3867  1.0821
  983SOL    HW3 3931   3.607   1.656   1.366 -1.6663  1.4783  0.1826
  983SOL    MW4 3932   3.600   1.642   1.452 -0.3063  0.2668  0.1228
  984SOL     OW 3933   3.619   1.873   1.591  0.0840  0.0874 -0.3038
  984SOL    HW2 3934   3.613   1.790   1.545  0.2460  0.1874 -0.5042
  984SOL    HW3 3935   3.550   1.927   1.552  0.5562  0.3476 -0.7913
  984SOL    MW4 3936   3.609   1.869   1.580  0.1677  0.1349 -0.3945
  985SOL     OW 3937   3.812   2.018   1.468 -0.7687  0.6780 -0.0777
  985SOL    HW2 3938   3.793   2.103   1.508 -0.0927 -0.2680  2.3548
  985SOL    HW3 3939   3.746   1.959   1.506  0.6869 -0.5013  0.6599
  985SOL    MW4 3940   3.800   2.021   1.479 -0.4874  0.3976  0.3405
  986SOL     OW 3941   3.806   2.295   1.572  0.3937 -0.2918 -0.2538
  986SOL    HW2 3942   3.809   2.308   1.666  0.2783 -0.6615 -0.1974
  986SOL    HW3 3943   3.887   2.333   1.539  0.9328 -1.1176  0.1121
  986SOL    MW4 3944   3.817   2.302   1.580  0.4496 -0.4496 -0.1981
  987SOL     OW 3945   3.597   2.416   1.468  0.1912 -0.0884  0.3456
  987SOL    HW2 3946   3.606   2.504   1.505 -1.5230  0.0472  0.4659
  987SOL    HW3 3947   3.675   2.369   1.499  0.0213  0.7393  2.1210
  987SOL    MW4 3948   3.609   2.421   1.477 -0.0574  0.0387  0.5957
  988SOL     OW 3949   3.611   2.678   1.531 -0.1718  0.1900  0.3198
  988SOL    HW2 3950   3.602   2.678   1.626  0.2069 -0.7253  0.3570
  988SOL    HW3 3951   3.531   2.720   1.499 -0.8717 -0.6395  0.9816
  988SOL    MW4 3952   3.600   2.684   1.539 -0.2142 -0.0402  0.4120
  989SOL     OW 3953   3.836   2.818   1.455 -0.3312  0.1950  0.0029
  989SOL    HW2 3954   3.918   2.778   1.484  0.0985 -0.2810 -1.7669
  989SOL    HW3 3955   3.769   2.753   1.472  0.0212 -0.3590 -0.7031
  989SOL    MW4 3956   3.838   2.804   1.461 -0.2280  0.0591 -0.3237
  990SOL     OW 3957   3.836   3.064   1.593 -0.0607  0.3311 -0.0014
  990SOL    HW2 3958   3.917   3.096   1.554  0.3095  0.1710  0.6204
  990SOL    HW3 3959   3.813   2.987   1.541 -0.9725  1.5903 -1.5197
  990SOL    MW4 3960   3.844   3.058   1.581 -0.1322  0.4761 -0.1197
  991SOL     OW 3961   3.602   3.182   1.514 -0.6215  0.2078  0.2423
  991SOL    HW2 3962   3.688   3.142   1.526  0.1792  1.3760 -1.4402
  991SOL    HW3 3963   3.598   3.204   1.421 -3.6550 -1.8968 -0.2229
  991SOL    MW4 3964   3.613   3.179   1.503 -0.9161  0.0842 -0.0411
  992SOL     OW 3965   3.650   3.460   1.616  0.1994 -0.1677  0.3229
  992SOL    HW2 3966   3.721   3.504   1.569 -0.9308  1.3278 -0.0509
  992SOL    HW3 3967   3.645   3.373   1.577 -0.0347  0.7000 -1.6493
  992SOL    MW4 3968   3.658   3.454   1.605  0.0194  0.1441  0.0134
  993SOL     OW 3969   3.864   3.576   1.489 -0.7101 -0.6583  0.5670
  993SOL    HW2 3970   3.922   3.518   1.539  1.2626  0.7850  0.0417
  993SOL    HW3 3971   3.874   3.662   1.532  0.0099  0.3043 -1.4656
  993SOL    MW4 3972   3.873   3.580   1.501 -0.3548 -0.3408  0.2295
  994SOL     OW 3973   3.833   3.852   1.590 -0.2823  0.0453  0.0403
  994SOL    HW2 3974   3.905   3.905   1.556 -0.5383  2.4600  3.0241
  994SOL    HW3 3975   3.755   3.884   1.545  0.0293 -0.2996 -0.7614
  994SOL    MW4 3976   3.832   3.863   1.580 -0.2750  0.3183  0.3282
  995SOL     OW 3977   3.611   3.968   1.457 -0.2794 -0.5798  0.2459
  995SOL    HW2 3978   3.619   4.058   1.488 -1.6071 -0.4303  0.1681
  995SOL    HW3 3979   3.538   3.931   1.507  0.4929 -1.7253  0.5423
  995SOL    MW4 3980   3.602   3.975   1.467 -0.3527 -0.7112  0.2748
  996SOL     OW 3981   3.614   4.255   1.562  0.3046 -0.0032 -0.0984
  996SOL    HW2 3982   3.620   4.240   1.657 -0.4150 -0.0622 -0.0558
  996SOL    HW3 3983   3.536   4.311   1.552 -1.9342 -3.1103 -0.9630
  996SOL    MW4 3984   3.604   4.260   1.574 -0.0857 -0.4209 -0.2068
  997SOL     OW 3985   3.854   4.362   1.457  0.4613 -0.2865  0.1954
  997SOL    HW2 3986   3.772   4.326   1.491 -0.0539  0.9496  0.2753
  997SOL    HW3 3987   3.861   4.449   1.496  1.6045 -0.2099 -0.1445
  997SOL    MW4 3988   3.844   4.369   1.467  0.5442 -0.1133  0.1611
  998SOL     OW 3989   4.291   4.647   1.585  0.6296 -0.2244  0.3003
  998SOL    HW2 3990   4.278   4.649   1.680  0.9544 -0.7163  0.3587
  998SOL    HW3 3991   4.300   4.554   1.564  0.8791 -0.0970 -0.1639
  998SOL    MW4 3992   4.291   4.635   1.595  0.7053 -0.2725  0.2468
  999SOL     OW 3993   4.066   0.092   1.496  0.0233 -0.5105 -1.0672
  999SOL    HW2 3994   4.067   0.181   1.531 -1.7491 -0.8084 -0.2087
  999SOL    HW3 3995   4.154   0.059   1.514  0.4780  0.8194 -0.7485
  999SOL    MW4 3996   4.078   0.099   1.503 -0.1505 -0.3743 -0.9119
 1000SOL     OW 3997   4.074   0.356   1.560 -0.2887 -0.2117  0.0079
 1000SOL    HW2 3998   4.063   0.350   1.655 -1.0982 -0.4266 -0.1028
 1000SOL    HW3 3999   4.001   0.410   1.530 -0.3209 -0.5674 -0.5580
 1000SOL    MW4 4000   4.063   0.362   1.568 -0.3997 -0.2870 -0.0814
 1001SOL     OW 4001   4.315   0.458   1.469 -0.4501 -0.3504  0.0229
 1001SOL    HW2 4002   4.245   0.411   1.515  0.1597 -0.1770  1.1351
 1001SOL    HW3 4003   4.396   0.417   1.501  0.0923  1.4610  1.0248
 1001SOL    MW4 4004   4.317   0.446   1.479 -0.2981 -0.0885  0.3019
 1002SOL     OW 4005   4.292   0.730   1.573  0.7585  0.0805  1.1275
 1002SOL    HW2 4006   4.289   0.652   1.517  1.5588 -0.1523  1.3959
 1002SOL    HW3 4007   4.360   0.785   1.533 -0.7732  1.2991  0.1153
 1002SOL    MW4 4008   4.301   0.727   1.560  0.6620  0.2106  1.0293
 1003SOL     OW 4009   4.067   0.853   1.452 -0.1088 -0.0279 -0.1016
 1003SOL    HW2 4010   4.137   0.819   1.507  0.0369  0.0301 -0.2486
 1003SOL    HW3 4011   3.987   0.818   1.490  0.1240 -1.6318 -1.0274
 1003SOL    MW4 4012   4.066   0.844   1.464 -0.0589 -0.2319 -0.2431
 1004SOL     OW 4013   4.072   1.114   1.551 -0.0162  0.1430 -0.3679
 1004SOL    HW2 4014   4.075   1.100   1.646  1.7370 -0.4966 -0.4950
 1004SOL    HW3 4015   4.076   1.026   1.514  0.0687  0.4301 -1.0526
 1004SOL    MW4 4016   4.073   1.100   1.559  0.2263  0.0965 -0.4750
 1005SOL     OW 4017   4.320   1.241   1.445  0.1263  0.0043  0.5839
 1005SOL    HW2 4018   4.240   1.197   1.473  1.4701 -2.1203  1.2731
 1005SOL    HW3 4019   4.388   1.206   1.503  1.7068  1.1090 -0.5358
 1005SOL    MW4 4020   4.319   1.230   1.456  0.5122 -0.1302  0.5271
 1006SOL     OW 4021   4.281   1.522   1.546  0.3738  0.0111 -0.2064
 1006SOL    HW2 4022   4.303   1.430   1.541  1.0527  0.1888 -0.4691
 1006SOL    HW3 4023   4.361   1.568   1.523  0.2924  0.6839  0.8065
 1006SOL    MW4 4024   4.294   1.516   1.543  0.4526  0.1233 -0.1074
 1007SOL     OW 4025   4.047   1.642   1.457  0.1085 -0.3570 -0.2584
 1007SOL    HW2 4026   4.130   1.598   1.476  0.1994  0.0876  0.4384
 1007SOL    HW3 4027   3.980   1.581   1.486  0.2326 -0.0837  0.6432
 1007SOL    MW4 4028   4.049   1.628   1.464  0.1369 -0.2623 -0.0475
 1008SOL     OW 4029   4.035   1.892   1.571  0.2745 -0.3597 -0.2458
 1008SOL    HW2 4030   4.020   1.801   1.544 -0.6160 -0.9239  1.9274
 1008SOL    HW3 4031   3.957   1.939   1.542 -0.1256 -0.7088  0.2395
 1008SOL    MW4 4032   4.023   1.886   1.564  0.1042 -0.4802  0.1050
 1009SOL     OW 4033   4.248   2.052   1.468 -0.6996 -0.6267  0.3742
 1009SOL    HW2 4034   4.182   1.992   1.502  0.3029 -1.6948  0.4437
 1009SOL    HW3 4035   4.256   2.030   1.375  1.1734 -2.0364  0.8417
 1009SOL    MW4 4036   4.240   2.041   1.460 -0.3202 -0.9536  0.4451
 1010SOL     OW 4037   4.296   2.295   1.610 -0.1338 -0.2969  0.3690
 1010SOL    HW2 4038   4.293   2.275   1.704  0.0459 -1.2029  0.1861
 1010SOL    HW3 4039   4.276   2.212   1.567 -0.9433  0.2793 -0.3897
 1010SOL    MW4 4040   4.293   2.281   1.617 -0.2169 -0.3404  0.2448
 1011SOL     OW 4041   4.060   2.413   1.486 -0.4358  0.2499  0.4566
 1011SOL    HW2 4042   4.066   2.506   1.506  1.2151  0.6270 -1.7165
 1011SOL    HW3 4043   4.131   2.373   1.536  1.3466  0.7136 -1.6147
 1011SOL    MW4 4044   4.070   2.420   1.495  0.0171  0.3608 -0.1034
 1012SOL     OW 4045   4.045   2.685   1.555 -0.0833  0.4365 -0.4259
 1012SOL    HW2 4046   4.045   2.696   1.650 -1.8006  1.4896 -0.5259
 1012SOL    HW3 4047   4.126   2.728   1.525  0.1270  0.6640  0.4796
 1012SOL    MW4 4048   4.056   2.692   1.563 -0.2821  0.6054 -0.3196
 1013SOL     OW 4049   4.268   2.808   1.460 -0.0728 -0.0437 -0.2092
 1013SOL    HW2 4050   4.277   2.899   1.489 -1.2445  0.4860 -1.4284
 1013SOL    HW3 4051   4.287   2.811   1.366  2.7629 -1.5601  0.2682
 1013SOL    MW4 4052   4.272   2.821   1.451  0.1468 -0.1739 -0.3071
 1014SOL     OW 4053   4.283   3.069   1.556 -0.2026 -0.2374  0.0652
 1014SOL    HW2 4054   4.302   3.089   1.648 -0.5240  2.3758 -0.3841
 1014SOL    HW3 4055   4.348   3.120   1.507 -0.1530 -1.4683 -1.1664
 1014SOL    MW4 4056   4.294   3.079   1.562 -0.2385 -0.0550 -0.1565
 1015SOL     OW 4057   4.041   3.195   1.480 -0.4317 -0.2825 -0.4870
 1015SOL    HW2 4058   4.036   3.273   1.536 -1.5521 -1.1067  0.5747
 1015SOL    HW3 4059   4.124   3.154   1.503 -0.4755 -0.1371 -0.0662
 1015SOL    MW4 4060   4.051   3.200   1.490 -0.5853 -0.3720 -0.2914
 1016SOL     OW 4061   4.064   3.439   1.616  0.0057 -0.4745  0.1602
 1016SOL    HW2 4062   4.081   3.439   1.710  0.6887  0.5500  0.0366
 1016SOL    HW3 4063   4.135   3.491   1.578 -0.4187 -0.6480 -0.8972
 1016SOL    MW4 4064   4.076   3.446   1.624  0.0398 -0.3623  0.0044
 1017SOL     OW 4065   4.260   3.598   1.496 -0.0070  0.0703 -0.2577
 1017SOL    HW2 4066   4.291   3.681   1.534  2.8290 -0.9517 -0.2060
 1017SOL    HW3 4067   4.290   3.601   1.406  0.4052 -1.0419 -0.1627
 1017SOL    MW4 4068   4.268   3.609   1.489  0.4216 -0.2113 -0.2384
 1018SOL     OW 4069   4.295   3.852   1.619  0.0215  0.6436  0.4187
 1018SOL    HW2 4070   4.212   3.887   1.586 -0.3204 -1.6289 -1.3113
 1018SOL    HW3 4071   4.361   3.884   1.558 -0.1824 -0.9862 -0.6854
 1018SOL    MW4 4072   4.293   3.860   1.607 -0.0505  0.1288  0.0448
 1019SOL     OW 4073   4.069   3.958   1.503  0.3961  0.5418  0.0515
 1019SOL    HW2 4074   4.082   4.050   1.527  0.2879  0.6228 -0.2029
 1019SOL    HW3 4075   4.065   3.958   1.408  2.2693  0.0276 -0.0544
 1019SOL    MW4 4076   4.070   3.970   1.494  0.6290  0.4847  0.0039
 1020SOL     OW 4077   4.063   4.228   1.570  0.7160 -0.3522 -0.2091
 1020SOL    HW2 4078   4.053   4.236   1.665  0.9150 -0.3021 -0.1911
 1020SOL    HW3 4079   3.999   4.289   1.534  1.1361  0.1661 -0.0914
 1020SOL    MW4 4080   4.053   4.237   1.577  0.7977 -0.2772 -0.1912
 1021SOL     OW 4081   4.282   4.390   1.481  0.6489 -0.0003 -0.3479
 1021SOL    HW2 4082   4.215   4.326   1.507  0.1683  0.6163 -0.0334
 1021SOL    HW3 4083   4.274   4.396   1.385  0.5401 -0.2446 -0.3531
 1021SOL    MW4 4084   4.272   4.383   1.471  0.5711  0.0488 -0.3071
 1022SOL     OW 4085   0.233   4.639   1.868  0.1052 -0.3573  0.4380
 1022SOL    HW2 4086   0.314   4.684   1.893  0.4306 -0.2101 -0.8591
 1022SOL    HW3 4087   0.228   4.650   1.773 -0.4422 -2.0288  0.2630
 1022SOL    MW4 4088   0.243   4.646   1.859  0.0759 -0.5584  0.2438
 1023SOL     OW 4089   4.483   0.101   1.938 -0.2995  0.2897 -0.0463
 1023SOL    HW2 4090   4.476   0.179   1.882  0.6010  0.4803  0.0856
 1023SOL    HW3 4091   4.567   0.063   1.915  0.2758  0.5917  1.4348
 1023SOL    MW4 4092   4.493   0.106   1.928 -0.1048  0.3547  0.1665
 1024SOL     OW 4093   4.490   0.343   1.811 -0.4290 -0.0217  0.1872
 1024SOL    HW2 4094   4.418   0.388   1.856  1.0811  3.7080 -0.9156
 1024SOL    HW3 4095   4.569   0.385   1.844  0.8617  0.7572 -3.6155
 1024SOL    MW4 4096   4.491   0.355   1.821 -0.0595  0.5732 -0.4600
 1025SOL     OW 4097   0.219   0.478   1.940 -0.1556  0.1110 -0.3719
 1025SOL    HW2 4098   0.307   0.442   1.933 -0.5854 -0.9081 -0.5880
 1025SOL    HW3 4099   0.226   0.567   1.905  1.7248  1.5958  3.4896
 1025SOL    MW4 4100   0.232   0.485   1.935  0.0358  0.1724  0.1091
 1026SOL     OW 4101   0.220   0.728   1.826 -0.1857  0.2713  0.4186
 1026SOL    HW2 4102   0.289   0.787   1.856 -1.6122  1.8918  0.6282
 1026SOL    HW3 4103   0.228   0.729   1.730  1.0262 -0.7306  0.5103
 1026SOL    MW4 4104   0.230   0.736   1.817 -0.2140  0.3529  0.4584
 1027SOL     OW 4105   0.017   0.872   1.975 -0.2713  0.1418 -0.0710
 1027SOL    HW2 4106  -0.067   0.835   1.948  0.0359 -0.2358 -0.5266
 1027SOL    HW3 4107   0.082   0.823   1.924  0.4670 -1.9386  2.7242
 1027SOL    MW4 4108   0.015   0.861   1.964 -0.1334 -0.1825  0.2377
 1028SOL     OW 4109   4.486   1.149   1.859  0.3110  0.0242  0.5684
 1028SOL    HW2 4110   4.413   1.206   1.883  0.8802  0.7443  0.6343
 1028SOL    HW3 4111   4.479   1.074   1.917 -1.4134 -0.7641 -0.6319
 1028SOL    MW4 4112   4.476   1.147   1.870  0.1586  0.0152  0.4187
 1029SOL     OW 4113   0.255   1.254   1.904 -0.1297 -0.0366 -0.2509
 1029SOL    HW2 4114   0.243   1.347   1.887  0.4279 -0.1168 -1.0974
 1029SOL    HW3 4115   0.171   1.214   1.880 -0.8343  0.3958  1.3738
 1029SOL    MW4 4116   0.242   1.261   1.899 -0.1491  0.0098 -0.1482
 1030SOL     OW 4117   0.235   1.534   1.843  0.1668 -0.2525  0.3201
 1030SOL    HW2 4118   0.310   1.584   1.874  1.1199 -2.0287  0.9455
 1030SOL    HW3 4119   0.161   1.568   1.894  0.5186  1.5101 -0.3167
 1030SOL    MW4 4120   0.235   1.545   1.854  0.3390 -0.2543  0.3186
 1031SOL     OW 4121   0.003   1.666   1.967 -0.0381  0.3763  0.1117
 1031SOL    HW2 4122   0.012   1.670   2.062  0.5607 -1.9864  0.1745
 1031SOL    HW3 4123  -0.088   1.639   1.952 -0.0781  0.5666  0.0091
 1031SOL    MW4 4124  -0.008   1.663   1.977  0.0357  0.0897  0.1065
 1032SOL     OW 4125   0.001   1.906   1.828  0.0004 -0.2402 -0.4236
 1032SOL    HW2 4126  -0.059   1.962   1.875  0.4669 -0.1132  0.0239
 1032SOL    HW3 4127  -0.006   1.821   1.872  0.6110 -0.0583  0.0264
 1032SOL    MW4 4128  -0.008   1.902   1.840  0.1425 -0.1994 -0.3052
 1033SOL     OW 4129   0.222   2.047   1.936  0.4025  0.0429  0.2208
 1033SOL    HW2 4130   0.200   2.130   1.895 -0.2207  0.3099  1.0802
 1033SOL    HW3 4131   0.155   1.986   1.907 -0.1277  0.2702  0.9530
 1033SOL    MW4 4132   0.211   2.050   1.927  0.2503  0.1081  0.4308
 1034SOL     OW 4133   0.205   2.306   1.823 -0.5537  0.4914 -0.1483
 1034SOL    HW2 4134   0.273   2.362   1.862  0.5475 -0.8418 -0.1111
 1034SOL    HW3 4135   0.123   2.344   1.852  0.1880  1.9701  0.0495
 1034SOL    MW4 4136   0.203   2.318   1.832 -0.3105  0.5106 -0.1173
 1035SOL     OW 4137   4.457   2.437   1.983 -0.0028 -0.5255  0.3318
 1035SOL    HW2 4138   4.450   2.433   2.078  0.2728  0.2018  0.3862
 1035SOL    HW3 4139   4.479   2.529   1.964  0.6452 -0.8223 -0.3798
 1035SOL    MW4 4140   4.459   2.449   1.993  0.1190 -0.4687  0.2451
 1036SOL     OW 4141   0.034   2.702   1.857  0.1249 -0.1972  0.1076
 1036SOL    HW2 4142  -0.034   2.760   1.890 -0.7554 -1.8786  1.3490
 1036SOL    HW3 4143   0.019   2.698   1.763  0.4538  1.8843 -0.0461
 1036SOL    MW4 4144   0.023   2.709   1.849  0.0522 -0.1444  0.2511
 1037SOL     OW 4145   0.265   2.831   1.912  0.7871 -0.4148 -0.2976
 1037SOL    HW2 4146   0.260   2.919   1.875  0.8060  0.3600  1.5170
 1037SOL    HW3 4147   0.185   2.788   1.881  0.2522  0.5807 -0.3300
 1037SOL    MW4 4148   0.254   2.837   1.903  0.7190 -0.1812 -0.0625
 1038SOL     OW 4149   0.245   3.099   1.831  0.2911  0.5194 -0.0308
 1038SOL    HW2 4150   0.318   3.140   1.877  0.2802  2.8997 -2.0490
 1038SOL    HW3 4151   0.270   3.100   1.739 -0.7803 -1.8636 -0.3917
 1038SOL    MW4 4152   0.258   3.105   1.825  0.1483  0.5190 -0.3447
 1039SOL     OW 4153   0.018   3.240   1.950  0.2803 -0.2616 -0.2193
 1039SOL    HW2 4154  -0.051   3.194   1.902  0.5440  0.4354 -1.3007
 1039SOL    HW3 4155   0.099   3.198   1.920  0.3973 -0.3325  0.1984
 1039SOL    MW4 4156   0.020   3.228   1.940  0.3305 -0.1790 -0.3069
 1040SOL     OW 4157   0.035   3.521   1.868 -0.3021  0.2181 -0.2999
 1040SOL    HW2 4158   0.112   3.565   1.904  0.3033  0.9900 -2.4814
 1040SOL    HW3 4159   0.028   3.440   1.918  0.9216  0.9320  1.0514
 1040SOL    MW4 4160   0.044   3.516   1.880 -0.0608  0.4142 -0.4094
 1041SOL     OW 4161   0.258   3.637   1.990  0.7067 -0.0849  0.3584
 1041SOL    HW2 4162   0.271   3.622   2.084  0.2742 -0.4254  0.3659
 1041SOL    HW3 4163   0.328   3.586   1.948  0.5337 -0.4190  0.4727
 1041SOL    MW4 4164   0.269   3.628   1.997  0.6268 -0.1739  0.3745
 1042SOL     OW 4165   0.254   3.890   1.881 -0.1267 -0.5186 -0.1175
 1042SOL    HW2 4166   0.315   3.952   1.921  0.0742 -1.1938  0.6341
 1042SOL    HW3 4167   0.265   3.809   1.931 -0.2212 -1.2321 -1.2256
 1042SOL    MW4 4168   0.264   3.887   1.893 -0.1127 -0.7019 -0.1646
 1043SOL     OW 4169   0.050   4.037   1.994  0.0834 -0.2009  0.4516
 1043SOL    HW2 4170   0.046   4.107   1.929 -1.5071  1.1123  1.9240
 1043SOL    HW3 4171   0.123   3.982   1.965  0.4509  1.2611 -1.5183
 1043SOL    MW4 4172   0.059   4.039   1.982 -0.0779  0.1653  0.3859
 1044SOL     OW 4173   0.016   4.233   1.800 -0.3290  0.2353 -0.5791
 1044SOL    HW2 4174  -0.069   4.269   1.826  0.0257  1.3176 -0.8897
 1044SOL    HW3 4175   0.079   4.302   1.821  0.2592  0.1755 -2.0408
 1044SOL    MW4 4176   0.013   4.247   1.806 -0.2046  0.3702 -0.8129
 1045SOL     OW 4177   0.204   4.384   1.941 -0.3807 -0.1922  0.0548
 1045SOL    HW2 4178   0.213   4.385   2.036 -0.1831 -2.2591  0.0863
 1045SOL    HW3 4179   0.230   4.471   1.913  1.0015 -0.0225  1.7771
 1045SOL    MW4 4180   0.208   4.395   1.950 -0.1723 -0.4425  0.2862
 1046SOL     OW 4181   0.714   4.625   1.900 -0.2049 -0.4718  0.1223
 1046SOL    HW2 4182   0.688   4.541   1.938 -1.0364 -0.5869 -0.7050
 1046SOL    HW3 4183   0.706   4.613   1.806 -0.2602  0.5151 -0.0039
 1046SOL    MW4 4184   0.709   4.612   1.893 -0.3219 -0.3568 -0.0035
 1047SOL     OW 4185   0.464   0.074   1.984  0.0048  0.3145  0.0480
 1047SOL    HW2 4186   0.467   0.159   1.940  0.5103 -0.2864 -1.1146
 1047SOL    HW3 4187   0.548   0.034   1.963 -0.3617 -0.5987  0.3228
 1047SOL    MW4 4188   0.475   0.080   1.975  0.0231  0.1148 -0.0691
 1048SOL     OW 4189   0.471   0.325   1.885 -0.1217 -0.7925 -0.1447
 1048SOL    HW2 4190   0.544   0.382   1.909 -1.9246  1.8505 -0.7365
 1048SOL    HW3 4191   0.464   0.333   1.790  0.0397 -2.5756 -0.3240
 1048SOL    MW4 4192   0.480   0.333   1.876 -0.3383 -0.6790 -0.2464
 1049SOL     OW 4193   0.675   0.488   1.948  0.3089 -0.1671  0.1889
 1049SOL    HW2 4194   0.671   0.499   2.043  1.7709  0.5241  0.1746
 1049SOL    HW3 4195   0.764   0.459   1.931  0.3406  0.6366 -1.0741
 1049SOL    MW4 4196   0.686   0.485   1.959  0.5060  0.0301  0.0204
 1050SOL     OW 4197   0.659   0.721   1.838 -0.1034 -0.0159 -0.0113
 1050SOL    HW2 4198   0.733   0.777   1.862 -1.5788  1.6892  0.6530
 1050SOL    HW3 4199   0.664   0.648   1.900  1.6306 -0.4821 -0.6614
 1050SOL    MW4 4200   0.670   0.719   1.849 -0.0692  0.1475 -0.0094
 1051SOL     OW 4201   0.452   0.871   1.948 -0.0443  0.2272  0.1398
 1051SOL    HW2 4202   0.475   0.957   1.913  1.1264 -0.0183  0.3059
 1051SOL    HW3 4203   0.510   0.810   1.904  0.4247 -0.2588  1.3900
 1051SOL    MW4 4204   0.462   0.875   1.938  0.1720  0.1307  0.3267
 1052SOL     OW 4205   0.493   1.128   1.843  0.1213  0.3747  0.1311
 1052SOL    HW2 4206   0.412   1.175   1.860 -0.2285 -0.3165  0.3734
 1052SOL    HW3 4207   0.509   1.140   1.750  1.5289  3.3523  0.6812
 1052SOL    MW4 4208   0.485   1.136   1.833  0.2609  0.6764  0.2356
 1053SOL     OW 4209   0.683   1.317   1.926 -0.2752 -0.2299 -0.3572
 1053SOL    HW2 4210   0.702   1.309   2.020 -0.5073 -1.9993 -0.4479
 1053SOL    HW3 4211   0.611   1.256   1.911  0.1894 -0.4258 -1.8203
 1053SOL    MW4 4212   0.676   1.308   1.936 -0.2445 -0.4892 -0.5622
 1054SOL     OW 4213   0.673   1.563   1.814  0.3337 -0.4926  0.5313
 1054SOL    HW2 4214   0.680   1.469   1.835  0.9292 -0.5228  0.2219
 1054SOL    HW3 4215   0.678   1.566   1.718 -0.7705 -0.2286  0.4738
 1054SOL    MW4 4216   0.675   1.551   1.804  0.2666 -0.4618  0.4829
 1055SOL     OW 4217   0.457   1.687   1.918  0.5742  0.2602 -0.3257
 1055SOL    HW2 4218   0.468   1.686   2.013  0.1125  1.1862 -0.2594
 1055SOL    HW3 4219   0.540   1.652   1.884  1.2466  1.1343  0.3806
 1055SOL    MW4 4220   0.469   1.682   1.926  0.6020  0.4977 -0.2238
 1056SOL     OW 4221   0.436   1.958   1.803  0.0916 -0.1306 -0.6093
 1056SOL    HW2 4222   0.409   1.869   1.827 -1.3384  0.0011 -1.6645
 1056SOL    HW3 4223   0.369   2.015   1.840  1.3431  0.5720  0.6090
 1056SOL    MW4 4224   0.424   1.954   1.811  0.0680 -0.0205 -0.5878
 1057SOL     OW 4225   0.684   1.998   1.944 -0.0836  0.2499 -0.1465
 1057SOL    HW2 4226   0.659   2.000   2.036 -0.4079 -0.1038 -0.2282
 1057SOL    HW3 4227   0.602   1.985   1.897  0.0036  1.0316 -0.5215
 1057SOL    MW4 4228   0.670   1.996   1.950 -0.1149  0.3064 -0.2067
 1058SOL     OW 4229   0.633   2.266   1.899  0.1971  0.4963  0.1979
 1058SOL    HW2 4230   0.662   2.177   1.918  1.0720  0.6101 -0.5838
 1058SOL    HW3 4231   0.657   2.281   1.808 -0.6670  1.2534  0.0863
 1058SOL    MW4 4232   0.640   2.257   1.890  0.1985  0.6112  0.0801
 1059SOL     OW 4233   0.403   2.412   1.979  0.2421 -0.1855  0.2587
 1059SOL    HW2 4234   0.403   2.427   2.074 -1.7976 -2.7397  0.7146
 1059SOL    HW3 4235   0.480   2.357   1.964 -0.8070 -1.8514  0.8356
 1059SOL    MW4 4236   0.413   2.407   1.990 -0.1654 -0.7423  0.3950
 1060SOL     OW 4237   0.469   2.655   1.842 -0.4388 -0.2646  0.4545
 1060SOL    HW2 4238   0.461   2.580   1.901 -3.0684 -0.8566 -0.5788
 1060SOL    HW3 4239   0.396   2.712   1.865 -1.3647 -0.3953 -2.0729
 1060SOL    MW4 4240   0.459   2.653   1.853 -0.9079 -0.3599 -0.0153
 1061SOL     OW 4241   0.702   2.821   1.909 -0.0015 -0.0450 -0.1869
 1061SOL    HW2 4242   0.687   2.827   2.003  2.3791 -3.4007  0.4777
 1061SOL    HW3 4243   0.632   2.763   1.878 -0.4407  0.5982 -0.4111
 1061SOL    MW4 4244   0.690   2.814   1.917  0.2547 -0.4029 -0.1288
 1062SOL     OW 4245   0.658   3.094   1.858  1.1394  0.2734  0.3508
 1062SOL    HW2 4246   0.665   3.003   1.886 -1.5483  0.1452  0.8099
 1062SOL    HW3 4247   0.654   3.091   1.763  1.2770 -0.0870  0.3597
 1062SOL    MW4 4248   0.658   3.082   1.849  0.8029  0.2089  0.4126
 1063SOL     OW 4249   0.439   3.227   1.975  0.0529 -0.4535  0.2992
 1063SOL    HW2 4250   0.444   3.315   1.938  0.8455 -0.2865  0.7745
 1063SOL    HW3 4251   0.520   3.185   1.947 -0.5120 -1.1734 -0.2652
 1063SOL    MW4 4252   0.450   3.233   1.967  0.0830 -0.5265  0.2875
 1064SOL     OW 4253   0.458   3.490   1.862 -0.2593 -0.0497 -0.0219
 1064SOL    HW2 4254   0.542   3.532   1.883 -1.3668  2.1901  0.1111
 1064SOL    HW3 4255   0.466   3.468   1.769 -0.2663  2.0631 -0.5633
 1064SOL    MW4 4256   0.470   3.493   1.852 -0.4063  0.5245 -0.0758
 1065SOL     OW 4257   0.671   3.610   1.978 -0.0615 -0.6609  0.4235
 1065SOL    HW2 4258   0.751   3.568   1.946  0.4165 -0.5246  1.4326
 1065SOL    HW3 4259   0.673   3.697   1.937  0.3877 -0.5968  0.5802
 1065SOL    MW4 4260   0.682   3.616   1.968  0.0608 -0.6345  0.5773
 1066SOL     OW 4261   0.658   3.862   1.856  0.0991  0.3267  0.2056
 1066SOL    HW2 4262   0.739   3.906   1.881  0.7546 -0.5530 -0.3612
 1066SOL    HW3 4263   0.661   3.859   1.761 -1.6122  2.1935  0.0471
 1066SOL    MW4 4264   0.669   3.867   1.847 -0.0402  0.4569  0.1099
 1067SOL     OW 4265   0.464   4.031   1.956 -0.3429 -0.5063 -0.1571
 1067SOL    HW2 4266   0.478   4.120   1.925 -0.7296 -0.4465 -0.1668
 1067SOL    HW3 4267   0.544   3.984   1.933 -0.1600 -0.1723 -0.1933
 1067SOL    MW4 4268   0.477   4.036   1.949 -0.3698 -0.4544 -0.1632
 1068SOL     OW 4269   0.465   4.298   1.882 -0.0418 -0.3839 -0.3025
 1068SOL    HW2 4270   0.377   4.328   1.905 -0.0480 -0.6356  0.0126
 1068SOL    HW3 4271   0.466   4.299   1.786 -0.0906  0.4643 -0.2993
 1068SOL    MW4 4272   0.453   4.302   1.873 -0.0491 -0.3052 -0.2605
 1069SOL     OW 4273   0.695   4.364   2.010 -0.1990  0.3095 -0.1175
 1069SOL    HW2 4274   0.755   4.327   1.945 -0.6124  0.7331 -0.7453
 1069SOL    HW3 4275   0.608   4.348   1.974 -0.4032  1.4018 -0.1356
 1069SOL    MW4 4276   0.691   4.357   1.997 -0.2805  0.5095 -0.2027
 1070SOL     OW 4277   1.115   4.625   1.841 -0.1092 -0.4162  0.2403
 1070SOL    HW2 4278   1.177   4.673   1.896 -0.7229  0.4512  0.1930
 1070SOL    HW3 4279   1.127   4.533   1.866  1.3809 -0.2944  0.0277
 1070SOL    MW4 4280   1.125   4.619   1.852  0.0064 -0.2857  0.2060
 1071SOL     OW 4281   0.936   0.085   2.010  0.2565 -0.7002  0.1954
 1071SOL    HW2 4282   1.005   0.042   1.960 -0.8367 -0.1853 -1.8081
 1071SOL    HW3 4283   0.855   0.047   1.977 -0.5957  1.0381  0.2074
 1071SOL    MW4 4284   0.934   0.074   1.999 -0.0001 -0.4029 -0.0674
 1072SOL     OW 4285   0.936   0.346   1.887  0.1295  0.1660  0.5860
 1072SOL    HW2 4286   1.006   0.397   1.927 -0.8363  1.0400  1.1854
 1072SOL    HW3 4287   0.951   0.257   1.917  1.6586  0.1174 -0.2345
 1072SOL    MW4 4288   0.947   0.341   1.896  0.2038  0.2749  0.5569
 1073SOL     OW 4289   1.147   0.518   1.978  0.2062  0.0539  0.3529
 1073SOL    HW2 4290   1.210   0.470   1.926 -0.0153 -0.5254  0.6205
 1073SOL    HW3 4291   1.156   0.609   1.949 -0.4236 -0.3700 -1.2156
 1073SOL    MW4 4292   1.156   0.524   1.968  0.0939 -0.0785  0.1813
 1074SOL     OW 4293   1.105   0.782   1.851  0.3334 -0.3939 -0.2198
 1074SOL    HW2 4294   1.176   0.816   1.905  0.3481 -0.4598 -0.1975
 1074SOL    HW3 4295   1.026   0.816   1.891  0.3138 -0.8466  0.1400
 1074SOL    MW4 4296   1.104   0.791   1.864  0.3328 -0.4623 -0.1694
 1075SOL     OW 4297   0.872   0.891   1.932  0.2133  0.3386  0.4088
 1075SOL    HW2 4298   0.864   0.906   2.027 -0.2900  1.0060  0.2620
 1075SOL    HW3 4299   0.889   0.977   1.896 -0.6574  0.2469 -0.2282
 1075SOL    MW4 4300   0.873   0.904   1.940  0.0320  0.4146  0.3054
 1076SOL     OW 4301   0.888   1.142   1.827  0.1409  0.0817 -0.2428
 1076SOL    HW2 4302   0.817   1.199   1.856 -0.1141 -0.6964  0.6902
 1076SOL    HW3 4303   0.879   1.138   1.732 -0.7968  0.3230 -0.1638
 1076SOL    MW4 4304   0.877   1.149   1.818 -0.0165  0.0109 -0.1093
 1077SOL     OW 4305   1.102   1.260   1.910  0.4203  0.2723  0.0727
 1077SOL    HW2 4306   1.108   1.344   1.864 -1.2415 -0.0466 -0.7624
 1077SOL    HW3 4307   1.022   1.220   1.877  1.6364 -2.0388 -0.1723
 1077SOL    MW4 4308   1.092   1.266   1.900  0.3615 -0.0747 -0.0698
 1078SOL     OW 4309   1.114   1.548   1.828  0.3102  0.2053  0.3533
 1078SOL    HW2 4310   1.038   1.586   1.871  0.9042 -0.0905  1.6849
 1078SOL    HW3 4311   1.091   1.547   1.735 -0.7844  1.3063  0.6016
 1078SOL    MW4 4312   1.101   1.553   1.821  0.2441  0.3115  0.5618
 1079SOL     OW 4313   0.893   1.670   1.966  0.1965 -0.1178  0.0420
 1079SOL    HW2 4314   0.898   1.751   1.915 -0.6236  0.9599  1.6491
 1079SOL    HW3 4315   0.824   1.619   1.924  1.3936 -0.4613 -1.5932
 1079SOL    MW4 4316   0.885   1.674   1.954  0.2462 -0.0210  0.0383
 1080SOL     OW 4317   0.921   1.913   1.849  0.5243  0.0577  0.4329
 1080SOL    HW2 4318   0.838   1.952   1.877 -0.3291 -1.4171  0.0126
 1080SOL    HW3 4319   0.919   1.920   1.753 -0.2695 -2.2396  0.2627
 1080SOL    MW4 4320   0.909   1.919   1.840  0.3070 -0.4400  0.3550
 1081SOL     OW 4321   1.148   2.041   1.971  0.2619  0.1413 -0.2157
 1081SOL    HW2 4322   1.154   2.129   1.932  0.5141 -0.3000 -1.1806
 1081SOL    HW3 4323   1.075   2.000   1.925 -0.1601  0.0053  0.5693
 1081SOL    MW4 4324   1.139   2.047   1.960  0.2395  0.0651 -0.2394
 1082SOL     OW 4325   1.136   2.285   1.821  0.2389  0.1358  0.0655
 1082SOL    HW2 4326   1.201   2.347   1.854 -0.4746  0.2690  1.2363
 1082SOL    HW3 4327   1.138   2.296   1.726  1.7576  0.3005  0.1067
 1082SOL    MW4 4328   1.145   2.294   1.813  0.3451  0.1751  0.2254
 1083SOL     OW 4329   0.878   2.395   1.942  0.4689  0.0889 -0.2501
 1083SOL    HW2 4330   0.950   2.337   1.915 -0.4047 -1.2670  0.2852
 1083SOL    HW3 4331   0.799   2.344   1.925 -0.3438  1.3271 -0.2297
 1083SOL    MW4 4332   0.877   2.380   1.936  0.2464  0.0734 -0.1768
 1084SOL     OW 4333   0.909   2.673   1.815  0.6996  0.6611 -0.0217
 1084SOL    HW2 4334   0.905   2.588   1.859 -0.4591 -1.0741 -3.3213
 1084SOL    HW3 4335   0.832   2.720   1.848  0.8936  0.1318  1.2247
 1084SOL    MW4 4336   0.898   2.668   1.825  0.5723  0.3623 -0.2926
 1085SOL     OW 4337   1.125   2.796   1.950  0.2073  0.1640  0.0857
 1085SOL    HW2 4338   1.127   2.795   2.045  1.2247  0.5186  0.0697
 1085SOL    HW3 4339   1.051   2.740   1.927 -0.2922  0.4109  1.0908
 1085SOL    MW4 4340   1.116   2.789   1.959  0.2757  0.2434  0.2162
 1086SOL     OW 4341   1.111   3.068   1.862 -0.4239 -0.0944 -0.4452
 1086SOL    HW2 4342   1.026   3.101   1.892 -0.8861 -1.0530 -0.6871
 1086SOL    HW3 4343   1.109   2.974   1.881  1.1292  0.0997  0.8244
 1086SOL    MW4 4344   1.100   3.060   1.869 -0.2800 -0.1953 -0.3096
 1087SOL     OW 4345   0.897   3.199   1.960 -0.0756  0.5128 -0.4612
 1087SOL    HW2 4346   0.899   3.176   2.052 -0.5946  0.0817 -0.5557
 1087SOL    HW3 4347   0.811   3.170   1.929 -0.2625  1.4732 -0.8704
 1087SOL    MW4 4348   0.886   3.192   1.968 -0.1687  0.5826 -0.5277
 1088SOL     OW 4349   0.884   3.488   1.864 -0.0293 -0.4888 -0.1199
 1088SOL    HW2 4350   0.893   3.398   1.895  0.2017 -1.1808 -2.1109
 1088SOL    HW3 4351   0.891   3.482   1.769  0.7784  1.7314 -0.2471
 1088SOL    MW4 4352   0.886   3.476   1.856  0.1077 -0.2871 -0.3994
 1089SOL     OW 4353   1.121   3.596   1.978  0.3382 -0.5551 -0.0189
 1089SOL    HW2 4354   1.117   3.599   2.073 -1.2189  1.6719 -0.1290
 1089SOL    HW3 4355   1.035   3.564   1.951  0.1346  0.6083 -0.7461
 1089SOL    MW4 4356   1.109   3.592   1.987  0.1059 -0.1078 -0.1294
 1090SOL     OW 4357   1.132   3.853   1.847  0.0179 -0.2419 -0.0150
 1090SOL    HW2 4358   1.128   3.761   1.873 -0.0535 -0.3718 -0.4773
 1090SOL    HW3 4359   1.137   3.851   1.751 -0.7839  0.2485 -0.0754
 1090SOL    MW4 4360   1.132   3.841   1.838 -0.0973 -0.1943 -0.0839
 1091SOL     OW 4361   0.898   3.963   1.947  0.2058 -0.2857 -0.4705
 1091SOL    HW2 4362   0.918   3.991   2.036 -1.3273 -1.4852  0.2607
 1091SOL    HW3 4363   0.978   3.920   1.917  1.0781  1.0134 -0.0620
 1091SOL    MW4 4364   0.911   3.961   1.955  0.1186 -0.2726 -0.3201
 1092SOL     OW 4365   0.869   4.224   1.847 -0.4254  0.1420  0.6722
 1092SOL    HW2 4366   0.944   4.275   1.877  0.6689 -0.4549 -0.9789
 1092SOL    HW3 4367   0.885   4.136   1.880 -0.5007  0.0565  0.4807
 1092SOL    MW4 4368   0.881   4.219   1.855 -0.2909  0.0520  0.4291
 1093SOL     OW 4369   1.087   4.366   1.931  0.7382 -0.2118 -0.4322
 1093SOL    HW2 4370   1.083   4.366   2.027  1.0437 -1.5690 -0.4141
 1093SOL    HW3 4371   1.177   4.338   1.911  0.3895 -0.8574 -1.1181
 1093SOL    MW4 4372   1.099   4.362   1.941  0.7325 -0.4761 -0.5203
 1094SOL     OW 4373   1.516   4.642   1.877 -0.2233 -0.1020  0.2241
 1094SOL    HW2 4374   1.594   4.693   1.897 -0.3169 -0.0517  0.4578
 1094SOL    HW3 4375   1.530   4.557   1.920 -0.0866 -0.2613 -0.1283
 1094SOL    MW4 4376   1.528   4.637   1.885 -0.2176 -0.1164  0.2085
 1095SOL     OW 4377   1.300   0.098   1.975 -0.1040 -0.1832 -0.4854
 1095SOL    HW2 4378   1.311   0.097   2.070 -0.8388 -1.0926 -0.3963
 1095SOL    HW3 4379   1.380   0.057   1.942 -0.3685 -0.9689 -0.1842
 1095SOL    MW4 4380   1.312   0.092   1.983 -0.2359 -0.4068 -0.4339
 1096SOL     OW 4381   1.303   0.361   1.831  0.2139  0.0461 -0.1892
 1096SOL    HW2 4382   1.294   0.272   1.867  2.6948 -0.2930 -0.3036
 1096SOL    HW3 4383   1.286   0.351   1.738 -2.6277  0.2782  0.2715
 1096SOL    MW4 4384   1.300   0.348   1.824  0.1663  0.0320 -0.1435
 1097SOL     OW 4385   1.541   0.481   1.921  0.3759 -0.3248  0.4726
 1097SOL    HW2 4386   1.612   0.445   1.868 -0.5637 -0.4077 -0.7462
 1097SOL    HW3 4387   1.464   0.429   1.897 -0.4296  0.7688  0.6497
 1097SOL    MW4 4388   1.540   0.469   1.911  0.1457 -0.1915  0.3352
 1098SOL     OW 4389   1.529   0.751   1.830  1.0941  0.0557 -0.5416
 1098SOL    HW2 4390   1.608   0.784   1.872  0.1825  0.6380  0.7308
 1098SOL    HW3 4391   1.523   0.660   1.859  0.5828  0.3945  0.4527
 1098SOL    MW4 4392   1.539   0.743   1.839  0.9064  0.1772 -0.2425
 1099SOL     OW 4393   1.344   0.883   1.995  0.3547 -0.2125  0.3526
 1099SOL    HW2 4394   1.353   0.871   2.090 -0.2146 -0.7312  0.3388
 1099SOL    HW3 4395   1.422   0.841   1.959  0.3712 -0.3669  0.5637
 1099SOL    MW4 4396   1.356   0.876   2.003  0.2818 -0.3013  0.3786
 1100SOL     OW 4397   1.331   1.114   1.843  0.3341 -0.6517 -0.0687
 1100SOL    HW2 4398   1.325   1.038   1.902 -1.5749 -0.1462  0.4324
 1100SOL    HW3 4399   1.248   1.160   1.855  0.6655  0.4575 -1.8284
 1100SOL    MW4 4400   1.319   1.110   1.852  0.1260 -0.4386 -0.2348
 1101SOL     OW 4401   1.554   1.280   1.933  0.5715  0.2601  0.0333
 1101SOL    HW2 4402   1.569   1.363   1.890  1.8341 -0.3599 -0.7519
 1101SOL    HW3 4403   1.470   1.249   1.898 -1.3488  2.5121  2.4706
 1101SOL    MW4 4404   1.545   1.287   1.923  0.4847  0.4754  0.2513
 1102SOL     OW 4405   1.601   1.539   1.827  0.0726 -0.1742 -0.4362
 1102SOL    HW2 4406   1.665   1.601   1.863 -0.1606 -0.3815  0.3472
 1102SOL    HW3 4407   1.519   1.560   1.873  0.0197 -1.1378 -0.0779
 1102SOL    MW4 4408   1.599   1.550   1.838  0.0349 -0.3287 -0.2856
 1103SOL     OW 4409   1.368   1.641   1.937 -0.0745 -0.1366 -0.1891
 1103SOL    HW2 4410   1.342   1.651   2.028 -0.0303  0.9614 -0.2833
 1103SOL    HW3 4411   1.288   1.615   1.891  0.3375 -2.6059  0.4682
 1103SOL    MW4 4412   1.354   1.639   1.943 -0.0143 -0.3175 -0.1148
 1104SOL     OW 4413   1.368   1.906   1.864  0.2368  0.0910  0.4489
 1104SOL    HW2 4414   1.371   1.812   1.884 -0.6310 -0.1428 -0.4801
 1104SOL    HW3 4415   1.292   1.938   1.912 -0.5656 -0.0512 -0.7013
 1104SOL    MW4 4416   1.358   1.898   1.873  0.0165  0.0414  0.1746
 1105SOL     OW 4417   1.587   2.064   1.994  0.4962  0.2081 -0.0501
 1105SOL    HW2 4418   1.598   2.150   1.954 -0.0797  0.7530  0.9642
 1105SOL    HW3 4419   1.508   2.028   1.953  0.9124  0.0307 -0.6998
 1105SOL    MW4 4420   1.578   2.070   1.983  0.4751  0.2566 -0.0020
 1106SOL     OW 4421   1.561   2.318   1.852  0.5769  0.3854  0.3487
 1106SOL    HW2 4422   1.635   2.375   1.871  1.5996 -0.6216 -0.5482
 1106SOL    HW3 4423   1.551   2.323   1.756  1.0234 -1.3287  0.1902
 1106SOL    MW4 4424   1.569   2.326   1.842  0.7707  0.0264  0.2094
 1107SOL     OW 4425   1.332   2.418   1.960 -0.0707  0.2636 -0.0436
 1107SOL    HW2 4426   1.346   2.509   1.933 -0.5221  0.1534 -0.6805
 1107SOL    HW3 4427   1.414   2.375   1.940  0.4821  0.7403  1.1817
 1107SOL    MW4 4428   1.344   2.425   1.954 -0.0573  0.3119  0.0341
 1108SOL     OW 4429   1.351   2.673   1.854  0.2781 -0.3849 -0.1029
 1108SOL    HW2 4430   1.277   2.722   1.890 -0.4507 -1.3008 -0.3470
 1108SOL    HW3 4431   1.356   2.700   1.763  2.3892  2.2613  0.7163
 1108SOL    MW4 4432   1.342   2.683   1.847  0.4605 -0.1566 -0.0270
 1109SOL     OW 4433   1.547   2.824   1.974  0.1693 -0.4846 -0.1862
 1109SOL    HW2 4434   1.621   2.782   1.930  1.4478  1.0968  0.4135
 1109SOL    HW3 4435   1.471   2.770   1.950  1.5046 -2.1244 -0.8044
 1109SOL    MW4 4436   1.546   2.811   1.965  0.5141 -0.4923 -0.1886
 1110SOL     OW 4437   1.564   3.073   1.883 -0.3249  0.2850  0.3568
 1110SOL    HW2 4438   1.552   2.982   1.909  2.8547  0.1867  1.6932
 1110SOL    HW3 4439   1.559   3.071   1.787  0.4934 -1.4315  0.3305
 1110SOL    MW4 4440   1.562   3.061   1.873  0.2026  0.0455  0.5296
 1111SOL     OW 4441   1.325   3.207   1.979  0.7587  0.2556  0.0965
 1111SOL    HW2 4442   1.413   3.173   1.968  0.8841  0.5805  0.0978
 1111SOL    HW3 4443   1.268   3.141   1.939  0.8787 -0.7314  1.5089
 1111SOL    MW4 4444   1.329   3.193   1.972  0.7911  0.1683  0.2830
 1112SOL     OW 4445   1.303   3.440   1.826 -0.2833  0.0482 -0.0038
 1112SOL    HW2 4446   1.305   3.359   1.877 -1.7989 -0.5299 -0.8630
 1112SOL    HW3 4447   1.232   3.491   1.864  0.5863  0.9359  0.4552
 1112SOL    MW4 4448   1.294   3.436   1.838 -0.3685  0.0890 -0.0566
 1113SOL     OW 4449   1.528   3.573   1.921  0.0047 -0.1343 -0.2975
 1113SOL    HW2 4450   1.538   3.583   2.015 -1.3395 -2.8383  0.1740
 1113SOL    HW3 4451   1.451   3.517   1.910 -0.7146  1.2933 -3.0488
 1113SOL    MW4 4452   1.519   3.567   1.932 -0.2675 -0.3027 -0.5983
 1114SOL     OW 4453   1.559   3.843   1.848  0.1838  0.1364  0.0695
 1114SOL    HW2 4454   1.636   3.884   1.887  0.6403 -0.0285 -0.6557
 1114SOL    HW3 4455   1.564   3.751   1.875  0.1915  0.1455  0.0990
 1114SOL    MW4 4456   1.570   3.836   1.857  0.2451  0.1159 -0.0223
 1115SOL     OW 4457   1.335   4.009   1.943  0.0331 -0.1239  0.3846
 1115SOL    HW2 4458   1.406   3.951   1.917  0.7561  1.4987 -1.3553
 1115SOL    HW3 4459   1.255   3.964   1.915  0.5998 -0.1961 -1.1661
 1115SOL    MW4 4460   1.334   3.995   1.936  0.2033  0.0807 -0.0496
 1116SOL     OW 4461   1.335   4.271   1.856  0.2755 -0.3819 -0.2945
 1116SOL    HW2 4462   1.334   4.184   1.896 -0.7210 -0.0406  0.4472
 1116SOL    HW3 4463   1.354   4.255   1.763  0.7546 -1.3304 -0.0386
 1116SOL    MW4 4464   1.338   4.258   1.849  0.2073 -0.4620 -0.1628
 1117SOL     OW 4465   1.566   4.383   1.964  0.0098 -0.5187 -0.1440
 1117SOL    HW2 4466   1.541   4.405   2.053  0.0240  2.6257 -0.8559
 1117SOL    HW3 4467   1.489   4.339   1.927  0.0661 -1.9704  1.4433
 1117SOL    MW4 4468   1.553   4.380   1.971  0.0191 -0.2954 -0.0285
 1118SOL     OW 4469   1.989   0.005   1.847 -0.3378 -0.1949 -0.0994
 1118SOL    HW2 4470   2.071   0.053   1.855  0.4649 -1.4836 -0.4828
 1118SOL    HW3 4471   2.010  -0.085   1.874 -1.6517 -0.4952 -0.0173
 1118SOL    MW4 4472   2.002  -0.001   1.851 -0.4053 -0.4046 -0.1392
 1119SOL     OW 4473   1.747   0.110   1.954  0.2555 -0.5474 -0.1905
 1119SOL    HW2 4474   1.749   0.121   2.049 -0.3333 -0.9224 -0.1325
 1119SOL    HW3 4475   1.835   0.077   1.932 -0.1405 -2.0396  0.4305
 1119SOL    MW4 4476   1.759   0.107   1.963  0.1255 -0.7937 -0.1009
 1120SOL     OW 4477   1.764   0.354   1.794  0.1791  0.0460 -0.2026
 1120SOL    HW2 4478   1.756   0.262   1.818  1.5904  0.1202  0.6187
 1120SOL    HW3 4479   1.773   0.354   1.699 -1.6856 -0.5212 -0.4080
 1120SOL    MW4 4480   1.764   0.342   1.785  0.1192 -0.0190 -0.1213
 1121SOL     OW 4481   2.001   0.484   1.889  0.0103  0.4539  0.6984
 1121SOL    HW2 4482   1.993   0.575   1.859 -2.0745  0.5908  1.6326
 1121SOL    HW3 4483   1.914   0.447   1.877  0.5979 -1.1387  1.2780
 1121SOL    MW4 4484   1.989   0.491   1.883 -0.1872  0.2618  0.8981
 1122SOL     OW 4485   1.993   0.774   1.826  0.1251 -0.6655  0.1791
 1122SOL    HW2 4486   2.073   0.815   1.859  0.3465 -1.3929  0.5414
 1122SOL    HW3 4487   2.006   0.769   1.731  0.4522 -0.6684  0.2233
 1122SOL    MW4 4488   2.005   0.779   1.818  0.1975 -0.7618  0.2327
 1123SOL     OW 4489   1.754   0.874   1.949  0.2441 -0.0505  0.1733
 1123SOL    HW2 4490   1.752   0.966   1.922  0.0550 -0.4739 -1.2558
 1123SOL    HW3 4491   1.834   0.839   1.911  0.4825 -0.4061  0.9853
 1123SOL    MW4 4492   1.764   0.881   1.941  0.2506 -0.1533  0.0919
 1124SOL     OW 4493   1.801   1.124   1.847  0.5443  0.3434 -0.7525
 1124SOL    HW2 4494   1.718   1.163   1.873  0.3637  0.7161 -1.8689
 1124SOL    HW3 4495   1.786   1.094   1.757  1.2073 -0.7671 -0.4930
 1124SOL    MW4 4496   1.788   1.125   1.839  0.6080  0.2461 -0.8656
 1125SOL     OW 4497   2.004   1.304   1.928 -1.0279 -0.2911  0.1565
 1125SOL    HW2 4498   2.078   1.259   1.888 -1.1619  0.1139 -0.5471
 1125SOL    HW3 4499   1.927   1.256   1.900 -1.0873 -0.3076  0.3429
 1125SOL    MW4 4500   2.004   1.292   1.919 -1.0534 -0.2399  0.0883
 1126SOL     OW 4501   1.976   1.563   1.814 -0.0979  0.6826 -0.7177
 1126SOL    HW2 4502   1.983   1.476   1.855  2.3487  0.5115 -1.4356
 1126SOL    HW3 4503   1.971   1.544   1.720 -2.3235  1.2280 -0.7370
 1126SOL    MW4 4504   1.976   1.549   1.807 -0.0687  0.7320 -0.8150
 1127SOL     OW 4505   1.783   1.706   1.976  0.0814  0.0591 -0.3982
 1127SOL    HW2 4506   1.780   1.798   1.951 -0.6203  0.4665  1.1159
 1127SOL    HW3 4507   1.857   1.670   1.927 -1.1567  0.8222 -2.9191
 1127SOL    MW4 4508   1.792   1.713   1.966 -0.1745  0.2135 -0.5310
 1128SOL     OW 4509   1.797   1.957   1.865  0.3397  0.8729  0.5663
 1128SOL    HW2 4510   1.720   1.990   1.910 -0.3466 -1.0301  0.8363
 1128SOL    HW3 4511   1.776   1.963   1.772 -0.3690 -0.1335  0.6505
 1128SOL    MW4 4512   1.784   1.962   1.858  0.1557  0.4890  0.6131
 1129SOL     OW 4513   2.038   2.075   1.921  0.1328  0.3419 -0.3671
 1129SOL    HW2 4514   2.106   2.015   1.890 -1.2435 -0.9582 -0.9370
 1129SOL    HW3 4515   1.956   2.028   1.907 -0.8907  1.8386  0.4182
 1129SOL    MW4 4516   2.036   2.061   1.915 -0.1839  0.3679 -0.3387
 1130SOL     OW 4517   2.035   2.334   1.846  0.0314 -0.1633  0.1598
 1130SOL    HW2 4518   2.110   2.385   1.876  0.6306 -0.2189 -1.1945
 1130SOL    HW3 4519   2.049   2.246   1.882  0.0979  0.0736  0.7181
 1130SOL    MW4 4520   2.046   2.329   1.855  0.1192 -0.1394  0.0548
 1131SOL     OW 4521   1.798   2.450   1.931  0.2513 -0.0503  0.3619
 1131SOL    HW2 4522   1.800   2.448   2.027  0.1059 -1.5319  0.3560
 1131SOL    HW3 4523   1.883   2.415   1.905  0.6575  1.2321 -0.0604
 1131SOL    MW4 4524   1.809   2.445   1.941  0.2857 -0.0766  0.3054
 1132SOL     OW 4525   1.777   2.702   1.833  0.4107  0.1103 -0.3636
 1132SOL    HW2 4526   1.782   2.613   1.869  0.8923  0.0819 -0.5016
 1132SOL    HW3 4527   1.786   2.691   1.739 -1.3101  0.1490 -0.5437
 1132SOL    MW4 4528   1.779   2.689   1.826  0.2472  0.1117 -0.4056
 1133SOL     OW 4529   2.020   2.831   1.909 -0.1726 -0.3162  0.4749
 1133SOL    HW2 4530   1.991   2.840   1.999  0.5433 -0.3942  0.7134
 1133SOL    HW3 4531   1.950   2.781   1.866 -0.5253 -0.2557  0.9729
 1133SOL    MW4 4532   2.007   2.826   1.915 -0.1247 -0.3185  0.5720
 1134SOL     OW 4533   2.021   3.103   1.846  0.4932 -0.0861 -0.2717
 1134SOL    HW2 4534   1.947   3.140   1.894 -0.2062 -0.0646 -1.3409
 1134SOL    HW3 4535   2.020   3.010   1.868  0.0794 -0.1062 -0.3737
 1134SOL    MW4 4536   2.011   3.096   1.855  0.3464 -0.0860 -0.4262
 1135SOL     OW 4537   1.795   3.207   1.962 -0.0775  0.2404  0.0369
 1135SOL    HW2 4538   1.793   3.211   2.057  0.4261  0.2388  0.0488
 1135SOL    HW3 4539   1.719   3.153   1.938  0.8742 -1.3450  0.5237
 1135SOL    MW4 4540   1.784   3.200   1.971  0.1145  0.0310  0.1027
 1136SOL     OW 4541   1.770   3.458   1.853  0.2544  0.3691 -0.3138
 1136SOL    HW2 4542   1.779   3.369   1.885  0.0366  0.1599 -0.8305
 1136SOL    HW3 4543   1.677   3.479   1.866  0.0893  0.1561 -1.1353
 1136SOL    MW4 4544   1.759   3.449   1.859  0.2039  0.3134 -0.4904
 1137SOL     OW 4545   1.976   3.610   1.983 -0.4423  0.1304  0.3419
 1137SOL    HW2 4546   1.986   3.691   1.933 -0.5804  0.0610  0.2011
 1137SOL    HW3 4547   1.903   3.565   1.941 -0.1109 -0.2504  0.1783
 1137SOL    MW4 4548   1.968   3.615   1.971 -0.4168  0.0710  0.3018
 1138SOL     OW 4549   1.999   3.850   1.828  0.8918 -0.4184 -0.0498
 1138SOL    HW2 4550   2.078   3.902   1.844  1.5755 -1.6281  0.6302
 1138SOL    HW3 4551   1.982   3.859   1.735  2.2621 -0.7301 -0.3331
 1138SOL    MW4 4552   2.007   3.858   1.818  1.1628 -0.6192  0.0025
 1139SOL     OW 4553   1.780   3.964   1.954  0.0488  0.1937 -0.1344
 1139SOL    HW2 4554   1.790   4.054   1.925 -0.8928  0.2815 -0.1903
 1139SOL    HW3 4555   1.856   3.919   1.918  1.0944  1.1811  0.7816
 1139SOL    MW4 4556   1.791   3.970   1.946  0.0625  0.3356 -0.0209
 1140SOL     OW 4557   1.815   4.246   1.882 -0.2867 -0.1836 -0.3541
 1140SOL    HW2 4558   1.733   4.291   1.903  0.1211  0.1411  0.5228
 1140SOL    HW3 4559   1.814   4.239   1.786 -1.9144 -1.2457 -0.2890
 1140SOL    MW4 4560   1.804   4.251   1.872 -0.4477 -0.2809 -0.2298
 1141SOL     OW 4561   2.019   4.412   1.954  0.1006  0.2640  0.2857
 1141SOL    HW2 4562   2.099   4.361   1.944  0.0370  0.2370 -0.1080
 1141SOL    HW3 4563   1.949   4.355   1.923 -0.1632  0.0346  1.2764
 1141SOL    MW4 4564   2.020   4.398   1.949  0.0574  0.2302  0.3645
 1142SOL     OW 4565   2.468   4.666   1.835  0.0128 -0.2938 -0.4847
 1142SOL    HW2 4566   2.555   4.695   1.860 -0.5769  0.1981  1.0380
 1142SOL    HW3 4567   2.456   4.583   1.883 -0.1852 -0.5821 -1.0311
 1142SOL    MW4 4568   2.478   4.659   1.845 -0.0911 -0.2669 -0.3559
 1143SOL     OW 4569   2.231   0.118   1.934  0.3074 -0.6491 -0.1880
 1143SOL    HW2 4570   2.239   0.121   2.029 -1.0559 -2.8326  0.0262
 1143SOL    HW3 4571   2.310   0.074   1.904  0.9809  0.4928 -0.1370
 1143SOL    MW4 4572   2.243   0.113   1.943  0.2164 -0.7865 -0.1530
 1144SOL     OW 4573   2.259   0.370   1.804  0.2783 -0.0610  0.0672
 1144SOL    HW2 4574   2.267   0.285   1.849 -0.1697  0.2230  0.6986
 1144SOL    HW3 4575   2.166   0.392   1.811  0.4116  0.5370  0.0182
 1144SOL    MW4 4576   2.248   0.362   1.811  0.2368  0.0554  0.1440
 1145SOL     OW 4577   2.479   0.536   1.897  0.3190 -0.3540  0.3267
 1145SOL    HW2 4578   2.543   0.485   1.847 -0.5552 -1.9922  0.8462
 1145SOL    HW3 4579   2.395   0.496   1.876 -0.4045  0.9579  0.6707
 1145SOL    MW4 4580   2.477   0.524   1.887  0.1082 -0.3970  0.4407
 1146SOL     OW 4581   2.486   0.803   1.826 -0.2095 -0.6467  0.3463
 1146SOL    HW2 4582   2.467   0.713   1.851 -0.3682 -0.3752  1.2029
 1146SOL    HW3 4583   2.479   0.803   1.730  0.1332 -1.6186  0.3185
 1146SOL    MW4 4584   2.482   0.791   1.816 -0.1852 -0.7391  0.4556
 1147SOL     OW 4585   2.255   0.897   1.921 -0.2700 -0.1813 -0.0158
 1147SOL    HW2 4586   2.251   0.895   2.016 -1.1449  0.1088 -0.0490
 1147SOL    HW3 4587   2.344   0.866   1.900 -0.7038 -2.0911  0.8347
 1147SOL    MW4 4588   2.266   0.892   1.931 -0.4427 -0.3950  0.0920
 1148SOL     OW 4589   2.212   1.138   1.816  0.4222 -0.1351 -0.2195
 1148SOL    HW2 4590   2.295   1.177   1.844  0.1135  0.1798  0.2587
 1148SOL    HW3 4591   2.219   1.046   1.841  0.8871 -0.2469 -0.7582
 1148SOL    MW4 4592   2.224   1.131   1.823  0.4428 -0.1083 -0.2275
 1149SOL     OW 4593   2.447   1.263   1.923  0.1664 -0.1314  0.3377
 1149SOL    HW2 4594   2.445   1.266   2.018 -0.6693 -0.4846  0.3363
 1149SOL    HW3 4595   2.455   1.354   1.896  1.4619 -0.1197  0.7652
 1149SOL    MW4 4596   2.448   1.275   1.932  0.2271 -0.1764  0.3939
 1150SOL     OW 4597   2.462   1.527   1.855 -0.4800 -0.1850  0.2314
 1150SOL    HW2 4598   2.397   1.593   1.878  0.0503  0.3544  0.2108
 1150SOL    HW3 4599   2.460   1.523   1.760  0.7545  1.1213  0.1295
 1150SOL    MW4 4600   2.453   1.535   1.846 -0.2471  0.0585  0.2152
 1151SOL     OW 4601   2.221   1.666   1.918  0.2090  0.1605  0.0736
 1151SOL    HW2 4602   2.212   1.653   2.012  0.5571 -1.3322 -0.0748
 1151SOL    HW3 4603   2.140   1.630   1.882  0.3845  0.0712 -0.2352
 1151SOL    MW4 4604   2.209   1.659   1.926  0.2781 -0.0482  0.0133
 1152SOL     OW 4605   2.262   1.928   1.863  0.0602 -0.1479  0.5818
 1152SOL    HW2 4606   2.344   1.954   1.907 -0.1347 -0.0381  0.8844
 1152SOL    HW3 4607   2.256   1.833   1.877  0.5583 -0.2932 -0.1578
 1152SOL    MW4 4608   2.272   1.919   1.871  0.1002 -0.1526  0.5242
 1153SOL     OW 4609   2.495   2.062   1.953  0.8715 -0.3423  0.1039
 1153SOL    HW2 4610   2.569   2.015   1.914  0.4264 -0.2872 -0.8349
 1153SOL    HW3 4611   2.486   2.141   1.900 -0.5401 -0.8820 -0.5126
 1153SOL    MW4 4612   2.503   2.066   1.941  0.6265 -0.4063 -0.1013
 1154SOL     OW 4613   2.483   2.313   1.834 -0.0352 -0.0880  0.0040
 1154SOL    HW2 4614   2.563   2.348   1.875 -1.3572  2.7074  0.3367
 1154SOL    HW3 4615   2.412   2.356   1.880 -1.7517 -2.4527 -0.3957
 1154SOL    MW4 4616   2.484   2.323   1.845 -0.4361 -0.0311 -0.0048
 1155SOL     OW 4617   2.279   2.423   1.955 -0.5120  0.1328  0.3286
 1155SOL    HW2 4618   2.276   2.412   2.050 -1.0052  0.8621  0.3986
 1155SOL    HW3 4619   2.284   2.518   1.943  1.8899 -0.0339 -0.3023
 1155SOL    MW4 4620   2.280   2.434   1.966 -0.2602  0.2070  0.2546
 1156SOL     OW 4621   2.274   2.689   1.878 -0.2849 -0.4245 -0.1578
 1156SOL    HW2 4622   2.191   2.732   1.899  0.5817  1.1040  0.2615
 1156SOL    HW3 4623   2.270   2.674   1.784 -0.4713  0.9463 -0.3846
 1156SOL    MW4 4624   2.263   2.693   1.868 -0.1952 -0.0420 -0.1324
 1157SOL     OW 4625   2.494   2.825   1.974 -0.3352 -0.6716  0.4506
 1157SOL    HW2 4626   2.488   2.910   1.931  0.9796 -0.9138 -0.2490
 1157SOL    HW3 4627   2.419   2.775   1.942 -0.0532 -0.4253 -0.6000
 1157SOL    MW4 4628   2.484   2.830   1.964 -0.1246 -0.6711  0.2197
 1158SOL     OW 4629   2.511   3.083   1.870 -0.1163 -0.2362  0.2910
 1158SOL    HW2 4630   2.427   3.129   1.880 -0.2257 -0.5170  0.6723
 1158SOL    HW3 4631   2.524   3.077   1.776 -0.1976  0.4117  0.2389
 1158SOL    MW4 4632   2.502   3.088   1.859 -0.1415 -0.1878  0.3344
 1159SOL     OW 4633   2.254   3.219   1.936 -0.0720  0.6086 -0.1128
 1159SOL    HW2 4634   2.230   3.227   2.028 -0.5093 -0.0709 -0.1641
 1159SOL    HW3 4635   2.181   3.171   1.896  0.2126  0.7180 -0.7671
 1159SOL    MW4 4636   2.241   3.214   1.943 -0.0921  0.5334 -0.2059
 1160SOL     OW 4637   2.207   3.488   1.886 -0.4551  0.1529  0.5054
 1160SOL    HW2 4638   2.219   3.394   1.896 -1.1770 -0.0986 -0.8267
 1160SOL    HW3 4639   2.131   3.509   1.940 -0.3386 -0.0483  0.7441
 1160SOL    MW4 4640   2.198   3.478   1.894 -0.5349  0.0932  0.3611
 1161SOL     OW 4641   2.431   3.608   1.979 -0.3164 -0.1385 -0.3108
 1161SOL    HW2 4642   2.425   3.618   2.074 -2.1817  1.4312 -0.5810
 1161SOL    HW3 4643   2.351   3.563   1.954 -0.1451  0.0646 -1.2424
 1161SOL    MW4 4644   2.420   3.603   1.988 -0.5399  0.0954 -0.4694
 1162SOL     OW 4645   2.474   3.865   1.886  0.1824 -0.2104 -0.0351
 1162SOL    HW2 4646   2.388   3.901   1.909  0.0716  0.1945 -1.0314
 1162SOL    HW3 4647   2.469   3.773   1.911 -0.8342 -0.3875 -0.8198
 1162SOL    MW4 4648   2.462   3.858   1.892  0.0337 -0.1804 -0.2701
 1163SOL     OW 4649   2.222   3.989   1.940  0.0622 -0.0955  0.4970
 1163SOL    HW2 4650   2.215   3.983   2.035 -0.9612 -1.1416  0.3705
 1163SOL    HW3 4651   2.229   4.083   1.922  1.9484  0.0278  1.6933
 1163SOL    MW4 4652   2.222   4.000   1.950  0.1761 -0.2173  0.6381
 1164SOL     OW 4653   2.241   4.251   1.896 -0.5911  0.3146  0.2661
 1164SOL    HW2 4654   2.321   4.296   1.921 -1.4527  1.6180  0.7189
 1164SOL    HW3 4655   2.244   4.249   1.800  0.1782 -0.0025  0.2956
 1164SOL    MW4 4656   2.252   4.257   1.887 -0.6033  0.4448  0.3297
 1165SOL     OW 4657   2.464   4.406   1.955  0.2650 -0.3265 -0.2900
 1165SOL    HW2 4658   2.450   4.393   2.049 -0.0715  0.2489 -0.2625
 1165SOL    HW3 4659   2.546   4.360   1.937  0.2035 -0.6462  0.2380
 1165SOL    MW4 4660   2.473   4.398   1.965  0.2125 -0.2928 -0.2167
 1166SOL     OW 4661   2.924   4.646   1.853  0.2765 -0.1017  0.3699
 1166SOL    HW2 4662   3.010   4.687   1.862  0.5460 -0.6604  0.4069
 1166SOL    HW3 4663   2.933   4.562   1.899 -0.0080 -0.5638 -0.3917
 1166SOL    MW4 4664   2.937   4.640   1.860  0.2746 -0.2364  0.2743
 1167SOL     OW 4665   2.705   0.117   1.940 -0.4401  0.3445  0.2637
 1167SOL    HW2 4666   2.695   0.099   2.033 -1.8440 -2.3213 -0.3282
 1167SOL    HW3 4667   2.794   0.089   1.920 -0.5317 -0.2166  0.6037
 1167SOL    MW4 4668   2.715   0.111   1.950 -0.6374 -0.0812  0.2305
 1168SOL     OW 4669   2.721   0.385   1.856  0.1143  0.4620 -0.1096
 1168SOL    HW2 4670   2.805   0.415   1.892  0.4222 -0.2126 -0.2573
 1168SOL    HW3 4671   2.708   0.299   1.894  0.4430 -0.2702 -1.5911
 1168SOL    MW4 4672   2.730   0.378   1.866  0.1983  0.2764 -0.3246
 1169SOL     OW 4673   2.940   0.521   1.956  0.0220 -0.3000 -0.2210
 1169SOL    HW2 4674   3.010   0.477   1.908  0.8269 -0.6718  1.2557
 1169SOL    HW3 4675   2.929   0.605   1.911 -0.0105 -1.0840 -1.7098
 1169SOL    MW4 4676   2.948   0.526   1.944  0.1239 -0.4525 -0.2226
 1170SOL     OW 4677   2.931   0.777   1.829 -0.1356  0.2925 -0.4536
 1170SOL    HW2 4678   3.003   0.822   1.874 -0.3928 -0.3175  0.5763
 1170SOL    HW3 4679   2.853   0.799   1.880 -0.8048  1.5401 -1.9876
 1170SOL    MW4 4680   2.931   0.786   1.842 -0.2578  0.3766 -0.5201
 1171SOL     OW 4681   2.705   0.863   1.971  0.2030  0.4082  0.1940
 1171SOL    HW2 4682   2.692   0.955   1.949 -1.4184 -0.2475 -1.7201
 1171SOL    HW3 4683   2.639   0.817   1.920  0.6863 -1.7871  1.4973
 1171SOL    MW4 4684   2.695   0.869   1.961  0.0529  0.0320  0.1134
 1172SOL     OW 4685   2.681   1.118   1.861  0.2600  0.2129 -0.2502
 1172SOL    HW2 4686   2.610   1.179   1.878  0.2612  0.1530 -0.0293
 1172SOL    HW3 4687   2.684   1.111   1.766  0.0070  0.2599 -0.2631
 1172SOL    MW4 4688   2.672   1.125   1.851  0.2268  0.2112 -0.2228
 1173SOL     OW 4689   2.931   1.259   1.965  0.4272  0.0460 -0.0209
 1173SOL    HW2 4690   2.928   1.348   1.931  0.6635  0.3297  0.7127
 1173SOL    HW3 4691   2.847   1.221   1.939  0.5266  0.3185 -0.7668
 1173SOL    MW4 4692   2.920   1.266   1.957  0.4715  0.1194 -0.0225
 1174SOL     OW 4693   2.905   1.531   1.886  0.1458 -0.3873 -0.3138
 1174SOL    HW2 4694   2.989   1.571   1.906  0.3245 -0.9973  0.1622
 1174SOL    HW3 4695   2.903   1.524   1.791  1.7737 -2.8184 -0.1977
 1174SOL    MW4 4696   2.916   1.535   1.876  0.3841 -0.7885 -0.2357
 1175SOL     OW 4697   2.664   1.669   1.972 -0.1299 -0.1674  0.0848
 1175SOL    HW2 4698   2.748   1.631   1.943  0.2430  1.8260 -1.6248
 1175SOL    HW3 4699   2.598   1.612   1.933  0.4218 -0.6400 -0.1847
 1175SOL    MW4 4700   2.667   1.657   1.963 -0.0079  0.0333 -0.1763
 1176SOL     OW 4701   2.704   1.923   1.856  0.1164 -0.0890 -0.0963
 1176SOL    HW2 4702   2.757   1.966   1.923 -1.6267  1.7796  0.1295
 1176SOL    HW3 4703   2.690   1.835   1.890  1.5286 -0.0256  0.6946
 1176SOL    MW4 4704   2.709   1.917   1.869  0.0727  0.1659  0.0378
 1177SOL     OW 4705   2.890   2.062   1.996 -0.1368  0.1514  0.2895
 1177SOL    HW2 4706   2.920   2.068   2.086 -0.0607 -0.8738  0.3436
 1177SOL    HW3 4707   2.957   2.010   1.952  0.4255  1.6237 -0.6425
 1177SOL    MW4 4708   2.902   2.056   2.002 -0.0526  0.2104  0.1737
 1178SOL     OW 4709   2.944   2.291   1.850 -0.4126 -0.0872  0.0058
 1178SOL    HW2 4710   3.002   2.351   1.897 -0.1921 -0.0665 -0.2951
 1178SOL    HW3 4711   2.931   2.217   1.910  0.8204 -0.6169 -0.3677
 1178SOL    MW4 4712   2.950   2.289   1.864 -0.2209 -0.1543 -0.0832
 1179SOL     OW 4713   2.715   2.422   1.944  0.3416  0.1009 -0.1288
 1179SOL    HW2 4714   2.703   2.515   1.925 -0.5748  0.2559  1.0969
 1179SOL    HW3 4715   2.789   2.396   1.890  1.2285  1.7813  0.2329
 1179SOL    MW4 4716   2.723   2.431   1.935  0.3377  0.3431  0.0806
 1180SOL     OW 4717   2.736   2.701   1.909  0.1175 -0.1188  0.3536
 1180SOL    HW2 4718   2.653   2.736   1.944  0.5256  0.3984  0.8243
 1180SOL    HW3 4719   2.720   2.690   1.816 -0.2462  0.7080  0.3102
 1180SOL    MW4 4720   2.723   2.704   1.901  0.1234  0.0585  0.4100
 1181SOL     OW 4721   2.969   2.843   1.969 -0.2664 -0.0134 -0.5250
 1181SOL    HW2 4722   2.954   2.936   1.951  0.7244  0.1598 -0.4631
 1181SOL    HW3 4723   2.891   2.800   1.934 -0.5057  0.7872 -1.0100
 1181SOL    MW4 4724   2.957   2.850   1.962 -0.1673  0.1151 -0.5809
 1182SOL     OW 4725   2.942   3.093   1.880 -0.7200 -0.9536  0.7474
 1182SOL    HW2 4726   3.016   3.146   1.908  0.7848 -1.0509 -2.7776
 1182SOL    HW3 4727   2.865   3.145   1.905  0.6470  1.3270  0.4091
 1182SOL    MW4 4728   2.941   3.107   1.887 -0.3411 -0.6655  0.2377
 1183SOL     OW 4729   2.702   3.207   2.000 -0.1124  0.2074  0.0077
 1183SOL    HW2 4730   2.682   3.293   1.962  0.1377  0.8279  1.2491
 1183SOL    HW3 4731   2.644   3.146   1.954 -1.5505  1.3025  0.3336
 1183SOL    MW4 4732   2.691   3.210   1.989 -0.2691  0.4337  0.2145
 1184SOL     OW 4733   2.659   3.491   1.883 -0.6280  0.3294 -0.2782
 1184SOL    HW2 4734   2.731   3.532   1.931  0.1352  1.0870 -2.0312
 1184SOL    HW3 4735   2.580   3.527   1.923 -0.0673 -0.2331  1.4215
 1184SOL    MW4 4736   2.658   3.501   1.895 -0.4533  0.3551 -0.2852
 1185SOL     OW 4737   2.901   3.607   1.984  0.1438 -0.1707  0.1344
 1185SOL    HW2 4738   2.912   3.614   2.079 -1.0509  1.5660  0.1699
 1185SOL    HW3 4739   2.986   3.576   1.953  1.0869  0.8245  1.6199
 1185SOL    MW4 4740   2.914   3.604   1.993  0.1106  0.1898  0.3351
 1186SOL     OW 4741   2.953   3.849   1.883  0.0787  0.2694  0.1094
 1186SOL    HW2 4742   2.920   3.774   1.932  0.4430  0.6641  0.9648
 1186SOL    HW3 4743   2.948   3.822   1.791 -1.9988  0.0714  0.2569
 1186SOL    MW4 4744   2.948   3.836   1.877 -0.1473  0.2953  0.2417
 1187SOL     OW 4745   2.716   4.009   1.974 -0.6508 -0.3140 -0.3216
 1187SOL    HW2 4746   2.789   3.966   1.930 -1.3381 -0.1875 -1.6136
 1187SOL    HW3 4747   2.638   3.976   1.930 -1.4280 -0.9085  1.4423
 1187SOL    MW4 4748   2.715   3.999   1.963 -0.8440 -0.3758 -0.2593
 1188SOL     OW 4749   2.710   4.268   1.902  0.1793 -0.2198 -0.0283
 1188SOL    HW2 4750   2.716   4.180   1.939 -0.1520 -0.3984 -0.4076
 1188SOL    HW3 4751   2.735   4.258   1.810 -1.4112 -0.1787 -0.4649
 1188SOL    MW4 4752   2.714   4.255   1.895 -0.0743 -0.2380 -0.1360
 1189SOL     OW 4753   2.943   4.394   1.965 -0.2899  0.0618 -0.1635
 1189SOL    HW2 4754   2.949   4.386   2.060  0.5263 -1.2871 -0.3085
 1189SOL    HW3 4755   2.855   4.361   1.944  0.4997 -2.1738 -0.0977
 1189SOL    MW4 4756   2.932   4.389   1.974 -0.0780 -0.4111 -0.1739
 1190SOL     OW 4757   3.394   4.650   1.869 -0.0903 -0.0044 -0.0768
 1190SOL    HW2 4758   3.399   4.555   1.882 -0.8740 -0.2228 -1.2950
 1190SOL    HW3 4759   3.394   4.661   1.774  0.9106  1.2772  0.0555
 1190SOL    MW4 4760   3.395   4.639   1.858 -0.0616  0.1359 -0.2201
 1191SOL     OW 4761   3.164   0.097   1.924  0.3016  0.0134  0.0998
 1191SOL    HW2 4762   3.166   0.111   2.019 -1.2287 -0.7704  0.2524
 1191SOL    HW3 4763   3.244   0.046   1.906  0.3142 -0.3112  1.0459
 1191SOL    MW4 4764   3.175   0.092   1.934  0.1014 -0.1328  0.2448
 1192SOL     OW 4765   3.159   0.347   1.837  0.1355  0.2035 -0.6186
 1192SOL    HW2 4766   3.152   0.258   1.872 -0.8432  0.6264  0.2910
 1192SOL    HW3 4767   3.134   0.338   1.745 -1.8420 -0.1718 -0.0734
 1192SOL    MW4 4768   3.154   0.334   1.829 -0.2546  0.2097 -0.4267
 1193SOL     OW 4769   3.385   0.523   1.893 -0.5708  0.0065  0.2795
 1193SOL    HW2 4770   3.459   0.479   1.850  0.2229  1.7204 -0.1821
 1193SOL    HW3 4771   3.308   0.476   1.863  0.0451  0.6127 -2.4007
 1193SOL    MW4 4772   3.385   0.511   1.883 -0.3848  0.3126 -0.1350
 1194SOL     OW 4773   3.371   0.796   1.816 -0.4895  0.4895 -0.0700
 1194SOL    HW2 4774   3.303   0.844   1.864 -1.7615 -0.3160 -1.0301
 1194SOL    HW3 4775   3.372   0.709   1.857 -1.5869 -0.2051 -1.4789
 1194SOL    MW4 4776   3.362   0.791   1.828 -0.8021  0.2916 -0.3826
 1195SOL     OW 4777   3.145   0.890   1.948 -0.1613 -0.8365  0.1029
 1195SOL    HW2 4778   3.141   0.907   2.043 -0.8783 -1.8141  0.2561
 1195SOL    HW3 4779   3.145   0.977   1.909  1.5500 -0.3871  1.0490
 1195SOL    MW4 4780   3.144   0.904   1.956 -0.0301 -0.9062  0.2479
 1196SOL     OW 4781   3.146   1.150   1.842  0.3547  0.5055  0.0863
 1196SOL    HW2 4782   3.217   1.212   1.857 -0.3813  2.0270 -2.4735
 1196SOL    HW3 4783   3.071   1.189   1.887  0.2809  0.6372 -0.1544
 1196SOL    MW4 4784   3.145   1.163   1.850  0.2479  0.7237 -0.2832
 1197SOL     OW 4785   3.372   1.303   1.914 -0.0855  0.1263 -0.0473
 1197SOL    HW2 4786   3.381   1.305   2.009  0.0672 -1.4754 -0.0172
 1197SOL    HW3 4787   3.374   1.395   1.888  1.4838  0.5193  1.3521
 1197SOL    MW4 4788   3.374   1.315   1.923  0.1417 -0.0332  0.1413
 1198SOL     OW 4789   3.389   1.569   1.818 -0.3757  0.2023  0.5201
 1198SOL    HW2 4790   3.467   1.599   1.865  0.2537 -0.0398 -0.3482
 1198SOL    HW3 4791   3.315   1.605   1.867  0.1637 -2.0935  3.1373
 1198SOL    MW4 4792   3.389   1.577   1.830 -0.2215 -0.1326  0.7509
 1199SOL     OW 4793   3.161   1.640   1.951 -0.1251 -0.5062  0.0382
 1199SOL    HW2 4794   3.167   1.648   2.046 -0.6394 -0.8811  0.0986
 1199SOL    HW3 4795   3.137   1.728   1.921  1.4930 -0.0177  0.1328
 1199SOL    MW4 4796   3.159   1.653   1.959  0.0206 -0.4912  0.0587
 1200SOL     OW 4797   3.109   1.902   1.872 -0.0520  0.2877  0.1000
 1200SOL    HW2 4798   3.190   1.944   1.901  0.2920  0.1118 -0.5937
 1200SOL    HW3 4799   3.118   1.895   1.777  0.1695 -1.9098  0.2583
 1200SOL    MW4 4800   3.121   1.906   1.863  0.0226 -0.0255  0.0293
 1201SOL     OW 4801   3.339   2.028   1.961  0.1152 -0.1387  0.3885
 1201SOL    HW2 4802   3.412   1.989   1.912 -1.2966  0.5433 -2.4051
 1201SOL    HW3 4803   3.352   2.122   1.953  0.3242 -0.0115  2.0996
 1201SOL    MW4 4804   3.350   2.035   1.953 -0.0435 -0.0320  0.2456
 1202SOL     OW 4805   3.361   2.300   1.891  0.3322  0.2013  0.7411
 1202SOL    HW2 4806   3.279   2.346   1.911  1.6436  2.7385  0.5532
 1202SOL    HW3 4807   3.371   2.309   1.796  0.3367 -0.9650  0.6288
 1202SOL    MW4 4808   3.352   2.307   1.881  0.5058  0.3822  0.7015
 1203SOL     OW 4809   3.151   2.459   1.964 -0.3490  0.3845 -0.1415
 1203SOL    HW2 4810   3.138   2.465   2.059 -1.4169 -0.4999 -0.2222
 1203SOL    HW3 4811   3.160   2.550   1.936 -0.7935  0.6988  0.7078
 1203SOL    MW4 4812   3.150   2.472   1.973 -0.5486  0.3093 -0.0401
 1204SOL     OW 4813   3.172   2.709   1.866  0.3726 -0.4117 -0.0823
 1204SOL    HW2 4814   3.110   2.774   1.898  2.0735  1.9956 -1.5510
 1204SOL    HW3 4815   3.156   2.706   1.771  0.1248 -2.3631 -0.0011
 1204SOL    MW4 4816   3.162   2.717   1.858  0.5643 -0.3516 -0.2654
 1205SOL     OW 4817   3.415   2.806   1.948  0.1195 -0.3698  0.3487
 1205SOL    HW2 4818   3.405   2.827   2.041 -1.1296 -0.4342  0.2350
 1205SOL    HW3 4819   3.327   2.783   1.919  0.7956 -2.0003 -0.4588
 1205SOL    MW4 4820   3.402   2.806   1.956  0.0439 -0.5934  0.2271
 1206SOL     OW 4821   3.385   3.070   1.863  0.5672  0.1311  0.0711
 1206SOL    HW2 4822   3.470   3.105   1.891 -0.0887  0.6636  1.4474
 1206SOL    HW3 4823   3.389   2.977   1.884  0.8665  0.1170 -0.0373
 1206SOL    MW4 4824   3.397   3.063   1.869  0.5201  0.1995  0.2384
 1207SOL     OW 4825   3.173   3.216   1.977  0.0071 -0.2313  0.4067
 1207SOL    HW2 4826   3.163   3.296   1.924 -0.6678 -0.1444  0.6703
 1207SOL    HW3 4827   3.248   3.172   1.938  1.9384  1.7311  1.7678
 1207SOL    MW4 4828   3.182   3.221   1.965  0.1729  0.0391  0.6210
 1208SOL     OW 4829   3.130   3.474   1.887  0.0141 -0.2634  0.5908
 1208SOL    HW2 4830   3.214   3.507   1.919 -1.1357  1.7929  1.5852
 1208SOL    HW3 4831   3.130   3.494   1.794  1.4613 -2.1268  0.1578
 1208SOL    MW4 4832   3.141   3.481   1.879  0.0533 -0.2379  0.6649
 1209SOL     OW 4833   3.381   3.581   1.977  0.1276 -0.1609  0.1712
 1209SOL    HW2 4834   3.466   3.554   1.943  0.9691  1.7096  0.7355
 1209SOL    HW3 4835   3.355   3.654   1.921 -0.1734  0.5795  1.2711
 1209SOL    MW4 4836   3.389   3.587   1.965  0.1989  0.1836  0.3908
 1210SOL     OW 4837   3.370   3.831   1.853 -0.3855 -0.1337 -0.0875
 1210SOL    HW2 4838   3.311   3.897   1.889  0.3857  0.1452  0.6696
 1210SOL    HW3 4839   3.378   3.853   1.760 -0.1830  0.8006  0.1518
 1210SOL    MW4 4840   3.363   3.842   1.845 -0.2571  0.0264  0.0439
 1211SOL     OW 4841   3.168   3.987   1.991 -0.2734 -0.2454 -0.4417
 1211SOL    HW2 4842   3.159   3.976   2.085 -1.4039 -1.8488 -0.7146
 1211SOL    HW3 4843   3.099   3.932   1.954 -0.7687  1.4566 -2.1644
 1211SOL    MW4 4844   3.158   3.978   1.998 -0.4879 -0.2324 -0.7050
 1212SOL     OW 4845   3.187   4.244   1.868 -0.1081  0.1322  0.5442
 1212SOL    HW2 4846   3.187   4.160   1.915 -0.7793 -1.2899 -1.9110
 1212SOL    HW3 4847   3.110   4.290   1.901 -0.8841 -1.0826  0.4480
 1212SOL    MW4 4848   3.177   4.239   1.879 -0.2991 -0.2157  0.2076
 1213SOL     OW 4849   3.411   4.391   1.952  0.2242  0.0109 -0.3689
 1213SOL    HW2 4850   3.485   4.345   1.913  0.2837 -1.4331  1.3800
 1213SOL    HW3 4851   3.334   4.342   1.924  0.0527  0.6016 -0.9344
 1213SOL    MW4 4852   3.410   4.378   1.943  0.2094 -0.1017 -0.2127
 1214SOL     OW 4853   3.828   4.642   1.855  0.5456  0.0715 -0.2454
 1214SOL    HW2 4854   3.838   4.558   1.900  1.1679  0.9698  1.3068
 1214SOL    HW3 4855   3.747   4.679   1.891 -0.3727 -0.3792 -1.7939
 1214SOL    MW4 4856   3.819   4.636   1.865  0.5065  0.1306 -0.2449
 1215SOL     OW 4857   3.622   0.114   1.969 -0.2738 -0.0521 -0.0502
 1215SOL    HW2 4858   3.606   0.116   2.064 -0.3691 -1.2249 -0.0357
 1215SOL    HW3 4859   3.551   0.059   1.935  0.6312 -0.8546 -0.6277
 1215SOL    MW4 4860   3.610   0.107   1.977 -0.1670 -0.3127 -0.1245
 1216SOL     OW 4861   3.674   0.365   1.847 -0.6597  0.1838  0.0309
 1216SOL    HW2 4862   3.641   0.284   1.886 -1.6902  0.2850 -0.6087
 1216SOL    HW3 4863   3.651   0.358   1.755  0.0213  0.8188 -0.1857
 1216SOL    MW4 4864   3.666   0.354   1.840 -0.7058  0.2809 -0.0820
 1217SOL     OW 4865   3.851   0.534   1.959 -0.1706  0.2817 -0.2570
 1217SOL    HW2 4866   3.831   0.616   1.915  0.9538  0.0360 -1.2387
 1217SOL    HW3 4867   3.780   0.475   1.934 -0.1625  0.4964 -0.7802
 1217SOL    MW4 4868   3.839   0.537   1.950 -0.0212  0.2776 -0.4556
 1218SOL     OW 4869   3.839   0.774   1.822  0.2934 -0.1559  0.0139
 1218SOL    HW2 4870   3.752   0.810   1.837  1.0002  1.3308  0.6806
 1218SOL    HW3 4871   3.847   0.770   1.727 -0.8294 -1.1384 -0.0480
 1218SOL    MW4 4872   3.829   0.778   1.811  0.2385 -0.0894  0.0937
 1219SOL     OW 4873   3.606   0.882   1.971 -0.3947 -0.1256  0.5470
 1219SOL    HW2 4874   3.621   0.966   1.929  1.0654 -0.7628 -0.2255
 1219SOL    HW3 4875   3.529   0.847   1.926 -0.1323  0.1533 -0.1268
 1219SOL    MW4 4876   3.598   0.888   1.959 -0.1674 -0.1728  0.3561
 1220SOL     OW 4877   3.586   1.120   1.861 -0.6827  0.4552  0.2978
 1220SOL    HW2 4878   3.504   1.163   1.881 -1.0284  0.5060 -1.1846
 1220SOL    HW3 4879   3.588   1.114   1.765  0.6590 -0.2634  0.3516
 1220SOL    MW4 4880   3.576   1.125   1.851 -0.5513  0.3671  0.1093
 1221SOL     OW 4881   3.839   1.260   1.908 -0.4861  0.1104 -0.3369
 1221SOL    HW2 4882   3.856   1.238   2.000 -0.0106  0.1731 -0.4069
 1221SOL    HW3 4883   3.763   1.207   1.884  0.6258 -1.4383 -0.4900
 1221SOL    MW4 4884   3.831   1.250   1.917 -0.2767 -0.0857 -0.3663
 1222SOL     OW 4885   3.829   1.527   1.839 -0.0729 -0.4128 -0.0625
 1222SOL    HW2 4886   3.906   1.570   1.874 -0.8595  0.4898  0.5749
 1222SOL    HW3 4887   3.828   1.441   1.882  0.1496 -0.1382  0.4913
 1222SOL    MW4 4888   3.839   1.521   1.849 -0.1473 -0.2575  0.0946
 1223SOL     OW 4889   3.602   1.645   1.967 -0.5204 -0.2495  0.0873
 1223SOL    HW2 4890   3.610   1.736   1.939 -2.7529 -0.5803 -1.8440
 1223SOL    HW3 4891   3.677   1.601   1.926  0.5089  0.6926  0.9434
 1223SOL    MW4 4892   3.613   1.651   1.958 -0.6792 -0.1689 -0.0545
 1224SOL     OW 4893   3.556   1.910   1.865  0.1189 -0.0308 -0.1064
 1224SOL    HW2 4894   3.642   1.943   1.892 -0.4541  1.9031 -0.5993
 1224SOL    HW3 4895   3.567   1.888   1.772  0.1004  0.1103 -0.1412
 1224SOL    MW4 4896   3.569   1.911   1.856  0.0409  0.2430 -0.1760
 1225SOL     OW 4897   3.801   2.020   1.955 -0.1329 -0.2130  0.1545
 1225SOL    HW2 4898   3.873   1.981   1.905  0.4227 -0.2255  0.9640
 1225SOL    HW3 4899   3.797   2.111   1.925  0.1254 -0.2515  0.0043
 1225SOL    MW4 4900   3.810   2.027   1.944 -0.0255 -0.2198  0.2415
 1226SOL     OW 4901   3.792   2.274   1.861  0.1468  0.2251 -0.1062
 1226SOL    HW2 4902   3.873   2.317   1.886  0.4059 -0.0378 -0.4829
 1226SOL    HW3 4903   3.723   2.331   1.894  0.4801  1.1142 -0.9077
 1226SOL    MW4 4904   3.794   2.287   1.869  0.2249  0.3077 -0.2617
 1227SOL     OW 4905   3.606   2.438   1.982 -0.0416  0.1766  0.2085
 1227SOL    HW2 4906   3.618   2.517   1.930 -0.2818 -0.0094 -0.1316
 1227SOL    HW3 4907   3.520   2.404   1.955  0.1958 -0.3665  0.1267
 1227SOL    MW4 4908   3.596   2.444   1.972 -0.0420  0.0804  0.1528
 1228SOL     OW 4909   3.626   2.653   1.819 -0.1829 -0.0623  0.1027
 1228SOL    HW2 4910   3.710   2.689   1.846  0.2394 -0.0266 -1.2197
 1228SOL    HW3 4911   3.561   2.701   1.870  0.4322  1.7599 -0.7987
 1228SOL    MW4 4912   3.628   2.664   1.829 -0.0460  0.1828 -0.1907
 1229SOL     OW 4913   3.847   2.764   1.947  0.3066 -0.6020  0.1031
 1229SOL    HW2 4914   3.825   2.743   2.038 -3.8802 -1.4263 -1.0075
 1229SOL    HW3 4915   3.835   2.858   1.941  1.2938 -0.4336  0.5225
 1229SOL    MW4 4916   3.843   2.774   1.959 -0.1156 -0.6885  0.0119
 1230SOL     OW 4917   3.833   3.050   1.876 -0.0755 -0.0287  0.1503
 1230SOL    HW2 4918   3.759   3.105   1.901 -0.6204  0.0790 -1.5745
 1230SOL    HW3 4919   3.832   3.052   1.780  2.1572 -0.0250  0.1035
 1230SOL    MW4 4920   3.823   3.058   1.866  0.1472 -0.0140 -0.0835
 1231SOL     OW 4921   3.607   3.209   1.952 -0.1365  0.7615 -0.1200
 1231SOL    HW2 4922   3.589   3.211   2.046  1.1184  1.7041  0.1177
 1231SOL    HW3 4923   3.601   3.301   1.925  0.2938  0.5862 -0.8110
 1231SOL    MW4 4924   3.604   3.222   1.961  0.0858  0.8627 -0.1798
 1232SOL     OW 4925   3.623   3.495   1.878  0.3575  0.6656 -0.0646
 1232SOL    HW2 4926   3.714   3.490   1.909  0.4118  0.4690 -0.2543
 1232SOL    HW3 4927   3.630   3.485   1.783 -0.0786 -1.9105  0.1285
 1232SOL    MW4 4928   3.636   3.493   1.870  0.3071  0.2998 -0.0642
 1233SOL     OW 4929   3.866   3.582   1.986 -0.2158  0.0612 -0.2423
 1233SOL    HW2 4930   3.949   3.548   1.952 -0.2202  0.2121 -0.3990
 1233SOL    HW3 4931   3.855   3.667   1.944 -0.8545 -0.3166 -0.8509
 1233SOL    MW4 4932   3.875   3.589   1.976 -0.3007  0.0313 -0.3433
 1234SOL     OW 4933   3.830   3.832   1.885 -0.3950  0.0635 -0.0058
 1234SOL    HW2 4934   3.749   3.875   1.910 -0.2171  0.5895 -0.3380
 1234SOL    HW3 4935   3.841   3.851   1.792  0.3164  0.3389  0.1286
 1234SOL    MW4 4936   3.821   3.840   1.876 -0.2777  0.1692 -0.0319
 1235SOL     OW 4937   3.598   3.975   1.962 -0.1580 -0.3272  0.3966
 1235SOL    HW2 4938   3.602   3.975   2.058  1.0327  0.3855  0.3668
 1235SOL    HW3 4939   3.518   3.928   1.941 -1.2028  0.8023  1.7727
 1235SOL    MW4 4940   3.588   3.968   1.972 -0.1387 -0.0842  0.5742
 1236SOL     OW 4941   3.623   4.242   1.844 -0.1379 -0.1081  0.2671
 1236SOL    HW2 4942   3.702   4.270   1.890 -1.0330  1.3266  0.9861
 1236SOL    HW3 4943   3.595   4.163   1.891  0.2757  0.0015  0.7027
 1236SOL    MW4 4944   3.629   4.235   1.856 -0.2014  0.0956  0.4194
 1237SOL     OW 4945   3.834   4.393   1.977  0.2415  0.3420  0.1726
 1237SOL    HW2 4946   3.830   4.395   2.073 -1.7346  0.0190  0.1092
 1237SOL    HW3 4947   3.911   4.339   1.958  1.4295  1.4869  1.5599
 1237SOL    MW4 4948   3.844   4.386   1.987  0.1376  0.4504  0.3473
 1238SOL     OW 4949   4.258   4.611   1.850 -0.0679  0.1915 -0.6146
 1238SOL    HW2 4950   4.189   4.667   1.884 -0.4212  0.1879 -1.3346
 1238SOL    HW3 4951   4.338   4.643   1.892 -0.5900 -0.2083  0.6956
 1238SOL    MW4 4952   4.260   4.623   1.860 -0.1834  0.1383 -0.5368
 1239SOL     OW 4953   4.040   0.112   1.956 -0.1669 -0.1187 -0.2862
 1239SOL    HW2 4954   4.034   0.116   2.052 -0.6381  2.9226 -0.3952
 1239SOL    HW3 4955   3.964   0.062   1.929 -0.1159 -0.8713  0.9295
 1239SOL    MW4 4956   4.029   0.106   1.965 -0.2224  0.1832 -0.1402
 1240SOL     OW 4957   4.054   0.348   1.837  0.2174  0.3704  0.0100
 1240SOL    HW2 4958   4.028   0.267   1.880 -0.5020  0.0320 -1.0583
 1240SOL    HW3 4959   4.001   0.416   1.880  0.3187  0.1867  0.4279
 1240SOL    MW4 4960   4.044   0.346   1.848  0.1359  0.3015 -0.0758
 1241SOL     OW 4961   4.290   0.479   1.947 -0.1821  0.4684  0.4944
 1241SOL    HW2 4962   4.279   0.453   2.038 -0.2357 -0.7218  0.1562
 1241SOL    HW3 4963   4.213   0.444   1.903  0.3425  0.1707 -0.1893
 1241SOL    MW4 4964   4.278   0.471   1.953 -0.1199  0.2721  0.3596
 1242SOL     OW 4965   4.280   0.745   1.866  0.2672 -0.5752  0.2965
 1242SOL    HW2 4966   4.290   0.654   1.892 -1.4128 -1.2389 -1.3437
 1242SOL    HW3 4967   4.300   0.746   1.772 -2.2390  0.2678 -0.2645
 1242SOL    MW4 4968   4.284   0.733   1.857 -0.2851 -0.5516  0.0061
 1243SOL     OW 4969   4.055   0.876   1.956 -0.1234  0.0914  0.3049
 1243SOL    HW2 4970   4.133   0.838   1.915 -0.4390 -0.4259  0.1874
 1243SOL    HW3 4971   3.982   0.843   1.905 -0.5031 -0.4195  1.1758
 1243SOL    MW4 4972   4.056   0.867   1.944 -0.2151 -0.0443  0.4043
 1244SOL     OW 4973   4.066   1.114   1.828  0.3870 -0.3725  0.0784
 1244SOL    HW2 4974   4.061   1.042   1.890 -0.3451  0.5609  1.1256
 1244SOL    HW3 4975   3.988   1.166   1.845  2.2673  2.1883  1.2779
 1244SOL    MW4 4976   4.055   1.112   1.838  0.5385  0.0885  0.3748
 1245SOL     OW 4977   4.267   1.291   1.916  0.1634 -0.0875  0.0267
 1245SOL    HW2 4978   4.255   1.271   2.009  0.2378  0.7343  0.2171
 1245SOL    HW3 4979   4.213   1.226   1.871  0.6505 -0.9095  0.6139
 1245SOL    MW4 4980   4.258   1.280   1.922  0.2375 -0.0875  0.1293
 1246SOL     OW 4981   4.242   1.546   1.867  0.1603  0.6744  0.1610
 1246SOL    HW2 4982   4.262   1.456   1.894  0.4372  0.9816  1.0233
 1246SOL    HW3 4983   4.235   1.542   1.772 -1.1716 -0.5251  0.2840
 1246SOL    MW4 4984   4.244   1.534   1.858  0.0211  0.5566  0.2910
 1247SOL     OW 4985   4.021   1.656   1.982  0.4912 -0.1707 -0.5084
 1247SOL    HW2 4986   4.018   1.650   2.077  1.8514  2.3079 -0.2884
 1247SOL    HW3 4987   4.100   1.607   1.957 -0.5894 -1.9777 -0.5176
 1247SOL    MW4 4988   4.031   1.648   1.991  0.5281 -0.0821 -0.4806
 1248SOL     OW 4989   4.036   1.904   1.842 -0.1218  0.3975  0.3065
 1248SOL    HW2 4990   4.012   1.817   1.873  0.3914 -0.2225 -0.9931
 1248SOL    HW3 4991   4.043   1.894   1.747 -3.2478  2.6074 -0.2295
 1248SOL    MW4 4992   4.034   1.891   1.833 -0.4665  0.6073  0.0643
 1249SOL     OW 4993   4.271   2.008   1.950 -0.3047  0.6651 -0.1146
 1249SOL    HW2 4994   4.270   2.003   2.046 -0.6979 -0.0512 -0.1521
 1249SOL    HW3 4995   4.186   1.971   1.924  0.6489 -1.0446 -0.8277
 1249SOL    MW4 4996   4.259   2.002   1.959 -0.2308  0.3450 -0.2136
 1250SOL     OW 4997   4.258   2.268   1.880 -0.2121  0.2762 -0.0079
 1250SOL    HW2 4998   4.264   2.180   1.916  1.1147 -0.3831 -1.7674
 1250SOL    HW3 4999   4.326   2.318   1.925 -0.6633  0.2942  0.6603
 1250SOL    MW4 5000   4.267   2.263   1.891 -0.0966  0.1916 -0.1519
 1251SOL     OW 5001   4.015   2.420   1.915 -0.0369 -0.0880  0.6453
 1251SOL    HW2 5002   4.012   2.432   2.010  1.0575  0.8236  0.5771
 1251SOL    HW3 5003   4.102   2.382   1.898 -0.1810 -0.1344 -0.0026
 1251SOL    MW4 5004   4.026   2.416   1.925  0.0885  0.0261  0.5509
 1252SOL     OW 5005   4.062   2.688   1.824 -0.2980  0.1878 -0.6696
 1252SOL    HW2 5006   4.056   2.597   1.854 -0.7431 -0.1653 -1.8084
 1252SOL    HW3 5007   3.990   2.732   1.869  0.2103  0.0877  0.2529
 1252SOL    MW4 5008   4.052   2.682   1.834 -0.2897  0.1280 -0.6981
 1253SOL     OW 5009   4.284   2.842   1.912  0.3267  0.0327 -0.0771
 1253SOL    HW2 5010   4.274   2.847   2.007  2.7225 -1.8586  0.3343
 1253SOL    HW3 5011   4.217   2.781   1.884  0.7321 -0.7484  0.6290
 1253SOL    MW4 5012   4.274   2.835   1.921  0.6963 -0.3199  0.0704
 1254SOL     OW 5013   4.293   3.101   1.824 -0.5343  0.4335 -0.1967
 1254SOL    HW2 5014   4.211   3.126   1.866 -0.5647  1.2473 -0.7254
 1254SOL    HW3 5015   4.303   3.008   1.845 -1.0251  0.5919  0.8029
 1254SOL    MW4 5016   4.283   3.092   1.833 -0.6031  0.5617 -0.1346
 1255SOL     OW 5017   4.051   3.203   1.982  0.1680  0.3434 -0.2339
 1255SOL    HW2 5018   4.044   3.184   2.076 -0.9525  0.0042 -0.3898
 1255SOL    HW3 5019   3.983   3.150   1.941  0.5729  0.5911 -1.2313
 1255SOL    MW4 5020   4.041   3.194   1.989  0.0736  0.3314 -0.3861
 1256SOL     OW 5021   4.103   3.458   1.884 -0.0960 -0.1250 -0.1138
 1256SOL    HW2 5022   4.181   3.506   1.913  0.9639  0.4064 -3.5724
 1256SOL    HW3 5023   4.110   3.373   1.928  1.7325  0.3855  0.6599
 1256SOL    MW4 5024   4.114   3.453   1.894  0.2851  0.0125 -0.4680
 1257SOL     OW 5025   4.300   3.625   1.966 -0.0082  0.6593  0.2151
 1257SOL    HW2 5026   4.292   3.720   1.955  0.4975  0.8915  1.8097
 1257SOL    HW3 5027   4.389   3.605   1.938 -0.1893  0.6180 -0.3384
 1257SOL    MW4 5028   4.310   3.635   1.961  0.0347  0.6845  0.3525
 1258SOL     OW 5029   4.290   3.907   1.904  0.1224  0.4558  0.5191
 1258SOL    HW2 5030   4.372   3.956   1.914 -0.7161  2.4221 -1.6057
 1258SOL    HW3 5031   4.293   3.872   1.815 -0.3370 -1.4549  1.2262
 1258SOL    MW4 5032   4.301   3.909   1.894 -0.0489  0.4631  0.3321
 1259SOL     OW 5033   4.042   3.997   2.000  0.5100  0.5386 -0.2801
 1259SOL    HW2 5034   4.123   3.955   1.971 -0.0800 -1.1018  0.3938
 1259SOL    HW3 5035   3.972   3.938   1.970 -0.3384  1.1358  0.5045
 1259SOL    MW4 5036   4.044   3.984   1.992  0.3202  0.4009 -0.0877
 1260SOL     OW 5037   4.044   4.243   1.864 -0.2101  0.1459  0.0517
 1260SOL    HW2 5038   4.136   4.268   1.872 -0.7606  1.8648  1.1829
 1260SOL    HW3 5039   4.036   4.165   1.918  0.7177 -0.4060 -0.5872
 1260SOL    MW4 5040   4.055   4.236   1.872 -0.1603  0.2999  0.1167
 1261SOL     OW 5041   4.286   4.352   1.919 -0.0321 -0.0840 -0.1818
 1261SOL    HW2 5042   4.266   4.347   2.012 -0.1977  0.2051 -0.1990
 1261SOL    HW3 5043   4.265   4.443   1.895  1.6060  0.3248 -0.1287
 1261SOL    MW4 5044   4.280   4.364   1.928  0.1622  0.0081 -0.1771
 1262SOL     OW 5045   0.229   4.620   2.308 -0.0778  0.0521 -0.1167
 1262SOL    HW2 5046   0.217   4.625   2.403 -0.8920  1.6115 -0.2870
 1262SOL    HW3 5047   0.305   4.675   2.290 -0.0664 -0.0522 -0.3891
 1262SOL    MW4 5048   0.237   4.628   2.318 -0.1837  0.2441 -0.1751
 1263SOL     OW 5049   0.003   0.107   2.219 -0.0238 -0.6022  0.5560
 1263SOL    HW2 5050   0.074   0.045   2.240 -0.4775 -0.7531  1.6723
 1263SOL    HW3 5051  -0.001   0.107   2.124  1.3101 -0.7933  0.4886
 1263SOL    MW4 5052   0.012   0.098   2.210  0.0923 -0.6474  0.6944
 1264SOL     OW 5053   4.470   0.348   2.344  0.1085  0.0672  0.0264
 1264SOL    HW2 5054   4.548   0.386   2.304 -1.7548  2.0229 -1.9359
 1264SOL    HW3 5055   4.465   0.260   2.308  1.8013 -0.3352  0.7569
 1264SOL    MW4 5056   4.479   0.342   2.334  0.0860  0.2722 -0.1361
 1265SOL     OW 5057   0.176   0.512   2.240  0.4101  0.3905  0.0751
 1265SOL    HW2 5058   0.260   0.481   2.273  1.1345  2.9066  0.6448
 1265SOL    HW3 5059   0.191   0.527   2.147  0.1914 -0.4146 -0.1002
 1265SOL    MW4 5060   0.189   0.510   2.232  0.4768  0.6162  0.1272
 1266SOL     OW 5061   0.272   0.759   2.336  0.1109 -0.1547  0.5351
 1266SOL    HW2 5062   0.283   0.760   2.431 -0.1652  0.7943  0.5557
 1266SOL    HW3 5063   0.231   0.674   2.317 -1.4794  0.3960  1.4424
 1266SOL    MW4 5064   0.268   0.748   2.346 -0.1354  0.0432  0.6575
 1267SOL     OW 5065   0.013   0.848   2.263  0.7803  0.1096 -0.2593
 1267SOL    HW2 5066   0.102   0.826   2.292  0.9740 -0.6821 -1.4092
 1267SOL    HW3 5067   0.021   0.857   2.168 -0.4508 -0.2951 -0.4011
 1267SOL    MW4 5068   0.026   0.847   2.254  0.6434 -0.0483 -0.4298
 1268SOL     OW 5069   0.024   1.143   2.292  0.1235  0.3411  0.1574
 1268SOL    HW2 5070   0.003   1.168   2.382 -1.3409  0.1836 -0.1143
 1268SOL    HW3 5071   0.028   1.047   2.295  0.7814  0.3671  0.1929
 1268SOL    MW4 5072   0.021   1.133   2.305  0.0171  0.3238  0.1263
 1269SOL     OW 5073   0.242   1.288   2.198  0.2297 -0.0189 -0.5080
 1269SOL    HW2 5074   0.179   1.223   2.229  0.8796 -0.2012  0.4256
 1269SOL    HW3 5075   0.236   1.283   2.102  0.3675 -1.5314 -0.4430
 1269SOL    MW4 5076   0.233   1.279   2.189  0.3336 -0.2425 -0.3762
 1270SOL     OW 5077   0.242   1.543   2.302  0.2662 -0.2638  0.1263
 1270SOL    HW2 5078   0.235   1.547   2.397  1.0594 -1.3391  0.2327
 1270SOL    HW3 5079   0.236   1.450   2.281  0.9884 -0.1091 -0.8081
 1270SOL    MW4 5080   0.240   1.531   2.311  0.4661 -0.3853  0.0171
 1271SOL     OW 5081   4.484   1.659   2.239  0.2852 -0.4949  0.1031
 1271SOL    HW2 5082   4.477   1.747   2.276  0.2933 -0.5817  0.3161
 1271SOL    HW3 5083   4.567   1.625   2.274  0.5425 -0.3860 -0.4113
 1271SOL    MW4 5084   4.494   1.666   2.249  0.3202 -0.4920  0.0634
 1272SOL     OW 5085   0.000   1.933   2.331  0.1784 -0.2311 -0.1359
 1272SOL    HW2 5086  -0.073   1.970   2.281 -0.3126 -2.5328 -1.1721
 1272SOL    HW3 5087   0.078   1.973   2.292 -0.3165 -0.5577 -1.5162
 1272SOL    MW4 5088   0.001   1.943   2.319  0.0483 -0.5779 -0.4548
 1273SOL     OW 5089   0.221   2.056   2.216  0.0591  0.0923 -0.0614
 1273SOL    HW2 5090   0.291   1.998   2.246 -1.0852 -0.8935  0.7793
 1273SOL    HW3 5091   0.232   2.061   2.122  0.7496 -0.7391 -0.0294
 1273SOL    MW4 5092   0.231   2.049   2.208 -0.0007 -0.1475  0.0538
 1274SOL     OW 5093   0.184   2.300   2.349  0.1480  0.0544 -0.4513
 1274SOL    HW2 5094   0.184   2.285   2.444  2.1139  0.8061 -0.3114
 1274SOL    HW3 5095   0.186   2.213   2.311 -0.5727 -0.2538  0.1926
 1274SOL    MW4 5096   0.184   2.287   2.357  0.3123  0.1129 -0.3479
 1275SOL     OW 5097   4.451   2.431   2.252  0.3583 -0.0385 -0.2865
 1275SOL    HW2 5098   4.469   2.521   2.280  2.1312 -0.2294 -0.7603
 1275SOL    HW3 5099   4.518   2.379   2.295 -1.3672 -1.3195  0.9192
 1275SOL    MW4 5100   4.462   2.436   2.262  0.3645 -0.2327 -0.1899
 1276SOL     OW 5101   0.020   2.686   2.324  0.2635  0.0876 -0.2479
 1276SOL    HW2 5102   0.032   2.684   2.419 -1.4466 -0.0951 -0.0310
 1276SOL    HW3 5103   0.101   2.725   2.291  1.0170 -0.1689  1.2535
 1276SOL    MW4 5104   0.033   2.691   2.332  0.1373  0.0297 -0.0212
 1277SOL     OW 5105   0.254   2.826   2.199  0.3590 -0.2671 -0.4832
 1277SOL    HW2 5106   0.326   2.770   2.228 -1.0767 -2.5020 -1.1138
 1277SOL    HW3 5107   0.262   2.828   2.104 -0.3516 -0.4872 -0.5541
 1277SOL    MW4 5108   0.265   2.819   2.190  0.0758 -0.5910 -0.5757
 1278SOL     OW 5109   0.250   3.085   2.344 -0.4160 -0.0822 -0.3709
 1278SOL    HW2 5110   0.172   3.121   2.301 -1.6808 -1.6145  0.5732
 1278SOL    HW3 5111   0.256   2.996   2.312 -0.2559 -0.6193  1.1129
 1278SOL    MW4 5112   0.240   3.078   2.334 -0.5617 -0.3553 -0.0506
 1279SOL     OW 5113   0.010   3.204   2.232 -0.0920  0.4091 -0.1365
 1279SOL    HW2 5114   0.012   3.294   2.265  1.4988  0.9223 -1.5584
 1279SOL    HW3 5115   0.016   3.214   2.137 -1.0029 -1.1717 -0.3698
 1279SOL    MW4 5116   0.011   3.217   2.224 -0.0023  0.2682 -0.3549
 1280SOL     OW 5117   0.027   3.466   2.352 -0.1538  0.0747 -0.0438
 1280SOL    HW2 5118   0.016   3.445   2.445 -1.5849  0.3940 -0.1360
 1280SOL    HW3 5119  -0.051   3.516   2.329  0.5965  0.7252 -1.2150
 1280SOL    MW4 5120   0.015   3.470   2.361 -0.2436  0.2027 -0.2105
 1281SOL     OW 5121   0.247   3.616   2.288 -0.1426 -0.4290  0.1885
 1281SOL    HW2 5122   0.329   3.570   2.306  1.0602  1.4599 -0.3025
 1281SOL    HW3 5123   0.179   3.551   2.306  1.4109 -1.7915  1.3590
 1281SOL    MW4 5124   0.249   3.601   2.292  0.2210 -0.3596  0.2782
 1282SOL     OW 5125   0.224   3.894   2.334 -0.1881  0.0245 -0.0525
 1282SOL    HW2 5126   0.141   3.920   2.292 -0.3136  1.2998  0.9472
 1282SOL    HW3 5127   0.234   3.802   2.312 -1.0530  0.2612 -1.5680
 1282SOL    MW4 5128   0.214   3.886   2.325 -0.3188  0.2240 -0.1206
 1283SOL     OW 5129   4.474   3.985   2.249  0.1110  0.1731 -0.6866
 1283SOL    HW2 5130   4.476   4.069   2.296 -1.2950 -0.3586  0.3671
 1283SOL    HW3 5131   4.488   4.009   2.158 -0.0605  1.5576 -0.3676
 1283SOL    MW4 5132   4.476   3.999   2.243 -0.0971  0.2857 -0.5055
 1284SOL     OW 5133   4.485   4.225   2.353 -0.2757  0.3476 -0.0722
 1284SOL    HW2 5134   4.493   4.238   2.447 -0.6225  0.0117  0.0041
 1284SOL    HW3 5135   4.567   4.260   2.317  0.5466 -0.9359  0.4906
 1284SOL    MW4 5136   4.497   4.231   2.361 -0.2130  0.1339  0.0122
 1285SOL     OW 5137   0.220   4.355   2.227 -0.1245  0.1499 -0.5462
 1285SOL    HW2 5138   0.299   4.330   2.276 -0.5573 -0.6043 -0.2255
 1285SOL    HW3 5139   0.210   4.448   2.246  0.1371  0.0339  0.2073
 1285SOL    MW4 5140   0.229   4.364   2.236 -0.1470  0.0351 -0.4045
 1286SOL     OW 5141   0.681   0.027   2.326  0.2293  0.0436  0.1234
 1286SOL    HW2 5142   0.673   0.017   2.420  0.2405 -0.3407  0.0843
 1286SOL    HW3 5143   0.772   0.051   2.311 -0.1770  1.7922  0.3522
 1286SOL    MW4 5144   0.692   0.029   2.336  0.1772  0.2236  0.1485
 1287SOL     OW 5145   0.434   0.136   2.252  0.5555 -0.5017  0.2757
 1287SOL    HW2 5146   0.512   0.096   2.290  1.9524  0.6804 -1.2689
 1287SOL    HW3 5147   0.436   0.109   2.160 -1.0680 -0.7516  0.2958
 1287SOL    MW4 5148   0.445   0.127   2.245  0.5256 -0.3787  0.0746
 1288SOL     OW 5149   0.406   0.406   2.335 -0.2719 -0.1255  0.4310
 1288SOL    HW2 5150   0.422   0.407   2.429  0.4335  0.7077  0.3196
 1288SOL    HW3 5151   0.417   0.315   2.309  0.7967 -0.1599  0.9618
 1288SOL    MW4 5152   0.410   0.394   2.344 -0.0378 -0.0201  0.4863
 1289SOL     OW 5153   0.643   0.508   2.215  0.1342 -0.0803 -0.1978
 1289SOL    HW2 5154   0.658   0.591   2.259  0.7019 -0.5009  0.4189
 1289SOL    HW3 5155   0.555   0.482   2.241 -0.0625  0.3473 -0.4302
 1289SOL    MW4 5156   0.633   0.515   2.224  0.1832 -0.0794 -0.1471
 1290SOL     OW 5157   0.677   0.744   2.349 -0.5480 -0.0595 -0.2054
 1290SOL    HW2 5158   0.676   0.763   2.443 -0.9648 -1.0385 -0.0030
 1290SOL    HW3 5159   0.606   0.798   2.313 -1.3461 -0.7646  0.2758
 1290SOL    MW4 5160   0.667   0.754   2.357 -0.7083 -0.2817 -0.1152
 1291SOL     OW 5161   0.499   0.909   2.219 -0.0083  0.0481  0.0379
 1291SOL    HW2 5162   0.419   0.866   2.248 -0.4501  0.6516 -0.2680
 1291SOL    HW3 5163   0.499   0.897   2.124  0.3295 -0.0534  0.0488
 1291SOL    MW4 5164   0.488   0.902   2.210 -0.0220  0.1143 -0.0010
 1292SOL     OW 5165   0.479   1.168   2.313  0.2489  0.3618  0.1332
 1292SOL    HW2 5166   0.484   1.078   2.282  0.2122 -0.2742  1.9487
 1292SOL    HW3 5167   0.405   1.206   2.264 -0.1579 -0.7870 -0.1516
 1292SOL    MW4 5168   0.470   1.161   2.302  0.1904  0.1263  0.3352
 1293SOL     OW 5169   0.693   1.271   2.200 -0.0609  0.1777  0.2363
 1293SOL    HW2 5170   0.705   1.358   2.238 -1.1431  1.0655 -1.4325
 1293SOL    HW3 5171   0.613   1.238   2.240 -0.3500  0.4737 -0.1001
 1293SOL    MW4 5172   0.684   1.278   2.210 -0.2419  0.3339 -0.0282
 1294SOL     OW 5173   0.683   1.528   2.318  0.6133 -0.0211 -0.1187
 1294SOL    HW2 5174   0.669   1.542   2.411 -1.3712  0.5765 -0.4883
 1294SOL    HW3 5175   0.762   1.578   2.298  0.2152  1.0552  0.9520
 1294SOL    MW4 5176   0.692   1.536   2.327  0.2989  0.1998 -0.0262
 1295SOL     OW 5177   0.463   1.678   2.224 -0.3219  0.0290 -0.1195
 1295SOL    HW2 5178   0.536   1.630   2.263 -0.5539 -0.1968  0.0362
 1295SOL    HW3 5179   0.384   1.634   2.257 -0.5391  0.6586  0.2128
 1295SOL    MW4 5180   0.462   1.666   2.234 -0.3812  0.0823 -0.0551
 1296SOL     OW 5181   0.445   1.944   2.331  0.5445 -0.1912 -0.1768
 1296SOL    HW2 5182   0.522   1.991   2.299  0.3836  0.5860  0.5863
 1296SOL    HW3 5183   0.463   1.852   2.310  2.1114 -0.1343  0.8865
 1296SOL    MW4 5184   0.457   1.938   2.324  0.7300 -0.0812  0.0642
 1297SOL     OW 5185   0.653   2.053   2.211  0.1761  0.3098 -0.0740
 1297SOL    HW2 5186   0.728   2.016   2.258 -0.4201  0.1268  0.7451
 1297SOL    HW3 5187   0.657   2.146   2.230 -0.3815  0.1592  0.7996
 1297SOL    MW4 5188   0.664   2.060   2.219  0.0239  0.2658  0.1493
 1298SOL     OW 5189   0.645   2.305   2.325  0.0676  0.2175 -0.2369
 1298SOL    HW2 5190   0.646   2.309   2.420  1.6348 -0.3801 -0.2086
 1298SOL    HW3 5191   0.722   2.354   2.298  0.1880 -0.4576 -1.1477
 1298SOL    MW4 5192   0.655   2.312   2.334  0.2903  0.0496 -0.3533
 1299SOL     OW 5193   0.404   2.440   2.256 -0.1604  0.1294 -0.1362
 1299SOL    HW2 5194   0.475   2.385   2.288  0.5138 -0.0524 -1.9092
 1299SOL    HW3 5195   0.324   2.398   2.288  0.4696 -0.2811  0.9105
 1299SOL    MW4 5196   0.403   2.427   2.264  0.0117  0.0513 -0.2320
 1300SOL     OW 5197   0.457   2.688   2.331  0.0602  0.0348  0.5123
 1300SOL    HW2 5198   0.423   2.696   2.420  0.0655 -1.9115  0.7271
 1300SOL    HW3 5199   0.426   2.602   2.301 -0.0076  0.6898 -1.3956
 1300SOL    MW4 5200   0.448   2.678   2.339  0.0519 -0.1355  0.2889
 1301SOL     OW 5201   0.648   2.813   2.172  0.1486 -0.1051 -0.2638
 1301SOL    HW2 5202   0.735   2.782   2.199 -0.2073 -0.1620  0.8435
 1301SOL    HW3 5203   0.589   2.780   2.239 -0.7274  0.0102 -0.9634
 1301SOL    MW4 5204   0.652   2.804   2.184 -0.0139 -0.0974 -0.2100
 1302SOL     OW 5205   0.704   3.034   2.331  0.1641  0.4619  0.1615
 1302SOL    HW2 5206   0.632   3.092   2.304 -0.0091  0.7541  1.2260
 1302SOL    HW3 5207   0.686   2.951   2.288  0.1758  1.0752 -1.0369
 1302SOL    MW4 5208   0.692   3.031   2.322  0.1428  0.5814  0.1439
 1303SOL     OW 5209   0.482   3.201   2.253  0.5928 -1.1592  0.1090
 1303SOL    HW2 5210   0.396   3.169   2.280  0.8197 -2.3225 -0.5194
 1303SOL    HW3 5211   0.472   3.219   2.159  0.1427  1.7398  0.6672
 1303SOL    MW4 5212   0.469   3.199   2.244  0.5633 -0.9302  0.0997
 1304SOL     OW 5213   0.482   3.456   2.371  0.2700 -0.0402 -0.1909
 1304SOL    HW2 5214   0.548   3.507   2.325 -0.9801  0.5942 -1.2843
 1304SOL    HW3 5215   0.489   3.368   2.334  0.5249  0.0160 -0.2753
 1304SOL    MW4 5216   0.492   3.451   2.360  0.1387  0.0509 -0.3463
 1305SOL     OW 5217   0.656   3.625   2.247 -0.3417  0.5200  0.3050
 1305SOL    HW2 5218   0.672   3.718   2.261 -2.3034  0.9257  0.0208
 1305SOL    HW3 5219   0.660   3.614   2.152 -0.0188  0.2892  0.3429
 1305SOL    MW4 5220   0.659   3.636   2.236 -0.5579  0.5431  0.2725
 1306SOL     OW 5221   0.707   3.898   2.327  0.2622  0.3487  0.2431
 1306SOL    HW2 5222   0.713   3.892   2.423  1.0014  1.5040  0.2775
 1306SOL    HW3 5223   0.623   3.942   2.312  0.0183 -0.0760  0.3445
 1306SOL    MW4 5224   0.696   3.903   2.338  0.3276  0.4451  0.2610
 1307SOL     OW 5225   0.447   3.991   2.231 -0.0212 -0.0900  0.5082
 1307SOL    HW2 5226   0.368   3.945   2.261  0.2456  0.4338  2.0523
 1307SOL    HW3 5227   0.433   4.004   2.137 -1.2205 -1.0987  0.5356
 1307SOL    MW4 5228   0.434   3.987   2.222 -0.1442 -0.1540  0.7156
 1308SOL     OW 5229   0.436   4.262   2.370 -0.3345  0.6074  0.5954
 1308SOL    HW2 5230   0.509   4.320   2.346 -0.9458  1.4012  0.6273
 1308SOL    HW3 5231   0.457   4.179   2.327 -0.5642  1.5080 -1.3428
 1308SOL    MW4 5232   0.449   4.259   2.361 -0.4454  0.8310  0.3439
 1309SOL     OW 5233   0.646   4.408   2.283  0.4478  0.1084  0.0925
 1309SOL    HW2 5234   0.672   4.500   2.291  0.5792  0.0877 -0.1095
 1309SOL    HW3 5235   0.656   4.388   2.190  0.1201 -0.0223  0.0852
 1309SOL    MW4 5236   0.650   4.418   2.272  0.4219  0.0884  0.0649
 1310SOL     OW 5237   1.118   4.641   2.356  0.0868 -0.1198 -0.1015
 1310SOL    HW2 5238   1.126   4.642   2.452 -0.1924 -0.5648 -0.0774
 1310SOL    HW3 5239   1.043   4.698   2.338  0.7887  0.8181 -0.1154
 1310SOL    MW4 5240   1.110   4.649   2.366  0.1426 -0.0548 -0.1002
 1311SOL     OW 5241   0.927   0.137   2.281  0.5151 -0.0965  0.2270
 1311SOL    HW2 5242   0.902   0.226   2.305  1.4506  0.4378 -0.7077
 1311SOL    HW3 5243   0.929   0.138   2.185 -0.5587 -1.4320  0.1795
 1311SOL    MW4 5244   0.924   0.149   2.271  0.4968 -0.2022  0.0974
 1312SOL     OW 5245   0.874   0.401   2.353 -0.0698  0.1498 -0.1901
 1312SOL    HW2 5246   0.937   0.459   2.310 -0.0047 -0.3303 -0.7537
 1312SOL    HW3 5247   0.789   0.432   2.324 -0.0362 -0.0201 -0.4721
 1312SOL    MW4 5248   0.871   0.412   2.343 -0.0568  0.0640 -0.3017
 1313SOL     OW 5249   1.113   0.494   2.240 -0.1920  0.4129  0.0204
 1313SOL    HW2 5250   1.184   0.450   2.287 -0.4159  1.0374  0.9485
 1313SOL    HW3 5251   1.142   0.494   2.148  1.4174  1.4172  0.5047
 1313SOL    MW4 5252   1.126   0.489   2.234 -0.0092  0.6278  0.2068
 1314SOL     OW 5253   1.133   0.737   2.351  0.2878 -0.3554  0.1198
 1314SOL    HW2 5254   1.058   0.784   2.314  0.6309 -0.0921 -0.2428
 1314SOL    HW3 5255   1.142   0.659   2.296  0.8714  0.0959 -0.4208
 1314SOL    MW4 5256   1.124   0.733   2.339  0.4101 -0.2611  0.0007
 1315SOL     OW 5257   0.895   0.871   2.215 -0.3568 -0.3620  0.2154
 1315SOL    HW2 5258   0.875   0.957   2.253 -2.4300 -0.4413 -0.6319
 1315SOL    HW3 5259   0.831   0.812   2.255  0.3371 -1.3115 -0.0583
 1315SOL    MW4 5260   0.884   0.875   2.225 -0.5388 -0.4978  0.0675
 1316SOL     OW 5261   0.888   1.128   2.319 -0.0830  0.2498 -0.3568
 1316SOL    HW2 5262   0.974   1.149   2.283  0.8223  0.9936  2.1242
 1316SOL    HW3 5263   0.828   1.184   2.272  1.0922  1.3548 -0.5678
 1316SOL    MW4 5264   0.892   1.138   2.308  0.1915  0.4938 -0.0573
 1317SOL     OW 5265   1.123   1.255   2.193 -0.4532 -0.3244  0.2223
 1317SOL    HW2 5266   1.210   1.237   2.230 -0.4562  0.5402  0.6622
 1317SOL    HW3 5267   1.135   1.249   2.098  0.5191  1.6389  0.1937
 1317SOL    MW4 5268   1.136   1.252   2.185 -0.3253  0.0487  0.2765
 1318SOL     OW 5269   1.138   1.544   2.291 -0.1056  0.5754  0.3763
 1318SOL    HW2 5270   1.051   1.584   2.288  0.2614  1.3586  0.0763
 1318SOL    HW3 5271   1.130   1.465   2.238 -0.6703  0.5754  0.4592
 1318SOL    MW4 5272   1.126   1.539   2.284 -0.1317  0.6788  0.3477
 1319SOL     OW 5273   0.916   1.689   2.248 -0.5822  0.0210 -0.0374
 1319SOL    HW2 5274   0.874   1.771   2.270 -1.5896 -0.8122  1.2046
 1319SOL    HW3 5275   0.910   1.683   2.153  0.4062  1.8422 -0.2338
 1319SOL    MW4 5276   0.910   1.699   2.238 -0.5847  0.1513  0.1006
 1320SOL     OW 5277   0.869   1.944   2.342  0.0156  0.0458  0.1486
 1320SOL    HW2 5278   0.865   1.924   2.435  1.0774 -1.6366 -0.1384
 1320SOL    HW3 5279   0.956   1.983   2.329  0.1740 -0.4380 -0.2599
 1320SOL    MW4 5280   0.880   1.946   2.352  0.1766 -0.2400  0.0568
 1321SOL     OW 5281   1.092   2.078   2.253  0.7647 -0.4334 -0.4837
 1321SOL    HW2 5282   1.161   2.035   2.303  1.1511 -0.6923 -1.2228
 1321SOL    HW3 5283   1.109   2.052   2.162 -0.5009 -0.7603 -0.6365
 1321SOL    MW4 5284   1.104   2.069   2.247  0.6487 -0.5107 -0.6013
 1322SOL     OW 5285   1.085   2.361   2.329  0.0617  0.2047  0.0106
 1322SOL    HW2 5286   1.161   2.407   2.295 -0.2656 -0.2121 -1.3107
 1322SOL    HW3 5287   1.093   2.272   2.296 -0.2729 -0.2127  1.0234
 1322SOL    MW4 5288   1.096   2.356   2.320 -0.0257  0.0946 -0.0301
 1323SOL     OW 5289   0.854   2.463   2.212  0.4007 -0.4088 -0.0163
 1323SOL    HW2 5290   0.930   2.415   2.244  0.7361  0.2684  0.2358
 1323SOL    HW3 5291   0.853   2.448   2.118  1.1894  0.0447 -0.1031
 1323SOL    MW4 5292   0.863   2.455   2.204  0.5490 -0.2596  0.0055
 1324SOL     OW 5293   0.894   2.728   2.296  0.2714  0.4042 -0.2661
 1324SOL    HW2 5294   0.859   2.727   2.385  1.3968 -0.1401  0.1870
 1324SOL    HW3 5295   0.883   2.639   2.264 -0.8257  0.7855 -0.9553
 1324SOL    MW4 5296   0.888   2.716   2.304  0.2751  0.3827 -0.2973
 1325SOL     OW 5297   1.172   2.750   2.221  0.5809 -0.2493  0.1450
 1325SOL    HW2 5298   1.245   2.738   2.283  0.7367  0.9978  0.2083
 1325SOL    HW3 5299   1.094   2.732   2.273  0.7613 -0.1199  0.4675
 1325SOL    MW4 5300   1.172   2.746   2.236  0.6252 -0.0677  0.1959
 1326SOL     OW 5301   1.127   3.023   2.315  0.8673 -0.0900  0.1418
 1326SOL    HW2 5302   1.047   3.052   2.272  0.5543  0.5759  1.1429
 1326SOL    HW3 5303   1.146   2.937   2.277 -0.1709 -0.1286 -0.2893
 1326SOL    MW4 5304   1.119   3.016   2.304  0.6890 -0.0072  0.2170
 1327SOL     OW 5305   0.904   3.197   2.230  0.2050  0.4164 -0.1553
 1327SOL    HW2 5306   0.883   3.286   2.258  0.0666 -0.0493  1.2179
 1327SOL    HW3 5307   0.831   3.143   2.262  0.4831 -0.2574 -0.6310
 1327SOL    MW4 5308   0.892   3.201   2.238  0.2235  0.2661 -0.0369
 1328SOL     OW 5309   0.858   3.466   2.340 -0.1491 -0.3806 -0.2619
 1328SOL    HW2 5310   0.859   3.466   2.435 -1.3178 -1.8186 -0.2373
 1328SOL    HW3 5311   0.792   3.531   2.317  0.5447  0.3847 -0.1058
 1328SOL    MW4 5312   0.850   3.474   2.349 -0.2117 -0.4694 -0.2381
 1329SOL     OW 5313   1.078   3.618   2.254 -0.0256  0.0435 -0.7826
 1329SOL    HW2 5314   1.153   3.567   2.284  0.1760  0.1471 -1.1091
 1329SOL    HW3 5315   1.001   3.568   2.283  0.1682 -0.3402 -0.9304
 1329SOL    MW4 5316   1.077   3.605   2.262  0.0266  0.0066 -0.8452
 1330SOL     OW 5317   1.134   3.879   2.335  0.5676 -0.0582 -0.1581
 1330SOL    HW2 5318   1.222   3.903   2.307  0.6813 -1.7569 -1.3536
 1330SOL    HW3 5319   1.115   3.798   2.288 -1.0495 -0.5286  1.2302
 1330SOL    MW4 5320   1.143   3.871   2.325  0.3692 -0.3444 -0.1327
 1331SOL     OW 5321   0.932   4.037   2.236 -0.1380  0.0195  0.4696
 1331SOL    HW2 5322   1.006   3.983   2.265  0.2363 -0.8673 -2.0555
 1331SOL    HW3 5323   0.855   3.988   2.263  0.2031 -0.4526  0.5948
 1331SOL    MW4 5324   0.932   4.024   2.244 -0.0436 -0.1598  0.1529
 1332SOL     OW 5325   0.864   4.268   2.376  0.1137 -0.4303 -0.3873
 1332SOL    HW2 5326   0.872   4.190   2.322  0.1136 -0.2085 -0.7073
 1332SOL    HW3 5327   0.783   4.310   2.347  0.9365  0.5468 -1.3403
 1332SOL    MW4 5328   0.855   4.263   2.365  0.2222 -0.2721 -0.5553
 1333SOL     OW 5329   1.074   4.399   2.217 -0.0544  0.4841 -0.3064
 1333SOL    HW2 5330   0.992   4.370   2.257  0.8852 -0.4674  0.9675
 1333SOL    HW3 5331   1.101   4.474   2.271  0.2795  0.3426 -0.2773
 1333SOL    MW4 5332   1.067   4.405   2.230  0.1136  0.3399 -0.1345
 1334SOL     OW 5333   1.553   4.658   2.364  0.0677 -0.2303  0.1743
 1334SOL    HW2 5334   1.622   4.710   2.322  0.7103 -1.7464 -0.6867
 1334SOL    HW3 5335   1.472   4.701   2.339  0.6010  0.4965 -0.3322
 1334SOL    MW4 5336   1.552   4.670   2.355  0.2229 -0.3344 -0.0061
 1335SOL     OW 5337   1.334   0.088   2.244 -0.3678 -0.5909  0.1385
 1335SOL    HW2 5338   1.320   0.180   2.268  0.3360 -0.5547  0.4215
 1335SOL    HW3 5339   1.252   0.045   2.265 -0.8533  0.0515 -0.3837
 1335SOL    MW4 5340   1.322   0.095   2.250 -0.3390 -0.5013  0.1069
 1336SOL     OW 5341   1.349   0.359   2.312 -0.1092  0.0949  0.4716
 1336SOL    HW2 5342   1.366   0.365   2.406 -0.4702  0.6263  0.5085
 1336SOL    HW3 5343   1.426   0.398   2.272  0.0351 -0.1100  0.5473
 1336SOL    MW4 5344   1.361   0.365   2.319 -0.1378  0.1380  0.4865
 1337SOL     OW 5345   1.567   0.482   2.215 -0.2358 -0.0733 -0.5076
 1337SOL    HW2 5346   1.652   0.443   2.235 -0.1256  0.2186 -0.4085
 1337SOL    HW3 5347   1.573   0.505   2.122 -0.4791 -0.7429 -0.6912
 1337SOL    MW4 5348   1.579   0.480   2.205 -0.2534 -0.1231 -0.5188
 1338SOL     OW 5349   1.605   0.731   2.347 -0.2506 -0.3170 -0.4240
 1338SOL    HW2 5350   1.682   0.767   2.303 -0.2088  0.8351  0.5626
 1338SOL    HW3 5351   1.589   0.648   2.304  0.8830 -0.0426 -1.3861
 1338SOL    MW4 5352   1.613   0.725   2.336 -0.0956 -0.1288 -0.4208
 1339SOL     OW 5353   1.366   0.890   2.282  0.4602  0.2601 -0.5099
 1339SOL    HW2 5354   1.433   0.842   2.330  0.4221 -1.3592 -2.0550
 1339SOL    HW3 5355   1.283   0.849   2.309  0.2581  0.8030 -0.2901
 1339SOL    MW4 5356   1.364   0.878   2.292  0.4285  0.1181 -0.6848
 1340SOL     OW 5357   1.351   1.156   2.309 -0.1394  0.0902 -0.1811
 1340SOL    HW2 5358   1.350   1.153   2.405  0.8354 -0.0832 -0.1690
 1340SOL    HW3 5359   1.366   1.065   2.282 -0.6267  0.1064 -0.4995
 1340SOL    MW4 5360   1.353   1.144   2.318 -0.0751  0.0694 -0.2215
 1341SOL     OW 5361   1.587   1.283   2.216 -0.0831  0.0144 -0.3903
 1341SOL    HW2 5362   1.504   1.247   2.247  0.6957 -1.0285  0.4885
 1341SOL    HW3 5363   1.579   1.282   2.120 -0.5781 -1.2784 -0.3409
 1341SOL    MW4 5364   1.575   1.278   2.207 -0.0456 -0.2937 -0.2679
 1342SOL     OW 5365   1.530   1.521   2.326 -0.1899  0.1806 -0.3435
 1342SOL    HW2 5366   1.610   1.565   2.294 -0.7423  0.8791 -0.7872
 1342SOL    HW3 5367   1.538   1.431   2.294 -0.5166  0.7456 -2.0954
 1342SOL    MW4 5368   1.542   1.515   2.318 -0.3059  0.3473 -0.6332
 1343SOL     OW 5369   1.343   1.705   2.209  0.2265  0.0104  0.0943
 1343SOL    HW2 5370   1.401   1.640   2.249  0.3166 -0.1122 -0.2299
 1343SOL    HW3 5371   1.255   1.673   2.227  0.2564  0.2771  0.7205
 1343SOL    MW4 5372   1.339   1.692   2.217  0.2423  0.0294  0.1341
 1344SOL     OW 5373   1.322   1.957   2.349  0.0461 -0.2945 -0.7084
 1344SOL    HW2 5374   1.378   2.019   2.303  0.0431 -0.0299 -0.3528
 1344SOL    HW3 5375   1.346   1.871   2.313 -1.0618  0.0568 -2.3810
 1344SOL    MW4 5376   1.332   1.954   2.338 -0.1005 -0.2132 -0.8822
 1345SOL     OW 5377   1.532   2.124   2.247  0.4992  0.7924 -0.4796
 1345SOL    HW2 5378   1.602   2.074   2.290 -1.1276 -0.3515  0.9151
 1345SOL    HW3 5379   1.544   2.107   2.154  1.3860 -0.2962 -0.1772
 1345SOL    MW4 5380   1.543   2.115   2.240  0.4016  0.4979 -0.2557
 1346SOL     OW 5381   1.580   2.384   2.314 -0.6908 -0.2692  0.0419
 1346SOL    HW2 5382   1.578   2.391   2.410  1.2941  1.1057 -0.0031
 1346SOL    HW3 5383   1.565   2.291   2.297 -0.6358 -0.6001  1.6992
 1346SOL    MW4 5384   1.578   2.373   2.324 -0.4217 -0.1315  0.2546
 1347SOL     OW 5385   1.319   2.464   2.227  0.3729 -0.8176 -0.0573
 1347SOL    HW2 5386   1.402   2.423   2.254  0.8663  0.3432  0.1950
 1347SOL    HW3 5387   1.323   2.463   2.131  1.9774  1.7991 -0.0605
 1347SOL    MW4 5388   1.331   2.458   2.218  0.6497 -0.3192 -0.0244
 1348SOL     OW 5389   1.402   2.687   2.362  0.0281  0.2998  0.1953
 1348SOL    HW2 5390   1.470   2.745   2.327  1.2208 -0.7757  0.6737
 1348SOL    HW3 5391   1.400   2.613   2.301 -2.1334  1.2484 -0.9256
 1348SOL    MW4 5392   1.411   2.685   2.349 -0.0997  0.2830  0.1106
 1349SOL     OW 5393   1.600   2.855   2.238  0.5229  0.3877 -0.0526
 1349SOL    HW2 5394   1.577   2.943   2.268  1.3389  0.7356 -0.4183
 1349SOL    HW3 5395   1.569   2.850   2.148  1.6403  0.7734 -0.4672
 1349SOL    MW4 5396   1.593   2.866   2.230  0.7780  0.4845 -0.1555
 1350SOL     OW 5397   1.546   3.096   2.338 -0.3375  0.1528  0.2108
 1350SOL    HW2 5398   1.541   3.089   2.433  0.2006  0.2076  0.2451
 1350SOL    HW3 5399   1.470   3.149   2.313 -1.5288 -1.4174  0.4354
 1350SOL    MW4 5400   1.535   3.102   2.347 -0.4237 -0.0471  0.2450
 1351SOL     OW 5401   1.315   3.228   2.279  0.2565 -0.1761  0.4004
 1351SOL    HW2 5402   1.254   3.161   2.311  0.4336 -0.0862  0.9387
 1351SOL    HW3 5403   1.305   3.226   2.184  1.5825 -2.2708  0.2509
 1351SOL    MW4 5404   1.305   3.219   2.271  0.4548 -0.4406  0.4517
 1352SOL     OW 5405   1.293   3.499   2.329 -0.0659 -0.4650  0.5519
 1352SOL    HW2 5406   1.283   3.506   2.424 -0.9485 -1.3582  0.5387
 1352SOL    HW3 5407   1.286   3.405   2.312 -1.6407 -0.1667 -0.5749
 1352SOL    MW4 5408   1.290   3.487   2.340 -0.3901 -0.5435  0.4015
 1353SOL     OW 5409   1.532   3.593   2.228  0.2476 -0.0781  0.0896
 1353SOL    HW2 5410   1.538   3.684   2.255 -1.7016  0.6653 -1.8534
 1353SOL    HW3 5411   1.454   3.560   2.273 -0.3834 -0.1102 -1.0079
 1353SOL    MW4 5412   1.522   3.601   2.237 -0.0929  0.0158 -0.3116
 1354SOL     OW 5413   1.568   3.858   2.335 -0.0079  0.3499  0.4301
 1354SOL    HW2 5414   1.556   3.884   2.426  0.2439 -0.4377  0.6860
 1354SOL    HW3 5415   1.640   3.913   2.304 -0.4252  0.9717  0.5585
 1354SOL    MW4 5416   1.576   3.869   2.343 -0.0297  0.3280  0.4808
 1355SOL     OW 5417   1.371   3.993   2.218  0.1163 -0.0327 -0.1013
 1355SOL    HW2 5418   1.447   3.938   2.232 -0.4293 -1.2115 -1.5839
 1355SOL    HW3 5419   1.359   3.995   2.123 -2.2001 -0.5885  0.1344
 1355SOL    MW4 5420   1.379   3.986   2.207 -0.2613 -0.2616 -0.2658
 1356SOL     OW 5421   1.304   4.269   2.313  0.3678  0.3405  0.1337
 1356SOL    HW2 5422   1.302   4.182   2.275 -0.4653  0.4777 -0.1584
 1356SOL    HW3 5423   1.236   4.317   2.266  0.4409  0.9863  0.6743
 1356SOL    MW4 5424   1.295   4.264   2.302  0.2675  0.4438  0.1665
 1357SOL     OW 5425   1.530   4.421   2.242  0.0671 -0.0314 -0.2891
 1357SOL    HW2 5426   1.453   4.378   2.279  1.6273 -1.2887  1.6388
 1357SOL    HW3 5427   1.530   4.508   2.281 -1.0879  0.4470 -1.3344
 1357SOL    MW4 5428   1.520   4.427   2.252  0.1206 -0.1342 -0.1726
 1358SOL     OW 5429   2.015   0.020   2.282 -0.5807  0.2611  0.1775
 1358SOL    HW2 5430   2.102   0.053   2.262 -0.4198 -0.0842  0.3008
 1358SOL    HW3 5431   2.015  -0.070   2.249 -0.6591  0.0326  0.8002
 1358SOL    MW4 5432   2.027   0.013   2.275 -0.5698  0.1854  0.2760
 1359SOL     OW 5433   1.765   0.122   2.233 -0.3582 -0.0435  0.2182
 1359SOL    HW2 5434   1.788   0.213   2.252  0.7437 -0.5901  1.6088
 1359SOL    HW3 5435   1.849   0.075   2.239 -0.9738 -1.2015 -0.1406
 1359SOL    MW4 5436   1.779   0.128   2.236 -0.2940 -0.2684  0.3543
 1360SOL     OW 5437   1.811   0.391   2.285 -0.0772  0.5059  0.2783
 1360SOL    HW2 5438   1.810   0.375   2.380 -0.3577 -1.4379 -0.0332
 1360SOL    HW3 5439   1.898   0.427   2.268 -0.2476  1.4638  1.3518
 1360SOL    MW4 5440   1.823   0.394   2.295 -0.1367  0.3758  0.3788
 1361SOL     OW 5441   2.044   0.492   2.166  0.1647  0.1586 -0.6236
 1361SOL    HW2 5442   2.037   0.580   2.203  0.4590 -0.0021 -0.1819
 1361SOL    HW3 5443   2.018   0.502   2.075  0.7766  0.8148 -0.7299
 1361SOL    MW4 5444   2.040   0.505   2.159  0.2842  0.2240 -0.5794
 1362SOL     OW 5445   2.032   0.729   2.329 -0.1753 -0.0923  0.3383
 1362SOL    HW2 5446   2.101   0.778   2.285  0.2903 -0.8178  0.2472
 1362SOL    HW3 5447   1.954   0.783   2.319  0.6327  1.3195  1.5009
 1362SOL    MW4 5448   2.031   0.743   2.322 -0.0072 -0.0018  0.4797
 1363SOL     OW 5449   1.814   0.876   2.232  0.0455  0.1634 -0.1668
 1363SOL    HW2 5450   1.817   0.969   2.255 -0.1303 -0.0103  0.5714
 1363SOL    HW3 5451   1.790   0.876   2.139 -0.8954  0.8349  0.0630
 1363SOL    MW4 5452   1.811   0.889   2.223 -0.1018  0.2291 -0.0391
 1364SOL     OW 5453   1.816   1.155   2.301  0.0947 -0.5775  0.3829
 1364SOL    HW2 5454   1.896   1.194   2.267  0.2554 -0.2028  1.1875
 1364SOL    HW3 5455   1.746   1.214   2.271 -0.0270 -1.6494 -1.4919
 1364SOL    MW4 5456   1.817   1.168   2.293  0.0998 -0.6695  0.2417
 1365SOL     OW 5457   2.050   1.291   2.212 -0.5328  0.5779  0.2752
 1365SOL    HW2 5458   2.046   1.380   2.247 -2.3046  0.6008  0.0633
 1365SOL    HW3 5459   2.035   1.302   2.118  2.5783  0.3615 -0.2874
 1365SOL    MW4 5460   2.048   1.304   2.204 -0.3561  0.5524  0.1730
 1366SOL     OW 5461   1.997   1.543   2.310 -0.0672  0.0920 -0.3367
 1366SOL    HW2 5462   2.013   1.537   2.404 -2.2437 -0.0990  0.0588
 1366SOL    HW3 5463   1.913   1.590   2.303  0.0538  0.0714 -2.1675
 1366SOL    MW4 5464   1.988   1.548   2.322 -0.3384  0.0641 -0.5261
 1367SOL     OW 5465   1.754   1.721   2.263 -0.7249  0.7102  0.3839
 1367SOL    HW2 5466   1.753   1.815   2.279  3.0082  0.9101  0.0064
 1367SOL    HW3 5467   1.756   1.712   2.168  1.6615  0.3946  0.4336
 1367SOL    MW4 5468   1.754   1.732   2.253  0.0825  0.6949  0.3407
 1368SOL     OW 5469   1.788   2.011   2.336 -0.2216  0.5875 -0.2687
 1368SOL    HW2 5470   1.823   2.002   2.425 -1.4839  0.0216  0.1838
 1368SOL    HW3 5471   1.863   2.036   2.283  0.9422 -0.9141  0.6248
 1368SOL    MW4 5472   1.802   2.013   2.341 -0.2346  0.3147 -0.0911
 1369SOL     OW 5473   2.021   2.069   2.205 -0.8744 -0.1442 -0.0690
 1369SOL    HW2 5474   2.103   2.030   2.236 -0.3788  1.1436  0.2712
 1369SOL    HW3 5475   2.029   2.072   2.110 -0.2933  0.4841 -0.0008
 1369SOL    MW4 5476   2.033   2.064   2.197 -0.7324  0.1086 -0.0151
 1370SOL     OW 5477   2.003   2.321   2.320 -0.0628  0.1678 -0.2100
 1370SOL    HW2 5478   2.078   2.367   2.283  1.4322 -1.0143  1.3079
 1370SOL    HW3 5479   2.009   2.233   2.283 -0.7315  0.0753 -0.1051
 1370SOL    MW4 5480   2.014   2.315   2.310  0.0462 -0.0003  0.0041
 1371SOL     OW 5481   1.806   2.487   2.212 -0.2921  0.0561 -0.0410
 1371SOL    HW2 5482   1.877   2.439   2.253  0.6476  2.2964  1.0459
 1371SOL    HW3 5483   1.726   2.447   2.248  0.4502 -0.9267  0.5386
 1371SOL    MW4 5484   1.805   2.475   2.222 -0.0702  0.2220  0.1789
 1372SOL     OW 5485   1.820   2.722   2.357 -0.3321 -0.0419 -0.0164
 1372SOL    HW2 5486   1.809   2.644   2.302  0.8650  0.2774 -0.7382
 1372SOL    HW3 5487   1.750   2.781   2.329 -0.0813 -0.1097 -0.8067
 1372SOL    MW4 5488   1.809   2.720   2.346 -0.1411 -0.0087 -0.2159
 1373SOL     OW 5489   2.029   2.816   2.195 -0.2887 -0.1135  0.3323
 1373SOL    HW2 5490   2.111   2.777   2.226  0.0854  0.1608 -0.2948
 1373SOL    HW3 5491   1.960   2.769   2.242  0.2468 -0.0199  1.2279
 1373SOL    MW4 5492   2.031   2.805   2.205 -0.1687 -0.0650  0.3677
 1374SOL     OW 5493   2.012   3.064   2.359 -0.0707 -0.2115 -0.1649
 1374SOL    HW2 5494   2.079   3.118   2.318 -0.3452 -0.3870 -0.8560
 1374SOL    HW3 5495   2.019   2.979   2.315 -0.4724 -0.3555  0.0415
 1374SOL    MW4 5496   2.022   3.060   2.348 -0.1599 -0.2537 -0.2288
 1375SOL     OW 5497   1.782   3.188   2.242  0.0972  0.3649  0.2424
 1375SOL    HW2 5498   1.843   3.126   2.284 -1.0986 -1.0901 -0.1235
 1375SOL    HW3 5499   1.697   3.166   2.279 -0.5669  0.8240 -0.9968
 1375SOL    MW4 5500   1.779   3.177   2.252 -0.1482  0.2335  0.0306
 1376SOL     OW 5501   1.768   3.475   2.359 -0.0979  0.1646 -0.0786
 1376SOL    HW2 5502   1.773   3.383   2.335  0.3888  0.5198 -1.3969
 1376SOL    HW3 5503   1.678   3.501   2.339 -0.2926 -0.0723  0.4855
 1376SOL    MW4 5504   1.757   3.466   2.353 -0.0594  0.1802 -0.1781
 1377SOL     OW 5505   1.991   3.612   2.261 -0.0462 -0.1613 -0.0492
 1377SOL    HW2 5506   1.914   3.570   2.298 -0.4385 -0.1965 -0.9016
 1377SOL    HW3 5507   1.970   3.624   2.169  1.0101 -0.2638 -0.3089
 1377SOL    MW4 5508   1.978   3.608   2.254  0.0414 -0.1795 -0.1959
 1378SOL     OW 5509   1.972   3.894   2.323  0.7959 -0.3469 -0.6639
 1378SOL    HW2 5510   1.969   3.912   2.416  0.6206  1.0002 -0.9281
 1378SOL    HW3 5511   1.959   3.799   2.316 -2.4607 -0.0356  0.4724
 1378SOL    MW4 5512   1.970   3.884   2.334  0.3431 -0.1281 -0.5488
 1379SOL     OW 5513   1.747   4.020   2.230  0.3465  0.3749  0.1636
 1379SOL    HW2 5514   1.831   4.000   2.272 -0.0430 -3.6651 -0.7540
 1379SOL    HW3 5515   1.759   3.994   2.139 -2.0166 -0.8088  0.1302
 1379SOL    MW4 5516   1.760   4.014   2.224 -0.0167 -0.3143  0.0381
 1380SOL     OW 5517   1.742   4.288   2.332  0.1336 -0.1905  0.3780
 1380SOL    HW2 5518   1.738   4.207   2.281 -0.0004 -0.2565  0.4939
 1380SOL    HW3 5519   1.669   4.341   2.299 -0.7375 -0.7512  1.3851
 1380SOL    MW4 5520   1.732   4.285   2.321  0.0010 -0.2732  0.5261
 1381SOL     OW 5521   1.979   4.416   2.239  0.3070 -0.5529  0.1215
 1381SOL    HW2 5522   1.898   4.375   2.271 -1.9576  3.2447 -0.4405
 1381SOL    HW3 5523   1.974   4.407   2.144  1.0120 -1.1438  0.1422
 1381SOL    MW4 5524   1.967   4.409   2.231  0.1012 -0.1298  0.0501
 1382SOL     OW 5525   2.464   4.639   2.321  0.1969 -0.0943 -0.3030
 1382SOL    HW2 5526   2.540   4.683   2.283  0.8236 -0.4607  0.5130
 1382SOL    HW3 5527   2.460   4.555   2.275 -0.8690  0.6863 -1.7036
 1382SOL    MW4 5528   2.473   4.634   2.310  0.1390 -0.0397 -0.3801
 1383SOL     OW 5529   2.259   0.110   2.212 -0.1010  0.3579 -0.0093
 1383SOL    HW2 5530   2.257   0.202   2.241 -1.5031  0.3035  0.1207
 1383SOL    HW3 5531   2.329   0.070   2.263  0.0146  1.1884  0.4880
 1383SOL    MW4 5532   2.268   0.117   2.223 -0.2707  0.4603  0.0735
 1384SOL     OW 5533   2.276   0.376   2.307  0.0825 -0.6483 -0.2486
 1384SOL    HW2 5534   2.348   0.416   2.258  0.1341 -0.5187 -0.0663
 1384SOL    HW3 5535   2.196   0.409   2.264  0.1375 -1.2284 -0.7991
 1384SOL    MW4 5536   2.275   0.386   2.295  0.0965 -0.7078 -0.2972
 1385SOL     OW 5537   2.483   0.515   2.187 -0.3917 -0.5136 -0.1277
 1385SOL    HW2 5538   2.562   0.471   2.220  1.7084  2.8803 -0.3794
 1385SOL    HW3 5539   2.499   0.524   2.093 -0.9629  0.4397 -0.1374
 1385SOL    MW4 5540   2.496   0.510   2.179 -0.1900  0.0599 -0.1622
 1386SOL     OW 5541   2.453   0.750   2.333 -0.1821 -0.2044 -0.2132
 1386SOL    HW2 5542   2.525   0.800   2.295 -0.2901 -0.2762 -0.5210
 1386SOL    HW3 5543   2.467   0.661   2.300  0.8854 -0.7158  1.5718
 1386SOL    MW4 5544   2.465   0.745   2.324 -0.0555 -0.2813 -0.0183
 1387SOL     OW 5545   2.238   0.902   2.225 -0.6056  0.3791  0.2447
 1387SOL    HW2 5546   2.244   0.992   2.255 -0.7853  0.6336 -0.4753
 1387SOL    HW3 5547   2.309   0.856   2.270 -1.1787  0.6465  1.4278
 1387SOL    MW4 5548   2.248   0.908   2.235 -0.7049  0.4479  0.3058
 1388SOL     OW 5549   2.260   1.163   2.340 -0.1832  0.1805 -0.1926
 1388SOL    HW2 5550   2.329   1.217   2.302 -0.8998  0.8925 -0.5014
 1388SOL    HW3 5551   2.179   1.202   2.308 -0.7386 -0.4739  0.3971
 1388SOL    MW4 5552   2.259   1.175   2.331 -0.3510  0.1881 -0.1556
 1389SOL     OW 5553   2.482   1.284   2.194  0.2889  0.6180  0.8824
 1389SOL    HW2 5554   2.562   1.240   2.222  0.4298  0.7393  0.6719
 1389SOL    HW3 5555   2.480   1.365   2.246 -0.3588  0.0123  1.8172
 1389SOL    MW4 5556   2.492   1.289   2.205  0.2220  0.5541  0.9780
 1390SOL     OW 5557   2.447   1.531   2.327 -0.0023 -0.5736  0.2440
 1390SOL    HW2 5558   2.450   1.522   2.422 -0.8573  0.9789  0.4356
 1390SOL    HW3 5559   2.507   1.603   2.307  3.0980 -3.2822 -0.7899
 1390SOL    MW4 5560   2.455   1.539   2.337  0.2939 -0.7261  0.1329
 1391SOL     OW 5561   2.233   1.664   2.222  0.0121 -0.0730  0.1414
 1391SOL    HW2 5562   2.300   1.603   2.253  0.2243 -1.3186 -2.6577
 1391SOL    HW3 5563   2.151   1.625   2.252  0.3015 -0.4498  0.4620
 1391SOL    MW4 5564   2.231   1.651   2.230  0.0782 -0.2871 -0.1856
 1392SOL     OW 5565   2.242   1.929   2.336  0.3903 -0.2148 -0.4556
 1392SOL    HW2 5566   2.320   1.970   2.300  2.1862 -1.8645  1.4145
 1392SOL    HW3 5567   2.242   1.841   2.298 -0.2733 -0.3963 -0.0453
 1392SOL    MW4 5568   2.253   1.923   2.326  0.5397 -0.4564 -0.1547
 1393SOL     OW 5569   2.478   2.060   2.240  0.0515 -0.0832  0.1980
 1393SOL    HW2 5570   2.564   2.032   2.273  0.6253  2.7437  1.1969
 1393SOL    HW3 5571   2.491   2.069   2.145  1.6743  2.9918  0.6690
 1393SOL    MW4 5572   2.491   2.057   2.232  0.3413  0.6955  0.3919
 1394SOL     OW 5573   2.469   2.336   2.332  0.0752  0.4211  0.3927
 1394SOL    HW2 5574   2.536   2.388   2.288  0.9950  0.6137  1.9944
 1394SOL    HW3 5575   2.476   2.249   2.292 -0.4734  1.1171 -1.2511
 1394SOL    MW4 5576   2.479   2.331   2.321  0.1242  0.5383  0.3871
 1395SOL     OW 5577   2.240   2.444   2.234  0.5414 -0.0864 -0.3230
 1395SOL    HW2 5578   2.251   2.531   2.272 -0.0257  0.1739 -0.7406
 1395SOL    HW3 5579   2.316   2.395   2.264  0.2102  0.1725  0.9820
 1395SOL    MW4 5580   2.251   2.449   2.243  0.4229 -0.0179 -0.2060
 1396SOL     OW 5581   2.245   2.715   2.329 -0.1850 -0.2740  0.3063
 1396SOL    HW2 5582   2.229   2.709   2.424  0.0532  1.2061  0.4491
 1396SOL    HW3 5583   2.322   2.771   2.322 -0.3643 -0.1688 -0.7821
 1396SOL    MW4 5584   2.253   2.722   2.341 -0.1773 -0.0648  0.1816
 1397SOL     OW 5585   2.479   2.874   2.259  0.0687 -0.0821 -0.5379
 1397SOL    HW2 5586   2.557   2.839   2.301  0.4550  1.2648 -0.1069
 1397SOL    HW3 5587   2.498   2.868   2.165  0.5473 -0.0981 -0.4407
 1397SOL    MW4 5588   2.491   2.869   2.252  0.1829  0.0935 -0.4682
 1398SOL     OW 5589   2.432   3.137   2.333  0.1226 -0.2864 -0.0784
 1398SOL    HW2 5590   2.512   3.183   2.309 -0.9316  0.5539 -2.0711
 1398SOL    HW3 5591   2.441   3.051   2.293  0.1504 -0.2824 -0.0809
 1398SOL    MW4 5592   2.444   3.132   2.325 -0.0129 -0.1750 -0.3416
 1399SOL     OW 5593   2.196   3.225   2.228  0.0010 -0.0237 -0.0748
 1399SOL    HW2 5594   2.184   3.316   2.255 -0.5582 -0.2453  0.4286
 1399SOL    HW3 5595   2.277   3.198   2.271 -0.3088 -0.0379  0.5080
 1399SOL    MW4 5596   2.205   3.233   2.237 -0.1136 -0.0548  0.0685
 1400SOL     OW 5597   2.235   3.488   2.310  0.3443  0.1521  0.0317
 1400SOL    HW2 5598   2.240   3.501   2.405 -1.7693 -0.6503  0.2768
 1400SOL    HW3 5599   2.154   3.533   2.284  1.2152  0.8866 -1.4982
 1400SOL    MW4 5600   2.225   3.496   2.319  0.1804  0.1431 -0.1378
 1401SOL     OW 5601   2.447   3.647   2.252  0.6460 -0.4296 -0.0607
 1401SOL    HW2 5602   2.435   3.732   2.294  0.2818  0.0969 -1.2015
 1401SOL    HW3 5603   2.366   3.600   2.271 -0.0156  0.2380 -1.1248
 1401SOL    MW4 5604   2.434   3.652   2.260  0.5107 -0.2721 -0.3516
 1402SOL     OW 5605   2.439   3.909   2.358 -0.0094  0.1747 -0.1084
 1402SOL    HW2 5606   2.419   3.885   2.448 -1.1249  0.2672 -0.3119
 1402SOL    HW3 5607   2.353   3.928   2.319  0.4636  0.2130 -1.1612
 1402SOL    MW4 5608   2.425   3.908   2.364 -0.0942  0.1919 -0.2741
 1403SOL     OW 5609   2.212   3.997   2.207  0.0671 -0.0158 -0.0399
 1403SOL    HW2 5610   2.215   4.090   2.227 -0.3165  0.1932 -0.9257
 1403SOL    HW3 5611   2.126   3.968   2.237 -0.4298  0.2549 -1.1801
 1403SOL    MW4 5612   2.201   4.005   2.213 -0.0491  0.0475 -0.3072
 1404SOL     OW 5613   2.195   4.253   2.289 -0.3209  0.6217 -0.2565
 1404SOL    HW2 5614   2.193   4.246   2.384  0.5011  0.1220 -0.2745
 1404SOL    HW3 5615   2.120   4.309   2.268 -0.8428  0.2650  0.6366
 1404SOL    MW4 5616   2.185   4.260   2.299 -0.2813  0.5087 -0.1410
 1405SOL     OW 5617   2.443   4.382   2.228 -0.3294  0.0729 -0.1188
 1405SOL    HW2 5618   2.507   4.316   2.254  0.4098  0.4299 -0.9992
 1405SOL    HW3 5619   2.358   4.345   2.252  0.1619 -0.6998  0.4306
 1405SOL    MW4 5620   2.440   4.369   2.234 -0.1670  0.0181 -0.1625
 1406SOL     OW 5621   2.921   0.002   2.305  0.3328  0.3088 -0.0850
 1406SOL    HW2 5622   3.000   0.045   2.274  0.5490 -0.3467 -0.4613
 1406SOL    HW3 5623   2.922  -0.084   2.263  0.5065 -0.5034  1.5232
 1406SOL    MW4 5624   2.932  -0.004   2.295  0.3843  0.1152  0.0775
 1407SOL     OW 5625   2.678   0.095   2.209  0.6262  0.6777 -0.1030
 1407SOL    HW2 5626   2.674   0.188   2.233  0.2787  0.7920 -0.5907
 1407SOL    HW3 5627   2.759   0.064   2.248  0.9364  1.2831 -0.2561
 1407SOL    MW4 5628   2.688   0.103   2.217  0.6213  0.7727 -0.1875
 1408SOL     OW 5629   2.697   0.354   2.292 -0.0925  0.1269  0.2075
 1408SOL    HW2 5630   2.710   0.330   2.383  0.9000 -0.9077 -0.1933
 1408SOL    HW3 5631   2.783   0.382   2.261 -0.3288  0.0763 -0.5200
 1408SOL    MW4 5632   2.710   0.354   2.300  0.0073 -0.0163  0.0586
 1409SOL     OW 5633   2.946   0.488   2.231 -0.6238  0.0212  0.2523
 1409SOL    HW2 5634   2.929   0.579   2.256 -1.5932  0.0919 -0.6378
 1409SOL    HW3 5635   2.967   0.492   2.138 -0.1432 -0.6034  0.3313
 1409SOL    MW4 5636   2.946   0.500   2.222 -0.6883 -0.0519  0.1453
 1410SOL     OW 5637   2.941   0.747   2.333  0.2047 -0.3671  0.0105
 1410SOL    HW2 5638   2.950   0.727   2.426 -1.0317  0.1603  0.2535
 1410SOL    HW3 5639   2.864   0.805   2.328  0.7471  0.2704 -1.2388
 1410SOL    MW4 5640   2.932   0.752   2.344  0.1131 -0.2134 -0.1223
 1411SOL     OW 5641   2.689   0.868   2.267 -0.0818  0.0895 -0.2594
 1411SOL    HW2 5642   2.696   0.960   2.294 -1.6258 -0.2350  1.3477
 1411SOL    HW3 5643   2.700   0.871   2.172 -0.0381  1.9354 -0.2317
 1411SOL    MW4 5644   2.691   0.881   2.258 -0.2797  0.2902 -0.0437
 1412SOL     OW 5645   2.679   1.149   2.298 -0.1096  0.3699  0.0671
 1412SOL    HW2 5646   2.671   1.139   2.393  1.4804 -1.7676  0.0137
 1412SOL    HW3 5647   2.763   1.193   2.286 -0.2750  0.5643 -0.3792
 1412SOL    MW4 5648   2.689   1.154   2.309  0.0783  0.1135  0.0012
 1413SOL     OW 5649   2.921   1.296   2.263  0.3970 -0.2029 -0.4709
 1413SOL    HW2 5650   2.998   1.249   2.296  0.5497 -0.4861 -1.2123
 1413SOL    HW3 5651   2.929   1.291   2.168  0.0121  0.6815 -0.5535
 1413SOL    MW4 5652   2.932   1.289   2.255  0.3664 -0.1236 -0.5796
 1414SOL     OW 5653   2.901   1.569   2.333  0.0725  0.0499 -0.2324
 1414SOL    HW2 5654   2.907   1.573   2.429  0.5993  0.6051 -0.2822
 1414SOL    HW3 5655   2.909   1.476   2.313  1.8292  0.0978  0.1603
 1414SOL    MW4 5656   2.903   1.557   2.343  0.3737  0.1295 -0.1871
 1415SOL     OW 5657   2.653   1.705   2.271  0.5523  0.2078  0.0251
 1415SOL    HW2 5658   2.724   1.649   2.304  1.2016  1.1989  0.3313
 1415SOL    HW3 5659   2.652   1.688   2.177  1.1246  0.0832  0.0355
 1415SOL    MW4 5660   2.662   1.695   2.263  0.7135  0.3221  0.0669
 1416SOL     OW 5661   2.708   1.968   2.365  0.3958  0.0021  0.1370
 1416SOL    HW2 5662   2.710   1.970   2.461 -0.9201  1.0851  0.1575
 1416SOL    HW3 5663   2.669   1.883   2.344  1.3330 -0.5345  0.5454
 1416SOL    MW4 5664   2.703   1.957   2.375  0.3458  0.0742  0.1936
 1417SOL     OW 5665   2.962   2.059   2.259  0.1942  0.4757  0.0523
 1417SOL    HW2 5666   3.035   2.012   2.300  0.8595  0.9383 -0.5883
 1417SOL    HW3 5667   2.884   2.016   2.293  0.7894 -1.1257 -0.5374
 1417SOL    MW4 5668   2.961   2.047   2.269  0.3606  0.3255 -0.1100
 1418SOL     OW 5669   2.896   2.310   2.360 -0.3445  0.7126  0.0466
 1418SOL    HW2 5670   2.901   2.298   2.455 -0.1863  1.8730  0.1900
 1418SOL    HW3 5671   2.921   2.225   2.324  1.1285  0.7038  1.0244
 1418SOL    MW4 5672   2.900   2.297   2.368 -0.1293  0.8645  0.1945
 1419SOL     OW 5673   2.691   2.469   2.222  0.4047 -0.2478 -0.3597
 1419SOL    HW2 5674   2.763   2.418   2.260 -1.5064 -2.0918  0.8522
 1419SOL    HW3 5675   2.689   2.442   2.130  0.6268 -0.9328 -0.1715
 1419SOL    MW4 5676   2.700   2.459   2.215  0.1818 -0.5815 -0.1750
 1420SOL     OW 5677   2.714   2.718   2.344 -0.4156 -0.2132 -0.4606
 1420SOL    HW2 5678   2.796   2.752   2.309 -1.2904  0.8895 -1.4466
 1420SOL    HW3 5679   2.703   2.633   2.300 -0.3288  0.1040 -1.0957
 1420SOL    MW4 5680   2.723   2.711   2.334 -0.5195 -0.0259 -0.6745
 1421SOL     OW 5681   2.947   2.844   2.268  0.1069  0.1786  0.0660
 1421SOL    HW2 5682   2.934   2.934   2.296  0.3360  0.6646 -1.3670
 1421SOL    HW3 5683   2.946   2.848   2.172  1.3007 -1.1581 -0.0167
 1421SOL    MW4 5684   2.945   2.856   2.259  0.2947  0.0663 -0.1340
 1422SOL     OW 5685   2.919   3.119   2.349  0.4140 -0.1101  0.4266
 1422SOL    HW2 5686   2.995   3.165   2.313  0.1820  0.5155  0.7105
 1422SOL    HW3 5687   2.843   3.163   2.309  0.1875 -0.1600  0.7964
 1422SOL    MW4 5688   2.919   3.131   2.339  0.3535 -0.0342  0.5128
 1423SOL     OW 5689   2.677   3.247   2.268 -0.7369 -0.1052  0.3862
 1423SOL    HW2 5690   2.672   3.342   2.278 -0.6879 -0.1608  0.9708
 1423SOL    HW3 5691   2.685   3.233   2.174  0.2371  0.5192  0.3663
 1423SOL    MW4 5692   2.677   3.258   2.257 -0.6020 -0.0302  0.4607
 1424SOL     OW 5693   2.681   3.530   2.337 -0.3731  0.0260 -0.0911
 1424SOL    HW2 5694   2.753   3.579   2.297 -0.3026 -1.8426 -2.3685
 1424SOL    HW3 5695   2.602   3.576   2.308 -0.2067  0.6414  0.4097
 1424SOL    MW4 5696   2.680   3.543   2.328 -0.3418 -0.1393 -0.3255
 1425SOL     OW 5697   2.918   3.652   2.257  0.4239 -0.3091 -0.0274
 1425SOL    HW2 5698   2.996   3.615   2.300  1.3189  1.4900 -0.0664
 1425SOL    HW3 5699   2.911   3.740   2.292 -0.3792  0.2624 -1.5942
 1425SOL    MW4 5700   2.928   3.659   2.267  0.4361  0.0037 -0.2393
 1426SOL     OW 5701   2.923   3.886   2.383  0.1287  0.3191 -0.7095
 1426SOL    HW2 5702   2.908   3.852   2.472  0.2746  1.4505 -0.2420
 1426SOL    HW3 5703   2.837   3.917   2.355 -0.0163 -0.4677 -1.1594
 1426SOL    MW4 5704   2.909   3.885   2.391  0.1288  0.3645 -0.7072
 1427SOL     OW 5705   2.696   3.973   2.246  0.0275  0.1316 -0.2873
 1427SOL    HW2 5706   2.610   3.937   2.267 -1.0226  2.1303 -1.0011
 1427SOL    HW3 5707   2.691   3.993   2.153  1.2733  0.2364 -0.3345
 1427SOL    MW4 5708   2.684   3.971   2.237  0.0533  0.4091 -0.3877
 1428SOL     OW 5709   2.677   4.230   2.302  0.0392 -0.7613  0.2825
 1428SOL    HW2 5710   2.674   4.225   2.398 -0.0243 -1.9748  0.2354
 1428SOL    HW3 5711   2.693   4.139   2.274  3.3822  0.0642 -0.7445
 1428SOL    MW4 5712   2.678   4.217   2.311  0.4719 -0.8125  0.1408
 1429SOL     OW 5713   2.928   4.387   2.249  0.1339 -0.0787 -0.5508
 1429SOL    HW2 5714   3.004   4.345   2.290 -0.7266 -1.0709  0.0521
 1429SOL    HW3 5715   2.854   4.334   2.277 -1.1367  2.4596  1.1081
 1429SOL    MW4 5716   2.928   4.375   2.258 -0.1472  0.1253 -0.2524
 1430SOL     OW 5717   3.357   4.644   2.325  0.0824  0.1325 -0.5665
 1430SOL    HW2 5718   3.358   4.627   2.420 -0.2253 -0.8810 -0.7349
 1430SOL    HW3 5719   3.439   4.690   2.308 -0.2465  1.0886  0.3253
 1430SOL    MW4 5720   3.368   4.648   2.335 -0.0016  0.1250 -0.4710
 1431SOL     OW 5721   3.152   0.126   2.215  0.1677 -0.0788  0.4227
 1431SOL    HW2 5722   3.147   0.206   2.267  2.6950  0.6063 -0.3011
 1431SOL    HW3 5723   3.220   0.073   2.257  0.2609 -0.7478 -0.5405
 1431SOL    MW4 5724   3.160   0.129   2.227  0.5134 -0.0767  0.2001
 1432SOL     OW 5725   3.166   0.368   2.348 -0.1642 -0.1661 -0.2760
 1432SOL    HW2 5726   3.244   0.395   2.299  1.2279  0.2637  2.1000
 1432SOL    HW3 5727   3.094   0.409   2.301  1.4388  3.1486 -0.0278
 1432SOL    MW4 5728   3.167   0.377   2.335  0.2309  0.3280  0.0702
 1433SOL     OW 5729   3.367   0.465   2.197  0.4811  0.1216  0.3991
 1433SOL    HW2 5730   3.448   0.424   2.225  0.4949 -0.1718 -0.0598
 1433SOL    HW3 5731   3.376   0.474   2.102 -0.3224 -0.5575  0.2542
 1433SOL    MW4 5732   3.379   0.461   2.188  0.3769 -0.0067  0.3194
 1434SOL     OW 5733   3.378   0.730   2.293 -0.4643 -0.1798  0.1932
 1434SOL    HW2 5734   3.463   0.771   2.274 -0.9406  0.9457  0.4776
 1434SOL    HW3 5735   3.382   0.646   2.247  0.4960  0.1969 -0.4448
 1434SOL    MW4 5736   3.390   0.724   2.285 -0.4005  0.0184  0.1465
 1435SOL     OW 5737   3.170   0.894   2.227 -0.0163  0.3429  0.0456
 1435SOL    HW2 5738   3.244   0.838   2.251 -0.9298 -0.2351  1.6199
 1435SOL    HW3 5739   3.093   0.841   2.245 -0.8433  1.2924 -0.6435
 1435SOL    MW4 5740   3.170   0.880   2.233 -0.2459  0.3919  0.1624
 1436SOL     OW 5741   3.173   1.158   2.313  0.2914 -0.2898 -0.0024
 1436SOL    HW2 5742   3.246   1.200   2.268 -1.1473  0.2797 -1.8604
 1436SOL    HW3 5743   3.184   1.065   2.294  0.1439 -0.1309 -0.8914
 1436SOL    MW4 5744   3.184   1.151   2.304  0.0821 -0.1937 -0.3648
 1437SOL     OW 5745   3.391   1.267   2.185  0.0408  0.9048 -0.2371
 1437SOL    HW2 5746   3.460   1.220   2.230 -1.0077 -0.9085 -0.4918
 1437SOL    HW3 5747   3.400   1.358   2.215  1.3897  0.3479  1.0791
 1437SOL    MW4 5748   3.401   1.273   2.195  0.0804  0.5921 -0.0970
 1438SOL     OW 5749   3.384   1.501   2.323  0.1269  0.6051  0.0481
 1438SOL    HW2 5750   3.377   1.508   2.418 -0.5801 -0.2199  0.0701
 1438SOL    HW3 5751   3.305   1.545   2.290  1.1737  2.3186 -0.2309
 1438SOL    MW4 5752   3.372   1.508   2.331  0.1717  0.7223  0.0142
 1439SOL     OW 5753   3.158   1.651   2.236  0.1010  0.5493 -0.3610
 1439SOL    HW2 5754   3.164   1.732   2.287  0.6196 -0.2148  0.7878
 1439SOL    HW3 5755   3.068   1.622   2.247  0.3401  0.1406  0.4764
 1439SOL    MW4 5756   3.147   1.658   2.244  0.2010  0.3946 -0.0990
 1440SOL     OW 5757   3.171   1.907   2.360 -0.3244 -0.6606 -0.2783
 1440SOL    HW2 5758   3.172   1.920   2.455  0.4865 -0.9372 -0.2473
 1440SOL    HW3 5759   3.248   1.954   2.329 -0.9290 -0.0498 -0.8786
 1440SOL    MW4 5760   3.181   1.915   2.369 -0.2972 -0.6165 -0.3534
 1441SOL     OW 5761   3.379   2.044   2.247 -0.0121  0.3259 -0.0796
 1441SOL    HW2 5762   3.457   1.996   2.275 -0.5421  0.1602  1.1596
 1441SOL    HW3 5763   3.374   2.028   2.153  0.2977 -1.3611  0.1688
 1441SOL    MW4 5764   3.389   2.036   2.238 -0.0412  0.0815  0.1167
 1442SOL     OW 5765   3.334   2.292   2.350 -0.2924 -0.3298 -0.2239
 1442SOL    HW2 5766   3.258   2.330   2.305  0.3292  1.7303  0.4351
 1442SOL    HW3 5767   3.338   2.202   2.317 -1.7518  0.1790 -1.8845
 1442SOL    MW4 5768   3.325   2.285   2.339 -0.4029  0.0091 -0.3560
 1443SOL     OW 5769   3.118   2.435   2.228 -0.3369  0.5281 -0.1142
 1443SOL    HW2 5770   3.140   2.514   2.276 -0.1772 -0.0195  0.7301
 1443SOL    HW3 5771   3.035   2.406   2.266  0.5307 -0.7178  0.8551
 1443SOL    MW4 5772   3.110   2.441   2.239 -0.2014  0.2915  0.1251
 1444SOL     OW 5773   3.184   2.689   2.350 -0.3356  0.1782  0.1525
 1444SOL    HW2 5774   3.161   2.678   2.442  2.0416 -0.7698  0.6628
 1444SOL    HW3 5775   3.122   2.755   2.317 -1.3632  0.3285  2.3396
 1444SOL    MW4 5776   3.173   2.696   2.358 -0.1575  0.0729  0.5084
 1445SOL     OW 5777   3.389   2.845   2.225 -0.0489  0.1895 -0.1990
 1445SOL    HW2 5778   3.362   2.929   2.263 -1.2338  0.7025 -2.1012
 1445SOL    HW3 5779   3.328   2.781   2.261 -0.9495  0.6166 -0.9484
 1445SOL    MW4 5780   3.378   2.848   2.235 -0.3240  0.3136 -0.5489
 1446SOL     OW 5781   3.352   3.104   2.359  0.1441 -0.1041 -0.1319
 1446SOL    HW2 5782   3.427   3.153   2.326  0.3572  0.2402  0.8421
 1446SOL    HW3 5783   3.276   3.150   2.324  0.3806 -2.2909 -3.7374
 1446SOL    MW4 5784   3.351   3.117   2.350  0.2034 -0.3472 -0.4791
 1447SOL     OW 5785   3.141   3.245   2.256  0.2963  0.4305 -0.1092
 1447SOL    HW2 5786   3.126   3.331   2.294  0.8299  0.1491  0.7463
 1447SOL    HW3 5787   3.149   3.262   2.162  2.6682  1.6569  0.2572
 1447SOL    MW4 5788   3.140   3.258   2.248  0.6796  0.5552  0.0520
 1448SOL     OW 5789   3.134   3.507   2.369 -0.0109  0.1304 -0.6297
 1448SOL    HW2 5790   3.150   3.486   2.461 -1.4246  0.1996 -0.3564
 1448SOL    HW3 5791   3.217   3.541   2.337  0.7163 -0.6452  0.4068
 1448SOL    MW4 5792   3.147   3.509   2.377 -0.1015  0.0372 -0.4569
 1449SOL     OW 5793   3.375   3.591   2.251 -0.0807 -0.3527 -0.0749
 1449SOL    HW2 5794   3.454   3.544   2.278 -0.4450 -0.9164  0.0299
 1449SOL    HW3 5795   3.376   3.586   2.156 -0.0742 -0.5102 -0.0674
 1449SOL    MW4 5796   3.385   3.584   2.242 -0.1279 -0.4478 -0.0601
 1450SOL     OW 5797   3.383   3.846   2.358  0.3197  0.0588  0.2541
 1450SOL    HW2 5798   3.439   3.893   2.297  1.3083 -0.4866  0.7299
 1450SOL    HW3 5799   3.386   3.755   2.327  1.2911 -0.3270  1.4405
 1450SOL    MW4 5800   3.391   3.840   2.346  0.5783 -0.0641  0.4734
 1451SOL     OW 5801   3.168   3.985   2.265  0.0807 -0.1153 -0.0186
 1451SOL    HW2 5802   3.243   3.934   2.295  0.2852  0.5348  0.6159
 1451SOL    HW3 5803   3.093   3.947   2.312 -0.1556 -1.4269 -1.4267
 1451SOL    MW4 5804   3.168   3.973   2.275  0.0765 -0.2026 -0.1206
 1452SOL     OW 5805   3.160   4.258   2.335  0.2997 -0.2871 -0.4105
 1452SOL    HW2 5806   3.246   4.289   2.306  1.3919 -0.8633  2.0142
 1452SOL    HW3 5807   3.156   4.167   2.305 -0.7395  0.5797 -3.0561
 1452SOL    MW4 5808   3.171   4.250   2.327  0.3067 -0.2487 -0.4396
 1453SOL     OW 5809   3.409   4.388   2.258 -0.1047 -0.0374  0.0343
 1453SOL    HW2 5810   3.397   4.481   2.277  1.2223  0.1668 -0.0266
 1453SOL    HW3 5811   3.416   4.383   2.163 -0.0054 -0.1692  0.0472
 1453SOL    MW4 5812   3.409   4.399   2.248  0.0835 -0.0279  0.0280
 1454SOL     OW 5813   3.799   4.605   2.353  0.4720 -0.1570 -0.1271
 1454SOL    HW2 5814   3.811   4.610   2.448  1.1745 -0.5921 -0.1848
 1454SOL    HW3 5815   3.879   4.642   2.317 -0.1394  0.7500 -0.5586
 1454SOL    MW4 5816   3.811   4.610   2.361  0.4840 -0.0947 -0.1916
 1455SOL     OW 5817   3.606   0.096   2.235  0.3312  0.0768 -0.0147
 1455SOL    HW2 5818   3.615   0.182   2.278  1.9511  0.9469 -2.0071
 1455SOL    HW3 5819   3.684   0.048   2.263  0.3435 -0.0867 -0.3321
 1455SOL    MW4 5820   3.617   0.101   2.245  0.5465  0.1701 -0.3195
 1456SOL     OW 5821   3.574   0.351   2.350 -0.4015  1.0821 -0.2567
 1456SOL    HW2 5822   3.568   0.339   2.444 -1.6019 -1.1255 -0.5721
 1456SOL    HW3 5823   3.661   0.388   2.335  0.3606  0.0548  1.5718
 1456SOL    MW4 5824   3.584   0.355   2.360 -0.4593  0.6553 -0.0571
 1457SOL     OW 5825   3.812   0.458   2.222 -0.1078 -0.2418 -0.0918
 1457SOL    HW2 5826   3.816   0.534   2.280 -0.7806 -0.5788  0.4039
 1457SOL    HW3 5827   3.830   0.493   2.135 -0.4826  0.4929  0.1238
 1457SOL    MW4 5828   3.815   0.473   2.218 -0.2460 -0.1893  0.0021
 1458SOL     OW 5829   3.841   0.702   2.347  0.4692  0.2387 -0.6644
 1458SOL    HW2 5830   3.831   0.718   2.441  1.2046  2.0148 -0.8641
 1458SOL    HW3 5831   3.916   0.756   2.321  0.1799 -0.1194 -2.2967
 1458SOL    MW4 5832   3.849   0.712   2.356  0.5281  0.4258 -0.9061
 1459SOL     OW 5833   3.621   0.843   2.252  0.3388 -0.4029  0.4067
 1459SOL    HW2 5834   3.705   0.812   2.285  0.0798 -0.5659  0.9143
 1459SOL    HW3 5835   3.631   0.842   2.156  0.6654 -1.1130  0.4489
 1459SOL    MW4 5836   3.633   0.839   2.243  0.3477 -0.5181  0.4792
 1460SOL     OW 5837   3.594   1.128   2.322 -0.0786  0.1055  0.0297
 1460SOL    HW2 5838   3.577   1.127   2.417 -0.8984  0.5079 -0.1042
 1460SOL    HW3 5839   3.605   1.036   2.298 -0.6701 -0.0589  0.3811
 1460SOL    MW4 5840   3.593   1.116   2.332 -0.2648  0.1369  0.0584
 1461SOL     OW 5841   3.846   1.216   2.205 -0.1406  0.2196  0.1236
 1461SOL    HW2 5842   3.826   1.297   2.253 -0.8217 -0.0846  0.3563
 1461SOL    HW3 5843   3.768   1.162   2.216  0.4915 -0.6578  0.3579
 1461SOL    MW4 5844   3.834   1.220   2.213 -0.1471  0.0637  0.1852
 1462SOL     OW 5845   3.837   1.491   2.343  0.3969 -0.2715  0.1258
 1462SOL    HW2 5846   3.807   1.495   2.433  1.1698  0.3266  0.3599
 1462SOL    HW3 5847   3.770   1.537   2.293  1.1789  1.5336  0.7163
 1462SOL    MW4 5848   3.824   1.497   2.348  0.6021  0.0455  0.2346
 1463SOL     OW 5849   3.623   1.628   2.241 -0.5627  0.4574 -0.6172
 1463SOL    HW2 5850   3.542   1.582   2.263 -1.9303  2.9353 -0.2660
 1463SOL    HW3 5851   3.616   1.645   2.147 -0.5911  0.9024 -0.5367
 1463SOL    MW4 5852   3.611   1.625   2.232 -0.7469  0.8430 -0.5602
 1464SOL     OW 5853   3.599   1.895   2.350 -0.0623 -0.1839  0.2233
 1464SOL    HW2 5854   3.674   1.942   2.313  0.5841 -1.1068  0.3262
 1464SOL    HW3 5855   3.602   1.809   2.308 -1.0570 -0.2311  0.2441
 1464SOL    MW4 5856   3.609   1.890   2.340 -0.1083 -0.3119  0.2397
 1465SOL     OW 5857   3.802   2.028   2.226 -0.7160 -0.5041  0.1403
 1465SOL    HW2 5858   3.877   1.972   2.244 -0.9899 -0.5366  1.2159
 1465SOL    HW3 5859   3.789   2.022   2.131 -0.1129 -1.4494  0.1169
 1465SOL    MW4 5860   3.810   2.020   2.216 -0.6725 -0.6331  0.2791
 1466SOL     OW 5861   3.802   2.298   2.347 -0.1470 -0.2310  0.5493
 1466SOL    HW2 5862   3.725   2.345   2.316  0.6656  0.4510 -0.4557
 1466SOL    HW3 5863   3.797   2.212   2.306 -0.4721 -0.2567  0.6434
 1466SOL    MW4 5864   3.791   2.293   2.338 -0.0827 -0.1444  0.4291
 1467SOL     OW 5865   3.573   2.446   2.272  0.0792 -0.8506  0.4295
 1467SOL    HW2 5866   3.502   2.389   2.301  1.6195 -2.6000  0.8654
 1467SOL    HW3 5867   3.572   2.438   2.176  0.2701 -1.6304  0.4842
 1467SOL    MW4 5868   3.564   2.437   2.263  0.3076 -1.1843  0.4942
 1468SOL     OW 5869   3.605   2.705   2.352  0.4467  0.1518 -0.4071
 1468SOL    HW2 5870   3.595   2.613   2.326 -1.3576  0.3241 -0.4067
 1468SOL    HW3 5871   3.539   2.752   2.301  0.2066  1.2057  0.8364
 1468SOL    MW4 5872   3.595   2.699   2.342  0.1769  0.3136 -0.2430
 1469SOL     OW 5873   3.826   2.808   2.230 -0.1294  0.3301  0.8514
 1469SOL    HW2 5874   3.823   2.901   2.254  0.6263  0.3764  0.8047
 1469SOL    HW3 5875   3.760   2.766   2.285 -1.8704  1.2030 -0.5432
 1469SOL    MW4 5876   3.817   2.815   2.240 -0.2594  0.4514  0.6613
 1470SOL     OW 5877   3.797   3.057   2.338 -0.6941  0.2489 -0.0393
 1470SOL    HW2 5878   3.815   3.054   2.432 -0.6242  0.3658 -0.0483
 1470SOL    HW3 5879   3.877   3.095   2.300  0.1185 -1.7179 -0.3669
 1470SOL    MW4 5880   3.810   3.062   2.345 -0.5776  0.0048 -0.0837
 1471SOL     OW 5881   3.585   3.221   2.219  0.3052  0.3436 -0.2193
 1471SOL    HW2 5882   3.594   3.301   2.270 -2.0397  0.6301 -0.2121
 1471SOL    HW3 5883   3.658   3.166   2.248  0.9727  1.8184  0.9611
 1471SOL    MW4 5884   3.596   3.224   2.230  0.0839  0.5760 -0.0626
 1472SOL     OW 5885   3.600   3.461   2.364  0.0636  0.0950  0.3338
 1472SOL    HW2 5886   3.596   3.448   2.459  0.2197  0.6086  0.4127
 1472SOL    HW3 5887   3.684   3.506   2.350  1.9254 -3.4410 -0.4541
 1472SOL    MW4 5888   3.611   3.465   2.375  0.3298 -0.3038  0.2402
 1473SOL     OW 5889   3.868   3.578   2.271  0.1153  0.3964 -0.5375
 1473SOL    HW2 5890   3.848   3.668   2.298 -1.2678  0.2534 -1.0936
 1473SOL    HW3 5891   3.863   3.580   2.176 -1.3818 -0.6117 -0.4912
 1473SOL    MW4 5892   3.865   3.590   2.262 -0.2647  0.2445 -0.6048
 1474SOL     OW 5893   3.784   3.841   2.355 -0.2923 -0.1997  0.3276
 1474SOL    HW2 5894   3.784   3.825   2.450 -0.8590 -2.2175  0.0168
 1474SOL    HW3 5895   3.858   3.900   2.341 -1.9558  2.5207  2.3728
 1474SOL    MW4 5896   3.794   3.847   2.366 -0.5866 -0.1070  0.5564
 1475SOL     OW 5897   3.583   3.974   2.220  0.4055 -0.9523  0.5466
 1475SOL    HW2 5898   3.586   4.061   2.260  2.6262  0.1389 -1.8118
 1475SOL    HW3 5899   3.640   3.921   2.275  0.1230 -0.5692  1.2201
 1475SOL    MW4 5900   3.591   3.979   2.232  0.6612 -0.7578  0.3243
 1476SOL     OW 5901   3.600   4.224   2.339  0.7755 -0.1184  0.5361
 1476SOL    HW2 5902   3.683   4.259   2.306  0.9374  0.8838  1.9705
 1476SOL    HW3 5903   3.535   4.291   2.316  0.7874  0.2853  1.6210
 1476SOL    MW4 5904   3.603   4.238   2.332  0.7984  0.0671  0.8685
 1477SOL     OW 5905   3.828   4.356   2.244 -0.1161 -0.3053  0.5144
 1477SOL    HW2 5906   3.892   4.325   2.308  1.7749  0.7200 -0.8519
 1477SOL    HW3 5907   3.807   4.445   2.273  2.1293  0.8603 -1.2454
 1477SOL    MW4 5908   3.834   4.364   2.256  0.4296 -0.0162  0.1020
 1478SOL     OW 5909   4.260   4.610   2.318  0.1995  0.2593  0.2973
 1478SOL    HW2 5910   4.267   4.625   2.412  0.7222 -1.3914  0.5452
 1478SOL    HW3 5911   4.337   4.654   2.280  0.0212  0.8698  0.6425
 1478SOL    MW4 5912   4.271   4.618   2.325  0.2449  0.1221  0.3756
 1479SOL     OW 5913   4.021   0.068   2.234 -0.0883  0.1986 -0.1095
 1479SOL    HW2 5914   4.006   0.150   2.281 -0.0697 -0.0806  0.3817
 1479SOL    HW3 5915   4.105   0.037   2.267 -0.3199 -0.2598  0.0498
 1479SOL    MW4 5916   4.030   0.075   2.244 -0.1164  0.1013 -0.0236
 1480SOL     OW 5917   4.023   0.342   2.345  0.0269 -0.1872 -0.2988
 1480SOL    HW2 5918   4.104   0.381   2.311  0.8653  0.1482  1.9486
 1480SOL    HW3 5919   3.954   0.377   2.289  1.2026  1.4044 -0.7887
 1480SOL    MW4 5920   4.025   0.352   2.333  0.2926  0.0671 -0.0669
 1481SOL     OW 5921   4.241   0.458   2.214  0.3144 -0.1142 -0.2717
 1481SOL    HW2 5922   4.254   0.546   2.249 -0.1455  0.2381 -0.9914
 1481SOL    HW3 5923   4.308   0.405   2.257 -0.0372  0.3839  0.9047
 1481SOL    MW4 5924   4.251   0.463   2.224  0.2073 -0.0020 -0.2114
 1482SOL     OW 5925   4.270   0.743   2.346  0.1869  0.3653  0.0562
 1482SOL    HW2 5926   4.198   0.796   2.311  0.9423  0.5381 -1.2692
 1482SOL    HW3 5927   4.349   0.779   2.305  0.7865 -1.3783 -0.3652
 1482SOL    MW4 5928   4.271   0.755   2.336  0.3657  0.1581 -0.1743
 1483SOL     OW 5929   4.048   0.840   2.239 -0.0761 -0.0433 -0.0523
 1483SOL    HW2 5930   4.060   0.927   2.278 -1.4404  0.0234  0.2757
 1483SOL    HW3 5931   4.046   0.856   2.145  0.5603  0.1629 -0.0292
 1483SOL    MW4 5932   4.049   0.854   2.232 -0.1722 -0.0073 -0.0060
 1484SOL     OW 5933   4.060   1.094   2.338  0.0706 -0.2637  0.7572
 1484SOL    HW2 5934   4.059   1.116   2.431  1.1782  1.3216  0.4127
 1484SOL    HW3 5935   3.992   1.149   2.299  0.6989  0.2745  0.3939
 1484SOL    MW4 5936   4.051   1.104   2.345  0.2997  0.0165  0.6638
 1485SOL     OW 5937   4.279   1.240   2.199 -0.2064 -0.1648 -0.0861
 1485SOL    HW2 5938   4.225   1.170   2.236 -0.6349 -0.0507 -0.4962
 1485SOL    HW3 5939   4.369   1.214   2.220 -0.4793  0.3203  1.7847
 1485SOL    MW4 5940   4.284   1.227   2.207 -0.2990 -0.0857  0.1066
 1486SOL     OW 5941   4.281   1.494   2.344 -0.5184 -0.5355  0.1900
 1486SOL    HW2 5942   4.276   1.408   2.301 -0.6331 -0.9105  0.9525
 1486SOL    HW3 5943   4.342   1.544   2.289 -0.0665 -1.2646  0.0172
 1486SOL    MW4 5944   4.289   1.489   2.331 -0.4739 -0.6812  0.2678
 1487SOL     OW 5945   4.055   1.616   2.254 -0.4423  0.4686 -0.0605
 1487SOL    HW2 5946   4.133   1.567   2.282 -1.4238 -0.9337  0.2849
 1487SOL    HW3 5947   3.982   1.570   2.295 -1.5047  1.4362 -0.8362
 1487SOL    MW4 5948   4.056   1.603   2.263 -0.7119  0.4113 -0.1172
 1488SOL     OW 5949   4.033   1.883   2.330 -0.5358  0.2762  0.3467
 1488SOL    HW2 5950   4.018   1.884   2.424 -2.2902  0.9920  0.0691
 1488SOL    HW3 5951   4.066   1.795   2.312  2.2583  0.9181  1.9723
 1488SOL    MW4 5952   4.035   1.872   2.340 -0.3986  0.4553  0.5245
 1489SOL     OW 5953   4.237   2.048   2.230 -0.0108  0.5697  0.6064
 1489SOL    HW2 5954   4.220   2.137   2.261 -1.4824  0.4163  0.2479
 1489SOL    HW3 5955   4.166   1.996   2.266  1.4662 -0.6918  1.7482
 1489SOL    MW4 5956   4.226   2.053   2.239 -0.0101  0.3830  0.7098
 1490SOL     OW 5957   4.192   2.296   2.334 -0.0546 -0.2897  0.9239
 1490SOL    HW2 5958   4.141   2.348   2.272  0.2371  0.2182  1.1122
 1490SOL    HW3 5959   4.282   2.324   2.320  0.1727 -1.1785  0.6027
 1490SOL    MW4 5960   4.197   2.306   2.324  0.0139 -0.3400  0.9064
 1491SOL     OW 5961   4.012   2.427   2.178  0.3046 -0.4425 -0.3501
 1491SOL    HW2 5962   4.006   2.506   2.232 -1.2162 -1.2114  0.6173
 1491SOL    HW3 5963   3.959   2.362   2.224  1.2768 -1.9424 -1.3090
 1491SOL    MW4 5964   4.005   2.429   2.192  0.2322 -0.7418 -0.3490
 1492SOL     OW 5965   4.040   2.657   2.347 -0.1791  0.2295 -0.1679
 1492SOL    HW2 5966   4.047   2.663   2.442  3.8583  1.6124 -0.4611
 1492SOL    HW3 5967   3.966   2.713   2.324  1.3103  3.1706  1.8804
 1492SOL    MW4 5968   4.031   2.665   2.356  0.5501  0.8000  0.0637
 1493SOL     OW 5969   4.289   2.813   2.198 -0.0587  0.1023  0.0145
 1493SOL    HW2 5970   4.216   2.762   2.234  0.7994  0.8210  2.9539
 1493SOL    HW3 5971   4.367   2.771   2.235  1.0569 -0.5821 -2.9906
 1493SOL    MW4 5972   4.289   2.801   2.208  0.2017  0.1068  0.0058
 1494SOL     OW 5973   4.285   3.065   2.332 -0.0407 -0.1977  0.1403
 1494SOL    HW2 5974   4.276   2.989   2.275 -0.1064  0.1779 -0.3517
 1494SOL    HW3 5975   4.356   3.116   2.294 -0.9199  0.6842 -0.3279
 1494SOL    MW4 5976   4.293   3.062   2.320 -0.1654 -0.0318  0.0136
 1495SOL     OW 5977   4.035   3.176   2.250 -0.0476 -0.2921  0.4062
 1495SOL    HW2 5978   4.031   3.266   2.281  0.8165 -0.1727  0.1814
 1495SOL    HW3 5979   4.109   3.137   2.297  0.4116 -0.4967 -0.4720
 1495SOL    MW4 5980   4.044   3.183   2.260  0.1270 -0.3033  0.2607
 1496SOL     OW 5981   4.070   3.420   2.353  0.3015 -0.3162  0.3340
 1496SOL    HW2 5982   4.146   3.463   2.314  0.4551 -1.8670 -1.1164
 1496SOL    HW3 5983   3.996   3.475   2.327  0.5633 -0.5666 -0.9773
 1496SOL    MW4 5984   4.070   3.433   2.345  0.3563 -0.5538 -0.0304
 1497SOL     OW 5985   4.282   3.612   2.254 -0.0718  0.1585 -0.3602
 1497SOL    HW2 5986   4.268   3.701   2.287 -0.8162  0.5111 -1.5933
 1497SOL    HW3 5987   4.305   3.624   2.161  0.2052 -0.9145 -0.4433
 1497SOL    MW4 5988   4.283   3.625   2.246 -0.1335  0.0634 -0.5338
 1498SOL     OW 5989   4.264   3.866   2.351  0.2583  0.0262 -0.2226
 1498SOL    HW2 5990   4.279   3.854   2.445 -0.1010 -1.9536 -0.3986
 1498SOL    HW3 5991   4.347   3.898   2.317  0.6181  0.0425  0.6608
 1498SOL    MW4 5992   4.277   3.869   2.359  0.2584 -0.2329 -0.1293
 1499SOL     OW 5993   4.023   3.973   2.275  0.0307 -0.6424 -0.4150
 1499SOL    HW2 5994   4.111   3.940   2.296  0.7515  1.2156 -0.3811
 1499SOL    HW3 5995   4.020   3.977   2.180  0.2078 -0.1542 -0.4029
 1499SOL    MW4 5996   4.034   3.970   2.265  0.1492 -0.3328 -0.4089
 1500SOL     OW 5997   4.056   4.241   2.351  0.0904  0.1443 -0.1879
 1500SOL    HW2 5998   4.119   4.268   2.284  0.2611 -0.9996 -0.4984
 1500SOL    HW3 5999   4.047   4.146   2.339 -0.9709  0.1551  0.4745
 1500SOL    MW4 6000   4.063   4.232   2.341 -0.0271 -0.0052 -0.1415
 1501SOL     OW 6001   4.281   4.352   2.208  0.1522  0.1025 -0.1736
 1501SOL    HW2 6002   4.271   4.442   2.238  0.7342  0.4246 -0.9273
 1501SOL    HW3 6003   4.357   4.318   2.255  0.2066  0.1514 -0.2269
 1501SOL    MW4 6004   4.289   4.360   2.218  0.2362  0.1515 -0.2801
 1502SOL     OW 6005   0.212   0.009   2.584 -0.1196 -0.2999  0.0807
 1502SOL    HW2 6006   0.225  -0.071   2.635  0.8665  1.3083  2.4592
 1502SOL    HW3 6007   0.130   0.046   2.618 -0.3554 -0.1074 -0.7057
 1502SOL    MW4 6008   0.203   0.003   2.596 -0.0206 -0.0623  0.2908
 1503SOL     OW 6009   4.490   0.156   2.714  0.1435 -0.2813 -0.2996
 1503SOL    HW2 6010   4.487   0.143   2.809 -2.3610  0.3216 -0.2405
 1503SOL    HW3 6011   4.478   0.250   2.702 -0.0803 -0.4205 -1.2146
 1503SOL    MW4 6012   4.488   0.166   2.725 -0.2165 -0.2202 -0.4125
 1504SOL     OW 6013   4.468   0.414   2.623  0.1471  0.5362  0.0666
 1504SOL    HW2 6014   4.556   0.437   2.652  0.0380  0.9515  0.0674
 1504SOL    HW3 6015   4.477   0.396   2.529  0.2873  0.2859  0.1262
 1504SOL    MW4 6016   4.480   0.415   2.614  0.1512  0.5580  0.0746
 1505SOL     OW 6017   0.211   0.517   2.699  0.0158 -0.0459  0.0388
 1505SOL    HW2 6018   0.206   0.514   2.794 -0.2261 -1.8637 -0.0134
 1505SOL    HW3 6019   0.287   0.462   2.678 -0.7790 -0.8241 -0.8712
 1505SOL    MW4 6020   0.221   0.509   2.708 -0.1210 -0.3884 -0.0881
 1506SOL     OW 6021   0.239   0.785   2.615 -0.0749  0.0054 -0.1199
 1506SOL    HW2 6022   0.317   0.811   2.663 -0.8707  0.5129  0.9139
 1506SOL    HW3 6023   0.234   0.690   2.627 -0.1346  0.0961  0.5992
 1506SOL    MW4 6024   0.249   0.776   2.623 -0.1878  0.0843  0.1113
 1507SOL     OW 6025   4.489   0.904   2.716 -0.1577  0.2610 -0.2166
 1507SOL    HW2 6026   4.414   0.850   2.692 -1.2212  0.7625  1.8207
 1507SOL    HW3 6027   4.565   0.852   2.690 -1.1797 -1.3244 -0.1301
 1507SOL    MW4 6028   4.489   0.890   2.710 -0.4329  0.1180  0.0636
 1508SOL     OW 6029   4.483   1.197   2.555 -0.3378  0.3700 -0.3759
 1508SOL    HW2 6030   4.564   1.234   2.590 -1.0013  0.5439  0.9804
 1508SOL    HW3 6031   4.479   1.109   2.593 -0.0376 -0.2133 -1.6315
 1508SOL    MW4 6032   4.493   1.190   2.564 -0.3857  0.3160 -0.3626
 1509SOL     OW 6033   0.221   1.270   2.730  0.1466  0.8870  0.1960
 1509SOL    HW2 6034   0.293   1.227   2.683  1.3263  1.7825  1.1675
 1509SOL    HW3 6035   0.224   1.361   2.701 -0.6354  0.9180  0.2026
 1509SOL    MW4 6036   0.231   1.276   2.720  0.1991  1.0093  0.3250
 1510SOL     OW 6037   0.233   1.537   2.611  0.2476  0.1105  0.0014
 1510SOL    HW2 6038   0.300   1.603   2.631 -0.0739  0.1183  1.0612
 1510SOL    HW3 6039   0.151   1.577   2.638 -0.1645 -0.0012 -1.0667
 1510SOL    MW4 6040   0.231   1.551   2.617  0.1508  0.0968  0.0003
 1511SOL     OW 6041   4.490   1.666   2.711  0.2109  0.5836  0.3228
 1511SOL    HW2 6042   4.495   1.654   2.805 -0.8722  0.3902  0.3631
 1511SOL    HW3 6043   4.493   1.761   2.698 -0.3271  0.6431  0.6056
 1511SOL    MW4 6044   4.491   1.677   2.721 -0.0030  0.5659  0.3654
 1512SOL     OW 6045   4.484   1.928   2.616  0.0489  0.2934  0.4521
 1512SOL    HW2 6046   4.538   1.998   2.651  1.1123 -0.2399 -0.0890
 1512SOL    HW3 6047   4.483   1.944   2.521  0.1280 -0.3011  0.3492
 1512SOL    MW4 6048   4.491   1.939   2.608  0.1997  0.1446  0.3671
 1513SOL     OW 6049   0.175   2.076   2.765 -0.5281 -0.2910  0.1799
 1513SOL    HW2 6050   0.256   2.046   2.725 -0.5186 -0.9106  0.6528
 1513SOL    HW3 6051   0.161   2.164   2.729  0.0952 -0.3729 -0.2665
 1513SOL    MW4 6052   0.184   2.083   2.755 -0.4446 -0.3835  0.1834
 1514SOL     OW 6053   0.141   2.307   2.615 -0.7124 -0.1117  0.0998
 1514SOL    HW2 6054   0.222   2.355   2.634 -0.1052 -0.2481 -2.0481
 1514SOL    HW3 6055   0.071   2.367   2.642  0.0722  1.2474 -0.8390
 1514SOL    MW4 6056   0.142   2.321   2.621 -0.5287  0.0496 -0.3075
 1515SOL     OW 6057   4.431   2.463   2.707 -0.3710  0.2818  0.0294
 1515SOL    HW2 6058   4.435   2.439   2.799 -1.3684 -1.4516 -0.3632
 1515SOL    HW3 6059   4.354   2.417   2.673  0.2359  0.5424 -1.7632
 1515SOL    MW4 6060   4.422   2.454   2.715 -0.4225  0.0875 -0.2589
 1516SOL     OW 6061   0.028   2.709   2.605 -0.1855 -0.0985  0.3299
 1516SOL    HW2 6062  -0.052   2.763   2.610  0.0773  0.2683  0.6236
 1516SOL    HW3 6063  -0.000   2.622   2.634 -0.5569 -0.0579  0.0989
 1516SOL    MW4 6064   0.014   2.705   2.610 -0.1998 -0.0448  0.3382
 1517SOL     OW 6065   0.202   2.849   2.761 -0.1922  0.5449  0.0056
 1517SOL    HW2 6066   0.220   2.933   2.719 -0.4869  1.2156  1.2215
 1517SOL    HW3 6067   0.132   2.810   2.708  0.0432  0.9975 -0.6399
 1517SOL    MW4 6068   0.195   2.855   2.748 -0.2000  0.6931  0.0808
 1518SOL     OW 6069   0.238   3.093   2.641  0.2296 -0.1888 -0.1459
 1518SOL    HW2 6070   0.317   3.145   2.651 -0.3751  0.6448  0.4046
 1518SOL    HW3 6071   0.217   3.098   2.547  0.6791 -0.1938 -0.2446
 1518SOL    MW4 6072   0.245   3.101   2.630  0.2092 -0.0795 -0.0863
 1519SOL     OW 6073   0.007   3.177   2.771 -0.1113  0.2120  0.2664
 1519SOL    HW2 6074  -0.060   3.132   2.720  0.7036  1.9281 -2.3967
 1519SOL    HW3 6075   0.090   3.140   2.740  0.4059  1.4306  0.1456
 1519SOL    MW4 6076   0.009   3.166   2.760  0.0644  0.5992 -0.1009
 1520SOL     OW 6077   0.037   3.427   2.629  0.3124 -0.4278 -0.0346
 1520SOL    HW2 6078   0.108   3.488   2.653 -2.1274  1.5529  2.4683
 1520SOL    HW3 6079   0.048   3.353   2.689  1.0551 -0.7744 -0.5829
 1520SOL    MW4 6080   0.048   3.425   2.640  0.0885 -0.2122  0.2233
 1521SOL     OW 6081   0.248   3.602   2.690 -0.4058  0.1358 -0.0808
 1521SOL    HW2 6082   0.249   3.587   2.784  0.7011  1.0443  0.0666
 1521SOL    HW3 6083   0.323   3.553   2.657  0.7702  1.9310 -0.1293
 1521SOL    MW4 6084   0.258   3.594   2.698 -0.1046  0.4925 -0.0678
 1522SOL     OW 6085   0.216   3.870   2.621 -0.6948  0.4344 -0.2100
 1522SOL    HW2 6086   0.248   3.781   2.635 -0.0114  0.5053 -1.3146
 1522SOL    HW3 6087   0.213   3.881   2.526 -1.7631  1.2381 -0.0925
 1522SOL    MW4 6088   0.220   3.860   2.611 -0.7456  0.5498 -0.3402
 1523SOL     OW 6089   0.036   4.013   2.752  0.1047 -0.1343  0.0872
 1523SOL    HW2 6090   0.034   4.098   2.707  0.4217 -0.8046 -1.2231
 1523SOL    HW3 6091   0.104   3.964   2.706 -0.2421 -1.1820  0.6902
 1523SOL    MW4 6092   0.045   4.018   2.740  0.1008 -0.3610 -0.0061
 1524SOL     OW 6093   0.015   4.274   2.636  0.2309  0.1161  0.6776
 1524SOL    HW2 6094  -0.068   4.280   2.682 -0.6263  1.2773 -0.9567
 1524SOL    HW3 6095   0.072   4.337   2.680 -0.3599  0.7051  0.6080
 1524SOL    MW4 6096   0.012   4.283   2.648  0.0398  0.3470  0.4528
 1525SOL     OW 6097   0.216   4.448   2.742 -1.0101  0.0647  0.3250
 1525SOL    HW2 6098   0.214   4.429   2.836  1.7090  0.9804  0.6030
 1525SOL    HW3 6099   0.280   4.388   2.707 -0.9243  0.7558 -0.7088
 1525SOL    MW4 6100   0.224   4.438   2.750 -0.6400  0.2767  0.2253
 1526SOL     OW 6101   0.657   4.654   2.596 -0.2413 -0.3740  0.2510
 1526SOL    HW2 6102   0.735   4.693   2.636 -0.5173 -0.0824  0.5107
 1526SOL    HW3 6103   0.584   4.699   2.639 -0.5554 -0.9319  0.3043
 1526SOL    MW4 6104   0.658   4.665   2.607 -0.3192 -0.4091  0.2923
 1527SOL     OW 6105   0.450   0.126   2.699 -0.0068 -0.1133  0.3213
 1527SOL    HW2 6106   0.447   0.100   2.791  1.6481 -2.0359 -0.1458
 1527SOL    HW3 6107   0.366   0.096   2.662 -0.1957 -0.3399  0.9312
 1527SOL    MW4 6108   0.438   0.119   2.706  0.1866 -0.3968  0.3401
 1528SOL     OW 6109   0.463   0.394   2.602 -0.1712 -0.3834 -0.4694
 1528SOL    HW2 6110   0.540   0.425   2.649  0.2202 -0.6033 -0.9574
 1528SOL    HW3 6111   0.450   0.305   2.633 -1.4789  0.3602  1.1605
 1528SOL    MW4 6112   0.471   0.386   2.612 -0.2921 -0.3143 -0.3188
 1529SOL     OW 6113   0.689   0.527   2.720  0.1474  0.2308  0.2201
 1529SOL    HW2 6114   0.686   0.520   2.816  0.3727  0.6347  0.2552
 1529SOL    HW3 6115   0.766   0.475   2.695  0.0355  0.0493  0.2493
 1529SOL    MW4 6116   0.699   0.519   2.730  0.1624  0.2602  0.2285
 1530SOL     OW 6117   0.660   0.793   2.620  0.2848  0.0763 -0.6336
 1530SOL    HW2 6118   0.730   0.834   2.672  0.0420 -1.7136  1.1791
 1530SOL    HW3 6119   0.655   0.704   2.654 -2.1686 -0.1427 -1.4922
 1530SOL    MW4 6120   0.669   0.787   2.631 -0.0710 -0.1887 -0.5077
 1531SOL     OW 6121   0.447   0.904   2.747  0.4893  0.2691  0.1104
 1531SOL    HW2 6122   0.420   0.985   2.703 -0.4325  0.7711  1.5881
 1531SOL    HW3 6123   0.524   0.875   2.698 -0.1809  1.1278 -1.4856
 1531SOL    MW4 6124   0.453   0.910   2.735  0.2793  0.4486  0.0948
 1532SOL     OW 6125   0.455   1.166   2.596  0.2555 -0.4738  0.0236
 1532SOL    HW2 6126   0.539   1.200   2.626  0.4098 -2.3902  1.9494
 1532SOL    HW3 6127   0.454   1.183   2.502  2.5415  0.1227  0.0731
 1532SOL    MW4 6128   0.466   1.172   2.587  0.5775 -0.6479  0.2842
 1533SOL     OW 6129   0.679   1.280   2.689  0.2473  0.0819  0.0256
 1533SOL    HW2 6130   0.688   1.279   2.784 -0.5568 -1.1843  0.0979
 1533SOL    HW3 6131   0.749   1.224   2.657  0.3779  0.3266 -0.1202
 1533SOL    MW4 6132   0.689   1.273   2.697  0.1585 -0.0529  0.0159
 1534SOL     OW 6133   0.644   1.540   2.597 -0.2661 -0.6165  0.0927
 1534SOL    HW2 6134   0.579   1.591   2.645  0.6546 -0.3462  1.0833
 1534SOL    HW3 6135   0.648   1.457   2.644 -0.3341 -0.8634 -0.3346
 1534SOL    MW4 6136   0.636   1.536   2.610 -0.1536 -0.6134  0.1671
 1535SOL     OW 6137   0.445   1.691   2.718  0.0546 -0.2065  0.1484
 1535SOL    HW2 6138   0.436   1.698   2.813  1.2275 -1.2843  0.3480
 1535SOL    HW3 6139   0.446   1.782   2.688 -1.2145  0.1214  1.0730
 1535SOL    MW4 6140   0.444   1.704   2.727  0.0419 -0.3054  0.2967
 1536SOL     OW 6141   0.403   1.962   2.621  0.0871  0.1974  0.2778
 1536SOL    HW2 6142   0.487   2.000   2.647  1.6415 -2.0890 -1.1215
 1536SOL    HW3 6143   0.406   1.960   2.525 -0.9194 -1.2212  0.2506
 1536SOL    MW4 6144   0.415   1.966   2.611  0.1594 -0.2914  0.0896
 1537SOL     OW 6145   0.626   2.082   2.703 -0.1501  0.0610 -0.1588
 1537SOL    HW2 6146   0.634   2.079   2.798 -0.5205  0.5347 -0.1052
 1537SOL    HW3 6147   0.705   2.041   2.670 -1.2782 -2.6048  0.3611
 1537SOL    MW4 6148   0.637   2.076   2.711 -0.3478 -0.2282 -0.0832
 1538SOL     OW 6149   0.620   2.325   2.598 -0.1213  0.3122  0.3918
 1538SOL    HW2 6150   0.696   2.373   2.633  0.1092  0.9651 -0.9685
 1538SOL    HW3 6151   0.627   2.238   2.637  1.0486  0.5191  0.6675
 1538SOL    MW4 6152   0.631   2.320   2.608  0.0634  0.4257  0.2487
 1539SOL     OW 6153   0.388   2.441   2.678  0.2645  0.0682 -0.2317
 1539SOL    HW2 6154   0.394   2.524   2.631  1.8214  0.1377  0.0806
 1539SOL    HW3 6155   0.467   2.393   2.654  0.7726 -0.1655  1.7726
 1539SOL    MW4 6156   0.399   2.446   2.669  0.5369  0.0465  0.0739
 1540SOL     OW 6157   0.374   2.712   2.592  0.5198  0.6256 -0.4182
 1540SOL    HW2 6158   0.445   2.773   2.611 -1.4929  3.1966 -0.6983
 1540SOL    HW3 6159   0.300   2.745   2.644 -0.7654 -1.3156 -0.9665
 1540SOL    MW4 6160   0.374   2.725   2.601  0.0847  0.7087 -0.5275
 1541SOL     OW 6161   0.614   2.832   2.691  0.2598 -0.3814  0.1809
 1541SOL    HW2 6162   0.606   2.845   2.786 -3.5189  0.5323 -0.1706
 1541SOL    HW3 6163   0.636   2.919   2.657  0.0582 -0.3620  0.0988
 1541SOL    MW4 6164   0.616   2.845   2.699 -0.2654 -0.2583  0.1237
 1542SOL     OW 6165   0.666   3.079   2.592 -0.0001  0.1774  0.0052
 1542SOL    HW2 6166   0.749   3.109   2.629 -0.1257  0.7918 -0.2193
 1542SOL    HW3 6167   0.688   3.053   2.502 -0.2309  1.2048 -0.3549
 1542SOL    MW4 6168   0.680   3.079   2.585 -0.0471  0.3940 -0.0719
 1543SOL     OW 6169   0.472   3.247   2.717 -0.2589  0.0036  0.2374
 1543SOL    HW2 6170   0.473   3.237   2.813  0.3470 -0.7821  0.1549
 1543SOL    HW3 6171   0.545   3.193   2.687  1.0410  2.1086 -0.4893
 1543SOL    MW4 6172   0.482   3.239   2.726 -0.0075  0.1777  0.1306
 1544SOL     OW 6173   0.481   3.489   2.639 -0.2897  0.1931  0.1696
 1544SOL    HW2 6174   0.479   3.402   2.680 -1.4875 -0.0371 -0.3566
 1544SOL    HW3 6175   0.482   3.471   2.545 -0.5627  0.7602  0.0575
 1544SOL    MW4 6176   0.481   3.475   2.632 -0.4837  0.2376  0.0854
 1545SOL     OW 6177   0.693   3.628   2.730  0.2942  0.6768  0.6842
 1545SOL    HW2 6178   0.696   3.604   2.822  0.1144 -1.0248  0.2582
 1545SOL    HW3 6179   0.616   3.581   2.696  1.1818  0.1608 -0.6400
 1545SOL    MW4 6180   0.683   3.619   2.738  0.3876  0.3843  0.4533
 1546SOL     OW 6181   0.674   3.886   2.598 -0.1226 -0.3296 -0.1409
 1546SOL    HW2 6182   0.584   3.907   2.622 -0.5101 -2.1782  0.0995
 1546SOL    HW3 6183   0.689   3.799   2.635  0.6851 -1.4122 -2.9213
 1546SOL    MW4 6184   0.665   3.877   2.606 -0.0672 -0.7163 -0.4760
 1547SOL     OW 6185   0.437   3.997   2.718  0.1380 -0.2036 -0.1768
 1547SOL    HW2 6186   0.429   4.089   2.694 -1.4047 -0.0812  0.7693
 1547SOL    HW3 6187   0.364   3.954   2.675 -0.1290 -0.6957  0.7415
 1547SOL    MW4 6188   0.426   4.004   2.709 -0.1007 -0.2524  0.0692
 1548SOL     OW 6189   0.390   4.251   2.644  0.2588 -0.2751 -0.4990
 1548SOL    HW2 6190   0.465   4.302   2.673 -1.4676  1.4234  1.1314
 1548SOL    HW3 6191   0.399   4.247   2.548  1.2001  1.8573 -0.5307
 1548SOL    MW4 6192   0.401   4.257   2.635  0.1552  0.2303 -0.2880
 1549SOL     OW 6193   0.625   4.389   2.702 -0.0429 -0.0064  0.4682
 1549SOL    HW2 6194   0.713   4.351   2.699  0.0471  0.2122  0.3430
 1549SOL    HW3 6195   0.634   4.474   2.659 -0.4574 -0.2641 -0.1483
 1549SOL    MW4 6196   0.638   4.395   2.696 -0.0857 -0.0116  0.3703
 1550SOL     OW 6197   1.124   4.608   2.643 -0.0555  0.0254  0.2862
 1550SOL    HW2 6198   1.195   4.660   2.679  0.1201  0.3934 -0.5999
 1550SOL    HW3 6199   1.138   4.520   2.680  0.6681  0.1697  0.3600
 1550SOL    MW4 6200   1.135   4.603   2.653  0.0632  0.0930  0.1790
 1551SOL     OW 6201   0.888   0.084   2.693  0.1135 -0.2020 -0.0710
 1551SOL    HW2 6202   0.878   0.110   2.784 -0.4660  0.6314 -0.3666
 1551SOL    HW3 6203   0.972   0.039   2.690 -0.0154 -0.5087  0.9356
 1551SOL    MW4 6204   0.898   0.082   2.704  0.0200 -0.1325  0.0228
 1552SOL     OW 6205   0.878   0.358   2.631  0.1515 -0.0179 -0.2569
 1552SOL    HW2 6206   0.887   0.264   2.648 -1.7480 -0.3484 -0.9679
 1552SOL    HW3 6207   0.856   0.363   2.538  0.6562  1.1614 -0.3165
 1552SOL    MW4 6208   0.876   0.346   2.621 -0.0325  0.0941 -0.3586
 1553SOL     OW 6209   1.131   0.470   2.735  0.1040 -0.3446  0.1632
 1553SOL    HW2 6210   1.133   0.558   2.698 -0.4855 -0.3225  0.1706
 1553SOL    HW3 6211   1.049   0.432   2.702 -0.8054 -0.0652  2.0171
 1553SOL    MW4 6212   1.120   0.476   2.726 -0.0938 -0.3048  0.4088
 1554SOL     OW 6213   1.132   0.721   2.622 -0.5365 -0.1048 -0.7273
 1554SOL    HW2 6214   1.210   0.769   2.648 -1.0532 -0.2141  1.0751
 1554SOL    HW3 6215   1.127   0.734   2.527  0.6249  1.4410 -0.6049
 1554SOL    MW4 6216   1.142   0.729   2.613 -0.4514  0.0848 -0.4733
 1555SOL     OW 6217   0.919   0.891   2.691  0.6925 -0.6719 -0.0173
 1555SOL    HW2 6218   0.922   0.920   2.782  0.7896 -0.4035 -0.1054
 1555SOL    HW3 6219   0.993   0.831   2.682  0.0759 -1.4877  0.3492
 1555SOL    MW4 6220   0.929   0.887   2.702  0.6240 -0.7441  0.0194
 1556SOL     OW 6221   0.901   1.160   2.582  0.4872  0.4183  0.0047
 1556SOL    HW2 6222   0.906   1.066   2.599 -2.2428  0.2696  0.2234
 1556SOL    HW3 6223   0.894   1.167   2.487  0.1930  0.3832  0.0250
 1556SOL    MW4 6224   0.901   1.148   2.572  0.0882  0.3941  0.0363
 1557SOL     OW 6225   1.117   1.274   2.706  0.2101  0.0773 -0.0406
 1557SOL    HW2 6226   1.124   1.360   2.664 -0.2032 -0.1806 -0.6462
 1557SOL    HW3 6227   1.034   1.238   2.673 -0.2528 -0.0160  1.2105
 1557SOL    MW4 6228   1.107   1.281   2.696  0.0945  0.0309  0.0446
 1558SOL     OW 6229   1.134   1.528   2.564 -0.0169  0.0658 -0.1056
 1558SOL    HW2 6230   1.055   1.576   2.589 -1.7351 -1.9537 -1.5300
 1558SOL    HW3 6231   1.133   1.528   2.468  0.9542 -1.2251 -0.1295
 1558SOL    MW4 6232   1.124   1.535   2.554 -0.1155 -0.3710 -0.2967
 1559SOL     OW 6233   0.898   1.658   2.680 -0.0983  0.0982  0.1009
 1559SOL    HW2 6234   0.914   1.655   2.774 -0.0473 -0.8072  0.0738
 1559SOL    HW3 6235   0.824   1.598   2.666  0.2212 -0.1710 -0.4929
 1559SOL    MW4 6236   0.891   1.649   2.690 -0.0495 -0.0567  0.0190
 1560SOL     OW 6237   0.856   1.934   2.630 -0.2396  0.1615 -0.1344
 1560SOL    HW2 6238   0.940   1.981   2.639 -0.6285  0.9221 -0.3843
 1560SOL    HW3 6239   0.879   1.842   2.640  0.5161  0.4199  0.5705
 1560SOL    MW4 6240   0.870   1.928   2.632 -0.1912  0.2960 -0.0743
 1561SOL     OW 6241   1.096   2.055   2.659 -0.0703  0.0513 -0.6938
 1561SOL    HW2 6242   1.183   2.018   2.644  0.1390 -0.6716  2.0471
 1561SOL    HW3 6243   1.105   2.148   2.635  1.7772  0.2509  0.7029
 1561SOL    MW4 6244   1.108   2.063   2.654  0.2010 -0.0177 -0.1479
 1562SOL     OW 6245   1.103   2.322   2.609  0.0574  0.0180 -0.2959
 1562SOL    HW2 6246   1.177   2.363   2.652 -0.8054  0.7486  0.5223
 1562SOL    HW3 6247   1.101   2.360   2.522 -0.5372  1.5163  0.3444
 1562SOL    MW4 6248   1.112   2.332   2.603 -0.1349  0.3121 -0.1035
 1563SOL     OW 6249   0.853   2.449   2.673  0.2121 -0.0762  0.2384
 1563SOL    HW2 6250   0.847   2.537   2.634 -1.2286 -0.7245 -1.0354
 1563SOL    HW3 6251   0.941   2.419   2.649  0.5033  0.7858  0.1994
 1563SOL    MW4 6252   0.864   2.457   2.665  0.0604 -0.0480  0.0652
 1564SOL     OW 6253   0.840   2.707   2.575 -0.0028 -0.2094 -0.2921
 1564SOL    HW2 6254   0.923   2.740   2.609 -0.7893  0.3066  1.1464
 1564SOL    HW3 6255   0.773   2.762   2.616 -1.0409 -0.2537 -1.8494
 1564SOL    MW4 6256   0.842   2.719   2.585 -0.2436 -0.1471 -0.3078
 1565SOL     OW 6257   1.078   2.829   2.719  0.1192  0.2096  0.1233
 1565SOL    HW2 6258   1.099   2.827   2.813 -0.0509 -1.0824  0.1485
 1565SOL    HW3 6259   1.151   2.783   2.678 -0.6995 -0.8230 -0.1888
 1565SOL    MW4 6260   1.091   2.822   2.726 -0.0113 -0.0971  0.0854
 1566SOL     OW 6261   1.127   3.099   2.610  0.1142  0.1091 -0.0879
 1566SOL    HW2 6262   1.115   3.015   2.655  1.2330  0.3744  0.7449
 1566SOL    HW3 6263   1.119   3.078   2.517  0.5206 -0.9448  0.1057
 1566SOL    MW4 6264   1.124   3.085   2.604  0.3154  0.0051  0.0476
 1567SOL     OW 6265   0.898   3.198   2.706 -0.1449  0.2862  0.1620
 1567SOL    HW2 6266   0.902   3.290   2.680 -0.4185  0.5686  1.1188
 1567SOL    HW3 6267   0.982   3.161   2.678  0.2610  0.9975  0.4359
 1567SOL    MW4 6268   0.909   3.205   2.699 -0.1274  0.4173  0.3244
 1568SOL     OW 6269   0.887   3.462   2.615  0.0000  0.0000 -0.3423
 1568SOL    HW2 6270   0.961   3.508   2.655  0.0000  0.0000 -0.3557
 1568SOL    HW3 6271   0.810   3.511   2.645  0.0000  0.0000 -0.3402
 1568SOL    MW4 6272   0.887   3.475   2.624  0.0000  0.0000 -0.3438
 1569SOL     OW 6273   1.102   3.599   2.714  0.0000  0.0000  0.2706
 1569SOL    HW2 6274   1.101   3.626   2.806  0.0000  0.0000  0.2703
 1569SOL    HW3 6275   1.100   3.681   2.665  0.0000  0.0000  0.2703
 1569SOL    MW4 6276   1.102   3.613   2.720  0.0000  0.0000  0.2705
 1570SOL     OW 6277   1.098   3.851   2.611  0.0000  0.0000  0.4442
 1570SOL    HW2 6278   1.178   3.889   2.649  0.0000  0.0000  0.4426
 1570SOL    HW3 6279   1.110   3.859   2.516  0.0000  0.0000  0.4440
 1570SOL    MW4 6280   1.110   3.857   2.603  0.0000  0.0000  0.4440
 1571SOL     OW 6281   0.893   4.008   2.728  0.0000  0.0000  0.7846
 1571SOL    HW2 6282   0.958   3.964   2.673  0.0000  0.0000  0.7871
 1571SOL    HW3 6283   0.809   3.970   2.699  0.0000  0.0000  0.7952
 1571SOL    MW4 6284   0.890   3.997   2.717  0.0000  0.0000  0.7863
 1572SOL     OW 6285   0.888   4.266   2.647  0.0000  0.0000  0.2201
 1572SOL    HW2 6286   0.892   4.174   2.672  0.0000  0.0000  0.2206
 1572SOL    HW3 6287   0.884   4.265   2.551  0.0000  0.0000  0.2200
 1572SOL    MW4 6288   0.888   4.254   2.638  0.0000  0.0000  0.2202
 1573SOL     OW 6289   1.144   4.351   2.725  0.0000  0.0000 -0.4691
 1573SOL    HW2 6290   1.137   4.378   2.816  0.0000  0.0000 -0.4697
 1573SOL    HW3 6291   1.055   4.327   2.700  0.0000  0.0000 -0.4694
 1573SOL    MW4 6292   1.131   4.351   2.733  0.0000  0.0000 -0.4692
 1574SOL     OW 6293   1.593   4.643   2.628  0.0000  0.0000 -0.4751
 1574SOL    HW2 6294   1.588   4.549   2.645  0.0000  0.0000 -0.4672
 1574SOL    HW3 6295   1.581   4.652   2.533  0.0000  0.0000 -0.4760
 1574SOL    MW4 6296   1.591   4.632   2.618  0.0000  0.0000 -0.4741
 1575SOL     OW 6297   1.351   0.086   2.688  0.0000  0.0000  0.1651
 1575SOL    HW2 6298   1.350   0.171   2.643  0.0000  0.0000  0.1705
 1575SOL    HW3 6299   1.436   0.049   2.665  0.0000  0.0000  0.1253
 1575SOL    MW4 6300   1.362   0.092   2.679  0.0000  0.0000  0.1605
 1576SOL     OW 6301   1.360   0.344   2.604  0.0000  0.0000  0.3215
 1576SOL    HW2 6302   1.437   0.386   2.642  0.0000  0.0000  0.3271
 1576SOL    HW3 6303   1.286   0.394   2.639  0.0000  0.0000  0.3080
 1576SOL    MW4 6304   1.360   0.356   2.614  0.0000  0.0000  0.3205
 1577SOL     OW 6305   1.584   0.511   2.669 -0.3653  0.0059  0.2555
 1577SOL    HW2 6306   1.658   0.485   2.615 -1.3753 -0.0613 -1.1234
 1577SOL    HW3 6307   1.587   0.606   2.671  0.4740 -0.0314  1.2408
 1577SOL    MW4 6308   1.594   0.520   2.662 -0.3878 -0.0079  0.2035
 1578SOL     OW 6309   1.614   0.777   2.634  0.0329 -0.3462 -0.1478
 1578SOL    HW2 6310   1.537   0.831   2.649  1.2450  1.1754  0.6864
 1578SOL    HW3 6311   1.608   0.752   2.542 -0.9005  0.6067 -0.3526
 1578SOL    MW4 6312   1.603   0.781   2.624  0.0697 -0.0197 -0.0648
 1579SOL     OW 6313   1.356   0.890   2.666 -0.3132  0.3033  0.0520
 1579SOL    HW2 6314   1.363   0.886   2.761 -2.3973  0.2804  0.2374
 1579SOL    HW3 6315   1.321   0.978   2.648 -0.8525 -0.0400 -0.6202
 1579SOL    MW4 6316   1.352   0.901   2.676 -0.6593  0.2550 -0.0123
 1580SOL     OW 6317   1.338   1.170   2.587 -0.2126  0.3900 -0.0759
 1580SOL    HW2 6318   1.410   1.229   2.611 -1.1170  1.5264 -0.1215
 1580SOL    HW3 6319   1.259   1.214   2.618 -0.8831 -0.9520  0.1718
 1580SOL    MW4 6320   1.337   1.183   2.594 -0.4204  0.3629 -0.0492
 1581SOL     OW 6321   1.577   1.306   2.655  0.1889 -0.3952 -0.0135
 1581SOL    HW2 6322   1.565   1.291   2.749 -0.8779 -1.1413 -0.2672
 1581SOL    HW3 6323   1.653   1.254   2.632  1.3564  0.9370  0.7213
 1581SOL    MW4 6324   1.586   1.297   2.665  0.2022 -0.3179  0.0500
 1582SOL     OW 6325   1.554   1.577   2.600 -0.1121 -0.0106  0.1262
 1582SOL    HW2 6326   1.556   1.487   2.633 -1.5027  0.0814  0.5002
 1582SOL    HW3 6327   1.538   1.567   2.506 -1.4210 -0.1404  0.3481
 1582SOL    MW4 6328   1.552   1.564   2.592 -0.4683 -0.0156  0.2048
 1583SOL     OW 6329   1.316   1.702   2.700 -0.0540  0.1566  0.0085
 1583SOL    HW2 6330   1.400   1.664   2.673  0.8890  1.8150  0.5383
 1583SOL    HW3 6331   1.250   1.645   2.660  1.3231 -0.8886 -0.8174
 1583SOL    MW4 6332   1.318   1.690   2.691  0.2521  0.2375 -0.0306
 1584SOL     OW 6333   1.356   1.958   2.620  0.3260 -0.3721 -0.1688
 1584SOL    HW2 6334   1.344   1.868   2.653  0.5858 -0.5034 -0.4332
 1584SOL    HW3 6335   1.350   1.950   2.525  1.9484 -0.3655 -0.2867
 1584SOL    MW4 6336   1.354   1.945   2.612  0.5743 -0.3885 -0.2192
 1585SOL     OW 6337   1.609   2.054   2.708 -0.8416  0.4995 -0.0430
 1585SOL    HW2 6338   1.688   2.013   2.672  0.5678  1.8107  1.4464
 1585SOL    HW3 6339   1.536   2.006   2.668  0.7099 -2.1407  0.1892
 1585SOL    MW4 6340   1.610   2.042   2.698 -0.4509  0.3242  0.1841
 1586SOL     OW 6341   1.586   2.369   2.620  0.0945  0.3771 -0.0292
 1586SOL    HW2 6342   1.655   2.413   2.670 -0.2470  1.1426 -0.2153
 1586SOL    HW3 6343   1.600   2.276   2.635  1.3346  0.5179 -0.2854
 1586SOL    MW4 6344   1.597   2.362   2.628  0.2131  0.4967 -0.0876
 1587SOL     OW 6345   1.320   2.451   2.679 -0.0032 -0.3002  0.1970
 1587SOL    HW2 6346   1.335   2.545   2.672  0.0541 -0.3980 -1.0031
 1587SOL    HW3 6347   1.404   2.412   2.654 -0.2681 -0.6902 -0.0709
 1587SOL    MW4 6348   1.333   2.458   2.675 -0.0306 -0.3645  0.0033
 1588SOL     OW 6349   1.340   2.712   2.626 -0.0881 -0.2302  0.1736
 1588SOL    HW2 6350   1.411   2.761   2.666 -0.6839  0.5533  0.2858
 1588SOL    HW3 6351   1.370   2.695   2.536  0.0600  0.4801  0.0855
 1588SOL    MW4 6352   1.353   2.716   2.619 -0.1472 -0.0331  0.1768
 1589SOL     OW 6353   1.550   2.849   2.722 -0.2993 -0.5883  0.0801
 1589SOL    HW2 6354   1.559   2.849   2.818  1.4071  0.8056 -0.0632
 1589SOL    HW3 6355   1.634   2.818   2.690  0.0017  1.3085 -1.0326
 1589SOL    MW4 6356   1.562   2.845   2.731 -0.0345 -0.1542 -0.0856
 1590SOL     OW 6357   1.547   3.096   2.619  0.2598  0.0443 -0.3375
 1590SOL    HW2 6358   1.628   3.144   2.638 -0.6372  1.1928  0.6089
 1590SOL    HW3 6359   1.554   3.017   2.673  0.6662  0.2343 -0.1059
 1590SOL    MW4 6360   1.559   3.092   2.629  0.1951  0.2209 -0.1821
 1591SOL     OW 6361   1.347   3.246   2.723  0.3493  0.1684 -0.2734
 1591SOL    HW2 6362   1.428   3.198   2.704  0.2059 -0.1000 -0.1972
 1591SOL    HW3 6363   1.278   3.194   2.683 -0.0834 -0.9642  1.8845
 1591SOL    MW4 6364   1.349   3.233   2.715  0.2733 -0.0165  0.0214
 1592SOL     OW 6365   1.332   3.512   2.606  0.0049  0.0568 -0.2769
 1592SOL    HW2 6366   1.345   3.419   2.626  0.4438 -0.0617 -1.1080
 1592SOL    HW3 6367   1.258   3.538   2.662  1.1927 -0.2687  1.4949
 1592SOL    MW4 6368   1.324   3.503   2.616  0.2195 -0.0018 -0.1528
 1593SOL     OW 6369   1.555   3.615   2.730  0.6318 -0.0091 -0.2501
 1593SOL    HW2 6370   1.628   3.553   2.718  0.0987 -0.8713  0.8863
 1593SOL    HW3 6371   1.482   3.574   2.684  0.2190 -0.3438  0.6902
 1593SOL    MW4 6372   1.555   3.601   2.722  0.5070 -0.1670  0.0239
 1594SOL     OW 6373   1.550   3.856   2.605  0.1773 -0.0166 -0.3569
 1594SOL    HW2 6374   1.475   3.902   2.643  1.7561  1.1724  1.4656
 1594SOL    HW3 6375   1.550   3.770   2.648 -0.6816 -0.3775 -1.0701
 1594SOL    MW4 6376   1.540   3.851   2.616  0.2723  0.0927 -0.2105
 1595SOL     OW 6377   1.330   3.978   2.720 -0.6365  0.3387  0.4798
 1595SOL    HW2 6378   1.317   3.993   2.814 -1.0994  0.8898  0.3296
 1595SOL    HW3 6379   1.340   4.065   2.683  0.2510  0.0821  0.1146
 1595SOL    MW4 6380   1.329   3.991   2.728 -0.5805  0.3775  0.4118
 1596SOL     OW 6381   1.353   4.224   2.596 -0.4844  0.1290 -0.4001
 1596SOL    HW2 6382   1.271   4.256   2.633 -1.4268 -1.7972 -0.7250
 1596SOL    HW3 6383   1.342   4.231   2.502 -0.9410 -1.6421 -0.4951
 1596SOL    MW4 6384   1.341   4.229   2.589 -0.6690 -0.3588 -0.4555
 1597SOL     OW 6385   1.541   4.390   2.693 -0.0962  0.3857  0.4977
 1597SOL    HW2 6386   1.546   4.388   2.789  0.4886 -0.8846  0.4471
 1597SOL    HW3 6387   1.459   4.345   2.672  0.7154 -1.0254  0.3301
 1597SOL    MW4 6388   1.531   4.384   2.703  0.0880  0.0319  0.4689
 1598SOL     OW 6389   2.006   4.650   2.568 -0.8077  0.0548 -0.3297
 1598SOL    HW2 6390   2.094   4.685   2.579 -0.1576 -1.6851  0.0568
 1598SOL    HW3 6391   1.990   4.656   2.474  0.0124 -0.2848 -0.4961
 1598SOL    MW4 6392   2.016   4.655   2.557 -0.6137 -0.2196 -0.3006
 1599SOL     OW 6393   1.807   0.116   2.696  0.3116  0.3401  0.4782
 1599SOL    HW2 6394   1.880   0.065   2.659  0.4865  0.8509  0.1207
 1599SOL    HW3 6395   1.729   0.068   2.668  0.4673  0.3758 -0.0366
 1599SOL    MW4 6396   1.806   0.103   2.687  0.3552  0.4122  0.3631
 1600SOL     OW 6397   1.803   0.346   2.560 -0.4992  0.6890 -0.1971
 1600SOL    HW2 6398   1.874   0.397   2.598 -1.0202  0.8064  0.6239
 1600SOL    HW3 6399   1.801   0.265   2.611 -0.6699  0.4945 -0.5071
 1600SOL    MW4 6400   1.812   0.342   2.572 -0.5905  0.6788 -0.1297
 1601SOL     OW 6401   2.019   0.491   2.668 -0.3023  0.0766 -0.1839
 1601SOL    HW2 6402   2.098   0.457   2.626 -0.4902  0.4123 -0.8243
 1601SOL    HW3 6403   2.020   0.585   2.648 -0.9590  0.0481 -0.3677
 1601SOL    MW4 6404   2.029   0.499   2.659 -0.4137  0.1172 -0.2926
 1602SOL     OW 6405   2.049   0.774   2.618 -0.0352 -0.4036  0.3314
 1602SOL    HW2 6406   1.972   0.828   2.640 -1.1022 -1.6025 -0.4204
 1602SOL    HW3 6407   2.050   0.772   2.522 -0.1754 -1.9573  0.3600
 1602SOL    MW4 6408   2.039   0.781   2.608 -0.1945 -0.7667  0.2360
 1603SOL     OW 6409   1.833   0.909   2.719  0.6109  0.4179 -0.0469
 1603SOL    HW2 6410   1.815   0.992   2.674  1.5853  0.0489 -1.1529
 1603SOL    HW3 6411   1.764   0.850   2.689 -0.0185  0.7897  0.6555
 1603SOL    MW4 6412   1.822   0.912   2.709  0.6564  0.4183 -0.1002
 1604SOL     OW 6413   1.804   1.154   2.582  0.0045  0.1266 -0.1302
 1604SOL    HW2 6414   1.891   1.183   2.611  0.0565 -0.0804 -0.0715
 1604SOL    HW3 6415   1.806   1.161   2.487 -0.8046  2.5717  0.0062
 1604SOL    MW4 6416   1.816   1.158   2.573 -0.0954  0.4219 -0.1044
 1605SOL     OW 6417   2.045   1.261   2.681  0.5223 -0.7027  0.2330
 1605SOL    HW2 6418   2.055   1.258   2.776 -0.1047  0.3087  0.3431
 1605SOL    HW3 6419   2.129   1.231   2.647  1.4121  0.6983  1.1222
 1605SOL    MW4 6420   2.058   1.257   2.689  0.5570 -0.3844  0.3648
 1606SOL     OW 6421   2.055   1.520   2.585 -0.2035  0.3614  0.2679
 1606SOL    HW2 6422   1.977   1.561   2.623 -0.2651 -1.6291  2.3936
 1606SOL    HW3 6423   2.056   1.431   2.622  2.8874  0.2327  0.0129
 1606SOL    MW4 6424   2.045   1.513   2.595  0.1962  0.0818  0.5148
 1607SOL     OW 6425   1.824   1.636   2.673 -0.1212 -0.2170 -0.2610
 1607SOL    HW2 6426   1.818   1.649   2.768  0.5139 -0.8445 -0.1268
 1607SOL    HW3 6427   1.735   1.615   2.647 -0.1622 -0.8206  0.3281
 1607SOL    MW4 6428   1.812   1.635   2.682 -0.0428 -0.3794 -0.1656
 1608SOL     OW 6429   1.828   1.917   2.592  0.1712 -0.4190 -0.1858
 1608SOL    HW2 6430   1.906   1.951   2.637  0.2423  0.7246 -1.1448
 1608SOL    HW3 6431   1.835   1.822   2.602  0.8760 -0.2572  1.0624
 1608SOL    MW4 6432   1.839   1.909   2.599  0.2735 -0.2468 -0.1476
 1609SOL     OW 6433   2.039   2.044   2.709 -0.4412  0.0093 -0.2121
 1609SOL    HW2 6434   2.029   2.063   2.802 -0.5551 -0.5092 -0.1161
 1609SOL    HW3 6435   2.022   2.127   2.665 -2.6202 -0.2279  0.0960
 1609SOL    MW4 6436   2.035   2.057   2.715 -0.7437 -0.0904 -0.1588
 1610SOL     OW 6437   2.020   2.333   2.625  0.2716  0.3613 -0.9151
 1610SOL    HW2 6438   2.109   2.359   2.649  0.3662 -0.6240 -0.1916
 1610SOL    HW3 6439   2.014   2.353   2.531  0.6020  2.2277 -0.5647
 1610SOL    MW4 6440   2.031   2.339   2.616  0.3277  0.4775 -0.7734
 1611SOL     OW 6441   1.807   2.490   2.742  0.6319 -0.2043 -0.2187
 1611SOL    HW2 6442   1.821   2.493   2.837  1.3470  0.8267 -0.3494
 1611SOL    HW3 6443   1.875   2.430   2.710 -0.0201 -1.0565 -0.0061
 1611SOL    MW4 6444   1.818   2.482   2.750  0.6402 -0.1807 -0.2079
 1612SOL     OW 6445   1.767   2.732   2.616  0.1092 -0.1878 -0.1244
 1612SOL    HW2 6446   1.765   2.647   2.659  2.2015  0.2574  0.9313
 1612SOL    HW3 6447   1.789   2.713   2.525  2.2378 -0.6754  0.4752
 1612SOL    MW4 6448   1.770   2.718   2.610  0.6661 -0.1934  0.0940
 1613SOL     OW 6449   2.000   2.825   2.732 -0.5559  0.0928  0.2440
 1613SOL    HW2 6450   2.064   2.782   2.675 -0.5936 -1.9030  1.6402
 1613SOL    HW3 6451   1.915   2.793   2.700 -0.7421  1.0160 -0.2085
 1613SOL    MW4 6452   1.997   2.815   2.720 -0.5855 -0.0487  0.3685
 1614SOL     OW 6453   2.029   3.082   2.631 -0.0095 -0.5092 -0.6464
 1614SOL    HW2 6454   2.005   2.993   2.657  0.4812 -0.9517 -1.6515
 1614SOL    HW3 6455   2.022   3.081   2.535  0.0324  0.5220 -0.6618
 1614SOL    MW4 6456   2.025   3.070   2.622  0.0608 -0.4315 -0.7810
 1615SOL     OW 6457   1.792   3.202   2.713  0.1572 -0.2735 -0.5149
 1615SOL    HW2 6458   1.806   3.294   2.690 -0.1558 -0.1546 -0.2194
 1615SOL    HW3 6459   1.878   3.161   2.698  0.7950  0.4323  1.1066
 1615SOL    MW4 6460   1.805   3.209   2.708  0.2000 -0.1647 -0.2620
 1616SOL     OW 6461   1.802   3.466   2.643  0.2684  1.0107  0.2138
 1616SOL    HW2 6462   1.879   3.514   2.673  1.3625  0.5307 -1.7239
 1616SOL    HW3 6463   1.805   3.474   2.548 -1.4452  0.0186  0.0630
 1616SOL    MW4 6464   1.813   3.473   2.634  0.1866  0.8164 -0.0617
 1617SOL     OW 6465   2.011   3.626   2.701 -0.3019 -0.0863 -0.4382
 1617SOL    HW2 6466   2.027   3.620   2.795 -2.4695  2.5693  0.1359
 1617SOL    HW3 6467   2.089   3.586   2.661  1.5008  0.4351  2.4239
 1617SOL    MW4 6468   2.023   3.620   2.708 -0.3500  0.3329  0.0151
 1618SOL     OW 6469   1.990   3.882   2.609 -0.0749 -0.1533 -0.4392
 1618SOL    HW2 6470   1.921   3.924   2.660  0.1438 -0.5383  0.1802
 1618SOL    HW3 6471   1.988   3.791   2.637  0.5355 -0.2105 -0.5846
 1618SOL    MW4 6472   1.981   3.876   2.620  0.0345 -0.2117 -0.3767
 1619SOL     OW 6473   1.771   3.996   2.719 -0.3356 -0.3619  0.1670
 1619SOL    HW2 6474   1.777   4.078   2.670  1.5126 -1.4363 -1.4857
 1619SOL    HW3 6475   1.698   3.949   2.680 -0.0188 -0.4263 -0.3536
 1619SOL    MW4 6476   1.762   4.000   2.707 -0.0500 -0.5121 -0.1197
 1620SOL     OW 6477   1.773   4.250   2.598 -0.1755  0.3020 -0.0126
 1620SOL    HW2 6478   1.690   4.280   2.637 -0.7311 -2.1995  0.7941
 1620SOL    HW3 6479   1.760   4.258   2.504  0.1978  3.8527  0.1592
 1620SOL    MW4 6480   1.760   4.255   2.591 -0.1995  0.4404  0.1165
 1621SOL     OW 6481   1.998   4.398   2.672 -0.1259 -0.5560 -0.0584
 1621SOL    HW2 6482   1.922   4.361   2.627  0.2830 -0.8668 -0.4918
 1621SOL    HW3 6483   2.003   4.488   2.639 -0.0836 -0.6502 -0.3135
 1621SOL    MW4 6484   1.989   4.405   2.661 -0.0664 -0.6095 -0.1492
 1622SOL     OW 6485   2.469   4.617   2.594  0.0275 -0.1148 -0.1950
 1622SOL    HW2 6486   2.550   4.661   2.620 -1.6353  2.1455  1.3390
 1622SOL    HW3 6487   2.457   4.640   2.502 -0.3689  2.0078  0.3570
 1622SOL    MW4 6488   2.478   4.625   2.586 -0.2442  0.4634  0.0802
 1623SOL     OW 6489   2.236   0.106   2.648  0.3584  0.4694  0.0665
 1623SOL    HW2 6490   2.225   0.113   2.743 -2.9194 -1.2723 -0.1007
 1623SOL    HW3 6491   2.310   0.047   2.637 -0.0048 -0.3099  1.5801
 1623SOL    MW4 6492   2.244   0.099   2.659 -0.1220  0.1368  0.2441
 1624SOL     OW 6493   2.257   0.369   2.578 -0.0441  0.4990  0.3117
 1624SOL    HW2 6494   2.247   0.278   2.607 -1.9704  0.4236 -0.5319
 1624SOL    HW3 6495   2.275   0.363   2.484 -1.8821  1.0442 -0.0850
 1624SOL    MW4 6496   2.258   0.357   2.570 -0.5408  0.5610  0.1481
 1625SOL     OW 6497   2.506   0.480   2.706 -0.2673 -0.2764  0.2088
 1625SOL    HW2 6498   2.518   0.575   2.696 -1.6304  0.0212  1.2075
 1625SOL    HW3 6499   2.418   0.464   2.672 -0.1954 -1.1274  0.4265
 1625SOL    MW4 6500   2.496   0.490   2.700 -0.4376 -0.3494  0.3693
 1626SOL     OW 6501   2.526   0.748   2.607 -0.4787 -0.2492  0.3699
 1626SOL    HW2 6502   2.452   0.803   2.632 -1.1312 -1.3509  0.9024
 1626SOL    HW3 6503   2.518   0.738   2.512 -0.3941  0.5196  0.2818
 1626SOL    MW4 6504   2.515   0.754   2.598 -0.5537 -0.2931  0.4285
 1627SOL     OW 6505   2.298   0.859   2.703 -0.2056  0.3599  0.4794
 1627SOL    HW2 6506   2.289   0.869   2.798 -0.1611 -1.0153  0.6462
 1627SOL    HW3 6507   2.213   0.826   2.675 -0.2481  0.8626  0.0311
 1627SOL    MW4 6508   2.286   0.856   2.712 -0.2053  0.2448  0.4423
 1628SOL     OW 6509   2.280   1.114   2.607  0.2636 -0.9572  0.2370
 1628SOL    HW2 6510   2.299   1.021   2.618  0.7539 -1.1090 -1.5935
 1628SOL    HW3 6511   2.275   1.125   2.512 -2.0582  0.4399  0.4776
 1628SOL    MW4 6512   2.282   1.103   2.596  0.0220 -0.7929  0.0272
 1629SOL     OW 6513   2.496   1.262   2.705 -0.2799 -0.1404 -0.1935
 1629SOL    HW2 6514   2.572   1.221   2.664  0.7389  1.4235  0.0814
 1629SOL    HW3 6515   2.422   1.207   2.678  0.5725 -0.1480 -2.7190
 1629SOL    MW4 6516   2.496   1.249   2.696 -0.0330  0.0649 -0.4905
 1630SOL     OW 6517   2.474   1.511   2.597  0.2210  0.0114  0.0496
 1630SOL    HW2 6518   2.395   1.549   2.636 -1.0684 -0.8696 -1.6311
 1630SOL    HW3 6519   2.475   1.420   2.627  0.9215  0.1909  0.5611
 1630SOL    MW4 6520   2.464   1.504   2.606  0.1433 -0.0812 -0.1046
 1631SOL     OW 6521   2.271   1.643   2.713  0.1204  0.0059 -0.3773
 1631SOL    HW2 6522   2.268   1.733   2.681 -1.6538  0.4456  0.9048
 1631SOL    HW3 6523   2.199   1.598   2.667  0.8032 -0.6741 -0.7871
 1631SOL    MW4 6524   2.261   1.649   2.703 -0.0236 -0.0258 -0.2622
 1632SOL     OW 6525   2.275   1.914   2.618 -0.1771 -0.0398  0.0681
 1632SOL    HW2 6526   2.207   1.968   2.658  0.0920  0.6319 -0.3627
 1632SOL    HW3 6527   2.256   1.918   2.524 -0.3954 -1.0301  0.0721
 1632SOL    MW4 6528   2.263   1.922   2.611 -0.1704 -0.0819  0.0118
 1633SOL     OW 6529   2.473   2.073   2.739 -0.4108  0.2236 -0.2023
 1633SOL    HW2 6530   2.466   2.158   2.694 -0.8555 -0.1715 -0.8875
 1633SOL    HW3 6531   2.404   2.020   2.700 -1.9662  0.4215  2.2088
 1633SOL    MW4 6532   2.463   2.078   2.728 -0.6747  0.1976  0.0254
 1634SOL     OW 6533   2.501   2.338   2.621 -0.3279 -0.3379  0.0584
 1634SOL    HW2 6534   2.592   2.361   2.636 -0.2226 -0.5921 -0.1849
 1634SOL    HW3 6535   2.494   2.329   2.525 -0.4903 -0.8083  0.1136
 1634SOL    MW4 6536   2.512   2.340   2.610 -0.3354 -0.4335  0.0336
 1635SOL     OW 6537   2.265   2.469   2.720 -0.0570 -0.3561 -0.2353
 1635SOL    HW2 6538   2.265   2.458   2.815 -1.2272  0.5679 -0.1195
 1635SOL    HW3 6539   2.349   2.433   2.692  0.1275 -1.0041  1.1019
 1635SOL    MW4 6540   2.276   2.463   2.729 -0.1870 -0.3197 -0.0436
 1636SOL     OW 6541   2.191   2.697   2.587  0.1649  0.1506 -0.0498
 1636SOL    HW2 6542   2.262   2.745   2.628 -1.5354  1.3500  1.5899
 1636SOL    HW3 6543   2.194   2.610   2.627  0.4993  0.2966  0.2372
 1636SOL    MW4 6544   2.200   2.692   2.597 -0.0153  0.3281  0.2044
 1637SOL     OW 6545   2.462   2.817   2.700  0.2327 -0.1897  0.0179
 1637SOL    HW2 6546   2.542   2.767   2.685  0.8815  0.4092  1.3395
 1637SOL    HW3 6547   2.475   2.898   2.651 -0.0267 -0.5369 -0.6301
 1637SOL    MW4 6548   2.474   2.821   2.692  0.2841 -0.1565  0.1067
 1638SOL     OW 6549   2.444   3.059   2.595  0.4209 -0.1046  0.4872
 1638SOL    HW2 6550   2.400   3.128   2.643  0.4470 -0.4964  1.0800
 1638SOL    HW3 6551   2.449   3.091   2.505 -1.9824 -0.4785  0.1790
 1638SOL    MW4 6552   2.439   3.072   2.590  0.1072 -0.2056  0.5248
 1639SOL     OW 6553   2.253   3.257   2.685  0.6521 -0.2535 -0.2003
 1639SOL    HW2 6554   2.259   3.283   2.776  1.1882 -0.8131 -0.0702
 1639SOL    HW3 6555   2.178   3.198   2.682 -0.3145  0.9633 -0.4203
 1639SOL    MW4 6556   2.244   3.253   2.696  0.5953 -0.1668 -0.2122
 1640SOL     OW 6557   2.251   3.520   2.583  0.5618  0.4820 -0.2824
 1640SOL    HW2 6558   2.312   3.567   2.640 -0.7892  0.6180  1.0812
 1640SOL    HW3 6559   2.260   3.428   2.610  0.9783  0.3557 -0.8510
 1640SOL    MW4 6560   2.260   3.514   2.594  0.4385  0.4833 -0.1775
 1641SOL     OW 6561   2.442   3.610   2.755 -0.1235 -0.2210  0.0378
 1641SOL    HW2 6562   2.440   3.603   2.851  2.5289  0.5563  0.2053
 1641SOL    HW3 6563   2.434   3.704   2.738  0.5284 -0.2416 -0.4169
 1641SOL    MW4 6564   2.441   3.621   2.766  0.3125 -0.1212 -0.0001
 1642SOL     OW 6565   2.401   3.865   2.622  0.3015  0.3438 -0.2463
 1642SOL    HW2 6566   2.484   3.905   2.647 -0.0937  0.6477  0.5652
 1642SOL    HW3 6567   2.334   3.922   2.659 -0.2805  0.3119 -1.2329
 1642SOL    MW4 6568   2.403   3.878   2.630  0.1726  0.3797 -0.2694
 1643SOL     OW 6569   2.201   4.015   2.714  0.3253 -0.3111  0.2541
 1643SOL    HW2 6570   2.208   3.998   2.808  0.6820 -1.7482 -0.0236
 1643SOL    HW3 6571   2.123   3.967   2.686 -0.3360  0.9045 -0.0132
 1643SOL    MW4 6572   2.192   4.006   2.723  0.2851 -0.3403  0.1822
 1644SOL     OW 6573   2.205   4.253   2.563 -0.5562  0.3860 -0.3377
 1644SOL    HW2 6574   2.206   4.167   2.606 -0.0942  0.3531 -0.4127
 1644SOL    HW3 6575   2.137   4.302   2.609 -1.0526 -0.1303 -0.5095
 1644SOL    MW4 6576   2.196   4.248   2.575 -0.5607  0.3135 -0.3702
 1645SOL     OW 6577   2.458   4.342   2.670 -0.2080 -0.4106 -0.0379
 1645SOL    HW2 6578   2.378   4.309   2.628 -0.6796  1.2561 -0.4778
 1645SOL    HW3 6579   2.464   4.433   2.641  0.2758  0.3412  2.3284
 1645SOL    MW4 6580   2.448   4.349   2.660 -0.2064 -0.0915  0.2163
 1646SOL     OW 6581   2.959   4.611   2.589  0.3314  0.2399 -0.1577
 1646SOL    HW2 6582   3.021   4.677   2.621  0.6428 -0.3420  0.4490
 1646SOL    HW3 6583   2.945   4.634   2.497 -0.0759  1.5448  0.2313
 1646SOL    MW4 6584   2.965   4.623   2.581  0.3187  0.3353 -0.0263
 1647SOL     OW 6585   2.707   0.061   2.699 -0.1906 -0.3984  0.2261
 1647SOL    HW2 6586   2.720   0.071   2.793 -0.5608 -1.4289  0.3979
 1647SOL    HW3 6587   2.790   0.023   2.668 -0.3348 -0.7377  0.2543
 1647SOL    MW4 6588   2.720   0.057   2.707 -0.2585 -0.5791  0.2525
 1648SOL     OW 6589   2.719   0.311   2.569  0.0033 -0.2417 -0.2401
 1648SOL    HW2 6590   2.717   0.228   2.617 -0.4306 -0.0259  0.1251
 1648SOL    HW3 6591   2.657   0.367   2.617 -0.6380 -0.1150 -1.2048
 1648SOL    MW4 6592   2.710   0.307   2.582 -0.1385 -0.1965 -0.3192
 1649SOL     OW 6593   2.933   0.442   2.702 -0.4092  0.1335  0.0172
 1649SOL    HW2 6594   2.937   0.532   2.671 -0.2831  0.8234  1.9607
 1649SOL    HW3 6595   2.870   0.399   2.645  0.7861  0.9957 -2.0139
 1649SOL    MW4 6596   2.925   0.448   2.690 -0.2348  0.3383  0.0057
 1650SOL     OW 6597   2.971   0.696   2.607 -0.1629  0.0288 -0.0824
 1650SOL    HW2 6598   3.044   0.754   2.626  0.5441 -0.7719 -0.3315
 1650SOL    HW3 6599   2.894   0.743   2.638  0.5191  0.6287  0.7011
 1650SOL    MW4 6600   2.970   0.710   2.613  0.0204  0.0023 -0.0119
 1651SOL     OW 6601   2.754   0.859   2.712 -0.1209  0.0545 -0.4640
 1651SOL    HW2 6602   2.733   0.885   2.801  0.2735 -0.0020 -0.3506
 1651SOL    HW3 6603   2.672   0.827   2.675 -0.2595 -0.0200 -0.0858
 1651SOL    MW4 6604   2.741   0.858   2.719 -0.0872  0.0372 -0.3991
 1652SOL     OW 6605   2.707   1.111   2.580 -0.0135  0.1916 -0.3893
 1652SOL    HW2 6606   2.766   1.170   2.627 -1.3732  0.4552  1.0505
 1652SOL    HW3 6607   2.728   1.024   2.616  0.5298  0.0860 -0.9653
 1652SOL    MW4 6608   2.718   1.107   2.591 -0.1212  0.2124 -0.2754
 1653SOL     OW 6609   2.923   1.296   2.650  0.0290 -0.4666  0.0972
 1653SOL    HW2 6610   2.940   1.310   2.743  2.6308  0.9213 -0.5447
 1653SOL    HW3 6611   2.990   1.233   2.623 -0.5013 -0.6124 -0.9058
 1653SOL    MW4 6612   2.934   1.289   2.658  0.3023 -0.3027 -0.1198
 1654SOL     OW 6613   2.920   1.564   2.597 -0.2827  0.4499 -0.8510
 1654SOL    HW2 6614   2.829   1.588   2.615 -0.3055 -0.6672  0.6267
 1654SOL    HW3 6615   2.927   1.473   2.626  1.2451  0.4393 -1.2034
 1654SOL    MW4 6616   2.909   1.555   2.603 -0.0842  0.3011 -0.7025
 1655SOL     OW 6617   2.685   1.683   2.700 -0.2297  0.3379  0.1827
 1655SOL    HW2 6618   2.687   1.678   2.796  1.7496 -1.1358  0.0848
 1655SOL    HW3 6619   2.599   1.647   2.677 -0.8782  1.0471  1.4060
 1655SOL    MW4 6620   2.674   1.678   2.710 -0.0541  0.2371  0.3312
 1656SOL     OW 6621   2.706   1.961   2.650 -0.2875 -0.0643 -0.1975
 1656SOL    HW2 6622   2.701   1.868   2.670 -1.3021  0.0991  0.3305
 1656SOL    HW3 6623   2.621   1.996   2.676  0.2874  1.1130  0.1311
 1656SOL    MW4 6624   2.694   1.953   2.656 -0.3455  0.1126 -0.0845
 1657SOL     OW 6625   2.916   2.091   2.801  0.1043 -0.0056 -0.0574
 1657SOL    HW2 6626   2.924   2.171   2.749  0.2395 -0.0473 -0.1017
 1657SOL    HW3 6627   2.832   2.053   2.775  0.7280 -0.6609 -1.1368
 1657SOL    MW4 6628   2.906   2.097   2.791  0.2044 -0.0975 -0.2057
 1658SOL     OW 6629   2.962   2.309   2.646 -0.3243  0.3338  0.0113
 1658SOL    HW2 6630   3.030   2.366   2.681 -0.6735  0.8306 -0.1206
 1658SOL    HW3 6631   2.880   2.356   2.660 -0.6271 -0.1777  0.0012
 1658SOL    MW4 6632   2.960   2.322   2.652 -0.4103  0.3319 -0.0074
 1659SOL     OW 6633   2.734   2.446   2.698 -0.4642 -0.1772  0.2738
 1659SOL    HW2 6634   2.743   2.452   2.793 -0.3894 -0.7057  0.3035
 1659SOL    HW3 6635   2.702   2.532   2.671  1.4284  0.6540  0.5521
 1659SOL    MW4 6636   2.731   2.458   2.707 -0.2046 -0.1373  0.3144
 1660SOL     OW 6637   2.693   2.695   2.618 -0.6171  0.4472  0.0449
 1660SOL    HW2 6638   2.762   2.750   2.655  2.3212 -2.0378 -1.5028
 1660SOL    HW3 6639   2.697   2.711   2.524 -2.3625  0.4733 -0.0396
 1660SOL    MW4 6640   2.703   2.704   2.611 -0.4597  0.1228 -0.1704
 1661SOL     OW 6641   2.898   2.854   2.696  0.1412  0.4732 -0.0697
 1661SOL    HW2 6642   2.908   2.859   2.791  0.7318  0.9387 -0.1611
 1661SOL    HW3 6643   2.908   2.944   2.665  0.0363  0.3119 -0.5856
 1661SOL    MW4 6644   2.900   2.867   2.704  0.2053  0.5133 -0.1498
 1662SOL     OW 6645   2.913   3.112   2.624 -0.0362 -0.4598  0.1309
 1662SOL    HW2 6646   2.840   3.164   2.659 -0.0389 -1.0255  0.9893
 1662SOL    HW3 6647   2.911   3.129   2.530 -1.3922 -0.6099  0.1107
 1662SOL    MW4 6648   2.903   3.121   2.616 -0.2155 -0.5542  0.2415
 1663SOL     OW 6649   2.662   3.212   2.707  0.3487 -0.1361  0.3248
 1663SOL    HW2 6650   2.654   3.296   2.662  0.1020  0.2217  1.0234
 1663SOL    HW3 6651   2.617   3.150   2.650 -0.0118  0.3238  0.1044
 1663SOL    MW4 6652   2.655   3.215   2.693  0.2686 -0.0282  0.3879
 1664SOL     OW 6653   2.672   3.466   2.615 -0.1405  0.2752 -0.3640
 1664SOL    HW2 6654   2.593   3.514   2.640 -0.0460  0.3853 -0.2746
 1664SOL    HW3 6655   2.682   3.482   2.521 -0.8884 -0.7128 -0.6159
 1664SOL    MW4 6656   2.663   3.475   2.606 -0.2267  0.1594 -0.3854
 1665SOL     OW 6657   2.902   3.580   2.734 -0.0163 -0.3929  0.1175
 1665SOL    HW2 6658   2.901   3.598   2.828 -0.6031  0.0524  0.0235
 1665SOL    HW3 6659   2.822   3.530   2.717  0.2573 -0.7711 -0.0929
 1665SOL    MW4 6660   2.892   3.575   2.744 -0.0576 -0.3840  0.0773
 1666SOL     OW 6661   2.873   3.854   2.647  0.2338 -0.1445 -0.1464
 1666SOL    HW2 6662   2.955   3.898   2.668 -0.5681  0.4954  1.7057
 1666SOL    HW3 6663   2.887   3.763   2.673  0.4203 -0.0822 -0.0311
 1666SOL    MW4 6664   2.886   3.848   2.653  0.1526 -0.0519  0.1132
 1667SOL     OW 6665   2.642   3.984   2.703 -0.0337 -0.4103 -0.1675
 1667SOL    HW2 6666   2.654   4.062   2.649  2.5565 -0.0890  0.7942
 1667SOL    HW3 6667   2.718   3.930   2.683 -0.2429 -1.3191  1.4720
 1667SOL    MW4 6668   2.653   3.987   2.693  0.2804 -0.4878  0.1757
 1668SOL     OW 6669   2.687   4.234   2.568 -0.4494  0.0096  0.2328
 1668SOL    HW2 6670   2.760   4.281   2.610 -1.9055  2.1533  0.4521
 1668SOL    HW3 6671   2.609   4.268   2.611 -1.6751 -1.3309 -0.8802
 1668SOL    MW4 6672   2.687   4.245   2.579 -0.8033  0.1155  0.1149
 1669SOL     OW 6673   2.897   4.362   2.707  0.6882  0.6598 -0.4143
 1669SOL    HW2 6674   2.918   4.370   2.800 -0.3530  0.0452 -0.1185
 1669SOL    HW3 6675   2.929   4.443   2.668  2.5709  0.2290  0.1987
 1669SOL    MW4 6676   2.904   4.374   2.714  0.7992  0.5218 -0.2944
 1670SOL     OW 6677   3.414   4.597   2.607  0.0158 -0.1061 -0.4023
 1670SOL    HW2 6678   3.422   4.516   2.656  1.5395 -0.4610 -1.2152
 1670SOL    HW3 6679   3.344   4.645   2.651 -0.8348 -1.8087  0.1350
 1670SOL    MW4 6680   3.406   4.593   2.619  0.1046 -0.3776 -0.4387
 1671SOL     OW 6681   3.199   0.055   2.728 -0.5412  0.6291  0.0351
 1671SOL    HW2 6682   3.158   0.053   2.815  0.2100  1.0070  0.4076
 1671SOL    HW3 6683   3.190   0.145   2.699 -3.3355 -0.1163 -1.5419
 1671SOL    MW4 6684   3.193   0.066   2.736 -0.8108  0.5806 -0.1238
 1672SOL     OW 6685   3.167   0.324   2.620 -0.1856 -0.7260  0.0254
 1672SOL    HW2 6686   3.086   0.369   2.645 -0.0104 -0.4637  0.1221
 1672SOL    HW3 6687   3.172   0.334   2.525  1.3998  2.0817  0.3529
 1672SOL    MW4 6688   3.157   0.331   2.611  0.0467 -0.3209  0.0814
 1673SOL     OW 6689   3.359   0.472   2.727 -0.0609  0.0403  0.4075
 1673SOL    HW2 6690   3.360   0.551   2.674  0.1355 -0.5926 -0.5370
 1673SOL    HW3 6691   3.287   0.419   2.692 -2.5564  1.3406  3.3471
 1673SOL    MW4 6692   3.350   0.475   2.715 -0.3642  0.1283  0.6707
 1674SOL     OW 6693   3.375   0.713   2.580 -0.2799 -0.2804 -0.1237
 1674SOL    HW2 6694   3.455   0.764   2.595 -0.3541 -0.2529  0.1775
 1674SOL    HW3 6695   3.364   0.713   2.485 -0.5278  0.6454 -0.0965
 1674SOL    MW4 6696   3.384   0.720   2.570 -0.3224 -0.1546 -0.0804
 1675SOL     OW 6697   3.161   0.861   2.676 -0.2040 -0.4598 -0.4165
 1675SOL    HW2 6698   3.168   0.871   2.771 -0.7885 -0.6161 -0.3526
 1675SOL    HW3 6699   3.245   0.825   2.649  0.9690  2.0784 -0.2983
 1675SOL    MW4 6700   3.173   0.858   2.685 -0.1263 -0.1455 -0.3925
 1676SOL     OW 6701   3.158   1.125   2.586  0.5891  0.4671  0.3362
 1676SOL    HW2 6702   3.150   1.031   2.606 -0.1370  0.7110  1.2191
 1676SOL    HW3 6703   3.165   1.128   2.491 -0.4372 -0.4194  0.2162
 1676SOL    MW4 6704   3.158   1.113   2.576  0.3579  0.3823  0.4368
 1677SOL     OW 6705   3.361   1.303   2.713  0.4663 -0.4891 -0.3481
 1677SOL    HW2 6706   3.359   1.284   2.807 -1.9598  2.0294  0.1756
 1677SOL    HW3 6707   3.289   1.251   2.677  1.2474 -1.2728 -0.7728
 1677SOL    MW4 6708   3.351   1.294   2.721  0.2493 -0.2602 -0.3350
 1678SOL     OW 6709   3.350   1.565   2.594 -0.1554  0.2833 -0.2247
 1678SOL    HW2 6710   3.267   1.596   2.631 -0.4175  0.7210 -1.1379
 1678SOL    HW3 6711   3.368   1.484   2.640 -1.8991 -0.6283 -1.0709
 1678SOL    MW4 6712   3.341   1.558   2.605 -0.4201  0.2208 -0.4568
 1679SOL     OW 6713   3.128   1.665   2.743 -0.2584 -0.1383 -0.1935
 1679SOL    HW2 6714   3.121   1.748   2.695 -0.3167 -0.3545 -0.5632
 1679SOL    HW3 6715   3.052   1.615   2.714  0.1174 -0.5654 -0.4461
 1679SOL    MW4 6716   3.117   1.670   2.732 -0.2165 -0.2232 -0.2756
 1680SOL     OW 6717   3.122   1.939   2.643  0.0742 -0.8212  0.3914
 1680SOL    HW2 6718   3.193   1.982   2.692  0.0539  0.6865 -0.8414
 1680SOL    HW3 6719   3.044   1.988   2.667 -0.0005 -0.3455 -0.7999
 1680SOL    MW4 6720   3.121   1.951   2.652  0.0617 -0.5595  0.0715
 1681SOL     OW 6721   3.347   2.040   2.760  0.3158 -0.1769 -0.2215
 1681SOL    HW2 6722   3.356   2.048   2.855  1.4795 -0.3631 -0.3083
 1681SOL    HW3 6723   3.354   2.130   2.727 -0.2404 -0.0955 -0.1252
 1681SOL    MW4 6724   3.349   2.053   2.768  0.3959 -0.1907 -0.2202
 1682SOL     OW 6725   3.375   2.305   2.625 -0.5778  0.2764 -0.5280
 1682SOL    HW2 6726   3.451   2.360   2.644 -0.6861  0.1522  0.3027
 1682SOL    HW3 6727   3.364   2.310   2.530  0.1069  0.7697 -0.5825
 1682SOL    MW4 6728   3.383   2.313   2.615 -0.5017  0.3251 -0.4256
 1683SOL     OW 6729   3.176   2.444   2.741 -0.0127 -0.3313  0.7017
 1683SOL    HW2 6730   3.166   2.525   2.692  1.7586  0.7007  1.9951
 1683SOL    HW3 6731   3.247   2.398   2.697 -1.2141 -1.3452 -0.2133
 1683SOL    MW4 6732   3.184   2.448   2.729  0.0625 -0.3289  0.7516
 1684SOL     OW 6733   3.131   2.673   2.618  0.7035  0.2432  0.1985
 1684SOL    HW2 6734   3.201   2.723   2.659  0.7406 -0.1762  0.6568
 1684SOL    HW3 6735   3.051   2.715   2.648  0.7718  1.4989 -1.3249
 1684SOL    MW4 6736   3.130   2.685   2.628  0.7174  0.3535  0.0580
 1685SOL     OW 6737   3.327   2.844   2.744  0.0796 -0.2132  0.0627
 1685SOL    HW2 6738   3.352   2.838   2.837 -1.9424 -1.6721  0.5595
 1685SOL    HW3 6739   3.406   2.818   2.697  0.2889 -2.4000  1.5068
 1685SOL    MW4 6740   3.341   2.840   2.750 -0.1595 -0.6942  0.3188
 1686SOL     OW 6741   3.363   3.097   2.657 -0.2864  0.2654  0.2396
 1686SOL    HW2 6742   3.353   3.007   2.687  1.2988 -0.4436 -1.2742
 1686SOL    HW3 6743   3.360   3.091   2.561 -0.0537  1.8023  0.1206
 1686SOL    MW4 6744   3.362   3.084   2.648 -0.0465  0.3747  0.0242
 1687SOL     OW 6745   3.135   3.221   2.739  0.1123  0.1866  0.1427
 1687SOL    HW2 6746   3.210   3.171   2.708 -0.8554 -0.4993 -1.1228
 1687SOL    HW3 6747   3.059   3.177   2.701 -0.8983  1.1515  1.0226
 1687SOL    MW4 6748   3.135   3.209   2.730 -0.1487  0.2234  0.0918
 1688SOL     OW 6749   3.162   3.478   2.628 -0.3559 -0.0994 -0.4291
 1688SOL    HW2 6750   3.161   3.388   2.659 -0.5992 -0.7611 -2.2620
 1688SOL    HW3 6751   3.081   3.516   2.662  1.6941  0.7251  3.8303
 1688SOL    MW4 6752   3.151   3.471   2.636 -0.1175 -0.0779 -0.1089
 1689SOL     OW 6753   3.378   3.586   2.731 -0.6104  0.3015  0.2679
 1689SOL    HW2 6754   3.376   3.596   2.826 -0.5282 -0.0196  0.3018
 1689SOL    HW3 6755   3.293   3.549   2.709 -0.2418 -0.5807  0.3217
 1689SOL    MW4 6756   3.367   3.583   2.741 -0.5509  0.1427  0.2795
 1690SOL     OW 6757   3.390   3.854   2.639  0.3724 -0.4230  0.3343
 1690SOL    HW2 6758   3.387   3.765   2.673 -0.7162 -0.6574 -0.3475
 1690SOL    HW3 6759   3.384   3.844   2.544 -1.8274  0.4593  0.3545
 1690SOL    MW4 6760   3.389   3.841   2.631 -0.0615 -0.3375  0.2470
 1691SOL     OW 6761   3.137   3.974   2.663 -0.5980 -0.2132  0.4125
 1691SOL    HW2 6762   3.147   4.066   2.640 -2.3682 -0.4448 -1.5239
 1691SOL    HW3 6763   3.219   3.933   2.635 -0.7432  0.4022 -0.9800
 1691SOL    MW4 6764   3.149   3.981   2.656 -0.8507 -0.1626 -0.0267
 1692SOL     OW 6765   3.169   4.248   2.626  0.1323  0.4849  0.1890
 1692SOL    HW2 6766   3.096   4.301   2.657 -1.4152 -1.7343  0.4524
 1692SOL    HW3 6767   3.169   4.260   2.531 -0.0795  1.0897  0.2641
 1692SOL    MW4 6768   3.160   4.257   2.617 -0.0998  0.2719  0.2336
 1693SOL     OW 6769   3.402   4.361   2.741  0.3594  0.5209  0.5217
 1693SOL    HW2 6770   3.396   4.339   2.834 -1.8321  0.2004  0.3283
 1693SOL    HW3 6771   3.323   4.322   2.701  0.9251  1.2071 -1.3506
 1693SOL    MW4 6772   3.391   4.353   2.748  0.1449  0.5691  0.2491
 1694SOL     OW 6773   3.828   4.632   2.638  0.0465 -0.2945  0.3337
 1694SOL    HW2 6774   3.852   4.547   2.676  0.8962  0.2291  0.9830
 1694SOL    HW3 6775   3.755   4.662   2.692 -0.1172 -0.5145  0.2361
 1694SOL    MW4 6776   3.822   4.624   2.650  0.1370 -0.2545  0.4065
 1695SOL     OW 6777   3.595   0.070   2.765  0.3108  0.0639 -0.0685
 1695SOL    HW2 6778   3.573   0.154   2.726  0.2310  0.1453  0.1482
 1695SOL    HW3 6779   3.537   0.007   2.721 -0.5069  0.3091  0.6421
 1695SOL    MW4 6780   3.584   0.072   2.754  0.1924  0.1070  0.0538
 1696SOL     OW 6781   3.583   0.320   2.623  0.2455 -0.1681  0.2125
 1696SOL    HW2 6782   3.656   0.369   2.661 -0.1455 -0.3282  1.1806
 1696SOL    HW3 6783   3.505   0.365   2.656 -0.1041 -0.8932  0.3770
 1696SOL    MW4 6784   3.582   0.333   2.633  0.1478 -0.2849  0.3619
 1697SOL     OW 6785   3.800   0.471   2.740  0.0593 -0.0664 -0.1184
 1697SOL    HW2 6786   3.808   0.456   2.834  0.9615  1.8547  0.1251
 1697SOL    HW3 6787   3.873   0.422   2.701  0.2660 -0.0556  0.2573
 1697SOL    MW4 6788   3.810   0.462   2.747  0.2056  0.1885 -0.0367
 1698SOL     OW 6789   3.796   0.723   2.614 -0.0726 -0.5784  0.1223
 1698SOL    HW2 6790   3.718   0.771   2.640  0.5960  0.4001  0.3313
 1698SOL    HW3 6791   3.790   0.640   2.661 -0.9423 -0.4809  0.1883
 1698SOL    MW4 6792   3.785   0.718   2.623 -0.0991 -0.4364  0.1586
 1699SOL     OW 6793   3.578   0.862   2.701 -0.0710  0.5005  0.2813
 1699SOL    HW2 6794   3.605   0.884   2.790  0.3867  1.0307  0.0136
 1699SOL    HW3 6795   3.566   0.946   2.658  1.3755  0.2489 -0.6513
 1699SOL    MW4 6796   3.580   0.876   2.707  0.1802  0.5373  0.1229
 1700SOL     OW 6797   3.549   1.122   2.604 -0.4246  0.2984  0.0695
 1700SOL    HW2 6798   3.634   1.163   2.619 -0.9584  2.2709 -2.0314
 1700SOL    HW3 6799   3.485   1.185   2.638 -1.1808  0.3950 -1.4944
 1700SOL    MW4 6800   3.552   1.136   2.610 -0.5948  0.5714 -0.4140
 1701SOL     OW 6801   3.767   1.252   2.691  0.5091  0.3441 -0.2662
 1701SOL    HW2 6802   3.851   1.217   2.663  0.7619  1.2594 -0.6711
 1701SOL    HW3 6803   3.762   1.339   2.650 -0.8388  0.1049 -0.6548
 1701SOL    MW4 6804   3.777   1.259   2.682  0.3646  0.4333 -0.3709
 1702SOL     OW 6805   3.766   1.521   2.616  0.0400  0.0113  0.0076
 1702SOL    HW2 6806   3.851   1.560   2.636 -0.2587 -0.6565  2.7579
 1702SOL    HW3 6807   3.702   1.581   2.655 -0.6659 -0.4497 -0.4359
 1702SOL    MW4 6808   3.768   1.534   2.624 -0.0925 -0.1377  0.3119
 1703SOL     OW 6809   3.569   1.690   2.713  0.0529 -0.3052 -0.0073
 1703SOL    HW2 6810   3.589   1.777   2.679 -0.4034  0.4637  1.6313
 1703SOL    HW3 6811   3.484   1.668   2.675  0.4174 -0.2717 -0.8500
 1703SOL    MW4 6812   3.561   1.698   2.703  0.0408 -0.1994  0.0977
 1704SOL     OW 6813   3.591   1.946   2.629 -0.2607  0.3952 -0.2440
 1704SOL    HW2 6814   3.511   1.992   2.654 -1.2932 -1.6562  0.2918
 1704SOL    HW3 6815   3.583   1.934   2.535 -0.8450 -0.2743 -0.1138
 1704SOL    MW4 6816   3.580   1.951   2.620 -0.4740  0.0362 -0.1561
 1705SOL     OW 6817   3.814   2.037   2.740 -0.1189  0.0241 -0.1759
 1705SOL    HW2 6818   3.888   1.998   2.694  0.2038 -0.1252  0.4621
 1705SOL    HW3 6819   3.737   2.001   2.696  0.1834 -0.0471 -0.6540
 1705SOL    MW4 6820   3.813   2.027   2.728 -0.0364 -0.0050 -0.1548
 1706SOL     OW 6821   3.785   2.300   2.639 -0.0461 -0.0208 -0.0641
 1706SOL    HW2 6822   3.798   2.210   2.670  0.9151 -0.1849 -0.9118
 1706SOL    HW3 6823   3.788   2.293   2.543 -0.6831  0.8108 -0.1498
 1706SOL    MW4 6824   3.787   2.287   2.630 -0.0033  0.0673 -0.1872
 1707SOL     OW 6825   3.582   2.476   2.710 -0.4365 -0.1385 -0.5551
 1707SOL    HW2 6826   3.581   2.475   2.806  0.0433  0.3293 -0.5390
 1707SOL    HW3 6827   3.654   2.417   2.687 -0.1560  0.2220 -0.6097
 1707SOL    MW4 6828   3.592   2.468   2.720 -0.3362 -0.0292 -0.5602
 1708SOL     OW 6829   3.570   2.738   2.640  0.2475  0.4808  0.1653
 1708SOL    HW2 6830   3.583   2.645   2.660  0.5790  0.6717  0.8611
 1708SOL    HW3 6831   3.590   2.745   2.547 -0.9215 -0.3528 -0.1566
 1708SOL    MW4 6832   3.575   2.727   2.631  0.1370  0.3960  0.2146
 1709SOL     OW 6833   3.810   2.831   2.729  0.1561 -0.0522 -0.3818
 1709SOL    HW2 6834   3.865   2.762   2.693 -0.1476 -0.4394 -0.1087
 1709SOL    HW3 6835   3.720   2.804   2.709  0.0670  0.6115 -0.8934
 1709SOL    MW4 6836   3.805   2.819   2.722  0.1043 -0.0157 -0.4133
 1710SOL     OW 6837   3.839   3.105   2.602 -0.0658 -0.1749 -0.0200
 1710SOL    HW2 6838   3.757   3.150   2.624 -0.7522 -0.8411 -1.1545
 1710SOL    HW3 6839   3.835   3.023   2.651 -0.1420 -0.2686 -0.1830
 1710SOL    MW4 6840   3.828   3.100   2.611 -0.1664 -0.2751 -0.1912
 1711SOL     OW 6841   3.604   3.202   2.735 -0.2317  0.6693 -0.4959
 1711SOL    HW2 6842   3.588   3.288   2.695 -0.2370 -0.0576 -2.0853
 1711SOL    HW3 6843   3.523   3.154   2.720  0.2222 -0.0338 -0.6832
 1711SOL    MW4 6844   3.591   3.207   2.728 -0.1725  0.4806 -0.7303
 1712SOL     OW 6845   3.622   3.462   2.647 -0.5526  0.1175  0.2449
 1712SOL    HW2 6846   3.704   3.503   2.675 -1.0542  0.1661  1.6828
 1712SOL    HW3 6847   3.554   3.511   2.691 -1.3988  0.3471 -1.2895
 1712SOL    MW4 6848   3.624   3.474   2.656 -0.7305  0.1542  0.2321
 1713SOL     OW 6849   3.835   3.595   2.752  0.2648 -0.1408  0.4984
 1713SOL    HW2 6850   3.915   3.558   2.715  0.9930  0.2769  1.6656
 1713SOL    HW3 6851   3.826   3.680   2.708  0.2847 -0.3225  0.1368
 1713SOL    MW4 6852   3.844   3.601   2.741  0.3635 -0.1096  0.6047
 1714SOL     OW 6853   3.855   3.844   2.615  0.2496  0.0201 -0.3201
 1714SOL    HW2 6854   3.937   3.889   2.636  1.1568 -1.0337 -1.5395
 1714SOL    HW3 6855   3.787   3.903   2.645  1.4396  1.6133 -0.7078
 1714SOL    MW4 6856   3.857   3.857   2.622  0.5263  0.0912 -0.5322
 1715SOL     OW 6857   3.629   3.974   2.708 -0.1287 -0.0397  0.1577
 1715SOL    HW2 6858   3.618   4.068   2.692  0.5264  0.1940  1.0612
 1715SOL    HW3 6859   3.550   3.935   2.671 -0.4133  0.8654 -0.2215
 1715SOL    MW4 6860   3.617   3.981   2.701 -0.0798  0.1105  0.2269
 1716SOL     OW 6861   3.640   4.226   2.628 -0.1893  0.5705  0.2403
 1716SOL    HW2 6862   3.565   4.272   2.665 -0.0516  0.1335  1.0871
 1716SOL    HW3 6863   3.623   4.224   2.534 -1.2546  0.4410  0.4280
 1716SOL    MW4 6864   3.628   4.232   2.620 -0.3117  0.4958  0.3768
 1717SOL     OW 6865   3.890   4.378   2.716  0.2980  0.6542  0.2368
 1717SOL    HW2 6866   3.971   4.348   2.673  0.8235  0.6697  1.2131
 1717SOL    HW3 6867   3.824   4.315   2.686  1.0300 -0.4280  0.8340
 1717SOL    MW4 6868   3.892   4.366   2.706  0.4639  0.5135  0.4444
 1718SOL     OW 6869   4.291   0.003   2.591  0.4100 -0.1880 -0.3151
 1718SOL    HW2 6870   4.209   0.047   2.614 -0.0249  1.2811 -4.3144
 1718SOL    HW3 6871   4.359   0.068   2.608  0.3244  0.0908 -1.0550
 1718SOL    MW4 6872   4.289   0.017   2.596  0.3413  0.0426 -0.9404
 1719SOL     OW 6873   4.047   0.106   2.711  0.5390 -0.1737  0.0570
 1719SOL    HW2 6874   4.046   0.107   2.806 -0.0139  0.9458  0.0463
 1719SOL    HW3 6875   3.965   0.064   2.686 -0.0949  1.0595  0.0607
 1719SOL    MW4 6876   4.036   0.101   2.720  0.3824  0.1367  0.0561
 1720SOL     OW 6877   4.032   0.370   2.618 -0.0228 -0.4297 -0.1108
 1720SOL    HW2 6878   4.047   0.287   2.665  2.1352 -0.1366 -0.2165
 1720SOL    HW3 6879   4.027   0.344   2.526  0.4064 -0.4729 -0.1223
 1720SOL    MW4 6880   4.034   0.355   2.612  0.3186 -0.3967 -0.1262
 1721SOL     OW 6881   4.241   0.513   2.741  0.1450 -0.0747 -0.7340
 1721SOL    HW2 6882   4.170   0.475   2.690  0.6900  0.6922 -2.0816
 1721SOL    HW3 6883   4.321   0.481   2.698  0.6179 -0.2400  0.2543
 1721SOL    MW4 6884   4.242   0.504   2.729  0.2793  0.0047 -0.7814
 1722SOL     OW 6885   4.256   0.755   2.619  0.2053  0.1566  0.2321
 1722SOL    HW2 6886   4.256   0.666   2.654 -1.3238  0.1840  0.3416
 1722SOL    HW3 6887   4.253   0.744   2.524 -1.6996  0.0693  0.2812
 1722SOL    MW4 6888   4.256   0.742   2.611 -0.2478  0.1487  0.2530
 1723SOL     OW 6889   4.027   0.903   2.680  0.5969 -0.0251  0.4030
 1723SOL    HW2 6890   4.103   0.845   2.679 -0.2843 -1.2394  1.6957
 1723SOL    HW3 6891   3.955   0.848   2.648  0.4211  1.3589 -1.6294
 1723SOL    MW4 6892   4.028   0.888   2.676  0.4575 -0.0027  0.3054
 1724SOL     OW 6893   4.023   1.151   2.614 -0.3800 -0.2751 -0.0749
 1724SOL    HW2 6894   4.101   1.197   2.645 -0.6020 -0.0422  0.1399
 1724SOL    HW3 6895   4.031   1.063   2.652  0.2964 -0.5726 -0.8950
 1724SOL    MW4 6896   4.034   1.145   2.623 -0.3200 -0.2836 -0.1547
 1725SOL     OW 6897   4.247   1.291   2.690  0.0303  0.1577 -0.2072
 1725SOL    HW2 6898   4.243   1.383   2.666 -1.5374  0.2265  0.2683
 1725SOL    HW3 6899   4.328   1.259   2.650  0.1372  1.5226 -1.1052
 1725SOL    MW4 6900   4.258   1.299   2.682 -0.1624  0.3469 -0.2629
 1726SOL     OW 6901   4.253   1.553   2.616  0.5265  0.0070 -0.3338
 1726SOL    HW2 6902   4.326   1.598   2.658  0.1698  0.5092 -0.2555
 1726SOL    HW3 6903   4.284   1.535   2.527  0.8197  0.0406 -0.2400
 1726SOL    MW4 6904   4.267   1.556   2.610  0.5182  0.0777 -0.3111
 1727SOL     OW 6905   4.001   1.651   2.694 -0.0351 -0.5850  0.1671
 1727SOL    HW2 6906   4.018   1.673   2.786  1.6101 -0.1617 -0.2295
 1727SOL    HW3 6907   4.087   1.627   2.659 -0.8636 -2.0692 -0.9146
 1727SOL    MW4 6908   4.015   1.651   2.702  0.0726 -0.7249 -0.0280
 1728SOL     OW 6909   4.002   1.901   2.606 -0.1700 -0.2849 -0.1350
 1728SOL    HW2 6910   4.081   1.937   2.646 -1.0170  1.0872  0.3353
 1728SOL    HW3 6911   4.002   1.808   2.630  1.1042 -0.2083  0.1546
 1728SOL    MW4 6912   4.012   1.893   2.614 -0.1136 -0.0938 -0.0348
 1729SOL     OW 6913   4.225   2.017   2.717 -0.3033  0.1566 -0.8212
 1729SOL    HW2 6914   4.225   2.104   2.676  0.8102  1.3049  1.5441
 1729SOL    HW3 6915   4.310   1.981   2.695 -0.1833  0.2716 -0.5394
 1729SOL    MW4 6916   4.236   2.024   2.709 -0.1406  0.3233 -0.4719
 1730SOL     OW 6917   4.233   2.277   2.636 -0.0074  0.3187 -0.0012
 1730SOL    HW2 6918   4.153   2.316   2.672  0.3812  1.4528 -0.3504
 1730SOL    HW3 6919   4.230   2.297   2.543  0.6503  0.3121 -0.0257
 1730SOL    MW4 6920   4.222   2.285   2.629  0.1306  0.4675 -0.0505
 1731SOL     OW 6921   4.013   2.419   2.742  0.6540 -0.1655  0.4918
 1731SOL    HW2 6922   4.017   2.427   2.838  0.1730  0.4839  0.4559
 1731SOL    HW3 6923   3.929   2.378   2.724 -0.0911  1.4539  0.2376
 1731SOL    MW4 6924   4.003   2.415   2.753  0.4922  0.1338  0.4535
 1732SOL     OW 6925   4.015   2.676   2.643  0.0002 -0.2716 -0.2693
 1732SOL    HW2 6926   4.105   2.709   2.655 -0.4061  0.0175  2.1639
 1732SOL    HW3 6927   4.021   2.583   2.661 -0.3450 -0.0946  0.7937
 1732SOL    MW4 6928   4.028   2.668   2.647 -0.0989 -0.2101  0.1919
 1733SOL     OW 6929   4.261   2.798   2.701 -0.2686  0.0348  0.1948
 1733SOL    HW2 6930   4.247   2.785   2.795 -0.8473 -0.3851  0.0586
 1733SOL    HW3 6931   4.248   2.892   2.688 -0.0813  0.1117  0.5516
 1733SOL    MW4 6932   4.257   2.809   2.712 -0.3202 -0.0104  0.2239
 1734SOL     OW 6933   4.300   3.068   2.621  0.0934  0.1970  0.0365
 1734SOL    HW2 6934   4.222   3.117   2.646 -1.3146 -1.2159 -1.4880
 1734SOL    HW3 6935   4.297   3.065   2.526  0.5027 -2.2429  0.0657
 1734SOL    MW4 6936   4.289   3.074   2.612 -0.0384 -0.3113 -0.1608
 1735SOL     OW 6937   4.083   3.218   2.692 -0.0188  0.0259 -0.2450
 1735SOL    HW2 6938   4.096   3.313   2.687  1.0561 -0.0081  1.2375
 1735SOL    HW3 6939   4.003   3.201   2.644  0.1671  1.6096 -1.1245
 1735SOL    MW4 6940   4.074   3.228   2.685  0.1475  0.2304 -0.1654
 1736SOL     OW 6941   4.055   3.481   2.635 -0.2726 -0.1170 -0.0143
 1736SOL    HW2 6942   4.135   3.532   2.646  0.6260 -1.4062 -0.4459
 1736SOL    HW3 6943   4.052   3.463   2.541 -1.8910  1.2303 -0.2394
 1736SOL    MW4 6944   4.065   3.485   2.624 -0.3676 -0.1093 -0.1009
 1737SOL     OW 6945   4.309   3.596   2.689 -0.1054  0.4820 -0.1434
 1737SOL    HW2 6946   4.320   3.591   2.784 -0.7813  0.2175 -0.0771
 1737SOL    HW3 6947   4.371   3.531   2.654  0.1488  0.5853  0.1142
 1737SOL    MW4 6948   4.318   3.587   2.697 -0.1610  0.4607 -0.1007
 1738SOL     OW 6949   4.347   3.860   2.629 -0.4462  0.5094  0.2239
 1738SOL    HW2 6950   4.364   3.769   2.653  0.8536  0.6163 -0.2401
 1738SOL    HW3 6951   4.418   3.910   2.670  0.0502  1.0561 -1.2530
 1738SOL    MW4 6952   4.359   3.855   2.637 -0.2092  0.5956 -0.0322
 1739SOL     OW 6953   4.105   3.984   2.665 -0.2717  0.5908 -0.0425
 1739SOL    HW2 6954   4.093   3.977   2.760 -2.5106 -0.0545 -0.3503
 1739SOL    HW3 6955   4.186   3.937   2.648 -0.3820 -0.1704  1.4371
 1739SOL    MW4 6956   4.114   3.977   2.675 -0.5817  0.4052  0.1121
 1740SOL     OW 6957   4.127   4.263   2.618 -0.1173  0.0514  0.0758
 1740SOL    HW2 6958   4.128   4.171   2.643  0.1007 -0.0332 -0.2553
 1740SOL    HW3 6959   4.112   4.262   2.523 -0.7944  0.3719  0.1717
 1740SOL    MW4 6960   4.125   4.251   2.609 -0.1779  0.0826  0.0447
 1741SOL     OW 6961   4.276   4.446   2.755 -0.2430  0.1106 -0.2957
 1741SOL    HW2 6962   4.229   4.382   2.701  1.2906  0.1969 -1.7792
 1741SOL    HW3 6963   4.287   4.522   2.697  0.4280  0.6373  0.5157
 1741SOL    MW4 6964   4.271   4.448   2.740  0.0478  0.1915 -0.3844
 1742SOL     OW 6965   0.222   4.654   3.098 -0.0613  0.1393  0.1775
 1742SOL    HW2 6966   0.227   4.653   3.194 -0.6960  0.0868  0.2069
 1742SOL    HW3 6967   0.139   4.697   3.078  0.3050  0.6031 -0.3584
 1742SOL    MW4 6968   0.212   4.659   3.108 -0.0967  0.1935  0.1107
 1743SOL     OW 6969   0.001   0.135   3.013 -0.3303 -0.5488 -0.4272
 1743SOL    HW2 6970  -0.076   0.088   3.045  0.4393 -1.2532  0.4235
 1743SOL    HW3 6971  -0.013   0.226   3.041 -0.3886 -0.8629  0.5578
 1743SOL    MW4 6972  -0.011   0.141   3.021 -0.2364 -0.6831 -0.1850
 1744SOL     OW 6973   4.488   0.375   3.118 -0.4923  0.0914  0.0449
 1744SOL    HW2 6974   4.496   0.380   3.213  0.7459  2.1949 -0.1267
 1744SOL    HW3 6975   4.419   0.438   3.096 -0.3857  0.0336 -0.4720
 1744SOL    MW4 6976   4.480   0.384   3.127 -0.3149  0.3613 -0.0459
 1745SOL     OW 6977   0.195   0.515   2.971 -0.4453  0.0983  0.5719
 1745SOL    HW2 6978   0.281   0.474   2.983 -0.3932  0.0330  0.0101
 1745SOL    HW3 6979   0.136   0.463   3.025 -0.3506 -0.6249 -0.0118
 1745SOL    MW4 6980   0.199   0.502   2.980 -0.4260 -0.0057  0.4207
 1746SOL     OW 6981   0.239   0.755   3.090  0.0785 -0.5883 -0.3196
 1746SOL    HW2 6982   0.232   0.727   3.181  0.4104  0.5106  0.0485
 1746SOL    HW3 6983   0.217   0.677   3.039  0.0185 -1.2394  0.6976
 1746SOL    MW4 6984   0.235   0.741   3.095  0.1144 -0.5292 -0.1368
 1747SOL     OW 6985   0.025   0.925   3.000 -0.1654  0.3071 -0.0499
 1747SOL    HW2 6986   0.093   0.863   3.028  0.5328  0.7853 -0.6786
 1747SOL    HW3 6987   0.034   0.929   2.905 -0.4444  1.1104 -0.0450
 1747SOL    MW4 6988   0.035   0.917   2.991 -0.1101  0.4762 -0.1322
 1748SOL     OW 6989   0.017   1.185   3.117 -0.0388 -0.0343  0.4866
 1748SOL    HW2 6990  -0.043   1.234   3.060  0.5649 -0.0382 -0.1532
 1748SOL    HW3 6991   0.013   1.095   3.085 -0.4829 -0.2447  1.1100
 1748SOL    MW4 6992   0.008   1.180   3.106 -0.0177 -0.0626  0.4844
 1749SOL     OW 6993   0.264   1.276   2.991  0.2648 -0.2452  0.6263
 1749SOL    HW2 6994   0.179   1.244   3.020 -0.5880  0.8386 -0.6175
 1749SOL    HW3 6995   0.258   1.278   2.896  1.9165 -0.7630  0.4914
 1749SOL    MW4 6996   0.252   1.272   2.983  0.3702 -0.1705  0.4444
 1750SOL     OW 6997   0.237   1.540   3.085 -0.2660 -0.2477 -0.5492
 1750SOL    HW2 6998   0.150   1.565   3.057 -0.6968 -0.6108  0.4514
 1750SOL    HW3 6999   0.243   1.446   3.066 -1.0921 -0.8227  1.8697
 1750SOL    MW4 7000   0.227   1.531   3.079 -0.4318 -0.3715 -0.0980
 1751SOL     OW 7001   0.017   1.668   2.997  0.2396  0.1035  0.0663
 1751SOL    HW2 7002  -0.056   1.614   3.026  1.8112 -1.7881  0.5445
 1751SOL    HW3 7003   0.009   1.749   3.048 -0.3817 -0.8733  1.5212
 1751SOL    MW4 7004   0.007   1.672   3.008  0.3650 -0.2749  0.3214
 1752SOL     OW 7005   4.451   1.907   3.140 -0.3852  0.1339 -0.2988
 1752SOL    HW2 7006   4.398   1.964   3.085 -0.6303 -0.6080 -0.8425
 1752SOL    HW3 7007   4.542   1.927   3.116 -0.3718  1.7985  1.0225
 1752SOL    MW4 7008   4.456   1.917   3.130 -0.4158  0.2556 -0.1962
 1753SOL     OW 7009   0.201   2.054   3.037 -0.1304  0.5822 -0.0539
 1753SOL    HW2 7010   0.207   2.143   3.072 -0.8412  0.4155  0.5014
 1753SOL    HW3 7011   0.182   2.065   2.944  0.1576  1.0158 -0.0587
 1753SOL    MW4 7012   0.199   2.067   3.029 -0.1862  0.6174  0.0188
 1754SOL     OW 7013   0.210   2.313   3.112  0.1586  0.2237 -0.2383
 1754SOL    HW2 7014   0.230   2.327   3.205 -0.6077  1.1224 -0.2026
 1754SOL    HW3 7015   0.269   2.371   3.065 -0.3434  0.7249 -0.2548
 1754SOL    MW4 7016   0.220   2.322   3.118 -0.0087  0.4084 -0.2358
 1755SOL     OW 7017   4.461   2.407   2.986 -0.0402  0.2805 -0.0435
 1755SOL    HW2 7018   4.448   2.495   3.022 -0.5751 -0.2167  1.0008
 1755SOL    HW3 7019   4.538   2.373   3.032 -0.6151 -0.2844  0.5144
 1755SOL    MW4 7020   4.469   2.414   2.997 -0.1866  0.1404  0.1679
 1756SOL     OW 7021   4.463   2.658   3.104  0.0571 -0.4074  0.6531
 1756SOL    HW2 7022   4.476   2.674   3.197 -2.7816  1.3804  0.8205
 1756SOL    HW3 7023   4.523   2.719   3.061  0.0489  0.1075  1.3512
 1756SOL    MW4 7024   4.472   2.668   3.110 -0.3185 -0.1036  0.7673
 1757SOL     OW 7025   0.179   2.854   3.044  0.1205 -0.2432 -0.7937
 1757SOL    HW2 7026   0.261   2.804   3.055  0.7519  1.0640  0.7399
 1757SOL    HW3 7027   0.161   2.851   2.950  2.1235 -0.2740 -1.2067
 1757SOL    MW4 7028   0.188   2.847   3.033  0.4681 -0.0748 -0.6459
 1758SOL     OW 7029   0.201   3.121   3.133 -0.7788  0.0298 -0.4332
 1758SOL    HW2 7030   0.119   3.164   3.109 -0.5153  0.5673 -0.3920
 1758SOL    HW3 7031   0.192   3.032   3.102 -1.5192 -0.0075 -0.1211
 1758SOL    MW4 7032   0.189   3.115   3.126 -0.8417  0.0958 -0.3866
 1759SOL     OW 7033   4.442   3.196   3.068 -0.2844 -0.1755  0.0077
 1759SOL    HW2 7034   4.375   3.133   3.092 -0.7014 -0.0789 -0.8559
 1759SOL    HW3 7035   4.449   3.188   2.972  0.0386  0.6998 -0.0482
 1759SOL    MW4 7036   4.434   3.187   3.058 -0.2968 -0.0472 -0.1137
 1760SOL     OW 7037   0.012   3.458   3.088  0.0057 -0.3040 -0.1493
 1760SOL    HW2 7038  -0.057   3.502   3.039  0.9386  0.5082 -0.7679
 1760SOL    HW3 7039  -0.022   3.370   3.104 -1.0258 -0.0184 -0.7363
 1760SOL    MW4 7040  -0.001   3.452   3.084 -0.0073 -0.1592 -0.3084
 1761SOL     OW 7041   0.242   3.571   2.977  0.0299  0.5094  0.3141
 1761SOL    HW2 7042   0.236   3.660   3.013 -1.3278  0.1640  0.9619
 1761SOL    HW3 7043   0.161   3.528   3.005  1.1322 -1.2502  0.8562
 1761SOL    MW4 7044   0.231   3.577   2.985 -0.0038  0.2317  0.4711
 1762SOL     OW 7045   0.221   3.820   3.084 -0.4263  0.2711  0.3656
 1762SOL    HW2 7046   0.241   3.814   3.177  0.6080  2.3431  0.2851
 1762SOL    HW3 7047   0.285   3.881   3.049  0.4236 -1.9209 -2.0909
 1762SOL    MW4 7048   0.232   3.827   3.092 -0.1777  0.2553  0.0308
 1763SOL     OW 7049   0.009   3.985   3.020 -0.3654 -0.4598 -0.0598
 1763SOL    HW2 7050   0.079   3.922   3.035 -0.1385 -0.0140  0.7573
 1763SOL    HW3 7051   0.018   4.010   2.928 -1.1859 -2.4896 -0.7115
 1763SOL    MW4 7052   0.019   3.980   3.009 -0.4437 -0.6688 -0.0380
 1764SOL     OW 7053   4.488   4.240   3.112  0.1118 -0.0384  0.1772
 1764SOL    HW2 7054   4.494   4.237   3.208 -0.3400  0.2412  0.2166
 1764SOL    HW3 7055   4.515   4.153   3.084 -0.8888 -0.5009  0.6215
 1764SOL    MW4 7056   4.493   4.228   3.121 -0.0798 -0.0626  0.2410
 1765SOL     OW 7057   0.246   4.392   3.014  0.3499  0.1176  0.0820
 1765SOL    HW2 7058   0.169   4.350   3.052  0.3199  0.9975  1.0121
 1765SOL    HW3 7059   0.235   4.485   3.035  1.2127  0.3623 -0.5582
 1765SOL    MW4 7060   0.235   4.399   3.022  0.4598  0.2660  0.1202
 1766SOL     OW 7061   0.650   4.644   3.099 -0.2389 -0.1851  0.3066
 1766SOL    HW2 7062   0.658   4.559   3.057  1.6192  1.4477 -2.7954
 1766SOL    HW3 7063   0.581   4.690   3.050  1.7943  1.6595 -0.9089
 1766SOL    MW4 7064   0.642   4.639   3.087  0.2745  0.2737 -0.2630
 1767SOL     OW 7065   0.435   0.102   2.975 -0.0988  0.2202  0.0475
 1767SOL    HW2 7066   0.418   0.196   2.983  0.3076  0.1006  2.7737
 1767SOL    HW3 7067   0.363   0.061   3.024  0.6541 -0.8227  0.2936
 1767SOL    MW4 7068   0.423   0.109   2.982  0.0542  0.0668  0.4397
 1768SOL     OW 7069   0.422   0.379   3.032 -0.1149  0.1725 -0.0366
 1768SOL    HW2 7070   0.435   0.373   3.127 -0.3569  0.0738 -0.0104
 1768SOL    HW3 7071   0.496   0.432   3.001  0.1927 -0.1475  0.1526
 1768SOL    MW4 7072   0.433   0.386   3.040 -0.1063  0.1172 -0.0082
 1769SOL     OW 7073   0.650   0.534   2.990 -0.3697 -0.3970  0.0172
 1769SOL    HW2 7074   0.722   0.480   3.022 -1.2330 -0.1901  2.4156
 1769SOL    HW3 7075   0.668   0.621   3.026 -2.3632 -0.5900  1.5669
 1769SOL    MW4 7076   0.662   0.538   2.999 -0.7466 -0.3951  0.5381
 1770SOL     OW 7077   0.695   0.791   3.095 -0.0033  0.3771 -0.2110
 1770SOL    HW2 7078   0.682   0.775   3.188 -2.1015 -0.7606 -0.6673
 1770SOL    HW3 7079   0.615   0.836   3.067  0.2714 -0.0022 -1.6254
 1770SOL    MW4 7080   0.682   0.795   3.103 -0.2439  0.1769 -0.4578
 1771SOL     OW 7081   0.448   0.929   3.040 -0.2713 -0.5994  0.1856
 1771SOL    HW2 7082   0.374   0.875   3.068 -0.3813 -1.1302 -1.0978
 1771SOL    HW3 7083   0.451   0.919   2.945  0.3145  0.8931  0.0262
 1771SOL    MW4 7084   0.439   0.921   3.031 -0.2085 -0.4725 -0.0048
 1772SOL     OW 7085   0.497   1.184   3.135 -0.0214 -0.4364  0.0794
 1772SOL    HW2 7086   0.493   1.091   3.114 -1.2921 -0.5047  0.5969
 1772SOL    HW3 7087   0.416   1.221   3.099  0.2309  0.3734  0.3141
 1772SOL    MW4 7088   0.486   1.177   3.128 -0.1558 -0.3386  0.1786
 1773SOL     OW 7089   0.704   1.311   2.985  0.2037  0.1339  0.2334
 1773SOL    HW2 7090   0.786   1.265   3.006  0.0798  0.0120  0.4514
 1773SOL    HW3 7091   0.636   1.259   3.029  0.1485  0.9963  1.1799
 1773SOL    MW4 7092   0.706   1.298   2.993  0.1801  0.2316  0.3871
 1774SOL     OW 7093   0.672   1.557   3.065  0.1275 -0.4831 -0.2569
 1774SOL    HW2 7094   0.656   1.553   3.160 -0.9390 -0.2851 -0.4244
 1774SOL    HW3 7095   0.690   1.466   3.040 -0.7710 -0.7188 -0.0629
 1774SOL    MW4 7096   0.672   1.544   3.075 -0.1318 -0.4881 -0.2534
 1775SOL     OW 7097   0.460   1.700   3.000  0.3066  0.5103 -0.2909
 1775SOL    HW2 7098   0.540   1.658   3.030  1.0871  1.3198 -1.1764
 1775SOL    HW3 7099   0.391   1.637   3.019  1.1606 -0.2272  0.4243
 1775SOL    MW4 7100   0.462   1.686   3.006  0.5223  0.5198 -0.3134
 1776SOL     OW 7101   0.461   1.956   3.086 -0.0287  0.4336 -0.0209
 1776SOL    HW2 7102   0.472   1.862   3.071  0.4633  0.6724 -1.2123
 1776SOL    HW3 7103   0.370   1.973   3.062  0.1456  0.4216 -0.7122
 1776SOL    MW4 7104   0.450   1.945   3.080  0.0592  0.4635 -0.2693
 1777SOL     OW 7105   0.674   2.104   2.985  0.1009 -0.5595 -0.2875
 1777SOL    HW2 7106   0.754   2.057   3.008  0.6059 -0.1729 -1.2419
 1777SOL    HW3 7107   0.605   2.059   3.034  0.8900 -0.9211  0.5076
 1777SOL    MW4 7108   0.675   2.092   2.995  0.2717 -0.5562 -0.3085
 1778SOL     OW 7109   0.630   2.366   3.037 -0.3104 -0.1979  0.0777
 1778SOL    HW2 7110   0.632   2.382   3.132 -0.3090 -1.0991  0.2326
 1778SOL    HW3 7111   0.639   2.271   3.029 -0.2176 -0.1094 -0.8334
 1778SOL    MW4 7112   0.631   2.355   3.049 -0.2980 -0.3052 -0.0220
 1779SOL     OW 7113   0.381   2.463   2.954 -0.0158 -0.3035  0.5980
 1779SOL    HW2 7114   0.467   2.422   2.965 -0.2834 -1.1770 -0.5383
 1779SOL    HW3 7115   0.370   2.472   2.859 -1.1340 -0.0888  0.7394
 1779SOL    MW4 7116   0.391   2.459   2.943 -0.1986 -0.3904  0.4667
 1780SOL     OW 7117   0.426   2.722   3.096 -0.3989  0.2471 -0.3621
 1780SOL    HW2 7118   0.504   2.761   3.057 -0.5993  1.4474  0.4012
 1780SOL    HW3 7119   0.418   2.637   3.053  0.6975  0.5683 -1.2443
 1780SOL    MW4 7120   0.435   2.716   3.085 -0.2807  0.4479 -0.3778
 1781SOL     OW 7121   0.640   2.863   2.985 -0.2486 -0.6554  0.5324
 1781SOL    HW2 7122   0.725   2.828   3.012  0.5896  0.4590 -0.6087
 1781SOL    HW3 7123   0.644   2.956   3.006 -0.0449 -0.0082 -2.2474
 1781SOL    MW4 7124   0.651   2.870   2.992 -0.1111 -0.4230  0.0151
 1782SOL     OW 7125   0.693   3.139   3.067 -0.3445  0.1983  0.6527
 1782SOL    HW2 7126   0.696   3.122   3.161 -0.0527  1.2265  0.8338
 1782SOL    HW3 7127   0.602   3.162   3.050 -0.4805 -0.3477  0.6074
 1782SOL    MW4 7128   0.681   3.139   3.077 -0.3239  0.2619  0.6706
 1783SOL     OW 7129   0.447   3.230   2.996 -0.3117  0.0347  0.4912
 1783SOL    HW2 7130   0.460   3.308   3.050 -0.7099 -0.3984  1.2176
 1783SOL    HW3 7131   0.367   3.190   3.030  0.5225 -1.3320  0.9052
 1783SOL    MW4 7132   0.438   3.235   3.007 -0.2542 -0.2027  0.6416
 1784SOL     OW 7133   0.463   3.462   3.119 -0.0387 -0.2705 -0.2687
 1784SOL    HW2 7134   0.456   3.474   3.214 -0.1609 -1.4430 -0.1214
 1784SOL    HW3 7135   0.384   3.502   3.084  0.7229  1.5165 -0.0105
 1784SOL    MW4 7136   0.452   3.468   3.127  0.0456 -0.1894 -0.2152
 1785SOL     OW 7137   0.663   3.594   3.003  0.3023  0.1714 -0.0515
 1785SOL    HW2 7138   0.744   3.548   3.025  0.5355  0.2324 -0.7729
 1785SOL    HW3 7139   0.594   3.541   3.041  0.4778 -1.4193 -1.8768
 1785SOL    MW4 7140   0.665   3.581   3.011  0.3562 -0.0304 -0.3875
 1786SOL     OW 7141   0.672   3.862   3.085  0.3043  0.1469  0.1732
 1786SOL    HW2 7142   0.679   3.863   3.181 -2.1832 -1.6177  0.4088
 1786SOL    HW3 7143   0.668   3.769   3.062 -1.0185  0.5912 -1.4915
 1786SOL    MW4 7144   0.673   3.850   3.095 -0.1984 -0.0273 -0.0153
 1787SOL     OW 7145   0.430   3.983   3.002  0.2714  0.4582 -0.1417
 1787SOL    HW2 7146   0.506   3.930   3.024  1.0930  1.5651 -0.2639
 1787SOL    HW3 7147   0.431   3.989   2.906 -1.3831 -1.5448 -0.3394
 1787SOL    MW4 7148   0.440   3.977   2.992  0.1615  0.3400 -0.1839
 1788SOL     OW 7149   0.452   4.251   3.112 -0.1613 -0.0234  0.6531
 1788SOL    HW2 7150   0.425   4.166   3.077  0.4166 -0.3068  0.8838
 1788SOL    HW3 7151   0.383   4.311   3.084  0.2053 -0.2727 -0.8629
 1788SOL    MW4 7152   0.440   4.248   3.103 -0.0367 -0.0937  0.4835
 1789SOL     OW 7153   0.651   4.387   2.992 -0.1329 -0.1242  0.4245
 1789SOL    HW2 7154   0.587   4.332   3.037 -0.2720 -0.6318 -0.3861
 1789SOL    HW3 7155   0.623   4.386   2.901  0.3929  0.5583  0.2539
 1789SOL    MW4 7156   0.639   4.380   2.986 -0.0819 -0.1011  0.2950
 1790SOL     OW 7157   1.121   0.047   3.058  0.0939 -0.7614  0.1855
 1790SOL    HW2 7158   1.204   0.064   3.014 -0.1641 -0.4872 -0.2032
 1790SOL    HW3 7159   1.057   0.101   3.011  0.2171  1.4012  2.3986
 1790SOL    MW4 7160   1.123   0.057   3.046  0.0761 -0.4399  0.4262
 1791SOL     OW 7161   0.884   0.140   2.955 -0.0706 -0.8306  0.0330
 1791SOL    HW2 7162   0.882   0.221   3.005  0.7362 -0.5772 -0.3481
 1791SOL    HW3 7163   0.835   0.078   3.009  0.9864 -0.6241  1.2409
 1791SOL    MW4 7164   0.877   0.142   2.968  0.1753 -0.7699  0.1421
 1792SOL     OW 7165   0.865   0.384   3.064 -0.8456 -0.0983  0.2851
 1792SOL    HW2 7166   0.868   0.376   3.160  0.0630  0.0264  0.2760
 1792SOL    HW3 7167   0.944   0.434   3.042 -1.0627 -0.1077 -0.5269
 1792SOL    MW4 7168   0.876   0.389   3.074 -0.7544 -0.0831  0.1767
 1793SOL     OW 7169   1.122   0.490   3.022  0.1834 -0.0705 -0.2088
 1793SOL    HW2 7170   1.196   0.438   3.056  0.1892 -0.1287 -0.3111
 1793SOL    HW3 7171   1.126   0.479   2.927  0.0069 -0.1218 -0.2102
 1793SOL    MW4 7172   1.132   0.481   3.014  0.1609 -0.0850 -0.2225
 1794SOL     OW 7173   1.142   0.762   3.082  0.4656 -0.5159  0.2628
 1794SOL    HW2 7174   1.151   0.767   3.177  0.5748 -0.9610  0.2802
 1794SOL    HW3 7175   1.130   0.668   3.065  2.4279 -0.6831 -0.3225
 1794SOL    MW4 7176   1.142   0.750   3.093  0.7389 -0.5967  0.1879
 1795SOL     OW 7177   0.919   0.893   2.980  0.1857  0.2274  0.3295
 1795SOL    HW2 7178   0.985   0.844   3.028 -1.3051 -2.6442 -0.3997
 1795SOL    HW3 7179   0.836   0.851   3.004 -0.9307  0.9699 -2.0015
 1795SOL    MW4 7180   0.916   0.881   2.989 -0.1583 -0.0535 -0.0743
 1796SOL     OW 7181   0.916   1.163   3.086  0.4782 -0.6535  0.1691
 1796SOL    HW2 7182   1.002   1.199   3.061 -0.1341  0.0937 -0.9144
 1796SOL    HW3 7183   0.916   1.074   3.049 -0.0878  0.1497 -1.8362
 1796SOL    MW4 7184   0.928   1.156   3.078  0.3227 -0.4490 -0.2384
 1797SOL     OW 7185   1.148   1.287   2.978  0.1189  0.0057 -0.5307
 1797SOL    HW2 7186   1.229   1.241   3.001  0.1085  0.5236  0.5491
 1797SOL    HW3 7187   1.144   1.280   2.883  1.8019  0.5866 -0.6756
 1797SOL    MW4 7188   1.159   1.280   2.968  0.3396  0.1506 -0.4073
 1798SOL     OW 7189   1.109   1.547   3.109  0.8093  0.1098  0.3887
 1798SOL    HW2 7190   1.173   1.604   3.065  1.2550 -0.5236  0.2140
 1798SOL    HW3 7191   1.126   1.460   3.074  0.0941 -0.1290  0.6232
 1798SOL    MW4 7192   1.120   1.543   3.099  0.7737 -0.0052  0.3966
 1799SOL     OW 7193   0.910   1.668   2.968  0.1073 -0.0543 -0.3519
 1799SOL    HW2 7194   0.975   1.623   3.022 -0.2318  1.3904  1.3006
 1799SOL    HW3 7195   0.830   1.619   2.981 -0.0506  0.4801  0.7394
 1799SOL    MW4 7196   0.908   1.656   2.977  0.0417  0.2068  0.0101
 1800SOL     OW 7197   0.904   1.945   3.049 -0.0598  0.0225  0.1089
 1800SOL    HW2 7198   0.880   1.922   3.138 -0.0815 -0.6782 -0.0754
 1800SOL    HW3 7199   0.906   1.861   3.002  2.5178  0.0750  0.0691
 1800SOL    MW4 7200   0.901   1.931   3.055  0.2774 -0.0630  0.0793
 1801SOL     OW 7201   1.106   2.088   2.924 -0.3335 -0.1489  0.2821
 1801SOL    HW2 7202   1.039   2.036   2.968  0.2337 -0.4185  0.8397
 1801SOL    HW3 7203   1.094   2.068   2.831  0.3836 -1.9289  0.5463
 1801SOL    MW4 7204   1.096   2.078   2.917 -0.1640 -0.4193  0.3905
 1802SOL     OW 7205   1.103   2.344   3.047  0.2366 -0.0962  0.2754
 1802SOL    HW2 7206   1.033   2.408   3.030  0.5562  0.4709  1.0669
 1802SOL    HW3 7207   1.085   2.272   2.986  0.4890  1.2127 -1.3941
 1802SOL    MW4 7208   1.091   2.343   3.037  0.3121  0.1513  0.1595
 1803SOL     OW 7209   0.870   2.505   2.945 -0.6620 -0.6627  0.0741
 1803SOL    HW2 7210   0.803   2.455   2.991 -0.9394 -1.0397 -0.7305
 1803SOL    HW3 7211   0.858   2.483   2.853  0.5729 -0.7367 -0.0825
 1803SOL    MW4 7212   0.860   2.496   2.939 -0.5356 -0.7222 -0.0527
 1804SOL     OW 7213   0.889   2.759   3.048  0.4741 -0.5422  0.0697
 1804SOL    HW2 7214   0.919   2.741   3.137  0.1455  0.8918  0.4900
 1804SOL    HW3 7215   0.889   2.674   3.005  1.8673 -1.0735  1.0614
 1804SOL    MW4 7216   0.893   2.745   3.054  0.6146 -0.4231  0.2560
 1805SOL     OW 7217   1.146   2.818   2.982  0.3227  0.0419  0.1079
 1805SOL    HW2 7218   1.159   2.910   3.003  0.5193  0.1586 -0.5176
 1805SOL    HW3 7219   1.057   2.799   3.010  0.3078  0.3971  0.3056
 1805SOL    MW4 7220   1.136   2.827   2.989  0.3467  0.1041  0.0515
 1806SOL     OW 7221   1.139   3.089   3.084  0.0668  0.3449 -0.4193
 1806SOL    HW2 7222   1.220   3.123   3.047  0.2250  1.2351  0.7324
 1806SOL    HW3 7223   1.071   3.145   3.046  0.0161 -0.1399 -1.0616
 1806SOL    MW4 7224   1.140   3.101   3.074  0.0810  0.3984 -0.3521
 1807SOL     OW 7225   0.945   3.243   2.981  0.0789  0.4520 -0.1190
 1807SOL    HW2 7226   0.860   3.210   3.008 -0.0567  1.3633  0.5800
 1807SOL    HW3 7227   0.943   3.241   2.886 -0.2317 -0.7698 -0.0924
 1807SOL    MW4 7228   0.934   3.239   2.972  0.0200  0.4111 -0.0233
 1808SOL     OW 7229   0.906   3.492   3.114  0.2806  0.0999 -0.2364
 1808SOL    HW2 7230   0.983   3.542   3.086  0.8582  0.0086  1.1673
 1808SOL    HW3 7231   0.922   3.404   3.082  0.4476  0.2353 -0.5293
 1808SOL    MW4 7232   0.918   3.487   3.106  0.3789  0.1057 -0.0898
 1809SOL     OW 7233   1.107   3.644   2.987 -0.1536 -0.5948 -0.1218
 1809SOL    HW2 7234   1.182   3.603   3.029 -0.5229  0.5877  1.7096
 1809SOL    HW3 7235   1.117   3.738   3.004 -1.0220 -0.2176 -1.5335
 1809SOL    MW4 7236   1.118   3.651   2.995 -0.3169 -0.3890 -0.0664
 1810SOL     OW 7237   1.096   3.907   3.103 -0.2144 -0.4264  0.2351
 1810SOL    HW2 7238   1.090   3.900   3.198  0.2656  1.7815  0.4608
 1810SOL    HW3 7239   1.009   3.938   3.076 -0.0887 -0.2442  0.0387
 1810SOL    MW4 7240   1.084   3.910   3.112 -0.1345 -0.1111  0.2389
 1811SOL     OW 7241   0.869   4.014   3.003  0.0422 -0.1465  0.0219
 1811SOL    HW2 7242   0.797   3.957   3.030 -1.2501  1.5568  0.2725
 1811SOL    HW3 7243   0.871   4.006   2.907 -1.5845  1.0515 -0.1366
 1811SOL    MW4 7244   0.860   4.005   2.994 -0.3429  0.2363  0.0341
 1812SOL     OW 7245   0.896   4.279   3.044  0.2915  0.2691  0.2838
 1812SOL    HW2 7246   0.885   4.184   3.037 -0.6048  0.2638  1.6007
 1812SOL    HW3 7247   0.813   4.315   3.011  1.1476  0.6517 -1.5007
 1812SOL    MW4 7248   0.883   4.271   3.038  0.2862  0.3189  0.2221
 1813SOL     OW 7249   1.099   4.457   2.971  0.2395  0.0164 -0.5334
 1813SOL    HW2 7250   1.043   4.404   3.027 -0.3566 -0.1120 -1.2448
 1813SOL    HW3 7251   1.086   4.547   3.002  0.6104 -0.1507  0.1247
 1813SOL    MW4 7252   1.090   4.462   2.982  0.2098 -0.0226 -0.5405
 1814SOL     OW 7253   1.594   4.626   3.052  0.1056  0.5240 -0.2178
 1814SOL    HW2 7254   1.588   4.618   3.147 -2.0051 -1.0625 -0.4567
 1814SOL    HW3 7255   1.519   4.680   3.027  0.8588  1.2461 -0.9578
 1814SOL    MW4 7256   1.583   4.632   3.061 -0.0735  0.4100 -0.3470
 1815SOL     OW 7257   1.362   0.120   2.962 -0.1785  0.4984  0.1261
 1815SOL    HW2 7258   1.371   0.213   2.985 -1.8618  0.6117  0.4032
 1815SOL    HW3 7259   1.362   0.120   2.866  0.6747  0.6821  0.1178
 1815SOL    MW4 7260   1.363   0.132   2.952 -0.2880  0.5376  0.1616
 1816SOL     OW 7261   1.396   0.390   3.080 -0.0324  0.1644  0.1194
 1816SOL    HW2 7262   1.390   0.410   3.173  1.0145 -0.2883  0.2931
 1816SOL    HW3 7263   1.479   0.430   3.052 -0.4357  0.4686 -0.6567
 1816SOL    MW4 7264   1.406   0.398   3.088  0.0525  0.1448  0.0399
 1817SOL     OW 7265   1.626   0.489   2.942 -0.4663 -0.0624  0.0573
 1817SOL    HW2 7266   1.627   0.580   2.972 -0.4607  0.2492 -0.8699
 1817SOL    HW3 7267   1.609   0.495   2.848  1.6798 -0.8945 -0.4116
 1817SOL    MW4 7268   1.624   0.501   2.934 -0.1824 -0.1311 -0.1269
 1818SOL     OW 7269   1.607   0.753   3.073  0.1923 -0.5249  0.1588
 1818SOL    HW2 7270   1.579   0.765   3.164 -2.1687 -1.1679 -0.4475
 1818SOL    HW3 7271   1.529   0.771   3.022  0.8101 -2.6956 -1.6143
 1818SOL    MW4 7272   1.593   0.757   3.078 -0.0377 -0.8961 -0.1552
 1819SOL     OW 7273   1.372   0.876   2.956  0.0965 -0.1128 -0.0900
 1819SOL    HW2 7274   1.383   0.963   2.996 -1.5478 -0.6981  1.7417
 1819SOL    HW3 7275   1.280   0.854   2.972  0.0222 -1.4386 -2.1333
 1819SOL    MW4 7276   1.361   0.885   2.963 -0.1303 -0.3650 -0.1179
 1820SOL     OW 7277   1.382   1.131   3.057 -0.1925 -0.2510 -0.2513
 1820SOL    HW2 7278   1.386   1.146   3.151 -1.9063  1.4652 -0.4103
 1820SOL    HW3 7279   1.452   1.187   3.021 -0.7535  0.5405 -0.1287
 1820SOL    MW4 7280   1.392   1.141   3.064 -0.4926  0.0799 -0.2561
 1821SOL     OW 7281   1.579   1.304   2.946  0.1649 -0.5155 -0.4335
 1821SOL    HW2 7282   1.651   1.261   2.993  0.6622  0.2191 -0.5226
 1821SOL    HW3 7283   1.581   1.395   2.977 -0.9054 -0.5553 -0.2208
 1821SOL    MW4 7284   1.589   1.310   2.956  0.0893 -0.4238 -0.4172
 1822SOL     OW 7285   1.545   1.570   3.052  0.0565 -0.4232 -0.4250
 1822SOL    HW2 7286   1.611   1.626   3.011  0.4093 -0.9490 -0.5694
 1822SOL    HW3 7287   1.462   1.611   3.028  0.3502  0.9103  0.7197
 1822SOL    MW4 7288   1.543   1.583   3.043  0.1418 -0.3167 -0.2930
 1823SOL     OW 7289   1.302   1.701   2.985 -0.0613  0.2193  0.2338
 1823SOL    HW2 7290   1.323   1.790   3.012  1.1317  0.8073 -2.4022
 1823SOL    HW3 7291   1.295   1.706   2.890  2.3395 -2.9341 -0.2068
 1823SOL    MW4 7292   1.304   1.713   2.976  0.4129 -0.1191 -0.1722
 1824SOL     OW 7293   1.347   1.972   3.057  0.2560  0.0096 -0.3603
 1824SOL    HW2 7294   1.346   1.950   3.150 -0.8773 -1.9316 -0.7984
 1824SOL    HW3 7295   1.258   2.001   3.038  0.1836 -0.6382 -1.0531
 1824SOL    MW4 7296   1.335   1.973   3.067  0.0969 -0.3320 -0.5095
 1825SOL     OW 7297   1.610   2.053   2.984  0.6365  0.4112  0.1898
 1825SOL    HW2 7298   1.516   2.043   3.002  0.4562  1.8319  0.1304
 1825SOL    HW3 7299   1.616   2.062   2.889  0.7142  1.3454  0.2737
 1825SOL    MW4 7300   1.598   2.053   2.974  0.6230  0.7219  0.1930
 1826SOL     OW 7301   1.586   2.328   3.059  0.5671  0.2441 -0.5269
 1826SOL    HW2 7302   1.502   2.356   3.021 -0.5090 -0.2704  1.3814
 1826SOL    HW3 7303   1.593   2.235   3.037 -0.9649 -0.5230  2.0524
 1826SOL    MW4 7304   1.576   2.320   3.051  0.2230  0.0750  0.0652
 1827SOL     OW 7305   1.354   2.414   2.959  0.1433  0.5169  0.0744
 1827SOL    HW2 7306   1.266   2.389   2.987  0.1245  1.2549  0.6886
 1827SOL    HW3 7307   1.348   2.418   2.863 -0.2506 -0.3134  0.0615
 1827SOL    MW4 7308   1.342   2.411   2.950  0.0889  0.5047  0.1538
 1828SOL     OW 7309   1.353   2.668   3.094 -0.2807 -0.6633  0.4746
 1828SOL    HW2 7310   1.349   2.581   3.056 -0.4747  0.1592 -1.4788
 1828SOL    HW3 7311   1.271   2.710   3.068  0.1760  0.3844  0.6547
 1828SOL    MW4 7312   1.342   2.662   3.086 -0.2461 -0.4165  0.2406
 1829SOL     OW 7313   1.534   2.847   2.998 -0.1113 -0.2144  0.1016
 1829SOL    HW2 7314   1.614   2.818   3.042 -0.9779 -0.1458  1.7583
 1829SOL    HW3 7315   1.471   2.777   3.015 -0.6117  0.0675 -0.5753
 1829SOL    MW4 7316   1.536   2.834   3.006 -0.2917 -0.1682  0.2309
 1830SOL     OW 7317   1.565   3.115   3.074 -0.3318 -0.2081  0.3920
 1830SOL    HW2 7318   1.563   3.083   3.165  2.2402  0.0880  0.5820
 1830SOL    HW3 7319   1.569   3.036   3.021 -0.5136 -0.3455  0.5820
 1830SOL    MW4 7320   1.565   3.100   3.079 -0.0164 -0.1872  0.4422
 1831SOL     OW 7321   1.341   3.241   2.999  0.3726  0.1991 -0.0019
 1831SOL    HW2 7322   1.427   3.204   3.019 -0.3688 -1.2322  0.6076
 1831SOL    HW3 7323   1.339   3.245   2.903  0.7020 -0.7748 -0.0529
 1831SOL    MW4 7324   1.352   3.237   2.989  0.3182 -0.1183  0.0718
 1832SOL     OW 7325   1.311   3.501   3.106 -0.1309 -0.2435 -0.4689
 1832SOL    HW2 7326   1.341   3.498   3.196 -2.0119 -0.6957  0.1685
 1832SOL    HW3 7327   1.314   3.409   3.076 -0.1862 -0.1951 -0.6262
 1832SOL    MW4 7328   1.315   3.488   3.114 -0.3864 -0.2968 -0.4056
 1833SOL     OW 7329   1.514   3.658   3.020  0.1355 -0.0836 -0.1056
 1833SOL    HW2 7330   1.441   3.603   3.048 -1.5779  1.9168 -0.4796
 1833SOL    HW3 7331   1.519   3.646   2.925 -0.5771  0.7572 -0.2604
 1833SOL    MW4 7332   1.505   3.649   3.011 -0.1846  0.2913 -0.1754
 1834SOL     OW 7333   1.540   3.926   3.126 -0.0277 -0.1840  0.2241
 1834SOL    HW2 7334   1.623   3.942   3.079 -0.7303  1.2434 -0.5878
 1834SOL    HW3 7335   1.508   3.843   3.091  0.8803 -0.5600  0.2767
 1834SOL    MW4 7336   1.547   3.917   3.115 -0.0006 -0.0453  0.1239
 1835SOL     OW 7337   1.312   4.043   3.023  0.1976 -0.5361  0.1237
 1835SOL    HW2 7338   1.390   3.999   3.056  0.5056 -0.9829 -1.1735
 1835SOL    HW3 7339   1.240   3.987   3.050  0.4970 -1.2319 -0.5266
 1835SOL    MW4 7340   1.313   4.030   3.031  0.2778 -0.6868 -0.1333
 1836SOL     OW 7341   1.313   4.317   3.121  0.1096  0.1644  0.4426
 1836SOL    HW2 7342   1.300   4.229   3.086  0.1072  0.3813 -0.1063
 1836SOL    HW3 7343   1.238   4.367   3.091  1.1417  0.8826 -1.0020
 1836SOL    MW4 7344   1.302   4.312   3.112  0.2455  0.2878  0.1796
 1837SOL     OW 7345   1.536   4.374   2.958 -0.1214 -0.2313  0.0225
 1837SOL    HW2 7346   1.471   4.337   3.019  0.2220 -0.5589  0.1899
 1837SOL    HW3 7347   1.553   4.462   2.991 -2.0967  0.6737 -1.2518
 1837SOL    MW4 7348   1.529   4.381   2.970 -0.3367 -0.1551 -0.1236
 1838SOL     OW 7349   2.071   4.626   3.065 -0.3954 -0.1337  0.7508
 1838SOL    HW2 7350   2.046   4.612   3.157 -1.7472  0.7032  0.5167
 1838SOL    HW3 7351   2.000   4.679   3.029  0.2445 -0.2797 -0.7279
 1838SOL    MW4 7352   2.058   4.631   3.072 -0.4893 -0.0425  0.5248
 1839SOL     OW 7353   1.828   0.096   2.976  0.1375 -0.1349  0.4614
 1839SOL    HW2 7354   1.751   0.051   3.012 -1.5818  2.6006  0.3428
 1839SOL    HW3 7355   1.808   0.107   2.883  0.8196  0.2939  0.3652
 1839SOL    MW4 7356   1.815   0.091   2.969  0.0007  0.2826  0.4330
 1840SOL     OW 7357   1.830   0.381   3.106 -0.2706  0.1199 -0.2990
 1840SOL    HW2 7358   1.856   0.295   3.073 -1.9048 -0.5970  0.2227
 1840SOL    HW3 7359   1.753   0.405   3.054 -2.5912 -0.8071  2.5511
 1840SOL    MW4 7360   1.823   0.373   3.095 -0.7924 -0.0970  0.1459
 1841SOL     OW 7361   2.037   0.519   2.945 -0.1090  0.0806 -0.2097
 1841SOL    HW2 7362   1.974   0.467   2.997 -0.4550 -0.3012 -0.9998
 1841SOL    HW3 7363   2.014   0.500   2.854  1.0742  0.0529 -0.5049
 1841SOL    MW4 7364   2.025   0.510   2.940  0.0015  0.0266 -0.3529
 1842SOL     OW 7365   2.077   0.776   3.098 -0.3092  0.2478  0.1744
 1842SOL    HW2 7366   1.992   0.818   3.087 -0.9799 -1.0994  0.0883
 1842SOL    HW3 7367   2.072   0.697   3.044  1.1136  0.3259 -0.0823
 1842SOL    MW4 7368   2.065   0.771   3.090 -0.2100  0.0804  0.1292
 1843SOL     OW 7369   1.830   0.908   3.016  0.0489 -0.4415  0.3460
 1843SOL    HW2 7370   1.753   0.855   3.035  1.1808 -2.2442  0.0951
 1843SOL    HW3 7371   1.833   0.912   2.920 -1.4422  2.2551  0.3790
 1843SOL    MW4 7372   1.820   0.902   3.006  0.0015 -0.3236  0.3173
 1844SOL     OW 7373   1.802   1.184   3.056  0.0263  0.1204 -0.2206
 1844SOL    HW2 7374   1.821   1.200   3.148  0.0423 -0.1421 -0.1779
 1844SOL    HW3 7375   1.802   1.088   3.047 -1.2218  0.1053 -0.2313
 1844SOL    MW4 7376   1.804   1.173   3.067 -0.1363  0.0838 -0.2164
 1845SOL     OW 7377   2.069   1.280   2.952  0.3160  0.2234 -0.3731
 1845SOL    HW2 7378   2.136   1.261   3.018 -0.2542  1.2969  0.5297
 1845SOL    HW3 7379   1.992   1.231   2.981 -0.0260  0.9300 -0.0631
 1845SOL    MW4 7380   2.068   1.271   2.964  0.1956  0.4583 -0.2131
 1846SOL     OW 7381   1.991   1.537   3.045 -0.0896 -0.1480  0.1223
 1846SOL    HW2 7382   2.018   1.546   3.136 -1.3977  0.9976  0.4133
 1846SOL    HW3 7383   2.014   1.447   3.022 -0.3470 -0.6551  1.7874
 1846SOL    MW4 7384   1.998   1.526   3.054 -0.2962 -0.0638  0.3804
 1847SOL     OW 7385   1.777   1.689   2.949  0.0815  0.0878 -0.3456
 1847SOL    HW2 7386   1.811   1.776   2.971  0.7059 -0.3254  0.3329
 1847SOL    HW3 7387   1.838   1.628   2.991 -0.5284 -0.6764 -0.5644
 1847SOL    MW4 7388   1.790   1.693   2.957  0.0834 -0.0675 -0.2849
 1848SOL     OW 7389   1.823   1.938   3.122  0.5541 -0.1553  0.0132
 1848SOL    HW2 7390   1.892   1.975   3.067  0.6205  1.0446  0.8902
 1848SOL    HW3 7391   1.742   1.974   3.087  0.4025 -1.1831 -0.7117
 1848SOL    MW4 7392   1.822   1.948   3.110  0.5428 -0.1326  0.0333
 1849SOL     OW 7393   2.030   2.069   2.972  0.1411  0.2112 -0.3719
 1849SOL    HW2 7394   2.102   2.036   3.026  0.4965  1.4844 -0.0371
 1849SOL    HW3 7395   2.013   2.157   3.007 -1.2493  0.1062 -0.7625
 1849SOL    MW4 7396   2.037   2.077   2.984  0.0046  0.3654 -0.3793
 1850SOL     OW 7397   2.024   2.322   3.068  0.3603  0.2495 -0.1287
 1850SOL    HW2 7398   2.093   2.376   3.029  0.0476 -0.2086 -1.3324
 1850SOL    HW3 7399   1.945   2.375   3.062  0.2036 -0.0406 -0.6098
 1850SOL    MW4 7400   2.023   2.336   3.062  0.2984  0.1507 -0.3510
 1851SOL     OW 7401   1.816   2.491   3.019  0.3415 -0.0716 -0.5523
 1851SOL    HW2 7402   1.806   2.582   3.048 -2.6961 -1.0153  1.6054
 1851SOL    HW3 7403   1.732   2.450   3.040  1.8901 -3.5527 -0.8707
 1851SOL    MW4 7404   1.804   2.498   3.026  0.1451 -0.6554 -0.3096
 1852SOL     OW 7405   1.777   2.759   3.093 -0.1443  0.6198 -0.3203
 1852SOL    HW2 7406   1.777   2.741   3.187  0.3633 -0.5396 -0.5300
 1852SOL    HW3 7407   1.862   2.799   3.076 -0.3211  1.0245 -0.2494
 1852SOL    MW4 7408   1.788   2.762   3.103 -0.1007  0.5203 -0.3386
 1853SOL     OW 7409   2.009   2.853   3.010  0.0629  0.3289 -0.2435
 1853SOL    HW2 7410   2.016   2.947   3.025  0.1377  0.4768 -1.2007
 1853SOL    HW3 7411   1.995   2.844   2.916 -1.3749 -0.5401  0.0301
 1853SOL    MW4 7412   2.008   2.864   3.000 -0.1169  0.2337 -0.3337
 1854SOL     OW 7413   2.000   3.139   3.069  0.0215 -0.1450  0.1049
 1854SOL    HW2 7414   2.011   3.146   3.164 -0.7991  0.4090  0.1600
 1854SOL    HW3 7415   1.917   3.183   3.051 -1.5341 -3.1663 -0.4504
 1854SOL    MW4 7416   1.990   3.145   3.079 -0.2920 -0.4705  0.0389
 1855SOL     OW 7417   1.766   3.269   2.984  0.4939  0.0059 -0.3768
 1855SOL    HW2 7418   1.688   3.223   3.016  0.8895  0.0171  0.6157
 1855SOL    HW3 7419   1.785   3.228   2.900  0.6114 -1.3833  0.3193
 1855SOL    MW4 7420   1.758   3.258   2.977  0.5616 -0.1759 -0.1540
 1856SOL     OW 7421   1.767   3.532   3.060  0.3077 -0.0925  0.4518
 1856SOL    HW2 7422   1.750   3.443   3.028  0.4685  0.6046 -1.6723
 1856SOL    HW3 7423   1.682   3.575   3.057  0.6377  0.4974 -0.7607
 1856SOL    MW4 7424   1.754   3.526   3.055  0.3725  0.0773  0.0116
 1857SOL     OW 7425   2.014   3.631   2.979 -0.2004  0.1720  0.0691
 1857SOL    HW2 7426   2.019   3.721   3.010  0.3704  0.1006  0.1839
 1857SOL    HW3 7427   1.923   3.606   2.994 -0.2982  0.6445  0.2745
 1857SOL    MW4 7428   2.003   3.639   2.985 -0.1380  0.2249  0.1114
 1858SOL     OW 7429   2.042   3.890   3.067  0.0922  0.7323  0.2093
 1858SOL    HW2 7430   2.031   3.884   3.162  0.2366  0.4371  0.2064
 1858SOL    HW3 7431   1.958   3.925   3.036 -0.9097 -1.6211  0.1758
 1858SOL    MW4 7432   2.029   3.894   3.076 -0.0209  0.3829  0.2045
 1859SOL     OW 7433   1.794   3.975   2.997 -0.3310 -0.3399  0.4543
 1859SOL    HW2 7434   1.796   4.068   3.020  0.2528 -0.0943 -0.5636
 1859SOL    HW3 7435   1.780   3.974   2.902 -1.0790 -1.3056  0.5720
 1859SOL    MW4 7436   1.793   3.987   2.987 -0.3527 -0.4349  0.3355
 1860SOL     OW 7437   1.785   4.243   3.048  0.1085  0.0089 -0.2165
 1860SOL    HW2 7438   1.861   4.294   3.018  0.6175 -1.1084 -0.8368
 1860SOL    HW3 7439   1.712   4.278   2.997  0.2139  1.0198  0.3071
 1860SOL    MW4 7440   1.786   4.254   3.037  0.1895 -0.0051 -0.2293
 1861SOL     OW 7441   2.010   4.375   2.949  0.1733  0.5600  0.0644
 1861SOL    HW2 7442   2.044   4.459   2.981 -0.5578  0.5616  0.8484
 1861SOL    HW3 7443   1.991   4.391   2.856  0.3207  1.1676  0.1345
 1861SOL    MW4 7444   2.012   4.388   2.941  0.0963  0.6404  0.1771
 1862SOL     OW 7445   2.468   4.658   3.091  0.1590  0.0519 -0.0869
 1862SOL    HW2 7446   2.479   4.576   3.044 -1.7251 -0.5501  0.4526
 1862SOL    HW3 7447   2.390   4.697   3.052  0.9203  1.4812 -0.1901
 1862SOL    MW4 7448   2.459   4.652   3.080  0.0108  0.1611 -0.0293
 1863SOL     OW 7449   2.262   0.115   2.948 -0.0125  0.2127  0.2210
 1863SOL    HW2 7450   2.248   0.197   2.995 -0.2454 -0.0506  0.6254
 1863SOL    HW3 7451   2.201   0.054   2.990 -1.0874  0.2669 -1.2018
 1863SOL    MW4 7452   2.252   0.118   2.960 -0.1850  0.1851  0.0866
 1864SOL     OW 7453   2.246   0.378   3.046 -0.1268  0.6257  0.0825
 1864SOL    HW2 7454   2.211   0.375   3.135 -1.0151  1.4938 -0.2371
 1864SOL    HW3 7455   2.186   0.435   2.998  0.1035 -0.1726 -1.1841
 1864SOL    MW4 7456   2.234   0.385   3.051 -0.2137  0.6349 -0.1268
 1865SOL     OW 7457   2.514   0.512   2.999 -0.0596  0.2374 -0.0991
 1865SOL    HW2 7458   2.430   0.468   3.015  0.4341 -0.7482 -0.1992
 1865SOL    HW3 7459   2.522   0.515   2.904 -0.4773  1.3128 -0.1172
 1865SOL    MW4 7460   2.504   0.507   2.989 -0.0496  0.2492 -0.1147
 1866SOL     OW 7461   2.495   0.774   3.138 -0.1522  0.0793  0.0649
 1866SOL    HW2 7462   2.566   0.816   3.090 -0.1788  0.3473  0.2602
 1866SOL    HW3 7463   2.487   0.687   3.098 -0.2662  0.3502 -0.5072
 1866SOL    MW4 7464   2.503   0.768   3.127 -0.1707  0.1504  0.0152
 1867SOL     OW 7465   2.287   0.912   2.997  0.3514  0.0288  0.1296
 1867SOL    HW2 7466   2.357   0.870   3.047  1.4644  0.3428 -1.1232
 1867SOL    HW3 7467   2.206   0.871   3.028  1.2638 -1.7460  0.1791
 1867SOL    MW4 7468   2.285   0.901   3.008  0.6186 -0.1639 -0.0292
 1868SOL     OW 7469   2.283   1.176   3.074  0.5728 -0.4015  0.2297
 1868SOL    HW2 7470   2.290   1.173   3.169 -0.1240  0.1537  0.2997
 1868SOL    HW3 7471   2.284   1.085   3.047 -2.2606 -0.6982  0.9933
 1868SOL    MW4 7472   2.284   1.164   3.083  0.1070 -0.3674  0.3397
 1869SOL     OW 7473   2.496   1.331   2.975  0.3989  0.1196 -0.2421
 1869SOL    HW2 7474   2.425   1.278   3.011  1.4547 -0.0607  1.6683
 1869SOL    HW3 7475   2.498   1.309   2.882 -1.7683 -0.1632 -0.2381
 1869SOL    MW4 7476   2.487   1.321   2.968  0.2523  0.0585  0.0105
 1870SOL     OW 7477   2.450   1.576   3.101 -0.0438 -0.1205 -0.0939
 1870SOL    HW2 7478   2.372   1.611   3.059  0.3538  0.3868 -0.4227
 1870SOL    HW3 7479   2.462   1.489   3.062  0.1529  0.2269 -0.8197
 1870SOL    MW4 7480   2.441   1.569   3.090  0.0346 -0.0077 -0.2331
 1871SOL     OW 7481   2.228   1.669   2.990  0.8150  0.2324  0.2033
 1871SOL    HW2 7482   2.140   1.642   3.015 -0.0830  2.4772 -0.4215
 1871SOL    HW3 7483   2.232   1.656   2.896  1.4345 -0.5926  0.3361
 1871SOL    MW4 7484   2.217   1.664   2.981  0.7783  0.4197  0.1384
 1872SOL     OW 7485   2.244   1.949   3.102  0.1542  0.1609  0.3114
 1872SOL    HW2 7486   2.331   1.984   3.083  0.2595  0.3566  1.1299
 1872SOL    HW3 7487   2.241   1.865   3.058  0.0316  1.0371 -1.3987
 1872SOL    MW4 7488   2.255   1.943   3.094  0.1519  0.3023  0.1937
 1873SOL     OW 7489   2.468   2.090   2.999  0.1039 -0.5592  0.2827
 1873SOL    HW2 7490   2.552   2.051   3.022  0.3534  0.1601  0.5708
 1873SOL    HW3 7491   2.471   2.099   2.903  0.6322  0.1287  0.3649
 1873SOL    MW4 7492   2.479   2.086   2.989  0.2066 -0.3735  0.3315
 1874SOL     OW 7493   2.510   2.358   3.112 -0.3793  0.1572 -0.0502
 1874SOL    HW2 7494   2.501   2.352   3.207 -0.0098  1.4146  0.0666
 1874SOL    HW3 7495   2.525   2.268   3.084  1.0758 -0.0226  1.2486
 1874SOL    MW4 7496   2.510   2.345   3.121 -0.1385  0.2994  0.1366
 1875SOL     OW 7497   2.263   2.449   2.995 -0.2279  0.1108  0.1868
 1875SOL    HW2 7498   2.257   2.544   3.000 -0.8831  0.0884 -0.1343
 1875SOL    HW3 7499   2.339   2.427   3.049 -0.9627  0.6943  1.4893
 1875SOL    MW4 7500   2.273   2.459   3.003 -0.4113  0.1848  0.3163
 1876SOL     OW 7501   2.267   2.727   3.080 -0.2972 -0.0096  0.0590
 1876SOL    HW2 7502   2.343   2.758   3.030  0.4180 -1.4792  0.1940
 1876SOL    HW3 7503   2.191   2.761   3.032  0.4371  1.7349  0.0874
 1876SOL    MW4 7504   2.267   2.736   3.067 -0.1059  0.0267  0.0805
 1877SOL     OW 7505   2.509   2.844   2.976 -0.2399  0.3186 -0.0615
 1877SOL    HW2 7506   2.477   2.932   2.997 -1.1229  0.0042 -0.0619
 1877SOL    HW3 7507   2.484   2.831   2.884 -2.9419 -1.1440  0.8370
 1877SOL    MW4 7508   2.501   2.854   2.967 -0.7129  0.0842  0.0570
 1878SOL     OW 7509   2.435   3.106   3.066  0.7998 -0.4173  0.7835
 1878SOL    HW2 7510   2.523   3.141   3.050  0.7242 -0.2745  0.6848
 1878SOL    HW3 7511   2.376   3.171   3.028  0.6667 -0.7446  0.4318
 1878SOL    MW4 7512   2.439   3.119   3.059  0.7722 -0.4417  0.7241
 1879SOL     OW 7513   2.221   3.283   2.969  0.0540 -0.3238  0.3423
 1879SOL    HW2 7514   2.218   3.358   3.028 -0.1470 -0.4136  0.4472
 1879SOL    HW3 7515   2.138   3.237   2.984 -0.5026  0.2769 -0.8255
 1879SOL    MW4 7516   2.209   3.287   2.979 -0.0460 -0.2564  0.2020
 1880SOL     OW 7517   2.216   3.497   3.135  0.5055  0.4441  0.4266
 1880SOL    HW2 7518   2.293   3.548   3.111 -0.6043  0.6205 -2.9454
 1880SOL    HW3 7519   2.143   3.542   3.095 -1.0552 -1.2550  1.2685
 1880SOL    MW4 7520   2.217   3.509   3.127  0.1532  0.2432  0.0928
 1881SOL     OW 7521   2.463   3.598   3.055  0.2482 -0.5658 -0.2213
 1881SOL    HW2 7522   2.541   3.552   3.086 -0.7190 -0.6193  2.2092
 1881SOL    HW3 7523   2.477   3.689   3.081 -0.0455 -0.3861 -0.6884
 1881SOL    MW4 7524   2.475   3.604   3.062  0.0818 -0.5491  0.0377
 1882SOL     OW 7525   2.479   3.876   3.085  0.4448  0.1072  0.0827
 1882SOL    HW2 7526   2.485   3.890   3.180 -2.0800  1.2059  0.1272
 1882SOL    HW3 7527   2.557   3.918   3.050  1.2112  0.0427  1.6491
 1882SOL    MW4 7528   2.490   3.883   3.093  0.2128  0.2436  0.2952
 1883SOL     OW 7529   2.263   3.995   2.974 -0.0375  0.0814  0.1776
 1883SOL    HW2 7530   2.343   3.955   3.007 -0.4813 -0.4656  0.5873
 1883SOL    HW3 7531   2.192   3.953   3.023 -0.5882  0.4536 -0.2880
 1883SOL    MW4 7532   2.264   3.984   2.985 -0.1687  0.0583  0.1703
 1884SOL     OW 7533   2.247   4.253   3.052 -0.0013 -0.1075  0.1351
 1884SOL    HW2 7534   2.255   4.164   3.017  0.2214  0.3552 -1.0153
 1884SOL    HW3 7535   2.177   4.292   3.000  0.8862  0.8581 -0.3525
 1884SOL    MW4 7536   2.239   4.246   3.041  0.1452  0.0810 -0.0810
 1885SOL     OW 7537   2.480   4.398   2.937  0.2354 -0.4567  0.1041
 1885SOL    HW2 7538   2.412   4.342   2.975 -0.3110  0.0018 -0.1860
 1885SOL    HW3 7539   2.477   4.379   2.843  1.2674 -1.2486  0.2317
 1885SOL    MW4 7540   2.470   4.389   2.930  0.2995 -0.5007  0.0827
 1886SOL     OW 7541   2.922   4.624   3.096  0.2920 -0.3810 -0.1347
 1886SOL    HW2 7542   2.984   4.684   3.054 -0.3074  0.3865  0.0509
 1886SOL    HW3 7543   2.926   4.544   3.044  0.3225  0.1923 -1.0211
 1886SOL    MW4 7544   2.931   4.622   3.084  0.2169 -0.2041 -0.2272
 1887SOL     OW 7545   2.723   0.104   2.980 -0.1274 -0.3987 -0.2713
 1887SOL    HW2 7546   2.784   0.043   3.022  0.8243  1.2407  0.8111
 1887SOL    HW3 7547   2.637   0.081   3.016  0.3417 -0.5615  0.7712
 1887SOL    MW4 7548   2.720   0.093   2.991  0.0601 -0.2039  0.0091
 1888SOL     OW 7549   2.747   0.361   3.097  0.0198  0.4712  0.0402
 1888SOL    HW2 7550   2.742   0.276   3.054  0.3210  0.3919  0.1593
 1888SOL    HW3 7551   2.674   0.411   3.061  0.4676  0.5200 -0.8022
 1888SOL    MW4 7552   2.736   0.356   3.087  0.1186  0.4672 -0.0552
 1889SOL     OW 7553   2.964   0.494   3.008 -0.2499  0.5714  0.5374
 1889SOL    HW2 7554   2.896   0.440   3.048  1.0175 -1.3795  0.0931
 1889SOL    HW3 7555   2.958   0.475   2.914  1.0043  0.2844  0.5180
 1889SOL    MW4 7556   2.954   0.485   3.001  0.0828  0.2761  0.4762
 1890SOL     OW 7557   2.966   0.766   3.075 -0.3515  0.4387 -0.3663
 1890SOL    HW2 7558   2.948   0.773   3.169 -0.0199  1.6121 -0.3842
 1890SOL    HW3 7559   2.951   0.674   3.055 -0.2086  0.1298  0.8845
 1890SOL    MW4 7560   2.962   0.755   3.085 -0.2889  0.5528 -0.2037
 1891SOL     OW 7561   2.698   0.895   2.994 -0.0391 -0.3027  0.1123
 1891SOL    HW2 7562   2.713   0.989   3.007 -1.7615 -0.1142  0.8745
 1891SOL    HW3 7563   2.779   0.854   3.026 -0.6439  0.7283  3.1811
 1891SOL    MW4 7564   2.711   0.902   3.000 -0.3461 -0.1418  0.6178
 1892SOL     OW 7565   2.720   1.170   3.076 -0.2893  0.4356  0.1230
 1892SOL    HW2 7566   2.797   1.200   3.027 -0.8256  1.1527 -0.2908
 1892SOL    HW3 7567   2.648   1.224   3.043 -1.0536 -0.5287  0.1877
 1892SOL    MW4 7568   2.721   1.181   3.065 -0.4609  0.4030  0.0770
 1893SOL     OW 7569   2.948   1.304   2.935 -0.6995 -0.1153  0.0190
 1893SOL    HW2 7570   3.020   1.273   2.989 -1.0921 -0.6773  0.2126
 1893SOL    HW3 7571   2.919   1.385   2.978 -0.2736  0.0463  0.0092
 1893SOL    MW4 7572   2.954   1.311   2.948 -0.6951 -0.1681  0.0433
 1894SOL     OW 7573   2.900   1.564   3.046 -0.6562  0.5212  0.1531
 1894SOL    HW2 7574   2.896   1.549   3.140 -0.5876 -0.1481  0.0481
 1894SOL    HW3 7575   2.984   1.608   3.032 -0.2080 -0.2996  0.2740
 1894SOL    MW4 7576   2.910   1.568   3.057 -0.5880  0.3246  0.1552
 1895SOL     OW 7577   2.676   1.722   2.970 -0.2226  0.2197  0.0801
 1895SOL    HW2 7578   2.760   1.682   2.995  0.1545 -0.2304 -1.8020
 1895SOL    HW3 7579   2.611   1.673   3.019  0.4409 -1.1368 -0.3486
 1895SOL    MW4 7580   2.679   1.710   2.979 -0.0853 -0.0187 -0.2248
 1896SOL     OW 7581   2.687   1.968   3.105  0.3387 -0.8781  0.1905
 1896SOL    HW2 7582   2.773   2.009   3.097 -0.0041 -0.4864 -1.5848
 1896SOL    HW3 7583   2.693   1.889   3.053 -0.6230 -0.4501 -0.5835
 1896SOL    MW4 7584   2.699   1.963   3.097  0.1666 -0.7699 -0.1459
 1897SOL     OW 7585   2.950   2.053   3.065 -0.0251  0.1777  0.5393
 1897SOL    HW2 7586   2.969   2.138   3.105  0.7213  0.2457  0.0541
 1897SOL    HW3 7587   2.952   2.069   2.971  0.8741 -0.5285  0.4277
 1897SOL    MW4 7588   2.953   2.066   3.058  0.1920  0.0935  0.4605
 1898SOL     OW 7589   2.933   2.335   3.126  0.5010  0.2560 -0.3261
 1898SOL    HW2 7590   3.002   2.378   3.076  0.2596  1.2624  0.1873
 1898SOL    HW3 7591   2.851   2.371   3.091  0.3553  1.7626  1.4612
 1898SOL    MW4 7592   2.931   2.345   3.115  0.4499  0.5876 -0.0226
 1899SOL     OW 7593   2.716   2.457   2.964 -0.4532 -0.3700  0.1897
 1899SOL    HW2 7594   2.725   2.551   2.983 -1.3884 -0.1395 -0.5000
 1899SOL    HW3 7595   2.638   2.430   3.013  0.8401 -1.1997  1.8511
 1899SOL    MW4 7596   2.707   2.466   2.973 -0.4059 -0.4490  0.3179
 1900SOL     OW 7597   2.734   2.690   3.094 -0.4919 -0.2320 -0.1239
 1900SOL    HW2 7598   2.728   2.671   3.187 -2.0975  1.7765  0.2112
 1900SOL    HW3 7599   2.670   2.759   3.079  0.1833 -0.0862 -2.6030
 1900SOL    MW4 7600   2.725   2.697   3.104 -0.6146  0.0523 -0.4068
 1901SOL     OW 7601   2.943   2.848   2.967  0.0139  0.7689 -0.5712
 1901SOL    HW2 7602   3.030   2.821   2.996  0.2786  0.3537 -1.7280
 1901SOL    HW3 7603   2.883   2.784   3.007  0.4237 -0.1229 -1.3654
 1901SOL    MW4 7604   2.946   2.836   2.976  0.1029  0.5964 -0.8286
 1902SOL     OW 7605   2.924   3.084   3.102 -0.3522 -0.2115  0.0003
 1902SOL    HW2 7606   2.839   3.120   3.078 -0.0005  0.3064 -0.4772
 1902SOL    HW3 7607   2.926   2.998   3.062 -0.7702 -0.3456  0.2614
 1902SOL    MW4 7608   2.913   3.077   3.094 -0.3609 -0.1609 -0.0283
 1903SOL     OW 7609   2.685   3.198   3.029  0.0049 -0.2010 -0.1389
 1903SOL    HW2 7610   2.677   3.291   3.048  1.2386 -0.1750  0.2826
 1903SOL    HW3 7611   2.700   3.193   2.934 -1.0510 -0.0368 -0.3186
 1903SOL    MW4 7612   2.686   3.209   3.019  0.0284 -0.1759 -0.1070
 1904SOL     OW 7613   2.684   3.458   3.135 -0.2953  0.3996 -0.2056
 1904SOL    HW2 7614   2.701   3.476   3.228  1.1695 -0.0574 -0.3715
 1904SOL    HW3 7615   2.759   3.496   3.089 -0.0984 -0.9700 -1.0405
 1904SOL    MW4 7616   2.696   3.466   3.141 -0.0761  0.1586 -0.3376
 1905SOL     OW 7617   2.883   3.622   3.024  0.2640 -0.3948 -0.0435
 1905SOL    HW2 7618   2.970   3.589   3.047  0.0047 -1.7509 -1.0017
 1905SOL    HW3 7619   2.881   3.710   3.062  2.6522  0.2952 -1.3842
 1905SOL    MW4 7620   2.895   3.629   3.032  0.5449 -0.4827 -0.3468
 1906SOL     OW 7621   2.933   3.913   3.092 -0.6559 -0.2333 -0.2736
 1906SOL    HW2 7622   2.915   3.924   3.186 -0.1308 -0.0257 -0.1944
 1906SOL    HW3 7623   2.858   3.952   3.049 -1.0692 -0.6474  0.0672
 1906SOL    MW4 7624   2.921   3.920   3.099 -0.6411 -0.2605 -0.2182
 1907SOL     OW 7625   2.701   4.016   2.971 -0.3144  0.0938  0.2231
 1907SOL    HW2 7626   2.705   4.109   2.993 -0.9512  0.3106 -0.5530
 1907SOL    HW3 7627   2.665   4.013   2.883  0.2351 -0.8685  0.0186
 1907SOL    MW4 7628   2.697   4.028   2.963 -0.3259 -0.0046  0.0937
 1908SOL     OW 7629   2.706   4.282   3.048  0.1872  0.0977 -0.1717
 1908SOL    HW2 7630   2.686   4.270   3.141 -0.7678 -1.0633 -0.5190
 1908SOL    HW3 7631   2.633   4.336   3.015 -0.3046 -0.8122 -0.5826
 1908SOL    MW4 7632   2.693   4.288   3.056 -0.0037 -0.1755 -0.2717
 1909SOL     OW 7633   2.957   4.372   2.976  0.2126  0.4499  0.2047
 1909SOL    HW2 7634   3.025   4.308   2.997  0.2784  0.4239 -0.0879
 1909SOL    HW3 7635   2.876   4.334   3.011  0.5694  1.1612  1.8887
 1909SOL    MW4 7636   2.955   4.359   2.984  0.2684  0.5403  0.3883
 1910SOL     OW 7637   3.373   4.645   3.108 -0.8147  0.2631 -0.1290
 1910SOL    HW2 7638   3.468   4.659   3.100 -0.8146 -0.0904 -0.7834
 1910SOL    HW3 7639   3.361   4.551   3.093 -1.3240  0.4020 -0.6247
 1910SOL    MW4 7640   3.384   4.634   3.105 -0.8819  0.2348 -0.2807
 1911SOL     OW 7641   3.136   0.106   2.996 -0.1907 -0.5277  0.0065
 1911SOL    HW2 7642   3.150   0.191   3.037 -2.4228 -0.3087  0.3965
 1911SOL    HW3 7643   3.211   0.053   3.024  0.6091  0.9626  0.7150
 1911SOL    MW4 7644   3.147   0.110   3.005 -0.3797 -0.3022  0.1514
 1912SOL     OW 7645   3.199   0.361   3.102 -0.0723 -0.1926  0.2453
 1912SOL    HW2 7646   3.282   0.399   3.072 -0.1355  0.8222  1.3073
 1912SOL    HW3 7647   3.132   0.414   3.059 -0.1700 -0.8289 -0.3861
 1912SOL    MW4 7648   3.201   0.373   3.092 -0.0935 -0.1427  0.3021
 1913SOL     OW 7649   3.418   0.532   2.997  0.0002  0.1507  0.1925
 1913SOL    HW2 7650   3.493   0.478   3.024 -0.4558  0.0181  1.2160
 1913SOL    HW3 7651   3.396   0.501   2.910  0.6870 -0.3053  0.1747
 1913SOL    MW4 7652   3.425   0.521   2.989  0.0307  0.0731  0.3252
 1914SOL     OW 7653   3.404   0.787   3.088 -0.5644 -0.2035 -0.1211
 1914SOL    HW2 7654   3.401   0.785   3.183  2.0746  0.1264  0.0029
 1914SOL    HW3 7655   3.406   0.695   3.062 -1.4828 -0.2954  0.1233
 1914SOL    MW4 7656   3.404   0.775   3.097 -0.3374 -0.1721 -0.0725
 1915SOL     OW 7657   3.172   0.896   2.947  0.2367  0.6250 -0.4697
 1915SOL    HW2 7658   3.252   0.862   2.988  0.2743 -0.2479 -1.2479
 1915SOL    HW3 7659   3.101   0.851   2.991  0.2008  0.9428 -0.2025
 1915SOL    MW4 7660   3.173   0.886   2.958  0.2369  0.5517 -0.5371
 1916SOL     OW 7661   3.143   1.146   3.068  0.7812 -0.2558 -0.2256
 1916SOL    HW2 7662   3.229   1.180   3.042  0.7174 -0.9607 -1.3881
 1916SOL    HW3 7663   3.143   1.055   3.036 -0.1035 -0.4950  0.4496
 1916SOL    MW4 7664   3.155   1.138   3.060  0.6561 -0.3803 -0.2899
 1917SOL     OW 7665   3.381   1.264   2.998 -0.1227  0.2866 -0.2349
 1917SOL    HW2 7666   3.469   1.231   3.017 -0.6270 -1.0636 -0.1361
 1917SOL    HW3 7667   3.388   1.359   3.005  1.2520  0.1700  0.0801
 1917SOL    MW4 7668   3.394   1.272   3.001 -0.0079  0.0931 -0.1803
 1918SOL     OW 7669   3.396   1.548   3.080  0.0987 -0.0116  0.0338
 1918SOL    HW2 7670   3.392   1.542   3.175 -0.0446  1.4314  0.1387
 1918SOL    HW3 7671   3.474   1.601   3.063  0.6331 -1.0138 -0.6920
 1918SOL    MW4 7672   3.406   1.554   3.090  0.1503  0.0466 -0.0481
 1919SOL     OW 7673   3.159   1.651   3.008  0.2789 -0.7839  0.1017
 1919SOL    HW2 7674   3.238   1.607   3.037  1.2534  0.2540 -0.9116
 1919SOL    HW3 7675   3.162   1.646   2.912  0.4433  1.4495 -0.0483
 1919SOL    MW4 7676   3.170   1.645   2.999  0.4292 -0.3523 -0.0518
 1920SOL     OW 7677   3.162   1.877   3.139  0.3772 -0.2898  0.5928
 1920SOL    HW2 7678   3.156   1.799   3.083 -0.0981 -0.5168  0.9511
 1920SOL    HW3 7679   3.082   1.926   3.119  0.3321 -0.2457  0.8878
 1920SOL    MW4 7680   3.150   1.873   3.129  0.3085 -0.3139  0.6790
 1921SOL     OW 7681   3.365   2.053   3.044 -0.0979  0.3655  0.9074
 1921SOL    HW2 7682   3.448   2.010   3.063  0.1113 -0.0551 -0.9148
 1921SOL    HW3 7683   3.299   1.987   3.064  0.1772 -0.4859 -0.8874
 1921SOL    MW4 7684   3.367   2.039   3.049 -0.0340  0.1977  0.4302
 1922SOL     OW 7685   3.339   2.341   3.095  0.3430 -0.0117  0.0734
 1922SOL    HW2 7686   3.344   2.335   3.191  0.6187  0.6841  0.1039
 1922SOL    HW3 7687   3.338   2.250   3.066  1.5701 -0.2318  0.6778
 1922SOL    MW4 7688   3.340   2.328   3.104  0.5413  0.0510  0.1572
 1923SOL     OW 7689   3.126   2.501   3.020  0.5006  0.1797  0.0030
 1923SOL    HW2 7690   3.194   2.456   3.070  1.4304  1.0428 -0.4651
 1923SOL    HW3 7691   3.147   2.482   2.928 -0.7711 -0.7917 -0.0955
 1923SOL    MW4 7692   3.138   2.493   3.014  0.4555  0.1654 -0.0717
 1924SOL     OW 7693   3.183   2.766   3.069 -0.4700 -0.3294  0.3569
 1924SOL    HW2 7694   3.170   2.784   3.163 -0.5999 -0.4887  0.3688
 1924SOL    HW3 7695   3.157   2.675   3.058 -0.6732 -0.2436  0.1213
 1924SOL    MW4 7696   3.178   2.757   3.080 -0.5139 -0.3391  0.3274
 1925SOL     OW 7697   3.424   2.850   3.014  0.3095 -0.9191  0.0826
 1925SOL    HW2 7698   3.432   2.941   3.042 -1.2317 -0.5935 -0.5068
 1925SOL    HW3 7699   3.340   2.821   3.048  1.5333 -2.6783  1.7220
 1925SOL    MW4 7700   3.414   2.858   3.022  0.2676 -1.1082  0.2211
 1926SOL     OW 7701   3.610   3.218   3.050 -0.1251 -0.2989  0.6960
 1926SOL    HW2 7702   3.520   3.193   3.071 -0.0245 -0.3285  1.1020
 1926SOL    HW3 7703   3.617   3.206   2.955 -0.2103 -1.4037  0.8211
 1926SOL    MW4 7704   3.599   3.213   3.040 -0.1231 -0.4485  0.7661
 1927SOL     OW 7705   3.147   3.255   3.026 -0.2542 -0.4922  0.0115
 1927SOL    HW2 7706   3.070   3.200   3.043 -1.2322  0.8418  0.0016
 1927SOL    HW3 7707   3.154   3.257   2.930 -0.3413 -0.4359  0.0060
 1927SOL    MW4 7708   3.138   3.248   3.015 -0.3947 -0.3088  0.0095
 1928SOL     OW 7709   3.142   3.530   3.078  0.3193 -0.2622  0.2086
 1928SOL    HW2 7710   3.224   3.567   3.045  0.8368 -0.6635  1.0358
 1928SOL    HW3 7711   3.150   3.435   3.063  0.0610 -0.3172  0.4066
 1928SOL    MW4 7712   3.154   3.522   3.072  0.3535 -0.3224  0.3438
 1929SOL     OW 7713   3.391   3.624   3.001 -0.1000  0.0269  0.2196
 1929SOL    HW2 7714   3.471   3.591   3.041  0.0607 -0.3302 -0.3910
 1929SOL    HW3 7715   3.378   3.710   3.041 -0.3546 -0.6352  1.6032
 1929SOL    MW4 7716   3.400   3.631   3.012 -0.1124 -0.1076  0.3216
 1930SOL     OW 7717   3.397   3.895   3.066 -0.6526  0.4703  0.4035
 1930SOL    HW2 7718   3.380   3.899   3.160 -2.3917 -0.7599  0.1715
 1930SOL    HW3 7719   3.324   3.942   3.027 -0.8354 -0.4704 -0.3977
 1930SOL    MW4 7720   3.385   3.902   3.074 -0.9062  0.1838  0.2672
 1931SOL     OW 7721   3.161   4.002   2.940  0.4107  0.0907 -0.0092
 1931SOL    HW2 7722   3.079   3.962   2.970  0.2292  0.7274  0.3566
 1931SOL    HW3 7723   3.154   4.000   2.844 -0.7898  1.6451  0.0220
 1931SOL    MW4 7724   3.149   3.996   2.931  0.2284  0.3798  0.0432
 1932SOL     OW 7725   3.175   4.230   3.096 -0.0802  0.5135 -0.0891
 1932SOL    HW2 7726   3.159   4.201   3.185  3.5498 -1.9605 -0.1492
 1932SOL    HW3 7727   3.168   4.150   3.043  0.4123  1.4977 -1.6625
 1932SOL    MW4 7728   3.172   4.216   3.101  0.4637  0.3170 -0.3046
 1933SOL     OW 7729   3.383   4.389   3.015  0.4182 -0.4340 -0.4128
 1933SOL    HW2 7730   3.463   4.344   3.043  1.3138  0.8796 -0.8385
 1933SOL    HW3 7731   3.312   4.329   3.039  1.3785 -0.6674  1.9545
 1933SOL    MW4 7732   3.384   4.375   3.022  0.6631 -0.2915 -0.1567
 1934SOL     OW 7733   3.853   4.635   3.098 -0.0904  0.2629  0.2167
 1934SOL    HW2 7734   3.866   4.545   3.068 -0.6633  0.7248 -1.4760
 1934SOL    HW3 7735   3.765   4.658   3.069 -0.3369  1.0249  1.5508
 1934SOL    MW4 7736   3.843   4.626   3.090 -0.1985  0.4244  0.1694
 1935SOL     OW 7737   3.611   0.078   3.048  0.6125  0.1427 -0.0594
 1935SOL    HW2 7738   3.608   0.172   3.061 -0.4948  0.2658 -1.0226
 1935SOL    HW3 7739   3.597   0.067   2.954 -1.3368 -1.0388  0.3311
 1935SOL    MW4 7740   3.608   0.089   3.037  0.2092  0.0030 -0.1350
 1936SOL     OW 7741   3.598   0.355   3.108  0.2820 -0.5008  0.4282
 1936SOL    HW2 7742   3.589   0.352   3.203 -1.0809  0.8971  0.3711
 1936SOL    HW3 7743   3.678   0.405   3.093 -1.7415  3.0220  0.8454
 1936SOL    MW4 7744   3.608   0.361   3.118 -0.1648  0.1484  0.4757
 1937SOL     OW 7745   3.823   0.501   3.022  0.5157  0.4552 -0.5222
 1937SOL    HW2 7746   3.906   0.467   3.057  0.0878 -0.8656 -0.7488
 1937SOL    HW3 7747   3.814   0.587   3.062  0.8092 -0.3813  1.4272
 1937SOL    MW4 7748   3.833   0.508   3.032  0.4979  0.1706 -0.2949
 1938SOL     OW 7749   3.822   0.758   3.138  0.1486 -0.5031 -0.4400
 1938SOL    HW2 7750   3.813   0.748   3.233 -0.7902 -0.0641 -0.4742
 1938SOL    HW3 7751   3.915   0.774   3.124 -0.1358  2.2746  0.6725
 1938SOL    MW4 7752   3.833   0.759   3.149 -0.0128 -0.0787 -0.2977
 1939SOL     OW 7753   3.622   0.890   2.994  0.1069  0.1729 -0.4799
 1939SOL    HW2 7754   3.688   0.833   3.033  0.4163  1.1676  0.4886
 1939SOL    HW3 7755   3.539   0.853   3.023  0.2145 -1.2581 -1.9528
 1939SOL    MW4 7756   3.620   0.878   3.003  0.1619  0.1153 -0.5464
 1940SOL     OW 7757   3.619   1.149   3.105  0.0743 -0.1073 -0.3181
 1940SOL    HW2 7758   3.695   1.196   3.069 -0.8923  0.8916 -1.1317
 1940SOL    HW3 7759   3.626   1.061   3.068  1.5024 -0.3951  0.6084
 1940SOL    MW4 7760   3.630   1.144   3.095  0.1352 -0.0135 -0.3032
 1941SOL     OW 7761   3.828   1.252   2.970  0.3375  0.0926 -0.0229
 1941SOL    HW2 7762   3.844   1.342   2.997 -0.7287  0.5963 -1.0344
 1941SOL    HW3 7763   3.794   1.259   2.881 -2.2423 -1.1237  0.8102
 1941SOL    MW4 7764   3.826   1.265   2.962 -0.1435 -0.0014 -0.0465
 1942SOL     OW 7765   3.863   1.527   3.049  0.4505  0.1727  0.6278
 1942SOL    HW2 7766   3.861   1.535   3.144 -1.2416 -1.3668  0.7330
 1942SOL    HW3 7767   3.785   1.574   3.019  0.7666  0.3185  0.0149
 1942SOL    MW4 7768   3.852   1.534   3.058  0.2690 -0.0112  0.5608
 1943SOL     OW 7769   3.624   1.667   2.991 -0.4543  0.3104  0.4374
 1943SOL    HW2 7770   3.603   1.749   3.036 -0.8001  0.8919 -0.7774
 1943SOL    HW3 7771   3.597   1.681   2.900 -0.2840 -1.0615  0.1641
 1943SOL    MW4 7772   3.618   1.680   2.985 -0.4774  0.2061  0.2411
 1944SOL     OW 7773   3.595   1.931   3.103  0.7833  0.0762 -0.4254
 1944SOL    HW2 7774   3.596   1.934   3.198 -0.6388 -0.9915 -0.3609
 1944SOL    HW3 7775   3.679   1.969   3.077  1.4541 -0.2096  1.2619
 1944SOL    MW4 7776   3.606   1.936   3.112  0.6842 -0.1024 -0.1942
 1945SOL     OW 7777   3.821   2.036   3.015 -0.4126  0.0667 -0.0755
 1945SOL    HW2 7778   3.794   2.123   3.043 -0.0789  0.7989 -2.0249
 1945SOL    HW3 7779   3.818   2.038   2.920  0.7670 -1.6773 -0.1818
 1945SOL    MW4 7780   3.817   2.048   3.006 -0.2129 -0.0668 -0.3467
 1946SOL     OW 7781   3.755   2.286   3.098  0.0680  0.4264 -0.2789
 1946SOL    HW2 7782   3.753   2.318   3.189 -1.8168  0.6187 -0.3711
 1946SOL    HW3 7783   3.681   2.331   3.056  1.3322  0.8371 -2.0845
 1946SOL    MW4 7784   3.745   2.296   3.105 -0.0139  0.5060 -0.5293
 1947SOL     OW 7785   3.560   2.476   2.992 -0.1986  0.3531  0.1827
 1947SOL    HW2 7786   3.567   2.557   3.043 -0.9050  0.7399 -0.3253
 1947SOL    HW3 7787   3.477   2.437   3.020 -0.4531  0.4248 -0.4642
 1947SOL    MW4 7788   3.550   2.482   3.003 -0.3254  0.4136  0.0304
 1948SOL     OW 7789   3.610   2.713   3.152 -0.0344 -0.1163 -0.1037
 1948SOL    HW2 7790   3.683   2.737   3.094  0.9537  1.1458  1.6163
 1948SOL    HW3 7791   3.537   2.767   3.121  0.2874  0.0267 -0.6312
 1948SOL    MW4 7792   3.610   2.724   3.140  0.1384  0.0691  0.0537
 1949SOL     OW 7793   3.835   2.794   3.021  0.8341  0.5196  0.1745
 1949SOL    HW2 7794   3.814   2.885   3.043 -3.9222 -0.2949 -0.4117
 1949SOL    HW3 7795   3.843   2.793   2.926 -0.1863  0.1566  0.0871
 1949SOL    MW4 7796   3.833   2.806   3.011  0.0720  0.3642  0.0856
 1950SOL     OW 7797   3.836   3.099   3.405 -0.1653 -0.3400  0.1298
 1950SOL    HW2 7798   3.902   3.161   3.438  0.0390 -0.7329  0.4618
 1950SOL    HW3 7799   3.849   3.099   3.310 -2.1816  2.4340 -0.1995
 1950SOL    MW4 7800   3.847   3.107   3.397 -0.4043 -0.0258  0.1302
 1951SOL     OW 7801   3.836   3.091   3.134 -0.4773  0.4600 -0.3042
 1951SOL    HW2 7802   3.752   3.119   3.099 -1.1116 -1.0909 -0.0339
 1951SOL    HW3 7803   3.900   3.120   3.069 -1.3112  0.6380 -1.0508
 1951SOL    MW4 7804   3.834   3.099   3.121 -0.6710  0.2789 -0.3670
 1952SOL     OW 7805   3.592   3.481   3.132  0.4486  0.3178  0.2346
 1952SOL    HW2 7806   3.680   3.511   3.110  1.5236 -1.5071  1.8652
 1952SOL    HW3 7807   3.589   3.391   3.100 -0.8701  0.4027  0.1083
 1952SOL    MW4 7808   3.604   3.473   3.125  0.4164  0.0882  0.4331
 1953SOL     OW 7809   3.832   3.590   3.024  0.8183  0.1450 -0.2670
 1953SOL    HW2 7810   3.839   3.680   3.055 -1.2571  0.6139 -1.0759
 1953SOL    HW3 7811   3.831   3.597   2.928 -1.0293 -0.5818 -0.3190
 1953SOL    MW4 7812   3.833   3.602   3.015  0.3007  0.1110 -0.3806
 1954SOL     OW 7813   3.854   3.856   3.095  0.3948 -0.8752  0.2155
 1954SOL    HW2 7814   3.856   3.877   3.189  0.3960  0.4296 -0.0694
 1954SOL    HW3 7815   3.781   3.907   3.061  0.2430 -1.5427 -0.4585
 1954SOL    MW4 7816   3.845   3.865   3.103  0.3749 -0.7911  0.0890
 1955SOL     OW 7817   3.642   3.978   2.975  0.3292 -0.2731 -0.0040
 1955SOL    HW2 7818   3.555   3.945   2.995  1.0316 -2.2165 -0.0557
 1955SOL    HW3 7819   3.649   3.972   2.879 -0.0623  1.4037 -0.1487
 1955SOL    MW4 7820   3.632   3.973   2.965  0.3702 -0.3083 -0.0299
 1956SOL     OW 7821   3.624   4.246   3.045  0.1249  0.0243  0.4869
 1956SOL    HW2 7822   3.707   4.286   3.018  0.0649  1.2173  2.0126
 1956SOL    HW3 7823   3.636   4.152   3.028  2.3052  0.0088  1.8975
 1956SOL    MW4 7824   3.637   4.239   3.040  0.4046  0.1797  0.8743
 1957SOL     OW 7825   3.856   4.370   2.994  0.1707 -0.1858  0.4776
 1957SOL    HW2 7826   3.940   4.334   3.023  0.3419 -0.5616 -0.4795
 1957SOL    HW3 7827   3.867   4.384   2.900 -0.6784  0.2169  0.4347
 1957SOL    MW4 7828   3.869   4.367   2.985  0.0813 -0.1822  0.3456
 1958SOL     OW 7829   4.270   0.025   3.116 -0.2488 -0.0222  0.0776
 1958SOL    HW2 7830   4.290   0.007   3.208  0.9085  0.6902 -0.0174
 1958SOL    HW3 7831   4.257  -0.061   3.077 -0.7767 -0.3298  0.9101
 1958SOL    MW4 7832   4.271   0.011   3.123 -0.1658  0.0312  0.1749
 1959SOL     OW 7833   4.038   0.134   2.987 -0.1755 -0.0374 -0.1259
 1959SOL    HW2 7834   4.117   0.096   3.025  0.0186 -0.3150 -0.7868
 1959SOL    HW3 7835   3.967   0.079   3.019  0.0378 -0.5646 -0.5475
 1959SOL    MW4 7836   4.039   0.122   2.996 -0.1218 -0.1436 -0.2687
 1960SOL     OW 7837   4.071   0.379   3.119 -0.0268  0.5212 -0.6533
 1960SOL    HW2 7838   4.138   0.427   3.071  1.4890 -1.1420 -0.2626
 1960SOL    HW3 7839   4.074   0.291   3.083 -1.9820  0.4045 -0.5749
 1960SOL    MW4 7840   4.080   0.374   3.108 -0.0847  0.2864 -0.5914
 1961SOL     OW 7841   4.280   0.549   3.004 -0.3891 -0.2149 -0.4732
 1961SOL    HW2 7842   4.276   0.640   3.035 -1.3240 -0.1519 -0.7818
 1961SOL    HW3 7843   4.282   0.556   2.909  0.3979 -0.4929 -0.4837
 1961SOL    MW4 7844   4.280   0.562   2.996 -0.4086 -0.2432 -0.5153
 1962SOL     OW 7845   4.292   0.807   3.117 -0.2405 -0.1928 -0.0567
 1962SOL    HW2 7846   4.216   0.828   3.063  0.5370 -0.5377 -1.3089
 1962SOL    HW3 7847   4.365   0.852   3.075  0.0032  1.4389  2.0479
 1962SOL    MW4 7848   4.291   0.815   3.104 -0.1058 -0.0230  0.0558
 1963SOL     OW 7849   4.080   0.864   2.979 -0.8711 -0.3526  0.5458
 1963SOL    HW2 7850   4.055   0.953   3.004 -0.4659 -0.4849  1.4280
 1963SOL    HW3 7851   4.067   0.862   2.884 -0.0348  0.9184  0.3842
 1963SOL    MW4 7852   4.075   0.876   2.970 -0.7073 -0.2023  0.6409
 1964SOL     OW 7853   4.070   1.132   3.042 -0.2488 -0.5200  0.0581
 1964SOL    HW2 7854   4.065   1.160   3.134 -0.3068 -1.3243  0.2989
 1964SOL    HW3 7855   3.987   1.161   3.004 -0.4443 -0.6401  0.3855
 1964SOL    MW4 7856   4.058   1.140   3.049 -0.2823 -0.6420  0.1331
 1965SOL     OW 7857   4.290   1.277   2.967 -0.1845  0.1951  0.2742
 1965SOL    HW2 7858   4.216   1.225   2.998  0.3866  0.0445  1.4176
 1965SOL    HW3 7859   4.277   1.285   2.872 -0.7423 -1.2789  0.2296
 1965SOL    MW4 7860   4.279   1.272   2.958 -0.1828 -0.0193  0.4192
 1966SOL     OW 7861   4.294   1.533   3.065  0.2415 -0.0093 -0.1224
 1966SOL    HW2 7862   4.216   1.566   3.021 -0.0340  0.4134  0.6693
 1966SOL    HW3 7863   4.295   1.440   3.046  0.9939  0.4132 -2.3509
 1966SOL    MW4 7864   4.284   1.525   3.057  0.3044  0.1022 -0.3120
 1967SOL     OW 7865   4.080   1.663   2.971 -0.0247 -0.5166 -0.4665
 1967SOL    HW2 7866   4.082   1.729   3.040 -0.3279 -0.6544 -0.3245
 1967SOL    HW3 7867   3.998   1.615   2.986 -0.7545  0.3207 -1.7401
 1967SOL    MW4 7868   4.069   1.665   2.982 -0.1610 -0.4243 -0.6158
 1968SOL     OW 7869   4.055   1.901   3.136 -0.2219 -0.1446 -0.0635
 1968SOL    HW2 7870   4.119   1.959   3.096  0.3873 -0.5660  0.3031
 1968SOL    HW3 7871   3.970   1.941   3.116  0.2278  1.2675  0.8135
 1968SOL    MW4 7872   4.052   1.914   3.128 -0.0822 -0.0139  0.1006
 1969SOL     OW 7873   4.249   2.048   3.000  0.0977 -0.1334 -0.0344
 1969SOL    HW2 7874   4.228   2.140   3.017 -1.8908 -0.6501  0.4465
 1969SOL    HW3 7875   4.226   2.034   2.908 -0.5275 -0.3963  0.1608
 1969SOL    MW4 7876   4.243   2.058   2.990 -0.2471 -0.2363  0.0548
 1970SOL     OW 7877   4.227   2.306   3.106 -0.1429  0.3628 -0.3221
 1970SOL    HW2 7878   4.146   2.348   3.075  0.5442  1.7820 -0.1992
 1970SOL    HW3 7879   4.295   2.342   3.050  0.3288 -1.4273 -0.9518
 1970SOL    MW4 7880   4.225   2.316   3.094  0.0100  0.3139 -0.3890
 1971SOL     OW 7881   3.988   2.404   3.029 -0.2220  0.6902  0.4255
 1971SOL    HW2 7882   3.993   2.485   3.081  0.5633  0.2245  1.0920
 1971SOL    HW3 7883   3.899   2.372   3.044  0.1758  0.2637  1.9652
 1971SOL    MW4 7884   3.977   2.410   3.038 -0.0659  0.5725  0.7166
 1972SOL     OW 7885   4.045   2.652   3.149 -0.0086 -0.3228 -0.0296
 1972SOL    HW2 7886   4.060   2.685   3.237  0.0932  0.2627 -0.2620
 1972SOL    HW3 7887   3.966   2.699   3.119  0.6241  0.3456 -0.6779
 1972SOL    MW4 7888   4.036   2.663   3.156  0.0883 -0.1574 -0.1458
 1973SOL     OW 7889   4.231   2.763   2.993 -0.3210 -0.1468  0.0687
 1973SOL    HW2 7890   4.163   2.735   3.053 -0.8154  0.9390  0.0321
 1973SOL    HW3 7891   4.313   2.733   3.033 -0.6892  0.0958  1.0060
 1973SOL    MW4 7892   4.233   2.756   3.006 -0.4348  0.0285  0.1875
 1974SOL     OW 7893   4.242   3.017   3.098 -0.4563 -0.1043 -0.0112
 1974SOL    HW2 7894   4.163   3.063   3.067 -0.9778 -0.2489  1.0603
 1974SOL    HW3 7895   4.235   2.929   3.061 -1.0869 -0.2839  0.5195
 1974SOL    MW4 7896   4.230   3.011   3.089 -0.6083 -0.1471  0.2002
 1975SOL     OW 7897   4.047   3.198   2.980 -0.5973  0.2524 -0.0265
 1975SOL    HW2 7898   4.071   3.285   3.011 -0.0883  0.4052 -0.8502
 1975SOL    HW3 7899   4.052   3.204   2.885 -0.1774 -0.7914 -0.0710
 1975SOL    MW4 7900   4.051   3.210   2.972 -0.4748  0.1349 -0.1411
 1976SOL     OW 7901   4.076   3.448   3.085 -0.3468 -0.2695  0.0109
 1976SOL    HW2 7902   4.085   3.464   3.179  1.2268  0.9388 -0.3179
 1976SOL    HW3 7903   3.995   3.492   3.061 -0.1394  0.4357  0.5861
 1976SOL    MW4 7904   4.067   3.456   3.094 -0.1118 -0.0170  0.0434
 1977SOL     OW 7905   4.283   3.575   2.954 -0.1136  0.2746  0.3796
 1977SOL    HW2 7906   4.284   3.661   2.995 -0.1241  0.3916  0.1337
 1977SOL    HW3 7907   4.200   3.536   2.982  0.1521  0.1201  0.9542
 1977SOL    MW4 7908   4.272   3.581   2.963 -0.0799  0.2697  0.4229
 1978SOL     OW 7909   4.284   3.828   3.078  0.6541 -0.3283  0.4062
 1978SOL    HW2 7910   4.216   3.880   3.037  1.1107 -0.3049 -0.3372
 1978SOL    HW3 7911   4.364   3.878   3.064  1.0495 -1.0587 -0.0370
 1978SOL    MW4 7912   4.286   3.841   3.071  0.7665 -0.4216  0.2497
 1979SOL     OW 7913   4.087   3.992   2.942 -0.5941 -0.1333 -0.1483
 1979SOL    HW2 7914   4.096   4.074   2.991 -0.0925 -0.6498  0.6406
 1979SOL    HW3 7915   4.014   3.947   2.984  0.5135 -1.0483  0.8095
 1979SOL    MW4 7916   4.079   3.997   2.954 -0.3818 -0.3222  0.0822
 1980SOL     OW 7917   4.088   4.235   3.090  0.0196  0.3663 -0.0863
 1980SOL    HW2 7918   4.067   4.239   3.184 -1.1340 -0.3236 -0.3021
 1980SOL    HW3 7919   4.157   4.299   3.078  1.6980 -1.0411  1.6524
 1980SOL    MW4 7920   4.094   4.244   3.101  0.0889  0.0896  0.1146
 1981SOL     OW 7921   4.282   4.410   3.034 -0.1388  0.3831  0.5207
 1981SOL    HW2 7922   4.355   4.353   3.059 -0.8789 -0.5411  0.6510
 1981SOL    HW3 7923   4.288   4.417   2.939 -0.5805 -0.6967  0.4000
 1981SOL    MW4 7924   4.292   4.403   3.025 -0.2947  0.1187  0.5220
 1982SOL     OW 7925   0.288   4.666   3.360  0.4227 -0.0910 -0.4515
 1982SOL    HW2 7926   0.344   4.727   3.409  0.2488  0.1648 -0.5683
 1982SOL    HW3 7927   0.266   4.597   3.422 -2.1329  1.6751  0.6874
 1982SOL    MW4 7928   0.293   4.665   3.375  0.0626  0.1758 -0.3166
 1983SOL     OW 7929   0.054   0.116   3.441 -0.5018  0.2713 -0.1560
 1983SOL    HW2 7930   0.045   0.207   3.412  0.2676  0.4194  0.0530
 1983SOL    HW3 7931   0.137   0.087   3.404  0.5227  0.4732  1.8750
 1983SOL    MW4 7932   0.064   0.124   3.433 -0.2651  0.3175  0.1395
 1984SOL     OW 7933   0.006   0.371   3.386 -0.2557  0.3178 -0.2543
 1984SOL    HW2 7934  -0.073   0.411   3.423  0.4547  1.8631 -0.3756
 1984SOL    HW3 7935   0.077   0.429   3.414  0.7989 -0.8636 -0.4496
 1984SOL    MW4 7936   0.005   0.384   3.395 -0.0228  0.3658 -0.2961
 1985SOL     OW 7937   0.246   0.497   3.431  0.2681 -0.2900  0.0944
 1985SOL    HW2 7938   0.311   0.468   3.367 -0.7154 -1.6070 -0.3013
 1985SOL    HW3 7939   0.238   0.591   3.415  1.7501 -0.1865 -0.1494
 1985SOL    MW4 7940   0.254   0.506   3.421  0.3338 -0.4501  0.0100
 1986SOL     OW 7941   0.248   0.766   3.367  0.1709  0.1545 -0.3980
 1986SOL    HW2 7942   0.325   0.804   3.410 -0.5040  0.8136  0.2346
 1986SOL    HW3 7943   0.174   0.806   3.412 -0.5445 -0.9599 -0.5810
 1986SOL    MW4 7944   0.249   0.776   3.379 -0.0126  0.0945 -0.3387
 1987SOL     OW 7945   0.010   0.886   3.488  0.0623 -0.0509  0.1801
 1987SOL    HW2 7946   0.006   0.902   3.582  1.6723  0.4105  0.1852
 1987SOL    HW3 7947   0.022   0.973   3.449 -1.1411 -0.1769 -0.4941
 1987SOL    MW4 7948   0.011   0.899   3.495  0.1159 -0.0066  0.0918
 1988SOL     OW 7949   0.003   1.152   3.382 -0.4127 -0.5592  0.2352
 1988SOL    HW2 7950   0.066   1.218   3.413  0.3765 -1.5145  0.6944
 1988SOL    HW3 7951   0.011   1.155   3.287  0.1375 -0.4761  0.2798
 1988SOL    MW4 7952   0.013   1.161   3.374 -0.2360 -0.6743  0.3017
 1989SOL     OW 7953   0.203   1.318   3.455 -0.4494 -0.1273  0.3330
 1989SOL    HW2 7954   0.288   1.278   3.436  0.3728  1.6781  0.1608
 1989SOL    HW3 7955   0.199   1.321   3.550  0.3570  1.1613  0.3416
 1989SOL    MW4 7956   0.214   1.313   3.465 -0.2345  0.2809  0.3114
 1990SOL     OW 7957   0.220   1.572   3.360  0.5448 -0.0517  0.0368
 1990SOL    HW2 7958   0.222   1.484   3.397 -1.3496 -0.2050 -0.1748
 1990SOL    HW3 7959   0.217   1.558   3.265  0.4531  0.2409 -0.0042
 1990SOL    MW4 7960   0.220   1.559   3.352  0.2828 -0.0333  0.0034
 1991SOL     OW 7961   4.468   1.691   3.492 -0.0760  0.1831 -0.0076
 1991SOL    HW2 7962   4.396   1.643   3.452  0.1985  0.6445 -1.0745
 1991SOL    HW3 7963   4.547   1.650   3.455  0.2528 -0.9175  1.8249
 1991SOL    MW4 7964   4.469   1.679   3.481  0.0036  0.0988  0.0934
 1992SOL     OW 7965   4.477   1.946   3.413 -0.1296  0.0034 -0.4257
 1992SOL    HW2 7966   4.467   1.856   3.442  0.2034 -0.0163 -0.3756
 1992SOL    HW3 7967   4.454   1.944   3.320 -2.2054  0.2517  0.0548
 1992SOL    MW4 7968   4.473   1.934   3.404 -0.3595  0.0336 -0.3557
 1993SOL     OW 7969   0.218   2.064   3.509 -0.2209 -0.0020 -0.6545
 1993SOL    HW2 7970   0.144   2.017   3.470 -1.8138  2.4236 -0.6502
 1993SOL    HW3 7971   0.292   2.043   3.451 -1.3765 -0.6988 -1.9321
 1993SOL    MW4 7972   0.218   2.055   3.496 -0.5835  0.2261 -0.8225
 1994SOL     OW 7973   0.218   2.332   3.385  0.0370  0.1365 -0.6559
 1994SOL    HW2 7974   0.138   2.380   3.408 -0.6265 -0.4805 -1.6328
 1994SOL    HW3 7975   0.203   2.243   3.419  0.5779  0.1829 -0.2871
 1994SOL    MW4 7976   0.205   2.327   3.393  0.0208  0.0612 -0.7361
 1995SOL     OW 7977   4.474   2.439   3.471  0.3232  0.4137 -0.1221
 1995SOL    HW2 7978   4.464   2.438   3.567  0.7437 -0.0060 -0.0782
 1995SOL    HW3 7979   4.390   2.406   3.438  0.6386 -0.6884  0.1531
 1995SOL    MW4 7980   4.461   2.434   3.480  0.4203  0.2129 -0.0800
 1996SOL     OW 7981   0.005   2.709   3.379 -0.1266  0.3620  0.1049
 1996SOL    HW2 7982   0.082   2.754   3.413  0.3010 -0.9355  0.8835
 1996SOL    HW3 7983   0.004   2.625   3.425 -0.7413 -0.5580 -1.5300
 1996SOL    MW4 7984   0.015   2.704   3.389 -0.1513  0.0694 -0.0080
 1997SOL     OW 7985   0.224   2.832   3.502 -0.4452  0.2074 -0.1277
 1997SOL    HW2 7986   0.296   2.788   3.456 -0.5446  0.0662 -0.1501
 1997SOL    HW3 7987   0.229   2.923   3.472 -1.3956 -0.1807 -1.5467
 1997SOL    MW4 7988   0.234   2.838   3.492 -0.5837  0.1376 -0.3179
 1998SOL     OW 7989   0.253   3.100   3.405  0.2251 -0.5472 -0.1189
 1998SOL    HW2 7990   0.175   3.136   3.446 -0.0089 -1.1346 -0.0478
 1998SOL    HW3 7991   0.247   3.127   3.313  0.9053  1.0298  0.2785
 1998SOL    MW4 7992   0.242   3.108   3.398  0.2840 -0.4166 -0.0571
 1999SOL     OW 7993   0.030   3.261   3.489  0.0874  0.0540 -0.0584
 1999SOL    HW2 7994  -0.049   3.216   3.459  0.2774 -0.5623  0.3345
 1999SOL    HW3 7995   0.031   3.344   3.442 -1.3867  0.5488  0.7746
 1999SOL    MW4 7996   0.020   3.266   3.479 -0.0821  0.0380  0.1033
 2000SOL     OW 7997   0.012   3.502   3.373 -0.2797 -0.0622 -0.3517
 2000SOL    HW2 7998  -0.064   3.549   3.406 -0.2400  0.0608 -0.4350
 2000SOL    HW3 7999   0.005   3.507   3.278  1.1434  2.0889 -0.3762
 2000SOL    MW4 8000   0.001   3.509   3.365 -0.0867  0.2378 -0.3659
 2001SOL     OW 8001   0.233   3.612   3.497  0.0277 -0.1327 -0.1637
 2001SOL    HW2 8002   0.208   3.611   3.589  0.1579  1.8010 -0.0818
 2001SOL    HW3 8003   0.158   3.574   3.451 -0.9346  0.8705  0.5534
 2001SOL    MW4 8004   0.220   3.607   3.503 -0.0821  0.2548 -0.0583
 2002SOL     OW 8005   0.241   3.848   3.361 -0.0404 -0.3847 -0.0252
 2002SOL    HW2 8006   0.164   3.898   3.388  0.0797 -0.5282  0.5822
 2002SOL    HW3 8007   0.238   3.768   3.413  0.0490 -0.7784 -0.6257
 2002SOL    MW4 8008   0.231   3.844   3.371 -0.0128 -0.4555 -0.0243
 2003SOL     OW 8009   0.020   4.013   3.430 -0.0638  0.0007  0.1063
 2003SOL    HW2 8010   0.021   4.006   3.525  2.6008 -0.2149  0.1110
 2003SOL    HW3 8011   0.024   4.107   3.412 -0.2010  0.0279  0.2286
 2003SOL    MW4 8012   0.021   4.024   3.440  0.2697 -0.0242  0.1231
 2004SOL     OW 8013   4.258   4.411   3.470 -0.4401  0.1251  0.3329
 2004SOL    HW2 8014   4.182   4.366   3.435 -0.4674 -0.1151  0.7016
 2004SOL    HW3 8015   4.255   4.395   3.564 -0.1166  0.3893  0.3914
 2004SOL    MW4 8016   4.248   4.403   3.477 -0.4010  0.1283  0.3892
 2005SOL     OW 8017   0.220   4.427   3.468  0.1738 -0.5623  0.4262
 2005SOL    HW2 8018   0.211   4.411   3.562 -0.2757 -1.7344  0.2004
 2005SOL    HW3 8019   0.288   4.366   3.440  1.1781  0.6571  0.2074
 2005SOL    MW4 8020   0.228   4.416   3.477  0.2470 -0.5561  0.3675
 2006SOL     OW 8021   0.638   4.641   3.385  0.0043  0.0395  0.3639
 2006SOL    HW2 8022   0.721   4.690   3.392 -0.1547  0.1025  1.8721
 2006SOL    HW3 8023   0.620   4.639   3.291  1.8039 -0.1041 -0.0080
 2006SOL    MW4 8024   0.647   4.647   3.373  0.2207  0.0289  0.5138
 2007SOL     OW 8025   0.472   0.173   3.491  0.1141 -0.3624  0.8014
 2007SOL    HW2 8026   0.470   0.165   3.586  1.5713 -0.8365  0.7975
 2007SOL    HW3 8027   0.533   0.106   3.462 -0.6459 -0.5059 -0.5106
 2007SOL    MW4 8028   0.480   0.163   3.499  0.2061 -0.4438  0.6278
 2008SOL     OW 8029   0.478   0.358   3.297 -0.5518 -0.3126  0.0246
 2008SOL    HW2 8030   0.544   0.415   3.337  2.0402 -2.1181 -1.5251
 2008SOL    HW3 8031   0.478   0.280   3.353  0.0515 -1.1028 -1.0563
 2008SOL    MW4 8032   0.487   0.355   3.310 -0.1302 -0.6550 -0.3225
 2009SOL     OW 8033   0.666   0.525   3.407 -0.0637  0.5698 -0.8433
 2009SOL    HW2 8034   0.664   0.516   3.502  0.6280 -0.0008 -0.8794
 2009SOL    HW3 8035   0.743   0.476   3.379  0.4344  1.7476 -1.5958
 2009SOL    MW4 8036   0.676   0.517   3.416  0.0932  0.6499 -0.9474
 2010SOL     OW 8037   0.664   0.803   3.375  0.1021 -0.4714 -0.0276
 2010SOL    HW2 8038   0.586   0.830   3.424  0.4091  3.0127 -1.3572
 2010SOL    HW3 8039   0.667   0.708   3.386 -3.1872 -0.4406  1.7274
 2010SOL    MW4 8040   0.654   0.794   3.383 -0.2914 -0.0076  0.0285
 2011SOL     OW 8041   0.441   0.924   3.502 -0.2576  0.4654  0.0723
 2011SOL    HW2 8042   0.463   0.935   3.594  1.2605 -0.0064 -0.2287
 2011SOL    HW3 8043   0.436   1.014   3.468  0.2873  0.6038  0.3544
 2011SOL    MW4 8044   0.443   0.938   3.510  0.0146  0.4214  0.0698
 2012SOL     OW 8045   0.445   1.208   3.396  0.2377 -0.0113 -0.3362
 2012SOL    HW2 8046   0.519   1.263   3.423  0.0331  0.7574 -1.3303
 2012SOL    HW3 8047   0.455   1.199   3.301 -0.9930  0.1798 -0.4930
 2012SOL    MW4 8048   0.456   1.214   3.387  0.0484  0.1153 -0.4880
 2013SOL     OW 8049   0.704   1.307   3.469  0.5105  0.3201 -0.1924
 2013SOL    HW2 8050   0.787   1.272   3.437  1.3966  2.8963 -0.8138
 2013SOL    HW3 8051   0.687   1.384   3.414 -0.3230  2.0617  2.4124
 2013SOL    MW4 8052   0.713   1.312   3.458  0.5174  0.8898  0.0693
 2014SOL     OW 8053   0.646   1.546   3.333 -0.6561  0.1811 -0.1436
 2014SOL    HW2 8054   0.733   1.581   3.353 -0.1801 -1.0657  0.0292
 2014SOL    HW3 8055   0.586   1.599   3.385  0.0045  1.0416 -0.2518
 2014SOL    MW4 8056   0.650   1.558   3.343 -0.5061  0.1301 -0.1351
 2015SOL     OW 8057   0.459   1.705   3.460 -0.1010 -0.4192 -0.2167
 2015SOL    HW2 8058   0.475   1.678   3.551 -0.3451  0.6829  0.1607
 2015SOL    HW3 8059   0.381   1.657   3.434 -0.6947  0.1099  0.5412
 2015SOL    MW4 8060   0.451   1.695   3.469 -0.2115 -0.2040 -0.0669
 2016SOL     OW 8061   0.417   1.951   3.357 -0.1526  0.0943 -0.3437
 2016SOL    HW2 8062   0.431   1.861   3.387 -1.8000  0.0102  0.2040
 2016SOL    HW3 8063   0.428   1.946   3.262  1.2641 -0.3761 -0.1739
 2016SOL    MW4 8064   0.421   1.939   3.348 -0.1830  0.0211 -0.2490
 2017SOL     OW 8065   0.669   2.102   3.433 -0.2712 -0.3688  0.0266
 2017SOL    HW2 8066   0.684   2.090   3.527 -0.0636  0.0122  0.0408
 2017SOL    HW3 8067   0.595   2.044   3.413 -0.5400 -0.1876  0.4933
 2017SOL    MW4 8068   0.661   2.093   3.443 -0.2792 -0.2947  0.0900
 2018SOL     OW 8069   0.694   2.348   3.303 -0.0145  0.5446 -0.3475
 2018SOL    HW2 8070   0.773   2.382   3.346 -0.0833 -0.6383  0.7550
 2018SOL    HW3 8071   0.685   2.259   3.337 -1.6594  0.5661 -0.6899
 2018SOL    MW4 8072   0.703   2.341   3.313 -0.2406  0.3914 -0.2472
 2019SOL     OW 8073   0.471   2.443   3.445  0.1013  0.2923  0.1514
 2019SOL    HW2 8074   0.550   2.405   3.408  0.6327  0.4046  1.1575
 2019SOL    HW3 8075   0.400   2.385   3.415  0.8118 -1.0421  1.0253
 2019SOL    MW4 8076   0.472   2.430   3.436  0.2651  0.1311  0.3994
 2020SOL     OW 8077   0.465   2.714   3.378  0.0463 -0.7641  0.0581
 2020SOL    HW2 8078   0.450   2.621   3.395 -3.7453 -0.3468 -0.5109
 2020SOL    HW3 8079   0.442   2.725   3.286  0.3976  0.7448  0.1466
 2020SOL    MW4 8080   0.460   2.703   3.368 -0.4076 -0.5099 -0.0053
 2021SOL     OW 8081   0.710   2.825   3.442  0.2336 -0.5573 -0.1474
 2021SOL    HW2 8082   0.785   2.766   3.431 -0.2391 -1.2845  0.5029
 2021SOL    HW3 8083   0.635   2.775   3.412 -0.0029  0.1747 -0.7965
 2021SOL    MW4 8084   0.710   2.811   3.437  0.1400 -0.5567 -0.1472
 2022SOL     OW 8085   0.686   3.093   3.332  0.2353 -0.4979 -0.0099
 2022SOL    HW2 8086   0.608   3.124   3.379 -1.2114 -1.1308 -1.9260
 2022SOL    HW3 8087   0.701   3.005   3.367  0.0383 -0.4150  0.2892
 2022SOL    MW4 8088   0.678   3.085   3.343  0.0184 -0.5705 -0.2233
 2023SOL     OW 8089   0.492   3.209   3.482 -0.0021 -0.0355 -0.5170
 2023SOL    HW2 8090   0.499   3.204   3.577  1.8655 -1.7814 -0.7243
 2023SOL    HW3 8091   0.404   3.174   3.463 -0.1212 -0.3055  0.5131
 2023SOL    MW4 8092   0.481   3.204   3.492  0.2286 -0.3015 -0.4085
 2024SOL     OW 8093   0.461   3.484   3.385 -0.2403 -0.1258  0.2790
 2024SOL    HW2 8094   0.461   3.399   3.429  0.4294  0.5633  1.6255
 2024SOL    HW3 8095   0.395   3.536   3.432  1.0371  0.8768  0.9845
 2024SOL    MW4 8096   0.452   3.480   3.397  0.0166  0.0974  0.5497
 2025SOL     OW 8097   0.665   3.663   3.390 -0.4161 -0.6382 -0.2430
 2025SOL    HW2 8098   0.740   3.607   3.371 -0.2591 -0.4913 -0.0493
 2025SOL    HW3 8099   0.590   3.603   3.386 -0.3500 -0.6743 -0.9812
 2025SOL    MW4 8100   0.665   3.648   3.387 -0.3867 -0.6236 -0.3148
 2026SOL     OW 8101   0.652   3.928   3.366 -0.1276 -0.0526  0.3502
 2026SOL    HW2 8102   0.582   3.972   3.414 -1.5443 -1.0321 -0.7449
 2026SOL    HW3 8103   0.644   3.836   3.392 -0.5356 -0.4955 -1.2798
 2026SOL    MW4 8104   0.642   3.922   3.376 -0.3683 -0.2403 -0.0094
 2027SOL     OW 8105   0.422   4.027   3.481  0.1340  0.2414 -0.4858
 2027SOL    HW2 8106   0.420   4.112   3.437  1.7249  0.1594 -0.7728
 2027SOL    HW3 8107   0.361   3.973   3.431 -0.4666  1.0543 -0.6452
 2027SOL    MW4 8108   0.414   4.031   3.468  0.2647  0.3378 -0.5447
 2028SOL     OW 8109   0.426   4.274   3.370 -0.0112  0.4510  0.2987
 2028SOL    HW2 8110   0.507   4.308   3.409  0.0660  0.2333  0.3263
 2028SOL    HW3 8111   0.447   4.260   3.278  0.4598 -1.1087  0.6227
 2028SOL    MW4 8112   0.439   4.277   3.363  0.0611  0.2165  0.3451
 2029SOL     OW 8113   0.657   4.378   3.468  0.1913 -0.0644  0.5599
 2029SOL    HW2 8114   0.719   4.334   3.410 -0.5013  0.5592 -0.6935
 2029SOL    HW3 8115   0.662   4.470   3.442  1.0480  0.5015  2.6102
 2029SOL    MW4 8116   0.666   4.385   3.457  0.2130  0.0925  0.6651
 2030SOL     OW 8117   1.131   4.656   3.329 -0.0023  0.2011 -0.3133
 2030SOL    HW2 8118   1.217   4.689   3.356  0.4606 -0.1406 -1.3229
 2030SOL    HW3 8119   1.129   4.670   3.234  0.4244 -3.0406 -0.8822
 2030SOL    MW4 8120   1.142   4.662   3.320  0.1151 -0.2717 -0.5216
 2031SOL     OW 8121   0.891   0.110   3.397  0.0464  0.0425 -0.0698
 2031SOL    HW2 8122   0.884   0.111   3.493  2.1990  3.5639  0.1199
 2031SOL    HW3 8123   0.980   0.080   3.380  0.3715  1.4149 -0.8734
 2031SOL    MW4 8124   0.902   0.106   3.407  0.3733  0.6882 -0.1508
 2032SOL     OW 8125   0.889   0.384   3.354 -0.3101 -0.1422  0.1522
 2032SOL    HW2 8126   0.970   0.423   3.387 -0.1627  1.2474 -1.7778
 2032SOL    HW3 8127   0.897   0.291   3.377  2.7389 -0.4089 -1.6818
 2032SOL    MW4 8128   0.901   0.377   3.361  0.1116  0.0059 -0.3444
 2033SOL     OW 8129   1.106   0.517   3.467  0.0145  0.5588  0.3701
 2033SOL    HW2 8130   1.105   0.534   3.562  1.1023  0.1878  0.4557
 2033SOL    HW3 8131   1.107   0.605   3.428 -0.1195  0.7147  0.7078
 2033SOL    MW4 8132   1.106   0.531   3.474  0.1403  0.5304  0.4260
 2034SOL     OW 8133   1.147   0.773   3.357 -0.0028  0.0069  0.0927
 2034SOL    HW2 8134   1.219   0.823   3.396  1.1419 -1.6313  0.1063
 2034SOL    HW3 8135   1.069   0.807   3.400  0.7333  1.8745  0.0138
 2034SOL    MW4 8136   1.146   0.784   3.367  0.2454  0.0372  0.0841
 2035SOL     OW 8137   0.903   0.901   3.435 -0.0158  0.2379 -0.1615
 2035SOL    HW2 8138   0.898   0.994   3.411  0.5243  0.7155  1.4467
 2035SOL    HW3 8139   0.818   0.866   3.411 -0.7504  1.5006  0.5122
 2035SOL    MW4 8140   0.891   0.909   3.429 -0.0415  0.4675  0.1396
 2036SOL     OW 8141   0.923   1.169   3.358 -0.1997 -0.2694 -0.2102
 2036SOL    HW2 8142   1.017   1.171   3.372 -0.3046  0.3289  0.4343
 2036SOL    HW3 8143   0.913   1.174   3.263  0.4308 -1.0028 -0.3219
 2036SOL    MW4 8144   0.934   1.170   3.347 -0.1304 -0.2872 -0.1399
 2037SOL     OW 8145   1.177   1.283   3.454 -0.1329  0.3691 -0.1823
 2037SOL    HW2 8146   1.174   1.293   3.549  2.0471  2.7028 -0.3137
 2037SOL    HW3 8147   1.140   1.364   3.420 -0.9358 -0.4674 -1.3479
 2037SOL    MW4 8148   1.172   1.295   3.462  0.0488  0.5666 -0.3534
 2038SOL     OW 8149   1.113   1.544   3.388  0.1168  0.3566  0.5111
 2038SOL    HW2 8150   1.194   1.593   3.402 -1.0977  2.6364 -0.2354
 2038SOL    HW3 8151   1.108   1.530   3.294 -0.2895  0.1059  0.5640
 2038SOL    MW4 8152   1.123   1.548   3.378 -0.0970  0.6243  0.4196
 2039SOL     OW 8153   0.870   1.688   3.432  0.2265  0.0814 -0.3924
 2039SOL    HW2 8154   0.893   1.777   3.407  0.4126  0.3607  0.7372
 2039SOL    HW3 8155   0.945   1.635   3.405  0.6024  0.4423 -0.0688
 2039SOL    MW4 8156   0.883   1.693   3.425  0.3007  0.1659 -0.2006
 2040SOL     OW 8157   0.916   1.945   3.335  0.4438 -0.1349 -0.0093
 2040SOL    HW2 8158   0.992   1.989   3.375  1.5936 -3.2404  1.3931
 2040SOL    HW3 8159   0.841   1.992   3.371  1.6488  2.5425 -0.8509
 2040SOL    MW4 8160   0.916   1.957   3.345  0.7545 -0.1914  0.0647
 2041SOL     OW 8161   1.142   2.068   3.475  0.0663 -0.1810 -0.0211
 2041SOL    HW2 8162   1.204   2.008   3.434  0.6044  0.5346 -0.2490
 2041SOL    HW3 8163   1.151   2.150   3.426 -0.3979  0.2030  0.5296
 2041SOL    MW4 8164   1.151   2.071   3.463  0.0761 -0.0359  0.0215
 2042SOL     OW 8165   1.139   2.302   3.333 -0.6467 -0.4799 -0.3127
 2042SOL    HW2 8166   1.217   2.355   3.345 -1.7678  1.3357 -0.8365
 2042SOL    HW3 8167   1.127   2.298   3.238 -1.2684 -0.5997 -0.2344
 2042SOL    MW4 8168   1.148   2.309   3.322 -0.8767 -0.2561 -0.3715
 2043SOL     OW 8169   0.915   2.436   3.423  0.4279  0.0775 -0.1764
 2043SOL    HW2 8170   0.902   2.419   3.516  1.2333  0.1067 -0.0520
 2043SOL    HW3 8171   0.992   2.383   3.400 -0.0285 -0.2694 -0.9259
 2043SOL    MW4 8172   0.923   2.427   3.432  0.4740  0.0356 -0.2589
 2044SOL     OW 8173   0.932   2.701   3.323 -0.1367 -0.1310  0.0867
 2044SOL    HW2 8174   1.007   2.737   3.370  1.3679 -0.0495 -2.3127
 2044SOL    HW3 8175   0.921   2.613   3.359  1.6250 -0.4349 -0.1034
 2044SOL    MW4 8176   0.940   2.694   3.334  0.2942 -0.1604 -0.2549
 2045SOL     OW 8177   1.122   2.838   3.460  0.4815 -0.3847 -0.3801
 2045SOL    HW2 8178   1.120   2.838   3.556  1.4961 -0.2766 -0.3482
 2045SOL    HW3 8179   1.208   2.802   3.438  0.3425 -0.2014 -1.2488
 2045SOL    MW4 8180   1.133   2.833   3.470  0.5970 -0.3462 -0.4905
 2046SOL     OW 8181   1.097   3.090   3.362  0.4332 -0.0634  0.1601
 2046SOL    HW2 8182   1.083   3.000   3.391 -1.1483  0.2970  0.5303
 2046SOL    HW3 8183   1.103   3.084   3.267  0.6996 -0.5971  0.2076
 2046SOL    MW4 8184   1.096   3.078   3.354  0.2597 -0.0862  0.2152
 2047SOL     OW 8185   0.873   3.240   3.453 -0.1046 -0.0167  0.0952
 2047SOL    HW2 8186   0.956   3.202   3.423 -0.3545  0.0968 -0.7550
 2047SOL    HW3 8187   0.806   3.189   3.407 -0.4817  0.5351  0.0403
 2047SOL    MW4 8188   0.875   3.228   3.443 -0.1873  0.0711 -0.0242
 2048SOL     OW 8189   0.903   3.509   3.390  0.2743 -0.3332 -0.0060
 2048SOL    HW2 8190   0.880   3.421   3.419  1.0757 -0.7317 -0.5852
 2048SOL    HW3 8191   0.917   3.501   3.296  1.3511  0.2034  0.1050
 2048SOL    MW4 8192   0.902   3.496   3.382  0.5221 -0.3150 -0.0678
 2049SOL     OW 8193   1.139   3.608   3.464  0.1821 -0.0591 -0.2557
 2049SOL    HW2 8194   1.133   3.642   3.553  0.0388  0.5022 -0.4762
 2049SOL    HW3 8195   1.055   3.563   3.450  0.2123 -0.1623 -0.0983
 2049SOL    MW4 8196   1.127   3.607   3.474  0.1672  0.0013 -0.2640
 2050SOL     OW 8197   1.115   3.879   3.374  0.1086 -0.5663 -0.2333
 2050SOL    HW2 8198   1.197   3.916   3.408  0.5685 -0.3616 -1.5334
 2050SOL    HW3 8199   1.119   3.786   3.398 -0.2776 -0.1526  1.5638
 2050SOL    MW4 8200   1.126   3.871   3.382  0.1184 -0.4847 -0.1677
 2051SOL     OW 8201   0.888   4.037   3.463  0.2524  0.2137 -0.2362
 2051SOL    HW2 8202   0.957   3.980   3.430 -0.4974  0.0281 -1.5153
 2051SOL    HW3 8203   0.806   3.994   3.437 -0.3269  1.4194 -0.4673
 2051SOL    MW4 8204   0.886   4.024   3.455  0.0770  0.3483 -0.4354
 2052SOL     OW 8205   0.882   4.274   3.340 -0.4237  0.2377  0.0754
 2052SOL    HW2 8206   0.883   4.186   3.376  2.5729  0.2672  0.1877
 2052SOL    HW3 8207   0.861   4.262   3.247  0.4222 -0.6200 -0.0032
 2052SOL    MW4 8208   0.879   4.261   3.332  0.0833  0.1284  0.0798
 2053SOL     OW 8209   1.107   4.401   3.449  0.1158  0.0877  0.1984
 2053SOL    HW2 8210   1.035   4.353   3.407 -0.7778  0.3928  1.3581
 2053SOL    HW3 8211   1.110   4.485   3.403 -0.7581  0.3594  0.6272
 2053SOL    MW4 8212   1.098   4.406   3.437 -0.1174  0.1638  0.4080
 2054SOL     OW 8213   1.588   4.658   3.331  0.3602  0.6574  0.0726
 2054SOL    HW2 8214   1.577   4.583   3.389 -0.6631  0.2772 -0.5913
 2054SOL    HW3 8215   1.510   4.712   3.348  0.8423  1.3188  0.1869
 2054SOL    MW4 8216   1.576   4.655   3.341  0.2888  0.6945  0.0001
 2055SOL     OW 8217   1.363   0.129   3.406  0.2349  0.0807 -0.3921
 2055SOL    HW2 8218   1.359   0.120   3.501  1.7921  0.6004 -0.2680
 2055SOL    HW3 8219   1.346   0.222   3.390 -0.5970 -0.1140 -0.6681
 2055SOL    MW4 8220   1.361   0.140   3.416  0.3306  0.1236 -0.4122
 2056SOL     OW 8221   1.347   0.402   3.356 -0.2099 -0.4583 -0.5607
 2056SOL    HW2 8222   1.420   0.440   3.405  0.1146 -1.9442  0.1264
 2056SOL    HW3 8223   1.269   0.440   3.397  0.1280  0.0064 -0.3467
 2056SOL    MW4 8224   1.346   0.412   3.368 -0.1225 -0.5930 -0.4418
 2057SOL     OW 8225   1.558   0.517   3.495  0.2342  0.0703  0.2374
 2057SOL    HW2 8226   1.564   0.528   3.590 -0.6971 -1.1503  0.4481
 2057SOL    HW3 8227   1.629   0.456   3.473  0.8978  0.8982  0.0395
 2057SOL    MW4 8228   1.568   0.510   3.504  0.1989  0.0185  0.2391
 2058SOL     OW 8229   1.578   0.783   3.364  0.0874  0.0927 -0.1558
 2058SOL    HW2 8230   1.506   0.830   3.406  0.7497 -0.8335  2.0913
 2058SOL    HW3 8231   1.578   0.697   3.406  0.9616 -0.7773 -1.8877
 2058SOL    MW4 8232   1.568   0.778   3.375  0.2901 -0.1443 -0.0879
 2059SOL     OW 8233   1.349   0.929   3.473 -0.1588 -0.2082 -0.0661
 2059SOL    HW2 8234   1.341   0.972   3.558 -0.3610 -0.1640 -0.1089
 2059SOL    HW3 8235   1.363   1.001   3.411  3.4135 -0.4309  0.3717
 2059SOL    MW4 8236   1.350   0.944   3.476  0.2859 -0.2317 -0.0140
 2060SOL     OW 8237   1.382   1.171   3.325  0.2751  0.0548 -0.1923
 2060SOL    HW2 8238   1.460   1.206   3.368 -0.7368  1.1462  0.7874
 2060SOL    HW3 8239   1.310   1.223   3.361 -0.9475 -1.2451 -0.7428
 2060SOL    MW4 8240   1.383   1.182   3.336 -0.0197  0.0273 -0.1357
 2061SOL     OW 8241   1.604   1.286   3.430  0.0303 -0.0890 -0.7639
 2061SOL    HW2 8242   1.691   1.265   3.396  0.4579 -0.2578  0.3897
 2061SOL    HW3 8243   1.620   1.307   3.523 -1.1214  0.1472 -0.6171
 2061SOL    MW4 8244   1.618   1.286   3.438 -0.0653 -0.0801 -0.5924
 2062SOL     OW 8245   1.593   1.548   3.341  0.2067 -0.4974 -0.0346
 2062SOL    HW2 8246   1.600   1.456   3.369  0.1184 -0.6458 -0.4926
 2062SOL    HW3 8247   1.574   1.543   3.248 -0.0634 -0.0110 -0.0065
 2062SOL    MW4 8248   1.591   1.535   3.333  0.1594 -0.4528 -0.0913
 2063SOL     OW 8249   1.360   1.682   3.442 -0.4023 -0.1934  0.3731
 2063SOL    HW2 8250   1.349   1.696   3.536  0.9990 -0.6120  0.6164
 2063SOL    HW3 8251   1.444   1.637   3.434 -0.5991 -0.3458 -1.0702
 2063SOL    MW4 8252   1.369   1.678   3.453 -0.2434 -0.2687  0.2148
 2064SOL     OW 8253   1.351   1.936   3.357 -0.2428 -0.5663 -0.0611
 2064SOL    HW2 8254   1.424   1.977   3.404  0.3751 -0.0759 -1.3888
 2064SOL    HW3 8255   1.360   1.843   3.374  1.1551 -0.5831 -0.7976
 2064SOL    MW4 8256   1.362   1.929   3.365  0.0232 -0.5038 -0.3334
 2065SOL     OW 8257   1.564   2.098   3.472  0.2437 -0.3944 -0.2626
 2065SOL    HW2 8258   1.634   2.041   3.440  0.0851 -0.4975 -0.4292
 2065SOL    HW3 8259   1.574   2.178   3.422 -0.3529 -0.7622 -0.9765
 2065SOL    MW4 8260   1.574   2.101   3.461  0.1440 -0.4566 -0.3787
 2066SOL     OW 8261   1.588   2.343   3.340 -0.3155 -0.0324  0.1131
 2066SOL    HW2 8262   1.506   2.374   3.377 -0.9477  0.2296 -1.5037
 2066SOL    HW3 8263   1.577   2.349   3.246  1.0443 -1.3251 -0.1571
 2066SOL    MW4 8264   1.576   2.348   3.333 -0.2195 -0.1684 -0.1359
 2067SOL     OW 8265   1.363   2.448   3.444 -0.3695  0.2495 -0.0365
 2067SOL    HW2 8266   1.358   2.450   3.539  0.3393  2.6398 -0.0322
 2067SOL    HW3 8267   1.366   2.540   3.417  2.2583 -0.3802 -2.1939
 2067SOL    MW4 8268   1.363   2.460   3.453  0.0707  0.4818 -0.3205
 2068SOL     OW 8269   1.354   2.712   3.366  0.1278  0.1291  0.3458
 2068SOL    HW2 8270   1.424   2.769   3.398  1.4668 -0.1173 -2.0341
 2068SOL    HW3 8271   1.363   2.714   3.271 -2.6555 -0.5122  0.0287
 2068SOL    MW4 8272   1.365   2.720   3.358 -0.0628  0.0120 -0.0100
 2069SOL     OW 8273   1.579   2.843   3.475  0.3515 -0.2356 -0.3775
 2069SOL    HW2 8274   1.657   2.798   3.443 -0.5269 -0.6681 -1.9527
 2069SOL    HW3 8275   1.586   2.932   3.440  0.1616 -0.2553 -0.4632
 2069SOL    MW4 8276   1.590   2.849   3.466  0.2106 -0.2953 -0.5966
 2070SOL     OW 8277   1.547   3.088   3.337  0.0410  0.0024 -0.3570
 2070SOL    HW2 8278   1.616   3.153   3.354  0.2558 -0.3677  0.1858
 2070SOL    HW3 8279   1.467   3.130   3.368  0.3536 -0.4643  1.1423
 2070SOL    MW4 8280   1.546   3.102   3.344  0.1106 -0.1080 -0.0875
 2071SOL     OW 8281   1.330   3.222   3.450  0.2249 -0.1509 -0.0624
 2071SOL    HW2 8282   1.343   3.210   3.544 -1.3539 -0.4720  0.1326
 2071SOL    HW3 8283   1.253   3.168   3.430  0.2762  0.2835 -1.4424
 2071SOL    MW4 8284   1.321   3.214   3.460  0.0234 -0.1360 -0.2187
 2072SOL     OW 8285   1.369   3.491   3.375 -0.0270  0.5897 -0.2479
 2072SOL    HW2 8286   1.371   3.402   3.411  0.1512  0.1444 -1.3200
 2072SOL    HW3 8287   1.286   3.527   3.405  0.4948  0.5321  1.2904
 2072SOL    MW4 8288   1.359   3.484   3.384  0.0653  0.5233 -0.1864
 2073SOL     OW 8289   1.606   3.627   3.435  0.0414  0.1550  0.3963
 2073SOL    HW2 8290   1.589   3.618   3.529 -0.3793 -0.0185  0.3047
 2073SOL    HW3 8291   1.527   3.594   3.393  0.0987  0.5393 -0.0159
 2073SOL    MW4 8292   1.594   3.621   3.442 -0.0065  0.1828  0.3298
 2074SOL     OW 8293   1.596   3.900   3.386 -0.4485 -0.1922  0.5344
 2074SOL    HW2 8294   1.619   3.807   3.392  0.1299 -0.1359 -0.7249
 2074SOL    HW3 8295   1.577   3.914   3.293 -0.8165  0.8902  0.7649
 2074SOL    MW4 8296   1.596   3.889   3.374 -0.4207 -0.0420  0.3986
 2075SOL     OW 8297   1.344   3.994   3.473  0.3201  0.1245 -0.3238
 2075SOL    HW2 8298   1.354   4.088   3.454 -0.3802  0.1655 -0.5042
 2075SOL    HW3 8299   1.429   3.956   3.451 -0.3979  0.2004 -3.4582
 2075SOL    MW4 8300   1.356   4.002   3.467  0.1330  0.1399 -0.7612
 2076SOL     OW 8301   1.358   4.264   3.395  0.3159 -0.0906 -0.4358
 2076SOL    HW2 8302   1.284   4.307   3.438  0.8937 -0.9402  1.4155
 2076SOL    HW3 8303   1.339   4.273   3.301 -1.4632  0.8664 -0.0015
 2076SOL    MW4 8304   1.345   4.271   3.388  0.1574 -0.0765 -0.1342
 2077SOL     OW 8305   1.603   4.380   3.507 -0.1545  0.5237  0.1756
 2077SOL    HW2 8306   1.669   4.357   3.442 -0.3982 -1.6499  0.6768
 2077SOL    HW3 8307   1.521   4.347   3.471 -0.3477 -0.3677  1.4096
 2077SOL    MW4 8308   1.601   4.373   3.494 -0.2122  0.1193  0.4045
 2078SOL     OW 8309   2.007   4.622   3.328  0.1546 -0.7669  0.2014
 2078SOL    HW2 8310   2.086   4.669   3.352  0.8327 -1.6931 -0.1876
 2078SOL    HW3 8311   1.935   4.675   3.364  0.9080  0.4294 -0.0509
 2078SOL    MW4 8312   2.008   4.635   3.336  0.3435 -0.7313  0.1168
 2079SOL     OW 8313   1.798   0.128   3.454  0.2382  0.0500 -0.2457
 2079SOL    HW2 8314   1.778   0.131   3.547  0.9641 -0.2831 -0.0813
 2079SOL    HW3 8315   1.719   0.091   3.414 -0.5184  1.2523  0.1029
 2079SOL    MW4 8316   1.785   0.124   3.461  0.2341  0.1647 -0.1780
 2080SOL     OW 8317   1.770   0.400   3.373  0.4163  0.2012 -0.5052
 2080SOL    HW2 8318   1.772   0.305   3.383  2.9349  0.1376 -1.2333
 2080SOL    HW3 8319   1.788   0.414   3.280 -0.8391  1.3812 -0.5904
 2080SOL    MW4 8320   1.773   0.390   3.362  0.5829  0.3485 -0.6125
 2081SOL     OW 8321   1.997   0.509   3.499  0.1455 -0.1631 -0.5595
 2081SOL    HW2 8322   2.011   0.597   3.463  0.4367 -0.0579 -0.1920
 2081SOL    HW3 8323   1.927   0.473   3.445 -1.9633  1.3582  1.0873
 2081SOL    MW4 8324   1.990   0.516   3.487 -0.0943  0.0515 -0.2938
 2082SOL     OW 8325   2.051   0.777   3.367 -0.0675 -0.3244 -0.2091
 2082SOL    HW2 8326   2.113   0.837   3.409 -0.0065 -1.1839  0.9464
 2082SOL    HW3 8327   2.079   0.774   3.275  1.2570 -0.2860  0.1843
 2082SOL    MW4 8328   2.063   0.785   3.360  0.1153 -0.4327 -0.0047
 2083SOL     OW 8329   1.819   0.918   3.434  0.2947  0.1351  0.1920
 2083SOL    HW2 8330   1.889   0.864   3.398 -0.1509  0.8735 -1.8785
 2083SOL    HW3 8331   1.739   0.876   3.401 -0.0734  1.6587 -0.9048
 2083SOL    MW4 8332   1.817   0.905   3.425  0.1874  0.4336 -0.2259
 2084SOL     OW 8333   1.842   1.201   3.324  0.5565  0.4675  0.5486
 2084SOL    HW2 8334   1.921   1.248   3.351  0.6909  0.0625  0.8731
 2084SOL    HW3 8335   1.849   1.117   3.368 -0.2478  0.5721  0.8710
 2084SOL    MW4 8336   1.854   1.196   3.333  0.4681  0.4279  0.6340
 2085SOL     OW 8337   2.078   1.327   3.442 -0.1218 -0.2983 -0.2969
 2085SOL    HW2 8338   2.057   1.338   3.535 -0.0472 -1.9323 -0.0846
 2085SOL    HW3 8339   2.072   1.416   3.406  0.0999  0.3860  1.3123
 2085SOL    MW4 8340   2.075   1.340   3.450 -0.0827 -0.4236 -0.0566
 2086SOL     OW 8341   2.050   1.575   3.323 -0.2948  0.0350  0.3489
 2086SOL    HW2 8342   2.130   1.616   3.357  0.4474  0.2707 -1.6058
 2086SOL    HW3 8343   1.979   1.616   3.372  0.6569  1.2789  0.7146
 2086SOL    MW4 8344   2.052   1.586   3.334 -0.0713  0.2302  0.1393
 2087SOL     OW 8345   1.820   1.679   3.460 -0.1242  0.2605 -0.3553
 2087SOL    HW2 8346   1.815   1.773   3.441 -0.7444  0.2089 -0.4591
 2087SOL    HW3 8347   1.736   1.644   3.428 -0.3417 -0.1485  0.6579
 2087SOL    MW4 8348   1.808   1.687   3.453 -0.2347  0.1998 -0.2353
 2088SOL     OW 8349   1.777   1.937   3.384 -0.5659  0.1498 -0.1394
 2088SOL    HW2 8350   1.853   1.981   3.424 -0.9600 -0.0267  0.8205
 2088SOL    HW3 8351   1.801   1.926   3.292  0.4677  0.3342  0.1042
 2088SOL    MW4 8352   1.790   1.942   3.377 -0.4815  0.1508  0.0194
 2089SOL     OW 8353   2.014   2.090   3.499  0.2130 -0.8869 -0.3950
 2089SOL    HW2 8354   2.090   2.045   3.462 -0.6746 -2.1136 -0.7279
 2089SOL    HW3 8355   2.015   2.176   3.456  0.8485 -1.2493 -1.1159
 2089SOL    MW4 8356   2.024   2.096   3.488  0.1797 -1.0966 -0.5340
 2090SOL     OW 8357   2.002   2.344   3.347 -0.5569 -0.1714  0.2253
 2090SOL    HW2 8358   2.090   2.374   3.371 -0.5238 -1.0582  1.2448
 2090SOL    HW3 8359   2.006   2.333   3.252  0.4382 -0.2061  0.2588
 2090SOL    MW4 8360   2.014   2.347   3.338 -0.4213 -0.2930  0.3642
 2091SOL     OW 8361   1.793   2.456   3.494 -0.9415  0.0862  0.1337
 2091SOL    HW2 8362   1.874   2.417   3.460 -0.9998 -0.3686  0.5206
 2091SOL    HW3 8363   1.725   2.430   3.432 -1.3336 -2.0595  1.4252
 2091SOL    MW4 8364   1.795   2.448   3.481 -1.0009 -0.2569  0.3552
 2092SOL     OW 8365   1.814   2.714   3.362  0.3795  0.3549  0.2562
 2092SOL    HW2 8366   1.898   2.745   3.396  1.7299 -1.1472 -1.6414
 2092SOL    HW3 8367   1.811   2.621   3.384  0.4869 -0.2340 -2.1105
 2092SOL    MW4 8368   1.825   2.706   3.370  0.5718  0.0790 -0.3064
 2093SOL     OW 8369   2.061   2.858   3.424  0.2804 -0.5650  0.5953
 2093SOL    HW2 8370   2.056   2.865   3.519 -1.6697  0.5523  0.4276
 2093SOL    HW3 8371   2.056   2.948   3.393  2.3355 -0.7960 -0.5361
 2093SOL    MW4 8372   2.060   2.871   3.432  0.2943 -0.4480  0.4239
 2094SOL     OW 8373   2.037   3.136   3.343 -0.3704  0.2774 -0.1832
 2094SOL    HW2 8374   2.109   3.188   3.380 -0.5243  0.9610 -0.8512
 2094SOL    HW3 8375   1.959   3.169   3.387 -0.1719 -1.2302  1.3788
 2094SOL    MW4 8376   2.036   3.147   3.354 -0.3645  0.1687 -0.0652
 2095SOL     OW 8377   1.778   3.241   3.401  0.5469 -0.2820  0.6181
 2095SOL    HW2 8378   1.781   3.230   3.496 -0.6994  1.0168  0.8304
 2095SOL    HW3 8379   1.801   3.334   3.387 -2.1479  0.3020 -0.1170
 2095SOL    MW4 8380   1.782   3.252   3.411  0.0269 -0.0336  0.5491
 2096SOL     OW 8381   1.818   3.503   3.328  0.5462  0.1781 -0.3056
 2096SOL    HW2 8382   1.747   3.553   3.368  0.4499 -0.3052  0.1288
 2096SOL    HW3 8383   1.801   3.509   3.234 -0.6927 -0.8605 -0.1570
 2096SOL    MW4 8384   1.806   3.511   3.321  0.3700 -0.0227 -0.2287
 2097SOL     OW 8385   2.017   3.624   3.497 -0.0559  0.2269 -0.0911
 2097SOL    HW2 8386   2.104   3.596   3.467 -0.0901  0.3694 -0.3236
 2097SOL    HW3 8387   1.956   3.576   3.441 -0.1466 -0.6558  0.7578
 2097SOL    MW4 8388   2.021   3.614   3.485 -0.0724  0.1292 -0.0098
 2098SOL     OW 8389   2.024   3.873   3.353 -0.5241 -0.1345  0.1732
 2098SOL    HW2 8390   1.957   3.935   3.382  0.1967  0.3771  0.7852
 2098SOL    HW3 8391   2.005   3.793   3.402 -0.3459  0.1905  0.7858
 2098SOL    MW4 8392   2.012   3.871   3.363 -0.4055 -0.0241  0.3348
 2099SOL     OW 8393   1.833   4.039   3.458 -0.0926  0.1416  0.3039
 2099SOL    HW2 8394   1.839   4.051   3.553  1.0436 -2.7821  0.6772
 2099SOL    HW3 8395   1.744   4.006   3.444  0.1784 -0.7262  0.5549
 2099SOL    MW4 8396   1.822   4.036   3.469  0.0931 -0.3586  0.3863
 2100SOL     OW 8397   1.790   4.284   3.330 -0.2461  0.0880 -0.2996
 2100SOL    HW2 8398   1.808   4.194   3.358 -1.1889 -0.4587 -1.4378
 2100SOL    HW3 8399   1.766   4.277   3.238  1.6772  1.7523 -0.9587
 2100SOL    MW4 8400   1.789   4.271   3.322 -0.1167  0.2355 -0.5368
 2101SOL     OW 8401   2.036   4.366   3.438 -0.6851  0.3594  0.0132
 2101SOL    HW2 8402   1.956   4.330   3.399  0.0292 -0.3017 -0.8430
 2101SOL    HW3 8403   2.034   4.459   3.416 -0.3793  0.0298 -1.4499
 2101SOL    MW4 8404   2.025   4.374   3.430 -0.5505  0.2287 -0.2928
 2102SOL     OW 8405   2.478   0.005   3.364 -0.1260  0.1368  0.1750
 2102SOL    HW2 8406   2.485  -0.084   3.398  2.7263  0.2059 -0.1313
 2102SOL    HW3 8407   2.478  -0.006   3.269  0.0839  0.4440  0.1388
 2102SOL    MW4 8408   2.479  -0.008   3.356  0.2780  0.1864  0.1298
 2103SOL     OW 8409   2.217   0.125   3.390 -0.4437  0.4943 -0.1471
 2103SOL    HW2 8410   2.211   0.212   3.351  0.7978  0.8584  0.4639
 2103SOL    HW3 8411   2.310   0.103   3.387 -0.4582  0.1385  1.7650
 2103SOL    MW4 8412   2.228   0.133   3.384 -0.2818  0.4954  0.1858
 2104SOL     OW 8413   2.203   0.402   3.320 -0.1619 -0.1651 -0.2451
 2104SOL    HW2 8414   2.285   0.412   3.368  0.1417 -1.4653 -0.4875
 2104SOL    HW3 8415   2.138   0.448   3.374  0.6018  0.3376  0.2523
 2104SOL    MW4 8416   2.205   0.409   3.334 -0.0211 -0.2703 -0.2115
 2105SOL     OW 8417   2.441   0.518   3.463  0.6468  0.0663  0.0782
 2105SOL    HW2 8418   2.513   0.477   3.415  0.5060 -0.4158  0.2761
 2105SOL    HW3 8419   2.444   0.611   3.438  0.9006 -0.0865 -0.4518
 2105SOL    MW4 8420   2.451   0.525   3.453  0.6617 -0.0175  0.0344
 2106SOL     OW 8421   2.459   0.796   3.410 -0.2023 -0.1103  0.2605
 2106SOL    HW2 8422   2.542   0.835   3.437 -0.5740  0.3950  0.6907
 2106SOL    HW3 8423   2.465   0.790   3.315  0.0050  0.6599  0.2237
 2106SOL    MW4 8424   2.471   0.801   3.401 -0.2240  0.0580  0.3124
 2107SOL     OW 8425   2.232   0.923   3.515 -0.2045  0.4223 -0.4430
 2107SOL    HW2 8426   2.238   1.007   3.469  0.6313  0.9065  0.5329
 2107SOL    HW3 8427   2.313   0.877   3.491  1.1965  1.4727  2.0452
 2107SOL    MW4 8428   2.244   0.928   3.506  0.0906  0.6248  0.0141
 2108SOL     OW 8429   2.283   1.150   3.366  0.0234  0.4347  0.1994
 2108SOL    HW2 8430   2.363   1.188   3.404 -0.4399  1.5527  0.0697
 2108SOL    HW3 8431   2.213   1.208   3.394 -0.5413  0.3705 -1.0483
 2108SOL    MW4 8432   2.284   1.162   3.375 -0.1122  0.5737  0.0177
 2109SOL     OW 8433   2.506   1.281   3.455 -0.1949 -0.1484  0.0323
 2109SOL    HW2 8434   2.504   1.269   3.550 -0.3774  1.8328  0.3066
 2109SOL    HW3 8435   2.584   1.234   3.426  0.3879  0.0436  1.2832
 2109SOL    MW4 8436   2.516   1.273   3.464 -0.1421  0.1383  0.2336
 2110SOL     OW 8437   2.503   1.554   3.375 -0.0866  0.2057 -0.4063
 2110SOL    HW2 8438   2.525   1.463   3.398  2.0415  0.6649 -0.5382
 2110SOL    HW3 8439   2.464   1.548   3.288 -0.3806 -0.6310 -0.2239
 2110SOL    MW4 8440   2.501   1.541   3.367  0.1554  0.1559 -0.3996
 2111SOL     OW 8441   2.274   1.689   3.454  0.4281  0.1229  0.1822
 2111SOL    HW2 8442   2.261   1.662   3.545  0.3883  1.4399  0.5808
 2111SOL    HW3 8443   2.353   1.642   3.426 -0.4820 -1.5523  0.3631
 2111SOL    MW4 8444   2.283   1.679   3.462  0.3028  0.0756  0.2587
 2112SOL     OW 8445   2.237   1.949   3.385 -0.0295  0.0847 -0.0745
 2112SOL    HW2 8446   2.265   1.860   3.406  1.6002  0.5520 -0.2251
 2112SOL    HW3 8447   2.222   1.947   3.290  2.3590  0.5833 -0.4864
 2112SOL    MW4 8448   2.239   1.937   3.375  0.5007  0.2121 -0.1487
 2113SOL     OW 8449   2.449   2.107   3.457 -0.2158 -0.1770 -0.3643
 2113SOL    HW2 8450   2.456   2.092   3.551 -2.1005 -0.6869 -0.2921
 2113SOL    HW3 8451   2.385   2.043   3.426  0.4504 -0.0869 -2.0243
 2113SOL    MW4 8452   2.441   2.097   3.465 -0.3766 -0.2324 -0.5738
 2114SOL     OW 8453   2.505   2.364   3.399  0.0824 -0.2036 -0.5156
 2114SOL    HW2 8454   2.581   2.402   3.443 -0.9170 -0.0048  1.0670
 2114SOL    HW3 8455   2.503   2.273   3.429 -0.5801 -0.0823 -0.2012
 2114SOL    MW4 8456   2.515   2.357   3.409 -0.1369 -0.1613 -0.2653
 2115SOL     OW 8457   2.245   2.450   3.491 -0.1388  0.2556  0.0473
 2115SOL    HW2 8458   2.249   2.541   3.462 -0.8745  0.0944 -0.5842
 2115SOL    HW3 8459   2.328   2.412   3.463 -0.3436  0.4136 -0.7811
 2115SOL    MW4 8460   2.256   2.457   3.483 -0.2629  0.2552 -0.1453
 2116SOL     OW 8461   2.287   2.710   3.355  0.0570  0.1464 -0.4157
 2116SOL    HW2 8462   2.201   2.750   3.367 -0.8651 -1.3214 -1.9083
 2116SOL    HW3 8463   2.298   2.707   3.260  0.7217 -1.8388 -0.2929
 2116SOL    MW4 8464   2.277   2.715   3.344  0.0230 -0.3092 -0.5964
 2117SOL     OW 8465   2.467   2.842   3.507 -0.2010 -0.1887  0.3266
 2117SOL    HW2 8466   2.454   2.929   3.470 -1.5675  0.1399  1.5557
 2117SOL    HW3 8467   2.412   2.784   3.455 -2.8514  0.4181  2.3573
 2117SOL    MW4 8468   2.458   2.846   3.496 -0.7310 -0.0653  0.7567
 2118SOL     OW 8469   2.462   3.143   3.374 -0.0233  0.2424 -0.5860
 2118SOL    HW2 8470   2.548   3.177   3.398  0.5850  0.1394 -2.5314
 2118SOL    HW3 8471   2.465   3.136   3.278 -1.8232 -0.7698 -0.5837
 2118SOL    MW4 8472   2.474   3.147   3.364 -0.1805  0.0953 -0.8423
 2119SOL     OW 8473   2.234   3.272   3.476  0.0352  0.3488  0.1366
 2119SOL    HW2 8474   2.234   3.259   3.571 -0.3098  0.1712  0.1142
 2119SOL    HW3 8475   2.317   3.236   3.446 -0.5568 -1.0795  0.1716
 2119SOL    MW4 8476   2.245   3.266   3.485 -0.0884  0.1370  0.1383
 2120SOL     OW 8477   2.256   3.533   3.395 -0.2386 -0.2526 -0.1001
 2120SOL    HW2 8478   2.261   3.442   3.425 -1.4160 -0.3660 -0.2058
 2120SOL    HW3 8479   2.235   3.526   3.302 -0.0468  0.1312 -0.1739
 2120SOL    MW4 8480   2.254   3.520   3.387 -0.3686 -0.2169 -0.1238
 2121SOL     OW 8481   2.498   3.616   3.446  0.2100 -0.8897  0.2888
 2121SOL    HW2 8482   2.510   3.702   3.406  0.0658 -1.3915 -0.8404
 2121SOL    HW3 8483   2.412   3.588   3.415  0.0735 -1.2563  1.0050
 2121SOL    MW4 8484   2.488   3.624   3.437  0.1729 -1.0043  0.2343
 2122SOL     OW 8485   2.502   3.889   3.374 -0.2334  0.3740 -0.7136
 2122SOL    HW2 8486   2.570   3.936   3.422 -0.6913 -0.9790  1.3573
 2122SOL    HW3 8487   2.420   3.930   3.400 -0.4250  0.1595 -0.9678
 2122SOL    MW4 8488   2.500   3.900   3.384 -0.3191  0.1672 -0.4739
 2123SOL     OW 8489   2.247   4.001   3.442  0.3387  0.3090  0.0325
 2123SOL    HW2 8490   2.246   4.093   3.414 -0.6582  0.6703  1.2038
 2123SOL    HW3 8491   2.164   3.966   3.410  0.5911 -0.1166 -0.1643
 2123SOL    MW4 8492   2.236   4.008   3.434  0.2405  0.3005  0.1611
 2124SOL     OW 8493   2.260   4.263   3.335 -0.1184  0.1923 -0.0220
 2124SOL    HW2 8494   2.180   4.307   3.364 -0.6214 -0.6544 -0.0970
 2124SOL    HW3 8495   2.253   4.262   3.239  0.3946  0.8744 -0.0687
 2124SOL    MW4 8496   2.248   4.269   3.326 -0.1171  0.1706 -0.0381
 2125SOL     OW 8497   2.473   4.412   3.429  0.2388 -0.0747  0.1163
 2125SOL    HW2 8498   2.453   4.403   3.522 -1.2811  0.2251 -0.1692
 2125SOL    HW3 8499   2.399   4.371   3.384  1.8753 -1.9367 -0.9509
 2125SOL    MW4 8500   2.461   4.405   3.435  0.2542 -0.2808 -0.0622
 2126SOL     OW 8501   2.947   0.006   3.368  0.1097  0.0321 -0.1371
 2126SOL    HW2 8502   2.865   0.041   3.403  0.4671  1.4548 -0.7039
 2126SOL    HW3 8503   2.929  -0.013   3.276 -0.1369 -1.4874  0.2086
 2126SOL    MW4 8504   2.934   0.008   3.361  0.1243  0.0194 -0.1662
 2127SOL     OW 8505   2.703   0.135   3.437 -0.4085 -0.3062  0.4399
 2127SOL    HW2 8506   2.699   0.227   3.411 -0.4813 -0.3532  0.2803
 2127SOL    HW3 8507   2.618   0.099   3.411  1.3931 -1.6367 -4.2423
 2127SOL    MW4 8508   2.691   0.142   3.430 -0.1804 -0.4879 -0.1989
 2128SOL     OW 8509   2.701   0.407   3.359 -0.6870 -0.1100 -0.0316
 2128SOL    HW2 8510   2.777   0.448   3.400 -0.9926  0.7271 -0.3029
 2128SOL    HW3 8511   2.726   0.397   3.267 -0.4578 -0.9147  0.1080
 2128SOL    MW4 8512   2.715   0.411   3.352 -0.6971 -0.1057 -0.0490
 2129SOL     OW 8513   2.949   0.493   3.446 -0.3356 -0.0088 -0.4073
 2129SOL    HW2 8514   2.949   0.504   3.542 -0.9453 -1.4247 -0.2303
 2129SOL    HW3 8515   2.943   0.582   3.412 -0.8636  0.4675  0.8831
 2129SOL    MW4 8516   2.948   0.506   3.454 -0.4857 -0.1328 -0.2137
 2130SOL     OW 8517   2.922   0.744   3.356  0.2747 -0.4452  0.0503
 2130SOL    HW2 8518   3.003   0.786   3.385  0.0229 -1.5498  2.4645
 2130SOL    HW3 8519   2.853   0.789   3.404 -0.2095 -1.8510  0.7110
 2130SOL    MW4 8520   2.923   0.755   3.366  0.1776 -0.7765  0.4560
 2131SOL     OW 8521   2.707   0.895   3.478  0.1075 -0.1556 -0.1284
 2131SOL    HW2 8522   2.726   0.918   3.569  0.2014 -0.1010 -0.1626
 2131SOL    HW3 8523   2.699   0.979   3.432 -1.0516 -0.1644  0.0599
 2131SOL    MW4 8524   2.709   0.909   3.484 -0.0330 -0.1495 -0.1081
 2132SOL     OW 8525   2.707   1.129   3.348  0.4909  0.0330 -0.2587
 2132SOL    HW2 8526   2.787   1.172   3.375  0.5867 -0.1778 -0.2049
 2132SOL    HW3 8527   2.708   1.133   3.253  0.3721  0.3798 -0.2451
 2132SOL    MW4 8528   2.717   1.135   3.339  0.4878  0.0510 -0.2498
 2133SOL     OW 8529   2.929   1.297   3.430 -0.5107  0.0661 -0.0357
 2133SOL    HW2 8530   2.922   1.296   3.525  0.4434 -1.1428  0.0440
 2133SOL    HW3 8531   3.013   1.254   3.412  0.6383  2.7253 -1.3156
 2133SOL    MW4 8532   2.939   1.291   3.440 -0.2332  0.2575 -0.1941
 2134SOL     OW 8533   2.920   1.560   3.341 -0.2473 -0.6714 -0.4094
 2134SOL    HW2 8534   2.855   1.615   3.385  2.2320  0.5826  1.7573
 2134SOL    HW3 8535   2.916   1.477   3.388 -0.5640 -0.7415 -0.5567
 2134SOL    MW4 8536   2.911   1.556   3.353  0.0380 -0.5152 -0.1430
 2135SOL     OW 8537   2.726   1.708   3.466  0.4429 -0.0904 -0.1475
 2135SOL    HW2 8538   2.722   1.801   3.442  2.3986  0.0952  0.0985
 2135SOL    HW3 8539   2.643   1.672   3.437  0.0803  1.5189 -1.2172
 2135SOL    MW4 8540   2.715   1.716   3.459  0.6531  0.1464 -0.2562
 2136SOL     OW 8541   2.685   1.963   3.389 -0.1003  0.3210 -0.4522
 2136SOL    HW2 8542   2.601   2.007   3.405 -0.1224  0.4390 -0.8885
 2136SOL    HW3 8543   2.683   1.940   3.296  0.1116 -0.1881 -0.3289
 2136SOL    MW4 8544   2.673   1.966   3.379 -0.0752  0.2694 -0.4935
 2137SOL     OW 8545   2.944   2.052   3.480 -0.1208 -0.1405 -0.3375
 2137SOL    HW2 8546   2.931   2.053   3.575 -0.5450  0.4006 -0.3986
 2137SOL    HW3 8547   2.866   2.009   3.445  0.2269 -0.7113 -0.4136
 2137SOL    MW4 8548   2.932   2.046   3.488 -0.1309 -0.1444 -0.3556
 2138SOL     OW 8549   2.957   2.322   3.424  0.2972 -0.1505  0.1229
 2138SOL    HW2 8550   2.952   2.231   3.453 -3.5211  0.2089  0.8151
 2138SOL    HW3 8551   2.952   2.317   3.328  1.1029 -0.6942  0.1058
 2138SOL    MW4 8552   2.955   2.310   3.415 -0.1003 -0.1748  0.2120
 2139SOL     OW 8553   2.724   2.485   3.512  0.2497 -0.4221  0.6398
 2139SOL    HW2 8554   2.708   2.456   3.601 -0.5802 -1.6730  0.0981
 2139SOL    HW3 8555   2.806   2.441   3.487  0.4585 -0.1072  0.7722
 2139SOL    MW4 8556   2.733   2.475   3.520  0.1677 -0.5456  0.5858
 2140SOL     OW 8557   2.717   2.736   3.393  0.1149  0.2737  0.1168
 2140SOL    HW2 8558   2.725   2.658   3.448 -1.2661  0.1769  0.1893
 2140SOL    HW3 8559   2.648   2.788   3.434  0.3601  1.0810 -0.4752
 2140SOL    MW4 8560   2.709   2.733   3.405 -0.0350  0.3674  0.0483
 2141SOL     OW 8561   2.936   2.846   3.506  0.1582 -0.3400  0.0213
 2141SOL    HW2 8562   2.919   2.838   3.600  0.6872 -0.5314  0.1035
 2141SOL    HW3 8563   2.857   2.809   3.465  0.5241 -1.5897  0.4022
 2141SOL    MW4 8564   2.923   2.840   3.513  0.2763 -0.5301  0.0824
 2142SOL     OW 8565   2.947   3.090   3.380  0.1892  0.1524 -0.0081
 2142SOL    HW2 8566   2.939   3.004   3.419  0.9253 -0.1271 -0.4595
 2142SOL    HW3 8567   2.929   3.076   3.287  0.9852  0.3685 -0.1949
 2142SOL    MW4 8568   2.943   3.077   3.373  0.3913  0.1441 -0.0923
 2143SOL     OW 8569   2.705   3.239   3.452  0.0134  0.2105 -0.0940
 2143SOL    HW2 8570   2.702   3.227   3.547 -1.1748 -2.1331 -0.3880
 2143SOL    HW3 8571   2.779   3.184   3.423 -0.1727  0.2226 -0.6012
 2143SOL    MW4 8572   2.715   3.230   3.460 -0.1679 -0.0971 -0.1997
 2144SOL     OW 8573   2.749   3.491   3.395  0.4214 -0.2358  0.4434
 2144SOL    HW2 8574   2.745   3.401   3.425  1.4693 -0.9755 -1.6019
 2144SOL    HW3 8575   2.660   3.525   3.411 -0.2090 -1.8614  0.4852
 2144SOL    MW4 8576   2.737   3.484   3.401  0.4765 -0.5479  0.1791
 2145SOL     OW 8577   2.966   3.638   3.471  0.0815 -0.2423  0.4656
 2145SOL    HW2 8578   2.948   3.726   3.438  1.4165 -0.4929 -0.9497
 2145SOL    HW3 8579   2.886   3.588   3.450 -0.8161  0.7014  1.5838
 2145SOL    MW4 8580   2.953   3.643   3.464  0.1392 -0.1509  0.4264
 2146SOL     OW 8581   2.916   3.891   3.360 -0.2100 -0.6341  0.1621
 2146SOL    HW2 8582   2.988   3.928   3.411 -0.0649 -0.0226 -0.4851
 2146SOL    HW3 8583   2.837   3.927   3.402 -0.2106 -2.2861  1.6513
 2146SOL    MW4 8584   2.915   3.900   3.372 -0.1909 -0.7714  0.2732
 2147SOL     OW 8585   2.719   4.034   3.478  0.1553 -0.3103 -0.1033
 2147SOL    HW2 8586   2.716   4.049   3.573  1.8794 -0.3343 -0.0466
 2147SOL    HW3 8587   2.711   4.121   3.440 -0.9915 -0.3384  0.0346
 2147SOL    MW4 8588   2.717   4.048   3.486  0.2314 -0.3172 -0.0776
 2148SOL     OW 8589   2.696   4.264   3.330 -0.0177 -0.0919  0.1834
 2148SOL    HW2 8590   2.766   4.312   3.373  0.6443 -1.5383  0.7734
 2148SOL    HW3 8591   2.616   4.310   3.355  0.4905 -0.0282  1.7666
 2148SOL    MW4 8592   2.695   4.276   3.339  0.1367 -0.2743  0.4701
 2149SOL     OW 8593   2.915   4.385   3.430 -0.1206  0.6137 -0.3160
 2149SOL    HW2 8594   2.904   4.391   3.524  0.3894  0.0996 -0.2176
 2149SOL    HW3 8595   2.933   4.474   3.401 -1.5707  0.9937 -0.1053
 2149SOL    MW4 8596   2.916   4.397   3.438 -0.2446  0.5960 -0.2752
 2150SOL     OW 8597   3.362   4.611   3.388  0.4428 -0.0892  0.4064
 2150SOL    HW2 8598   3.283   4.654   3.420 -0.0447 -1.1128  0.5970
 2150SOL    HW3 8599   3.367   4.636   3.296  0.2504  0.4907  0.5472
 2150SOL    MW4 8600   3.352   4.620   3.380  0.3531 -0.1477  0.4501
 2151SOL     OW 8601   3.167   0.130   3.487 -0.1690  0.1068 -0.2583
 2151SOL    HW2 8602   3.175   0.218   3.451  0.5644 -0.1093 -0.6279
 2151SOL    HW3 8603   3.090   0.093   3.443 -1.2353  0.9981  0.8228
 2151SOL    MW4 8604   3.158   0.136   3.477 -0.2129  0.1959 -0.1644
 2152SOL     OW 8605   3.189   0.390   3.391 -0.0507 -0.2197 -0.2587
 2152SOL    HW2 8606   3.100   0.423   3.403  0.3720  1.1911 -0.8590
 2152SOL    HW3 8607   3.197   0.377   3.297  0.3637 -0.3523 -0.2048
 2152SOL    MW4 8608   3.179   0.393   3.380  0.0597 -0.0511 -0.3308
 2153SOL     OW 8609   3.419   0.522   3.475  0.5198  0.2185 -0.5690
 2153SOL    HW2 8610   3.420   0.525   3.571  0.6630  1.7298 -0.6079
 2153SOL    HW3 8611   3.333   0.487   3.452  1.1340 -1.8742  0.1267
 2153SOL    MW4 8612   3.408   0.518   3.485  0.6198  0.1418 -0.4824
 2154SOL     OW 8613   3.408   0.776   3.366  0.0596  0.2592 -0.3013
 2154SOL    HW2 8614   3.468   0.830   3.418 -0.7493  1.4266 -0.5528
 2154SOL    HW3 8615   3.421   0.687   3.399  2.0719  0.4557 -0.5037
 2154SOL    MW4 8616   3.418   0.771   3.377  0.2184  0.4391 -0.3612
 2155SOL     OW 8617   3.132   0.896   3.454 -0.1955  0.1605  0.1743
 2155SOL    HW2 8618   3.128   0.980   3.409 -0.1783  0.7193  1.1835
 2155SOL    HW3 8619   3.216   0.858   3.429 -0.2543  0.3977 -0.3710
 2155SOL    MW4 8620   3.142   0.902   3.445 -0.2010  0.2655  0.2355
 2156SOL     OW 8621   3.148   1.149   3.343 -0.5395  0.2021 -0.3825
 2156SOL    HW2 8622   3.230   1.193   3.364  0.7210 -1.3135 -1.9277
 2156SOL    HW3 8623   3.140   1.157   3.248 -2.1722  0.2992 -0.2471
 2156SOL    MW4 8624   3.158   1.156   3.333 -0.5886  0.0150 -0.5685
 2157SOL     OW 8625   3.359   1.283   3.448  0.2675 -0.1814  0.1631
 2157SOL    HW2 8626   3.444   1.245   3.425  0.0692  0.1801 -1.1774
 2157SOL    HW3 8627   3.359   1.369   3.407 -1.8747 -1.2904 -2.3378
 2157SOL    MW4 8628   3.370   1.289   3.440 -0.0413 -0.2800 -0.3437
 2158SOL     OW 8629   3.393   1.542   3.352  0.3913 -0.1040  0.2083
 2158SOL    HW2 8630   3.458   1.579   3.411  0.0024  0.2744  0.3956
 2158SOL    HW3 8631   3.311   1.583   3.377  0.2066 -0.0117 -0.5318
 2158SOL    MW4 8632   3.391   1.552   3.363  0.3156 -0.0419  0.1354
 2159SOL     OW 8633   3.163   1.658   3.450 -0.6094 -0.2750 -0.5603
 2159SOL    HW2 8634   3.170   1.753   3.440  0.1236 -0.1764  0.7900
 2159SOL    HW3 8635   3.078   1.636   3.413 -1.0685  1.0002 -0.2752
 2159SOL    MW4 8636   3.153   1.667   3.444 -0.5733 -0.0937 -0.3445
 2160SOL     OW 8637   3.196   1.927   3.405  0.0768  0.1240 -0.9582
 2160SOL    HW2 8638   3.112   1.962   3.432  0.9605  1.1749  0.5184
 2160SOL    HW3 8639   3.185   1.907   3.312 -1.9466 -0.2595 -0.6482
 2160SOL    MW4 8640   3.184   1.929   3.396 -0.0735  0.2120 -0.7225
 2161SOL     OW 8641   3.394   2.089   3.501  0.4662  0.0759 -0.2796
 2161SOL    HW2 8642   3.395   2.171   3.451 -0.2594  0.0378 -0.3568
 2161SOL    HW3 8643   3.326   2.037   3.459  1.6289 -0.9781 -0.8925
 2161SOL    MW4 8644   3.385   2.093   3.489  0.5239 -0.0682 -0.3707
 2162SOL     OW 8645   3.372   2.339   3.377 -0.3023  1.0874  0.4738
 2162SOL    HW2 8646   3.445   2.390   3.411 -0.2342  0.6531  0.9754
 2162SOL    HW3 8647   3.294   2.388   3.401 -0.1495  1.9362 -0.7073
 2162SOL    MW4 8648   3.372   2.352   3.385 -0.2731  1.1421  0.3842
 2163SOL     OW 8649   3.184   2.491   3.491  0.0385  0.9564 -0.4003
 2163SOL    HW2 8650   3.187   2.572   3.441 -0.6980  1.4931  0.4176
 2163SOL    HW3 8651   3.101   2.449   3.465  1.1829 -0.3668 -2.0769
 2163SOL    MW4 8652   3.173   2.496   3.481  0.0923  0.8526 -0.5136
 2164SOL     OW 8653   3.164   2.732   3.366 -0.2574 -0.2952 -0.4218
 2164SOL    HW2 8654   3.244   2.767   3.404  0.8198 -2.0644 -1.0000
 2164SOL    HW3 8655   3.093   2.777   3.411  1.0560  0.4057  0.9451
 2164SOL    MW4 8656   3.165   2.742   3.377  0.0580 -0.4362 -0.3178
 2165SOL     OW 8657   3.360   2.847   3.504  0.1452  0.1886  0.1287
 2165SOL    HW2 8658   3.447   2.817   3.479  0.2588  0.0280  0.7221
 2165SOL    HW3 8659   3.357   2.938   3.476 -0.5136 -0.5856 -2.4725
 2165SOL    MW4 8660   3.371   2.855   3.497  0.0733  0.0653 -0.1362
 2166SOL     OW 8661   3.370   3.109   3.126  0.4213 -0.2902 -0.3217
 2166SOL    HW2 8662   3.356   3.108   3.221 -1.1383  1.2631 -0.5072
 2166SOL    HW3 8663   3.284   3.130   3.089  1.3241  0.6143 -1.9977
 2166SOL    MW4 8664   3.357   3.112   3.134  0.3347  0.0341 -0.5673
 2167SOL     OW 8665   3.155   3.254   3.466 -0.3886  0.2791  0.0222
 2167SOL    HW2 8666   3.162   3.340   3.426 -2.2178  0.4078 -0.0286
 2167SOL    HW3 8667   3.076   3.215   3.428 -1.0494 -0.3783  1.9832
 2167SOL    MW4 8668   3.146   3.260   3.456 -0.7171  0.2094  0.2743
 2168SOL     OW 8669   3.202   3.517   3.360  0.2919  0.0443  0.3785
 2168SOL    HW2 8670   3.129   3.575   3.384 -1.1764 -1.5183 -0.1798
 2168SOL    HW3 8671   3.197   3.512   3.264  0.5213 -0.8565  0.4134
 2168SOL    MW4 8672   3.191   3.524   3.350  0.1285 -0.2807  0.3094
 2169SOL     OW 8673   3.410   3.668   3.485  0.0569 -0.0515  0.0623
 2169SOL    HW2 8674   3.404   3.748   3.433 -0.7391  0.1937  0.5266
 2169SOL    HW3 8675   3.343   3.610   3.448  0.9485 -0.6908 -0.5818
 2169SOL    MW4 8676   3.401   3.671   3.474  0.0695 -0.1035  0.0385
 2170SOL     OW 8677   3.366   3.899   3.348  0.0821  0.2839 -0.0586
 2170SOL    HW2 8678   3.425   3.963   3.387  0.7790 -0.1420 -0.3999
 2170SOL    HW3 8679   3.286   3.906   3.400 -0.2602  2.2220 -0.8291
 2170SOL    MW4 8680   3.363   3.908   3.360  0.1289  0.4834 -0.2053
 2171SOL     OW 8681   3.142   3.985   3.488 -0.9653 -0.1183 -0.3412
 2171SOL    HW2 8682   3.148   3.996   3.583 -2.2842 -1.0726 -0.1378
 2171SOL    HW3 8683   3.138   4.074   3.454 -0.7501  0.2270  0.5209
 2171SOL    MW4 8684   3.142   3.998   3.496 -1.1109 -0.1986 -0.2007
 2172SOL     OW 8685   3.138   4.229   3.367 -0.4658  0.1376 -0.1547
 2172SOL    HW2 8686   3.217   4.278   3.388  0.1538 -0.2105 -1.6606
 2172SOL    HW3 8687   3.066   4.287   3.394  0.2673 -0.1517  2.5854
 2172SOL    MW4 8688   3.139   4.243   3.374 -0.2874  0.0535  0.0082
 2173SOL     OW 8689   3.379   4.349   3.491  0.3523  0.0115  0.1402
 2173SOL    HW2 8690   3.364   4.336   3.585  0.8549  0.2339  0.2516
 2173SOL    HW3 8691   3.383   4.444   3.480  2.5039 -0.0534  0.2491
 2173SOL    MW4 8692   3.378   4.360   3.502  0.7025  0.0323  0.1692
 2174SOL     OW 8693   3.819   4.629   3.407  0.3246  0.3462  0.0397
 2174SOL    HW2 8694   3.737   4.656   3.449 -0.0748 -1.1919  0.2509
 2174SOL    HW3 8695   3.809   4.656   3.315 -0.6337 -0.3133 -0.0498
 2174SOL    MW4 8696   3.807   4.636   3.400  0.1455  0.0562  0.0557
 2175SOL     OW 8697   3.577   0.075   3.499 -0.0504 -0.2102  0.2214
 2175SOL    HW2 8698   3.566   0.160   3.458  0.9376 -0.5823 -0.8318
 2175SOL    HW3 8699   3.498   0.026   3.476 -0.0134 -0.0308 -0.2756
 2175SOL    MW4 8700   3.565   0.080   3.491  0.0849 -0.2356  0.0168
 2176SOL     OW 8701   3.580   0.312   3.372  0.2892  0.2151 -0.2836
 2176SOL    HW2 8702   3.665   0.346   3.400 -0.1277 -0.7033  2.2537
 2176SOL    HW3 8703   3.520   0.385   3.384 -0.1031 -0.5141  2.4935
 2176SOL    MW4 8704   3.584   0.326   3.377  0.1825 -0.0023  0.4176
 2177SOL     OW 8705   3.812   0.484   3.451 -0.5821  0.7051  0.1674
 2177SOL    HW2 8706   3.898   0.451   3.425 -1.6010 -0.7234 -1.4568
 2177SOL    HW3 8707   3.817   0.490   3.546 -0.2429 -3.8814  0.5290
 2177SOL    MW4 8708   3.824   0.480   3.460 -0.6718 -0.0885  0.0008
 2178SOL     OW 8709   3.805   0.756   3.407  0.4593 -0.2853  0.0710
 2178SOL    HW2 8710   3.887   0.799   3.431 -0.0422  0.1371  1.0302
 2178SOL    HW3 8711   3.819   0.664   3.430  0.2245 -0.0004  1.3281
 2178SOL    MW4 8712   3.818   0.750   3.413  0.3622 -0.1920  0.3634
 2179SOL     OW 8713   3.621   0.932   3.516  0.4549 -0.1504 -0.0432
 2179SOL    HW2 8714   3.614   0.917   3.610  1.1022 -0.3227 -0.0196
 2179SOL    HW3 8715   3.693   0.875   3.488  0.4672  0.1326 -0.5894
 2179SOL    MW4 8716   3.630   0.922   3.525  0.5419 -0.1358 -0.1121
 2180SOL     OW 8717   3.615   1.194   3.390 -0.0580 -0.1658  0.0974
 2180SOL    HW2 8718   3.634   1.107   3.423 -1.0697 -0.4690 -0.1000
 2180SOL    HW3 8719   3.605   1.182   3.295 -0.8439  0.0375  0.1460
 2180SOL    MW4 8720   3.616   1.181   3.382 -0.2952 -0.1789  0.0778
 2181SOL     OW 8721   3.866   1.275   3.478  0.1879  0.1498 -0.0226
 2181SOL    HW2 8722   3.879   1.258   3.572  1.5401  0.0479 -0.2211
 2181SOL    HW3 8723   3.773   1.261   3.464  0.2285 -1.2802  1.0264
 2181SOL    MW4 8724   3.856   1.271   3.489  0.3717 -0.0523  0.0896
 2182SOL     OW 8725   3.850   1.525   3.341 -0.0703  0.0766 -0.1872
 2182SOL    HW2 8726   3.899   1.604   3.362 -1.8296  0.7626  1.5383
 2182SOL    HW3 8727   3.900   1.454   3.380  0.4160  0.5868  0.1238
 2182SOL    MW4 8728   3.863   1.526   3.349 -0.2383  0.2344  0.0815
 2183SOL     OW 8729   3.623   1.668   3.453  0.0145 -0.2968  0.2519
 2183SOL    HW2 8730   3.629   1.762   3.435 -0.7562 -0.2957 -0.0209
 2183SOL    HW3 8731   3.706   1.633   3.422  0.1636  0.2413  0.0249
 2183SOL    MW4 8732   3.635   1.676   3.447 -0.0675 -0.2257  0.1860
 2184SOL     OW 8733   3.605   1.936   3.405 -0.4048  0.2050 -0.3043
 2184SOL    HW2 8734   3.668   1.994   3.446  0.5854 -0.7158 -0.5095
 2184SOL    HW3 8735   3.520   1.971   3.432  0.2051 -0.4130  2.6123
 2184SOL    MW4 8736   3.602   1.948   3.414 -0.1937  0.0019  0.0534
 2185SOL     OW 8737   3.804   2.108   3.518  0.2841 -0.2294 -0.5442
 2185SOL    HW2 8738   3.829   2.114   3.610 -0.2405  0.2955 -0.4303
 2185SOL    HW3 8739   3.879   2.068   3.475  1.1331  0.8949 -0.1310
 2185SOL    MW4 8740   3.817   2.104   3.524  0.3269 -0.0118 -0.4746
 2186SOL     OW 8741   3.801   2.345   3.389  0.2437 -0.0750  0.0603
 2186SOL    HW2 8742   3.879   2.381   3.432  0.0959 -0.8411  0.9885
 2186SOL    HW3 8743   3.795   2.255   3.422 -0.5045 -0.3188 -0.7265
 2186SOL    MW4 8744   3.811   2.338   3.399  0.1255 -0.2082  0.0790
 2187SOL     OW 8745   3.587   2.473   3.499 -0.3713 -0.2285 -0.0202
 2187SOL    HW2 8746   3.587   2.564   3.471 -0.9878 -0.3355 -0.3721
 2187SOL    HW3 8747   3.665   2.435   3.460 -0.2597  0.0821 -0.0935
 2187SOL    MW4 8748   3.597   2.480   3.490 -0.4379 -0.2016 -0.0763
 2188SOL     OW 8749   3.615   2.758   3.435  0.5968 -0.4370  0.1900
 2188SOL    HW2 8750   3.698   2.789   3.471  0.6029  0.1800 -0.3529
 2188SOL    HW3 8751   3.629   2.756   3.341 -0.1291  0.0380  0.0706
 2188SOL    MW4 8752   3.628   2.762   3.427  0.5018 -0.2929  0.1026
 2189SOL     OW 8753   3.857   2.848   3.511 -0.4798 -0.1620 -0.3931
 2189SOL    HW2 8754   3.857   2.857   3.607  0.3015 -0.6651 -0.3365
 2189SOL    HW3 8755   3.856   2.938   3.479  0.7619  0.0432  0.1066
 2189SOL    MW4 8756   3.857   2.861   3.520 -0.2129 -0.2013 -0.3197
 2190SOL     OW 8757   3.394   3.108   3.392 -0.0334  0.7473 -0.1806
 2190SOL    HW2 8758   3.315   3.160   3.410 -0.0529  1.4274 -2.1016
 2190SOL    HW3 8759   3.466   3.164   3.422 -0.2241  0.4335  0.8976
 2190SOL    MW4 8760   3.393   3.122   3.399 -0.0612  0.7956 -0.2918
 2191SOL     OW 8761   3.609   3.247   3.505  0.0607  0.2020  0.6313
 2191SOL    HW2 8762   3.609   3.340   3.479 -0.9036  0.4629  1.5461
 2191SOL    HW3 8763   3.691   3.213   3.470  1.1154  1.7624  1.5192
 2191SOL    MW4 8764   3.620   3.255   3.497  0.0727  0.4423  0.8692
 2192SOL     OW 8765   3.612   3.502   3.407 -0.2789 -0.0462  0.3007
 2192SOL    HW2 8766   3.537   3.550   3.441  0.1036  0.9276 -0.1806
 2192SOL    HW3 8767   3.596   3.497   3.313 -0.4252 -1.0766  0.3775
 2192SOL    MW4 8768   3.600   3.508   3.399 -0.2478 -0.0537  0.2473
 2193SOL     OW 8769   3.856   3.590   3.506  0.6363 -0.4275  0.5262
 2193SOL    HW2 8770   3.851   3.591   3.602 -1.5992 -0.7854  0.4486
 2193SOL    HW3 8771   3.771   3.557   3.478  1.0180  0.3072 -1.6166
 2193SOL    MW4 8772   3.844   3.586   3.515  0.3917 -0.3778  0.2333
 2194SOL     OW 8773   3.839   3.876   3.372  0.5258 -0.3162  0.2568
 2194SOL    HW2 8774   3.750   3.901   3.394  1.3397  1.3218  1.7671
 2194SOL    HW3 8775   3.849   3.788   3.408 -0.9627 -1.1469 -1.3030
 2194SOL    MW4 8776   3.829   3.868   3.379  0.4368 -0.2097  0.2502
 2195SOL     OW 8777   3.598   4.028   3.439 -0.2745 -0.1104  0.3436
 2195SOL    HW2 8778   3.576   4.031   3.532 -0.4288 -0.3188  0.3143
 2195SOL    HW3 8779   3.592   4.119   3.410 -1.0259 -0.1539  0.3521
 2195SOL    MW4 8780   3.594   4.040   3.448 -0.3940 -0.1436  0.3409
 2196SOL     OW 8781   3.599   4.283   3.339  0.8211  0.1396  0.6782
 2196SOL    HW2 8782   3.511   4.300   3.372  0.7927 -0.0317  0.6866
 2196SOL    HW3 8783   3.594   4.302   3.245  0.5696 -0.6843  0.5259
 2196SOL    MW4 8784   3.587   4.288   3.331  0.7842  0.0083  0.6593
 2197SOL     OW 8785   3.813   4.377   3.475 -0.4676 -0.3109 -0.0240
 2197SOL    HW2 8786   3.753   4.332   3.415  0.8996 -0.8177 -1.0321
 2197SOL    HW3 8787   3.818   4.466   3.443 -0.7163 -0.2582  0.0849
 2197SOL    MW4 8788   3.806   4.383   3.463 -0.3201 -0.3708 -0.1427
 2198SOL     OW 8789   4.291   0.009   3.381  0.1445 -0.0545  0.1103
 2198SOL    HW2 8790   4.282  -0.062   3.446  0.7867 -0.1809  0.0690
 2198SOL    HW3 8791   4.372   0.053   3.406 -0.0192  0.3870 -0.1385
 2198SOL    MW4 8792   4.301   0.005   3.393  0.2077 -0.0129  0.0720
 2199SOL     OW 8793   4.041   0.108   3.464 -0.4356  0.6789  0.2423
 2199SOL    HW2 8794   4.124   0.069   3.436 -0.4604  0.7723  0.0361
 2199SOL    HW3 8795   3.974   0.054   3.422 -0.4979  0.0547  1.1288
 2199SOL    MW4 8796   4.043   0.095   3.455 -0.4471  0.6089  0.3320
 2200SOL     OW 8797   4.064   0.392   3.389 -0.0219  0.2067 -0.1045
 2200SOL    HW2 8798   4.043   0.302   3.412 -2.3037  1.1426  1.7305
 2200SOL    HW3 8799   4.079   0.390   3.294 -1.2569 -1.8793 -0.2886
 2200SOL    MW4 8800   4.063   0.380   3.379 -0.4859  0.0550  0.1133
 2201SOL     OW 8801   4.298   0.523   3.507  0.0731  0.0277  0.0686
 2201SOL    HW2 8802   4.293   0.605   3.459 -0.4680 -0.4878 -0.7759
 2201SOL    HW3 8803   4.215   0.479   3.488 -0.4679  0.1274  2.0683
 2201SOL    MW4 8804   4.287   0.528   3.498 -0.0697 -0.0271  0.2210
 2202SOL     OW 8805   4.279   0.774   3.393 -0.0014 -0.0699 -0.2686
 2202SOL    HW2 8806   4.356   0.814   3.434 -0.0316 -0.8549  0.5889
 2202SOL    HW3 8807   4.287   0.796   3.300  0.6530  0.8209 -0.0113
 2202SOL    MW4 8808   4.291   0.782   3.386  0.0810 -0.0560 -0.1215
 2203SOL     OW 8809   4.044   0.882   3.468  0.3490  0.2098 -0.6667
 2203SOL    HW2 8810   4.126   0.837   3.451  0.1611 -0.8786  1.1955
 2203SOL    HW3 8811   4.044   0.956   3.407  1.8341 -0.8437 -1.9631
 2203SOL    MW4 8812   4.055   0.886   3.458  0.5202 -0.0728 -0.5920
 2204SOL     OW 8813   4.034   1.126   3.326  0.0107  0.2104  0.2467
 2204SOL    HW2 8814   4.115   1.170   3.352  0.2797 -0.5781  0.7584
 2204SOL    HW3 8815   3.966   1.170   3.376 -0.1241  2.0572 -1.4887
 2204SOL    MW4 8816   4.036   1.138   3.336  0.0284  0.3500  0.0853
 2205SOL     OW 8817   4.250   1.287   3.425 -0.1052 -0.1829 -0.2333
 2205SOL    HW2 8818   4.256   1.366   3.370 -0.8935 -0.7065 -1.0790
 2205SOL    HW3 8819   4.332   1.240   3.408  1.1287  1.2545  1.5439
 2205SOL    MW4 8820   4.262   1.291   3.415 -0.0464 -0.0623 -0.1104
 2206SOL     OW 8821   4.272   1.551   3.355  0.4834 -0.2476 -0.0989
 2206SOL    HW2 8822   4.190   1.598   3.370  0.4946 -0.2293 -0.0955
 2206SOL    HW3 8823   4.294   1.571   3.264  1.5307  1.3746  0.4910
 2206SOL    MW4 8824   4.264   1.560   3.345  0.6230 -0.0312 -0.0206
 2207SOL     OW 8825   4.022   1.700   3.452 -0.2333 -0.3037  0.0046
 2207SOL    HW2 8826   4.033   1.703   3.547  1.6017 -0.4887 -0.1911
 2207SOL    HW3 8827   4.024   1.791   3.424 -1.1463 -0.2265  0.1742
 2207SOL    MW4 8828   4.024   1.712   3.461 -0.1117 -0.3179  0.0012
 2208SOL     OW 8829   4.019   1.969   3.388 -0.3417 -0.2319  0.3294
 2208SOL    HW2 8830   4.093   2.015   3.427 -0.7263  0.5862  0.0860
 2208SOL    HW3 8831   4.045   1.953   3.297 -0.2837 -0.3517  0.3657
 2208SOL    MW4 8832   4.032   1.973   3.381 -0.3848 -0.1397  0.3021
 2209SOL     OW 8833   4.252   2.081   3.511 -0.5338 -0.1448  0.6824
 2209SOL    HW2 8834   4.237   2.162   3.463 -2.5761 -1.0717 -0.3119
 2209SOL    HW3 8835   4.337   2.049   3.480 -0.6967  0.5337 -0.4580
 2209SOL    MW4 8836   4.261   2.087   3.501 -0.8247 -0.1776  0.4008
 2210SOL     OW 8837   4.244   2.326   3.378 -0.1187  0.7013 -0.9107
 2210SOL    HW2 8838   4.168   2.366   3.420 -0.7443  1.6430 -2.8908
 2210SOL    HW3 8839   4.219   2.318   3.286  1.1691 -1.4384 -1.1074
 2210SOL    MW4 8840   4.230   2.330   3.371 -0.0313  0.5432 -1.1979
 2211SOL     OW 8841   4.024   2.443   3.502 -0.0269 -0.5106 -0.4739
 2211SOL    HW2 8842   4.024   2.434   3.597  1.3440 -1.5227 -0.5628
 2211SOL    HW3 8843   4.025   2.538   3.487 -0.2310 -0.3513  0.5082
 2211SOL    MW4 8844   4.024   2.455   3.512  0.1271 -0.6231 -0.3560
 2212SOL     OW 8845   4.078   2.704   3.429 -0.1339 -0.4558 -0.1826
 2212SOL    HW2 8846   4.159   2.749   3.450 -0.0646 -0.4180 -0.5186
 2212SOL    HW3 8847   4.009   2.764   3.458 -0.0405 -0.5169  0.1592
 2212SOL    MW4 8848   4.079   2.718   3.435 -0.1124 -0.4589 -0.1818
 2213SOL     OW 8849   4.307   2.867   3.516 -0.0716  0.1063  0.5506
 2213SOL    HW2 8850   4.299   2.838   3.607 -1.2493  0.4640  0.5654
 2213SOL    HW3 8851   4.380   2.816   3.482  0.3808 -0.0346  1.6966
 2213SOL    MW4 8852   4.315   2.856   3.524 -0.1673  0.1349  0.7038
 2214SOL     OW 8853   4.267   3.107   3.381  0.2791 -0.2845 -0.3913
 2214SOL    HW2 8854   4.268   3.022   3.426 -3.0680  0.3133  0.9648
 2214SOL    HW3 8855   4.247   3.084   3.290 -1.5651 -0.9373  0.1468
 2214SOL    MW4 8856   4.264   3.093   3.375 -0.4058 -0.2918 -0.1414
 2215SOL     OW 8857   4.048   3.242   3.493 -0.0140  0.4473 -0.1725
 2215SOL    HW2 8858   4.058   3.334   3.471  0.3345  0.0826 -1.5819
 2215SOL    HW3 8859   4.130   3.201   3.466 -1.1888 -0.7305 -2.0959
 2215SOL    MW4 8860   4.060   3.249   3.487 -0.1230  0.2438 -0.6122
 2216SOL     OW 8861   4.085   3.490   3.368  0.0118  0.1302 -0.1895
 2216SOL    HW2 8862   4.142   3.544   3.423 -0.1006  0.5937 -0.5198
 2216SOL    HW3 8863   3.996   3.523   3.385  0.0514  0.8222 -1.2424
 2216SOL    MW4 8864   4.080   3.502   3.377  0.0022  0.2827 -0.3720
 2217SOL     OW 8865   4.293   3.640   3.489 -0.6081 -0.0069  0.1554
 2217SOL    HW2 8866   4.285   3.645   3.584  0.3638 -0.4220  0.2573
 2217SOL    HW3 8867   4.292   3.731   3.460 -1.3055  0.1060  0.5282
 2217SOL    MW4 8868   4.291   3.652   3.498 -0.5719 -0.0468  0.2180
 2218SOL     OW 8869   4.266   3.927   3.342  0.2037  0.2850  0.0666
 2218SOL    HW2 8870   4.357   3.950   3.363  0.6021 -1.1730 -0.0411
 2218SOL    HW3 8871   4.270   3.896   3.251 -0.1905 -0.9982  0.4851
 2218SOL    MW4 8872   4.279   3.926   3.332  0.2042 -0.0767  0.1076
 2219SOL     OW 8873   4.052   3.998   3.507  0.0916  0.2911 -0.4277
 2219SOL    HW2 8874   4.123   3.974   3.447 -0.1118 -1.1513 -0.1213
 2219SOL    HW3 8875   3.974   3.959   3.467 -0.2259  0.3236  0.1627
 2219SOL    MW4 8876   4.051   3.989   3.494  0.0229  0.1051 -0.3094
 2220SOL     OW 8877   4.039   4.263   3.369  0.1956  0.2099  0.4269
 2220SOL    HW2 8878   4.050   4.186   3.425  0.2274  0.8050  1.2555
 2220SOL    HW3 8879   3.953   4.298   3.394 -0.9635 -1.0005 -1.7520
 2220SOL    MW4 8880   4.029   4.258   3.380  0.0469  0.1287  0.2488
 2221SOL     OW 8881   0.006   4.283   3.380 -0.1940  0.0975  0.3893
 2221SOL    HW2 8882   0.079   4.336   3.411  0.4527 -0.8810  0.5528
 2221SOL    HW3 8883  -0.072   4.329   3.411  0.2231  2.8094 -2.4290
 2221SOL    MW4 8884   0.005   4.296   3.388 -0.0536  0.3262  0.0391
 2222SOL     OW 8885   0.214   0.020   3.809 -0.6883 -0.1401  0.6217
 2222SOL    HW2 8886   0.206   0.029   3.904 -0.1491 -0.0969  0.6656
 2222SOL    HW3 8887   0.131   0.055   3.774 -1.1663 -0.7851  1.1043
 2222SOL    MW4 8888   0.202   0.026   3.817 -0.6802 -0.2195  0.6912
 2223SOL     OW 8889   4.457   0.093   3.704 -0.5260  0.0872 -0.1299
 2223SOL    HW2 8890   4.470   0.187   3.718 -0.1179  0.0431 -0.2014
 2223SOL    HW3 8891   4.492   0.078   3.616 -1.0241 -0.0446 -0.3074
 2223SOL    MW4 8892   4.463   0.104   3.694 -0.5379  0.0640 -0.1627
 2224SOL     OW 8893   0.005   0.382   3.723  0.2565 -0.2331 -0.2922
 2224SOL    HW2 8894  -0.057   0.456   3.722  0.9430  0.3486 -0.0155
 2224SOL    HW3 8895   0.091   0.423   3.711  0.7610 -0.8643  1.1115
 2224SOL    MW4 8896   0.008   0.397   3.721  0.4136 -0.2396 -0.0705
 2225SOL     OW 8897   0.015   1.371   5.009 -0.1479  0.2264  0.1009
 2225SOL    HW2 8898   0.031   1.465   5.000  2.3327 -0.1828 -0.2800
 2225SOL    HW3 8899   0.100   1.330   4.989 -0.5964 -1.9900  2.3727
 2225SOL    MW4 8900   0.028   1.378   5.005  0.1202 -0.1200  0.3504
 2226SOL     OW 8901   0.175   0.770   3.860  0.6279  0.5270  0.2263
 2226SOL    HW2 8902   0.188   0.705   3.791 -0.5908  0.1795  0.3161
 2226SOL    HW3 8903   0.099   0.820   3.832  0.5617  0.8495  0.9634
 2226SOL    MW4 8904   0.166   0.768   3.847  0.4584  0.5237  0.3354
 2227SOL     OW 8905   4.471   0.918   3.759  0.0128  0.0593 -0.5253
 2227SOL    HW2 8906   4.386   0.885   3.789 -0.0764 -0.4486 -1.3036
 2227SOL    HW3 8907   4.481   1.002   3.802 -0.4630 -0.3057  0.3093
 2227SOL    MW4 8908   4.461   0.925   3.769 -0.0618 -0.0559 -0.5179
 2228SOL     OW 8909   0.007   1.185   3.827  0.0435 -0.2970  0.0608
 2228SOL    HW2 8910  -0.075   1.220   3.793  1.1564  1.5240 -0.8800
 2228SOL    HW3 8911   0.072   1.253   3.806  2.1119 -2.4983 -0.8472
 2228SOL    MW4 8912   0.005   1.199   3.820  0.4632 -0.3472 -0.1831
 2229SOL     OW 8913   0.235   1.333   3.722 -0.3637  0.5601  0.4189
 2229SOL    HW2 8914   0.264   1.419   3.754 -0.0588  0.8245 -0.5351
 2229SOL    HW3 8915   0.304   1.273   3.749  0.1940  0.8848 -0.2489
 2229SOL    MW4 8916   0.248   1.336   3.730 -0.2499  0.6378  0.2049
 2230SOL     OW 8917   0.259   1.581   3.846  0.5900 -0.5970  0.6142
 2230SOL    HW2 8918   0.236   1.555   3.935 -1.9576 -1.2611 -0.2126
 2230SOL    HW3 8919   0.176   1.599   3.803  1.8449  0.8982 -1.3022
 2230SOL    MW4 8920   0.245   1.580   3.852  0.4194 -0.4873  0.2523
 2231SOL     OW 8921   0.022   1.643   3.761 -0.4506 -0.2757  0.2179
 2231SOL    HW2 8922   0.026   1.733   3.792 -1.2882 -0.0537 -0.2685
 2231SOL    HW3 8923   0.006   1.652   3.666 -0.5419 -0.9296  0.1712
 2231SOL    MW4 8924   0.020   1.656   3.752 -0.5731 -0.3327  0.1475
 2232SOL     OW 8925   0.046   1.895   3.881 -0.1287  0.0584  0.2313
 2232SOL    HW2 8926  -0.028   1.934   3.835 -0.0601 -2.0367 -1.7313
 2232SOL    HW3 8927   0.116   1.960   3.874 -0.4604  0.2146 -1.6894
 2232SOL    MW4 8928   0.046   1.909   3.874 -0.1634 -0.1974 -0.2811
 2233SOL     OW 8929   0.249   2.074   3.817 -0.6097  0.4143 -0.6515
 2233SOL    HW2 8930   0.227   2.058   3.725  0.2469  0.7139 -0.9175
 2233SOL    HW3 8931   0.238   2.169   3.828  0.1594  0.5097 -0.6879
 2233SOL    MW4 8932   0.245   2.085   3.806 -0.3952  0.4664 -0.6914
 2234SOL     OW 8933   0.191   2.358   3.849 -0.3991  0.2925 -0.4445
 2234SOL    HW2 8934   0.170   2.361   3.942  1.9011  2.4598  0.0830
 2234SOL    HW3 8935   0.116   2.398   3.806 -2.5531 -2.8504  0.1831
 2234SOL    MW4 8936   0.179   2.363   3.856 -0.3798  0.1638 -0.2921
 2235SOL     OW 8937   4.464   2.484   3.755  0.3822 -0.8131 -0.5659
 2235SOL    HW2 8938   4.396   2.427   3.790 -0.2021  0.3730  0.2368
 2235SOL    HW3 8939   4.474   2.554   3.819  0.0852  0.7845 -2.1986
 2235SOL    MW4 8940   4.457   2.486   3.768  0.2659 -0.4458 -0.6754
 2236SOL     OW 8941   0.017   2.713   3.915 -0.1013 -0.2098 -0.4927
 2236SOL    HW2 8942   0.094   2.767   3.896  1.3145 -1.9849 -0.0405
 2236SOL    HW3 8943   0.002   2.725   4.009 -0.7737  0.6285 -0.7052
 2236SOL    MW4 8944   0.025   2.722   3.925 -0.0033 -0.3334 -0.4610
 2237SOL     OW 8945   0.248   2.822   3.786 -0.2336 -0.1198  0.3426
 2237SOL    HW2 8946   0.327   2.772   3.803 -2.1977 -3.3002  0.4735
 2237SOL    HW3 8947   0.242   2.828   3.691  0.3637  0.5224  0.3387
 2237SOL    MW4 8948   0.257   2.816   3.776 -0.4139 -0.4547  0.3594
 2238SOL     OW 8949   0.250   3.072   3.886 -0.5467 -0.1588  0.0061
 2238SOL    HW2 8950   0.263   2.984   3.851 -2.8326 -0.6173  0.2841
 2238SOL    HW3 8951   0.310   3.078   3.960 -1.3421 -1.9560  0.8107
 2238SOL    MW4 8952   0.260   3.061   3.891 -0.9532 -0.4564  0.1489
 2239SOL     OW 8953   0.013   3.221   3.806 -0.6020 -0.2554 -0.2437
 2239SOL    HW2 8954   0.077   3.156   3.834  0.2422  0.5519 -0.2764
 2239SOL    HW3 8955   0.043   3.249   3.720  0.6288  2.1973  0.9301
 2239SOL    MW4 8956   0.025   3.216   3.798 -0.3283  0.1747 -0.0932
 2240SOL     OW 8957   0.001   3.490   3.913  0.1636  0.1744 -0.0191
 2240SOL    HW2 8958   0.081   3.520   3.871  0.0477  0.2091 -0.2126
 2240SOL    HW3 8959  -0.001   3.395   3.897 -1.0013  0.5072 -1.9803
 2240SOL    MW4 8960   0.011   3.481   3.906 -0.0054  0.2229 -0.3034
 2241SOL     OW 8961   0.187   3.623   3.787 -0.0474  0.1221  0.1980
 2241SOL    HW2 8962   0.274   3.586   3.798  0.5962  1.1893 -1.1389
 2241SOL    HW3 8963   0.195   3.713   3.818 -0.4758  0.4400 -0.5788
 2241SOL    MW4 8964   0.199   3.630   3.792 -0.0190  0.3049 -0.0808
 2242SOL     OW 8965   0.221   3.909   3.854 -0.0125 -0.2456  0.2644
 2242SOL    HW2 8966   0.231   3.893   3.948  0.7757  1.2329  0.4493
 2242SOL    HW3 8967   0.301   3.956   3.830 -1.0217  0.9333 -0.7888
 2242SOL    MW4 8968   0.233   3.913   3.864 -0.0416  0.1050  0.1498
 2243SOL     OW 8969   0.009   4.019   3.716 -0.1326 -0.1245  0.2810
 2243SOL    HW2 8970  -0.069   3.984   3.759  0.4148  1.5277  2.7727
 2243SOL    HW3 8971   0.082   3.977   3.760  0.4326  0.2144 -0.3217
 2243SOL    MW4 8972   0.008   4.009   3.727  0.0142  0.1382  0.5302
 2244SOL     OW 8973   0.012   4.273   3.829  0.7594 -0.2045  0.3214
 2244SOL    HW2 8974   0.085   4.332   3.810 -0.2737  0.8798 -0.3768
 2244SOL    HW3 8975   0.027   4.197   3.773  1.0141  0.2852 -0.2850
 2244SOL    MW4 8976   0.024   4.271   3.819  0.6567  0.0032  0.1493
 2245SOL     OW 8977   0.230   4.411   3.752  0.0687 -0.4334  0.0206
 2245SOL    HW2 8978   0.312   4.372   3.781  0.1151 -0.4023 -0.0678
 2245SOL    HW3 8979   0.237   4.503   3.778 -0.4840 -0.7088  1.1704
 2245SOL    MW4 8980   0.242   4.418   3.760  0.0019 -0.4656  0.1606
 2246SOL     OW 8981   0.870   0.138   3.670 -0.1285  0.1594 -0.0433
 2246SOL    HW2 8982   0.949   0.090   3.696 -0.0427 -0.8285 -2.0150
 2246SOL    HW3 8983   0.806   0.118   3.738  1.1371  0.5197  1.2783
 2246SOL    MW4 8984   0.872   0.129   3.683  0.0498  0.0766 -0.1291
 2247SOL     OW 8985   0.476   0.125   3.780 -0.2352  0.5689  0.1468
 2247SOL    HW2 8986   0.465   0.214   3.814 -1.1603  0.3272  0.5037
 2247SOL    HW3 8987   0.388   0.087   3.784  0.5130 -1.0428  1.9200
 2247SOL    MW4 8988   0.463   0.132   3.785 -0.2585  0.3244  0.4278
 2248SOL     OW 8989   0.229   0.534   3.698  0.2844 -0.6668 -0.1978
 2248SOL    HW2 8990   0.302   0.498   3.748  0.6065 -0.3302 -0.4217
 2248SOL    HW3 8991   0.247   0.508   3.608  0.6003  0.1887 -0.3804
 2248SOL    MW4 8992   0.241   0.526   3.693  0.3685 -0.5095 -0.2514
 2249SOL     OW 8993   0.663   0.507   3.687 -0.1691  0.7864  0.0746
 2249SOL    HW2 8994   0.743   0.465   3.719  0.3409  1.7941  0.1744
 2249SOL    HW3 8995   0.667   0.596   3.723 -1.8396  0.5370  0.8804
 2249SOL    MW4 8996   0.674   0.513   3.696 -0.3222  0.8864  0.1941
 2250SOL     OW 8997   0.684   0.759   3.799 -0.3042 -0.1281 -0.4715
 2250SOL    HW2 8998   0.748   0.821   3.765 -1.0766  0.7683 -0.3017
 2250SOL    HW3 8999   0.599   0.799   3.781 -0.8024 -0.9811 -0.0699
 2250SOL    MW4 9000   0.682   0.772   3.792 -0.4718 -0.1224 -0.3961
 2251SOL     OW 9001   0.443   0.905   3.791 -0.1055 -0.0401 -0.1666
 2251SOL    HW2 9002   0.437   0.998   3.814  0.0742 -0.2310  0.6473
 2251SOL    HW3 9003   0.357   0.869   3.812 -0.4176  0.0990 -1.1894
 2251SOL    MW4 9004   0.431   0.913   3.797 -0.1230 -0.0469 -0.1942
 2252SOL     OW 9005   0.435   1.175   3.835 -0.0749 -0.0728 -0.4689
 2252SOL    HW2 9006   0.512   1.218   3.798  0.2520 -0.4979 -0.2889
 2252SOL    HW3 9007   0.434   1.202   3.927 -0.5738  0.5446 -0.6581
 2252SOL    MW4 9008   0.445   1.184   3.842 -0.0976 -0.0474 -0.4701
 2253SOL     OW 9009   0.680   1.325   3.742 -0.2248  0.0992 -0.5398
 2253SOL    HW2 9010   0.742   1.261   3.779  1.0086  0.5799 -1.7436
 2253SOL    HW3 9011   0.685   1.311   3.647 -3.0225 -0.8060 -0.6041
 2253SOL    MW4 9012   0.689   1.315   3.734 -0.4312  0.0432 -0.7071
 2254SOL     OW 9013   0.718   1.585   3.853  0.0295  0.0955 -0.3993
 2254SOL    HW2 9014   0.786   1.635   3.809  0.3771 -1.3503 -1.5770
 2254SOL    HW3 9015   0.711   1.504   3.802 -0.9413 -0.7872  1.0767
 2254SOL    MW4 9016   0.726   1.581   3.840 -0.0527 -0.2117 -0.3599
 2255SOL     OW 9017   0.485   1.677   3.727 -0.0994  0.8392 -0.5117
 2255SOL    HW2 9018   0.561   1.641   3.773  0.5018  1.5138 -0.9599
 2255SOL    HW3 9019   0.410   1.635   3.769  0.5334 -0.1552 -0.3447
 2255SOL    MW4 9020   0.485   1.667   3.739  0.0634  0.7970 -0.5488
 2256SOL     OW 9021   0.499   1.944   3.860  0.4198 -0.1155 -0.2622
 2256SOL    HW2 9022   0.480   1.861   3.816  1.5617  0.0844 -1.1748
 2256SOL    HW3 9023   0.416   1.991   3.859  0.1235 -0.6337 -1.1034
 2256SOL    MW4 9024   0.486   1.939   3.854  0.5313 -0.1575 -0.4936
 2257SOL     OW 9025   0.740   2.040   3.704 -0.0496 -0.0103  0.1897
 2257SOL    HW2 9026   0.737   2.133   3.726  1.0656 -0.2099  1.2374
 2257SOL    HW3 9027   0.668   2.002   3.756  0.0228  0.1413  0.4035
 2257SOL    MW4 9028   0.730   2.047   3.714  0.1071 -0.0166  0.3561
 2258SOL     OW 9029   0.679   2.283   3.823  0.1591  0.3050 -0.0770
 2258SOL    HW2 9030   0.741   2.346   3.787 -0.0295 -0.2216 -1.3417
 2258SOL    HW3 9031   0.593   2.315   3.794  0.1430 -1.1848 -1.7753
 2258SOL    MW4 9032   0.676   2.296   3.814  0.1321  0.0390 -0.4679
 2259SOL     OW 9033   0.440   2.412   3.719 -0.1240  0.4087 -0.0727
 2259SOL    HW2 9034   0.353   2.383   3.746 -0.5041 -0.7266 -2.3998
 2259SOL    HW3 9035   0.439   2.406   3.623  1.9816  1.9084 -0.2234
 2259SOL    MW4 9036   0.429   2.407   3.710  0.1037  0.4568 -0.3996
 2260SOL     OW 9037   0.456   2.659   3.839  0.4149 -0.0418 -0.1855
 2260SOL    HW2 9038   0.530   2.707   3.800  0.8091  0.2486  0.9181
 2260SOL    HW3 9039   0.463   2.571   3.803 -0.2556  0.6830 -2.1602
 2260SOL    MW4 9040   0.467   2.654   3.829  0.3784  0.0921 -0.3004
 2261SOL     OW 9041   0.660   2.847   3.706 -0.1815 -0.5245 -0.2441
 2261SOL    HW2 9042   0.734   2.790   3.726  0.3314  0.2260 -0.0158
 2261SOL    HW3 9043   0.656   2.848   3.611 -0.8606 -1.8034 -0.2440
 2261SOL    MW4 9044   0.669   2.839   3.696 -0.2034 -0.5942 -0.2140
 2262SOL     OW 9045   0.697   3.071   3.868 -0.1005  0.0707  0.0479
 2262SOL    HW2 9046   0.700   3.036   3.957  1.0812 -1.6245 -0.6345
 2262SOL    HW3 9047   0.684   2.994   3.812 -2.4254  1.2736 -1.1614
 2262SOL    MW4 9048   0.695   3.057   3.872 -0.2514  0.0058 -0.2017
 2263SOL     OW 9049   0.478   3.198   3.763 -0.1855  0.3548  0.3277
 2263SOL    HW2 9050   0.549   3.164   3.817 -0.4098  1.2411  1.1952
 2263SOL    HW3 9051   0.399   3.161   3.802 -0.1773 -1.0748 -0.9696
 2263SOL    MW4 9052   0.477   3.189   3.775 -0.2140  0.2831  0.2710
 2264SOL     OW 9053   0.434   3.479   3.819  0.0069 -0.3041 -0.3169
 2264SOL    HW2 9054   0.482   3.531   3.754  0.1423 -0.0397 -0.0080
 2264SOL    HW3 9055   0.473   3.391   3.812  1.7302  0.3104  1.1126
 2264SOL    MW4 9056   0.446   3.474   3.809  0.2521 -0.1881 -0.0876
 2265SOL     OW 9057   0.634   3.613   3.677  0.0600  0.0148  0.3188
 2265SOL    HW2 9058   0.650   3.692   3.729  0.2861  0.6312 -0.6713
 2265SOL    HW3 9059   0.657   3.638   3.587 -1.6619 -0.6164 -0.3124
 2265SOL    MW4 9060   0.639   3.627   3.672 -0.1373  0.0129  0.1049
 2266SOL     OW 9061   0.664   3.865   3.812 -0.3708  0.0499  0.0006
 2266SOL    HW2 9062   0.660   3.864   3.907 -2.3658  0.2060 -0.0718
 2266SOL    HW3 9063   0.749   3.905   3.792  1.1614 -2.1952  1.7026
 2266SOL    MW4 9064   0.675   3.870   3.822 -0.4319 -0.2257  0.2156
 2267SOL     OW 9065   0.455   4.029   3.758 -0.5548  0.7205  0.2058
 2267SOL    HW2 9066   0.525   3.965   3.769  0.3039  1.7313  0.7108
 2267SOL    HW3 9067   0.430   4.021   3.666  0.1417  0.2732  0.0487
 2267SOL    MW4 9068   0.461   4.019   3.747 -0.3496  0.7948  0.2517
 2268SOL     OW 9069   0.479   4.293   3.840  0.7192 -0.4304 -0.0212
 2268SOL    HW2 9070   0.548   4.347   3.802  1.2772 -1.0584  0.0824
 2268SOL    HW3 9071   0.488   4.208   3.795 -0.0402 -0.4957 -0.0708
 2268SOL    MW4 9072   0.489   4.289   3.829  0.6926 -0.5218 -0.0141
 2269SOL     OW 9073   0.692   4.437   3.751  0.0822 -0.5388  0.4683
 2269SOL    HW2 9074   0.751   4.365   3.773 -1.7622 -2.7947 -1.7687
 2269SOL    HW3 9075   0.678   4.429   3.657 -2.6821  0.7784  0.7174
 2269SOL    MW4 9076   0.698   4.426   3.742 -0.5259 -0.6627  0.2060
 2270SOL     OW 9077   0.742   4.289   4.480 -0.0204  0.0256 -0.0801
 2270SOL    HW2 9078   0.767   4.350   4.410 -0.2915  1.5910  1.1549
 2270SOL    HW3 9079   0.733   4.344   4.558 -2.6856 -1.1896  0.5520
 2270SOL    MW4 9080   0.744   4.305   4.481 -0.4078  0.0718  0.1663
 2271SOL     OW 9081   1.109   0.023   3.784 -0.4173 -0.3714 -0.3996
 2271SOL    HW2 9082   1.186   0.039   3.729 -0.0301 -0.7915  0.0161
 2271SOL    HW3 9083   1.087  -0.069   3.770 -0.3102 -0.4851  0.1497
 2271SOL    MW4 9084   1.116   0.013   3.775 -0.3521 -0.4418 -0.2722
 2272SOL     OW 9085   0.881   0.391   3.814 -0.3249  0.1767 -0.4008
 2272SOL    HW2 9086   0.874   0.396   3.909  0.3448  1.1001 -0.3962
 2272SOL    HW3 9087   0.878   0.297   3.795 -1.0071  0.0174  0.4832
 2272SOL    MW4 9088   0.880   0.379   3.824 -0.3265  0.2775 -0.2836
 2273SOL     OW 9089   1.104   0.530   3.746 -0.2568  0.1797 -0.1237
 2273SOL    HW2 9090   1.177   0.477   3.777  0.2301  0.0944 -1.4065
 2273SOL    HW3 9091   1.026   0.483   3.775  0.1885  0.1058  0.9672
 2273SOL    MW4 9092   1.103   0.517   3.754 -0.1338  0.1587 -0.1490
 2274SOL     OW 9093   1.148   0.784   3.809  0.1351 -0.6987  0.4053
 2274SOL    HW2 9094   1.124   0.779   3.901 -1.3370 -2.0572 -0.0427
 2274SOL    HW3 9095   1.150   0.694   3.779  2.8167 -0.4200 -0.3615
 2274SOL    MW4 9096   1.145   0.772   3.817  0.2947 -0.8411  0.2450
 2275SOL     OW 9097   0.918   0.913   3.710  0.1745 -0.1150 -0.0865
 2275SOL    HW2 9098   1.000   0.865   3.722 -0.3667 -0.9313  0.3986
 2275SOL    HW3 9099   0.900   0.905   3.616  1.1983  0.9930 -0.3924
 2275SOL    MW4 9100   0.926   0.905   3.699  0.2382 -0.0765 -0.0629
 2276SOL     OW 9101   0.906   1.176   3.784 -0.1918 -0.1333 -0.0681
 2276SOL    HW2 9102   0.916   1.174   3.879 -0.3539 -1.9116 -0.0648
 2276SOL    HW3 9103   0.906   1.084   3.758  1.4145  0.3538 -1.9570
 2276SOL    MW4 9104   0.908   1.164   3.793 -0.0012 -0.3037 -0.3169
 2277SOL     OW 9105   1.164   1.285   3.722  0.2743  0.0305  0.1954
 2277SOL    HW2 9106   1.151   1.376   3.748 -0.4174  0.3410 -1.2010
 2277SOL    HW3 9107   1.082   1.242   3.743  0.7447 -0.3797  1.2403
 2277SOL    MW4 9108   1.151   1.291   3.728  0.2451  0.0174  0.1490
 2278SOL     OW 9109   1.155   1.563   3.814 -0.1460  0.1076 -0.3218
 2278SOL    HW2 9110   1.136   1.584   3.905  0.4996  2.1563 -0.6343
 2278SOL    HW3 9111   1.242   1.600   3.799  0.4215 -1.5644 -1.3477
 2278SOL    MW4 9112   1.164   1.571   3.824  0.0141  0.1573 -0.4984
 2279SOL     OW 9113   0.911   1.923   3.887  0.0441 -0.1900  0.0819
 2279SOL    HW2 9114   0.858   1.977   3.828 -0.7486 -1.7918 -0.7043
 2279SOL    HW3 9115   0.940   1.850   3.833  0.5741 -0.8839  1.2935
 2279SOL    MW4 9116   0.908   1.921   3.872  0.0095 -0.4929  0.1380
 2280SOL     OW 9117   0.879   1.325   4.600  0.1316  0.3017 -0.1116
 2280SOL    HW2 9118   0.910   1.281   4.521  0.8422  0.5266  0.0384
 2280SOL    HW3 9119   0.798   1.278   4.624 -0.2766  0.4651 -1.1659
 2280SOL    MW4 9120   0.872   1.313   4.593  0.1715  0.3529 -0.2309
 2281SOL     OW 9121   1.149   2.045   3.762 -0.0160 -0.4846  0.1483
 2281SOL    HW2 9122   1.075   2.003   3.806 -0.5570  0.8849  0.5798
 2281SOL    HW3 9123   1.123   2.052   3.670  0.0961 -1.1294  0.0676
 2281SOL    MW4 9124   1.136   2.041   3.756 -0.0726 -0.3890  0.1946
 2282SOL     OW 9125   1.114   2.311   3.838  0.0398 -0.2242 -0.2492
 2282SOL    HW2 9126   1.082   2.303   3.928  0.8557  1.6713  0.2231
 2282SOL    HW3 9127   1.115   2.221   3.805 -2.5043 -0.7119  0.8380
 2282SOL    MW4 9128   1.110   2.298   3.846 -0.1882 -0.0385 -0.0434
 2283SOL     OW 9129   0.883   2.427   3.707  0.3866  0.2552 -0.2517
 2283SOL    HW2 9130   0.884   2.517   3.739 -0.8445 -0.5758  2.2956
 2283SOL    HW3 9131   0.963   2.388   3.743 -0.8010 -0.5700  1.6248
 2283SOL    MW4 9132   0.894   2.433   3.716  0.0675  0.0367  0.3320
 2284SOL     OW 9133   0.864   2.678   3.797 -0.1777 -0.2671 -0.0078
 2284SOL    HW2 9134   0.882   2.653   3.887  1.1796 -1.0959 -0.4920
 2284SOL    HW3 9135   0.941   2.727   3.770 -0.9535  0.7116 -0.4483
 2284SOL    MW4 9136   0.877   2.681   3.805 -0.1010 -0.2474 -0.1298
 2285SOL     OW 9137   1.106   2.799   3.747  0.0669  0.3305 -0.0776
 2285SOL    HW2 9138   1.169   2.737   3.783  0.3265  0.4346 -0.3458
 2285SOL    HW3 9139   1.129   2.883   3.788  0.1604  0.3859 -0.2421
 2285SOL    MW4 9140   1.117   2.802   3.757  0.1135  0.3516 -0.1347
 2286SOL     OW 9141   1.104   3.070   3.850  0.2982  0.4770 -0.4749
 2286SOL    HW2 9142   1.187   3.108   3.821  0.3377 -0.5177 -1.7187
 2286SOL    HW3 9143   1.037   3.129   3.814  0.3921 -0.0676 -1.5726
 2286SOL    MW4 9144   1.106   3.083   3.841  0.3158  0.2739 -0.7838
 2287SOL     OW 9145   0.898   3.235   3.737  0.3925 -0.0582 -0.1018
 2287SOL    HW2 9146   0.891   3.229   3.642  1.2113  0.5023 -0.2034
 2287SOL    HW3 9147   0.811   3.209   3.769 -0.4236  1.3878 -1.0700
 2287SOL    MW4 9148   0.885   3.231   3.729  0.3929  0.2065 -0.2430
 2288SOL     OW 9149   0.886   3.505   3.792 -0.0343 -0.4765 -0.2007
 2288SOL    HW2 9150   0.883   3.410   3.780  0.5096 -0.4325 -0.6731
 2288SOL    HW3 9151   0.805   3.537   3.752  0.6445 -0.5637 -1.6549
 2288SOL    MW4 9152   0.875   3.497   3.785  0.1270 -0.4822 -0.4549
 2289SOL     OW 9153   1.116   3.667   3.733 -0.3594  0.3895 -0.6752
 2289SOL    HW2 9154   1.124   3.748   3.784  0.9003 -0.9532  1.3164
 2289SOL    HW3 9155   1.030   3.633   3.756 -0.0039  0.0524  0.1684
 2289SOL    MW4 9156   1.106   3.673   3.743 -0.1463  0.1679 -0.3012
 2290SOL     OW 9157   1.117   3.932   3.851 -0.0821  0.1389 -0.4957
 2290SOL    HW2 9158   1.204   3.950   3.815 -0.3169 -1.0818 -1.7157
 2290SOL    HW3 9159   1.133   3.907   3.942  0.7440  0.9350 -0.4151
 2290SOL    MW4 9160   1.130   3.931   3.858 -0.0041  0.0828 -0.6461
 2291SOL     OW 9161   0.871   4.000   3.740  0.5838  0.5624  0.2999
 2291SOL    HW2 9162   0.957   3.978   3.778  1.6918  1.2703 -1.7361
 2291SOL    HW3 9163   0.890   4.021   3.649 -1.7956  0.6457 -0.1935
 2291SOL    MW4 9164   0.885   4.000   3.733  0.4161  0.6668 -0.0338
 2292SOL     OW 9165   0.891   4.262   3.810  0.1159 -0.0690 -0.1638
 2292SOL    HW2 9166   0.898   4.247   3.905 -0.2890  0.8776  0.0217
 2292SOL    HW3 9167   0.875   4.175   3.774  2.9963 -0.8506  0.3479
 2292SOL    MW4 9168   0.890   4.248   3.818  0.4425 -0.0472 -0.0718
 2293SOL     OW 9169   1.119   4.406   3.743  0.1899 -0.0887  0.2405
 2293SOL    HW2 9170   1.050   4.343   3.762  0.8381 -0.6736  0.6621
 2293SOL    HW3 9171   1.112   4.420   3.648 -0.9412  0.3772  0.3789
 2293SOL    MW4 9172   1.109   4.400   3.733  0.1262 -0.1044  0.3144
 2294SOL     OW 9173   1.553   0.019   3.802 -0.2632  0.2050 -0.0814
 2294SOL    HW2 9174   1.569   0.041   3.894  2.6559  1.5596 -0.8638
 2294SOL    HW3 9175   1.560  -0.077   3.798 -1.2032  0.0780  1.2437
 2294SOL    MW4 9176   1.556   0.009   3.813 -0.0021  0.3669 -0.0098
 2295SOL     OW 9177   1.346   0.129   3.688 -0.0439  0.1089  0.0165
 2295SOL    HW2 9178   1.352   0.218   3.725  0.1084 -0.2790  0.9463
 2295SOL    HW3 9179   1.408   0.078   3.739 -0.5357 -0.6544 -0.1455
 2295SOL    MW4 9180   1.355   0.134   3.700 -0.0887 -0.0430  0.1178
 2296SOL     OW 9181   1.353   0.395   3.831 -0.0434  0.5806  0.0373
 2296SOL    HW2 9182   1.350   0.397   3.927  1.0194 -0.0195  0.0909
 2296SOL    HW3 9183   1.435   0.440   3.809 -0.1399  0.4562 -0.5752
 2296SOL    MW4 9184   1.363   0.401   3.841  0.0841  0.4850 -0.0364
 2297SOL     OW 9185   1.574   0.521   3.770  0.2083 -0.1426  0.0531
 2297SOL    HW2 9186   1.656   0.473   3.783 -0.1317 -1.2789 -1.7705
 2297SOL    HW3 9187   1.593   0.610   3.800  0.7652 -1.4244  3.7775
 2297SOL    MW4 9188   1.587   0.527   3.775  0.2369 -0.4616  0.3039
 2298SOL     OW 9189   1.607   0.791   3.847 -0.2448 -0.1066  0.0126
 2298SOL    HW2 9190   1.688   0.813   3.801 -0.2787 -0.4456 -0.2082
 2298SOL    HW3 9191   1.538   0.831   3.793 -0.3968 -1.7043 -1.0069
 2298SOL    MW4 9192   1.608   0.799   3.833 -0.2694 -0.3621 -0.1511
 2299SOL     OW 9193   1.370   0.949   3.770 -0.5187  0.0165 -0.4868
 2299SOL    HW2 9194   1.365   1.026   3.826  1.7308  0.3924 -0.7421
 2299SOL    HW3 9195   1.296   0.895   3.796 -0.1079  0.6568  2.1299
 2299SOL    MW4 9196   1.360   0.952   3.781 -0.1677  0.1506 -0.1752
 2300SOL     OW 9197   1.392   1.251   3.882  0.6841 -0.2909  0.1774
 2300SOL    HW2 9198   1.464   1.280   3.826  0.8470  0.9853  1.0175
 2300SOL    HW3 9199   1.314   1.259   3.827  0.9542  0.1122 -0.1521
 2300SOL    MW4 9200   1.391   1.256   3.868  0.7413 -0.0694  0.2448
 2301SOL     OW 9201   1.830   1.171   3.812  0.0422  0.2208 -0.0793
 2301SOL    HW2 9202   1.826   1.081   3.780 -1.7290  0.7432 -1.4029
 2301SOL    HW3 9203   1.815   1.162   3.907 -0.2975 -0.8698 -0.2177
 2301SOL    MW4 9204   1.827   1.158   3.821 -0.2363  0.1458 -0.2722
 2302SOL     OW 9205   4.092   0.743   4.474  0.3193 -0.0054  0.0590
 2302SOL    HW2 9206   4.160   0.791   4.521 -0.0402  1.4411 -0.8547
 2302SOL    HW3 9207   4.136   0.664   4.441  1.4275  0.6644 -0.0970
 2302SOL    MW4 9208   4.107   0.739   4.476  0.4181  0.2738 -0.0821
 2303SOL     OW 9209   1.377   1.674   3.718 -0.2558 -0.5532  0.3555
 2303SOL    HW2 9210   1.370   1.760   3.760 -1.2818 -0.3270 -0.2719
 2303SOL    HW3 9211   1.453   1.633   3.761 -0.4897  0.1877  1.5094
 2303SOL    MW4 9212   1.386   1.680   3.729 -0.4221 -0.4256  0.4250
 2304SOL     OW 9213   1.396   1.933   3.857 -0.4672  0.2501 -0.2908
 2304SOL    HW2 9214   1.327   1.987   3.818  0.4580  0.8188 -1.1766
 2304SOL    HW3 9215   1.395   1.956   3.950  0.6566  2.6619 -0.8274
 2304SOL    MW4 9216   1.387   1.943   3.864 -0.1969  0.6433 -0.4784
 2305SOL     OW 9217   1.630   2.050   3.736 -0.2344  0.2296 -0.1978
 2305SOL    HW2 9218   1.550   2.024   3.782  0.3132  1.4606  1.5201
 2305SOL    HW3 9219   1.601   2.072   3.648 -1.7041  0.1301  0.2403
 2305SOL    MW4 9220   1.616   2.050   3.731 -0.3560  0.3789  0.0867
 2306SOL     OW 9221   1.550   2.286   3.844  0.1991  0.5294  0.3968
 2306SOL    HW2 9222   1.571   2.199   3.810 -0.1437  0.3009  0.7622
 2306SOL    HW3 9223   1.611   2.345   3.800 -0.7227  0.3366 -1.1719
 2306SOL    MW4 9224   1.561   2.282   3.834  0.0323  0.4738  0.2380
 2307SOL     OW 9225   1.341   2.416   3.724  0.3747 -0.1503 -0.4422
 2307SOL    HW2 9226   1.262   2.368   3.748  0.8568 -0.4143  0.6544
 2307SOL    HW3 9227   1.410   2.378   3.778  0.4651  2.8758  1.7191
 2307SOL    MW4 9228   1.340   2.405   3.734  0.4503  0.2141 -0.0123
 2308SOL     OW 9229   1.304   2.652   3.848 -0.4923  0.3500  0.0358
 2308SOL    HW2 9230   1.262   2.636   3.933 -0.9925 -0.7753 -0.4118
 2308SOL    HW3 9231   1.320   2.565   3.813 -1.9940  0.7952 -1.8695
 2308SOL    MW4 9232   1.300   2.639   3.855 -0.7565  0.2603 -0.2747
 2309SOL     OW 9233   1.546   2.840   3.778 -0.0872  0.1636 -0.4426
 2309SOL    HW2 9234   1.477   2.777   3.800 -0.4436  0.8452  0.3996
 2309SOL    HW3 9235   1.556   2.833   3.683  0.4509 -1.7718 -0.2635
 2309SOL    MW4 9236   1.538   2.831   3.768 -0.0633 -0.0018 -0.3079
 2310SOL     OW 9237   1.576   3.093   3.843  0.5906 -0.0692 -0.1028
 2310SOL    HW2 9238   1.587   3.091   3.938  0.1445  0.6879 -0.0305
 2310SOL    HW3 9239   1.564   3.002   3.819 -2.1654 -0.0356  0.9198
 2310SOL    MW4 9240   1.576   3.081   3.853  0.1681  0.0351  0.0416
 2311SOL     OW 9241   1.354   3.195   3.732  0.3413  0.7935  0.1878
 2311SOL    HW2 9242   1.340   3.284   3.764  1.1245  0.9517  0.0950
 2311SOL    HW3 9243   1.432   3.164   3.779 -0.2574 -0.0514  0.6482
 2311SOL    MW4 9244   1.363   3.202   3.743  0.3657  0.7029  0.2363
 2312SOL     OW 9245   1.357   3.471   3.804  0.3972 -0.1898  0.1758
 2312SOL    HW2 9246   1.430   3.524   3.773  0.2101  0.1084  0.2392
 2312SOL    HW3 9247   1.279   3.522   3.779  0.2447  0.0565  1.1462
 2312SOL    MW4 9248   1.356   3.485   3.796  0.3524 -0.1180  0.3122
 2313SOL     OW 9249   1.558   3.621   3.697 -0.1106 -0.0006  0.2646
 2313SOL    HW2 9250   1.627   3.575   3.745  1.3564  0.9496 -0.8917
 2313SOL    HW3 9251   1.557   3.709   3.735  0.4246  0.4709 -0.7696
 2313SOL    MW4 9252   1.567   3.627   3.708  0.1536  0.1870 -0.0244
 2314SOL     OW 9253   1.586   3.858   3.833 -0.3328  0.0858 -0.1041
 2314SOL    HW2 9254   1.589   3.850   3.929  1.0244  1.1882 -0.0404
 2314SOL    HW3 9255   1.503   3.900   3.815 -1.1391 -1.2162  0.5054
 2314SOL    MW4 9256   1.576   3.863   3.844 -0.2601  0.0595 -0.0153
 2315SOL     OW 9257   1.371   3.990   3.740 -0.5003 -0.2426  0.2403
 2315SOL    HW2 9258   1.381   4.083   3.760 -1.4211 -0.1262  0.1675
 2315SOL    HW3 9259   1.362   3.987   3.645 -2.3437 -0.2286  0.4023
 2315SOL    MW4 9260   1.371   4.002   3.730 -0.8650 -0.2254  0.2520
 2316SOL     OW 9261   1.360   4.250   3.845  0.4615 -0.4004 -0.4736
 2316SOL    HW2 9262   1.435   4.307   3.830  0.3350 -0.5729 -1.7794
 2316SOL    HW3 9263   1.284   4.302   3.819  0.1146 -0.2672  0.7396
 2316SOL    MW4 9264   1.360   4.264   3.840  0.3991 -0.4056 -0.4858
 2317SOL     OW 9265   1.584   4.409   3.781 -0.0325  0.2368 -0.1124
 2317SOL    HW2 9266   1.664   4.366   3.810  0.7097  0.5956 -1.5530
 2317SOL    HW3 9267   1.581   4.392   3.687 -1.0256  1.2346 -0.2694
 2317SOL    MW4 9268   1.594   4.401   3.772 -0.0656  0.4158 -0.3232
 2318SOL     OW 9269   2.009   4.660   3.848  0.1562  0.1683 -0.0428
 2318SOL    HW2 9270   2.068   4.717   3.799  1.8329 -0.9500  0.6242
 2318SOL    HW3 9271   2.012   4.576   3.801 -0.6279 -0.0045  0.2014
 2318SOL    MW4 9272   2.017   4.656   3.835  0.2739 -0.0021  0.0775
 2319SOL     OW 9273   1.790   0.145   3.734  0.0191 -0.2844  0.1321
 2319SOL    HW2 9274   1.860   0.091   3.770 -0.2017 -0.1593  0.7566
 2319SOL    HW3 9275   1.709   0.099   3.757 -0.1115 -0.4244 -0.5797
 2319SOL    MW4 9276   1.788   0.132   3.742 -0.0273 -0.2864  0.1206
 2320SOL     OW 9277   1.796   0.392   3.862  0.0155  0.2185  0.1699
 2320SOL    HW2 9278   1.777   0.375   3.954  0.0029 -1.8990 -0.1901
 2320SOL    HW3 9279   1.817   0.306   3.826 -0.3336  0.9625 -1.8871
 2320SOL    MW4 9280   1.796   0.378   3.870 -0.0322  0.0373 -0.1490
 2321SOL     OW 9281   2.067   0.520   3.754 -0.4892  0.7233  0.2112
 2321SOL    HW2 9282   1.995   0.474   3.796 -1.6644  0.9902 -1.4847
 2321SOL    HW3 9283   2.047   0.517   3.660  0.9073  2.1382 -0.1592
 2321SOL    MW4 9284   2.055   0.514   3.747 -0.4600  0.9452 -0.0614
 2322SOL     OW 9285   2.001   0.768   3.851 -0.7186 -0.3205  0.1026
 2322SOL    HW2 9286   1.997   0.751   3.945  0.1405  1.0056  0.3915
 2322SOL    HW3 9287   2.028   0.685   3.813  1.2573 -0.2353  1.2704
 2322SOL    MW4 9288   2.004   0.755   3.858 -0.3446 -0.1343  0.2948
 2323SOL     OW 9289   1.805   0.916   3.710  0.0184  0.0451 -0.0861
 2323SOL    HW2 9290   1.879   0.865   3.745  1.4576  1.2288 -1.3269
 2323SOL    HW3 9291   1.809   0.901   3.615 -3.0503 -2.0961  0.0682
 2323SOL    MW4 9292   1.815   0.907   3.702 -0.1966 -0.0812 -0.2295
 2324SOL     OW 9293   1.593   1.319   3.715 -0.1818 -0.4224 -0.1037
 2324SOL    HW2 9294   1.603   1.394   3.774  0.5675  0.1234 -0.9242
 2324SOL    HW3 9295   1.670   1.264   3.733 -0.6516 -0.9219  0.3889
 2324SOL    MW4 9296   1.605   1.321   3.725 -0.1449 -0.4163 -0.1470
 2325SOL     OW 9297   2.060   1.288   3.739 -0.2196 -0.1659  0.4028
 2325SOL    HW2 9298   2.123   1.237   3.791 -0.4295 -0.9739 -0.1185
 2325SOL    HW3 9299   1.976   1.244   3.755 -0.5202  0.4384  0.4828
 2325SOL    MW4 9300   2.057   1.275   3.748 -0.2870 -0.1928  0.3445
 2326SOL     OW 9301   2.026   1.548   3.844  0.1795  0.0998  0.4797
 2326SOL    HW2 9302   1.953   1.588   3.797  0.1662  0.7795  1.0765
 2326SOL    HW3 9303   2.026   1.457   3.815 -0.9553  0.0793  0.5392
 2326SOL    MW4 9304   2.017   1.541   3.834  0.0280  0.1868  0.5663
 2327SOL     OW 9305   1.571   1.553   3.861 -0.2607  0.7124 -0.0337
 2327SOL    HW2 9306   1.645   1.599   3.821  1.0161 -1.6849 -0.4990
 2327SOL    HW3 9307   1.592   1.551   3.954  0.0655  0.3577 -0.1172
 2327SOL    MW4 9308   1.584   1.559   3.868 -0.0492  0.3493 -0.1061
 2328SOL     OW 9309   1.790   1.667   3.736 -0.2002 -0.1687  0.2271
 2328SOL    HW2 9310   1.817   1.751   3.774  0.5143 -0.4946  0.4377
 2328SOL    HW3 9311   1.810   1.675   3.643 -1.7407  0.5440 -0.0582
 2328SOL    MW4 9312   1.796   1.679   3.729 -0.3092 -0.1177  0.2172
 2329SOL     OW 9313   2.081   2.056   3.765  0.1345  0.2076 -0.2698
 2329SOL    HW2 9314   2.007   2.005   3.799 -0.6677  1.0323 -0.7659
 2329SOL    HW3 9315   2.069   2.056   3.670  0.6583  0.5192 -0.3367
 2329SOL    MW4 9316   2.070   2.050   3.757  0.0978  0.3575 -0.3441
 2330SOL     OW 9317   1.978   2.307   3.838 -0.5033 -0.0947  0.0948
 2330SOL    HW2 9318   1.894   2.348   3.818 -0.5488 -0.2301  0.0122
 2330SOL    HW3 9319   1.982   2.231   3.781 -0.1468  0.1381 -0.1953
 2330SOL    MW4 9320   1.968   2.303   3.828 -0.4623 -0.0819  0.0456
 2331SOL     OW 9321   1.738   2.469   3.767 -0.4887  0.5221 -0.2945
 2331SOL    HW2 9322   1.760   2.555   3.801 -1.7250  0.8112 -0.1843
 2331SOL    HW3 9323   1.755   2.476   3.673 -0.1713  0.7451 -0.2219
 2331SOL    MW4 9324   1.743   2.481   3.759 -0.6100  0.5897 -0.2704
 2332SOL     OW 9325   1.796   2.737   3.850  0.0741  0.4207 -0.2074
 2332SOL    HW2 9326   1.813   2.774   3.937 -2.5157  0.8323  0.1427
 2332SOL    HW3 9327   1.707   2.765   3.829 -0.2097 -1.7255 -1.9506
 2332SOL    MW4 9328   1.787   2.746   3.859 -0.3050  0.1918 -0.3912
 2333SOL     OW 9329   2.041   2.821   3.715  0.2337  0.0590 -0.5859
 2333SOL    HW2 9330   2.118   2.782   3.756  0.4363 -0.5903 -1.5875
 2333SOL    HW3 9331   1.967   2.782   3.762  0.4640 -0.6714 -0.8284
 2333SOL    MW4 9332   2.041   2.811   3.727  0.2908 -0.1230 -0.7501
 2334SOL     OW 9333   1.777   3.204   3.683 -0.1468 -0.0639 -0.4238
 2334SOL    HW2 9334   1.864   3.182   3.717  0.1282 -0.5159 -1.3872
 2334SOL    HW3 9335   1.716   3.156   3.740  0.2980 -0.7740 -0.5418
 2334SOL    MW4 9336   1.780   3.194   3.695 -0.0518 -0.2172 -0.5664
 2335SOL     OW 9337   1.742   3.468   3.834 -0.5729 -0.4833 -0.1448
 2335SOL    HW2 9338   1.828   3.508   3.820 -0.4821 -0.4482  0.4916
 2335SOL    HW3 9339   1.746   3.385   3.786 -0.5013 -0.0720 -0.8605
 2335SOL    MW4 9340   1.754   3.462   3.826 -0.5515 -0.4244 -0.1553
 2336SOL     OW 9341   2.236   2.745   4.348 -0.5987  0.0135 -0.2603
 2336SOL    HW2 9342   2.194   2.690   4.281 -1.5718 -0.2400  0.5454
 2336SOL    HW3 9343   2.164   2.770   4.407  0.1893  0.5152  0.4966
 2336SOL    MW4 9344   2.221   2.741   4.347 -0.6231  0.0462 -0.0541
 2337SOL     OW 9345   1.993   3.602   3.778 -0.3481  0.1372  0.2051
 2337SOL    HW2 9346   2.086   3.581   3.783  0.2988  3.1006  1.3935
 2337SOL    HW3 9347   1.977   3.619   3.685  0.3715 -0.0646  0.0454
 2337SOL    MW4 9348   2.003   3.601   3.766 -0.1678  0.5015  0.3408
 2338SOL     OW 9349   2.007   3.885   3.824 -0.2839 -0.2494  0.2269
 2338SOL    HW2 9350   2.088   3.910   3.780 -0.0994 -0.6099  0.3647
 2338SOL    HW3 9351   1.998   3.791   3.806 -1.6587  0.1593 -1.4177
 2338SOL    MW4 9352   2.016   3.876   3.816 -0.4410 -0.2431  0.0281
 2339SOL     OW 9353   1.790   4.056   3.758  0.0170  0.1554  0.1512
 2339SOL    HW2 9354   1.864   4.003   3.787 -0.1603 -0.6323 -0.7879
 2339SOL    HW3 9355   1.715   3.997   3.763 -0.4567  0.7996  0.6201
 2339SOL    MW4 9356   1.790   4.041   3.762 -0.0688  0.1365  0.0892
 2340SOL     OW 9357   1.827   4.300   3.887 -0.4640 -0.4204  0.1388
 2340SOL    HW2 9358   1.892   4.350   3.838 -0.6624  0.2030  0.5144
 2340SOL    HW3 9359   1.818   4.218   3.837 -0.3704  0.0384 -0.6425
 2340SOL    MW4 9360   1.834   4.296   3.874 -0.4778 -0.2776  0.0853
 2341SOL     OW 9361   2.017   4.416   3.718 -0.1178 -0.1774  0.2557
 2341SOL    HW2 9362   2.097   4.370   3.743 -0.1761 -1.0044 -1.0366
 2341SOL    HW3 9363   2.019   4.417   3.622 -0.6081  1.6536  0.2522
 2341SOL    MW4 9364   2.028   4.410   3.708 -0.1902 -0.0449  0.0847
 2342SOL     OW 9365   2.413   4.637   3.794  0.1764  0.0379 -0.1033
 2342SOL    HW2 9366   2.439   4.634   3.886  0.1356  2.1428 -0.0002
 2342SOL    HW3 9367   2.493   4.659   3.746  0.2569 -1.3196 -0.6023
 2342SOL    MW4 9368   2.427   4.640   3.800  0.1816  0.1365 -0.1555
 2343SOL     OW 9369   2.207   0.129   3.684 -0.4316 -0.6844 -0.1549
 2343SOL    HW2 9370   2.266   0.060   3.716 -0.5734 -0.4517  0.6229
 2343SOL    HW3 9371   2.201   0.114   3.590 -0.8534 -2.0558  0.0754
 2343SOL    MW4 9372   2.214   0.118   3.676 -0.5059 -0.8346 -0.0219
 2344SOL     OW 9373   2.268   0.362   3.826  0.0180  0.2458  0.2654
 2344SOL    HW2 9374   2.246   0.297   3.759  1.3231  0.8712 -0.7907
 2344SOL    HW3 9375   2.209   0.435   3.809  0.5936  0.5500 -0.4327
 2344SOL    MW4 9376   2.257   0.363   3.815  0.2661  0.3684  0.0340
 2345SOL     OW 9377   2.491   0.518   3.731 -0.1960  0.0824 -0.4164
 2345SOL    HW2 9378   2.426   0.457   3.765  0.3632 -1.0696 -1.3656
 2345SOL    HW3 9379   2.472   0.524   3.637  1.7445 -1.1397 -0.9178
 2345SOL    MW4 9380   2.480   0.511   3.723  0.1338 -0.2309 -0.6078
 2346SOL     OW 9381   2.509   0.752   3.881  0.0065  0.0014  0.1837
 2346SOL    HW2 9382   2.425   0.792   3.860 -0.2307 -0.4807  0.2037
 2346SOL    HW3 9383   2.512   0.673   3.827  0.7463  0.3693 -0.3363
 2346SOL    MW4 9384   2.499   0.747   3.871  0.0728 -0.0137  0.1178
 2347SOL     OW 9385   2.269   0.877   3.796  0.3628  0.4862 -0.4166
 2347SOL    HW2 9386   2.182   0.857   3.831  0.4545  0.3518 -0.2613
 2347SOL    HW3 9387   2.255   0.891   3.703  0.4181 -1.1711 -0.6937
 2347SOL    MW4 9388   2.256   0.876   3.788  0.3822  0.2498 -0.4327
 2348SOL     OW 9389   2.270   1.149   3.881  0.0634  0.4380 -0.3457
 2348SOL    HW2 9390   2.258   1.134   3.975 -2.0241  1.5148 -0.4037
 2348SOL    HW3 9391   2.265   1.061   3.842 -0.9427  0.1631  0.3752
 2348SOL    MW4 9392   2.267   1.135   3.888 -0.3448  0.5438 -0.2582
 2349SOL     OW 9393   2.481   1.253   3.744 -0.1537 -0.1460 -0.1963
 2349SOL    HW2 9394   2.490   1.343   3.775  0.2929 -0.1129 -0.4228
 2349SOL    HW3 9395   2.412   1.215   3.799 -0.2461  0.2914 -0.0113
 2349SOL    MW4 9396   2.473   1.260   3.755 -0.1070 -0.0839 -0.2018
 2350SOL     OW 9397   2.507   1.525   3.830  0.1553 -0.0835 -0.8437
 2350SOL    HW2 9398   2.589   1.572   3.817  0.3546  0.1646  1.2103
 2350SOL    HW3 9399   2.441   1.580   3.788  0.5254  1.5294  0.6579
 2350SOL    MW4 9400   2.509   1.538   3.822  0.2304  0.1621 -0.3746
 2351SOL     OW 9401   2.256   1.643   3.727 -0.2507  0.7774  0.2011
 2351SOL    HW2 9402   2.263   1.726   3.775 -0.6629 -0.6320  2.8183
 2351SOL    HW3 9403   2.169   1.610   3.749  0.0562 -0.5403 -0.5191
 2351SOL    MW4 9404   2.245   1.649   3.736 -0.2646  0.4176  0.4514
 2352SOL     OW 9405   2.292   1.891   3.835  0.3617  0.2685  0.5879
 2352SOL    HW2 9406   2.294   1.889   3.931  1.2639 -0.3977  0.5624
 2352SOL    HW3 9407   2.214   1.941   3.814  0.2912  0.6343  1.6793
 2352SOL    MW4 9408   2.282   1.897   3.845  0.4715  0.2289  0.7285
 2353SOL     OW 9409   2.489   2.050   3.732  0.2599  0.2413 -0.3268
 2353SOL    HW2 9410   2.485   2.133   3.780  1.5686 -0.0074  0.2323
 2353SOL    HW3 9411   2.418   1.997   3.770 -0.2492  0.9078 -0.3317
 2353SOL    MW4 9412   2.479   2.054   3.743  0.3654  0.2964 -0.2537
 2354SOL     OW 9413   2.475   2.291   3.862  0.0622  0.1152  0.3133
 2354SOL    HW2 9414   2.547   2.346   3.829 -0.8302  0.9401 -0.2972
 2354SOL    HW3 9415   2.397   2.328   3.822 -0.6436 -1.1629  0.4848
 2354SOL    MW4 9416   2.474   2.303   3.852 -0.1487  0.0554  0.2554
 2355SOL     OW 9417   2.237   2.403   3.762  0.1523  0.6106  0.2402
 2355SOL    HW2 9418   2.150   2.372   3.787  0.3193 -1.1625 -1.2938
 2355SOL    HW3 9419   2.234   2.409   3.667  1.9073 -0.1148  0.1127
 2355SOL    MW4 9420   2.225   2.400   3.753  0.4059  0.2810  0.0210
 2356SOL     OW 9421   2.214   2.667   3.848 -0.1927 -0.5006  0.2840
 2356SOL    HW2 9422   2.183   2.672   3.939  1.6457  2.0481  0.8475
 2356SOL    HW3 9423   2.219   2.574   3.829  1.7781 -1.1903  3.6850
 2356SOL    MW4 9424   2.211   2.656   3.857  0.3099 -0.2554  0.8071
 2357SOL     OW 9425   2.428   2.832   3.796  0.2176 -0.0773 -0.6024
 2357SOL    HW2 9426   2.352   2.780   3.819  1.0456 -0.6280  0.9491
 2357SOL    HW3 9427   2.423   2.842   3.701 -2.9056  1.6657 -0.3074
 2357SOL    MW4 9428   2.417   2.827   3.787 -0.0852  0.0800 -0.3588
 2358SOL     OW 9429   2.500   3.095   3.851  0.6708  0.7317 -0.6599
 2358SOL    HW2 9430   2.504   3.093   3.947  0.1866  0.6776 -0.6388
 2358SOL    HW3 9431   2.476   3.006   3.826 -1.8769  1.3726 -0.6857
 2358SOL    MW4 9432   2.497   3.083   3.860  0.2708  0.8091 -0.6605
 2359SOL     OW 9433   2.258   3.203   3.734  0.5885  0.2630 -0.1877
 2359SOL    HW2 9434   2.260   3.287   3.780  0.6638  0.6012 -0.8067
 2359SOL    HW3 9435   2.337   3.158   3.763  0.1573  0.0889  0.7379
 2359SOL    MW4 9436   2.269   3.208   3.744  0.5416  0.2846 -0.1472
 2360SOL     OW 9437   2.246   3.451   3.844 -0.1128 -0.1843  0.1572
 2360SOL    HW2 9438   2.258   3.451   3.939 -1.6578  0.8707  0.3623
 2360SOL    HW3 9439   2.314   3.509   3.811 -0.3274  0.4038  0.7288
 2360SOL    MW4 9440   2.256   3.458   3.852 -0.3449  0.0325  0.2597
 2361SOL     OW 9441   2.451   3.596   3.715 -0.1618 -0.0989  0.1363
 2361SOL    HW2 9442   2.528   3.560   3.759  1.7401  2.0750 -1.3094
 2361SOL    HW3 9443   2.476   3.601   3.623 -1.6487  1.5622 -0.1979
 2361SOL    MW4 9444   2.465   3.592   3.709 -0.1070  0.4071 -0.0986
 2362SOL     OW 9445   2.496   3.855   3.803  0.1020 -0.0272 -0.3435
 2362SOL    HW2 9446   2.564   3.910   3.765 -0.2558 -0.2680 -1.3482
 2362SOL    HW3 9447   2.504   3.772   3.756 -0.8620 -0.0680 -0.4416
 2362SOL    MW4 9448   2.506   3.851   3.792 -0.0724 -0.0644 -0.4890
 2363SOL     OW 9449   2.236   3.973   3.730  0.2175  0.0675  0.0147
 2363SOL    HW2 9450   2.319   3.930   3.751 -0.1891 -0.5340  0.4085
 2363SOL    HW3 9451   2.236   3.982   3.635 -0.1181 -1.6817 -0.1607
 2363SOL    MW4 9452   2.247   3.968   3.721  0.1196 -0.2426  0.0435
 2364SOL     OW 9453   2.226   4.248   3.821 -0.0118  0.2654  0.4929
 2364SOL    HW2 9454   2.240   4.261   3.915  2.1965  0.2523  0.1982
 2364SOL    HW3 9455   2.241   4.154   3.807  0.8804  0.4805 -0.0500
 2364SOL    MW4 9456   2.230   4.237   3.832  0.3973  0.2921  0.3824
 2365SOL     OW 9457   2.444   4.373   3.713 -0.2670  0.1515  0.0947
 2365SOL    HW2 9458   2.371   4.322   3.749 -1.2758  1.8354  0.4678
 2365SOL    HW3 9459   2.439   4.457   3.757  1.5567  0.5057 -0.3223
 2365SOL    MW4 9460   2.434   4.377   3.723 -0.1595  0.4204  0.0889
 2366SOL     OW 9461   2.919   0.024   3.776 -0.2880  0.4695 -0.0245
 2366SOL    HW2 9462   2.916   0.008   3.870 -0.2657  3.0947  0.4391
 2366SOL    HW3 9463   3.008   0.056   3.760 -0.1194 -0.4653 -1.0535
 2366SOL    MW4 9464   2.931   0.026   3.786 -0.2628  0.6925 -0.0991
 2367SOL     OW 9465   2.651   0.118   3.698 -0.0539 -0.4893  0.2770
 2367SOL    HW2 9466   2.732   0.078   3.728 -0.0220 -0.6264  0.0160
 2367SOL    HW3 9467   2.666   0.136   3.605 -0.4839 -0.9347  0.1172
 2367SOL    MW4 9468   2.664   0.115   3.689 -0.1064 -0.5661  0.2215
 2368SOL     OW 9469   2.714   0.365   3.798  0.1629  0.1775 -0.0133
 2368SOL    HW2 9470   2.693   0.282   3.756  2.9399  0.1898 -1.5450
 2368SOL    HW3 9471   2.648   0.426   3.764 -0.6109 -0.9266 -0.5278
 2368SOL    MW4 9472   2.703   0.362   3.788  0.4272  0.0334 -0.2833
 2369SOL     OW 9473   2.942   0.521   3.723  0.2428  0.4092  0.0126
 2369SOL    HW2 9474   3.013   0.467   3.757  0.5932  1.6029  1.1994
 2369SOL    HW3 9475   2.862   0.473   3.746  0.5339  0.5864  1.4133
 2369SOL    MW4 9476   2.941   0.508   3.730  0.3275  0.5901  0.3540
 2370SOL     OW 9477   2.951   0.758   3.894 -0.1759  0.0014 -0.2100
 2370SOL    HW2 9478   3.016   0.810   3.848 -2.2223  0.3311 -2.8204
 2370SOL    HW3 9479   2.935   0.683   3.837 -0.6253 -1.1441  1.3623
 2370SOL    MW4 9480   2.957   0.755   3.881 -0.5052 -0.1062 -0.3470
 2371SOL     OW 9481   2.725   0.893   3.769  0.0541  0.0853  0.0158
 2371SOL    HW2 9482   2.802   0.851   3.808  0.4012  1.6809  1.1434
 2371SOL    HW3 9483   2.650   0.852   3.812  0.3484 -0.2322  0.2276
 2371SOL    MW4 9484   2.725   0.882   3.780  0.1387  0.2539  0.1925
 2372SOL     OW 9485   2.679   1.146   3.880  0.2181 -0.4300  0.3067
 2372SOL    HW2 9486   2.693   1.062   3.836 -1.3898 -0.1651 -0.7314
 2372SOL    HW3 9487   2.604   1.185   3.835  0.4793  1.2351  1.2688
 2372SOL    MW4 9488   2.671   1.140   3.868  0.0404 -0.1753  0.2967
 2373SOL     OW 9489   2.897   1.305   3.726  0.3193 -0.0546 -0.0493
 2373SOL    HW2 9490   2.918   1.394   3.755  0.4417 -0.2560  0.4893
 2373SOL    HW3 9491   2.832   1.274   3.788 -0.0465 -0.1862 -0.4961
 2373SOL    MW4 9492   2.891   1.313   3.738  0.2872 -0.0985 -0.0372
 2374SOL     OW 9493   2.954   1.540   3.843  0.4077 -0.1171 -0.1451
 2374SOL    HW2 9494   2.960   1.545   3.938  0.5777 -0.6004 -0.1285
 2374SOL    HW3 9495   3.038   1.574   3.812  2.0268 -3.7711 -0.0020
 2374SOL    MW4 9496   2.966   1.545   3.851  0.6438 -0.6630 -0.1240
 2375SOL     OW 9497   2.720   1.649   3.744 -0.0483  0.3533 -0.4480
 2375SOL    HW2 9498   2.807   1.621   3.771 -0.3253  0.4832  0.5993
 2375SOL    HW3 9499   2.726   1.660   3.649  0.8500 -0.4274 -0.4807
 2375SOL    MW4 9500   2.732   1.647   3.735  0.0336  0.2674 -0.3141
 2376SOL     OW 9501   2.708   1.913   3.827  0.5689 -0.0994 -0.0816
 2376SOL    HW2 9502   2.702   1.825   3.789  1.7775  0.2668 -1.1923
 2376SOL    HW3 9503   2.629   1.957   3.796 -0.3321 -0.9548  0.9505
 2376SOL    MW4 9504   2.697   1.907   3.818  0.6095 -0.1640 -0.0920
 2377SOL     OW 9505   2.937   2.031   3.752 -0.3627 -0.4753  0.0359
 2377SOL    HW2 9506   2.930   2.114   3.798 -2.0823  0.9320 -2.6267
 2377SOL    HW3 9507   2.860   1.981   3.781 -0.2852 -0.4432  0.2963
 2377SOL    MW4 9508   2.926   2.035   3.762 -0.5793 -0.2854 -0.2810
 2378SOL     OW 9509   2.917   2.285   3.888 -0.2863  0.0407  0.3462
 2378SOL    HW2 9510   2.942   2.239   3.968 -1.4423 -0.9065  0.1935
 2378SOL    HW3 9511   2.990   2.344   3.870  1.3924 -1.9647  0.3843
 2378SOL    MW4 9512   2.930   2.286   3.896 -0.2173 -0.3489  0.3311
 2379SOL     OW 9513   2.699   2.440   3.785 -0.9267 -0.2199 -0.3430
 2379SOL    HW2 9514   2.709   2.527   3.823 -2.3040  0.6287 -1.8509
 2379SOL    HW3 9515   2.770   2.389   3.823  0.4123  1.7826 -0.0530
 2379SOL    MW4 9516   2.710   2.445   3.795 -0.9318  0.1563 -0.5037
 2380SOL     OW 9517   2.675   2.724   3.862  0.2817  0.0073  0.1761
 2380SOL    HW2 9518   2.666   2.755   3.952  0.3941 -0.3438  0.3097
 2380SOL    HW3 9519   2.594   2.752   3.819  0.5535  0.8064  0.1979
 2380SOL    MW4 9520   2.663   2.731   3.868  0.3324  0.0664  0.1966
 2381SOL     OW 9521   2.915   2.829   3.774  0.2328 -0.0308 -0.1563
 2381SOL    HW2 9522   2.912   2.919   3.805  1.3383 -0.2145  0.4914
 2381SOL    HW3 9523   2.832   2.791   3.804 -0.9142  1.1750 -1.7343
 2381SOL    MW4 9524   2.903   2.836   3.782  0.2274  0.1041 -0.2791
 2382SOL     OW 9525   2.921   3.097   3.838  0.6204  0.2831  0.0992
 2382SOL    HW2 9526   2.997   3.149   3.811  1.1019 -0.7203 -0.4900
 2382SOL    HW3 9527   2.911   3.117   3.931  0.6390  1.6337 -0.1684
 2382SOL    MW4 9528   2.930   3.107   3.847  0.6864  0.3289 -0.0139
 2383SOL     OW 9529   2.693   3.230   3.734  0.0972 -0.6516 -0.3754
 2383SOL    HW2 9530   2.777   3.195   3.765 -0.1135 -0.4113  0.4966
 2383SOL    HW3 9531   2.627   3.178   3.779 -0.2193  0.3997  0.4167
 2383SOL    MW4 9532   2.696   3.219   3.744  0.0277 -0.4812 -0.1558
 2384SOL     OW 9533   2.658   3.482   3.843  0.2367  0.5563  0.3955
 2384SOL    HW2 9534   2.732   3.525   3.800  1.8376 -0.8463  1.7297
 2384SOL    HW3 9535   2.660   3.392   3.812 -1.5418  0.7343 -0.3372
 2384SOL    MW4 9536   2.668   3.476   3.833  0.2133  0.3947  0.4748
 2385SOL     OW 9537   2.868   3.615   3.722 -0.5308  0.2263 -0.0293
 2385SOL    HW2 9538   2.950   3.593   3.767 -0.5177  0.0685 -0.1332
 2385SOL    HW3 9539   2.894   3.643   3.635 -0.5067  1.1126  0.2596
 2385SOL    MW4 9540   2.882   3.616   3.717 -0.5259  0.3224 -0.0049
 2386SOL     OW 9541   2.915   3.864   3.830 -0.2150 -0.0597 -0.1718
 2386SOL    HW2 9542   2.945   3.850   3.920 -2.4534  0.1650  0.6408
 2386SOL    HW3 9543   2.876   3.780   3.804 -1.0095  0.3519 -0.3371
 2386SOL    MW4 9544   2.914   3.851   3.838 -0.6152  0.0242 -0.0864
 2387SOL     OW 9545   2.694   4.042   3.760  0.0860  0.5927  0.2555
 2387SOL    HW2 9546   2.698   4.133   3.791  0.3618  1.2403 -1.6088
 2387SOL    HW3 9547   2.773   4.001   3.795  0.1613  1.1634  0.7746
 2387SOL    MW4 9548   2.705   4.049   3.769  0.1323  0.7535  0.0780
 2388SOL     OW 9549   2.679   4.331   3.856 -0.1035 -0.0518  0.3047
 2388SOL    HW2 9550   2.748   4.372   3.805  0.2059  1.3008  1.7611
 2388SOL    HW3 9551   2.600   4.341   3.802  0.6579 -0.8600 -0.9818
 2388SOL    MW4 9552   2.677   4.338   3.842  0.0378  0.0200  0.3271
 2389SOL     OW 9553   2.882   4.425   3.710  0.0657 -0.0332 -0.0938
 2389SOL    HW2 9554   2.952   4.367   3.741 -0.8064 -0.4912  1.0587
 2389SOL    HW3 9555   2.906   4.512   3.743 -0.8383 -0.5139  1.8755
 2389SOL    MW4 9556   2.895   4.429   3.718 -0.1687 -0.1571  0.3181
 2390SOL     OW 9557   3.383   4.634   3.848 -0.2924 -0.0355 -0.1121
 2390SOL    HW2 9558   3.448   4.699   3.821  0.3790 -0.7163 -0.1555
 2390SOL    HW3 9559   3.399   4.622   3.942  0.5951 -1.2604 -0.4156
 2390SOL    MW4 9560   3.394   4.641   3.857 -0.0867 -0.2869 -0.1579
 2391SOL     OW 9561   3.172   0.107   3.761  0.6725  0.1111  0.3011
 2391SOL    HW2 9562   3.249   0.057   3.789  1.9977  1.6822 -0.3728
 2391SOL    HW3 9563   3.181   0.112   3.666 -1.4123 -1.4535  0.0059
 2391SOL    MW4 9564   3.184   0.101   3.752  0.5723  0.1119  0.1733
 2392SOL     OW 9565   3.160   0.383   3.836 -0.6554  0.5196  0.1350
 2392SOL    HW2 9566   3.175   0.390   3.931  0.4151 -0.9987  0.0919
 2392SOL    HW3 9567   3.169   0.289   3.817 -2.7025  0.5754 -1.1748
 2392SOL    MW4 9568   3.163   0.372   3.846 -0.7842  0.3267 -0.0435
 2393SOL     OW 9569   3.368   0.522   3.743 -0.3173  0.0539  0.1298
 2393SOL    HW2 9570   3.447   0.497   3.791 -0.5686  1.7841  1.4921
 2393SOL    HW3 9571   3.302   0.457   3.769  0.0576 -0.0865  0.7396
 2393SOL    MW4 9572   3.369   0.510   3.753 -0.3010  0.2636  0.3900
 2394SOL     OW 9573   3.334   0.782   3.851  0.2145  0.1653 -0.1792
 2394SOL    HW2 9574   3.317   0.763   3.943 -0.2008 -0.0072 -0.2924
 2394SOL    HW3 9575   3.322   0.699   3.805  0.1320  0.3141 -0.4307
 2394SOL    MW4 9576   3.330   0.769   3.857  0.1488  0.1622 -0.2273
 2395SOL     OW 9577   3.122   0.925   3.748  0.0159  0.2842 -0.1242
 2395SOL    HW2 9578   3.196   0.879   3.787 -0.6710 -0.5905  0.1671
 2395SOL    HW3 9579   3.139   0.920   3.653 -0.4424 -1.2715 -0.1417
 2395SOL    MW4 9580   3.134   0.918   3.740 -0.1352 -0.0364 -0.0881
 2396SOL     OW 9581   3.129   1.181   3.857 -0.3374 -0.4738  0.3158
 2396SOL    HW2 9582   3.121   1.091   3.825 -0.5710  0.1862 -1.5455
 2396SOL    HW3 9583   3.056   1.228   3.816  0.7547  0.9296 -0.0810
 2396SOL    MW4 9584   3.118   1.176   3.847 -0.2242 -0.2016  0.0179
 2397SOL     OW 9585   3.378   1.260   3.713 -0.5013  0.6839 -0.7148
 2397SOL    HW2 9586   3.300   1.216   3.748  0.1008 -1.0127 -1.4489
 2397SOL    HW3 9587   3.362   1.268   3.619 -0.7588  2.3969 -0.5400
 2397SOL    MW4 9588   3.366   1.255   3.705 -0.4558  0.6861 -0.7886
 2398SOL     OW 9589   3.414   1.510   3.829  0.1024 -0.1768 -0.1882
 2398SOL    HW2 9590   3.326   1.544   3.811  0.0660  0.2155  0.7192
 2398SOL    HW3 9591   3.414   1.422   3.792 -1.0132 -0.5678  0.7301
 2398SOL    MW4 9592   3.403   1.503   3.822 -0.0496 -0.1767  0.0527
 2399SOL     OW 9593   3.187   1.652   3.754  0.4653  0.0965 -0.6191
 2399SOL    HW2 9594   3.191   1.745   3.778 -0.4731  0.2664 -1.0759
 2399SOL    HW3 9595   3.189   1.652   3.658 -0.4365 -0.2986 -0.6414
 2399SOL    MW4 9596   3.187   1.664   3.744  0.2225  0.0668 -0.6823
 2400SOL     OW 9597   3.190   1.921   3.836 -0.0764  0.0450 -0.2723
 2400SOL    HW2 9598   3.179   1.958   3.924  1.0267  1.6671 -0.7990
 2400SOL    HW3 9599   3.121   1.963   3.785 -0.9393 -1.1573 -0.1335
 2400SOL    MW4 9600   3.179   1.932   3.841 -0.0447  0.1004 -0.3235
 2401SOL     OW 9601   3.391   2.109   3.779 -0.3626 -0.1366 -0.1746
 2401SOL    HW2 9602   3.323   2.045   3.800 -1.3867  0.8681 -0.4124
 2401SOL    HW3 9603   3.386   2.119   3.684 -0.4781  0.6122 -0.0887
 2401SOL    MW4 9604   3.382   2.102   3.769 -0.5130  0.0947 -0.1946
 2402SOL     OW 9605   3.356   2.365   3.880  0.5531  0.0519  0.2814
 2402SOL    HW2 9606   3.276   2.384   3.833  1.2601 -0.1061 -1.0039
 2402SOL    HW3 9607   3.379   2.276   3.855  0.0739 -0.6414  2.1999
 2402SOL    MW4 9608   3.349   2.356   3.871  0.5832 -0.0605  0.3649
 2403SOL     OW 9609   3.117   2.420   3.743  0.0962 -0.2161 -0.2645
 2403SOL    HW2 9610   3.123   2.509   3.777 -1.0439  0.3107 -1.3814
 2403SOL    HW3 9611   3.156   2.426   3.655  1.4359 -1.1741  0.2407
 2403SOL    MW4 9612   3.123   2.433   3.736  0.1225 -0.2730 -0.3452
 2404SOL     OW 9613   3.123   2.676   3.859 -0.2645  0.1742 -0.0311
 2404SOL    HW2 9614   3.047   2.726   3.828 -0.3106  0.8396  1.1215
 2404SOL    HW3 9615   3.199   2.729   3.833 -0.2638  0.2924  0.2125
 2404SOL    MW4 9616   3.123   2.690   3.851 -0.2705  0.2776  0.1531
 2405SOL     OW 9617   3.341   2.823   3.787 -0.3762  0.1725 -0.1386
 2405SOL    HW2 9618   3.322   2.916   3.800  0.4214  0.3896 -0.4933
 2405SOL    HW3 9619   3.355   2.814   3.693 -0.9700 -0.4124 -0.1775
 2405SOL    MW4 9620   3.340   2.834   3.776 -0.3493  0.1240 -0.1905
 2406SOL     OW 9621   3.358   2.865   4.239 -0.3350  0.3139 -0.3198
 2406SOL    HW2 9622   3.361   2.879   4.334 -0.6293  2.0129 -0.5317
 2406SOL    HW3 9623   3.444   2.829   4.217 -1.0384 -2.1953  0.8807
 2406SOL    MW4 9624   3.370   2.862   4.249 -0.4666  0.2070 -0.1894
 2407SOL     OW 9625   3.128   3.276   3.744 -0.1868  0.0578  0.0598
 2407SOL    HW2 9626   3.194   3.225   3.791  0.4429  0.4105 -0.4394
 2407SOL    HW3 9627   3.153   3.269   3.652 -1.5494 -0.8223 -0.2605
 2407SOL    MW4 9628   3.140   3.268   3.738 -0.2835 -0.0118 -0.0483
 2408SOL     OW 9629   3.110   3.547   3.851  0.1755  0.5150  0.3283
 2408SOL    HW2 9630   3.186   3.584   3.805 -0.6669  2.0362  0.1187
 2408SOL    HW3 9631   3.112   3.454   3.830  2.6019  0.3346  1.2068
 2408SOL    MW4 9632   3.120   3.539   3.842  0.3845  0.6919  0.4166
 2409SOL     OW 9633   3.374   3.637   3.775 -0.4948 -0.1233  0.2261
 2409SOL    HW2 9634   3.395   3.723   3.811  0.6365 -0.1911 -0.2428
 2409SOL    HW3 9635   3.383   3.648   3.680  0.4953 -0.9781  0.2189
 2409SOL    MW4 9636   3.378   3.650   3.767 -0.2149 -0.2450  0.1633
 2410SOL     OW 9637   3.372   3.904   3.850  0.1493  0.2142 -0.0819
 2410SOL    HW2 9638   3.432   3.965   3.805 -0.2603 -0.7633 -1.9993
 2410SOL    HW3 9639   3.286   3.947   3.844  0.1876  0.3394  0.2602
 2410SOL    MW4 9640   3.369   3.918   3.843  0.1003  0.1017 -0.2897
 2411SOL     OW 9641   3.129   4.014   3.750 -0.1565  0.0984  0.2917
 2411SOL    HW2 9642   3.106   4.100   3.785  0.6207  0.3777  0.1232
 2411SOL    HW3 9643   3.057   3.957   3.778  0.7039  0.1801  2.8646
 2411SOL    MW4 9644   3.116   4.018   3.759  0.0596  0.1461  0.6089
 2412SOL     OW 9645   3.079   4.268   3.839  0.1919  0.5375 -0.1861
 2412SOL    HW2 9646   3.079   4.264   3.934 -1.7554  1.1919 -0.1473
 2412SOL    HW3 9647   3.155   4.323   3.817 -0.5376  2.0711  1.0592
 2412SOL    MW4 9648   3.089   4.274   3.848 -0.1613  0.8262 -0.0167
 2413SOL     OW 9649   3.326   4.372   3.768 -0.4728 -0.5879 -0.4230
 2413SOL    HW2 9650   3.395   4.311   3.795 -0.2158 -0.7724 -1.4664
 2413SOL    HW3 9651   3.360   4.458   3.790 -0.5165 -0.7714  0.3702
 2413SOL    MW4 9652   3.340   4.375   3.774 -0.4446 -0.6364 -0.4560
 2414SOL     OW 9653   3.797   4.661   3.835  0.3982 -0.2401  0.2730
 2414SOL    HW2 9654   3.878   4.698   3.802 -0.1244  0.6273 -0.0341
 2414SOL    HW3 9655   3.792   4.574   3.795  0.7331  0.0513 -0.4096
 2414SOL    MW4 9656   3.807   4.654   3.826  0.3734 -0.0872  0.1424
 2415SOL     OW 9657   3.592   0.157   3.770 -0.0730 -0.6088 -0.1069
 2415SOL    HW2 9658   3.665   0.109   3.810  0.0207 -0.6078 -0.2762
 2415SOL    HW3 9659   3.604   0.144   3.676 -0.5919 -1.0352 -0.1129
 2415SOL    MW4 9660   3.603   0.149   3.763 -0.1291 -0.6649 -0.1300
 2416SOL     OW 9661   3.606   0.421   3.869 -0.3552  0.0902 -0.3396
 2416SOL    HW2 9662   3.695   0.430   3.836 -0.0386 -1.8472 -0.0520
 2416SOL    HW3 9663   3.579   0.333   3.843 -1.6774  0.1370  0.7881
 2416SOL    MW4 9664   3.614   0.411   3.861 -0.4878 -0.1593 -0.1529
 2417SOL     OW 9665   3.854   0.497   3.759  0.2921 -0.6040  0.0990
 2417SOL    HW2 9666   3.930   0.454   3.798 -1.1103 -1.8911  1.4958
 2417SOL    HW3 9667   3.846   0.579   3.806  0.6005 -0.6313  0.2016
 2417SOL    MW4 9668   3.863   0.502   3.771  0.1477 -0.7774  0.2968
 2418SOL     OW 9669   3.811   0.736   3.914 -0.2608  0.1327 -0.5865
 2418SOL    HW2 9670   3.734   0.764   3.864 -0.7435 -1.1866 -0.6262
 2418SOL    HW3 9671   3.884   0.784   3.876 -0.8113  0.0851 -1.7208
 2418SOL    MW4 9672   3.810   0.746   3.903 -0.3971 -0.0477 -0.7414
 2419SOL     OW 9673   3.599   0.875   3.785 -0.1979 -0.3362  0.1490
 2419SOL    HW2 9674   3.614   0.954   3.838 -1.0026 -0.6097  0.7864
 2419SOL    HW3 9675   3.508   0.852   3.801  0.3207 -2.0403  0.8382
 2419SOL    MW4 9676   3.589   0.883   3.794 -0.2356 -0.5971  0.3240
 2420SOL     OW 9677   3.585   1.134   3.872  0.2297  0.0246  0.3257
 2420SOL    HW2 9678   3.669   1.178   3.857  0.0600  0.8052  1.6273
 2420SOL    HW3 9679   3.526   1.174   3.808  0.9263 -0.7934 -0.8501
 2420SOL    MW4 9680   3.588   1.145   3.861  0.2992  0.0197  0.3423
 2421SOL     OW 9681   3.820   1.259   3.788 -0.0289 -0.0491  0.0143
 2421SOL    HW2 9682   3.902   1.211   3.800  0.6570  1.4492  1.3695
 2421SOL    HW3 9683   3.845   1.351   3.791 -1.9615  0.4369  1.8546
 2421SOL    MW4 9684   3.834   1.265   3.790 -0.1934  0.2127  0.4359
 2422SOL     OW 9685   3.859   1.551   3.814 -0.1523 -0.0145 -0.3449
 2422SOL    HW2 9686   3.861   1.545   3.910  2.3946 -0.2990 -0.3866
 2422SOL    HW3 9687   3.769   1.577   3.794 -0.8366 -0.3172  2.0947
 2422SOL    MW4 9688   3.847   1.553   3.824  0.0934 -0.0920 -0.0286
 2423SOL     OW 9689   3.617   1.669   3.717 -0.0307  0.3224 -0.4582
 2423SOL    HW2 9690   3.542   1.618   3.750  0.3554 -0.6527 -1.0594
 2423SOL    HW3 9691   3.613   1.659   3.622  1.4687 -0.6152 -0.4408
 2423SOL    MW4 9692   3.607   1.661   3.709  0.2181  0.0700 -0.5352
 2424SOL     OW 9693   3.602   1.932   3.821 -0.2954 -0.0238 -0.2558
 2424SOL    HW2 9694   3.580   1.849   3.779 -2.1281 -0.8662  2.3205
 2424SOL    HW3 9695   3.532   1.992   3.795  0.8199  0.6613 -1.7929
 2424SOL    MW4 9696   3.590   1.929   3.812 -0.3900 -0.0446 -0.1187
 2425SOL     OW 9697   3.852   2.101   3.793  0.5212 -0.2379 -0.2184
 2425SOL    HW2 9698   3.932   2.053   3.811  0.3414 -0.3417  0.3243
 2425SOL    HW3 9699   3.784   2.034   3.791  0.3596 -0.0786 -0.0717
 2425SOL    MW4 9700   3.853   2.086   3.795  0.4762 -0.2306 -0.1274
 2426SOL     OW 9701   3.785   2.346   3.901  0.0928  0.1545 -0.1943
 2426SOL    HW2 9702   3.720   2.381   3.840  1.1892  0.7819 -1.0223
 2426SOL    HW3 9703   3.809   2.261   3.864  1.7374  1.1097 -1.4010
 2426SOL    MW4 9704   3.779   2.340   3.888  0.4544  0.3633 -0.4628
 2427SOL     OW 9705   3.584   2.477   3.772  0.4345 -0.0329 -0.0334
 2427SOL    HW2 9706   3.502   2.435   3.797  0.5504 -0.6614 -0.6883
 2427SOL    HW3 9707   3.575   2.495   3.679  0.7692  0.5278  0.0352
 2427SOL    MW4 9708   3.572   2.474   3.763  0.4939 -0.0418 -0.1108
 2428SOL     OW 9709   3.607   2.740   3.870  0.0870 -0.1914 -0.7844
 2428SOL    HW2 9710   3.612   2.649   3.841  0.8752 -0.5942  0.5620
 2428SOL    HW3 9711   3.516   2.766   3.854 -0.5863 -1.7514  0.4112
 2428SOL    MW4 9712   3.596   2.731   3.864  0.1021 -0.4504 -0.4490
 2429SOL     OW 9713   3.835   2.852   3.787  0.1027 -0.7633 -0.2654
 2429SOL    HW2 9714   3.905   2.790   3.807  0.2070 -0.5993 -0.1137
 2429SOL    HW3 9715   3.756   2.813   3.824  0.2487 -0.5885  0.2433
 2429SOL    MW4 9716   3.834   2.839   3.794  0.1357 -0.7186 -0.1783
 2430SOL     OW 9717   3.558   3.209   3.779  0.4716 -0.0394  0.1529
 2430SOL    HW2 9718   3.579   3.300   3.802 -1.7206  0.4884  0.1414
 2430SOL    HW3 9719   3.589   3.199   3.689 -0.1324  0.9754 -0.1677
 2430SOL    MW4 9720   3.565   3.220   3.771  0.1026  0.1642  0.1091
 2431SOL     OW 9721   3.308   3.080   3.814  0.4174 -0.3228 -0.0041
 2431SOL    HW2 9722   3.329   3.094   3.906  0.1744  0.6504 -0.0837
 2431SOL    HW3 9723   3.383   3.117   3.767 -0.6591  1.6017 -0.2468
 2431SOL    MW4 9724   3.321   3.087   3.820  0.2433  0.0595 -0.0466
 2432SOL     OW 9725   3.586   3.498   3.843  0.4700  0.1866 -0.2424
 2432SOL    HW2 9726   3.597   3.507   3.938  0.9913  0.4663 -0.3247
 2432SOL    HW3 9727   3.508   3.549   3.823 -0.2006 -0.6679  0.1703
 2432SOL    MW4 9728   3.577   3.505   3.853  0.4503  0.1107 -0.1988
 2433SOL     OW 9729   3.835   3.588   3.784 -0.2747  0.7233 -0.1186
 2433SOL    HW2 9730   3.827   3.683   3.795 -1.0777  0.4752  1.5556
 2433SOL    HW3 9731   3.747   3.554   3.800 -0.0913 -0.2700 -1.1606
 2433SOL    MW4 9732   3.822   3.596   3.787 -0.3565  0.5595 -0.0352
 2434SOL     OW 9733   3.785   3.857   3.835 -0.2407  0.0139  0.0155
 2434SOL    HW2 9734   3.782   3.869   3.930  0.3978  0.5694 -0.0273
 2434SOL    HW3 9735   3.858   3.913   3.806 -2.2483  2.0989 -1.1553
 2434SOL    MW4 9736   3.795   3.866   3.844 -0.4213  0.3623 -0.1446
 2435SOL     OW 9737   3.593   4.017   3.724 -0.3481  0.3576  0.0768
 2435SOL    HW2 9738   3.609   4.096   3.775 -0.4422  0.3442  0.1270
 2435SOL    HW3 9739   3.653   3.952   3.760 -1.5562 -0.1257  1.2532
 2435SOL    MW4 9740   3.603   4.019   3.735 -0.5199  0.2920  0.2386
 2436SOL     OW 9741   3.544   4.250   3.873  0.2227 -0.2753  0.0494
 2436SOL    HW2 9742   3.599   4.320   3.839  0.1888  0.4262  1.4146
 2436SOL    HW3 9743   3.546   4.262   3.968 -2.8198  0.1652  0.0907
 2436SOL    MW4 9744   3.552   4.260   3.881 -0.1832 -0.1247  0.2350
 2437SOL     OW 9745   3.734   4.411   3.731  0.1241  0.3012  0.3919
 2437SOL    HW2 9746   3.811   4.363   3.764 -0.0090  0.0008  0.2643
 2437SOL    HW3 9747   3.741   4.405   3.636  0.3461  0.9138  0.3698
 2437SOL    MW4 9748   3.745   4.404   3.723  0.1358  0.3424  0.3721
 2438SOL     OW 9749   4.260   4.606   3.868 -0.4729 -0.3613 -0.0224
 2438SOL    HW2 9750   4.278   4.631   3.959 -0.1200 -1.8768  0.3349
 2438SOL    HW3 9751   4.339   4.634   3.820  0.6480 -2.2688  0.6617
 2438SOL    MW4 9752   4.273   4.613   3.874 -0.2785 -0.8129  0.1150
 2439SOL     OW 9753   4.058   0.075   3.740 -0.2840 -0.2042  0.1953
 2439SOL    HW2 9754   4.130   0.026   3.779 -0.1398 -0.1338  0.0189
 2439SOL    HW3 9755   4.083   0.087   3.649 -0.9145 -0.9179 -0.0820
 2439SOL    MW4 9756   4.071   0.070   3.734 -0.3481 -0.2890  0.1355
 2440SOL     OW 9757   4.074   0.353   3.867  0.1397  0.2105  0.0702
 2440SOL    HW2 9758   4.036   0.345   3.954 -1.9655  0.4931 -0.7833
 2440SOL    HW3 9759   4.075   0.263   3.833 -0.2156  0.2643 -0.0849
 2440SOL    MW4 9760   4.069   0.340   3.874 -0.1849  0.2549 -0.0629
 2441SOL     OW 9761   4.265   0.543   3.790  0.1459 -0.4728  0.0467
 2441SOL    HW2 9762   4.208   0.471   3.816 -1.6439  0.7147 -0.4480
 2441SOL    HW3 9763   4.252   0.550   3.695  0.4292  0.3800  0.0668
 2441SOL    MW4 9764   4.256   0.535   3.781 -0.0528 -0.2036 -0.0159
 2442SOL     OW 9765   4.255   0.798   3.878  0.0072 -0.3152  0.1721
 2442SOL    HW2 9766   4.167   0.821   3.846  0.5413  1.7140  0.1156
 2442SOL    HW3 9767   4.262   0.704   3.862 -1.4916 -0.1802 -1.4529
 2442SOL    MW4 9768   4.244   0.789   3.872 -0.1201 -0.0297 -0.0498
 2443SOL     OW 9769   4.020   0.869   3.779  0.1312 -0.1941  0.1306
 2443SOL    HW2 9770   4.028   0.960   3.806 -0.8616  0.1324 -0.6476
 2443SOL    HW3 9771   4.038   0.871   3.685 -0.8724 -0.6589 -0.0745
 2443SOL    MW4 9772   4.024   0.881   3.770 -0.1322 -0.2123  0.0009
 2444SOL     OW 9773   4.064   1.129   3.848 -0.5121 -0.3793 -0.0007
 2444SOL    HW2 9774   4.085   1.147   3.940  1.5724 -0.8769 -0.3491
 2444SOL    HW3 9775   4.128   1.180   3.798  0.2239 -2.3561 -1.1192
 2444SOL    MW4 9776   4.075   1.138   3.854 -0.1400 -0.7058 -0.1943
 2445SOL     OW 9777   4.254   1.300   3.714  0.3008  0.3064  0.1647
 2445SOL    HW2 9778   4.265   1.391   3.743  0.7972  0.6905 -1.2180
 2445SOL    HW3 9779   4.239   1.306   3.620  0.7645 -1.0814 -0.0088
 2445SOL    MW4 9780   4.253   1.313   3.706  0.4275  0.1740 -0.0406
 2446SOL     OW 9781   4.285   1.535   3.843 -0.1918 -0.0034 -0.2260
 2446SOL    HW2 9782   4.217   1.592   3.807  0.6133  0.8928 -0.3147
 2446SOL    HW3 9783   4.367   1.581   3.828  0.2501 -0.0072  1.9631
 2446SOL    MW4 9784   4.287   1.548   3.836 -0.0273  0.1143  0.0511
 2447SOL     OW 9785   4.107   1.704   3.747 -0.7353 -0.2080  0.2446
 2447SOL    HW2 9786   4.100   1.798   3.766 -0.0385 -0.3741  1.3931
 2447SOL    HW3 9787   4.023   1.668   3.772 -1.7234  0.3896 -2.0409
 2447SOL    MW4 9788   4.095   1.712   3.752 -0.7737 -0.1510  0.0946
 2448SOL     OW 9789   4.080   1.969   3.855  0.2014  0.4874 -0.2117
 2448SOL    HW2 9790   4.073   1.972   3.950 -1.0691  0.1880 -0.2831
 2448SOL    HW3 9791   4.159   2.020   3.835  0.9525 -0.1639  1.0448
 2448SOL    MW4 9792   4.090   1.976   3.865  0.1329  0.3619 -0.0553
 2449SOL     OW 9793   4.340   2.067   3.792  0.0077  0.4728 -0.1400
 2449SOL    HW2 9794   4.318   2.157   3.816 -1.1075 -0.1888  1.4483
 2449SOL    HW3 9795   4.316   2.060   3.700 -0.0312  1.7709 -0.2307
 2449SOL    MW4 9796   4.334   2.078   3.783 -0.1446  0.5568  0.0576
 2450SOL     OW 9797   4.263   2.320   3.865 -0.2245  0.4596 -0.0891
 2450SOL    HW2 9798   4.270   2.328   3.961 -0.0159  0.7093 -0.1265
 2450SOL    HW3 9799   4.182   2.365   3.843 -0.7251 -0.3546  0.0693
 2450SOL    MW4 9800   4.254   2.327   3.875 -0.2630  0.3851 -0.0731
 2451SOL     OW 9801   4.028   2.434   3.786 -0.1175  0.2792 -0.0451
 2451SOL    HW2 9802   4.039   2.525   3.814  0.0995  0.1036  0.4497
 2451SOL    HW3 9803   3.947   2.406   3.829 -0.0358  0.1530  0.0269
 2451SOL    MW4 9804   4.018   2.443   3.796 -0.0781  0.2394  0.0297
 2452SOL     OW 9805   4.064   2.691   3.852  0.2191 -0.0257 -0.5983
 2452SOL    HW2 9806   4.152   2.712   3.821  0.0115  0.9095 -0.5714
 2452SOL    HW3 9807   4.070   2.700   3.947  0.0208  0.3290 -0.6188
 2452SOL    MW4 9808   4.076   2.695   3.860  0.1655  0.1445 -0.5975
 2453SOL     OW 9809   4.292   2.836   3.784 -0.2372  0.0299  0.2658
 2453SOL    HW2 9810   4.296   2.931   3.797 -0.1975  0.1327 -0.5087
 2453SOL    HW3 9811   4.374   2.803   3.823 -0.4975  0.2517  1.0113
 2453SOL    MW4 9812   4.304   2.844   3.791 -0.2663  0.0727  0.2620
 2454SOL     OW 9813   4.273   3.100   3.895 -0.0568  0.2649  0.2021
 2454SOL    HW2 9814   4.354   3.132   3.856 -0.0613  1.6456  1.3030
 2454SOL    HW3 9815   4.205   3.158   3.859 -0.3625  0.0710  0.4630
 2454SOL    MW4 9816   4.274   3.112   3.885 -0.0977  0.4215  0.3818
 2455SOL     OW 9817   3.829   3.147   3.864 -0.3318 -0.4468 -0.1652
 2455SOL    HW2 9818   3.844   3.059   3.829 -1.4168  0.3869 -2.8504
 2455SOL    HW3 9819   3.743   3.172   3.830  0.3228  1.9955 -0.1360
 2455SOL    MW4 9820   3.819   3.139   3.855 -0.3886 -0.0146 -0.5156
 2456SOL     OW 9821   4.075   3.236   3.773  0.1313  0.1214  0.4400
 2456SOL    HW2 9822   4.060   3.241   3.679  0.8640  0.0284  0.3119
 2456SOL    HW3 9823   3.992   3.208   3.810 -0.1420  0.1041 -0.1871
 2456SOL    MW4 9824   4.062   3.233   3.766  0.1919  0.1068  0.3404
 2457SOL     OW 9825   4.286   3.634   3.769  0.4058  0.6029 -0.4640
 2457SOL    HW2 9826   4.205   3.591   3.795  0.1437  0.9330 -0.7209
 2457SOL    HW3 9827   4.355   3.569   3.784 -0.1727 -0.5074 -2.4315
 2457SOL    MW4 9828   4.285   3.620   3.774  0.2949  0.4999 -0.7575
 2458SOL     OW 9829   4.261   3.916   3.840 -0.3221 -0.1277 -0.1905
 2458SOL    HW2 9830   4.169   3.942   3.846 -0.0217  1.4189 -1.9412
 2458SOL    HW3 9831   4.258   3.828   3.804 -1.1371 -0.4598  0.6388
 2458SOL    MW4 9832   4.248   3.908   3.836 -0.3900  0.0325 -0.3120
 2459SOL     OW 9833   4.010   4.016   3.776  0.0642  0.0627  0.4653
 2459SOL    HW2 9834   3.994   4.110   3.790 -0.2062  0.1608 -0.4811
 2459SOL    HW3 9835   4.023   4.008   3.682 -3.2972 -1.3494  0.0575
 2459SOL    MW4 9836   4.010   4.028   3.766 -0.4150 -0.1107  0.2866
 2460SOL     OW 9837   3.971   4.299   3.840 -0.1752  0.3928 -0.0268
 2460SOL    HW2 9838   3.987   4.298   3.935  1.7317 -1.8250 -0.3191
 2460SOL    HW3 9839   4.055   4.324   3.802 -0.7110  0.4930 -1.1701
 2460SOL    MW4 9840   3.984   4.302   3.848  0.0057  0.1134 -0.2162
 2461SOL     OW 9841   4.237   4.351   3.754  0.1524 -0.1403 -0.1243
 2461SOL    HW2 9842   4.235   4.435   3.800  0.0123 -0.2323  0.0374
 2461SOL    HW3 9843   4.325   4.317   3.770  0.6212  0.5268 -1.1898
 2461SOL    MW4 9844   4.248   4.358   3.762  0.1957 -0.0645 -0.2435
 2462SOL     OW 9845   1.064   4.645   4.564 -0.4693 -0.4865 -0.1169
 2462SOL    HW2 9846   1.127   4.646   4.636 -0.6593 -2.6815  0.1314
 2462SOL    HW3 9847   0.979   4.654   4.607 -0.5797 -1.7562 -0.0551
 2462SOL    MW4 9848   1.061   4.646   4.580 -0.5090 -0.9436 -0.0760
 2463SOL     OW 9849   0.518   0.298   4.225 -0.1677 -0.3915  0.2334
 2463SOL    HW2 9850   0.467   0.287   4.305 -1.4387 -0.2020 -0.5419
 2463SOL    HW3 9851   0.512   0.213   4.181  0.1806 -0.3634  0.1279
 2463SOL    MW4 9852   0.511   0.285   4.230 -0.2894 -0.3628  0.1172
 2464SOL     OW 9853   0.436   0.411   3.836 -0.6404  0.1589 -0.2758
 2464SOL    HW2 9854   0.439   0.453   3.922  0.2961 -0.2518 -0.0949
 2464SOL    HW3 9855   0.515   0.441   3.792 -1.7094  1.3014 -1.4537
 2464SOL    MW4 9856   0.447   0.420   3.842 -0.6579  0.2554 -0.4073
 2465SOL     OW 9857   1.348   0.407   4.104 -0.4605  0.1375 -0.1587
 2465SOL    HW2 9858   1.335   0.314   4.124  2.4329 -0.4195 -0.5996
 2465SOL    HW3 9859   1.417   0.435   4.165  0.6342  1.2590 -1.8708
 2465SOL    MW4 9860   1.356   0.398   4.115  0.0657  0.2120 -0.4428
 2466SOL     OW 9861   0.688   0.640   4.050  0.3325 -0.4023  0.0776
 2466SOL    HW2 9862   0.679   0.688   3.968 -0.9569  0.2964  0.6159
 2466SOL    HW3 9863   0.706   0.707   4.115  1.4353 -0.9664  0.3559
 2466SOL    MW4 9864   0.689   0.655   4.047  0.3078 -0.3845  0.1853
 2467SOL     OW 9865   3.845   3.686   4.488  0.1715 -0.2159  0.1494
 2467SOL    HW2 9866   3.767   3.660   4.537 -0.3784  0.8701 -0.1350
 2467SOL    HW3 9867   3.843   3.782   4.489  1.4967 -0.1838  0.1272
 2467SOL    MW4 9868   3.834   3.695   4.494  0.2738 -0.0684  0.1089
 2468SOL     OW 9869   4.044   0.893   4.243 -0.4072  0.4425  0.4652
 2468SOL    HW2 9870   4.072   0.848   4.323 -0.6289  0.0212  0.3044
 2468SOL    HW3 9871   3.956   0.858   4.225 -0.7703  1.2714  0.5985
 2468SOL    MW4 9872   4.036   0.883   4.251 -0.4844  0.4963  0.4616
 2469SOL     OW 9873   2.984   0.980   4.948 -0.2879 -0.6803 -0.0799
 2469SOL    HW2 9874   2.969   0.987   4.854 -2.1153  2.3102  0.3791
 2469SOL    HW3 9875   2.902   0.942   4.982  0.1344 -1.1788  0.3874
 2469SOL    MW4 9876   2.971   0.976   4.940 -0.4733 -0.3515  0.0423
 2470SOL     OW 9877   3.152   4.256   4.115  0.4845  0.4701  0.4955
 2470SOL    HW2 9878   3.206   4.307   4.174 -0.5524  0.4489  1.4867
 2470SOL    HW3 9879   3.173   4.165   4.136  0.5921  0.4650  0.3697
 2470SOL    MW4 9880   3.162   4.250   4.125  0.3619  0.4667  0.6096
 2471SOL     OW 9881   3.125   4.059   4.494 -0.0366  0.5887  0.3129
 2471SOL    HW2 9882   3.141   4.054   4.399 -0.1355 -1.1614  0.3729
 2471SOL    HW3 9883   3.211   4.043   4.533 -0.4887 -1.5159  0.5333
 2471SOL    MW4 9884   3.139   4.056   4.486 -0.1093  0.0802  0.3499
 2472SOL     OW 9885   2.244   0.361   4.104  0.0492 -0.0284 -0.1512
 2472SOL    HW2 9886   2.257   0.349   4.010  0.1653  0.6199 -0.2159
 2472SOL    HW3 9887   2.247   0.272   4.140 -1.2454 -0.3853 -0.9071
 2472SOL    MW4 9888   2.246   0.347   4.097 -0.1063  0.0100 -0.2595
 2473SOL     OW 9889   3.169   0.977   4.513 -0.3527 -0.1858  0.0632
 2473SOL    HW2 9890   3.246   1.033   4.515 -0.2320 -0.3537  0.1508
 2473SOL    HW3 9891   3.162   0.947   4.423 -0.3548 -0.1171  0.0407
 2473SOL    MW4 9892   3.178   0.980   4.502 -0.3371 -0.1989  0.0718
 2474SOL     OW 9893   0.519   1.978   4.145 -0.4082 -0.1495  0.5826
 2474SOL    HW2 9894   0.587   2.043   4.130 -1.0500  0.4589  0.2757
 2474SOL    HW3 9895   0.498   1.944   4.057 -0.5083 -0.3250  0.6737
 2474SOL    MW4 9896   0.525   1.982   4.131 -0.5061 -0.0924  0.5542
 2475SOL     OW 9897   0.042   1.882   4.156 -0.0151 -0.1013  0.2489
 2475SOL    HW2 9898  -0.030   1.939   4.181  1.1637  1.7524 -0.4694
 2475SOL    HW3 9899   0.055   1.899   4.063  2.1641  0.5426  0.6377
 2475SOL    MW4 9900   0.034   1.891   4.147  0.4279  0.2282  0.2054
 2476SOL     OW 9901   1.989   0.615   4.579  0.1621  0.4619 -0.0514
 2476SOL    HW2 9902   1.999   0.535   4.527  0.1180  0.2924  0.1973
 2476SOL    HW3 9903   2.054   0.675   4.544 -0.6992  0.7809 -1.1239
 2476SOL    MW4 9904   1.999   0.612   4.568  0.0426  0.4816 -0.1601
 2477SOL     OW 9905   0.093   2.537   4.515 -0.2567 -0.2193  0.2509
 2477SOL    HW2 9906   0.106   2.615   4.569  0.2809 -0.1515  0.0219
 2477SOL    HW3 9907   0.151   2.471   4.553  0.7128  0.0621 -0.7190
 2477SOL    MW4 9908   0.102   2.539   4.527 -0.0579 -0.1732  0.0927
 2478SOL     OW 9909   0.209   0.969   4.824  0.2386  0.0166 -0.7560
 2478SOL    HW2 9910   0.225   0.875   4.826  0.9820  0.1494  2.0842
 2478SOL    HW3 9911   0.114   0.978   4.828  0.0645 -0.6223 -3.1309
 2478SOL    MW4 9912   0.199   0.958   4.825  0.3137 -0.0502 -0.6946
 2479SOL     OW 9913   3.360   3.115   4.113 -0.6185 -0.5405 -0.1415
 2479SOL    HW2 9914   3.280   3.148   4.153  0.0818  0.5045  0.4161
 2479SOL    HW3 9915   3.366   3.024   4.143 -1.2199 -0.4071  0.3914
 2479SOL    MW4 9916   3.350   3.107   4.122 -0.6054 -0.3850  0.0024
 2480SOL     OW 9917   4.374   3.605   4.144 -0.0667  0.3207 -0.2181
 2480SOL    HW2 9918   4.289   3.563   4.148  0.6444 -1.5041 -2.8816
 2480SOL    HW3 9919   4.416   3.567   4.067  3.3048  0.9091  1.2321
 2480SOL    MW4 9920   4.369   3.595   4.134  0.4719  0.1576 -0.3782
 2481SOL     OW 9921   1.612   3.633   4.833  0.1894  0.4183  0.5761
 2481SOL    HW2 9922   1.559   3.629   4.753  0.6685 -1.1795  0.3012
 2481SOL    HW3 9923   1.628   3.726   4.847  0.7746  0.6959 -1.6803
 2481SOL    MW4 9924   1.607   3.644   4.824  0.3298  0.2441  0.2421
 2482SOL     OW 9925   0.391   3.466   4.107  0.0473 -0.0261 -0.3512
 2482SOL    HW2 9926   0.304   3.500   4.128 -0.9194 -2.4336 -0.2954
 2482SOL    HW3 9927   0.399   3.477   4.012 -1.2165 -1.7472 -0.6795
 2482SOL    MW4 9928   0.381   3.472   4.097 -0.2470 -0.5708 -0.3872
 2483SOL     OW 9929   3.857   1.469   4.556 -0.5953  0.5911  0.2577
 2483SOL    HW2 9930   3.938   1.518   4.538 -0.3433 -0.0074 -0.2520
 2483SOL    HW3 9931   3.870   1.384   4.514 -2.0303  0.9642 -0.9953
 2483SOL    MW4 9932   3.869   1.464   4.548 -0.7514  0.5613  0.0251
 2484SOL     OW 9933   0.723   2.731   4.219 -0.1441 -0.1683  0.1793
 2484SOL    HW2 9934   0.784   2.720   4.292  0.7173 -0.7995 -0.6257
 2484SOL    HW3 9935   0.645   2.683   4.245  0.2077 -0.4976  0.6251
 2484SOL    MW4 9936   0.721   2.724   4.232  0.0159 -0.2950  0.1319
 2485SOL     OW 9937   2.756   0.562   4.540  0.4868 -0.1880 -0.3560
 2485SOL    HW2 9938   2.669   0.528   4.522  0.7488 -1.0977  0.0274
 2485SOL    HW3 9939   2.743   0.631   4.605  0.2257 -1.6063  1.1305
 2485SOL    MW4 9940   2.743   0.567   4.546  0.4869 -0.4952 -0.1093
 2486SOL     OW 9941   0.711   0.023   3.891 -0.5230 -0.0711 -0.1512
 2486SOL    HW2 9942   0.621   0.054   3.900 -0.6030 -0.1250 -0.7337
 2486SOL    HW3 9943   0.702  -0.068   3.862 -0.2828 -0.2784  0.4218
 2486SOL    MW4 9944   0.698   0.015   3.888 -0.5019 -0.1055 -0.1524
 2487SOL     OW 9945   1.309   3.882   4.518  0.7014 -0.4697 -0.4321
 2487SOL    HW2 9946   1.366   3.943   4.565  0.3218  0.1118 -0.7245
 2487SOL    HW3 9947   1.323   3.901   4.426  0.0738 -0.3502 -0.5089
 2487SOL    MW4 9948   1.318   3.893   4.512  0.5685 -0.3772 -0.4808
 2488SOL     OW 9949   0.682   4.442   4.711 -0.7079  0.1297  0.3507
 2488SOL    HW2 9950   0.610   4.458   4.650  0.2595 -0.2704 -0.9192
 2488SOL    HW3 9951   0.737   4.519   4.704 -0.1615 -0.2845  0.1170
 2488SOL    MW4 9952   0.679   4.454   4.702 -0.5082  0.0223  0.1523
 2489SOL     OW 9953   0.617   1.147   4.602 -0.6391 -0.5852 -0.6366
 2489SOL    HW2 9954   0.546   1.211   4.609 -0.4712 -0.6455  1.8178
 2489SOL    HW3 9955   0.589   1.074   4.657  1.5506 -0.4024  0.7363
 2489SOL    MW4 9956   0.604   1.146   4.610 -0.3281 -0.5691 -0.1317
 2490SOL     OW 9957   2.256   1.708   4.244 -0.2414  0.4267 -0.2269
 2490SOL    HW2 9958   2.187   1.651   4.209 -0.7049  0.1877  1.0817
 2490SOL    HW3 9959   2.265   1.683   4.336  3.2408 -1.1960 -0.9139
 2490SOL    MW4 9960   2.248   1.697   4.251  0.1569  0.1811 -0.1449
 2491SOL     OW 9961   1.109   4.653   4.059  0.5962  0.7158  0.2095
 2491SOL    HW2 9962   1.138   4.563   4.070 -0.3415  0.2237 -1.2377
 2491SOL    HW3 9963   1.112   4.668   3.964  0.6101  2.1622  0.4175
 2491SOL    MW4 9964   1.113   4.643   4.048  0.4743  0.8417  0.0460
 2492SOL     OW 9965   0.898   2.676   4.430  0.2282 -0.0448 -0.0820
 2492SOL    HW2 9966   0.839   2.665   4.505  0.0075  0.3133 -0.1989
 2492SOL    HW3 9967   0.941   2.591   4.420  0.2453 -0.0985  0.4383
 2492SOL    MW4 9968   0.896   2.663   4.439  0.2014 -0.0046 -0.0288
 2493SOL     OW 9969   0.269   1.943   4.308  0.0642 -0.6960 -0.0867
 2493SOL    HW2 9970   0.202   1.923   4.242  0.2952 -1.8664  0.0205
 2493SOL    HW3 9971   0.349   1.955   4.257  0.1356 -1.0857 -0.0703
 2493SOL    MW4 9972   0.271   1.942   4.292  0.1041 -0.9018 -0.0704
 2494SOL     OW 9973   0.178   0.608   4.101  0.0789  0.0728  0.2720
 2494SOL    HW2 9974   0.179   0.675   4.032  0.6555  0.5028  0.6994
 2494SOL    HW3 9975   0.264   0.568   4.097 -1.1345 -2.5189 -1.7818
 2494SOL    MW4 9976   0.189   0.612   4.091 -0.0051 -0.2124  0.0574
 2495SOL     OW 9977   0.285   0.054   4.601  0.1411 -0.6203  0.1102
 2495SOL    HW2 9978   0.197   0.015   4.606  0.3273 -1.1194 -0.5782
 2495SOL    HW3 9979   0.341  -0.016   4.569  0.3262  0.4505 -1.9814
 2495SOL    MW4 9980   0.281   0.040   4.598  0.1901 -0.5449 -0.2566
 2496SOL     OW 9981   1.475   1.989   4.629 -0.1026 -0.2846  0.3532
 2496SOL    HW2 9982   1.504   2.074   4.594 -1.3798  0.2413  0.5317
 2496SOL    HW3 9983   1.403   2.011   4.688 -0.2292 -1.4742  0.6529
 2496SOL    MW4 9984   1.469   2.003   4.632 -0.2878 -0.3722  0.4163
 2497SOL     OW 9985   0.451   2.568   4.594 -0.2621  0.1607 -0.3150
 2497SOL    HW2 9986   0.536   2.584   4.636  0.0778 -0.5832 -0.7193
 2497SOL    HW3 9987   0.467   2.586   4.501 -0.9602  1.6043 -0.1704
 2497SOL    MW4 9988   0.464   2.573   4.587 -0.3093  0.2530 -0.3493
 2498SOL     OW 9989   1.050   1.282   4.816 -0.1970  0.3339 -0.0158
 2498SOL    HW2 9990   1.073   1.369   4.849  0.1749  0.4669 -0.6129
 2498SOL    HW3 9991   0.992   1.300   4.741 -1.3898  0.0277  0.8257
 2498SOL    MW4 9992   1.046   1.296   4.810 -0.3053  0.3110  0.0165
 2499SOL     OW 9993   4.466   0.868   4.332  0.3324 -0.0453  0.3580
 2499SOL    HW2 9994   4.547   0.906   4.297  0.0566 -0.3515 -0.6397
 2499SOL    HW3 9995   4.412   0.851   4.254 -0.6670  0.1005  1.0162
 2499SOL    MW4 9996   4.470   0.871   4.317  0.1642 -0.0665  0.3132
 2500SOL     OW 9997   2.021   2.383   4.722 -0.1873 -0.3420 -0.0352
 2500SOL    HW2 9998   1.966   2.459   4.703  0.1304 -0.0937  0.0428
 2500SOL    HW3 9999   2.091   2.387   4.656  2.2079  1.7768  2.5621
 2500SOL    MW410000   2.023   2.393   4.711  0.1706 -0.0297  0.3178
 2501SOL     OW10001   0.538   4.499   4.282  0.3688 -0.3945  0.1644
 2501SOL    HW210002   0.628   4.467   4.277 -0.2897 -2.3121  0.0631
 2501SOL    HW310003   0.488   4.435   4.231 -0.8651  1.3889 -0.8983
 2501SOL    MW410004   0.544   4.486   4.274  0.1191 -0.4122  0.0108
 2502SOL     OW10005   0.750   1.693   4.515 -0.0846 -0.5362 -0.1707
 2502SOL    HW210006   0.745   1.715   4.422 -0.3203  1.6547  0.3205
 2502SOL    HW310007   0.835   1.651   4.525  0.1928 -0.2599 -1.2700
 2502SOL    MW410008   0.760   1.690   4.504 -0.0791 -0.2107 -0.2509
 2503SOL     OW10009   1.007   3.515   4.412  0.0235 -0.5371 -0.4876
 2503SOL    HW210010   1.056   3.548   4.337  1.2416 -0.0502  0.4973
 2503SOL    HW310011   1.065   3.449   4.451 -0.0673  0.0837  0.7223
 2503SOL    MW410012   1.021   3.510   4.408  0.1723 -0.3910 -0.1980
 2504SOL     OW10013   0.478   2.584   4.318 -0.1451  0.0846  0.6172
 2504SOL    HW210014   0.422   2.628   4.254  0.7002  2.0426  1.1756
 2504SOL    HW310015   0.486   2.494   4.286 -0.9155  0.6538 -1.2252
 2504SOL    MW410016   0.472   2.578   4.305 -0.1353  0.4180  0.4478
 2505SOL     OW10017   0.871   3.470   4.072 -0.4934  0.2819 -0.0145
 2505SOL    HW210018   0.861   3.477   3.977  2.6438 -0.8272 -0.4838
 2505SOL    HW310019   0.860   3.377   4.090 -1.5029  0.5483  0.7944
 2505SOL    MW410020   0.868   3.459   4.062 -0.2126  0.1707  0.0303
 2506SOL     OW10021   0.935   4.100   4.463 -0.0179 -0.3552  0.1371
 2506SOL    HW210022   1.026   4.124   4.483 -0.2712  1.6414 -0.9551
 2506SOL    HW310023   0.883   4.176   4.491 -0.9531  0.0674 -2.5107
 2506SOL    MW410024   0.940   4.113   4.469 -0.1747 -0.0360 -0.3563
 2507SOL     OW10025   0.168   3.611   4.202  0.4462  0.6368  0.1628
 2507SOL    HW210026   0.186   3.645   4.290  0.0991  0.8899  0.1404
 2507SOL    HW310027   0.073   3.618   4.193  0.3672 -0.4030  0.1745
 2507SOL    MW410028   0.158   3.617   4.212  0.3900  0.5330  0.1614
 2508SOL     OW10029   0.673   3.873   4.074 -0.5456  0.2155  0.1074
 2508SOL    HW210030   0.661   3.782   4.101 -0.7047  0.4933  0.9760
 2508SOL    HW310031   0.591   3.915   4.098 -0.8474  0.3791 -1.1817
 2508SOL    MW410032   0.660   3.866   4.081 -0.6064  0.2737  0.0519
 2509SOL     OW10033   0.206   0.013   4.114  0.0895 -0.3994  0.0129
 2509SOL    HW210034   0.205  -0.072   4.159  2.2933  0.2565  1.3671
 2509SOL    HW310035   0.143   0.066   4.164  0.2185 -0.6233  0.4195
 2509SOL    MW410036   0.197   0.009   4.127  0.3973 -0.3424  0.2452
 2510SOL     OW10037   2.610   4.016   4.465 -0.2928 -0.4118  0.0423
 2510SOL    HW210038   2.627   4.095   4.516  1.0702 -1.1349  0.7505
 2510SOL    HW310039   2.518   4.022   4.442 -0.6341  0.5441  1.5597
 2510SOL    MW410040   2.600   4.027   4.469 -0.1580 -0.3811  0.3360
 2511SOL     OW10041   2.588   1.167   4.957  0.2824  0.2079 -0.2948
 2511SOL    HW210042   2.583   1.156   4.862 -1.0290 -0.4900 -0.1587
 2511SOL    HW310043   2.510   1.122   4.991  1.0696 -0.0999  1.1567
 2511SOL    MW410044   2.577   1.160   4.949  0.2132  0.0752 -0.0854
 2512SOL     OW10045   0.261   1.822   4.565  0.0082 -0.3435 -0.2268
 2512SOL    HW210046   0.256   1.845   4.473  0.7923 -1.1884 -0.4899
 2512SOL    HW310047   0.287   1.730   4.566  1.5167  0.0604  0.8309
 2512SOL    MW410048   0.264   1.813   4.553  0.3106 -0.4017 -0.1220
 2513SOL     OW10049   3.600   0.019   4.509  0.3415 -0.2717 -0.3319
 2513SOL    HW210050   3.597   0.041   4.416  1.2824  0.0269 -0.2982
 2513SOL    HW310051   3.652   0.089   4.549  0.4602 -0.7273  0.3242
 2513SOL    MW410052   3.606   0.031   4.502  0.4813 -0.2924 -0.2409
 2514SOL     OW10053   1.104   1.628   4.119 -0.3328 -0.0498 -0.0745
 2514SOL    HW210054   1.087   1.558   4.182 -0.9070  1.4636  1.5070
 2514SOL    HW310055   1.044   1.698   4.144  2.2421  2.1400  0.2389
 2514SOL    MW410056   1.094   1.628   4.131 -0.0688  0.4388  0.1755
 2515SOL     OW10057   0.879   0.440   4.080  0.2282 -0.0892 -0.3600
 2515SOL    HW210058   0.816   0.513   4.081  0.8848  0.4716  0.2365
 2515SOL    HW310059   0.853   0.385   4.154  0.0755 -0.1657 -0.4709
 2515SOL    MW410060   0.867   0.443   4.090  0.2947 -0.0253 -0.2959
 2516SOL     OW10061   1.453   0.025   4.534  0.8176  0.6193  0.2007
 2516SOL    HW210062   1.457  -0.052   4.477  3.7750  0.1723  0.9236
 2516SOL    HW310063   1.420  -0.009   4.617  0.8660  0.3806  0.1230
 2516SOL    MW410064   1.449   0.010   4.537  1.2142  0.5288  0.2859
 2517SOL     OW10065   0.132   4.471   4.473  0.3248  0.0207 -0.2925
 2517SOL    HW210066   0.197   4.416   4.517  0.3332 -0.5983 -1.0775
 2517SOL    HW310067   0.152   4.462   4.380 -0.1759  0.7275 -0.4702
 2517SOL    MW410068   0.143   4.462   4.467  0.2598  0.0323 -0.4195
 2518SOL     OW10069   1.975   1.344   4.815  0.0613  0.0731  0.2155
 2518SOL    HW210070   2.000   1.394   4.737  3.0019  0.7184  1.4937
 2518SOL    HW310071   1.883   1.323   4.802  0.4383  0.3376 -3.3349
 2518SOL    MW410072   1.966   1.348   4.803  0.4990  0.1931 -0.0843
 2519SOL     OW10073   1.321   1.833   4.445  0.2314 -0.2421  0.4031
 2519SOL    HW210074   1.300   1.753   4.492 -1.6841  0.3662  0.6308
 2519SOL    HW310075   1.379   1.882   4.504  0.7394 -1.0777  0.6001
 2519SOL    MW410076   1.326   1.829   4.459  0.0457 -0.2721  0.4591
 2520SOL     OW10077   0.695   1.783   4.233  0.3634 -0.6726 -0.2821
 2520SOL    HW210078   0.782   1.823   4.222 -0.0566  0.0969 -0.8603
 2520SOL    HW310079   0.634   1.852   4.206 -0.4433 -1.0566  0.5519
 2520SOL    MW410080   0.698   1.798   4.228  0.2016 -0.6217 -0.2484
 2521SOL     OW10081   1.649   3.090   4.560 -0.1936 -0.2717 -0.2547
 2521SOL    HW210082   1.568   3.136   4.540 -0.8112 -0.8053  0.9910
 2521SOL    HW310083   1.715   3.158   4.565 -0.4727  0.1235 -1.7231
 2521SOL    MW410084   1.647   3.105   4.558 -0.3119 -0.2900 -0.2841
 2522SOL     OW10085   1.443   1.958   4.138 -0.3314  0.3072 -0.3200
 2522SOL    HW210086   1.466   1.866   4.131 -1.0639  0.0527  0.5025
 2522SOL    HW310087   1.354   1.958   4.174 -0.3287  1.3312 -0.2937
 2522SOL    MW410088   1.434   1.946   4.142 -0.4277  0.4087 -0.2080
 2523SOL     OW10089   2.545   2.036   4.505  0.0540  0.5384 -0.1030
 2523SOL    HW210090   2.609   2.106   4.512  0.1320  0.5312 -0.7788
 2523SOL    HW310091   2.514   2.040   4.415  1.0846 -1.1889 -0.5639
 2523SOL    MW410092   2.549   2.045   4.494  0.2003  0.3095 -0.2530
 2524SOL     OW10093   2.323   2.129   4.616  0.2528  0.0006  0.0563
 2524SOL    HW210094   2.403   2.099   4.573  0.2807 -1.1901  0.9167
 2524SOL    HW310095   2.253   2.081   4.572  0.1877 -0.4265  0.6243
 2524SOL    MW410096   2.324   2.119   4.604  0.2479 -0.2128  0.2447
 2525SOL     OW10097   1.326   2.401   4.309 -0.4132  0.1837 -0.1468
 2525SOL    HW210098   1.388   2.379   4.239 -0.7737  0.2220 -0.4757
 2525SOL    HW310099   1.372   2.467   4.361 -0.1233  0.1187 -0.3163
 2525SOL    MW410100   1.340   2.407   4.307 -0.4225  0.1802 -0.2126
 2526SOL     OW10101   0.293   2.635   4.081 -0.0270  0.0769  0.1279
 2526SOL    HW210102   0.259   2.546   4.088  2.8330 -0.9838  1.0768
 2526SOL    HW310103   0.324   2.642   3.990  0.5203 -0.1766  0.2960
 2526SOL    MW410104   0.292   2.624   4.070  0.4225 -0.0965  0.2753
 2527SOL     OW10105   1.573   3.463   4.473  0.2781 -0.0780 -0.2300
 2527SOL    HW210106   1.547   3.460   4.381  0.0651 -0.2514 -0.1645
 2527SOL    HW310107   1.512   3.525   4.513 -1.5790 -2.2372  0.4053
 2527SOL    MW410108   1.562   3.471   4.466  0.0050 -0.3857 -0.1376
 2528SOL     OW10109   1.769   2.935   4.925  0.2085  0.3872  0.5499
 2528SOL    HW210110   1.741   3.025   4.910  1.0007  0.6560  0.6562
 2528SOL    HW310111   1.865   2.940   4.927  0.2220 -0.2432  1.9096
 2528SOL    MW410112   1.778   2.948   4.923  0.3148  0.3395  0.7433
 2529SOL     OW10113   1.781   3.326   4.587  0.1218  0.0778  0.1762
 2529SOL    HW210114   1.784   3.363   4.675  0.8647  1.5781 -0.4755
 2529SOL    HW310115   1.714   3.378   4.542 -0.5099 -0.9178 -0.0532
 2529SOL    MW410116   1.772   3.338   4.593  0.1365  0.1444  0.0599
 2530SOL     OW10117   2.267   0.087   4.179  0.0677  0.1581 -0.7770
 2530SOL    HW210118   2.183   0.052   4.149  0.0550 -0.7382  0.2690
 2530SOL    HW310119   2.332   0.031   4.139  0.1431  0.5327 -1.1731
 2530SOL    MW410120   2.264   0.075   4.170  0.0760  0.0893 -0.6912
 2531SOL     OW10121   1.107   3.579   4.163  0.1378  0.2584 -0.0319
 2531SOL    HW210122   1.034   3.526   4.132  0.2552  0.4589 -0.6591
 2531SOL    HW310123   1.185   3.533   4.132  0.2711  0.1691  0.4362
 2531SOL    MW410124   1.108   3.566   4.155  0.1709  0.2730 -0.0529
 2532SOL     OW10125   1.116   3.867   4.118  0.0227 -0.5300  0.1626
 2532SOL    HW210126   1.117   3.772   4.127 -0.5834 -0.5512  0.0491
 2532SOL    HW310127   1.030   3.893   4.150 -0.4911 -0.1938 -1.4190
 2532SOL    MW410128   1.104   3.858   4.123 -0.1250 -0.4885 -0.0610
 2533SOL     OW10129   1.320   0.595   4.654 -0.0604  0.0661  0.0461
 2533SOL    HW210130   1.254   0.548   4.603 -1.2538  0.6859  0.9967
 2533SOL    HW310131   1.271   0.634   4.726  1.0578  2.0005 -0.2016
 2533SOL    MW410132   1.305   0.594   4.657 -0.0703  0.4031  0.1389
 2534SOL     OW10133   1.765   0.071   4.227  0.0114  0.2729  0.2250
 2534SOL    HW210134   1.752   0.073   4.322 -0.3102  0.7032  0.1742
 2534SOL    HW310135   1.752   0.161   4.199 -1.7720 -0.1677 -0.4680
 2534SOL    MW410136   1.761   0.083   4.236 -0.2663  0.2715  0.1269
 2535SOL     OW10137   1.316   0.141   4.169 -0.3503  0.0398  0.3617
 2535SOL    HW210138   1.300   0.128   4.263 -1.9112  2.5887  0.4986
 2535SOL    HW310139   1.250   0.087   4.126  0.2512 -0.9935  0.7233
 2535SOL    MW410140   1.305   0.132   4.176 -0.4769  0.2398  0.4275
 2536SOL     OW10141   1.566   0.505   4.231 -0.6079 -0.3489  0.1144
 2536SOL    HW210142   1.558   0.529   4.323  0.3055 -0.3787  0.2006
 2536SOL    HW310143   1.574   0.588   4.185  0.6256 -0.4049  0.2257
 2536SOL    MW410144   1.566   0.519   4.237 -0.3246 -0.3602  0.1405
 2537SOL     OW10145   1.129   0.767   4.075  0.1547 -0.7518  0.2934
 2537SOL    HW210146   1.194   0.820   4.122  0.5153 -1.7610  0.9794
 2537SOL    HW310147   1.128   0.684   4.123 -1.4642 -0.8380  0.1208
 2537SOL    MW410148   1.138   0.763   4.088 -0.0113 -0.8963  0.3611
 2538SOL     OW10149   0.964   1.204   4.049  0.0216  0.0259 -0.1123
 2538SOL    HW210150   0.951   1.123   4.098 -0.5334  0.5983  0.6997
 2538SOL    HW310151   1.059   1.218   4.051  0.1093 -0.5429 -0.1735
 2538SOL    MW410152   0.975   1.195   4.056 -0.0400  0.0264 -0.0132
 2539SOL     OW10153   1.105   0.529   4.215 -0.2272  0.6439  0.1650
 2539SOL    HW210154   1.182   0.488   4.176 -0.1138  1.1871 -0.1904
 2539SOL    HW310155   1.031   0.495   4.166 -0.1746  0.5074  0.1794
 2539SOL    MW410156   1.106   0.519   4.204 -0.2053  0.6975  0.1200
 2540SOL     OW10157   0.758   3.624   4.416 -0.0313  0.2858  0.0001
 2540SOL    HW210158   0.733   3.641   4.325 -1.4810  0.4735  0.4346
 2540SOL    HW310159   0.836   3.569   4.409 -0.8222 -0.6899 -1.3622
 2540SOL    MW410160   0.765   3.619   4.403 -0.3269  0.1818 -0.1223
 2541SOL     OW10161   1.310   0.954   4.168  0.5472  0.5108 -0.2875
 2541SOL    HW210162   1.287   1.043   4.142 -0.1568  0.1243 -0.9771
 2541SOL    HW310163   1.333   0.962   4.261 -0.4355  1.2478 -0.1026
 2541SOL    MW410164   1.310   0.967   4.177  0.3247  0.5571 -0.3541
 2542SOL     OW10165   1.744   0.965   4.443 -0.5760 -0.5677  0.2007
 2542SOL    HW210166   1.771   1.055   4.459 -0.0688 -0.4702 -1.1139
 2542SOL    HW310167   1.768   0.918   4.522 -1.3148  0.5466  1.1078
 2542SOL    MW410168   1.751   0.971   4.455 -0.6066 -0.4078  0.1469
 2543SOL     OW10169   3.836   1.427   4.816 -0.0434 -0.1807  0.3200
 2543SOL    HW210170   3.846   1.514   4.855 -2.3687 -0.0102  0.6157
 2543SOL    HW310171   3.830   1.443   4.722 -0.3611 -0.0471  0.3655
 2543SOL    MW410172   3.837   1.440   4.809 -0.3921 -0.1406  0.3650
 2544SOL     OW10173   4.086   1.352   4.878  0.6471 -0.0755 -0.2908
 2544SOL    HW210174   4.118   1.362   4.788 -0.0272 -0.7213 -0.6106
 2544SOL    HW310175   3.991   1.365   4.870  0.6797  0.6049  0.4462
 2544SOL    MW410176   4.078   1.355   4.865  0.5624 -0.0709 -0.2357
 2545SOL     OW10177   0.964   0.975   4.201  0.1229 -0.1813 -0.7038
 2545SOL    HW210178   0.887   0.926   4.227  0.6167 -0.8991 -0.5824
 2545SOL    HW310179   1.022   0.910   4.162  1.9278 -0.2007  1.8935
 2545SOL    MW410180   0.962   0.960   4.199  0.4262 -0.2786 -0.3451
 2546SOL     OW10181   1.351   1.265   4.355 -0.1057  0.9352  0.1031
 2546SOL    HW210182   1.283   1.331   4.346 -1.9312 -0.9663 -0.2579
 2546SOL    HW310183   1.322   1.210   4.428  1.3404  0.4427  0.3319
 2546SOL    MW410184   1.339   1.266   4.363 -0.1558  0.6194  0.0857
 2547SOL     OW10185   0.703   2.632   4.682 -0.5780 -0.3503  0.1032
 2547SOL    HW210186   0.767   2.567   4.712 -0.8524  0.1346  1.8023
 2547SOL    HW310187   0.725   2.712   4.730 -0.9695  0.4963 -1.1034
 2547SOL    MW410188   0.714   2.634   4.692 -0.6659 -0.1746  0.1682
 2548SOL     OW10189   1.186   2.605   4.112 -0.0562  0.1710  0.8557
 2548SOL    HW210190   1.204   2.683   4.164  0.1780 -0.2518  1.4047
 2548SOL    HW310191   1.242   2.537   4.149 -0.1129 -0.2117  0.2548
 2548SOL    MW410192   1.196   2.606   4.124 -0.0328  0.0647  0.8488
 2549SOL     OW10193   1.836   2.929   4.375 -0.0065  0.1351 -0.2198
 2549SOL    HW210194   1.751   2.947   4.414 -0.1534 -0.2580 -0.3495
 2549SOL    HW310195   1.862   3.011   4.333 -0.5303  0.1279 -0.5691
 2549SOL    MW410196   1.828   2.942   4.374 -0.0950  0.0822 -0.2830
 2550SOL     OW10197   2.172   3.479   4.734  0.2120 -0.2081 -0.0435
 2550SOL    HW210198   2.139   3.431   4.658  0.0017  1.0215 -0.7472
 2550SOL    HW310199   2.154   3.422   4.808  0.4863 -1.4577 -0.9285
 2550SOL    MW410200   2.165   3.465   4.734  0.2204 -0.2108 -0.2531
 2551SOL     OW10201   2.185   3.041   4.627 -0.2893  0.2284 -0.2985
 2551SOL    HW210202   2.152   3.120   4.584 -0.4285 -0.4933 -1.5757
 2551SOL    HW310203   2.268   3.022   4.582  0.0240 -0.0196  0.3864
 2551SOL    MW410204   2.191   3.049   4.615 -0.2663  0.1004 -0.3766
 2552SOL     OW10205   4.255   2.332   4.160 -0.0716  0.5755  0.2542
 2552SOL    HW210206   4.303   2.409   4.190 -0.5852  0.3477  1.6999
 2552SOL    HW310207   4.165   2.348   4.187 -0.5183  0.2875 -1.0582
 2552SOL    MW410208   4.250   2.344   4.168 -0.1983  0.5075  0.2718
 2553SOL     OW10209   1.806   3.421   4.104 -0.5489 -0.4045 -0.2359
 2553SOL    HW210210   1.891   3.462   4.115 -0.3706 -1.1479  1.2549
 2553SOL    HW310211   1.787   3.429   4.010  2.3623 -2.5928 -1.0876
 2553SOL    MW410212   1.814   3.427   4.093 -0.1412 -0.7913 -0.1515
 2554SOL     OW10213   1.642   2.833   4.710 -0.1159  0.3158  0.0705
 2554SOL    HW210214   1.687   2.848   4.793  0.4976 -2.1074  0.2041
 2554SOL    HW310215   1.648   2.917   4.664  2.1489  0.8207  1.2220
 2554SOL    MW410216   1.649   2.846   4.715  0.2638  0.0627  0.2400
 2555SOL     OW10217   1.041   3.119   4.580  0.4997  0.1269 -0.2387
 2555SOL    HW210218   0.955   3.133   4.540 -0.2030 -1.9602  0.4713
 2555SOL    HW310219   1.073   3.038   4.540  1.8812  0.5482 -0.0309
 2555SOL    MW410220   1.034   3.110   4.569  0.5893 -0.0929 -0.1176
 2556SOL     OW10221   0.919   4.257   4.073  0.5101  0.0956 -0.3474
 2556SOL    HW210222   1.000   4.298   4.102  0.2404  0.6350 -0.3367
 2556SOL    HW310223   0.919   4.170   4.113  0.3797  0.6376  0.8597
 2556SOL    MW410224   0.929   4.251   4.082  0.4573  0.2383 -0.1867
 2557SOL     OW10225   1.353   4.199   4.125  0.0268 -0.1943 -0.4212
 2557SOL    HW210226   1.428   4.254   4.148 -1.1005  0.9672  0.5490
 2557SOL    HW310227   1.350   4.201   4.029  0.5131  0.7385 -0.4263
 2557SOL    MW410228   1.363   4.207   4.115 -0.0578  0.0820 -0.2939
 2558SOL     OW10229   2.022   4.633   4.114  0.6509 -0.0424  0.3120
 2558SOL    HW210230   1.944   4.673   4.152 -0.3629 -1.2210 -0.4783
 2558SOL    HW310231   2.013   4.649   4.020  0.5328 -1.6084  0.0557
 2558SOL    MW410232   2.011   4.641   4.106  0.5016 -0.4046  0.1739
 2559SOL     OW10233   1.534   4.661   4.092 -0.0463  0.4956  0.3247
 2559SOL    HW210234   1.603   4.690   4.151 -0.0517  1.3661 -0.0853
 2559SOL    HW310235   1.455   4.704   4.124 -0.2945 -0.0699  0.4717
 2559SOL    MW410236   1.533   4.670   4.104 -0.0797  0.5358  0.2900
 2560SOL     OW10237   1.751   0.325   4.131  0.0591 -0.6268  0.0291
 2560SOL    HW210238   1.687   0.379   4.178  0.9577  0.1733  0.3525
 2560SOL    HW310239   1.836   0.367   4.149  0.5706 -1.1331 -1.1540
 2560SOL    MW410240   1.754   0.338   4.139  0.2452 -0.5880 -0.0843
 2561SOL     OW10241   2.703   0.911   4.929  0.1408 -0.1163 -0.3340
 2561SOL    HW210242   2.636   0.853   4.966  0.0714  0.9705  1.2950
 2561SOL    HW310243   2.672   0.999   4.949  1.6223  0.4153 -0.3489
 2561SOL    MW410244   2.690   0.915   4.937  0.3271  0.0972 -0.1210
 2562SOL     OW10245   2.017   0.694   4.106 -0.1132 -0.0690 -0.1336
 2562SOL    HW210246   1.951   0.755   4.138 -0.2410  0.0899 -0.7042
 2562SOL    HW310247   1.996   0.611   4.150 -1.6094 -0.4007 -1.4703
 2562SOL    MW410248   2.006   0.691   4.116 -0.3275 -0.0918 -0.3852
 2563SOL     OW10249   1.538   0.793   4.117  0.1597  0.0292 -0.3537
 2563SOL    HW210250   1.465   0.854   4.128  0.5607  0.7223 -1.4684
 2563SOL    HW310251   1.551   0.788   4.022  0.4606 -1.3976 -0.2422
 2563SOL    MW410252   1.530   0.800   4.106  0.2523 -0.0676 -0.4861
 2564SOL     OW10253   1.804   0.869   4.187 -0.1178  0.4868  0.2472
 2564SOL    HW210254   1.802   0.900   4.278 -1.2092 -1.5881  0.9808
 2564SOL    HW310255   1.714   0.842   4.170  0.0379  1.0787 -1.5506
 2564SOL    MW410256   1.792   0.869   4.197 -0.2412  0.2912  0.1068
 2565SOL     OW10257   1.726   1.805   4.684  0.2603 -0.1194 -0.3270
 2565SOL    HW210258   1.676   1.886   4.669  0.8911  0.1193 -1.1811
 2565SOL    HW310259   1.775   1.822   4.765 -0.0982  0.1017 -0.1527
 2565SOL    MW410260   1.726   1.818   4.693  0.2963 -0.0588 -0.4167
 2566SOL     OW10261   1.736   0.710   4.658 -0.1732  0.1634 -0.0789
 2566SOL    HW210262   1.762   0.785   4.710  0.3763  0.0030 -0.1228
 2566SOL    HW310263   1.818   0.665   4.637 -0.2969  0.7394 -1.8633
 2566SOL    MW410264   1.750   0.714   4.662 -0.1170  0.2183 -0.3201
 2567SOL     OW10265   4.287   1.172   4.955  0.0504 -0.2866  0.3569
 2567SOL    HW210266   4.220   1.236   4.931  0.1459 -0.7425 -1.2042
 2567SOL    HW310267   4.364   1.224   4.978 -0.3691  0.1992  0.6595
 2567SOL    MW410268   4.288   1.187   4.955  0.0077 -0.2827  0.1909
 2568SOL     OW10269   2.314   1.941   4.113 -0.1521  0.0743  0.0409
 2568SOL    HW210270   2.311   1.855   4.155  2.2076  0.2613  0.6442
 2568SOL    HW310271   2.232   1.982   4.138 -2.9976 -3.2716 -3.1177
 2568SOL    MW410272   2.303   1.935   4.122 -0.2162 -0.3425 -0.2962
 2569SOL     OW10273   1.860   1.926   3.864 -0.3110 -0.4045 -0.3192
 2569SOL    HW210274   1.861   1.937   3.959  0.2177 -0.1979 -0.3448
 2569SOL    HW310275   1.775   1.959   3.836 -0.3231 -0.1355  0.0410
 2569SOL    MW410276   1.849   1.932   3.873 -0.2428 -0.3417 -0.2751
 2570SOL     OW10277   2.221   2.291   4.242  0.0166  0.2344  0.8461
 2570SOL    HW210278   2.296   2.334   4.200  1.3469 -1.5954  1.2861
 2570SOL    HW310279   2.220   2.326   4.331 -0.6582  1.4477  0.3914
 2570SOL    MW410280   2.231   2.302   4.248  0.1031  0.1530  0.8442
 2571SOL     OW10281   1.839   2.769   4.129 -0.2652 -0.5271 -0.4675
 2571SOL    HW210282   1.830   2.825   4.206  0.2611 -1.5685  0.3565
 2571SOL    HW310283   1.803   2.684   4.155  1.0930 -1.2624 -0.9448
 2571SOL    MW410284   1.833   2.765   4.142 -0.0166 -0.7615 -0.4218
 2572SOL     OW10285   1.600   3.042   4.130 -0.2915  0.1673 -0.3012
 2572SOL    HW210286   1.528   3.090   4.173 -0.1445  0.2322 -0.1274
 2572SOL    HW310287   1.576   2.950   4.139  0.0518  0.1499  0.4815
 2572SOL    MW410288   1.587   3.037   4.137 -0.2268  0.1735 -0.1750
 2573SOL     OW10289   1.482   2.800   4.267 -0.0723 -0.0765  0.3426
 2573SOL    HW210290   1.476   2.737   4.339 -1.0020  0.4960  0.7785
 2573SOL    HW310291   1.399   2.848   4.270 -0.0276  0.1057 -0.9772
 2573SOL    MW410292   1.470   2.798   4.277 -0.1891  0.0231  0.2260
 2574SOL     OW10293   2.015   3.100   3.781 -0.4856 -0.4506 -0.4052
 2574SOL    HW210294   2.100   3.140   3.762 -1.1019 -0.4259 -3.3034
 2574SOL    HW310295   2.029   3.006   3.768 -0.6717 -0.5428  0.0443
 2574SOL    MW410296   2.028   3.093   3.777 -0.5914 -0.4595 -0.7282
 2575SOL     OW10297   2.070   3.288   4.938  0.1104 -0.0239  0.1002
 2575SOL    HW210298   1.984   3.331   4.932  0.0667 -0.0055  0.8611
 2575SOL    HW310299   2.049   3.195   4.940  0.0657  0.0035  1.0246
 2575SOL    MW410300   2.056   3.282   4.937  0.0987 -0.0178  0.3226
 2576SOL     OW10301   2.049   3.572   4.205  0.2767  0.2337  0.3154
 2576SOL    HW210302   2.130   3.541   4.164  0.0022  1.2788 -1.0614
 2576SOL    HW310303   2.036   3.659   4.168 -2.3016 -0.5402 -0.6734
 2576SOL    MW410304   2.058   3.580   4.194 -0.0997  0.2695  0.0033
 2577SOL     OW10305   2.278   3.464   4.115  0.2086  0.1165  0.3033
 2577SOL    HW210306   2.276   3.381   4.162  0.3768  1.0767  2.0197
 2577SOL    HW310307   2.358   3.507   4.145  0.1218  0.9176 -0.5743
 2577SOL    MW410308   2.289   3.459   4.125  0.2194  0.3489  0.4140
 2578SOL     OW10309   2.047   3.839   4.096 -0.2275 -0.3080 -0.0672
 2578SOL    HW210310   2.037   3.849   4.001 -1.8305 -1.0452 -0.0066
 2578SOL    HW310311   1.963   3.868   4.132 -0.6331 -2.5401  0.9074
 2578SOL    MW410312   2.034   3.844   4.088 -0.4925 -0.6997  0.0694
 2579SOL     OW10313   1.796   3.989   4.186  0.3646  0.3632  0.2130
 2579SOL    HW210314   1.778   3.974   4.279 -1.6316  1.9850  0.1150
 2579SOL    HW310315   1.809   4.084   4.179  0.9496  0.2004 -1.1018
 2579SOL    MW410316   1.795   3.999   4.197  0.1784  0.5557  0.0266
 2580SOL     OW10317   1.822   4.253   4.158  0.3559 -0.4239  0.3330
 2580SOL    HW210318   1.899   4.300   4.191  0.1510  0.3598 -0.2883
 2580SOL    HW310319   1.827   4.263   4.063  0.3110 -1.6808  0.1897
 2580SOL    MW410320   1.833   4.261   4.150  0.3230 -0.4863  0.2321
 2581SOL     OW10321   0.647   1.537   4.098 -0.6428  0.4194  0.2956
 2581SOL    HW210322   0.662   1.618   4.146 -0.0893  0.8706 -0.6322
 2581SOL    HW310323   0.675   1.556   4.009 -2.0254 -0.2900 -0.3146
 2581SOL    MW410324   0.652   1.550   4.093 -0.7522  0.3854  0.0927
 2582SOL     OW10325   2.950   4.301   4.466  0.6203  0.1978  0.2535
 2582SOL    HW210326   2.997   4.374   4.505  1.2002 -0.7727  1.4185
 2582SOL    HW310327   3.017   4.232   4.457  0.1349 -0.1217 -1.0012
 2582SOL    MW410328   2.965   4.301   4.470  0.6328  0.0276  0.2417
 2583SOL     OW10329   2.483   4.597   4.057 -0.6791  0.0384 -0.1605
 2583SOL    HW210330   2.539   4.667   4.089  0.0220  0.0980 -1.4812
 2583SOL    HW310331   2.492   4.527   4.122  1.9996 -0.4703 -1.0116
 2583SOL    MW410332   2.492   4.597   4.070 -0.2332 -0.0209 -0.4471
 2584SOL     OW10333   2.002   0.441   4.215  0.1196 -0.0512  0.3119
 2584SOL    HW210334   2.015   0.400   4.301 -0.1035 -0.4319  0.1680
 2584SOL    HW310335   2.080   0.416   4.165 -1.0444 -2.1591 -0.4831
 2584SOL    MW410336   2.014   0.432   4.220 -0.0634 -0.3796  0.1880
 2585SOL     OW10337   2.480   0.437   4.199  0.4027 -0.4676  0.4147
 2585SOL    HW210338   2.551   0.397   4.149  1.2115 -0.9637  1.9062
 2585SOL    HW310339   2.400   0.400   4.161  0.9260  0.1632 -1.3345
 2585SOL    MW410340   2.478   0.427   4.188  0.5784 -0.4498  0.3807
 2586SOL     OW10341   2.473   0.703   4.148  0.1951 -0.5961 -0.3218
 2586SOL    HW210342   2.477   0.607   4.151 -0.5266 -0.6091  0.3584
 2586SOL    HW310343   2.506   0.725   4.061  0.0995 -1.4805 -0.5933
 2586SOL    MW410344   2.478   0.693   4.137  0.0872 -0.7145 -0.2678
 2587SOL     OW10345   2.241   0.836   4.218  0.7595  0.2625  0.0662
 2587SOL    HW210346   2.321   0.789   4.192  0.9730  1.2252 -1.0649
 2587SOL    HW310347   2.170   0.784   4.183  0.9497  0.2108 -0.2423
 2587SOL    MW410348   2.242   0.823   4.210  0.8128  0.3827 -0.1237
 2588SOL     OW10349   1.641   1.290   4.262 -0.1581 -0.3547 -0.0781
 2588SOL    HW210350   1.567   1.281   4.322  0.8217 -0.2735  1.1856
 2588SOL    HW310351   1.618   1.363   4.205 -0.8044  0.0630  0.7022
 2588SOL    MW410352   1.628   1.299   4.263 -0.1141 -0.2889  0.1916
 2589SOL     OW10353   2.324   1.579   4.522 -0.5028  0.1984  0.1071
 2589SOL    HW210354   2.377   1.641   4.572 -0.6697  1.3986 -1.1567
 2589SOL    HW310355   2.383   1.505   4.505  0.6220  1.2868 -0.8247
 2589SOL    MW410356   2.339   1.577   4.526 -0.3764  0.5004 -0.1826
 2590SOL     OW10357   2.455   1.531   4.108 -0.2279 -0.1605 -0.1091
 2590SOL    HW210358   2.374   1.576   4.134  0.7331  1.7893 -0.4251
 2590SOL    HW310359   2.471   1.560   4.019  0.8063 -0.6037 -0.0710
 2590SOL    MW410360   2.446   1.540   4.100  0.0354  0.0383 -0.1458
 2591SOL     OW10361   1.862   2.636   4.620 -0.3461 -0.2383  0.3100
 2591SOL    HW210362   1.782   2.683   4.643 -0.8520 -0.2261 -1.4470
 2591SOL    HW310363   1.920   2.702   4.583 -0.0144 -0.4893  0.3768
 2591SOL    MW410364   1.859   2.651   4.618 -0.3691 -0.2698  0.0870
 2592SOL     OW10365   2.074   1.526   4.137  0.0690 -0.2768 -0.1660
 2592SOL    HW210366   2.071   1.432   4.154  1.7991 -0.3812 -0.2800
 2592SOL    HW310367   2.086   1.533   4.042 -0.0363  0.0449 -0.1551
 2592SOL    MW410368   2.075   1.514   4.127  0.2834 -0.2481 -0.1796
 2593SOL     OW10369   2.497   2.338   4.153  0.3353  0.0858 -0.0189
 2593SOL    HW210370   2.500   2.336   4.057  0.1912  0.0441 -0.0230
 2593SOL    HW310371   2.516   2.247   4.179 -0.8792 -0.1893 -0.0466
 2593SOL    MW410372   2.500   2.325   4.144  0.1561  0.0440 -0.0231
 2594SOL     OW10373   2.624   2.552   4.278  0.1978  0.6012  0.0573
 2594SOL    HW210374   2.573   2.485   4.234  1.7318  1.0266 -2.4642
 2594SOL    HW310375   2.713   2.516   4.281  0.5508  1.5245  0.8213
 2594SOL    MW410376   2.629   2.539   4.272  0.4468  0.7791 -0.1746
 2595SOL     OW10377   2.442   1.282   4.239  0.2345 -0.1778 -0.0628
 2595SOL    HW210378   2.450   1.354   4.177 -0.1058 -0.1554 -0.0815
 2595SOL    HW310379   2.522   1.230   4.227  0.3192  0.0074 -0.2890
 2595SOL    MW410380   2.454   1.284   4.229  0.2008 -0.1504 -0.0951
 2596SOL     OW10381   2.098   2.651   4.105  0.3643 -0.4068 -0.0673
 2596SOL    HW210382   2.024   2.711   4.112  0.9039  0.1137  1.5923
 2596SOL    HW310383   2.059   2.564   4.102 -0.3389 -0.0915 -0.1440
 2596SOL    MW410384   2.083   2.648   4.106  0.3427 -0.2965  0.1415
 2597SOL     OW10385   2.039   3.038   4.077 -0.0480 -0.0280 -0.3752
 2597SOL    HW210386   1.960   3.068   4.121 -0.3400  0.0193 -0.9208
 2597SOL    HW310387   2.037   3.081   3.991  0.4319 -0.2323 -0.4966
 2597SOL    MW410388   2.029   3.048   4.071 -0.0232 -0.0487 -0.4632
 2598SOL     OW10389   2.531   3.045   4.114  0.4618 -0.5981  0.2515
 2598SOL    HW210390   2.445   3.036   4.155  0.7532  0.5641  1.1327
 2598SOL    HW310391   2.570   2.958   4.119 -1.1138 -1.4209 -1.1904
 2598SOL    MW410392   2.525   3.032   4.120  0.2924 -0.5533  0.1775
 2599SOL     OW10393   2.493   3.596   4.233 -0.3496 -0.5419 -0.2986
 2599SOL    HW210394   2.503   3.674   4.178  0.6173  0.4843  1.2825
 2599SOL    HW310395   2.572   3.545   4.218  0.2269  0.0604  0.5885
 2599SOL    MW410396   2.504   3.600   4.224 -0.1460 -0.3270  0.0270
 2600SOL     OW10397   2.734   0.023   4.431 -0.2189  0.3979  0.4699
 2600SOL    HW210398   2.701   0.018   4.342  0.3808 -1.3632  0.3286
 2600SOL    HW310399   2.690  -0.049   4.477  0.8082  0.1819  1.1337
 2600SOL    MW410400   2.724   0.013   4.426 -0.0043  0.1370  0.5389
 2601SOL     OW10401   0.453   1.325   4.102  0.1058  0.2308 -0.0056
 2601SOL    HW210402   0.517   1.392   4.078  1.0814 -0.6281  0.1479
 2601SOL    HW310403   0.368   1.364   4.080  0.7570  0.8201 -1.5305
 2601SOL    MW410404   0.450   1.339   4.096  0.3204  0.1952 -0.1865
 2602SOL     OW10405   2.459   3.833   4.086 -0.1026  0.2200 -0.3417
 2602SOL    HW210406   2.537   3.883   4.111  1.5455 -1.4387 -1.9898
 2602SOL    HW310407   2.458   3.835   3.991 -0.6597 -1.8721 -0.4080
 2602SOL    MW410408   2.469   3.840   4.077  0.0413 -0.2748 -0.5679
 2603SOL     OW10409   2.263   4.005   4.180  0.2903 -0.0366  0.1578
 2603SOL    HW210410   2.337   3.948   4.160  0.4420  0.3180 -0.3005
 2603SOL    HW310411   2.186   3.954   4.157  0.3879 -0.3947  0.6072
 2603SOL    MW410412   2.263   3.991   4.175  0.3232 -0.0371  0.1567
 2604SOL     OW10413   2.281   4.260   4.098 -0.1899  0.3277 -0.3351
 2604SOL    HW210414   2.263   4.169   4.124  1.6522 -0.0209 -0.2107
 2604SOL    HW310415   2.228   4.313   4.157 -0.4214 -0.6363  0.3376
 2604SOL    MW410416   2.272   4.255   4.109  0.0226  0.1545 -0.2299
 2605SOL     OW10417   2.501   4.373   4.246  0.1461 -0.0866  0.1055
 2605SOL    HW210418   2.443   4.319   4.192  0.3999 -1.0090  0.7370
 2605SOL    HW310419   2.589   4.348   4.219  0.2621  1.0803 -0.6250
 2605SOL    MW410420   2.505   4.363   4.235  0.1949 -0.0543  0.0924
 2606SOL     OW10421   2.909   4.625   4.037 -0.2226  0.0460 -0.3751
 2606SOL    HW210422   2.983   4.676   4.070 -0.0592  0.1637 -0.9156
 2606SOL    HW310423   2.898   4.555   4.101  1.4484 -0.9842 -1.1870
 2606SOL    MW410424   2.918   4.623   4.050  0.0195 -0.0744 -0.5535
 2607SOL     OW10425   2.683   0.085   4.155  0.0752  0.4723  0.2071
 2607SOL    HW210426   2.753   0.043   4.105 -0.5788 -0.6971  0.2512
 2607SOL    HW310427   2.694   0.178   4.138  1.2948  0.2558 -0.2370
 2607SOL    MW410428   2.693   0.091   4.146  0.1498  0.2895  0.1543
 2608SOL     OW10429   2.717   0.333   4.076 -0.3753 -0.0278  0.1391
 2608SOL    HW210430   2.797   0.378   4.106 -0.2733 -0.1745  0.0854
 2608SOL    HW310431   2.717   0.346   3.981  0.8056 -2.0094 -0.1652
 2608SOL    MW410432   2.728   0.341   4.067 -0.2060 -0.3086  0.0918
 2609SOL     OW10433   2.924   0.484   4.196  0.0140 -0.2213 -0.0951
 2609SOL    HW210434   2.927   0.469   4.291  0.3382 -0.5492 -0.1601
 2609SOL    HW310435   2.897   0.576   4.188  1.1553  0.1534  0.3310
 2609SOL    MW410436   2.921   0.494   4.208  0.2074 -0.2151 -0.0475
 2610SOL     OW10437   2.880   0.752   4.153 -0.2472  0.4566 -0.0804
 2610SOL    HW210438   2.952   0.798   4.196 -0.3209  1.2857 -0.8326
 2610SOL    HW310439   2.902   0.756   4.060 -0.1766 -1.1563 -0.1473
 2610SOL    MW410440   2.892   0.758   4.146 -0.2476  0.3532 -0.1885
 2611SOL     OW10441   2.045   1.066   4.832  0.3916 -0.2124 -0.1352
 2611SOL    HW210442   2.009   1.155   4.825 -0.5758 -0.6082 -0.1573
 2611SOL    HW310443   2.104   1.058   4.758 -0.7841 -0.1764 -1.0831
 2611SOL    MW410444   2.048   1.077   4.822  0.1089 -0.2599 -0.2632
 2612SOL     OW10445   2.673   1.153   4.162  0.4864  0.1022  0.0891
 2612SOL    HW210446   2.663   1.059   4.182 -0.6499  0.0361 -0.7498
 2612SOL    HW310447   2.693   1.155   4.069 -0.0099  0.7218 -0.0054
 2612SOL    MW410448   2.674   1.141   4.152  0.2710  0.1753 -0.0340
 2613SOL     OW10449   2.894   1.295   4.266  0.2930 -0.7424 -0.2181
 2613SOL    HW210450   2.808   1.257   4.248  0.5524 -0.2783 -2.6367
 2613SOL    HW310451   2.956   1.238   4.220  0.9203  1.0460 -1.6777
 2613SOL    MW410452   2.891   1.282   4.258  0.4100 -0.4452 -0.7298
 2614SOL     OW10453   1.789   0.293   4.651  0.0416  0.2696  0.3138
 2614SOL    HW210454   1.823   0.255   4.732  0.3971  1.0641  0.5483
 2614SOL    HW310455   1.730   0.362   4.681 -0.0099  0.4063 -0.1068
 2614SOL    MW410456   1.786   0.297   4.666  0.0817  0.3925  0.2893
 2615SOL     OW10457   2.946   1.535   4.131 -0.2157  0.1050 -0.3067
 2615SOL    HW210458   2.939   1.461   4.192 -1.3531  1.3849  1.1560
 2615SOL    HW310459   3.022   1.584   4.163 -1.3207  1.2391  0.6245
 2615SOL    MW410460   2.955   1.532   4.143 -0.5116  0.4235  0.0092
 2616SOL     OW10461   2.744   1.924   4.110 -0.0075 -0.2584 -0.1249
 2616SOL    HW210462   2.758   1.844   4.160 -0.0826 -0.6598 -0.7355
 2616SOL    HW310463   2.767   1.901   4.020  0.9510  0.6927 -0.1391
 2616SOL    MW410464   2.749   1.911   4.104  0.1090 -0.1859 -0.2074
 2617SOL     OW10465   2.530   2.074   4.195 -0.0240  0.2152 -0.5417
 2617SOL    HW210466   2.601   2.025   4.155  0.3388  1.3549 -1.3004
 2617SOL    HW310467   2.451   2.028   4.168  0.3229 -0.0615 -1.0907
 2617SOL    MW410468   2.529   2.062   4.186  0.0696  0.3291 -0.7142
 2618SOL     OW10469   2.916   1.726   4.644  0.1820  0.3364 -0.0524
 2618SOL    HW210470   2.844   1.694   4.589 -0.3954  1.1670  0.2093
 2618SOL    HW310471   2.893   1.697   4.732  0.0726  0.7721  0.0612
 2618SOL    MW410472   2.903   1.718   4.648  0.0914  0.5034 -0.0029
 2619SOL     OW10473   3.530   2.531   4.531 -0.2761 -0.4560  0.4252
 2619SOL    HW210474   3.434   2.531   4.534 -0.2704 -0.7920  0.5889
 2619SOL    HW310475   3.555   2.441   4.551  0.0896 -0.2641  0.8367
 2619SOL    MW410476   3.520   2.519   4.534 -0.2271 -0.4750  0.5011
 2620SOL     OW10477   0.656   2.998   4.172 -0.1532  0.1161 -0.1987
 2620SOL    HW210478   0.723   3.063   4.190  0.9083 -1.0108 -0.0610
 2620SOL    HW310479   0.693   2.916   4.203 -1.7266 -0.4637  0.1780
 2620SOL    MW410480   0.669   2.996   4.178 -0.2208 -0.1091 -0.1308
 2621SOL     OW10481   2.941   3.118   4.123  0.1904 -0.2189  0.5615
 2621SOL    HW210482   2.943   3.045   4.186  0.6741  0.8242  1.7698
 2621SOL    HW310483   2.857   3.160   4.140  1.2060  1.2994  1.9551
 2621SOL    MW410484   2.930   3.114   4.134  0.3882  0.1191  0.9048
 2622SOL     OW10485   2.706   3.219   4.241  0.0649 -0.1595 -0.3644
 2622SOL    HW210486   2.634   3.174   4.197  1.4155 -2.0913 -0.6662
 2622SOL    HW310487   2.688   3.207   4.335 -0.2605 -0.2068 -0.4317
 2622SOL    MW410488   2.694   3.212   4.248  0.2001 -0.4206 -0.4131
 2623SOL     OW10489   2.720   3.469   4.129 -0.1747 -0.0699  0.7362
 2623SOL    HW210490   2.719   3.385   4.173  1.6877 -0.8481 -0.6552
 2623SOL    HW310491   2.707   3.448   4.036 -1.5728  1.3386  0.5847
 2623SOL    MW410492   2.718   3.456   4.122 -0.1134  0.0133  0.5326
 2624SOL     OW10493   2.940   3.617   4.222  0.1619 -0.4067  0.2071
 2624SOL    HW210494   2.870   3.556   4.197 -0.6730  0.5696  0.0965
 2624SOL    HW310495   2.914   3.647   4.310  0.2433  0.2435  0.0094
 2624SOL    MW410496   2.927   3.613   4.231  0.0625 -0.1921  0.1664
 2625SOL     OW10497   3.993   0.372   4.126 -0.2836  0.0875 -0.1317
 2625SOL    HW210498   4.078   0.411   4.144  0.2722 -2.0004  2.0267
 2625SOL    HW310499   3.931   0.425   4.176  0.0320  0.3052  0.0294
 2625SOL    MW410500   3.996   0.384   4.135 -0.1687 -0.1593  0.1743
 2626SOL     OW10501   2.956   3.863   4.114  0.4063  0.2406  0.5622
 2626SOL    HW210502   2.880   3.915   4.141 -0.6299  0.2836 -2.2277
 2626SOL    HW310503   2.938   3.776   4.148 -1.8760 -0.2149 -1.6504
 2626SOL    MW410504   2.943   3.859   4.122 -0.0315  0.1862 -0.0978
 2627SOL     OW10505   2.693   3.967   4.177 -0.1420 -0.3303  0.0883
 2627SOL    HW210506   2.649   3.966   4.262 -0.7370  2.0379 -0.1536
 2627SOL    HW310507   2.694   4.059   4.151  1.0920 -0.8683 -1.9361
 2627SOL    MW410508   2.687   3.979   4.185 -0.0577 -0.0888 -0.2107
 2628SOL     OW10509   2.715   4.248   4.123  0.0134  0.0973  0.1713
 2628SOL    HW210510   2.702   4.290   4.038 -0.9134 -1.8369 -0.6632
 2628SOL    HW310511   2.797   4.286   4.156  1.6144 -0.7847 -2.6168
 2628SOL    MW410512   2.724   4.259   4.116  0.1024 -0.2742 -0.3067
 2629SOL     OW10513   3.073   4.549   4.512  0.1852 -0.2472 -0.4522
 2629SOL    HW210514   3.043   4.634   4.480  0.7230 -0.6578 -2.1117
 2629SOL    HW310515   3.168   4.558   4.519  0.2046 -0.5932 -0.2962
 2629SOL    MW410516   3.082   4.561   4.508  0.2587 -0.3470 -0.6506
 2630SOL     OW10517   2.220   3.688   4.404 -0.0223  0.5167  0.4352
 2630SOL    HW210518   2.285   3.630   4.443 -0.1464 -0.3032 -0.5559
 2630SOL    HW310519   2.170   3.632   4.346  0.5896  1.8552 -1.4232
 2630SOL    MW410520   2.222   3.673   4.402  0.0420  0.5851  0.0592
 2631SOL     OW10521   3.719   1.140   4.842  0.5199  0.2016  0.0694
 2631SOL    HW210522   3.760   1.227   4.845  0.3251  0.2703  0.9346
 2631SOL    HW310523   3.641   1.148   4.896 -0.1131 -0.2105 -0.7693
 2631SOL    MW410524   3.714   1.153   4.849  0.4107  0.1563  0.0729
 2632SOL     OW10525   3.154   0.347   4.103 -0.1808  0.1212 -0.3810
 2632SOL    HW210526   3.083   0.400   4.141 -0.2619 -1.3135  1.5511
 2632SOL    HW310527   3.234   0.386   4.137 -0.1170  0.5418 -0.9996
 2632SOL    MW410528   3.155   0.359   4.112 -0.1831 -0.0126 -0.2077
 2633SOL     OW10529   2.966   0.398   4.479 -0.1395  0.2666 -0.3691
 2633SOL    HW210530   3.015   0.391   4.560 -0.4517  0.1125 -0.1939
 2633SOL    HW310531   2.892   0.454   4.500 -0.8854 -0.7452 -0.2238
 2633SOL    MW410532   2.963   0.404   4.492 -0.2791  0.1128 -0.3268
 2634SOL     OW10533   3.312   0.768   4.136 -0.3314  0.1566  0.5662
 2634SOL    HW210534   3.393   0.814   4.157 -0.0620 -0.1679  0.2430
 2634SOL    HW310535   3.335   0.675   4.139 -0.9233  0.0389  1.4041
 2634SOL    MW410536   3.325   0.762   4.139 -0.3739  0.0983  0.6341
 2635SOL     OW10537   3.092   0.897   4.250 -0.0199  0.0249  0.4113
 2635SOL    HW210538   3.154   0.845   4.199 -1.0327 -1.0951  0.3087
 2635SOL    HW310539   3.093   0.983   4.209 -0.6640 -0.8091 -1.3810
 2635SOL    MW410540   3.100   0.902   4.238 -0.2385 -0.2329  0.1613
 2636SOL     OW10541   3.105   1.146   4.146  0.4472 -0.4344  0.3580
 2636SOL    HW210542   3.182   1.196   4.171  0.2424  0.2520 -0.3614
 2636SOL    HW310543   3.102   1.152   4.050 -0.8166  0.0177  0.4160
 2636SOL    MW410544   3.115   1.153   4.136  0.2534 -0.2842  0.2707
 2637SOL     OW10545   3.317   1.282   4.221  0.0097 -0.4071  0.2688
 2637SOL    HW210546   3.339   1.369   4.189  0.9254 -0.7487 -0.0641
 2637SOL    HW310547   3.401   1.236   4.224 -0.5032 -1.3746  0.1329
 2637SOL    MW410548   3.331   1.287   4.217  0.0628 -0.5798  0.2069
 2638SOL     OW10549   3.380   1.538   4.109  0.1715  0.8955  0.1757
 2638SOL    HW210550   3.383   1.530   4.014 -0.1719 -1.3474  0.3203
 2638SOL    HW310551   3.462   1.582   4.132  0.4091  1.1653 -1.1266
 2638SOL    MW410552   3.391   1.543   4.099  0.1576  0.6352  0.0229
 2639SOL     OW10553   3.165   1.678   4.212  0.1682  0.1329 -0.1286
 2639SOL    HW210554   3.243   1.640   4.172 -0.1343  0.5782 -1.1683
 2639SOL    HW310555   3.189   1.690   4.304  1.3500  0.3169 -0.4443
 2639SOL    MW410556   3.179   1.675   4.219  0.2842  0.2159 -0.3074
 2640SOL     OW10557   2.850   2.388   4.254 -0.1956  0.0578 -0.4061
 2640SOL    HW210558   2.883   2.318   4.197  0.6611  0.1236  0.0035
 2640SOL    HW310559   2.929   2.435   4.282 -0.7100  0.7369 -0.0926
 2640SOL    MW410560   2.865   2.385   4.250 -0.1504  0.1561 -0.3107
 2641SOL     OW10561   3.182   2.425   4.789 -0.5796  0.2957 -0.0693
 2641SOL    HW210562   3.206   2.465   4.705  1.7396 -1.2215 -0.1683
 2641SOL    HW310563   3.253   2.449   4.848 -1.0428 -0.5873  0.8536
 2641SOL    MW410564   3.194   2.434   4.785 -0.3347 -0.0210  0.0394
 2642SOL     OW10565   3.303   2.376   4.166 -0.2106  0.6074  0.6212
 2642SOL    HW210566   3.319   2.373   4.072 -0.2676  1.3409  0.5908
 2642SOL    HW310567   3.382   2.416   4.203  0.2077 -0.5201  0.9816
 2642SOL    MW410568   3.315   2.381   4.159 -0.1629  0.5554  0.6648
 2643SOL     OW10569   2.710   2.262   4.496  0.0451  0.2595  0.3108
 2643SOL    HW210570   2.760   2.292   4.420  0.8987 -1.3731  0.2169
 2643SOL    HW310571   2.685   2.343   4.541  0.6892  1.1878 -0.9569
 2643SOL    MW410572   2.713   2.277   4.492  0.2427  0.1666  0.1312
 2644SOL     OW10573   3.137   2.720   4.149 -0.4143 -0.0003 -0.4032
 2644SOL    HW210574   3.157   2.675   4.066  1.9806 -0.1688  0.2382
 2644SOL    HW310575   3.208   2.783   4.160 -0.9116  0.2830  1.3452
 2644SOL    MW410576   3.149   2.722   4.139 -0.1639  0.0149 -0.0879
 2645SOL     OW10577   2.359   2.162   4.895  0.5161 -0.2766 -0.2477
 2645SOL    HW210578   2.402   2.079   4.915  1.9470  0.4184 -0.3675
 2645SOL    HW310579   2.363   2.168   4.799  1.0306  0.2432 -0.1975
 2645SOL    MW410580   2.365   2.152   4.885  0.7728 -0.1163 -0.2569
 2646SOL     OW10581   3.461   2.029   4.445 -0.2764  0.5606  0.5513
 2646SOL    HW210582   3.380   1.995   4.485  0.0590 -0.2257  0.5652
 2646SOL    HW310583   3.531   1.976   4.483  0.2958  1.5151  0.8535
 2646SOL    MW410584   3.459   2.018   4.455 -0.1566  0.5828  0.5930
 2647SOL     OW10585   2.669   2.792   4.128  0.2587 -0.1995  0.2223
 2647SOL    HW210586   2.755   2.800   4.170  0.2853 -0.3747  0.1979
 2647SOL    HW310587   2.634   2.709   4.160  0.9686 -1.1305 -1.3602
 2647SOL    MW410588   2.676   2.782   4.138  0.3558 -0.3454  0.0103
 2648SOL     OW10589   3.169   3.497   4.115 -0.0508 -0.0155  0.0409
 2648SOL    HW210590   3.098   3.547   4.155  0.9234  0.7484  0.8382
 2648SOL    HW310591   3.156   3.509   4.020 -0.2125  1.2321  0.2118
 2648SOL    MW410592   3.158   3.505   4.108  0.0564  0.2499  0.1687
 2649SOL     OW10593   3.405   3.622   4.190  0.1198 -0.1045  0.1476
 2649SOL    HW210594   3.403   3.638   4.284 -0.2844 -0.6811  0.2378
 2649SOL    HW310595   3.327   3.570   4.172 -0.3585  0.8793 -0.6710
 2649SOL    MW410596   3.394   3.617   4.200  0.0033 -0.0508  0.0515
 2650SOL     OW10597   3.588   4.011   4.273  0.2733 -0.2097  0.2152
 2650SOL    HW210598   3.516   3.961   4.235 -0.7522 -0.0564  1.9198
 2650SOL    HW310599   3.582   3.994   4.367  1.4232  1.1606  0.5440
 2650SOL    MW410600   3.577   4.002   4.281  0.2897 -0.0087  0.4835
 2651SOL     OW10601   3.181   4.008   4.228 -0.3367  0.4320  0.1971
 2651SOL    HW210602   3.258   3.955   4.208 -1.1121 -1.5535  2.1580
 2651SOL    HW310603   3.111   3.969   4.176 -0.6484  0.2910  0.7148
 2651SOL    MW410604   3.182   3.996   4.219 -0.4802  0.1514  0.5241
 2652SOL     OW10605   3.730   4.449   4.496 -0.1371  0.4693 -0.3384
 2652SOL    HW210606   3.687   4.532   4.474 -0.4362  0.1261 -1.0653
 2652SOL    HW310607   3.760   4.415   4.412 -1.2503 -0.8423 -0.2208
 2652SOL    MW410608   3.729   4.455   4.482 -0.3234  0.2509 -0.4188
 2653SOL     OW10609   3.311   4.404   4.280 -0.3998 -0.1544 -0.1307
 2653SOL    HW210610   3.317   4.487   4.233  1.3100 -0.9143 -1.3201
 2653SOL    HW310611   3.341   4.424   4.368 -0.9834  0.7091 -0.1261
 2653SOL    MW410612   3.316   4.418   4.285 -0.2512 -0.1407 -0.2870
 2654SOL     OW10613   3.021   3.305   4.680  0.0649 -0.2028 -0.2793
 2654SOL    HW210614   2.953   3.238   4.691  0.0294 -0.1240 -0.0116
 2654SOL    HW310615   3.094   3.274   4.735 -0.1364  0.2288  0.2304
 2654SOL    MW410616   3.022   3.292   4.689  0.0336 -0.1354 -0.1768
 2655SOL     OW10617   2.870   1.280   4.742  0.0154  0.0189  0.1910
 2655SOL    HW210618   2.947   1.313   4.788  0.8055  0.0462 -1.1142
 2655SOL    HW310619   2.890   1.188   4.724  0.1182  0.2446 -0.8977
 2655SOL    MW410620   2.882   1.272   4.746  0.1332  0.0523 -0.1248
 2656SOL     OW10621   3.616   0.358   4.153 -0.1830  0.0147  0.4871
 2656SOL    HW210622   3.686   0.403   4.201  0.0674 -0.3849  0.5074
 2656SOL    HW310623   3.612   0.403   4.069  0.2836 -0.1221  0.3863
 2656SOL    MW410624   3.625   0.370   4.148 -0.0884 -0.0561  0.4765
 2657SOL     OW10625   3.794   0.494   4.302  0.4629 -0.1860  0.1770
 2657SOL    HW210626   3.754   0.489   4.389 -0.2195  0.8229 -0.0732
 2657SOL    HW310627   3.793   0.587   4.280  1.8934 -0.2840 -0.3373
 2657SOL    MW410628   3.789   0.506   4.311  0.5616 -0.0658  0.0761
 2658SOL     OW10629   2.514   1.799   4.635 -0.2084  0.2473 -0.2300
 2658SOL    HW210630   2.575   1.746   4.585 -1.4354 -0.6870 -0.7694
 2658SOL    HW310631   2.529   1.888   4.605  1.6313  0.1740  0.4320
 2658SOL    MW410632   2.524   1.804   4.624 -0.1275  0.1144 -0.2138
 2659SOL     OW10633   3.828   1.302   4.206 -0.2995  0.2454  0.3629
 2659SOL    HW210634   3.891   1.245   4.161 -2.1847 -1.0671 -0.7082
 2659SOL    HW310635   3.834   1.276   4.298 -0.0245 -0.5872  0.1140
 2659SOL    MW410636   3.837   1.291   4.212 -0.5119 -0.0376  0.1888
 2660SOL     OW10637   0.070   0.371   4.438 -0.1039  0.3425 -0.0887
 2660SOL    HW210638   0.098   0.462   4.445  0.8842  0.0862 -0.5439
 2660SOL    HW310639   0.059   0.341   4.529  2.5447  0.0347  0.1709
 2660SOL    MW410640   0.072   0.379   4.451  0.3759  0.2681 -0.1145
 2661SOL     OW10641   3.686   0.530   4.562 -0.4451  0.1962  0.3302
 2661SOL    HW210642   3.600   0.571   4.574 -0.4408  1.1091 -2.5309
 2661SOL    HW310643   3.744   0.583   4.616 -1.5386  0.0023  1.7338
 2661SOL    MW410644   3.682   0.543   4.571 -0.5888  0.2911  0.1379
 2662SOL     OW10645   3.852   1.556   4.103 -0.2600 -0.2267  0.2255
 2662SOL    HW210646   3.837   1.474   4.150  0.3693  0.5144  1.7253
 2662SOL    HW310647   3.772   1.607   4.118 -1.0851 -0.9282 -1.5465
 2662SOL    MW410648   3.839   1.552   4.111 -0.2858 -0.2215  0.1896
 2663SOL     OW10649   3.677   1.683   4.467 -0.5510 -0.2184  0.1798
 2663SOL    HW210650   3.596   1.676   4.517 -1.0236  0.5571 -0.4578
 2663SOL    HW310651   3.736   1.620   4.507 -1.4404 -0.7166  0.7106
 2663SOL    MW410652   3.674   1.674   4.479 -0.7307 -0.1818  0.1657
 2664SOL     OW10653   3.397   2.108   4.184  0.5303  0.3153 -0.2422
 2664SOL    HW210654   3.414   2.103   4.278 -0.0159  0.7929 -0.1143
 2664SOL    HW310655   3.378   2.200   4.167 -1.8290 -0.1437 -0.3621
 2664SOL    MW410656   3.397   2.119   4.194  0.1469  0.3177 -0.2411
 2665SOL     OW10657   2.649   3.862   4.704 -0.0066  1.0073 -0.3691
 2665SOL    HW210658   2.602   3.866   4.621 -1.1745 -0.4234  0.1855
 2665SOL    HW310659   2.733   3.904   4.687 -0.9316  2.3023 -1.7818
 2665SOL    MW410660   2.654   3.868   4.691 -0.2827  0.9894 -0.4823
 2666SOL     OW10661   3.733   1.963   4.494 -0.3983  0.3353  0.2736
 2666SOL    HW210662   3.734   1.867   4.491  0.4394  0.2936  1.3266
 2666SOL    HW310663   3.776   1.990   4.413 -1.7504 -0.1561 -0.6116
 2666SOL    MW410664   3.739   1.954   4.483 -0.4661  0.2650  0.2957
 2667SOL     OW10665   1.262   1.082   4.551  0.5030 -0.1156  0.1326
 2667SOL    HW210666   1.321   1.017   4.513 -1.1399 -1.4502 -0.2063
 2667SOL    HW310667   1.302   1.106   4.634  1.0379 -1.7399  0.3638
 2667SOL    MW410668   1.275   1.077   4.557  0.3568 -0.5060  0.1184
 2668SOL     OW10669   2.231   1.049   4.611  0.1800  0.1966  0.2765
 2668SOL    HW210670   2.196   0.969   4.572  1.6134 -0.1469 -0.3488
 2668SOL    HW310671   2.179   1.119   4.572 -0.6007 -0.3781  0.2719
 2668SOL    MW410672   2.220   1.048   4.600  0.2661  0.0755  0.1934
 2669SOL     OW10673   0.857   3.955   4.695 -0.2145 -0.1381  0.1549
 2669SOL    HW210674   0.902   3.871   4.696 -0.4486 -0.2787 -1.1547
 2669SOL    HW310675   0.880   3.994   4.611 -0.6122  0.8357  0.4908
 2669SOL    MW410676   0.866   3.949   4.684 -0.2979 -0.0281  0.0265
 2670SOL     OW10677   1.085   2.856   4.505 -0.0886 -0.3355  0.3005
 2670SOL    HW210678   1.129   2.794   4.563  0.1546 -2.1908 -1.8090
 2670SOL    HW310679   1.005   2.811   4.478 -0.3391  0.6162 -0.5944
 2670SOL    MW410680   1.080   2.842   4.509 -0.0896 -0.4547 -0.0959
 2671SOL     OW10681   2.680   3.218   4.522 -0.4389  0.0110  0.4010
 2671SOL    HW210682   2.719   3.296   4.561 -1.0166  0.3503  0.2990
 2671SOL    HW310683   2.711   3.146   4.576  0.8585  0.2079 -0.0621
 2671SOL    MW410684   2.689   3.219   4.534 -0.3439  0.0817  0.3264
 2672SOL     OW10685   3.630   3.471   4.133 -0.3872  0.6085  0.4069
 2672SOL    HW210686   3.552   3.518   4.161 -0.3207  1.6905 -1.1641
 2672SOL    HW310687   3.703   3.523   4.165 -0.3100  0.7616 -0.0192
 2672SOL    MW410688   3.629   3.484   4.141 -0.3683  0.7715  0.1434
 2673SOL     OW10689   0.002   3.957   4.214  0.1652  0.6604  0.1656
 2673SOL    HW210690  -0.085   3.927   4.186  0.4309  1.0710 -1.1527
 2673SOL    HW310691   0.002   3.946   4.309 -1.3436  0.7046  0.1800
 2673SOL    MW410692  -0.009   3.951   4.222  0.0012  0.7204 -0.0064
 2674SOL     OW10693   3.787   3.869   4.112  0.4344  0.3438  0.5699
 2674SOL    HW210694   3.811   3.783   4.146  1.1011 -0.2845 -1.4722
 2674SOL    HW310695   3.716   3.898   4.170  0.1989 -1.5560  1.2705
 2674SOL    MW410696   3.781   3.862   4.124  0.4913  0.0103  0.3929
 2675SOL     OW10697   1.416   2.678   4.761  0.1565  0.1008 -0.0787
 2675SOL    HW210698   1.449   2.596   4.796  0.0153  0.7497  1.6367
 2675SOL    HW310699   1.495   2.729   4.742  0.2623 -0.7330 -1.9215
 2675SOL    MW410700   1.431   2.674   4.764  0.1518  0.0764 -0.0955
 2676SOL     OW10701   3.571   0.102   4.244  0.2833  0.0271  0.3115
 2676SOL    HW210702   3.657   0.073   4.214 -0.5067 -1.6372 -0.3835
 2676SOL    HW310703   3.570   0.196   4.225  0.7359 -0.5086 -2.6533
 2676SOL    MW410704   3.582   0.110   4.238  0.2388 -0.2632 -0.1713
 2677SOL     OW10705   3.807   4.359   4.233  0.6602 -0.0011 -0.2709
 2677SOL    HW210706   3.812   4.436   4.177  1.6825  0.3224  0.2406
 2677SOL    HW310707   3.728   4.313   4.206  0.9266  0.3721 -1.6806
 2677SOL    MW410708   3.797   4.363   4.222  0.8302  0.0908 -0.3894
 2678SOL     OW10709   4.029   4.257   4.123 -0.0728  0.2995  0.4927
 2678SOL    HW210710   3.960   4.288   4.182  0.3524  1.8898  0.1787
 2678SOL    HW310711   4.056   4.173   4.159 -0.8484  0.5659  1.7199
 2678SOL    MW410712   4.023   4.250   4.136 -0.1190  0.5445  0.6132
 2679SOL     OW10713   3.457   0.645   4.630 -0.1546  0.1291  0.2542
 2679SOL    HW210714   3.470   0.734   4.597 -0.8426  0.7922  1.7277
 2679SOL    HW310715   3.418   0.657   4.716 -1.0977 -1.6312  0.0863
 2679SOL    MW410716   3.454   0.658   4.637 -0.3698 -0.0156  0.4265
 2680SOL     OW10717   3.501   4.304   4.683  0.0807 -0.1716  0.0915
 2680SOL    HW210718   3.463   4.370   4.625  0.8448  0.8545  0.7507
 2680SOL    HW310719   3.592   4.298   4.657  0.3825  0.1507  1.0551
 2680SOL    MW410720   3.508   4.312   4.672  0.2214  0.0063  0.3056
 2681SOL     OW10721   3.816   4.627   4.097  0.5721 -0.1715 -0.5076
 2681SOL    HW210722   3.817   4.640   4.002  1.1811  2.3909 -0.1876
 2681SOL    HW310723   3.892   4.676   4.128 -1.0195  1.0207  1.5591
 2681SOL    MW410724   3.826   4.635   4.088  0.4424  0.3239 -0.1927
 2682SOL     OW10725   0.483   0.047   4.132 -0.4833 -0.8136  0.0360
 2682SOL    HW210726   0.388   0.041   4.122 -0.4304  0.0234 -0.9840
 2682SOL    HW310727   0.505  -0.024   4.192 -1.7162 -1.2119  0.0253
 2682SOL    MW410728   0.473   0.037   4.138 -0.6390 -0.7557 -0.1000
 2683SOL     OW10729   3.543   0.884   4.230  0.0242 -0.0544  0.0354
 2683SOL    HW210730   3.549   0.974   4.196  2.1717 -0.2133 -0.1243
 2683SOL    HW310731   3.521   0.895   4.322  0.3643  0.6541  0.0399
 2683SOL    MW410732   3.541   0.897   4.237  0.3524  0.0181  0.0149
 2684SOL     OW10733   4.275   0.777   4.162 -0.3188 -0.2345 -0.1122
 2684SOL    HW210734   4.268   0.787   4.067  2.0549 -1.3607 -0.4229
 2684SOL    HW310735   4.190   0.807   4.195 -1.3115 -0.1770 -2.6072
 2684SOL    MW410736   4.263   0.782   4.154 -0.1366 -0.3755 -0.4824
 2685SOL     OW10737   0.192   1.407   4.070 -0.1873  0.1286 -0.0232
 2685SOL    HW210738   0.132   1.334   4.081 -0.3674 -0.1495 -2.5356
 2685SOL    HW310739   0.154   1.477   4.123 -0.9006 -1.0823  1.0940
 2685SOL    MW410740   0.179   1.407   4.078 -0.3052 -0.0678 -0.2073
 2686SOL     OW10741   0.946   1.697   3.715 -0.3332  0.1964 -0.3085
 2686SOL    HW210742   1.024   1.642   3.725 -0.9994 -0.6682  0.3298
 2686SOL    HW310743   0.922   1.690   3.623 -0.8436 -1.2186 -0.0837
 2686SOL    MW410744   0.953   1.689   3.704 -0.4885 -0.1043 -0.1946
 2687SOL     OW10745   2.405   2.577   4.473 -0.3973 -0.7827  0.4901
 2687SOL    HW210746   2.486   2.578   4.422 -0.8167 -1.3679 -0.1982
 2687SOL    HW310747   2.353   2.649   4.436 -0.0509 -0.1715  1.1752
 2687SOL    MW410748   2.409   2.587   4.461 -0.4069 -0.7792  0.4897
 2688SOL     OW10749   4.334   2.064   4.190  0.4043  0.3652 -0.4953
 2688SOL    HW210750   4.251   2.019   4.171  0.5949  0.4974 -1.6660
 2688SOL    HW310751   4.313   2.157   4.179  0.3460  0.5025  0.6504
 2688SOL    MW410752   4.320   2.071   4.186  0.4217  0.4008 -0.4986
 2689SOL     OW10753   4.295   0.906   4.571  0.2163  0.3162  0.1071
 2689SOL    HW210754   4.353   0.891   4.496 -0.6143  1.9961 -0.9055
 2689SOL    HW310755   4.254   0.991   4.553 -0.9443  0.1503  1.8535
 2689SOL    MW410756   4.297   0.915   4.559 -0.0464  0.5159  0.2039
 2690SOL     OW10757   3.815   2.331   4.182 -0.1996 -0.0329  0.4088
 2690SOL    HW210758   3.887   2.391   4.203 -0.3392 -0.1178  1.1406
 2690SOL    HW310759   3.812   2.330   4.086  1.3502 -0.6977  0.3410
 2690SOL    MW410760   3.824   2.339   4.172 -0.0136 -0.1318  0.4964
 2691SOL     OW10761   3.582   2.739   4.154 -0.0981 -0.3465 -0.0245
 2691SOL    HW210762   3.613   2.737   4.063 -1.3940  0.8854 -0.5158
 2691SOL    HW310763   3.583   2.648   4.182  0.3135 -0.7371 -1.2806
 2691SOL    MW410764   3.586   2.727   4.145 -0.2148 -0.2355 -0.2551
 2692SOL     OW10765   4.026   2.484   4.258 -0.1590  0.1517  0.0491
 2692SOL    HW210766   4.030   2.500   4.352 -0.7364 -1.2752  0.3298
 2692SOL    HW310767   4.054   2.566   4.218 -1.3233  1.2434  1.4392
 2692SOL    MW410768   4.030   2.497   4.265 -0.3888  0.1075  0.2696
 2693SOL     OW10769   0.948   1.871   4.156 -0.0648  0.3898  0.1849
 2693SOL    HW210770   0.935   1.888   4.063  0.6389 -0.1077 -0.0133
 2693SOL    HW310771   1.031   1.915   4.177 -0.9047  1.6721  0.9051
 2693SOL    MW410772   0.958   1.879   4.147 -0.0827  0.4933  0.2538
 2694SOL     OW10773   2.875   3.938   4.568 -0.0433  0.3921 -0.0511
 2694SOL    HW210774   2.818   3.994   4.515 -0.8980 -1.8217 -1.5684
 2694SOL    HW310775   2.963   3.973   4.554 -0.7315  2.3436  0.3519
 2694SOL    MW410776   2.879   3.950   4.559 -0.2469  0.3574 -0.1981
 2695SOL     OW10777   4.072   2.728   4.135  0.2244 -0.0781 -0.0079
 2695SOL    HW210778   3.980   2.755   4.126 -0.0906 -1.8608 -2.9898
 2695SOL    HW310779   4.121   2.809   4.137 -1.4821  0.9512  2.9485
 2695SOL    MW410780   4.066   2.742   4.134 -0.0423 -0.1775 -0.0113
 2696SOL     OW10781   2.479   0.435   4.478  0.0533 -0.3489  0.6095
 2696SOL    HW210782   2.470   0.431   4.383  1.0953  0.0866  0.4944
 2696SOL    HW310783   2.512   0.348   4.502 -0.4988 -0.5638  0.6167
 2696SOL    MW410784   2.482   0.423   4.469  0.1179 -0.3198  0.5953
 2697SOL     OW10785   4.072   3.498   3.910  0.4518 -0.2450  0.3499
 2697SOL    HW210786   4.071   3.413   3.868  1.8745  0.4081 -1.0464
 2697SOL    HW310787   3.990   3.540   3.883  0.3263 -0.6889  0.0512
 2697SOL    MW410788   4.061   3.492   3.901  0.6230 -0.2174  0.1263
 2698SOL     OW10789   1.106   2.983   4.824  0.0239 -0.3212 -0.2127
 2698SOL    HW210790   1.057   3.020   4.751 -1.2231 -2.9211 -0.7718
 2698SOL    HW310791   1.054   3.006   4.902  0.3404  0.8083 -0.3275
 2698SOL    MW410792   1.092   2.991   4.825 -0.0988 -0.5152 -0.3016
 2699SOL     OW10793   4.025   4.008   4.240  0.1517  0.6151 -0.2318
 2699SOL    HW210794   4.097   3.956   4.203 -1.1968 -1.2747 -0.2218
 2699SOL    HW310795   3.948   3.981   4.190 -1.0730  0.5510  1.6523
 2699SOL    MW410796   4.024   3.998   4.228 -0.1878  0.3573  0.0181
 2700SOL     OW10797   4.273   4.391   4.246  0.6979 -0.1204 -0.3197
 2700SOL    HW210798   4.184   4.370   4.216  0.2961  1.4147 -0.2418
 2700SOL    HW310799   4.329   4.332   4.197 -0.4098 -1.5598  0.0908
 2700SOL    MW410800   4.269   4.380   4.236  0.4987 -0.1077 -0.2552
 2701SOL     OW10801   3.321   2.738   4.942 -0.4380  0.3668  0.0756
 2701SOL    HW210802   3.355   2.652   4.967  0.2372  0.3460 -0.8902
 2701SOL    HW310803   3.242   2.749   4.995 -1.2150 -1.3784 -0.7027
 2701SOL    MW410804   3.315   2.728   4.953 -0.4514  0.1338 -0.1545
 2702SOL     OW10805   4.422   2.810   4.161  0.1389 -0.2781 -0.0659
 2702SOL    HW210806   4.350   2.873   4.161  0.2331 -0.1605 -1.5138
 2702SOL    HW310807   4.499   2.862   4.180  0.0154 -0.2209  0.3011
 2702SOL    MW410808   4.422   2.825   4.164  0.1351 -0.2550 -0.2085
 2703SOL     OW10809   4.247   0.485   4.124  0.4396 -0.0386 -0.2017
 2703SOL    HW210810   4.263   0.580   4.128  0.2531  0.0493 -1.4319
 2703SOL    HW310811   4.324   0.449   4.080  1.6494 -0.7774  2.3834
 2703SOL    MW410812   4.260   0.493   4.119  0.5746 -0.1245 -0.0229
 2704SOL     OW10813   4.398   4.297   4.482 -0.6303  0.1133 -0.0605
 2704SOL    HW210814   4.338   4.320   4.410 -1.4499 -0.6287  0.3705
 2704SOL    HW310815   4.467   4.362   4.477  0.1494 -0.8340 -2.5049
 2704SOL    MW410816   4.399   4.308   4.472 -0.6355 -0.1096 -0.3262
 2705SOL     OW10817   2.504   0.136   4.845  0.2900  0.3437  0.0660
 2705SOL    HW210818   2.530   0.179   4.763 -1.0101  0.9856 -0.0275
 2705SOL    HW310819   2.585   0.099   4.879  0.8767  0.1717 -1.4541
 2705SOL    MW410820   2.518   0.137   4.839  0.1958  0.4057 -0.1469
 2706SOL     OW10821   3.617   3.911   4.537 -0.4792  0.2361 -0.1918
 2706SOL    HW210822   3.710   3.934   4.540 -0.5772  0.7180 -0.7183
 2706SOL    HW310823   3.614   3.821   4.568  0.4938 -0.7552 -2.8352
 2706SOL    MW410824   3.629   3.902   4.542 -0.3638  0.1689 -0.6100
 2707SOL     OW10825   1.517   0.633   4.463 -0.0278  0.0751  0.0360
 2707SOL    HW210826   1.586   0.654   4.525 -0.0899  2.9200 -0.7739
 2707SOL    HW310827   1.437   0.625   4.516  0.2945  0.3451  0.5632
 2707SOL    MW410828   1.515   0.635   4.478  0.0065  0.4861 -0.0013
 2708SOL     OW10829   0.913   2.574   4.048 -0.2838 -0.3871  0.5445
 2708SOL    HW210830   1.003   2.604   4.065 -0.3016  0.3676 -0.6263
 2708SOL    HW310831   0.858   2.627   4.105 -0.0207 -0.5620  0.9624
 2708SOL    MW410832   0.918   2.585   4.058 -0.2514 -0.3106  0.4451
 2709SOL     OW10833   1.576   3.817   4.123 -0.6722  0.5906  0.0245
 2709SOL    HW210834   1.510   3.842   4.187 -0.0834 -0.0582  0.8973
 2709SOL    HW310835   1.651   3.873   4.142 -0.1877 -0.1955  0.4740
 2709SOL    MW410836   1.577   3.827   4.134 -0.5306  0.4013  0.1990
 2710SOL     OW10837   1.009   1.157   4.406 -0.6881 -0.7924  0.4797
 2710SOL    HW210838   1.076   1.119   4.463 -0.2554 -0.5669  0.1233
 2710SOL    HW310839   0.982   1.085   4.349 -0.5411 -0.8058  0.4273
 2710SOL    MW410840   1.014   1.142   4.406 -0.6116 -0.7644  0.4258
 2711SOL     OW10841   2.049   3.001   4.891  0.2075  0.3555  0.0697
 2711SOL    HW210842   2.090   3.017   4.806  0.0986  0.2148 -0.0103
 2711SOL    HW310843   2.103   2.933   4.931 -0.2237 -0.1700 -0.2339
 2711SOL    MW410844   2.062   2.994   4.885  0.1362  0.2676  0.0191
 2712SOL     OW10845   2.604   3.594   4.820  0.1875  0.1739  0.5919
 2712SOL    HW210846   2.628   3.686   4.816 -0.4381  0.3018 -0.2967
 2712SOL    HW310847   2.681   3.548   4.786 -0.0482  0.4554 -0.3232
 2712SOL    MW410848   2.617   3.600   4.815  0.0739  0.2279  0.3539
 2713SOL     OW10849   4.220   4.320   4.685  0.0018  0.1279 -0.1151
 2713SOL    HW210850   4.210   4.415   4.692  0.0274  0.2383 -1.5545
 2713SOL    HW310851   4.289   4.307   4.620 -0.6679 -0.8875 -0.6362
 2713SOL    MW410852   4.228   4.331   4.677 -0.0832  0.0085 -0.3737
 2714SOL     OW10853   4.063   1.138   4.132  0.1941 -0.0335 -0.1431
 2714SOL    HW210854   4.139   1.186   4.163 -0.3107  0.2629  0.6444
 2714SOL    HW310855   4.064   1.056   4.182  0.8061 -0.6720 -1.1696
 2714SOL    MW410856   4.073   1.134   4.142  0.2083 -0.0786 -0.1746
 2715SOL     OW10857   2.931   2.138   4.139 -0.0808 -0.2871  0.3400
 2715SOL    HW210858   2.856   2.079   4.131 -0.5340  0.5590 -1.7210
 2715SOL    HW310859   3.007   2.080   4.137 -0.5417 -0.8572 -1.1781
 2715SOL    MW410860   2.931   2.123   4.138 -0.2014 -0.2507 -0.1322
 2716SOL     OW10861   3.875   3.967   4.475  0.5569  0.3782  0.3687
 2716SOL    HW210862   3.915   4.041   4.521  1.2678  0.4401 -0.3296
 2716SOL    HW310863   3.910   3.973   4.386  1.7251 -1.6237  0.6807
 2716SOL    MW410864   3.885   3.978   4.469  0.8048  0.1222  0.3177
 2717SOL     OW10865   0.719   0.836   4.244  0.4006 -0.4157 -0.6189
 2717SOL    HW210866   0.704   0.776   4.318  0.2559 -0.6463 -0.8360
 2717SOL    HW310867   0.692   0.922   4.277  2.0487 -0.1981  0.2174
 2717SOL    MW410868   0.714   0.839   4.258  0.5989 -0.4175 -0.5372
 2718SOL     OW10869   4.478   0.181   4.219 -0.2197  0.3633 -0.1260
 2718SOL    HW210870   4.502   0.231   4.297  2.4910 -0.1380 -0.5639
 2718SOL    HW310871   4.481   0.244   4.148  0.2613  0.2246 -0.2354
 2718SOL    MW410872   4.482   0.196   4.220  0.2014  0.2788 -0.1982
 2719SOL     OW10873   4.067   2.135   4.769 -0.2032  0.2916  0.1526
 2719SOL    HW210874   4.074   2.115   4.863  1.1460  0.1736  0.0325
 2719SOL    HW310875   4.140   2.088   4.729 -2.4882 -2.1316 -1.3792
 2719SOL    MW410876   4.077   2.126   4.776 -0.3267 -0.0436 -0.0654
 2720SOL     OW10877   1.700   1.204   4.753 -0.0651 -0.1414 -0.0686
 2720SOL    HW210878   1.729   1.198   4.663  0.7106  1.2595  0.0749
 2720SOL    HW310879   1.606   1.185   4.750 -0.1853  0.6335 -1.2635
 2720SOL    MW410880   1.691   1.200   4.741  0.0214  0.1457 -0.2073
 2721SOL     OW10881   0.962   2.507   4.733  0.7583  0.1579 -0.1951
 2721SOL    HW210882   0.967   2.470   4.645  0.6095  0.9982 -0.5679
 2721SOL    HW310883   1.025   2.579   4.732 -0.2642  1.0838 -0.0812
 2721SOL    MW410884   0.971   2.512   4.721  0.6037  0.3909 -0.2292
 2722SOL     OW10885   1.570   3.916   4.862  0.0765  0.2493 -0.3062
 2722SOL    HW210886   1.639   3.916   4.928 -0.4710 -2.1716  0.2993
 2722SOL    HW310887   1.489   3.924   4.912 -0.3064 -1.0485 -0.6903
 2722SOL    MW410888   1.569   3.917   4.877 -0.0463 -0.2414 -0.2770
 2723SOL     OW10889   2.798   3.456   4.633  0.1255  0.5671  0.0210
 2723SOL    HW210890   2.806   3.533   4.576 -0.8442  0.0515 -0.8192
 2723SOL    HW310891   2.888   3.424   4.643  0.4538  1.4197 -0.1496
 2723SOL    MW410892   2.811   3.462   4.627  0.0409  0.6116 -0.1123
 2724SOL     OW10893   3.829   2.854   4.205  0.3319 -0.6743  0.2006
 2724SOL    HW210894   3.738   2.825   4.212  0.3720 -0.7697  0.3353
 2724SOL    HW310895   3.823   2.946   4.179  0.1938 -0.5838  0.5594
 2724SOL    MW410896   3.816   2.863   4.202  0.3189 -0.6749  0.2657
 2725SOL     OW10897   0.579   1.700   4.748  0.1162 -0.4341  0.3999
 2725SOL    HW210898   0.638   1.707   4.673 -1.1190  1.1439 -0.4537
 2725SOL    HW310899   0.596   1.613   4.784  1.6894 -0.6800 -0.8896
 2725SOL    MW410900   0.589   1.690   4.743  0.1608 -0.2583  0.1172
 2726SOL     OW10901   0.790   3.160   4.437  0.4150  0.3045  0.2155
 2726SOL    HW210902   0.756   3.248   4.450  1.3953  0.9160 -1.2890
 2726SOL    HW310903   0.722   3.103   4.472 -0.5290  1.6370  0.5754
 2726SOL    MW410904   0.776   3.164   4.443  0.4198  0.5610  0.0644
 2727SOL     OW10905   3.011   2.913   4.491  0.2301  0.1580  0.3365
 2727SOL    HW210906   3.052   2.844   4.544  0.1550  0.1647  0.4019
 2727SOL    HW310907   3.075   2.984   4.490  0.8176 -0.3765 -0.7145
 2727SOL    MW410908   3.025   2.913   4.498  0.2977  0.0884  0.2065
 2728SOL     OW10909   2.526   1.870   4.904 -0.4399 -0.0367  0.1492
 2728SOL    HW210910   2.545   1.848   4.813 -2.6766 -0.6760 -0.1859
 2728SOL    HW310911   2.468   1.800   4.934 -0.7868  0.8796  1.6748
 2728SOL    MW410912   2.521   1.858   4.896 -0.7808 -0.0001  0.3063
 2729SOL     OW10913   0.815   1.343   4.234 -0.1280  0.1724 -0.3456
 2729SOL    HW210914   0.750   1.395   4.187  0.3701  0.5007 -0.6660
 2729SOL    HW310915   0.861   1.295   4.166 -0.7218 -0.8519 -0.0372
 2729SOL    MW410916   0.812   1.344   4.219 -0.1406  0.0806 -0.3472
 2730SOL     OW10917   0.651   3.381   4.513  0.2029 -0.0254 -0.1092
 2730SOL    HW210918   0.577   3.350   4.459 -1.6339  1.7418  1.3159
 2730SOL    HW310919   0.686   3.456   4.464  0.5016 -0.3332 -0.3657
 2730SOL    MW410920   0.646   3.387   4.499 -0.0000  0.1672  0.0450
 2731SOL     OW10921   3.862   0.735   4.642 -0.1663 -0.8825  0.2392
 2731SOL    HW210922   3.932   0.733   4.576  0.3949  0.9495  0.7519
 2731SOL    HW310923   3.908   0.720   4.725 -0.1755  1.6146  0.7199
 2731SOL    MW410924   3.877   0.732   4.644 -0.0935 -0.3113  0.3702
 2732SOL     OW10925   1.192   1.980   4.241  0.2722 -0.1948  0.0671
 2732SOL    HW210926   1.179   2.072   4.263 -1.9873 -0.3062 -0.6625
 2732SOL    HW310927   1.200   1.935   4.325  0.0958  0.4890  0.4485
 2732SOL    MW410928   1.191   1.986   4.255 -0.0492 -0.1192  0.0211
 2733SOL     OW10929   1.044   3.743   4.636 -0.2873 -0.1146 -0.0556
 2733SOL    HW210930   1.019   3.678   4.570  0.0493  0.8694 -1.1655
 2733SOL    HW310931   1.104   3.802   4.590  0.2497  0.3651  1.2357
 2733SOL    MW410932   1.049   3.742   4.622 -0.1721  0.0785 -0.0316
 2734SOL     OW10933   0.859   0.533   4.789  0.0883 -0.5936  0.2511
 2734SOL    HW210934   0.789   0.593   4.764  1.8917  1.4904  0.0337
 2734SOL    HW310935   0.879   0.484   4.709 -1.0575 -1.1458  0.2981
 2734SOL    MW410936   0.853   0.534   4.775  0.1751 -0.3915  0.2286
 2735SOL     OW10937   0.400   3.072   4.123  0.4280  0.0960 -0.2008
 2735SOL    HW210938   0.382   3.140   4.188 -0.1653 -0.0570 -0.2111
 2735SOL    HW310939   0.490   3.045   4.142  0.3436  0.2328  0.3922
 2735SOL    MW410940   0.410   3.078   4.134  0.3386  0.0939 -0.1239
 2736SOL     OW10941   0.194   2.894   4.159 -0.2347  0.4092 -0.1988
 2736SOL    HW210942   0.260   2.963   4.157 -0.0807  0.2785  0.3641
 2736SOL    HW310943   0.242   2.813   4.144 -0.2901  0.3278  0.0659
 2736SOL    MW410944   0.209   2.893   4.156 -0.2217  0.3812 -0.0896
 2737SOL     OW10945   1.834   1.938   4.138 -0.0269 -0.1063 -0.2209
 2737SOL    HW210946   1.917   1.981   4.158 -0.3699  1.3792 -1.8792
 2737SOL    HW310947   1.767   2.001   4.162 -0.6721 -1.0757  0.5607
 2737SOL    MW410948   1.836   1.952   4.144 -0.1573 -0.0382 -0.3366
 2738SOL     OW10949   3.620   1.957   4.097  0.0844 -0.0273 -0.1954
 2738SOL    HW210950   3.536   1.989   4.128  0.9050  2.4808 -0.4353
 2738SOL    HW310951   3.620   1.976   4.003  1.3287  0.9979 -0.0059
 2738SOL    MW410952   3.609   1.964   4.088  0.3569  0.4389 -0.2021
 2739SOL     OW10953   2.041   2.827   4.509  0.2904  0.1964  0.0173
 2739SOL    HW210954   2.089   2.901   4.545 -0.1345  0.1329  0.7213
 2739SOL    HW310955   1.965   2.866   4.465  0.0375  0.1849  0.4344
 2739SOL    MW410956   2.037   2.842   4.508  0.2010  0.1865  0.1652
 2740SOL     OW10957   1.404   3.623   4.611  0.0604  0.2067 -0.3628
 2740SOL    HW210958   1.379   3.709   4.576 -0.5504  0.8439  1.5890
 2740SOL    HW310959   1.332   3.598   4.668  1.3965 -0.4534  1.0691
 2740SOL    MW410960   1.391   3.631   4.614  0.1561  0.2037  0.0836
 2741SOL     OW10961   0.644   3.608   4.167  0.1039 -0.3417  0.4563
 2741SOL    HW210962   0.560   3.562   4.159  0.4694 -0.8797 -0.2860
 2741SOL    HW310963   0.709   3.544   4.140  0.5046  1.0571 -1.9695
 2741SOL    MW410964   0.641   3.594   4.162  0.2050 -0.2281  0.0383
 2742SOL     OW10965   0.453   3.286   4.323 -0.4540  0.1063  0.5436
 2742SOL    HW210966   0.370   3.259   4.363 -0.3211 -1.5694 -0.2649
 2742SOL    HW310967   0.426   3.337   4.246 -0.7344  0.1628  0.6785
 2742SOL    MW410968   0.438   3.289   4.318 -0.4735 -0.1073  0.4547
 2743SOL     OW10969   4.270   1.506   4.113  0.3331  0.0876  0.1452
 2743SOL    HW210970   4.209   1.570   4.150  0.1471 -0.2638  0.4424
 2743SOL    HW310971   4.263   1.519   4.018 -0.9840 -0.6711  0.1318
 2743SOL    MW410972   4.261   1.516   4.105  0.1348 -0.0588  0.1827
 2744SOL     OW10973   3.848   4.398   4.746  0.2791  0.0026  0.4727
 2744SOL    HW210974   3.798   4.441   4.676 -0.9150 -0.2513  1.1683
 2744SOL    HW310975   3.897   4.469   4.787  1.0924  0.1357 -0.7039
 2744SOL    MW410976   3.848   4.413   4.742  0.2288 -0.0133  0.4093
 2745SOL     OW10977   2.084   3.313   4.525 -0.4417 -0.0561  0.1068
 2745SOL    HW210978   1.990   3.313   4.510 -0.5359  0.0610  0.6866
 2745SOL    HW310979   2.123   3.313   4.437 -0.9902  1.4428 -0.1475
 2745SOL    MW410980   2.077   3.313   4.511 -0.5265  0.1571  0.1498
 2746SOL     OW10981   2.016   0.331   4.485 -0.1769 -0.5105  0.7239
 2746SOL    HW210982   1.949   0.304   4.548  0.7443  0.0611  1.9776
 2746SOL    HW310983   2.099   0.317   4.530  0.5855 -1.5086 -0.9279
 2746SOL    MW410984   2.018   0.326   4.499  0.0452 -0.5668  0.6714
 2747SOL     OW10985   4.281   0.454   4.395  0.1108  0.4034 -0.1391
 2747SOL    HW210986   4.265   0.460   4.301 -1.7650  0.1772  0.1503
 2747SOL    HW310987   4.374   0.431   4.402 -0.1627 -1.4310 -1.9860
 2747SOL    MW410988   4.291   0.452   4.384 -0.1728  0.1315 -0.3446
 2748SOL     OW10989   2.959   2.519   4.944 -0.8281  0.2236  0.4412
 2748SOL    HW210990   2.905   2.446   4.972  0.0020 -0.9285 -0.9066
 2748SOL    HW310991   3.033   2.479   4.899  1.5059  1.7564  2.7891
 2748SOL    MW410992   2.961   2.504   4.942 -0.4107  0.2738  0.5731
 2749SOL     OW10993   1.567   3.534   4.195 -0.0473 -0.1369  0.0049
 2749SOL    HW210994   1.646   3.487   4.170  0.8253  0.0384  2.3138
 2749SOL    HW310995   1.579   3.623   4.162 -0.1945 -0.6245 -1.3932
 2749SOL    MW410996   1.579   3.539   4.188  0.0484 -0.1781  0.1251
 2750SOL     OW10997   3.910   1.220   4.473 -0.3742  0.3395  0.8896
 2750SOL    HW210998   3.874   1.135   4.498 -1.6276  0.6405  0.1649
 2750SOL    HW310999   4.004   1.205   4.464 -0.3781 -0.5970  2.2768
 2750SOL    MW411000   3.917   1.207   4.475 -0.5401  0.2556  0.9770
 2751SOL     OW11001   1.243   0.161   4.433 -0.1141  0.0774  0.1540
 2751SOL    HW211002   1.325   0.127   4.470  0.1707 -0.8059 -1.2455
 2751SOL    HW311003   1.176   0.100   4.465  0.0027 -0.1446 -0.0179
 2751SOL    MW411004   1.245   0.148   4.442 -0.0611 -0.0684 -0.0533
 2752SOL     OW11005   0.636   3.863   4.553  0.2476  0.4315 -0.2981
 2752SOL    HW211006   0.684   3.791   4.514  0.6161 -0.0082  0.9486
 2752SOL    HW311007   0.688   3.889   4.629 -1.4216 -0.0117  1.0413
 2752SOL    MW411008   0.649   3.857   4.558  0.0760  0.3150  0.0431
 2753SOL     OW11009   3.426   3.208   4.521 -0.0405 -0.3129 -0.2573
 2753SOL    HW211010   3.334   3.210   4.498 -0.2104 -3.3140 -0.1094
 2753SOL    HW311011   3.472   3.211   4.437 -0.3294 -0.4337 -0.4205
 2753SOL    MW411012   3.420   3.208   4.507 -0.1010 -0.7248 -0.2593
 2754SOL     OW11013   3.589   3.657   4.605  0.7788 -0.2875 -0.2348
 2754SOL    HW211014   3.554   3.594   4.668  1.6217  0.4170  0.9665
 2754SOL    HW311015   3.519   3.668   4.541  0.0123 -1.2289  0.4276
 2754SOL    MW411016   3.575   3.650   4.605  0.7888 -0.3187  0.0111
 2755SOL     OW11017   1.024   1.569   4.527  0.3937 -0.2187  0.1819
 2755SOL    HW211018   1.113   1.574   4.562 -0.3706  2.0295  1.8908
 2755SOL    HW311019   0.982   1.502   4.580  0.3213  0.5774  1.1547
 2755SOL    MW411020   1.030   1.561   4.539  0.2833  0.1830  0.5357
 2756SOL     OW11021   3.250   2.551   4.550 -0.0495  0.0412  0.6192
 2756SOL    HW211022   3.217   2.632   4.587 -0.2294  0.0268  0.4956
 2756SOL    HW311023   3.193   2.535   4.475 -2.3326 -2.0843  2.7174
 2756SOL    MW411024   3.238   2.559   4.545 -0.3744 -0.2411  0.8797
 2757SOL     OW11025   0.888   4.012   4.202 -0.1779  0.5123  0.2186
 2757SOL    HW211026   0.861   4.027   4.293  0.3236 -1.7796  0.7839
 2757SOL    HW311027   0.810   3.973   4.162 -0.4283  1.6087 -0.3853
 2757SOL    MW411028   0.874   4.009   4.209 -0.1448  0.3546  0.2135
 2758SOL     OW11029   2.176   0.808   4.505 -0.2610  0.3594  0.0220
 2758SOL    HW211030   2.265   0.789   4.535 -0.2716 -0.1329 -0.2549
 2758SOL    HW311031   2.184   0.820   4.411 -0.4371  0.6399  0.0423
 2758SOL    MW411032   2.189   0.807   4.497 -0.2856  0.3315 -0.0118
 2759SOL     OW11033   0.688   0.630   4.429  0.0977 -0.2439 -0.5670
 2759SOL    HW211034   0.743   0.553   4.420 -2.0122 -1.8380 -0.3212
 2759SOL    HW311035   0.600   0.599   4.408 -0.7323  2.1864 -0.8388
 2759SOL    MW411036   0.683   0.616   4.425 -0.2902 -0.1336 -0.5705
 2760SOL     OW11037   1.460   2.578   4.469  0.1382 -0.1364 -0.0184
 2760SOL    HW211038   1.549   2.541   4.475 -0.0331 -0.4829  0.4261
 2760SOL    HW311039   1.443   2.613   4.556  0.3574  1.1404 -0.4892
 2760SOL    MW411040   1.470   2.577   4.481  0.1445 -0.0136 -0.0218
 2761SOL     OW11041   1.386   1.676   4.228 -0.3564 -0.0285 -0.1627
 2761SOL    HW211042   1.298   1.659   4.194 -0.2065 -0.2786 -0.4287
 2761SOL    HW311043   1.372   1.729   4.306 -0.7346  0.0871 -0.3083
 2761SOL    MW411044   1.373   1.681   4.234 -0.3865 -0.0462 -0.2170
 2762SOL     OW11045   3.458   3.434   4.733 -0.5670 -0.1005 -0.1464
 2762SOL    HW211046   3.454   3.380   4.654 -0.5231 -1.4150  0.7367
 2762SOL    HW311047   3.378   3.411   4.781 -0.6671  0.8015  0.1172
 2762SOL    MW411048   3.447   3.424   4.729 -0.5744 -0.1550  0.0049
 2763SOL     OW11049   0.498   0.941   4.733 -0.0950 -0.0033 -0.3420
 2763SOL    HW211050   0.519   0.849   4.748 -0.6174  0.1851  1.7104
 2763SOL    HW311051   0.409   0.952   4.767  0.3638  1.4847  0.4630
 2763SOL    MW411052   0.489   0.931   4.740 -0.1034  0.2179  0.0350
 2764SOL     OW11053   3.213   2.790   4.675 -0.0337  0.3962 -0.2045
 2764SOL    HW211054   3.285   2.832   4.628  1.2754 -1.0736  0.4295
 2764SOL    HW311055   3.248   2.774   4.763 -1.8549  1.5473  0.7594
 2764SOL    MW411056   3.227   2.793   4.681 -0.1013  0.3541  0.0064
 2765SOL     OW11057   1.334   3.429   4.087  0.1299  0.3115 -0.1072
 2765SOL    HW211058   1.419   3.462   4.116  0.1289 -0.1026  0.3618
 2765SOL    HW311059   1.336   3.437   3.991  0.5471  0.6604 -0.0657
 2765SOL    MW411060   1.345   3.434   4.078  0.1848  0.3029 -0.0399
 2766SOL     OW11061   0.950   2.394   4.472 -0.0905 -0.4621  0.3251
 2766SOL    HW211062   0.868   2.346   4.482  0.2997 -1.0724  0.5992
 2766SOL    HW311063   1.004   2.338   4.416 -0.3552  0.5603 -0.9756
 2766SOL    MW411064   0.946   2.381   4.465 -0.0739 -0.4077  0.1897
 2767SOL     OW11065   0.150   2.401   4.128  0.1138  0.3534  0.2366
 2767SOL    HW211066   0.177   2.343   4.199 -1.1274 -0.4040  0.1015
 2767SOL    HW311067   0.079   2.453   4.165  0.2909  0.8189 -0.0744
 2767SOL    MW411068   0.144   2.400   4.142 -0.0266  0.3149  0.1777
 2768SOL     OW11069   1.154   4.221   4.585 -0.2961 -0.5024  0.1707
 2768SOL    HW211070   1.127   4.298   4.535  1.0096  0.2192  0.5456
 2768SOL    HW311071   1.243   4.241   4.614 -1.0325 -0.8895  2.8038
 2768SOL    MW411072   1.162   4.234   4.582 -0.2210 -0.4583  0.5676
 2769SOL     OW11073   2.282   2.983   4.212 -0.4249 -0.1794  0.4840
 2769SOL    HW211074   2.209   2.981   4.151  0.1797  0.2808 -0.2554
 2769SOL    HW311075   2.269   2.905   4.267 -0.4744 -1.0838 -0.7992
 2769SOL    MW411076   2.271   2.972   4.211 -0.3517 -0.2380  0.2171
 2770SOL     OW11077   0.323   4.261   4.585 -0.1214  0.1821  0.1886
 2770SOL    HW211078   0.237   4.219   4.580  0.2468 -0.5055 -0.4326
 2770SOL    HW311079   0.383   4.199   4.544  1.0689 -0.3805  2.6938
 2770SOL    MW411080   0.320   4.247   4.579  0.0842  0.0172  0.4372
 2771SOL     OW11081   0.880   0.403   4.522 -0.2405 -0.0462 -0.2817
 2771SOL    HW211082   0.971   0.425   4.503 -0.2769 -0.3743 -0.8374
 2771SOL    HW311083   0.858   0.335   4.458 -0.6746 -0.4277  0.2670
 2771SOL    MW411084   0.889   0.397   4.511 -0.3026 -0.1398 -0.2826
 2772SOL     OW11085   1.437   4.452   4.405  0.1128  0.3817 -0.0265
 2772SOL    HW211086   1.483   4.418   4.329 -1.0432 -0.7064 -0.2528
 2772SOL    HW311087   1.454   4.387   4.474  1.1093  1.3298  0.6455
 2772SOL    MW411088   1.445   4.439   4.404  0.0918  0.3632  0.0323
 2773SOL     OW11089   2.899   1.597   4.898  0.6262 -0.2337  0.5194
 2773SOL    HW211090   2.889   1.658   4.971  0.7349 -0.4953  0.7513
 2773SOL    HW311091   2.869   1.513   4.933 -0.1648 -0.1736  0.0020
 2773SOL    MW411092   2.893   1.594   4.912  0.5362 -0.2603  0.4817
 2774SOL     OW11093   2.834   2.908   4.924 -0.6936  0.3208 -0.0852
 2774SOL    HW211094   2.799   2.840   4.866  0.7432  1.0702 -1.8725
 2774SOL    HW311095   2.757   2.952   4.959 -1.6093 -1.0679 -0.3046
 2774SOL    MW411096   2.819   2.905   4.921 -0.6249  0.2365 -0.3499
 2775SOL     OW11097   0.429   4.308   4.099  0.4272  0.2584 -0.6943
 2775SOL    HW211098   0.440   4.216   4.124 -0.2069 -0.1296 -1.8024
 2775SOL    HW311099   0.446   4.309   4.005  3.1318  1.7588 -0.2110
 2775SOL    MW411100   0.432   4.296   4.090  0.7004  0.4051 -0.7768
 2776SOL     OW11101   3.148   3.247   4.231 -0.3609  0.6129  0.1215
 2776SOL    HW211102   3.158   3.326   4.177  1.3221 -1.6977 -3.0986
 2776SOL    HW311103   3.078   3.197   4.188  0.1197 -0.6781  0.8200
 2776SOL    MW411104   3.140   3.251   4.218 -0.0754  0.1377 -0.2112
 2777SOL     OW11105   1.159   4.390   4.139 -0.0634 -0.2077  0.2781
 2777SOL    HW211106   1.225   4.321   4.133  0.8047  0.6684 -0.3139
 2777SOL    HW311107   1.161   4.417   4.231 -0.2285 -0.7801  0.4572
 2777SOL    MW411108   1.168   4.384   4.151  0.0294 -0.1676  0.2236
 2778SOL     OW11109   2.699   0.980   4.521 -0.2496  0.0486  0.2889
 2778SOL    HW211110   2.651   0.949   4.445 -0.8905 -0.5023  0.9101
 2778SOL    HW311111   2.634   1.025   4.575 -0.0090 -0.3839  0.9564
 2778SOL    MW411112   2.684   0.982   4.518 -0.3024 -0.0812  0.4589
 2779SOL     OW11113   3.907   4.644   4.904  0.0020 -0.2628 -0.6159
 2779SOL    HW211114   3.992   4.673   4.938  1.0242 -2.0271 -1.6410
 2779SOL    HW311115   3.864   4.604   4.980  0.0083  0.7832 -0.0515
 2779SOL    MW411116   3.913   4.643   4.919  0.1377 -0.3576 -0.6767
 2780SOL     OW11117   0.016   0.377   4.013  0.4582 -0.2139 -0.3409
 2780SOL    HW211118   0.064   0.460   4.012  1.0995 -0.5849 -0.5639
 2780SOL    HW311119  -0.010   0.363   3.922  1.1335 -0.7075 -0.4603
 2780SOL    MW411120   0.019   0.386   4.001  0.6319 -0.3279 -0.3861
 2781SOL     OW11121   3.556   2.268   4.591  0.0104  0.0747 -0.0176
 2781SOL    HW211122   3.541   2.191   4.536 -0.0327 -0.0644  0.1893
 2781SOL    HW311123   3.629   2.243   4.648  0.6873  0.5542 -0.6527
 2781SOL    MW411124   3.564   2.254   4.591  0.0940  0.1196 -0.0741
 2782SOL     OW11125   1.951   1.745   4.501  0.4787 -0.1370  0.3402
 2782SOL    HW211126   1.906   1.729   4.419  0.0049 -0.9193  0.7504
 2782SOL    HW311127   1.881   1.757   4.565  0.7891  3.4683  0.1028
 2782SOL    MW411128   1.936   1.744   4.499  0.4571  0.2354  0.3630
 2783SOL     OW11129   1.836   3.161   4.223  0.5230 -0.1796 -0.1221
 2783SOL    HW211130   1.819   3.253   4.203 -1.0183 -0.1824  1.0003
 2783SOL    HW311131   1.758   3.115   4.191  0.5626 -0.8767  0.7633
 2783SOL    MW411132   1.823   3.167   4.216  0.3249 -0.2720  0.1428
 2784SOL     OW11133   0.963   2.302   4.089 -0.0665 -0.0732 -0.2556
 2784SOL    HW211134   0.877   2.262   4.079  0.0072  0.2085 -2.1991
 2784SOL    HW311135   0.946   2.396   4.086  0.2767 -0.0168 -0.4844
 2784SOL    MW411136   0.950   2.309   4.087 -0.0115 -0.0286 -0.5422
 2785SOL     OW11137   0.844   4.666   4.148 -0.3832 -0.3944 -0.2791
 2785SOL    HW211138   0.932   4.665   4.113  0.2263  0.2710  1.1975
 2785SOL    HW311139   0.788   4.687   4.073  0.8713  1.0020 -0.8462
 2785SOL    MW411140   0.848   4.668   4.134 -0.1372 -0.1224 -0.1591
 2786SOL     OW11141   1.149   2.725   4.743  0.2551  0.4367  0.4280
 2786SOL    HW211142   1.244   2.723   4.756  0.3604 -0.6666 -0.4374
 2786SOL    HW311143   1.121   2.807   4.785  1.4718  0.3717  1.4148
 2786SOL    MW411144   1.158   2.736   4.750  0.4295  0.2826  0.4440
 2787SOL     OW11145   3.100   0.085   4.171 -0.2461  0.1897  0.2431
 2787SOL    HW211146   3.062   0.083   4.259  0.5961  1.9720  0.6701
 2787SOL    HW311147   3.108   0.178   4.151  0.9835 -0.1966 -1.1083
 2787SOL    MW411148   3.096   0.097   4.180  0.0272  0.3739  0.1211
 2788SOL     OW11149   4.286   4.207   4.945 -0.2033  0.0511  0.4273
 2788SOL    HW211150   4.263   4.244   4.860 -1.9743 -1.6740  0.1194
 2788SOL    HW311151   4.365   4.254   4.971 -0.4703  1.6219 -1.4895
 2788SOL    MW411152   4.294   4.218   4.937 -0.4722  0.0308  0.1338
 2789SOL     OW11153   0.096   4.124   4.532  0.1849 -0.0700 -0.9371
 2789SOL    HW211154   0.021   4.184   4.524  1.8602  1.9498 -2.2302
 2789SOL    HW311155   0.060   4.038   4.509 -1.8863  0.7470 -0.9027
 2789SOL    MW411156   0.081   4.121   4.528  0.1327  0.3043 -1.1032
 2790SOL     OW11157   2.235   3.248   4.272 -0.4067 -0.1000  0.1191
 2790SOL    HW211158   2.244   3.153   4.259 -0.1626 -0.0256 -0.2696
 2790SOL    HW311159   2.311   3.272   4.325 -0.4536 -0.1202  0.1946
 2790SOL    MW411160   2.247   3.238   4.277 -0.3807 -0.0928  0.0778
 2791SOL     OW11161   1.572   4.379   4.183  0.2822  0.0017  0.1674
 2791SOL    HW211162   1.559   4.461   4.135 -0.4284  0.3503  0.9499
 2791SOL    HW311163   1.663   4.355   4.165  0.3521  0.7183 -0.4449
 2791SOL    MW411164   1.582   4.387   4.174  0.1977  0.1422  0.1898
 2792SOL     OW11165   1.351   3.939   4.244 -0.4031  0.0916 -0.6857
 2792SOL    HW211166   1.348   4.032   4.221  0.0617 -0.2839 -2.3888
 2792SOL    HW311167   1.266   3.905   4.217 -0.4965 -0.0074 -0.2567
 2792SOL    MW411168   1.340   3.947   4.237 -0.3541  0.0290 -0.8538
 2793SOL     OW11169   4.253   4.665   4.150  0.5986 -0.0773  0.1203
 2793SOL    HW211170   4.263   4.581   4.195 -0.2962  0.2202  0.9052
 2793SOL    HW311171   4.323   4.720   4.184  0.6811 -0.2451  0.2201
 2793SOL    MW411172   4.263   4.661   4.160  0.4914 -0.0602  0.2370
 2794SOL     OW11173   2.918   4.406   4.205 -0.3506  0.5089  0.4318
 2794SOL    HW211174   2.993   4.366   4.160 -1.4452 -0.1711 -0.8292
 2794SOL    HW311175   2.938   4.397   4.298 -0.0215 -1.9133  0.1524
 2794SOL    MW411176   2.931   4.400   4.211 -0.4516  0.0996  0.2285
 2795SOL     OW11177   2.558   4.467   4.502  0.2116  0.2826 -0.1945
 2795SOL    HW211178   2.476   4.495   4.543  1.1658  2.1017  0.5415
 2795SOL    HW311179   2.531   4.423   4.422 -1.5590 -0.6703  0.8911
 2795SOL    MW411180   2.543   4.465   4.497  0.1039  0.3969  0.0458
 2796SOL     OW11181   0.687   2.888   4.797 -0.2688  0.1534  0.1343
 2796SOL    HW211182   0.725   2.960   4.849 -0.0340 -0.6450  1.0784
 2796SOL    HW311183   0.646   2.932   4.723  1.4172  1.1443 -0.2468
 2796SOL    MW411184   0.687   2.903   4.794 -0.0154  0.1788  0.2086
 2797SOL     OW11185   2.082   4.405   4.241 -0.0227 -0.2959  0.5996
 2797SOL    HW211186   2.059   4.482   4.189  0.7302 -0.9022 -0.6776
 2797SOL    HW311187   2.098   4.439   4.329 -0.7761  0.8400  0.3129
 2797SOL    MW411188   2.081   4.420   4.246 -0.0227 -0.2260  0.3933
 2798SOL     OW11189   2.346   1.012   4.941 -0.0072 -0.0879 -0.0514
 2798SOL    HW211190   2.365   0.920   4.959  0.2399 -0.0943 -0.3353
 2798SOL    HW311191   2.251   1.015   4.929  0.0994 -0.4867 -1.0445
 2798SOL    MW411192   2.336   1.000   4.942  0.0394 -0.1413 -0.2199
 2799SOL     OW11193   3.560   2.471   4.248  0.1456  0.3135 -0.0031
 2799SOL    HW211194   3.560   2.491   4.341  0.4510  2.0339 -0.3491
 2799SOL    HW311195   3.649   2.441   4.229 -0.0457 -0.4689  0.3496
 2799SOL    MW411196   3.572   2.470   4.258  0.1607  0.4373 -0.0022
 2800SOL     OW11197   0.464   4.491   4.561  0.2786 -0.1454 -0.0723
 2800SOL    HW211198   0.504   4.486   4.474  0.4119  0.4146 -0.0488
 2800SOL    HW311199   0.421   4.406   4.573 -0.3323  0.0198 -0.9736
 2800SOL    MW411200   0.463   4.479   4.551  0.2156 -0.0497 -0.1882
 2801SOL     OW11201   2.938   1.007   4.671 -0.3884  0.9302  0.2943
 2801SOL    HW211202   2.865   1.009   4.609 -1.2465  0.5228  1.2771
 2801SOL    HW311203   3.015   0.985   4.617 -1.1728  0.2699 -0.5659
 2801SOL    MW411204   2.939   1.004   4.656 -0.6051  0.7893  0.3105
 2802SOL     OW11205   1.815   1.231   4.491  0.3308 -0.3385  0.1045
 2802SOL    HW211206   1.910   1.237   4.483  0.2393 -0.3647 -1.0267
 2802SOL    HW311207   1.782   1.255   4.405 -0.6712 -0.7598  0.3648
 2802SOL    MW411208   1.823   1.235   4.479  0.1865 -0.3975 -0.0104
 2803SOL     OW11209   1.603   1.527   4.122 -0.1638 -0.0604  0.2744
 2803SOL    HW211210   1.671   1.564   4.178  0.1775  0.4803 -0.4742
 2803SOL    HW311211   1.523   1.574   4.146 -0.0269  0.1365  0.3436
 2803SOL    MW411212   1.601   1.538   4.133 -0.1007  0.0369  0.1847
 2804SOL     OW11213   2.425   3.512   4.635 -0.2777  0.4351  0.5944
 2804SOL    HW211214   2.474   3.531   4.715 -0.8216  1.2821  0.7342
 2804SOL    HW311215   2.335   3.499   4.665 -0.6901  1.8710 -0.0083
 2804SOL    MW411216   2.420   3.513   4.650 -0.4039  0.7363  0.5333
 2805SOL     OW11217   3.837   1.718   4.959  0.4277  0.0043  0.3662
 2805SOL    HW211218   3.926   1.737   4.989  0.5532  1.8731 -1.1054
 2805SOL    HW311219   3.790   1.802   4.969 -1.0058 -0.7998  0.5401
 2805SOL    MW411220   3.843   1.732   4.965  0.2552  0.1448  0.1950
 2806SOL     OW11221   0.706   2.199   4.082 -0.2275  0.1856 -0.3061
 2806SOL    HW211222   0.651   2.255   4.137  0.0254  0.1288 -0.0001
 2806SOL    HW311223   0.683   2.225   3.992  0.1313  1.0061 -0.1598
 2806SOL    MW411224   0.696   2.210   4.077 -0.1468  0.2864 -0.2464
 2807SOL     OW11225   1.780   3.400   4.867  0.5167 -0.3640  0.7774
 2807SOL    HW211226   1.722   3.328   4.892  0.1047  0.2524  1.6234
 2807SOL    HW311227   1.722   3.476   4.859  0.9527 -0.1159 -0.0938
 2807SOL    MW411228   1.765   3.401   4.869  0.5199 -0.2500  0.7741
 2808SOL     OW11229   1.730   0.065   4.511  0.5609 -0.0773 -0.1932
 2808SOL    HW211230   1.635   0.054   4.510  0.6134 -0.5021 -0.4305
 2808SOL    HW311231   1.744   0.147   4.559  0.0466  0.2890 -0.6638
 2808SOL    MW411232   1.719   0.074   4.517  0.5000 -0.0850 -0.2866
 2809SOL     OW11233   3.854   3.621   4.222  0.1880  0.0870 -0.4649
 2809SOL    HW211234   3.842   3.649   4.313  1.3446 -1.2344  0.0993
 2809SOL    HW311235   3.944   3.588   4.218 -0.3176 -1.1947 -1.7289
 2809SOL    MW411236   3.864   3.620   4.233  0.2739 -0.2564 -0.5573
 2810SOL     OW11237   1.838   1.685   4.244  0.1547  0.1013  0.3945
 2810SOL    HW211238   1.845   1.774   4.209  0.6773  0.2921  0.9845
 2810SOL    HW311239   1.905   1.636   4.196 -2.1978 -0.7090 -2.1792
 2810SOL    MW411240   1.848   1.690   4.233 -0.0867  0.0196  0.1328
 2811SOL     OW11241   4.242   3.858   4.111  0.6653  0.6480  0.2960
 2811SOL    HW211242   4.266   3.883   4.022  0.9350  2.4086  0.8457
 2811SOL    HW311243   4.282   3.772   4.124  1.0169  0.5918 -1.1092
 2811SOL    MW411244   4.250   3.850   4.101  0.7473  0.8729  0.1831
 2812SOL     OW11245   4.020   2.061   5.025 -0.0336  0.2782 -0.1323
 2812SOL    HW211246   4.046   1.971   5.044 -0.0718 -0.0010 -1.3234
 2812SOL    HW311247   3.924   2.059   5.026 -0.0338  0.5980  1.1116
 2812SOL    MW411248   4.010   2.049   5.027 -0.0386  0.2836 -0.1253
 2813SOL     OW11249   3.982   4.199   4.611 -0.0806 -0.3977  0.1143
 2813SOL    HW211250   3.930   4.262   4.662 -0.0313  0.4172 -0.8131
 2813SOL    HW311251   4.069   4.240   4.604  0.1521 -0.8938  0.0959
 2813SOL    MW411252   3.987   4.213   4.617 -0.0434 -0.3556 -0.0105
 2814SOL     OW11253   2.555   0.189   4.563 -0.2030  0.3531 -0.1664
 2814SOL    HW211254   2.488   0.130   4.530  0.3116 -0.4776  0.2649
 2814SOL    HW311255   2.636   0.161   4.519  0.6776 -1.3739  2.4939
 2814SOL    MW411256   2.557   0.178   4.553 -0.0189  0.0156  0.2415
 2815SOL     OW11257   1.817   0.950   4.753 -0.2625  0.1629  0.0151
 2815SOL    HW211258   1.906   0.981   4.770  0.0289 -0.2162 -0.8067
 2815SOL    HW311259   1.763   1.030   4.754  0.0287  0.3547  0.8494
 2815SOL    MW411260   1.821   0.965   4.756 -0.1856  0.1382  0.0167
 2816SOL     OW11261   2.641   0.876   4.274 -0.1641 -0.2570 -0.1775
 2816SOL    HW211262   2.726   0.836   4.254  0.0754 -0.7658  1.7774
 2816SOL    HW311263   2.577   0.810   4.245  0.1289 -0.3755 -0.5660
 2816SOL    MW411264   2.644   0.862   4.267 -0.0939 -0.3398  0.0292
 2817SOL     OW11265   2.032   1.266   4.188  0.4441  0.3677  0.4582
 2817SOL    HW211266   1.956   1.224   4.148  0.3995  0.8920 -0.0171
 2817SOL    HW311267   2.103   1.202   4.178 -0.1706 -0.5737  1.8665
 2817SOL    MW411268   2.032   1.252   4.182  0.3571  0.3127  0.5813
 2818SOL     OW11269   0.262   0.270   4.767 -0.2861  0.2511 -0.3035
 2818SOL    HW211270   0.166   0.271   4.759 -0.4801  1.3569  2.0044
 2818SOL    HW311271   0.288   0.188   4.724 -2.3831 -0.7184  0.1898
 2818SOL    MW411272   0.252   0.259   4.760 -0.5884  0.2691  0.0661
 2819SOL     OW11273   1.890   2.128   4.661  0.0209  0.2360 -0.2296
 2819SOL    HW211274   1.908   2.064   4.730 -0.4387 -0.5832 -0.8783
 2819SOL    HW311275   1.943   2.204   4.686 -0.3167  0.0457  1.1663
 2819SOL    MW411276   1.899   2.130   4.674 -0.0842  0.1028 -0.1310
 2820SOL     OW11277   4.487   4.621   4.661  0.7091 -0.2402  0.0589
 2820SOL    HW211278   4.526   4.567   4.592  0.8538  0.5838 -0.5155
 2820SOL    HW311279   4.393   4.607   4.651  0.5810  1.6032 -1.7957
 2820SOL    MW411280   4.479   4.612   4.650  0.7113  0.1117 -0.2616
 2821SOL     OW11281   3.772   0.988   4.605 -0.2563 -0.2345 -0.8531
 2821SOL    HW211282   3.792   0.895   4.613 -1.0552 -0.3009  0.5498
 2821SOL    HW311283   3.762   1.018   4.695  1.0957  1.4692 -1.2541
 2821SOL    MW411284   3.773   0.979   4.618 -0.1833 -0.0185 -0.7209
 2822SOL     OW11285   0.792   4.422   4.249 -0.0512 -0.3005 -0.2348
 2822SOL    HW211286   0.833   4.366   4.183 -1.5460 -0.1126 -1.3374
 2822SOL    HW311287   0.812   4.511   4.221  0.4399 -0.2334  0.3112
 2822SOL    MW411288   0.800   4.426   4.237 -0.1836 -0.2669 -0.3082
 2823SOL     OW11289   1.816   1.140   4.092 -0.1683 -0.2408  0.0906
 2823SOL    HW211290   1.808   1.048   4.117 -1.2934 -0.4174 -0.8183
 2823SOL    HW311291   1.743   1.184   4.136  0.9722  0.4161  1.3524
 2823SOL    MW411292   1.805   1.134   4.101 -0.1663 -0.1774  0.1372
 2824SOL     OW11293   0.418   0.567   4.432 -0.1142 -0.3473  0.0826
 2824SOL    HW211294   0.412   0.531   4.521  1.5930 -0.9815 -0.0348
 2824SOL    HW311295   0.335   0.612   4.419 -0.5669 -0.6231  1.8421
 2824SOL    MW411296   0.406   0.568   4.442  0.0513 -0.4674  0.2993
 2825SOL     OW11297   4.116   3.488   4.190 -0.0431  0.5690 -0.2327
 2825SOL    HW211298   4.108   3.397   4.219  0.0492  0.5335 -0.3183
 2825SOL    HW311299   4.101   3.484   4.095 -1.1056  0.7830 -0.0793
 2825SOL    MW411300   4.113   3.475   4.181 -0.1711  0.5926 -0.2238
 2826SOL     OW11301   2.816   3.684   4.462  0.1468 -0.3122 -0.0165
 2826SOL    HW211302   2.843   3.758   4.516  0.0072 -1.0357  1.0653
 2826SOL    HW311303   2.722   3.696   4.450  0.6802  1.5852 -2.8224
 2826SOL    MW411304   2.808   3.695   4.468  0.1988 -0.1573 -0.2440
 2827SOL     OW11305   3.056   2.763   5.050 -0.1106  0.2413  0.0128
 2827SOL    HW211306   2.990   2.826   5.021  0.2722 -0.0345 -1.5435
 2827SOL    HW311307   3.016   2.677   5.034 -0.0142  0.0799  0.6254
 2827SOL    MW411308   3.042   2.760   5.044 -0.0474  0.1836 -0.1117
 2828SOL     OW11309   3.155   1.954   4.120  0.0379  0.4134  0.0467
 2828SOL    HW211310   3.150   1.869   4.164  0.0616  0.2483 -0.2622
 2828SOL    HW311311   3.238   1.991   4.150  0.8205 -0.3923 -1.0728
 2828SOL    MW411312   3.165   1.948   4.129  0.1443  0.2853 -0.1418
 2829SOL     OW11313   1.191   3.548   4.774  0.1980 -0.6938 -0.4042
 2829SOL    HW211314   1.139   3.623   4.748 -0.2386 -0.9047 -0.1405
 2829SOL    HW311315   1.250   3.583   4.842  0.8038 -0.3261 -1.1088
 2829SOL    MW411316   1.192   3.563   4.780  0.2203 -0.6732 -0.4624
 2830SOL     OW11317   2.092   4.536   4.489  0.3197 -0.1748 -0.4393
 2830SOL    HW211318   2.157   4.497   4.546 -0.1197 -2.0746 -1.2093
 2830SOL    HW311319   2.016   4.552   4.545 -0.0488 -1.8807 -0.4317
 2830SOL    MW411320   2.090   4.533   4.504  0.2131 -0.6506 -0.5399
 2831SOL     OW11321   0.192   4.416   4.224  0.0793 -0.1922 -0.1798
 2831SOL    HW211322   0.267   4.374   4.180  1.3665 -1.4157  3.0483
 2831SOL    HW311323   0.117   4.362   4.198  1.0488 -1.8267  0.3129
 2831SOL    MW411324   0.192   4.403   4.215  0.3771 -0.5693  0.3111
 2832SOL     OW11325   1.518   2.333   4.120 -0.2811 -0.1652  0.2856
 2832SOL    HW211326   1.565   2.268   4.171  0.2865 -0.4080 -0.5404
 2832SOL    HW311327   1.523   2.302   4.029 -3.5989 -1.1627  0.3693
 2832SOL    MW411328   1.525   2.321   4.115 -0.6439 -0.3288  0.1877
 2833SOL     OW11329   2.003   2.396   4.122 -0.1381 -0.2871 -0.1966
 2833SOL    HW211330   2.073   2.353   4.171 -0.6305 -0.3844  0.4293
 2833SOL    HW311331   1.997   2.346   4.040  0.3200 -0.4584 -0.1284
 2833SOL    MW411332   2.012   2.383   4.118 -0.1426 -0.3225 -0.1050
 2834SOL     OW11333   4.003   0.108   4.228  0.4348 -0.5672  0.3537
 2834SOL    HW211334   4.093   0.087   4.201  0.4247 -1.0294  0.6733
 2834SOL    HW311335   3.989   0.197   4.196  1.1977 -0.2926  0.7749
 2834SOL    MW411336   4.013   0.117   4.220  0.5341 -0.5919  0.4514
 2835SOL     OW11337   3.728   1.983   4.960 -0.4208 -0.1999 -0.3303
 2835SOL    HW211338   3.635   1.965   4.947 -0.1878 -1.7666  0.0829
 2835SOL    HW311339   3.747   2.056   4.901 -1.3984 -1.3264 -2.0694
 2835SOL    MW411340   3.718   1.990   4.951 -0.5191 -0.5552 -0.5053
 2836SOL     OW11341   3.606   1.684   4.190 -0.1330  0.4042  0.5456
 2836SOL    HW211342   3.603   1.775   4.160 -1.4386  0.5735  1.1546
 2836SOL    HW311343   3.629   1.689   4.282  0.4008  0.0786  0.4323
 2836SOL    MW411344   3.608   1.697   4.198 -0.2348  0.3836  0.6110
 2837SOL     OW11345   0.047   1.600   4.206  0.0077  0.0215 -0.3150
 2837SOL    HW211346  -0.041   1.588   4.170 -0.9814 -0.6497  2.2485
 2837SOL    HW311347   0.064   1.694   4.194 -0.5388 -0.0712 -1.9426
 2837SOL    MW411348   0.037   1.611   4.200 -0.1949 -0.0793 -0.1915
 2838SOL     OW11349   2.629   2.465   4.681 -0.1903  0.5028  0.6457
 2838SOL    HW211350   2.550   2.496   4.637  0.1394 -0.5964 -0.7674
 2838SOL    HW311351   2.598   2.424   4.761 -0.8809  1.8341  1.0684
 2838SOL    MW411352   2.615   2.464   4.685 -0.2379  0.5334  0.5151
 2839SOL     OW11353   1.602   0.473   4.746 -0.3380 -0.1865  0.2671
 2839SOL    HW211354   1.508   0.472   4.728 -0.3952 -0.6166  0.6021
 2839SOL    HW311355   1.632   0.556   4.709 -0.6060 -0.6893 -1.1104
 2839SOL    MW411356   1.594   0.484   4.738 -0.3809 -0.3096  0.1296
 2840SOL     OW11357   0.701   1.086   4.352 -0.0914 -0.3049  0.1414
 2840SOL    HW211358   0.678   1.101   4.444 -2.1272  0.8843 -0.5445
 2840SOL    HW311359   0.726   1.172   4.319  2.4773 -1.0248  0.0210
 2840SOL    MW411360   0.701   1.099   4.360 -0.0211 -0.2430  0.0350
 2841SOL     OW11361   3.364   4.623   4.133  0.3257  0.3176  0.0147
 2841SOL    HW211362   3.278   4.660   4.154  0.5183 -0.1766  1.7369
 2841SOL    HW311363   3.427   4.686   4.168  0.6527 -1.0666  2.0099
 2841SOL    MW411364   3.361   4.636   4.140  0.3943  0.0698  0.5052
 2842SOL     OW11365   0.396   0.507   4.728  0.6612  0.5105 -0.4256
 2842SOL    HW211366   0.321   0.566   4.736  1.0450  1.2411 -1.9560
 2842SOL    HW311367   0.358   0.419   4.726  0.1519  0.6220  2.8679
 2842SOL    MW411368   0.381   0.503   4.728  0.6446  0.6216 -0.1929
 2843SOL     OW11369   3.172   3.145   4.481 -0.1049 -0.2095 -0.3668
 2843SOL    HW211370   3.110   3.197   4.533  0.3034 -0.3592  0.2806
 2843SOL    HW311371   3.166   3.181   4.393  0.6737  1.3899  0.2286
 2843SOL    MW411372   3.163   3.156   4.476  0.0517 -0.0182 -0.2029
 2844SOL     OW11373   1.456   0.910   4.407  0.5796 -0.7436 -0.4113
 2844SOL    HW211374   1.547   0.937   4.417 -0.1041  0.3359  3.6379
 2844SOL    HW311375   1.456   0.817   4.430  0.4959 -0.4766  0.6825
 2844SOL    MW411376   1.468   0.901   4.411  0.4784 -0.5660  0.2673
 2845SOL     OW11377   2.314   0.044   4.463 -0.0588 -0.2441 -0.1776
 2845SOL    HW211378   2.309   0.062   4.369  0.6919  0.3942 -0.1003
 2845SOL    HW311379   2.235  -0.005   4.482  0.0573 -0.8581 -1.2519
 2845SOL    MW411380   2.303   0.040   4.453  0.0556 -0.2409 -0.3092
 2846SOL     OW11381   2.210   0.206   4.875  0.2984  0.1393  0.0893
 2846SOL    HW211382   2.297   0.182   4.906  0.2109 -0.1926  0.0837
 2846SOL    HW311383   2.221   0.218   4.780  0.4765  0.7427  0.1903
 2846SOL    MW411384   2.223   0.204   4.866  0.3103  0.1751  0.1019
 2847SOL     OW11385   3.572   1.158   4.149  0.3430 -0.1039 -0.4094
 2847SOL    HW211386   3.558   1.157   4.055 -0.1288 -0.2480 -0.3379
 2847SOL    HW311387   3.645   1.219   4.162  0.9943 -0.7594 -0.9445
 2847SOL    MW411388   3.580   1.166   4.138  0.3667 -0.2094 -0.4705
 2848SOL     OW11389   1.240   1.210   4.110  0.5257 -0.5473 -0.2288
 2848SOL    HW211390   1.300   1.244   4.043  0.1993  0.0800 -0.2023
 2848SOL    HW311391   1.285   1.226   4.193  0.0884  0.4093 -0.1731
 2848SOL    MW411392   1.254   1.217   4.112  0.4250 -0.3383 -0.2179
 2849SOL     OW11393   1.921   0.158   4.845 -0.0483 -0.5844 -0.1265
 2849SOL    HW211394   1.934   0.074   4.802  0.6949 -0.8166  0.5318
 2849SOL    HW311395   2.009   0.183   4.875 -0.0590  0.9824 -1.3371
 2849SOL    MW411396   1.935   0.150   4.844  0.0483 -0.4083 -0.1994
 2850SOL     OW11397   2.531   3.715   4.477 -0.2143  0.3586  0.2566
 2850SOL    HW211398   2.513   3.680   4.390 -0.3226 -0.0740  0.4552
 2850SOL    HW311399   2.492   3.652   4.537  1.1857 -0.1115  0.6684
 2850SOL    MW411400   2.523   3.702   4.473 -0.0439  0.2395  0.3371
 2851SOL     OW11401   2.519   1.122   4.674 -0.1386  0.3009 -0.1153
 2851SOL    HW211402   2.442   1.069   4.690  0.0460  0.1585  0.3138
 2851SOL    HW311403   2.492   1.186   4.608 -0.3199 -0.4099 -0.7287
 2851SOL    MW411404   2.506   1.124   4.667 -0.1382  0.1883 -0.1396
 2852SOL     OW11405   4.200   2.979   4.133 -0.4785 -0.1310 -0.1775
 2852SOL    HW211406   4.221   3.017   4.048 -0.6361  0.5103  0.0691
 2852SOL    HW311407   4.169   3.053   4.185  0.6798 -0.3186  0.7923
 2852SOL    MW411408   4.199   2.994   4.128 -0.3465 -0.0712 -0.0170
 2853SOL     OW11409   3.412   3.881   4.128 -0.0064  0.1085 -0.2166
 2853SOL    HW211410   3.408   3.890   4.033 -1.6587 -0.2551 -0.1962
 2853SOL    HW311411   3.408   3.787   4.143 -0.2948  0.1885  0.2182
 2853SOL    MW411412   3.411   3.870   4.117 -0.2625  0.0711 -0.1565
 2854SOL     OW11413   2.413   0.694   4.601 -0.0197 -0.2849  0.1374
 2854SOL    HW211414   2.443   0.622   4.546 -0.0085 -1.3232  1.4995
 2854SOL    HW311415   2.493   0.736   4.633  0.0035  1.6389 -2.2973
 2854SOL    MW411416   2.427   0.690   4.598 -0.0152 -0.1681 -0.0041
 2855SOL     OW11417   0.341   2.079   4.695  0.0481 -0.3229  0.5910
 2855SOL    HW211418   0.316   1.993   4.660 -0.1650 -0.2336  0.5256
 2855SOL    HW311419   0.399   2.059   4.768  1.8220 -0.4989 -0.8196
 2855SOL    MW411420   0.346   2.065   4.700  0.2540 -0.3343  0.3963
 2856SOL     OW11421   4.087   3.205   4.268 -0.4384 -0.2185  0.0413
 2856SOL    HW211422   4.006   3.202   4.217 -1.1362  1.9242  0.9442
 2856SOL    HW311423   4.057   3.207   4.359  0.5999  0.8988  0.3753
 2856SOL    MW411424   4.072   3.205   4.274 -0.3935  0.2116  0.2045
 2857SOL     OW11425   2.566   2.368   4.928 -0.2032 -0.1371  0.0254
 2857SOL    HW211426   2.645   2.340   4.973 -0.5096 -0.9020  0.0839
 2857SOL    HW311427   2.502   2.299   4.945 -1.2880  1.1078  1.0857
 2857SOL    MW411428   2.568   2.355   4.936 -0.3867 -0.0738  0.1730
 2858SOL     OW11429   1.438   4.272   4.646 -0.1940  0.0258 -0.2083
 2858SOL    HW211430   1.522   4.315   4.663 -0.1634 -0.8941  2.1748
 2858SOL    HW311431   1.461   4.179   4.633 -0.8317 -0.2131  0.3756
 2858SOL    MW411432   1.452   4.265   4.646 -0.2741 -0.1271  0.1831
 2859SOL     OW11433   4.422   2.543   4.283 -0.1627  0.2191 -0.2627
 2859SOL    HW211434   4.473   2.555   4.363 -2.1658 -0.2455  1.1275
 2859SOL    HW311435   4.415   2.630   4.245  1.2701  0.3529 -0.2216
 2859SOL    MW411436   4.428   2.556   4.289 -0.2379  0.1754 -0.0739
 2860SOL     OW11437   3.705   0.255   4.621  0.1560  0.3168 -0.0585
 2860SOL    HW211438   3.747   0.251   4.707  0.1107 -1.6428 -0.0931
 2860SOL    HW311439   3.692   0.348   4.604  1.0514  0.7627  1.6268
 2860SOL    MW411440   3.709   0.267   4.630  0.2681  0.1171  0.1593
 2861SOL     OW11441   0.849   3.220   4.177  0.3035 -0.3322 -0.1145
 2861SOL    HW211442   0.834   3.200   4.269  0.2379 -1.5794 -0.3905
 2861SOL    HW311443   0.935   3.184   4.158  0.7585  0.8235 -0.2881
 2861SOL    MW411444   0.858   3.213   4.186  0.3549 -0.3443 -0.1738
 2862SOL     OW11445   3.178   1.718   4.506  0.6402 -0.6006 -0.4798
 2862SOL    HW211446   3.186   1.813   4.505 -0.0923 -0.5060  0.8855
 2862SOL    HW311447   3.086   1.702   4.527  0.3169 -1.6203 -2.6022
 2862SOL    MW411448   3.167   1.728   4.509  0.5009 -0.7227 -0.5797
 2863SOL     OW11449   1.753   2.508   4.204 -0.2161 -0.5428 -0.1991
 2863SOL    HW211450   1.836   2.469   4.176 -0.8529 -2.9128  1.0975
 2863SOL    HW311451   1.687   2.466   4.147 -0.4852  1.9546 -1.8163
 2863SOL    MW411452   1.755   2.497   4.193 -0.3356 -0.5260 -0.2414
 2864SOL     OW11453   3.831   3.145   4.161 -0.0768 -0.6361  0.0776
 2864SOL    HW211454   3.827   3.149   4.065  1.4284  0.7524  0.0446
 2864SOL    HW311455   3.745   3.175   4.190 -0.0467  0.3480 -0.8200
 2864SOL    MW411456   3.819   3.150   4.152  0.1257 -0.3231 -0.0452
 2865SOL     OW11457   3.362   4.531   4.572  0.1868  0.2978  0.1883
 2865SOL    HW211458   3.436   4.588   4.551 -0.6483  1.7252  1.0796
 2865SOL    HW311459   3.345   4.546   4.665 -0.7468 -0.5901  0.1755
 2865SOL    MW411460   3.370   4.541   4.581 -0.0465  0.3690  0.3042
 2866SOL     OW11461   4.287   1.270   4.249  0.0986 -0.4172  0.2091
 2866SOL    HW211462   4.375   1.256   4.215 -0.1809 -0.1339 -0.6393
 2866SOL    HW311463   4.260   1.354   4.213  0.2373  0.4520  2.0707
 2866SOL    MW411464   4.295   1.279   4.240  0.0800 -0.2651  0.3428
 2867SOL     OW11465   2.231   1.102   4.156  0.1725 -0.2582  0.1873
 2867SOL    HW211466   2.304   1.152   4.192  0.5743  0.4988 -1.5936
 2867SOL    HW311467   2.247   1.012   4.186  0.5483  0.3110  1.7472
 2867SOL    MW411468   2.243   1.097   4.164  0.2751 -0.0832  0.1581
 2868SOL     OW11469   1.128   0.620   4.850  0.0457 -0.0992 -0.1026
 2868SOL    HW211470   1.040   0.588   4.830 -0.5382 -0.3000  2.6013
 2868SOL    HW311471   1.118   0.714   4.862 -0.0758 -0.2701  1.3437
 2868SOL    MW411472   1.115   0.628   4.849 -0.0473 -0.1483  0.4450
 2869SOL     OW11473   3.431   1.673   4.605 -0.5633  0.0381  0.3561
 2869SOL    HW211474   3.343   1.687   4.571 -0.7354  3.7253  2.1317
 2869SOL    HW311475   3.417   1.628   4.689 -0.8358  1.7237  1.2188
 2869SOL    MW411476   3.418   1.669   4.612 -0.6219  0.7470  0.7042
 2870SOL     OW11477   3.367   0.495   4.178 -0.1828  0.2937 -0.1060
 2870SOL    HW211478   3.459   0.475   4.194 -0.3134 -0.3077 -0.0984
 2870SOL    HW311479   3.326   0.492   4.265 -0.4555 -0.7162 -0.2654
 2870SOL    MW411480   3.374   0.492   4.192 -0.2360  0.0811 -0.1260
 2871SOL     OW11481   2.711   1.628   4.498 -0.3898  0.0670 -0.1788
 2871SOL    HW211482   2.730   1.536   4.518 -1.7975 -0.0275  0.8504
 2871SOL    HW311483   2.709   1.632   4.403  1.1110 -0.6556 -0.2537
 2871SOL    MW411484   2.713   1.616   4.488 -0.3775 -0.0408 -0.0529
 2872SOL     OW11485   1.643   2.139   4.256  0.6727 -0.4972 -0.3169
 2872SOL    HW211486   1.577   2.074   4.233 -1.8905  1.3656  1.4804
 2872SOL    HW311487   1.635   2.149   4.351  1.3049  2.0767 -0.4946
 2872SOL    MW411488   1.633   2.132   4.266  0.4179  0.0882 -0.1032
 2873SOL     OW11489   2.088   1.243   4.471  0.1640 -0.3236 -0.3344
 2873SOL    HW211490   2.076   1.247   4.376 -2.5298 -1.8751 -0.1188
 2873SOL    HW311491   2.086   1.334   4.499 -0.7196  0.0625 -1.6000
 2873SOL    MW411492   2.086   1.255   4.462 -0.3080 -0.4774 -0.4729
 2874SOL     OW11493   2.217   2.384   4.530 -0.2566 -0.3506  0.1124
 2874SOL    HW211494   2.285   2.452   4.529 -0.6849  0.0906  0.6919
 2874SOL    HW311495   2.265   2.304   4.551 -0.0758  0.1594  1.7130
 2874SOL    MW411496   2.233   2.382   4.533 -0.2893 -0.2251  0.4001
 2875SOL     OW11497   2.687   4.256   4.602 -0.7439  0.6914 -0.1827
 2875SOL    HW211498   2.638   4.331   4.569 -0.3238  1.6110  1.2423
 2875SOL    HW311499   2.778   4.273   4.577 -0.9463 -0.4248 -1.7625
 2875SOL    MW411500   2.692   4.268   4.594 -0.7152  0.6655 -0.2031
 2876SOL     OW11501   1.117   2.239   4.321  0.5414 -0.0123 -0.0917
 2876SOL    HW211502   1.063   2.249   4.242  0.2175 -0.1931  0.1043
 2876SOL    HW311503   1.192   2.295   4.306  1.1995 -1.1500 -1.1697
 2876SOL    MW411504   1.120   2.248   4.308  0.5855 -0.1863 -0.2081
 2877SOL     OW11505   1.186   3.361   4.567  0.8338  0.1644  0.2262
 2877SOL    HW211506   1.145   3.275   4.570  0.2721  0.3614 -1.4886
 2877SOL    HW311507   1.171   3.398   4.655  0.8485 -1.3513  0.8801
 2877SOL    MW411508   1.179   3.354   4.579  0.7616 -0.0096  0.0862
 2878SOL     OW11509   0.507   4.114   4.450  0.1516  0.2998  0.0909
 2878SOL    HW211510   0.540   4.037   4.496  0.7734  0.8427  0.5549
 2878SOL    HW311511   0.584   4.169   4.436 -0.2226  0.6518 -0.6025
 2878SOL    MW411512   0.521   4.111   4.454  0.1843  0.4179  0.0606
 2879SOL     OW11513   2.437   3.355   4.415 -0.1823  0.1139 -0.5919
 2879SOL    HW211514   2.418   3.406   4.494  0.6980  0.5601 -0.6608
 2879SOL    HW311515   2.511   3.300   4.440  0.0135  0.1658 -1.0687
 2879SOL    MW411516   2.444   3.354   4.429 -0.0403  0.1796 -0.6639
 2880SOL     OW11517   2.079   2.033   4.219  0.2478 -0.1900 -0.2014
 2880SOL    HW211518   2.105   2.125   4.220  0.1378 -0.1061 -2.5561
 2880SOL    HW311519   2.084   2.005   4.311  0.0636  2.2119  0.5589
 2880SOL    MW411520   2.083   2.041   4.232  0.2090  0.1379 -0.4118
 2881SOL     OW11521   1.642   2.194   4.532 -0.4145  0.0054  0.2833
 2881SOL    HW211522   1.730   2.172   4.563 -0.6414 -0.4112  0.6512
 2881SOL    HW311523   1.641   2.289   4.527 -0.0180  0.0217  0.5057
 2881SOL    MW411524   1.654   2.203   4.536 -0.3922 -0.0474  0.3612
 2882SOL     OW11525   1.159   0.448   4.477  0.1636  0.2063  0.4076
 2882SOL    HW211526   1.137   0.483   4.390 -0.5540 -0.4916  0.3054
 2882SOL    HW311527   1.181   0.357   4.461  0.5491  0.2199  0.8888
 2882SOL    MW411528   1.159   0.441   4.463  0.1198  0.1160  0.4576
 2883SOL     OW11529   1.090   3.096   4.138  0.6310  0.0356  0.6719
 2883SOL    HW211530   1.094   3.092   4.043 -0.1127  0.5166  0.6178
 2883SOL    HW311531   1.172   3.137   4.164  0.7704  0.0371  0.2290
 2883SOL    MW411532   1.101   3.101   4.129  0.5513  0.0992  0.6063
 2884SOL     OW11533   2.057   1.518   4.604  0.1709  0.0037  0.5228
 2884SOL    HW211534   2.152   1.529   4.606  0.2717 -0.9118  1.6140
 2884SOL    HW311535   2.023   1.603   4.575  1.3952 -0.2247 -1.6735
 2884SOL    MW411536   2.065   1.531   4.601  0.3457 -0.1472  0.3770
 2885SOL     OW11537   3.115   1.401   4.903  0.1963 -0.0889 -0.4423
 2885SOL    HW211538   3.063   1.478   4.878  0.8430  0.1417 -1.0937
 2885SOL    HW311539   3.206   1.432   4.901  0.4373 -0.7869 -0.3889
 2885SOL    MW411540   3.120   1.416   4.899  0.3134 -0.1506 -0.5212
 2886SOL     OW11541   0.276   2.214   4.343 -0.2892 -0.0502  0.3316
 2886SOL    HW211542   0.261   2.232   4.435  1.1382 -0.3727  0.6368
 2886SOL    HW311543   0.266   2.119   4.335 -2.4011  0.1922 -0.2432
 2886SOL    MW411544   0.273   2.204   4.354 -0.3795 -0.0608  0.2961
 2887SOL     OW11545   0.245   3.874   4.120  0.0210 -0.1914 -0.1880
 2887SOL    HW211546   0.170   3.911   4.167 -0.6592  1.2666 -2.3360
 2887SOL    HW311547   0.235   3.780   4.129 -1.1171  0.0184  0.9855
 2887SOL    MW411548   0.234   3.867   4.128 -0.2189  0.0287 -0.3166
 2888SOL     OW11549   0.029   1.170   4.108  0.0524 -0.3308 -0.1460
 2888SOL    HW211550   0.100   1.110   4.129  0.6443  0.2283 -0.5279
 2888SOL    HW311551   0.022   1.167   4.013  0.0390  0.1443 -0.1621
 2888SOL    MW411552   0.038   1.162   4.098  0.1288 -0.1943 -0.1985
 2889SOL     OW11553   2.486   1.341   4.502 -0.3955 -0.1402  0.0652
 2889SOL    HW211554   2.464   1.314   4.413  0.7844 -1.2742  0.1006
 2889SOL    HW311555   2.578   1.365   4.498 -0.3701 -0.0578  0.9566
 2889SOL    MW411556   2.495   1.341   4.490 -0.2364 -0.2789  0.1875
 2890SOL     OW11557   3.553   4.256   4.161  0.0100 -0.0776 -0.2199
 2890SOL    HW211558   3.560   4.166   4.192 -1.6190 -0.1998 -0.1576
 2890SOL    HW311559   3.473   4.289   4.201 -0.2913  0.8704 -1.5660
 2890SOL    MW411560   3.543   4.248   4.171 -0.2447  0.0313 -0.3893
 2891SOL     OW11561   2.261   0.295   4.604 -0.1057  0.3342 -0.1004
 2891SOL    HW211562   2.313   0.365   4.566  1.3453 -0.3895  0.5185
 2891SOL    HW311563   2.281   0.218   4.550 -1.6775  0.3842 -0.7725
 2891SOL    MW411564   2.270   0.294   4.592 -0.1216  0.2453 -0.1074
 2892SOL     OW11565   3.013   1.208   5.090  0.0304  0.1059 -0.3610
 2892SOL    HW211566   3.013   1.123   5.047 -1.1268  0.4867 -1.1426
 2892SOL    HW311567   3.069   1.263   5.035 -0.7322  0.3482 -0.9124
 2892SOL    MW411568   3.020   1.204   5.077 -0.2229  0.1881 -0.5368
 2893SOL     OW11569   4.079   1.956   4.134  0.2575 -0.3523  0.2443
 2893SOL    HW211570   4.068   1.861   4.135 -0.7381 -0.2398  0.2047
 2893SOL    HW311571   3.994   1.991   4.160  1.4027  0.4846  3.1553
 2893SOL    MW411572   4.066   1.948   4.138  0.2772 -0.2270  0.6231
 2894SOL     OW11573   3.625   2.801   4.594 -0.0529  0.1042 -0.0383
 2894SOL    HW211574   3.711   2.800   4.551  0.2358 -2.0962  0.5551
 2894SOL    HW311575   3.594   2.711   4.587 -1.7722  0.6187  0.8596
 2894SOL    MW411576   3.632   2.789   4.587 -0.2416 -0.1182  0.1585
 2895SOL     OW11577   1.416   3.239   4.480 -0.1870  0.2222 -0.3314
 2895SOL    HW211578   1.335   3.273   4.519 -0.6626  0.8165 -1.8236
 2895SOL    HW311579   1.476   3.315   4.480  0.0845  0.0125 -0.0480
 2895SOL    MW411580   1.414   3.254   4.485 -0.2139  0.2730 -0.4909
 2896SOL     OW11581   1.891   4.569   4.667  0.0222  0.1351  0.0623
 2896SOL    HW211582   1.830   4.500   4.695  0.2254 -0.3114 -0.5891
 2896SOL    HW311583   1.839   4.626   4.611 -0.3401  0.9339  1.2027
 2896SOL    MW411584   1.876   4.568   4.663  0.0012  0.1816  0.1268
 2897SOL     OW11585   3.388   4.044   4.600  1.0208  0.4147  0.1685
 2897SOL    HW211586   3.416   4.129   4.635  1.0110  0.6371 -0.3543
 2897SOL    HW311587   3.470   3.997   4.582  1.0132 -0.4208  2.2051
 2897SOL    MW411588   3.403   4.049   4.602  1.0185  0.3338  0.3682
 2898SOL     OW11589   1.378   3.636   4.972  0.1470  0.1304 -0.2206
 2898SOL    HW211590   1.473   3.637   4.968  0.2436  1.0778  1.5625
 2898SOL    HW311591   1.353   3.728   4.974 -0.6945 -0.1141  1.1219
 2898SOL    MW411592   1.387   3.648   4.972  0.0487  0.2231  0.1918
 2899SOL     OW11593   2.787   1.373   5.046 -0.3823 -0.0514 -0.6440
 2899SOL    HW211594   2.857   1.314   5.074 -0.5276 -0.2794 -0.7531
 2899SOL    HW311595   2.718   1.314   5.014 -1.1235  0.1214  0.6100
 2899SOL    MW411596   2.787   1.358   5.045 -0.4993 -0.0587 -0.4929
 2900SOL     OW11597   2.912   2.834   4.246  0.2626 -0.1636  0.1009
 2900SOL    HW211598   2.992   2.809   4.199  0.0981  0.2682 -0.4221
 2900SOL    HW311599   2.940   2.845   4.337  0.5552 -1.1564  0.1298
 2900SOL    MW411600   2.926   2.832   4.252  0.2795 -0.2376  0.0357
 2901SOL     OW11601   1.106   1.441   4.310  0.4192 -0.2976 -0.3209
 2901SOL    HW211602   1.057   1.359   4.303  0.7644 -0.6610  1.4602
 2901SOL    HW311603   1.071   1.484   4.388  1.2208  0.6093 -0.4485
 2901SOL    MW411604   1.095   1.436   4.319  0.5705 -0.2259 -0.1027
 2902SOL     OW11605   2.796   2.680   4.767  0.0566  0.2340  0.5894
 2902SOL    HW211606   2.738   2.606   4.746  1.1368 -0.1458 -1.1969
 2902SOL    HW311607   2.864   2.642   4.822  0.2572  0.0161  0.1981
 2902SOL    MW411608   2.797   2.665   4.771  0.2256  0.1551  0.3021
 2903SOL     OW11609   3.103   2.512   4.313 -0.3551  0.6410 -0.1494
 2903SOL    HW211610   3.164   2.453   4.270 -0.4967  0.0690  0.4293
 2903SOL    HW311611   3.115   2.596   4.268  0.7463  0.4960 -0.1411
 2903SOL    MW411612   3.112   2.515   4.301 -0.2284  0.5464 -0.0719
 2904SOL     OW11613   2.087   2.003   4.498  0.4255  0.7726  0.4062
 2904SOL    HW211614   2.018   2.056   4.539 -0.0860 -0.5799  1.3308
 2904SOL    HW311615   2.060   1.913   4.513  1.3952  0.2354 -0.9746
 2904SOL    MW411616   2.074   1.998   4.505  0.4860  0.5233  0.3460
 2905SOL     OW11617   0.784   0.267   4.284  0.4029  0.6045  0.2393
 2905SOL    HW211618   0.817   0.180   4.264  1.0367  0.4922  1.7704
 2905SOL    HW311619   0.692   0.264   4.258  0.7403 -0.1017 -0.9289
 2905SOL    MW411620   0.776   0.255   4.278  0.5310  0.4965  0.2872
 2906SOL     OW11621   4.404   0.956   4.812 -0.0448  0.0680  0.1451
 2906SOL    HW211622   4.367   0.947   4.724 -1.1043 -0.8456  0.6780
 2906SOL    HW311623   4.365   1.037   4.846 -0.4401 -0.1304  0.1646
 2906SOL    MW411624   4.394   0.966   4.805 -0.2368 -0.0787  0.2180
 2907SOL     OW11625   4.133   2.918   4.492  0.3607  0.4027 -0.0637
 2907SOL    HW211626   4.060   2.858   4.475  1.4908 -1.1059  0.2139
 2907SOL    HW311627   4.093   3.004   4.503 -1.2802 -0.2734 -0.7401
 2907SOL    MW411628   4.118   2.921   4.491  0.2933  0.1145 -0.1163
 2908SOL     OW11629   0.347   0.254   4.442 -0.2865 -0.2887  0.3327
 2908SOL    HW211630   0.318   0.181   4.497 -0.7663 -1.1558 -1.0423
 2908SOL    HW311631   0.272   0.313   4.438 -0.1605 -0.0936  0.8178
 2908SOL    MW411632   0.333   0.252   4.449 -0.3331 -0.3774  0.2153
 2909SOL     OW11633   3.391   2.924   4.510  0.1682 -0.0928 -0.5336
 2909SOL    HW211634   3.388   3.016   4.536 -0.9798 -0.3444  0.2614
 2909SOL    HW311635   3.462   2.887   4.562 -1.6671 -0.4417  1.8205
 2909SOL    MW411636   3.400   2.932   4.520 -0.2254 -0.1720 -0.1181
 2910SOL     OW11637   0.161   0.659   4.385 -0.5185  0.1292  0.8307
 2910SOL    HW211638   0.158   0.653   4.290 -0.5417 -0.3017  0.8563
 2910SOL    HW311639   0.091   0.719   4.408 -0.7285 -0.0272  0.5971
 2910SOL    MW411640   0.152   0.666   4.376 -0.5493  0.0517  0.8032
 2911SOL     OW11641   3.843   2.068   4.240  0.5552  0.1461  0.0297
 2911SOL    HW211642   3.844   2.162   4.221 -1.5728  0.3898  0.9243
 2911SOL    HW311643   3.768   2.035   4.191  1.3221 -1.0897 -0.3082
 2911SOL    MW411644   3.833   2.076   4.231  0.3756  0.0152  0.1032
 2912SOL     OW11645   2.327   3.991   4.440  0.2572  0.1134 -0.0558
 2912SOL    HW211646   2.287   4.007   4.355 -1.6771  0.9514  1.0037
 2912SOL    HW311647   2.307   3.899   4.459 -0.1082  0.1917 -0.0720
 2912SOL    MW411648   2.319   3.981   4.431 -0.0462  0.2343  0.0818
 2913SOL     OW11649   1.533   4.009   4.608  0.0511  0.3252 -0.2139
 2913SOL    HW211650   1.565   3.988   4.695  1.3696 -0.6649 -0.9173
 2913SOL    HW311651   1.609   3.999   4.551 -0.9566  0.2253 -1.5863
 2913SOL    MW411652   1.547   4.005   4.612  0.0921  0.1814 -0.4878
 2914SOL     OW11653   3.561   3.238   4.276 -0.1487  0.1622 -0.2192
 2914SOL    HW211654   3.495   3.198   4.220 -1.1858  0.5279  0.7022
 2914SOL    HW311655   3.594   3.312   4.226  0.2141 -0.5470 -1.0482
 2914SOL    MW411656   3.556   3.242   4.262 -0.2376  0.1169 -0.2070
 2915SOL     OW11657   1.192   2.850   4.239  0.3677  0.0800  0.1078
 2915SOL    HW211658   1.153   2.865   4.325  0.3145 -0.1620  0.1259
 2915SOL    HW311659   1.172   2.929   4.190 -1.5355 -0.7016 -0.3998
 2915SOL    MW411660   1.184   2.862   4.244  0.1096 -0.0551  0.0432
 2916SOL     OW11661   0.422   1.316   4.695  0.0161  0.0344 -0.3140
 2916SOL    HW211662   0.484   1.356   4.756 -0.2500 -0.4899  0.2988
 2916SOL    HW311663   0.373   1.391   4.658  0.9711  0.4431 -0.7665
 2916SOL    MW411664   0.424   1.331   4.698  0.1070  0.0191 -0.2929
 2917SOL     OW11665   1.160   4.440   4.411 -0.4091 -0.4263  0.4336
 2917SOL    HW211666   1.129   4.509   4.469 -0.9945 -0.8283  0.5979
 2917SOL    HW311667   1.256   4.446   4.416 -0.4575 -0.3122  1.2582
 2917SOL    MW411668   1.169   4.450   4.420 -0.4927 -0.4643  0.5641
 2918SOL     OW11669   3.523   0.912   4.515 -0.1784 -0.2751  0.0637
 2918SOL    HW211670   3.462   0.982   4.538  0.7213  0.9191 -1.0535
 2918SOL    HW311671   3.609   0.946   4.542  0.1344 -1.4267  0.5369
 2918SOL    MW411672   3.526   0.926   4.522 -0.0184 -0.2694 -0.0212
 2919SOL     OW11673   0.468   4.035   4.193  0.0046  0.1137  0.4732
 2919SOL    HW211674   0.391   3.984   4.172  0.2617  0.4705 -1.3655
 2919SOL    HW311675   0.458   4.056   4.286 -1.4582 -0.9292  0.5607
 2919SOL    MW411676   0.457   4.031   4.203 -0.1545  0.0232  0.2421
 2920SOL     OW11677   3.257   0.477   4.419  0.1205 -0.0555  0.1815
 2920SOL    HW211678   3.165   0.460   4.443 -0.1494 -0.0321 -0.8288
 2920SOL    HW311679   3.294   0.518   4.497 -1.2539  1.7169 -0.0551
 2920SOL    MW411680   3.250   0.481   4.433 -0.0964  0.1814  0.0170
 2921SOL     OW11681   3.779   0.259   4.905  0.0000 -0.1138  0.2149
 2921SOL    HW211682   3.687   0.257   4.931 -0.5910 -0.4684 -1.7780
 2921SOL    HW311683   3.810   0.169   4.919 -0.5921 -0.5556 -1.1617
 2921SOL    MW411684   3.771   0.247   4.910 -0.1561 -0.2189 -0.2297
 2922SOL     OW11685   0.002   4.229   4.107  0.2584 -0.3146 -0.4146
 2922SOL    HW211686   0.007   4.138   4.137 -0.7222 -0.7001 -1.4021
 2922SOL    HW311687   0.000   4.223   4.012 -2.1304  0.5904 -0.4583
 2922SOL    MW411688   0.002   4.216   4.099 -0.1861 -0.2461 -0.5506
 2923SOL     OW11689   0.538   2.304   4.275  0.2102 -0.6665  0.1104
 2923SOL    HW211690   0.603   2.268   4.335 -0.1432 -0.1118  0.8386
 2923SOL    HW311691   0.455   2.265   4.303  0.3958 -2.3672 -1.6228
 2923SOL    MW411692   0.535   2.294   4.286  0.1881 -0.8177 -0.0222
 2924SOL     OW11693   2.663   0.774   4.690  0.0539  0.1084  0.3689
 2924SOL    HW211694   2.673   0.818   4.775  0.3467  0.4520  0.1563
 2924SOL    HW311695   2.696   0.837   4.626  0.6343 -0.4790  0.0793
 2924SOL    MW411696   2.669   0.788   4.693  0.1691  0.0762  0.3026
 2925SOL     OW11697   4.072   1.678   4.209 -0.5233  0.1976  0.1364
 2925SOL    HW211698   3.992   1.638   4.174 -0.1231 -0.2712 -0.2618
 2925SOL    HW311699   4.070   1.658   4.302 -0.5644 -0.3651  0.0210
 2925SOL    MW411700   4.062   1.670   4.216 -0.4759  0.0615  0.0686
 2926SOL     OW11701   0.532   1.927   4.881  0.2300 -0.5256  0.3901
 2926SOL    HW211702   0.618   1.963   4.904  0.0038  1.9327 -2.4069
 2926SOL    HW311703   0.553   1.851   4.826  0.6567  1.0195 -1.6462
 2926SOL    MW411704   0.546   1.922   4.877  0.2565  0.0026 -0.2476
 2927SOL     OW11705   0.255   1.226   4.910 -0.3887  0.3541  0.2728
 2927SOL    HW211706   0.249   1.131   4.903  0.4841  0.3523 -0.5597
 2927SOL    HW311707   0.303   1.253   4.832 -0.4663  1.4624  0.5946
 2927SOL    MW411708   0.261   1.217   4.899 -0.2838  0.5001  0.2054
 2928SOL     OW11709   0.454   0.515   4.083 -0.1283 -0.4249  0.2613
 2928SOL    HW211710   0.533   0.569   4.084 -0.0665 -0.5289  0.9725
 2928SOL    HW311711   0.475   0.439   4.137 -0.6493 -0.5411  0.3082
 2928SOL    MW411712   0.467   0.512   4.090 -0.1889 -0.4539  0.3613
 2929SOL     OW11713   3.794   0.770   4.213 -0.0039 -0.2062 -0.1696
 2929SOL    HW211714   3.795   0.755   4.119 -0.7599 -0.4394 -0.1490
 2929SOL    HW311715   3.708   0.809   4.230  1.0443  2.0787  0.0886
 2929SOL    MW411716   3.782   0.773   4.203  0.0347  0.0645 -0.1328
 2930SOL     OW11717   4.481   0.232   4.659  0.2665  1.0603  0.2210
 2930SOL    HW211718   4.420   0.273   4.721 -0.7262 -0.5314  0.3474
 2930SOL    HW311719   4.459   0.139   4.663  2.2933  0.5401 -0.2308
 2930SOL    MW411720   4.470   0.225   4.668  0.4030  0.7817  0.1781
 2931SOL     OW11721   0.263   2.351   4.622 -0.4890  0.0580  0.1187
 2931SOL    HW211722   0.303   2.270   4.653  0.5242  0.2884 -0.5357
 2931SOL    HW311723   0.334   2.415   4.624 -1.1662  0.8133  0.2001
 2931SOL    MW411724   0.278   2.349   4.626 -0.4446  0.1881  0.0431
 2932SOL     OW11725   3.869   2.786   4.475  0.1378  0.1436 -0.3155
 2932SOL    HW211726   3.856   2.794   4.380 -3.4058 -0.4484  0.0411
 2932SOL    HW311727   3.887   2.694   4.489  0.8195  0.2595 -0.4347
 2932SOL    MW411728   3.869   2.775   4.464 -0.2398  0.0808 -0.2842
 2933SOL     OW11729   4.196   1.177   4.501 -0.1063  0.0680  0.1547
 2933SOL    HW211730   4.224   1.208   4.415 -1.6400  1.1571  0.0336
 2933SOL    HW311731   4.214   1.251   4.560 -0.2315 -0.2156  0.5514
 2933SOL    MW411732   4.202   1.191   4.497 -0.3252  0.1743  0.1911
 2934SOL     OW11733   1.707   2.451   4.485 -0.2868 -0.4934  0.0188
 2934SOL    HW211734   1.782   2.501   4.516 -0.6184 -0.2366  0.4035
 2934SOL    HW311735   1.715   2.453   4.389 -0.4700  0.5600  0.0207
 2934SOL    MW411736   1.718   2.458   4.476 -0.3547 -0.3205  0.0698
 2935SOL     OW11737   1.351   3.185   4.217 -0.2613  0.2552 -0.0047
 2935SOL    HW211738   1.378   3.203   4.307  1.8115 -1.0493 -0.3310
 2935SOL    HW311739   1.349   3.271   4.174 -0.8065  0.8276  1.1420
 2935SOL    MW411740   1.354   3.199   4.223 -0.0598  0.1586  0.1036
 2936SOL     OW11741   2.860   3.075   4.684 -0.3033  0.1209  0.1245
 2936SOL    HW211742   2.880   3.002   4.626  0.4937 -0.2605  0.8675
 2936SOL    HW311743   2.848   3.034   4.770 -1.5072  0.6731  0.2368
 2936SOL    MW411744   2.861   3.060   4.688 -0.3570  0.1434  0.2374
 2937SOL     OW11745   2.984   0.124   4.426 -0.6129 -0.1949 -0.5869
 2937SOL    HW211746   2.891   0.104   4.416 -0.6839  0.1848 -0.6911
 2937SOL    HW311747   2.986   0.218   4.445 -0.3695 -0.5846  1.3252
 2937SOL    MW411748   2.972   0.134   4.427 -0.5902 -0.1962 -0.3484
 2938SOL     OW11749   2.707   1.658   4.211 -0.6208 -0.4891  0.6155
 2938SOL    HW211750   2.771   1.595   4.178 -0.2992 -0.1612  0.6055
 2938SOL    HW311751   2.626   1.637   4.165 -0.0037  0.4017 -0.9046
 2938SOL    MW411752   2.705   1.647   4.201 -0.4970 -0.3283  0.4136
 2939SOL     OW11753   3.784   2.175   4.746  0.0824 -0.3656 -0.1054
 2939SOL    HW211754   3.879   2.171   4.761 -0.0086 -1.5882  0.2635
 2939SOL    HW311755   3.765   2.096   4.694 -0.6752  0.0673 -0.4880
 2939SOL    MW411756   3.794   2.164   4.741 -0.0295 -0.4698 -0.1072
 2940SOL     OW11757   2.762   1.366   4.509  0.1959 -0.0004  0.1769
 2940SOL    HW211758   2.828   1.353   4.440 -0.1460 -1.9256  0.1769
 2940SOL    HW311759   2.807   1.339   4.590  0.9792  3.3483  0.9363
 2940SOL    MW411760   2.777   1.361   4.511  0.2541  0.1874  0.2771
 2941SOL     OW11761   0.639   0.679   4.712 -0.0208  0.1813 -0.0296
 2941SOL    HW211762   0.643   0.682   4.616  0.4393 -0.7768 -0.0379
 2941SOL    HW311763   0.576   0.609   4.731  1.0305 -0.6501  0.3851
 2941SOL    MW411764   0.631   0.671   4.702  0.1786 -0.0548  0.0240
   4.49070   4.66690  10.00000
