Gromacs Runs On Most of All Computer Systems in water
11764
    1DMSO    SD    1   3.930   4.410   5.121 -0.1814 -0.1759 -0.2470
    1DMSO   CD1    2   4.043   4.492   5.231 -0.2988 -0.3292 -0.2170
    1DMSO    OD    3   3.827   4.520   5.074 -0.2588 -0.6047 -0.1328
    1DMSO   CD2    4   4.042   4.392   4.979 -0.2193 -0.7266 -0.5165
    2DMSO    SD    5   4.110   3.011   4.988 -0.1643 -0.2043 -0.1915
    2DMSO   CD1    6   4.023   3.165   4.995  0.3658  0.2666 -0.5782
    2DMSO    OD    7   4.053   2.938   4.864 -0.2315 -0.0058 -0.3453
    2DMSO   CD2    8   4.269   3.075   4.933 -0.3705 -0.1171  0.4030
    3DMSO    SD    9   3.310   2.469   4.912  0.2022 -0.0092  0.2911
    3DMSO   CD1   10   3.311   2.471   5.091 -0.2621  0.2404  0.0713
    3DMSO    OD   11   3.426   2.560   4.867  0.5010 -0.5316 -0.1575
    3DMSO   CD2   12   3.357   2.301   4.882 -0.1538 -0.2892  0.5568
    4DMSO    SD   13   4.478   1.282   5.106  0.0441  0.2364 -0.1903
    4DMSO   CD1   14   4.630   1.373   5.079 -0.2009 -0.4958  0.3995
    4DMSO    OD   15   4.392   1.297   4.983  0.2513 -0.6634 -0.6589
    4DMSO   CD2   16   4.547   1.117   5.100  0.4497 -0.1517  0.6520
    5DMSO    SD   17   3.620   4.180   5.131 -0.4795 -0.1940  0.5260
    5DMSO   CD1   18   3.580   4.310   5.250 -0.5191 -0.0977 -0.0212
    5DMSO    OD   19   3.727   4.094   5.194 -0.1091  0.0704 -0.2313
    5DMSO   CD2   20   3.464   4.086   5.148 -0.5013 -0.1925 -0.3644
    6DMSO    SD   21   2.522   3.732   4.869  0.0773  0.2404 -0.4918
    6DMSO   CD1   22   2.528   3.908   4.911 -0.3296  0.1634  0.1300
    6DMSO    OD   23   2.668   3.684   4.887  0.3474 -0.2652  0.1861
    6DMSO   CD2   24   2.428   3.680   5.011 -0.3600  0.2695 -0.0742
    7DMSO    SD   25   2.860   3.980   4.953 -0.0365  0.2232 -0.2007
    7DMSO   CD1   26   2.858   4.002   4.774 -0.2768  0.0807  0.4000
    7DMSO    OD   27   3.008   3.991   5.001  0.0147  0.0875 -0.3072
    7DMSO   CD2   28   2.787   4.142   4.995 -0.1137  0.0159 -0.1232
    8DMSO    SD   29   3.850   1.418   4.918 -0.2404  0.2046  0.3017
    8DMSO   CD1   30   3.714   1.501   5.001  0.6546 -0.0612 -0.1092
    8DMSO    OD   31   3.931   1.528   4.849  0.0344 -0.0574  0.3798
    8DMSO   CD2   32   3.947   1.387   5.072 -0.2874  0.1732 -0.3642
    9DMSO    SD   33   2.743   1.432   4.861  0.2927 -0.0617 -0.1228
    9DMSO   CD1   34   2.602   1.343   4.793 -0.1008  0.1278 -0.6717
    9DMSO    OD   35   2.859   1.403   4.771 -0.1396  0.2937  0.3281
    9DMSO   CD2   36   2.685   1.597   4.830  0.6573 -0.3748  0.0309
   10DMSO    SD   37   3.132   4.280   5.094 -0.1906  0.1148  0.2261
   10DMSO   CD1   38   3.112   4.329   4.924 -0.2093 -0.2580 -0.2433
   10DMSO    OD   39   3.255   4.357   5.144 -0.0184 -0.6702  0.4002
   10DMSO   CD2   40   2.987   4.365   5.161 -0.3623 -0.0345 -0.0171
   11DMSO    SD   41   1.282   0.166   5.111  0.0485 -0.4324 -0.0443
   11DMSO   CD1   42   1.126   0.179   5.195 -0.2129 -0.1591  0.3653
   11DMSO    OD   43   1.392   0.200   5.211  0.4894  0.0890  0.0646
   11DMSO   CD2   44   1.284  -0.006   5.076 -0.1348 -0.0547 -0.0763
   12DMSO    SD   45   2.682   3.335   4.988  0.1727 -0.1082 -0.1034
   12DMSO   CD1   46   2.729   3.345   4.814  0.4953 -0.1942 -0.0628
   12DMSO    OD   47   2.663   3.183   5.011 -0.0440  0.4049 -0.2143
   12DMSO   CD2   48   2.841   3.380   5.055  0.2389 -0.0758  0.5824
   13DMSO    SD   49   2.239   1.419   5.015 -0.0822 -0.2264 -0.3855
   13DMSO   CD1   50   2.274   1.435   4.842  0.0135 -0.2932 -0.2465
   13DMSO    OD   51   2.085   1.407   5.032  0.3129 -0.2307  0.0855
   13DMSO   CD2   52   2.301   1.247   5.033  0.0465  0.0104  0.1866
   14DMSO    SD   53   2.327   1.789   5.055  0.2972  0.0728  0.1641
   14DMSO   CD1   54   2.199   1.753   5.172 -0.3774  0.0283  0.1140
   14DMSO    OD   55   2.425   1.673   5.061  0.1114 -0.3945 -0.0494
   14DMSO   CD2   56   2.240   1.785   4.902 -0.6312 -0.0677 -0.2086
   15DMSO    SD   57   2.191   4.665   4.828 -0.1025 -0.5091  0.3597
   15DMSO   CD1   58   2.051   4.727   4.736 -0.0525  0.0402 -0.0158
   15DMSO    OD   59   2.252   4.786   4.900  0.0417  0.2501 -0.3511
   15DMSO   CD2   60   2.096   4.581   4.958  0.6655 -0.7128  0.2602
   16DMSO    SD   61   0.770   0.263   4.909 -0.1055  0.0052 -0.0596
   16DMSO   CD1   62   0.682   0.330   5.050 -0.6725 -0.1433 -0.0870
   16DMSO    OD   63   0.919   0.264   4.951  0.9090 -0.0825 -0.0011
   16DMSO   CD2   64   0.722   0.093   4.925  0.2941  0.5362 -0.0265
   17DMSO    SD   65   1.475   2.986   4.931 -0.3416 -0.1465  0.1679
   17DMSO   CD1   66   1.378   3.123   4.864 -0.2685  0.0703 -0.3230
   17DMSO    OD   67   1.431   2.860   4.859 -0.2198  0.3280 -0.2123
   17DMSO   CD2   68   1.632   3.035   4.871 -0.7135  0.0754 -0.3184
   18DMSO    SD   69   1.045   2.708   4.997 -0.2884 -0.3146 -0.2230
   18DMSO   CD1   70   1.045   2.889   4.963  0.4133  0.5516  0.1333
   18DMSO    OD   71   0.914   2.659   4.937 -0.3620  0.2429 -0.1714
   18DMSO   CD2   72   1.171   2.676   4.870 -0.0592  0.7024  0.3599
   19DMSO    SD   73   0.703   0.725   4.932 -0.4394  0.1439 -0.1616
   19DMSO   CD1   74   0.870   0.661   4.959  0.3576  0.3777 -0.2713
   19DMSO    OD   75   0.610   0.641   5.017 -0.6290 -0.4593  0.0006
   19DMSO   CD2   76   0.734   0.882   5.021 -0.0108 -0.4409  0.4752
   20DMSO    SD   77   1.760   0.720   4.968 -0.2076  0.4107 -0.0674
   20DMSO   CD1   78   1.786   0.576   4.861 -0.3929  0.0559 -0.2290
   20DMSO    OD   79   1.622   0.773   4.930  0.0303  0.0084 -0.5039
   20DMSO   CD2   80   1.747   0.634   5.123 -0.2099  0.0399  0.3956
   21DMSO    SD   81   0.173   2.752   5.108 -0.3080  0.0941  0.1276
   21DMSO   CD1   82   0.114   2.911   5.053 -0.2066  0.4624  0.1507
   21DMSO    OD   83   0.213   2.767   5.254  0.1613 -0.4771  0.6478
   21DMSO   CD2   84   0.015   2.664   5.105 -0.3267  0.3137 -0.6031
   22DMSO    SD   85   3.749   3.762   5.275 -0.2053  0.1745  0.3430
   22DMSO   CD1   86   3.607   3.687   5.362 -0.0501 -0.4183  0.7212
   22DMSO    OD   87   3.842   3.635   5.249 -0.3792  0.3213  0.0560
   22DMSO   CD2   88   3.665   3.789   5.119  0.0886 -0.2969 -0.2660
   23DMSO    SD   89   0.374   2.318   4.831  0.0053  0.1679  0.1437
   23DMSO   CD1   90   0.304   2.159   4.872 -0.3727  0.3207 -0.2869
   23DMSO    OD   91   0.296   2.424   4.898 -0.4820 -0.2190  0.3708
   23DMSO   CD2   92   0.534   2.297   4.904 -0.1381 -0.1362  0.2619
   24DMSO    SD   93   0.552   0.950   4.662 -0.3111 -0.4484  0.2418
   24DMSO   CD1   94   0.680   0.955   4.538 -0.0213 -0.1906 -0.2872
   24DMSO    OD   95   0.563   1.075   4.752  0.5931 -0.1025  0.3436
   24DMSO   CD2   96   0.411   0.975   4.554  0.4879  0.0221 -0.0678
   25DMSO    SD   97   4.355   0.338   5.083 -0.2788  0.0846  0.0102
   25DMSO   CD1   98   4.311   0.453   4.949  0.3320 -0.5427 -0.2546
   25DMSO    OD   99   4.394   0.209   5.013  0.3088 -0.3259  0.1779
   25DMSO   CD2  100   4.503   0.426   5.136 -0.2115  0.2532 -0.4795
   26DMSO    SD  101   4.117   4.062   5.096 -0.1479 -0.1736 -0.1237
   26DMSO   CD1  102   4.149   3.888   5.137 -0.8709 -0.1679  0.3258
   26DMSO    OD  103   4.210   4.100   4.986  0.5726 -0.2397 -0.2554
   26DMSO   CD2  104   3.953   4.033   5.022 -0.1238 -0.4546  0.5309
   27DMSO    SD  105   3.668   3.409   4.980 -0.0179  0.1268  0.0834
   27DMSO   CD1  106   3.630   3.269   5.092 -0.0295 -0.2083 -0.0701
   27DMSO    OD  107   3.787   3.371   4.897 -0.1022  0.0899 -0.1677
   27DMSO   CD2  108   3.520   3.399   4.881  0.1671 -0.1098  0.3348
   28DMSO    SD  109   3.529   2.928   4.869  0.4022  0.0432  0.0904
   28DMSO   CD1  110   3.593   2.830   5.005  0.0002  0.2350 -0.1609
   28DMSO    OD  111   3.464   3.051   4.924 -0.0441 -0.4823  0.1914
   28DMSO   CD2  112   3.686   2.966   4.791 -0.2219 -0.5814  0.2274
   29DMSO    SD  113   4.229   1.730   4.838 -0.5086  0.2436 -0.1376
   29DMSO   CD1  114   4.089   1.838   4.825 -0.3366  0.4676 -0.4610
   29DMSO    OD  115   4.297   1.728   4.699 -0.2631 -0.0642 -0.0269
   29DMSO   CD2  116   4.329   1.840   4.936 -0.1954  0.1882  0.3438
   30DMSO    SD  117   0.167   0.803   5.022 -0.1798  0.2710  0.0562
   30DMSO   CD1  118   0.246   0.734   4.875  0.0452  0.2376  0.1865
   30DMSO    OD  119   0.020   0.767   5.016  0.2369  0.1736  0.0356
   30DMSO   CD2  120   0.241   0.693   5.143 -0.2243 -0.0267  0.0316
   31DMSO    SD  121   3.888   0.208   5.052 -0.1959  0.0538 -0.0724
   31DMSO   CD1  122   3.938   0.370   4.998 -0.4751 -0.5239  0.2232
   31DMSO    OD  123   3.736   0.199   5.021 -1.0344  0.5286 -0.0887
   31DMSO   CD2  124   3.973   0.112   4.927  0.1380 -0.3576 -0.2247
   32DMSO    SD  125   3.244   3.657   5.176  0.1542 -0.6249  0.1321
   32DMSO   CD1  126   3.162   3.498   5.174  0.3933  0.1831  0.1255
   32DMSO    OD  127   3.356   3.647   5.071 -0.4028 -0.0759  0.2027
   32DMSO   CD2  128   3.111   3.754   5.106 -0.1267 -0.0233  0.3526
   33DMSO    SD  129   3.137   3.467   4.731  0.4871 -0.3124 -0.2455
   33DMSO   CD1  130   3.089   3.395   4.575 -0.0999 -0.4386  0.0022
   33DMSO    OD  131   3.026   3.552   4.786 -0.1698 -0.5228  0.0934
   33DMSO   CD2  132   3.159   3.324   4.831 -0.7999 -0.3397 -0.3378
   34DMSO    SD  133   2.911   2.416   4.832  0.1910  0.1584 -0.0532
   34DMSO   CD1  134   2.850   2.499   4.981 -0.2774  0.7066  0.2641
   34DMSO    OD  135   3.011   2.307   4.885 -0.3876 -0.1935  0.5502
   34DMSO   CD2  136   2.765   2.329   4.786 -0.0577 -0.2730  0.5620
   35DMSO    SD  137   3.845   2.423   5.082 -0.0370  0.4497 -0.3223
   35DMSO   CD1  138   3.828   2.553   5.204 -0.1465  0.6162 -0.7748
   35DMSO    OD  139   3.736   2.436   4.978 -0.1490 -0.1502  0.1665
   35DMSO   CD2  140   3.997   2.480   5.007 -0.3370 -0.6904 -0.2755
   36DMSO    SD  141   3.418   1.221   4.822  0.0308  0.2566 -0.2216
   36DMSO   CD1  142   3.281   1.279   4.721 -0.1479  0.7559 -0.0345
   36DMSO    OD  143   3.466   1.339   4.904  0.1837  0.0092 -0.1478
   36DMSO   CD2  144   3.325   1.114   4.931  0.1118 -0.5666 -0.3189
   37DMSO    SD  145   3.427   4.528   4.927  0.1621  0.1275  0.4719
   37DMSO   CD1  146   3.511   4.615   5.061 -0.0914 -0.1199 -0.1995
   37DMSO    OD  147   3.372   4.640   4.836  0.2871  0.1251  0.1806
   37DMSO   CD2  148   3.573   4.465   4.845  0.5851  0.0551  0.1663
   38DMSO    SD  149   2.636   4.448   4.944 -0.1798  0.2256 -0.1626
   38DMSO   CD1  150   2.571   4.561   5.073  0.4586  0.5174 -0.4060
   38DMSO    OD  151   2.532   4.334   4.936 -1.0700 -0.3594  0.1993
   38DMSO   CD2  152   2.606   4.559   4.810 -0.8145  0.1529 -0.0920
   39DMSO    SD  153   2.290   3.009   4.859  0.1907  0.0694 -0.2920
   39DMSO   CD1  154   2.383   2.897   4.963 -0.2062  0.6811 -0.0016
   39DMSO    OD  155   2.148   2.958   4.847  0.5042 -0.0234 -0.1996
   39DMSO   CD2  156   2.292   3.152   4.964  0.6043  0.3676  0.0527
   40DMSO    SD  157   2.379   2.291   4.921 -0.1282 -0.2739 -0.2058
   40DMSO   CD1  158   2.265   2.246   5.057 -0.2405  0.0530  0.1675
   40DMSO    OD  159   2.479   2.392   4.981 -0.0211  0.1569 -0.1246
   40DMSO   CD2  160   2.454   2.135   4.894  0.1248 -0.7666  0.6385
   41DMSO    SD  161   2.786   1.969   4.933 -0.0522  0.4872 -0.1739
   41DMSO   CD1  162   2.938   1.872   4.901 -0.5437  0.3478  0.4091
   41DMSO    OD  163   2.691   1.936   4.819  0.1409 -0.1375  0.0221
   41DMSO   CD2  164   2.730   1.876   5.077 -0.1224  0.1605 -0.1960
   42DMSO    SD  165   2.830   0.876   4.859 -0.0902  0.3324 -0.2062
   42DMSO   CD1  166   2.792   0.701   4.867  1.0925 -0.1501 -0.0600
   42DMSO    OD  167   2.715   0.947   4.927  0.1739 -0.4214  0.1665
   42DMSO   CD2  168   2.973   0.873   4.964 -0.6048 -0.0599  0.2241
   43DMSO    SD  169   2.950   0.085   5.045  0.1745 -0.0969 -0.1135
   43DMSO   CD1  170   2.846   0.203   4.952 -0.7592  0.1062  0.1103
   43DMSO    OD  171   2.858  -0.025   5.088  0.3512  0.6295  0.2917
   43DMSO   CD2  172   3.050   0.037   4.907 -0.4756  0.1021  0.0985
   44DMSO    SD  173   1.705   0.112   5.028 -0.0098  0.1607  0.2209
   44DMSO   CD1  174   1.606   0.230   4.939  0.5832  0.0616 -0.3096
   44DMSO    OD  175   1.799   0.046   4.933  0.2080  0.2400  0.0593
   44DMSO   CD2  176   1.790   0.223   5.135 -0.0274 -0.2299 -0.1346
   45DMSO    SD  177   1.922   3.423   4.880 -0.1910  0.0530 -0.1898
   45DMSO   CD1  178   1.966   3.594   4.912 -0.0850 -0.4826 -0.1944
   45DMSO    OD  179   1.867   3.356   5.001  0.4105 -0.2700 -0.1702
   45DMSO   CD2  180   1.789   3.446   4.764 -0.0243  0.1258  0.1196
   46DMSO    SD  181   1.862   2.591   4.842  0.1604 -0.3120 -0.1201
   46DMSO   CD1  182   1.941   2.724   4.936  0.1782 -0.0027  0.3157
   46DMSO    OD  183   1.932   2.461   4.884 -0.6759  0.3550  0.0745
   46DMSO   CD2  184   1.708   2.595   4.935  0.1157  0.3389  0.6259
   47DMSO    SD  185   1.834   1.866   4.890  0.2755 -0.3369 -0.1613
   47DMSO   CD1  186   1.859   2.017   4.995  0.2087 -0.0822  0.4734
   47DMSO    OD  187   1.907   1.758   4.969 -0.6318 -0.1171  0.1305
   47DMSO   CD2  188   1.659   1.854   4.915  0.1275 -0.1477 -0.2599
   48DMSO    SD  189   1.984   1.081   4.944  0.2050  0.1853 -0.0831
   48DMSO   CD1  190   2.064   0.963   4.839  0.0117  0.0951 -0.4686
   48DMSO    OD  191   1.834   1.076   4.903  0.1249  0.0845 -0.2170
   48DMSO   CD2  192   1.999   1.004   5.100 -0.0778  0.1266  0.4953
   49DMSO    SD  193   2.159   0.502   4.999 -0.2116 -0.2549  0.2604
   49DMSO   CD1  194   2.301   0.437   5.083 -0.0748 -0.1840 -0.2205
   49DMSO    OD  195   2.056   0.550   5.105  0.3071  0.4955  0.2318
   49DMSO   CD2  196   2.231   0.654   4.931 -0.0890 -0.2418  0.1648
   50DMSO    SD  197   1.321   4.051   4.953 -0.0793 -0.0970  0.2807
   50DMSO   CD1  198   1.346   3.883   4.915  0.3461 -0.0121  0.4804
   50DMSO    OD  199   1.423   4.137   4.872 -0.7113 -0.3037 -0.4086
   50DMSO   CD2  200   1.161   4.076   4.873  0.1165  0.9831  0.3631
   51DMSO    SD  201   0.610   2.828   4.987 -0.5319  0.1908  0.2349
   51DMSO   CD1  202   0.578   2.657   5.026 -0.2223 -0.1573 -0.4525
   51DMSO    OD  203   0.473   2.888   4.944 -0.5566  0.3168  0.3296
   51DMSO   CD2  204   0.646   2.891   5.150  0.1838  0.0420  0.4581
   52DMSO    SD  205   1.407   2.223   4.840  0.1720 -0.1106  0.0388
   52DMSO   CD1  206   1.323   2.354   4.927 -0.4664 -0.4288  0.3487
   52DMSO    OD  207   1.543   2.198   4.908  0.1351 -0.0025 -0.4338
   52DMSO   CD2  208   1.299   2.088   4.883  0.2547 -0.2034 -0.4099
   53DMSO    SD  209   0.943   1.571   4.796  0.4514  0.2614 -0.3526
   53DMSO   CD1  210   0.797   1.575   4.896  0.5534 -0.0061 -0.5589
   53DMSO    OD  211   0.999   1.719   4.783  0.3285  0.1240 -0.0419
   53DMSO   CD2  212   1.054   1.491   4.915 -0.0548  0.1402 -0.1015
   54DMSO    SD  213   1.422   1.184   5.011 -0.2030 -0.2969  0.1420
   54DMSO   CD1  214   1.568   1.268   4.948 -0.3392 -0.6971 -0.0820
   54DMSO    OD  215   1.324   1.174   4.894  1.0102 -0.1400  0.1492
   54DMSO   CD2  216   1.489   1.021   5.038  0.2994  0.2786  0.3847
   55DMSO    SD  217   1.360   0.505   4.913  0.0071  0.1501  0.1459
   55DMSO   CD1  218   1.186   0.459   4.925 -0.0004  0.3724 -0.3210
   55DMSO    OD  219   1.405   0.452   4.773  0.1101  0.2779  0.1249
   55DMSO   CD2  220   1.337   0.683   4.879  0.3201 -0.4062 -0.6585
   56DMSO    SD  221   4.451   4.321   4.983  0.3024 -0.2273 -0.0798
   56DMSO   CD1  222   4.616   4.248   5.003  0.1664  0.0174  0.0276
   56DMSO    OD  223   4.453   4.456   5.060 -0.3844  0.4030 -0.1010
   56DMSO   CD2  224   4.468   4.365   4.807  0.0798  0.0959 -0.6844
   57DMSO    SD  225   3.135   2.969   4.979 -0.0868  0.2406 -0.4886
   57DMSO   CD1  226   3.154   2.854   4.842  0.1367  0.1290  0.1261
   57DMSO    OD  227   2.993   2.971   5.026 -0.1184 -0.2325 -0.3038
   57DMSO   CD2  228   3.231   2.874   5.101  0.3943  0.0328  0.0336
   58DMSO    SD  229   4.422   2.255   5.023  0.2723  0.0260  0.0314
   58DMSO   CD1  230   4.430   2.399   4.919  0.3800  0.4222 -0.0398
   58DMSO    OD  231   4.473   2.133   4.944  0.7867  0.1642  0.6967
   58DMSO   CD2  232   4.541   2.301   5.145 -0.4818  0.2446  0.7769
   59DMSO    SD  233   0.262   1.724   5.020  0.6030  0.0521 -0.0840
   59DMSO   CD1  234   0.147   1.744   4.877 -0.5142  0.0976 -0.0187
   59DMSO    OD  235   0.324   1.584   5.001  0.1912  0.0765  0.3339
   59DMSO   CD2  236   0.392   1.838   4.954  0.0713 -0.1056 -0.1571
   60DMSO    SD  237   0.476   0.429   4.692  0.0783  0.0726 -0.0352
   60DMSO   CD1  238   0.385   0.321   4.582  0.0262  0.4754 -0.2790
   60DMSO    OD  239   0.452   0.570   4.643 -0.1368 -0.3064 -0.3227
   60DMSO   CD2  240   0.371   0.406   4.838 -0.3575 -0.8588  0.2584
   61DMSO    SD  241   0.251   0.086   5.010 -0.1637 -0.0041  0.0636
   61DMSO   CD1  242   0.237  -0.072   5.093 -0.0207 -0.3273 -0.7297
   61DMSO    OD  243   0.389   0.091   4.948  0.2524  0.3848  0.1026
   61DMSO   CD2  244   0.131   0.058   4.879 -0.0666  0.6990  0.2372
   62SOL     OW  245   0.608   0.230   0.350  0.2947 -0.1523  0.1849
   62SOL    HW2  246   0.674   0.160   0.345  1.4010  0.8736  0.1699
   62SOL    HW3  247   0.637   0.285   0.422 -0.5749  0.2929  0.1949
   62SOL    MW4  248   0.621   0.228   0.359  0.3259  0.0418  0.1842
   63SOL     OW  249   3.992   0.089   0.548  0.0713 -0.5968 -0.1962
   63SOL    HW2  250   4.069   0.043   0.516 -0.6866 -0.8934 -1.6359
   63SOL    HW3  251   4.008   0.181   0.525  0.1660 -0.5987 -0.1397
   63SOL    MW4  252   4.004   0.095   0.541 -0.0162 -0.6362 -0.3787
   64SOL     OW  253   3.827   0.347   0.223 -0.4157  0.7168  0.4004
   64SOL    HW2  254   3.845   0.336   0.129  0.4972  2.0991  0.4049
   64SOL    HW3  255   3.805   0.258   0.253 -1.1367  0.3333 -1.1983
   64SOL    MW4  256   3.827   0.334   0.214 -0.3904  0.8486  0.1901
   65SOL     OW  257   0.464   2.101   0.410  0.4645 -0.2382  0.7566
   65SOL    HW2  258   0.511   2.025   0.444 -0.5992 -1.4091 -0.3383
   65SOL    HW3  259   0.372   2.078   0.418  0.1364  0.9234  0.3690
   65SOL    MW4  260   0.458   2.088   0.415  0.2809 -0.2394  0.5610
   66SOL     OW  261   1.308   0.983   0.454 -0.1100 -0.3848 -0.3878
   66SOL    HW2  262   1.298   0.982   0.549  1.5459 -0.0193 -0.2097
   66SOL    HW3  263   1.276   0.897   0.426 -2.0444  0.0678  0.3388
   66SOL    MW4  264   1.302   0.972   0.463 -0.1467 -0.2769 -0.2684
   67SOL     OW  265   0.217   0.482   0.466 -0.5684 -0.1525 -0.3238
   67SOL    HW2  266   0.222   0.496   0.560  0.1977  0.7569 -0.4916
   67SOL    HW3  267   0.240   0.390   0.454 -0.1474 -0.1356  0.3295
   67SOL    MW4  268   0.220   0.472   0.477 -0.4117 -0.0303 -0.2597
   68SOL     OW  269   0.495   0.905   0.461  0.5118 -0.2919 -0.1871
   68SOL    HW2  270   0.503   0.866   0.548 -1.8943 -0.9438 -0.2430
   68SOL    HW3  271   0.466   0.833   0.405  0.3240  0.5501 -1.1801
   68SOL    MW4  272   0.493   0.890   0.465  0.1696 -0.2669 -0.3255
   69SOL     OW  273   0.912   0.838   0.487  0.1421  0.3044  0.0737
   69SOL    HW2  274   0.895   0.870   0.576 -2.6278 -2.0141  0.4869
   69SOL    HW3  275   0.851   0.886   0.432 -0.1025 -0.2361 -0.1336
   69SOL    MW4  276   0.902   0.848   0.492 -0.2557 -0.0728  0.1009
   70SOL     OW  277   0.728   1.004   0.377  0.1470  0.5813 -0.5561
   70SOL    HW2  278   0.731   0.988   0.282 -1.3336  1.1679 -0.7069
   70SOL    HW3  279   0.647   0.962   0.406  1.5101 -1.1978  0.7767
   70SOL    MW4  280   0.718   0.996   0.368  0.1315  0.4240 -0.4001
   71SOL     OW  281   0.184   2.030   0.443 -0.1081 -0.2566  0.3147
   71SOL    HW2  282   0.177   2.126   0.441  1.1613 -0.1691 -0.7862
   71SOL    HW3  283   0.124   2.001   0.374  1.3338 -0.1083 -1.0366
   71SOL    MW4  284   0.175   2.039   0.433  0.2496 -0.2255 -0.0088
   72SOL     OW  285   4.455   1.676   0.492 -0.0587 -0.5973 -0.7625
   72SOL    HW2  286   4.477   1.684   0.584 -0.5846 -0.8863 -0.6081
   72SOL    HW3  287   4.490   1.591   0.466  2.3428  0.5777 -1.4862
   72SOL    MW4  288   4.463   1.666   0.500  0.1887 -0.4804 -0.8376
   73SOL     OW  289   0.432   2.364   0.515  0.3873 -0.4101  0.3837
   73SOL    HW2  290   0.493   2.415   0.461  0.9414 -0.4404  0.9863
   73SOL    HW3  291   0.464   2.275   0.509 -0.6341 -0.7202 -0.7408
   73SOL    MW4  292   0.444   2.359   0.507  0.3256 -0.4550  0.3148
   74SOL     OW  293   0.135   2.651   0.198 -0.2402  0.3946  0.0957
   74SOL    HW2  294   0.087   2.666   0.117  0.4766  0.3541 -0.3388
   74SOL    HW3  295   0.171   2.563   0.189 -0.4577  0.2508  0.6095
   74SOL    MW4  296   0.133   2.641   0.186 -0.1743  0.3703  0.1062
   75SOL     OW  297   4.238   2.882   0.447  0.2133 -0.7032 -0.3664
   75SOL    HW2  298   4.317   2.839   0.412  0.3484 -0.8819  0.1528
   75SOL    HW3  299   4.233   2.965   0.400  2.3526  0.6314  1.6560
   75SOL    MW4  300   4.248   2.887   0.436  0.5134 -0.5507 -0.0311
   76SOL     OW  301   4.326   3.369   0.431  0.4529  0.3780 -0.2417
   76SOL    HW2  302   4.275   3.289   0.416  1.4323 -0.0656 -1.2975
   76SOL    HW3  303   4.417   3.341   0.421  0.9236  1.1247  1.7698
   76SOL    MW4  304   4.332   3.355   0.427  0.6442  0.4180 -0.1156
   77SOL     OW  305   0.281   3.090   0.381  0.0547 -0.5526  0.1477
   77SOL    HW2  306   0.368   3.114   0.414 -0.4244  1.4066  0.0662
   77SOL    HW3  307   0.298   3.041   0.301  1.0865 -0.0144  0.0322
   77SOL    MW4  308   0.295   3.087   0.375  0.1276 -0.2231  0.1217
   78SOL     OW  309   0.711   3.325   0.387  0.6007 -0.0077 -0.1946
   78SOL    HW2  310   0.702   3.409   0.432  0.4391 -0.0078 -0.2255
   78SOL    HW3  311   0.691   3.345   0.295 -0.0571 -0.1975 -0.0996
   78SOL    MW4  312   0.707   3.338   0.381  0.4926 -0.0328 -0.1862
   79SOL     OW  313   1.058   3.872   0.186  0.2306 -0.0818  0.3173
   79SOL    HW2  314   1.027   3.953   0.225  1.7559  0.4766  0.4200
   79SOL    HW3  315   1.020   3.803   0.240 -1.3742  0.5495  0.0028
   79SOL    MW4  316   1.049   3.873   0.199  0.2201  0.0752  0.2894
   80SOL     OW  317   3.798   3.374   0.420 -0.2846 -0.0017  0.5925
   80SOL    HW2  318   3.814   3.459   0.463 -0.5014  0.3921 -0.0984
   80SOL    HW3  319   3.850   3.312   0.471  0.5516  0.6865  0.5951
   80SOL    MW4  320   3.807   3.377   0.433 -0.2029  0.1411  0.5017
   81SOL     OW  321   0.193   3.818   0.443  0.0977  0.0645 -0.3954
   81SOL    HW2  322   0.158   3.858   0.364  1.7274  1.4801 -0.4181
   81SOL    HW3  323   0.154   3.869   0.515 -0.4447 -0.4594 -0.3114
   81SOL    MW4  324   0.183   3.830   0.442  0.2411  0.1822 -0.3873
   82SOL     OW  325   0.184   0.006   0.383 -0.2741 -0.6535 -0.0093
   82SOL    HW2  326   0.142   0.004   0.297  0.1672 -1.3522 -0.2102
   82SOL    HW3  327   0.190  -0.086   0.408  0.2223 -0.4895  0.4665
   82SOL    MW4  328   0.179  -0.006   0.375 -0.1504 -0.7241  0.0269
   83SOL     OW  329   0.208   4.437   0.502 -0.1664  0.1837 -0.7264
   83SOL    HW2  330   0.137   4.380   0.472 -0.1619 -0.8230  1.1363
   83SOL    HW3  331   0.288   4.387   0.484 -0.1793 -0.5562  1.1947
   83SOL    MW4  332   0.210   4.423   0.495 -0.1675 -0.0467 -0.2272
   84SOL     OW  333   4.463   4.290   0.417  0.2430  0.2521 -0.3306
   84SOL    HW2  334   4.464   4.197   0.436  0.2068 -0.1586 -2.2406
   84SOL    HW3  335   4.374   4.318   0.440  0.4879 -0.0214  0.9560
   84SOL    MW4  336   4.451   4.282   0.422  0.2705  0.1618 -0.4128
   85SOL     OW  337   0.703   3.606   0.480  0.1716  0.3218 -0.2962
   85SOL    HW2  338   0.699   3.618   0.575 -0.4820 -0.0079 -0.2807
   85SOL    HW3  339   0.622   3.645   0.447 -0.9496 -1.9862 -0.4442
   85SOL    MW4  340   0.692   3.612   0.488 -0.0626 -0.0262 -0.3137
   86SOL     OW  341   0.794   0.007   0.365  0.0393  0.0413  0.0442
   86SOL    HW2  342   0.752  -0.066   0.411 -0.2508  0.2619  0.1273
   86SOL    HW3  343   0.873   0.024   0.416 -0.3996  0.4365  0.6011
   86SOL    MW4  344   0.799  -0.001   0.378 -0.0569  0.1225  0.1286
   87SOL     OW  345   0.354   0.213   0.469 -0.5443  0.3697  0.1703
   87SOL    HW2  346   0.318   0.136   0.425  0.1621  0.7901 -1.1747
   87SOL    HW3  347   0.436   0.230   0.423 -0.1903  1.3084  1.1369
   87SOL    MW4  348   0.360   0.205   0.457 -0.4044  0.5490  0.1204
   88SOL     OW  349   4.486   0.593   0.361  0.1798 -0.3702 -0.3373
   88SOL    HW2  350   4.522   0.606   0.274  1.5518  0.9564  0.3931
   88SOL    HW3  351   4.554   0.544   0.408 -0.3407 -0.6637  0.1229
   88SOL    MW4  352   4.500   0.588   0.356  0.2922 -0.2339 -0.1802
   89SOL     OW  353   0.696   4.444   0.480 -0.2916 -0.5974 -0.2199
   89SOL    HW2  354   0.715   4.429   0.573  0.6137  3.0147  0.2605
   89SOL    HW3  355   0.764   4.394   0.433  0.2769 -1.0927  1.1092
   89SOL    MW4  356   0.708   4.435   0.486 -0.0971 -0.1862  0.0189
   90SOL     OW  357   1.163   0.731   0.380 -0.2397 -0.0639 -0.0584
   90SOL    HW2  358   1.093   0.782   0.421  1.0694  0.6647  1.3411
   90SOL    HW3  359   1.192   0.670   0.447  0.5135 -0.3208 -0.6001
   90SOL    MW4  360   1.157   0.730   0.394  0.0324 -0.0016  0.0548
   91SOL     OW  361   0.656   0.498   0.229 -0.7981 -0.0799 -0.5011
   91SOL    HW2  362   0.641   0.403   0.234 -0.0181 -0.2055 -0.4777
   91SOL    HW3  363   0.751   0.507   0.223 -0.5387  0.8420  3.4437
   91SOL    MW4  364   0.666   0.486   0.229 -0.6610  0.0252  0.0225
   92SOL     OW  365   0.296   1.125   0.487 -0.0504  0.1895 -0.2094
   92SOL    HW2  366   0.215   1.091   0.448  0.0678 -0.1145 -0.1944
   92SOL    HW3  367   0.355   1.050   0.487 -0.3100 -0.0327  1.2643
   92SOL    MW4  368   0.293   1.110   0.482 -0.0690  0.1201 -0.0130
   93SOL     OW  369   0.507   1.601   0.470  0.1568 -0.0733  0.2605
   93SOL    HW2  370   0.592   1.562   0.449 -0.3131 -1.0300  0.1239
   93SOL    HW3  371   0.443   1.543   0.429 -0.5826  0.4365  0.6839
   93SOL    MW4  372   0.510   1.588   0.462 -0.0028 -0.1323  0.2983
   94SOL     OW  373   0.320   1.402   0.377 -0.1563 -0.6752 -0.4099
   94SOL    HW2  374   0.335   1.308   0.375 -0.0782 -0.7382  1.7205
   94SOL    HW3  375   0.227   1.411   0.397 -0.6268 -0.2740 -2.6360
   94SOL    MW4  376   0.310   1.391   0.380 -0.2081 -0.6306 -0.4225
   95SOL     OW  377   0.315   2.858   0.202 -0.1585 -0.3498 -0.1685
   95SOL    HW2  378   0.377   2.818   0.263 -0.6269  0.4426  0.8459
   95SOL    HW3  379   0.252   2.789   0.183  0.0089 -0.6139  0.2272
   95SOL    MW4  380   0.315   2.844   0.207 -0.1982 -0.2801  0.0176
   96SOL     OW  381   4.481   2.719   0.423 -0.2079 -0.2886  0.3822
   96SOL    HW2  382   4.506   2.686   0.337  1.1349  0.1891  0.5781
   96SOL    HW3  383   4.561   2.757   0.459 -0.6099 -0.9578  2.0638
   96SOL    MW4  384   4.495   2.720   0.417 -0.0838 -0.3138  0.6299
   97SOL     OW  385   3.773   2.270   0.347 -0.2155 -0.3477 -0.3354
   97SOL    HW2  386   3.723   2.351   0.362  0.8820  0.2836 -0.0241
   97SOL    HW3  387   3.707   2.200   0.352 -1.1427  0.5050 -0.3967
   97SOL    MW4  388   3.757   2.272   0.350 -0.1930 -0.1519 -0.3024
   98SOL     OW  389   0.602   2.481   0.324  0.1434  0.1495 -0.0726
   98SOL    HW2  390   0.580   2.422   0.252 -0.3207 -1.0612  1.0391
   98SOL    HW3  391   0.693   2.462   0.344  0.5454  1.1427 -0.9443
   98SOL    MW4  392   0.611   2.471   0.317  0.1352  0.1208 -0.0410
   99SOL     OW  393   0.443   2.709   0.411 -0.1619 -0.1931  0.0740
   99SOL    HW2  394   0.487   2.646   0.354 -0.6878 -1.4388  1.0119
   99SOL    HW3  395   0.513   2.762   0.448  0.4894 -1.5245  0.7974
   99SOL    MW4  396   0.458   2.708   0.409 -0.1454 -0.5331  0.2932
  100SOL     OW  397   4.156   3.155   0.337 -0.1442  0.0867  0.0531
  100SOL    HW2  398   4.099   3.188   0.268  0.6986  0.6106 -0.4041
  100SOL    HW3  399   4.103   3.159   0.416 -0.3977  1.6140 -0.1750
  100SOL    MW4  400   4.142   3.160   0.338 -0.0664  0.3574 -0.0373
  101SOL     OW  401   0.219   2.842   0.499 -0.3880 -0.0820 -0.1319
  101SOL    HW2  402   0.228   2.918   0.441  0.7315 -1.5343 -1.8955
  101SOL    HW3  403   0.290   2.783   0.472 -1.8426 -2.1773  0.5550
  101SOL    MW4  404   0.230   2.844   0.488 -0.4322 -0.5501 -0.2739
  102SOL     OW  405   1.014   0.509   0.287 -0.1466  0.0925  0.0549
  102SOL    HW2  406   1.061   0.592   0.293  0.2612 -0.1031 -0.3758
  102SOL    HW3  407   1.082   0.443   0.299 -0.6075 -0.1664  1.2506
  102SOL    MW4  408   1.030   0.511   0.289 -0.1536  0.0325  0.1559
  103SOL     OW  409   0.106   3.290   0.465 -0.5310 -0.0158 -0.5235
  103SOL    HW2  410   0.159   3.370   0.465 -1.1951  0.4329 -1.1323
  103SOL    HW3  411   0.166   3.222   0.434  0.0103  0.2635 -0.1002
  103SOL    MW4  412   0.121   3.292   0.461 -0.5472  0.0803 -0.5480
  104SOL     OW  413   0.910   3.738   0.397 -0.4039  0.3056 -0.2508
  104SOL    HW2  414   0.887   3.824   0.432 -1.3738 -0.4058  0.9159
  104SOL    HW3  415   0.830   3.685   0.408 -0.1193 -0.4981 -1.7842
  104SOL    MW4  416   0.896   3.742   0.403 -0.4943  0.1057 -0.2992
  105SOL     OW  417   1.153   3.641   0.536  0.1879  0.0693 -0.0670
  105SOL    HW2  418   1.218   3.645   0.466 -0.8147 -0.3134 -1.0401
  105SOL    HW3  419   1.071   3.664   0.493 -0.6137 -1.1914  0.7590
  105SOL    MW4  420   1.151   3.645   0.521 -0.0501 -0.1475 -0.0864
  106SOL     OW  421   0.563   4.009   0.539  0.0578 -0.3604 -0.2489
  106SOL    HW2  422   0.524   4.010   0.626 -0.7684 -0.3841 -0.6147
  106SOL    HW3  423   0.513   4.074   0.489  0.4301 -0.4492 -0.7455
  106SOL    MW4  424   0.551   4.018   0.544 -0.0021 -0.3752 -0.3627
  107SOL     OW  425   1.330   3.860   0.117 -0.2770  0.3121 -0.3902
  107SOL    HW2  426   1.236   3.842   0.114 -0.4292  1.3222 -1.9019
  107SOL    HW3  427   1.361   3.840   0.029  0.7560  0.9046 -0.1622
  107SOL    MW4  428   1.322   3.855   0.105 -0.1608  0.5235 -0.5596
  108SOL     OW  429   0.452   4.321   0.535 -0.0454  0.4837 -0.0285
  108SOL    HW2  430   0.455   4.361   0.622  1.1685  1.0566 -0.3322
  108SOL    HW3  431   0.530   4.353   0.491 -0.2292 -0.4640 -1.0539
  108SOL    MW4  432   0.463   4.331   0.541  0.0905  0.4343 -0.2039
  109SOL     OW  433   0.911   0.552   0.528  0.0830  0.7065  0.0690
  109SOL    HW2  434   0.919   0.647   0.539  0.0343  0.7310 -0.0984
  109SOL    HW3  435   0.947   0.535   0.440 -0.3967  0.6384 -0.1169
  109SOL    MW4  436   0.917   0.562   0.518  0.0133  0.7007  0.0224
  110SOL     OW  437   0.653   0.443   0.549  0.3619  0.2984 -0.1190
  110SOL    HW2  438   0.744   0.469   0.534  0.6381 -0.9763 -0.6744
  110SOL    HW3  439   0.601   0.513   0.509  1.0951  0.3591 -0.9632
  110SOL    MW4  440   0.658   0.456   0.542  0.4950  0.1382 -0.3037
  111SOL     OW  441   0.463   0.639   0.353 -0.0708  0.5146 -0.2151
  111SOL    HW2  442   0.403   0.569   0.379  2.2658 -0.5601  2.4875
  111SOL    HW3  443   0.530   0.596   0.301  1.3791  0.6723  1.4561
  111SOL    MW4  444   0.464   0.624   0.350  0.4288  0.3936  0.3620
  112SOL     OW  445   1.510   0.533   0.583  0.4116 -0.3890 -0.3779
  112SOL    HW2  446   1.546   0.531   0.671  0.0611 -1.9560 -0.2498
  112SOL    HW3  447   1.576   0.489   0.529 -0.4216 -1.5154 -0.4844
  112SOL    MW4  448   1.524   0.527   0.587  0.2555 -0.7443 -0.3750
  113SOL     OW  449   2.018   0.710   0.415 -0.4796 -0.3463 -0.0333
  113SOL    HW2  450   1.930   0.730   0.447  0.2041  0.3353  1.4958
  113SOL    HW3  451   2.051   0.794   0.383  0.0219 -0.3624  0.4377
  113SOL    MW4  452   2.011   0.723   0.415 -0.3233 -0.2585  0.2306
  114SOL     OW  453   1.613   1.012   0.485  0.3605 -0.0739  0.5774
  114SOL    HW2  454   1.528   0.980   0.457  0.7129  0.0700 -0.7228
  114SOL    HW3  455   1.666   0.933   0.497  1.0825 -0.0538 -2.1405
  114SOL    MW4  456   1.609   0.997   0.483  0.5023 -0.0522  0.0473
  115SOL     OW  457   0.761   1.496   0.411 -0.1465  0.6018  0.2210
  115SOL    HW2  458   0.775   1.402   0.426 -2.9147  0.2398  0.6883
  115SOL    HW3  459   0.769   1.507   0.317 -0.2180 -0.1724  0.1202
  115SOL    MW4  460   0.764   1.485   0.401 -0.5212  0.4519  0.2694
  116SOL     OW  461   0.826   1.239   0.445  0.1122 -0.2687 -0.6835
  116SOL    HW2  462   0.786   1.156   0.419 -1.3233 -0.4663  2.0074
  116SOL    HW3  463   0.918   1.218   0.460 -0.5501 -1.7609  1.5043
  116SOL    MW4  464   0.832   1.225   0.443 -0.1645 -0.4916 -0.0398
  117SOL     OW  465   1.740   1.442   0.361 -0.1611  0.2574  0.4416
  117SOL    HW2  466   1.787   1.504   0.417  1.6018  0.5765 -1.3358
  117SOL    HW3  467   1.682   1.497   0.309 -0.0307  0.2278  0.2623
  117SOL    MW4  468   1.739   1.458   0.362  0.0887  0.2956  0.1835
  118SOL     OW  469   1.129   1.196   0.486 -0.2832 -0.0606 -0.0429
  118SOL    HW2  470   1.183   1.119   0.471  1.0053  0.7180  0.4911
  118SOL    HW3  471   1.173   1.266   0.438 -0.0173  0.8855  1.5182
  118SOL    MW4  472   1.142   1.195   0.478 -0.0781  0.1670  0.2336
  119SOL     OW  473   1.006   1.642   0.508 -0.3573 -0.6562  0.2209
  119SOL    HW2  474   0.944   1.571   0.488 -0.7377 -0.3056  0.1382
  119SOL    HW3  475   0.972   1.680   0.589 -0.6662  0.0027 -0.2112
  119SOL    MW4  476   0.993   1.638   0.516 -0.4483 -0.5230  0.1530
  120SOL     OW  477   0.629   1.868   0.487  0.3789  0.2731  0.0255
  120SOL    HW2  478   0.710   1.849   0.440  0.1565 -0.4050 -0.0950
  120SOL    HW3  479   0.578   1.787   0.481  0.4853  0.0494  1.7087
  120SOL    MW4  480   0.633   1.854   0.480  0.3636  0.1541  0.2317
  121SOL     OW  481   0.864   1.854   0.362 -0.0207 -0.0577  0.3039
  121SOL    HW2  482   0.922   1.795   0.410  0.3094 -0.0608 -0.0886
  121SOL    HW3  483   0.916   1.933   0.350 -0.0038 -0.1548 -0.2777
  121SOL    MW4  484   0.879   1.856   0.367  0.0251 -0.0709  0.1754
  122SOL     OW  485   0.856   2.469   0.441 -0.4965  0.1443 -0.4561
  122SOL    HW2  486   0.903   2.550   0.425 -0.0563 -0.1423 -0.6263
  122SOL    HW3  487   0.845   2.465   0.536 -0.4377  0.3552 -0.4413
  122SOL    MW4  488   0.861   2.479   0.451 -0.4307  0.1343 -0.4766
  123SOL     OW  489   0.506   2.267   0.188  0.2682  0.4327 -0.0640
  123SOL    HW2  490   0.486   2.213   0.264  1.3755  0.8066  0.5035
  123SOL    HW3  491   0.556   2.210   0.130  1.1061  0.7254  0.3641
  123SOL    MW4  492   0.510   2.253   0.190  0.5248  0.5207  0.0674
  124SOL     OW  493   0.987   2.677   0.324  0.5811 -0.3647  0.4806
  124SOL    HW2  494   0.992   2.693   0.230 -0.4098 -1.0300  0.3061
  124SOL    HW3  495   0.977   2.763   0.363 -1.8424 -0.2970 -0.2340
  124SOL    MW4  496   0.987   2.690   0.317  0.1306 -0.4435  0.3633
  125SOL     OW  497   0.249   2.397   0.155  0.4967 -0.1757 -0.0990
  125SOL    HW2  498   0.332   2.358   0.127  0.8633 -0.5024  1.4282
  125SOL    HW3  499   0.232   2.360   0.241 -1.4108 -0.3441 -0.5248
  125SOL    MW4  500   0.258   2.387   0.162  0.2934 -0.2410  0.0463
  126SOL     OW  501   0.642   2.859   0.500  0.1257  0.2741  0.0131
  126SOL    HW2  502   0.659   2.851   0.594  0.9131 -1.0465 -0.2258
  126SOL    HW3  503   0.594   2.941   0.491  0.2396  0.5217  1.5440
  126SOL    MW4  504   0.638   2.869   0.511  0.2446  0.1325  0.1835
  127SOL     OW  505   0.959   3.211   0.488  0.1044 -0.4668  0.0426
  127SOL    HW2  506   0.928   3.223   0.577 -0.4106 -0.2835 -0.1617
  127SOL    HW3  507   0.889   3.246   0.433 -0.4231 -2.2863 -0.4868
  127SOL    MW4  508   0.946   3.217   0.492 -0.0331 -0.6827 -0.0542
  128SOL     OW  509   1.415   3.974   0.482 -0.3297 -0.3072  0.0753
  128SOL    HW2  510   1.409   3.883   0.451  0.1514 -0.0487 -0.7922
  128SOL    HW3  511   1.388   4.027   0.407  1.2857  0.3475 -0.0577
  128SOL    MW4  512   1.410   3.969   0.468 -0.0531 -0.1867 -0.0567
  129SOL     OW  513   1.029   4.115   0.352  0.2184 -0.4122 -0.2938
  129SOL    HW2  514   0.994   4.201   0.326 -0.2087 -0.8255 -1.0973
  129SOL    HW3  515   0.956   4.072   0.397  0.1435 -0.7059 -0.6910
  129SOL    MW4  516   1.015   4.121   0.354  0.1521 -0.5055 -0.4522
  130SOL     OW  517   0.477   3.770   0.423 -0.5746  0.2198  0.0885
  130SOL    HW2  518   0.384   3.787   0.434 -0.9411 -0.2584 -2.0618
  130SOL    HW3  519   0.520   3.849   0.457 -1.7497  0.4202  1.1299
  130SOL    MW4  520   0.471   3.783   0.429 -0.7780  0.1831 -0.0578
  131SOL     OW  521   0.925   4.367   0.330 -0.1067  0.1778  0.0220
  131SOL    HW2  522   0.968   4.416   0.400  0.3600  0.4081 -0.4165
  131SOL    HW3  523   0.920   4.430   0.257  0.3490 -0.3694 -0.4882
  131SOL    MW4  524   0.930   4.382   0.329  0.0150  0.1360 -0.1032
  132SOL     OW  525   1.232   0.507   0.522  0.2191  0.2842  0.4189
  132SOL    HW2  526   1.221   0.419   0.486  0.6381 -0.3737  1.8690
  132SOL    HW3  527   1.326   0.513   0.541  0.2262  1.1245  0.1607
  132SOL    MW4  528   1.243   0.496   0.520  0.2753  0.3083  0.5762
  133SOL     OW  529   1.028   0.082   0.492  0.5093 -0.0760  0.1918
  133SOL    HW2  530   1.071  -0.002   0.509  0.2232  0.0181  1.4106
  133SOL    HW3  531   0.995   0.110   0.577 -0.8807  0.4554 -0.4980
  133SOL    MW4  532   1.029   0.075   0.505  0.2881  0.0065  0.2616
  134SOL     OW  533   1.680   0.347   0.457  0.3106  0.0840  0.0218
  134SOL    HW2  534   1.682   0.359   0.362  0.0154 -2.3333 -0.3272
  134SOL    HW3  535   1.767   0.313   0.479 -0.1349 -0.8467  0.3809
  134SOL    MW4  536   1.692   0.344   0.447  0.2129 -0.3577  0.0231
  135SOL     OW  537   1.767   0.780   0.546 -0.2465 -0.2569 -0.2225
  135SOL    HW2  538   1.807   0.827   0.619 -1.2074  0.3433 -0.0710
  135SOL    HW3  539   1.692   0.735   0.585  0.5279 -1.7465 -0.4090
  135SOL    MW4  540   1.762   0.780   0.561 -0.2711 -0.3742 -0.2271
  136SOL     OW  541   1.198   0.265   0.369 -0.4363 -0.4543 -0.1323
  136SOL    HW2  542   1.118   0.225   0.404  0.9734 -2.4671  0.9086
  136SOL    HW3  543   1.269   0.224   0.418  1.2922  0.7163 -1.5801
  136SOL    MW4  544   1.197   0.254   0.380 -0.0223 -0.5654 -0.1860
  137SOL     OW  545   2.284   1.062   0.263 -0.6846  0.1479  0.2216
  137SOL    HW2  546   2.290   1.047   0.357  0.1125 -1.3278 -0.0532
  137SOL    HW3  547   2.279   0.974   0.225 -0.8091  0.7265 -1.1313
  137SOL    MW4  548   2.284   1.048   0.271 -0.5959  0.0295  0.0069
  138SOL     OW  549   2.253   0.801   0.585 -0.3918 -0.0182  0.0284
  138SOL    HW2  550   2.173   0.756   0.556 -0.6900  1.3422 -1.3684
  138SOL    HW3  551   2.324   0.742   0.561 -0.9122 -0.7061  0.1715
  138SOL    MW4  552   2.251   0.787   0.578 -0.4998  0.0705 -0.1370
  139SOL     OW  553   1.863   1.198   0.418 -0.3373  0.2690  0.5064
  139SOL    HW2  554   1.788   1.147   0.447 -0.1690 -0.2494  0.0440
  139SOL    HW3  555   1.825   1.274   0.375 -0.5929  0.3512  0.8765
  139SOL    MW4  556   1.848   1.201   0.416 -0.3488  0.2115  0.4942
  140SOL     OW  557   1.534   1.282   0.481  0.0751  0.0584 -0.4584
  140SOL    HW2  558   1.555   1.189   0.470 -0.5199 -0.0389 -0.8093
  140SOL    HW3  559   1.611   1.328   0.449  1.3142 -0.3331  1.8509
  140SOL    MW4  560   1.547   1.276   0.475  0.1601 -0.0061 -0.2000
  141SOL     OW  561   1.306   1.415   0.390 -0.1063 -0.2301  0.0183
  141SOL    HW2  562   1.379   1.365   0.426 -0.0209  0.5184  0.9237
  141SOL    HW3  563   1.323   1.505   0.418 -0.0792  0.3781 -1.8481
  141SOL    MW4  564   1.318   1.420   0.398 -0.0915 -0.0511 -0.1085
  142SOL     OW  565   1.301   1.721   0.501  0.0599  0.4082 -0.0984
  142SOL    HW2  566   1.318   1.718   0.595  1.8778 -2.1513 -0.4690
  142SOL    HW3  567   1.219   1.674   0.490  0.3365 -0.1213  0.1006
  142SOL    MW4  568   1.293   1.714   0.512  0.3362  0.0006 -0.1210
  143SOL     OW  569   1.084   2.055   0.427 -0.4953  0.1098 -0.3021
  143SOL    HW2  570   1.107   2.045   0.519 -0.3862 -0.0794 -0.3480
  143SOL    HW3  571   1.159   2.017   0.380  0.2632  1.8247 -0.4980
  143SOL    MW4  572   1.097   2.048   0.433 -0.3808  0.3111 -0.3340
  144SOL     OW  573   1.375   2.454   0.453 -0.4591  0.3099 -0.3159
  144SOL    HW2  574   1.297   2.399   0.460 -0.7774  0.5963 -1.4053
  144SOL    HW3  575   1.342   2.537   0.418  0.1941  0.7802  0.1745
  144SOL    MW4  576   1.360   2.458   0.449 -0.4149  0.4098 -0.3949
  145SOL     OW  577   2.006   2.053   0.473  0.4226 -0.1151  0.1441
  145SOL    HW2  578   2.021   2.051   0.567 -0.3710 -0.0075  0.2817
  145SOL    HW3  579   2.088   2.023   0.434  0.3362 -1.3926  0.9181
  145SOL    MW4  580   2.019   2.049   0.480  0.3065 -0.2694  0.2644
  146SOL     OW  581   1.544   2.071   0.479  0.2942 -0.2563  0.4936
  146SOL    HW2  582   1.571   2.156   0.446  0.6799 -0.1368  1.1077
  146SOL    HW3  583   1.463   2.052   0.433  0.1714  0.4722  0.4046
  146SOL    MW4  584   1.537   2.079   0.469  0.3289 -0.1444  0.5629
  147SOL     OW  585   1.113   2.323   0.480 -0.4526  0.3368  0.6711
  147SOL    HW2  586   1.023   2.357   0.473 -0.2326  0.6980 -0.3945
  147SOL    HW3  587   1.107   2.232   0.450 -0.0167  1.0835 -1.7764
  147SOL    MW4  588   1.100   2.315   0.475 -0.3661  0.4830  0.2076
  148SOL     OW  589   0.917   2.915   0.455 -0.2413  0.1149  0.1267
  148SOL    HW2  590   0.830   2.874   0.458  0.1637 -0.7382  0.7171
  148SOL    HW3  591   0.899   3.009   0.456 -1.1484 -0.0527  0.7897
  148SOL    MW4  592   0.903   2.922   0.456 -0.3076 -0.0198  0.2921
  149SOL     OW  593   2.035   2.363   0.459 -0.1150 -0.2113 -0.4587
  149SOL    HW2  594   2.119   2.384   0.499 -0.4749  0.0918  0.1455
  149SOL    HW3  595   2.031   2.268   0.461  0.2391 -0.2302 -0.5472
  149SOL    MW4  596   2.046   2.353   0.464 -0.1157 -0.1738 -0.3906
  150SOL     OW  597   1.697   3.970   0.493  0.2869 -0.3076 -0.1609
  150SOL    HW2  598   1.601   3.962   0.495  0.2053  0.2274 -1.5258
  150SOL    HW3  599   1.727   3.887   0.456  0.2896 -0.0609 -0.7116
  150SOL    MW4  600   1.688   3.958   0.488  0.2765 -0.2045 -0.4136
  151SOL     OW  601   1.300   4.114   0.283 -0.1001  0.7509 -0.2345
  151SOL    HW2  602   1.305   4.057   0.207  1.2667 -0.6986  0.8982
  151SOL    HW3  603   1.212   4.100   0.318  0.7615 -1.9991  0.9868
  151SOL    MW4  604   1.289   4.104   0.278  0.1939  0.1968  0.0761
  152SOL     OW  605   1.794   2.745   0.439  0.3396  0.0430 -0.3792
  152SOL    HW2  606   1.702   2.771   0.432  0.5055  0.1367 -2.5312
  152SOL    HW3  607   1.808   2.686   0.365  2.2885  0.8652 -0.6958
  152SOL    MW4  608   1.784   2.740   0.428  0.6186  0.1638 -0.7049
  153SOL     OW  609   1.635   3.522   0.346 -0.2194 -0.2195 -0.1290
  153SOL    HW2  610   1.587   3.469   0.411  0.8500 -0.7070  0.2735
  153SOL    HW3  611   1.673   3.457   0.286 -0.3245  0.1829 -0.6315
  153SOL    MW4  612   1.633   3.506   0.347 -0.0922 -0.2307 -0.1422
  154SOL     OW  613   1.194   3.360   0.569 -0.5158 -0.2507 -0.6352
  154SOL    HW2  614   1.175   3.450   0.542  0.8625 -0.6766 -3.1551
  154SOL    HW3  615   1.117   3.310   0.540  0.3186 -0.4581 -2.6054
  154SOL    MW4  616   1.181   3.365   0.562 -0.2239 -0.3343 -1.2276
  155SOL     OW  617   1.499   3.366   0.540  0.2712  0.0350 -0.1431
  155SOL    HW2  618   1.404   3.356   0.540  0.3974 -1.3500  0.4974
  155SOL    HW3  619   1.532   3.277   0.527  1.4970  0.2899  1.1305
  155SOL    MW4  620   1.491   3.353   0.538  0.4496 -0.1141  0.1095
  156SOL     OW  621   0.831   3.972   0.518 -0.2114 -0.2839  0.4422
  156SOL    HW2  622   0.865   3.985   0.607 -0.0541  2.0410  0.0762
  156SOL    HW3  623   0.737   3.992   0.525  0.0072  0.9820 -0.1189
  156SOL    MW4  624   0.823   3.976   0.531 -0.1618  0.1899  0.3199
  157SOL     OW  625   2.746   4.412   0.489 -0.4355  0.3716  0.1599
  157SOL    HW2  626   2.840   4.422   0.474 -0.3600  1.0520  1.0643
  157SOL    HW3  627   2.721   4.490   0.539 -1.4053  0.0041  0.2531
  157SOL    MW4  628   2.755   4.424   0.493 -0.5535  0.4129  0.2915
  158SOL     OW  629   1.720   0.023   0.469  0.0871 -0.3309  0.2768
  158SOL    HW2  630   1.633  -0.017   0.466  0.2341 -0.6744  0.6173
  158SOL    HW3  631   1.737   0.035   0.563  0.0225  0.5713  0.1733
  158SOL    MW4  632   1.711   0.019   0.481  0.0980 -0.2572  0.3080
  159SOL     OW  633   1.959   0.202   0.445 -0.2895 -0.4046 -0.2161
  159SOL    HW2  634   1.906   0.123   0.435 -0.2643 -0.1143 -2.9532
  159SOL    HW3  635   2.031   0.176   0.502 -0.7435 -2.1200 -0.4171
  159SOL    MW4  636   1.961   0.188   0.451 -0.3460 -0.5926 -0.6037
  160SOL     OW  637   1.433   0.186   0.512  0.0944 -0.4987  0.5511
  160SOL    HW2  638   1.517   0.226   0.490  0.5810 -1.5240  0.4912
  160SOL    HW3  639   1.454   0.093   0.525 -0.8232 -0.5572  1.7091
  160SOL    MW4  640   1.447   0.179   0.511  0.0375 -0.6417  0.6960
  161SOL     OW  641   2.122   0.442   0.488  0.4515 -0.5874 -0.2804
  161SOL    HW2  642   2.058   0.383   0.448 -0.5430 -0.4887  1.1267
  161SOL    HW3  643   2.091   0.530   0.464  0.6988 -0.5711 -0.5412
  161SOL    MW4  644   2.109   0.446   0.479  0.3529 -0.5723 -0.1292
  162SOL     OW  645   2.294   1.478   0.398  0.4344 -0.1412  0.6112
  162SOL    HW2  646   2.239   1.405   0.427  1.6740 -1.4391 -0.2508
  162SOL    HW3  647   2.252   1.555   0.435 -2.8013 -0.9236 -1.1685
  162SOL    MW4  648   2.281   1.478   0.407  0.1711 -0.4156  0.2626
  163SOL     OW  649   2.325   1.094   0.554  0.1037  0.0267 -0.0766
  163SOL    HW2  650   2.409   1.132   0.529  0.6554 -1.3497 -0.3171
  163SOL    HW3  651   2.344   1.003   0.575 -1.0046  0.1813  1.7222
  163SOL    MW4  652   2.339   1.087   0.553  0.0302 -0.1345  0.1290
  164SOL     OW  653   2.133   1.278   0.521 -0.3739 -0.2739 -0.2586
  164SOL    HW2  654   2.043   1.251   0.500 -0.2760 -1.1728  0.4411
  164SOL    HW3  655   2.183   1.197   0.521  0.3863  0.1879 -0.3174
  164SOL    MW4  656   2.128   1.264   0.518 -0.2607 -0.3316 -0.1741
  165SOL     OW  657   2.483   1.287   0.274 -0.8533 -0.2634  0.4316
  165SOL    HW2  658   2.412   1.351   0.288 -0.8926 -0.1349 -0.3785
  165SOL    HW3  659   2.437   1.206   0.249 -0.7646 -0.4375  0.8265
  165SOL    MW4  660   2.467   1.285   0.273 -0.8467 -0.2694  0.3769
  166SOL     OW  661   2.155   1.676   0.535  0.3098  0.8649 -0.1246
  166SOL    HW2  662   2.167   1.759   0.489  0.7015  0.6915 -0.3427
  166SOL    HW3  663   2.066   1.648   0.511  0.3417  1.0034 -0.4037
  166SOL    MW4  664   2.145   1.683   0.526  0.3657  0.8603 -0.1902
  167SOL     OW  665   1.760   1.909   0.396  0.0476  0.3106 -0.4512
  167SOL    HW2  666   1.841   1.958   0.407 -0.1554  0.6759 -0.5360
  167SOL    HW3  667   1.692   1.967   0.432  0.0503 -0.8168  1.4649
  167SOL    MW4  668   1.762   1.923   0.402  0.0212  0.2100 -0.2096
  168SOL     OW  669   2.306   2.335   0.567 -0.4683  0.1357  0.0823
  168SOL    HW2  670   2.373   2.400   0.546  0.7669 -0.7667  1.1340
  168SOL    HW3  671   2.287   2.350   0.660 -1.1007 -0.1849  0.0041
  168SOL    MW4  672   2.313   2.346   0.577 -0.3888 -0.0256  0.2107
  169SOL     OW  673   1.872   3.148   0.542  0.5018 -0.4823  0.1077
  169SOL    HW2  674   1.934   3.075   0.534 -0.0232 -0.7587 -1.9378
  169SOL    HW3  675   1.917   3.222   0.502 -0.1447 -0.4951 -0.6830
  169SOL    MW4  676   1.886   3.148   0.535  0.3472 -0.5205 -0.2665
  170SOL     OW  677   1.530   2.833   0.454  0.6310  0.0869 -0.0108
  170SOL    HW2  678   1.437   2.812   0.447  1.2734 -3.1739  0.2246
  170SOL    HW3  679   1.549   2.825   0.547  1.6128 -1.7507 -0.3324
  170SOL    MW4  680   1.520   2.829   0.465  0.8453 -0.5858 -0.0222
  171SOL     OW  681   1.243   2.708   0.437 -0.1070  0.1477 -0.1523
  171SOL    HW2  682   1.208   2.755   0.513  0.8880  0.4804  0.1069
  171SOL    HW3  683   1.165   2.683   0.387 -0.7562  0.1942  0.8125
  171SOL    MW4  684   1.228   2.711   0.441 -0.0614  0.1977  0.0092
  172SOL     OW  685   1.319   1.950   0.335 -0.4541 -0.3185  0.7445
  172SOL    HW2  686   1.315   1.867   0.383 -0.3389 -1.0871 -0.5441
  172SOL    HW3  687   1.372   1.930   0.257  1.4145  1.5085  1.4919
  172SOL    MW4  688   1.325   1.936   0.331 -0.1924 -0.1789  0.6731
  173SOL     OW  689   3.517   2.154   0.326  0.5689  0.5596 -0.2841
  173SOL    HW2  690   3.498   2.083   0.265  4.0909 -1.2780  0.6213
  173SOL    HW3  691   3.495   2.119   0.412  1.2293  0.9695  0.0566
  173SOL    MW4  692   3.511   2.140   0.329  1.1207  0.3712 -0.1197
  174SOL     OW  693   1.844   2.527   0.255  0.5310  0.1648  0.0620
  174SOL    HW2  694   1.771   2.472   0.281  0.1584  1.1442  1.1199
  174SOL    HW3  695   1.919   2.493   0.304  0.5986 -0.2663 -0.3366
  174SOL    MW4  696   1.845   2.515   0.265  0.4908  0.2372  0.1490
  175SOL     OW  697   1.620   2.346   0.416 -0.0144  0.0342 -0.0811
  175SOL    HW2  698   1.674   2.401   0.474  0.5904  0.2597 -0.8560
  175SOL    HW3  699   1.531   2.377   0.431  0.1631  0.2688  0.5349
  175SOL    MW4  700   1.615   2.357   0.426  0.0888  0.0949 -0.1021
  176SOL     OW  701   1.593   3.108   0.432 -0.0313 -0.3225 -0.1021
  176SOL    HW2  702   1.559   3.019   0.443 -0.3495 -0.3768 -1.4778
  176SOL    HW3  703   1.685   3.102   0.458 -0.2495 -0.8695  0.5830
  176SOL    MW4  704   1.600   3.096   0.437 -0.1020 -0.4018 -0.1932
  177SOL     OW  705   2.240   3.154   0.480 -0.0080 -0.1638 -0.3532
  177SOL    HW2  706   2.187   3.074   0.487  0.0131 -0.1764 -0.3333
  177SOL    HW3  707   2.245   3.187   0.570  1.7056 -1.2604 -0.0192
  177SOL    MW4  708   2.233   3.148   0.493  0.2208 -0.3101 -0.3065
  178SOL     OW  709   1.807   3.715   0.435 -0.1780  0.1451 -0.3910
  178SOL    HW2  710   1.748   3.645   0.407  0.0302  0.0292 -0.5418
  178SOL    HW3  711   1.885   3.669   0.467  0.0173  0.3153 -0.6272
  178SOL    MW4  712   1.809   3.700   0.436 -0.1248  0.1523 -0.4420
  179SOL     OW  713   1.436   4.327   0.388  0.5047  0.2046 -0.2258
  179SOL    HW2  714   1.382   4.260   0.347  0.3550  1.2503 -1.8133
  179SOL    HW3  715   1.516   4.282   0.413  0.3263 -0.6133 -1.1010
  179SOL    MW4  716   1.439   4.312   0.386  0.4614  0.2347 -0.5507
  180SOL     OW  717   1.476   4.572   0.507 -0.3065  0.1586 -0.5596
  180SOL    HW2  718   1.503   4.517   0.581 -0.5426 -1.3546 -1.5606
  180SOL    HW3  719   1.429   4.512   0.449 -2.5661  1.9323 -0.6328
  180SOL    MW4  720   1.474   4.557   0.509 -0.6357  0.1929 -0.7013
  181SOL     OW  721   1.110   4.479   0.535  0.6284  0.3620  0.1989
  181SOL    HW2  722   1.097   4.454   0.627 -2.4365 -1.4876 -0.6570
  181SOL    HW3  723   1.181   4.422   0.505  0.9036  0.1955  1.1446
  181SOL    MW4  724   1.117   4.468   0.543  0.2604  0.0960  0.2108
  182SOL     OW  725   2.430   0.109   0.420  0.4496  0.1677  0.2683
  182SOL    HW2  726   2.494   0.050   0.461  1.3637  1.1191  0.2418
  182SOL    HW3  727   2.439   0.092   0.327 -0.6296 -0.9896  0.3634
  182SOL    MW4  728   2.440   0.099   0.413  0.4278  0.1406  0.2774
  183SOL     OW  729   2.181   0.084   0.547 -0.3291  0.1778  0.7242
  183SOL    HW2  730   2.268   0.100   0.510 -0.5076 -0.1699  0.1397
  183SOL    HW3  731   2.170  -0.011   0.543 -0.5026  0.1718  1.3375
  183SOL    MW4  732   2.191   0.074   0.541 -0.3756  0.1311  0.7280
  184SOL     OW  733   2.773   0.974   0.556 -0.3346 -0.7679 -0.1504
  184SOL    HW2  734   2.726   1.054   0.533 -0.2829 -0.1991  1.6306
  184SOL    HW3  735   2.861   0.986   0.519 -0.0096  0.4586  1.0118
  184SOL    MW4  736   2.778   0.986   0.548 -0.2849 -0.5310  0.2379
  185SOL     OW  737   2.461   0.650   0.504  0.0654  0.8142 -0.2425
  185SOL    HW2  738   2.448   0.557   0.488  0.4636  0.5366  0.9619
  185SOL    HW3  739   2.548   0.669   0.468  1.4202 -0.0406  2.3828
  185SOL    MW4  740   2.471   0.640   0.497  0.2967  0.6648  0.2628
  186SOL     OW  741   2.868   0.775   0.191 -0.4236 -0.0850 -0.0353
  186SOL    HW2  742   2.888   0.793   0.099 -1.2439 -1.1962 -0.4416
  186SOL    HW3  743   2.954   0.765   0.233 -0.0430  0.6318 -0.6313
  186SOL    MW4  744   2.882   0.776   0.185 -0.4816 -0.1370 -0.1675
  187SOL     OW  745   3.075   1.008   0.493  0.6361 -0.2062 -0.2318
  187SOL    HW2  746   3.118   1.093   0.479  0.1947  0.0597  0.0453
  187SOL    HW3  747   3.117   0.973   0.572 -1.3964  1.1719  1.5059
  187SOL    MW4  748   3.086   1.014   0.502  0.3097  0.0107  0.0340
  188SOL     OW  749   2.841   1.373   0.529 -0.0217 -0.7524  0.0169
  188SOL    HW2  750   2.801   1.460   0.533 -1.3530 -1.3850  0.9391
  188SOL    HW3  751   2.904   1.372   0.601  1.4325  0.1217 -1.2160
  188SOL    MW4  752   2.844   1.385   0.539 -0.0054 -0.7205 -0.0241
  189SOL     OW  753   2.510   1.651   0.382 -0.2454 -0.0410  0.2171
  189SOL    HW2  754   2.455   1.580   0.416  0.2912 -0.3826  0.3668
  189SOL    HW3  755   2.529   1.625   0.292  0.3277 -0.3024  0.4176
  189SOL    MW4  756   2.505   1.638   0.374 -0.0990 -0.1205  0.2633
  190SOL     OW  757   2.945   0.600   0.542  0.3661 -0.3446  0.2267
  190SOL    HW2  758   2.861   0.613   0.496  0.4602 -0.5699 -0.0094
  190SOL    HW3  759   3.007   0.652   0.492  0.3876 -0.2551  0.3460
  190SOL    MW4  760   2.942   0.609   0.529  0.3814 -0.3626  0.2113
  191SOL     OW  761   2.236   1.917   0.411  0.0905 -0.0589 -0.1935
  191SOL    HW2  762   2.304   1.957   0.466  0.2078  0.8246 -0.9708
  191SOL    HW3  763   2.276   1.909   0.325 -0.6279  0.0092 -0.5374
  191SOL    MW4  764   2.250   1.921   0.407  0.0112  0.0667 -0.3414
  192SOL     OW  765   1.891   1.650   0.472  0.0339  0.1217  0.3017
  192SOL    HW2  766   1.881   1.666   0.566  0.2936 -0.0621  0.3635
  192SOL    HW3  767   1.852   1.727   0.430  0.9917  0.7762  0.5896
  192SOL    MW4  768   1.885   1.663   0.479  0.1945  0.1838  0.3478
  193SOL     OW  769   2.428   2.085   0.555 -0.1584  0.3897 -0.3491
  193SOL    HW2  770   2.386   2.170   0.542 -1.3331 -0.4047 -2.0442
  193SOL    HW3  771   2.515   2.095   0.518 -0.4794  0.7206 -1.0386
  193SOL    MW4  772   2.434   2.097   0.549 -0.3558  0.3285 -0.6637
  194SOL     OW  773   2.685   2.084   0.475 -0.3532 -0.2199 -0.1246
  194SOL    HW2  774   2.693   2.166   0.426  2.0722 -0.9948 -1.0975
  194SOL    HW3  775   2.745   2.095   0.549 -0.3763 -0.9147 -0.0029
  194SOL    MW4  776   2.694   2.096   0.478 -0.0362 -0.4138 -0.2369
  195SOL     OW  777   2.560   2.792   0.566  0.0183 -0.0060  0.3566
  195SOL    HW2  778   2.543   2.869   0.513  0.2029  0.1471  0.5150
  195SOL    HW3  779   2.520   2.812   0.651  0.1989 -0.0163  0.4463
  195SOL    MW4  780   2.553   2.805   0.570  0.0665  0.0128  0.3893
  196SOL     OW  781   1.802   2.508   0.578  0.0694  0.2963 -0.4766
  196SOL    HW2  782   1.876   2.452   0.553 -0.1686 -0.6773  0.9519
  196SOL    HW3  783   1.819   2.591   0.533  1.2843 -0.3765 -1.3045
  196SOL    MW4  784   1.814   2.512   0.568  0.1983  0.0791 -0.3974
  197SOL     OW  785   2.050   2.937   0.528  0.3364  0.3076  0.2552
  197SOL    HW2  786   2.046   2.903   0.617  1.0007  0.4849  0.3600
  197SOL    HW3  787   1.996   2.877   0.476 -0.1528  0.2810  0.7987
  197SOL    MW4  788   2.043   2.925   0.533  0.3595  0.3275  0.3407
  198SOL     OW  789   2.031   3.551   0.497  0.3298 -0.3365  0.3578
  198SOL    HW2  790   2.120   3.577   0.473  0.8545 -1.6791  0.7789
  198SOL    HW3  791   2.033   3.545   0.593 -0.8017  1.6490  0.5373
  198SOL    MW4  792   2.043   3.553   0.507  0.2498 -0.2517  0.4370
  199SOL     OW  793   2.248   4.220   0.405  0.3518 -0.0578  0.3155
  199SOL    HW2  794   2.246   4.125   0.393 -0.9641 -0.1168  0.9201
  199SOL    HW3  795   2.339   4.239   0.428  0.8070 -1.0647 -0.5833
  199SOL    MW4  796   2.260   4.210   0.407  0.2382 -0.1984  0.2767
  200SOL     OW  797   1.398   3.713   0.362  0.2963 -0.4352 -0.3200
  200SOL    HW2  798   1.379   3.749   0.276  0.5420  1.1925  0.2992
  200SOL    HW3  799   1.482   3.668   0.352  0.4440 -0.0381 -0.8607
  200SOL    MW4  800   1.406   3.712   0.350  0.3482 -0.1681 -0.3096
  201SOL     OW  801   1.751   3.295   0.250 -0.3447  0.6166 -0.7951
  201SOL    HW2  802   1.716   3.214   0.288 -0.0926  0.4975 -0.8176
  201SOL    HW3  803   1.844   3.292   0.269  0.1155 -0.3606 -3.1167
  201SOL    MW4  804   1.758   3.284   0.258 -0.2508  0.4719 -1.1044
  202SOL     OW  805   1.868   4.439   0.473  0.4112 -0.0020  0.1427
  202SOL    HW2  806   1.815   4.361   0.460  2.0181 -1.2025  0.5896
  202SOL    HW3  807   1.807   4.512   0.465 -0.6269 -1.1547 -3.0104
  202SOL    MW4  808   1.853   4.439   0.470  0.4863 -0.3125 -0.2143
  203SOL     OW  809   1.725   4.221   0.411  0.0120 -0.6451  0.1218
  203SOL    HW2  810   1.711   4.135   0.452 -0.4427 -0.5362  0.1962
  203SOL    HW3  811   1.796   4.206   0.349  0.2183 -0.9804  0.4355
  203SOL    MW4  812   1.733   4.208   0.409 -0.0208 -0.6750  0.1730
  204SOL     OW  813   2.128   4.482   0.536  0.0252  0.1066  0.2563
  204SOL    HW2  814   2.173   4.405   0.500  0.1244  1.0557 -1.7007
  204SOL    HW3  815   2.037   4.471   0.507  0.2144  1.1365 -0.7706
  204SOL    MW4  816   2.122   4.470   0.527  0.0632  0.3677 -0.1373
  205SOL     OW  817   2.228   3.903   0.462 -0.0812  0.1059  0.4489
  205SOL    HW2  818   2.281   3.825   0.447  0.7792  0.5692  1.0553
  205SOL    HW3  819   2.139   3.877   0.437  0.5034 -0.5287 -1.0290
  205SOL    MW4  820   2.223   3.890   0.457  0.1094  0.0833  0.3339
  206SOL     OW  821   2.639   3.737   0.424  0.4580  0.1785  0.1742
  206SOL    HW2  822   2.547   3.716   0.410  0.4405  1.6479 -2.2466
  206SOL    HW3  823   2.638   3.825   0.461  0.9027  0.7788 -1.1943
  206SOL    MW4  824   2.626   3.746   0.427  0.5144  0.4516 -0.3258
  207SOL     OW  825   2.403   0.388   0.515 -0.2965 -0.2219 -0.0238
  207SOL    HW2  826   2.308   0.402   0.511 -0.1931  0.5875  0.2137
  207SOL    HW3  827   2.416   0.303   0.473 -1.1919 -0.6455  0.5239
  207SOL    MW4  828   2.392   0.379   0.509 -0.4010 -0.1710  0.0798
  208SOL     OW  829   2.031   0.979   0.338 -0.0202 -0.2872 -0.4447
  208SOL    HW2  830   2.104   1.034   0.313  0.0428  0.2000  0.7816
  208SOL    HW3  831   1.958   1.039   0.352 -0.1653 -0.5835  0.1098
  208SOL    MW4  832   2.031   0.994   0.337 -0.0310 -0.2620 -0.2097
  209SOL     OW  833   3.352   0.689   0.457 -0.2556 -0.3117 -0.3896
  209SOL    HW2  834   3.414   0.724   0.393  0.6194 -0.5721  0.3140
  209SOL    HW3  835   3.375   0.732   0.540 -1.8631  0.6008 -0.3864
  209SOL    MW4  836   3.363   0.700   0.460 -0.3523 -0.2256 -0.2964
  210SOL     OW  837   2.618   1.208   0.511  0.4850  0.4449 -0.1984
  210SOL    HW2  838   2.586   1.257   0.436 -0.9687 -0.6293 -0.3165
  210SOL    HW3  839   2.702   1.249   0.534  0.3944  1.4849 -1.6954
  210SOL    MW4  840   2.625   1.220   0.504  0.2813  0.4404 -0.4115
  211SOL     OW  841   3.553   0.782   0.301 -0.3440  0.0118 -0.1512
  211SOL    HW2  842   3.610   0.705   0.305 -0.3478  0.0061 -0.2110
  211SOL    HW3  843   3.603   0.851   0.344 -0.4075 -0.0668  0.0484
  211SOL    MW4  844   3.567   0.781   0.307 -0.3529  0.0007 -0.1328
  212SOL     OW  845   2.825   1.859   0.392 -0.7472 -0.5809 -0.4011
  212SOL    HW2  846   2.779   1.786   0.433 -0.0418  0.2142  1.9151
  212SOL    HW3  847   2.777   1.937   0.420 -0.5979 -0.0494 -1.5983
  212SOL    MW4  848   2.813   1.860   0.401 -0.6344 -0.4059 -0.2535
  213SOL     OW  849   3.145   1.352   0.483 -0.1314 -0.0699 -0.0904
  213SOL    HW2  850   3.173   1.444   0.487 -0.0809 -0.0940  0.1117
  213SOL    HW3  851   3.051   1.357   0.463 -0.1955  0.0341  0.2320
  213SOL    MW4  852   3.136   1.365   0.481 -0.1332 -0.0593 -0.0212
  214SOL     OW  853   3.244   1.619   0.521 -0.1613  0.4721  0.1997
  214SOL    HW2  854   3.205   1.695   0.479  0.0632  0.2994 -0.3276
  214SOL    HW3  855   3.338   1.635   0.518 -0.0322 -0.4291 -1.1166
  214SOL    MW4  856   3.252   1.631   0.515 -0.1147  0.3304 -0.0436
  215SOL     OW  857   2.833   0.167   0.730  0.7763 -0.4016  0.3302
  215SOL    HW2  858   2.800   0.238   0.784  0.1603  0.1823 -0.7986
  215SOL    HW3  859   2.886   0.210   0.663 -0.4875 -0.8946 -1.0124
  215SOL    MW4  860   2.835   0.182   0.728  0.5283 -0.3896  0.0041
  216SOL     OW  861   3.095   2.036   0.667  0.4936 -0.4822 -0.0561
  216SOL    HW2  862   3.005   2.062   0.689  1.0405  0.8551  0.6368
  216SOL    HW3  863   3.129   1.997   0.748  0.7010 -0.5546 -0.1785
  216SOL    MW4  864   3.088   2.034   0.681  0.5931 -0.3153  0.0191
  217SOL     OW  865   2.735   2.370   0.379 -0.2721  0.0240 -0.3512
  217SOL    HW2  866   2.711   2.391   0.289  0.0201  1.4499 -0.1130
  217SOL    HW3  867   2.810   2.427   0.397  0.2310 -0.9082  0.4875
  217SOL    MW4  868   2.742   2.381   0.370 -0.1672  0.0891 -0.2091
  218SOL     OW  869   2.742   1.631   0.537 -0.3039  0.3028  0.2756
  218SOL    HW2  870   2.731   1.658   0.628 -0.2140  1.8059 -0.1485
  218SOL    HW3  871   2.653   1.622   0.503 -0.3901 -2.0823  1.0031
  218SOL    MW4  872   2.729   1.633   0.544 -0.3034  0.1864  0.3156
  219SOL     OW  873   2.542   2.502   0.543  0.3476  0.1040  0.3511
  219SOL    HW2  874   2.543   2.598   0.542  0.7850  0.1008  0.7018
  219SOL    HW3  875   2.614   2.477   0.486  1.6945 -0.0169  2.0760
  219SOL    MW4  876   2.552   2.512   0.535  0.5830  0.0876  0.6250
  220SOL     OW  877   2.822   3.052   0.352 -0.2183  0.1390  0.3682
  220SOL    HW2  878   2.730   3.057   0.325 -0.1575 -0.6213  0.0027
  220SOL    HW3  879   2.845   3.142   0.373 -1.0708  0.3269  0.5326
  220SOL    MW4  880   2.813   3.065   0.351 -0.3227  0.0635  0.3416
  221SOL     OW  881   2.917   3.341   0.401  0.1759  0.6042 -0.2338
  221SOL    HW2  882   3.005   3.320   0.433  0.0092  0.8318  0.3848
  221SOL    HW3  883   2.908   3.435   0.416 -0.1058  0.6132 -0.4611
  221SOL    MW4  884   2.928   3.351   0.407  0.1167  0.6354 -0.1822
  222SOL     OW  885   3.154   3.233   0.495 -0.2212 -0.4381 -0.6385
  222SOL    HW2  886   3.135   3.141   0.481 -0.5304 -0.5352  0.3306
  222SOL    HW3  887   3.151   3.244   0.591 -0.0165  0.5317 -0.7328
  222SOL    MW4  888   3.151   3.223   0.506 -0.2350 -0.3230 -0.5231
  223SOL     OW  889   2.404   3.372   0.385 -0.4336 -0.4428 -0.0956
  223SOL    HW2  890   2.493   3.359   0.417 -0.7148 -1.1115  0.4408
  223SOL    HW3  891   2.357   3.292   0.412 -1.4169  0.3038  0.4420
  223SOL    MW4  892   2.410   3.359   0.393 -0.6004 -0.4325  0.0461
  224SOL     OW  893   2.007   3.313   0.371 -0.5212  0.1626  0.4520
  224SOL    HW2  894   2.020   3.400   0.409 -0.0873  0.4135 -0.2809
  224SOL    HW3  895   2.093   3.271   0.378 -1.2594 -1.0690  2.9447
  224SOL    MW4  896   2.020   3.319   0.377 -0.5613  0.0332  0.6842
  225SOL     OW  897   3.571   3.509   0.236 -0.3093  0.2176  0.2199
  225SOL    HW2  898   3.486   3.474   0.262 -0.0135 -0.2317  0.5958
  225SOL    HW3  899   3.633   3.439   0.256  0.0512  0.2300 -0.8137
  225SOL    MW4  900   3.568   3.495   0.242 -0.2227  0.1599  0.1331
  226SOL     OW  901   2.521   4.250   0.536 -0.0337  0.0651 -0.5880
  226SOL    HW2  902   2.486   4.286   0.617  1.8100 -1.0867  0.7484
  226SOL    HW3  903   2.589   4.312   0.509  0.0707 -0.0906 -0.6867
  226SOL    MW4  904   2.525   4.263   0.543  0.2233 -0.1074 -0.4247
  227SOL     OW  905   2.360   3.653   0.466 -0.2208  0.1620 -0.1491
  227SOL    HW2  906   2.387   3.642   0.557  0.7006  0.0890 -0.4205
  227SOL    HW3  907   2.376   3.567   0.426  0.5821  0.5406 -0.6725
  227SOL    MW4  908   2.366   3.640   0.472  0.0067  0.2024 -0.2540
  228SOL     OW  909   3.600   3.959   0.513  0.4473 -0.1963  0.0136
  228SOL    HW2  910   3.531   4.026   0.513 -0.6867 -1.3497  0.4730
  228SOL    HW3  911   3.555   3.879   0.486  1.2055 -1.3816  2.2038
  228SOL    MW4  912   3.585   3.957   0.509  0.3977 -0.5049  0.3632
  229SOL     OW  913   3.013   4.372   0.530 -0.1365  0.4330  0.3391
  229SOL    HW2  914   2.999   4.367   0.624  0.4155  0.8980  0.4513
  229SOL    HW3  915   3.052   4.287   0.507 -0.3472  0.2882  0.5144
  229SOL    MW4  916   3.017   4.360   0.539 -0.0915  0.4753  0.3770
  230SOL     OW  917   3.431   4.413   0.506  0.0241  0.4003 -0.0212
  230SOL    HW2  918   3.514   4.462   0.507  0.5599 -0.4720 -0.7788
  230SOL    HW3  919   3.368   4.473   0.466  0.0613  1.4050  1.3667
  230SOL    MW4  920   3.434   4.428   0.501  0.0997  0.4177  0.0619
  231SOL     OW  921   3.194   4.552   0.409  0.2945 -0.0859 -0.0773
  231SOL    HW2  922   3.157   4.549   0.321 -1.0058  3.7902  0.2670
  231SOL    HW3  923   3.140   4.492   0.460 -1.7719  1.0298 -0.9278
  231SOL    MW4  924   3.182   4.544   0.404 -0.1497  0.5727 -0.1441
  232SOL     OW  925   2.680   4.024   0.533  0.6668 -0.2955  0.2594
  232SOL    HW2  926   2.601   4.078   0.522  0.7068 -0.1579  0.6273
  232SOL    HW3  927   2.742   4.060   0.470  0.4378 -0.4007 -0.0299
  232SOL    MW4  928   2.677   4.036   0.523  0.6419 -0.2912  0.2698
  233SOL     OW  929   2.725   0.722   0.416 -0.3414  0.1844 -0.4242
  233SOL    HW2  930   2.736   0.808   0.457  2.7422  0.1395 -1.0245
  233SOL    HW3  931   2.773   0.729   0.334  0.8416 -2.4232  0.0057
  233SOL    MW4  932   2.733   0.734   0.411  0.2215 -0.1655 -0.4467
  234SOL     OW  933   3.521   0.459   0.509 -0.1486 -0.3671  0.4863
  234SOL    HW2  934   3.606   0.483   0.473 -0.8589 -0.5261 -1.3368
  234SOL    HW3  935   3.462   0.529   0.481 -0.7117 -0.4602  1.4070
  234SOL    MW4  936   3.524   0.471   0.501 -0.3166 -0.4004  0.3673
  235SOL     OW  937   3.017   0.302   0.558  0.2841  0.3746  0.1428
  235SOL    HW2  938   3.024   0.393   0.527  1.0140 -0.9035 -3.6312
  235SOL    HW3  939   3.108   0.275   0.572  0.1048 -0.0315  0.5307
  235SOL    MW4  940   3.030   0.311   0.556  0.3567  0.1524 -0.3039
  236SOL     OW  941   3.739   0.564   0.378 -0.2879 -0.2091  0.2774
  236SOL    HW2  942   3.800   0.572   0.451  0.4458  0.4740 -0.4040
  236SOL    HW3  943   3.776   0.496   0.322 -0.2436  0.0891 -0.0543
  236SOL    MW4  944   3.752   0.556   0.381 -0.1852 -0.0796  0.1437
  237SOL     OW  945   3.089   0.753   0.353  0.2889 -0.0641 -0.6528
  237SOL    HW2  946   3.179   0.721   0.366  0.1543 -0.8217 -1.5194
  237SOL    HW3  947   3.090   0.841   0.388  0.6637 -1.0283  1.8501
  237SOL    MW4  948   3.101   0.760   0.359  0.3206 -0.2913 -0.4369
  238SOL     OW  949   3.503   1.687   0.546 -0.0986 -0.2944 -0.0344
  238SOL    HW2  950   3.514   1.694   0.641  1.3057  0.7200 -0.2670
  238SOL    HW3  951   3.488   1.776   0.517  0.7599 -0.4400 -0.9277
  238SOL    MW4  952   3.502   1.699   0.555  0.1999 -0.1798 -0.1830
  239SOL     OW  953   3.097   1.877   0.437  0.0366  0.3742 -0.1340
  239SOL    HW2  954   3.083   1.921   0.521  1.4869 -0.9745  0.8416
  239SOL    HW3  955   3.010   1.874   0.397 -0.8979 -0.0508  1.8701
  239SOL    MW4  956   3.083   1.882   0.442  0.1047  0.1402  0.2591
  240SOL     OW  957   3.601   1.011   0.508  0.2382  0.1592  0.1409
  240SOL    HW2  958   3.529   1.072   0.492  0.8189  0.8347  0.1081
  240SOL    HW3  959   3.580   0.972   0.593 -2.3313 -2.7046 -1.6609
  240SOL    MW4  960   3.588   1.014   0.517 -0.0242 -0.1295 -0.1012
  241SOL     OW  961   3.391   1.922   0.465  0.0411 -0.0861 -0.5314
  241SOL    HW2  962   3.303   1.931   0.428  0.5653 -0.8541 -1.9919
  241SOL    HW3  963   3.384   1.962   0.552 -1.6310  0.2694 -0.8038
  241SOL    MW4  964   3.378   1.928   0.472 -0.1104 -0.1405 -0.7600
  242SOL     OW  965   3.225   2.265   0.638  0.1519 -0.3365  0.4361
  242SOL    HW2  966   3.173   2.186   0.655 -1.0481 -0.0110 -1.6354
  242SOL    HW3  967   3.281   2.273   0.716  0.4534 -3.3357  0.6054
  242SOL    MW4  968   3.226   2.256   0.651  0.0333 -0.6893  0.1851
  243SOL     OW  969   3.445   2.797   0.456 -0.0968 -0.0634 -0.0080
  243SOL    HW2  970   3.506   2.731   0.486 -0.3198 -0.8985 -1.3576
  243SOL    HW3  971   3.368   2.748   0.428 -0.9764  0.9014  0.6946
  243SOL    MW4  972   3.443   2.782   0.457 -0.2423 -0.0463 -0.0933
  244SOL     OW  973   2.532   3.043   0.412  0.4192  0.2941 -0.1094
  244SOL    HW2  974   2.440   3.070   0.404  0.8705  1.8895 -0.2506
  244SOL    HW3  975   2.572   3.111   0.466  1.4425 -0.5968  0.2716
  244SOL    MW4  976   2.525   3.056   0.418  0.6138  0.3870 -0.0778
  245SOL     OW  977   3.221   2.647   0.393  0.0620 -0.1524  0.0228
  245SOL    HW2  978   3.126   2.634   0.391  0.0862 -0.6994  1.7374
  245SOL    HW3  979   3.257   2.559   0.394  0.5873  0.0552 -0.6432
  245SOL    MW4  980   3.213   2.634   0.393  0.1345 -0.1972  0.1611
  246SOL     OW  981   2.903   2.830   0.808 -0.3338 -0.0683  0.1880
  246SOL    HW2  982   2.892   2.837   0.713  0.9631  0.7958  0.0914
  246SOL    HW3  983   2.991   2.795   0.820 -0.1413  0.6815  1.0866
  246SOL    MW4  984   2.913   2.826   0.797 -0.1373  0.1447  0.2938
  247SOL     OW  985   3.255   0.126   0.541  0.1890  0.2861 -0.1683
  247SOL    HW2  986   3.255   0.108   0.635  0.3162 -0.5218 -0.3167
  247SOL    HW3  987   3.223   0.045   0.501 -1.0017  1.0341 -0.7591
  247SOL    MW4  988   3.251   0.113   0.548  0.0487  0.2782 -0.2658
  248SOL     OW  989   3.131   3.785   0.399  0.6914  0.0875  0.3072
  248SOL    HW2  990   3.171   3.744   0.322  2.0631  0.7635  0.6475
  248SOL    HW3  991   3.182   3.752   0.473  0.5027  0.8119  0.7648
  248SOL    MW4  992   3.143   3.775   0.399  0.8475  0.2723  0.4125
  249SOL     OW  993   3.529   3.707   0.411  0.0827  0.1169  0.2356
  249SOL    HW2  994   3.542   3.656   0.331 -1.8478  1.8868 -1.2704
  249SOL    HW3  995   3.443   3.678   0.444  1.0113 -0.8544  1.9101
  249SOL    MW4  996   3.519   3.696   0.405 -0.0495  0.2223  0.2579
  250SOL     OW  997   3.566   3.223   0.451  0.5267  0.1282 -0.1575
  250SOL    HW2  998   3.645   3.273   0.431  0.1484 -0.3634 -3.1159
  250SOL    HW3  999   3.583   3.136   0.416 -0.2901 -0.7766  1.6130
  250SOL    MW4 1000   3.579   3.218   0.444  0.3690 -0.0561 -0.3143
  251SOL     OW 1001   3.360   3.419   0.390  0.0167  0.2229 -0.4120
  251SOL    HW2 1002   3.277   3.374   0.401 -0.1726  0.9162  1.1852
  251SOL    HW3 1003   3.426   3.354   0.415 -0.1202  0.0829 -0.4112
  251SOL    MW4 1004   3.358   3.405   0.395 -0.0263  0.2959 -0.2012
  252SOL     OW 1005   3.139   4.070   0.510  0.2836 -0.8083  0.3613
  252SOL    HW2 1006   3.127   3.985   0.467  0.5366 -1.4144  1.4643
  252SOL    HW3 1007   3.145   4.049   0.603 -0.9322  0.5407  0.7704
  252SOL    MW4 1008   3.138   4.056   0.516  0.1566 -0.7103  0.5608
  253SOL     OW 1009   2.654   3.282   0.506 -0.5704  0.4587  0.1179
  253SOL    HW2 1010   2.678   3.275   0.598 -1.9339 -1.0301  0.3764
  253SOL    HW3 1011   2.738   3.295   0.461  0.2142  0.1809  1.4561
  253SOL    MW4 1012   2.668   3.283   0.512 -0.6467  0.2256  0.3286
  254SOL     OW 1013   4.232   4.664   0.445 -0.2582  0.6354  0.2566
  254SOL    HW2 1014   4.315   4.709   0.432 -0.4937  1.2705  0.9427
  254SOL    HW3 1015   4.254   4.571   0.439  0.0086  0.8166 -2.6125
  254SOL    MW4 1016   4.246   4.658   0.442 -0.2541  0.7431 -0.0314
  255SOL     OW 1017   3.762   0.110   0.360 -0.7066  0.1933  0.0008
  255SOL    HW2 1018   3.675   0.131   0.394 -0.2645  2.2615 -0.0837
  255SOL    HW3 1019   3.818   0.110   0.437 -0.9321 -2.1702  0.2010
  255SOL    MW4 1020   3.758   0.112   0.375 -0.6780  0.1544  0.0160
  256SOL     OW 1021   3.513   0.181   0.469 -0.0468  0.3915 -0.0541
  256SOL    HW2 1022   3.427   0.149   0.494 -0.5787  2.3046  0.6928
  256SOL    HW3 1023   3.501   0.275   0.456  1.6129  0.4550 -1.3822
  256SOL    MW4 1024   3.500   0.189   0.471  0.1020  0.6523 -0.1308
  257SOL     OW 1025   3.961   0.573   0.570 -0.1574  0.1061  0.3782
  257SOL    HW2 1026   3.924   0.547   0.654  0.1653 -1.7043 -0.0163
  257SOL    HW3 1027   4.000   0.493   0.535 -1.1009  0.6059 -1.9181
  257SOL    MW4 1028   3.961   0.559   0.576 -0.2393 -0.0668  0.0232
  258SOL     OW 1029   4.044   0.343   0.447 -0.2899  0.2170 -0.1619
  258SOL    HW2 1030   4.139   0.353   0.440 -0.2099 -0.1163  0.4120
  258SOL    HW3 1031   4.013   0.342   0.357  0.0969  1.8474 -0.3239
  258SOL    MW4 1032   4.053   0.344   0.434 -0.2283  0.3881 -0.1075
  259SOL     OW 1033   4.413   0.801   0.518 -0.1115 -0.5163  0.1990
  259SOL    HW2 1034   4.321   0.782   0.531 -0.1385 -0.0267  0.7441
  259SOL    HW3 1035   4.442   0.738   0.452 -0.6687 -1.1082  0.5244
  259SOL    MW4 1036   4.405   0.790   0.511 -0.1886 -0.5298  0.3138
  260SOL     OW 1037   3.916   1.025   0.484 -0.0091  0.1939  0.0584
  260SOL    HW2 1038   3.914   1.118   0.504 -0.1536  0.1279  0.3429
  260SOL    HW3 1039   3.824   0.998   0.483  0.0460 -0.0035  0.2512
  260SOL    MW4 1040   3.904   1.033   0.487 -0.0209  0.1591  0.1214
  261SOL     OW 1041   4.103   1.429   0.430 -0.7083  0.4850 -0.3085
  261SOL    HW2 1042   4.120   1.509   0.479 -0.3724  0.4478 -0.3647
  261SOL    HW3 1043   4.115   1.453   0.339 -1.0985  0.4942 -0.3574
  261SOL    MW4 1044   4.107   1.442   0.425 -0.7154  0.4813 -0.3224
  262SOL     OW 1045   3.884   1.303   0.510 -0.1088  0.0621 -0.2371
  262SOL    HW2 1046   3.959   1.357   0.488  0.2333 -0.2283  0.1965
  262SOL    HW3 1047   3.808   1.352   0.478  0.2788  0.2529 -0.8706
  262SOL    MW4 1048   3.884   1.317   0.503 -0.0125  0.0489 -0.2635
  263SOL     OW 1049   3.411   1.256   0.524 -0.3238 -0.4826  0.2220
  263SOL    HW2 1050   3.389   1.251   0.617 -0.3228  1.6134  0.3644
  263SOL    HW3 1051   3.333   1.293   0.483  1.0290  2.3199  0.0101
  263SOL    MW4 1052   3.398   1.260   0.531 -0.1452  0.1637  0.2128
  264SOL     OW 1053   3.638   1.444   0.476 -0.1125 -0.4482  0.0078
  264SOL    HW2 1054   3.561   1.388   0.482 -0.2365 -0.2574  0.2376
  264SOL    HW3 1055   3.606   1.531   0.499  0.1487 -0.3472 -0.0049
  264SOL    MW4 1056   3.624   1.448   0.480 -0.0944 -0.4097  0.0364
  265SOL     OW 1057   3.584   2.527   0.474 -0.0766  0.2148  0.3751
  265SOL    HW2 1058   3.504   2.480   0.449 -0.4438  0.6929  0.6371
  265SOL    HW3 1059   3.595   2.508   0.567 -0.5074  1.0547  0.5995
  265SOL    MW4 1060   3.575   2.518   0.483 -0.1819  0.3887  0.4393
  266SOL     OW 1061   3.766   2.702   0.348  0.1798  0.2083 -0.0513
  266SOL    HW2 1062   3.707   2.641   0.392  0.6726 -0.2956 -0.0941
  266SOL    HW3 1063   3.853   2.682   0.383  0.5823 -0.2479 -1.3215
  266SOL    MW4 1064   3.769   2.692   0.359  0.2979  0.0816 -0.2245
  267SOL     OW 1065   2.933   2.563   0.443  0.3734 -0.3631  0.1028
  267SOL    HW2 1066   2.882   2.643   0.451  0.0761 -0.3748 -1.5390
  267SOL    HW3 1067   2.980   2.556   0.526 -1.0086  0.5238  0.9712
  267SOL    MW4 1068   2.933   2.572   0.455  0.1519 -0.2477  0.0008
  268SOL     OW 1069   2.884   3.624   0.472  0.1869 -0.1221  0.0807
  268SOL    HW2 1070   2.953   3.685   0.449  0.4833 -0.2845  0.5291
  268SOL    HW3 1071   2.803   3.673   0.461  0.2389 -0.4874 -2.2811
  268SOL    MW4 1072   2.882   3.638   0.467  0.2328 -0.1917 -0.1718
  269SOL     OW 1073   3.098   2.957   0.434  0.2542  0.3718 -0.6442
  269SOL    HW2 1074   3.007   2.979   0.413 -0.4195 -1.4927  0.2300
  269SOL    HW3 1075   3.125   2.896   0.366 -0.7137 -2.7350  1.6177
  269SOL    MW4 1076   3.090   2.952   0.422  0.0376 -0.2841 -0.2304
  270SOL     OW 1077   4.013   2.701   0.486 -0.1194 -0.0856  0.0038
  270SOL    HW2 1078   4.084   2.758   0.458  0.2254 -1.1722 -1.3510
  270SOL    HW3 1079   4.056   2.622   0.518 -0.6933 -0.5010 -0.2323
  270SOL    MW4 1080   4.028   2.698   0.487 -0.1496 -0.2837 -0.2061
  271SOL     OW 1081   3.632   2.966   0.369 -0.1755  0.3435  0.0542
  271SOL    HW2 1082   3.555   2.914   0.396 -0.9133  1.1863 -0.4153
  271SOL    HW3 1083   3.670   2.917   0.297  0.6852 -0.9240  1.3247
  271SOL    MW4 1084   3.627   2.953   0.363 -0.1593  0.2874  0.1599
  272SOL     OW 1085   3.971   3.805   0.339  0.7529  0.1978  0.2215
  272SOL    HW2 1086   3.909   3.774   0.404 -0.3616  1.0587 -0.4007
  272SOL    HW3 1087   3.969   3.740   0.269 -0.7288  1.0534 -0.5631
  272SOL    MW4 1088   3.963   3.793   0.338  0.4104  0.4243  0.0359
  273SOL     OW 1089   3.349   2.373   0.406 -0.2147  0.3532 -0.0144
  273SOL    HW2 1090   3.305   2.319   0.472 -0.7203  0.8032  0.0206
  273SOL    HW3 1091   3.399   2.311   0.354 -1.7491 -0.3038 -0.7457
  273SOL    MW4 1092   3.350   2.358   0.408 -0.4838  0.3259 -0.1063
  274SOL     OW 1093   3.308   3.629   0.551 -0.2469  0.4454 -0.1228
  274SOL    HW2 1094   3.315   3.544   0.507  0.2054 -0.2697  1.3141
  274SOL    HW3 1095   3.351   3.616   0.635 -0.9378  1.8579  0.4600
  274SOL    MW4 1096   3.314   3.616   0.556 -0.2784  0.5374  0.1437
  275SOL     OW 1097   4.374   3.625   0.528  0.0749  0.2282 -0.1537
  275SOL    HW2 1098   4.325   3.701   0.497  0.3580 -0.0942 -1.3851
  275SOL    HW3 1099   4.333   3.550   0.486 -0.1391 -0.3079  0.9786
  275SOL    MW4 1100   4.362   3.625   0.519  0.0841  0.1150 -0.1668
  276SOL     OW 1101   3.406   4.145   0.509  0.7500  0.0871  0.8522
  276SOL    HW2 1102   3.406   4.241   0.502 -0.3810 -0.0370 -1.5231
  276SOL    HW3 1103   3.314   4.121   0.496  1.1444 -1.3630  0.6908
  276SOL    MW4 1104   3.394   4.155   0.506  0.6528 -0.1206  0.5175
  277SOL     OW 1105   3.912   4.351   0.512 -0.3179 -0.4839  0.1939
  277SOL    HW2 1106   3.876   4.269   0.479 -0.0259 -1.3727  1.9919
  277SOL    HW3 1107   3.881   4.356   0.602  0.8675  0.6493  0.5593
  277SOL    MW4 1108   3.903   4.340   0.520 -0.1230 -0.4516  0.4793
  278SOL     OW 1109   4.455   0.172   0.446 -0.3570  0.1715 -0.3563
  278SOL    HW2 1110   4.528   0.113   0.429  0.0456  0.4411  0.4223
  278SOL    HW3 1111   4.441   0.168   0.541 -0.1700  1.4901 -0.2561
  278SOL    MW4 1112   4.463   0.164   0.456 -0.2792  0.3810 -0.2403
  279SOL     OW 1113   4.112   0.803   0.564 -0.7197 -0.5983 -0.2840
  279SOL    HW2 1114   4.056   0.870   0.524  0.2947  0.7446  0.5138
  279SOL    HW3 1115   4.058   0.724   0.564 -1.5618 -0.0530 -2.1814
  279SOL    MW4 1116   4.097   0.802   0.559 -0.6970 -0.3492 -0.4291
  280SOL     OW 1117   4.472   1.884   0.322 -0.1626 -0.3188 -0.0050
  280SOL    HW2 1118   4.482   1.853   0.232  1.0727  1.1388 -0.3843
  280SOL    HW3 1119   4.475   1.805   0.375 -0.2736 -1.1365 -1.1985
  280SOL    MW4 1120   4.473   1.870   0.317 -0.0142 -0.2344 -0.2125
  281SOL     OW 1121   4.307   0.401   0.456  0.1803 -0.1878 -0.1181
  281SOL    HW2 1122   4.370   0.328   0.452  0.3986 -0.1772  2.4067
  281SOL    HW3 1123   4.354   0.474   0.416  0.8210 -0.8524 -0.6032
  281SOL    MW4 1124   4.322   0.401   0.450  0.2936 -0.2741  0.1510
  282SOL     OW 1125   0.033   1.063   0.407 -0.4593  0.0164 -0.2956
  282SOL    HW2 1126  -0.031   1.134   0.413  0.5660  0.9195  0.1262
  282SOL    HW3 1127  -0.017   0.984   0.428 -1.8144  0.4912 -1.6545
  282SOL    MW4 1128   0.018   1.062   0.411 -0.5028  0.1982 -0.4193
  283SOL     OW 1129   3.665   4.561   0.512 -0.4212 -0.1038 -0.3512
  283SOL    HW2 1130   3.734   4.496   0.515 -1.0340 -0.7461 -0.1020
  283SOL    HW3 1131   3.695   4.626   0.448  0.0345 -0.7888 -0.8300
  283SOL    MW4 1132   3.678   4.561   0.504 -0.4419 -0.2789 -0.3815
  284SOL     OW 1133   4.325   1.261   0.490 -0.0225  0.5526  0.5895
  284SOL    HW2 1134   4.316   1.241   0.583 -0.7962  1.8394  0.7870
  284SOL    HW3 1135   4.246   1.309   0.467 -0.2251 -0.4627 -0.9359
  284SOL    MW4 1136   4.314   1.265   0.499 -0.1513  0.5884  0.4143
  285SOL     OW 1137   0.071   1.414   0.509  0.2021  0.3341  0.4228
  285SOL    HW2 1138  -0.009   1.362   0.518  0.3534 -0.0405 -0.2965
  285SOL    HW3 1139   0.130   1.378   0.575  0.6175 -1.0271 -0.6573
  285SOL    MW4 1140   0.068   1.402   0.519  0.2768  0.1051  0.1854
  286SOL     OW 1141   4.006   2.201   0.490 -0.0690 -0.3938  0.5873
  286SOL    HW2 1142   3.926   2.223   0.442  0.1845 -1.6158 -0.4248
  286SOL    HW3 1143   4.048   2.286   0.506 -0.6987  0.1209 -0.4156
  286SOL    MW4 1144   4.001   2.215   0.486 -0.1186 -0.4871  0.3214
  287SOL     OW 1145   4.171   1.698   0.504 -0.5937  0.2333 -0.3776
  287SOL    HW2 1146   4.266   1.703   0.487 -0.3528  0.4698  0.9599
  287SOL    HW3 1147   4.144   1.789   0.515 -0.7091  0.0707  0.6615
  287SOL    MW4 1148   4.180   1.710   0.503 -0.5771  0.2430 -0.0641
  288SOL     OW 1149   0.177   2.305   0.418  0.0494  0.0219 -0.3450
  288SOL    HW2 1150   0.106   2.362   0.446 -0.7458 -1.4846  0.7416
  288SOL    HW3 1151   0.254   2.334   0.467 -0.0917  0.8406 -0.6058
  288SOL    MW4 1152   0.178   2.316   0.428 -0.0742 -0.0689 -0.2360
  289SOL     OW 1153   4.186   1.985   0.471 -0.4402 -0.5849  0.0772
  289SOL    HW2 1154   4.126   2.059   0.472 -1.1060 -1.1035 -1.2238
  289SOL    HW3 1155   4.238   1.996   0.392  0.3368 -0.8190  0.5425
  289SOL    MW4 1156   4.185   1.996   0.461 -0.4255 -0.6842 -0.0331
  290SOL     OW 1157   4.424   2.473   0.530  0.3968  0.2423 -0.0687
  290SOL    HW2 1158   4.451   2.557   0.495 -0.3041  0.8771  0.8741
  290SOL    HW3 1159   4.444   2.478   0.623 -1.5094  0.1572  0.3659
  290SOL    MW4 1160   4.430   2.485   0.538  0.0528  0.3148  0.1130
  291SOL     OW 1161   3.833   2.918   0.573  0.3051 -0.4166 -0.2796
  291SOL    HW2 1162   3.892   2.853   0.535  0.4209 -0.8649  0.6535
  291SOL    HW3 1163   3.770   2.937   0.504 -0.7999 -2.8317  0.0404
  291SOL    MW4 1164   3.833   2.912   0.559  0.1746 -0.7944 -0.1143
  292SOL     OW 1165   4.144   2.459   0.563 -0.6460  0.0703  0.1054
  292SOL    HW2 1166   4.136   2.455   0.658  0.3779  0.3303  0.2059
  292SOL    HW3 1167   4.239   2.459   0.547 -0.7494  3.0507 -0.7813
  292SOL    MW4 1168   4.156   2.459   0.573 -0.5246  0.4978  0.0017
  293SOL     OW 1169   0.168   3.551   0.510  0.1519  0.0302 -0.1269
  293SOL    HW2 1170   0.076   3.579   0.518  0.3320  0.1745  1.7318
  293SOL    HW3 1171   0.210   3.623   0.463 -0.9576 -0.6781 -2.2672
  293SOL    MW4 1172   0.161   3.565   0.505  0.0293 -0.0442 -0.1641
  294SOL     OW 1173   4.127   4.095   0.570  0.3650 -0.0318  0.6396
  294SOL    HW2 1174   4.037   4.094   0.536  0.4979 -0.8934  0.2924
  294SOL    HW3 1175   4.161   4.181   0.547  0.6583 -0.8050 -1.9718
  294SOL    MW4 1176   4.119   4.106   0.563  0.4213 -0.2475  0.2493
  295SOL     OW 1177   0.538   3.121   0.492  0.3394  0.1511  0.1007
  295SOL    HW2 1178   0.514   3.149   0.580 -0.1584  0.1231 -0.0263
  295SOL    HW3 1179   0.591   3.194   0.458  0.9590 -0.0651  0.6086
  295SOL    MW4 1180   0.542   3.135   0.499  0.3554  0.1189  0.1510
  296SOL     OW 1181   3.813   3.666   0.520 -0.3749  0.1132  0.0073
  296SOL    HW2 1182   3.730   3.710   0.503 -0.3271  0.4066  0.5163
  296SOL    HW3 1183   3.827   3.676   0.614 -0.9607 -2.0179  0.3526
  296SOL    MW4 1184   3.804   3.673   0.530 -0.4459 -0.1293  0.1200
  297SOL     OW 1185   3.944   3.176   0.543  0.4823 -0.0157  0.6445
  297SOL    HW2 1186   3.968   3.201   0.632 -0.2904  0.6832  0.6627
  297SOL    HW3 1187   3.908   3.087   0.552 -0.1644  0.2943  1.1166
  297SOL    MW4 1188   3.942   3.167   0.556  0.2951  0.1174  0.7092
  298SOL     OW 1189   4.489   4.011   0.518 -0.1539 -0.2954 -0.0097
  298SOL    HW2 1190   4.405   3.974   0.489 -0.1469  0.1724 -0.6348
  298SOL    HW3 1191   4.485   4.006   0.613 -0.3418 -1.4942 -0.0792
  298SOL    MW4 1192   4.477   4.006   0.527 -0.1778 -0.3918 -0.1014
  299SOL     OW 1193   4.243   3.879   0.440 -0.1217  0.5241 -0.1574
  299SOL    HW2 1194   4.177   3.849   0.377 -0.6786 -1.9225  1.5297
  299SOL    HW3 1195   4.195   3.939   0.497 -0.6749 -0.4292  0.4111
  299SOL    MW4 1196   4.228   3.883   0.439 -0.2682  0.0755  0.1402
  300SOL     OW 1197   3.869   4.050   0.464  0.4490 -0.3698 -0.0624
  300SOL    HW2 1198   3.776   4.026   0.462  0.4336 -0.2309 -1.0217
  300SOL    HW3 1199   3.912   3.985   0.409  0.7648  0.2709 -0.5678
  300SOL    MW4 1200   3.863   4.038   0.457  0.4886 -0.2670 -0.2557
  301SOL     OW 1201   4.203   4.360   0.502 -0.4275 -0.0903 -0.8243
  301SOL    HW2 1202   4.116   4.395   0.484 -0.4024  0.2201 -0.3413
  301SOL    HW3 1203   4.222   4.387   0.592 -0.0579 -0.6164 -0.7382
  301SOL    MW4 1204   4.194   4.368   0.512 -0.3755 -0.1187 -0.7492
  302SOL     OW 1205   0.215   0.012   0.849  0.1146 -0.3218  0.2335
  302SOL    HW2 1206   0.206  -0.082   0.833 -0.7940 -0.2692  0.4186
  302SOL    HW3 1207   0.139   0.051   0.806 -0.7503  0.1170  2.1518
  302SOL    MW4 1208   0.204   0.005   0.841 -0.1194 -0.2570  0.5110
  303SOL     OW 1209   4.490   0.154   0.734  0.2371  0.3376 -0.0727
  303SOL    HW2 1210   4.411   0.119   0.776  0.5869 -1.3385 -0.7358
  303SOL    HW3 1211   4.504   0.239   0.775 -2.1881  0.8795 -0.2738
  303SOL    MW4 1212   4.481   0.160   0.745 -0.0367  0.1879 -0.1867
  304SOL     OW 1213   0.034   0.413   0.846 -0.5357  0.1530  0.8771
  304SOL    HW2 1214   0.038   0.407   0.942  1.9279 -0.9956  0.7422
  304SOL    HW3 1215   0.116   0.454   0.821 -1.2913  0.7036 -0.7490
  304SOL    MW4 1216   0.045   0.417   0.855 -0.3103  0.0741  0.6448
  305SOL     OW 1217   0.254   0.531   0.743 -0.2191  0.2213  0.0715
  305SOL    HW2 1218   0.312   0.470   0.789 -1.5579 -0.4124  0.9397
  305SOL    HW3 1219   0.268   0.615   0.786 -1.6862 -0.4309  1.8764
  305SOL    MW4 1220   0.264   0.534   0.755 -0.5893  0.0516  0.4242
  306SOL     OW 1221   0.278   0.781   0.859 -0.0337  0.0334 -1.4042
  306SOL    HW2 1222   0.258   0.758   0.950  1.2009 -0.4525 -1.2553
  306SOL    HW3 1223   0.204   0.837   0.833  0.5466  1.7762  0.4915
  306SOL    MW4 1224   0.265   0.786   0.868  0.2057  0.1992 -1.1344
  307SOL     OW 1225   0.052   0.910   0.786  0.2851  0.1011 -0.2772
  307SOL    HW2 1226  -0.018   0.867   0.834 -0.1293  0.6016 -0.4337
  307SOL    HW3 1227   0.037   0.886   0.694 -0.4593  1.2895 -0.4723
  307SOL    MW4 1228   0.041   0.901   0.780  0.1322  0.3239 -0.3236
  308SOL     OW 1229   0.046   1.174   0.855  0.2391  0.0900  0.3137
  308SOL    HW2 1230   0.028   1.178   0.949  0.9305  1.4517  0.4069
  308SOL    HW3 1231   0.049   1.081   0.835  0.3737 -0.2159  1.6992
  308SOL    MW4 1232   0.044   1.163   0.865  0.3480  0.2293  0.5088
  309SOL     OW 1233   0.231   1.281   0.701  0.2859 -0.4005  0.3611
  309SOL    HW2 1234   0.160   1.231   0.742 -0.1792 -0.0039  0.0487
  309SOL    HW3 1235   0.257   1.228   0.625 -0.7161  0.1911 -0.4016
  309SOL    MW4 1236   0.225   1.267   0.696  0.0924 -0.2701  0.2192
  310SOL     OW 1237   0.279   1.497   0.866  0.0809  0.1395 -0.2755
  310SOL    HW2 1238   0.362   1.532   0.832  0.0004  1.0305  0.4647
  310SOL    HW3 1239   0.266   1.417   0.815  2.2615 -0.9232  0.7472
  310SOL    MW4 1240   0.288   1.491   0.855  0.3580  0.1169 -0.0429
  311SOL     OW 1241   0.053   1.661   0.755  0.5069 -0.2617 -0.1381
  311SOL    HW2 1242  -0.023   1.607   0.778 -1.2010  2.2187  0.4000
  311SOL    HW3 1243   0.127   1.620   0.800 -0.5727 -2.5564 -0.4122
  311SOL    MW4 1244   0.053   1.649   0.764  0.1391 -0.2372 -0.1032
  312SOL     OW 1245   4.470   1.943   0.879  0.0363  0.5487 -0.3199
  312SOL    HW2 1246   4.559   1.974   0.867  0.5950  0.0335  2.1453
  312SOL    HW3 1247   4.468   1.858   0.834  0.6534  0.7648 -0.7593
  312SOL    MW4 1248   4.481   1.936   0.872  0.1914  0.5093 -0.0526
  313SOL     OW 1249   0.207   2.036   0.760  0.1211 -0.1270 -0.1305
  313SOL    HW2 1250   0.222   2.130   0.767  0.6727 -0.0932 -1.6229
  313SOL    HW3 1251   0.192   2.021   0.667  3.1547 -1.9641 -0.3944
  313SOL    MW4 1252   0.207   2.046   0.749  0.5941 -0.3650 -0.3622
  314SOL     OW 1253   0.235   2.301   0.837 -0.2057 -0.2873 -0.0063
  314SOL    HW2 1254   0.236   2.301   0.932 -1.1164  0.1760  0.0084
  314SOL    HW3 1255   0.304   2.362   0.812  1.4128 -1.9529  0.3233
  314SOL    MW4 1256   0.244   2.309   0.846 -0.1123 -0.4459  0.0391
  315SOL     OW 1257   0.018   2.464   0.794  0.0168  0.1934 -0.0720
  315SOL    HW2 1258  -0.048   2.402   0.826  0.5870 -0.0012  0.7676
  315SOL    HW3 1259   0.101   2.420   0.812  0.4055  0.9335 -0.0558
  315SOL    MW4 1260   0.020   2.450   0.801  0.1433  0.2653  0.0409
  316SOL     OW 1261   4.489   2.730   0.857 -0.2104 -0.2579  0.0637
  316SOL    HW2 1262   4.495   2.745   0.951 -1.7819 -0.4488  0.2078
  316SOL    HW3 1263   4.499   2.635   0.847 -1.4422 -0.4154  0.1865
  316SOL    MW4 1264   4.491   2.719   0.868 -0.5803 -0.3039  0.0990
  317SOL     OW 1265   0.223   2.859   0.768  0.3737 -0.4785 -0.3329
  317SOL    HW2 1266   0.150   2.801   0.790 -1.1817  1.4787 -0.2023
  317SOL    HW3 1267   0.221   2.865   0.672 -0.7671  0.9770 -0.2285
  317SOL    MW4 1268   0.213   2.852   0.758  0.0180 -0.0282 -0.3019
  318SOL     OW 1269   0.281   3.118   0.840 -0.8902  0.5018 -0.5020
  318SOL    HW2 1270   0.287   3.125   0.935  1.0014  0.5870 -0.6016
  318SOL    HW3 1271   0.257   3.027   0.823  0.6905 -0.0305  0.0177
  318SOL    MW4 1272   0.279   3.107   0.850 -0.4321  0.4428 -0.4466
  319SOL     OW 1273   0.033   3.226   0.746  0.0184  0.2707 -0.1799
  319SOL    HW2 1274   0.102   3.169   0.777 -0.7322 -0.5231  0.0386
  319SOL    HW3 1275   0.059   3.249   0.656  0.6017  0.0513 -0.0645
  319SOL    MW4 1276   0.045   3.222   0.738 -0.0037  0.1370 -0.1358
  320SOL     OW 1277   0.022   3.441   0.917  0.0170  0.1222  0.0330
  320SOL    HW2 1278  -0.054   3.485   0.879 -0.0484 -0.0103  0.0087
  320SOL    HW3 1279   0.026   3.357   0.871  0.2221  0.1608 -0.0167
  320SOL    MW4 1280   0.012   3.435   0.906  0.0354  0.1098  0.0233
  321SOL     OW 1281   0.221   3.590   0.803  0.0396  0.6192  0.1997
  321SOL    HW2 1282   0.157   3.529   0.842  0.2804  0.2594  0.0406
  321SOL    HW3 1283   0.216   3.571   0.709  0.8002  0.1816  0.2453
  321SOL    MW4 1284   0.212   3.579   0.796  0.1717  0.5140  0.1847
  322SOL     OW 1285   0.240   3.865   0.871 -0.4245 -0.5319 -0.2578
  322SOL    HW2 1286   0.239   3.879   0.965  0.0974 -0.0943 -0.3123
  322SOL    HW3 1287   0.243   3.770   0.861  1.2028 -0.5522  0.2041
  322SOL    MW4 1288   0.241   3.854   0.882 -0.1409 -0.4769 -0.2041
  323SOL     OW 1289   0.013   4.003   0.804  0.2460  0.9522 -0.1750
  323SOL    HW2 1290  -0.060   3.946   0.828  0.6326  0.3310 -0.4725
  323SOL    HW3 1291   0.092   3.952   0.823  0.6405  1.9767  1.0862
  323SOL    MW4 1292   0.014   3.989   0.810  0.3490  1.0054 -0.0479
  324SOL     OW 1293   0.029   4.295   0.890 -0.0595 -0.0248  0.2341
  324SOL    HW2 1294   0.009   4.302   0.983 -4.2486  0.7819 -0.6514
  324SOL    HW3 1295   0.036   4.201   0.873  0.3885 -0.1799  1.2861
  324SOL    MW4 1296   0.028   4.284   0.900 -0.5531  0.0611  0.2561
  325SOL     OW 1297   0.246   4.417   0.767 -0.0809  0.0131  0.0163
  325SOL    HW2 1298   0.166   4.371   0.795  0.3800 -0.6197  0.2931
  325SOL    HW3 1299   0.226   4.448   0.678 -1.0575  0.8675  0.5144
  325SOL    MW4 1300   0.232   4.415   0.759 -0.1489  0.0423  0.1185
  326SOL     OW 1301   0.675   4.658   0.833 -0.3791 -0.1339 -0.4621
  326SOL    HW2 1302   0.668   4.683   0.925  0.1010  1.6252 -0.8867
  326SOL    HW3 1303   0.600   4.701   0.792  0.1600  0.1764 -1.1212
  326SOL    MW4 1304   0.664   4.667   0.840 -0.2446  0.1391 -0.6051
  327SOL     OW 1305   0.448   0.100   0.722  0.1669  0.0515  0.2391
  327SOL    HW2 1306   0.376   0.042   0.746 -0.1652  0.6657  0.7498
  327SOL    HW3 1307   0.425   0.134   0.636 -0.6696  1.0634  0.8588
  327SOL    MW4 1308   0.436   0.097   0.714  0.0127  0.2660  0.3882
  328SOL     OW 1309   0.408   0.343   0.898  0.0004  0.2017  0.0083
  328SOL    HW2 1310   0.492   0.382   0.874  0.5229 -0.7667  0.2655
  328SOL    HW3 1311   0.400   0.267   0.841  0.2966 -0.9413  1.4742
  328SOL    MW4 1312   0.418   0.338   0.887  0.1084 -0.0769  0.2356
  329SOL     OW 1313   0.625   0.472   0.820  0.3034 -0.0047  0.1106
  329SOL    HW2 1314   0.712   0.437   0.839  1.0402  1.4268 -0.6050
  329SOL    HW3 1315   0.610   0.449   0.728 -0.0105 -0.1058  0.1882
  329SOL    MW4 1316   0.635   0.464   0.811  0.3592  0.1708  0.0264
  330SOL     OW 1317   0.697   0.742   0.860 -0.3914  0.0563 -0.0416
  330SOL    HW2 1318   0.622   0.787   0.821 -0.2231  0.0015 -0.4315
  330SOL    HW3 1319   0.689   0.651   0.831  0.5675  0.3305 -1.2184
  330SOL    MW4 1320   0.686   0.736   0.851 -0.2427  0.0852 -0.2483
  331SOL     OW 1321   0.490   0.897   0.749 -0.1526  0.0628 -0.6450
  331SOL    HW2 1322   0.479   0.985   0.786 -0.8984  0.9901 -2.9955
  331SOL    HW3 1323   0.418   0.846   0.786  0.9359  0.1282  1.6086
  331SOL    MW4 1324   0.479   0.902   0.759 -0.1074  0.1938 -0.6578
  332SOL     OW 1325   0.451   1.166   0.847  0.0407  0.4527 -0.0957
  332SOL    HW2 1326   0.518   1.180   0.780  0.2386 -0.0616 -0.0022
  332SOL    HW3 1327   0.374   1.212   0.813 -0.2434 -0.8531 -1.2938
  332SOL    MW4 1328   0.450   1.174   0.834  0.0293  0.2125 -0.2414
  333SOL     OW 1329   0.674   1.236   0.717 -0.1001 -0.1354  0.6087
  333SOL    HW2 1330   0.678   1.323   0.756  1.0355 -0.2417  0.7399
  333SOL    HW3 1331   0.695   1.250   0.625  1.2583 -0.4216  0.8690
  333SOL    MW4 1332   0.677   1.249   0.710  0.2290 -0.1872  0.6603
  334SOL     OW 1333   0.737   1.506   0.868 -0.3907 -0.4150 -0.3171
  334SOL    HW2 1334   0.722   1.508   0.962  0.8658  1.3093 -0.1078
  334SOL    HW3 1335   0.659   1.547   0.830 -0.3921 -0.0626  0.0629
  334SOL    MW4 1336   0.725   1.512   0.875 -0.2251 -0.1410 -0.2394
  335SOL     OW 1337   0.501   1.621   0.756 -0.8809  0.1336 -0.2366
  335SOL    HW2 1338   0.504   1.716   0.765  0.6018 -0.0197  0.9987
  335SOL    HW3 1339   0.504   1.606   0.661  2.2349  1.2251 -0.3488
  335SOL    MW4 1340   0.502   1.632   0.745 -0.2742  0.2574 -0.0884
  336SOL     OW 1341   0.432   1.893   0.837 -0.5197  0.6623 -0.0635
  336SOL    HW2 1342   0.434   1.917   0.929 -1.7709  1.7774 -0.2988
  336SOL    HW3 1343   0.359   1.944   0.801  0.3381  0.6947 -1.7923
  336SOL    MW4 1344   0.422   1.903   0.844 -0.5716  0.8137 -0.3226
  337SOL     OW 1345   0.683   2.013   0.753  0.2238  0.5342  0.4155
  337SOL    HW2 1346   0.599   1.972   0.776  0.2523 -0.4548 -1.1208
  337SOL    HW3 1347   0.694   1.993   0.660  3.1565 -1.1873  1.0562
  337SOL    MW4 1348   0.673   2.005   0.743  0.6145  0.1766  0.2974
  338SOL     OW 1349   0.661   2.326   0.851 -0.2780  0.0494 -0.5088
  338SOL    HW2 1350   0.635   2.320   0.943 -3.3951 -0.3892 -1.3796
  338SOL    HW3 1351   0.667   2.235   0.822 -0.8888  0.2230 -1.1799
  338SOL    MW4 1352   0.659   2.313   0.859 -0.7699  0.0145 -0.7122
  339SOL     OW 1353   0.437   2.462   0.764  0.8698  0.1161  0.2967
  339SOL    HW2 1354   0.522   2.430   0.795  1.3330  0.7668 -0.2993
  339SOL    HW3 1355   0.433   2.435   0.673  1.0132  1.2360 -0.0513
  339SOL    MW4 1356   0.448   2.454   0.756  0.9498  0.3497  0.1722
  340SOL     OW 1357   0.426   2.723   0.878  0.6418  0.1308  0.1467
  340SOL    HW2 1358   0.440   2.641   0.831  0.5344  0.5516 -0.6378
  340SOL    HW3 1359   0.363   2.771   0.824 -0.2093  0.2288  1.2155
  340SOL    MW4 1360   0.420   2.718   0.864  0.5153  0.1993  0.1842
  341SOL     OW 1361   0.657   2.854   0.794 -0.0154 -0.4552 -0.1334
  341SOL    HW2 1362   0.740   2.819   0.828 -0.5244 -0.4320  1.1593
  341SOL    HW3 1363   0.590   2.797   0.832 -0.6233 -0.1948 -0.8118
  341SOL    MW4 1364   0.659   2.842   0.803 -0.1628 -0.4178 -0.0523
  342SOL     OW 1365   0.668   3.113   0.877 -0.6470  0.1908  0.0123
  342SOL    HW2 1366   0.607   3.153   0.816  1.8153  0.3010 -2.4564
  342SOL    HW3 1367   0.662   3.019   0.859  0.9971  0.3211 -1.3400
  342SOL    MW4 1368   0.659   3.106   0.867 -0.1052  0.2226 -0.4918
  343SOL     OW 1369   0.474   3.273   0.724  0.1983  0.0022 -0.0989
  343SOL    HW2 1370   0.471   3.357   0.771 -0.0796  0.1123 -0.3145
  343SOL    HW3 1371   0.407   3.219   0.765  1.2515 -0.5689  0.9037
  343SOL    MW4 1372   0.465   3.277   0.736  0.3006 -0.0586  0.0049
  344SOL     OW 1373   0.486   3.524   0.868 -0.7401 -0.4701  0.0647
  344SOL    HW2 1374   0.492   3.512   0.963 -0.7441 -1.1659 -0.0156
  344SOL    HW3 1375   0.398   3.559   0.854 -1.1451 -1.3837  0.2350
  344SOL    MW4 1376   0.475   3.527   0.879 -0.7941 -0.6824  0.0766
  345SOL     OW 1377   0.715   3.634   0.769 -0.7789  0.1304 -0.2927
  345SOL    HW2 1378   0.638   3.589   0.801 -0.4901  0.1161  0.3958
  345SOL    HW3 1379   0.716   3.717   0.817 -0.8816  0.5257 -0.9784
  345SOL    MW4 1380   0.705   3.639   0.780 -0.7544  0.1807 -0.2923
  346SOL     OW 1381   0.680   3.892   0.907 -0.3629 -0.4913 -0.2115
  346SOL    HW2 1382   0.757   3.931   0.865 -0.0947 -0.6933  0.0876
  346SOL    HW3 1383   0.606   3.940   0.870 -0.1142 -0.5000 -0.7261
  346SOL    MW4 1384   0.680   3.904   0.897 -0.2947 -0.5191 -0.2399
  347SOL     OW 1385   0.457   4.008   0.792  0.0639  0.3401 -0.2396
  347SOL    HW2 1386   0.440   4.102   0.798  0.3863  0.3809  0.0145
  347SOL    HW3 1387   0.372   3.968   0.813 -0.2676  0.5843 -1.0892
  347SOL    MW4 1388   0.443   4.015   0.796  0.0627  0.3777 -0.3182
  348SOL     OW 1389   0.478   4.282   0.880 -0.1757  0.0357  0.2844
  348SOL    HW2 1390   0.456   4.271   0.972  0.5005 -1.9671  0.2340
  348SOL    HW3 1391   0.399   4.319   0.840 -0.2279  1.5618  1.7750
  348SOL    MW4 1392   0.465   4.285   0.887 -0.0934 -0.0272  0.4744
  349SOL     OW 1393   0.700   4.398   0.759  0.2109 -0.0749 -0.0370
  349SOL    HW2 1394   0.632   4.353   0.808 -1.0654  1.6978 -0.1253
  349SOL    HW3 1395   0.693   4.489   0.786  2.4036  0.1773 -0.2233
  349SOL    MW4 1396   0.690   4.404   0.769  0.3318  0.1922 -0.0732
  350SOL     OW 1397   1.136   0.020   0.916  0.5891 -0.0259 -0.3787
  350SOL    HW2 1398   1.217   0.062   0.887  0.9596 -0.5128 -0.0463
  350SOL    HW3 1399   1.069   0.052   0.854  0.9718  0.6100 -0.4649
  350SOL    MW4 1400   1.138   0.029   0.904  0.6885 -0.0063 -0.3462
  351SOL     OW 1401   0.929   0.096   0.754  0.5622 -0.3749 -0.1181
  351SOL    HW2 1402   0.926   0.188   0.780  2.1789 -0.0407 -1.0475
  351SOL    HW3 1403   0.845   0.060   0.783  0.5094  1.0328  1.5424
  351SOL    MW4 1404   0.918   0.104   0.761  0.7686 -0.1451 -0.0216
  352SOL     OW 1405   0.877   0.359   0.880  0.0314  0.4222 -0.0813
  352SOL    HW2 1406   0.904   0.368   0.971  1.2209  0.6545 -0.4418
  352SOL    HW3 1407   0.934   0.420   0.833 -1.8831  1.7365 -0.7386
  352SOL    MW4 1408   0.888   0.368   0.886 -0.0642  0.6262 -0.2156
  353SOL     OW 1409   1.110   0.527   0.769 -0.3185  0.4642 -0.4065
  353SOL    HW2 1410   1.187   0.497   0.817 -0.5966 -0.9451 -0.8114
  353SOL    HW3 1411   1.133   0.513   0.677 -1.6335 -1.4577 -0.4778
  353SOL    MW4 1412   1.123   0.521   0.763 -0.5287  0.0247 -0.4693
  354SOL     OW 1413   1.151   0.792   0.850  0.3550 -0.2877  0.6226
  354SOL    HW2 1414   1.121   0.786   0.940  0.7259  1.6915  0.8970
  354SOL    HW3 1415   1.156   0.701   0.820 -1.8593 -0.8572  1.8843
  354SOL    MW4 1416   1.148   0.780   0.858  0.1118 -0.1017  0.8253
  355SOL     OW 1417   0.910   0.903   0.769  0.2225  0.2104  0.1815
  355SOL    HW2 1418   0.977   0.842   0.799  0.2907  0.2234  0.0563
  355SOL    HW3 1419   0.828   0.868   0.804  0.0877 -0.7165 -1.0072
  355SOL    MW4 1420   0.908   0.890   0.777  0.2137  0.0898  0.0082
  356SOL     OW 1421   0.914   1.169   0.854 -0.2503 -0.2506  0.6179
  356SOL    HW2 1422   0.927   1.079   0.823 -0.1441 -0.1676  0.4197
  356SOL    HW3 1423   0.841   1.202   0.802 -0.2647 -0.2095  0.6647
  356SOL    MW4 1424   0.906   1.162   0.843 -0.2382 -0.2342  0.5979
  357SOL     OW 1425   1.153   1.272   0.756 -0.0755  0.1643 -0.2715
  357SOL    HW2 1426   1.078   1.244   0.809 -0.1345  0.4111 -0.2222
  357SOL    HW3 1427   1.132   1.242   0.667  1.0388 -2.1972  0.2181
  357SOL    MW4 1428   1.140   1.264   0.751  0.0637 -0.1147 -0.2004
  358SOL     OW 1429   1.165   1.529   0.847 -0.0816 -0.1083  0.0540
  358SOL    HW2 1430   1.098   1.586   0.809  0.9607 -0.2452 -1.9965
  358SOL    HW3 1431   1.156   1.446   0.800  0.6463 -0.5631  0.6975
  358SOL    MW4 1432   1.155   1.525   0.836  0.1520 -0.1863 -0.1317
  359SOL     OW 1433   0.908   1.685   0.749  0.3152  0.1684 -0.0034
  359SOL    HW2 1434   0.912   1.760   0.808  0.7195 -0.1595  0.3817
  359SOL    HW3 1435   0.844   1.626   0.789 -1.4335  1.1465 -1.2790
  359SOL    MW4 1436   0.900   1.687   0.762  0.1378  0.2542 -0.1209
  360SOL     OW 1437   0.939   1.932   0.857  0.0847 -0.2161  0.3407
  360SOL    HW2 1438   0.916   1.936   0.950 -0.7210 -1.9098  0.2377
  360SOL    HW3 1439   0.870   1.982   0.813 -0.7476 -1.2300  0.4729
  360SOL    MW4 1440   0.927   1.939   0.864 -0.1314 -0.5733  0.3445
  361SOL     OW 1441   1.145   2.081   0.710  0.2673 -0.3509  0.3553
  361SOL    HW2 1442   1.126   2.167   0.748 -1.2658 -0.5611  0.1044
  361SOL    HW3 1443   1.103   2.018   0.769 -0.7662 -0.7725 -0.7967
  361SOL    MW4 1444   1.137   2.084   0.723 -0.0714 -0.4342  0.1702
  362SOL     OW 1445   1.109   2.357   0.804  0.1417 -0.0022 -0.1883
  362SOL    HW2 1446   1.097   2.350   0.899 -0.2582  0.5446 -0.1919
  362SOL    HW3 1447   1.200   2.385   0.793 -0.6082  2.8337  0.1863
  362SOL    MW4 1448   1.119   2.360   0.815 -0.0100  0.4441 -0.1394
  363SOL     OW 1449   0.872   2.477   0.722 -0.1006  0.0329 -0.4875
  363SOL    HW2 1450   0.948   2.433   0.761  0.5693  0.0611 -1.7368
  363SOL    HW3 1451   0.796   2.433   0.761  0.5560 -0.7211 -0.0432
  363SOL    MW4 1452   0.872   2.465   0.732  0.0744 -0.0628 -0.5937
  364SOL     OW 1453   0.911   2.728   0.849 -0.1803 -0.1689 -0.2720
  364SOL    HW2 1454   0.922   2.707   0.942  0.0522  0.0994 -0.2363
  364SOL    HW3 1455   0.903   2.643   0.806 -0.8433 -0.2774  0.0597
  364SOL    MW4 1456   0.912   2.714   0.855 -0.2371 -0.1478 -0.2235
  365SOL     OW 1457   1.104   2.834   0.651 -0.4372 -0.3009  0.2686
  365SOL    HW2 1458   1.050   2.796   0.720  0.1326 -1.4248  0.1067
  365SOL    HW3 1459   1.042   2.878   0.593 -0.9571  0.3341  1.2815
  365SOL    MW4 1460   1.089   2.835   0.653 -0.4307 -0.3654  0.3809
  366SOL     OW 1461   1.136   3.057   0.844  0.1907 -0.0402 -0.1719
  366SOL    HW2 1462   1.078   3.125   0.808  0.5962  1.1740  1.4577
  366SOL    HW3 1463   1.125   2.983   0.783 -1.6159  0.8335 -0.9655
  366SOL    MW4 1464   1.127   3.056   0.831  0.0058  0.2353 -0.0616
  367SOL     OW 1465   0.902   3.241   0.785  0.0213  0.2807 -0.1125
  367SOL    HW2 1466   0.901   3.318   0.843  0.2583  0.3481 -0.1980
  367SOL    HW3 1467   0.821   3.195   0.806  0.4621 -0.0843  0.8017
  367SOL    MW4 1468   0.892   3.245   0.796  0.1107  0.2414 -0.0032
  368SOL     OW 1469   0.922   3.483   0.925  0.7104  0.7240  0.0890
  368SOL    HW2 1470   1.003   3.517   0.887  0.4583  1.5053  0.2547
  368SOL    HW3 1471   0.852   3.523   0.872  0.3913  0.9728  0.7013
  368SOL    MW4 1472   0.923   3.492   0.913  0.6351  0.8599  0.1916
  369SOL     OW 1473   1.135   3.630   0.838 -0.2768  0.2827  0.4087
  369SOL    HW2 1474   1.218   3.586   0.857 -0.1821  0.2280 -0.1238
  369SOL    HW3 1475   1.138   3.648   0.744 -1.6203 -1.2995  0.0300
  369SOL    MW4 1476   1.146   3.627   0.828 -0.4416  0.0667  0.2885
  370SOL     OW 1477   1.161   3.910   0.892  0.3254 -0.2566  0.0094
  370SOL    HW2 1478   1.142   3.927   0.984 -1.7830  0.4269 -0.5317
  370SOL    HW3 1479   1.156   3.814   0.883 -1.7501 -0.1753  0.1398
  370SOL    MW4 1480   1.158   3.899   0.903 -0.2266 -0.1557 -0.0448
  371SOL     OW 1481   0.909   3.978   0.787 -0.8216  0.5227 -0.1767
  371SOL    HW2 1482   0.899   4.070   0.811 -0.4343  0.4836  0.1478
  371SOL    HW3 1483   0.997   3.956   0.816 -0.6945  0.2136 -0.8063
  371SOL    MW4 1484   0.919   3.987   0.794 -0.7538  0.4768 -0.2169
  372SOL     OW 1485   0.909   4.246   0.874 -0.4738 -0.2205  0.0564
  372SOL    HW2 1486   0.980   4.309   0.862 -0.7640  0.2143  0.5641
  372SOL    HW3 1487   0.831   4.292   0.843 -0.9262  0.2279  1.7784
  372SOL    MW4 1488   0.908   4.261   0.868 -0.5718 -0.1040  0.3506
  373SOL     OW 1489   1.128   4.434   0.810  0.4386  0.2631  0.2462
  373SOL    HW2 1490   1.216   4.404   0.832  0.5798  0.4869 -0.0106
  373SOL    HW3 1491   1.121   4.519   0.854  0.4416  0.3577  0.0657
  373SOL    MW4 1492   1.139   4.441   0.819  0.4577  0.3051  0.1885
  374SOL     OW 1493   1.549   0.003   0.882 -0.1130  0.2732 -0.3877
  374SOL    HW2 1494   1.543  -0.008   0.977 -0.0759  2.5012 -0.1064
  374SOL    HW3 1495   1.485   0.072   0.862 -0.3330 -0.3904 -2.0150
  374SOL    MW4 1496   1.540   0.011   0.892 -0.1372  0.4796 -0.5653
  375SOL     OW 1497   1.342   0.188   0.835  0.0257 -0.3509 -0.1336
  375SOL    HW2 1498   1.328   0.281   0.852 -0.4536 -0.4462  0.0064
  375SOL    HW3 1499   1.326   0.177   0.741 -0.8726 -0.4659  0.0342
  375SOL    MW4 1500   1.338   0.199   0.825 -0.1561 -0.3787 -0.0930
  376SOL     OW 1501   1.325   0.454   0.918  0.1273  0.3810 -0.1248
  376SOL    HW2 1502   1.336   0.408   1.002 -0.5332 -0.0730 -0.2829
  376SOL    HW3 1503   1.413   0.482   0.895  0.3353  0.4082  0.6680
  376SOL    MW4 1504   1.338   0.451   0.926  0.0676  0.3247 -0.0411
  377SOL     OW 1505   1.587   0.504   0.848  0.0099  0.0275  0.0881
  377SOL    HW2 1506   1.592   0.595   0.877 -0.2140  0.2788 -0.6305
  377SOL    HW3 1507   1.677   0.473   0.851  0.1106  0.3259  0.1776
  377SOL    MW4 1508   1.599   0.512   0.852 -0.0064  0.1001  0.0051
  378SOL     OW 1509   1.582   0.811   0.854 -0.6924 -0.1029  0.4361
  378SOL    HW2 1510   1.663   0.850   0.822  0.3311 -1.9644  0.6996
  378SOL    HW3 1511   1.513   0.853   0.802  0.5064  0.7579 -0.4931
  378SOL    MW4 1512   1.583   0.822   0.843 -0.3992 -0.2349  0.3483
  379SOL     OW 1513   1.372   0.949   0.736 -0.3492  0.0797 -0.5651
  379SOL    HW2 1514   1.381   1.026   0.792 -2.6129  0.9235 -1.3048
  379SOL    HW3 1515   1.300   0.900   0.775 -1.6751  0.4711 -2.4534
  379SOL    MW4 1516   1.363   0.953   0.749 -0.8228  0.2427 -0.9118
  380SOL     OW 1517   1.372   1.166   0.894  0.5121  0.4773  0.3182
  380SOL    HW2 1518   1.449   1.214   0.863  1.0308 -0.7147 -0.2779
  380SOL    HW3 1519   1.300   1.202   0.843  0.7984  1.0552  0.3164
  380SOL    MW4 1520   1.373   1.177   0.883  0.6183  0.3963  0.2393
  381SOL     OW 1521   1.600   1.288   0.784  0.1181  0.2249 -0.1593
  381SOL    HW2 1522   1.583   1.380   0.803 -0.3228  0.1427 -0.1420
  381SOL    HW3 1523   1.577   1.278   0.691  0.9083  0.3077 -0.3647
  381SOL    MW4 1524   1.594   1.299   0.774  0.1642  0.2250 -0.1841
  382SOL     OW 1525   1.589   1.546   0.861 -0.3921 -0.1566  0.3481
  382SOL    HW2 1526   1.589   1.561   0.956  0.4172  2.4880 -0.0185
  382SOL    HW3 1527   1.514   1.597   0.829  0.6609  0.7703 -0.6745
  382SOL    MW4 1528   1.579   1.555   0.869 -0.1464  0.3146  0.1648
  383SOL     OW 1529   1.361   1.693   0.769  0.3051 -0.4918  0.0959
  383SOL    HW2 1530   1.359   1.782   0.806  0.5497  0.0821 -1.2224
  383SOL    HW3 1531   1.293   1.646   0.816 -0.7827  0.7935 -0.1462
  383SOL    MW4 1532   1.352   1.699   0.780  0.1938 -0.2465 -0.1100
  384SOL     OW 1533   1.351   1.947   0.862  0.2697 -0.7900  0.3544
  384SOL    HW2 1534   1.322   1.957   0.952 -0.6724 -1.4942  0.1435
  384SOL    HW3 1535   1.298   2.009   0.812 -0.2259 -1.4171  0.0932
  384SOL    MW4 1536   1.340   1.956   0.867  0.0800 -0.9656  0.2921
  385SOL     OW 1537   1.598   2.018   0.751  0.0913 -0.0610 -0.2131
  385SOL    HW2 1538   1.519   1.979   0.788 -0.2428 -0.4075 -1.2693
  385SOL    HW3 1539   1.578   2.032   0.659  0.7860  1.1251 -0.2030
  385SOL    MW4 1540   1.585   2.015   0.744  0.1389  0.0498 -0.3511
  386SOL     OW 1541   1.564   2.272   0.860  0.1831  0.0051  0.2673
  386SOL    HW2 1542   1.502   2.320   0.805 -1.0472 -0.9134  0.8287
  386SOL    HW3 1543   1.567   2.184   0.822  0.4225 -0.2260  0.8128
  386SOL    MW4 1544   1.556   2.266   0.848  0.0524 -0.1466  0.4133
  387SOL     OW 1545   1.388   2.431   0.733 -0.2856 -0.2017 -0.1538
  387SOL    HW2 1546   1.372   2.514   0.778 -0.1700 -0.3026  0.0767
  387SOL    HW3 1547   1.378   2.451   0.640 -0.7260 -0.0320 -0.0706
  387SOL    MW4 1548   1.384   2.444   0.727 -0.3285 -0.1926 -0.1124
  388SOL     OW 1549   1.374   2.668   0.866  0.0234 -0.2980  0.3119
  388SOL    HW2 1550   1.372   2.673   0.962 -1.5641 -1.3271  0.3613
  388SOL    HW3 1551   1.325   2.745   0.837 -1.4188 -1.1676  0.3977
  388SOL    MW4 1552   1.367   2.678   0.875 -0.3763 -0.5485  0.3297
  389SOL     OW 1553   1.559   2.802   0.718 -0.1670  0.3526 -0.5321
  389SOL    HW2 1554   1.550   2.877   0.776  1.3561  0.3246 -0.2580
  389SOL    HW3 1555   1.510   2.732   0.761  1.5148  0.1420  1.0495
  389SOL    MW4 1556   1.551   2.803   0.731  0.2558  0.3211 -0.2872
  390SOL     OW 1557   1.527   3.037   0.868  0.0814  0.5655 -0.2767
  390SOL    HW2 1558   1.529   3.055   0.962  0.3563  2.1295 -0.5753
  390SOL    HW3 1559   1.462   3.097   0.833  2.5681  2.6020 -1.5994
  390SOL    MW4 1560   1.519   3.047   0.876  0.4458  1.0405 -0.4906
  391SOL     OW 1561   1.343   3.242   0.788  0.3114 -0.0551 -0.0209
  391SOL    HW2 1562   1.277   3.177   0.811 -1.3415  1.3500 -0.7297
  391SOL    HW3 1563   1.310   3.284   0.709  1.7485  1.0738 -0.0434
  391SOL    MW4 1564   1.330   3.239   0.781  0.2829  0.2792 -0.1174
  392SOL     OW 1565   1.387   3.490   0.895  0.5055  0.2139  0.3357
  392SOL    HW2 1566   1.442   3.527   0.825 -0.7179  1.7007  0.1410
  392SOL    HW3 1567   1.370   3.400   0.866  2.4880 -0.1551  0.2143
  392SOL    MW4 1568   1.392   3.483   0.882  0.6057  0.3614  0.2940
  393SOL     OW 1569   1.576   3.590   0.734  0.4789 -0.1908 -0.2790
  393SOL    HW2 1570   1.658   3.559   0.772  0.4459  0.3808  0.2587
  393SOL    HW3 1571   1.566   3.538   0.653  1.2991 -0.3481 -0.2809
  393SOL    MW4 1572   1.586   3.579   0.728  0.5828 -0.1361 -0.2083
  394SOL     OW 1573   1.553   3.898   0.862  0.0897  0.1938  0.1217
  394SOL    HW2 1574   1.494   3.945   0.803  0.3606  0.2643 -0.0947
  394SOL    HW3 1575   1.560   3.810   0.823  0.3124  0.2574  0.0202
  394SOL    MW4 1576   1.546   3.892   0.849  0.1548  0.2115  0.0797
  395SOL     OW 1577   1.355   4.052   0.753  0.1490  0.0851 -0.0293
  395SOL    HW2 1578   1.292   3.997   0.798 -1.1307  1.5468  0.0135
  395SOL    HW3 1579   1.338   4.037   0.660  0.7336 -0.6242 -0.0257
  395SOL    MW4 1580   1.345   4.043   0.746  0.0573  0.1843 -0.0232
  396SOL     OW 1581   1.374   4.316   0.886 -0.1092 -0.5240 -0.0889
  396SOL    HW2 1582   1.448   4.343   0.832  0.0463 -1.0429 -0.1377
  396SOL    HW3 1583   1.360   4.224   0.863 -0.3570 -0.6073  0.3904
  396SOL    MW4 1584   1.382   4.307   0.876 -0.1214 -0.6034 -0.0321
  397SOL     OW 1585   1.580   4.444   0.717 -0.0111  0.5423 -0.3767
  397SOL    HW2 1586   1.662   4.401   0.743 -1.8160 -2.0332  1.3142
  397SOL    HW3 1587   1.572   4.519   0.775 -0.7401 -1.4329  2.1630
  397SOL    MW4 1588   1.590   4.448   0.728 -0.3454 -0.0581  0.1815
  398SOL     OW 1589   2.020   4.639   0.862  0.1927 -0.0286 -0.3103
  398SOL    HW2 1590   2.103   4.687   0.863  0.5624 -0.5995 -1.8883
  398SOL    HW3 1591   2.043   4.552   0.829 -1.1683  0.0902 -1.6321
  398SOL    MW4 1592   2.034   4.634   0.857  0.0619 -0.0883 -0.6929
  399SOL     OW 1593   1.786   0.104   0.734 -0.6619  0.2371  0.2794
  399SOL    HW2 1594   1.864   0.062   0.770 -1.1726 -1.1555 -0.1972
  399SOL    HW3 1595   1.717   0.087   0.798 -0.9088  0.2228  0.0142
  399SOL    MW4 1596   1.787   0.096   0.747 -0.7619  0.0515  0.1815
  400SOL     OW 1597   1.840   0.386   0.828 -0.1849 -0.1153  0.0789
  400SOL    HW2 1598   1.839   0.299   0.790 -0.2604 -0.6940  1.3907
  400SOL    HW3 1599   1.924   0.424   0.800 -0.9254  0.0740 -1.9636
  400SOL    MW4 1600   1.851   0.380   0.819 -0.2926 -0.1667 -0.0175
  401SOL     OW 1601   2.085   0.506   0.755  0.5434 -0.3093  0.0659
  401SOL    HW2 1602   2.128   0.441   0.811  1.0984 -0.4668 -0.5373
  401SOL    HW3 1603   2.101   0.475   0.666 -2.5586 -1.4990 -0.1473
  401SOL    MW4 1604   2.093   0.493   0.751  0.2073 -0.4871 -0.0418
  402SOL     OW 1605   2.057   0.769   0.889 -0.2015  0.0836 -0.3076
  402SOL    HW2 1606   2.141   0.809   0.868  0.0109 -0.2156 -0.0283
  402SOL    HW3 1607   2.057   0.686   0.843 -0.4219  0.1647 -0.4562
  402SOL    MW4 1608   2.068   0.764   0.880 -0.2025  0.0548 -0.2904
  403SOL     OW 1609   1.848   0.906   0.781  0.1478 -0.0854  0.2462
  403SOL    HW2 1610   1.853   0.993   0.821  1.7213  0.0354 -0.1781
  403SOL    HW3 1611   1.911   0.854   0.830 -0.4243 -0.8570  0.1663
  403SOL    MW4 1612   1.857   0.911   0.793  0.2799 -0.1713  0.1797
  404SOL     OW 1613   1.840   1.171   0.894  0.5153 -0.4004 -0.1740
  404SOL    HW2 1614   1.913   1.219   0.854  0.8776 -1.1756 -0.4483
  404SOL    HW3 1615   1.762   1.207   0.851  0.6933  0.8048  0.5065
  404SOL    MW4 1616   1.839   1.182   0.883  0.5866 -0.3437 -0.1204
  405SOL     OW 1617   2.059   1.278   0.788 -0.0599  0.1880  0.1583
  405SOL    HW2 1618   2.137   1.247   0.834  0.6015  0.2719 -0.8712
  405SOL    HW3 1619   2.090   1.295   0.699 -1.3605 -0.1696 -0.3680
  405SOL    MW4 1620   2.074   1.276   0.782 -0.1442  0.1519 -0.0470
  406SOL     OW 1621   2.024   1.520   0.902  0.1292  0.0573 -0.1063
  406SOL    HW2 1622   2.091   1.580   0.869  0.2479  0.4263  0.7938
  406SOL    HW3 1623   2.038   1.439   0.853  1.8707 -0.1971  0.7665
  406SOL    MW4 1624   2.035   1.517   0.891  0.3746  0.0724  0.1276
  407SOL     OW 1625   1.832   1.653   0.752  0.2679  0.1555 -0.4559
  407SOL    HW2 1626   1.890   1.602   0.810  0.3956 -0.8228 -1.4366
  407SOL    HW3 1627   1.744   1.622   0.773  0.1853  0.8945  0.2946
  407SOL    MW4 1628   1.828   1.642   0.763  0.2738  0.1239 -0.4863
  408SOL     OW 1629   1.793   1.885   0.918  0.1900  0.4167  0.1290
  408SOL    HW2 1630   1.824   1.810   0.869 -0.8372  0.2853 -0.3268
  408SOL    HW3 1631   1.715   1.915   0.871 -0.4406  0.6761  1.3093
  408SOL    MW4 1632   1.787   1.879   0.906 -0.0288  0.4336  0.2246
  409SOL     OW 1633   1.996   2.050   0.780 -0.0164  0.2615  0.1505
  409SOL    HW2 1634   2.001   2.139   0.816  0.3924  0.3853 -0.2024
  409SOL    HW3 1635   1.922   2.010   0.825  0.5123  0.4037  1.1502
  409SOL    MW4 1636   1.987   2.056   0.791  0.1073  0.2966  0.2358
  410SOL     OW 1637   2.002   2.273   0.933  0.0478 -0.4195 -0.1977
  410SOL    HW2 1638   2.006   2.291   1.027  1.6156  0.1367 -0.3702
  410SOL    HW3 1639   1.929   2.326   0.901 -0.3283 -0.4203  0.6573
  410SOL    MW4 1640   1.993   2.282   0.941  0.2051 -0.3462 -0.1077
  411SOL     OW 1641   1.781   2.425   0.840 -0.4046  0.0038  0.5819
  411SOL    HW2 1642   1.701   2.375   0.850  0.0616 -0.8841 -0.1178
  411SOL    HW3 1643   1.784   2.450   0.748  0.3234 -0.3093  0.5151
  411SOL    MW4 1644   1.771   2.422   0.829 -0.2470 -0.1546  0.4808
  412SOL     OW 1645   1.797   2.709   0.867 -0.1080 -0.1219  0.1352
  412SOL    HW2 1646   1.802   2.613   0.865 -1.6410 -0.1982 -0.3425
  412SOL    HW3 1647   1.720   2.731   0.815  0.7186  1.4272 -0.4860
  412SOL    MW4 1648   1.788   2.699   0.860 -0.2012  0.0724 -0.0098
  413SOL     OW 1649   2.040   2.842   0.787  0.6715 -0.3664 -0.0290
  413SOL    HW2 1650   2.109   2.786   0.823 -0.0817 -0.8935  0.6247
  413SOL    HW3 1651   1.958   2.802   0.818  0.1182  0.9989  0.3349
  413SOL    MW4 1652   2.038   2.829   0.796  0.4991 -0.2558  0.1053
  414SOL     OW 1653   2.061   3.087   0.918 -0.1014 -0.4788  0.4666
  414SOL    HW2 1654   1.973   3.121   0.902  0.2338  0.0414 -0.2828
  414SOL    HW3 1655   2.063   3.003   0.872 -0.3577 -0.7129  0.8788
  414SOL    MW4 1656   2.050   3.080   0.910 -0.0910 -0.4411  0.4221
  415SOL     OW 1657   1.800   3.162   0.834  0.4322  0.2713 -0.3818
  415SOL    HW2 1658   1.718   3.113   0.840 -0.4158  1.5847 -1.0754
  415SOL    HW3 1659   1.819   3.166   0.740  0.7428  0.8555 -0.2973
  415SOL    MW4 1660   1.792   3.156   0.822  0.3613  0.5217 -0.4622
  416SOL     OW 1661   1.798   3.461   0.849 -0.4863 -0.2946  0.3090
  416SOL    HW2 1662   1.791   3.467   0.944 -0.5748 -1.3914  0.3801
  416SOL    HW3 1663   1.782   3.369   0.830 -2.1274  0.2329 -0.9145
  416SOL    MW4 1664   1.795   3.450   0.859 -0.7145 -0.3697  0.1570
  417SOL     OW 1665   2.050   3.589   0.788  0.2011  0.2854  0.0740
  417SOL    HW2 1666   2.019   3.679   0.786  0.2125  0.2683 -0.9908
  417SOL    HW3 1667   1.975   3.539   0.823  0.5382  0.8270  1.5956
  417SOL    MW4 1668   2.036   3.594   0.792  0.2471  0.3546  0.1343
  418SOL     OW 1669   2.000   3.860   0.860  0.0507 -0.6910  0.2718
  418SOL    HW2 1670   2.003   3.878   0.954 -0.9228 -1.1656  0.4006
  418SOL    HW3 1671   1.938   3.924   0.825  0.8293 -0.1546 -0.1390
  418SOL    MW4 1672   1.992   3.871   0.868  0.0250 -0.6829  0.2346
  419SOL     OW 1673   1.786   4.008   0.752 -0.0431 -0.0774  0.0169
  419SOL    HW2 1674   1.703   3.981   0.791  0.1297 -0.8132 -0.1096
  419SOL    HW3 1675   1.775   3.992   0.658  0.4722 -0.8222  0.0748
  419SOL    MW4 1676   1.773   4.002   0.745  0.0476 -0.2728  0.0079
  420SOL     OW 1677   1.797   4.313   0.825 -0.0341 -0.1679 -0.1999
  420SOL    HW2 1678   1.787   4.307   0.920 -1.0090  0.1297 -0.2803
  420SOL    HW3 1679   1.783   4.224   0.794  0.8709 -0.3783 -0.0149
  420SOL    MW4 1680   1.794   4.301   0.833 -0.0433 -0.1564 -0.1861
  421SOL     OW 1681   2.081   4.369   0.795 -0.3366  0.0892 -0.0270
  421SOL    HW2 1682   1.989   4.344   0.798 -0.3616  0.2127  0.2423
  421SOL    HW3 1683   2.095   4.396   0.704 -1.1293  2.1522  0.4271
  421SOL    MW4 1684   2.071   4.369   0.783 -0.4445  0.3777  0.0684
  422SOL     OW 1685   2.513   4.637   0.837 -0.3127  0.2057  0.1052
  422SOL    HW2 1686   2.537   4.636   0.930  0.7794  0.7940 -0.1608
  422SOL    HW3 1687   2.487   4.547   0.818  0.2346 -0.0994  0.7801
  422SOL    MW4 1688   2.513   4.625   0.847 -0.0964  0.2431  0.1591
  423SOL     OW 1689   2.265   0.093   0.837 -0.1988  0.1454  0.6942
  423SOL    HW2 1690   2.354   0.057   0.847 -0.0966  1.0490  3.7726
  423SOL    HW3 1691   2.246   0.086   0.744  2.4386 -1.6615  0.2337
  423SOL    MW4 1692   2.274   0.087   0.826  0.1626  0.0262  1.0396
  424SOL     OW 1693   2.240   0.356   0.930 -0.2104 -0.0787  0.1995
  424SOL    HW2 1694   2.324   0.380   0.892 -1.0829  1.9566 -0.4696
  424SOL    HW3 1695   2.227   0.264   0.904  1.4533 -0.1877 -0.2826
  424SOL    MW4 1696   2.249   0.347   0.922 -0.1060  0.1755  0.0476
  425SOL     OW 1697   2.487   0.462   0.799 -0.2314  0.1530 -0.2565
  425SOL    HW2 1698   2.564   0.415   0.831 -0.1827  0.2657 -0.2061
  425SOL    HW3 1699   2.492   0.453   0.703  0.1872  0.6784 -0.2941
  425SOL    MW4 1700   2.498   0.455   0.790 -0.1698  0.2372 -0.2548
  426SOL     OW 1701   2.488   0.723   0.894 -0.1379  0.4347 -0.3432
  426SOL    HW2 1702   2.550   0.776   0.845 -1.3598  1.6111 -0.6640
  426SOL    HW3 1703   2.495   0.635   0.856 -0.6582  1.1989 -2.2383
  426SOL    MW4 1704   2.497   0.718   0.882 -0.3677  0.6908 -0.6356
  427SOL     OW 1705   2.276   0.900   0.847 -0.0522 -0.3642  0.2825
  427SOL    HW2 1706   2.346   0.844   0.880 -1.4015 -2.0379  0.4155
  427SOL    HW3 1707   2.265   0.873   0.756  0.5310  0.9930 -0.1964
  427SOL    MW4 1708   2.283   0.889   0.839 -0.1533 -0.4060  0.2368
  428SOL     OW 1709   2.284   1.168   0.903  0.1898  0.4305 -0.1016
  428SOL    HW2 1710   2.287   1.165   0.999 -1.8920  0.8766  0.0014
  428SOL    HW3 1711   2.263   1.079   0.877  2.7745 -0.1674 -0.2740
  428SOL    MW4 1712   2.281   1.156   0.913  0.2561  0.4104 -0.1108
  429SOL     OW 1713   2.505   1.284   0.765 -0.3429  0.1745  0.4917
  429SOL    HW2 1714   2.427   1.234   0.788  0.2773 -1.2221 -0.3984
  429SOL    HW3 1715   2.533   1.248   0.681  2.9046 -1.3375  2.1467
  429SOL    MW4 1716   2.498   1.272   0.757  0.1674 -0.2092  0.5926
  430SOL     OW 1717   2.508   1.539   0.875  0.1640 -0.6384 -0.5572
  430SOL    HW2 1718   2.584   1.582   0.837  0.2171 -0.4077 -0.1915
  430SOL    HW3 1719   2.508   1.451   0.837  0.3963 -0.5145 -0.8426
  430SOL    MW4 1720   2.518   1.533   0.865  0.2016 -0.5916 -0.5466
  431SOL     OW 1721   2.228   1.676   0.809  0.1597  0.1429 -0.2387
  431SOL    HW2 1722   2.311   1.629   0.818  0.9196  1.7809  1.5592
  431SOL    HW3 1723   2.205   1.666   0.716  2.2095 -0.5795 -0.6955
  431SOL    MW4 1724   2.236   1.669   0.798  0.5304  0.2637 -0.0617
  432SOL     OW 1725   2.193   1.935   0.950  0.6328 -0.1289  0.3156
  432SOL    HW2 1726   2.213   1.853   0.907  1.0808  0.1993 -0.1057
  432SOL    HW3 1727   2.120   1.972   0.900  0.8550  0.0380  0.1173
  432SOL    MW4 1728   2.186   1.929   0.938  0.7212 -0.0636  0.2339
  433SOL     OW 1729   2.426   2.062   0.849  0.0330 -0.3181  0.0602
  433SOL    HW2 1730   2.341   2.027   0.878 -1.7384  3.8526  0.1957
  433SOL    HW3 1731   2.417   2.073   0.755  1.0957 -1.4646 -0.1931
  433SOL    MW4 1732   2.414   2.059   0.841 -0.0605  0.0809  0.0447
  434SOL     OW 1733   2.455   2.302   0.934 -0.4874  0.1678 -0.2947
  434SOL    HW2 1734   2.528   2.348   0.892 -1.7900  1.4007 -1.2888
  434SOL    HW3 1735   2.463   2.212   0.903 -0.0081  0.5296 -1.2512
  434SOL    MW4 1736   2.466   2.296   0.924 -0.5960  0.3782 -0.5520
  435SOL     OW 1737   2.235   2.394   0.827 -0.1707 -0.0114 -0.1278
  435SOL    HW2 1738   2.304   2.370   0.889 -0.6158  1.9334  1.1550
  435SOL    HW3 1739   2.156   2.352   0.863 -0.2822  0.4963  0.2310
  435SOL    MW4 1740   2.234   2.385   0.840 -0.2441  0.3122  0.0888
  436SOL     OW 1741   2.238   2.669   0.881 -0.1814  0.2359  0.4712
  436SOL    HW2 1742   2.238   2.677   0.976  1.5468 -1.6118  0.6704
  436SOL    HW3 1743   2.215   2.577   0.865 -0.7479  0.6032 -0.9210
  436SOL    MW4 1744   2.235   2.658   0.892 -0.0281  0.0406  0.3138
  437SOL     OW 1745   2.448   2.847   0.824 -0.1838 -0.1663 -0.1119
  437SOL    HW2 1746   2.522   2.800   0.861 -1.0111 -1.8556 -0.5289
  437SOL    HW3 1747   2.375   2.784   0.828 -1.2470  0.9716 -0.9747
  437SOL    MW4 1748   2.448   2.832   0.829 -0.4332 -0.2391 -0.2808
  438SOL     OW 1749   2.487   3.123   0.879  0.7950 -0.0456 -0.3519
  438SOL    HW2 1750   2.491   3.139   0.973 -0.5318  0.9446 -0.4537
  438SOL    HW3 1751   2.483   3.027   0.872 -0.7970 -0.0941  0.7023
  438SOL    MW4 1752   2.487   3.112   0.891  0.4099  0.0786 -0.2262
  439SOL     OW 1753   2.257   3.227   0.755 -0.1596 -0.0628  0.0272
  439SOL    HW2 1754   2.201   3.172   0.810 -0.1927 -0.6519 -0.5861
  439SOL    HW3 1755   2.345   3.197   0.773 -0.1131  0.2299  0.2914
  439SOL    MW4 1756   2.261   3.216   0.765 -0.1579 -0.1019 -0.0188
  440SOL     OW 1757   2.268   3.464   0.895 -0.3067 -0.1248 -0.4424
  440SOL    HW2 1758   2.256   3.377   0.858  1.2966 -0.1773 -0.9033
  440SOL    HW3 1759   2.207   3.519   0.848 -0.2865 -0.7309 -1.1923
  440SOL    MW4 1760   2.259   3.460   0.884 -0.0925 -0.2117 -0.6022
  441SOL     OW 1761   2.453   3.603   0.729  0.7875  0.1512  0.2845
  441SOL    HW2 1762   2.543   3.575   0.743  0.7423  0.0033  0.2783
  441SOL    HW3 1763   2.401   3.545   0.784  0.7562  0.7020  0.8501
  441SOL    MW4 1764   2.458   3.592   0.738  0.7774  0.2044  0.3583
  442SOL     OW 1765   2.459   3.818   0.896  0.4382 -0.6843  0.0662
  442SOL    HW2 1766   2.383   3.861   0.857  0.1693  0.3032  1.6095
  442SOL    HW3 1767   2.468   3.736   0.848 -0.6237 -0.0820 -1.1960
  442SOL    MW4 1768   2.450   3.813   0.885  0.2627 -0.4746  0.1033
  443SOL     OW 1769   2.242   3.931   0.751 -0.0607 -0.0255  0.0284
  443SOL    HW2 1770   2.152   3.916   0.782 -0.3185  2.0150  0.3427
  443SOL    HW3 1771   2.237   3.920   0.656 -1.0262  1.7214 -0.1512
  443SOL    MW4 1772   2.229   3.928   0.743 -0.2221  0.4742  0.0462
  444SOL     OW 1773   2.275   4.175   0.883  0.0904  0.4099  0.0971
  444SOL    HW2 1774   2.282   4.091   0.838  1.7645  1.3848 -1.5128
  444SOL    HW3 1775   2.200   4.219   0.842 -1.2353 -0.5537  1.4284
  444SOL    MW4 1776   2.266   4.170   0.872  0.1364  0.4114  0.0603
  445SOL     OW 1777   2.454   4.377   0.784  0.1446  0.4863 -0.4417
  445SOL    HW2 1778   2.538   4.338   0.808  0.6875  1.4621 -0.7469
  445SOL    HW3 1779   2.389   4.320   0.824  0.9902  0.6127  1.1358
  445SOL    MW4 1780   2.457   4.365   0.792  0.3278  0.6317 -0.2738
  446SOL     OW 1781   2.954   4.646   0.891  0.1591 -0.1083  0.2922
  446SOL    HW2 1782   2.954   4.560   0.849  1.9759 -0.6365  1.3115
  446SOL    HW3 1783   2.900   4.700   0.834  0.3684 -1.5048 -1.2825
  446SOL    MW4 1784   2.947   4.642   0.878  0.4264 -0.3622  0.2189
  447SOL     OW 1785   2.660   0.001   0.574 -0.0714  0.1969  0.2020
  447SOL    HW2 1786   2.626  -0.033   0.658  1.2360  0.3942  0.8201
  447SOL    HW3 1787   2.727   0.064   0.600  0.3862  0.2027 -1.0088
  447SOL    MW4 1788   2.664   0.005   0.589  0.1614  0.2237  0.1238
  448SOL     OW 1789   2.718   0.353   0.908  0.2869 -0.3064 -0.3615
  448SOL    HW2 1790   2.722   0.363   1.003  2.1488 -4.4886  0.1085
  448SOL    HW3 1791   2.786   0.411   0.875  2.0661 -1.4880  1.1456
  448SOL    MW4 1792   2.727   0.362   0.916  0.7673 -1.0141 -0.1006
  449SOL     OW 1793   2.936   0.499   0.792  0.3907  0.7477  0.7998
  449SOL    HW2 1794   3.016   0.449   0.812  0.2206  0.4379  0.7077
  449SOL    HW3 1795   2.952   0.535   0.705 -0.5526 -1.3285 -0.2669
  449SOL    MW4 1796   2.949   0.497   0.783  0.2438  0.4329  0.6469
  450SOL     OW 1797   2.948   0.781   0.882  0.4072  0.4206 -0.0300
  450SOL    HW2 1798   2.931   0.773   0.976 -0.6762 -0.4803 -0.3058
  450SOL    HW3 1799   2.953   0.691   0.850 -0.3232  0.7331 -1.0399
  450SOL    MW4 1800   2.947   0.768   0.890  0.1679  0.3430 -0.1996
  451SOL     OW 1801   2.696   0.884   0.803  0.1919  0.4635  0.0062
  451SOL    HW2 1802   2.778   0.849   0.836  0.9887  0.6576 -1.7355
  451SOL    HW3 1803   2.714   0.907   0.712 -1.6953  0.8138 -0.3040
  451SOL    MW4 1804   2.709   0.883   0.796  0.0480  0.5353 -0.2645
  452SOL     OW 1805   2.702   1.132   0.919 -0.2930  0.1901 -0.0331
  452SOL    HW2 1806   2.692   1.047   0.876 -1.5052 -0.7204  1.9852
  452SOL    HW3 1807   2.641   1.190   0.871 -1.3087 -0.6964  0.1730
  452SOL    MW4 1808   2.693   1.129   0.907 -0.5869 -0.0470  0.2604
  453SOL     OW 1809   2.904   1.293   0.792 -0.0536 -0.4078 -0.1558
  453SOL    HW2 1810   2.989   1.248   0.791  0.1545 -0.0167 -0.1041
  453SOL    HW3 1811   2.845   1.230   0.833  0.4142 -0.3357  0.6613
  453SOL    MW4 1812   2.908   1.279   0.797  0.0356 -0.3467 -0.0412
  454SOL     OW 1813   2.956   1.546   0.906  0.1498 -0.2270  0.3627
  454SOL    HW2 1814   3.038   1.572   0.865  0.1413  0.0771  0.5403
  454SOL    HW3 1815   2.928   1.469   0.856  0.7295 -0.5569  0.5417
  454SOL    MW4 1816   2.963   1.539   0.894  0.2251 -0.2304  0.4097
  455SOL     OW 1817   2.727   1.695   0.795  0.4479 -0.8377 -0.2348
  455SOL    HW2 1818   2.718   1.789   0.811 -0.4304 -0.7201 -1.3633
  455SOL    HW3 1819   2.810   1.672   0.835  1.6886  0.8369 -1.7565
  455SOL    MW4 1820   2.737   1.704   0.802  0.4957 -0.6012 -0.5845
  456SOL     OW 1821   2.684   1.954   0.877 -0.3085 -0.3022  0.1880
  456SOL    HW2 1822   2.691   1.958   0.973  0.3570  1.1332  0.0923
  456SOL    HW3 1823   2.591   1.967   0.859 -0.2278  0.9304  0.5915
  456SOL    MW4 1824   2.672   1.956   0.888 -0.2100  0.0498  0.2286
  457SOL     OW 1825   2.831   2.124   0.699  0.1483 -0.1347 -0.2873
  457SOL    HW2 1826   2.851   2.204   0.749  0.0407 -0.0725 -0.3442
  457SOL    HW3 1827   2.771   2.075   0.755  0.7630 -0.5053  0.0560
  457SOL    MW4 1828   2.826   2.128   0.713  0.2152 -0.1754 -0.2495
  458SOL     OW 1829   2.894   2.345   0.844  0.0546 -0.0857  0.1641
  458SOL    HW2 1830   2.920   2.350   0.936 -2.0898 -1.9403  0.9229
  458SOL    HW3 1831   2.813   2.395   0.840  0.7641  0.9697 -0.9748
  458SOL    MW4 1832   2.887   2.352   0.856 -0.1347 -0.1911  0.1140
  459SOL     OW 1833   2.641   2.461   0.799 -0.0778  0.0718  0.0137
  459SOL    HW2 1834   2.606   2.481   0.713 -0.4806 -1.1994 -0.1260
  459SOL    HW3 1835   2.656   2.547   0.839 -0.6257  0.6599 -1.0117
  459SOL    MW4 1836   2.639   2.475   0.793 -0.2032 -0.0183 -0.1400
  460SOL     OW 1837   2.687   2.715   0.904 -0.5680  0.4791 -0.0243
  460SOL    HW2 1838   2.694   2.716   1.000 -1.2028  1.1397  0.0157
  460SOL    HW3 1839   2.765   2.761   0.874  1.1560 -2.2534  0.0770
  460SOL    MW4 1840   2.698   2.721   0.913 -0.4243  0.2057 -0.0057
  461SOL     OW 1841   2.835   2.811   0.518  0.4850 -0.0797 -0.1386
  461SOL    HW2 1842   2.744   2.801   0.546  0.2377 -1.0280 -1.2389
  461SOL    HW3 1843   2.831   2.871   0.444  0.5997 -1.0987 -0.9808
  461SOL    MW4 1844   2.823   2.818   0.512  0.4675 -0.3392 -0.3949
  462SOL     OW 1845   2.938   3.097   0.858  0.5380  0.1875  0.1497
  462SOL    HW2 1846   2.869   3.145   0.811  0.9766  1.6417  0.9783
  462SOL    HW3 1847   2.916   3.005   0.844 -1.4118  0.6283  0.1645
  462SOL    MW4 1848   2.926   3.091   0.850  0.3386  0.4375  0.2610
  463SOL     OW 1849   2.710   3.247   0.769 -0.0593 -0.6010  0.0107
  463SOL    HW2 1850   2.705   3.340   0.791  1.0329 -0.5450  0.0086
  463SOL    HW3 1851   2.632   3.209   0.810  0.0341  0.1345  0.8719
  463SOL    MW4 1852   2.699   3.254   0.777  0.0972 -0.4966  0.1240
  464SOL     OW 1853   2.721   3.513   0.854  0.5907 -0.4213  0.5509
  464SOL    HW2 1854   2.733   3.489   0.946  1.0289  0.6929  0.7885
  464SOL    HW3 1855   2.808   3.542   0.826  0.0747  0.8143  0.2412
  464SOL    MW4 1856   2.734   3.513   0.863  0.5804 -0.1113  0.5414
  465SOL     OW 1857   2.944   3.633   0.747 -0.1714 -0.2149  0.3469
  465SOL    HW2 1858   2.913   3.714   0.788  1.8934  0.5736  0.3721
  465SOL    HW3 1859   2.906   3.635   0.658  0.2791  1.0145  0.1827
  465SOL    MW4 1860   2.935   3.644   0.740  0.1605  0.0514  0.3286
  466SOL     OW 1861   2.900   3.885   0.896  0.2264  0.2782 -0.1566
  466SOL    HW2 1862   2.878   3.882   0.990 -1.1123 -0.7968 -0.4917
  466SOL    HW3 1863   2.821   3.919   0.854  0.2465 -0.7784 -1.0684
  466SOL    MW4 1864   2.887   3.889   0.903  0.0524 -0.0030 -0.3211
  467SOL     OW 1865   2.670   3.993   0.806 -0.0412 -0.1477 -0.1373
  467SOL    HW2 1866   2.602   3.928   0.824 -0.6832  0.7210  0.6162
  467SOL    HW3 1867   2.661   4.012   0.713 -1.5124  0.7109  0.1704
  467SOL    MW4 1868   2.660   3.987   0.796 -0.3201  0.0802  0.0027
  468SOL     OW 1869   2.693   4.266   0.860  0.1622 -0.1395  0.2224
  468SOL    HW2 1870   2.693   4.269   0.955  2.3392 -0.9829  0.2834
  468SOL    HW3 1871   2.691   4.173   0.839 -1.5804  0.0692 -0.5808
  468SOL    MW4 1872   2.693   4.254   0.869  0.2195 -0.2232  0.1245
  469SOL     OW 1873   2.953   4.360   0.792 -0.0060  0.1787 -0.3468
  469SOL    HW2 1874   3.004   4.326   0.866  0.2713  1.5219  0.0979
  469SOL    HW3 1875   2.865   4.326   0.805  0.2565 -0.3215  0.1147
  469SOL    MW4 1876   2.948   4.351   0.803  0.0652  0.2899 -0.2272
  470SOL     OW 1877   3.470   4.629   0.899  0.5659 -0.1769  0.1581
  470SOL    HW2 1878   3.487   4.649   0.991  0.5752 -2.2945  0.6347
  470SOL    HW3 1879   3.382   4.662   0.883  0.9855  1.1722  0.6243
  470SOL    MW4 1880   3.461   4.636   0.909  0.6225 -0.2783  0.2825
  471SOL     OW 1881   3.221   0.074   0.835  0.3785  0.3635 -0.1148
  471SOL    HW2 1882   3.201   0.166   0.847  0.7159  0.6607 -1.6440
  471SOL    HW3 1883   3.136   0.030   0.841  0.1623  0.8295  0.2037
  471SOL    MW4 1884   3.207   0.080   0.837  0.3945  0.4642 -0.2745
  472SOL     OW 1885   3.170   0.348   0.864  0.0434 -0.2720 -0.1935
  472SOL    HW2 1886   3.165   0.357   0.960  0.6120  0.4826 -0.2335
  472SOL    HW3 1887   3.247   0.399   0.839 -0.1140 -0.4545 -1.0581
  472SOL    MW4 1888   3.180   0.356   0.874  0.0977 -0.1965 -0.3128
  473SOL     OW 1889   3.408   0.479   0.760  0.2288 -0.1177 -0.2761
  473SOL    HW2 1890   3.472   0.445   0.823 -0.6071 -0.5024  0.3805
  473SOL    HW3 1891   3.453   0.473   0.675  0.6097 -1.5615  0.0066
  473SOL    MW4 1892   3.423   0.473   0.757  0.1687 -0.3590 -0.1522
  474SOL     OW 1893   3.343   0.753   0.871  0.0994  0.3977  0.0996
  474SOL    HW2 1894   3.268   0.795   0.829 -0.2579 -1.1915 -0.8869
  474SOL    HW3 1895   3.340   0.662   0.840  1.0977 -0.2527  1.8575
  474SOL    MW4 1896   3.332   0.746   0.861  0.1840  0.1022  0.2014
  475SOL     OW 1897   3.148   0.927   0.755 -0.1470  0.6113  0.4992
  475SOL    HW2 1898   3.146   1.009   0.803  0.4109  0.3592  0.9642
  475SOL    HW3 1899   3.076   0.876   0.793 -1.5053  1.4727 -0.8756
  475SOL    MW4 1900   3.138   0.931   0.766 -0.2526  0.6917  0.3792
  476SOL     OW 1901   3.150   1.166   0.870 -0.5001  0.6401 -0.1599
  476SOL    HW2 1902   3.145   1.173   0.965  0.7119 -0.5371  0.0067
  476SOL    HW3 1903   3.225   1.220   0.846  0.2397 -0.4169 -0.2672
  476SOL    MW4 1904   3.159   1.174   0.879 -0.2426  0.3454 -0.1521
  477SOL     OW 1905   3.390   1.292   0.800  0.3237  0.0558  0.1844
  477SOL    HW2 1906   3.477   1.256   0.811  0.2284 -0.0453  0.6270
  477SOL    HW3 1907   3.399   1.384   0.825  0.7333  0.5375 -1.6772
  477SOL    MW4 1908   3.402   1.300   0.805  0.3652  0.1060 -0.0028
  478SOL     OW 1909   3.409   1.536   0.900  0.0419 -0.2414 -0.0461
  478SOL    HW2 1910   3.407   1.540   0.995 -0.0971 -0.8572 -0.0214
  478SOL    HW3 1911   3.479   1.597   0.875  0.5640 -0.6187  0.4825
  478SOL    MW4 1912   3.418   1.545   0.909  0.0925 -0.3724  0.0269
  479SOL     OW 1913   3.189   1.633   0.782  0.2433 -0.4102 -0.1167
  479SOL    HW2 1914   3.266   1.604   0.830 -0.0178 -0.9293 -0.0040
  479SOL    HW3 1915   3.216   1.632   0.690 -0.2946 -2.7614 -0.2786
  479SOL    MW4 1916   3.202   1.629   0.776  0.1379 -0.7889 -0.1232
  480SOL     OW 1917   3.209   1.906   0.872  0.0206  0.0621 -0.3414
  480SOL    HW2 1918   3.177   1.916   0.962  0.6577 -1.4802  0.0805
  480SOL    HW3 1919   3.201   1.812   0.855  0.0665  0.3206 -1.8467
  480SOL    MW4 1920   3.203   1.895   0.881  0.1107 -0.1073 -0.4843
  481SOL     OW 1921   3.434   2.003   0.735 -0.0149 -0.0357 -0.5555
  481SOL    HW2 1922   3.441   2.091   0.770  2.1265  0.3254 -1.8183
  481SOL    HW3 1923   3.357   1.966   0.778 -0.7546  2.3266  0.2121
  481SOL    MW4 1924   3.425   2.009   0.745  0.1700  0.3236 -0.6209
  482SOL     OW 1925   3.394   2.267   0.854 -0.2252  0.5673  0.0657
  482SOL    HW2 1926   3.396   2.268   0.949 -0.6878 -2.9361  0.1965
  482SOL    HW3 1927   3.430   2.351   0.827  0.7203  1.2394  3.3154
  482SOL    MW4 1928   3.399   2.278   0.863 -0.1615  0.1937  0.5117
  483SOL     OW 1929   3.084   2.498   0.675 -0.1302 -0.1638  0.0419
  483SOL    HW2 1930   3.132   2.430   0.626 -0.5492 -0.2626 -0.2379
  483SOL    HW3 1931   3.036   2.449   0.741 -0.4659 -0.1465 -0.1874
  483SOL    MW4 1932   3.084   2.482   0.677 -0.2298 -0.1746 -0.0253
  484SOL     OW 1933   3.154   2.712   0.827  0.2864  0.5127  0.1157
  484SOL    HW2 1934   3.146   2.645   0.759 -0.8703  0.4354  0.3191
  484SOL    HW3 1935   3.212   2.778   0.789  0.6613 -0.1428 -0.4574
  484SOL    MW4 1936   3.161   2.712   0.813  0.1833  0.4160  0.0669
  485SOL     OW 1937   3.343   2.878   0.733  0.1901  0.5539  0.3228
  485SOL    HW2 1938   3.368   2.869   0.641 -0.7498  0.2988  0.0925
  485SOL    HW3 1939   3.404   2.820   0.780  0.2092  0.1398 -0.2074
  485SOL    MW4 1940   3.355   2.869   0.727  0.0686  0.4656  0.2225
  486SOL     OW 1941   3.400   3.120   0.883  0.1514  0.0426 -0.0476
  486SOL    HW2 1942   3.396   3.110   0.978 -1.4878  1.0168  0.0059
  486SOL    HW3 1943   3.406   3.031   0.849 -1.5441 -0.4363  0.8856
  486SOL    MW4 1944   3.400   3.107   0.891 -0.2886  0.1079  0.0826
  487SOL     OW 1945   3.159   3.245   0.764 -0.0216  0.1014 -0.0198
  487SOL    HW2 1946   3.233   3.198   0.801 -0.8766  0.6699  2.5759
  487SOL    HW3 1947   3.082   3.200   0.799 -0.8854  0.7447 -1.0448
  487SOL    MW4 1948   3.158   3.233   0.773 -0.2484  0.2613  0.1875
  488SOL     OW 1949   3.154   3.484   0.900 -0.1237  0.2532  0.8239
  488SOL    HW2 1950   3.142   3.404   0.849  0.4084  0.1045  0.9263
  488SOL    HW3 1951   3.093   3.547   0.862  1.2948  0.6011 -0.9535
  488SOL    MW4 1952   3.145   3.482   0.888  0.1337  0.2795  0.6029
  489SOL     OW 1953   3.402   3.620   0.831 -0.2843  0.3498  0.0691
  489SOL    HW2 1954   3.392   3.710   0.863  1.4317 -0.0054  1.6766
  489SOL    HW3 1955   3.326   3.573   0.865 -0.5982  0.9326  0.1770
  489SOL    MW4 1956   3.391   3.626   0.839 -0.0993  0.3798  0.2954
  490SOL     OW 1957   3.357   3.877   0.887  0.2072 -0.3188 -0.0610
  490SOL    HW2 1958   3.341   3.882   0.982 -1.2070 -1.6500 -0.2037
  490SOL    HW3 1959   3.448   3.905   0.877 -0.3759  2.2002  1.4069
  490SOL    MW4 1960   3.367   3.881   0.898 -0.0563 -0.1621  0.1138
  491SOL     OW 1961   3.129   4.031   0.857 -0.1187 -0.3114 -0.4647
  491SOL    HW2 1962   3.207   3.980   0.880 -0.2705 -0.2653  0.1512
  491SOL    HW3 1963   3.056   3.973   0.875 -0.2725 -0.0260 -0.1563
  491SOL    MW4 1964   3.130   4.017   0.862 -0.1590 -0.2677 -0.3428
  492SOL     OW 1965   3.163   4.289   0.939  0.2793 -0.0520  0.3235
  492SOL    HW2 1966   3.247   4.311   0.898  0.3376  0.1303  0.5386
  492SOL    HW3 1967   3.153   4.195   0.923  0.8283 -0.2048  0.8449
  492SOL    MW4 1968   3.173   4.279   0.932  0.3594 -0.0481  0.4207
  493SOL     OW 1969   3.405   4.384   0.801 -0.3923  0.5454  0.0466
  493SOL    HW2 1970   3.435   4.470   0.832 -2.1371  1.4634 -0.7335
  493SOL    HW3 1971   3.407   4.391   0.705  0.0180 -0.4945 -0.0259
  493SOL    MW4 1972   3.409   4.396   0.792 -0.5684  0.5293 -0.0659
  494SOL     OW 1973   3.789   4.641   0.903  0.3580 -0.4735 -0.1785
  494SOL    HW2 1974   3.879   4.675   0.897 -0.0437  0.6967  0.4551
  494SOL    HW3 1975   3.736   4.704   0.855 -0.3026 -0.5217  0.4784
  494SOL    MW4 1976   3.794   4.654   0.896  0.2178 -0.3254 -0.0083
  495SOL     OW 1977   3.640   0.156   0.751 -0.1535 -0.5814  0.0005
  495SOL    HW2 1978   3.582   0.087   0.784 -0.3817  0.5959  2.1661
  495SOL    HW3 1979   3.601   0.181   0.667 -1.8785 -0.9250  0.6660
  495SOL    MW4 1980   3.627   0.150   0.744 -0.4112 -0.4714  0.3740
  496SOL     OW 1981   3.639   0.381   0.893 -0.4062 -0.1048  0.3362
  496SOL    HW2 1982   3.633   0.370   0.988 -0.3847 -0.4169  0.3010
  496SOL    HW3 1983   3.631   0.292   0.858 -0.2293 -0.0086  0.0547
  496SOL    MW4 1984   3.637   0.368   0.901 -0.3800 -0.1333  0.2944
  497SOL     OW 1985   3.881   0.532   0.834 -0.5061 -0.4272  0.2980
  497SOL    HW2 1986   3.853   0.616   0.869  1.0728 -0.3876  1.5310
  497SOL    HW3 1987   3.803   0.477   0.839 -1.1757  0.5506  0.7938
  497SOL    MW4 1988   3.867   0.536   0.839 -0.3861 -0.2930  0.5261
  498SOL     OW 1989   3.807   0.795   0.882 -0.5878 -0.3892 -0.2270
  498SOL    HW2 1990   3.809   0.790   0.978  0.3064  0.8604 -0.1672
  498SOL    HW3 1991   3.898   0.812   0.858 -0.9691  0.2328 -1.2415
  498SOL    MW4 1992   3.820   0.797   0.892 -0.5201 -0.1422 -0.3530
  499SOL     OW 1993   3.567   0.885   0.768  0.1227 -0.2923  0.2183
  499SOL    HW2 1994   3.644   0.872   0.823  0.1921 -0.5770  0.0540
  499SOL    HW3 1995   3.496   0.842   0.815  0.1303 -0.3137  0.2095
  499SOL    MW4 1996   3.568   0.878   0.781  0.1329 -0.3327  0.1955
  500SOL     OW 1997   3.621   1.152   0.851  0.4248  0.0764 -0.0927
  500SOL    HW2 1998   3.601   1.150   0.944  0.7840  1.1182  0.0137
  500SOL    HW3 1999   3.603   1.063   0.820 -0.9628  0.0746  0.6967
  500SOL    MW4 2000   3.616   1.140   0.859  0.2891  0.2136  0.0255
  501SOL     OW 2001   3.851   1.283   0.788  0.0689  0.3079  0.0336
  501SOL    HW2 2002   3.765   1.246   0.809 -0.6513  1.2729 -1.1449
  501SOL    HW3 2003   3.853   1.287   0.692  1.4265  0.3091  0.0521
  501SOL    MW4 2004   3.840   1.279   0.778  0.1530  0.4354 -0.1194
  502SOL     OW 2005   3.804   1.573   0.808 -0.2435 -0.2040  0.1432
  502SOL    HW2 2006   3.891   1.607   0.783 -1.2098  0.6596 -2.2172
  502SOL    HW3 2007   3.808   1.480   0.788 -0.2686  0.0751 -1.2279
  502SOL    MW4 2008   3.816   1.565   0.802 -0.3743 -0.0532 -0.3491
  503SOL     OW 2009   3.581   1.721   0.802  0.2683  0.4806  0.0140
  503SOL    HW2 2010   3.605   1.800   0.849  0.2432  1.1263 -1.0574
  503SOL    HW3 2011   3.663   1.673   0.792  0.5814  1.1954 -0.8666
  503SOL    MW4 2012   3.595   1.725   0.807  0.3063  0.6601 -0.2435
  504SOL     OW 2013   3.660   1.968   0.912  0.0624  0.1511  0.4191
  504SOL    HW2 2014   3.735   1.996   0.860  0.8643  0.5013  1.7559
  504SOL    HW3 2015   3.584   1.988   0.857  0.7788  2.1987  0.1330
  504SOL    MW4 2016   3.660   1.974   0.898  0.2628  0.4675  0.5577
  505SOL     OW 2017   3.891   2.133   0.721  0.0892 -0.5078  0.1563
  505SOL    HW2 2018   3.964   2.078   0.750  1.8687  1.5694 -0.2508
  505SOL    HW3 2019   3.919   2.167   0.636 -2.0599 -0.9303 -0.7710
  505SOL    MW4 2020   3.904   2.130   0.714  0.0404 -0.2895 -0.0197
  506SOL     OW 2021   3.833   2.366   0.865  0.2395 -0.4896 -0.1176
  506SOL    HW2 2022   3.825   2.348   0.959  0.0840  0.4038  0.0522
  506SOL    HW3 2023   3.835   2.280   0.823 -0.0867 -0.8844  0.6745
  506SOL    MW4 2024   3.832   2.352   0.872  0.1759 -0.4238  0.0094
  507SOL     OW 2025   3.571   2.481   0.759 -0.2176 -0.2154 -0.0753
  507SOL    HW2 2026   3.548   2.557   0.812 -0.9612 -0.7712  0.4051
  507SOL    HW3 2027   3.645   2.441   0.804 -0.0741  0.0008 -0.1182
  507SOL    MW4 2028   3.578   2.486   0.772 -0.2968 -0.2602 -0.0176
  508SOL     OW 2029   3.554   2.745   0.859  0.1159 -0.0040 -0.1101
  508SOL    HW2 2030   3.550   2.749   0.954  2.5314  0.4769  0.0072
  508SOL    HW3 2031   3.642   2.775   0.837 -0.5998  0.4890 -2.5347
  508SOL    MW4 2032   3.565   2.750   0.869  0.3401  0.1245 -0.4145
  509SOL     OW 2033   3.798   2.869   0.840  0.1766  0.0536 -0.2498
  509SOL    HW2 2034   3.808   2.872   0.745  1.7553  1.2732 -0.0737
  509SOL    HW3 2035   3.784   2.961   0.865  3.2031  0.2422  0.9852
  509SOL    MW4 2036   3.798   2.882   0.831  0.7842  0.2394 -0.0636
  510SOL     OW 2037   3.767   3.138   0.907  0.0107  0.0595 -0.2088
  510SOL    HW2 2038   3.854   3.167   0.882 -0.1089  0.7683  0.1908
  510SOL    HW3 2039   3.708   3.199   0.863 -0.3262 -1.0008 -1.2768
  510SOL    MW4 2040   3.770   3.150   0.898 -0.0495  0.0132 -0.2970
  511SOL     OW 2041   3.584   3.261   0.733  0.4436 -0.4153 -0.2077
  511SOL    HW2 2042   3.515   3.207   0.773  1.6922 -0.5040  1.8758
  511SOL    HW3 2043   3.580   3.240   0.640 -1.2648 -1.6418  0.1235
  511SOL    MW4 2044   3.574   3.251   0.726  0.3829 -0.5888  0.1109
  512SOL     OW 2045   3.625   3.487   0.900  0.4430  0.3445 -0.3261
  512SOL    HW2 2046   3.628   3.419   0.832  0.7883  0.9692 -0.9440
  512SOL    HW3 2047   3.552   3.543   0.875 -0.4519 -0.3398  0.7184
  512SOL    MW4 2048   3.616   3.485   0.888  0.3705  0.3366 -0.2698
  513SOL     OW 2049   3.834   3.642   0.814  0.1279  0.1646 -0.4831
  513SOL    HW2 2050   3.914   3.596   0.839  0.4872  0.9007 -0.2819
  513SOL    HW3 2051   3.763   3.587   0.848  0.5841  0.4667  0.9452
  513SOL    MW4 2052   3.835   3.628   0.822  0.2355  0.3016 -0.2681
  514SOL     OW 2053   3.847   3.913   0.901  0.2282  0.0195 -0.2339
  514SOL    HW2 2054   3.758   3.935   0.873  0.2786  1.1853  0.5075
  514SOL    HW3 2055   3.849   3.817   0.900 -0.6510 -0.0102 -1.4457
  514SOL    MW4 2056   3.835   3.903   0.897  0.1188  0.1694 -0.2960
  515SOL     OW 2057   3.597   3.969   0.792 -0.0421 -0.0511 -0.3182
  515SOL    HW2 2058   3.583   4.062   0.806 -0.3934 -0.1595  0.0517
  515SOL    HW3 2059   3.596   3.958   0.697 -0.7359  0.2094 -0.3449
  515SOL    MW4 2060   3.595   3.980   0.782 -0.1800 -0.0311 -0.2729
  516SOL     OW 2061   3.632   4.253   0.917  0.4571 -0.3891 -0.2017
  516SOL    HW2 2062   3.709   4.289   0.873  0.8711 -0.8834  0.1155
  516SOL    HW3 2063   3.557   4.297   0.875  0.9604  1.1708  0.4838
  516SOL    MW4 2064   3.632   4.264   0.906  0.5781 -0.2485 -0.0694
  517SOL     OW 2065   3.824   4.389   0.784  0.5727  0.1093 -0.2498
  517SOL    HW2 2066   3.910   4.369   0.821  0.4389  1.2547  0.6980
  517SOL    HW3 2067   3.801   4.474   0.821 -0.2951  0.5229 -1.6938
  517SOL    MW4 2068   3.832   4.397   0.793  0.4405  0.3150 -0.3153
  518SOL     OW 2069   4.314   4.658   0.874 -0.1285 -0.4031  0.3625
  518SOL    HW2 2070   4.318   4.644   0.968 -0.5660 -2.7755  0.0648
  518SOL    HW3 2071   4.223   4.682   0.857 -0.4260 -1.4934  0.3756
  518SOL    MW4 2072   4.302   4.660   0.884 -0.2255 -0.8600  0.3250
  519SOL     OW 2073   4.038   0.071   0.825  0.0027 -0.1353  0.2099
  519SOL    HW2 2074   4.055   0.165   0.839  0.1780 -0.2869  1.0387
  519SOL    HW3 2075   4.006   0.066   0.735 -1.5223  0.9227  0.6583
  519SOL    MW4 2076   4.036   0.083   0.815 -0.1754 -0.0157  0.3784
  520SOL     OW 2077   4.089   0.360   0.840  0.1405 -0.5468  0.3624
  520SOL    HW2 2078   4.146   0.409   0.780 -0.0048  1.5072  1.8512
  520SOL    HW3 2079   4.012   0.416   0.850 -1.0736 -2.1780  0.2928
  520SOL    MW4 2080   4.086   0.374   0.834 -0.0389 -0.4910  0.5497
  521SOL     OW 2081   4.308   0.527   0.727  0.6877 -0.1593  0.4545
  521SOL    HW2 2082   4.379   0.481   0.771 -0.1332 -0.4668  1.4748
  521SOL    HW3 2083   4.308   0.492   0.638  1.6758 -0.3067  0.5177
  521SOL    MW4 2084   4.317   0.516   0.721  0.7098 -0.2193  0.5975
  522SOL     OW 2085   4.318   0.773   0.878  0.0927 -0.5394 -0.1769
  522SOL    HW2 2086   4.226   0.798   0.871 -0.8850 -4.0718 -0.9937
  522SOL    HW3 2087   4.328   0.698   0.818  3.2703 -0.8277  0.5801
  522SOL    MW4 2088   4.307   0.766   0.869  0.3829 -1.0435 -0.1848
  523SOL     OW 2089   4.066   0.849   0.830 -0.4315  0.5793 -0.3957
  523SOL    HW2 2090   4.074   0.945   0.833  0.8560  0.4621  0.0514
  523SOL    HW3 2091   4.080   0.827   0.738 -0.3223  0.7942 -0.4322
  523SOL    MW4 2092   4.069   0.859   0.818 -0.2472  0.5922 -0.3415
  524SOL     OW 2093   4.068   1.111   0.897 -0.3226  0.4005 -0.3428
  524SOL    HW2 2094   4.069   1.123   0.992 -1.1237 -0.5222 -0.2184
  524SOL    HW3 2095   3.991   1.160   0.868 -0.3599  0.2684 -0.4641
  524SOL    MW4 2096   4.058   1.119   0.906 -0.4332  0.2614 -0.3424
  525SOL     OW 2097   4.275   1.232   0.765 -0.0453 -0.2651  0.2617
  525SOL    HW2 2098   4.201   1.204   0.818 -0.3193 -0.7259 -0.3574
  525SOL    HW3 2099   4.348   1.177   0.795 -0.4884 -1.3958 -0.6790
  525SOL    MW4 2100   4.275   1.221   0.776 -0.1399 -0.4751  0.0559
  526SOL     OW 2101   4.305   1.503   0.802  0.0892  0.6691  0.6000
  526SOL    HW2 2102   4.288   1.499   0.897 -0.0336  0.4566  0.5678
  526SOL    HW3 2103   4.303   1.412   0.773  3.1918  0.4634  0.9228
  526SOL    MW4 2104   4.302   1.491   0.811  0.4824  0.6139  0.6383
  527SOL     OW 2105   4.078   1.651   0.755 -0.2019 -0.1646 -0.3303
  527SOL    HW2 2106   4.140   1.591   0.798  0.0978  1.0169  0.9224
  527SOL    HW3 2107   4.118   1.668   0.669  0.5881 -0.3978 -0.0199
  527SOL    MW4 2108   4.092   1.645   0.749 -0.0582 -0.0395 -0.1241
  528SOL     OW 2109   4.033   1.907   0.853 -0.4079 -0.3372 -0.8515
  528SOL    HW2 2110   4.116   1.948   0.829  0.7252 -0.1793  3.0208
  528SOL    HW3 2111   4.045   1.815   0.832  0.9296 -0.3888  0.0486
  528SOL    MW4 2112   4.046   1.901   0.847 -0.0819 -0.3231 -0.2219
  529SOL     OW 2113   4.242   2.064   0.737 -0.1445 -0.3987  0.2370
  529SOL    HW2 2114   4.317   2.013   0.765  0.7753  0.4295 -0.6946
  529SOL    HW3 2115   4.230   2.041   0.645 -0.9054 -0.3738  0.3238
  529SOL    MW4 2116   4.250   2.054   0.728 -0.1235 -0.2862  0.1256
  530SOL     OW 2117   4.299   2.303   0.875 -0.1421  0.1849 -0.4650
  530SOL    HW2 2118   4.221   2.355   0.856 -1.3476 -1.1834  0.6750
  530SOL    HW3 2119   4.281   2.217   0.837 -0.8050 -1.2935  3.0183
  530SOL    MW4 2120   4.286   2.299   0.868 -0.3886 -0.1907  0.1450
  531SOL     OW 2121   4.092   2.470   0.826 -0.1093  0.7702 -0.2523
  531SOL    HW2 2122   4.077   2.560   0.855  0.7994  0.9372 -0.2983
  531SOL    HW3 2123   4.004   2.432   0.821 -0.5859  2.0126 -1.4312
  531SOL    MW4 2124   4.078   2.477   0.829 -0.0523  0.9562 -0.4139
  532SOL     OW 2125   4.034   2.739   0.884  0.1285  0.0260  0.5550
  532SOL    HW2 2126   4.087   2.792   0.825  0.4436 -0.4845  0.3733
  532SOL    HW3 2127   3.947   2.778   0.879  0.2906  0.3464  0.1953
  532SOL    MW4 2128   4.029   2.751   0.875  0.1914  0.0009  0.4836
  533SOL     OW 2129   4.264   2.858   0.739 -0.7361 -0.3106 -0.0765
  533SOL    HW2 2130   4.334   2.800   0.768 -0.5813 -0.0513  0.0707
  533SOL    HW3 2131   4.272   2.860   0.643  0.5778  1.1139  0.0450
  533SOL    MW4 2132   4.274   2.850   0.730 -0.5423 -0.0885 -0.0411
  534SOL     OW 2133   4.278   3.114   0.834 -0.2723  0.5002 -0.0308
  534SOL    HW2 2134   4.281   3.024   0.803  1.6166  1.0227 -1.5244
  534SOL    HW3 2135   4.355   3.155   0.794 -1.0144  2.7255  0.7512
  534SOL    MW4 2136   4.289   3.108   0.825 -0.1210  0.8628 -0.1247
  535SOL     OW 2137   4.003   3.236   0.803 -0.8971  0.0908 -0.5182
  535SOL    HW2 2138   4.016   3.330   0.815 -1.1822  0.0508  0.1184
  535SOL    HW3 2139   4.092   3.200   0.799 -0.7779  0.4548 -1.3780
  535SOL    MW4 2140   4.017   3.244   0.804 -0.9190  0.1336 -0.5476
  536SOL     OW 2141   4.059   3.504   0.881 -0.5073  0.1471  0.0576
  536SOL    HW2 2142   4.075   3.478   0.971  0.2309  0.3159 -0.0227
  536SOL    HW3 2143   4.137   3.554   0.856 -0.8191  0.3157 -0.5882
  536SOL    MW4 2144   4.071   3.507   0.889 -0.4511  0.1916 -0.0382
  537SOL     OW 2145   4.297   3.592   0.809  0.2905  0.1915 -0.3247
  537SOL    HW2 2146   4.305   3.682   0.842 -0.9383  0.0726  0.3438
  537SOL    HW3 2147   4.320   3.598   0.717  2.1600  0.8416  0.1705
  537SOL    MW4 2148   4.301   3.605   0.801  0.3750  0.2616 -0.1712
  538SOL     OW 2149   4.300   3.853   0.912 -0.1215 -0.1940  0.3567
  538SOL    HW2 2150   4.281   3.849   1.005  1.0451  1.5393  0.6952
  538SOL    HW3 2151   4.230   3.906   0.875  0.3527  0.5741  0.5406
  538SOL    MW4 2152   4.289   3.860   0.919  0.0949  0.1360  0.4256
  539SOL     OW 2153   4.095   4.025   0.830 -0.1048 -0.3138  0.6695
  539SOL    HW2 2154   4.002   4.008   0.844 -0.5185  1.4676  0.2063
  539SOL    HW3 2155   4.102   4.045   0.736  0.5277  0.7588  0.9293
  539SOL    MW4 2156   4.083   4.026   0.819 -0.0759  0.0627  0.6427
  540SOL     OW 2157   4.048   4.295   0.891 -0.4104 -0.2397  0.5724
  540SOL    HW2 2158   4.123   4.338   0.849 -1.6079  0.6828 -0.6395
  540SOL    HW3 2159   4.055   4.204   0.864 -0.2267  0.0197 -0.2626
  540SOL    MW4 2160   4.059   4.289   0.882 -0.5441 -0.0838  0.3023
  541SOL     OW 2161   4.273   4.410   0.777 -0.1235 -0.6823 -0.0011
  541SOL    HW2 2162   4.287   4.500   0.807  2.3026 -0.6562 -1.1388
  541SOL    HW3 2163   4.359   4.369   0.783 -1.1861 -2.8929  0.3451
  541SOL    MW4 2164   4.286   4.417   0.782  0.0564 -0.9705 -0.1056
  542SOL     OW 2165   0.225   4.658   1.152 -0.3501 -0.4380 -0.0369
  542SOL    HW2 2166   0.303   4.708   1.177 -0.4463  0.1029 -0.7884
  542SOL    HW3 2167   0.219   4.670   1.057 -1.3470 -0.4753  0.0213
  542SOL    MW4 2168   0.235   4.666   1.143 -0.4943 -0.3715 -0.1284
  543SOL     OW 2169   0.016   0.129   1.256 -0.1394 -0.1178  0.2562
  543SOL    HW2 2170  -0.061   0.074   1.241  0.2098 -0.3981 -0.5703
  543SOL    HW3 2171   0.091   0.071   1.242  0.2212 -0.0070  1.7215
  543SOL    MW4 2172   0.016   0.114   1.252 -0.0457 -0.1402  0.3405
  544SOL     OW 2173   0.032   0.377   1.129 -0.1751  0.2990  0.2063
  544SOL    HW2 2174  -0.038   0.434   1.162 -0.4401  0.5007 -0.6812
  544SOL    HW3 2175   0.014   0.291   1.167  0.2399  0.8168  1.5753
  544SOL    MW4 2176   0.020   0.373   1.138 -0.1553  0.3940  0.2698
  545SOL     OW 2177   0.214   0.512   1.279 -0.0641 -0.2632 -0.1324
  545SOL    HW2 2178   0.210   0.602   1.246  0.8513 -0.2120 -0.0947
  545SOL    HW3 2179   0.153   0.464   1.223  1.9267 -0.3032 -2.3386
  545SOL    MW4 2180   0.205   0.518   1.267  0.3193 -0.2617 -0.4185
  546SOL     OW 2181   0.242   0.744   1.149 -0.3637 -0.1805 -0.0258
  546SOL    HW2 2182   0.319   0.789   1.183  0.0712 -1.2768  0.4873
  546SOL    HW3 2183   0.167   0.794   1.183  0.1136  1.1493 -0.8983
  546SOL    MW4 2184   0.242   0.756   1.158 -0.2433 -0.1497 -0.0732
  547SOL     OW 2185   0.030   0.879   1.238  0.1589 -0.4442  0.3165
  547SOL    HW2 2186   0.029   0.878   1.334 -1.1984  2.3759  0.3640
  547SOL    HW3 2187  -0.053   0.840   1.212 -0.5177  0.9583  0.3424
  547SOL    MW4 2188   0.019   0.873   1.247 -0.1095  0.1129  0.3262
  548SOL     OW 2189   0.001   1.144   1.135  0.2793  0.1101  0.0410
  548SOL    HW2 2190  -0.064   1.188   1.189  1.2866  0.1122  1.2645
  548SOL    HW3 2191   0.008   1.056   1.173  2.0982  0.6019  0.8768
  548SOL    MW4 2192  -0.007   1.138   1.147  0.6522  0.1753  0.3127
  549SOL     OW 2193   0.217   1.279   1.241  0.2520  0.0754 -0.1489
  549SOL    HW2 2194   0.278   1.221   1.195  0.6752  0.4290 -0.0369
  549SOL    HW3 2195   0.131   1.240   1.227  0.2768  0.6204 -1.9491
  549SOL    MW4 2196   0.213   1.266   1.233  0.3111  0.1939 -0.3716
  550SOL     OW 2197   0.238   1.548   1.147 -0.0765 -0.1641 -0.1170
  550SOL    HW2 2198   0.251   1.456   1.171  1.2298 -0.2326 -1.0343
  550SOL    HW3 2199   0.257   1.552   1.053 -0.0891  1.0523 -0.0799
  550SOL    MW4 2200   0.242   1.537   1.138  0.0942 -0.0127 -0.2331
  551SOL     OW 2201   0.009   1.667   1.210  0.2622 -0.1059  0.1044
  551SOL    HW2 2202   0.023   1.760   1.192  0.0652 -0.3216 -1.1890
  551SOL    HW3 2203   0.085   1.623   1.172  0.2542 -0.5011  0.5341
  551SOL    MW4 2204   0.021   1.674   1.203  0.2352 -0.1865 -0.0095
  552SOL     OW 2205   0.005   1.937   1.160 -0.2474 -0.1097 -0.4727
  552SOL    HW2 2206  -0.067   1.983   1.203 -1.0043 -1.1770 -0.5734
  552SOL    HW3 2207  -0.014   1.945   1.066 -0.6706 -1.0804 -0.4711
  552SOL    MW4 2208  -0.007   1.944   1.153 -0.4031 -0.3786 -0.4858
  553SOL     OW 2209   0.232   2.069   1.245 -0.3933  0.3456  0.0410
  553SOL    HW2 2210   0.229   2.146   1.188 -1.2748 -0.7344 -1.3688
  553SOL    HW3 2211   0.155   2.018   1.222  0.9446 -1.6923 -0.0438
  553SOL    MW4 2212   0.222   2.073   1.234 -0.3331 -0.0658 -0.1562
  554SOL     OW 2213   0.212   2.330   1.127  0.4127  0.4967 -0.0658
  554SOL    HW2 2214   0.286   2.353   1.184  0.6496 -0.9459  0.2096
  554SOL    HW3 2215   0.140   2.385   1.159  0.2846 -0.9568  2.2813
  554SOL    MW4 2216   0.212   2.341   1.139  0.4270  0.1146  0.2802
  555SOL     OW 2217   0.026   2.476   1.260 -1.1737 -0.0386 -0.1031
  555SOL    HW2 2218   0.043   2.461   1.353 -0.3624 -0.5847 -0.3310
  555SOL    HW3 2219  -0.061   2.439   1.246 -1.0253 -0.5519  0.2983
  555SOL    MW4 2220   0.017   2.469   1.270 -1.0471 -0.1784 -0.0802
  556SOL     OW 2221   4.483   2.744   1.171 -0.4043  0.0338  0.2059
  556SOL    HW2 2222   4.398   2.765   1.210  0.0194 -0.0210  1.1655
  556SOL    HW3 2223   4.507   2.661   1.211  0.6313  0.6070  0.7785
  556SOL    MW4 2224   4.475   2.736   1.181 -0.2118  0.1022  0.4081
  557SOL     OW 2225   0.232   2.853   1.247 -0.1836 -0.2529  0.2561
  557SOL    HW2 2226   0.240   2.873   1.341 -1.1831 -0.0903  0.3100
  557SOL    HW3 2227   0.140   2.828   1.236 -0.2314  0.4025 -0.8121
  557SOL    MW4 2228   0.221   2.852   1.258 -0.3217 -0.1450  0.1223
  558SOL     OW 2229   0.278   3.098   1.108 -0.4678  0.1424  0.7313
  558SOL    HW2 2230   0.338   3.142   1.168 -0.7160  0.6295  0.6201
  558SOL    HW3 2231   0.267   3.011   1.145  1.9466 -0.6677 -0.3618
  558SOL    MW4 2232   0.284   3.092   1.121 -0.1820  0.0997  0.5724
  559SOL     OW 2233   0.056   3.194   1.242  0.7477  0.3525  0.4459
  559SOL    HW2 2234  -0.024   3.153   1.210  0.1206  2.1049 -0.3566
  559SOL    HW3 2235   0.124   3.165   1.181  0.2494  0.7505 -0.3133
  559SOL    MW4 2236   0.054   3.185   1.230  0.5992  0.6362  0.2399
  560SOL     OW 2237   0.019   3.494   1.181 -0.2896  0.0026  0.0258
  560SOL    HW2 2238   0.050   3.409   1.212 -1.8938 -0.8899 -0.7661
  560SOL    HW3 2239   0.009   3.484   1.087  0.7415  1.4783 -0.2641
  560SOL    MW4 2240   0.021   3.482   1.173 -0.3652  0.0795 -0.1170
  561SOL     OW 2241   0.258   3.630   1.249 -0.1997  0.1382 -0.2920
  561SOL    HW2 2242   0.259   3.632   1.344  0.3460  0.7188 -0.3031
  561SOL    HW3 2243   0.173   3.593   1.226  0.4398 -1.8487  0.4449
  561SOL    MW4 2244   0.247   3.626   1.258 -0.0434 -0.0473 -0.1962
  562SOL     OW 2245   0.258   3.904   1.145  0.8036  0.4366  0.5336
  562SOL    HW2 2246   0.175   3.930   1.185  1.2901  1.9537  0.5960
  562SOL    HW3 2247   0.265   3.810   1.163 -1.1094  0.1960  0.1291
  562SOL    MW4 2248   0.248   3.895   1.153  0.6154  0.6050  0.4885
  563SOL     OW 2249   0.008   4.001   1.273  0.1928 -0.1251  0.2933
  563SOL    HW2 2250  -0.003   3.988   1.367  1.4868 -0.6688  0.3922
  563SOL    HW3 2251  -0.070   3.962   1.234 -0.4231  0.2296  1.1519
  563SOL    MW4 2252  -0.003   3.994   1.280  0.2823 -0.1500  0.4197
  564SOL     OW 2253   0.012   4.269   1.157 -0.2184  0.1572  0.0494
  564SOL    HW2 2254   0.094   4.297   1.198 -0.4367  1.3852 -0.3487
  564SOL    HW3 2255   0.002   4.178   1.185  0.4521  0.4889  1.4263
  564SOL    MW4 2256   0.021   4.261   1.166 -0.1588  0.3630  0.1785
  565SOL     OW 2257   0.243   4.408   1.265 -0.0929 -0.4431 -0.0444
  565SOL    HW2 2258   0.237   4.423   1.359  0.1095 -0.1237 -0.0858
  565SOL    HW3 2259   0.234   4.494   1.226  1.8357 -0.3288 -0.2430
  565SOL    MW4 2260   0.241   4.421   1.272  0.1883 -0.3858 -0.0761
  566SOL     OW 2261   0.692   0.007   1.142  0.4028 -0.3104 -0.2073
  566SOL    HW2 2262   0.750   0.058   1.198 -2.1495  0.3991  1.8878
  566SOL    HW3 2263   0.709  -0.084   1.167  0.8231 -0.1278  0.1711
  566SOL    MW4 2264   0.702   0.001   1.153  0.1215 -0.1927  0.1191
  567SOL     OW 2265   0.462   0.122   1.231 -0.1264  0.0691 -0.1494
  567SOL    HW2 2266   0.466   0.216   1.214  2.0780  0.1668  0.8327
  567SOL    HW3 2267   0.540   0.087   1.190 -0.1496 -1.1300  0.8159
  567SOL    MW4 2268   0.473   0.130   1.223  0.1614 -0.0762  0.1075
  568SOL     OW 2269   0.457   0.395   1.177  0.3182  0.3729  0.0304
  568SOL    HW2 2270   0.375   0.433   1.209  0.0654 -0.9066  0.9646
  568SOL    HW3 2271   0.440   0.374   1.086  0.1936  1.7365 -0.2643
  568SOL    MW4 2272   0.444   0.398   1.169  0.2684  0.3840  0.1148
  569SOL     OW 2273   0.712   0.507   1.274  0.0693 -0.7038  0.2076
  569SOL    HW2 2274   0.734   0.592   1.234  0.1230  0.1891  2.0862
  569SOL    HW3 2275   0.628   0.483   1.234  0.9454 -0.6746 -1.7042
  569SOL    MW4 2276   0.704   0.515   1.263  0.1919 -0.5821  0.2032
  570SOL     OW 2277   0.706   0.742   1.129  0.3357  0.2683  0.1726
  570SOL    HW2 2278   0.615   0.769   1.144  0.4048  0.3870  0.3772
  570SOL    HW3 2279   0.718   0.752   1.034 -0.4225 -1.5253 -0.1178
  570SOL    MW4 2280   0.696   0.747   1.118  0.2448  0.0473  0.1612
  571SOL     OW 2281   0.481   0.868   1.240 -0.2225  0.4071 -0.2689
  571SOL    HW2 2282   0.469   0.873   1.335 -1.1972 -0.1436 -0.3605
  571SOL    HW3 2283   0.454   0.954   1.208  0.1504  0.6084 -0.0463
  571SOL    MW4 2284   0.476   0.880   1.248 -0.3019  0.3610 -0.2516
  572SOL     OW 2285   0.418   1.118   1.147 -0.3403  0.2429 -0.1967
  572SOL    HW2 2286   0.497   1.165   1.173  0.0352 -0.9645  0.8292
  572SOL    HW3 2287   0.420   1.120   1.051  1.2438 -0.3156 -0.1789
  572SOL    MW4 2288   0.429   1.125   1.138 -0.0818  0.0099 -0.0590
  573SOL     OW 2289   0.640   1.269   1.215  0.0228 -0.0354  0.0653
  573SOL    HW2 2290   0.721   1.242   1.171  0.8669  0.7030  1.1432
  573SOL    HW3 2291   0.639   1.364   1.206 -0.7498 -0.0425  0.0337
  573SOL    MW4 2292   0.651   1.278   1.208  0.0322  0.0611  0.2034
  574SOL     OW 2293   0.688   1.522   1.152  0.0288  0.2881  0.2426
  574SOL    HW2 2294   0.763   1.577   1.176  0.8036  0.2876 -2.0379
  574SOL    HW3 2295   0.613   1.580   1.158  0.5147  0.9187  0.3216
  574SOL    MW4 2296   0.688   1.537   1.156  0.1951  0.3712 -0.0479
  575SOL     OW 2297   0.467   1.676   1.234 -0.0835 -0.2456  0.2335
  575SOL    HW2 2298   0.466   1.674   1.330  1.6093 -0.8018  0.2529
  575SOL    HW3 2299   0.388   1.627   1.209  0.5798 -1.9352  1.3396
  575SOL    MW4 2300   0.456   1.669   1.244  0.2273 -0.5419  0.3820
  576SOL     OW 2301   0.414   1.924   1.116 -0.3314 -0.0180  0.0603
  576SOL    HW2 2302   0.428   1.847   1.171 -0.4341  0.6012  0.9528
  576SOL    HW3 2303   0.347   1.974   1.161  0.3500  1.0219 -0.0662
  576SOL    MW4 2304   0.407   1.920   1.129 -0.2550  0.2009  0.1613
  577SOL     OW 2305   0.643   2.074   1.238 -0.6568 -0.3263  0.2895
  577SOL    HW2 2306   0.651   2.076   1.334  0.1428  0.8280  0.2105
  577SOL    HW3 2307   0.559   2.030   1.222 -0.8750 -0.3859  1.5256
  577SOL    MW4 2308   0.633   2.068   1.249 -0.5801 -0.1819  0.4422
  578SOL     OW 2309   0.651   2.346   1.146 -0.1211  0.1672 -0.2480
  578SOL    HW2 2310   0.584   2.399   1.188 -1.1315 -0.4721 -1.0371
  578SOL    HW3 2311   0.640   2.258   1.183  0.7251  0.2163  0.1278
  578SOL    MW4 2312   0.641   2.341   1.156 -0.1428  0.0893 -0.3025
  579SOL     OW 2313   0.429   2.457   1.259 -0.2679 -0.2619 -0.1095
  579SOL    HW2 2314   0.423   2.461   1.354  0.7925  1.0794 -0.0910
  579SOL    HW3 2315   0.439   2.548   1.231 -0.3489 -0.6613 -1.4915
  579SOL    MW4 2316   0.429   2.469   1.268 -0.1387 -0.1376 -0.2894
  580SOL     OW 2317   0.457   2.709   1.154 -0.4002  0.0611 -0.2265
  580SOL    HW2 2318   0.373   2.752   1.172  0.5645  2.0310 -0.2560
  580SOL    HW3 2319   0.465   2.710   1.059  0.1218  0.7984 -0.1748
  580SOL    MW4 2320   0.447   2.715   1.144 -0.2040  0.4183 -0.2236
  581SOL     OW 2321   0.669   2.839   1.264  0.1254 -0.1302 -0.1435
  581SOL    HW2 2322   0.667   2.930   1.236  0.9684  0.2540  1.0030
  581SOL    HW3 2323   0.590   2.800   1.227  0.2802  0.8074 -1.4899
  581SOL    MW4 2324   0.658   2.846   1.256  0.2570  0.0442 -0.1698
  582SOL     OW 2325   0.667   3.102   1.166  0.0307  0.7966 -0.1161
  582SOL    HW2 2326   0.754   3.133   1.193  0.6721 -0.4266 -0.7405
  582SOL    HW3 2327   0.664   3.117   1.072 -0.1171  0.1084 -0.2258
  582SOL    MW4 2328   0.678   3.108   1.157  0.0958  0.5444 -0.2129
  583SOL     OW 2329   0.462   3.234   1.250  0.1458 -0.4383  0.5610
  583SOL    HW2 2330   0.468   3.320   1.211 -2.1671 -0.2254  0.5899
  583SOL    HW3 2331   0.550   3.197   1.242  1.1703  1.9176  0.5980
  583SOL    MW4 2332   0.474   3.240   1.244 -0.0242 -0.0994  0.5697
  584SOL     OW 2333   0.479   3.484   1.155 -0.1094 -0.2624  0.3075
  584SOL    HW2 2334   0.554   3.512   1.207 -0.4546 -0.9581  1.1764
  584SOL    HW3 2335   0.407   3.540   1.184 -0.5964 -1.4665  1.4465
  584SOL    MW4 2336   0.479   3.495   1.166 -0.2192 -0.5130  0.5724
  585SOL     OW 2337   0.678   3.637   1.318  0.1613 -0.2031  0.1190
  585SOL    HW2 2338   0.660   3.649   1.411 -1.3714 -1.7940  0.0521
  585SOL    HW3 2339   0.659   3.722   1.278  0.3886  0.3570  1.1873
  585SOL    MW4 2340   0.673   3.649   1.325 -0.0109 -0.3391  0.2511
  586SOL     OW 2341   0.632   3.874   1.188  0.4576  0.1798  0.5774
  586SOL    HW2 2342   0.552   3.923   1.204 -1.1932 -1.9951 -0.6685
  586SOL    HW3 2343   0.642   3.876   1.092  1.3483 -0.4003  0.6520
  586SOL    MW4 2344   0.623   3.881   1.177  0.3573 -0.1837  0.4228
  587SOL     OW 2345   0.445   4.041   1.284  0.3745 -0.4038 -0.2941
  587SOL    HW2 2346   0.455   4.124   1.238 -1.2434  0.0839  0.1871
  587SOL    HW3 2347   0.378   3.994   1.234 -0.3931 -0.4414  0.7545
  587SOL    MW4 2348   0.437   4.046   1.271  0.0598 -0.3444 -0.0923
  588SOL     OW 2349   0.456   4.287   1.152  0.0438 -0.1837  0.0466
  588SOL    HW2 2350   0.537   4.328   1.181 -0.0256  1.0421 -1.4660
  588SOL    HW3 2351   0.387   4.340   1.193 -0.0171 -0.3799  0.1999
  588SOL    MW4 2352   0.457   4.299   1.161  0.0266 -0.0479 -0.1327
  589SOL     OW 2353   0.705   4.404   1.245  0.2548  0.1674  0.4037
  589SOL    HW2 2354   0.707   4.397   1.341  1.6591  1.3807  0.4948
  589SOL    HW3 2355   0.774   4.345   1.215 -0.6460 -0.7313  0.0979
  589SOL    MW4 2356   0.714   4.396   1.254  0.3212  0.2089  0.3754
  590SOL     OW 2357   1.136   4.647   1.194 -0.4401  0.1996 -0.2164
  590SOL    HW2 2358   1.139   4.552   1.210  1.2186  0.5256  1.5641
  590SOL    HW3 2359   1.147   4.655   1.099 -1.7728 -1.4377 -0.5371
  590SOL    MW4 2360   1.138   4.635   1.183 -0.3971  0.0266 -0.0238
  591SOL     OW 2361   0.903   0.114   1.277 -0.1780  0.2667 -0.5216
  591SOL    HW2 2362   0.898   0.122   1.372  0.1210  0.8616 -0.5527
  591SOL    HW3 2363   0.982   0.063   1.260 -0.0010  0.5220 -0.4657
  591SOL    MW4 2364   0.913   0.108   1.287 -0.1152  0.3788 -0.5183
  592SOL     OW 2365   0.912   0.372   1.163 -0.2963 -0.2518 -0.0281
  592SOL    HW2 2366   0.915   0.285   1.203  1.1013  0.8897  2.4464
  592SOL    HW3 2367   0.827   0.407   1.187 -0.1741 -0.2605  0.4094
  592SOL    MW4 2368   0.901   0.365   1.171 -0.0958 -0.1024  0.3561
  593SOL     OW 2369   1.125   0.532   1.243  0.1440  0.4546  0.0278
  593SOL    HW2 2370   1.145   0.517   1.336 -0.3698 -1.8713 -0.2174
  593SOL    HW3 2371   1.059   0.466   1.222  0.4635  0.7912 -2.0731
  593SOL    MW4 2372   1.119   0.521   1.253  0.1184  0.1921 -0.2818
  594SOL     OW 2373   1.108   0.771   1.118 -0.2400 -0.0009 -0.4165
  594SOL    HW2 2374   1.039   0.821   1.162 -0.1364  1.2883 -1.6918
  594SOL    HW3 2375   1.105   0.684   1.159 -1.7019  0.4657  0.4817
  594SOL    MW4 2376   1.099   0.766   1.130 -0.4192  0.2307 -0.4663
  595SOL     OW 2377   0.893   0.913   1.263  0.1209 -0.5413 -0.1037
  595SOL    HW2 2378   0.893   0.996   1.216  0.3545 -0.4929 -0.0157
  595SOL    HW3 2379   0.823   0.862   1.221 -1.7807  0.6567  1.5283
  595SOL    MW4 2380   0.884   0.917   1.251 -0.0991 -0.3769  0.1232
  596SOL     OW 2381   0.879   1.146   1.130  0.5698 -0.2208  0.0937
  596SOL    HW2 2382   0.955   1.198   1.157 -0.2510  1.0520 -0.0083
  596SOL    HW3 2383   0.863   1.172   1.040  0.8542 -1.5205 -0.3413
  596SOL    MW4 2384   0.887   1.156   1.122  0.4990 -0.2244  0.0228
  597SOL     OW 2385   1.130   1.265   1.209 -0.0686  0.0648 -0.2633
  597SOL    HW2 2386   1.129   1.266   1.305 -0.3574 -1.2002 -0.2381
  597SOL    HW3 2387   1.209   1.215   1.186 -0.7064 -0.7969 -0.6483
  597SOL    MW4 2388   1.140   1.258   1.219 -0.1908 -0.2158 -0.3108
  598SOL     OW 2389   1.130   1.539   1.115 -0.5109  0.0655 -0.0255
  598SOL    HW2 2390   1.116   1.449   1.146 -0.1196  0.0451  0.0886
  598SOL    HW3 2391   1.139   1.530   1.020  0.3026 -0.1078  0.0667
  598SOL    MW4 2392   1.129   1.526   1.107 -0.3520  0.0400  0.0017
  599SOL     OW 2393   0.902   1.676   1.230  0.0643 -0.1360  0.2950
  599SOL    HW2 2394   0.898   1.769   1.208  0.4050  0.0691  1.0934
  599SOL    HW3 2395   0.986   1.646   1.193  0.6784  0.2300  1.3701
  599SOL    MW4 2396   0.913   1.684   1.222  0.1902 -0.0606  0.5422
  600SOL     OW 2397   0.875   1.922   1.138  0.7025 -0.3090 -0.1844
  600SOL    HW2 2398   0.955   1.966   1.166  0.9924 -1.0551  0.1655
  600SOL    HW3 2399   0.805   1.968   1.186  0.9125  0.3597 -0.5107
  600SOL    MW4 2400   0.876   1.934   1.148  0.7684 -0.3192 -0.1813
  601SOL     OW 2401   1.101   2.046   1.211  0.0469 -0.3305 -0.4696
  601SOL    HW2 2402   1.108   2.056   1.306 -1.2772 -1.8815 -0.1840
  601SOL    HW3 2403   1.112   2.134   1.177 -1.8027  0.6166  1.2781
  601SOL    MW4 2404   1.104   2.059   1.219 -0.3718 -0.4102 -0.2013
  602SOL     OW 2405   1.106   2.300   1.073  0.6623 -0.6709  0.1723
  602SOL    HW2 2406   1.193   2.337   1.092  0.2229  0.7094 -0.4690
  602SOL    HW3 2407   1.045   2.362   1.114 -0.1013 -0.3932 -1.3809
  602SOL    MW4 2408   1.110   2.313   1.081  0.5036 -0.4521 -0.1173
  603SOL     OW 2409   0.909   2.467   1.205 -0.1878 -0.3844  0.2254
  603SOL    HW2 2410   0.915   2.478   1.300 -0.1688 -0.5780  0.2468
  603SOL    HW3 2411   0.826   2.421   1.192  0.0941 -0.8908  0.1931
  603SOL    MW4 2412   0.899   2.462   1.216 -0.1481 -0.4768  0.2240
  604SOL     OW 2413   0.901   2.719   1.116 -0.2230  0.5204  0.1859
  604SOL    HW2 2414   0.912   2.628   1.144 -0.2199 -0.0731 -1.6692
  604SOL    HW3 2415   0.817   2.746   1.154  0.4802  0.2258  1.9674
  604SOL    MW4 2416   0.891   2.711   1.124 -0.1298  0.4032  0.1762
  605SOL     OW 2417   1.117   2.826   1.244  0.2683 -0.2480  0.3359
  605SOL    HW2 2418   1.090   2.840   1.335 -0.2499  0.6092  0.0574
  605SOL    HW3 2419   1.039   2.789   1.202  0.8349 -1.6525  0.4741
  605SOL    MW4 2420   1.103   2.823   1.250  0.2747 -0.3202  0.3174
  606SOL     OW 2421   1.122   3.087   1.131 -0.2637 -0.5840  0.2802
  606SOL    HW2 2422   1.140   3.002   1.171 -0.8602 -0.6262  0.4646
  606SOL    HW3 2423   1.133   3.072   1.037  2.2582 -0.2067  0.4777
  606SOL    MW4 2424   1.126   3.074   1.124 -0.0097 -0.5398  0.3306
  607SOL     OW 2425   0.900   3.202   1.270 -0.0753 -0.6650 -0.1638
  607SOL    HW2 2426   0.905   3.294   1.243  0.2529 -0.2978  1.1296
  607SOL    HW3 2427   0.976   3.161   1.228 -0.9782 -0.6599 -1.8643
  607SOL    MW4 2428   0.911   3.209   1.261 -0.1511 -0.6159 -0.2175
  608SOL     OW 2429   0.914   3.466   1.205  0.3407 -0.1384 -0.2381
  608SOL    HW2 2430   0.851   3.528   1.242  1.2096  2.0040 -2.2008
  608SOL    HW3 2431   0.903   3.475   1.110  0.3999 -3.1415 -0.5724
  608SOL    MW4 2432   0.904   3.475   1.197  0.4631 -0.2520 -0.5411
  609SOL     OW 2433   1.129   3.630   1.255  0.3193  0.1225 -0.8669
  609SOL    HW2 2434   1.216   3.593   1.241 -0.1083 -0.9332 -0.7621
  609SOL    HW3 2435   1.069   3.560   1.231 -0.4829 -0.5800  2.9536
  609SOL    MW4 2436   1.133   3.616   1.250  0.1570 -0.1095 -0.3490
  610SOL     OW 2437   1.114   3.898   1.165  0.0750  0.2030 -0.0119
  610SOL    HW2 2438   1.037   3.942   1.200  0.3420  0.2078  0.5743
  610SOL    HW3 2439   1.123   3.819   1.218  1.6415  1.2001  1.2624
  610SOL    MW4 2440   1.105   3.893   1.176  0.3169  0.3352  0.2336
  611SOL     OW 2441   0.875   3.997   1.272 -0.1531 -0.2292  0.2405
  611SOL    HW2 2442   0.873   4.010   1.367  1.6064  0.5295  0.1886
  611SOL    HW3 2443   0.800   3.940   1.254  0.0062 -1.0837  2.1844
  611SOL    MW4 2444   0.864   3.992   1.282  0.1001 -0.2418  0.4901
  612SOL     OW 2445   0.914   4.238   1.133  0.0080 -0.1086 -0.0671
  612SOL    HW2 2446   0.887   4.158   1.178 -0.8840  0.3224  0.1764
  612SOL    HW3 2447   0.905   4.217   1.040 -0.0082 -0.3597 -0.0096
  612SOL    MW4 2448   0.909   4.225   1.127 -0.1118 -0.0849 -0.0274
  613SOL     OW 2449   1.135   4.383   1.212  0.1820 -0.3694 -0.0831
  613SOL    HW2 2450   1.129   4.378   1.307  0.8029 -0.2880 -0.0319
  613SOL    HW3 2451   1.058   4.338   1.180  0.2917 -0.9460  0.4589
  613SOL    MW4 2452   1.124   4.376   1.220  0.2784 -0.4347 -0.0048
  614SOL     OW 2453   1.569   4.665   1.166 -0.0626 -0.3530  0.0081
  614SOL    HW2 2454   1.656   4.699   1.186  0.1176 -0.6451 -0.2726
  614SOL    HW3 2455   1.575   4.572   1.187 -0.9663  0.0423  2.1230
  614SOL    MW4 2456   1.581   4.657   1.172 -0.1580 -0.3393  0.2501
  615SOL     OW 2457   1.351   0.142   1.282 -0.1940 -0.0705 -0.5694
  615SOL    HW2 2458   1.431   0.099   1.252 -0.4386 -0.2834 -0.9074
  615SOL    HW3 2459   1.280   0.088   1.249 -0.4587 -0.5495  0.7468
  615SOL    MW4 2460   1.352   0.129   1.274 -0.2612 -0.1618 -0.4403
  616SOL     OW 2461   1.349   0.400   1.180  0.3509  0.0294  0.3545
  616SOL    HW2 2462   1.329   0.312   1.213  0.7781 -0.2850 -0.2328
  616SOL    HW3 2463   1.276   0.454   1.211 -0.6230 -0.8117 -0.4474
  616SOL    MW4 2464   1.337   0.396   1.189  0.2787 -0.1231  0.1712
  617SOL     OW 2465   1.612   0.494   1.215 -0.5482 -0.1615  0.1167
  617SOL    HW2 2466   1.603   0.580   1.176 -1.5612  0.7596  2.2747
  617SOL    HW3 2467   1.532   0.448   1.191  0.0099 -0.5390 -1.0665
  617SOL    MW4 2468   1.600   0.499   1.207 -0.6082 -0.0898  0.2453
  618SOL     OW 2469   1.579   0.745   1.119 -0.1053 -0.0219 -0.3013
  618SOL    HW2 2470   1.643   0.808   1.150  1.4638 -1.6338 -0.1950
  618SOL    HW3 2471   1.564   0.768   1.028 -0.9150  1.6098  0.2321
  618SOL    MW4 2472   1.585   0.756   1.111 -0.0051 -0.0193 -0.2169
  619SOL     OW 2473   1.346   0.829   1.242 -0.0724 -0.2066  0.2097
  619SOL    HW2 2474   1.418   0.781   1.200  0.4763  2.1511 -1.7003
  619SOL    HW3 2475   1.268   0.802   1.193 -0.3205 -1.8367  1.4815
  619SOL    MW4 2476   1.345   0.820   1.230 -0.0327 -0.1106  0.1255
  620SOL     OW 2477   1.371   1.132   1.175 -0.1676 -0.1264  0.0681
  620SOL    HW2 2478   1.366   1.043   1.210 -0.5854  0.1299  0.6595
  620SOL    HW3 2479   1.368   1.120   1.080 -1.2340 -0.6840  0.1650
  620SOL    MW4 2480   1.370   1.119   1.167 -0.3635 -0.1662  0.1589
  621SOL     OW 2481   1.558   1.311   1.268  0.4510  0.2042 -0.0758
  621SOL    HW2 2482   1.636   1.272   1.230  0.0264 -0.7467  0.0184
  621SOL    HW3 2483   1.485   1.260   1.232 -0.1197  0.9736 -0.0343
  621SOL    MW4 2484   1.558   1.299   1.258  0.3197  0.1803 -0.0579
  622SOL     OW 2485   1.565   1.562   1.135 -0.3985  0.2111 -0.0201
  622SOL    HW2 2486   1.647   1.596   1.173  0.1395 -0.3121 -0.6987
  622SOL    HW3 2487   1.553   1.476   1.177 -0.9470  0.5685  0.5608
  622SOL    MW4 2488   1.574   1.555   1.146 -0.3999  0.1892 -0.0330
  623SOL     OW 2489   1.361   1.702   1.240 -0.2515  0.3850  0.7233
  623SOL    HW2 2490   1.441   1.664   1.202 -0.5118  0.9130 -0.3577
  623SOL    HW3 2491   1.291   1.643   1.211 -0.5706  1.3019 -0.4050
  623SOL    MW4 2492   1.362   1.689   1.231 -0.3279  0.5757  0.4318
  624SOL     OW 2493   1.354   1.957   1.153  0.8206 -0.3322 -0.2946
  624SOL    HW2 2494   1.349   1.863   1.171  0.8981 -0.1779  0.5991
  624SOL    HW3 2495   1.268   1.991   1.181  0.9332 -0.0834 -0.2450
  624SOL    MW4 2496   1.342   1.949   1.159  0.8457 -0.2790 -0.1702
  625SOL     OW 2497   1.586   2.059   1.292  0.3177  0.1131  0.0567
  625SOL    HW2 2498   1.602   2.142   1.249 -1.0322  0.4564  0.1897
  625SOL    HW3 2499   1.505   2.026   1.252  1.3636 -1.6101 -0.6947
  625SOL    MW4 2500   1.577   2.066   1.281  0.2776 -0.0690 -0.0249
  626SOL     OW 2501   1.611   2.275   1.133 -0.2993  0.1098 -0.0186
  626SOL    HW2 2502   1.541   2.337   1.154 -0.3521  0.2736 -0.6618
  626SOL    HW3 2503   1.596   2.253   1.041  0.8889  0.6665 -0.3588
  626SOL    MW4 2504   1.600   2.280   1.124 -0.1495  0.2049 -0.1484
  627SOL     OW 2505   1.392   2.445   1.203 -0.3568  0.0612  0.2181
  627SOL    HW2 2506   1.386   2.434   1.298 -3.0486 -0.9663 -0.0281
  627SOL    HW3 2507   1.398   2.539   1.190  0.0649  0.2086  1.3906
  627SOL    MW4 2508   1.392   2.456   1.214 -0.6563 -0.0549  0.3403
  628SOL     OW 2509   1.381   2.708   1.142  0.4902  0.4805  0.2535
  628SOL    HW2 2510   1.452   2.758   1.182  0.4616  0.4966  0.2837
  628SOL    HW3 2511   1.301   2.748   1.176  0.4543  0.9868 -0.4249
  628SOL    MW4 2512   1.380   2.720   1.152  0.4817  0.5494  0.1680
  629SOL     OW 2513   1.556   2.863   1.292 -0.0090 -0.3451  0.0162
  629SOL    HW2 2514   1.630   2.819   1.250  0.4431  0.0437  0.4075
  629SOL    HW3 2515   1.562   2.954   1.264 -2.5769 -1.0425 -3.0949
  629SOL    MW4 2516   1.566   2.869   1.283 -0.2882 -0.3858 -0.3426
  630SOL     OW 2517   1.540   3.102   1.141  0.1736 -0.5003  0.0388
  630SOL    HW2 2518   1.618   3.156   1.152  1.1599 -1.8095 -0.2962
  630SOL    HW3 2519   1.473   3.144   1.193  1.5968 -0.3152  1.7486
  630SOL    MW4 2520   1.542   3.115   1.149  0.4915 -0.6486  0.2202
  631SOL     OW 2521   1.326   3.222   1.249 -0.1899 -0.1908 -0.0055
  631SOL    HW2 2522   1.320   3.204   1.343  0.4680  0.6315  0.1955
  631SOL    HW3 2523   1.261   3.163   1.210 -0.3156 -0.6944  0.9391
  631SOL    MW4 2524   1.316   3.212   1.257 -0.1197 -0.1488  0.1456
  632SOL     OW 2525   1.363   3.507   1.180 -0.3519 -0.1541 -0.1029
  632SOL    HW2 2526   1.328   3.420   1.198 -1.8563  0.3380 -0.5614
  632SOL    HW3 2527   1.355   3.517   1.085  0.6918  0.1130 -0.1647
  632SOL    MW4 2528   1.357   3.497   1.170 -0.4127 -0.0539 -0.1716
  633SOL     OW 2529   1.621   3.578   1.248 -0.1478 -0.5246 -0.1881
  633SOL    HW2 2530   1.605   3.672   1.236 -1.3674 -0.6908 -0.0014
  633SOL    HW3 2531   1.543   3.536   1.210  0.9212 -1.5133 -1.3254
  633SOL    MW4 2532   1.608   3.585   1.242 -0.1677 -0.6770 -0.3135
  634SOL     OW 2533   1.562   3.833   1.145  0.0490 -0.1643  0.3454
  634SOL    HW2 2534   1.489   3.869   1.196  0.5429  0.1209  0.8578
  634SOL    HW3 2535   1.532   3.839   1.054 -0.6624 -0.2681  0.5655
  634SOL    MW4 2536   1.548   3.839   1.139  0.0203 -0.1404  0.4420
  635SOL     OW 2537   1.350   3.991   1.264  0.0036  0.2140  0.0573
  635SOL    HW2 2538   1.345   4.076   1.221 -0.5761  0.3007  0.2902
  635SOL    HW3 2539   1.273   3.944   1.233 -0.7883  0.5177  1.5048
  635SOL    MW4 2540   1.340   3.996   1.255 -0.1774  0.2655  0.2790
  636SOL     OW 2541   1.382   4.265   1.159 -0.4145 -0.8174  0.0064
  636SOL    HW2 2542   1.295   4.287   1.193 -0.3677 -0.8433  0.1436
  636SOL    HW3 2543   1.377   4.284   1.066 -0.0360  0.8238  0.3042
  636SOL    MW4 2544   1.370   4.271   1.151 -0.3584 -0.6043  0.0638
  637SOL     OW 2545   1.608   4.394   1.260  0.5031 -0.0623  0.3014
  637SOL    HW2 2546   1.616   4.387   1.355 -0.1144 -0.6044  0.3150
  637SOL    HW3 2547   1.535   4.336   1.238 -1.0325  2.0114 -0.2034
  637SOL    MW4 2548   1.599   4.385   1.270  0.2191  0.1397  0.2366
  638SOL     OW 2549   2.039   4.640   1.139 -0.4142 -0.1619 -0.2662
  638SOL    HW2 2550   2.039   4.549   1.169  1.2860 -0.0754  0.0346
  638SOL    HW3 2551   2.031   4.635   1.044 -1.9244 -0.5647 -0.1261
  638SOL    MW4 2552   2.038   4.628   1.131 -0.3891 -0.2036 -0.2080
  639SOL     OW 2553   1.797   0.155   1.218  0.0549  0.1108  0.0350
  639SOL    HW2 2554   1.821   0.237   1.175 -1.5263  0.2306 -0.6542
  639SOL    HW3 2555   1.874   0.100   1.209  0.1892  0.5700 -1.8928
  639SOL    MW4 2556   1.810   0.159   1.211 -0.1360  0.1872 -0.3103
  640SOL     OW 2557   1.853   0.407   1.109 -0.4302  0.1003  0.3116
  640SOL    HW2 2558   1.762   0.435   1.117 -0.6930 -0.9501  1.1494
  640SOL    HW3 2559   1.866   0.394   1.015 -1.1417  0.2662  0.1923
  640SOL    MW4 2560   1.843   0.409   1.097 -0.5587 -0.0164  0.4064
  641SOL     OW 2561   2.032   0.540   1.276  0.6539 -0.0344  0.0912
  641SOL    HW2 2562   2.034   0.524   1.370  0.5006  1.1909  0.3090
  641SOL    HW3 2563   1.956   0.491   1.245  0.6358 -0.3472  0.6192
  641SOL    MW4 2564   2.023   0.531   1.284  0.6313  0.0860  0.1896
  642SOL     OW 2565   2.060   0.777   1.159 -0.0583 -0.2246  0.1914
  642SOL    HW2 2566   2.051   0.686   1.188  1.2418 -0.9226 -1.5161
  642SOL    HW3 2567   2.069   0.771   1.064  1.7267  1.5779  0.2267
  642SOL    MW4 2568   2.060   0.764   1.150  0.3487 -0.0789 -0.0292
  643SOL     OW 2569   1.782   0.912   1.218  0.1518 -0.3334 -0.0724
  643SOL    HW2 2570   1.780   0.915   1.313  0.4249  0.5652 -0.0898
  643SOL    HW3 2571   1.859   0.859   1.197 -0.1365 -0.8686  0.2041
  643SOL    MW4 2572   1.792   0.905   1.228  0.1498 -0.2854 -0.0382
  644SOL     OW 2573   1.804   1.180   1.177 -0.0439 -0.0117  0.4809
  644SOL    HW2 2574   1.781   1.087   1.185 -0.5743  0.0979  0.2092
  644SOL    HW3 2575   1.821   1.193   1.084  1.3489 -0.1423  0.7056
  644SOL    MW4 2576   1.804   1.169   1.166  0.0699 -0.0144  0.4747
  645SOL     OW 2577   2.050   1.264   1.265  0.5265 -0.0970 -0.3750
  645SOL    HW2 2578   2.124   1.207   1.246  1.3440  0.5082  0.9636
  645SOL    HW3 2579   1.974   1.215   1.233  1.0737 -2.5477  1.8448
  645SOL    MW4 2580   2.049   1.250   1.258  0.7066 -0.3405  0.0945
  646SOL     OW 2581   1.990   1.519   1.167  0.1157 -0.4163 -0.1168
  646SOL    HW2 2582   2.018   1.431   1.192  1.7779  0.1010 -0.1115
  646SOL    HW3 2583   2.004   1.523   1.073  0.6967  0.0565 -0.0160
  646SOL    MW4 2584   1.996   1.508   1.158  0.4117 -0.2857 -0.1028
  647SOL     OW 2585   1.795   1.668   1.269 -0.2873  0.6316  0.0035
  647SOL    HW2 2586   1.818   1.761   1.260  1.1949  0.1769 -0.8706
  647SOL    HW3 2587   1.871   1.620   1.237 -0.5756 -0.9200  1.5429
  647SOL    MW4 2588   1.808   1.674   1.264 -0.1298  0.3669  0.0912
  648SOL     OW 2589   1.835   1.929   1.205 -0.3625  0.0555  0.1332
  648SOL    HW2 2590   1.756   1.977   1.231 -0.1037  0.4255  0.2469
  648SOL    HW3 2591   1.822   1.910   1.112 -0.8192 -0.3452  0.2782
  648SOL    MW4 2592   1.823   1.933   1.196 -0.3886  0.0515  0.1674
  649SOL     OW 2593   2.028   2.074   1.348  0.6411  0.3934 -0.4546
  649SOL    HW2 2594   2.032   2.029   1.432  0.5215  1.3291  0.0579
  649SOL    HW3 2595   1.965   2.024   1.297  0.5897 -0.0815  0.0662
  649SOL    MW4 2596   2.020   2.062   1.353  0.6185  0.4542 -0.3183
  650SOL     OW 2597   2.030   2.333   1.207 -0.2977  0.2482  0.0978
  650SOL    HW2 2598   2.118   2.372   1.212 -0.2004  0.4518 -2.3284
  650SOL    HW3 2599   2.036   2.253   1.258  1.1207  0.5771  0.4747
  650SOL    MW4 2600   2.042   2.328   1.214 -0.0977  0.3185 -0.1726
  651SOL     OW 2601   1.781   2.466   1.238 -0.1170 -0.1101  0.2162
  651SOL    HW2 2602   1.871   2.435   1.232 -0.1145  0.0260 -0.4580
  651SOL    HW3 2603   1.729   2.398   1.194 -0.1531  0.6503 -0.9312
  651SOL    MW4 2604   1.786   2.453   1.232 -0.1214  0.0082 -0.0241
  652SOL     OW 2605   1.752   2.735   1.136 -0.1933  0.3017  0.0524
  652SOL    HW2 2606   1.752   2.641   1.155 -0.8571  0.2333 -0.2898
  652SOL    HW3 2607   1.780   2.741   1.045  1.9801  0.5737  0.6945
  652SOL    MW4 2608   1.756   2.723   1.126  0.0059  0.3285  0.0919
  653SOL     OW 2609   2.004   2.813   1.308  0.1032  0.3143  0.2269
  653SOL    HW2 2610   2.000   2.898   1.264 -0.8530  0.0222 -0.2819
  653SOL    HW3 2611   1.925   2.768   1.279  1.4266 -1.3883 -0.8112
  653SOL    MW4 2612   1.993   2.818   1.299  0.1517  0.0511  0.0228
  654SOL     OW 2613   2.038   3.074   1.177  0.1448 -0.0789  0.2451
  654SOL    HW2 2614   1.955   3.120   1.190 -0.4232 -1.2210  0.7259
  654SOL    HW3 2615   2.050   3.073   1.082 -1.1883 -1.2815  0.0665
  654SOL    MW4 2616   2.028   3.080   1.166 -0.1060 -0.3883  0.2850
  655SOL     OW 2617   1.800   3.206   1.225  0.3417  0.2405 -0.1530
  655SOL    HW2 2618   1.801   3.213   1.320 -0.9411  1.9476 -0.2433
  655SOL    HW3 2619   1.823   3.293   1.194  0.2173 -0.1609 -1.3958
  655SOL    MW4 2620   1.803   3.218   1.233  0.1561  0.4127 -0.3289
  656SOL     OW 2621   1.827   3.467   1.143 -0.1061  0.3878 -0.6788
  656SOL    HW2 2622   1.901   3.520   1.173 -0.4905 -0.1560  1.3540
  656SOL    HW3 2623   1.750   3.510   1.181 -0.6025 -0.4850 -0.6865
  656SOL    MW4 2624   1.827   3.480   1.152 -0.2223  0.2009 -0.4116
  657SOL     OW 2625   2.047   3.644   1.232 -0.5196  0.2915  0.2106
  657SOL    HW2 2626   2.040   3.618   1.324  0.2214  0.0832  0.2119
  657SOL    HW3 2627   2.131   3.607   1.203 -1.4040 -0.8283 -0.9316
  657SOL    MW4 2628   2.058   3.636   1.240 -0.5385  0.1163  0.0601
  658SOL     OW 2629   2.041   3.898   1.135  0.1926  0.0431 -0.4495
  658SOL    HW2 2630   1.951   3.919   1.161  0.2370  0.2336 -0.4558
  658SOL    HW3 2631   2.056   3.810   1.172  0.4099  0.4912  0.5485
  658SOL    MW4 2632   2.031   3.889   1.144  0.2271  0.1274 -0.3186
  659SOL     OW 2633   1.791   3.988   1.185 -0.0913  0.1955 -0.2974
  659SOL    HW2 2634   1.812   3.960   1.274  1.8512 -1.2146 -1.1590
  659SOL    HW3 2635   1.705   3.950   1.167 -0.1779 -0.1015  0.7182
  659SOL    MW4 2636   1.782   3.979   1.194  0.1535 -0.0297 -0.2771
  660SOL     OW 2637   1.804   4.266   1.111  0.1271 -0.2765 -0.1577
  660SOL    HW2 2638   1.801   4.176   1.143  1.4189  0.2145  1.4099
  660SOL    HW3 2639   1.735   4.311   1.159  0.6626 -0.0336  0.3960
  660SOL    MW4 2640   1.795   4.260   1.122  0.3682 -0.1797  0.1222
  661SOL     OW 2641   2.046   4.366   1.194 -0.3685  0.2888  0.2592
  661SOL    HW2 2642   2.050   4.370   1.289 -0.0955  0.3966  0.2435
  661SOL    HW3 2643   1.958   4.334   1.175 -0.3074 -0.0636  0.5572
  661SOL    MW4 2644   2.035   4.362   1.204 -0.3244  0.2566  0.2965
  662SOL     OW 2645   2.531   4.652   1.104 -0.3055 -0.1429  0.3626
  662SOL    HW2 2646   2.599   4.701   1.150  0.5824  0.7712 -1.8956
  662SOL    HW3 2647   2.449   4.693   1.133  0.2862  0.9966  0.4668
  662SOL    MW4 2648   2.529   4.664   1.114 -0.1102  0.1280  0.0784
  663SOL     OW 2649   2.281   0.081   1.230  0.0162 -0.2413 -0.1722
  663SOL    HW2 2650   2.276   0.176   1.228  0.2614 -0.2443 -1.2677
  663SOL    HW3 2651   2.201   0.051   1.187  0.1604 -0.5278 -0.2466
  663SOL    MW4 2652   2.270   0.089   1.224  0.0676 -0.2795 -0.3265
  664SOL     OW 2653   2.260   0.382   1.216 -0.7449 -0.1289  0.1822
  664SOL    HW2 2654   2.176   0.425   1.228 -0.7163 -0.0765  0.1943
  664SOL    HW3 2655   2.267   0.368   1.121 -0.4703  0.4685  0.1107
  664SOL    MW4 2656   2.250   0.386   1.205 -0.7049 -0.0432  0.1744
  665SOL     OW 2657   2.511   0.460   1.272 -0.5107 -0.5419 -0.4704
  665SOL    HW2 2658   2.512   0.478   1.366 -0.7190 -1.8947 -0.2092
  665SOL    HW3 2659   2.425   0.422   1.255 -0.8337  0.5658 -1.3793
  665SOL    MW4 2660   2.500   0.457   1.282 -0.5808 -0.5742 -0.5559
  666SOL     OW 2661   2.505   0.717   1.187 -0.0902  0.2718 -0.5710
  666SOL    HW2 2662   2.521   0.627   1.215 -0.8574  0.2333 -0.2380
  666SOL    HW3 2663   2.495   0.711   1.092  0.5000  0.1079 -0.6297
  666SOL    MW4 2664   2.506   0.704   1.178 -0.1136  0.2451 -0.5348
  667SOL     OW 2665   2.297   0.886   1.256  0.3506 -0.3170 -0.0407
  667SOL    HW2 2666   2.361   0.817   1.236  0.3035 -0.0311 -1.1991
  667SOL    HW3 2667   2.217   0.859   1.211 -0.3102 -0.5643  1.2286
  667SOL    MW4 2668   2.295   0.873   1.248  0.2572 -0.3119 -0.0261
  668SOL     OW 2669   2.274   1.152   1.178 -0.3197  0.0843 -0.5284
  668SOL    HW2 2670   2.346   1.200   1.219 -0.2720  1.4853 -2.2137
  668SOL    HW3 2671   2.297   1.060   1.191  0.2859  0.4868  1.5207
  668SOL    MW4 2672   2.286   1.146   1.185 -0.2335  0.3223 -0.4804
  669SOL     OW 2673   2.491   1.284   1.295 -0.0289 -0.3773  0.0544
  669SOL    HW2 2674   2.567   1.237   1.261 -0.9156 -1.8400  0.0531
  669SOL    HW3 2675   2.502   1.374   1.262  1.3646 -0.7129 -0.4533
  669SOL    MW4 2676   2.503   1.290   1.286  0.0380 -0.6145 -0.0128
  670SOL     OW 2677   2.486   1.530   1.164 -0.1193  0.7660  0.0695
  670SOL    HW2 2678   2.403   1.571   1.188 -1.0157 -0.9465  0.0217
  670SOL    HW3 2679   2.484   1.528   1.068 -0.4974 -0.1399  0.0817
  670SOL    MW4 2680   2.475   1.535   1.155 -0.2874  0.4205  0.0648
  671SOL     OW 2681   2.221   1.637   1.274 -0.1905  0.3875 -0.5077
  671SOL    HW2 2682   2.219   1.729   1.246  1.1894  0.5743 -0.0098
  671SOL    HW3 2683   2.136   1.603   1.247 -1.1390  2.0913  0.2192
  671SOL    MW4 2684   2.209   1.645   1.266 -0.1336  0.6369 -0.3461
  672SOL     OW 2685   2.234   1.926   1.225 -0.4695 -0.0992  0.0976
  672SOL    HW2 2686   2.176   1.989   1.269  0.3912  0.1418  0.8917
  672SOL    HW3 2687   2.214   1.937   1.131  0.7363  2.4430  0.0895
  672SOL    MW4 2688   2.223   1.936   1.218 -0.1969  0.2680  0.2013
  673SOL     OW 2689   2.481   2.058   1.303  0.0939 -0.2658  0.5896
  673SOL    HW2 2690   2.551   2.022   1.249  0.0865  0.1468  0.3030
  673SOL    HW3 2691   2.409   1.996   1.293  0.8979 -1.4878  2.0549
  673SOL    MW4 2692   2.481   2.045   1.294  0.1990 -0.3726  0.7451
  674SOL     OW 2693   2.507   2.312   1.211  0.4591  0.4854 -0.3576
  674SOL    HW2 2694   2.485   2.230   1.256 -0.9448  0.5538 -0.8872
  674SOL    HW3 2695   2.493   2.293   1.118  0.0349  1.3518 -0.4730
  674SOL    MW4 2696   2.502   2.299   1.205  0.2179  0.6087 -0.4427
  675SOL     OW 2697   2.274   2.467   1.237  0.2767 -0.1653 -0.3833
  675SOL    HW2 2698   2.263   2.457   1.331  1.2862  0.1756 -0.2217
  675SOL    HW3 2699   2.358   2.424   1.218  0.2916  0.1486 -1.0603
  675SOL    MW4 2700   2.284   2.460   1.247  0.4119 -0.0789 -0.4513
  676SOL     OW 2701   2.238   2.722   1.155 -0.1006 -0.1079  0.1550
  676SOL    HW2 2702   2.258   2.637   1.193 -0.1042 -0.1679  0.0240
  676SOL    HW3 2703   2.160   2.752   1.201 -0.1185 -0.1909  0.1775
  676SOL    MW4 2704   2.230   2.715   1.166 -0.1034 -0.1268  0.1407
  677SOL     OW 2705   2.453   2.852   1.263 -0.1081  0.1076  0.2760
  677SOL    HW2 2706   2.427   2.876   1.352  0.9586 -1.1701  0.9556
  677SOL    HW3 2707   2.376   2.808   1.227 -0.9048  1.5243  0.1816
  677SOL    MW4 2708   2.439   2.849   1.270 -0.0725  0.1260  0.3532
  678SOL     OW 2709   2.503   3.128   1.158  0.0566 -0.0757 -0.3786
  678SOL    HW2 2710   2.436   3.164   1.216  0.8912  0.1224  0.4752
  678SOL    HW3 2711   2.498   3.033   1.171  1.6540  0.0841  1.6216
  678SOL    MW4 2712   2.493   3.120   1.167  0.3775 -0.0285 -0.0020
  679SOL     OW 2713   2.256   3.215   1.288 -0.2241  0.0692  0.2104
  679SOL    HW2 2714   2.244   3.302   1.250  0.4489  0.0407 -0.0711
  679SOL    HW3 2715   2.188   3.161   1.248 -0.5839  0.4406  0.3154
  679SOL    MW4 2716   2.245   3.220   1.278 -0.1828  0.1145  0.1871
  680SOL     OW 2717   2.271   3.474   1.179  0.2210  0.4751  0.0358
  680SOL    HW2 2718   2.355   3.513   1.200  0.7609 -0.6417  0.0241
  680SOL    HW3 2719   2.265   3.480   1.083  0.2751  0.5862  0.0399
  680SOL    MW4 2720   2.281   3.480   1.169  0.2994  0.3424  0.0348
  681SOL     OW 2721   2.493   3.612   1.231 -0.1860 -0.3000 -0.1956
  681SOL    HW2 2722   2.488   3.616   1.327  0.1709  0.2467 -0.1965
  681SOL    HW3 2723   2.493   3.704   1.204 -0.6059 -0.4580 -0.7381
  681SOL    MW4 2724   2.492   3.625   1.240 -0.1943 -0.2487 -0.2673
  682SOL     OW 2725   2.506   3.875   1.159  0.1690 -0.1163 -0.0446
  682SOL    HW2 2726   2.417   3.900   1.184 -0.0888 -0.8947 -0.1392
  682SOL    HW3 2727   2.502   3.863   1.064  0.8095  1.5270 -0.2774
  682SOL    MW4 2728   2.494   3.876   1.150  0.2195 -0.0022 -0.0878
  683SOL     OW 2729   2.281   4.014   1.226 -0.2502 -0.2972  0.2807
  683SOL    HW2 2730   2.281   4.106   1.201  0.6823  0.2204  2.1165
  683SOL    HW3 2731   2.192   3.983   1.205 -0.1552  0.6445 -1.5891
  683SOL    MW4 2732   2.269   4.022   1.220 -0.1146 -0.1046  0.2762
  684SOL     OW 2733   2.293   4.284   1.135  0.0805 -0.1586  0.1350
  684SOL    HW2 2734   2.203   4.316   1.136  0.0497 -0.2739  0.7560
  684SOL    HW3 2735   2.300   4.235   1.053 -0.2188  0.4378 -0.2496
  684SOL    MW4 2736   2.282   4.282   1.124  0.0369 -0.0951  0.1662
  685SOL     OW 2737   2.496   4.419   1.256  0.1662  0.4443 -0.2336
  685SOL    HW2 2738   2.416   4.379   1.222 -0.8282  0.9202  1.4777
  685SOL    HW3 2739   2.496   4.507   1.220  0.1137  0.3262 -0.5264
  685SOL    MW4 2740   2.486   4.425   1.247  0.0281  0.4915 -0.0464
  686SOL     OW 2741   2.973   4.658   1.175  0.1907  0.2008  0.2785
  686SOL    HW2 2742   2.946   4.571   1.205 -0.7732  0.5064  0.2924
  686SOL    HW3 2743   2.954   4.658   1.082  1.7082 -0.1774 -0.0482
  686SOL    MW4 2744   2.967   4.646   1.167  0.2637  0.1912  0.2372
  687SOL     OW 2745   2.741   0.096   1.271 -0.2525 -0.2970 -0.5745
  687SOL    HW2 2746   2.727   0.110   1.365 -1.8376  1.0060 -0.9641
  687SOL    HW3 2747   2.813   0.034   1.266  0.8539  0.7620  1.4847
  687SOL    MW4 2748   2.749   0.090   1.283 -0.3156  0.0146 -0.3542
  688SOL     OW 2749   2.737   0.360   1.180  0.5391  0.1714  0.1273
  688SOL    HW2 2750   2.749   0.270   1.213  2.2328  0.3585  0.0800
  688SOL    HW3 2751   2.657   0.390   1.222  0.9415 -0.7309  1.5856
  688SOL    MW4 2752   2.728   0.352   1.190  0.8157  0.0770  0.3134
  689SOL     OW 2753   2.944   0.515   1.283  0.1002  0.1495  0.6271
  689SOL    HW2 2754   2.933   0.585   1.218  0.5595 -0.8510 -0.5461
  689SOL    HW3 2755   2.866   0.461   1.273 -0.1313  0.3457  1.3546
  689SOL    MW4 2756   2.932   0.517   1.273  0.1302  0.0434  0.5683
  690SOL     OW 2757   2.931   0.750   1.149 -0.1305 -0.1854  0.1344
  690SOL    HW2 2758   3.011   0.794   1.180  1.2390 -2.6989  0.3268
  690SOL    HW3 2759   2.861   0.789   1.201  1.0853  1.4057  0.6347
  690SOL    MW4 2760   2.932   0.761   1.160  0.2106 -0.3071  0.2258
  691SOL     OW 2761   2.719   0.878   1.285 -0.3322 -0.0601 -0.2234
  691SOL    HW2 2762   2.710   0.968   1.257 -0.7205  0.6402  2.0135
  691SOL    HW3 2763   2.642   0.833   1.250 -0.4528  0.6132 -0.8126
  691SOL    MW4 2764   2.708   0.884   1.277 -0.3994  0.1211 -0.0060
  692SOL     OW 2765   2.712   1.145   1.203 -0.3049  0.0212  0.1072
  692SOL    HW2 2766   2.782   1.200   1.239 -1.8235  2.2878 -0.2405
  692SOL    HW3 2767   2.721   1.156   1.108 -0.8412 -0.0454  0.0493
  692SOL    MW4 2768   2.723   1.154   1.195 -0.5760  0.3115  0.0536
  693SOL     OW 2769   2.923   1.277   1.303  0.3006 -0.0315  0.4123
  693SOL    HW2 2770   2.936   1.304   1.394 -1.1123 -0.2555  0.6873
  693SOL    HW3 2771   2.906   1.359   1.256  1.8096  0.1739  0.1925
  693SOL    MW4 2772   2.922   1.292   1.309  0.3133 -0.0339  0.4196
  694SOL     OW 2773   2.905   1.515   1.173 -0.0641 -0.0758  0.1335
  694SOL    HW2 2774   2.971   1.574   1.208 -0.6788  0.7994 -0.1569
  694SOL    HW3 2775   2.927   1.507   1.080 -0.0175 -0.2688  0.1596
  694SOL    MW4 2776   2.917   1.522   1.165 -0.1391  0.0142  0.0986
  695SOL     OW 2777   2.718   1.685   1.222 -0.0343 -0.4388 -0.0768
  695SOL    HW2 2778   2.784   1.626   1.186 -0.4739 -1.1909  0.3375
  695SOL    HW3 2779   2.638   1.633   1.224 -1.1769  1.1089 -2.5780
  695SOL    MW4 2780   2.716   1.670   1.217 -0.2430 -0.3338 -0.3522
  696SOL     OW 2781   2.684   1.959   1.152  0.6581  0.5654 -0.0853
  696SOL    HW2 2782   2.761   1.992   1.199  0.7779  1.2914 -0.7881
  696SOL    HW3 2783   2.687   1.864   1.167  1.0614  0.7058  0.8147
  696SOL    MW4 2784   2.695   1.951   1.161  0.7271  0.6797 -0.0593
  697SOL     OW 2785   2.935   2.083   1.241 -0.1710 -0.1177  0.2195
  697SOL    HW2 2786   2.941   2.087   1.337  1.0301 -0.1439  0.1533
  697SOL    HW3 2787   2.932   2.175   1.214 -1.1046 -0.1168  0.3109
  697SOL    MW4 2788   2.936   2.096   1.250 -0.1357 -0.1211  0.2228
  698SOL     OW 2789   2.954   2.341   1.130 -0.1310 -0.1533 -0.1343
  698SOL    HW2 2790   3.026   2.354   1.191 -0.8896 -0.3280  0.8149
  698SOL    HW3 2791   2.881   2.389   1.168 -0.6289 -0.3127 -0.8747
  698SOL    MW4 2792   2.954   2.349   1.143 -0.2968 -0.1974 -0.1068
  699SOL     OW 2793   2.738   2.449   1.280 -0.1346  0.2553  0.1484
  699SOL    HW2 2794   2.721   2.462   1.373  0.1905 -0.3781  0.2987
  699SOL    HW3 2795   2.657   2.409   1.247 -0.0063 -0.1208  0.2889
  699SOL    MW4 2796   2.725   2.445   1.288 -0.0748  0.1221  0.1868
  700SOL     OW 2797   2.685   2.715   1.180  0.1044  0.0175 -0.0226
  700SOL    HW2 2798   2.694   2.626   1.215 -1.6648 -0.1721 -0.0104
  700SOL    HW3 2799   2.605   2.749   1.221  1.4473  2.1061  0.9927
  700SOL    MW4 2800   2.676   2.708   1.190  0.0482  0.2681  0.1130
  701SOL     OW 2801   2.930   2.847   1.229  0.2460  0.0853  0.2498
  701SOL    HW2 2802   2.935   2.846   1.324  0.6101 -0.7655  0.2210
  701SOL    HW3 2803   2.848   2.802   1.208 -0.2818  1.0672  0.1923
  701SOL    MW4 2804   2.920   2.841   1.238  0.2244  0.1026  0.2384
  702SOL     OW 2805   2.942   3.105   1.141  0.3832  0.0931  0.2556
  702SOL    HW2 2806   2.937   3.011   1.159  2.7002  0.2652  2.0277
  702SOL    HW3 2807   2.950   3.110   1.046 -1.0974 -1.4169  0.0245
  702SOL    MW4 2808   2.942   3.093   1.131  0.4935 -0.0835  0.4589
  703SOL     OW 2809   2.735   3.255   1.263 -0.3297  0.1205 -0.0154
  703SOL    HW2 2810   2.804   3.207   1.217  0.4883  0.0785  1.2338
  703SOL    HW3 2811   2.654   3.228   1.219  0.5056  0.8730 -2.1062
  703SOL    MW4 2812   2.734   3.245   1.251 -0.1116  0.2143 -0.1264
  704SOL     OW 2813   2.711   3.472   1.114 -0.2228  0.2014  0.0715
  704SOL    HW2 2814   2.713   3.394   1.169 -1.0149 -0.0609 -0.2661
  704SOL    HW3 2815   2.638   3.523   1.148 -1.2884 -0.3848 -1.3060
  704SOL    MW4 2816   2.702   3.469   1.126 -0.4679  0.0895 -0.1548
  705SOL     OW 2817   2.920   3.618   1.267 -0.1609  0.2334 -0.5057
  705SOL    HW2 2818   3.000   3.581   1.230  0.1369 -0.0605  0.4308
  705SOL    HW3 2819   2.852   3.594   1.204  0.5589  0.8769 -1.5322
  705SOL    MW4 2820   2.922   3.610   1.254 -0.0266  0.2795 -0.5176
  706SOL     OW 2821   2.917   3.868   1.157  0.1730  0.2621 -0.1933
  706SOL    HW2 2822   2.987   3.908   1.207  0.0543 -0.1703  0.3292
  706SOL    HW3 2823   2.907   3.780   1.196 -0.2936  0.1297 -0.6052
  706SOL    MW4 2824   2.925   3.861   1.169  0.0958  0.1875 -0.1787
  707SOL     OW 2825   2.706   4.014   1.279  0.4316 -0.0213 -0.3059
  707SOL    HW2 2826   2.781   3.975   1.233  0.2832 -1.5111  0.6766
  707SOL    HW3 2827   2.630   3.968   1.243  0.1091  0.4953 -0.2816
  707SOL    MW4 2828   2.706   4.003   1.268  0.3695 -0.1497 -0.1731
  708SOL     OW 2829   2.702   4.263   1.126  0.0592 -0.0718  0.0119
  708SOL    HW2 2830   2.697   4.178   1.171 -0.6909 -0.0176  0.0248
  708SOL    HW3 2831   2.623   4.309   1.154  0.0454  0.3062 -0.6684
  708SOL    MW4 2832   2.691   4.258   1.136 -0.0416 -0.0148 -0.0761
  709SOL     OW 2833   2.886   4.407   1.279  0.1373 -0.0735 -0.4691
  709SOL    HW2 2834   2.972   4.371   1.257  1.1592 -0.3549  3.6152
  709SOL    HW3 2835   2.825   4.359   1.223  2.4739 -0.9523 -2.3462
  709SOL    MW4 2836   2.889   4.396   1.269  0.5804 -0.2265 -0.1779
  710SOL     OW 2837   3.446   4.664   1.188 -0.2975  0.1870  0.5794
  710SOL    HW2 2838   3.510   4.721   1.230 -0.5811  0.1374  1.0779
  710SOL    HW3 2839   3.362   4.706   1.205 -0.2496  1.4052 -1.8607
  710SOL    MW4 2840   3.443   4.677   1.196 -0.3286  0.3412  0.3232
  711SOL     OW 2841   3.184   0.128   1.270  0.0100 -0.0062 -0.6693
  711SOL    HW2 2842   3.168   0.136   1.364 -0.5137  1.7042 -0.8839
  711SOL    HW3 2843   3.110   0.077   1.237 -0.5921  0.6608 -0.3686
  711SOL    MW4 2844   3.172   0.122   1.278 -0.1386  0.3075 -0.6579
  712SOL     OW 2845   3.152   0.368   1.134 -0.0678 -0.2450  0.4882
  712SOL    HW2 2846   3.166   0.284   1.178  2.2248  0.8153  1.8889
  712SOL    HW3 2847   3.075   0.405   1.179  0.6020 -0.3785  1.7721
  712SOL    MW4 2848   3.143   0.362   1.146  0.3231 -0.1227  0.8424
  713SOL     OW 2849   3.363   0.505   1.237  0.3845 -0.1090  0.0872
  713SOL    HW2 2850   3.357   0.590   1.193  0.7297  0.2525  0.7273
  713SOL    HW3 2851   3.294   0.452   1.197  0.4152  0.3474 -0.5854
  713SOL    MW4 2852   3.353   0.509   1.226  0.4341 -0.0011  0.0829
  714SOL     OW 2853   3.381   0.763   1.132 -0.4091 -0.1196 -0.5455
  714SOL    HW2 2854   3.298   0.797   1.164  0.0891  0.8771 -0.2721
  714SOL    HW3 2855   3.372   0.760   1.037 -0.9277 -0.4824 -0.4840
  714SOL    MW4 2856   3.369   0.767   1.124 -0.4118 -0.0359 -0.5013
  715SOL     OW 2857   3.156   0.881   1.218 -0.3991  0.3888  0.6679
  715SOL    HW2 2858   3.166   0.888   1.313  1.2387  0.2894  0.5178
  715SOL    HW3 2859   3.138   0.971   1.189  0.9189  0.7529  0.8994
  715SOL    MW4 2860   3.155   0.894   1.226 -0.0091  0.4237  0.6786
  716SOL     OW 2861   3.119   1.156   1.146  0.0019  0.3083 -0.7857
  716SOL    HW2 2862   3.196   1.204   1.177 -1.2864  2.2975 -0.6054
  716SOL    HW3 2863   3.047   1.189   1.200 -0.9301 -1.8197 -0.6879
  716SOL    MW4 2864   3.120   1.167   1.157 -0.2911  0.2900 -0.7490
  717SOL     OW 2865   3.349   1.273   1.245  0.3553 -0.1759  0.3994
  717SOL    HW2 2866   3.364   1.275   1.340  0.0696 -0.5877  0.4526
  717SOL    HW3 2867   3.340   1.365   1.221 -1.8491 -0.1606  1.1432
  717SOL    MW4 2868   3.350   1.286   1.254  0.0267 -0.2282  0.5045
  718SOL     OW 2869   3.348   1.540   1.161  0.0636  0.1621 -0.2551
  718SOL    HW2 2870   3.412   1.610   1.173 -0.1859  0.5113 -0.9056
  718SOL    HW3 2871   3.268   1.571   1.204  0.6313 -0.7344  1.4972
  718SOL    MW4 2872   3.346   1.553   1.168  0.1056  0.0899 -0.1097
  719SOL     OW 2873   3.120   1.657   1.265  0.3202 -0.1558  0.1673
  719SOL    HW2 2874   3.116   1.683   1.357  0.0133  0.8445 -0.1160
  719SOL    HW3 2875   3.096   1.737   1.217 -0.1113 -0.8305 -0.7566
  719SOL    MW4 2876   3.116   1.671   1.271  0.2228 -0.1128  0.0080
  720SOL     OW 2877   3.111   1.920   1.126 -0.4636 -0.0717 -0.2204
  720SOL    HW2 2878   3.193   1.959   1.154 -0.3822 -0.8653  0.7215
  720SOL    HW3 2879   3.043   1.974   1.166 -0.3652 -0.3078  0.2760
  720SOL    MW4 2880   3.113   1.932   1.135 -0.4399 -0.2076 -0.0306
  721SOL     OW 2881   3.336   2.047   1.242  0.0008 -0.2805  0.1524
  721SOL    HW2 2882   3.420   2.012   1.212 -0.8980 -1.3063 -1.2367
  721SOL    HW3 2883   3.332   2.136   1.206  0.6998 -0.0504  0.6344
  721SOL    MW4 2884   3.346   2.054   1.233 -0.0256 -0.3855  0.0327
  722SOL     OW 2885   3.379   2.301   1.126 -0.6478 -0.0859 -0.1661
  722SOL    HW2 2886   3.449   2.341   1.177 -2.1102  0.9795  1.0668
  722SOL    HW3 2887   3.299   2.341   1.160 -2.0626 -2.9791  0.0981
  722SOL    MW4 2888   3.377   2.312   1.137 -1.0274 -0.3271  0.0314
  723SOL     OW 2889   3.177   2.407   1.273  0.7710  0.5068  0.0146
  723SOL    HW2 2890   3.184   2.432   1.366  0.4725  0.0469  0.1629
  723SOL    HW3 2891   3.168   2.490   1.227  1.1409  0.7525  0.3780
  723SOL    MW4 2892   3.177   2.421   1.279  0.7804  0.4785  0.0821
  724SOL     OW 2893   3.140   2.680   1.143  0.6215 -0.3337 -0.1881
  724SOL    HW2 2894   3.066   2.734   1.169  0.2166 -1.8084  1.9044
  724SOL    HW3 2895   3.141   2.685   1.048 -0.7757  1.5120 -0.1353
  724SOL    MW4 2896   3.130   2.687   1.134  0.3837 -0.2847  0.0950
  725SOL     OW 2897   3.350   2.834   1.271 -0.3674 -0.1134  0.2388
  725SOL    HW2 2898   3.368   2.907   1.213 -0.8308  0.7691  1.1946
  725SOL    HW3 2899   3.279   2.786   1.228 -0.8987  0.6907  0.2072
  725SOL    MW4 2900   3.343   2.837   1.258 -0.4986  0.1092  0.3607
  726SOL     OW 2901   3.414   3.079   1.172 -0.1435 -0.2261  0.1560
  726SOL    HW2 2902   3.484   3.139   1.200 -0.0528  0.2064 -0.9603
  726SOL    HW3 2903   3.333   3.120   1.204 -0.0981  0.6070 -0.7861
  726SOL    MW4 2904   3.413   3.092   1.180 -0.1255 -0.0591 -0.1156
  727SOL     OW 2905   3.175   3.194   1.262  0.0647 -0.1934  0.2960
  727SOL    HW2 2906   3.152   3.284   1.240 -0.0387 -0.3935 -0.4485
  727SOL    HW3 2907   3.096   3.144   1.239 -1.0276 -0.0810  3.6115
  727SOL    MW4 2908   3.161   3.199   1.256 -0.0931 -0.2050  0.6352
  728SOL     OW 2909   3.141   3.452   1.190  0.7167  0.0406 -0.5324
  728SOL    HW2 2910   3.208   3.512   1.222  0.2730  0.4188 -0.3053
  728SOL    HW3 2911   3.149   3.455   1.095  0.4910  0.6986 -0.5336
  728SOL    MW4 2912   3.151   3.460   1.182  0.6284  0.1773 -0.5026
  729SOL     OW 2913   3.392   3.607   1.241 -0.0289 -0.1758 -0.1969
  729SOL    HW2 2914   3.404   3.565   1.326 -1.2113 -0.4893 -0.1757
  729SOL    HW3 2915   3.473   3.590   1.194  0.2270 -0.8870  0.4903
  729SOL    MW4 2916   3.404   3.600   1.246 -0.1512 -0.3110 -0.1034
  730SOL     OW 2917   3.350   3.875   1.173  0.0278  0.3211  0.2073
  730SOL    HW2 2918   3.266   3.906   1.206 -0.9706 -1.5131 -0.5483
  730SOL    HW3 2919   3.358   3.786   1.207  0.3013 -0.5726 -2.1121
  730SOL    MW4 2920   3.340   3.867   1.182 -0.0678 -0.0388 -0.1984
  731SOL     OW 2921   3.132   4.001   1.278  0.2576  0.3181 -0.0267
  731SOL    HW2 2922   3.159   4.002   1.370 -0.0345  2.4869  0.0721
  731SOL    HW3 2923   3.142   4.092   1.249 -1.9578  0.1530 -1.4599
  731SOL    MW4 2924   3.137   4.014   1.286 -0.0732  0.5825 -0.2028
  732SOL     OW 2925   3.151   4.293   1.212  0.3287 -0.1742 -0.4200
  732SOL    HW2 2926   3.237   4.325   1.239  0.7353 -0.9220 -0.8130
  732SOL    HW3 2927   3.157   4.285   1.117  0.1406 -1.1547 -0.3479
  732SOL    MW4 2928   3.163   4.296   1.203  0.3575 -0.4022 -0.4623
  733SOL     OW 2929   3.393   4.407   1.266  0.2838  0.2039 -0.2581
  733SOL    HW2 2930   3.467   4.355   1.235 -0.6811 -1.4927  0.2259
  733SOL    HW3 2931   3.421   4.498   1.255  2.5668 -0.4195  0.2153
  733SOL    MW4 2932   3.406   4.412   1.261  0.4577 -0.1022 -0.1318
  734SOL     OW 2933   3.813   4.630   1.187  0.5096 -0.0261 -0.2317
  734SOL    HW2 2934   3.821   4.543   1.225 -0.2906 -0.0316 -0.0473
  734SOL    HW3 2935   3.800   4.615   1.093 -1.2946 -0.2077  0.0125
  734SOL    MW4 2936   3.812   4.617   1.179  0.1660 -0.0508 -0.1752
  735SOL     OW 2937   3.644   0.155   1.295  0.6898 -0.0499  0.1950
  735SOL    HW2 2938   3.644   0.237   1.246 -1.0846 -0.0926  0.0899
  735SOL    HW3 2939   3.715   0.104   1.257  1.9430  1.5014  0.3909
  735SOL    MW4 2940   3.653   0.160   1.284  0.6210  0.1491  0.2070
  736SOL     OW 2941   3.634   0.410   1.172  0.2300 -0.2843  0.2630
  736SOL    HW2 2942   3.708   0.460   1.205  1.4891  0.6105 -3.7514
  736SOL    HW3 2943   3.558   0.467   1.184  1.1271  1.2118 -1.0967
  736SOL    MW4 2944   3.634   0.424   1.178  0.5144  0.0311 -0.4461
  737SOL     OW 2945   3.855   0.520   1.284  0.6302  0.1615 -0.0242
  737SOL    HW2 2946   3.927   0.471   1.243  1.4225  1.2731  0.0084
  737SOL    HW3 2947   3.856   0.604   1.240 -0.2691  0.4101  0.4166
  737SOL    MW4 2948   3.865   0.524   1.273  0.6161  0.3409  0.0382
  738SOL     OW 2949   3.822   0.759   1.150 -0.1845 -0.4452 -0.2429
  738SOL    HW2 2950   3.897   0.800   1.193 -0.4788 -1.2668  1.0691
  738SOL    HW3 2951   3.748   0.816   1.171 -0.4304 -1.1525  0.8216
  738SOL    MW4 2952   3.822   0.772   1.158 -0.2557 -0.6469  0.0706
  739SOL     OW 2953   3.597   0.900   1.250 -0.2822 -0.0141  0.4128
  739SOL    HW2 2954   3.583   0.993   1.235  0.8205 -0.0931 -1.2402
  739SOL    HW3 2955   3.526   0.857   1.202 -0.0722 -0.0749  0.1588
  739SOL    MW4 2956   3.586   0.906   1.242 -0.1090 -0.0325  0.1612
  740SOL     OW 2957   3.583   1.147   1.123 -0.1688 -0.3224 -0.1513
  740SOL    HW2 2958   3.648   1.204   1.163 -0.1747 -1.6401  1.8316
  740SOL    HW3 2959   3.499   1.178   1.158 -0.2798 -0.7303 -0.0447
  740SOL    MW4 2960   3.580   1.159   1.133 -0.1842 -0.5501  0.1244
  741SOL     OW 2961   3.815   1.278   1.197  0.4529  0.1448  0.2101
  741SOL    HW2 2962   3.812   1.290   1.292  0.2082  0.3760  0.1761
  741SOL    HW3 2963   3.813   1.367   1.162  0.5045  0.0581 -0.0122
  741SOL    MW4 2964   3.814   1.292   1.205  0.4274  0.1639  0.1763
  742SOL     OW 2965   3.794   1.568   1.104 -0.1173 -0.2578  0.2198
  742SOL    HW2 2966   3.874   1.609   1.136 -1.2189  1.5601  0.7094
  742SOL    HW3 2967   3.799   1.577   1.009 -0.8721  2.0822  0.3741
  742SOL    MW4 2968   3.805   1.574   1.095 -0.3623  0.2908  0.3048
  743SOL     OW 2969   3.584   1.691   1.228 -0.3602  0.2671 -0.0676
  743SOL    HW2 2970   3.596   1.782   1.201 -0.4464  0.3398  0.1334
  743SOL    HW3 2971   3.645   1.641   1.174  1.2063  0.6772  1.2885
  743SOL    MW4 2972   3.593   1.696   1.218 -0.1649  0.3308  0.1379
  744SOL     OW 2973   3.602   1.960   1.184  0.2741 -0.2315  0.1360
  744SOL    HW2 2974   3.679   1.985   1.235 -0.0593  1.1728 -0.0249
  744SOL    HW3 2975   3.625   1.980   1.094  0.2146 -1.0964 -0.0791
  744SOL    MW4 2976   3.615   1.966   1.179  0.2222 -0.1603  0.0864
  745SOL     OW 2977   3.847   2.049   1.284  0.0271 -0.1248  0.3957
  745SOL    HW2 2978   3.855   2.043   1.379 -0.8532 -0.2796  0.4641
  745SOL    HW3 2979   3.924   2.002   1.250  1.4396  1.7008  1.0233
  745SOL    MW4 2980   3.859   2.042   1.292  0.0973  0.0956  0.4875
  746SOL     OW 2981   3.817   2.304   1.154 -0.3148 -0.4637 -0.0862
  746SOL    HW2 2982   3.888   2.360   1.187 -1.3434  0.2121  1.0447
  746SOL    HW3 2983   3.830   2.221   1.200 -0.2869 -0.3147  0.1815
  746SOL    MW4 2984   3.828   2.300   1.165 -0.4468 -0.3549  0.0983
  747SOL     OW 2985   3.568   2.444   1.265 -0.1013  0.0412 -0.1865
  747SOL    HW2 2986   3.568   2.424   1.359 -1.1230  0.2845 -0.1282
  747SOL    HW3 2987   3.643   2.396   1.230  1.8575  1.9694  1.1823
  747SOL    MW4 2988   3.578   2.435   1.273  0.0223  0.3277  0.0018
  748SOL     OW 2989   3.533   2.685   1.144 -0.6303 -0.2888  0.4381
  748SOL    HW2 2990   3.555   2.608   1.196  1.7677  0.5403  0.7077
  748SOL    HW3 2991   3.459   2.725   1.190 -0.2345 -1.0211  1.7273
  748SOL    MW4 2992   3.526   2.680   1.157 -0.2617 -0.2760  0.6438
  749SOL     OW 2993   3.787   2.795   1.218  0.1660  0.0297  0.0109
  749SOL    HW2 2994   3.792   2.793   1.314 -0.9460  0.3030  0.0835
  749SOL    HW3 2995   3.699   2.761   1.199 -0.5121  2.2304 -0.8227
  749SOL    MW4 2996   3.776   2.790   1.228 -0.0702  0.3561 -0.0895
  750SOL     OW 2997   3.835   3.066   1.162  0.3025  0.5661 -0.8000
  750SOL    HW2 2998   3.810   2.978   1.189  0.5214  0.2367 -1.6530
  750SOL    HW3 2999   3.809   3.071   1.070  1.9152  0.7600 -1.2563
  750SOL    MW4 3000   3.828   3.055   1.153  0.5442  0.5483 -0.9727
  751SOL     OW 3001   3.643   3.213   1.293  0.1450  0.4030  0.2969
  751SOL    HW2 3002   3.638   3.294   1.243 -0.7379 -0.4289 -1.0014
  751SOL    HW3 3003   3.720   3.168   1.258  1.1712  1.0676  1.6415
  751SOL    MW4 3004   3.653   3.218   1.282  0.1639  0.3809  0.3030
  752SOL     OW 3005   3.649   3.466   1.162  0.0443  0.5324 -0.3649
  752SOL    HW2 3006   3.723   3.526   1.174  0.9465 -0.3837 -1.2066
  752SOL    HW3 3007   3.647   3.448   1.068 -1.0216  0.2565 -0.2973
  752SOL    MW4 3008   3.659   3.472   1.151  0.0227  0.3751 -0.4671
  753SOL     OW 3009   3.873   3.614   1.238 -0.5578 -0.2419  0.4919
  753SOL    HW2 3010   3.852   3.599   1.330  0.7437  0.7171  0.9799
  753SOL    HW3 3011   3.873   3.710   1.229 -0.2464 -0.3169 -0.3862
  753SOL    MW4 3012   3.871   3.625   1.249 -0.3450 -0.1253  0.4404
  754SOL     OW 3013   3.826   3.890   1.178 -0.6083  0.1979  0.5077
  754SOL    HW2 3014   3.752   3.939   1.214 -1.4505 -0.3092 -0.5104
  754SOL    HW3 3015   3.829   3.915   1.086  0.8116  0.5988  0.6534
  754SOL    MW4 3016   3.817   3.900   1.171 -0.5321  0.1839  0.3926
  755SOL     OW 3017   3.578   3.996   1.286  0.0646 -0.0865 -0.0957
  755SOL    HW2 3018   3.576   3.972   1.378  0.1028  0.1848 -0.0225
  755SOL    HW3 3019   3.505   3.948   1.247  1.2235 -1.7203 -0.3097
  755SOL    MW4 3020   3.568   3.987   1.293  0.2226 -0.2663 -0.1143
  756SOL     OW 3021   3.618   4.239   1.188  0.2915  0.0460 -0.1063
  756SOL    HW2 3022   3.576   4.158   1.216  1.5266 -0.6843 -0.3249
  756SOL    HW3 3023   3.612   4.239   1.093  4.5737 -2.2549 -0.5239
  756SOL    MW4 3024   3.612   4.229   1.179  1.0195 -0.3539 -0.1902
  757SOL     OW 3025   3.845   4.368   1.283 -0.4483 -0.4857 -0.2147
  757SOL    HW2 3026   3.835   4.368   1.378  0.7960  0.3080 -0.0705
  757SOL    HW3 3027   3.768   4.323   1.251 -0.6991 -1.0898  1.1951
  757SOL    MW4 3028   3.834   4.362   1.291 -0.3172 -0.4607 -0.0097
  758SOL     OW 3029   4.259   4.656   1.178 -0.4092  0.4906 -0.4502
  758SOL    HW2 3030   4.274   4.569   1.216 -0.4212  0.3382 -0.7954
  758SOL    HW3 3031   4.172   4.680   1.210 -0.5502  0.2276 -0.6308
  758SOL    MW4 3032   4.249   4.647   1.187 -0.4294  0.4358 -0.5196
  759SOL     OW 3033   4.050   0.144   1.266  0.1644  0.1678 -0.5797
  759SOL    HW2 3034   4.055   0.148   1.361 -0.2586  0.6120 -0.5790
  759SOL    HW3 3035   3.978   0.083   1.248  1.5333 -1.4923 -0.6162
  759SOL    MW4 3036   4.041   0.136   1.276  0.2892  0.0074 -0.5844
  760SOL     OW 3037   4.093   0.402   1.130 -0.7151  0.6362 -0.1021
  760SOL    HW2 3038   4.083   0.319   1.176  1.5780  0.9483  1.0164
  760SOL    HW3 3039   4.111   0.377   1.039 -0.7123 -0.0765  0.0923
  760SOL    MW4 3040   4.094   0.388   1.124 -0.4122  0.5833  0.0711
  761SOL     OW 3041   4.315   0.527   1.239 -0.0400  0.2523  0.0670
  761SOL    HW2 3042   4.296   0.523   1.333 -0.1986 -2.1601 -0.0304
  761SOL    HW3 3043   4.244   0.477   1.198 -0.5108  2.0905 -1.4547
  761SOL    MW4 3044   4.303   0.520   1.246 -0.1230  0.1765 -0.1466
  762SOL     OW 3045   4.293   0.775   1.167 -0.1735 -0.0432  0.0396
  762SOL    HW2 3046   4.286   0.680   1.179 -2.6707  0.0923 -0.0138
  762SOL    HW3 3047   4.301   0.787   1.072  2.1961 -0.2687  0.1808
  762SOL    MW4 3048   4.293   0.764   1.156 -0.1903 -0.0551  0.0512
  763SOL     OW 3049   4.047   0.875   1.302  0.1558  0.2619 -0.2100
  763SOL    HW2 3050   4.045   0.877   1.398 -0.0244 -0.4766 -0.1939
  763SOL    HW3 3051   4.130   0.831   1.281  0.6099  1.2135 -0.4036
  763SOL    MW4 3052   4.058   0.869   1.312  0.1919  0.2900 -0.2334
  764SOL     OW 3053   4.062   1.134   1.216  0.0838 -0.0653 -0.3796
  764SOL    HW2 3054   4.049   1.047   1.254  2.0024  0.2309  1.0339
  764SOL    HW3 3055   3.974   1.172   1.214 -0.5953 -1.5331  0.2061
  764SOL    MW4 3056   4.048   1.127   1.221  0.2474 -0.2199 -0.1158
  765SOL     OW 3057   4.290   1.291   1.241  0.5311 -0.3297 -0.2915
  765SOL    HW2 3058   4.304   1.309   1.335 -1.2076  2.4642 -0.5036
  765SOL    HW3 3059   4.205   1.247   1.237  0.7222 -0.6729 -0.5081
  765SOL    MW4 3060   4.281   1.288   1.253  0.3269 -0.0064 -0.3480
  766SOL     OW 3061   4.272   1.545   1.088  0.0963  0.2044  0.0615
  766SOL    HW2 3062   4.268   1.458   1.128 -1.0932  0.0465 -0.3769
  766SOL    HW3 3063   4.337   1.592   1.139  1.7560 -1.3724 -0.5230
  766SOL    MW4 3064   4.280   1.540   1.100  0.1583 -0.0245 -0.0734
  767SOL     OW 3065   4.021   1.667   1.211  0.2614  0.2484 -0.1066
  767SOL    HW2 3066   4.025   1.652   1.306 -1.3072  0.5412  0.0092
  767SOL    HW3 3067   4.104   1.631   1.178 -0.3524 -2.3454  1.0471
  767SOL    MW4 3068   4.033   1.660   1.219 -0.0266 -0.0552  0.0609
  768SOL     OW 3069   4.062   1.938   1.140 -0.3262  0.0945  0.1989
  768SOL    HW2 3070   4.048   1.845   1.157 -1.3145  0.1734 -0.1104
  768SOL    HW3 3071   4.042   1.948   1.047 -2.1590  0.9439  0.6499
  768SOL    MW4 3072   4.057   1.927   1.130 -0.6984  0.2169  0.2176
  769SOL     OW 3073   4.271   2.052   1.272 -0.1654 -0.3142  0.0659
  769SOL    HW2 3074   4.261   2.146   1.254  0.4312 -0.1968  0.3244
  769SOL    HW3 3075   4.198   2.011   1.226 -0.4318  0.2776 -0.0518
  769SOL    MW4 3076   4.260   2.059   1.264 -0.1218 -0.2206  0.0845
  770SOL     OW 3077   4.285   2.311   1.170  0.2048 -0.3485 -0.5014
  770SOL    HW2 3078   4.206   2.364   1.157  1.6162  1.7090 -0.8977
  770SOL    HW3 3079   4.319   2.298   1.082  1.2550  0.2900 -0.2040
  770SOL    MW4 3080   4.279   2.317   1.157  0.5296  0.0072 -0.5144
  771SOL     OW 3081   4.060   2.464   1.195  0.0241 -0.1372  0.1687
  771SOL    HW2 3082   4.080   2.461   1.289 -1.4645 -0.4834  0.4883
  771SOL    HW3 3083   4.069   2.557   1.173 -0.4442  0.0827  0.8557
  771SOL    MW4 3084   4.063   2.476   1.205 -0.2341 -0.1538  0.3015
  772SOL     OW 3085   4.055   2.729   1.143  0.0211 -0.3655  0.1963
  772SOL    HW2 3086   3.962   2.732   1.165  0.0015 -1.2906  0.2914
  772SOL    HW3 3087   4.058   2.736   1.048 -0.0844  0.6383  0.2667
  772SOL    MW4 3088   4.044   2.730   1.133  0.0046 -0.3551  0.2182
  773SOL     OW 3089   4.261   2.883   1.255 -0.0025  0.0499  0.0931
  773SOL    HW2 3090   4.272   2.955   1.193  0.6326 -1.3427 -1.4307
  773SOL    HW3 3091   4.194   2.827   1.215  0.4452 -0.8827  0.6456
  773SOL    MW4 3092   4.253   2.885   1.242  0.1404 -0.2569 -0.0350
  774SOL     OW 3093   4.302   3.112   1.117 -0.0287  0.0303  0.3109
  774SOL    HW2 3094   4.217   3.153   1.133  0.8343  1.5484  1.0843
  774SOL    HW3 3095   4.309   3.110   1.021 -0.6231  0.5528  0.2488
  774SOL    MW4 3096   4.291   3.117   1.106  0.0067  0.2995  0.4047
  775SOL     OW 3097   4.059   3.214   1.236 -0.1252  0.4807  0.1525
  775SOL    HW2 3098   4.056   3.211   1.331  1.7754 -3.0658  0.2033
  775SOL    HW3 3099   3.978   3.171   1.207  0.4802 -0.7763  0.2582
  775SOL    MW4 3100   4.048   3.208   1.244  0.2054 -0.1531  0.1732
  776SOL     OW 3101   4.074   3.476   1.142  0.2506 -0.3437  0.2547
  776SOL    HW2 3102   4.085   3.393   1.188  1.2714  0.5000  1.5517
  776SOL    HW3 3103   3.998   3.517   1.183  0.9935  0.2841  1.0143
  776SOL    MW4 3104   4.066   3.470   1.153  0.4833 -0.1496  0.5260
  777SOL     OW 3105   4.282   3.627   1.275  0.4174 -0.4786 -0.5491
  777SOL    HW2 3106   4.209   3.572   1.248 -1.1667 -0.2430  2.9567
  777SOL    HW3 3107   4.360   3.576   1.253 -0.9113 -2.4514 -0.7917
  777SOL    MW4 3108   4.283   3.613   1.269  0.0331 -0.7078 -0.1185
  778SOL     OW 3109   4.269   3.881   1.184  0.1848 -0.4675 -0.2533
  778SOL    HW2 3110   4.184   3.915   1.210  0.2501  0.0398 -0.6757
  778SOL    HW3 3111   4.278   3.798   1.230  0.6523  0.7765  2.0117
  778SOL    MW4 3112   4.259   3.875   1.193  0.2551 -0.2365 -0.0102
  779SOL     OW 3113   4.044   4.025   1.284  0.2798 -0.4290  0.1351
  779SOL    HW2 3114   4.048   4.107   1.234 -0.3705 -0.1685  0.5063
  779SOL    HW3 3115   3.966   3.981   1.251  0.4913 -0.7914  0.1131
  779SOL    MW4 3116   4.034   4.030   1.273  0.2219 -0.4424  0.1812
  780SOL     OW 3117   4.073   4.260   1.165  0.3627 -0.1782  0.3036
  780SOL    HW2 3118   3.998   4.301   1.208  0.8636  0.3037  0.7168
  780SOL    HW3 3119   4.059   4.276   1.072  0.9325  1.5820  0.5047
  780SOL    MW4 3120   4.061   4.268   1.158  0.5040  0.1176  0.3846
  781SOL     OW 3121   4.286   4.403   1.274  0.0109 -0.5049  0.0607
  781SOL    HW2 3122   4.212   4.367   1.225 -1.6079 -0.2767  2.2879
  781SOL    HW3 3123   4.362   4.357   1.238 -1.1091 -0.4262 -2.5742
  781SOL    MW4 3124   4.286   4.392   1.263 -0.3505 -0.4644  0.0069
  782SOL     OW 3125   0.167   0.035   1.627  0.1402 -0.0965 -0.1630
  782SOL    HW2 3126   0.243   0.064   1.577 -0.1529  1.4423  0.2558
  782SOL    HW3 3127   0.096   0.092   1.598 -0.7686 -1.2838 -0.2849
  782SOL    MW4 3128   0.168   0.046   1.617 -0.0184 -0.0501 -0.1238
  783SOL     OW 3129   4.412   0.181   1.545  0.4152 -0.4766 -0.0823
  783SOL    HW2 3130   4.363   0.109   1.585  0.2506 -1.0567 -1.3172
  783SOL    HW3 3131   4.421   0.156   1.453  0.3984  1.0699 -0.5101
  783SOL    MW4 3132   4.407   0.168   1.538  0.3912 -0.3491 -0.3017
  784SOL     OW 3133   4.466   0.422   1.657  0.4552 -0.4752  0.1159
  784SOL    HW2 3134   4.455   0.408   1.751 -0.3759 -0.9658 -0.0536
  784SOL    HW3 3135   4.455   0.335   1.618 -0.8181 -0.0077 -0.5831
  784SOL    MW4 3136   4.463   0.408   1.664  0.1775 -0.4783  0.0014
  785SOL     OW 3137   0.210   0.524   1.555  0.0458  0.3545 -0.1838
  785SOL    HW2 3138   0.130   0.489   1.594 -0.0372  1.0335  0.2491
  785SOL    HW3 3139   0.202   0.503   1.462 -1.7180  2.4270 -0.5387
  785SOL    MW4 3140   0.198   0.517   1.548 -0.1978  0.7175 -0.1735
  786SOL     OW 3141   0.245   0.785   1.653 -0.1944  0.0147 -0.3262
  786SOL    HW2 3142   0.319   0.810   1.597 -0.1855  0.3426 -0.1703
  786SOL    HW3 3143   0.236   0.691   1.640  0.0278  0.0303 -0.6170
  786SOL    MW4 3144   0.254   0.776   1.644 -0.1639  0.0600 -0.3440
  787SOL     OW 3145   0.035   0.886   1.526 -0.2660  0.0401  0.4692
  787SOL    HW2 3146   0.018   0.973   1.563 -1.8477 -0.6431  1.3779
  787SOL    HW3 3147   0.114   0.856   1.571  0.2777  0.9808  0.1640
  787SOL    MW4 3148   0.043   0.894   1.537 -0.4030  0.0741  0.5488
  788SOL     OW 3149   4.455   1.136   1.624 -0.0286  0.2476  0.3780
  788SOL    HW2 3150   4.453   1.139   1.720  1.2166 -0.2509  0.4272
  788SOL    HW3 3151   4.540   1.172   1.600  0.1071 -0.6272 -0.4980
  788SOL    MW4 3152   4.466   1.141   1.634  0.1536  0.0664  0.2689
  789SOL     OW 3153   0.199   1.248   1.521  0.0441 -0.3611  0.2849
  789SOL    HW2 3154   0.220   1.337   1.548  0.8237 -0.4320 -0.0794
  789SOL    HW3 3155   0.188   1.254   1.426 -1.8705 -0.2708  0.4933
  789SOL    MW4 3156   0.200   1.260   1.512 -0.1057 -0.3586  0.2644
  790SOL     OW 3157   0.234   1.532   1.593 -0.4520  0.0187 -1.0159
  790SOL    HW2 3158   0.214   1.540   1.686  0.0358 -0.0029 -0.9085
  790SOL    HW3 3159   0.157   1.566   1.548 -1.6155 -2.0063 -0.6332
  790SOL    MW4 3160   0.222   1.537   1.599 -0.5411 -0.2514 -0.9512
  791SOL     OW 3161   0.014   1.645   1.497  0.4359 -0.2998  0.5322
  791SOL    HW2 3162   0.020   1.738   1.520 -0.5846 -0.0467 -0.1810
  791SOL    HW3 3163  -0.006   1.645   1.404  0.3528 -1.2355  0.5515
  791SOL    MW4 3164   0.012   1.658   1.488  0.2903 -0.3899  0.4406
  792SOL     OW 3165   0.008   1.890   1.600 -0.3764 -0.1583  0.1744
  792SOL    HW2 3166   0.027   1.889   1.694  2.0151  1.4926 -0.2365
  792SOL    HW3 3167  -0.071   1.944   1.592  0.5857  1.4356  1.0962
  792SOL    MW4 3168  -0.000   1.897   1.611  0.0661  0.2698  0.2418
  793SOL     OW 3169   0.215   2.067   1.526 -0.2101  0.5902  0.2763
  793SOL    HW2 3170   0.146   2.003   1.541 -0.7869  1.4538  1.4209
  793SOL    HW3 3171   0.224   2.072   1.431  0.7236 -2.1046  0.1581
  793SOL    MW4 3172   0.207   2.059   1.516 -0.1630  0.3486  0.4117
  794SOL     OW 3173   0.232   2.305   1.653 -0.2004  0.4948 -0.1564
  794SOL    HW2 3174   0.229   2.293   1.748 -0.4054  2.0398  0.0393
  794SOL    HW3 3175   0.211   2.219   1.618  1.9266 -0.6333  1.1920
  794SOL    MW4 3176   0.229   2.292   1.661  0.0532  0.5498  0.0474
  795SOL     OW 3177   0.018   2.429   1.528 -0.1841 -0.2156  0.0390
  795SOL    HW2 3178  -0.057   2.370   1.537 -0.4852  0.1697  0.0820
  795SOL    HW3 3179   0.088   2.387   1.578 -0.7259  0.0125  1.0061
  795SOL    MW4 3180   0.017   2.416   1.536 -0.2953 -0.1347  0.1722
  796SOL     OW 3181   4.482   2.702   1.584 -0.0353 -0.1184  0.0958
  796SOL    HW2 3182   4.394   2.724   1.554  0.0967  1.1353  0.5853
  796SOL    HW3 3183   4.486   2.607   1.581 -1.1096 -0.1431 -0.7669
  796SOL    MW4 3184   4.471   2.693   1.580 -0.1596  0.0438  0.0465
  797SOL     OW 3185   0.235   2.843   1.531 -0.0693 -0.2290 -0.2258
  797SOL    HW2 3186   0.293   2.786   1.581 -0.3691 -0.8682 -0.6024
  797SOL    HW3 3187   0.151   2.796   1.528 -0.3570  0.2863 -0.4257
  797SOL    MW4 3188   0.231   2.829   1.537 -0.1468 -0.2453 -0.3019
  798SOL     OW 3189   0.262   3.087   1.648  0.3392 -0.5923  0.1882
  798SOL    HW2 3190   0.182   3.138   1.639  0.3153 -0.4814  0.9810
  798SOL    HW3 3191   0.240   3.002   1.609 -1.3863 -1.8207  3.5953
  798SOL    MW4 3192   0.248   3.082   1.642  0.1084 -0.7398  0.7423
  799SOL     OW 3193   0.041   3.214   1.534  0.2481  0.2474 -0.4823
  799SOL    HW2 3194   0.013   3.303   1.553 -0.0326  0.1480 -0.4131
  799SOL    HW3 3195   0.060   3.214   1.440  1.0483  0.5850 -0.3184
  799SOL    MW4 3196   0.040   3.225   1.524  0.3167  0.2788 -0.4515
  800SOL     OW 3197   4.468   3.467   1.634 -0.3476  0.0087  0.2152
  800SOL    HW2 3198   4.450   3.486   1.726  0.9610 -0.3297  0.5560
  800SOL    HW3 3199   4.384   3.480   1.590 -1.6542 -2.4669  1.8771
  800SOL    MW4 3200   4.455   3.471   1.640 -0.3473 -0.3626  0.4794
  801SOL     OW 3201   0.188   3.612   1.520  0.0889 -0.5785 -0.7483
  801SOL    HW2 3202   0.192   3.692   1.572 -0.2434 -0.1221 -1.4173
  801SOL    HW3 3203   0.109   3.568   1.550  1.4455 -1.7588  1.1904
  801SOL    MW4 3204   0.178   3.617   1.531  0.2240 -0.6740 -0.5808
  802SOL     OW 3205   0.207   3.840   1.666 -0.4194  0.4019 -0.2826
  802SOL    HW2 3206   0.208   3.858   1.760  0.7394  0.0639 -0.2245
  802SOL    HW3 3207   0.273   3.899   1.630  0.2545 -0.5800 -0.6674
  802SOL    MW4 3208   0.216   3.850   1.674 -0.1776  0.2278 -0.3257
  803SOL     OW 3209   4.480   3.999   1.557  0.3950 -0.0566 -0.2387
  803SOL    HW2 3210   4.479   4.090   1.586 -0.5108 -0.1659  0.0944
  803SOL    HW3 3211   4.554   3.959   1.604  1.2423  0.6820 -0.9434
  803SOL    MW4 3212   4.490   4.006   1.567  0.3873  0.0264 -0.2878
  804SOL     OW 3213   4.490   4.280   1.645  0.3339 -0.0177  0.5120
  804SOL    HW2 3214   4.486   4.259   1.738 -1.1654 -1.1051  0.2284
  804SOL    HW3 3215   4.402   4.311   1.623  0.3808 -0.7144 -0.7343
  804SOL    MW4 3216   4.478   4.281   1.654  0.1422 -0.2531  0.3101
  805SOL     OW 3217   0.204   4.429   1.534 -0.2395 -0.3870 -0.0331
  805SOL    HW2 3218   0.125   4.383   1.565 -1.4119 -0.1699 -2.5490
  805SOL    HW3 3219   0.185   4.522   1.548 -1.3306 -0.1961 -2.4762
  805SOL    MW4 3220   0.191   4.435   1.540 -0.5381 -0.3332 -0.6874
  806SOL     OW 3221   0.654   4.664   1.653 -0.2598 -0.1694  0.0686
  806SOL    HW2 3222   0.733   4.705   1.620 -0.1511  0.8792  1.5781
  806SOL    HW3 3223   0.582   4.716   1.616 -0.2044 -0.3111 -0.2373
  806SOL    MW4 3224   0.655   4.676   1.644 -0.2381 -0.0497  0.2274
  807SOL     OW 3225   0.405   0.099   1.521  0.0444  0.2133 -0.5595
  807SOL    HW2 3226   0.414   0.191   1.549  1.3019  0.2798 -1.1370
  807SOL    HW3 3227   0.430   0.100   1.429  0.2998 -0.7498 -0.5055
  807SOL    MW4 3228   0.409   0.111   1.513  0.2440  0.0950 -0.6285
  808SOL     OW 3229   0.452   0.372   1.618  0.2594  0.1533  0.0930
  808SOL    HW2 3230   0.531   0.414   1.585  0.8131 -0.2942  0.8373
  808SOL    HW3 3231   0.382   0.437   1.603  0.6890  0.3966 -0.9094
  808SOL    MW4 3232   0.453   0.386   1.612  0.3891  0.1263  0.0590
  809SOL     OW 3233   0.700   0.500   1.558 -0.2192  0.3430  0.4358
  809SOL    HW2 3234   0.693   0.592   1.584 -1.3522  0.9131 -1.6991
  809SOL    HW3 3235   0.709   0.503   1.463 -0.7044 -1.7609  0.2961
  809SOL    MW4 3236   0.700   0.513   1.549 -0.4327  0.1407  0.1357
  810SOL     OW 3237   0.695   0.773   1.649 -0.2373  0.2186  0.3742
  810SOL    HW2 3238   0.685   0.773   1.744  0.1527 -0.6702  0.4221
  810SOL    HW3 3239   0.771   0.828   1.633  0.3698 -0.5232  0.6625
  810SOL    MW4 3240   0.704   0.780   1.659 -0.1058  0.0035  0.4185
  811SOL     OW 3241   0.479   0.888   1.512 -0.0068  0.1208 -0.0939
  811SOL    HW2 3242   0.468   0.971   1.559 -0.1274  0.8530 -1.3814
  811SOL    HW3 3243   0.547   0.841   1.560 -0.1523  0.8372  0.8207
  811SOL    MW4 3244   0.486   0.893   1.524 -0.0419  0.3119 -0.1431
  812SOL     OW 3245   0.455   1.146   1.632 -0.0629 -0.0857  0.2052
  812SOL    HW2 3246   0.526   1.191   1.585  0.7563 -1.2601  0.3061
  812SOL    HW3 3247   0.375   1.178   1.589  0.6426 -0.6965 -1.6394
  812SOL    MW4 3248   0.453   1.156   1.620  0.1382 -0.3213 -0.0249
  813SOL     OW 3249   0.652   1.311   1.513 -0.4387  0.4829  0.0367
  813SOL    HW2 3250   0.618   1.398   1.534 -2.0449 -0.2765  0.6810
  813SOL    HW3 3251   0.655   1.308   1.417  0.5215  1.5660  0.0213
  813SOL    MW4 3252   0.648   1.322   1.503 -0.5239  0.5256  0.1196
  814SOL     OW 3253   0.658   1.571   1.628 -0.0759  0.2123  0.2019
  814SOL    HW2 3254   0.741   1.598   1.588 -0.4232  0.5658 -0.2756
  814SOL    HW3 3255   0.591   1.613   1.575 -0.5653 -0.1054  0.5700
  814SOL    MW4 3256   0.660   1.580   1.616 -0.1863  0.2170  0.1875
  815SOL     OW 3257   0.437   1.703   1.513 -0.0232 -0.0033  0.0076
  815SOL    HW2 3258   0.425   1.789   1.551  0.2231 -0.3443  0.8804
  815SOL    HW3 3259   0.363   1.651   1.545  0.3542 -0.3795  0.2853
  815SOL    MW4 3260   0.426   1.707   1.522  0.0591 -0.0979  0.1594
  816SOL     OW 3261   0.442   1.952   1.627  0.1291 -0.1959  0.0011
  816SOL    HW2 3262   0.451   1.969   1.721 -0.1668 -0.0007 -0.0081
  816SOL    HW3 3263   0.360   1.994   1.602 -0.1442 -0.8480 -0.2069
  816SOL    MW4 3264   0.433   1.959   1.636  0.0540 -0.2562 -0.0276
  817SOL     OW 3265   0.664   2.097   1.511 -0.5002  0.4276  0.0728
  817SOL    HW2 3266   0.738   2.042   1.535 -0.1370  0.2216 -1.5127
  817SOL    HW3 3267   0.588   2.051   1.547 -0.1945 -1.0955 -1.1809
  817SOL    MW4 3268   0.663   2.083   1.519 -0.4119  0.1995 -0.3018
  818SOL     OW 3269   0.652   2.349   1.637  0.1242  0.1209  0.4911
  818SOL    HW2 3270   0.570   2.395   1.621  0.8644  1.0798 -0.6799
  818SOL    HW3 3271   0.648   2.272   1.580 -0.6213 -0.6559  1.5886
  818SOL    MW4 3272   0.641   2.345   1.627  0.1235  0.1449  0.4814
  819SOL     OW 3273   0.423   2.464   1.522  0.2653 -0.1788  0.0628
  819SOL    HW2 3274   0.415   2.548   1.567  0.0999 -0.2701  0.2082
  819SOL    HW3 3275   0.371   2.404   1.576  1.2522 -0.6002  0.5458
  819SOL    MW4 3276   0.415   2.467   1.535  0.3737 -0.2464  0.1457
  820SOL     OW 3277   0.442   2.706   1.658 -0.0449  0.0628 -0.1162
  820SOL    HW2 3278   0.450   2.702   1.754 -0.1375 -0.7988 -0.1416
  820SOL    HW3 3279   0.521   2.752   1.630  0.6835 -0.9158  0.2764
  820SOL    MW4 3280   0.454   2.712   1.667  0.0390 -0.1800 -0.0678
  821SOL     OW 3281   0.678   2.806   1.556  0.0109 -0.1802 -0.0921
  821SOL    HW2 3282   0.678   2.899   1.576 -1.1727 -0.4818  1.4289
  821SOL    HW3 3283   0.682   2.802   1.460  0.5066  1.4151 -0.1494
  821SOL    MW4 3284   0.678   2.818   1.546 -0.0799 -0.0095  0.1010
  822SOL     OW 3285   0.677   3.066   1.660 -0.1325 -0.0878  0.3584
  822SOL    HW2 3286   0.758   3.108   1.630  0.2806  0.0499  1.6524
  822SOL    HW3 3287   0.607   3.124   1.630  0.2902  0.1897 -0.0945
  822SOL    MW4 3288   0.679   3.079   1.652 -0.0222 -0.0330  0.4694
  823SOL     OW 3289   0.492   3.248   1.537 -0.3768 -0.2086  0.0734
  823SOL    HW2 3290   0.413   3.222   1.584 -1.3402 -0.2253 -1.5110
  823SOL    HW3 3291   0.470   3.237   1.444  1.6367 -0.6685 -0.3898
  823SOL    MW4 3292   0.479   3.243   1.531 -0.2382 -0.2715 -0.1968
  824SOL     OW 3293   0.434   3.495   1.645 -0.2806 -0.1863 -0.0848
  824SOL    HW2 3294   0.460   3.412   1.605 -0.3647 -1.6990  2.8351
  824SOL    HW3 3295   0.356   3.522   1.596  0.6646 -0.9863 -2.0830
  824SOL    MW4 3296   0.427   3.488   1.633 -0.1670 -0.4914  0.0368
  825SOL     OW 3297   0.649   3.652   1.584 -0.4852 -0.2112 -0.1886
  825SOL    HW2 3298   0.719   3.597   1.620  0.2768  0.7239 -0.2379
  825SOL    HW3 3299   0.570   3.599   1.594  0.4292 -1.8950 -1.4400
  825SOL    MW4 3300   0.648   3.637   1.590 -0.2640 -0.3100 -0.3602
  826SOL     OW 3301   0.658   3.904   1.671  0.5297  0.0416 -0.0710
  826SOL    HW2 3302   0.735   3.942   1.631  0.3742 -0.1400 -0.5494
  826SOL    HW3 3303   0.654   3.815   1.637  0.9779 -0.4615  1.1545
  826SOL    MW4 3304   0.667   3.897   1.661  0.5683 -0.0488  0.0276
  827SOL     OW 3305   0.401   4.025   1.557  0.3756  0.2264 -0.5220
  827SOL    HW2 3306   0.482   3.980   1.584  0.9587  1.5886  0.0460
  827SOL    HW3 3307   0.408   4.032   1.462  0.4946 -0.4751 -0.5677
  827SOL    MW4 3308   0.413   4.020   1.548  0.4682  0.3136 -0.4531
  828SOL     OW 3309   0.450   4.293   1.603 -0.0281  0.0333 -0.1386
  828SOL    HW2 3310   0.449   4.198   1.591  0.0546 -0.1374  1.1336
  828SOL    HW3 3311   0.362   4.321   1.578  0.2373 -0.2510 -1.4283
  828SOL    MW4 3312   0.438   4.284   1.598  0.0178 -0.0267 -0.1409
  829SOL     OW 3313   0.689   4.409   1.535  0.4631 -0.0357  0.2097
  829SOL    HW2 3314   0.603   4.377   1.561 -0.5832  2.0596 -0.5249
  829SOL    HW3 3315   0.687   4.503   1.555  2.7433 -0.0207  0.5971
  829SOL    MW4 3316   0.678   4.417   1.541  0.6259  0.2427  0.1639
  830SOL     OW 3317   1.099   4.657   1.636  0.1780  0.1415 -0.5354
  830SOL    HW2 3318   1.090   4.630   1.727 -0.8340  1.1637 -0.3249
  830SOL    HW3 3319   1.187   4.694   1.630  0.5326 -0.6362 -0.1666
  830SOL    MW4 3320   1.110   4.658   1.647  0.0912  0.1738 -0.4590
  831SOL     OW 3321   0.871   0.121   1.554  0.3172 -0.0507 -0.1985
  831SOL    HW2 3322   0.893   0.207   1.591 -0.8837 -0.0068  0.4731
  831SOL    HW3 3323   0.945   0.065   1.575  1.3956  0.9784 -1.1937
  831SOL    MW4 3324   0.883   0.125   1.562  0.3010  0.0909 -0.2412
  832SOL     OW 3325   0.919   0.378   1.653  0.1130  0.0844 -0.3309
  832SOL    HW2 3326   0.916   0.394   1.747  1.0117  0.0228 -0.2895
  832SOL    HW3 3327   0.838   0.416   1.620 -0.3469 -0.1487  0.5072
  832SOL    MW4 3328   0.908   0.385   1.661  0.1709  0.0455 -0.2149
  833SOL     OW 3329   1.134   0.486   1.524  0.2721  0.2387  0.4128
  833SOL    HW2 3330   1.113   0.579   1.533 -2.5868 -0.3920  0.8380
  833SOL    HW3 3331   1.058   0.441   1.562  1.0506 -2.2711 -0.9324
  833SOL    MW4 3332   1.121   0.492   1.530 -0.0024 -0.1756  0.2914
  834SOL     OW 3333   1.080   0.753   1.620 -0.5765  0.0021  0.3540
  834SOL    HW2 3334   1.096   0.752   1.715  0.7226 -1.1734  0.1418
  834SOL    HW3 3335   1.159   0.792   1.583  0.0876 -2.0755 -0.4382
  834SOL    MW4 3336   1.093   0.758   1.628 -0.3175 -0.4271  0.2215
  835SOL     OW 3337   0.905   0.946   1.539 -0.0082  0.1731 -0.0265
  835SOL    HW2 3338   0.962   0.874   1.568 -0.1761  0.5195  1.1781
  835SOL    HW3 3339   0.902   0.937   1.444  0.2930 -1.1825  0.0801
  835SOL    MW4 3340   0.912   0.935   1.530  0.0094  0.0400  0.1465
  836SOL     OW 3341   0.885   1.210   1.638 -0.5327  0.6825  0.5482
  836SOL    HW2 3342   0.897   1.119   1.610  0.3124  1.2069 -0.8181
  836SOL    HW3 3343   0.813   1.243   1.585 -0.6946  0.8885  0.8902
  836SOL    MW4 3344   0.877   1.202   1.627 -0.4426  0.7789  0.4131
  837SOL     OW 3345   1.120   1.304   1.494  0.1679 -0.4051 -0.2554
  837SOL    HW2 3346   1.183   1.237   1.522 -0.0343 -0.1915  0.7333
  837SOL    HW3 3347   1.038   1.278   1.536 -0.3714 -0.5855 -1.4015
  837SOL    MW4 3348   1.118   1.291   1.504  0.0700 -0.4007 -0.2762
  838SOL     OW 3349   1.125   1.554   1.610 -0.1907  0.5425  0.0902
  838SOL    HW2 3350   1.187   1.613   1.568  0.5557  0.6338  1.2796
  838SOL    HW3 3351   1.137   1.470   1.565  0.7949  0.5655  0.2827
  838SOL    MW4 3352   1.135   1.551   1.599  0.0378  0.5576  0.2725
  839SOL     OW 3353   0.903   1.680   1.515 -0.0681 -0.5696  0.2223
  839SOL    HW2 3354   0.979   1.629   1.543 -0.0894 -0.8802 -0.2769
  839SOL    HW3 3355   0.908   1.679   1.419 -0.0308  0.4158  0.2030
  839SOL    MW4 3356   0.914   1.673   1.506 -0.0660 -0.4806  0.1539
  840SOL     OW 3357   0.888   1.937   1.600 -0.0806 -0.2688  0.2714
  840SOL    HW2 3358   0.958   1.987   1.559  0.1833  0.1553  1.2167
  840SOL    HW3 3359   0.910   1.845   1.583 -0.1825 -0.0903 -0.8475
  840SOL    MW4 3360   0.900   1.931   1.593 -0.0592 -0.1893  0.2485
  841SOL     OW 3361   1.111   2.072   1.485  0.3442  0.7765  0.3132
  841SOL    HW2 3362   1.178   2.016   1.526 -1.5244 -0.6129  1.5838
  841SOL    HW3 3363   1.114   2.153   1.535  1.2066  0.8048  0.2318
  841SOL    MW4 3364   1.120   2.075   1.497  0.2115  0.5969  0.4701
  842SOL     OW 3365   1.095   2.330   1.617  0.2661  0.4371 -0.0267
  842SOL    HW2 3366   1.159   2.375   1.563 -0.3996  0.3896 -0.8545
  842SOL    HW3 3367   1.012   2.371   1.597  0.0896  0.8261  1.4124
  842SOL    MW4 3368   1.093   2.341   1.607  0.1550  0.4821  0.0539
  843SOL     OW 3369   0.890   2.461   1.494 -0.1719 -0.1022 -0.1684
  843SOL    HW2 3370   0.904   2.544   1.539 -1.3665  1.2508 -2.2549
  843SOL    HW3 3371   0.815   2.422   1.539  1.2216 -0.7325  1.6950
  843SOL    MW4 3372   0.882   2.467   1.506 -0.1457 -0.0069 -0.1978
  844SOL     OW 3373   0.893   2.678   1.667  0.1331 -0.3490  0.7956
  844SOL    HW2 3374   0.895   2.703   1.760 -0.0205  2.0472  0.1757
  844SOL    HW3 3375   0.808   2.708   1.636  1.1393  0.9948 -0.7027
  844SOL    MW4 3376   0.882   2.685   1.676  0.2456  0.1444  0.5161
  845SOL     OW 3377   1.089   2.840   1.532 -0.1126 -0.2624 -0.1022
  845SOL    HW2 3378   1.107   2.920   1.581  1.9568 -0.3184 -0.7156
  845SOL    HW3 3379   1.017   2.799   1.579 -0.0940  1.1407  1.1926
  845SOL    MW4 3380   1.082   2.845   1.544  0.1629 -0.0847 -0.0123
  846SOL     OW 3381   1.134   3.082   1.644 -0.1627  0.5623 -0.1226
  846SOL    HW2 3382   1.148   3.096   1.738 -0.2506  2.4075 -0.3685
  846SOL    HW3 3383   1.202   3.133   1.601  1.1451 -1.8571 -1.0687
  846SOL    MW4 3384   1.145   3.090   1.651 -0.0017  0.4865 -0.2799
  847SOL     OW 3385   0.899   3.219   1.555  0.4622 -0.0873  0.5606
  847SOL    HW2 3386   0.984   3.179   1.575 -0.0767 -1.3339  0.3635
  847SOL    HW3 3387   0.886   3.202   1.462 -0.6828 -1.1846  0.9195
  847SOL    MW4 3388   0.909   3.211   1.545  0.2401 -0.3966  0.5819
  848SOL     OW 3389   0.894   3.482   1.639 -0.1090 -0.4781  0.4519
  848SOL    HW2 3390   0.970   3.519   1.594  0.4225 -0.3280  1.4563
  848SOL    HW3 3391   0.888   3.393   1.604 -0.9965  0.2977 -1.4791
  848SOL    MW4 3392   0.903   3.475   1.628 -0.1560 -0.3559  0.3296
  849SOL     OW 3393   1.107   3.617   1.530  0.4470 -0.2452 -0.4022
  849SOL    HW2 3394   1.189   3.571   1.551 -0.6838 -2.6213 -0.9822
  849SOL    HW3 3395   1.103   3.615   1.435 -1.3414 -2.1540 -0.3268
  849SOL    MW4 3396   1.118   3.611   1.520  0.0618 -0.8105 -0.4688
  850SOL     OW 3397   1.116   3.886   1.657  0.2434 -0.1213 -0.2767
  850SOL    HW2 3398   1.200   3.919   1.627 -0.1275 -0.2484 -1.4661
  850SOL    HW3 3399   1.115   3.794   1.631 -0.0014 -0.2851  0.2931
  850SOL    MW4 3400   1.127   3.878   1.650  0.1622 -0.1597 -0.3584
  851SOL     OW 3401   0.885   3.995   1.540 -0.3097  0.0993 -0.3314
  851SOL    HW2 3402   0.896   4.086   1.565 -0.2924  0.0266 -0.0708
  851SOL    HW3 3403   0.970   3.955   1.554 -0.0276  0.2890 -1.4962
  851SOL    MW4 3404   0.897   4.001   1.545 -0.2702  0.1147 -0.4507
  852SOL     OW 3405   0.929   4.259   1.609 -0.0237 -0.4217  0.1780
  852SOL    HW2 3406   0.929   4.243   1.704  0.4488 -0.0174  0.2478
  852SOL    HW3 3407   0.846   4.304   1.593  0.1429  0.0003  0.4876
  852SOL    MW4 3408   0.918   4.263   1.620  0.0606 -0.3127  0.2280
  853SOL     OW 3409   1.151   4.398   1.513  0.2713 -0.4648  0.8826
  853SOL    HW2 3410   1.074   4.348   1.539 -0.4711  0.3031  0.2219
  853SOL    HW3 3411   1.136   4.485   1.550  0.1958  0.0492 -0.3193
  853SOL    MW4 3412   1.139   4.403   1.521  0.1634 -0.2957  0.6369
  854SOL     OW 3413   1.571   4.649   1.609 -0.4365 -0.1760  0.2932
  854SOL    HW2 3414   1.569   4.636   1.704 -3.0992  0.0945  0.3094
  854SOL    HW3 3415   1.496   4.705   1.591  0.0539 -0.2189 -1.9963
  854SOL    MW4 3416   1.561   4.655   1.619 -0.7231 -0.1460 -0.0067
  855SOL     OW 3417   1.346   0.123   1.554 -0.0890  0.2617 -0.4131
  855SOL    HW2 3418   1.344   0.214   1.582 -0.6194 -0.0705  0.6525
  855SOL    HW3 3419   1.346   0.127   1.458  2.9229  1.4365 -0.4234
  855SOL    MW4 3420   1.346   0.135   1.545  0.2384  0.3729 -0.2739
  856SOL     OW 3421   1.358   0.373   1.636 -0.3024 -0.5348 -0.3273
  856SOL    HW2 3422   1.425   0.421   1.587 -0.9134  0.5879 -0.0801
  856SOL    HW3 3423   1.275   0.401   1.598 -0.7340 -0.3148  0.7607
  856SOL    MW4 3424   1.356   0.383   1.625 -0.4400 -0.3577 -0.1511
  857SOL     OW 3425   1.566   0.504   1.493 -0.3824  0.1236 -0.3182
  857SOL    HW2 3426   1.643   0.466   1.535 -1.6067 -1.9180  0.1451
  857SOL    HW3 3427   1.589   0.510   1.401  0.6642  0.4186 -0.0418
  857SOL    MW4 3428   1.579   0.500   1.487 -0.4058 -0.1068 -0.2206
  858SOL     OW 3429   1.563   0.755   1.637 -0.3696  0.2969  0.2418
  858SOL    HW2 3430   1.557   0.739   1.731  0.1402  0.4692  0.3054
  858SOL    HW3 3431   1.548   0.669   1.597 -0.6727  0.2415  0.4752
  858SOL    MW4 3432   1.560   0.741   1.644 -0.3424  0.3123  0.2810
  859SOL     OW 3433   1.326   0.859   1.517 -0.5101  0.4957 -0.2157
  859SOL    HW2 3434   1.405   0.830   1.563 -0.7170 -1.4713 -1.0513
  859SOL    HW3 3435   1.344   0.840   1.425 -1.2806  1.6572 -0.6134
  859SOL    MW4 3436   1.339   0.853   1.511 -0.6391  0.3895 -0.3784
  860SOL     OW 3437   1.317   1.124   1.595  0.2225  0.2808  0.1536
  860SOL    HW2 3438   1.326   1.124   1.690 -0.2889  0.8619  0.2090
  860SOL    HW3 3439   1.304   1.032   1.572 -1.4882  0.3392  0.8303
  860SOL    MW4 3440   1.316   1.112   1.605 -0.0707  0.3652  0.2502
  861SOL     OW 3441   1.568   1.249   1.522 -0.0207 -0.5661 -0.4042
  861SOL    HW2 3442   1.484   1.204   1.530 -1.0473  1.2013 -0.8942
  861SOL    HW3 3443   1.570   1.279   1.431  0.9952 -0.3366 -0.3088
  861SOL    MW4 3444   1.557   1.247   1.511 -0.0221 -0.3026 -0.4562
  862SOL     OW 3445   1.548   1.510   1.606 -0.2295  0.3412  0.0937
  862SOL    HW2 3446   1.524   1.510   1.698 -0.0728 -0.8991  0.1433
  862SOL    HW3 3447   1.540   1.419   1.579  1.0857  0.4565 -0.7485
  862SOL    MW4 3448   1.544   1.498   1.614 -0.0353  0.1928 -0.0109
  863SOL     OW 3449   1.359   1.685   1.508 -0.0232 -0.3404  0.1584
  863SOL    HW2 3450   1.431   1.630   1.538  0.2831 -0.0212  0.0109
  863SOL    HW3 3451   1.370   1.690   1.414  0.5128  0.7628  0.2790
  863SOL    MW4 3452   1.370   1.678   1.500  0.0879 -0.1527  0.1549
  864SOL     OW 3453   1.318   1.931   1.629 -0.0607  0.2021  0.1979
  864SOL    HW2 3454   1.289   1.915   1.718 -2.1129 -1.3369 -0.7218
  864SOL    HW3 3455   1.344   1.845   1.596 -1.1106  0.4446 -1.2971
  864SOL    MW4 3456   1.318   1.918   1.636 -0.4700  0.0310 -0.1207
  865SOL     OW 3457   1.554   2.060   1.564  0.1949  0.1676  0.0163
  865SOL    HW2 3458   1.469   2.016   1.578 -0.7575  2.1611  0.6678
  865SOL    HW3 3459   1.559   2.071   1.469 -0.2935  0.0551 -0.0273
  865SOL    MW4 3460   1.543   2.056   1.553  0.0048  0.4158  0.0965
  866SOL     OW 3461   1.537   2.327   1.608  0.0977  0.2843 -0.0844
  866SOL    HW2 3462   1.616   2.377   1.587  0.2810  0.2933  0.6268
  866SOL    HW3 3463   1.561   2.236   1.590  0.4486  0.2278  0.6465
  866SOL    MW4 3464   1.551   2.322   1.603  0.1682  0.2780  0.1059
  867SOL     OW 3465   1.323   2.440   1.478  0.0491  0.3165  0.4630
  867SOL    HW2 3466   1.319   2.526   1.519  0.4739  0.2665  0.6158
  867SOL    HW3 3467   1.390   2.393   1.528 -1.2823 -0.6294  1.3718
  867SOL    MW4 3468   1.331   2.445   1.490 -0.0705  0.1851  0.6031
  868SOL     OW 3469   1.328   2.698   1.606 -0.2592 -0.0879  0.3676
  868SOL    HW2 3470   1.409   2.745   1.586  0.2256 -0.3530  1.6288
  868SOL    HW3 3471   1.259   2.758   1.580  0.3540  1.0900  1.3834
  868SOL    MW4 3472   1.330   2.713   1.600 -0.1143  0.0325  0.6680
  869SOL     OW 3473   1.545   2.873   1.574 -0.1531 -0.2247  0.2762
  869SOL    HW2 3474   1.610   2.804   1.589  0.0437 -0.0469  0.2495
  869SOL    HW3 3475   1.539   2.880   1.479 -0.6112 -0.6129  0.2751
  869SOL    MW4 3476   1.553   2.865   1.563 -0.1876 -0.2525  0.2725
  870SOL     OW 3477   1.594   3.132   1.631 -0.2028 -0.0124 -0.2767
  870SOL    HW2 3478   1.677   3.156   1.589  0.2081 -0.0179  0.5263
  870SOL    HW3 3479   1.584   3.039   1.613  0.1445 -0.0898 -0.0812
  870SOL    MW4 3480   1.604   3.123   1.623 -0.1028 -0.0233 -0.1450
  871SOL     OW 3481   1.355   3.240   1.530 -0.0771  0.2596 -0.2290
  871SOL    HW2 3482   1.348   3.325   1.571 -1.1985 -1.1402  2.6063
  871SOL    HW3 3483   1.435   3.202   1.566 -0.2364 -0.3694 -0.5232
  871SOL    MW4 3484   1.364   3.246   1.540 -0.2461 -0.0081  0.1063
  872SOL     OW 3485   1.346   3.494   1.619  0.6216 -0.3792 -0.0332
  872SOL    HW2 3486   1.355   3.513   1.712 -0.1810 -0.8231  0.1395
  872SOL    HW3 3487   1.418   3.542   1.578  1.6106 -1.0249  0.9138
  872SOL    MW4 3488   1.356   3.503   1.626  0.6462 -0.5229  0.1145
  873SOL     OW 3489   1.571   3.622   1.523  0.1508 -0.0742 -0.1871
  873SOL    HW2 3490   1.567   3.717   1.529  0.5277 -0.0402 -0.4297
  873SOL    HW3 3491   1.595   3.605   1.432 -2.9202 -0.4849 -0.9498
  873SOL    MW4 3492   1.574   3.632   1.512 -0.2046 -0.1239 -0.3197
  874SOL     OW 3493   1.606   3.880   1.585  0.5558  0.5195 -0.0754
  874SOL    HW2 3494   1.601   3.896   1.679  0.1089  1.4038 -0.2400
  874SOL    HW3 3495   1.528   3.923   1.549  1.1024  0.8243 -0.9322
  874SOL    MW4 3496   1.595   3.888   1.592  0.5690  0.6764 -0.2102
  875SOL     OW 3497   1.351   3.986   1.537 -0.2485 -0.0754  0.4748
  875SOL    HW2 3498   1.379   4.074   1.561 -0.3197  0.1373 -0.2110
  875SOL    HW3 3499   1.347   3.987   1.442 -0.5625 -0.7266  0.4757
  875SOL    MW4 3500   1.354   3.998   1.528 -0.2993 -0.1333  0.3844
  876SOL     OW 3501   1.382   4.238   1.608  0.0782 -0.1602 -0.4984
  876SOL    HW2 3502   1.455   4.276   1.559 -0.8554  0.6430 -1.3007
  876SOL    HW3 3503   1.305   4.285   1.576 -0.7592 -0.8115  0.5262
  876SOL    MW4 3504   1.381   4.249   1.597 -0.1555 -0.1402 -0.4691
  877SOL     OW 3505   1.604   4.385   1.534  0.2597  0.1699 -0.0612
  877SOL    HW2 3506   1.684   4.360   1.578  0.6675  1.2183 -0.1766
  877SOL    HW3 3507   1.590   4.477   1.560 -1.2626 -0.2066  0.5110
  877SOL    MW4 3508   1.612   4.394   1.543  0.1126  0.2585 -0.0009
  878SOL     OW 3509   2.018   4.644   1.602 -0.0638 -0.3679  0.1193
  878SOL    HW2 3510   2.007   4.640   1.697 -0.3810 -0.9434  0.0645
  878SOL    HW3 3511   1.949   4.704   1.572 -0.0770 -0.3264  0.2356
  878SOL    MW4 3512   2.007   4.652   1.610 -0.1074 -0.4383  0.1274
  879SOL     OW 3513   1.800   0.133   1.507 -0.2950  0.5315  0.4278
  879SOL    HW2 3514   1.720   0.097   1.544 -1.1569  1.9672  0.0065
  879SOL    HW3 3515   1.786   0.130   1.412 -0.2095  1.5642  0.3768
  879SOL    MW4 3516   1.788   0.128   1.499 -0.3974  0.8571  0.3655
  880SOL     OW 3517   1.773   0.392   1.616  0.1351  0.4289  0.0599
  880SOL    HW2 3518   1.857   0.432   1.591  0.2124  0.4436  0.3380
  880SOL    HW3 3519   1.771   0.309   1.569 -0.5390  1.2758 -1.4127
  880SOL    MW4 3520   1.784   0.386   1.607  0.0563  0.5426 -0.0977
  881SOL     OW 3521   2.020   0.520   1.552  0.2188  0.0402 -0.6136
  881SOL    HW2 3522   2.090   0.470   1.594  0.4912 -0.1046 -1.2331
  881SOL    HW3 3523   2.026   0.607   1.591 -0.7067 -0.5887  1.0008
  881SOL    MW4 3524   2.030   0.525   1.563  0.1326 -0.0619 -0.4823
  882SOL     OW 3525   1.983   0.777   1.639  0.3747  0.2642 -0.3175
  882SOL    HW2 3526   2.055   0.813   1.586  0.5974 -0.2280 -0.3481
  882SOL    HW3 3527   1.904   0.802   1.591  0.5790 -0.2097 -0.9096
  882SOL    MW4 3528   1.982   0.785   1.625  0.4310  0.1368 -0.3997
  883SOL     OW 3529   1.767   0.879   1.484 -0.5229  0.3052 -0.4349
  883SOL    HW2 3530   1.774   0.957   1.540 -1.5150 -0.2501  0.4791
  883SOL    HW3 3531   1.696   0.828   1.523  1.5147 -2.1045  0.2909
  883SOL    MW4 3532   1.759   0.883   1.497 -0.3849 -0.0860 -0.2185
  884SOL     OW 3533   1.785   1.113   1.624  0.0524  0.2938  0.1101
  884SOL    HW2 3534   1.866   1.163   1.620 -0.1449  0.5986 -0.0628
  884SOL    HW3 3535   1.718   1.172   1.591 -0.2385  0.0346  0.2310
  884SOL    MW4 3536   1.787   1.127   1.619 -0.0120  0.2998  0.1032
  885SOL     OW 3537   2.007   1.278   1.548 -0.6246  0.0817  0.4598
  885SOL    HW2 3538   2.012   1.371   1.570 -0.9598 -0.0054  0.9125
  885SOL    HW3 3539   2.021   1.275   1.453 -3.4551  0.8477 -0.0204
  885SOL    MW4 3540   2.009   1.290   1.538 -1.0423  0.1713  0.4561
  886SOL     OW 3541   2.012   1.523   1.675 -0.0803 -0.7040  0.3504
  886SOL    HW2 3542   2.093   1.565   1.645  0.4862 -0.8050  1.7221
  886SOL    HW3 3543   1.942   1.574   1.635  0.6079  1.1333  1.4389
  886SOL    MW4 3544   2.014   1.535   1.666  0.0852 -0.4749  0.6750
  887SOL     OW 3545   1.784   1.628   1.545  0.2985  0.5673 -0.2384
  887SOL    HW2 3546   1.711   1.573   1.571  0.3860  0.4601 -0.2204
  887SOL    HW3 3547   1.786   1.624   1.450 -0.1945  1.1805 -0.2788
  887SOL    MW4 3548   1.775   1.620   1.536  0.2450  0.6341 -0.2414
  888SOL     OW 3549   1.785   1.887   1.669 -0.1153 -0.3175  0.1554
  888SOL    HW2 3550   1.786   1.802   1.625 -0.8633 -0.4094  0.3048
  888SOL    HW3 3551   1.710   1.933   1.631 -0.5154 -0.2354  1.0122
  888SOL    MW4 3552   1.775   1.882   1.658 -0.2668 -0.3188  0.2881
  889SOL     OW 3553   2.000   2.036   1.621 -0.5792  0.3094  0.4955
  889SOL    HW2 3554   2.086   1.999   1.642  0.2356  0.8325 -1.8006
  889SOL    HW3 3555   1.937   1.972   1.653  0.7552 -1.6710 -0.7914
  889SOL    MW4 3556   2.003   2.023   1.628 -0.2956  0.1171  0.0228
  890SOL     OW 3557   1.970   2.320   1.596 -0.2494  0.2121 -0.4928
  890SOL    HW2 3558   1.985   2.331   1.690 -0.4597  1.8114 -0.6366
  890SOL    HW3 3559   1.985   2.227   1.580  2.0130  0.3313  0.7278
  890SOL    MW4 3560   1.974   2.309   1.606  0.0213  0.4388 -0.3507
  891SOL     OW 3561   1.759   2.489   1.509  0.2097  0.1259  0.1316
  891SOL    HW2 3562   1.834   2.447   1.551 -1.2901 -1.7201  1.0365
  891SOL    HW3 3563   1.776   2.481   1.415  0.7422 -1.0241  0.3162
  891SOL    MW4 3564   1.771   2.483   1.502  0.0821 -0.2694  0.2753
  892SOL     OW 3565   1.769   2.730   1.629  0.3384 -0.1228 -0.1724
  892SOL    HW2 3566   1.861   2.752   1.617  0.9230 -1.9564  0.8272
  892SOL    HW3 3567   1.758   2.647   1.581 -0.8125  0.1253 -0.3526
  892SOL    MW4 3568   1.780   2.722   1.621  0.2637 -0.3320 -0.0643
  893SOL     OW 3569   2.019   2.813   1.580 -0.3626  0.1100  0.4918
  893SOL    HW2 3570   2.024   2.905   1.608 -0.9033  0.4969 -0.6518
  893SOL    HW3 3571   2.017   2.817   1.485  0.0742 -1.1228  0.4206
  893SOL    MW4 3572   2.019   2.826   1.571 -0.3763 -0.0016  0.3315
  894SOL     OW 3573   2.045   3.075   1.645 -0.0814  0.0590 -0.6539
  894SOL    HW2 3574   2.033   3.089   1.739 -0.1050 -0.1133 -0.6302
  894SOL    HW3 3575   2.126   3.120   1.624 -0.1461  0.2113 -0.5763
  894SOL    MW4 3576   2.054   3.083   1.654 -0.0930  0.0564 -0.6405
  895SOL     OW 3577   1.842   3.242   1.507 -0.0604 -0.2113 -0.2506
  895SOL    HW2 3578   1.833   3.331   1.540 -0.7344 -0.6707  0.8531
  895SOL    HW3 3579   1.908   3.202   1.564  1.0551 -0.0945 -1.4463
  895SOL    MW4 3580   1.849   3.248   1.519 -0.0021 -0.2565 -0.2628
  896SOL     OW 3581   1.786   3.492   1.626  0.1551  0.8787 -0.0259
  896SOL    HW2 3582   1.784   3.511   1.720 -2.1956 -1.6488  0.5022
  896SOL    HW3 3583   1.717   3.547   1.590  0.5267  1.2674 -0.1376
  896SOL    MW4 3584   1.776   3.502   1.634 -0.1060  0.5965  0.0290
  897SOL     OW 3585   2.019   3.630   1.504  0.0639 -0.4308 -0.0106
  897SOL    HW2 3586   2.090   3.585   1.552 -0.9520 -1.6918  0.3407
  897SOL    HW3 3587   1.939   3.588   1.536 -0.9220  1.7265  0.3902
  897SOL    MW4 3588   2.018   3.618   1.515 -0.2002 -0.3125  0.0886
  898SOL     OW 3589   2.065   3.877   1.609 -0.4109 -0.3023 -0.2928
  898SOL    HW2 3590   2.152   3.901   1.575  0.0208  0.1536  1.1002
  898SOL    HW3 3591   2.052   3.788   1.578  0.5930 -0.4051 -0.4622
  898SOL    MW4 3592   2.075   3.869   1.600 -0.2215 -0.2557 -0.1314
  899SOL     OW 3593   1.843   3.972   1.456 -0.4308  0.4978  0.2087
  899SOL    HW2 3594   1.916   3.962   1.517  0.3209  2.2052 -0.3980
  899SOL    HW3 3595   1.766   3.944   1.506  0.3902  0.3794  1.4234
  899SOL    MW4 3596   1.842   3.967   1.471 -0.2233  0.7075  0.2889
  900SOL     OW 3597   1.847   4.207   1.584 -0.2622 -0.3127 -0.3770
  900SOL    HW2 3598   1.914   4.266   1.550 -0.1274 -0.7066 -0.8077
  900SOL    HW3 3599   1.852   4.131   1.527 -1.5720 -0.0414 -0.8751
  900SOL    MW4 3600   1.857   4.205   1.572 -0.4172 -0.3289 -0.4995
  901SOL     OW 3601   2.012   4.401   1.493  0.0148  0.0316  0.2240
  901SOL    HW2 3602   2.097   4.381   1.533 -0.1242 -1.1933 -0.0696
  901SOL    HW3 3603   1.985   4.483   1.534  1.6071  0.7318 -0.1033
  901SOL    MW4 3604   2.020   4.409   1.504  0.2065 -0.0376  0.1421
  902SOL     OW 3605   2.467   4.642   1.651  0.1619 -0.0131  0.0624
  902SOL    HW2 3606   2.487   4.667   1.742 -0.6352 -0.4723  0.3717
  902SOL    HW3 3607   2.398   4.703   1.624 -1.9465 -1.9676  0.8939
  902SOL    MW4 3608   2.461   4.654   1.660 -0.2214 -0.3315  0.2129
  903SOL     OW 3609   2.264   0.115   1.531  0.3062 -0.2985  0.0955
  903SOL    HW2 3610   2.195   0.049   1.542  0.7475 -0.7678  0.0484
  903SOL    HW3 3611   2.271   0.126   1.436  0.0858 -0.0281  0.1105
  903SOL    MW4 3612   2.256   0.107   1.519  0.3354 -0.3248  0.0913
  904SOL     OW 3613   2.228   0.366   1.660 -0.0243  0.2838 -0.0167
  904SOL    HW2 3614   2.187   0.353   1.746  1.0123  0.6076  0.5340
  904SOL    HW3 3615   2.242   0.278   1.626 -0.9514  0.1658 -0.1066
  904SOL    MW4 3616   2.224   0.353   1.667 -0.0098  0.3109  0.0441
  905SOL     OW 3617   2.437   0.496   1.529 -0.1916  0.1284 -0.1203
  905SOL    HW2 3618   2.506   0.463   1.587 -0.4889 -0.2860 -0.0042
  905SOL    HW3 3619   2.358   0.451   1.557 -0.9656  2.2420  1.2110
  905SOL    MW4 3620   2.436   0.485   1.540 -0.3329  0.3526  0.0707
  906SOL     OW 3621   2.435   0.758   1.630  0.2101  0.4113 -0.7779
  906SOL    HW2 3622   2.361   0.810   1.598 -0.4464 -0.2043 -0.2770
  906SOL    HW3 3623   2.437   0.681   1.572  0.4618  0.4291 -0.7931
  906SOL    MW4 3624   2.426   0.755   1.618  0.1567  0.3324 -0.7138
  907SOL     OW 3625   2.221   0.909   1.545  0.3925  0.0167 -0.1162
  907SOL    HW2 3626   2.224   0.995   1.587 -0.8882 -0.0126  0.0586
  907SOL    HW3 3627   2.238   0.927   1.452 -0.4171  0.5403 -0.1746
  907SOL    MW4 3628   2.223   0.923   1.538  0.1167  0.0819 -0.1008
  908SOL     OW 3629   2.237   1.168   1.639  0.3263 -0.4931 -0.2485
  908SOL    HW2 3630   2.222   1.171   1.733  1.2093  0.1752 -0.1158
  908SOL    HW3 3631   2.158   1.206   1.600  0.6730  0.8645  0.3145
  908SOL    MW4 3632   2.225   1.174   1.646  0.4886 -0.2258 -0.1567
  909SOL     OW 3633   2.468   1.297   1.565 -0.4091 -0.4342  0.2551
  909SOL    HW2 3634   2.403   1.237   1.600  0.0732 -1.4003 -0.5014
  909SOL    HW3 3635   2.468   1.281   1.470  1.3390 -0.8465  0.3097
  909SOL    MW4 3636   2.460   1.287   1.557 -0.1148 -0.6161  0.1625
  910SOL     OW 3637   2.486   1.550   1.663  0.6283  0.1522  0.1243
  910SOL    HW2 3638   2.548   1.592   1.604 -2.2099  2.8569 -1.0666
  910SOL    HW3 3639   2.460   1.470   1.618 -0.6779  1.6441 -1.8951
  910SOL    MW4 3640   2.490   1.545   1.649  0.0815  0.7059 -0.2993
  911SOL     OW 3641   2.232   1.666   1.563 -0.2546 -0.0398 -0.3656
  911SOL    HW2 3642   2.313   1.633   1.601 -0.3066 -0.1071 -0.3147
  911SOL    HW3 3643   2.239   1.643   1.470  0.6145  1.5750 -0.7155
  911SOL    MW4 3644   2.244   1.659   1.556 -0.1468  0.1644 -0.4050
  912SOL     OW 3645   2.238   1.914   1.651 -0.0770 -0.8572  0.1548
  912SOL    HW2 3646   2.262   1.905   1.744 -1.0549  0.0197  0.4982
  912SOL    HW3 3647   2.239   1.824   1.618  0.0283 -1.2102  1.0811
  912SOL    MW4 3648   2.241   1.901   1.659 -0.1921 -0.7881  0.3223
  913SOL     OW 3649   2.423   2.094   1.556 -0.2387 -0.0387  0.2944
  913SOL    HW2 3650   2.356   2.038   1.596  0.3089 -0.0240  1.2607
  913SOL    HW3 3651   2.434   2.060   1.468 -0.3589 -1.0631  0.6634
  913SOL    MW4 3652   2.415   2.082   1.550 -0.1823 -0.1719  0.4706
  914SOL     OW 3653   2.444   2.353   1.633 -0.2458 -0.3644 -0.0916
  914SOL    HW2 3654   2.446   2.338   1.727 -0.9996 -0.9892 -0.1762
  914SOL    HW3 3655   2.427   2.267   1.594 -0.3858 -0.0327 -0.7791
  914SOL    MW4 3656   2.442   2.340   1.640 -0.3637 -0.4030 -0.1935
  915SOL     OW 3657   2.202   2.459   1.515  0.0514 -0.1618  0.2127
  915SOL    HW2 3658   2.262   2.410   1.571 -0.4722 -1.4144 -0.3130
  915SOL    HW3 3659   2.115   2.435   1.545 -0.2162  0.0751 -0.3524
  915SOL    MW4 3660   2.199   2.449   1.526 -0.0530 -0.2958  0.0688
  916SOL     OW 3661   2.249   2.713   1.643  0.5436  0.3839 -0.4812
  916SOL    HW2 3662   2.258   2.622   1.614  1.6509  0.3888 -0.1748
  916SOL    HW3 3663   2.159   2.736   1.622 -0.8037 -1.8746  2.5575
  916SOL    MW4 3664   2.239   2.704   1.636  0.5119  0.0866 -0.0398
  917SOL     OW 3665   2.408   2.921   1.532  0.1228  0.3332 -0.0751
  917SOL    HW2 3666   2.430   2.988   1.596  1.8833 -0.8803  0.6295
  917SOL    HW3 3667   2.345   2.864   1.577  0.7147 -0.0393  0.2830
  917SOL    MW4 3668   2.402   2.923   1.546  0.4331  0.1239  0.0651
  918SOL     OW 3669   2.473   3.156   1.694 -0.0158 -0.0495  0.3703
  918SOL    HW2 3670   2.548   3.170   1.635  0.2780 -0.3147  0.6831
  918SOL    HW3 3671   2.399   3.197   1.648  0.6218  1.5547  0.7476
  918SOL    MW4 3672   2.473   3.163   1.680  0.1071  0.1272  0.4614
  919SOL     OW 3673   2.254   3.260   1.576  0.3286  0.0341 -0.2463
  919SOL    HW2 3674   2.254   3.354   1.593  1.5699 -0.2465  1.4632
  919SOL    HW3 3675   2.257   3.253   1.481  1.9707  1.7518 -0.3617
  919SOL    MW4 3676   2.254   3.271   1.566  0.7090  0.2237 -0.0360
  920SOL     OW 3677   2.261   3.525   1.606 -0.6887 -0.3060 -0.7456
  920SOL    HW2 3678   2.278   3.529   1.700 -0.6973  0.5006 -0.7812
  920SOL    HW3 3679   2.335   3.572   1.566 -2.0839  1.7011 -1.0029
  920SOL    MW4 3680   2.273   3.532   1.613 -0.8739  0.0652 -0.7842
  921SOL     OW 3681   2.492   3.624   1.498  0.2447 -0.4742 -0.3780
  921SOL    HW2 3682   2.571   3.586   1.536  0.5507  0.1557 -0.3811
  921SOL    HW3 3683   2.491   3.715   1.528 -0.1698 -0.3159 -0.8492
  921SOL    MW4 3684   2.502   3.631   1.507  0.2304 -0.3702 -0.4406
  922SOL     OW 3685   2.514   3.876   1.609  0.3074 -0.6719 -0.3971
  922SOL    HW2 3686   2.521   3.868   1.704  0.2201  1.4039 -0.2073
  922SOL    HW3 3687   2.592   3.925   1.583 -0.4350  0.0924 -1.2109
  922SOL    MW4 3688   2.525   3.881   1.618  0.1979 -0.2972 -0.4795
  923SOL     OW 3689   2.295   4.011   1.523 -0.0605 -0.1336  0.3176
  923SOL    HW2 3690   2.378   3.966   1.538 -0.6371 -1.0003  0.9698
  923SOL    HW3 3691   2.291   4.025   1.429  0.9751  0.2081  0.3202
  923SOL    MW4 3692   2.305   4.007   1.513  0.0001 -0.2029  0.4040
  924SOL     OW 3693   2.258   4.302   1.610  0.2544 -0.0673  0.4490
  924SOL    HW2 3694   2.347   4.330   1.587 -0.4983  0.4664 -2.0735
  924SOL    HW3 3695   2.259   4.207   1.599 -0.0677  0.1708 -1.9087
  924SOL    MW4 3696   2.270   4.293   1.605  0.1126  0.0345 -0.1949
  925SOL     OW 3697   2.512   4.373   1.540 -0.2096 -0.5144  0.0316
  925SOL    HW2 3698   2.502   4.465   1.566  3.0761  0.2411 -1.0940
  925SOL    HW3 3699   2.504   4.375   1.444 -0.8512 -1.5060  0.0651
  925SOL    MW4 3700   2.510   4.385   1.531  0.1392 -0.5455 -0.1125
  926SOL     OW 3701   2.957   4.652   1.669 -0.0021  0.6355  0.3804
  926SOL    HW2 3702   2.952   4.639   1.764 -0.5276  0.5911  0.3507
  926SOL    HW3 3703   2.869   4.683   1.645 -0.7202 -1.9609 -0.4885
  926SOL    MW4 3704   2.945   4.654   1.679 -0.1662  0.2871  0.2618
  927SOL     OW 3705   2.725   0.103   1.569  0.2568 -0.4406 -0.0619
  927SOL    HW2 3706   2.718   0.194   1.597  0.2297 -0.4611 -0.0036
  927SOL    HW3 3707   2.637   0.068   1.579  0.3372 -0.5623  0.2171
  927SOL    MW4 3708   2.712   0.111   1.574  0.2639 -0.4593 -0.0174
  928SOL     OW 3709   2.694   0.380   1.652 -0.2234  0.3944 -0.8464
  928SOL    HW2 3710   2.692   0.382   1.747 -0.6339  0.0344 -0.8477
  928SOL    HW3 3711   2.772   0.430   1.629  0.0717  0.1871 -0.3094
  928SOL    MW4 3712   2.704   0.387   1.661 -0.2386  0.3195 -0.7757
  929SOL     OW 3713   2.917   0.520   1.544  0.1468 -0.3224  0.3882
  929SOL    HW2 3714   2.910   0.613   1.565 -2.5128 -0.2865 -0.5412
  929SOL    HW3 3715   2.929   0.517   1.449 -1.0994 -0.9736  0.2440
  929SOL    MW4 3716   2.918   0.532   1.534 -0.3685 -0.4036  0.2465
  930SOL     OW 3717   2.938   0.784   1.604  0.0819  0.6671  0.2849
  930SOL    HW2 3718   2.964   0.765   1.694  1.6189  0.5166 -0.1805
  930SOL    HW3 3719   2.856   0.833   1.613  0.8444  1.7133  1.8058
  930SOL    MW4 3720   2.930   0.788   1.617  0.3853  0.7853  0.4242
  931SOL     OW 3721   2.658   0.915   1.591 -0.0609 -0.0164  0.1393
  931SOL    HW2 3722   2.582   0.872   1.630  0.8284 -1.1164  0.6978
  931SOL    HW3 3723   2.654   0.891   1.498  0.1392 -0.9110  0.3518
  931SOL    MW4 3724   2.648   0.906   1.584  0.0828 -0.2796  0.2410
  932SOL     OW 3725   2.692   1.175   1.669 -0.1277  0.0642  0.1013
  932SOL    HW2 3726   2.680   1.092   1.624 -0.8312 -0.6540  1.5814
  932SOL    HW3 3727   2.625   1.232   1.631  0.0226 -0.1882 -0.5531
  932SOL    MW4 3728   2.681   1.172   1.658 -0.2007 -0.0639  0.2102
  933SOL     OW 3729   2.917   1.314   1.572  0.0762 -0.4181 -0.0710
  933SOL    HW2 3730   2.991   1.255   1.585  1.4709  1.2066 -0.5045
  933SOL    HW3 3731   2.841   1.265   1.604  1.3387 -2.0757  0.4320
  933SOL    MW4 3732   2.917   1.300   1.578  0.4268 -0.4224 -0.0619
  934SOL     OW 3733   2.896   1.575   1.667 -0.5898  0.2432 -0.5373
  934SOL    HW2 3734   2.814   1.615   1.639  0.2298  0.8176 -2.1974
  934SOL    HW3 3735   2.905   1.497   1.613  1.3757  1.7587 -2.5017
  934SOL    MW4 3736   2.886   1.570   1.657 -0.2224  0.5190 -1.0155
  935SOL     OW 3737   2.670   1.691   1.516  0.0373 -0.1607  0.0205
  935SOL    HW2 3738   2.656   1.782   1.540 -0.6313 -0.3522  0.3899
  935SOL    HW3 3739   2.699   1.693   1.425  1.2838  0.4967  0.4359
  935SOL    MW4 3740   2.672   1.703   1.507  0.1135 -0.0992  0.1240
  936SOL     OW 3741   2.676   1.952   1.595 -0.1256 -0.7046 -0.0095
  936SOL    HW2 3742   2.674   1.931   1.689  0.9682  0.1407  0.2146
  936SOL    HW3 3743   2.598   2.005   1.581 -0.2495 -0.7624  0.4335
  936SOL    MW4 3744   2.665   1.956   1.606  0.0024 -0.6007  0.0785
  937SOL     OW 3745   2.931   2.052   1.524  0.1724 -0.2618  0.0585
  937SOL    HW2 3746   2.916   2.145   1.544 -0.1883 -0.4612  0.7345
  937SOL    HW3 3747   2.849   2.009   1.549  1.3641 -1.1839  2.5612
  937SOL    MW4 3748   2.918   2.059   1.530  0.2820 -0.4097  0.4779
  938SOL     OW 3749   2.871   2.318   1.579  0.2988  0.1587  0.0305
  938SOL    HW2 3750   2.880   2.309   1.674  0.2885  2.7204  0.3045
  938SOL    HW3 3751   2.800   2.382   1.568  0.3282 -0.0859 -1.7073
  938SOL    MW4 3752   2.863   2.326   1.590  0.3013  0.4644 -0.1626
  939SOL     OW 3753   2.650   2.495   1.536  0.2095  0.0568 -0.0373
  939SOL    HW2 3754   2.643   2.591   1.534 -0.4145 -0.0054 -2.3002
  939SOL    HW3 3755   2.568   2.466   1.574  0.0063  0.3876 -0.2174
  939SOL    MW4 3756   2.639   2.504   1.540  0.1004  0.0922 -0.3596
  940SOL     OW 3757   2.668   2.757   1.577 -0.0995 -0.4916 -0.0253
  940SOL    HW2 3758   2.757   2.789   1.563 -0.2217 -0.3142 -0.4114
  940SOL    HW3 3759   2.612   2.832   1.555 -0.3047 -0.2682  1.2247
  940SOL    MW4 3760   2.672   2.771   1.572 -0.1427 -0.4388  0.0887
  941SOL     OW 3761   2.922   2.864   1.539  0.4522 -0.2849  0.0661
  941SOL    HW2 3762   2.977   2.806   1.591 -0.5959  0.0479  1.5964
  941SOL    HW3 3763   2.940   2.951   1.573  0.8033  0.1021 -1.1033
  941SOL    MW4 3764   2.931   2.868   1.550  0.3603 -0.1900  0.1137
  942SOL     OW 3765   2.940   3.119   1.619 -0.1076 -0.4435 -0.4684
  942SOL    HW2 3766   2.938   3.116   1.715  0.0010  0.6498 -0.4284
  942SOL    HW3 3767   3.028   3.148   1.597 -0.6598  0.9903 -0.8474
  942SOL    MW4 3768   2.951   3.122   1.629 -0.1661 -0.1101 -0.5131
  943SOL     OW 3769   2.690   3.210   1.533  0.1538  0.0681  0.2746
  943SOL    HW2 3770   2.776   3.191   1.569 -0.1349  0.4000  1.1532
  943SOL    HW3 3771   2.705   3.219   1.438  0.9646 -0.5007  0.3443
  943SOL    MW4 3772   2.703   3.209   1.525  0.2227  0.0368  0.3997
  944SOL     OW 3773   2.706   3.483   1.622 -0.2691 -0.2396  0.0644
  944SOL    HW2 3774   2.707   3.472   1.717  1.3658  0.0789  0.1061
  944SOL    HW3 3775   2.697   3.394   1.588 -0.2595 -0.4205  0.5224
  944SOL    MW4 3776   2.705   3.470   1.630 -0.0522 -0.2214  0.1304
  945SOL     OW 3777   2.946   3.598   1.556  0.2797 -0.0955  0.3866
  945SOL    HW2 3778   2.869   3.545   1.577  0.6770 -0.5470  0.6970
  945SOL    HW3 3779   2.943   3.607   1.460 -0.2689  0.0609  0.4117
  945SOL    MW4 3780   2.935   3.592   1.546  0.2597 -0.1344  0.4308
  946SOL     OW 3781   2.945   3.853   1.657  0.2048 -0.1509 -0.2316
  946SOL    HW2 3782   2.869   3.892   1.616  1.4514  0.4876 -1.9975
  946SOL    HW3 3783   2.945   3.762   1.626  1.1766  0.3454 -1.7448
  946SOL    MW4 3784   2.935   3.846   1.648  0.4975 -0.0011 -0.6642
  947SOL     OW 3785   2.750   4.007   1.558 -0.4811 -0.5047  0.0870
  947SOL    HW2 3786   2.748   4.090   1.606 -1.7554 -0.7476  0.4545
  947SOL    HW3 3787   2.752   4.033   1.466 -1.8420 -0.0600  0.1726
  947SOL    MW4 3788   2.750   4.021   1.552 -0.8288 -0.4781  0.1467
  948SOL     OW 3789   2.726   4.263   1.677 -0.1351  0.2431 -0.1031
  948SOL    HW2 3790   2.805   4.305   1.641  0.0860 -0.0934 -0.0114
  948SOL    HW3 3791   2.654   4.299   1.625  0.0833  0.5056 -0.2284
  948SOL    MW4 3792   2.727   4.274   1.666 -0.0771  0.2333 -0.1075
  949SOL     OW 3793   2.929   4.403   1.564 -0.1783  0.2128  0.0015
  949SOL    HW2 3794   2.957   4.489   1.594  0.8096 -0.1410  0.1064
  949SOL    HW3 3795   2.914   4.414   1.470  1.7081  0.0602 -0.3237
  949SOL    MW4 3796   2.930   4.416   1.555  0.2009  0.1460 -0.0276
  950SOL     OW 3797   3.388   0.019   1.642 -0.4263 -0.0521  0.1603
  950SOL    HW2 3798   3.465   0.059   1.600 -1.9341  2.0245 -0.7426
  950SOL    HW3 3799   3.388  -0.071   1.610  0.1960  0.6391 -1.9335
  950SOL    MW4 3800   3.398   0.013   1.632 -0.5431  0.3131 -0.2351
  951SOL     OW 3801   3.149   0.111   1.545  0.0166  0.2337 -0.2879
  951SOL    HW2 3802   3.232   0.071   1.570 -0.7664 -0.7526  0.7675
  951SOL    HW3 3803   3.084   0.069   1.601 -0.8454  2.9346  0.8542
  951SOL    MW4 3804   3.152   0.100   1.556 -0.2004  0.4600  0.0020
  952SOL     OW 3805   3.136   0.373   1.645  0.2460 -0.0996  0.1942
  952SOL    HW2 3806   3.125   0.283   1.615  0.0616 -0.1023  0.2718
  952SOL    HW3 3807   3.061   0.420   1.609  0.1527 -0.0523  0.4508
  952SOL    MW4 3808   3.125   0.367   1.637  0.2094 -0.0937  0.2383
  953SOL     OW 3809   3.380   0.453   1.530 -0.0912  0.0717  0.3786
  953SOL    HW2 3810   3.294   0.443   1.571  0.5113 -1.4978  1.2831
  953SOL    HW3 3811   3.361   0.461   1.437 -1.1872 -0.9771  0.4993
  953SOL    MW4 3812   3.366   0.453   1.523 -0.1563 -0.2738  0.5139
  954SOL     OW 3813   3.382   0.738   1.633  0.4213 -0.3192  0.7498
  954SOL    HW2 3814   3.379   0.744   1.729 -2.4541 -0.4988  0.7150
  954SOL    HW3 3815   3.400   0.646   1.615 -0.5245 -0.5733  1.1106
  954SOL    MW4 3816   3.384   0.727   1.643 -0.0829 -0.3764  0.7928
  955SOL     OW 3817   3.174   0.883   1.491 -0.2552 -0.1170 -0.3325
  955SOL    HW2 3818   3.245   0.838   1.536 -0.0171  0.8340  0.2483
  955SOL    HW3 3819   3.095   0.832   1.512  0.1062 -0.6260 -0.2097
  955SOL    MW4 3820   3.173   0.870   1.499 -0.1761 -0.0587 -0.2397
  956SOL     OW 3821   3.166   1.169   1.590 -0.2951  0.2198 -0.6372
  956SOL    HW2 3822   3.183   1.163   1.684  1.7781 -0.3844 -1.0241
  956SOL    HW3 3823   3.168   1.078   1.560  0.2059  0.4859 -1.4396
  956SOL    MW4 3824   3.169   1.156   1.598  0.0446  0.1752 -0.7941
  957SOL     OW 3825   3.397   1.292   1.516  0.8736 -0.0157  0.1705
  957SOL    HW2 3826   3.474   1.242   1.544  0.0030 -0.6142  1.5816
  957SOL    HW3 3827   3.322   1.242   1.550 -0.1543  0.4340 -1.3629
  957SOL    MW4 3828   3.397   1.279   1.524  0.6231 -0.0353  0.1543
  958SOL     OW 3829   3.384   1.556   1.617  0.3928  0.3874 -0.0857
  958SOL    HW2 3830   3.385   1.555   1.713 -0.5643  1.2488 -0.0550
  958SOL    HW3 3831   3.387   1.464   1.592 -0.4959  0.1153  0.7920
  958SOL    MW4 3832   3.385   1.544   1.627  0.1493  0.4652  0.0342
  959SOL     OW 3833   3.132   1.694   1.558  0.1502 -0.2852  0.7250
  959SOL    HW2 3834   3.210   1.651   1.593 -0.3853 -0.5856  1.5871
  959SOL    HW3 3835   3.059   1.650   1.603 -0.5219 -0.1992 -0.2780
  959SOL    MW4 3836   3.133   1.682   1.569 -0.0091 -0.3135  0.7064
  960SOL     OW 3837   3.153   1.945   1.649 -0.0546 -0.0990  0.0412
  960SOL    HW2 3838   3.155   1.855   1.614  0.0620  0.5906 -1.7690
  960SOL    HW3 3839   3.070   1.981   1.617  0.5504  0.8979 -0.4094
  960SOL    MW4 3840   3.142   1.938   1.640  0.0406  0.1235 -0.2571
  961SOL     OW 3841   3.353   2.074   1.511  0.1199 -0.0692 -0.3389
  961SOL    HW2 3842   3.289   2.023   1.559  0.8786 -0.4008  0.3275
  961SOL    HW3 3843   3.331   2.060   1.419 -0.3717 -0.6759 -0.1268
  961SOL    MW4 3844   3.342   2.066   1.505  0.1552 -0.1930 -0.2230
  962SOL     OW 3845   3.334   2.329   1.665  0.4579  0.1543  0.2892
  962SOL    HW2 3846   3.416   2.367   1.632  0.7782 -0.7124  0.0563
  962SOL    HW3 3847   3.327   2.245   1.619 -0.6894  0.3316  0.1374
  962SOL    MW4 3848   3.344   2.323   1.655  0.3488  0.0633  0.2385
  963SOL     OW 3849   3.129   2.446   1.533 -0.2101  0.0164  0.1498
  963SOL    HW2 3850   3.201   2.409   1.584  0.4723  0.1601 -0.7031
  963SOL    HW3 3851   3.053   2.394   1.557  0.0435  0.2441  1.5163
  963SOL    MW4 3852   3.129   2.435   1.543 -0.0866  0.0654  0.2175
  964SOL     OW 3853   3.124   2.712   1.663  0.4518  0.4521 -0.1136
  964SOL    HW2 3854   3.205   2.756   1.640  0.2428  0.1786 -1.4236
  964SOL    HW3 3855   3.120   2.637   1.604 -0.2166 -0.1543  0.6843
  964SOL    MW4 3856   3.134   2.708   1.652  0.3360  0.3360 -0.1811
  965SOL     OW 3857   3.349   2.840   1.560  0.2212  0.3194  0.3072
  965SOL    HW2 3858   3.369   2.930   1.586 -0.2629  0.9566 -1.4141
  965SOL    HW3 3859   3.345   2.844   1.464  1.7377 -1.8583  0.1212
  965SOL    MW4 3860   3.351   2.852   1.551  0.3574  0.1161  0.0555
  966SOL     OW 3861   3.394   3.103   1.638  0.1487 -0.2968 -0.0303
  966SOL    HW2 3862   3.412   3.110   1.732  0.4835  0.6361 -0.1594
  966SOL    HW3 3863   3.479   3.116   1.596 -0.1165 -0.0390 -0.4898
  966SOL    MW4 3864   3.408   3.105   1.645  0.1579 -0.1397 -0.1080
  967SOL     OW 3865   3.178   3.231   1.538  0.3732  0.0611 -0.4925
  967SOL    HW2 3866   3.259   3.194   1.573  0.9149  0.6662 -1.0909
  967SOL    HW3 3867   3.185   3.219   1.443 -0.0869  0.3967 -0.5720
  967SOL    MW4 3868   3.190   3.225   1.530  0.3839  0.1852 -0.5819
  968SOL     OW 3869   3.181   3.457   1.675  0.2427 -0.3091  0.0002
  968SOL    HW2 3870   3.177   3.372   1.630  1.3913 -0.0673 -0.5589
  968SOL    HW3 3871   3.105   3.505   1.641  0.9576 -0.2176 -1.5326
  968SOL    MW4 3872   3.170   3.452   1.664  0.4886 -0.2651 -0.2758
  969SOL     OW 3873   3.355   3.593   1.520  0.0485 -0.5156 -0.6709
  969SOL    HW2 3874   3.445   3.587   1.551 -0.5909  1.7431  1.8897
  969SOL    HW3 3875   3.309   3.524   1.567 -0.1838  0.5081  0.6394
  969SOL    MW4 3876   3.361   3.583   1.530 -0.0665 -0.0825 -0.1602
  970SOL     OW 3877   3.356   3.846   1.682  0.0825  0.1231  0.3339
  970SOL    HW2 3878   3.293   3.902   1.637  1.2985  0.1180 -1.4253
  970SOL    HW3 3879   3.348   3.761   1.639  1.4034  0.1744 -0.0541
  970SOL    MW4 3880   3.347   3.842   1.670  0.4172  0.1292  0.0506
  971SOL     OW 3881   3.172   3.992   1.549  0.0211 -0.0802  0.6439
  971SOL    HW2 3882   3.165   4.082   1.581  0.5978  0.4488 -0.6877
  971SOL    HW3 3883   3.096   3.948   1.586 -0.4252  1.0267  1.0721
  971SOL    MW4 3884   3.161   3.998   1.559  0.0383  0.1356  0.5247
  972SOL     OW 3885   3.182   4.264   1.624  0.0577  0.0033  0.1317
  972SOL    HW2 3886   3.185   4.281   1.718 -2.0108 -0.2601  0.2622
  972SOL    HW3 3887   3.106   4.312   1.593  1.9361  1.8143 -1.8050
  972SOL    MW4 3888   3.172   4.272   1.633  0.0326  0.2075 -0.1066
  973SOL     OW 3889   3.391   4.412   1.559 -0.4654  0.0087 -0.2572
  973SOL    HW2 3890   3.307   4.376   1.588 -0.2766 -1.3120 -1.2896
  973SOL    HW3 3891   3.391   4.399   1.464  0.6338  0.5881 -0.3437
  973SOL    MW4 3892   3.380   4.405   1.550 -0.2955 -0.0891 -0.4048
  974SOL     OW 3893   3.848   4.625   1.681  0.5590 -0.1183 -0.3794
  974SOL    HW2 3894   3.838   4.649   1.773  0.2980 -0.0020 -0.4373
  974SOL    HW3 3895   3.911   4.689   1.646  1.4213 -0.7737 -0.0457
  974SOL    MW4 3896   3.855   4.637   1.688  0.6383 -0.1894 -0.3430
  975SOL     OW 3897   3.649   0.119   1.562 -0.3768 -0.4518  0.8053
  975SOL    HW2 3898   3.703   0.045   1.590  0.2381 -0.5222 -0.5100
  975SOL    HW3 3899   3.664   0.125   1.468 -1.3386  0.6144  0.7079
  975SOL    MW4 3900   3.658   0.110   1.553 -0.4226 -0.3205  0.6189
  976SOL     OW 3901   3.629   0.384   1.646 -0.2516 -0.2590  0.3673
  976SOL    HW2 3902   3.643   0.294   1.618 -1.8323 -0.5228  0.3562
  976SOL    HW3 3903   3.538   0.403   1.619  0.1636  1.4216  0.1006
  976SOL    MW4 3904   3.619   0.375   1.639 -0.4053 -0.0721  0.3307
  977SOL     OW 3905   3.850   0.509   1.563  0.1682 -0.2475 -0.1084
  977SOL    HW2 3906   3.767   0.473   1.593  0.6881  0.1594  1.8784
  977SOL    HW3 3907   3.845   0.504   1.467 -2.6365  0.8993 -0.0757
  977SOL    MW4 3908   3.838   0.504   1.554 -0.1333 -0.0425  0.1581
  978SOL     OW 3909   3.846   0.759   1.684  0.3468  0.3093 -0.0085
  978SOL    HW2 3910   3.769   0.791   1.637  0.5499 -0.2004 -0.6921
  978SOL    HW3 3911   3.856   0.668   1.655 -0.0231 -0.2862  1.6546
  978SOL    MW4 3912   3.837   0.751   1.674  0.3248  0.1635  0.1207
  979SOL     OW 3913   3.626   0.858   1.536  0.5845  0.0388  0.3257
  979SOL    HW2 3914   3.538   0.823   1.550  0.7414 -0.1986  0.7379
  979SOL    HW3 3915   3.635   0.863   1.441 -0.5477  1.8211  0.2968
  979SOL    MW4 3916   3.615   0.854   1.526  0.4558  0.2426  0.3763
  980SOL     OW 3917   3.631   1.131   1.608  0.1213  0.0673  0.2084
  980SOL    HW2 3918   3.710   1.170   1.570 -0.8296 -0.0723 -2.0095
  980SOL    HW3 3919   3.642   1.037   1.593  0.1542 -0.0779  1.1252
  980SOL    MW4 3920   3.643   1.123   1.601  0.0002  0.0297  0.0367
  981SOL     OW 3921   3.846   1.233   1.469 -0.1801 -0.5354 -0.0407
  981SOL    HW2 3922   3.922   1.201   1.518 -0.5698  0.9078  1.5496
  981SOL    HW3 3923   3.840   1.325   1.493 -1.9950 -0.4604 -0.7442
  981SOL    MW4 3924   3.855   1.241   1.479 -0.4710 -0.3351  0.0763
  982SOL     OW 3925   3.826   1.513   1.552  0.4000 -0.3349  0.1108
  982SOL    HW2 3926   3.812   1.528   1.645  1.0521 -1.6187  0.4281
  982SOL    HW3 3927   3.748   1.549   1.510 -0.1858 -0.3140  1.1973
  982SOL    MW4 3928   3.814   1.520   1.558  0.4087 -0.5015  0.2960
  983SOL     OW 3929   3.599   1.699   1.508 -0.3559  0.2812 -0.1893
  983SOL    HW2 3930   3.519   1.654   1.534 -0.0515 -0.0035  0.2511
  983SOL    HW3 3931   3.591   1.709   1.413 -0.8787  0.1869 -0.1558
  983SOL    MW4 3932   3.587   1.695   1.499 -0.3848  0.2312 -0.1268
  984SOL     OW 3933   3.582   1.951   1.635 -0.2353 -0.1871  0.4130
  984SOL    HW2 3934   3.595   1.862   1.602 -0.2363 -0.0176 -0.0532
  984SOL    HW3 3935   3.518   1.989   1.575  0.5634  0.4763 -0.0390
  984SOL    MW4 3936   3.576   1.944   1.623 -0.1300 -0.0772  0.2919
  985SOL     OW 3937   3.853   2.029   1.554  0.1718  0.8311 -0.1101
  985SOL    HW2 3938   3.848   2.125   1.562 -0.6759  0.5837  2.6564
  985SOL    HW3 3939   3.767   1.998   1.581  0.9325 -0.8037  0.4537
  985SOL    MW4 3940   3.841   2.038   1.558  0.1603  0.5827  0.3293
  986SOL     OW 3941   3.821   2.311   1.593  0.1601  0.2381  0.3422
  986SOL    HW2 3942   3.831   2.307   1.688  1.1364  0.1908  0.2405
  986SOL    HW3 3943   3.894   2.366   1.563  0.7471 -0.9894 -0.5290
  986SOL    MW4 3944   3.832   2.318   1.601  0.3664  0.0699  0.2138
  987SOL     OW 3945   3.565   2.408   1.539  0.3956 -0.1477 -0.2204
  987SOL    HW2 3946   3.577   2.494   1.577 -0.2782 -1.1100  2.2297
  987SOL    HW3 3947   3.650   2.365   1.549 -0.5323 -1.4006  2.8827
  987SOL    MW4 3948   3.578   2.413   1.545  0.1843 -0.4399  0.5122
  988SOL     OW 3949   3.574   2.666   1.614  0.2624 -0.1037 -0.3460
  988SOL    HW2 3950   3.594   2.664   1.708 -0.5399 -2.5431 -0.1821
  988SOL    HW3 3951   3.498   2.724   1.607 -1.4014 -2.0619  0.9085
  988SOL    MW4 3952   3.566   2.673   1.625 -0.0630 -0.6839 -0.1588
  989SOL     OW 3953   3.795   2.817   1.518  0.1514 -0.1547 -0.0652
  989SOL    HW2 3954   3.866   2.769   1.561  1.1301  2.2555  1.0882
  989SOL    HW3 3955   3.715   2.773   1.549  0.9957 -0.7120  1.4070
  989SOL    MW4 3956   3.794   2.805   1.528  0.3919  0.0898  0.2812
  990SOL     OW 3957   3.830   3.097   1.657 -0.4518  0.2125  0.3087
  990SOL    HW2 3958   3.908   3.132   1.614 -0.8329  0.3470 -0.2876
  990SOL    HW3 3959   3.813   3.014   1.612 -0.5683  0.1142  0.5328
  990SOL    MW4 3960   3.838   3.091   1.645 -0.5175  0.2173  0.2596
  991SOL     OW 3961   3.626   3.249   1.559 -1.2148  0.1581  0.0976
  991SOL    HW2 3962   3.705   3.205   1.590 -1.1084  1.6699  2.0502
  991SOL    HW3 3963   3.632   3.244   1.464  0.4856 -1.0448  0.2475
  991SOL    MW4 3964   3.637   3.243   1.551 -0.9764  0.1989  0.3750
  992SOL     OW 3965   3.582   3.518   1.652 -0.6645 -0.2046 -0.2766
  992SOL    HW2 3966   3.659   3.546   1.603  0.5243 -2.4010  0.2739
  992SOL    HW3 3967   3.580   3.423   1.642 -1.8846 -0.4331  1.7551
  992SOL    MW4 3968   3.591   3.509   1.645 -0.6687 -0.5245  0.0641
  993SOL     OW 3969   3.819   3.601   1.513  0.2117  0.5814  0.0177
  993SOL    HW2 3970   3.867   3.552   1.580  1.1053  0.4361 -0.7306
  993SOL    HW3 3971   3.821   3.692   1.545 -1.2690  0.1946  1.2963
  993SOL    MW4 3972   3.825   3.607   1.526  0.1343  0.5112  0.0876
  994SOL     OW 3973   3.821   3.838   1.662  0.8115 -0.3557 -0.2108
  994SOL    HW2 3974   3.895   3.885   1.623  1.1258 -1.0701 -0.4888
  994SOL    HW3 3975   3.744   3.883   1.628  1.0669 -1.2991 -2.1178
  994SOL    MW4 3976   3.821   3.850   1.652  0.8867 -0.5744 -0.4991
  995SOL     OW 3977   3.588   3.948   1.569 -0.3919 -0.2128  0.0260
  995SOL    HW2 3978   3.590   4.041   1.590  0.1651 -0.3584  0.6243
  995SOL    HW3 3979   3.506   3.917   1.608 -0.5307  0.0054 -0.0899
  995SOL    MW4 3980   3.578   3.956   1.577 -0.3367 -0.2032  0.0896
  996SOL     OW 3981   3.595   4.236   1.625 -0.3762  0.4933 -0.1898
  996SOL    HW2 3982   3.606   4.251   1.719 -2.4569 -1.1049  0.3411
  996SOL    HW3 3983   3.521   4.291   1.600 -0.2003  0.4674 -0.7808
  996SOL    MW4 3984   3.587   4.246   1.634 -0.6275  0.2790 -0.1977
  997SOL     OW 3985   3.834   4.370   1.558  0.2629  0.2619 -1.0409
  997SOL    HW2 3986   3.753   4.323   1.577  1.2344 -0.3292  1.8784
  997SOL    HW3 3987   3.820   4.457   1.596  1.3198 -0.1522  0.3540
  997SOL    MW4 3988   3.822   4.376   1.566  0.5305  0.1292 -0.4717
  998SOL     OW 3989   4.262   4.644   1.645 -0.3059 -0.2398  0.0409
  998SOL    HW2 3990   4.265   4.645   1.741  1.5570 -1.1389 -0.0001
  998SOL    HW3 3991   4.264   4.552   1.622  0.0752  0.0002 -0.8890
  998SOL    MW4 3992   4.263   4.632   1.655 -0.0098 -0.3267 -0.0872
  999SOL     OW 3993   4.053   0.134   1.541  0.1084 -0.3356 -0.1745
  999SOL    HW2 3994   4.067   0.215   1.589 -2.1551 -0.2567  0.3958
  999SOL    HW3 3995   4.122   0.075   1.573  0.1507  0.5175  1.3502
  999SOL    MW4 3996   4.064   0.137   1.552 -0.1847 -0.2126  0.1019
 1000SOL     OW 3997   4.073   0.368   1.671  0.2679  0.3023  0.3320
 1000SOL    HW2 3998   4.088   0.378   1.765 -1.1367  0.4020  0.5557
 1000SOL    HW3 3999   3.995   0.421   1.653  0.7277  0.5509 -0.9475
 1000SOL    MW4 4000   4.064   0.376   1.681  0.1433  0.3483  0.1927
 1001SOL     OW 4001   4.253   0.555   1.539 -0.0589  0.0113  0.7334
 1001SOL    HW2 4002   4.196   0.492   1.582 -1.4126  1.3996  1.0104
 1001SOL    HW3 4003   4.342   0.531   1.567 -0.4958 -2.1607  0.2970
 1001SOL    MW4 4004   4.257   0.543   1.548 -0.2952 -0.0921  0.7123
 1002SOL     OW 4005   4.284   0.795   1.678 -0.2018  0.2031  0.2619
 1002SOL    HW2 4006   4.264   0.716   1.628  0.1937 -0.2575  0.8266
 1002SOL    HW3 4007   4.371   0.821   1.648 -0.2175  0.2669  0.2724
 1002SOL    MW4 4008   4.293   0.788   1.667 -0.1517  0.1508  0.3378
 1003SOL     OW 4009   4.053   0.910   1.576  0.0529  0.2554  0.4433
 1003SOL    HW2 4010   4.137   0.884   1.614 -0.4429 -1.6807  0.2365
 1003SOL    HW3 4011   3.990   0.846   1.610 -1.0985  0.8744 -0.4962
 1003SOL    MW4 4012   4.056   0.898   1.586 -0.1644  0.0816  0.2920
 1004SOL     OW 4013   4.052   1.176   1.663  0.5144  0.3008 -0.2704
 1004SOL    HW2 4014   4.066   1.169   1.758 -0.6736  0.5642 -0.0612
 1004SOL    HW3 4015   4.065   1.088   1.630  0.4586  0.1123  0.2118
 1004SOL    MW4 4016   4.055   1.164   1.671  0.3503  0.3106 -0.1792
 1005SOL     OW 4017   4.252   1.285   1.522 -0.0466  0.7032  0.1615
 1005SOL    HW2 4018   4.165   1.263   1.556 -0.5351 -0.1651 -1.6150
 1005SOL    HW3 4019   4.311   1.224   1.566 -0.6338 -0.2200 -0.3301
 1005SOL    MW4 4020   4.249   1.274   1.533 -0.1885  0.4668 -0.1377
 1006SOL     OW 4021   4.299   1.518   1.634 -0.0907  0.6424 -0.3265
 1006SOL    HW2 4022   4.295   1.434   1.588  0.2080  0.3021  0.2421
 1006SOL    HW3 4023   4.381   1.557   1.605 -0.1354  0.6434 -0.4475
 1006SOL    MW4 4024   4.310   1.512   1.624 -0.0572  0.5976 -0.2674
 1007SOL     OW 4025   4.092   1.623   1.474  0.2967  0.8345  0.0687
 1007SOL    HW2 4026   4.168   1.591   1.523 -0.6358 -1.0685  0.3165
 1007SOL    HW3 4027   4.016   1.584   1.519 -0.6534  0.2409 -1.9864
 1007SOL    MW4 4028   4.092   1.613   1.486  0.0483  0.5051 -0.1697
 1008SOL     OW 4029   4.086   1.865   1.621  0.1440  0.0918  0.2652
 1008SOL    HW2 4030   4.102   1.780   1.579 -0.8441  0.0273  0.0012
 1008SOL    HW3 4031   4.012   1.901   1.573  0.3542  0.9656  0.5937
 1008SOL    MW4 4032   4.078   1.858   1.609  0.0414  0.1986  0.2737
 1009SOL     OW 4033   4.268   2.055   1.537  0.5017  0.5546  0.0864
 1009SOL    HW2 4034   4.203   1.990   1.563  0.0854  1.2191  0.7555
 1009SOL    HW3 4035   4.258   2.063   1.442  0.5509 -0.3424  0.0079
 1009SOL    MW4 4036   4.258   2.048   1.528  0.4532  0.5239  0.1643
 1010SOL     OW 4037   4.264   2.318   1.587  0.3330  0.3666  0.2049
 1010SOL    HW2 4038   4.233   2.325   1.677 -0.7271  1.0368 -0.2060
 1010SOL    HW3 4039   4.271   2.224   1.571  0.8332  0.2559  1.0914
 1010SOL    MW4 4040   4.261   2.306   1.597  0.2592  0.4404  0.2676
 1011SOL     OW 4041   4.037   2.456   1.474 -0.3031 -0.1801  0.1104
 1011SOL    HW2 4042   4.025   2.534   1.529 -2.1043 -0.6415  0.4287
 1011SOL    HW3 4043   4.113   2.411   1.512  0.0470  0.8379  0.6290
 1011SOL    MW4 4044   4.045   2.460   1.486 -0.4946 -0.1067  0.2208
 1012SOL     OW 4045   4.023   2.698   1.622  0.3839  0.1317 -0.4306
 1012SOL    HW2 4046   4.036   2.720   1.714  0.7318  0.4989 -0.5654
 1012SOL    HW3 4047   4.090   2.749   1.576  0.6219 -0.5364 -0.8270
 1012SOL    MW4 4048   4.034   2.708   1.628  0.4612  0.0920 -0.5007
 1013SOL     OW 4049   4.237   2.837   1.530 -0.5248 -0.3468 -0.2090
 1013SOL    HW2 4050   4.229   2.920   1.577 -0.8727 -0.8630  0.6487
 1013SOL    HW3 4051   4.244   2.863   1.438  0.1694  0.6659  0.1243
 1013SOL    MW4 4052   4.237   2.851   1.524 -0.4791 -0.2813 -0.0519
 1014SOL     OW 4053   4.273   3.101   1.609  0.0113  0.1890 -0.2398
 1014SOL    HW2 4054   4.272   3.110   1.705  0.0007 -2.7696  0.0911
 1014SOL    HW3 4055   4.355   3.141   1.582  0.2221  0.6642  1.0712
 1014SOL    MW4 4056   4.284   3.107   1.618  0.0377 -0.1387 -0.0231
 1015SOL     OW 4057   4.043   3.200   1.507  0.2188 -0.0414 -0.6458
 1015SOL    HW2 4058   4.029   3.273   1.567  1.8253  0.5742 -0.9807
 1015SOL    HW3 4059   4.113   3.149   1.548  0.0065 -0.6764 -1.0647
 1015SOL    MW4 4060   4.050   3.203   1.520  0.4027 -0.0440 -0.7453
 1016SOL     OW 4061   3.994   3.435   1.685 -0.2591  0.1166  0.1511
 1016SOL    HW2 4062   4.004   3.458   1.778 -0.5350  0.1322  0.1771
 1016SOL    HW3 4063   4.063   3.485   1.641  1.1439 -1.4027  0.5773
 1016SOL    MW4 4064   4.004   3.445   1.692 -0.1104 -0.0818  0.2108
 1017SOL     OW 4065   4.213   3.582   1.553 -0.5154  0.1895  0.1648
 1017SOL    HW2 4066   4.242   3.657   1.605  0.1422  1.0521 -1.4127
 1017SOL    HW3 4067   4.226   3.609   1.462  0.1236 -2.0013 -0.4188
 1017SOL    MW4 4068   4.218   3.595   1.548 -0.3443  0.0143 -0.1203
 1018SOL     OW 4069   4.254   3.840   1.669 -0.2128 -0.0514 -0.4692
 1018SOL    HW2 4070   4.178   3.890   1.641  0.7121  0.5118 -2.0147
 1018SOL    HW3 4071   4.328   3.880   1.624  1.0632 -0.3932  1.2581
 1018SOL    MW4 4072   4.254   3.852   1.660  0.0776 -0.0222 -0.4452
 1019SOL     OW 4073   4.037   3.991   1.572 -0.3565 -0.0898  0.0373
 1019SOL    HW2 4074   4.034   4.079   1.610 -0.5727 -0.3093  0.5267
 1019SOL    HW3 4075   4.030   4.006   1.478  1.3783  0.5368 -0.0148
 1019SOL    MW4 4076   4.036   4.005   1.565 -0.1561 -0.0361  0.0950
 1020SOL     OW 4077   4.057   4.226   1.714  0.2600 -0.2393  0.0687
 1020SOL    HW2 4078   4.064   4.237   1.809 -0.7646  0.8059  0.0347
 1020SOL    HW3 4079   3.983   4.281   1.689  2.3984  1.8820 -1.7583
 1020SOL    MW4 4080   4.048   4.234   1.724  0.4069  0.1785 -0.1768
 1021SOL     OW 4081   4.253   4.398   1.558 -0.1053  0.1124  0.9263
 1021SOL    HW2 4082   4.189   4.332   1.586 -0.6056  0.9313  1.7525
 1021SOL    HW3 4083   4.252   4.392   1.463  2.2405 -3.2923  1.0185
 1021SOL    MW4 4084   4.244   4.389   1.549  0.1382 -0.2288  1.0475
 1022SOL     OW 4085   0.175   4.662   1.908  0.7007  0.5229  0.1232
 1022SOL    HW2 4086   0.256   4.698   1.942  1.2120  0.6016 -1.1767
 1022SOL    HW3 4087   0.177   4.680   1.814 -0.0680 -0.8887 -0.1842
 1022SOL    MW4 4088   0.186   4.669   1.900  0.6667  0.3471 -0.0888
 1023SOL     OW 4089   4.466   0.133   2.028  0.2242  0.1520 -0.0646
 1023SOL    HW2 4090   4.484   0.223   2.002  2.3472 -0.0251  0.7137
 1023SOL    HW3 4091   4.536   0.082   1.987 -0.6608 -1.0739 -0.0732
 1023SOL    MW4 4092   4.477   0.138   2.019  0.3875 -0.0331  0.0369
 1024SOL     OW 4093   4.473   0.390   1.936 -0.1557  0.7773 -0.1469
 1024SOL    HW2 4094   4.401   0.436   1.979  0.0257 -0.4153  1.4634
 1024SOL    HW3 4095   4.550   0.443   1.956 -0.4556  1.7343 -1.3837
 1024SOL    MW4 4096   4.473   0.403   1.944 -0.1714  0.7462 -0.0977
 1025SOL     OW 4097   0.207   0.535   2.004 -0.2536 -0.4244  0.1179
 1025SOL    HW2 4098   0.282   0.481   1.979 -0.8526 -0.8864 -0.6969
 1025SOL    HW3 4099   0.238   0.625   1.994  0.0158 -0.6129 -0.7752
 1025SOL    MW4 4100   0.221   0.540   2.000 -0.2971 -0.5103 -0.1074
 1026SOL     OW 4101   0.231   0.800   1.936 -0.3283  0.0828  0.2786
 1026SOL    HW2 4102   0.310   0.848   1.961 -0.5790  1.2701 -1.1047
 1026SOL    HW3 4103   0.236   0.795   1.841 -0.6925 -2.0299  0.3601
 1026SOL    MW4 4104   0.242   0.806   1.927 -0.4094 -0.0393  0.1069
 1027SOL     OW 4105   0.011   0.935   2.040 -0.0832  0.7965  0.0395
 1027SOL    HW2 4106  -0.073   0.895   2.019 -0.4989  1.2898  0.7407
 1027SOL    HW3 4107   0.076   0.879   1.998 -0.6330 -0.7296  1.1989
 1027SOL    MW4 4108   0.009   0.922   2.031 -0.2106  0.6603  0.2850
 1028SOL     OW 4109   0.004   1.176   1.907  0.4054 -0.0263 -0.0339
 1028SOL    HW2 4110  -0.079   1.209   1.940  0.6601  0.0603  0.5118
 1028SOL    HW3 4111   0.013   1.090   1.947 -0.3221 -0.8340 -1.5560
 1028SOL    MW4 4112  -0.006   1.169   1.916  0.3430 -0.1214 -0.1627
 1029SOL     OW 4113   0.215   1.317   2.002  1.1209 -0.3602 -0.1259
 1029SOL    HW2 4114   0.222   1.404   1.962  1.5673 -0.6408 -0.6699
 1029SOL    HW3 4115   0.147   1.273   1.951 -0.1242  0.1566  1.0628
 1029SOL    MW4 4116   0.207   1.323   1.990  1.0155 -0.3291 -0.0408
 1030SOL     OW 4117   0.226   1.571   1.861  0.1001  0.2549  0.0509
 1030SOL    HW2 4118   0.297   1.623   1.898  0.5584 -1.3787  1.5301
 1030SOL    HW3 4119   0.146   1.610   1.896  0.3922  0.5509  0.3848
 1030SOL    MW4 4120   0.225   1.583   1.870  0.1991  0.0784  0.2901
 1031SOL     OW 4121   4.483   1.705   2.019 -0.3897 -0.5389  0.0622
 1031SOL    HW2 4122   4.473   1.698   2.114 -0.3246 -0.8478  0.0454
 1031SOL    HW3 4123   4.403   1.668   1.983 -0.4576 -0.3310 -0.0023
 1031SOL    MW4 4124   4.471   1.699   2.027 -0.3901 -0.5522  0.0515
 1032SOL     OW 4125   0.003   1.943   1.886 -0.4264  0.2024 -0.2998
 1032SOL    HW2 4126  -0.056   2.012   1.914  1.3342  1.6426 -0.0341
 1032SOL    HW3 4127  -0.023   1.866   1.938 -0.2816  1.5585  1.8545
 1032SOL    MW4 4128  -0.008   1.942   1.897 -0.1750  0.5713  0.0195
 1033SOL     OW 4129   0.242   2.015   2.000 -0.3014  0.4228 -0.0286
 1033SOL    HW2 4130   0.240   2.109   1.980 -1.8827  0.6588  1.1808
 1033SOL    HW3 4131   0.162   1.981   1.960 -0.0373 -0.3163  0.0720
 1033SOL    MW4 4132   0.231   2.023   1.992 -0.4752  0.3564  0.1442
 1034SOL     OW 4133   0.230   2.282   1.937 -0.0662  0.0663 -0.0038
 1034SOL    HW2 4134   0.298   2.320   1.993  1.4513  0.6211 -2.1675
 1034SOL    HW3 4135   0.156   2.341   1.947  0.0398 -0.0691  1.7314
 1034SOL    MW4 4136   0.229   2.295   1.946  0.1480  0.1216 -0.0604
 1035SOL     OW 4137   0.009   2.435   1.967 -0.1018  0.2849 -0.3407
 1035SOL    HW2 4138   0.016   2.436   2.063 -2.0897 -0.9126 -0.1426
 1035SOL    HW3 4139   0.007   2.527   1.941  0.4727  0.6137  0.7678
 1035SOL    MW4 4140   0.009   2.447   1.976 -0.2883  0.1703 -0.1683
 1036SOL     OW 4141   0.031   2.714   1.878 -0.0444  0.2155  0.2109
 1036SOL    HW2 4142  -0.045   2.762   1.912  0.6030  0.6710  1.0453
 1036SOL    HW3 4143   0.030   2.732   1.784 -1.9372 -1.1657 -0.0539
 1036SOL    MW4 4144   0.021   2.723   1.870 -0.2087  0.0934  0.2861
 1037SOL     OW 4145   0.218   2.832   2.045  0.0466  0.3538 -0.2122
 1037SOL    HW2 4146   0.229   2.918   2.006 -0.0805  0.1498 -0.7115
 1037SOL    HW3 4147   0.138   2.797   2.005 -0.7641  0.6215  1.1391
 1037SOL    MW4 4148   0.209   2.838   2.035 -0.0771  0.3622 -0.0998
 1038SOL     OW 4149   0.244   3.089   1.919  0.8890 -0.1686 -0.1125
 1038SOL    HW2 4150   0.313   3.147   1.952  1.1270 -0.8524  0.6024
 1038SOL    HW3 4151   0.262   3.081   1.826  2.9069 -1.8497  0.3897
 1038SOL    MW4 4152   0.256   3.096   1.911  1.1866 -0.4806  0.0481
 1039SOL     OW 4153   0.023   3.230   2.026 -0.3008 -0.2960 -0.0365
 1039SOL    HW2 4154  -0.050   3.174   1.998 -0.3413  0.1413 -0.8454
 1039SOL    HW3 4155   0.101   3.186   1.993 -0.2602 -0.3615  0.1480
 1039SOL    MW4 4156   0.023   3.217   2.018 -0.3008 -0.2469 -0.1189
 1040SOL     OW 4157   0.011   3.496   1.928  0.4584 -0.7636 -0.0628
 1040SOL    HW2 4158   0.094   3.539   1.946 -0.3914  0.7351  0.3229
 1040SOL    HW3 4159   0.022   3.407   1.961  1.8278 -0.5115  0.1662
 1040SOL    MW4 4160   0.023   3.490   1.935  0.5270 -0.5326  0.0183
 1041SOL     OW 4161   0.226   3.625   2.036  0.1361  0.4573  0.3561
 1041SOL    HW2 4162   0.225   3.634   2.132 -0.8123 -1.8971  0.6117
 1041SOL    HW3 4163   0.303   3.571   2.018  0.7305  1.5190 -0.2765
 1041SOL    MW4 4164   0.236   3.619   2.047  0.0894  0.2867  0.3063
 1042SOL     OW 4165   0.230   3.880   1.936 -0.0708 -0.6613  0.5935
 1042SOL    HW2 4166   0.301   3.931   1.974 -0.6469  0.0674  0.6954
 1042SOL    HW3 4167   0.231   3.797   1.984  0.7579 -0.6858  0.5378
 1042SOL    MW4 4168   0.239   3.876   1.947 -0.0375 -0.5684  0.5996
 1043SOL     OW 4169   0.013   4.016   2.037  0.3596  0.0798  0.3416
 1043SOL    HW2 4170   0.004   4.092   1.980 -0.0580 -0.1047  0.1623
 1043SOL    HW3 4171   0.093   3.973   2.006 -0.8120 -0.9902 -1.2616
 1043SOL    MW4 4172   0.023   4.020   2.025  0.1499 -0.0857  0.1065
 1044SOL     OW 4173   0.015   4.261   1.912 -0.3101 -0.1027  0.1789
 1044SOL    HW2 4174  -0.064   4.300   1.949 -0.1927 -0.4535  0.8014
 1044SOL    HW3 4175   0.087   4.302   1.961 -0.0898  0.4143 -0.5675
 1044SOL    MW4 4176   0.014   4.272   1.923 -0.2655 -0.0807  0.1625
 1045SOL     OW 4177   0.222   4.357   2.062 -0.2045 -0.6186  0.3305
 1045SOL    HW2 4178   0.235   4.366   2.156 -1.7771  1.5688  0.3752
 1045SOL    HW3 4179   0.214   4.447   2.029 -0.4534 -1.3632 -1.7652
 1045SOL    MW4 4180   0.223   4.370   2.070 -0.4448 -0.4282  0.0599
 1046SOL     OW 4181   0.669   0.014   1.931  0.3469 -0.2665 -0.0402
 1046SOL    HW2 4182   0.671  -0.080   1.951  1.6148 -0.4185 -0.8377
 1046SOL    HW3 4183   0.659   0.018   1.836  0.6553  0.4053 -0.0436
 1046SOL    MW4 4184   0.668   0.002   1.921  0.5549 -0.1979 -0.1459
 1047SOL     OW 4185   0.435   0.125   1.984 -0.3626 -0.0728  0.0365
 1047SOL    HW2 4186   0.431   0.212   1.946 -0.8463  0.3783  1.1020
 1047SOL    HW3 4187   0.524   0.094   1.966  0.1479  1.0647  0.5881
 1047SOL    MW4 4188   0.446   0.132   1.977 -0.3590  0.1368  0.2499
 1048SOL     OW 4189   0.423   0.391   1.909 -0.3354  0.3161 -0.0275
 1048SOL    HW2 4190   0.505   0.438   1.926 -0.7736  1.1395 -0.1893
 1048SOL    HW3 4191   0.431   0.362   1.818  1.4238 -2.9278  1.0508
 1048SOL    MW4 4192   0.435   0.393   1.899 -0.1611 -0.0033  0.0934
 1049SOL     OW 4193   0.667   0.534   2.001  0.2444  0.5181 -0.2185
 1049SOL    HW2 4194   0.660   0.525   2.096 -1.7225 -0.4421 -0.4115
 1049SOL    HW3 4195   0.747   0.487   1.978  0.9069  1.0424  0.9963
 1049SOL    MW4 4196   0.677   0.526   2.011  0.0723  0.4606 -0.0837
 1050SOL     OW 4197   0.671   0.804   1.921  0.1943 -0.2619 -0.2019
 1050SOL    HW2 4198   0.757   0.821   1.958 -0.4959 -0.0366  1.3444
 1050SOL    HW3 4199   0.650   0.715   1.951 -0.0697 -0.3574 -0.6651
 1050SOL    MW4 4200   0.679   0.794   1.930  0.0684 -0.2448 -0.0590
 1051SOL     OW 4201   0.454   0.923   2.028 -0.4600 -0.2013 -0.6356
 1051SOL    HW2 4202   0.451   1.016   2.002  2.4070  0.8339  2.3651
 1051SOL    HW3 4203   0.535   0.891   1.989  1.0981 -0.0578  2.3457
 1051SOL    MW4 4204   0.464   0.931   2.019  0.1238 -0.0458  0.1537
 1052SOL     OW 4205   0.447   1.179   1.915  0.0403  0.1389  0.1299
 1052SOL    HW2 4206   0.367   1.229   1.930  0.8355  1.2113  0.9420
 1052SOL    HW3 4207   0.442   1.150   1.824 -1.4955 -0.2243  0.3293
 1052SOL    MW4 4208   0.436   1.182   1.905 -0.0574  0.2325  0.2634
 1053SOL     OW 4209   0.671   1.298   2.014 -0.0102 -0.2883 -0.1817
 1053SOL    HW2 4210   0.667   1.290   2.109 -0.7969  0.4087 -0.1452
 1053SOL    HW3 4211   0.589   1.259   1.983 -0.2598  0.4777 -0.4988
 1053SOL    MW4 4212   0.660   1.292   2.022 -0.1469 -0.0953 -0.2187
 1054SOL     OW 4213   0.689   1.555   1.918 -0.3204  0.0055 -0.0371
 1054SOL    HW2 4214   0.713   1.469   1.952 -1.7776 -0.1061  0.7582
 1054SOL    HW3 4215   0.676   1.541   1.825 -0.5237 -0.6236  0.0853
 1054SOL    MW4 4216   0.691   1.542   1.911 -0.5395 -0.0922  0.0840
 1055SOL     OW 4217   0.444   1.686   1.994 -0.0504  0.2069  0.0042
 1055SOL    HW2 4218   0.428   1.672   2.087 -2.2105 -0.7214 -0.4872
 1055SOL    HW3 4219   0.527   1.640   1.976  0.1843  0.0950  1.3836
 1055SOL    MW4 4220   0.453   1.678   2.004 -0.3045  0.0697  0.1214
 1056SOL     OW 4221   0.472   1.952   1.898  0.1615  0.1949  0.1995
 1056SOL    HW2 4222   0.482   1.858   1.915  2.8058  0.3771 -0.0509
 1056SOL    HW3 4223   0.385   1.973   1.931 -0.5186 -2.3595  0.1932
 1056SOL    MW4 4224   0.462   1.942   1.905  0.4206 -0.1181  0.1657
 1057SOL     OW 4225   0.706   2.066   1.970 -0.2684 -0.2136  0.1703
 1057SOL    HW2 4226   0.709   2.053   2.064  0.8081 -1.9056 -0.0768
 1057SOL    HW3 4227   0.616   2.046   1.945 -0.3174 -0.6563  0.7102
 1057SOL    MW4 4228   0.695   2.062   1.979 -0.1328 -0.4953  0.2089
 1058SOL     OW 4229   0.664   2.341   1.933  0.1661 -0.1498 -0.0899
 1058SOL    HW2 4230   0.675   2.248   1.953  0.9432 -0.2258 -0.8672
 1058SOL    HW3 4231   0.681   2.348   1.839  1.5652  1.0021  0.2384
 1058SOL    MW4 4232   0.668   2.330   1.924  0.4533 -0.0079 -0.1492
 1059SOL     OW 4233   0.438   2.437   2.073  0.6060  0.3648 -0.2511
 1059SOL    HW2 4234   0.457   2.434   2.167 -1.4426 -1.5406  0.1620
 1059SOL    HW3 4235   0.516   2.402   2.031  0.8247 -0.5808  0.8979
 1059SOL    MW4 4236   0.451   2.432   2.080  0.3646 -0.0114 -0.0450
 1060SOL     OW 4237   0.442   2.675   1.937 -0.2632  0.2774  0.0081
 1060SOL    HW2 4238   0.448   2.596   1.991 -1.3907 -0.7043 -1.2840
 1060SOL    HW3 4239   0.367   2.723   1.972 -0.1212  0.3534  0.2144
 1060SOL    MW4 4240   0.433   2.671   1.949 -0.3932  0.1579 -0.1352
 1061SOL     OW 4241   0.661   2.805   2.024  0.4493  0.1118  0.2349
 1061SOL    HW2 4242   0.662   2.813   2.119  1.0520 -1.5827  0.3775
 1061SOL    HW3 4243   0.584   2.752   2.005  0.5280  0.1491 -0.1988
 1061SOL    MW4 4244   0.651   2.799   2.034  0.5392 -0.1068  0.1965
 1062SOL     OW 4245   0.621   3.065   1.945 -0.5606 -0.1967 -0.0512
 1062SOL    HW2 4246   0.632   2.974   1.972 -1.6380 -0.1615  0.5358
 1062SOL    HW3 4247   0.643   3.066   1.852  0.4373 -0.8623  0.1728
 1062SOL    MW4 4248   0.626   3.053   1.937 -0.5711 -0.2799  0.0558
 1063SOL     OW 4249   0.426   3.224   2.060  0.3048 -0.0130 -0.0901
 1063SOL    HW2 4250   0.449   3.311   2.026  0.7314 -0.4679 -0.9957
 1063SOL    HW3 4251   0.495   3.167   2.028  0.4131 -0.5663  1.1103
 1063SOL    MW4 4252   0.438   3.228   2.051  0.3754 -0.1460 -0.0512
 1064SOL     OW 4253   0.447   3.464   1.933  0.1677  0.2242 -0.2500
 1064SOL    HW2 4254   0.525   3.510   1.964 -0.2855 -0.0655  1.3644
 1064SOL    HW3 4255   0.437   3.492   1.842  2.5682 -0.3304 -0.7049
 1064SOL    MW4 4256   0.456   3.474   1.925  0.4246  0.1128 -0.0970
 1065SOL     OW 4257   0.657   3.624   2.031 -0.3833  0.2348 -0.3770
 1065SOL    HW2 4258   0.741   3.599   1.993 -0.4433 -0.6563  0.0525
 1065SOL    HW3 4259   0.639   3.711   1.996  0.3720  0.1268 -1.0398
 1065SOL    MW4 4260   0.666   3.632   2.021 -0.2916  0.1030 -0.4078
 1066SOL     OW 4261   0.640   3.879   1.956  0.3131 -0.0415  0.1045
 1066SOL    HW2 4262   0.726   3.917   1.972 -0.1764  0.7584  0.9150
 1066SOL    HW3 4263   0.636   3.869   1.861  2.2490 -2.4224  0.2436
 1066SOL    MW4 4264   0.651   3.883   1.946  0.5040 -0.2501  0.2298
 1067SOL     OW 4265   0.435   4.028   2.049  0.3228 -0.2133 -0.0999
 1067SOL    HW2 4266   0.447   4.116   2.012 -0.6972  0.5646  1.3655
 1067SOL    HW3 4267   0.501   3.975   2.005  0.6124  1.1678 -1.3979
 1067SOL    MW4 4268   0.445   4.033   2.038  0.2265  0.0716 -0.0778
 1068SOL     OW 4269   0.466   4.277   1.906  0.1483 -0.2449  0.2883
 1068SOL    HW2 4270   0.377   4.310   1.914  0.0631 -0.2683 -0.6137
 1068SOL    HW3 4271   0.486   4.281   1.813  1.2336  0.1537  0.5214
 1068SOL    MW4 4272   0.457   4.282   1.895  0.2803 -0.1954  0.2000
 1069SOL     OW 4273   0.665   4.426   2.003 -0.5939  0.1799 -0.0381
 1069SOL    HW2 4274   0.741   4.376   1.974 -1.1745 -0.5602 -0.3213
 1069SOL    HW3 4275   0.590   4.371   1.980 -1.1734  0.5009  1.0189
 1069SOL    MW4 4276   0.665   4.412   1.996 -0.7470  0.1246  0.0640
 1070SOL     OW 4277   1.078   4.624   1.917 -0.2653 -0.0250 -0.3449
 1070SOL    HW2 4278   1.164   4.665   1.925 -0.2708 -0.1726  0.5167
 1070SOL    HW3 4279   1.091   4.534   1.945 -1.2156  0.6087  2.2299
 1070SOL    MW4 4280   1.091   4.618   1.922 -0.3914  0.0391  0.1085
 1071SOL     OW 4281   0.902   0.127   2.048  0.0126 -0.1103  0.4821
 1071SOL    HW2 4282   0.951   0.050   2.018 -1.3089 -0.8300  0.1229
 1071SOL    HW3 4283   0.815   0.117   2.009 -0.7405  0.6229  1.9362
 1071SOL    MW4 4284   0.897   0.116   2.039 -0.2611 -0.1085  0.6265
 1072SOL     OW 4285   0.894   0.397   1.919  0.2410  0.2153  0.1004
 1072SOL    HW2 4286   0.969   0.449   1.948 -0.4613  1.0519  0.4619
 1072SOL    HW3 4287   0.907   0.312   1.960  1.6274 -0.0351 -0.8346
 1072SOL    MW4 4288   0.906   0.393   1.928  0.3313  0.2926  0.0247
 1073SOL     OW 4289   1.116   0.512   2.041 -0.1609  0.3920 -0.1731
 1073SOL    HW2 4290   1.178   0.454   1.997 -0.6321  0.0476 -0.3972
 1073SOL    HW3 4291   1.138   0.600   2.009  1.8063  0.5912  1.6503
 1073SOL    MW4 4292   1.127   0.516   2.031  0.0365  0.3728  0.0379
 1074SOL     OW 4293   1.131   0.740   1.896 -0.2748 -0.4501 -0.0178
 1074SOL    HW2 4294   1.206   0.797   1.909  0.0054 -0.4322 -1.5813
 1074SOL    HW3 4295   1.057   0.789   1.933  0.4653 -0.4324  1.4386
 1074SOL    MW4 4296   1.131   0.754   1.903 -0.1401 -0.4454 -0.0320
 1075SOL     OW 4297   0.927   0.882   1.998  0.0216 -0.2650 -0.1476
 1075SOL    HW2 4298   0.919   0.886   2.094  0.2014 -0.4228 -0.1257
 1075SOL    HW3 4299   0.901   0.969   1.968  0.8637  0.0797  0.1075
 1075SOL    MW4 4300   0.922   0.894   2.007  0.1564 -0.2403 -0.1111
 1076SOL     OW 4301   0.899   1.137   1.929 -0.2752 -0.2959  0.4973
 1076SOL    HW2 4302   0.822   1.186   1.958 -0.2578 -0.6146  1.0960
 1076SOL    HW3 4303   0.907   1.158   1.836 -1.2212 -0.4407  0.3740
 1076SOL    MW4 4304   0.890   1.146   1.921 -0.3977 -0.3571  0.5600
 1077SOL     OW 4305   1.132   1.249   1.989 -0.1717  0.1048 -0.3693
 1077SOL    HW2 4306   1.122   1.332   1.944 -1.5197  0.4793  0.6010
 1077SOL    HW3 4307   1.050   1.203   1.973  0.2880 -0.7493 -0.3092
 1077SOL    MW4 4308   1.120   1.254   1.981 -0.2889  0.0415 -0.2334
 1078SOL     OW 4309   1.118   1.509   1.896 -0.3957  0.3075 -0.0588
 1078SOL    HW2 4310   1.056   1.562   1.946 -0.8671 -0.1113 -0.1906
 1078SOL    HW3 4311   1.116   1.546   1.808 -1.0776 -0.2121 -0.2716
 1078SOL    MW4 4312   1.109   1.521   1.891 -0.5479  0.1837 -0.1042
 1079SOL     OW 4313   0.912   1.669   2.010  0.1221  0.6083  0.1770
 1079SOL    HW2 4314   0.914   1.758   1.973  1.4995  0.3273 -0.4528
 1079SOL    HW3 4315   0.837   1.628   1.968 -1.2506  1.8357  1.3558
 1079SOL    MW4 4316   0.902   1.676   1.999  0.1227  0.7332  0.2495
 1080SOL     OW 4317   0.926   1.915   1.879 -0.0650 -0.6741 -0.2802
 1080SOL    HW2 4318   0.837   1.951   1.884 -0.1607 -0.7927 -1.0308
 1080SOL    HW3 4319   0.937   1.892   1.787  1.3771  0.9352 -0.5352
 1080SOL    MW4 4320   0.916   1.917   1.868  0.1126 -0.4775 -0.4129
 1081SOL     OW 4321   1.110   2.061   2.039 -0.6135 -0.2104  0.2270
 1081SOL    HW2 4322   1.120   2.145   1.993 -1.8050  0.2451  0.7969
 1081SOL    HW3 4323   1.038   2.017   1.993  0.1258 -1.0152 -0.1882
 1081SOL    MW4 4324   1.102   2.066   2.027 -0.6732 -0.2565  0.2474
 1082SOL     OW 4325   1.128   2.316   1.918 -0.2473 -0.0213 -0.1237
 1082SOL    HW2 4326   1.216   2.353   1.925  0.8234 -2.4065 -0.4892
 1082SOL    HW3 4327   1.112   2.312   1.824 -0.8370  0.5446 -0.0552
 1082SOL    MW4 4328   1.137   2.321   1.906 -0.1838 -0.2613 -0.1629
 1083SOL     OW 4329   0.907   2.427   2.033  0.3523  0.1121  0.0919
 1083SOL    HW2 4330   0.974   2.382   1.982 -1.0206 -0.3708 -1.3248
 1083SOL    HW3 4331   0.824   2.393   1.999 -0.6729  2.4708  0.1453
 1083SOL    MW4 4332   0.905   2.417   2.022  0.0359  0.3596 -0.0880
 1084SOL     OW 4333   0.918   2.717   1.938  0.0355 -0.5547  0.0465
 1084SOL    HW2 4334   0.924   2.628   1.973 -0.4837 -0.1741  1.1598
 1084SOL    HW3 4335   0.830   2.746   1.964  0.7750  0.8346  1.0884
 1084SOL    MW4 4336   0.907   2.709   1.946  0.0646 -0.3212  0.3309
 1085SOL     OW 4337   1.097   2.920   2.031  0.1700 -0.2155  0.0049
 1085SOL    HW2 4338   1.091   2.903   2.125  2.6233 -0.3215  0.1674
 1085SOL    HW3 4339   1.031   2.861   1.993 -0.1576 -0.9024  1.5639
 1085SOL    MW4 4340   1.087   2.910   2.039  0.4505 -0.3201  0.2321
 1086SOL     OW 4341   1.143   3.150   1.914 -0.3565 -0.1302 -0.1739
 1086SOL    HW2 4342   1.057   3.190   1.924 -0.0563  0.2025  1.2044
 1086SOL    HW3 4343   1.142   3.073   1.972  0.4163  0.1475  0.2280
 1086SOL    MW4 4344   1.132   3.145   1.923 -0.2149 -0.0496  0.0610
 1087SOL     OW 4345   0.874   3.223   2.003 -0.3913 -0.4343 -0.3078
 1087SOL    HW2 4346   0.874   3.229   2.099 -0.3763 -0.3682 -0.3117
 1087SOL    HW3 4347   0.804   3.162   1.983 -1.0806  0.3530 -0.3079
 1087SOL    MW4 4348   0.865   3.216   2.013 -0.4803 -0.3217 -0.3083
 1088SOL     OW 4349   0.863   3.478   1.915 -0.1921  0.4630 -0.2006
 1088SOL    HW2 4350   0.866   3.397   1.967 -3.3062  0.4023 -0.0041
 1088SOL    HW3 4351   0.882   3.449   1.826  3.1756  0.2500  0.5350
 1088SOL    MW4 4352   0.866   3.463   1.910 -0.1586  0.4269 -0.0776
 1089SOL     OW 4353   1.108   3.582   2.001 -0.3083 -0.5771 -0.1789
 1089SOL    HW2 4354   1.099   3.581   2.096  0.1205 -0.4079 -0.1352
 1089SOL    HW3 4355   1.026   3.544   1.969  0.0987 -1.8546  0.2916
 1089SOL    MW4 4356   1.096   3.577   2.009 -0.1980 -0.7234 -0.1111
 1090SOL     OW 4357   1.115   3.878   1.941  0.1201 -0.3451  0.1228
 1090SOL    HW2 4358   1.109   3.784   1.958 -0.4549 -0.3251  0.0317
 1090SOL    HW3 4359   1.109   3.886   1.846 -1.1009 -0.1238  0.2146
 1090SOL    MW4 4360   1.113   3.867   1.931 -0.1169 -0.3133  0.1229
 1091SOL     OW 4361   0.881   4.001   2.021  0.0079 -0.1301 -0.2073
 1091SOL    HW2 4362   0.898   4.004   2.115  1.3729  0.3282 -0.4536
 1091SOL    HW3 4363   0.957   3.954   1.985 -0.6932 -0.6433 -1.0355
 1091SOL    MW4 4364   0.893   3.995   2.028  0.0955 -0.1374 -0.3491
 1092SOL     OW 4365   0.874   4.252   1.888  0.3214 -0.2326 -0.2021
 1092SOL    HW2 4366   0.951   4.291   1.929  0.0842 -0.4050  0.4236
 1092SOL    HW3 4367   0.860   4.171   1.937  1.5171 -1.7218 -2.2493
 1092SOL    MW4 4368   0.882   4.246   1.900  0.4478 -0.4518 -0.3896
 1093SOL     OW 4369   1.112   4.364   1.997 -0.1961  0.7420  0.2896
 1093SOL    HW2 4370   1.125   4.363   2.092 -0.3536  0.3748  0.3062
 1093SOL    HW3 4371   1.200   4.350   1.961 -0.4720 -1.4245  0.4040
 1093SOL    MW4 4372   1.125   4.362   2.004 -0.2532  0.4077  0.3069
 1094SOL     OW 4373   1.563   4.622   1.880  0.0182 -0.6537 -0.3600
 1094SOL    HW2 4374   1.641   4.671   1.905  0.2762 -1.3693  0.2709
 1094SOL    HW3 4375   1.582   4.532   1.908 -1.1396 -0.7763  0.0557
 1094SOL    MW4 4376   1.576   4.617   1.887 -0.1005 -0.7643 -0.2220
 1095SOL     OW 4377   1.336   0.068   1.983  0.2843  0.1465  0.6858
 1095SOL    HW2 4378   1.342   0.065   2.079 -0.9301  0.7059  0.7855
 1095SOL    HW3 4379   1.406   0.009   1.953  0.3185 -0.4631  1.9181
 1095SOL    MW4 4380   1.346   0.060   1.992  0.1286  0.1399  0.8615
 1096SOL     OW 4381   1.304   0.354   1.925 -0.0636 -0.3020 -0.0426
 1096SOL    HW2 4382   1.302   0.259   1.931 -1.7019 -0.2865 -0.1827
 1096SOL    HW3 4383   1.310   0.373   1.831  0.4208 -0.2593 -0.0065
 1096SOL    MW4 4384   1.304   0.344   1.914 -0.2159 -0.2943 -0.0563
 1097SOL     OW 4385   1.517   0.459   2.054 -0.2749 -0.0339  0.0873
 1097SOL    HW2 4386   1.582   0.423   1.995 -0.1467  0.0575  0.1731
 1097SOL    HW3 4387   1.433   0.430   2.018 -0.2269  0.5030 -0.4621
 1097SOL    MW4 4388   1.514   0.451   2.042 -0.2517  0.0490  0.0261
 1098SOL     OW 4389   1.560   0.735   1.930 -0.1640  0.0462  0.2719
 1098SOL    HW2 4390   1.631   0.779   1.977  0.4546 -1.1504  0.4835
 1098SOL    HW3 4391   1.560   0.646   1.965  0.1907 -0.8315 -1.8584
 1098SOL    MW4 4392   1.570   0.729   1.941 -0.0356 -0.2275  0.0188
 1099SOL     OW 4393   1.350   0.900   2.010 -0.0830  0.0256 -0.1033
 1099SOL    HW2 4394   1.366   0.902   2.104  1.1662  0.9723 -0.3187
 1099SOL    HW3 4395   1.427   0.857   1.973 -0.2355  0.2964 -0.7534
 1099SOL    MW4 4396   1.362   0.895   2.017  0.0617  0.1862 -0.2175
 1100SOL     OW 4397   1.357   1.155   1.893  0.2005 -0.2834 -0.6347
 1100SOL    HW2 4398   1.366   1.065   1.924  0.3825  0.0299  0.2432
 1100SOL    HW3 4399   1.266   1.179   1.914  0.2442 -0.1603 -0.5818
 1100SOL    MW4 4400   1.346   1.147   1.900  0.2303 -0.2258 -0.5119
 1101SOL     OW 4401   1.546   1.301   2.017 -0.1652  0.2567 -0.3946
 1101SOL    HW2 4402   1.545   1.381   1.964  0.2617  0.2722 -0.3876
 1101SOL    HW3 4403   1.470   1.251   1.987  0.6356 -0.1909 -1.7569
 1101SOL    MW4 4404   1.536   1.305   2.006 -0.0032  0.1997 -0.5734
 1102SOL     OW 4405   1.523   1.537   1.870 -0.0358  0.2660 -0.5011
 1102SOL    HW2 4406   1.597   1.585   1.909 -0.0103  1.9791 -2.5551
 1102SOL    HW3 4407   1.446   1.571   1.916  0.3723 -1.0079  1.1563
 1102SOL    MW4 4408   1.523   1.548   1.881  0.0214  0.3239 -0.5534
 1103SOL     OW 4409   1.325   1.650   2.020 -0.1142  0.1817  0.1198
 1103SOL    HW2 4410   1.311   1.645   2.115  0.9383 -0.9499  0.2147
 1103SOL    HW3 4411   1.252   1.601   1.982 -0.4831  0.5544  0.3426
 1103SOL    MW4 4412   1.313   1.643   2.028 -0.0240  0.0816  0.1617
 1104SOL     OW 4413   1.296   1.913   1.908  0.5947 -0.5605  0.1183
 1104SOL    HW2 4414   1.299   1.833   1.962  0.6588 -0.4452  0.2859
 1104SOL    HW3 4415   1.240   1.973   1.957 -1.6028 -1.4110 -1.2554
 1104SOL    MW4 4416   1.289   1.910   1.922  0.3132 -0.6575 -0.0408
 1105SOL     OW 4417   1.547   2.015   1.987  0.3543  0.3955 -0.0843
 1105SOL    HW2 4418   1.550   2.104   1.953  1.5779  0.8435  1.1578
 1105SOL    HW3 4419   1.470   1.976   1.946 -1.7360  2.8630  1.3983
 1105SOL    MW4 4420   1.537   2.021   1.977  0.2400  0.7802  0.2752
 1106SOL     OW 4421   1.573   2.263   1.892 -0.1865 -0.4153 -0.1778
 1106SOL    HW2 4422   1.647   2.320   1.912  0.0154 -0.5453 -0.5449
 1106SOL    HW3 4423   1.569   2.262   1.796 -0.3452 -0.8231 -0.1684
 1106SOL    MW4 4424   1.582   2.271   1.882 -0.1808 -0.4862 -0.2250
 1107SOL     OW 4425   1.387   2.435   1.994  0.2109 -0.1519  0.1175
 1107SOL    HW2 4426   1.403   2.520   1.952 -1.0068  0.7386  1.3905
 1107SOL    HW3 4427   1.450   2.376   1.954  0.6734  1.2249 -1.2295
 1107SOL    MW4 4428   1.397   2.439   1.983  0.1112  0.1472  0.1078
 1108SOL     OW 4429   1.358   2.737   1.872  0.3300  0.2775  0.2404
 1108SOL    HW2 4430   1.273   2.781   1.881  0.6306  1.3130 -1.7034
 1108SOL    HW3 4431   1.360   2.707   1.781  1.5681 -0.7746  0.5984
 1108SOL    MW4 4432   1.347   2.739   1.861  0.5330  0.2753  0.0312
 1109SOL     OW 4433   1.572   2.872   1.941  0.4594  0.2545 -0.0157
 1109SOL    HW2 4434   1.639   2.804   1.945  0.0922 -0.0362  1.3062
 1109SOL    HW3 4435   1.495   2.827   1.906 -0.3894 -0.5350  2.7458
 1109SOL    MW4 4436   1.571   2.857   1.937  0.2990  0.1120  0.5231
 1110SOL     OW 4437   1.594   3.150   1.891  0.2336 -0.0208 -0.2889
 1110SOL    HW2 4438   1.589   3.056   1.908 -1.7311 -0.1943 -1.7226
 1110SOL    HW3 4439   1.595   3.158   1.796  1.0045  1.3941 -0.1807
 1110SOL    MW4 4440   1.593   3.139   1.881  0.0761  0.1430 -0.4637
 1111SOL     OW 4441   1.384   3.275   2.016  0.2555 -0.6718 -0.4309
 1111SOL    HW2 4442   1.441   3.223   1.960 -1.3204 -1.0036 -1.7896
 1111SOL    HW3 4443   1.296   3.243   1.996 -0.6436  1.6487 -0.3913
 1111SOL    MW4 4444   1.380   3.264   2.006 -0.0711 -0.4094 -0.6050
 1112SOL     OW 4445   1.350   3.519   1.898  0.0710  0.0259 -0.0083
 1112SOL    HW2 4446   1.369   3.433   1.933  0.3523  0.6513  1.3927
 1112SOL    HW3 4447   1.264   3.541   1.933  0.2722  0.5772  0.1458
 1112SOL    MW4 4448   1.341   3.511   1.907  0.1347  0.1812  0.1969
 1113SOL     OW 4449   1.555   3.669   1.973  0.0185  0.2931 -0.1631
 1113SOL    HW2 4450   1.529   3.678   2.065  0.5156  0.3176 -0.0238
 1113SOL    HW3 4451   1.485   3.617   1.933  0.5912 -1.0718  0.5912
 1113SOL    MW4 4452   1.542   3.663   1.980  0.1597  0.1162 -0.0452
 1114SOL     OW 4453   1.554   3.905   1.850  0.1892 -0.0355  0.2506
 1114SOL    HW2 4454   1.639   3.932   1.884  0.4376  0.8267 -1.0309
 1114SOL    HW3 4455   1.535   3.823   1.895  3.1472 -1.9023 -1.7476
 1114SOL    MW4 4456   1.563   3.898   1.861  0.6122 -0.1681 -0.1821
 1115SOL     OW 4457   1.348   4.022   2.009  0.0248 -0.2825  0.3377
 1115SOL    HW2 4458   1.424   3.986   1.963 -0.6308 -0.7755 -0.3824
 1115SOL    HW3 4459   1.276   3.964   1.984 -0.8335  0.9269  0.0083
 1115SOL    MW4 4460   1.349   4.009   2.000 -0.1749 -0.1880  0.1993
 1116SOL     OW 4461   1.363   4.279   1.893  0.2049 -0.6485  0.3280
 1116SOL    HW2 4462   1.355   4.189   1.925  0.0394 -0.8223 -0.1964
 1116SOL    HW3 4463   1.380   4.270   1.799  0.4734 -0.1385  0.3224
 1116SOL    MW4 4464   1.364   4.266   1.884  0.2185 -0.6041  0.2581
 1117SOL     OW 4465   1.620   4.373   1.985 -0.7195 -0.1946 -0.0351
 1117SOL    HW2 4466   1.600   4.393   2.076 -3.0569  1.2077 -0.8142
 1117SOL    HW3 4467   1.543   4.327   1.953  0.2588 -1.0652 -1.1997
 1117SOL    MW4 4468   1.607   4.369   1.993 -0.8988 -0.1245 -0.2915
 1118SOL     OW 4469   2.010   4.635   1.890  0.6839 -0.2349 -0.1482
 1118SOL    HW2 4470   2.092   4.684   1.899  0.4517 -0.3063  2.6496
 1118SOL    HW3 4471   2.030   4.549   1.926 -0.8630  0.0207  1.3305
 1118SOL    MW4 4472   2.024   4.630   1.896  0.4492 -0.2106  0.4160
 1119SOL     OW 4473   1.812   0.121   1.968  0.2396  0.6243  0.4026
 1119SOL    HW2 4474   1.822   0.125   2.063 -0.5116 -0.0900  0.5149
 1119SOL    HW3 4475   1.883   0.065   1.939 -0.1173  0.0474  0.6422
 1119SOL    MW4 4476   1.823   0.114   1.977  0.0934  0.4540  0.4490
 1120SOL     OW 4477   1.735   0.380   1.896  0.3698 -0.1856 -0.0849
 1120SOL    HW2 4478   1.765   0.291   1.914  0.3290 -0.2145 -0.1582
 1120SOL    HW3 4479   1.735   0.386   1.800 -1.0202 -0.5843 -0.1210
 1120SOL    MW4 4480   1.739   0.369   1.886  0.1810 -0.2420 -0.0994
 1121SOL     OW 4481   1.953   0.513   2.015  0.1764  0.2743 -0.4361
 1121SOL    HW2 4482   1.963   0.603   1.987  0.8805  0.4737  0.4119
 1121SOL    HW3 4483   1.870   0.484   1.977  0.7616  0.7437 -2.0992
 1121SOL    MW4 4484   1.943   0.521   2.007  0.3465  0.3625 -0.5437
 1122SOL     OW 4485   1.970   0.790   1.922  0.8371 -0.7815  0.3844
 1122SOL    HW2 4486   2.047   0.846   1.932 -1.4238  2.2771  1.4391
 1122SOL    HW3 4487   1.958   0.783   1.828  0.7394  1.1994  0.2181
 1122SOL    MW4 4488   1.978   0.797   1.911  0.5259 -0.1166  0.5016
 1123SOL     OW 4489   1.745   0.912   2.063 -0.8174  0.0442  0.1928
 1123SOL    HW2 4490   1.739   0.993   2.012  0.5353 -0.1192 -0.2402
 1123SOL    HW3 4491   1.830   0.874   2.038 -1.4075 -1.4717  0.4443
 1123SOL    MW4 4492   1.756   0.918   2.053 -0.7168 -0.1773  0.1689
 1124SOL     OW 4493   1.766   1.152   1.911 -0.6451  0.2993 -0.4029
 1124SOL    HW2 4494   1.693   1.206   1.941 -0.4522  0.8585 -0.9188
 1124SOL    HW3 4495   1.746   1.134   1.820 -1.3226 -1.5533  0.1054
 1124SOL    MW4 4496   1.754   1.157   1.903 -0.7090  0.1287 -0.4039
 1125SOL     OW 4497   1.997   1.247   2.052  0.4330  0.1239  0.0875
 1125SOL    HW2 4498   2.067   1.207   2.000  0.2781 -1.0634  0.7789
 1125SOL    HW3 4499   1.916   1.211   2.017  0.1934  1.0975 -0.3670
 1125SOL    MW4 4500   1.996   1.237   2.041  0.3809  0.0957  0.1188
 1126SOL     OW 4501   1.983   1.504   1.966 -0.0810 -0.0911 -0.4447
 1126SOL    HW2 4502   1.977   1.413   1.996 -0.9361 -0.0560 -0.4951
 1126SOL    HW3 4503   1.989   1.497   1.870  0.4970 -0.1209 -0.4050
 1126SOL    MW4 4504   1.983   1.491   1.957 -0.1176 -0.0904 -0.4461
 1127SOL     OW 4505   1.739   1.663   2.000  0.5942 -0.0376 -0.0725
 1127SOL    HW2 4506   1.752   1.757   1.987  1.1008 -0.0740  0.1389
 1127SOL    HW3 4507   1.828   1.627   2.002  0.4277 -0.4173  0.6067
 1127SOL    MW4 4508   1.753   1.670   1.999  0.6391 -0.0925  0.0450
 1128SOL     OW 4509   1.781   1.917   1.944 -0.0387 -0.3263 -0.6113
 1128SOL    HW2 4510   1.691   1.949   1.953 -0.5607 -1.7640 -0.6708
 1128SOL    HW3 4511   1.795   1.912   1.850  0.2735  0.3297 -0.6060
 1128SOL    MW4 4512   1.771   1.921   1.933 -0.0664 -0.4295 -0.6184
 1129SOL     OW 4513   1.984   2.090   2.029  0.5405 -0.3323  0.4283
 1129SOL    HW2 4514   2.062   2.039   2.006  1.2804  1.2638 -0.6718
 1129SOL    HW3 4515   1.911   2.032   2.008  1.3207 -0.3877 -2.3494
 1129SOL    MW4 4516   1.985   2.075   2.023  0.7411 -0.1290 -0.0833
 1130SOL     OW 4517   2.051   2.308   1.872 -0.0350 -0.2738  0.4640
 1130SOL    HW2 4518   2.126   2.364   1.895 -0.4458  0.4190  0.1294
 1130SOL    HW3 4519   2.050   2.241   1.940  0.5620  0.0354  0.7843
 1130SOL    MW4 4520   2.061   2.306   1.884 -0.0105 -0.1416  0.4621
 1131SOL     OW 4521   1.803   2.411   1.962 -0.1858  0.2945 -0.9538
 1131SOL    HW2 4522   1.798   2.415   2.057 -1.1163 -0.9410 -0.9424
 1131SOL    HW3 4523   1.882   2.358   1.944 -1.3539 -1.5443 -0.8194
 1131SOL    MW4 4524   1.813   2.404   1.972 -0.4627 -0.1111 -0.9346
 1132SOL     OW 4525   1.782   2.687   1.897 -0.1933 -0.4817 -0.1668
 1132SOL    HW2 4526   1.781   2.591   1.901 -2.2844 -0.5317 -1.1098
 1132SOL    HW3 4527   1.777   2.707   1.804 -0.8081  0.5315  0.0694
 1132SOL    MW4 4528   1.781   2.677   1.885 -0.5503 -0.3546 -0.2601
 1133SOL     OW 4529   2.004   2.855   2.014 -0.1561 -0.2179  0.0341
 1133SOL    HW2 4530   2.023   2.859   2.108  0.2993 -3.0221  0.1293
 1133SOL    HW3 4531   1.934   2.790   2.007  0.2806 -0.5247 -1.6243
 1133SOL    MW4 4532   1.997   2.847   2.025 -0.0384 -0.6284 -0.1721
 1134SOL     OW 4533   2.030   3.130   1.918  0.4713  0.1859  0.0225
 1134SOL    HW2 4534   1.953   3.178   1.949  1.5072  0.9691  1.4366
 1134SOL    HW3 4535   2.016   3.040   1.949  0.7261  0.6098  1.4353
 1134SOL    MW4 4536   2.018   3.124   1.926  0.6416  0.3451  0.3955
 1135SOL     OW 4537   1.817   3.294   2.000  0.2384 -0.1739  0.3852
 1135SOL    HW2 4538   1.810   3.289   2.096 -1.8010  0.3705  0.2921
 1135SOL    HW3 4539   1.740   3.247   1.968 -0.4475  1.7581 -0.9237
 1135SOL    MW4 4540   1.806   3.287   2.009 -0.1211  0.1528  0.2002
 1136SOL     OW 4541   1.784   3.548   1.895  0.0089  0.0698  0.6828
 1136SOL    HW2 4542   1.781   3.461   1.936 -0.3545  0.4874  1.5438
 1136SOL    HW3 4543   1.703   3.590   1.921  0.0945  0.6027  0.1049
 1136SOL    MW4 4544   1.773   3.542   1.904 -0.0277  0.1952  0.7201
 1137SOL     OW 4545   2.035   3.617   2.008  0.0048 -0.3462 -0.0076
 1137SOL    HW2 4546   2.045   3.698   1.959  1.1239 -0.1104  0.5952
 1137SOL    HW3 4547   1.958   3.575   1.970 -0.8583  1.2184 -0.0020
 1137SOL    MW4 4548   2.026   3.622   1.996  0.0385 -0.1087  0.0727
 1138SOL     OW 4549   2.073   3.853   1.885 -0.3438 -0.3151 -0.9213
 1138SOL    HW2 4550   2.158   3.893   1.907 -0.3903 -1.2625  1.0809
 1138SOL    HW3 4551   2.065   3.865   1.791  1.0175  1.7369 -0.8113
 1138SOL    MW4 4552   2.083   3.860   1.876 -0.1703 -0.1694 -0.6426
 1139SOL     OW 4553   1.824   3.942   1.956 -0.0160  0.0048 -0.1850
 1139SOL    HW2 4554   1.848   4.032   1.936 -1.5316  0.5955  0.5916
 1139SOL    HW3 4555   1.907   3.894   1.951  1.1632  1.8034  1.4782
 1139SOL    MW4 4556   1.838   3.947   1.952 -0.0604  0.3200  0.1369
 1140SOL     OW 4557   1.827   4.245   1.874 -0.4481 -0.5698  0.0516
 1140SOL    HW2 4558   1.757   4.294   1.917 -0.5001 -1.2932  0.8013
 1140SOL    HW3 4559   1.814   4.261   1.780  0.1834  1.7210  0.3302
 1140SOL    MW4 4560   1.816   4.253   1.867 -0.3717 -0.3630  0.1873
 1141SOL     OW 4561   2.051   4.368   2.018  0.3919  0.3166 -0.2841
 1141SOL    HW2 4562   2.127   4.328   1.976  0.1030 -1.3045  0.6842
 1141SOL    HW3 4563   1.975   4.329   1.973  0.1173  1.9818 -1.2983
 1141SOL    MW4 4564   2.051   4.357   2.007  0.3175  0.3224 -0.2902
 1142SOL     OW 4565   2.475   0.037   1.930  0.2008  0.0694  0.6548
 1142SOL    HW2 4566   2.557   0.072   1.967  0.0984  0.2485  0.7156
 1142SOL    HW3 4567   2.466  -0.049   1.970  0.8446 -0.3345 -0.0774
 1142SOL    MW4 4568   2.484   0.030   1.940  0.2722  0.0397  0.5662
 1143SOL     OW 4569   2.210   0.104   2.014  0.2039  0.0781  0.1914
 1143SOL    HW2 4570   2.209   0.084   2.108  0.1661  0.5127  0.2864
 1143SOL    HW3 4571   2.301   0.093   1.988  0.1055 -0.6152  0.1553
 1143SOL    MW4 4572   2.222   0.100   2.023  0.1859  0.0440  0.1992
 1144SOL     OW 4573   2.185   0.389   1.931  0.1719  0.7981 -0.3140
 1144SOL    HW2 4574   2.199   0.303   1.972  0.0426  0.5225 -0.8476
 1144SOL    HW3 4575   2.099   0.416   1.962 -0.0477  0.4621 -0.6267
 1144SOL    MW4 4576   2.176   0.381   1.941  0.1258  0.7174 -0.4257
 1145SOL     OW 4577   2.434   0.499   2.016  0.1757 -0.2609  0.3316
 1145SOL    HW2 4578   2.517   0.459   1.993  0.4249 -0.7809  2.0361
 1145SOL    HW3 4579   2.368   0.441   1.980  0.5388  0.2905 -1.2525
 1145SOL    MW4 4580   2.436   0.486   2.009  0.2565 -0.2567  0.3475
 1146SOL     OW 4581   2.476   0.748   1.917 -0.1429  0.2323 -0.2022
 1146SOL    HW2 4582   2.451   0.665   1.959  0.3994 -0.3095 -0.9209
 1146SOL    HW3 4583   2.443   0.740   1.828  0.0977  0.7068 -0.3330
 1146SOL    MW4 4584   2.469   0.736   1.911 -0.0396  0.2234 -0.3143
 1147SOL     OW 4585   2.238   0.875   2.013 -0.1416 -0.3505 -0.1626
 1147SOL    HW2 4586   2.233   0.833   2.099  0.1284 -0.3929 -0.1703
 1147SOL    HW3 4587   2.327   0.858   1.982  0.4881  1.5852  0.5308
 1147SOL    MW4 4588   2.249   0.867   2.020 -0.0229 -0.1007 -0.0722
 1148SOL     OW 4589   2.219   1.141   1.932  0.2058  0.4019 -0.2226
 1148SOL    HW2 4590   2.293   1.178   1.980  0.3266 -0.8838  0.6074
 1148SOL    HW3 4591   2.220   1.048   1.955 -0.6394  0.0551 -1.5474
 1148SOL    MW4 4592   2.229   1.133   1.941  0.1102  0.1865 -0.2879
 1149SOL     OW 4593   2.450   1.236   2.010  0.1150  0.4004  0.4087
 1149SOL    HW2 4594   2.434   1.231   2.104  1.1705  2.1044  0.7064
 1149SOL    HW3 4595   2.451   1.330   1.991  0.4806  0.0868 -1.1986
 1149SOL    MW4 4596   2.448   1.248   2.020  0.3025  0.5839  0.2359
 1150SOL     OW 4597   2.426   1.518   1.925 -0.8485  0.1652 -0.3744
 1150SOL    HW2 4598   2.347   1.568   1.945 -1.5636 -0.9139 -0.4739
 1150SOL    HW3 4599   2.442   1.532   1.832  0.5691  2.4833  0.1897
 1150SOL    MW4 4600   2.418   1.526   1.916 -0.7558  0.3287 -0.3131
 1151SOL     OW 4601   2.202   1.657   2.025  0.0988 -0.2598  0.5724
 1151SOL    HW2 4602   2.205   1.686   2.116  0.1965  0.6983  0.2710
 1151SOL    HW3 4603   2.130   1.593   2.022  0.0600 -0.2477  1.3029
 1151SOL    MW4 4604   2.193   1.652   2.036  0.1066 -0.1318  0.6290
 1152SOL     OW 4605   2.215   1.933   1.933  0.5451  0.2377 -0.0114
 1152SOL    HW2 4606   2.303   1.969   1.948  0.2449  2.2258 -2.6118
 1152SOL    HW3 4607   2.220   1.844   1.967  3.5884  0.2905 -0.1129
 1152SOL    MW4 4608   2.227   1.926   1.939  0.9071  0.5070 -0.3679
 1153SOL     OW 4609   2.462   2.033   1.997 -0.3523 -0.2185  0.1564
 1153SOL    HW2 4610   2.538   1.992   1.956  0.7028  0.9288  0.9426
 1153SOL    HW3 4611   2.471   2.127   1.977 -2.7420 -0.3083 -1.6373
 1153SOL    MW4 4612   2.473   2.040   1.989 -0.5284 -0.0790  0.0234
 1154SOL     OW 4613   2.488   2.299   1.916 -0.2155  0.3158 -0.2761
 1154SOL    HW2 4614   2.576   2.335   1.920  0.0066 -0.1444 -0.9120
 1154SOL    HW3 4615   2.432   2.368   1.953  0.5122  0.2256  0.9961
 1154SOL    MW4 4616   2.492   2.313   1.921 -0.0902  0.2432 -0.1922
 1155SOL     OW 4617   2.247   2.450   1.974 -0.3647 -0.1654 -0.4413
 1155SOL    HW2 4618   2.254   2.452   2.070 -0.9165 -1.1250 -0.3661
 1155SOL    HW3 4619   2.256   2.541   1.947 -2.5421  0.4499  0.7221
 1155SOL    MW4 4620   2.249   2.462   1.983 -0.7248 -0.2109 -0.2778
 1156SOL     OW 4621   2.246   2.725   1.912  0.1458 -0.3225 -0.3877
 1156SOL    HW2 4622   2.162   2.764   1.936  0.7256  1.1369 -0.7324
 1156SOL    HW3 4623   2.247   2.725   1.817  0.0857 -1.3491 -0.4017
 1156SOL    MW4 4624   2.235   2.730   1.903  0.2144 -0.2654 -0.4351
 1157SOL     OW 4625   2.483   2.855   2.033 -0.2791  0.1740 -0.1063
 1157SOL    HW2 4626   2.479   2.949   2.017 -1.0160  0.3157  0.8742
 1157SOL    HW3 4627   2.400   2.822   2.000 -0.4791  0.0242  0.5395
 1157SOL    MW4 4628   2.472   2.863   2.026 -0.4027  0.1730  0.1083
 1158SOL     OW 4629   2.485   3.114   1.957 -0.1432 -0.2162 -0.2365
 1158SOL    HW2 4630   2.412   3.167   1.989 -0.4574  0.3456 -1.8615
 1158SOL    HW3 4631   2.479   3.119   1.862  1.3633 -1.0660 -0.3921
 1158SOL    MW4 4632   2.475   3.121   1.949  0.0141 -0.2542 -0.4714
 1159SOL     OW 4633   2.256   3.260   2.007 -0.1449  0.1279 -0.2659
 1159SOL    HW2 4634   2.246   3.243   2.100  0.0699 -0.2545 -0.3107
 1159SOL    HW3 4635   2.181   3.218   1.966  0.6161 -1.1056 -0.4195
 1159SOL    MW4 4636   2.245   3.252   2.014 -0.0162 -0.0853 -0.2921
 1160SOL     OW 4637   2.280   3.505   1.910 -0.2003 -0.5935 -0.7094
 1160SOL    HW2 4638   2.280   3.421   1.956  0.4147 -0.9349 -1.3168
 1160SOL    HW3 4639   2.201   3.550   1.941  0.2614 -0.7593  0.7564
 1160SOL    MW4 4640   2.270   3.500   1.920 -0.0583 -0.6604 -0.5961
 1161SOL     OW 4641   2.514   3.636   2.008 -0.3150 -0.1963 -0.5764
 1161SOL    HW2 4642   2.522   3.640   2.104  0.4950 -0.4791 -0.6346
 1161SOL    HW3 4643   2.426   3.602   1.994 -0.1963 -0.7906  0.0756
 1161SOL    MW4 4644   2.503   3.632   2.019 -0.1925 -0.3120 -0.4981
 1162SOL     OW 4645   2.520   3.867   1.875  0.3969  0.3483 -0.0327
 1162SOL    HW2 4646   2.443   3.919   1.900 -0.0312 -0.5481  0.5611
 1162SOL    HW3 4647   2.512   3.788   1.928  2.5627  0.9125  1.1944
 1162SOL    MW4 4648   2.509   3.864   1.886  0.6262  0.3045  0.2076
 1163SOL     OW 4649   2.312   4.010   1.985  0.2811  0.5588  0.2021
 1163SOL    HW2 4650   2.298   4.008   2.079  1.6991  0.7501  0.4332
 1163SOL    HW3 4651   2.287   4.098   1.958 -0.4980  0.3783  0.3355
 1163SOL    MW4 4652   2.307   4.021   1.994  0.3654  0.5602  0.2502
 1164SOL     OW 4653   2.265   4.282   1.894  0.4127 -0.0138  0.1883
 1164SOL    HW2 4654   2.336   4.338   1.923  1.8866 -1.5940 -0.2427
 1164SOL    HW3 4655   2.267   4.288   1.798  1.2129 -1.4960  0.0899
 1164SOL    MW4 4656   2.274   4.290   1.885  0.7128 -0.4178  0.1184
 1165SOL     OW 4657   2.467   4.423   2.008 -0.1407  0.1786 -0.0308
 1165SOL    HW2 4658   2.488   4.420   2.102 -0.2981 -0.4381 -0.0117
 1165SOL    HW3 4659   2.544   4.385   1.966  0.3392  1.3607 -0.2203
 1165SOL    MW4 4660   2.480   4.418   2.015 -0.0981  0.2532 -0.0532
 1166SOL     OW 4661   2.934   4.659   1.950 -0.1781 -0.2210  0.1801
 1166SOL    HW2 4662   3.016   4.707   1.964 -0.8719  0.8929  0.5211
 1166SOL    HW3 4663   2.955   4.569   1.974  1.0029  0.0146  0.0693
 1166SOL    MW4 4664   2.948   4.653   1.955 -0.1138 -0.0430  0.2105
 1167SOL     OW 4665   2.721   0.142   2.044 -0.4796 -0.5243 -0.1421
 1167SOL    HW2 4666   2.713   0.122   2.137  2.4838  1.4466  0.5980
 1167SOL    HW3 4667   2.801   0.098   2.016 -0.7006 -0.1237 -1.4522
 1167SOL    MW4 4668   2.730   0.134   2.052 -0.1178 -0.2114 -0.2173
 1168SOL     OW 4669   2.687   0.397   1.948 -0.0264 -0.2895  0.1105
 1168SOL    HW2 4670   2.776   0.429   1.959 -0.1935 -0.2296  1.4277
 1168SOL    HW3 4671   2.686   0.313   1.994 -0.6934 -0.1900  0.2824
 1168SOL    MW4 4672   2.698   0.390   1.955 -0.1364 -0.2685  0.3070
 1169SOL     OW 4673   2.950   0.517   2.022  0.1636 -0.4579  0.0367
 1169SOL    HW2 4674   3.027   0.472   1.988  0.2341  0.2633 -0.7778
 1169SOL    HW3 4675   2.955   0.605   1.983 -1.4642 -0.6444 -0.6267
 1169SOL    MW4 4676   2.961   0.523   2.012 -0.0419 -0.3873 -0.1583
 1170SOL     OW 4677   2.955   0.771   1.900  0.0051  0.3850 -0.0919
 1170SOL    HW2 4678   3.028   0.827   1.927 -0.6128  0.1595  2.1349
 1170SOL    HW3 4679   2.879   0.809   1.944 -0.5919 -1.6076  0.6469
 1170SOL    MW4 4680   2.955   0.784   1.910 -0.1552  0.0923  0.2994
 1171SOL     OW 4681   2.713   0.875   2.024 -0.4800 -0.0087 -0.0220
 1171SOL    HW2 4682   2.717   0.955   1.972 -2.7117  0.7169  0.8433
 1171SOL    HW3 4683   2.641   0.825   1.984 -0.4724 -0.6317  0.7357
 1171SOL    MW4 4684   2.704   0.879   2.012 -0.7734  0.0048  0.1921
 1172SOL     OW 4685   2.720   1.148   1.935 -0.2324  0.1620 -0.6452
 1172SOL    HW2 4686   2.631   1.168   1.964 -0.1998 -1.0624  0.3463
 1172SOL    HW3 4687   2.718   1.162   1.841 -0.9392  2.0634 -0.3648
 1172SOL    MW4 4688   2.708   1.152   1.927 -0.3214  0.2513 -0.4774
 1173SOL     OW 4689   2.937   1.301   1.993  0.0674  0.5117  0.2219
 1173SOL    HW2 4690   2.912   1.392   1.978  0.7062  0.2627 -2.8006
 1173SOL    HW3 4691   2.857   1.251   1.976  0.4097  0.3438 -1.0072
 1173SOL    MW4 4692   2.923   1.306   1.989  0.1968  0.4567 -0.3391
 1174SOL     OW 4693   2.875   1.568   1.950  0.1432 -0.0799 -0.0849
 1174SOL    HW2 4694   2.962   1.596   1.978 -0.0534  0.4988 -0.0568
 1174SOL    HW3 4695   2.878   1.570   1.855  0.3141 -0.5449 -0.0945
 1174SOL    MW4 4696   2.887   1.572   1.941  0.1398 -0.0649 -0.0825
 1175SOL     OW 4697   2.620   1.665   2.035 -0.1003  0.0388  0.0589
 1175SOL    HW2 4698   2.701   1.630   1.998  0.3519  1.2021 -0.0900
 1175SOL    HW3 4699   2.550   1.613   1.994  0.5792 -1.1959  0.4484
 1175SOL    MW4 4700   2.621   1.654   2.024  0.0490  0.0294  0.0907
 1176SOL     OW 4701   2.679   1.908   1.878  0.0872  0.5902 -0.0927
 1176SOL    HW2 4702   2.751   1.954   1.922  0.4283  0.0464 -0.0757
 1176SOL    HW3 4703   2.665   1.829   1.931 -1.1654  1.1656  0.4493
 1176SOL    MW4 4704   2.687   1.904   1.891 -0.0331  0.5944 -0.0189
 1177SOL     OW 4705   2.887   2.055   1.979 -0.1051  0.2462  0.1507
 1177SOL    HW2 4706   2.904   2.040   2.072  1.7277  1.9053  0.1477
 1177SOL    HW3 4707   2.952   2.000   1.933  0.2161  0.8068 -0.0800
 1177SOL    MW4 4708   2.898   2.046   1.985  0.1791  0.5391  0.1199
 1178SOL     OW 4709   2.944   2.301   1.849 -0.0635  0.1815 -0.3032
 1178SOL    HW2 4710   3.014   2.356   1.886 -0.1279  0.5782 -0.7670
 1178SOL    HW3 4711   2.941   2.225   1.906  0.6446  0.2386 -0.1799
 1178SOL    MW4 4712   2.953   2.298   1.861  0.0214  0.2414 -0.3481
 1179SOL     OW 4713   2.726   2.457   1.962  0.2557  0.1269 -0.9526
 1179SOL    HW2 4714   2.728   2.548   1.930  1.0258  0.3441 -0.2881
 1179SOL    HW3 4715   2.803   2.416   1.922  1.1941  0.3825  0.5569
 1179SOL    MW4 4716   2.737   2.464   1.952  0.4811  0.1893 -0.6658
 1180SOL     OW 4717   2.696   2.730   1.879  0.4303 -0.0856 -0.5359
 1180SOL    HW2 4718   2.614   2.770   1.908  1.2127  1.5204 -0.4864
 1180SOL    HW3 4719   2.684   2.717   1.785 -0.0579 -0.3226 -0.4447
 1180SOL    MW4 4720   2.683   2.733   1.870  0.4691  0.0951 -0.5173
 1181SOL     OW 4721   2.909   2.845   2.031 -0.3098  0.5140 -0.3363
 1181SOL    HW2 4722   2.932   2.929   1.991  0.0320  0.4223 -0.3347
 1181SOL    HW3 4723   2.834   2.814   1.980  2.1582 -1.1948 -3.0789
 1181SOL    MW4 4724   2.902   2.852   2.019  0.0609  0.2764 -0.6980
 1182SOL     OW 4725   2.904   3.123   1.893  0.3147  0.0456 -0.2833
 1182SOL    HW2 4726   2.980   3.171   1.928 -0.4720  1.7572 -0.8964
 1182SOL    HW3 4727   2.829   3.163   1.936 -0.4347  0.0411 -1.5786
 1182SOL    MW4 4728   2.904   3.134   1.904  0.1121  0.2709 -0.5351
 1183SOL     OW 4729   2.699   3.250   2.048 -0.0755  0.1157 -0.3580
 1183SOL    HW2 4730   2.693   3.337   2.009 -0.9460 -0.0604 -0.6276
 1183SOL    HW3 4731   2.624   3.202   2.011 -1.2159  0.0979  1.8860
 1183SOL    MW4 4732   2.688   3.255   2.038 -0.3408  0.0901 -0.0975
 1184SOL     OW 4733   2.729   3.491   1.898  0.1697 -0.2122  0.6781
 1184SOL    HW2 4734   2.801   3.541   1.939 -0.5164  0.3595  1.1956
 1184SOL    HW3 4735   2.650   3.538   1.923 -0.5152 -1.7138  1.4023
 1184SOL    MW4 4736   2.728   3.504   1.907 -0.0112 -0.3349  0.8419
 1185SOL     OW 4737   2.919   3.601   2.051  0.1283  0.3751 -0.1898
 1185SOL    HW2 4738   2.933   3.595   2.145  1.0493  1.8889 -0.2009
 1185SOL    HW3 4739   3.004   3.580   2.012 -0.5866 -1.5806 -0.7580
 1185SOL    MW4 4740   2.932   3.598   2.058  0.1555  0.3168 -0.2663
 1186SOL     OW 4741   2.947   3.891   1.949  0.0445  0.0121  0.4070
 1186SOL    HW2 4742   2.925   3.807   1.989  0.5233 -0.6092 -0.6079
 1186SOL    HW3 4743   2.953   3.872   1.855  2.4617  0.6565  0.3913
 1186SOL    MW4 4744   2.945   3.877   1.942  0.4266  0.0151  0.2710
 1187SOL     OW 4745   2.702   4.012   2.026 -0.4155 -0.1465 -0.1270
 1187SOL    HW2 4746   2.787   3.976   2.003 -0.6135 -1.3547  0.9703
 1187SOL    HW3 4747   2.639   3.962   1.976 -0.5310  0.2958 -0.4281
 1187SOL    MW4 4748   2.705   4.001   2.017 -0.4568 -0.2475 -0.0219
 1188SOL     OW 4749   2.700   4.283   1.950  0.4417 -0.0673  0.0380
 1188SOL    HW2 4750   2.713   4.201   1.997 -0.0295  0.2784  0.8055
 1188SOL    HW3 4751   2.700   4.260   1.858  0.5681 -0.8877  0.2447
 1188SOL    MW4 4752   2.701   4.269   1.944  0.3962 -0.1300  0.1666
 1189SOL     OW 4753   2.946   4.399   2.006  0.0654  0.6723 -0.3242
 1189SOL    HW2 4754   2.953   4.403   2.101  2.2638  2.3839 -0.5272
 1189SOL    HW3 4755   2.860   4.360   1.990 -0.1544 -0.0097  2.3507
 1189SOL    MW4 4756   2.935   4.395   2.016  0.3265  0.8081  0.0020
 1190SOL     OW 4757   3.429   0.020   1.931  0.2528  0.1175 -0.1497
 1190SOL    HW2 4758   3.415  -0.073   1.949 -3.3916  0.9191  1.5924
 1190SOL    HW3 4759   3.413   0.029   1.837  2.3106 -1.2595 -0.6536
 1190SOL    MW4 4760   3.425   0.009   1.921  0.0435  0.0416  0.0137
 1191SOL     OW 4761   3.183   0.142   1.988  0.0824  0.1307 -0.3884
 1191SOL    HW2 4762   3.169   0.137   2.083  0.1941  0.1328 -0.3720
 1191SOL    HW3 4763   3.271   0.107   1.975 -0.1122 -0.2954 -0.5417
 1191SOL    MW4 4764   3.193   0.137   1.999  0.0715  0.0747 -0.4064
 1192SOL     OW 4765   3.178   0.400   1.916  0.5048  0.2572 -0.0080
 1192SOL    HW2 4766   3.184   0.310   1.948  0.5815  0.6655  1.1632
 1192SOL    HW3 4767   3.181   0.392   1.821 -0.5170 -1.0453  0.0627
 1192SOL    MW4 4768   3.179   0.387   1.908  0.3801  0.1392  0.1558
 1193SOL     OW 4769   3.382   0.552   2.051 -1.0981 -0.3681 -0.1110
 1193SOL    HW2 4770   3.461   0.511   2.017 -1.7442 -1.3677 -0.4091
 1193SOL    HW3 4771   3.311   0.492   2.028 -1.5994 -0.9130  2.6474
 1193SOL    MW4 4772   3.383   0.539   2.044 -1.2495 -0.5719  0.2136
 1194SOL     OW 4773   3.392   0.787   1.904  0.4997  0.0068  0.2571
 1194SOL    HW2 4774   3.313   0.836   1.927 -0.3307 -1.9244  1.7359
 1194SOL    HW3 4775   3.384   0.705   1.953  2.4959 -1.0346 -1.0768
 1194SOL    MW4 4776   3.380   0.783   1.914  0.6535 -0.3854  0.2762
 1195SOL     OW 4777   3.173   0.935   1.980 -0.4632  0.0004  0.2455
 1195SOL    HW2 4778   3.180   0.933   2.076  1.2004 -1.3584  0.1230
 1195SOL    HW3 4779   3.159   1.027   1.959  0.4287  0.5013  1.7194
 1195SOL    MW4 4780   3.172   0.947   1.990 -0.1261 -0.1128  0.4238
 1196SOL     OW 4781   3.179   1.184   1.866 -0.2685  0.0963  0.4330
 1196SOL    HW2 4782   3.252   1.223   1.914  0.0066 -1.9559  1.6998
 1196SOL    HW3 4783   3.101   1.226   1.903  0.0010 -0.7702  2.0231
 1196SOL    MW4 4784   3.178   1.195   1.877 -0.1966 -0.2888  0.8100
 1197SOL     OW 4785   3.391   1.293   1.979  0.1667  0.3007 -0.0533
 1197SOL    HW2 4786   3.372   1.286   2.073 -2.5711  0.1459 -0.5749
 1197SOL    HW3 4787   3.387   1.387   1.961  0.6216  0.3243 -0.0391
 1197SOL    MW4 4788   3.388   1.305   1.989 -0.1345  0.2834 -0.1202
 1198SOL     OW 4789   3.393   1.555   1.896  0.3106 -0.2646  0.2053
 1198SOL    HW2 4790   3.474   1.583   1.939 -0.0101 -0.3582  0.8746
 1198SOL    HW3 4791   3.323   1.590   1.951 -0.1331  1.2101 -1.2381
 1198SOL    MW4 4792   3.394   1.563   1.909  0.2097 -0.0824  0.1032
 1199SOL     OW 4793   3.164   1.654   2.019  0.1769  0.2070 -0.3112
 1199SOL    HW2 4794   3.147   1.666   2.112  0.2533  0.8357 -0.3708
 1199SOL    HW3 4795   3.150   1.741   1.981 -0.2184 -0.1345 -0.9432
 1199SOL    MW4 4796   3.160   1.667   2.026  0.1348  0.2449 -0.4025
 1200SOL     OW 4797   3.124   1.903   1.917  0.1633  0.0062 -0.2182
 1200SOL    HW2 4798   3.200   1.948   1.954  0.9066 -1.2884 -0.1409
 1200SOL    HW3 4799   3.134   1.914   1.822 -1.1102  2.2975 -0.1416
 1200SOL    MW4 4800   3.135   1.911   1.909  0.0934  0.1377 -0.1979
 1201SOL     OW 4801   3.349   2.019   2.032 -0.0932  0.0512 -0.2151
 1201SOL    HW2 4802   3.424   1.979   1.988  0.4659 -0.7524  1.4467
 1201SOL    HW3 4803   3.351   2.111   2.004 -0.6933 -0.7550 -3.1139
 1201SOL    MW4 4804   3.359   2.026   2.023 -0.0986 -0.1612 -0.3783
 1202SOL     OW 4805   3.379   2.288   1.935 -0.4255 -0.2635 -0.6349
 1202SOL    HW2 4806   3.299   2.337   1.956 -0.8709 -1.1435 -0.2756
 1202SOL    HW3 4807   3.380   2.283   1.840 -0.3314  0.5168 -0.6808
 1202SOL    MW4 4808   3.369   2.294   1.926 -0.4719 -0.2766 -0.5936
 1203SOL     OW 4809   3.135   2.441   1.990 -0.1236 -0.0173  0.2770
 1203SOL    HW2 4810   3.114   2.431   2.083  0.2224  0.8318  0.4516
 1203SOL    HW3 4811   3.142   2.535   1.977 -2.5445  0.0055 -1.1513
 1203SOL    MW4 4812   3.133   2.452   2.001 -0.3973  0.0978  0.1116
 1204SOL     OW 4813   3.147   2.731   1.943 -0.2474  0.5709  1.0649
 1204SOL    HW2 4814   3.061   2.754   1.979 -1.5913 -1.2964 -0.8256
 1204SOL    HW3 4815   3.130   2.716   1.850  1.9435 -0.7977  0.8723
 1204SOL    MW4 4816   3.133   2.732   1.935 -0.1356  0.1439  0.7900
 1205SOL     OW 4817   3.385   2.835   2.016 -0.6358 -0.1066 -0.0278
 1205SOL    HW2 4818   3.394   2.823   2.111  0.0788 -1.2433 -0.2288
 1205SOL    HW3 4819   3.298   2.801   1.996 -0.5674 -0.3833  0.1414
 1205SOL    MW4 4820   3.375   2.829   2.026 -0.5325 -0.2931 -0.0320
 1206SOL     OW 4821   3.374   3.097   1.923  0.2176  0.1210 -0.2383
 1206SOL    HW2 4822   3.445   3.147   1.964 -1.2699  0.9405  1.3875
 1206SOL    HW3 4823   3.394   3.006   1.945  1.0791  0.2895 -0.2909
 1206SOL    MW4 4824   3.386   3.092   1.931  0.1350  0.2514 -0.0308
 1207SOL     OW 4825   3.127   3.219   2.030 -0.1337  0.0179  0.1271
 1207SOL    HW2 4826   3.150   3.311   2.017  0.1548 -0.2351 -1.1378
 1207SOL    HW3 4827   3.201   3.170   1.994 -0.5974 -0.7279  0.1803
 1207SOL    MW4 4828   3.140   3.225   2.024 -0.1568 -0.1138 -0.0328
 1208SOL     OW 4829   3.178   3.517   1.977  0.0536  0.0848  0.0752
 1208SOL    HW2 4830   3.252   3.565   2.014 -0.0340  0.3643 -0.1111
 1208SOL    HW3 4831   3.202   3.503   1.886 -0.7349  1.4288 -0.3645
 1208SOL    MW4 4832   3.191   3.522   1.970 -0.0620  0.2990 -0.0074
 1209SOL     OW 4833   3.403   3.648   2.071 -0.2395 -0.1317  0.5244
 1209SOL    HW2 4834   3.479   3.607   2.032 -0.0820 -0.6249  1.3450
 1209SOL    HW3 4835   3.406   3.739   2.039  0.6205 -0.1781  0.4560
 1209SOL    MW4 4836   3.413   3.655   2.061 -0.1053 -0.2029  0.6237
 1210SOL     OW 4837   3.425   3.901   1.950  0.3579  0.3053 -0.0195
 1210SOL    HW2 4838   3.339   3.938   1.971  0.4022  1.2816 -1.5043
 1210SOL    HW3 4839   3.417   3.868   1.861  0.8951 -1.6056  0.6127
 1210SOL    MW4 4840   3.413   3.902   1.941  0.4346  0.1820 -0.1320
 1211SOL     OW 4841   3.178   4.046   2.008  0.1033 -0.0715  0.2116
 1211SOL    HW2 4842   3.182   4.042   2.103 -0.5178 -0.4170  0.2268
 1211SOL    HW3 4843   3.097   3.999   1.985  0.5088 -0.4353 -0.5075
 1211SOL    MW4 4844   3.168   4.039   2.017  0.0748 -0.1651  0.1187
 1212SOL     OW 4845   3.184   4.298   1.895  0.4330 -0.2680  0.2156
 1212SOL    HW2 4846   3.171   4.209   1.925 -1.0661 -0.1282 -0.0086
 1212SOL    HW3 4847   3.119   4.350   1.941 -0.1486  0.3628 -1.2636
 1212SOL    MW4 4848   3.174   4.293   1.905  0.1585 -0.1663 -0.0091
 1213SOL     OW 4849   3.408   4.418   2.016 -0.2368 -1.1277  0.7691
 1213SOL    HW2 4850   3.489   4.376   1.986 -0.1642 -0.1924 -0.3780
 1213SOL    HW3 4851   3.339   4.370   1.970 -0.1485  0.0509 -0.6192
 1213SOL    MW4 4852   3.410   4.406   2.006 -0.2156 -0.8488  0.4345
 1214SOL     OW 4853   3.832   0.008   1.949  0.5713  0.0785  0.4548
 1214SOL    HW2 4854   3.814  -0.078   1.986 -0.7785 -0.8813 -2.2946
 1214SOL    HW3 4855   3.757   0.062   1.975  0.7809  0.0895  1.0602
 1214SOL    MW4 4856   3.819   0.004   1.957  0.4208 -0.0467  0.1720
 1215SOL     OW 4857   3.629   0.169   2.036  0.0438  0.0813 -0.2539
 1215SOL    HW2 4858   3.631   0.146   2.129 -0.3441 -0.7122 -0.4374
 1215SOL    HW3 4859   3.558   0.116   2.000  1.5075 -1.1524 -1.4098
 1215SOL    MW4 4860   3.620   0.159   2.044  0.1857 -0.1862 -0.4306
 1216SOL     OW 4861   3.602   0.404   1.921 -0.6511  0.4834 -0.4037
 1216SOL    HW2 4862   3.607   0.314   1.954 -0.6087  0.8512  0.6343
 1216SOL    HW3 4863   3.616   0.396   1.827  1.3246 -0.4013 -0.0671
 1216SOL    MW4 4864   3.605   0.391   1.913 -0.3848  0.4152 -0.2223
 1217SOL     OW 4865   3.827   0.508   2.030  0.0764  0.0581  0.0883
 1217SOL    HW2 4866   3.850   0.599   2.010  0.9903  0.1407  1.4300
 1217SOL    HW3 4867   3.747   0.491   1.980 -0.2804  1.6967  0.0950
 1217SOL    MW4 4868   3.820   0.517   2.021  0.1499  0.2852  0.2662
 1218SOL     OW 4869   3.858   0.770   1.950 -0.1638 -0.0111  0.0390
 1218SOL    HW2 4870   3.781   0.821   1.975 -1.7544 -1.1864 -2.2870
 1218SOL    HW3 4871   3.862   0.777   1.855  1.9728 -0.8890  0.0360
 1218SOL    MW4 4872   3.848   0.778   1.941 -0.0917 -0.2820 -0.2683
 1219SOL     OW 4873   3.634   0.895   2.029  0.5204  0.1312 -0.2307
 1219SOL    HW2 4874   3.642   0.984   1.994 -0.0440  0.2558 -0.0437
 1219SOL    HW3 4875   3.564   0.855   1.977  0.0915  0.1225  0.3502
 1219SOL    MW4 4876   3.626   0.902   2.017  0.3894  0.1465 -0.1294
 1220SOL     OW 4877   3.621   1.147   1.883 -0.0989  0.2166 -0.6609
 1220SOL    HW2 4878   3.544   1.200   1.904 -1.4952 -1.4014 -1.5456
 1220SOL    HW3 4879   3.627   1.150   1.787  0.8445  0.1755 -0.6132
 1220SOL    MW4 4880   3.612   1.155   1.873 -0.1586 -0.0023 -0.7713
 1221SOL     OW 4881   3.836   1.305   1.964 -0.1203  0.4976  0.1795
 1221SOL    HW2 4882   3.825   1.318   2.059 -0.5090  0.1788  0.1778
 1221SOL    HW3 4883   3.762   1.250   1.939 -0.0804  0.6802 -0.3339
 1221SOL    MW4 4884   3.825   1.300   1.973 -0.1664  0.4796  0.1115
 1222SOL     OW 4885   3.825   1.541   1.838 -0.1480  0.2332  0.1079
 1222SOL    HW2 4886   3.897   1.587   1.880  0.2523  0.3065 -0.6557
 1222SOL    HW3 4887   3.831   1.451   1.872  0.6049  0.1147 -0.3320
 1222SOL    MW4 4888   3.835   1.535   1.848  0.0042  0.2273 -0.0509
 1223SOL     OW 4889   3.621   1.666   2.018  0.3642  0.1313  0.0358
 1223SOL    HW2 4890   3.609   1.756   1.989  0.1979 -0.0222 -0.3698
 1223SOL    HW3 4891   3.684   1.629   1.956 -0.4687 -0.3798 -0.5140
 1223SOL    MW4 4892   3.628   1.673   2.006  0.2324  0.0436 -0.0902
 1224SOL     OW 4893   3.579   1.920   1.902  0.7746 -0.4325 -0.1460
 1224SOL    HW2 4894   3.664   1.960   1.920  1.6907 -1.5938 -1.7467
 1224SOL    HW3 4895   3.570   1.923   1.807 -1.2214  0.1414  0.0300
 1224SOL    MW4 4896   3.589   1.925   1.892  0.6321 -0.5100 -0.3340
 1225SOL     OW 4897   3.818   2.037   1.971  0.3802 -0.3107  0.2081
 1225SOL    HW2 4898   3.894   1.995   1.932  0.0426  0.1358 -0.9650
 1225SOL    HW3 4899   3.803   2.115   1.917 -0.1269  0.2982  1.2061
 1225SOL    MW4 4900   3.826   2.042   1.959  0.2687 -0.1715  0.1850
 1226SOL     OW 4901   3.833   2.286   1.862 -0.5218  0.1370  0.1372
 1226SOL    HW2 4902   3.907   2.331   1.903 -0.8698 -0.3623  1.3314
 1226SOL    HW3 4903   3.755   2.328   1.900 -0.8482 -1.0727  0.8232
 1226SOL    MW4 4904   3.832   2.297   1.873 -0.6108 -0.0885  0.3852
 1227SOL     OW 4905   3.612   2.410   1.990  0.0787  0.6470 -0.3235
 1227SOL    HW2 4906   3.607   2.502   1.965  0.6807  0.5614 -0.7799
 1227SOL    HW3 4907   3.527   2.374   1.966  0.3892  0.7369 -1.6072
 1227SOL    MW4 4908   3.600   2.417   1.983  0.1991  0.6476 -0.5531
 1228SOL     OW 4909   3.589   2.681   1.908 -0.0846 -0.2853 -0.1902
 1228SOL    HW2 4910   3.666   2.728   1.942  0.5832 -1.1025 -0.5482
 1228SOL    HW3 4911   3.516   2.715   1.960  0.6942 -0.3434  0.9666
 1228SOL    MW4 4912   3.590   2.692   1.920  0.1063 -0.4008 -0.0848
 1229SOL     OW 4913   3.807   2.801   2.008  0.1460  0.3578 -0.1347
 1229SOL    HW2 4914   3.798   2.803   2.103 -0.1391  0.5498 -0.1647
 1229SOL    HW3 4915   3.822   2.892   1.983  0.6591  0.2481 -0.2328
 1229SOL    MW4 4916   3.808   2.814   2.017  0.1761  0.3686 -0.1516
 1230SOL     OW 4917   3.798   3.064   1.934 -0.7158 -0.4206 -0.3892
 1230SOL    HW2 4918   3.717   3.108   1.958 -1.3852 -1.5489 -0.5454
 1230SOL    HW3 4919   3.802   3.071   1.839 -0.2785  0.2460 -0.3194
 1230SOL    MW4 4920   3.788   3.071   1.925 -0.7464 -0.4815 -0.4006
 1231SOL     OW 4921   3.601   3.240   2.009 -0.0197 -0.2527  0.4661
 1231SOL    HW2 4922   3.620   3.256   2.101  2.3284  1.3746 -0.2720
 1231SOL    HW3 4923   3.608   3.326   1.967 -0.0389 -1.1303 -1.4127
 1231SOL    MW4 4924   3.604   3.254   2.015  0.2875 -0.1538  0.1208
 1232SOL     OW 4925   3.619   3.515   1.948 -0.2517  0.2131 -0.1124
 1232SOL    HW2 4926   3.706   3.540   1.978 -0.5639 -0.7293  1.6166
 1232SOL    HW3 4927   3.619   3.537   1.854  1.3590  1.4847  0.1623
 1232SOL    MW4 4928   3.630   3.522   1.939 -0.0804  0.2565  0.1520
 1233SOL     OW 4929   3.862   3.634   2.052  0.3897 -0.4746  0.3030
 1233SOL    HW2 4930   3.934   3.585   2.013 -0.1203 -1.2522  0.3472
 1233SOL    HW3 4931   3.853   3.711   1.995  2.3950  0.5218  1.2988
 1233SOL    MW4 4932   3.870   3.638   2.039  0.5870 -0.4457  0.4402
 1234SOL     OW 4933   3.845   3.890   1.942  0.1320  0.2441  0.2276
 1234SOL    HW2 4934   3.767   3.934   1.976 -0.2298  0.4322 -0.8328
 1234SOL    HW3 4935   3.822   3.867   1.852  0.5418 -1.5645  0.5626
 1234SOL    MW4 4936   3.832   3.893   1.934  0.1384  0.0303  0.1319
 1235SOL     OW 4937   3.632   4.058   2.034 -0.3081  0.0406  0.0816
 1235SOL    HW2 4938   3.641   4.036   2.127  0.8863 -0.7694 -0.2145
 1235SOL    HW3 4939   3.551   4.016   2.007  0.7031 -1.9654  0.1148
 1235SOL    MW4 4940   3.623   4.050   2.043 -0.0171 -0.3309  0.0469
 1236SOL     OW 4941   3.643   4.292   1.886 -0.2452 -0.0618  0.3827
 1236SOL    HW2 4942   3.707   4.350   1.927  0.1489 -0.9185  1.0028
 1236SOL    HW3 4943   3.650   4.210   1.936 -0.7902 -0.6378 -0.4815
 1236SOL    MW4 4944   3.652   4.289   1.898 -0.2651 -0.2508  0.3505
 1237SOL     OW 4945   3.847   4.425   2.021 -0.0925 -0.0311  0.6296
 1237SOL    HW2 4946   3.837   4.408   2.115  1.9394 -2.2767  0.4910
 1237SOL    HW3 4947   3.930   4.383   1.998 -1.0923 -0.4502 -2.4013
 1237SOL    MW4 4948   3.856   4.417   2.030  0.0437 -0.3827  0.2114
 1238SOL     OW 4949   4.247   4.636   1.932 -0.2982 -0.3618 -0.1033
 1238SOL    HW2 4950   4.172   4.689   1.960 -0.3038 -0.1922 -0.4313
 1238SOL    HW3 4951   4.323   4.683   1.965 -0.3461 -0.6358  0.3964
 1238SOL    MW4 4952   4.247   4.649   1.940 -0.3053 -0.3756 -0.0806
 1239SOL     OW 4953   4.054   0.128   2.052  0.3223  0.5844  0.4266
 1239SOL    HW2 4954   4.056   0.120   2.147  0.3355 -0.5154  0.3429
 1239SOL    HW3 4955   3.973   0.084   2.025  1.5568 -1.3927 -0.2437
 1239SOL    MW4 4956   4.044   0.121   2.061  0.4869  0.1784  0.3271
 1240SOL     OW 4957   4.072   0.373   1.948 -0.7632 -0.3156 -0.3152
 1240SOL    HW2 4958   4.065   0.281   1.976 -2.4561 -0.0845  0.0918
 1240SOL    HW3 4959   3.989   0.412   1.975  0.1533  1.4756 -0.0120
 1240SOL    MW4 4960   4.060   0.366   1.955 -0.8657 -0.0488 -0.2215
 1241SOL     OW 4961   4.254   0.517   2.071 -0.1209  0.5080  0.4182
 1241SOL    HW2 4962   4.223   0.539   2.159  0.0869  1.4643  0.2622
 1241SOL    HW3 4963   4.187   0.458   2.036  0.4746 -0.9816  1.7115
 1241SOL    MW4 4964   4.241   0.512   2.078 -0.0149  0.4376  0.5682
 1242SOL     OW 4965   4.277   0.785   1.956  0.4635 -0.0010 -0.8919
 1242SOL    HW2 4966   4.277   0.699   1.999  0.2997 -0.3765 -1.6453
 1242SOL    HW3 4967   4.280   0.765   1.863  0.2266  0.8122 -1.0720
 1242SOL    MW4 4968   4.277   0.771   1.950  0.4107  0.0567 -1.0150
 1243SOL     OW 4969   4.046   0.918   2.076  0.0436  0.2589  0.9167
 1243SOL    HW2 4970   4.129   0.893   2.035 -0.7441  0.6611 -0.9696
 1243SOL    HW3 4971   3.981   0.861   2.034 -0.8351  0.9986  1.2787
 1243SOL    MW4 4972   4.049   0.907   2.065 -0.1763  0.4096  0.7156
 1244SOL     OW 4973   4.063   1.163   1.944 -0.0362 -0.0706  0.6994
 1244SOL    HW2 4974   4.046   1.078   1.986  0.8074 -0.1002  0.9937
 1244SOL    HW3 4975   3.979   1.208   1.947 -0.6487 -1.1283  0.0048
 1244SOL    MW4 4976   4.050   1.157   1.950 -0.0057 -0.2141  0.6466
 1245SOL     OW 4977   4.276   1.323   2.022  0.2997  0.2048  0.1231
 1245SOL    HW2 4978   4.269   1.341   2.116  0.7339  0.4627  0.1069
 1245SOL    HW3 4979   4.199   1.269   2.003  0.6982 -0.6192  0.8116
 1245SOL    MW4 4980   4.265   1.318   2.032  0.4096  0.1301  0.2118
 1246SOL     OW 4981   4.260   1.560   1.907 -0.1548  0.1551 -0.4217
 1246SOL    HW2 4982   4.264   1.477   1.954 -1.2836 -0.0293 -0.6340
 1246SOL    HW3 4983   4.275   1.538   1.815  2.1975  0.5342 -0.1498
 1246SOL    MW4 4984   4.263   1.546   1.901  0.0067  0.1808 -0.4138
 1247SOL     OW 4985   4.018   1.652   1.982  0.2623 -0.1913 -0.1343
 1247SOL    HW2 4986   4.028   1.638   2.076  0.1441 -0.2640 -0.1323
 1247SOL    HW3 4987   4.102   1.624   1.945 -0.0765 -1.1889 -0.1572
 1247SOL    MW4 4988   4.031   1.646   1.990  0.2020 -0.3326 -0.1370
 1248SOL     OW 4989   4.085   1.898   1.890 -0.5763  0.4751  0.6775
 1248SOL    HW2 4990   4.064   1.814   1.931  0.4349  0.3241  0.9230
 1248SOL    HW3 4991   4.083   1.880   1.796  1.1425 -0.2422  0.7464
 1248SOL    MW4 4992   4.082   1.884   1.883 -0.2161  0.3605  0.7190
 1249SOL     OW 4993   4.276   2.098   1.982 -0.2078 -0.1127 -0.1505
 1249SOL    HW2 4994   4.278   2.098   2.078 -0.2240  1.3184 -0.1483
 1249SOL    HW3 4995   4.211   2.032   1.959  0.7821 -1.4489  0.7986
 1249SOL    MW4 4996   4.268   2.089   1.992 -0.0793 -0.1002 -0.0250
 1250SOL     OW 4997   4.271   2.332   1.870  0.7055 -0.0743 -0.0414
 1250SOL    HW2 4998   4.278   2.250   1.917  0.8045 -0.3386 -0.5089
 1250SOL    HW3 4999   4.355   2.376   1.885 -0.3058  1.0969  2.3172
 1250SOL    MW4 5000   4.283   2.327   1.878  0.5852  0.0454  0.2081
 1251SOL     OW 5001   4.033   2.433   1.987 -0.4282 -0.2880 -0.1776
 1251SOL    HW2 5002   4.040   2.440   2.083 -1.9175 -2.8609  0.1656
 1251SOL    HW3 5003   4.123   2.415   1.958 -0.0683 -0.1113  0.7931
 1251SOL    MW4 5004   4.046   2.432   1.996 -0.5772 -0.6042 -0.0043
 1252SOL     OW 5005   4.059   2.711   1.906 -0.1390  0.5697  0.7123
 1252SOL    HW2 5006   4.056   2.619   1.930 -0.0519 -0.2016 -2.0346
 1252SOL    HW3 5007   3.977   2.748   1.940  0.0092 -0.4040  2.1659
 1252SOL    MW4 5008   4.048   2.704   1.913 -0.1079  0.3395  0.5417
 1253SOL     OW 5009   4.286   2.844   1.968 -0.1392  0.2108  0.1434
 1253SOL    HW2 5010   4.290   2.833   2.063 -0.0409 -0.3640  0.0708
 1253SOL    HW3 5011   4.212   2.790   1.940  1.1083 -1.2811 -0.3440
 1253SOL    MW4 5012   4.277   2.836   1.977  0.0383 -0.0618  0.0695
 1254SOL     OW 5013   4.290   3.121   1.907  0.6610  0.3175 -0.2378
 1254SOL    HW2 5014   4.212   3.155   1.951  0.9518  1.2363 -0.4294
 1254SOL    HW3 5015   4.293   3.029   1.932 -1.0389  0.0412 -1.0102
 1254SOL    MW4 5016   4.280   3.113   1.916  0.4751  0.4023 -0.3650
 1255SOL     OW 5017   4.044   3.207   2.006 -0.0144 -0.2038  0.1465
 1255SOL    HW2 5018   4.045   3.193   2.101  0.3341  0.8687  0.3083
 1255SOL    HW3 5019   3.969   3.157   1.975  0.1999 -1.0092  0.9211
 1255SOL    MW4 5020   4.035   3.199   2.015  0.0598 -0.1686  0.2701
 1256SOL     OW 5021   4.049   3.482   1.939  0.1479 -0.0273 -0.0045
 1256SOL    HW2 5022   4.131   3.521   1.969  0.2222 -0.8869  0.9312
 1256SOL    HW3 5023   4.055   3.390   1.964 -1.1788 -0.0588  0.2486
 1256SOL    MW4 5024   4.061   3.475   1.946 -0.0173 -0.1449  0.1523
 1257SOL     OW 5025   4.271   3.610   2.067  0.2951  0.4500  0.1372
 1257SOL    HW2 5026   4.271   3.699   2.033  1.3620  0.5799  0.4363
 1257SOL    HW3 5027   4.348   3.569   2.027  0.9191  0.2622  1.4791
 1257SOL    MW4 5028   4.281   3.616   2.057  0.5182  0.4424  0.3537
 1258SOL     OW 5029   4.284   3.869   1.962  0.4380  0.5340  0.0154
 1258SOL    HW2 5030   4.369   3.910   1.978  0.8178  0.4150 -1.6244
 1258SOL    HW3 5031   4.271   3.877   1.868 -0.0174 -2.0626 -0.1725
 1258SOL    MW4 5032   4.294   3.875   1.952  0.4280  0.1757 -0.2257
 1259SOL     OW 5033   4.069   4.010   2.108  0.2272 -0.3045  0.0699
 1259SOL    HW2 5034   4.150   3.971   2.073 -0.3648 -0.3611 -1.2661
 1259SOL    HW3 5035   4.003   3.991   2.042 -0.8424 -0.0762  1.0639
 1259SOL    MW4 5036   4.071   4.002   2.095  0.0080 -0.2818  0.0248
 1260SOL     OW 5037   4.064   4.268   1.992 -0.2794  0.3443  0.1860
 1260SOL    HW2 5038   4.144   4.313   2.020 -0.3728  0.6526 -0.0449
 1260SOL    HW3 5039   4.069   4.183   2.036  0.7307 -0.0763 -0.7147
 1260SOL    MW4 5040   4.075   4.263   2.001 -0.1584  0.3295  0.0367
 1261SOL     OW 5041   4.295   4.392   2.037 -0.1773  0.4475 -0.3602
 1261SOL    HW2 5042   4.295   4.411   2.131  0.2414  0.7251 -0.4131
 1261SOL    HW3 5043   4.275   4.476   1.996 -1.2867  0.1235 -0.4849
 1261SOL    MW4 5044   4.292   4.406   2.044 -0.2684  0.4413 -0.3836
 1262SOL     OW 5045   0.251   4.647   2.371 -0.4106 -0.1558  0.0867
 1262SOL    HW2 5046   0.258   4.653   2.466  0.1213 -0.8547  0.0974
 1262SOL    HW3 5047   0.325   4.699   2.339  0.9741 -2.0375  0.1064
 1262SOL    MW4 5048   0.262   4.655   2.379 -0.1578 -0.4963  0.0907
 1263SOL     OW 5049   0.009   0.140   2.321  0.1873 -0.1792  0.3665
 1263SOL    HW2 5050   0.087   0.086   2.330  0.7416  0.4951 -0.3382
 1263SOL    HW3 5051  -0.018   0.130   2.230 -1.8323 -2.1231  1.1363
 1263SOL    MW4 5052   0.015   0.132   2.310 -0.0060 -0.3467  0.3751
 1264SOL     OW 5053   4.435   0.406   2.446  0.1471 -0.1380 -0.3315
 1264SOL    HW2 5054   4.508   0.459   2.414  1.4248 -1.3268  0.5451
 1264SOL    HW3 5055   4.445   0.322   2.401 -1.2272 -0.0013 -0.8972
 1264SOL    MW4 5056   4.446   0.402   2.436  0.1343 -0.2768 -0.2905
 1265SOL     OW 5057   0.172   0.521   2.295 -0.6221  0.2766 -0.7649
 1265SOL    HW2 5058   0.247   0.468   2.323 -2.6531 -2.1093  0.3291
 1265SOL    HW3 5059   0.182   0.528   2.200  1.2586  0.4217 -0.5779
 1265SOL    MW4 5060   0.183   0.515   2.287 -0.6419 -0.0190 -0.5959
 1266SOL     OW 5061   0.254   0.775   2.423 -0.5495 -0.0820  0.6804
 1266SOL    HW2 5062   0.221   0.779   2.513  1.1404  0.0152  1.3222
 1266SOL    HW3 5063   0.237   0.685   2.395 -2.3485  0.2712  0.5854
 1266SOL    MW4 5064   0.248   0.764   2.431 -0.5639 -0.0226  0.7526
 1267SOL     OW 5065   0.008   0.894   2.323 -0.3862  0.0968 -0.1865
 1267SOL    HW2 5066   0.073   0.825   2.340 -0.0128  0.5355  0.2011
 1267SOL    HW3 5067   0.024   0.920   2.232 -0.5167 -0.3199 -0.3278
 1267SOL    MW4 5068   0.019   0.888   2.313 -0.3541  0.0997 -0.1540
 1268SOL     OW 5069   0.016   1.165   2.413 -0.4436 -0.1953  0.0046
 1268SOL    HW2 5070   0.023   1.175   2.508  0.2548  0.6270 -0.1365
 1268SOL    HW3 5071   0.001   1.071   2.400 -2.2331 -0.0676  1.0254
 1268SOL    MW4 5072   0.015   1.154   2.424 -0.5876 -0.0699  0.1207
 1269SOL     OW 5073   0.208   1.318   2.280 -0.0204  0.0851  0.6698
 1269SOL    HW2 5074   0.151   1.253   2.321  0.2978 -0.8267 -0.3309
 1269SOL    HW3 5075   0.186   1.315   2.187  0.2318  1.1798  0.5664
 1269SOL    MW4 5076   0.198   1.309   2.274  0.0549  0.1092  0.5241
 1270SOL     OW 5077   0.180   1.581   2.403 -0.1666  0.1009  0.1317
 1270SOL    HW2 5078   0.190   1.588   2.498  2.0103 -1.1862  0.0276
 1270SOL    HW3 5079   0.201   1.490   2.383 -2.4686 -0.1447 -1.4012
 1270SOL    MW4 5080   0.184   1.570   2.413 -0.1831 -0.1013 -0.0843
 1271SOL     OW 5081   4.457   1.720   2.298 -0.1242 -0.4697  0.3872
 1271SOL    HW2 5082   4.445   1.806   2.337 -3.2190 -0.9877  0.7132
 1271SOL    HW3 5083   4.531   1.682   2.344  0.7330  1.6899  0.8120
 1271SOL    MW4 5084   4.465   1.726   2.309 -0.4195 -0.2531  0.4862
 1272SOL     OW 5085   4.453   1.978   2.380  0.6010 -0.3943 -0.1129
 1272SOL    HW2 5086   4.387   2.009   2.317  0.3309  1.7038  1.1632
 1272SOL    HW3 5087   4.536   2.013   2.347  0.6605 -0.5337 -0.1096
 1272SOL    MW4 5088   4.455   1.987   2.367  0.5732 -0.1358  0.0559
 1273SOL     OW 5089   0.199   2.073   2.301 -0.2154 -0.0892 -0.2584
 1273SOL    HW2 5090   0.282   2.033   2.328  0.5533  1.1186 -0.7725
 1273SOL    HW3 5091   0.203   2.072   2.205 -0.5359  0.4923 -0.2784
 1273SOL    MW4 5092   0.211   2.068   2.292 -0.1563  0.1468 -0.3289
 1274SOL     OW 5093   0.217   2.339   2.361  0.3700  0.1741 -0.1835
 1274SOL    HW2 5094   0.212   2.347   2.457 -0.2678 -0.3827 -0.1655
 1274SOL    HW3 5095   0.217   2.245   2.345 -1.3526  0.2510 -0.8024
 1274SOL    MW4 5096   0.216   2.328   2.372  0.0586  0.1108 -0.2628
 1275SOL     OW 5097   0.021   2.461   2.237  0.1986 -0.1735  0.1386
 1275SOL    HW2 5098   0.014   2.544   2.283  0.7734  0.6802 -1.2712
 1275SOL    HW3 5099   0.090   2.413   2.282  0.9194  0.7508  0.0284
 1275SOL    MW4 5100   0.029   2.466   2.249  0.3696  0.0611 -0.0620
 1276SOL     OW 5101   4.483   2.702   2.370  0.1600 -0.0291 -0.3225
 1276SOL    HW2 5102   4.472   2.692   2.465 -1.2867  1.0591 -0.3643
 1276SOL    HW3 5103   4.562   2.756   2.361 -1.3964  2.4513  0.3882
 1276SOL    MW4 5104   4.492   2.708   2.381 -0.2362  0.4417 -0.2342
 1277SOL     OW 5105   0.232   2.840   2.317 -0.1598 -0.2428 -0.0615
 1277SOL    HW2 5106   0.307   2.801   2.361 -0.1116  0.0536  0.1205
 1277SOL    HW3 5107   0.253   2.833   2.223  1.4576  2.5018  0.0596
 1277SOL    MW4 5108   0.245   2.834   2.310  0.0600  0.1585 -0.0215
 1278SOL     OW 5109   0.222   3.086   2.421 -0.4730 -0.0701  0.0791
 1278SOL    HW2 5110   0.144   3.130   2.388 -0.1435  0.3380 -0.1601
 1278SOL    HW3 5111   0.227   3.005   2.370 -0.1971  0.3648 -0.5867
 1278SOL    MW4 5112   0.213   3.081   2.410 -0.3931  0.0411 -0.0403
 1279SOL     OW 5113   0.008   3.208   2.305  0.4284 -0.0237  0.1123
 1279SOL    HW2 5114   0.003   3.289   2.355 -0.6434 -0.2605  0.3955
 1279SOL    HW3 5115   0.020   3.236   2.215 -0.5189  0.4637  0.1325
 1279SOL    MW4 5116   0.009   3.222   2.300  0.1621  0.0094  0.1523
 1280SOL     OW 5117   0.022   3.460   2.449  0.2615  0.0480 -0.5088
 1280SOL    HW2 5118   0.010   3.467   2.544  1.0634 -1.9306 -0.2408
 1280SOL    HW3 5119  -0.057   3.499   2.412 -1.2483 -1.5021  1.0080
 1280SOL    MW4 5120   0.010   3.466   2.457  0.1681 -0.4176 -0.2733
 1281SOL     OW 5121   0.221   3.643   2.331 -0.3840 -0.2257  0.3977
 1281SOL    HW2 5122   0.298   3.594   2.359 -0.3714 -1.2386 -1.3655
 1281SOL    HW3 5123   0.147   3.586   2.353 -0.6306  0.6266  1.8338
 1281SOL    MW4 5124   0.221   3.629   2.338 -0.4149 -0.2469  0.3546
 1282SOL     OW 5125   0.243   3.901   2.430 -0.0538  0.6004 -0.0332
 1282SOL    HW2 5126   0.160   3.938   2.399 -0.3594  0.1336  0.2131
 1282SOL    HW3 5127   0.242   3.811   2.397 -0.1097  0.2830  0.8262
 1282SOL    MW4 5128   0.232   3.894   2.422 -0.1015  0.4969  0.1127
 1283SOL     OW 5129   4.475   3.985   2.325  0.0834 -0.0530  0.0035
 1283SOL    HW2 5130   4.463   4.078   2.346  0.0627  0.0021 -0.2480
 1283SOL    HW3 5131   4.481   3.983   2.229  0.3067 -0.2860  0.0219
 1283SOL    MW4 5132   4.474   3.997   2.315  0.1102 -0.0765 -0.0272
 1284SOL     OW 5133   0.004   4.254   2.393  0.1293 -0.4431 -0.0134
 1284SOL    HW2 5134   0.010   4.258   2.488 -1.2464  1.0004  0.0370
 1284SOL    HW3 5135   0.085   4.296   2.362  1.4411 -2.5309  0.4780
 1284SOL    MW4 5136   0.016   4.260   2.402  0.1209 -0.5281  0.0581
 1285SOL     OW 5137   0.232   4.363   2.343 -0.0444 -0.0288 -0.0875
 1285SOL    HW2 5138   0.320   4.330   2.362 -0.7986 -1.7298  0.5232
 1285SOL    HW3 5139   0.239   4.458   2.356  1.4146 -0.2721  1.0566
 1285SOL    MW4 5140   0.245   4.371   2.347  0.0486 -0.2853  0.1441
 1286SOL     OW 5141   0.665   4.623   2.394 -0.1397 -0.0278 -0.4319
 1286SOL    HW2 5142   0.646   4.624   2.488  0.1214  0.7103 -0.3825
 1286SOL    HW3 5143   0.755   4.656   2.388 -0.3341  0.4082 -0.9724
 1286SOL    MW4 5144   0.674   4.628   2.406 -0.1309  0.1271 -0.4967
 1287SOL     OW 5145   0.469   0.131   2.279  0.2714  0.0970  0.2120
 1287SOL    HW2 5146   0.545   0.076   2.299  0.6107  0.4332 -0.1343
 1287SOL    HW3 5147   0.461   0.127   2.184 -0.7202 -0.6882  0.3163
 1287SOL    MW4 5148   0.478   0.123   2.269  0.1853  0.0378  0.1801
 1288SOL     OW 5149   0.407   0.395   2.371 -0.0296 -0.1902  0.4662
 1288SOL    HW2 5150   0.436   0.398   2.462 -4.0785 -2.1187  1.9331
 1288SOL    HW3 5151   0.423   0.304   2.344 -0.1408  0.0025 -0.2596
 1288SOL    MW4 5152   0.413   0.383   2.379 -0.5785 -0.4192  0.5640
 1289SOL     OW 5153   0.688   0.484   2.270 -0.2250  0.1846 -0.6388
 1289SOL    HW2 5154   0.699   0.570   2.311 -1.0556  0.4614 -0.9878
 1289SOL    HW3 5155   0.602   0.454   2.299  0.2254 -0.7142 -0.1975
 1289SOL    MW4 5156   0.678   0.492   2.280 -0.2751  0.1025 -0.6266
 1290SOL     OW 5157   0.691   0.751   2.379 -0.0138  0.2040 -0.1527
 1290SOL    HW2 5158   0.692   0.763   2.474  0.5287  0.6944 -0.2153
 1290SOL    HW3 5159   0.634   0.821   2.346 -1.1860 -0.7067 -0.0992
 1290SOL    MW4 5160   0.684   0.762   2.387 -0.0969  0.1486 -0.1539
 1291SOL     OW 5161   0.480   0.939   2.319 -0.0957 -0.2227 -0.0932
 1291SOL    HW2 5162   0.414   0.875   2.345  0.0348  0.0917  1.0563
 1291SOL    HW3 5163   0.473   0.943   2.224 -0.4278 -1.5876 -0.1390
 1291SOL    MW4 5164   0.470   0.931   2.310 -0.1223 -0.3613  0.0524
 1292SOL     OW 5165   0.423   1.199   2.431 -0.0720  0.6663  0.1050
 1292SOL    HW2 5166   0.411   1.106   2.411  0.8832  0.3883  0.8224
 1292SOL    HW3 5167   0.362   1.243   2.372  0.7552 -0.3092 -1.5276
 1292SOL    MW4 5168   0.414   1.192   2.420  0.1632  0.5009 -0.0158
 1293SOL     OW 5169   0.685   1.272   2.309  0.2731  0.2246  0.4492
 1293SOL    HW2 5170   0.681   1.361   2.344 -0.6942  0.7873 -1.0549
 1293SOL    HW3 5171   0.603   1.231   2.339 -0.4110  0.6103 -0.8620
 1293SOL    MW4 5172   0.673   1.279   2.318  0.0552  0.3497  0.0778
 1294SOL     OW 5173   0.640   1.530   2.378 -0.1668 -0.2098 -0.3310
 1294SOL    HW2 5174   0.638   1.552   2.472  1.1600 -2.5500  0.3067
 1294SOL    HW3 5175   0.723   1.566   2.347 -0.8587  1.0370 -0.7380
 1294SOL    MW4 5176   0.651   1.538   2.387 -0.0831 -0.3541 -0.3006
 1295SOL     OW 5177   0.418   1.675   2.278  0.4019  0.2030 -0.0671
 1295SOL    HW2 5178   0.497   1.629   2.306  1.4860  2.8193  1.3393
 1295SOL    HW3 5179   0.346   1.626   2.318  1.3877 -1.2440 -0.0151
 1295SOL    MW4 5180   0.419   1.662   2.287  0.6750  0.3573  0.1253
 1296SOL     OW 5181   0.429   1.941   2.386 -0.1476  0.5151 -0.1298
 1296SOL    HW2 5182   0.513   1.972   2.353 -0.8651  1.2852 -1.2800
 1296SOL    HW3 5183   0.426   1.849   2.360  1.5989 -0.3704  2.5187
 1296SOL    MW4 5184   0.440   1.933   2.378 -0.0118  0.4999  0.0679
 1297SOL     OW 5185   0.659   2.045   2.270  0.5528 -0.0282 -0.4280
 1297SOL    HW2 5186   0.723   2.000   2.325 -0.4142  1.3242  1.8666
 1297SOL    HW3 5187   0.664   2.137   2.297  1.4833  1.1032 -4.0252
 1297SOL    MW4 5188   0.669   2.052   2.281  0.5480  0.2995 -0.5998
 1298SOL     OW 5189   0.698   2.291   2.381  0.0134  0.1141 -0.0145
 1298SOL    HW2 5190   0.698   2.302   2.476 -0.9221  2.0541 -0.2270
 1298SOL    HW3 5191   0.768   2.348   2.349  0.9106 -1.1979 -0.4301
 1298SOL    MW4 5192   0.707   2.300   2.389  0.0083  0.1969 -0.0974
 1299SOL     OW 5193   0.470   2.453   2.338 -0.1646 -0.0369  0.0123
 1299SOL    HW2 5194   0.538   2.388   2.358  0.1958  0.1462 -0.6107
 1299SOL    HW3 5195   0.390   2.414   2.372  0.2018 -0.3930  0.4854
 1299SOL    MW4 5196   0.469   2.439   2.345 -0.0687 -0.0597 -0.0074
 1300SOL     OW 5197   0.450   2.712   2.430 -0.0124  0.8181 -0.1703
 1300SOL    HW2 5198   0.452   2.711   2.526  2.1411 -0.3874 -0.2143
 1300SOL    HW3 5199   0.448   2.620   2.405  2.7424  1.0358 -1.3153
 1300SOL    MW4 5200   0.450   2.700   2.439  0.6352  0.6878 -0.3272
 1301SOL     OW 5201   0.675   2.821   2.304  0.5496 -0.1408 -0.4138
 1301SOL    HW2 5202   0.750   2.771   2.337  0.5350  0.0875 -0.0353
 1301SOL    HW3 5203   0.600   2.785   2.350  0.7100  1.1752  0.9074
 1301SOL    MW4 5204   0.675   2.810   2.314  0.5689  0.0629 -0.1896
 1302SOL     OW 5205   0.660   3.076   2.415  0.0664  0.3726  0.1768
 1302SOL    HW2 5206   0.577   3.105   2.378  0.3503 -0.0693 -0.8287
 1302SOL    HW3 5207   0.670   2.986   2.384 -0.4701 -0.5985  2.6719
 1302SOL    MW4 5208   0.650   3.068   2.406  0.0331  0.1862  0.3733
 1303SOL     OW 5209   0.436   3.257   2.338 -0.3727 -0.7986  0.1086
 1303SOL    HW2 5210   0.352   3.222   2.369 -1.4192  1.0497 -0.6064
 1303SOL    HW3 5211   0.430   3.253   2.242  0.2607 -0.4343  0.0518
 1303SOL    MW4 5212   0.424   3.252   2.329 -0.4272 -0.5067  0.0067
 1304SOL     OW 5213   0.436   3.506   2.449 -0.2256 -0.4929  0.3901
 1304SOL    HW2 5214   0.526   3.534   2.429 -0.6200  0.1548 -0.5122
 1304SOL    HW3 5215   0.430   3.419   2.411 -0.1930 -0.2540 -0.1762
 1304SOL    MW4 5216   0.447   3.498   2.442 -0.2734 -0.3759  0.1963
 1305SOL     OW 5217   0.671   3.611   2.320 -0.0753  0.2846  0.3808
 1305SOL    HW2 5218   0.660   3.703   2.345 -0.6870  0.4509 -0.4819
 1305SOL    HW3 5219   0.674   3.612   2.224  0.4215 -0.5443  0.3811
 1305SOL    MW4 5220   0.670   3.623   2.311 -0.0904  0.1972  0.2670
 1306SOL     OW 5221   0.671   3.880   2.385  0.2553 -0.0361  0.4946
 1306SOL    HW2 5222   0.690   3.885   2.479 -0.2928  0.9080  0.5574
 1306SOL    HW3 5223   0.612   3.953   2.368 -2.5013 -2.2568  0.1164
 1306SOL    MW4 5224   0.666   3.890   2.395 -0.1807 -0.2046  0.4530
 1307SOL     OW 5225   0.462   4.040   2.317  0.0567 -1.0190  0.2407
 1307SOL    HW2 5226   0.395   3.978   2.346 -2.0242  1.0591 -0.0222
 1307SOL    HW3 5227   0.456   4.038   2.221 -1.0297  0.6587  0.2677
 1307SOL    MW4 5228   0.452   4.031   2.308 -0.3612 -0.5235  0.2095
 1308SOL     OW 5229   0.483   4.302   2.441  0.2762 -0.0982 -0.1136
 1308SOL    HW2 5230   0.555   4.331   2.386  1.0790 -0.8530  0.5433
 1308SOL    HW3 5231   0.471   4.210   2.419 -0.0178 -0.1633  0.3046
 1308SOL    MW4 5232   0.491   4.294   2.430  0.3434 -0.2064  0.0282
 1309SOL     OW 5233   0.683   4.376   2.277 -0.2516 -0.0107  0.2050
 1309SOL    HW2 5234   0.666   4.461   2.317 -1.6067 -0.4760  0.6518
 1309SOL    HW3 5235   0.675   4.391   2.183  0.0389  0.4645  0.2563
 1309SOL    MW4 5236   0.679   4.389   2.270 -0.3921 -0.0094  0.2707
 1310SOL     OW 5237   1.132   4.663   2.407  0.1411  0.7003  0.1487
 1310SOL    HW2 5238   1.117   4.650   2.501  0.4691  0.9832  0.2451
 1310SOL    HW3 5239   1.052   4.705   2.375 -0.0431  0.4381  0.2675
 1310SOL    MW4 5240   1.120   4.667   2.415  0.1600  0.7030  0.1771
 1311SOL     OW 5241   0.894   0.100   2.324 -0.3455 -0.0560 -0.1154
 1311SOL    HW2 5242   0.885   0.189   2.360 -0.8569 -0.2660  0.2810
 1311SOL    HW3 5243   0.930   0.114   2.237  0.4263  0.4900  0.2819
 1311SOL    MW4 5244   0.897   0.114   2.317 -0.3111 -0.0117 -0.0107
 1312SOL     OW 5245   0.885   0.348   2.421  0.1954 -0.5028 -0.3168
 1312SOL    HW2 5246   0.969   0.372   2.382 -0.5115 -0.3895 -1.8263
 1312SOL    HW3 5247   0.821   0.404   2.377 -0.9033 -1.9366 -0.6116
 1312SOL    MW4 5248   0.887   0.358   2.410 -0.0428 -0.6770 -0.5548
 1313SOL     OW 5249   1.127   0.450   2.321  0.0168 -0.2505 -0.1176
 1313SOL    HW2 5250   1.208   0.402   2.338 -0.4902 -1.2457 -0.4672
 1313SOL    HW3 5251   1.129   0.468   2.227  0.0704  0.1575 -0.0368
 1313SOL    MW4 5252   1.138   0.446   2.311 -0.0430 -0.3280 -0.1531
 1314SOL     OW 5253   1.154   0.730   2.395 -0.3051 -0.0931 -0.0172
 1314SOL    HW2 5254   1.078   0.774   2.358  0.1217  0.4387 -0.2833
 1314SOL    HW3 5255   1.150   0.640   2.363 -0.7580 -0.0350 -0.1170
 1314SOL    MW4 5256   1.144   0.724   2.386 -0.3085 -0.0153 -0.0655
 1315SOL     OW 5257   0.914   0.873   2.280 -0.1769  0.2773 -0.3291
 1315SOL    HW2 5258   0.909   0.959   2.321  1.2701 -0.1764  0.8421
 1315SOL    HW3 5259   0.834   0.828   2.308 -2.2835  2.1298 -3.1339
 1315SOL    MW4 5260   0.903   0.878   2.289 -0.2640  0.4619 -0.5447
 1316SOL     OW 5261   0.887   1.113   2.382 -0.1620 -0.1467 -0.0241
 1316SOL    HW2 5262   0.969   1.146   2.346  1.4933 -1.1118  2.7186
 1316SOL    HW3 5263   0.821   1.175   2.350  1.7123  1.1394 -1.5859
 1316SOL    MW4 5264   0.889   1.126   2.373  0.3037 -0.1044  0.1317
 1317SOL     OW 5265   1.123   1.231   2.278  0.4569  0.0076 -0.6166
 1317SOL    HW2 5266   1.209   1.219   2.317  0.8047 -0.5775 -1.5644
 1317SOL    HW3 5267   1.140   1.241   2.184 -0.6164 -1.4471 -0.9733
 1317SOL    MW4 5268   1.136   1.231   2.271  0.3612 -0.2615 -0.7887
 1318SOL     OW 5269   1.070   1.472   2.422  0.6722  0.3340 -0.3269
 1318SOL    HW2 5270   0.994   1.520   2.387 -0.1009 -0.4668  0.2340
 1318SOL    HW3 5271   1.064   1.386   2.381  1.5852  0.4325 -0.6758
 1318SOL    MW4 5272   1.059   1.467   2.412  0.6907  0.2413 -0.2990
 1319SOL     OW 5273   0.882   1.641   2.306  0.2178  0.4045  0.1248
 1319SOL    HW2 5274   0.912   1.724   2.344 -0.3080  0.6488  0.0134
 1319SOL    HW3 5275   0.912   1.646   2.215  2.1449 -0.5139  0.6742
 1319SOL    MW4 5276   0.890   1.653   2.299  0.4027  0.3156  0.1826
 1320SOL     OW 5277   0.844   1.904   2.418 -0.0041  0.1310 -0.2137
 1320SOL    HW2 5278   0.861   1.888   2.511  0.5189  1.8669  0.0103
 1320SOL    HW3 5279   0.925   1.944   2.386  0.0911 -1.1389 -1.5926
 1320SOL    MW4 5280   0.857   1.908   2.426  0.0775  0.1925 -0.3660
 1321SOL     OW 5281   1.078   2.060   2.326  0.0977  0.0535 -0.2344
 1321SOL    HW2 5282   1.161   2.011   2.329  0.3460  0.4905  0.1512
 1321SOL    HW3 5283   1.061   2.072   2.233  0.4831 -0.0241 -0.3179
 1321SOL    MW4 5284   1.087   2.055   2.314  0.1813  0.1009 -0.1946
 1322SOL     OW 5285   1.148   2.304   2.420 -0.0169 -0.7282 -0.1467
 1322SOL    HW2 5286   1.224   2.329   2.368 -0.0142 -0.7494 -0.1529
 1322SOL    HW3 5287   1.119   2.221   2.381  0.3598 -1.0654  0.2804
 1322SOL    MW4 5288   1.154   2.296   2.408  0.0332 -0.7755 -0.0912
 1323SOL     OW 5289   0.927   2.435   2.319  0.3955 -0.0704  0.1291
 1323SOL    HW2 5290   1.012   2.403   2.349  0.6617  0.9086  0.4677
 1323SOL    HW3 5291   0.932   2.434   2.224 -0.0688 -2.2125  0.1101
 1323SOL    MW4 5292   0.939   2.431   2.311  0.3694 -0.2239  0.1713
 1324SOL     OW 5293   0.889   2.690   2.409  0.3282  0.2600 -0.2957
 1324SOL    HW2 5294   0.878   2.694   2.504 -1.9697  0.0654 -0.5181
 1324SOL    HW3 5295   0.901   2.597   2.390  1.2996  0.3559 -0.1421
 1324SOL    MW4 5296   0.889   2.678   2.419  0.1532  0.2470 -0.3048
 1325SOL     OW 5297   1.093   2.858   2.297 -0.2930 -0.1059 -0.2806
 1325SOL    HW2 5298   1.164   2.796   2.311  0.7866  1.4286  1.3564
 1325SOL    HW3 5299   1.020   2.825   2.350  0.1149 -0.2638  0.1898
 1325SOL    MW4 5300   1.093   2.846   2.306 -0.0967  0.0757 -0.0026
 1326SOL     OW 5301   1.122   3.114   2.394 -0.2692 -0.6115 -0.1062
 1326SOL    HW2 5302   1.047   3.157   2.352 -1.3915  0.0149  2.4995
 1326SOL    HW3 5303   1.116   3.023   2.366  0.0380  0.0959 -2.7079
 1326SOL    MW4 5304   1.112   3.108   2.385 -0.3768 -0.4355 -0.1057
 1327SOL     OW 5305   0.885   3.220   2.289  0.3388  0.0609 -0.1593
 1327SOL    HW2 5306   0.890   3.307   2.328 -1.0531  0.6363 -1.2171
 1327SOL    HW3 5307   0.810   3.179   2.331  0.5553 -0.3512 -0.1774
 1327SOL    MW4 5308   0.876   3.226   2.299  0.1837  0.0825 -0.3013
 1328SOL     OW 5309   0.900   3.473   2.391  0.1745  0.2269 -0.1445
 1328SOL    HW2 5310   0.905   3.484   2.486  0.5140 -0.0424 -0.1306
 1328SOL    HW3 5311   0.816   3.512   2.367  0.2967  0.7108  0.2055
 1328SOL    MW4 5312   0.890   3.479   2.401  0.2355  0.2552 -0.0965
 1329SOL     OW 5313   1.108   3.616   2.267  0.4430 -0.1766 -0.2706
 1329SOL    HW2 5314   1.183   3.581   2.314  0.9336  0.4019 -0.6152
 1329SOL    HW3 5315   1.032   3.577   2.311  0.9038  0.0183  0.7178
 1329SOL    MW4 5316   1.108   3.606   2.279  0.5685 -0.0746 -0.1856
 1330SOL     OW 5317   1.140   3.876   2.373 -0.1812 -0.4345 -0.3771
 1330SOL    HW2 5318   1.215   3.918   2.331  0.5943 -0.3846  1.0078
 1330SOL    HW3 5319   1.137   3.788   2.337 -0.1592 -0.0615 -1.2907
 1330SOL    MW4 5320   1.149   3.870   2.363 -0.0760 -0.3787 -0.3149
 1331SOL     OW 5321   0.908   4.005   2.310 -0.3010 -0.1977 -0.3842
 1331SOL    HW2 5322   0.980   3.944   2.331  0.9737  1.2855 -0.3430
 1331SOL    HW3 5323   0.829   3.955   2.330  0.6485 -2.4068 -1.8207
 1331SOL    MW4 5324   0.907   3.990   2.315 -0.0075 -0.2935 -0.5683
 1332SOL     OW 5325   0.890   4.264   2.419 -0.4946 -0.9495 -0.0165
 1332SOL    HW2 5326   0.908   4.179   2.379 -1.0659 -0.5656 -1.1315
 1332SOL    HW3 5327   0.811   4.295   2.373 -0.9566 -0.3379  1.1800
 1332SOL    MW4 5328   0.882   4.257   2.407 -0.6309 -0.8181 -0.0057
 1333SOL     OW 5329   1.102   4.384   2.274  0.1931 -0.0327 -0.2940
 1333SOL    HW2 5330   1.018   4.351   2.306  0.0863  0.7039  0.2122
 1333SOL    HW3 5331   1.107   4.473   2.309  2.3981 -0.9767  1.9276
 1333SOL    MW4 5332   1.091   4.392   2.283  0.4699 -0.0601  0.0659
 1334SOL     OW 5333   1.575   4.649   2.385 -0.0480  0.2932 -0.0045
 1334SOL    HW2 5334   1.643   4.693   2.334 -0.8962  0.5384 -0.9438
 1334SOL    HW3 5335   1.493   4.674   2.342 -0.5941 -1.6464 -0.1281
 1334SOL    MW4 5336   1.573   4.658   2.373 -0.2320  0.0697 -0.1447
 1335SOL     OW 5337   1.353   0.098   2.267  0.2044  0.0662 -0.1117
 1335SOL    HW2 5338   1.365   0.183   2.310  1.3103 -0.4953  0.7226
 1335SOL    HW3 5339   1.279   0.059   2.314 -0.4090  0.6285 -0.6014
 1335SOL    MW4 5340   1.345   0.104   2.279  0.2694  0.0663 -0.0662
 1336SOL     OW 5341   1.374   0.333   2.414 -0.3519 -0.7959 -0.0129
 1336SOL    HW2 5342   1.379   0.320   2.509 -0.4017  0.1559  0.1162
 1336SOL    HW3 5343   1.443   0.396   2.394 -0.7136 -0.5671 -0.5395
 1336SOL    MW4 5344   1.384   0.339   2.424 -0.4062 -0.6401 -0.0653
 1337SOL     OW 5345   1.582   0.513   2.340 -0.0302  0.1593 -0.1687
 1337SOL    HW2 5346   1.654   0.450   2.340 -0.6380 -0.5511 -0.9374
 1337SOL    HW3 5347   1.544   0.505   2.253 -2.4036 -1.0690  0.9224
 1337SOL    MW4 5348   1.587   0.503   2.329 -0.4235 -0.0965 -0.1262
 1338SOL     OW 5349   1.591   0.770   2.470  0.0388 -0.6876  0.1984
 1338SOL    HW2 5350   1.667   0.822   2.443 -0.6606 -0.0148 -0.5282
 1338SOL    HW3 5351   1.605   0.685   2.430  0.2352 -0.4478 -0.2536
 1338SOL    MW4 5352   1.603   0.766   2.461 -0.0276 -0.5672  0.0429
 1339SOL     OW 5353   1.397   0.854   2.304  0.0644 -0.5027  0.0118
 1339SOL    HW2 5354   1.471   0.833   2.361 -0.5299  0.1089  1.0244
 1339SOL    HW3 5355   1.325   0.801   2.338 -0.1374 -0.5844 -0.5452
 1339SOL    MW4 5356   1.397   0.844   2.316 -0.0407 -0.4328  0.0719
 1340SOL     OW 5357   1.355   1.124   2.387  0.0704  0.1446 -0.0349
 1340SOL    HW2 5358   1.359   1.128   2.482  2.6737  0.3961 -0.1294
 1340SOL    HW3 5359   1.370   1.032   2.366 -0.6604  0.0614 -0.1938
 1340SOL    MW4 5360   1.358   1.112   2.397  0.3174  0.1668 -0.0684
 1341SOL     OW 5361   1.518   1.312   2.288 -0.0664 -0.1417 -0.1558
 1341SOL    HW2 5362   1.449   1.248   2.303 -0.8231  0.6016 -0.4080
 1341SOL    HW3 5363   1.522   1.320   2.192  0.4336 -0.2472 -0.1456
 1341SOL    MW4 5364   1.510   1.305   2.277 -0.1002 -0.0575 -0.1877
 1342SOL     OW 5365   1.512   1.557   2.388  0.1327 -0.0737 -0.4968
 1342SOL    HW2 5366   1.588   1.601   2.349  0.1741  0.3999  0.1155
 1342SOL    HW3 5367   1.517   1.467   2.356  0.3310  0.2322 -1.3549
 1342SOL    MW4 5368   1.522   1.551   2.379  0.1643  0.0291 -0.5292
 1343SOL     OW 5369   1.262   1.629   2.300  0.2544  0.3695 -0.0540
 1343SOL    HW2 5370   1.352   1.612   2.327 -0.1670  1.1373  1.9391
 1343SOL    HW3 5371   1.210   1.568   2.352 -0.5022  1.0050 -0.0643
 1343SOL    MW4 5372   1.267   1.618   2.310  0.0990  0.5547  0.2076
 1344SOL     OW 5373   1.285   1.883   2.395 -0.1305  0.4638  0.3462
 1344SOL    HW2 5374   1.359   1.914   2.342 -0.1333 -0.3500 -0.1483
 1344SOL    HW3 5375   1.269   1.794   2.363 -0.4665  0.1536  1.3668
 1344SOL    MW4 5376   1.293   1.876   2.384 -0.1752  0.3155  0.4156
 1345SOL     OW 5377   1.496   2.040   2.261 -0.0388 -0.0536 -0.4549
 1345SOL    HW2 5378   1.572   1.994   2.298  0.8179  1.1402 -0.7004
 1345SOL    HW3 5379   1.511   2.039   2.167 -0.9815 -0.9390 -0.5974
 1345SOL    MW4 5380   1.508   2.034   2.254 -0.0501 -0.0129 -0.5061
 1346SOL     OW 5381   1.597   2.303   2.327 -0.2130 -0.2749 -0.0793
 1346SOL    HW2 5382   1.602   2.325   2.420 -0.2956  1.2968 -0.4424
 1346SOL    HW3 5383   1.578   2.209   2.326  1.6966 -0.7051  1.4599
 1346SOL    MW4 5384   1.595   2.293   2.339  0.0280 -0.1243  0.0759
 1347SOL     OW 5385   1.363   2.428   2.292  0.1988  0.5496 -0.3996
 1347SOL    HW2 5386   1.438   2.374   2.318 -1.0312 -0.4459  1.1812
 1347SOL    HW3 5387   1.376   2.444   2.199  2.3855  0.4134 -0.1373
 1347SOL    MW4 5388   1.375   2.423   2.283  0.3250  0.4003 -0.1564
 1348SOL     OW 5389   1.314   2.713   2.364 -0.0629 -0.2640 -0.0866
 1348SOL    HW2 5390   1.388   2.745   2.311 -0.6390 -0.1319 -0.8260
 1348SOL    HW3 5391   1.305   2.621   2.338  0.1280 -0.4065  0.3440
 1348SOL    MW4 5392   1.323   2.705   2.353 -0.1137 -0.2654 -0.1273
 1349SOL     OW 5393   1.555   2.831   2.249  0.0892  0.2843 -0.2230
 1349SOL    HW2 5394   1.561   2.916   2.294 -0.7191  0.3392 -0.2196
 1349SOL    HW3 5395   1.546   2.853   2.157 -2.0543  0.2490 -0.0396
 1349SOL    MW4 5396   1.555   2.845   2.243 -0.3003  0.2869 -0.1984
 1350SOL     OW 5397   1.574   3.077   2.366  0.4356 -0.0039 -0.1524
 1350SOL    HW2 5398   1.573   3.064   2.461  1.5901  0.0083 -0.1371
 1350SOL    HW3 5399   1.504   3.141   2.351 -0.3782 -0.7075  0.5783
 1350SOL    MW4 5400   1.565   3.084   2.377  0.4806 -0.0951 -0.0540
 1351SOL     OW 5401   1.355   3.249   2.315 -0.3950 -0.1640  0.2441
 1351SOL    HW2 5402   1.272   3.210   2.341 -0.3286  0.1739  0.9881
 1351SOL    HW3 5403   1.355   3.246   2.219 -1.8919  1.1484  0.1836
 1351SOL    MW4 5404   1.344   3.243   2.306 -0.5837  0.0537  0.3343
 1352SOL     OW 5405   1.325   3.512   2.389  0.3366  0.6369  0.2620
 1352SOL    HW2 5406   1.349   3.509   2.481 -0.4193  1.2887  0.4880
 1352SOL    HW3 5407   1.334   3.422   2.359  0.2765  0.3656  1.0478
 1352SOL    MW4 5408   1.329   3.500   2.397  0.2289  0.6871  0.3955
 1353SOL     OW 5409   1.523   3.640   2.248  0.2052  0.6443 -0.8224
 1353SOL    HW2 5410   1.545   3.713   2.305  1.2963  0.4812 -1.0209
 1353SOL    HW3 5411   1.460   3.588   2.299  2.0505 -0.1392  0.7440
 1353SOL    MW4 5412   1.517   3.643   2.262  0.5927  0.5194 -0.6419
 1354SOL     OW 5413   1.594   3.865   2.392  0.2420 -0.2907  0.2955
 1354SOL    HW2 5414   1.581   3.865   2.487  0.9101 -0.1301  0.3914
 1354SOL    HW3 5415   1.654   3.938   2.376 -0.9207  0.5123 -0.4061
 1354SOL    MW4 5416   1.601   3.874   2.402  0.1767 -0.1636  0.2156
 1355SOL     OW 5417   1.359   4.014   2.295  0.4690  1.2749 -0.0606
 1355SOL    HW2 5418   1.437   3.964   2.322  0.4724  0.1385 -2.0411
 1355SOL    HW3 5419   1.367   4.020   2.200 -1.0968  2.4855 -0.1317
 1355SOL    MW4 5420   1.371   4.008   2.286  0.2629  1.2847 -0.3313
 1356SOL     OW 5421   1.341   4.286   2.383  0.2357  0.4645 -0.4292
 1356SOL    HW2 5422   1.329   4.194   2.361  0.8968  0.7716 -2.1441
 1356SOL    HW3 5423   1.264   4.329   2.345  0.7854  0.8354 -1.1443
 1356SOL    MW4 5424   1.329   4.280   2.375  0.3954  0.5539 -0.7498
 1357SOL     OW 5425   1.571   4.406   2.284  0.1553  0.2087  0.4836
 1357SOL    HW2 5426   1.490   4.368   2.317 -0.2939  0.1525 -0.6528
 1357SOL    HW3 5427   1.574   4.494   2.322 -0.9142  0.5567 -0.2217
 1357SOL    MW4 5428   1.561   4.413   2.293 -0.0451  0.2472  0.2406
 1358SOL     OW 5429   1.994   4.618   2.379  0.1692  0.2536 -0.3509
 1358SOL    HW2 5430   2.079   4.655   2.356 -0.0191  0.5050 -0.6399
 1358SOL    HW3 5431   1.999   4.528   2.348  0.2978  0.2926 -0.4471
 1358SOL    MW4 5432   2.006   4.611   2.372  0.1613  0.2919 -0.4017
 1359SOL     OW 5433   1.790   0.086   2.247  0.1443  0.5205 -0.4478
 1359SOL    HW2 5434   1.796   0.166   2.299 -0.7631  0.5727 -0.4155
 1359SOL    HW3 5435   1.852   0.026   2.289 -0.3316  0.6739  0.4969
 1359SOL    MW4 5436   1.799   0.089   2.260 -0.0382  0.5476 -0.3189
 1360SOL     OW 5437   1.781   0.320   2.385  0.4211 -0.4782 -0.5326
 1360SOL    HW2 5438   1.778   0.338   2.479 -1.8000 -0.0687 -0.6660
 1360SOL    HW3 5439   1.853   0.375   2.352  0.3260  0.4084  0.7156
 1360SOL    MW4 5440   1.790   0.330   2.393  0.1155 -0.3072 -0.3855
 1361SOL     OW 5441   1.979   0.475   2.296  0.1915  0.4840 -0.4261
 1361SOL    HW2 5442   1.959   0.560   2.337 -0.8482 -0.7219  1.6326
 1361SOL    HW3 5443   1.973   0.493   2.202  0.7025  2.8657 -0.0462
 1361SOL    MW4 5444   1.975   0.489   2.289  0.1217  0.6391 -0.1043
 1362SOL     OW 5445   1.990   0.714   2.452  0.5218  0.1422  0.0918
 1362SOL    HW2 5446   2.077   0.740   2.420  0.4622  0.5226  0.2282
 1362SOL    HW3 5447   1.932   0.784   2.421  0.1363 -0.5111 -0.6644
 1362SOL    MW4 5448   1.994   0.727   2.444  0.4630  0.1062  0.0101
 1363SOL     OW 5449   1.794   0.899   2.340  0.1092  0.6172 -0.0323
 1363SOL    HW2 5450   1.777   0.986   2.376 -1.1523  0.2549  0.2738
 1363SOL    HW3 5451   1.777   0.908   2.246  0.7392  0.8837 -0.1259
 1363SOL    MW4 5452   1.789   0.911   2.332  0.0259  0.6045 -0.0043
 1364SOL     OW 5453   1.722   1.158   2.447  0.0189  0.1104  0.0330
 1364SOL    HW2 5454   1.801   1.201   2.413 -0.3863 -0.3916 -1.5817
 1364SOL    HW3 5455   1.651   1.192   2.393 -0.3508 -2.3570 -1.1103
 1364SOL    MW4 5456   1.723   1.168   2.435 -0.0833 -0.2813 -0.3309
 1365SOL     OW 5457   1.934   1.268   2.318  0.1900  0.9296  0.0068
 1365SOL    HW2 5458   1.953   1.360   2.336 -1.5853  1.2678  0.2714
 1365SOL    HW3 5459   1.960   1.256   2.227  1.2944  1.4391  0.2400
 1365SOL    MW4 5460   1.940   1.279   2.308  0.1014  1.0414  0.0725
 1366SOL     OW 5461   1.982   1.531   2.393  0.0949  0.3837  0.2865
 1366SOL    HW2 5462   1.992   1.543   2.487  1.0700 -0.7800  0.3372
 1366SOL    HW3 5463   1.889   1.545   2.377  0.2050  2.3641  1.1465
 1366SOL    MW4 5464   1.971   1.535   2.403  0.2380  0.4914  0.4067
 1367SOL     OW 5465   1.743   1.655   2.280  0.2893  0.1763 -0.1054
 1367SOL    HW2 5466   1.752   1.748   2.298  1.5609  0.0017  0.2026
 1367SOL    HW3 5467   1.735   1.649   2.185  2.3823  0.4588 -0.3275
 1367SOL    MW4 5468   1.743   1.666   2.270  0.7332  0.1905 -0.0941
 1368SOL     OW 5469   1.723   1.915   2.356 -0.3037 -0.1343  0.4898
 1368SOL    HW2 5470   1.738   1.909   2.451 -1.9543  0.4537  0.8130
 1368SOL    HW3 5471   1.795   1.969   2.323  0.4263 -0.5617  1.3725
 1368SOL    MW4 5472   1.735   1.922   2.364 -0.4252 -0.1131  0.6489
 1369SOL     OW 5473   1.948   2.085   2.296 -0.6058 -0.6052 -0.2698
 1369SOL    HW2 5474   2.028   2.038   2.320 -0.7737 -0.9971 -0.4804
 1369SOL    HW3 5475   1.957   2.101   2.202  0.3681  1.5255  0.1357
 1369SOL    MW4 5476   1.960   2.081   2.287 -0.4995 -0.3758 -0.2441
 1370SOL     OW 5477   2.007   2.335   2.386 -0.4219  0.1896 -0.1794
 1370SOL    HW2 5478   2.084   2.371   2.341 -1.0237  1.0013 -0.5873
 1370SOL    HW3 5479   1.996   2.248   2.349 -0.0885  0.3217 -0.5991
 1370SOL    MW4 5480   2.016   2.329   2.375 -0.4573  0.3141 -0.2886
 1371SOL     OW 5481   1.804   2.420   2.229  0.0478  0.3423 -0.3491
 1371SOL    HW2 5482   1.876   2.391   2.286 -0.6749  0.2608  0.5392
 1371SOL    HW3 5483   1.726   2.379   2.267 -0.5684  1.0278 -0.8666
 1371SOL    MW4 5484   1.803   2.411   2.242 -0.1288  0.4220 -0.3002
 1372SOL     OW 5485   1.764   2.670   2.344  0.2567  0.3000 -0.6597
 1372SOL    HW2 5486   1.772   2.586   2.298 -0.9946 -1.3810  2.0206
 1372SOL    HW3 5487   1.680   2.705   2.316  0.7599  0.6589 -1.7495
 1372SOL    MW4 5488   1.754   2.663   2.334  0.1580  0.1256 -0.4498
 1373SOL     OW 5489   2.021   2.857   2.289 -0.1873 -0.1433  0.3421
 1373SOL    HW2 5490   2.095   2.798   2.301 -0.3034 -0.5290 -0.7504
 1373SOL    HW3 5491   1.948   2.814   2.334  0.1599  0.0738  1.1264
 1373SOL    MW4 5492   2.021   2.844   2.297 -0.1568 -0.1656  0.3014
 1374SOL     OW 5493   2.014   3.113   2.375  0.4869 -0.2507 -0.2474
 1374SOL    HW2 5494   2.088   3.157   2.333  1.3506 -1.1861  0.3100
 1374SOL    HW3 5495   2.018   3.023   2.343 -1.8495  0.2638 -2.1501
 1374SOL    MW4 5496   2.024   3.107   2.365  0.2926 -0.3062 -0.4249
 1375SOL     OW 5497   1.773   3.229   2.269  0.2699  0.9414  0.5397
 1375SOL    HW2 5498   1.861   3.201   2.296  0.6799 -2.5043 -3.7983
 1375SOL    HW3 5499   1.715   3.160   2.300 -0.2686  0.9168 -0.4975
 1375SOL    MW4 5500   1.777   3.216   2.277  0.2529  0.4835 -0.1695
 1376SOL     OW 5501   1.778   3.513   2.337 -0.1183 -0.2986 -0.4924
 1376SOL    HW2 5502   1.762   3.423   2.309 -0.8948  0.0372 -1.1441
 1376SOL    HW3 5503   1.695   3.557   2.325  0.3510  0.5934 -0.5044
 1376SOL    MW4 5504   1.765   3.507   2.332 -0.1588 -0.1366 -0.5799
 1377SOL     OW 5505   2.060   3.639   2.282  0.6042 -0.3238  0.3537
 1377SOL    HW2 5506   1.972   3.606   2.304  0.1770  1.1928  0.9918
 1377SOL    HW3 5507   2.062   3.639   2.186  0.1941 -1.0972  0.3399
 1377SOL    MW4 5508   2.048   3.635   2.272  0.4937 -0.2258  0.4361
 1378SOL     OW 5509   2.047   3.903   2.358  0.0202  0.1262  0.1433
 1378SOL    HW2 5510   2.049   3.910   2.454 -1.9180 -0.4920  0.2485
 1378SOL    HW3 5511   2.044   3.809   2.341 -0.0336  0.2470 -0.5181
 1378SOL    MW4 5512   2.047   3.891   2.369 -0.2427  0.0606  0.0699
 1379SOL     OW 5513   1.819   4.031   2.246 -1.0492 -0.4448 -0.3090
 1379SOL    HW2 5514   1.900   3.984   2.265 -1.5798 -0.9147  0.8438
 1379SOL    HW3 5515   1.789   3.995   2.162  0.7931  0.9302 -1.5965
 1379SOL    MW4 5516   1.825   4.020   2.237 -0.8761 -0.3254 -0.3267
 1380SOL     OW 5517   1.771   4.249   2.390  0.4311 -0.3293  0.0692
 1380SOL    HW2 5518   1.775   4.172   2.334  0.6366  0.5227 -1.1023
 1380SOL    HW3 5519   1.695   4.297   2.359  0.0301 -0.2796  1.0994
 1380SOL    MW4 5520   1.762   4.245   2.379  0.4053 -0.2103  0.0505
 1381SOL     OW 5521   2.029   4.362   2.300  0.3579  0.2351 -0.0140
 1381SOL    HW2 5522   1.940   4.328   2.307  0.0836  0.9338 -0.0260
 1381SOL    HW3 5523   2.052   4.352   2.207  1.6504 -3.2617  0.6277
 1381SOL    MW4 5524   2.020   4.356   2.288  0.4923 -0.1341  0.0691
 1382SOL     OW 5525   2.497   4.626   2.403 -0.2734 -0.2040 -0.4793
 1382SOL    HW2 5526   2.577   4.677   2.393  0.8248 -1.4425  1.6488
 1382SOL    HW3 5527   2.519   4.540   2.365 -0.0952 -1.0025  1.3785
 1382SOL    MW4 5528   2.511   4.621   2.397 -0.1050 -0.4728  0.0466
 1383SOL     OW 5529   2.234   0.045   2.286  0.6921 -0.0495  0.3008
 1383SOL    HW2 5530   2.209   0.128   2.328  0.3136 -0.9074  1.8019
 1383SOL    HW3 5531   2.322   0.027   2.319  0.9206 -0.0785 -0.3077
 1383SOL    MW4 5532   2.242   0.054   2.296  0.6723 -0.1665  0.4186
 1384SOL     OW 5533   2.205   0.336   2.363  0.2877 -0.2176 -0.0035
 1384SOL    HW2 5534   2.271   0.406   2.361  0.1125  0.0341  2.0400
 1384SOL    HW3 5535   2.124   0.379   2.336  0.6402 -0.1862 -1.0510
 1384SOL    MW4 5536   2.203   0.351   2.359  0.3111 -0.1803  0.1279
 1385SOL     OW 5537   2.426   0.494   2.299 -0.1514 -0.5230  0.0595
 1385SOL    HW2 5538   2.508   0.456   2.332  0.4807  0.7383 -0.0287
 1385SOL    HW3 5539   2.432   0.484   2.204 -0.1322 -0.5027  0.0586
 1385SOL    MW4 5540   2.438   0.488   2.291 -0.0655 -0.3539  0.0477
 1386SOL     OW 5541   2.451   0.750   2.387 -0.0422 -0.1167  0.3259
 1386SOL    HW2 5542   2.529   0.793   2.352  0.3122  0.1494  1.4038
 1386SOL    HW3 5543   2.456   0.660   2.354  1.4038 -0.4532  1.3812
 1386SOL    MW4 5544   2.462   0.743   2.378  0.1954 -0.1260  0.6074
 1387SOL     OW 5545   2.203   0.820   2.288  0.4147  0.3429  0.0607
 1387SOL    HW2 5546   2.175   0.908   2.314 -0.6928 -0.0531  0.2311
 1387SOL    HW3 5547   2.290   0.810   2.327  0.2247  1.0722  0.6840
 1387SOL    MW4 5548   2.211   0.830   2.296  0.2435  0.3869  0.1655
 1388SOL     OW 5549   2.179   1.099   2.364 -0.2742  0.5067 -0.8225
 1388SOL    HW2 5550   2.257   1.133   2.320 -0.1606 -0.4648 -1.3825
 1388SOL    HW3 5551   2.114   1.169   2.356  0.6092  1.4208 -0.1350
 1388SOL    MW4 5552   2.181   1.113   2.357 -0.1427  0.4992 -0.8057
 1389SOL     OW 5553   2.401   1.246   2.267  0.4064 -0.1807 -0.1359
 1389SOL    HW2 5554   2.483   1.218   2.306 -0.0184 -1.5430 -0.1955
 1389SOL    HW3 5555   2.386   1.334   2.302  2.0746  0.2468 -0.4340
 1389SOL    MW4 5556   2.410   1.254   2.277  0.5705 -0.3040 -0.1831
 1390SOL     OW 5557   2.430   1.492   2.390  0.4338 -0.0287 -0.3095
 1390SOL    HW2 5558   2.433   1.520   2.482 -0.2792  1.3496 -0.6922
 1390SOL    HW3 5559   2.507   1.532   2.350  1.0310 -1.0591 -0.2021
 1390SOL    MW4 5560   2.441   1.501   2.397  0.4185  0.0172 -0.3458
 1391SOL     OW 5561   2.212   1.677   2.303 -0.1558  0.1271  0.1583
 1391SOL    HW2 5562   2.284   1.630   2.344 -0.5966 -0.1341  0.6467
 1391SOL    HW3 5563   2.134   1.625   2.325 -0.3309 -0.3494 -1.5251
 1391SOL    MW4 5564   2.211   1.664   2.311 -0.2371  0.0298  0.0007
 1392SOL     OW 5565   2.202   1.946   2.370  0.3140  0.1210  0.1718
 1392SOL    HW2 5566   2.285   1.985   2.342  0.3193  0.4113  0.5876
 1392SOL    HW3 5567   2.212   1.853   2.351  0.9973  0.0510  0.8396
 1392SOL    MW4 5568   2.215   1.939   2.363  0.4049  0.1501  0.3147
 1393SOL     OW 5569   2.445   2.043   2.292  0.1032 -0.5086 -0.3377
 1393SOL    HW2 5570   2.518   2.001   2.338  0.8858 -0.6522 -1.6815
 1393SOL    HW3 5571   2.466   2.034   2.200 -1.7312 -0.7100 -0.7594
 1393SOL    MW4 5572   2.457   2.036   2.286 -0.0356 -0.5541 -0.5706
 1394SOL     OW 5573   2.464   2.303   2.335  0.0599 -0.5400  0.0696
 1394SOL    HW2 5574   2.550   2.337   2.309  0.1095 -0.2029  0.6621
 1394SOL    HW3 5575   2.470   2.209   2.320 -0.1040 -0.2874 -1.6871
 1394SOL    MW4 5576   2.476   2.295   2.330  0.0448 -0.4622 -0.0840
 1395SOL     OW 5577   2.229   2.452   2.260  0.2594 -0.3670 -0.0881
 1395SOL    HW2 5578   2.230   2.539   2.300  0.1180 -0.2087 -0.4322
 1395SOL    HW3 5579   2.317   2.417   2.278  0.2930 -0.1836  0.1119
 1395SOL    MW4 5580   2.241   2.459   2.268  0.2452 -0.3219 -0.1071
 1396SOL     OW 5581   2.238   2.725   2.392 -0.3795 -0.1170 -0.3484
 1396SOL    HW2 5582   2.242   2.713   2.487 -0.3844 -3.9627 -0.7661
 1396SOL    HW3 5583   2.312   2.783   2.373  1.0922 -1.2036  1.7823
 1396SOL    MW4 5584   2.248   2.731   2.402 -0.1860 -0.7678 -0.1224
 1397SOL     OW 5585   2.487   2.859   2.309 -0.0669  0.4263 -0.4137
 1397SOL    HW2 5586   2.566   2.809   2.331 -0.0421 -0.0096 -1.4435
 1397SOL    HW3 5587   2.491   2.868   2.214 -0.8346  1.1275 -0.3817
 1397SOL    MW4 5588   2.498   2.853   2.299 -0.1649  0.4613 -0.5453
 1398SOL     OW 5589   2.462   3.113   2.420  0.0589  0.2175  0.5210
 1398SOL    HW2 5590   2.541   3.162   2.395 -0.2937  0.4952 -0.0701
 1398SOL    HW3 5591   2.479   3.024   2.387 -0.5530  0.6654 -1.0843
 1398SOL    MW4 5592   2.475   3.107   2.412 -0.0684  0.3133  0.2312
 1399SOL     OW 5593   2.260   3.218   2.287  0.1735  0.5376  0.4861
 1399SOL    HW2 5594   2.252   3.311   2.309 -1.0366  0.3541  0.8530
 1399SOL    HW3 5595   2.335   3.188   2.339  1.9429  1.7817 -1.2742
 1399SOL    MW4 5596   2.269   3.226   2.297  0.2473  0.6775  0.3022
 1400SOL     OW 5597   2.279   3.505   2.383 -0.0292  0.5267 -0.0077
 1400SOL    HW2 5598   2.270   3.491   2.477  0.1524  0.5072  0.0071
 1400SOL    HW3 5599   2.198   3.549   2.358 -0.3196  0.0288  0.0591
 1400SOL    MW4 5600   2.267   3.509   2.392 -0.0435  0.4584  0.0031
 1401SOL     OW 5601   2.515   3.635   2.287  0.6118 -0.0908  0.0976
 1401SOL    HW2 5602   2.521   3.726   2.316  0.0933 -0.1008  0.2386
 1401SOL    HW3 5603   2.432   3.604   2.322  0.8435 -0.6571  0.1459
 1401SOL    MW4 5604   2.505   3.643   2.295  0.5739 -0.1668  0.1226
 1402SOL     OW 5605   2.467   3.897   2.390 -0.3551 -0.6142  0.2856
 1402SOL    HW2 5606   2.448   3.898   2.484 -0.1127 -1.4252  0.3461
 1402SOL    HW3 5607   2.392   3.941   2.350 -0.8192 -0.9374  0.7968
 1402SOL    MW4 5608   2.454   3.903   2.397 -0.3844 -0.7638  0.3610
 1403SOL     OW 5609   2.271   4.041   2.271 -0.4238  0.3809 -0.5372
 1403SOL    HW2 5610   2.284   4.128   2.308  0.7319 -0.5066  1.2236
 1403SOL    HW3 5611   2.187   4.012   2.307  0.1489 -0.0163  0.5129
 1403SOL    MW4 5612   2.262   4.048   2.280 -0.1957  0.2114 -0.1663
 1404SOL     OW 5613   2.284   4.320   2.392  0.5041  0.0176  0.4391
 1404SOL    HW2 5614   2.276   4.303   2.486 -0.2136  1.4503  0.6392
 1404SOL    HW3 5615   2.196   4.346   2.365  1.0425  1.0013 -0.3560
 1404SOL    MW4 5616   2.271   4.321   2.401  0.4804  0.3364  0.3606
 1405SOL     OW 5617   2.527   4.369   2.286  0.0274  0.4597  0.6620
 1405SOL    HW2 5618   2.592   4.331   2.345  0.0387  0.2524  0.5184
 1405SOL    HW3 5619   2.443   4.350   2.327 -0.0231 -0.6336  0.0782
 1405SOL    MW4 5620   2.525   4.361   2.299  0.0222  0.2881  0.5660
 1406SOL     OW 5621   2.953   4.662   2.422  0.4580  0.3823 -0.0355
 1406SOL    HW2 5622   3.002   4.714   2.359  1.7982  0.1919  0.8272
 1406SOL    HW3 5623   2.945   4.576   2.382  2.5162 -0.1325  0.6481
 1406SOL    MW4 5624   2.958   4.658   2.409  0.9064  0.2893  0.1685
 1407SOL     OW 5625   2.713   0.125   2.343  0.3003 -0.3970  0.0719
 1407SOL    HW2 5626   2.696   0.217   2.364 -0.3891 -1.0399  2.6104
 1407SOL    HW3 5627   2.802   0.110   2.373 -0.1763 -0.9609  1.2525
 1407SOL    MW4 5628   2.722   0.135   2.350  0.1465 -0.5562  0.5626
 1408SOL     OW 5629   2.659   0.386   2.402 -0.5987  0.3470 -0.3569
 1408SOL    HW2 5630   2.678   0.395   2.495 -1.0037  1.5553 -0.3858
 1408SOL    HW3 5631   2.735   0.424   2.358 -0.6645  0.3004 -0.5102
 1408SOL    MW4 5632   2.672   0.392   2.409 -0.6608  0.5003 -0.3809
 1409SOL     OW 5633   2.875   0.519   2.287  0.7924 -0.3245  0.5749
 1409SOL    HW2 5634   2.887   0.612   2.304  0.0844 -0.0790 -0.2488
 1409SOL    HW3 5635   2.889   0.510   2.193 -1.6352 -0.6463  0.2247
 1409SOL    MW4 5636   2.879   0.530   2.277  0.3787 -0.3345  0.4200
 1410SOL     OW 5637   2.912   0.796   2.353 -0.0445 -0.8410  0.0365
 1410SOL    HW2 5638   2.905   0.783   2.447  0.7724 -1.4143  0.0226
 1410SOL    HW3 5639   2.826   0.831   2.327  0.0224  0.1827  1.1195
 1410SOL    MW4 5640   2.900   0.799   2.362  0.0721 -0.7815  0.1776
 1411SOL     OW 5641   2.653   0.906   2.291 -0.0852  0.0837 -0.0401
 1411SOL    HW2 5642   2.649   0.998   2.317 -2.2417 -0.0122  0.0302
 1411SOL    HW3 5643   2.645   0.907   2.196 -0.4892 -0.0561 -0.0080
 1411SOL    MW4 5644   2.651   0.918   2.282 -0.4230  0.0526 -0.0266
 1412SOL     OW 5645   2.649   1.179   2.360  0.3009 -0.0385  0.7395
 1412SOL    HW2 5646   2.657   1.173   2.455  0.3212 -0.3084  0.7235
 1412SOL    HW3 5647   2.728   1.224   2.331  1.6692 -2.4106  0.6049
 1412SOL    MW4 5648   2.661   1.184   2.369  0.4841 -0.3871  0.7196
 1413SOL     OW 5649   2.894   1.297   2.271 -0.1344 -0.3677  0.6854
 1413SOL    HW2 5650   2.979   1.271   2.307  0.2821 -0.8893 -0.6628
 1413SOL    HW3 5651   2.908   1.302   2.177 -1.7273 -0.9434  0.4093
 1413SOL    MW4 5652   2.907   1.294   2.263 -0.2896 -0.5125  0.4711
 1414SOL     OW 5653   2.906   1.549   2.391  0.2960  0.4977 -0.1315
 1414SOL    HW2 5654   2.913   1.550   2.487 -0.0198 -0.6992 -0.0850
 1414SOL    HW3 5655   2.893   1.456   2.369  1.6240  0.6042 -1.4237
 1414SOL    MW4 5656   2.905   1.537   2.401  0.4296  0.3539 -0.2958
 1415SOL     OW 5657   2.655   1.648   2.309  0.3075 -0.5487  0.0620
 1415SOL    HW2 5658   2.742   1.617   2.333 -0.8633 -3.2269  1.1437
 1415SOL    HW3 5659   2.656   1.649   2.213  1.9043  0.6771  0.0696
 1415SOL    MW4 5660   2.667   1.644   2.300  0.3637 -0.7403  0.2057
 1416SOL     OW 5661   2.681   1.926   2.390 -0.5977  0.0575 -0.9135
 1416SOL    HW2 5662   2.676   1.928   2.486  0.2692  0.2018 -0.8700
 1416SOL    HW3 5663   2.679   1.833   2.368  0.2047 -0.0173 -0.6964
 1416SOL    MW4 5664   2.680   1.914   2.400 -0.3775  0.0667 -0.8791
 1417SOL     OW 5665   2.891   2.058   2.271 -0.0694  0.6850 -0.1451
 1417SOL    HW2 5666   2.970   2.020   2.309 -0.5428 -1.5457 -1.2851
 1417SOL    HW3 5667   2.819   2.015   2.317 -0.6215  0.3233 -1.3150
 1417SOL    MW4 5668   2.892   2.047   2.282 -0.2047  0.3430 -0.4499
 1418SOL     OW 5669   2.911   2.325   2.348  0.1672  0.3078 -0.0989
 1418SOL    HW2 5670   2.900   2.319   2.443  0.4561  0.7987 -0.0349
 1418SOL    HW3 5671   2.917   2.233   2.320 -1.0882  0.1299  0.2112
 1418SOL    MW4 5672   2.911   2.312   2.357  0.0397  0.3491 -0.0495
 1419SOL     OW 5673   2.681   2.440   2.248 -0.2123  0.0276  0.6726
 1419SOL    HW2 5674   2.756   2.407   2.297 -0.1533  0.7732  1.0945
 1419SOL    HW3 5675   2.706   2.434   2.156  0.8042  1.3391  0.8596
 1419SOL    MW4 5676   2.694   2.435   2.242 -0.0704  0.2990  0.7529
 1420SOL     OW 5677   2.686   2.681   2.389  0.0699 -0.1322  0.0465
 1420SOL    HW2 5678   2.767   2.730   2.377  0.2040 -0.2499  0.4678
 1420SOL    HW3 5679   2.693   2.607   2.329  0.8184 -0.8202  0.9580
 1420SOL    MW4 5680   2.698   2.678   2.379  0.1863 -0.2385  0.2223
 1421SOL     OW 5681   2.922   2.817   2.337  0.6990  0.0182  0.1301
 1421SOL    HW2 5682   2.921   2.911   2.357  1.3812  0.1252 -0.3330
 1421SOL    HW3 5683   2.908   2.814   2.242  0.4650 -0.3598  0.1779
 1421SOL    MW4 5684   2.920   2.829   2.327  0.7582 -0.0176  0.0753
 1422SOL     OW 5685   2.923   3.081   2.388 -0.0531  0.0970 -0.0312
 1422SOL    HW2 5686   2.993   3.125   2.339  0.2655  0.3202  0.6261
 1422SOL    HW3 5687   2.844   3.127   2.363  0.2829  1.0784  0.6854
 1422SOL    MW4 5688   2.922   3.093   2.378  0.0333  0.2559  0.1500
 1423SOL     OW 5689   2.699   3.233   2.329  0.3140 -0.4630  0.4508
 1423SOL    HW2 5690   2.706   3.324   2.358 -1.6575 -0.1217 -0.0819
 1423SOL    HW3 5691   2.689   3.239   2.234  1.5887 -1.3267  0.2458
 1423SOL    MW4 5692   2.699   3.246   2.320  0.2221 -0.5320  0.3535
 1424SOL     OW 5693   2.712   3.505   2.418  0.0641  0.2151 -0.0743
 1424SOL    HW2 5694   2.790   3.545   2.382 -0.3870  0.7829 -0.4285
 1424SOL    HW3 5695   2.639   3.552   2.377 -0.4575  1.2450  1.9629
 1424SOL    MW4 5696   2.712   3.516   2.408 -0.0642  0.4259  0.1477
 1425SOL     OW 5697   2.946   3.605   2.323  0.3449  0.2279  0.4446
 1425SOL    HW2 5698   3.025   3.566   2.360  0.3038  0.9138  1.2683
 1425SOL    HW3 5699   2.954   3.698   2.343 -0.4250  0.3731  0.0788
 1425SOL    MW4 5700   2.958   3.612   2.330  0.2379  0.3376  0.5050
 1426SOL     OW 5701   2.948   3.912   2.411 -0.1077 -0.3059 -0.0126
 1426SOL    HW2 5702   2.932   3.880   2.500  0.0962 -0.6663 -0.1029
 1426SOL    HW3 5703   2.862   3.942   2.381 -0.4373 -1.3698 -0.1569
 1426SOL    MW4 5704   2.935   3.912   2.419 -0.1243 -0.4939 -0.0435
 1427SOL     OW 5705   2.716   4.010   2.304 -0.1085  0.0166 -0.1254
 1427SOL    HW2 5706   2.628   3.986   2.331 -0.0563 -1.7206 -1.4121
 1427SOL    HW3 5707   2.710   4.020   2.209  0.3143  3.3720  0.1217
 1427SOL    MW4 5708   2.704   4.008   2.295 -0.0458  0.2301 -0.2626
 1428SOL     OW 5709   2.742   4.282   2.416  0.0796  0.1834 -0.3616
 1428SOL    HW2 5710   2.743   4.267   2.511  0.7908  0.1136 -0.3787
 1428SOL    HW3 5711   2.736   4.194   2.378 -0.6103  0.2363 -0.3712
 1428SOL    MW4 5712   2.741   4.268   2.424  0.0824  0.1812 -0.3651
 1429SOL     OW 5713   2.944   4.410   2.286 -0.4183 -0.3581 -0.3324
 1429SOL    HW2 5714   3.016   4.367   2.331 -1.2548 -1.5945 -0.1414
 1429SOL    HW3 5715   2.865   4.373   2.327 -1.1549  0.5829 -0.8852
 1429SOL    MW4 5716   2.943   4.399   2.298 -0.6259 -0.3971 -0.3801
 1430SOL     OW 5717   3.344   0.025   2.346 -0.3090  0.8351  0.2952
 1430SOL    HW2 5718   3.362  -0.005   2.435  1.3199 -0.8249 -0.5637
 1430SOL    HW3 5719   3.418   0.081   2.324  0.0267  0.0575 -0.5529
 1430SOL    MW4 5720   3.356   0.029   2.355 -0.0498  0.5135  0.0700
 1431SOL     OW 5721   3.106   0.145   2.253  0.2857 -0.4781  0.3746
 1431SOL    HW2 5722   3.099   0.230   2.296 -0.3285 -1.1184  1.5633
 1431SOL    HW3 5723   3.183   0.104   2.293 -0.9021 -1.5065  1.6696
 1431SOL    MW4 5724   3.115   0.151   2.264  0.0480 -0.6983  0.7023
 1432SOL     OW 5725   3.096   0.376   2.398  0.2494 -0.4486 -1.1532
 1432SOL    HW2 5726   3.171   0.434   2.387 -0.1249  0.5623  1.3153
 1432SOL    HW3 5727   3.026   0.416   2.346  0.4034  0.5154 -0.6166
 1432SOL    MW4 5728   3.097   0.389   2.389  0.2203 -0.1881 -0.7567
 1433SOL     OW 5729   3.330   0.541   2.324  0.0917  0.2084  0.2582
 1433SOL    HW2 5730   3.404   0.487   2.353 -0.7868 -1.5238 -0.6704
 1433SOL    HW3 5731   3.346   0.554   2.230 -0.7677 -0.1791  0.0507
 1433SOL    MW4 5732   3.342   0.536   2.315 -0.1376 -0.0713  0.1083
 1434SOL     OW 5733   3.332   0.801   2.434  0.0957 -0.0361  0.2018
 1434SOL    HW2 5734   3.414   0.836   2.397 -0.2644  0.9907  0.3440
 1434SOL    HW3 5735   3.328   0.711   2.402  1.3017 -0.1116  0.2221
 1434SOL    MW4 5736   3.342   0.794   2.425  0.2073  0.0894  0.2232
 1435SOL     OW 5737   3.143   0.923   2.259 -0.2306  0.0534 -0.1442
 1435SOL    HW2 5738   3.208   0.875   2.311  1.2000  0.4415 -1.5129
 1435SOL    HW3 5739   3.060   0.878   2.276  0.6728 -1.4282  0.4528
 1435SOL    MW4 5740   3.141   0.911   2.268  0.0773 -0.0909 -0.2460
 1436SOL     OW 5741   3.124   1.184   2.371 -0.1022  0.0712  0.2156
 1436SOL    HW2 5742   3.206   1.229   2.351 -0.7391  0.9830 -0.3506
 1436SOL    HW3 5743   3.130   1.101   2.324  0.4383  0.1960  0.0629
 1436SOL    MW4 5744   3.136   1.179   2.363 -0.1149  0.2080  0.1207
 1437SOL     OW 5745   3.379   1.300   2.270  0.0632  0.9266 -0.4337
 1437SOL    HW2 5746   3.440   1.250   2.324  0.2231  0.8832 -0.6513
 1437SOL    HW3 5747   3.369   1.383   2.315 -0.0716  0.7595 -0.1586
 1437SOL    MW4 5748   3.385   1.304   2.283  0.0665  0.8988 -0.4261
 1438SOL     OW 5749   3.350   1.548   2.381 -0.0694  0.2902 -0.1386
 1438SOL    HW2 5750   3.365   1.534   2.475  0.0199 -0.6385 -0.2794
 1438SOL    HW3 5751   3.271   1.602   2.377  0.4569  1.1161  0.4923
 1438SOL    MW4 5752   3.341   1.553   2.393  0.0118  0.2767 -0.0739
 1439SOL     OW 5753   3.120   1.699   2.297  0.1203  0.5807  0.4697
 1439SOL    HW2 5754   3.115   1.786   2.335 -0.0880  0.9051 -0.2918
 1439SOL    HW3 5755   3.048   1.651   2.337  0.1899  0.7788  0.8337
 1439SOL    MW4 5756   3.110   1.704   2.307  0.1020  0.6496  0.4173
 1440SOL     OW 5757   3.120   1.965   2.395  0.2208  0.4813  0.2910
 1440SOL    HW2 5758   3.134   1.953   2.489  0.9404 -1.2312 -0.0132
 1440SOL    HW3 5759   3.206   1.988   2.360  0.2137 -0.0593 -0.1044
 1440SOL    MW4 5760   3.133   1.966   2.403  0.3148  0.1841  0.1987
 1441SOL     OW 5761   3.358   2.062   2.310 -0.1017 -0.1063  0.3999
 1441SOL    HW2 5762   3.437   2.024   2.348 -0.0294  0.8568  1.2419
 1441SOL    HW3 5763   3.360   2.035   2.218  1.5004  0.3589  0.2837
 1441SOL    MW4 5764   3.368   2.054   2.303  0.1192  0.0822  0.4957
 1442SOL     OW 5765   3.369   2.333   2.392 -0.2304  0.4452  0.3380
 1442SOL    HW2 5766   3.309   2.387   2.341 -0.0030 -0.1173 -0.5271
 1442SOL    HW3 5767   3.360   2.245   2.356  1.0467  0.3328  0.2422
 1442SOL    MW4 5768   3.360   2.328   2.381 -0.0319  0.3561  0.2112
 1443SOL     OW 5769   3.138   2.459   2.263  0.1624  0.4362 -0.1298
 1443SOL    HW2 5770   3.146   2.543   2.308 -0.8431  0.3650  0.1820
 1443SOL    HW3 5771   3.066   2.415   2.306  0.9219 -0.7528 -0.0552
 1443SOL    MW4 5772   3.130   2.464   2.274  0.1299  0.2699 -0.0788
 1444SOL     OW 5773   3.154   2.709   2.414  0.3478 -0.5113  0.1272
 1444SOL    HW2 5774   3.152   2.690   2.507 -0.3429  1.9414  0.6493
 1444SOL    HW3 5775   3.066   2.740   2.393  0.5356 -0.8711 -1.3020
 1444SOL    MW4 5776   3.142   2.711   2.423  0.2814 -0.2352  0.0076
 1445SOL     OW 5777   3.389   2.828   2.305  0.1786  0.3387  0.0395
 1445SOL    HW2 5778   3.394   2.920   2.333 -0.8854  0.3103  0.3474
 1445SOL    HW3 5779   3.307   2.796   2.343 -0.3669 -0.2318 -1.6000
 1445SOL    MW4 5780   3.379   2.836   2.314 -0.0338  0.2597 -0.1362
 1446SOL     OW 5781   3.394   3.110   2.406  0.2058  0.0546  0.0790
 1446SOL    HW2 5782   3.462   3.167   2.369 -0.3276  0.6599  0.0151
 1446SOL    HW3 5783   3.314   3.136   2.359  0.2522 -1.8008 -1.0401
 1446SOL    MW4 5784   3.392   3.121   2.395  0.1416 -0.1103 -0.0771
 1447SOL     OW 5785   3.150   3.208   2.304  0.1561  0.5664  0.3162
 1447SOL    HW2 5786   3.158   3.299   2.335 -0.5750  0.4781  0.7730
 1447SOL    HW3 5787   3.144   3.216   2.209 -0.2040  1.0205  0.3737
 1447SOL    MW4 5788   3.151   3.221   2.295  0.0121  0.6147  0.3840
 1448SOL     OW 5789   3.179   3.488   2.400 -0.4077 -0.3075  0.4471
 1448SOL    HW2 5790   3.184   3.471   2.494 -0.9388  1.0116  0.7215
 1448SOL    HW3 5791   3.258   3.537   2.379  0.1925 -1.4281  0.0053
 1448SOL    MW4 5792   3.190   3.492   2.409 -0.3986 -0.2813  0.4250
 1449SOL     OW 5793   3.408   3.657   2.342 -0.2192 -0.3253 -0.1677
 1449SOL    HW2 5794   3.491   3.616   2.369 -0.2252 -0.1975  0.0413
 1449SOL    HW3 5795   3.407   3.647   2.246 -0.7696 -1.8609 -0.0158
 1449SOL    MW4 5796   3.419   3.650   2.333 -0.2926 -0.5111 -0.1201
 1450SOL     OW 5797   3.384   3.917   2.437 -0.1560 -0.3407 -0.2761
 1450SOL    HW2 5798   3.458   3.958   2.391 -0.4097 -0.7964 -1.0983
 1450SOL    HW3 5799   3.379   3.829   2.401 -1.5902 -0.0655 -0.8169
 1450SOL    MW4 5800   3.393   3.911   2.426 -0.3787 -0.3645 -0.4559
 1451SOL     OW 5801   3.179   4.042   2.306  0.1181  0.1025 -0.0203
 1451SOL    HW2 5802   3.257   4.000   2.342 -0.8711 -1.5885  0.1585
 1451SOL    HW3 5803   3.106   4.000   2.349 -0.9555  0.8517 -1.0720
 1451SOL    MW4 5804   3.180   4.031   2.316 -0.1540 -0.0217 -0.1354
 1452SOL     OW 5805   3.164   4.300   2.417  0.3215  0.0896  0.0889
 1452SOL    HW2 5806   3.242   4.338   2.377  0.0794  0.4314 -0.0529
 1452SOL    HW3 5807   3.175   4.205   2.405  1.3166  0.0542  1.1637
 1452SOL    MW4 5808   3.176   4.292   2.410  0.4209  0.1301  0.2120
 1453SOL     OW 5809   3.399   4.416   2.299 -0.6510 -0.0146 -0.3425
 1453SOL    HW2 5810   3.382   4.510   2.299  2.6138  0.6245  1.0441
 1453SOL    HW3 5811   3.405   4.393   2.207  1.4341  1.7150 -0.6728
 1453SOL    MW4 5812   3.398   4.426   2.287  0.0548  0.2979 -0.2032
 1454SOL     OW 5813   3.854   4.655   2.437 -0.4923 -0.0591  0.5462
 1454SOL    HW2 5814   3.860   4.657   2.533 -0.0970 -0.5308  0.5340
 1454SOL    HW3 5815   3.932   4.703   2.408  0.4111 -1.5384  0.4460
 1454SOL    MW4 5816   3.865   4.662   2.446 -0.3210 -0.3165  0.5314
 1455SOL     OW 5817   3.611   0.132   2.316 -0.3983  0.1482  0.3731
 1455SOL    HW2 5818   3.601   0.221   2.349  0.9353  1.1450 -1.7728
 1455SOL    HW3 5819   3.696   0.104   2.347  0.4717  0.7591 -1.3664
 1455SOL    MW4 5820   3.621   0.140   2.324 -0.1076  0.3603 -0.1396
 1456SOL     OW 5821   3.559   0.385   2.417 -0.4227  0.4868  0.2872
 1456SOL    HW2 5822   3.580   0.372   2.509 -0.1780 -1.9672 -0.0995
 1456SOL    HW3 5823   3.635   0.431   2.381  0.2102 -0.0239  0.9544
 1456SOL    MW4 5824   3.572   0.390   2.424 -0.3069  0.0956  0.3242
 1457SOL     OW 5825   3.796   0.501   2.309  0.1467  0.1295 -0.5410
 1457SOL    HW2 5826   3.810   0.591   2.337 -0.5133  0.3165 -0.8158
 1457SOL    HW3 5827   3.809   0.503   2.215 -0.5348  0.0638 -0.6338
 1457SOL    MW4 5828   3.800   0.513   2.301 -0.0303  0.1455 -0.5895
 1458SOL     OW 5829   3.797   0.759   2.412  0.6236 -0.0104 -0.3806
 1458SOL    HW2 5830   3.810   0.738   2.504  0.4739 -1.7255 -0.7299
 1458SOL    HW3 5831   3.873   0.812   2.388  1.0592 -0.2237  0.5273
 1458SOL    MW4 5832   3.809   0.763   2.421  0.6613 -0.2648 -0.3069
 1459SOL     OW 5833   3.566   0.913   2.305  0.1979  0.0562 -0.1392
 1459SOL    HW2 5834   3.631   0.856   2.346  0.4316  0.0389 -0.5295
 1459SOL    HW3 5835   3.591   0.915   2.212 -0.5661 -0.2309 -0.3488
 1459SOL    MW4 5836   3.578   0.906   2.298  0.1279  0.0160 -0.2183
 1460SOL     OW 5837   3.623   1.167   2.395  0.0747 -0.1221  0.6455
 1460SOL    HW2 5838   3.631   1.158   2.490  2.7541 -1.4563  0.3306
 1460SOL    HW3 5839   3.599   1.079   2.365  0.5723 -0.0184 -0.0497
 1460SOL    MW4 5840   3.621   1.154   2.403  0.4938 -0.2844  0.5122
 1461SOL     OW 5841   3.817   1.307   2.255  0.1565  0.4209  0.0600
 1461SOL    HW2 5842   3.821   1.384   2.311  0.6123 -0.1260  0.7943
 1461SOL    HW3 5843   3.743   1.256   2.290  1.3207 -0.6160  1.1083
 1461SOL    MW4 5844   3.807   1.310   2.267  0.3702  0.2119  0.2952
 1462SOL     OW 5845   3.830   1.555   2.383 -0.2246 -0.1899 -0.1292
 1462SOL    HW2 5846   3.828   1.536   2.477  1.1775 -1.8092 -0.4072
 1462SOL    HW3 5847   3.749   1.604   2.367 -1.5464 -1.7504  1.5282
 1462SOL    MW4 5848   3.819   1.559   2.393 -0.2140 -0.6095  0.0528
 1463SOL     OW 5849   3.588   1.685   2.303 -0.1063  0.1765 -0.0561
 1463SOL    HW2 5850   3.513   1.630   2.325  0.5425 -0.3737  0.8487
 1463SOL    HW3 5851   3.599   1.674   2.208 -0.3870 -0.7492  0.0101
 1463SOL    MW4 5852   3.580   1.676   2.293 -0.0578 -0.0182  0.0720
 1464SOL     OW 5853   3.598   1.954   2.389  0.1912  0.2001  0.0033
 1464SOL    HW2 5854   3.670   1.998   2.344  0.6781 -0.4594  0.1390
 1464SOL    HW3 5855   3.605   1.862   2.362 -0.7849  0.1885 -0.2320
 1464SOL    MW4 5856   3.608   1.947   2.379  0.1266  0.1116 -0.0098
 1465SOL     OW 5857   3.806   2.075   2.246  0.6253  0.5233 -0.1854
 1465SOL    HW2 5858   3.881   2.026   2.280 -0.0299  0.9044  1.8936
 1465SOL    HW3 5859   3.815   2.069   2.151  1.2449 -2.5740  0.0017
 1465SOL    MW4 5860   3.817   2.068   2.238  0.6206  0.1649  0.1135
 1466SOL     OW 5861   3.825   2.321   2.380 -0.3993  0.2985 -0.3316
 1466SOL    HW2 5862   3.741   2.359   2.354 -0.6848  0.3806  0.6932
 1466SOL    HW3 5863   3.828   2.237   2.334 -1.2512  0.0914 -0.0103
 1466SOL    MW4 5864   3.814   2.315   2.370 -0.5493  0.2820 -0.1540
 1467SOL     OW 5865   3.602   2.447   2.285  0.2671 -0.0194 -0.1554
 1467SOL    HW2 5866   3.522   2.406   2.318  0.0763  1.2305  0.9747
 1467SOL    HW3 5867   3.603   2.424   2.192 -1.6572  0.3222 -0.2943
 1467SOL    MW4 5868   3.591   2.439   2.277 -0.0120  0.1906 -0.0246
 1468SOL     OW 5869   3.622   2.702   2.433 -0.2376  0.3574  0.0224
 1468SOL    HW2 5870   3.615   2.619   2.386  1.1742  0.7326 -0.9081
 1468SOL    HW3 5871   3.543   2.750   2.408 -0.7235 -0.4346  0.0169
 1468SOL    MW4 5872   3.611   2.697   2.423 -0.1155  0.3024 -0.1011
 1469SOL     OW 5873   3.834   2.815   2.277 -0.3201 -0.5820 -0.2058
 1469SOL    HW2 5874   3.821   2.905   2.307 -0.9168 -0.4828 -0.7210
 1469SOL    HW3 5875   3.765   2.765   2.321 -0.4686 -0.6439 -0.5044
 1469SOL    MW4 5876   3.823   2.820   2.286 -0.4184 -0.5771 -0.3132
 1470SOL     OW 5877   3.803   3.076   2.349  0.0393 -0.0510 -0.2126
 1470SOL    HW2 5878   3.813   3.069   2.444 -0.5270  0.7828 -0.0834
 1470SOL    HW3 5879   3.883   3.121   2.320 -0.4228  0.9348  0.0398
 1470SOL    MW4 5880   3.815   3.081   2.357 -0.0964  0.1891 -0.1623
 1471SOL     OW 5881   3.604   3.256   2.289  0.1399 -0.0736  0.0835
 1471SOL    HW2 5882   3.615   3.344   2.325  0.1735  0.0858 -0.3224
 1471SOL    HW3 5883   3.682   3.208   2.319 -0.4399 -0.2941  1.2772
 1471SOL    MW4 5884   3.616   3.261   2.298  0.0679 -0.0817  0.1874
 1472SOL     OW 5885   3.642   3.520   2.383 -0.4143 -0.2086 -0.0522
 1472SOL    HW2 5886   3.651   3.517   2.479 -0.1247  0.9439 -0.0263
 1472SOL    HW3 5887   3.726   3.557   2.353 -0.1951 -1.3134 -0.8100
 1472SOL    MW4 5888   3.654   3.525   2.392 -0.3472 -0.2023 -0.1487
 1473SOL     OW 5889   3.885   3.616   2.316  0.5774  0.2067 -0.1037
 1473SOL    HW2 5890   3.886   3.705   2.350  1.7375  0.1608  0.0100
 1473SOL    HW3 5891   3.882   3.627   2.221  1.8743  0.3888 -0.1318
 1473SOL    MW4 5892   3.885   3.629   2.308  0.9016  0.2247 -0.0924
 1474SOL     OW 5893   3.830   3.850   2.445  0.3187  0.2786 -0.1166
 1474SOL    HW2 5894   3.826   3.857   2.540  1.6220  1.3155 -0.1342
 1474SOL    HW3 5895   3.903   3.907   2.419 -1.1180  1.3872 -1.8736
 1474SOL    MW4 5896   3.839   3.859   2.454  0.3011  0.5616 -0.3508
 1475SOL     OW 5897   3.632   4.006   2.307  0.0290 -0.1744 -0.0877
 1475SOL    HW2 5898   3.639   4.094   2.344  1.4121 -0.0486 -0.6074
 1475SOL    HW3 5899   3.695   3.954   2.357  0.2996 -0.5133 -0.7774
 1475SOL    MW4 5900   3.642   4.011   2.318  0.2472 -0.2025 -0.2473
 1476SOL     OW 5901   3.608   4.275   2.405 -0.1080  0.4493 -0.0634
 1476SOL    HW2 5902   3.684   4.314   2.363  1.0635 -1.1511  0.5152
 1476SOL    HW3 5903   3.534   4.330   2.377  1.1707  1.7088 -1.0437
 1476SOL    MW4 5904   3.608   4.287   2.396  0.2152  0.4043 -0.1164
 1477SOL     OW 5905   3.822   4.397   2.305  0.0591 -0.6085 -0.3959
 1477SOL    HW2 5906   3.908   4.360   2.326  0.2871 -0.8265 -1.6823
 1477SOL    HW3 5907   3.826   4.486   2.340  0.1482 -1.1893  1.1342
 1477SOL    MW4 5908   3.834   4.404   2.313  0.1010 -0.7139 -0.3637
 1478SOL     OW 5909   4.287   4.660   2.434  0.4535 -0.2778 -0.0040
 1478SOL    HW2 5910   4.303   4.652   2.528  1.0324 -1.5511 -0.1978
 1478SOL    HW3 5911   4.351   4.724   2.404  1.9508 -1.7001  0.0614
 1478SOL    MW4 5912   4.297   4.667   2.443  0.7274 -0.6335 -0.0209
 1479SOL     OW 5913   4.055   0.118   2.331  0.3242 -0.2701  0.2666
 1479SOL    HW2 5914   4.050   0.195   2.387 -0.7395  0.2694 -0.5387
 1479SOL    HW3 5915   4.130   0.068   2.364  0.4874  0.6726  1.3394
 1479SOL    MW4 5916   4.064   0.121   2.343  0.2054 -0.0746  0.3019
 1480SOL     OW 5917   4.006   0.380   2.442  0.2609  0.5280  0.4257
 1480SOL    HW2 5918   4.070   0.442   2.408  0.4658  0.8946  1.4640
 1480SOL    HW3 5919   3.922   0.407   2.403  0.0047  2.6604  2.3844
 1480SOL    MW4 5920   4.003   0.391   2.432  0.2542  0.8577  0.8211
 1481SOL     OW 5921   4.207   0.538   2.336 -0.0533 -0.2138 -0.5485
 1481SOL    HW2 5922   4.211   0.628   2.369 -0.8851  0.4302 -2.1592
 1481SOL    HW3 5923   4.279   0.493   2.381 -0.5061  0.8884  1.3330
 1481SOL    MW4 5924   4.217   0.544   2.347 -0.2228  0.0166 -0.5128
 1482SOL     OW 5925   4.255   0.786   2.438  0.2123 -0.2554  0.4794
 1482SOL    HW2 5926   4.189   0.845   2.402 -0.2809 -0.9106  0.2936
 1482SOL    HW3 5927   4.338   0.822   2.409 -0.1261 -0.1067 -0.3114
 1482SOL    MW4 5928   4.257   0.799   2.429  0.1026 -0.3223  0.3505
 1483SOL     OW 5929   4.019   0.915   2.349  0.4828  0.3237  0.3124
 1483SOL    HW2 5930   4.018   1.007   2.376  2.2062  0.1160  1.1484
 1483SOL    HW3 5931   4.034   0.918   2.254 -1.4943  0.9384 -0.0072
 1483SOL    MW4 5932   4.021   0.927   2.340  0.4494  0.3774  0.3805
 1484SOL     OW 5933   4.051   1.217   2.388  0.6019  0.3542  0.2329
 1484SOL    HW2 5934   4.039   1.187   2.478 -0.0933 -2.0852 -0.6196
 1484SOL    HW3 5935   3.962   1.226   2.353  0.8829  0.0179 -0.5958
 1484SOL    MW4 5936   4.038   1.214   2.395  0.5473 -0.0121  0.0111
 1485SOL     OW 5937   4.302   1.345   2.304 -0.2798  0.2142 -0.3891
 1485SOL    HW2 5938   4.216   1.321   2.337 -0.3494 -0.1771 -0.8658
 1485SOL    HW3 5939   4.361   1.278   2.339 -0.3444 -0.1705 -1.0162
 1485SOL    MW4 5940   4.299   1.333   2.313 -0.2975  0.1118 -0.5348
 1486SOL     OW 5941   4.248   1.583   2.411  0.2368 -0.3899 -0.2445
 1486SOL    HW2 5942   4.254   1.498   2.369  0.0829  0.5517 -2.2299
 1486SOL    HW3 5943   4.328   1.629   2.384 -0.7466  0.8917 -1.0640
 1486SOL    MW4 5944   4.260   1.578   2.402  0.0867 -0.0966 -0.6146
 1487SOL     OW 5945   4.036   1.685   2.269  0.2533  0.3771 -0.0376
 1487SOL    HW2 5946   4.119   1.664   2.312  0.4945  0.0401 -0.6724
 1487SOL    HW3 5947   3.970   1.638   2.321  0.4579  0.5959  0.4278
 1487SOL    MW4 5948   4.038   1.676   2.282  0.3122  0.3615 -0.0599
 1488SOL     OW 5949   4.033   1.944   2.349  0.1861 -0.1495  0.1749
 1488SOL    HW2 5950   4.053   1.940   2.443  1.2766 -0.9235 -0.0837
 1488SOL    HW3 5951   4.052   1.856   2.317 -0.9544 -0.1202 -0.6325
 1488SOL    MW4 5952   4.038   1.932   2.358  0.1795 -0.2478  0.0343
 1489SOL     OW 5953   4.248   2.106   2.256  0.2288  0.1860  0.6678
 1489SOL    HW2 5954   4.249   2.186   2.309 -1.3624  1.0496 -0.5589
 1489SOL    HW3 5955   4.168   2.060   2.282  0.1916 -0.0929  0.0832
 1489SOL    MW4 5956   4.238   2.110   2.266  0.0140  0.2631  0.4288
 1490SOL     OW 5957   4.279   2.382   2.390  0.0304  0.0726  0.0141
 1490SOL    HW2 5958   4.206   2.403   2.332  0.4044 -1.5017 -1.0643
 1490SOL    HW3 5959   4.357   2.397   2.337  0.3456 -2.2219 -0.2064
 1490SOL    MW4 5960   4.279   2.387   2.375  0.1214 -0.4379 -0.1573
 1491SOL     OW 5961   4.046   2.449   2.271 -0.3744  0.0957  0.0837
 1491SOL    HW2 5962   4.029   2.539   2.301 -1.5220 -0.0844 -0.0142
 1491SOL    HW3 5963   3.968   2.400   2.297 -1.7103  0.0557 -3.5981
 1491SOL    MW4 5964   4.033   2.455   2.278 -0.7020  0.0666 -0.4150
 1492SOL     OW 5965   4.051   2.695   2.390 -0.4688  0.5118  0.6106
 1492SOL    HW2 5966   4.084   2.710   2.479 -1.1728  0.0357  0.9592
 1492SOL    HW3 5967   3.971   2.748   2.386 -0.8359 -0.0465  0.5162
 1492SOL    MW4 5968   4.044   2.704   2.402 -0.6101  0.3754  0.6441
 1493SOL     OW 5969   4.269   2.808   2.238 -0.0862 -0.0916 -0.3889
 1493SOL    HW2 5970   4.194   2.773   2.285  0.2791  0.0261  0.2905
 1493SOL    HW3 5971   4.345   2.764   2.276  0.2500  0.3332 -0.5542
 1493SOL    MW4 5972   4.269   2.798   2.249  0.0064 -0.0200 -0.3210
 1494SOL     OW 5973   4.269   3.032   2.404 -0.3425 -0.0108 -0.0586
 1494SOL    HW2 5974   4.274   2.955   2.348  0.2676 -0.6415  0.8581
 1494SOL    HW3 5975   4.339   3.089   2.373 -0.1798 -0.2414 -0.1196
 1494SOL    MW4 5976   4.279   3.029   2.392 -0.2405 -0.1244  0.0543
 1495SOL     OW 5977   4.054   3.180   2.292 -0.0981  0.2716  0.1707
 1495SOL    HW2 5978   4.058   3.267   2.333  0.1586  0.2740  0.1423
 1495SOL    HW3 5979   4.113   3.126   2.344  0.2522  0.2813 -0.2148
 1495SOL    MW4 5980   4.062   3.184   2.304 -0.0180  0.2732  0.1161
 1496SOL     OW 5981   4.082   3.441   2.387  0.7230 -0.2173 -0.3793
 1496SOL    HW2 5982   4.155   3.481   2.339  0.7156 -0.5910 -0.7044
 1496SOL    HW3 5983   4.006   3.494   2.363  1.0960  0.9400  0.9327
 1496SOL    MW4 5984   4.082   3.453   2.377  0.7712 -0.1140 -0.2491
 1497SOL     OW 5985   4.301   3.591   2.343  0.2149 -0.0221 -0.3169
 1497SOL    HW2 5986   4.289   3.675   2.389  0.0675 -0.1145 -0.1862
 1497SOL    HW3 5987   4.290   3.613   2.251  1.4916  0.3554 -0.3952
 1497SOL    MW4 5988   4.298   3.605   2.337  0.3639  0.0155 -0.3100
 1498SOL     OW 5989   4.268   3.843   2.453  0.4376  0.2299 -0.1144
 1498SOL    HW2 5990   4.295   3.845   2.545  1.5445  0.8737 -0.4358
 1498SOL    HW3 5991   4.332   3.899   2.409  0.5055 -0.8668 -1.4321
 1498SOL    MW4 5992   4.280   3.851   2.459  0.5926  0.1701 -0.3307
 1499SOL     OW 5993   4.040   4.004   2.390 -0.1374  0.4973 -0.3247
 1499SOL    HW2 5994   4.114   3.953   2.424 -0.0207  0.2961 -0.8852
 1499SOL    HW3 5995   4.056   4.012   2.297 -0.8706  0.3735 -0.4665
 1499SOL    MW4 5996   4.052   3.998   2.382 -0.2188  0.4544 -0.4174
 1500SOL     OW 5997   4.063   4.281   2.418 -0.0279  0.4237 -0.3747
 1500SOL    HW2 5998   4.145   4.321   2.389 -0.3402  1.3290 -0.0389
 1500SOL    HW3 5999   4.077   4.187   2.407  1.7395  0.4340  1.4151
 1500SOL    MW4 6000   4.076   4.274   2.413  0.1640  0.5445 -0.0943
 1501SOL     OW 6001   4.284   4.419   2.305  0.6148 -0.4065 -0.1325
 1501SOL    HW2 6002   4.290   4.507   2.343  0.7187  1.1580 -3.5983
 1501SOL    HW3 6003   4.365   4.376   2.331  1.0111  0.8664  0.7885
 1501SOL    MW4 6004   4.295   4.425   2.313  0.6808 -0.0321 -0.4683
 1502SOL     OW 6005   0.215   4.657   2.682 -0.3316 -0.0818 -0.2006
 1502SOL    HW2 6006   0.221   4.575   2.731 -0.5699  0.2860  0.4468
 1502SOL    HW3 6007   0.137   4.701   2.716  0.6450  1.1152  0.5540
 1502SOL    MW4 6008   0.206   4.652   2.693 -0.2342  0.1246 -0.0156
 1503SOL     OW 6009   0.026   0.143   2.815  0.2532 -0.0090  0.9637
 1503SOL    HW2 6010  -0.025   0.152   2.896 -1.0920  0.3108  0.1072
 1503SOL    HW3 6011   0.019   0.229   2.773 -1.3199 -0.9441 -0.7667
 1503SOL    MW4 6012   0.018   0.156   2.820 -0.1318 -0.0902  0.6224
 1504SOL     OW 6013   4.482   0.409   2.710 -0.1134  0.5269  0.4208
 1504SOL    HW2 6014   4.564   0.455   2.727  2.3780 -3.5930  0.1791
 1504SOL    HW3 6015   4.477   0.403   2.615 -1.5042  2.0920  0.3809
 1504SOL    MW4 6016   4.492   0.414   2.700  0.0318  0.1898  0.3837
 1505SOL     OW 6017   0.232   0.529   2.783  0.0609  0.0275 -0.5272
 1505SOL    HW2 6018   0.242   0.526   2.878 -0.4486  1.4753 -0.4161
 1505SOL    HW3 6019   0.308   0.482   2.749  0.3300 -0.3640  0.5880
 1505SOL    MW4 6020   0.243   0.522   2.791  0.0292  0.1668 -0.3654
 1506SOL     OW 6021   0.203   0.785   2.692  0.5453 -0.3080 -0.2240
 1506SOL    HW2 6022   0.283   0.829   2.722 -0.3457  1.0546  0.1835
 1506SOL    HW3 6023   0.208   0.698   2.730  1.0406  0.3242  1.1886
 1506SOL    MW4 6024   0.214   0.779   2.701  0.4931 -0.0448  0.0161
 1507SOL     OW 6025   0.002   0.949   2.816  0.1754 -0.0492 -0.2774
 1507SOL    HW2 6026  -0.084   0.914   2.791  0.5392 -0.6407 -0.7323
 1507SOL    HW3 6027   0.064   0.885   2.780  0.7406 -0.5179  1.4913
 1507SOL    MW4 6028  -0.001   0.936   2.808  0.2980 -0.1891 -0.1041
 1508SOL     OW 6029   0.025   1.184   2.689  0.5538  0.1491 -0.0533
 1508SOL    HW2 6030   0.091   1.231   2.740 -0.8317  1.8033  0.2529
 1508SOL    HW3 6031   0.021   1.097   2.730 -0.0688  1.2370  2.3159
 1508SOL    MW4 6032   0.033   1.179   2.701  0.2889  0.5109  0.2997
 1509SOL     OW 6033   0.237   1.313   2.842  0.0231  0.1508  0.2803
 1509SOL    HW2 6034   0.309   1.268   2.799 -0.8057 -0.3331 -0.6127
 1509SOL    HW3 6035   0.233   1.399   2.799 -0.6245 -0.2271 -0.4160
 1509SOL    MW4 6036   0.246   1.319   2.831 -0.1717  0.0371  0.0706
 1510SOL     OW 6037   0.203   1.562   2.686 -0.1554 -0.1818  0.1073
 1510SOL    HW2 6038   0.285   1.610   2.701  0.3245  0.4529 -3.9537
 1510SOL    HW3 6039   0.136   1.615   2.729  0.8732  2.2173 -1.1325
 1510SOL    MW4 6040   0.205   1.575   2.694  0.0436  0.2185 -0.5921
 1511SOL     OW 6041   4.468   1.689   2.788  0.0856  0.1388 -0.1881
 1511SOL    HW2 6042   4.473   1.701   2.883  0.6559  0.2196 -0.2273
 1511SOL    HW3 6043   4.459   1.778   2.754  1.6554  0.2703 -0.3129
 1511SOL    MW4 6044   4.467   1.702   2.796  0.3680  0.1668 -0.2097
 1512SOL     OW 6045   4.474   1.947   2.661 -0.2488 -0.4579 -0.1043
 1512SOL    HW2 6046   4.557   1.984   2.692  0.0220 -0.6894 -0.5576
 1512SOL    HW3 6047   4.471   1.969   2.568 -1.3236  0.7263  0.1830
 1512SOL    MW4 6048   4.485   1.955   2.653 -0.3549 -0.3322 -0.1262
 1513SOL     OW 6049   0.207   2.066   2.781 -0.1120  0.2448 -0.2221
 1513SOL    HW2 6050   0.282   2.011   2.757  0.6169  1.0332  0.2349
 1513SOL    HW3 6051   0.214   2.143   2.726 -1.3002 -0.2316 -1.0660
 1513SOL    MW4 6052   0.218   2.069   2.771 -0.1726  0.2859 -0.2732
 1514SOL     OW 6053   0.214   2.316   2.635  0.3227  0.1879 -0.7779
 1514SOL    HW2 6054   0.293   2.348   2.680  0.2729 -0.2448 -0.3719
 1514SOL    HW3 6055   0.142   2.362   2.677  0.3296  0.3003 -0.8898
 1514SOL    MW4 6056   0.215   2.326   2.647  0.3170  0.1456 -0.7391
 1515SOL     OW 6057   4.489   2.439   2.757  0.5869 -0.7756  0.5838
 1515SOL    HW2 6058   4.500   2.433   2.852  0.8443 -0.9813  0.5419
 1515SOL    HW3 6059   4.409   2.390   2.739 -0.3675  0.6465  0.8781
 1515SOL    MW4 6060   4.480   2.432   2.767  0.4950 -0.6151  0.6171
 1516SOL     OW 6061   4.478   2.684   2.637 -0.5712  0.2688  0.0124
 1516SOL    HW2 6062   4.414   2.728   2.694 -0.4340  0.7782 -0.2293
 1516SOL    HW3 6063   4.495   2.600   2.681 -2.2713 -0.3685 -0.5086
 1516SOL    MW4 6064   4.472   2.679   2.651 -0.7774  0.2519 -0.0882
 1517SOL     OW 6065   0.221   2.801   2.759 -0.1843 -0.3617  0.3342
 1517SOL    HW2 6066   0.209   2.894   2.742 -0.5380 -0.0736  2.0225
 1517SOL    HW3 6067   0.152   2.758   2.708 -0.1023  0.3013 -0.3479
 1517SOL    MW4 6068   0.210   2.808   2.750 -0.2202 -0.2362  0.4669
 1518SOL     OW 6069   0.253   3.071   2.691 -0.1361  0.2068 -0.2077
 1518SOL    HW2 6070   0.326   3.130   2.711  1.0826 -1.0062 -1.0518
 1518SOL    HW3 6071   0.247   3.072   2.596 -1.0336  0.0575 -0.1548
 1518SOL    MW4 6072   0.262   3.079   2.681 -0.0938  0.0271 -0.3121
 1519SOL     OW 6073   0.041   3.219   2.799  0.2983 -0.3457  0.4176
 1519SOL    HW2 6074  -0.041   3.179   2.769  0.1079 -0.3258  0.9123
 1519SOL    HW3 6075   0.110   3.163   2.764  0.0676 -0.4567  0.1414
 1519SOL    MW4 6076   0.039   3.207   2.790  0.2427 -0.3578  0.4464
 1520SOL     OW 6077   0.029   3.485   2.736  0.7312  0.7287 -0.3537
 1520SOL    HW2 6078   0.101   3.530   2.779  0.4352  0.5704  0.3200
 1520SOL    HW3 6079   0.048   3.392   2.748  0.8276  0.6766 -0.8777
 1520SOL    MW4 6080   0.041   3.478   2.743  0.7049  0.7010 -0.3340
 1521SOL     OW 6081   0.244   3.641   2.841 -0.2018 -0.2366  0.2898
 1521SOL    HW2 6082   0.252   3.613   2.932  0.5230  0.8573  0.5643
 1521SOL    HW3 6083   0.321   3.605   2.797  0.7082  1.2222  0.6334
 1521SOL    MW4 6084   0.255   3.633   2.847  0.0139  0.1002  0.3714
 1522SOL     OW 6085   0.246   3.887   2.705 -0.0763  0.1472 -0.9370
 1522SOL    HW2 6086   0.225   3.801   2.742  0.6082  0.0187 -0.8546
 1522SOL    HW3 6087   0.230   3.878   2.611 -0.1970 -0.0067 -0.9023
 1522SOL    MW4 6088   0.241   3.874   2.698 -0.0019  0.1100 -0.9215
 1523SOL     OW 6089   0.030   4.011   2.806  0.0429  0.3099 -0.5395
 1523SOL    HW2 6090   0.015   4.089   2.753  1.3484  1.8799  1.3449
 1523SOL    HW3 6091   0.103   3.966   2.763 -0.5582  0.2180 -1.4877
 1523SOL    MW4 6092   0.038   4.015   2.793  0.1358  0.5049 -0.4160
 1524SOL     OW 6093   4.481   4.246   2.672 -0.3514  0.3177  0.1884
 1524SOL    HW2 6094   4.406   4.283   2.720 -0.2747  3.0993 -1.7582
 1524SOL    HW3 6095   4.555   4.301   2.697  0.1983  0.1824 -1.1314
 1524SOL    MW4 6096   4.481   4.258   2.682 -0.2688  0.6668 -0.2426
 1525SOL     OW 6097   0.213   4.387   2.782 -0.6366 -0.0513  0.2196
 1525SOL    HW2 6098   0.216   4.380   2.877 -1.7977  0.3456  0.2920
 1525SOL    HW3 6099   0.294   4.345   2.752  0.2967  0.8305  1.4350
 1525SOL    MW4 6100   0.224   4.381   2.790 -0.6666  0.1174  0.3895
 1526SOL     OW 6101   0.660   4.643   2.673  0.2187  0.3643  0.0945
 1526SOL    HW2 6102   0.740   4.672   2.716  0.1524  2.3861 -1.1007
 1526SOL    HW3 6103   0.592   4.699   2.709 -0.1031  0.9457 -1.3686
 1526SOL    MW4 6104   0.662   4.654   2.683  0.1675  0.7077 -0.2562
 1527SOL     OW 6105   0.448   0.128   2.770  0.5048  0.0014 -0.2806
 1527SOL    HW2 6106   0.455   0.119   2.865  0.9003  0.1935 -0.2898
 1527SOL    HW3 6107   0.363   0.091   2.749  0.0214  0.7969  0.2520
 1527SOL    MW4 6108   0.438   0.122   2.780  0.4932  0.1317 -0.2115
 1528SOL     OW 6109   0.454   0.404   2.658 -0.1098 -0.0610  0.0198
 1528SOL    HW2 6110   0.533   0.449   2.687 -1.4205  2.2066  0.2174
 1528SOL    HW3 6111   0.454   0.321   2.707  1.0372  0.8575  1.6430
 1528SOL    MW4 6112   0.464   0.399   2.669 -0.1314  0.3594  0.2601
 1529SOL     OW 6113   0.687   0.533   2.755  0.4123 -0.2729 -0.2046
 1529SOL    HW2 6114   0.678   0.546   2.850 -0.4312 -1.5357 -0.1000
 1529SOL    HW3 6115   0.756   0.467   2.746 -1.4067 -2.2450 -0.3087
 1529SOL    MW4 6116   0.695   0.526   2.767  0.0610 -0.6997 -0.2046
 1530SOL     OW 6117   0.657   0.790   2.664  0.0713 -0.5419  0.2607
 1530SOL    HW2 6118   0.736   0.832   2.698  0.2626  0.5093 -1.3879
 1530SOL    HW3 6119   0.666   0.698   2.689 -0.1408  0.2891  3.5248
 1530SOL    MW4 6120   0.669   0.783   2.672  0.0685 -0.2936  0.4739
 1531SOL     OW 6121   0.431   0.914   2.790 -0.0604 -0.1328 -0.2527
 1531SOL    HW2 6122   0.439   1.005   2.761 -1.8367  0.0336 -0.3181
 1531SOL    HW3 6123   0.508   0.870   2.755  0.1242  1.0587 -1.3617
 1531SOL    MW4 6124   0.442   0.920   2.782 -0.2704  0.0463 -0.4076
 1532SOL     OW 6125   0.442   1.179   2.721  0.0627 -0.2251  0.1094
 1532SOL    HW2 6126   0.516   1.236   2.740  0.6545 -0.4933 -1.3659
 1532SOL    HW3 6127   0.427   1.190   2.627 -1.7862 -0.1421  0.3959
 1532SOL    MW4 6128   0.449   1.188   2.711 -0.1031 -0.2495 -0.0475
 1533SOL     OW 6129   0.679   1.305   2.777  0.3875 -0.1630  0.0578
 1533SOL    HW2 6130   0.684   1.279   2.869  2.9868 -0.7156 -0.2156
 1533SOL    HW3 6131   0.732   1.241   2.730 -0.8835  0.1332 -1.8367
 1533SOL    MW4 6132   0.687   1.293   2.783  0.5628 -0.1968 -0.2282
 1534SOL     OW 6133   0.644   1.568   2.669 -0.6702 -0.1278 -0.6732
 1534SOL    HW2 6134   0.570   1.610   2.713 -0.1320 -0.1164  0.2170
 1534SOL    HW3 6135   0.648   1.480   2.706 -1.0736 -0.5938 -1.7002
 1534SOL    MW4 6136   0.635   1.562   2.679 -0.6524 -0.1878 -0.6912
 1535SOL     OW 6137   0.441   1.689   2.783 -0.5469 -0.0693  0.1482
 1535SOL    HW2 6138   0.446   1.696   2.878 -0.9659  1.3132  0.0791
 1535SOL    HW3 6139   0.442   1.779   2.752  0.5539 -0.5305 -1.2117
 1535SOL    MW4 6140   0.442   1.701   2.791 -0.4570  0.0522 -0.0403
 1536SOL     OW 6141   0.440   1.955   2.675  0.0431 -0.5866  0.3763
 1536SOL    HW2 6142   0.520   1.994   2.710 -0.3120  0.4540  0.0292
 1536SOL    HW3 6143   0.451   1.958   2.580 -0.9480  0.7098  0.2905
 1536SOL    MW4 6144   0.452   1.960   2.667 -0.1345 -0.2782  0.3191
 1537SOL     OW 6145   0.652   2.068   2.805  0.2512 -0.1889  0.3401
 1537SOL    HW2 6146   0.647   2.053   2.899 -0.2473  0.0041  0.3430
 1537SOL    HW3 6147   0.732   2.022   2.778  1.4064  1.2865  1.1533
 1537SOL    MW4 6148   0.662   2.060   2.814  0.3378  0.0312  0.4478
 1538SOL     OW 6149   0.700   2.324   2.671 -0.5217  0.2975 -0.4991
 1538SOL    HW2 6150   0.777   2.372   2.701 -1.2665 -0.2381  2.3822
 1538SOL    HW3 6151   0.704   2.240   2.717 -2.5501  0.0515 -0.7289
 1538SOL    MW4 6152   0.710   2.319   2.681 -0.8876  0.1944 -0.1493
 1539SOL     OW 6153   0.442   2.418   2.759  0.5879  0.2537 -0.2393
 1539SOL    HW2 6154   0.460   2.510   2.742  0.3693  0.5352  1.0159
 1539SOL    HW3 6155   0.521   2.372   2.731  0.3522  0.7201 -1.7025
 1539SOL    MW4 6156   0.455   2.424   2.753  0.5279  0.3524 -0.2667
 1540SOL     OW 6157   0.454   2.677   2.710  0.0542  0.4373 -0.2307
 1540SOL    HW2 6158   0.528   2.733   2.734 -1.0584  1.5973  0.6332
 1540SOL    HW3 6159   0.377   2.733   2.726 -0.9048  0.0344 -3.2214
 1540SOL    MW4 6160   0.454   2.692   2.715 -0.2191  0.5372 -0.5113
 1541SOL     OW 6161   0.658   2.836   2.801  0.1705 -0.4617  0.3913
 1541SOL    HW2 6162   0.676   2.837   2.895 -1.0681  0.5891  0.6355
 1541SOL    HW3 6163   0.663   2.928   2.775 -1.6487 -0.4997 -0.1371
 1541SOL    MW4 6164   0.661   2.849   2.810 -0.2329 -0.3281  0.3538
 1542SOL     OW 6165   0.693   3.087   2.706 -0.3047 -0.2420  0.0239
 1542SOL    HW2 6166   0.770   3.125   2.748 -0.3994 -0.7432  0.6588
 1542SOL    HW3 6167   0.714   3.087   2.612  0.0041  0.6562  0.0894
 1542SOL    MW4 6168   0.706   3.092   2.699 -0.2765 -0.1896  0.1163
 1543SOL     OW 6169   0.470   3.220   2.790 -0.2813  0.0490  0.1353
 1543SOL    HW2 6170   0.473   3.192   2.882 -0.9330 -1.5969 -0.3210
 1543SOL    HW3 6171   0.556   3.199   2.755  0.5259  2.1729  0.7618
 1543SOL    MW4 6172   0.481   3.213   2.798 -0.2608  0.1121  0.1578
 1544SOL     OW 6173   0.453   3.495   2.711 -0.2148 -0.1658 -0.1187
 1544SOL    HW2 6174   0.458   3.404   2.740 -1.5879 -0.5661 -1.0770
 1544SOL    HW3 6175   0.431   3.489   2.618 -0.9014  1.1365 -0.0512
 1544SOL    MW4 6176   0.451   3.482   2.703 -0.4866 -0.0468 -0.2362
 1545SOL     OW 6177   0.693   3.608   2.766 -0.1548 -0.1194  0.5579
 1545SOL    HW2 6178   0.696   3.623   2.860 -2.5628  0.3911  0.5827
 1545SOL    HW3 6179   0.604   3.579   2.749  0.5047 -1.0515 -1.4508
 1545SOL    MW4 6180   0.682   3.607   2.776 -0.3855 -0.1750  0.2962
 1546SOL     OW 6181   0.703   3.875   2.664 -0.8313 -0.2819  0.4012
 1546SOL    HW2 6182   0.628   3.913   2.709 -0.1748  1.0552  0.3879
 1546SOL    HW3 6183   0.700   3.782   2.686 -1.3921  0.1000  1.9663
 1546SOL    MW4 6184   0.693   3.868   2.673 -0.8186 -0.0551  0.6060
 1547SOL     OW 6185   0.488   3.989   2.802 -0.6129 -0.0904  0.4942
 1547SOL    HW2 6186   0.488   4.081   2.774 -0.7646 -0.0613  0.5899
 1547SOL    HW3 6187   0.402   3.957   2.776  0.2220 -0.7963 -1.4892
 1547SOL    MW4 6188   0.476   3.997   2.795 -0.5228 -0.1797  0.2451
 1548SOL     OW 6189   0.466   4.258   2.713 -0.0065 -0.1214 -0.1490
 1548SOL    HW2 6190   0.530   4.318   2.753  0.1539 -0.8109  0.6420
 1548SOL    HW3 6191   0.468   4.280   2.620  1.1472  0.0887 -0.0826
 1548SOL    MW4 6192   0.475   4.269   2.706  0.1669 -0.1847 -0.0358
 1549SOL     OW 6193   0.682   4.405   2.809  0.7529  0.1062  0.3784
 1549SOL    HW2 6194   0.766   4.366   2.786 -0.4463 -1.9387 -0.7201
 1549SOL    HW3 6195   0.674   4.482   2.752  2.1408  0.6834  0.9416
 1549SOL    MW4 6196   0.692   4.410   2.799  0.7778 -0.0874  0.3078
 1550SOL     OW 6197   1.112   4.626   2.680  0.4086  0.2066 -0.2709
 1550SOL    HW2 6198   1.197   4.667   2.692 -0.1753  1.1582  0.7067
 1550SOL    HW3 6199   1.129   4.532   2.690  1.2977  0.4104  0.1844
 1550SOL    MW4 6200   1.125   4.619   2.683  0.4489  0.3590 -0.0818
 1551SOL     OW 6201   0.883   0.107   2.779 -0.1348  0.1693  0.0377
 1551SOL    HW2 6202   0.884   0.126   2.873 -1.0204 -1.9267  0.5086
 1551SOL    HW3 6203   0.961   0.053   2.764  0.5120  1.2782 -0.6169
 1551SOL    MW4 6204   0.893   0.102   2.789 -0.1663  0.0391  0.0134
 1552SOL     OW 6205   0.917   0.363   2.717  0.3155  0.3227 -0.4395
 1552SOL    HW2 6206   0.907   0.272   2.745 -0.9380  0.5823 -0.0259
 1552SOL    HW3 6207   0.927   0.357   2.622  1.0692 -0.3019 -0.3281
 1552SOL    MW4 6208   0.917   0.350   2.708  0.2495  0.2746 -0.3702
 1553SOL     OW 6209   1.148   0.490   2.783  0.4579 -0.1188  0.4408
 1553SOL    HW2 6210   1.128   0.573   2.738  0.0107 -0.0822  0.7027
 1553SOL    HW3 6211   1.073   0.434   2.764  0.8981 -0.5666  0.0223
 1553SOL    MW4 6212   1.136   0.494   2.774  0.4570 -0.1730  0.4201
 1554SOL     OW 6213   1.102   0.734   2.684 -0.5061  0.5014  0.4881
 1554SOL    HW2 6214   1.165   0.789   2.731  0.7272 -1.9916  1.8433
 1554SOL    HW3 6215   1.124   0.747   2.592  0.9248  0.9317  0.8754
 1554SOL    MW4 6216   1.113   0.743   2.678 -0.1546  0.2293  0.7180
 1555SOL     OW 6217   0.881   0.877   2.789 -0.1777 -0.3394 -0.3349
 1555SOL    HW2 6218   0.895   0.869   2.884  0.8492 -0.3006 -0.4825
 1555SOL    HW3 6219   0.951   0.824   2.750 -0.8959 -0.7645 -1.0655
 1555SOL    MW4 6220   0.892   0.869   2.797 -0.1370 -0.3904 -0.4508
 1556SOL     OW 6221   0.853   1.133   2.659  1.0706 -0.0104  0.2687
 1556SOL    HW2 6222   0.869   1.045   2.694 -0.3957 -0.3783  0.0483
 1556SOL    HW3 6223   0.839   1.120   2.566 -1.8789  0.0726  0.6527
 1556SOL    MW4 6224   0.853   1.119   2.652  0.4880 -0.0480  0.2903
 1557SOL     OW 6225   1.103   1.210   2.754 -0.3309 -0.4621  0.0314
 1557SOL    HW2 6226   1.079   1.302   2.745 -0.2109 -0.2541  1.5898
 1557SOL    HW3 6227   1.023   1.162   2.733 -0.1170 -0.0420 -1.7544
 1557SOL    MW4 6228   1.089   1.215   2.750 -0.2868 -0.3792  0.0014
 1558SOL     OW 6229   1.077   1.487   2.725  0.0561 -0.4392  0.4211
 1558SOL    HW2 6230   0.997   1.533   2.748 -0.3320 -0.4655 -0.8525
 1558SOL    HW3 6231   1.073   1.476   2.630  1.4024 -0.7458  0.3806
 1558SOL    MW4 6232   1.066   1.491   2.715  0.1826 -0.4831  0.2477
 1559SOL     OW 6233   0.880   1.665   2.781  0.0591  0.0520 -0.0836
 1559SOL    HW2 6234   0.874   1.664   2.877  0.5216  0.0741 -0.0560
 1559SOL    HW3 6235   0.797   1.627   2.752  0.6416 -1.6106  0.3543
 1559SOL    MW4 6236   0.868   1.660   2.790  0.1970 -0.1645 -0.0222
 1560SOL     OW 6237   0.863   1.923   2.717 -0.0064 -0.3629  0.1470
 1560SOL    HW2 6238   0.938   1.972   2.752  0.0282  0.3804 -0.9388
 1560SOL    HW3 6239   0.875   1.834   2.750 -0.0566  0.3341  2.1319
 1560SOL    MW4 6240   0.875   1.918   2.726 -0.0084 -0.1729  0.2656
 1561SOL     OW 6241   1.098   2.063   2.798 -0.0852  0.0592  0.5707
 1561SOL    HW2 6242   1.174   2.014   2.766 -0.0446  0.1378  0.5471
 1561SOL    HW3 6243   1.107   2.150   2.759 -0.7040 -0.2243 -0.1936
 1561SOL    MW4 6244   1.109   2.068   2.789 -0.1615  0.0322  0.4668
 1562SOL     OW 6245   1.157   2.326   2.688 -0.0674  0.1605 -0.3232
 1562SOL    HW2 6246   1.243   2.361   2.709 -0.3802  0.5601  0.3402
 1562SOL    HW3 6247   1.156   2.318   2.593  0.2316  1.4084 -0.4411
 1562SOL    MW4 6248   1.168   2.329   2.678 -0.0692  0.3779 -0.2513
 1563SOL     OW 6249   0.934   2.446   2.803 -0.3539 -0.0570 -0.1418
 1563SOL    HW2 6250   0.929   2.537   2.775 -0.2545  0.2775  0.9066
 1563SOL    HW3 6251   1.017   2.415   2.767  0.2066  0.6322  0.5300
 1563SOL    MW4 6252   0.945   2.454   2.795 -0.2669  0.0780  0.0851
 1564SOL     OW 6253   0.885   2.704   2.679 -0.1601 -0.3875  0.5706
 1564SOL    HW2 6254   0.966   2.753   2.689 -0.7429  1.3825 -2.6727
 1564SOL    HW3 6255   0.819   2.757   2.724 -0.1224 -0.0627  0.2472
 1564SOL    MW4 6256   0.887   2.717   2.686 -0.2320 -0.1111  0.1000
 1565SOL     OW 6257   1.139   2.826   2.739  0.4263  0.0115  0.1534
 1565SOL    HW2 6258   1.134   2.815   2.834  1.2091  0.5944  0.2700
 1565SOL    HW3 6259   1.215   2.773   2.713  0.7196  0.5143 -0.0309
 1565SOL    MW4 6260   1.149   2.818   2.748  0.5683  0.1548  0.1445
 1566SOL     OW 6261   1.154   3.097   2.673 -0.1667 -0.6243 -0.4246
 1566SOL    HW2 6262   1.152   3.004   2.695  0.0790 -0.3994  0.5703
 1566SOL    HW3 6263   1.148   3.100   2.578  0.5928 -1.6845 -0.5026
 1566SOL    MW4 6264   1.153   3.085   2.664 -0.0341 -0.7345 -0.3036
 1567SOL     OW 6265   0.906   3.204   2.798 -0.6532  0.1463  0.1248
 1567SOL    HW2 6266   0.901   3.290   2.757  2.3943  0.8107  0.9609
 1567SOL    HW3 6267   0.980   3.160   2.755 -1.7021 -1.7860  0.2061
 1567SOL    MW4 6268   0.915   3.209   2.787 -0.3895 -0.0210  0.2459
 1568SOL     OW 6269   0.887   3.462   2.668  0.0000  0.0000 -0.0762
 1568SOL    HW2 6270   0.961   3.509   2.708  0.0000  0.0000 -0.1082
 1568SOL    HW3 6271   0.810   3.512   2.697  0.0000  0.0000 -0.0178
 1568SOL    MW4 6272   0.887   3.475   2.677  0.0000  0.0000 -0.0728
 1569SOL     OW 6273   1.102   3.599   2.764  0.0000  0.0000 -0.3962
 1569SOL    HW2 6274   1.101   3.626   2.856  0.0000  0.0000 -0.3965
 1569SOL    HW3 6275   1.100   3.681   2.715  0.0000  0.0000 -0.3968
 1569SOL    MW4 6276   1.102   3.613   2.769  0.0000  0.0000 -0.3963
 1570SOL     OW 6277   1.098   3.851   2.637  0.0000  0.0000 -0.0230
 1570SOL    HW2 6278   1.178   3.889   2.675  0.0000  0.0000 -0.0207
 1570SOL    HW3 6279   1.110   3.859   2.543  0.0000  0.0000 -0.0223
 1570SOL    MW4 6280   1.110   3.857   2.630  0.0000  0.0000 -0.0226
 1571SOL     OW 6281   0.893   4.008   2.785  0.0000  0.0000 -0.1849
 1571SOL    HW2 6282   0.957   3.963   2.730  0.0000  0.0000 -0.1866
 1571SOL    HW3 6283   0.809   3.969   2.757  0.0000  0.0000 -0.1784
 1571SOL    MW4 6284   0.890   3.997   2.774  0.0000  0.0000 -0.1843
 1572SOL     OW 6285   0.888   4.266   2.685  0.0000  0.0000 -0.0628
 1572SOL    HW2 6286   0.892   4.174   2.710  0.0000  0.0000 -0.0708
 1572SOL    HW3 6287   0.884   4.265   2.589  0.0000  0.0000 -0.0628
 1572SOL    MW4 6288   0.888   4.254   2.675  0.0000  0.0000 -0.0639
 1573SOL     OW 6289   1.144   4.351   2.748  0.0000  0.0000 -0.2429
 1573SOL    HW2 6290   1.137   4.378   2.839  0.0000  0.0000 -0.2430
 1573SOL    HW3 6291   1.055   4.327   2.723  0.0000  0.0000 -0.2469
 1573SOL    MW4 6292   1.131   4.351   2.756  0.0000  0.0000 -0.2435
 1574SOL     OW 6293   1.593   4.643   2.678  0.0000  0.0000 -0.3136
 1574SOL    HW2 6294   1.588   4.549   2.695  0.0000  0.0000 -0.3090
 1574SOL    HW3 6295   1.581   4.652   2.584  0.0000  0.0000 -0.3140
 1574SOL    MW4 6296   1.591   4.632   2.668  0.0000  0.0000 -0.3130
 1575SOL     OW 6297   1.351   0.086   2.776  0.0000  0.0000  0.0084
 1575SOL    HW2 6298   1.350   0.171   2.732  0.0000  0.0000  0.0462
 1575SOL    HW3 6299   1.437   0.049   2.753  0.0000  0.0000 -0.0609
 1575SOL    MW4 6300   1.362   0.092   2.767  0.0000  0.0000  0.0043
 1576SOL     OW 6301   1.360   0.344   2.686  0.0000  0.0000  0.1539
 1576SOL    HW2 6302   1.437   0.387   2.725  0.0000  0.0000  0.1597
 1576SOL    HW3 6303   1.286   0.395   2.720  0.0000  0.0000  0.1575
 1576SOL    MW4 6304   1.360   0.356   2.696  0.0000  0.0000  0.1552
 1577SOL     OW 6305   1.567   0.480   2.807 -0.5884  0.3087  0.4083
 1577SOL    HW2 6306   1.629   0.451   2.740  0.5318 -0.2568  1.6613
 1577SOL    HW3 6307   1.555   0.573   2.790  0.1926  0.3043 -0.1768
 1577SOL    MW4 6308   1.574   0.488   2.796 -0.3376  0.2335  0.4964
 1578SOL     OW 6309   1.537   0.746   2.727 -0.0870 -0.8364 -0.1203
 1578SOL    HW2 6310   1.472   0.816   2.737  1.3844  0.4884  0.3017
 1578SOL    HW3 6311   1.549   0.740   2.632  0.1002 -0.2162 -0.1416
 1578SOL    MW4 6312   1.530   0.755   2.715  0.1318 -0.5798 -0.0674
 1579SOL     OW 6313   1.286   0.896   2.803  0.3522  0.1084 -0.7028
 1579SOL    HW2 6314   1.298   0.916   2.896  0.4039 -0.6611 -0.5415
 1579SOL    HW3 6315   1.302   0.979   2.759  0.4076  0.4631 -0.0320
 1579SOL    MW4 6316   1.290   0.910   2.810  0.3664  0.0537 -0.5930
 1580SOL     OW 6317   1.369   1.130   2.670 -0.1302 -0.2911 -0.1561
 1580SOL    HW2 6318   1.430   1.177   2.727  0.7033  0.4449 -1.6542
 1580SOL    HW3 6319   1.284   1.169   2.690  0.3464  0.8622 -0.3485
 1580SOL    MW4 6320   1.366   1.142   2.680  0.0427 -0.0418 -0.3791
 1581SOL     OW 6321   1.560   1.284   2.797 -0.1094  0.3532 -0.2449
 1581SOL    HW2 6322   1.563   1.274   2.892  0.2892  0.4033 -0.2494
 1581SOL    HW3 6323   1.633   1.231   2.765 -0.8741 -0.4991 -0.6035
 1581SOL    MW4 6324   1.570   1.276   2.805 -0.1577  0.2474 -0.2928
 1582SOL     OW 6325   1.522   1.543   2.684 -0.0357 -0.1708 -0.1805
 1582SOL    HW2 6326   1.541   1.454   2.714 -1.2710 -0.1787  0.5948
 1582SOL    HW3 6327   1.514   1.535   2.589 -0.8656 -1.0288 -0.0490
 1582SOL    MW4 6328   1.523   1.530   2.675 -0.3082 -0.2851 -0.0609
 1583SOL     OW 6329   1.288   1.669   2.823 -0.2778  0.2807  0.0742
 1583SOL    HW2 6330   1.355   1.631   2.767 -0.0119  1.0185 -0.1067
 1583SOL    HW3 6331   1.219   1.602   2.825  0.1068 -0.1397 -0.3800
 1583SOL    MW4 6332   1.288   1.655   2.816 -0.1919  0.3226 -0.0096
 1584SOL     OW 6333   1.321   1.915   2.673 -0.1058 -0.0129  0.0282
 1584SOL    HW2 6334   1.298   1.831   2.713 -1.9131  0.2860 -0.3406
 1584SOL    HW3 6335   1.294   1.906   2.582  2.4641 -0.0978 -0.7547
 1584SOL    MW4 6336   1.315   1.903   2.666 -0.0052  0.0153 -0.1237
 1585SOL     OW 6337   1.571   2.054   2.736  0.0826 -0.2371  0.2813
 1585SOL    HW2 6338   1.644   2.009   2.693 -1.2613 -1.3921 -0.8524
 1585SOL    HW3 6339   1.493   2.008   2.705 -1.2284  1.7792  0.4723
 1585SOL    MW4 6340   1.570   2.042   2.726 -0.2677 -0.1235  0.1569
 1586SOL     OW 6341   1.563   2.334   2.623 -0.2717 -0.1690  0.2208
 1586SOL    HW2 6342   1.635   2.374   2.672  0.4911 -1.7209  0.3885
 1586SOL    HW3 6343   1.560   2.244   2.653 -0.3199 -0.9369 -1.9517
 1586SOL    MW4 6344   1.572   2.328   2.633 -0.1774 -0.4751 -0.0437
 1587SOL     OW 6345   1.406   2.468   2.788 -0.2501 -0.1532  0.1346
 1587SOL    HW2 6346   1.385   2.548   2.741 -0.1776  0.1579  0.6300
 1587SOL    HW3 6347   1.468   2.422   2.731 -0.6186 -0.0607 -0.3443
 1587SOL    MW4 6348   1.411   2.472   2.774 -0.2892 -0.0999  0.1368
 1588SOL     OW 6349   1.365   2.700   2.640 -0.3198  0.6844  0.4595
 1588SOL    HW2 6350   1.448   2.746   2.655  0.5819 -1.0854  1.0533
 1588SOL    HW3 6351   1.355   2.698   2.545 -0.4066  2.1246  0.4229
 1588SOL    MW4 6352   1.375   2.706   2.630 -0.2123  0.6409  0.5330
 1589SOL     OW 6353   1.579   2.835   2.753 -0.2813 -0.1697  0.3413
 1589SOL    HW2 6354   1.572   2.821   2.848  0.7716  1.6100  0.6903
 1589SOL    HW3 6355   1.662   2.795   2.729  0.7443  1.7674  0.6358
 1589SOL    MW4 6356   1.589   2.828   2.762 -0.0071  0.3207  0.4262
 1590SOL     OW 6357   1.584   3.088   2.648  0.2279  0.0612 -0.0978
 1590SOL    HW2 6358   1.673   3.115   2.669  0.5963 -0.5694 -0.8271
 1590SOL    HW3 6359   1.578   2.999   2.683  0.5026 -0.6011 -1.7260
 1590SOL    MW4 6360   1.595   3.080   2.656  0.3128 -0.1094 -0.4088
 1591SOL     OW 6361   1.374   3.204   2.792 -0.3725 -0.5736  0.3673
 1591SOL    HW2 6362   1.449   3.169   2.744 -0.3590 -1.3140  0.9342
 1591SOL    HW3 6363   1.298   3.161   2.753 -0.3645 -1.1442  0.9890
 1591SOL    MW4 6364   1.374   3.194   2.781 -0.3697 -0.7466  0.5241
 1592SOL     OW 6365   1.334   3.486   2.687 -0.2954 -0.0816  0.0623
 1592SOL    HW2 6366   1.331   3.400   2.728  0.6639  0.6114  1.6054
 1592SOL    HW3 6367   1.257   3.531   2.722 -0.6651 -0.2196 -0.5622
 1592SOL    MW4 6368   1.323   3.481   2.697 -0.2176 -0.0083  0.1835
 1593SOL     OW 6369   1.582   3.587   2.749 -0.4607 -0.1530 -0.0709
 1593SOL    HW2 6370   1.650   3.535   2.707 -0.6701  0.0194 -0.6314
 1593SOL    HW3 6371   1.499   3.549   2.718 -0.6150  0.1777 -0.0696
 1593SOL    MW4 6372   1.580   3.575   2.739 -0.5087 -0.0866 -0.1447
 1594SOL     OW 6373   1.555   3.863   2.668  0.1945 -0.6778 -0.4847
 1594SOL    HW2 6374   1.471   3.898   2.698  0.4231 -0.1314 -0.4657
 1594SOL    HW3 6375   1.557   3.773   2.701  0.4658 -0.0754  1.2075
 1594SOL    MW4 6376   1.544   3.856   2.676  0.2604 -0.5262 -0.2589
 1595SOL     OW 6377   1.317   3.963   2.770  0.2906 -0.7030  0.0601
 1595SOL    HW2 6378   1.330   3.956   2.865 -0.3635  0.3083  0.2195
 1595SOL    HW3 6379   1.322   4.057   2.752 -1.5844 -0.7179 -0.6261
 1595SOL    MW4 6380   1.320   3.974   2.780 -0.0431 -0.5716 -0.0094
 1596SOL     OW 6381   1.372   4.218   2.685 -0.4979  0.6655  0.0235
 1596SOL    HW2 6382   1.295   4.270   2.708  0.3068  1.3213  1.3058
 1596SOL    HW3 6383   1.390   4.240   2.594 -1.7447  0.6079 -0.2504
 1596SOL    MW4 6384   1.364   4.228   2.676 -0.5562  0.7444  0.1565
 1597SOL     OW 6385   1.607   4.364   2.764  0.0658  0.2140  0.3771
 1597SOL    HW2 6386   1.636   4.363   2.855  0.4509 -0.8904  0.2478
 1597SOL    HW3 6387   1.536   4.299   2.761  0.1049  0.1928 -0.1258
 1597SOL    MW4 6388   1.601   4.355   2.775  0.1218  0.0655  0.2937
 1598SOL     OW 6389   2.008   4.657   2.660  0.3384  0.4632  0.0848
 1598SOL    HW2 6390   2.081   4.715   2.679  1.4272 -0.1317 -2.1226
 1598SOL    HW3 6391   2.003   4.654   2.564 -0.8540 -1.6145  0.1635
 1598SOL    MW4 6392   2.017   4.664   2.650  0.3248  0.1106 -0.1961
 1599SOL     OW 6393   1.810   0.105   2.810 -0.3147 -0.2284  0.4961
 1599SOL    HW2 6394   1.887   0.073   2.764 -0.5954 -0.1017 -0.0796
 1599SOL    HW3 6395   1.737   0.057   2.769 -0.6764  0.7011  0.0346
 1599SOL    MW4 6396   1.810   0.094   2.798 -0.3995 -0.0890  0.3593
 1600SOL     OW 6397   1.789   0.332   2.660  0.6527  0.9706 -0.1947
 1600SOL    HW2 6398   1.853   0.393   2.696  0.4734  1.3104 -0.4459
 1600SOL    HW3 6399   1.790   0.257   2.720  1.4558  0.8672 -0.3356
 1600SOL    MW4 6400   1.797   0.330   2.673  0.7350  1.0018 -0.2464
 1601SOL     OW 6401   1.991   0.492   2.768 -0.2192 -0.1687  0.5717
 1601SOL    HW2 6402   2.066   0.448   2.727 -0.3787 -0.1057  0.2097
 1601SOL    HW3 6403   2.011   0.586   2.758  0.0955 -0.1528  1.2943
 1601SOL    MW4 6404   2.004   0.499   2.761 -0.1988 -0.1583  0.6193
 1602SOL     OW 6405   2.047   0.756   2.717  0.0986 -0.2112  0.2513
 1602SOL    HW2 6406   1.961   0.789   2.745 -0.3857 -1.2050 -0.0174
 1602SOL    HW3 6407   2.037   0.740   2.623  0.7617  0.2230  0.1080
 1602SOL    MW4 6408   2.034   0.758   2.709  0.1222 -0.2850  0.1970
 1603SOL     OW 6409   1.799   0.853   2.789  0.2649 -0.0747 -0.0961
 1603SOL    HW2 6410   1.775   0.945   2.781 -0.6359 -0.3300 -0.3477
 1603SOL    HW3 6411   1.723   0.805   2.757  1.2336 -0.8816 -1.2423
 1603SOL    MW4 6412   1.786   0.859   2.783  0.2739 -0.2148 -0.2805
 1604SOL     OW 6413   1.770   1.132   2.732  0.3818 -0.7279  0.1223
 1604SOL    HW2 6414   1.848   1.186   2.748  0.8296 -1.1962 -0.4793
 1604SOL    HW3 6415   1.769   1.118   2.638 -0.0039 -1.3671  0.2160
 1604SOL    MW4 6416   1.780   1.137   2.722  0.3900 -0.8741  0.0553
 1605SOL     OW 6417   1.995   1.307   2.778  0.0596 -0.0972  0.0759
 1605SOL    HW2 6418   2.006   1.319   2.872  0.1532  0.3887  0.0039
 1605SOL    HW3 6419   2.074   1.260   2.751 -0.2399 -0.7584  0.3337
 1605SOL    MW4 6420   2.007   1.302   2.787  0.0324 -0.1203  0.1004
 1606SOL     OW 6421   1.988   1.570   2.682 -0.0272 -0.0490 -0.1339
 1606SOL    HW2 6422   1.901   1.603   2.703  0.9853  1.3344  2.1787
 1606SOL    HW3 6423   1.985   1.478   2.707 -1.0230 -0.1798 -0.7179
 1606SOL    MW4 6424   1.976   1.562   2.688 -0.0250  0.1163  0.0942
 1607SOL     OW 6425   1.751   1.685   2.779  0.2164 -0.2788 -0.2516
 1607SOL    HW2 6426   1.766   1.687   2.873 -1.9204 -0.6914  0.1261
 1607SOL    HW3 6427   1.677   1.626   2.767 -0.0371  0.3532 -2.1143
 1607SOL    MW4 6428   1.743   1.678   2.790 -0.0990 -0.2499 -0.4476
 1608SOL     OW 6429   1.784   1.924   2.619 -0.7122  0.2251  0.3803
 1608SOL    HW2 6430   1.860   1.963   2.662 -0.1145  0.5731 -0.9530
 1608SOL    HW3 6431   1.780   1.835   2.653 -0.3657  0.5454  1.2768
 1608SOL    MW4 6432   1.794   1.918   2.629 -0.5876  0.3133  0.3226
 1609SOL     OW 6433   2.006   2.043   2.747  0.0568  0.1670  0.0299
 1609SOL    HW2 6434   1.999   2.056   2.841 -1.6398 -0.4860  0.0104
 1609SOL    HW3 6435   2.009   2.132   2.710  1.7451  0.4337  0.7279
 1609SOL    MW4 6436   2.006   2.057   2.754  0.0557  0.1160  0.1194
 1610SOL     OW 6437   1.986   2.319   2.655  0.1622 -0.0398 -0.4087
 1610SOL    HW2 6438   2.058   2.370   2.692 -0.1334  0.3330 -0.3434
 1610SOL    HW3 6439   1.996   2.329   2.561  0.3112 -0.1487 -0.4050
 1610SOL    MW4 6440   1.997   2.327   2.648  0.1428 -0.0049 -0.3996
 1611SOL     OW 6441   1.775   2.451   2.737  0.2028  0.1459 -0.1539
 1611SOL    HW2 6442   1.783   2.443   2.832 -0.5666 -0.4582 -0.1305
 1611SOL    HW3 6443   1.852   2.405   2.703  0.9225  1.0803  0.1824
 1611SOL    MW4 6444   1.786   2.444   2.745  0.1963  0.1895 -0.1065
 1612SOL     OW 6445   1.782   2.697   2.623 -0.2037  0.3205  0.5106
 1612SOL    HW2 6446   1.777   2.610   2.662 -1.0186  0.3501  0.4837
 1612SOL    HW3 6447   1.787   2.682   2.529 -0.1367  0.3000  0.5172
 1612SOL    MW4 6448   1.782   2.684   2.616 -0.3024  0.3217  0.5079
 1613SOL     OW 6449   1.998   2.839   2.761  0.0898  0.1969 -0.3864
 1613SOL    HW2 6450   2.070   2.779   2.742  0.8507  1.9094 -3.2135
 1613SOL    HW3 6451   1.928   2.811   2.702 -0.9157 -0.2814  1.0178
 1613SOL    MW4 6452   1.999   2.827   2.751  0.0575  0.3597 -0.5742
 1614SOL     OW 6453   2.063   3.099   2.657  0.0162  0.0932  0.1811
 1614SOL    HW2 6454   2.068   3.005   2.677  0.4076  0.3156  1.1233
 1614SOL    HW3 6455   2.051   3.102   2.562 -1.8657 -0.9691  0.3658
 1614SOL    MW4 6456   2.062   3.087   2.647 -0.1804 -0.0176  0.3298
 1615SOL     OW 6457   1.829   3.217   2.767 -0.0874  0.6824 -0.1038
 1615SOL    HW2 6458   1.833   3.304   2.727 -0.4463  0.3412 -0.8930
 1615SOL    HW3 6459   1.894   3.166   2.718 -0.7918  0.1613 -0.5024
 1615SOL    MW4 6460   1.838   3.222   2.755 -0.2277  0.5687 -0.2605
 1616SOL     OW 6461   1.812   3.478   2.628 -0.0221 -0.0901 -0.3466
 1616SOL    HW2 6462   1.884   3.538   2.645  0.6122 -0.7174 -0.7776
 1616SOL    HW3 6463   1.798   3.483   2.533 -1.0863  0.6400 -0.1536
 1616SOL    MW4 6464   1.819   3.486   2.617 -0.0788 -0.0765 -0.3780
 1617SOL     OW 6465   2.038   3.624   2.713  0.1372  0.2171  0.1433
 1617SOL    HW2 6466   2.043   3.628   2.809  0.2783 -0.3234  0.1603
 1617SOL    HW3 6467   2.118   3.579   2.687 -0.0547  0.0836 -0.2125
 1617SOL    MW4 6468   2.049   3.619   2.722  0.1305  0.1282  0.0986
 1618SOL     OW 6469   2.049   3.891   2.638 -0.0066 -0.2430 -0.1259
 1618SOL    HW2 6470   1.968   3.928   2.672  0.9408  1.5646  0.1861
 1618SOL    HW3 6471   2.048   3.800   2.667 -0.9213  0.3231  1.6426
 1618SOL    MW4 6472   2.038   3.884   2.646 -0.0023  0.0702  0.1486
 1619SOL     OW 6473   1.790   3.969   2.756  0.3470 -0.1224  0.3086
 1619SOL    HW2 6474   1.780   4.060   2.727  0.4288 -0.2428 -0.0898
 1619SOL    HW3 6475   1.709   3.926   2.730  0.1896 -0.1010  0.7467
 1619SOL    MW4 6476   1.778   3.975   2.749  0.3370 -0.1355  0.3138
 1620SOL     OW 6477   1.824   4.235   2.657 -0.0569 -0.1378 -0.3653
 1620SOL    HW2 6478   1.753   4.291   2.689  0.1940 -0.8755  1.5640
 1620SOL    HW3 6479   1.820   4.243   2.562 -3.5044 -1.1195 -0.3667
 1620SOL    MW4 6480   1.814   4.243   2.649 -0.4787 -0.3647 -0.1110
 1621SOL     OW 6481   2.054   4.397   2.742 -0.0429 -0.0508 -0.8680
 1621SOL    HW2 6482   1.991   4.341   2.697 -1.8729  0.3924  1.0904
 1621SOL    HW3 6483   2.030   4.486   2.715 -0.0365  0.0969 -0.3821
 1621SOL    MW4 6484   2.043   4.402   2.732 -0.2835  0.0272 -0.5455
 1622SOL     OW 6485   2.465   4.649   2.673 -0.0456 -0.4393  0.0197
 1622SOL    HW2 6486   2.543   4.698   2.698 -0.4067 -0.0188  0.3150
 1622SOL    HW3 6487   2.473   4.638   2.578 -0.3754  0.9133 -0.1695
 1622SOL    MW4 6488   2.476   4.654   2.663 -0.1367 -0.2054  0.0337
 1623SOL     OW 6489   2.239   0.115   2.764 -0.2434 -0.0519  0.1190
 1623SOL    HW2 6490   2.251   0.111   2.859  0.8319 -2.2870 -0.0715
 1623SOL    HW3 6491   2.315   0.068   2.729 -1.1955 -0.1818 -1.8073
 1623SOL    MW4 6492   2.251   0.109   2.772 -0.2271 -0.3639 -0.1603
 1624SOL     OW 6493   2.231   0.385   2.636 -0.2608 -0.0780  0.1237
 1624SOL    HW2 6494   2.232   0.298   2.676  0.0283 -0.8818 -1.5990
 1624SOL    HW3 6495   2.210   0.370   2.544  0.2914  1.6244 -0.3128
 1624SOL    MW4 6496   2.229   0.372   2.629 -0.1498  0.0405 -0.1612
 1625SOL     OW 6497   2.455   0.490   2.756 -0.0535  0.2351 -0.4413
 1625SOL    HW2 6498   2.459   0.580   2.722 -0.0249  0.4661  0.1636
 1625SOL    HW3 6499   2.390   0.447   2.700 -2.0208  1.3566  0.8780
 1625SOL    MW4 6500   2.447   0.496   2.744 -0.3093  0.4135 -0.1874
 1626SOL     OW 6501   2.483   0.742   2.653  0.4033 -0.4212 -0.1278
 1626SOL    HW2 6502   2.402   0.783   2.684  0.9986  0.8535 -0.2096
 1626SOL    HW3 6503   2.472   0.736   2.558  0.6684  0.3524 -0.2106
 1626SOL    MW4 6504   2.471   0.747   2.645  0.5168 -0.1510 -0.1495
 1627SOL     OW 6505   2.259   0.917   2.743 -0.3309 -0.1775 -0.1590
 1627SOL    HW2 6506   2.274   0.909   2.837 -0.5003  0.2223 -0.0976
 1627SOL    HW3 6507   2.178   0.869   2.728  0.9419 -2.2612 -0.4776
 1627SOL    MW4 6508   2.250   0.910   2.754 -0.1853 -0.3997 -0.1929
 1628SOL     OW 6509   2.229   1.171   2.638  0.3269  0.1015  0.0310
 1628SOL    HW2 6510   2.252   1.093   2.689  2.7150  1.8885  1.7541
 1628SOL    HW3 6511   2.230   1.141   2.547 -0.2959 -2.2269  0.7474
 1628SOL    MW4 6512   2.232   1.157   2.633  0.5598  0.0301  0.3528
 1629SOL     OW 6513   2.472   1.275   2.758 -0.0645 -0.7259  0.4892
 1629SOL    HW2 6514   2.546   1.223   2.726  0.5568  0.7463 -0.5204
 1629SOL    HW3 6515   2.400   1.252   2.699 -0.4084 -2.1057  1.4292
 1629SOL    MW4 6516   2.472   1.265   2.746 -0.0279 -0.7137  0.4800
 1630SOL     OW 6517   2.443   1.537   2.668  0.0172  0.1815 -0.2610
 1630SOL    HW2 6518   2.378   1.590   2.713 -1.4338  0.2635 -2.3617
 1630SOL    HW3 6519   2.437   1.451   2.710 -0.6111  0.5121  0.3413
 1630SOL    MW4 6520   2.433   1.532   2.679 -0.2571  0.2359 -0.4587
 1631SOL     OW 6521   2.228   1.675   2.791  0.2353  0.3951 -0.1090
 1631SOL    HW2 6522   2.242   1.757   2.744 -0.3225  1.0442  0.8541
 1631SOL    HW3 6523   2.152   1.636   2.749 -0.8074  1.4002  0.8267
 1631SOL    MW4 6524   2.220   1.681   2.779  0.0241  0.6133  0.1415
 1632SOL     OW 6525   2.246   1.893   2.650  0.2836  0.2097  0.0144
 1632SOL    HW2 6526   2.169   1.934   2.690  1.6844  2.4535  0.4496
 1632SOL    HW3 6527   2.228   1.895   2.556 -0.3609  0.3414  0.1364
 1632SOL    MW4 6528   2.233   1.899   2.643  0.3834  0.5231  0.0879
 1633SOL     OW 6529   2.421   2.030   2.786  0.7071  0.5874  0.0458
 1633SOL    HW2 6530   2.412   2.122   2.763 -2.2776  0.2825 -0.1995
 1633SOL    HW3 6531   2.356   1.985   2.732  1.0706 -1.4780  1.2697
 1633SOL    MW4 6532   2.411   2.036   2.776  0.3613  0.2747  0.1749
 1634SOL     OW 6533   2.436   2.289   2.655  0.6910 -0.2479  0.1236
 1634SOL    HW2 6534   2.521   2.318   2.688  0.6394  0.6662 -0.5362
 1634SOL    HW3 6535   2.435   2.317   2.564 -0.6063  0.3922  0.3279
 1634SOL    MW4 6536   2.447   2.297   2.648  0.5130 -0.0428  0.0635
 1635SOL     OW 6537   2.212   2.423   2.772 -0.3446 -0.3096  0.2584
 1635SOL    HW2 6538   2.233   2.429   2.865 -0.7838  0.2841  0.3263
 1635SOL    HW3 6539   2.289   2.383   2.732  0.6532  1.2180  0.5887
 1635SOL    MW4 6540   2.225   2.418   2.779 -0.2709 -0.0297  0.3109
 1636SOL     OW 6541   2.218   2.671   2.665  0.0695  0.1162  0.4989
 1636SOL    HW2 6542   2.303   2.708   2.690 -0.0681  0.2478  0.7751
 1636SOL    HW3 6543   2.217   2.584   2.706 -0.1819  0.3563  1.0003
 1636SOL    MW4 6544   2.229   2.664   2.674  0.0182  0.1652  0.6015
 1637SOL     OW 6545   2.447   2.817   2.726  0.5286 -0.0600  0.1012
 1637SOL    HW2 6546   2.523   2.762   2.708  1.0174  0.1327  1.4742
 1637SOL    HW3 6547   2.482   2.907   2.728  0.3636 -0.0104  1.1674
 1637SOL    MW4 6548   2.462   2.822   2.724  0.5713 -0.0280  0.4230
 1638SOL     OW 6549   2.490   3.083   2.697 -0.1808  0.1449 -0.2747
 1638SOL    HW2 6550   2.420   3.141   2.726  0.8153  0.8571  0.7438
 1638SOL    HW3 6551   2.489   3.091   2.601 -0.4714  1.3653 -0.1798
 1638SOL    MW4 6552   2.481   3.092   2.688 -0.0877  0.3999 -0.1278
 1639SOL     OW 6553   2.279   3.235   2.785  0.1574 -0.1735 -0.1131
 1639SOL    HW2 6554   2.274   3.209   2.877 -0.5727 -0.7852 -0.3200
 1639SOL    HW3 6555   2.202   3.195   2.745  0.6502 -0.1923 -1.0555
 1639SOL    MW4 6556   2.268   3.226   2.792  0.1261 -0.2567 -0.2647
 1640SOL     OW 6557   2.277   3.476   2.658  0.0071  0.2209 -0.2177
 1640SOL    HW2 6558   2.347   3.529   2.697 -0.3836 -0.3301  1.2685
 1640SOL    HW3 6559   2.272   3.399   2.715  0.7609 -1.5622 -2.4919
 1640SOL    MW4 6560   2.286   3.473   2.671  0.0550 -0.0870 -0.3216
 1641SOL     OW 6561   2.481   3.596   2.796  0.4973 -0.2524 -0.3266
 1641SOL    HW2 6562   2.479   3.607   2.891  0.7176  0.1724 -0.3677
 1641SOL    HW3 6563   2.478   3.685   2.761 -3.0181 -0.5001 -0.7885
 1641SOL    MW4 6564   2.480   3.609   2.804  0.0625 -0.2290 -0.3930
 1642SOL     OW 6565   2.488   3.848   2.673  0.3918 -0.0773  0.5158
 1642SOL    HW2 6566   2.568   3.886   2.708  0.1825  0.0832  0.8282
 1642SOL    HW3 6567   2.418   3.906   2.704  0.3254  0.9007 -1.3739
 1642SOL    MW4 6568   2.489   3.861   2.681  0.3554  0.0729  0.3077
 1643SOL     OW 6569   2.267   3.999   2.737  0.4107  0.0302 -0.0192
 1643SOL    HW2 6570   2.247   4.018   2.829 -0.4250  1.3533 -0.4577
 1643SOL    HW3 6571   2.184   3.967   2.701  0.4414  0.5814 -0.5824
 1643SOL    MW4 6572   2.253   3.997   2.745  0.3045  0.2775 -0.1514
 1644SOL     OW 6573   2.278   4.258   2.662  0.0612 -0.3158  0.1783
 1644SOL    HW2 6574   2.277   4.163   2.674  0.1993 -0.3519 -0.0885
 1644SOL    HW3 6575   2.200   4.289   2.707  0.0246 -0.5543  0.2805
 1644SOL    MW4 6576   2.268   4.249   2.670  0.0746 -0.3521  0.1566
 1645SOL     OW 6577   2.467   4.391   2.790 -0.5216 -0.1555  0.3810
 1645SOL    HW2 6578   2.398   4.342   2.746 -1.7633  1.7581  0.1215
 1645SOL    HW3 6579   2.471   4.474   2.743  1.4836  0.0436  0.8433
 1645SOL    MW4 6580   2.459   4.396   2.778 -0.4208  0.1233  0.4077
 1646SOL     OW 6581   2.960   0.022   2.691  0.0323  0.4909 -0.1335
 1646SOL    HW2 6582   3.044   0.060   2.717  0.0149  0.1164  0.4807
 1646SOL    HW3 6583   2.965   0.016   2.595 -0.2412  2.6473 -0.3021
 1646SOL    MW4 6584   2.972   0.026   2.681 -0.0061  0.7260 -0.0747
 1647SOL     OW 6585   2.715   0.123   2.733  0.1097 -0.1835 -0.1889
 1647SOL    HW2 6586   2.707   0.121   2.828  0.2442  1.8003 -0.1188
 1647SOL    HW3 6587   2.804   0.089   2.716 -0.4218 -1.8681  0.2766
 1647SOL    MW4 6588   2.726   0.118   2.743  0.0573 -0.1440 -0.1182
 1648SOL     OW 6589   2.723   0.395   2.677 -0.0575  0.1788 -0.2527
 1648SOL    HW2 6590   2.713   0.304   2.704  0.0465  0.1498 -0.3115
 1648SOL    HW3 6591   2.657   0.442   2.727  0.1280  0.1231  0.0484
 1648SOL    MW4 6592   2.713   0.389   2.687 -0.0193  0.1676 -0.2208
 1649SOL     OW 6593   2.943   0.524   2.777 -0.1630 -0.3188 -0.3288
 1649SOL    HW2 6594   2.943   0.604   2.725  0.2471 -0.3055 -0.3155
 1649SOL    HW3 6595   2.872   0.471   2.742 -0.7293  0.2458 -0.0406
 1649SOL    MW4 6596   2.934   0.527   2.766 -0.1836 -0.2425 -0.2890
 1650SOL     OW 6597   2.912   0.761   2.640 -0.4173 -0.1008 -0.1899
 1650SOL    HW2 6598   2.990   0.805   2.672 -0.4673 -1.3321  1.7352
 1650SOL    HW3 6599   2.839   0.805   2.685 -0.6482 -0.4522 -0.2165
 1650SOL    MW4 6600   2.912   0.772   2.650 -0.4544 -0.3096  0.0606
 1651SOL     OW 6601   2.704   0.881   2.770 -0.0133  0.0515 -0.7485
 1651SOL    HW2 6602   2.704   0.879   2.866  0.9941 -0.6877 -0.7612
 1651SOL    HW3 6603   2.626   0.832   2.745  0.7448 -1.4060 -0.3232
 1651SOL    MW4 6604   2.694   0.875   2.779  0.2197 -0.2383 -0.6941
 1652SOL     OW 6605   2.684   1.126   2.642 -0.3503  0.3555  0.6391
 1652SOL    HW2 6606   2.768   1.169   2.657  0.2451  0.5124 -2.7723
 1652SOL    HW3 6607   2.694   1.040   2.682  1.8149 -0.0066 -0.6124
 1652SOL    MW4 6608   2.696   1.121   2.649  0.0139  0.3284  0.0239
 1653SOL     OW 6609   2.911   1.275   2.737  0.0429  0.2608  0.0273
 1653SOL    HW2 6610   2.926   1.283   2.831 -0.2434 -0.1181  0.1032
 1653SOL    HW3 6611   2.987   1.228   2.703  0.2467  0.5799  0.0344
 1653SOL    MW4 6612   2.923   1.270   2.745  0.0320  0.2529  0.0382
 1654SOL     OW 6613   2.928   1.539   2.660 -0.0104 -0.1589 -0.1580
 1654SOL    HW2 6614   2.852   1.585   2.695 -0.4082 -0.3967 -0.7030
 1654SOL    HW3 6615   2.916   1.449   2.688  0.0840 -0.1933 -0.2311
 1654SOL    MW4 6616   2.916   1.534   2.669 -0.0504 -0.1948 -0.2396
 1655SOL     OW 6617   2.688   1.651   2.737  0.3477  0.3984 -0.1467
 1655SOL    HW2 6618   2.682   1.668   2.832  0.7002 -0.3212  0.0053
 1655SOL    HW3 6619   2.607   1.605   2.716 -0.5703  2.1535 -0.5438
 1655SOL    MW4 6620   2.676   1.648   2.747  0.2731  0.5350 -0.1791
 1656SOL     OW 6621   2.649   1.928   2.666 -0.0692 -0.6592 -0.6988
 1656SOL    HW2 6622   2.663   1.839   2.697 -0.1150  0.0570  1.4210
 1656SOL    HW3 6623   2.567   1.956   2.707  0.4139  0.6838 -0.6150
 1656SOL    MW4 6624   2.640   1.920   2.675 -0.0115 -0.3875 -0.4081
 1657SOL     OW 6625   2.906   2.038   2.720  0.4945 -0.1439 -0.5050
 1657SOL    HW2 6626   2.893   2.127   2.685  0.4109 -0.4090 -1.1702
 1657SOL    HW3 6627   2.836   1.987   2.679 -0.1066 -0.2962  0.7018
 1657SOL    MW4 6628   2.895   2.043   2.710  0.4041 -0.1990 -0.4335
 1658SOL     OW 6629   2.899   2.301   2.641  0.1991 -0.2933 -0.0805
 1658SOL    HW2 6630   2.974   2.328   2.694  0.0247  0.8648 -0.4015
 1658SOL    HW3 6631   2.823   2.335   2.687 -0.0829 -0.9057 -0.0947
 1658SOL    MW4 6632   2.899   2.309   2.654  0.1389 -0.2213 -0.1247
 1659SOL     OW 6633   2.657   2.400   2.779  0.0815  0.4526  0.6127
 1659SOL    HW2 6634   2.643   2.415   2.873  1.8427  0.4094  0.8869
 1659SOL    HW3 6635   2.642   2.486   2.739  0.7619  0.8051  1.1069
 1659SOL    MW4 6636   2.653   2.414   2.786  0.4036  0.4934  0.7141
 1660SOL     OW 6637   2.657   2.662   2.671 -0.1300 -0.1184 -0.0018
 1660SOL    HW2 6638   2.738   2.706   2.697 -0.5953  0.3079  0.7342
 1660SOL    HW3 6639   2.650   2.680   2.577 -0.1504  1.1308  0.2288
 1660SOL    MW4 6640   2.667   2.670   2.662 -0.1941  0.1026  0.1257
 1661SOL     OW 6641   2.901   2.821   2.720  0.2343  0.1869  0.3076
 1661SOL    HW2 6642   2.904   2.822   2.816  0.0959  0.8972  0.3065
 1661SOL    HW3 6643   2.921   2.911   2.695  0.0565  0.0470 -0.3267
 1661SOL    MW4 6644   2.904   2.833   2.730  0.1926  0.2622  0.2238
 1662SOL     OW 6645   2.917   3.085   2.667  0.0636  0.4319  0.3218
 1662SOL    HW2 6646   2.834   3.116   2.702  0.1287  0.0799  0.7940
 1662SOL    HW3 6647   2.913   3.105   2.574 -0.5839  0.3408  0.3286
 1662SOL    MW4 6648   2.905   3.092   2.660 -0.0133  0.3734  0.3850
 1663SOL     OW 6649   2.710   3.208   2.786  0.1749 -0.4243 -0.1803
 1663SOL    HW2 6650   2.706   3.299   2.756 -0.9207  0.3581  2.2335
 1663SOL    HW3 6651   2.628   3.169   2.757  0.4640 -0.5237 -0.8614
 1663SOL    MW4 6652   2.699   3.215   2.778  0.0685 -0.3342  0.0483
 1664SOL     OW 6653   2.715   3.467   2.701  0.0959 -0.0908 -0.2889
 1664SOL    HW2 6654   2.636   3.518   2.716  0.0602 -0.2418  0.0274
 1664SOL    HW3 6655   2.720   3.458   2.605  0.2674  0.7653 -0.3699
 1664SOL    MW4 6656   2.705   3.473   2.690  0.1138  0.0022 -0.2579
 1665SOL     OW 6657   2.952   3.592   2.765 -0.1701  0.1082 -0.2958
 1665SOL    HW2 6658   2.949   3.619   2.857  0.0621  1.2132 -0.6082
 1665SOL    HW3 6659   2.869   3.545   2.751  0.3079 -1.1033  0.7806
 1665SOL    MW4 6660   2.941   3.589   2.775 -0.0764  0.0941 -0.1950
 1666SOL     OW 6661   2.929   3.852   2.680  0.6865 -0.0031 -0.0409
 1666SOL    HW2 6662   3.010   3.889   2.714  0.0446 -0.3109  1.8539
 1666SOL    HW3 6663   2.933   3.759   2.703  0.4393 -0.3226 -1.2196
 1666SOL    MW4 6664   2.940   3.844   2.687  0.5692 -0.0859  0.0536
 1667SOL     OW 6665   2.698   3.991   2.769  0.0999  0.5142 -0.0944
 1667SOL    HW2 6666   2.702   4.082   2.740  2.0982  0.4525 -0.0380
 1667SOL    HW3 6667   2.782   3.954   2.744 -0.2952 -1.0469  0.8300
 1667SOL    MW4 6668   2.709   3.998   2.762  0.3114  0.3001  0.0350
 1668SOL     OW 6669   2.685   4.254   2.696  0.2833 -0.0576  0.0666
 1668SOL    HW2 6670   2.759   4.310   2.720  0.3379 -0.1525  0.1197
 1668SOL    HW3 6671   2.608   4.305   2.720  0.3329  0.0253  0.0485
 1668SOL    MW4 6672   2.685   4.268   2.702  0.2970 -0.0592  0.0713
 1669SOL     OW 6673   2.903   4.406   2.749 -0.0013  0.5714  0.8089
 1669SOL    HW2 6674   2.911   4.406   2.844  0.9644  1.1723  0.7358
 1669SOL    HW3 6675   2.912   4.498   2.724  1.0603  0.2710  0.0416
 1669SOL    MW4 6676   2.905   4.419   2.758  0.2661  0.6111  0.6981
 1670SOL     OW 6677   3.397   4.627   2.621  0.3114 -0.5201 -0.2854
 1670SOL    HW2 6678   3.377   4.539   2.650  0.3972 -0.5817 -0.4092
 1670SOL    HW3 6679   3.328   4.682   2.657  0.7273 -0.5098  0.5039
 1670SOL    MW4 6680   3.385   4.623   2.630  0.3776 -0.5269 -0.1976
 1671SOL     OW 6681   3.209   0.127   2.756  0.0560  0.1967  0.5075
 1671SOL    HW2 6682   3.211   0.112   2.850  0.3069  0.8793  0.6119
 1671SOL    HW3 6683   3.204   0.222   2.746 -1.0010  0.0829 -0.1521
 1671SOL    MW4 6684   3.208   0.137   2.767 -0.0504  0.2718  0.4343
 1672SOL     OW 6685   3.156   0.388   2.690  0.1344 -0.0212  0.1709
 1672SOL    HW2 6686   3.079   0.431   2.729 -0.0979 -1.1150  0.9407
 1672SOL    HW3 6687   3.127   0.361   2.603  0.2928  1.3891 -0.3389
 1672SOL    MW4 6688   3.142   0.390   2.684  0.1246  0.0206  0.2052
 1673SOL     OW 6689   3.388   0.501   2.770 -0.4722  0.0756  0.0681
 1673SOL    HW2 6690   3.382   0.592   2.742 -1.3693 -0.7344 -2.5002
 1673SOL    HW3 6691   3.309   0.460   2.735  0.5342 -1.9848  0.1353
 1673SOL    MW4 6692   3.376   0.507   2.762 -0.4578 -0.3031 -0.2619
 1674SOL     OW 6693   3.365   0.750   2.689  0.0743  0.5604 -0.0437
 1674SOL    HW2 6694   3.448   0.793   2.710  0.0590  1.1531 -1.1875
 1674SOL    HW3 6695   3.351   0.767   2.596 -1.4081  0.5988  0.1680
 1674SOL    MW4 6696   3.374   0.758   2.680 -0.1233  0.6437 -0.1667
 1675SOL     OW 6697   3.124   0.874   2.769 -0.2439 -0.1261  0.3410
 1675SOL    HW2 6698   3.141   0.888   2.862  0.0723  1.5754  0.0477
 1675SOL    HW3 6699   3.205   0.833   2.736 -0.4076 -0.8534  0.8289
 1675SOL    MW4 6700   3.137   0.870   2.777 -0.2238  0.0024  0.3667
 1676SOL     OW 6701   3.157   1.144   2.671  0.2888 -0.1315  0.1110
 1676SOL    HW2 6702   3.137   1.057   2.707 -0.2844 -0.1378 -0.2156
 1676SOL    HW3 6703   3.131   1.138   2.579  0.3170  0.3614  0.0730
 1676SOL    MW4 6704   3.151   1.132   2.664  0.2169 -0.0673  0.0629
 1677SOL     OW 6705   3.375   1.251   2.797 -0.4449  0.0631 -0.1855
 1677SOL    HW2 6706   3.366   1.250   2.893 -1.8259  1.7729 -0.2572
 1677SOL    HW3 6707   3.293   1.213   2.765 -0.7531  1.1377 -0.6957
 1677SOL    MW4 6708   3.363   1.246   2.806 -0.6678  0.4305 -0.2623
 1678SOL     OW 6709   3.375   1.509   2.667  0.0996  0.2060 -0.1618
 1678SOL    HW2 6710   3.296   1.558   2.689 -0.3613 -0.2547 -0.7946
 1678SOL    HW3 6711   3.364   1.424   2.709  0.9809  0.6926  1.0817
 1678SOL    MW4 6712   3.363   1.504   2.676  0.1551  0.2094 -0.0812
 1679SOL     OW 6713   3.147   1.660   2.739  0.2462 -0.0035  0.2733
 1679SOL    HW2 6714   3.143   1.750   2.707  2.0285  0.4123  1.1813
 1679SOL    HW3 6715   3.064   1.621   2.711 -0.3525  1.7862 -0.5022
 1679SOL    MW4 6716   3.135   1.667   2.731  0.4024  0.2875  0.2908
 1680SOL     OW 6717   3.147   1.926   2.655 -0.5079  0.0016 -0.0316
 1680SOL    HW2 6718   3.223   1.971   2.691 -0.6695 -0.9905  1.5745
 1680SOL    HW3 6719   3.072   1.974   2.689 -0.6204  0.4553 -0.9134
 1680SOL    MW4 6720   3.147   1.938   2.664 -0.5441 -0.0694  0.0640
 1681SOL     OW 6721   3.369   2.034   2.757  0.1908 -0.2152 -0.0844
 1681SOL    HW2 6722   3.365   2.049   2.851  0.3017  0.6406 -0.2105
 1681SOL    HW3 6723   3.369   2.122   2.719  1.2156 -0.5322 -0.8431
 1681SOL    MW4 6724   3.368   2.047   2.764  0.3407 -0.1441 -0.2011
 1682SOL     OW 6725   3.370   2.281   2.669 -0.2944 -0.4061 -0.2610
 1682SOL    HW2 6726   3.439   2.322   2.721 -0.4480 -1.0846  0.4905
 1682SOL    HW3 6727   3.385   2.313   2.580 -1.3606  2.5392  0.5644
 1682SOL    MW4 6728   3.381   2.290   2.664 -0.4554 -0.1070 -0.0530
 1683SOL     OW 6729   3.130   2.382   2.775  0.2682 -0.0852 -0.9869
 1683SOL    HW2 6730   3.139   2.476   2.762 -1.4159  0.5160  1.7194
 1683SOL    HW3 6731   3.210   2.345   2.737  2.3350  2.6821  0.4537
 1683SOL    MW4 6732   3.142   2.390   2.768  0.3187  0.3592 -0.4398
 1684SOL     OW 6733   3.142   2.662   2.720 -0.3809 -0.6024  0.0659
 1684SOL    HW2 6734   3.220   2.709   2.750 -0.0414 -0.7418 -0.6015
 1684SOL    HW3 6735   3.074   2.729   2.716  0.2971  0.0237 -1.6610
 1684SOL    MW4 6736   3.143   2.677   2.723 -0.2467 -0.5382 -0.2500
 1685SOL     OW 6737   3.390   2.806   2.780  0.1938 -0.4590 -0.5963
 1685SOL    HW2 6738   3.407   2.829   2.871  0.4944 -0.6097 -0.6136
 1685SOL    HW3 6739   3.471   2.764   2.750  0.4229  0.4013 -1.1950
 1685SOL    MW4 6740   3.403   2.803   2.788  0.2637 -0.3654 -0.6776
 1686SOL     OW 6741   3.393   3.079   2.677  0.1211 -0.2938  0.3110
 1686SOL    HW2 6742   3.408   2.986   2.697  0.7152 -0.9122 -2.6845
 1686SOL    HW3 6743   3.414   3.086   2.584 -0.7823  2.6888  0.3009
 1686SOL    MW4 6744   3.398   3.068   2.667  0.0803  0.0181 -0.0856
 1687SOL     OW 6745   3.154   3.226   2.768  0.1036  0.1541 -0.5289
 1687SOL    HW2 6746   3.207   3.152   2.738 -0.1231  0.1894 -1.0164
 1687SOL    HW3 6747   3.064   3.199   2.752 -0.0579 -0.0679  0.6681
 1687SOL    MW4 6748   3.149   3.213   2.762  0.0524  0.1295 -0.4353
 1688SOL     OW 6749   3.185   3.468   2.666  0.5875 -0.1006 -0.1012
 1688SOL    HW2 6750   3.183   3.382   2.707  1.0457  0.2888  0.7340
 1688SOL    HW3 6751   3.104   3.510   2.694  0.8977  0.1626  0.4150
 1688SOL    MW4 6752   3.174   3.462   2.675  0.6889 -0.0145  0.0771
 1689SOL     OW 6753   3.411   3.593   2.773 -0.0502  0.9416  0.3308
 1689SOL    HW2 6754   3.397   3.591   2.868 -1.2638 -0.0860  0.1377
 1689SOL    HW3 6755   3.330   3.558   2.736  0.8347  0.3456 -1.0562
 1689SOL    MW4 6756   3.398   3.588   2.781 -0.0936  0.7274  0.1223
 1690SOL     OW 6757   3.393   3.876   2.718  0.0577  0.1811 -0.1085
 1690SOL    HW2 6758   3.404   3.781   2.724 -2.0618 -0.0758  0.2584
 1690SOL    HW3 6759   3.403   3.896   2.625 -0.2786 -0.5268 -0.2980
 1690SOL    MW4 6760   3.396   3.866   2.706 -0.2663  0.0538 -0.0851
 1691SOL     OW 6761   3.142   3.992   2.800  0.5056 -0.6795 -0.4130
 1691SOL    HW2 6762   3.149   4.081   2.766  0.2197 -1.5708 -2.9629
 1691SOL    HW3 6763   3.219   3.947   2.766  0.3043 -1.5786  0.2932
 1691SOL    MW4 6764   3.153   3.998   2.791  0.4413 -0.9157 -0.6563
 1692SOL     OW 6765   3.128   4.264   2.698 -0.3362  0.1803  0.1933
 1692SOL    HW2 6766   3.043   4.303   2.718  0.3197  1.3204  0.8129
 1692SOL    HW3 6767   3.145   4.287   2.607 -0.8927 -0.4400 -0.0717
 1692SOL    MW4 6768   3.119   4.272   2.689 -0.3230  0.2489  0.2401
 1693SOL     OW 6769   3.385   4.374   2.758  0.0709 -0.5708  0.2164
 1693SOL    HW2 6770   3.382   4.377   2.854  2.1280 -1.0551  0.3201
 1693SOL    HW3 6771   3.310   4.320   2.734 -0.2111 -0.8121  1.5767
 1693SOL    MW4 6772   3.374   4.367   2.768  0.3051 -0.6665  0.4096
 1694SOL     OW 6773   3.845   4.624   2.722  0.5579  0.5525 -0.0073
 1694SOL    HW2 6774   3.863   4.537   2.757  0.3656 -0.2884 -1.9529
 1694SOL    HW3 6775   3.758   4.647   2.755 -0.3923 -0.9944 -1.3717
 1694SOL    MW4 6776   3.836   4.616   2.731  0.4071  0.2375 -0.4440
 1695SOL     OW 6777   3.590   0.072   2.769 -0.1432 -0.3633  0.1966
 1695SOL    HW2 6778   3.606   0.161   2.738  0.3596 -0.1826  0.9487
 1695SOL    HW3 6779   3.525   0.037   2.709  0.2113  0.2528 -0.5532
 1695SOL    MW4 6780   3.583   0.079   2.757 -0.0301 -0.2582  0.1969
 1696SOL     OW 6781   3.605   0.337   2.705  0.1096 -0.0964  0.2816
 1696SOL    HW2 6782   3.682   0.378   2.745  0.9578 -1.3909  0.0199
 1696SOL    HW3 6783   3.531   0.391   2.733  1.2916  2.1307 -0.8271
 1696SOL    MW4 6784   3.605   0.350   2.714  0.3775  0.0266  0.1008
 1697SOL     OW 6785   3.835   0.477   2.786  0.1636 -0.4292 -0.1859
 1697SOL    HW2 6786   3.844   0.487   2.880 -1.1208  3.1277 -0.3522
 1697SOL    HW3 6787   3.912   0.427   2.759  1.6296  0.3386  2.4678
 1697SOL    MW4 6788   3.846   0.472   2.795  0.1876  0.1414  0.1423
 1698SOL     OW 6789   3.826   0.730   2.680  0.1212  0.0808  0.4600
 1698SOL    HW2 6790   3.743   0.767   2.710  0.2495  0.7545 -0.0133
 1698SOL    HW3 6791   3.829   0.643   2.720 -1.1492 -0.2403 -0.1070
 1698SOL    MW4 6792   3.816   0.723   2.689 -0.0295  0.1273  0.3227
 1699SOL     OW 6793   3.610   0.876   2.776  0.1482  0.2746 -0.0733
 1699SOL    HW2 6794   3.602   0.881   2.872 -0.5447 -0.7812 -0.0682
 1699SOL    HW3 6795   3.647   0.961   2.751 -1.2120  1.1900  0.9533
 1699SOL    MW4 6796   3.614   0.888   2.786 -0.1227  0.2561  0.0628
 1700SOL     OW 6797   3.617   1.146   2.675 -0.0012  0.4042  0.0975
 1700SOL    HW2 6798   3.690   1.188   2.720  0.4419 -0.2924  0.0483
 1700SOL    HW3 6799   3.539   1.181   2.716  0.3945 -0.2118  1.4095
 1700SOL    MW4 6800   3.616   1.156   2.686  0.1094  0.2310  0.2641
 1701SOL     OW 6801   3.831   1.265   2.791  0.0951  0.2974 -0.2080
 1701SOL    HW2 6802   3.907   1.226   2.749  0.3977  0.6998 -0.0450
 1701SOL    HW3 6803   3.825   1.353   2.753 -0.0863  0.3863  0.0218
 1701SOL    MW4 6804   3.840   1.272   2.781  0.1111  0.3622 -0.1562
 1702SOL     OW 6805   3.824   1.531   2.664 -0.1629 -0.1453  0.1090
 1702SOL    HW2 6806   3.891   1.592   2.695  0.0494  0.0905 -0.7967
 1702SOL    HW3 6807   3.741   1.573   2.688 -0.0189  0.5261 -0.5479
 1702SOL    MW4 6808   3.822   1.544   2.671 -0.1159 -0.0256 -0.0971
 1703SOL     OW 6809   3.601   1.648   2.765 -0.3646  0.1877  0.6105
 1703SOL    HW2 6810   3.607   1.725   2.708  2.3133 -0.4060  0.0224
 1703SOL    HW3 6811   3.536   1.592   2.722  0.7000  0.3088 -1.2007
 1703SOL    MW4 6812   3.593   1.651   2.752  0.1292  0.1253  0.2940
 1704SOL     OW 6813   3.599   1.904   2.664 -0.5606 -0.7216 -0.0912
 1704SOL    HW2 6814   3.518   1.940   2.700 -0.9455 -0.1743 -1.4726
 1704SOL    HW3 6815   3.599   1.932   2.572  0.6624 -1.6332 -0.3816
 1704SOL    MW4 6816   3.588   1.913   2.656 -0.4500 -0.7696 -0.3118
 1705SOL     OW 6817   3.832   2.051   2.767 -0.3367 -0.2486 -0.0243
 1705SOL    HW2 6818   3.904   2.014   2.716 -0.8496  0.5590 -1.3721
 1705SOL    HW3 6819   3.755   2.001   2.741 -0.5487 -0.0486  0.2133
 1705SOL    MW4 6820   3.831   2.040   2.757 -0.4323 -0.1156 -0.1708
 1706SOL     OW 6821   3.840   2.331   2.676  0.1340  0.2966  0.0658
 1706SOL    HW2 6822   3.829   2.240   2.701  1.3535  0.3108  0.6679
 1706SOL    HW3 6823   3.851   2.329   2.581  1.5116 -0.3204  0.2257
 1706SOL    MW4 6824   3.840   2.319   2.667  0.4767  0.2171  0.1664
 1707SOL     OW 6825   3.585   2.409   2.792  0.0181  0.1313  0.0824
 1707SOL    HW2 6826   3.590   2.420   2.886  0.7097 -0.8336  0.1624
 1707SOL    HW3 6827   3.668   2.367   2.767 -0.3813 -0.1286 -0.8672
 1707SOL    MW4 6828   3.596   2.405   2.801  0.0566 -0.0303 -0.0323
 1708SOL     OW 6829   3.630   2.681   2.713 -0.1792  0.0353  0.4038
 1708SOL    HW2 6830   3.622   2.589   2.739  1.3618 -0.3572 -0.4532
 1708SOL    HW3 6831   3.640   2.677   2.618 -0.7596  1.1446  0.2941
 1708SOL    MW4 6832   3.630   2.668   2.704 -0.0525  0.1299  0.2763
 1709SOL     OW 6833   3.864   2.848   2.788 -0.0326  0.3081 -0.5282
 1709SOL    HW2 6834   3.939   2.802   2.750  1.0635 -0.0256  1.9610
 1709SOL    HW3 6835   3.789   2.791   2.770  0.8795 -1.1097  0.0987
 1709SOL    MW4 6836   3.864   2.834   2.780  0.2324  0.0770 -0.1171
 1710SOL     OW 6837   3.852   3.083   2.631 -0.0066  0.2257  0.1328
 1710SOL    HW2 6838   3.777   3.128   2.671  0.7376  0.2211  1.5833
 1710SOL    HW3 6839   3.851   2.996   2.670 -0.0867 -0.2543 -0.9327
 1710SOL    MW4 6840   3.842   3.077   2.642  0.0810  0.1617  0.1836
 1711SOL     OW 6841   3.636   3.193   2.749 -0.2240 -0.5336 -0.2035
 1711SOL    HW2 6842   3.633   3.282   2.714 -0.9235 -0.1868  0.7250
 1711SOL    HW3 6843   3.548   3.158   2.731 -0.0019 -0.9902 -0.4244
 1711SOL    MW4 6844   3.624   3.200   2.742 -0.2870 -0.5481 -0.1101
 1712SOL     OW 6845   3.632   3.453   2.666 -0.1291 -0.1721 -0.2580
 1712SOL    HW2 6846   3.697   3.502   2.716 -2.0494  1.1277  1.0413
 1712SOL    HW3 6847   3.548   3.487   2.696 -1.4915 -3.0255 -0.6113
 1712SOL    MW4 6848   3.630   3.464   2.677 -0.5622 -0.3771 -0.1332
 1713SOL     OW 6849   3.833   3.581   2.789  0.0908 -0.1018  0.3508
 1713SOL    HW2 6850   3.909   3.545   2.742  0.0959 -0.4565  0.6295
 1713SOL    HW3 6851   3.827   3.672   2.758  0.0408 -0.3563 -0.4006
 1713SOL    MW4 6852   3.842   3.588   2.779  0.0849 -0.1822  0.2884
 1714SOL     OW 6853   3.860   3.852   2.708 -0.2437 -0.0853  0.1832
 1714SOL    HW2 6854   3.928   3.916   2.729  1.4511 -1.9412  0.4211
 1714SOL    HW3 6855   3.778   3.896   2.732  1.0118  1.2958  2.0710
 1714SOL    MW4 6856   3.858   3.866   2.714  0.1456 -0.1479  0.4637
 1715SOL     OW 6857   3.631   3.976   2.783 -0.3141  0.3632  0.1082
 1715SOL    HW2 6858   3.611   4.059   2.739 -1.2539 -0.3449 -0.8487
 1715SOL    HW3 6859   3.550   3.925   2.774  0.0269 -0.3994  1.2828
 1715SOL    MW4 6860   3.617   3.980   2.776 -0.3931  0.1691  0.1370
 1716SOL     OW 6861   3.603   4.243   2.676 -0.0265 -0.1952 -0.3167
 1716SOL    HW2 6862   3.530   4.298   2.704 -1.1108 -1.6783 -0.1856
 1716SOL    HW3 6863   3.611   4.260   2.582  1.0971  1.8449  0.1186
 1716SOL    MW4 6864   3.595   4.252   2.667 -0.0213 -0.1217 -0.2420
 1717SOL     OW 6865   3.814   4.372   2.817  0.0047 -0.0316  0.0962
 1717SOL    HW2 6866   3.880   4.318   2.774  0.0280 -0.2405  0.3942
 1717SOL    HW3 6867   3.730   4.338   2.784  0.0288 -0.0648  0.0696
 1717SOL    MW4 6868   3.811   4.360   2.807  0.0110 -0.0635  0.1320
 1718SOL     OW 6869   4.312   4.646   2.707  0.4829  0.3052 -0.4447
 1718SOL    HW2 6870   4.225   4.682   2.726  0.4592  0.5388 -0.9957
 1718SOL    HW3 6871   4.373   4.713   2.738  0.4639  0.2482 -0.2821
 1718SOL    MW4 6872   4.308   4.659   2.713  0.4772  0.3285 -0.4960
 1719SOL     OW 6873   4.067   0.098   2.786  0.1143  0.2367  0.3394
 1719SOL    HW2 6874   4.063   0.102   2.882 -1.0800  2.0243  0.2339
 1719SOL    HW3 6875   3.996   0.039   2.761  0.0990  0.1773  0.5219
 1719SOL    MW4 6876   4.057   0.091   2.795 -0.0453  0.4647  0.3495
 1720SOL     OW 6877   4.071   0.363   2.707 -0.3188  0.3419 -0.1011
 1720SOL    HW2 6878   4.082   0.269   2.727 -1.8138 -0.0812 -1.2450
 1720SOL    HW3 6879   4.053   0.365   2.613  0.1105  1.8287 -0.1524
 1720SOL    MW4 6880   4.070   0.351   2.697 -0.4594  0.4823 -0.2588
 1721SOL     OW 6881   4.267   0.517   2.820  0.3469  0.0376 -0.3595
 1721SOL    HW2 6882   4.190   0.474   2.781 -0.1826  1.3020 -0.7450
 1721SOL    HW3 6883   4.342   0.474   2.779 -0.1134 -1.9998  0.8621
 1721SOL    MW4 6884   4.267   0.505   2.809  0.2163 -0.0644 -0.2492
 1722SOL     OW 6885   4.265   0.775   2.721  0.3072 -0.1871 -0.4234
 1722SOL    HW2 6886   4.266   0.683   2.748 -0.9545 -0.3398 -0.8379
 1722SOL    HW3 6887   4.250   0.772   2.627 -0.0396  0.4518 -0.3905
 1722SOL    MW4 6888   4.263   0.763   2.712  0.0950 -0.1230 -0.4738
 1723SOL     OW 6889   4.011   0.901   2.787  0.8627 -0.3914  0.3999
 1723SOL    HW2 6890   4.101   0.872   2.775  0.2038 -1.6149 -1.8515
 1723SOL    HW3 6891   3.957   0.831   2.751 -0.9821  0.6120  1.0988
 1723SOL    MW4 6892   4.016   0.888   2.781  0.5324 -0.4204  0.1951
 1724SOL     OW 6893   4.043   1.141   2.655  0.2553 -0.4244 -0.1051
 1724SOL    HW2 6894   4.116   1.181   2.702 -0.4806  0.1655  0.5614
 1724SOL    HW3 6895   4.042   1.050   2.684  0.4163 -0.3058  0.2789
 1724SOL    MW4 6896   4.052   1.134   2.665  0.1795 -0.3309  0.0335
 1725SOL     OW 6897   4.277   1.284   2.775  0.1285  0.4973 -0.2111
 1725SOL    HW2 6898   4.267   1.367   2.729 -0.1190  0.2716 -0.5638
 1725SOL    HW3 6899   4.361   1.250   2.745  0.7505  1.1360  0.7589
 1725SOL    MW4 6900   4.286   1.291   2.765  0.1779  0.5518 -0.1297
 1726SOL     OW 6901   4.255   1.529   2.670 -0.5390  0.2448  0.3160
 1726SOL    HW2 6902   4.323   1.580   2.715 -0.4294 -0.6977  1.2446
 1726SOL    HW3 6903   4.272   1.542   2.577  0.5121  0.5455  0.5476
 1726SOL    MW4 6904   4.266   1.537   2.664 -0.3858  0.1601  0.4691
 1727SOL     OW 6905   4.041   1.675   2.734  0.0144 -0.8612 -0.4031
 1727SOL    HW2 6906   4.030   1.673   2.829  0.0717  1.0802 -0.3383
 1727SOL    HW3 6907   4.120   1.623   2.718  0.6448 -0.2621  0.7209
 1727SOL    MW4 6908   4.050   1.668   2.744  0.1051 -0.5260 -0.2462
 1728SOL     OW 6909   4.032   1.927   2.622 -0.4904 -0.1241  0.1832
 1728SOL    HW2 6910   4.093   1.973   2.680  0.0774  0.1179 -0.5781
 1728SOL    HW3 6911   4.025   1.839   2.657  0.4745 -0.2126  0.1588
 1728SOL    MW4 6912   4.039   1.922   2.634 -0.2882 -0.1038  0.0795
 1729SOL     OW 6913   4.235   2.040   2.799 -0.4555  0.1666 -0.8163
 1729SOL    HW2 6914   4.230   2.129   2.763 -1.3520  0.4869  0.0720
 1729SOL    HW3 6915   4.303   1.997   2.748  1.9449  2.2132  0.5378
 1729SOL    MW4 6916   4.243   2.046   2.788 -0.2571  0.4789 -0.5205
 1730SOL     OW 6917   4.243   2.304   2.663 -0.0720 -0.1371 -0.0323
 1730SOL    HW2 6918   4.173   2.359   2.698  0.2868 -0.5486  1.3434
 1730SOL    HW3 6919   4.263   2.342   2.577 -1.1165  0.7357  0.1057
 1730SOL    MW4 6920   4.236   2.316   2.656 -0.1625 -0.0763  0.1674
 1731SOL     OW 6921   4.051   2.468   2.778 -0.0252  0.1038 -0.1601
 1731SOL    HW2 6922   4.050   2.454   2.873  0.9263 -0.5060 -0.2273
 1731SOL    HW3 6923   3.970   2.428   2.747  1.2156 -2.6807  0.0209
 1731SOL    MW4 6924   4.040   2.461   2.787  0.2640 -0.3440 -0.1451
 1732SOL     OW 6925   4.090   2.730   2.694  0.2769  0.2238  0.1215
 1732SOL    HW2 6926   4.172   2.754   2.736  0.6933 -0.9438 -0.0128
 1732SOL    HW3 6927   4.080   2.637   2.712 -0.0138 -0.0877 -1.5771
 1732SOL    MW4 6928   4.099   2.721   2.702  0.2935  0.0287 -0.1203
 1733SOL     OW 6929   4.314   2.832   2.817 -0.0166 -0.5254  0.3825
 1733SOL    HW2 6930   4.301   2.821   2.911 -0.6158 -0.0669  0.3560
 1733SOL    HW3 6931   4.301   2.926   2.802 -1.0271 -0.7665 -0.3235
 1733SOL    MW4 6932   4.310   2.843   2.827 -0.2290 -0.4967  0.2858
 1734SOL     OW 6933   4.303   3.088   2.695  0.2070 -0.1028 -0.1516
 1734SOL    HW2 6934   4.217   3.130   2.704 -0.1927 -1.0225  0.4686
 1734SOL    HW3 6935   4.301   3.049   2.608 -0.1540 -0.4269 -0.0025
 1734SOL    MW4 6936   4.291   3.088   2.685  0.1067 -0.2669 -0.0501
 1735SOL     OW 6937   4.058   3.222   2.758  0.2591 -0.2128 -0.3205
 1735SOL    HW2 6938   4.070   3.307   2.716 -2.0940  0.8055  0.9641
 1735SOL    HW3 6939   3.981   3.185   2.717  0.4116 -1.0858  0.1606
 1735SOL    MW4 6940   4.050   3.228   2.747 -0.0312 -0.1936 -0.0875
 1736SOL     OW 6941   4.075   3.476   2.666  0.1486  0.2569  0.2079
 1736SOL    HW2 6942   4.156   3.508   2.706  0.1767  0.6354 -0.1447
 1736SOL    HW3 6943   4.084   3.499   2.573 -0.0464 -0.3426  0.0397
 1736SOL    MW4 6944   4.087   3.483   2.659  0.1266  0.2277  0.1392
 1737SOL     OW 6945   4.281   3.571   2.830  0.3968  0.0210  0.1804
 1737SOL    HW2 6946   4.283   3.564   2.926 -1.0143 -1.6175  0.1203
 1737SOL    HW3 6947   4.366   3.538   2.802  0.4221 -0.4622  0.8150
 1737SOL    MW4 6948   4.292   3.566   2.839  0.2139 -0.2589  0.2562
 1738SOL     OW 6949   4.304   3.835   2.736 -0.3179  0.0498  0.0015
 1738SOL    HW2 6950   4.316   3.754   2.785  0.8402  0.1521 -0.0905
 1738SOL    HW3 6951   4.366   3.896   2.776 -0.2671  0.5066 -0.7670
 1738SOL    MW4 6952   4.314   3.833   2.748 -0.1584  0.1236 -0.1120
 1739SOL     OW 6953   4.097   4.009   2.788  0.2625  0.1456 -0.0437
 1739SOL    HW2 6954   4.098   4.007   2.884  0.7640  1.4095  0.0013
 1739SOL    HW3 6955   4.170   3.953   2.762  0.9263  0.8130  0.3564
 1739SOL    MW4 6956   4.107   4.002   2.797  0.4162  0.4004  0.0150
 1740SOL     OW 6957   4.069   4.272   2.702 -0.4805  0.0330  0.4343
 1740SOL    HW2 6958   4.085   4.179   2.720  0.4528  0.3389  1.2105
 1740SOL    HW3 6959   4.065   4.277   2.606 -1.4141 -0.9457  0.4127
 1740SOL    MW4 6960   4.071   4.260   2.691 -0.4806 -0.0558  0.5339
 1741SOL     OW 6961   4.295   4.388   2.813  0.0338  0.1961  0.1968
 1741SOL    HW2 6962   4.211   4.360   2.775  1.2317 -1.7019 -1.1364
 1741SOL    HW3 6963   4.307   4.477   2.781 -0.4826 -0.2742 -1.3573
 1741SOL    MW4 6964   4.285   4.396   2.804  0.1237 -0.1164 -0.1841
 1742SOL     OW 6965   0.210   4.647   3.133 -0.0550 -0.4462 -0.6016
 1742SOL    HW2 6966   0.215   4.669   3.226  0.0199 -1.0752 -0.4604
 1742SOL    HW3 6967   0.126   4.684   3.105  0.1397  0.1624 -0.3979
 1742SOL    MW4 6968   0.200   4.655   3.142 -0.0194 -0.4489 -0.5561
 1743SOL     OW 6969   4.441   0.108   3.095 -0.2156 -0.2239  0.5822
 1743SOL    HW2 6970   4.368   0.069   3.142  0.0850 -0.0939  1.1541
 1743SOL    HW3 6971   4.453   0.194   3.135 -0.5393  0.2580 -0.3313
 1743SOL    MW4 6972   4.433   0.114   3.106 -0.2187 -0.1431  0.5371
 1744SOL     OW 6973   0.020   0.364   3.168  0.3827  0.5619  0.1811
 1744SOL    HW2 6974   0.036   0.355   3.262  1.3343  2.3621  0.2187
 1744SOL    HW3 6975  -0.049   0.429   3.161  0.6884  0.8256 -0.3931
 1744SOL    MW4 6976   0.013   0.371   3.179  0.5486  0.8342  0.1103
 1745SOL     OW 6977   0.236   0.484   3.061  0.2267  0.4034  0.1064
 1745SOL    HW2 6978   0.301   0.417   3.083  0.4666  0.6440  0.1305
 1745SOL    HW3 6979   0.152   0.446   3.089  0.5569  0.8230  1.6856
 1745SOL    MW4 6980   0.233   0.470   3.067  0.3019  0.4905  0.3179
 1746SOL     OW 6981   0.188   0.711   3.200  0.1848 -0.3463 -0.1870
 1746SOL    HW2 6982   0.218   0.699   3.290 -0.2044 -0.0016 -0.0088
 1746SOL    HW3 6983   0.211   0.629   3.156  0.7207 -0.3699  0.1277
 1746SOL    MW4 6984   0.195   0.698   3.206  0.2041 -0.3040 -0.1219
 1747SOL     OW 6985   4.469   0.895   3.083  0.2422  0.2387 -0.0027
 1747SOL    HW2 6986   4.537   0.836   3.114 -0.5116  0.0597  1.3835
 1747SOL    HW3 6987   4.494   0.917   2.994  1.0585 -1.3730 -0.1834
 1747SOL    MW4 6988   4.481   0.890   3.075  0.2504  0.0025  0.1563
 1748SOL     OW 6989   0.024   1.149   3.175 -0.1728  0.0385  0.3806
 1748SOL    HW2 6990  -0.046   1.203   3.138 -0.2306  0.4391  1.0624
 1748SOL    HW3 6991   0.008   1.062   3.141 -1.2933  0.0218  0.9137
 1748SOL    MW4 6992   0.013   1.145   3.166 -0.3283  0.0892  0.5409
 1749SOL     OW 6993   0.270   1.257   3.109 -0.5174  0.1768  0.0666
 1749SOL    HW2 6994   0.187   1.222   3.143 -1.1856  2.2731  0.7168
 1749SOL    HW3 6995   0.257   1.263   3.015 -0.7607 -0.3982  0.0637
 1749SOL    MW4 6996   0.257   1.253   3.101 -0.6377  0.3775  0.1520
 1750SOL     OW 6997   0.249   1.531   3.155 -0.1799 -0.4257 -0.7216
 1750SOL    HW2 6998   0.161   1.542   3.121 -0.4564  0.4065  0.2177
 1750SOL    HW3 6999   0.268   1.438   3.144 -1.2236 -0.6315 -0.8099
 1750SOL    MW4 7000   0.240   1.520   3.149 -0.3541 -0.3431 -0.6094
 1751SOL     OW 7001   4.460   1.667   3.055  0.3655  0.3620 -0.1794
 1751SOL    HW2 7002   4.385   1.631   3.101 -0.1607  1.0947 -0.4489
 1751SOL    HW3 7003   4.486   1.743   3.107  0.7231  0.3001 -0.2623
 1751SOL    MW4 7004   4.454   1.673   3.068  0.3433  0.4505 -0.2259
 1752SOL     OW 7005   0.004   1.900   3.179  0.4922 -0.2402  0.2030
 1752SOL    HW2 7006  -0.078   1.931   3.140  0.5684  1.4436  1.3257
 1752SOL    HW3 7007   0.072   1.951   3.135  0.8771 -0.9918 -0.0851
 1752SOL    MW4 7008   0.003   1.911   3.168  0.5530 -0.1172  0.3131
 1753SOL     OW 7009   0.209   2.046   3.050  0.1334 -0.5361 -0.0232
 1753SOL    HW2 7010   0.226   2.138   3.067  0.7080 -0.8005  0.8484
 1753SOL    HW3 7011   0.202   2.040   2.955  0.4797  0.3382 -0.1067
 1753SOL    MW4 7012   0.210   2.057   3.040  0.2549 -0.4557  0.0808
 1754SOL     OW 7013   0.226   2.307   3.162 -0.3586  0.1117  0.4562
 1754SOL    HW2 7014   0.234   2.310   3.257 -1.3662 -0.9267  0.5887
 1754SOL    HW3 7015   0.297   2.362   3.129 -0.0371  0.5022  1.8092
 1754SOL    MW4 7016   0.236   2.314   3.170 -0.4491  0.0262  0.6522
 1755SOL     OW 7017   0.006   2.421   3.044  0.3708  0.5222 -0.1034
 1755SOL    HW2 7018   0.012   2.503   3.092  1.9927  0.1540  0.3533
 1755SOL    HW3 7019   0.075   2.366   3.081 -0.4973 -0.9506 -0.6020
 1755SOL    MW4 7020   0.016   2.425   3.055  0.4703  0.2793 -0.1089
 1756SOL     OW 7021   0.001   2.688   3.182  0.0406 -0.4471  0.5182
 1756SOL    HW2 7022   0.016   2.702   3.275  0.1834  1.0419  0.2755
 1756SOL    HW3 7023   0.077   2.725   3.138 -1.1237  1.0076 -0.3212
 1756SOL    MW4 7024   0.013   2.695   3.188 -0.0942 -0.0587  0.3754
 1757SOL     OW 7025   0.241   2.836   3.060  0.0898 -0.3561 -0.0563
 1757SOL    HW2 7026   0.317   2.799   3.105  0.2581  0.0827  0.0170
 1757SOL    HW3 7027   0.256   2.818   2.968  0.9052  0.8614 -0.1708
 1757SOL    MW4 7028   0.253   2.829   3.054  0.2195 -0.1376 -0.0618
 1758SOL     OW 7029   0.229   3.100   3.183 -0.3921 -0.0399 -0.1880
 1758SOL    HW2 7030   0.167   3.159   3.139 -0.0237  0.3842 -0.1348
 1758SOL    HW3 7031   0.217   3.016   3.138  1.0562  0.7569 -2.1348
 1758SOL    MW4 7032   0.219   3.096   3.171 -0.1524  0.1212 -0.4379
 1759SOL     OW 7033   0.010   3.218   3.072  0.0206  0.0121  0.1738
 1759SOL    HW2 7034  -0.076   3.177   3.085 -1.1772  2.2884 -0.4636
 1759SOL    HW3 7035   0.024   3.214   2.978 -0.4166  1.6181  0.0209
 1759SOL    MW4 7036   0.000   3.212   3.062 -0.1951  0.5243  0.0696
 1760SOL     OW 7037   4.489   3.460   3.200 -0.0543  0.1771 -0.0948
 1760SOL    HW2 7038   4.425   3.511   3.150 -2.0174 -1.8963  0.1923
 1760SOL    HW3 7039   4.486   3.373   3.159 -0.7948 -1.2177  2.7913
 1760SOL    MW4 7040   4.480   3.455   3.188 -0.4110 -0.2805  0.3238
 1761SOL     OW 7041   0.243   3.514   3.107 -0.5709  0.0658  0.0867
 1761SOL    HW2 7042   0.241   3.605   3.138  0.0019  0.1252 -0.0468
 1761SOL    HW3 7043   0.158   3.478   3.133 -0.7627  0.6121  0.2248
 1761SOL    MW4 7044   0.232   3.521   3.115 -0.5206  0.1457  0.0873
 1762SOL     OW 7045   0.232   3.804   3.188 -0.2876 -0.3508  0.1464
 1762SOL    HW2 7046   0.249   3.797   3.282 -1.0491  1.6170  0.4668
 1762SOL    HW3 7047   0.298   3.865   3.156  0.4522 -1.6047 -0.7619
 1762SOL    MW4 7048   0.243   3.811   3.196 -0.2904 -0.2566  0.0688
 1763SOL     OW 7049   0.024   3.970   3.106  0.1003  0.1322  0.3922
 1763SOL    HW2 7050   0.089   3.908   3.136 -1.2944 -2.0512 -0.9485
 1763SOL    HW3 7051   0.041   3.980   3.012 -0.6798  0.5327  0.2817
 1763SOL    MW4 7052   0.035   3.963   3.097 -0.1867 -0.1030  0.2007
 1764SOL     OW 7053   0.023   4.230   3.161  0.5396 -0.0268  0.3021
 1764SOL    HW2 7054   0.040   4.240   3.255  0.8730 -0.8029  0.3280
 1764SOL    HW3 7055   0.036   4.137   3.144  0.9068  0.1876 -0.6041
 1764SOL    MW4 7056   0.027   4.219   3.171  0.6321 -0.1009  0.1860
 1765SOL     OW 7057   0.234   4.376   3.049 -0.4095  0.2751  0.2596
 1765SOL    HW2 7058   0.160   4.323   3.079  0.3062 -0.5527  0.5674
 1765SOL    HW3 7059   0.217   4.463   3.086 -1.7957  0.3733 -0.5814
 1765SOL    MW4 7060   0.222   4.381   3.058 -0.4980  0.1788  0.1893
 1766SOL     OW 7061   0.688   4.666   3.173 -0.0214  0.2844  0.0450
 1766SOL    HW2 7062   0.691   4.576   3.141 -0.6970  0.2432  0.0957
 1766SOL    HW3 7063   0.611   4.704   3.131  1.7704  1.6712 -2.1122
 1766SOL    MW4 7064   0.678   4.659   3.163  0.1258  0.4620 -0.2329
 1767SOL     OW 7065   0.468   0.106   3.052 -0.4524 -0.3033  0.4468
 1767SOL    HW2 7066   0.460   0.192   3.093 -0.4019  0.2882 -0.7566
 1767SOL    HW3 7067   0.386   0.062   3.072 -0.6572  0.1834  0.6981
 1767SOL    MW4 7068   0.456   0.112   3.060 -0.4728 -0.1610  0.3212
 1768SOL     OW 7069   0.445   0.344   3.166  0.2017  0.0235 -0.2178
 1768SOL    HW2 7070   0.416   0.363   3.255  0.6842  0.5768 -0.1718
 1768SOL    HW3 7071   0.516   0.406   3.151 -0.0068  0.0593 -1.0569
 1768SOL    MW4 7072   0.451   0.355   3.176  0.2378  0.1012 -0.3224
 1769SOL     OW 7073   0.649   0.497   3.043  0.2756 -0.2877  0.2971
 1769SOL    HW2 7074   0.739   0.471   3.059  0.2740 -1.0843 -0.9618
 1769SOL    HW3 7075   0.647   0.590   3.066  2.0746  0.4133 -2.1196
 1769SOL    MW4 7076   0.660   0.506   3.048  0.5127 -0.3003 -0.1879
 1770SOL     OW 7077   0.696   0.764   3.165 -0.1163  0.4107  0.2507
 1770SOL    HW2 7078   0.710   0.770   3.260  0.4280  2.3793  0.0717
 1770SOL    HW3 7079   0.606   0.795   3.153  0.1986  1.2368  0.0163
 1770SOL    MW4 7080   0.686   0.769   3.176 -0.0030  0.7794  0.1961
 1771SOL     OW 7081   0.426   0.845   3.076 -0.1488 -0.2238  0.1387
 1771SOL    HW2 7082   0.352   0.791   3.101  0.7248 -1.7234 -0.4724
 1771SOL    HW3 7083   0.427   0.843   2.980  0.2742  0.3296  0.1251
 1771SOL    MW4 7084   0.417   0.838   3.066  0.0223 -0.3486  0.0563
 1772SOL     OW 7085   0.464   1.100   3.212  0.0796  0.1044 -0.0080
 1772SOL    HW2 7086   0.444   1.013   3.177 -1.0979  0.8635 -1.2902
 1772SOL    HW3 7087   0.399   1.157   3.172  0.8861  1.5961  0.7649
 1772SOL    MW4 7088   0.453   1.096   3.202  0.0307  0.4014 -0.0752
 1773SOL     OW 7089   0.649   1.234   3.049  0.2483 -0.2126  0.1972
 1773SOL    HW2 7090   0.727   1.193   3.087 -0.3650 -1.3748  0.2351
 1773SOL    HW3 7091   0.576   1.195   3.097 -0.3778  0.6078 -0.0741
 1773SOL    MW4 7092   0.649   1.223   3.060  0.0847 -0.2577  0.1664
 1774SOL     OW 7093   0.625   1.493   3.126 -0.2720 -0.6168  0.4418
 1774SOL    HW2 7094   0.639   1.506   3.220 -1.0723 -1.4728  0.6892
 1774SOL    HW3 7095   0.632   1.398   3.114  0.4159 -0.4606 -0.4690
 1774SOL    MW4 7096   0.628   1.482   3.137 -0.2868 -0.7091  0.3542
 1775SOL     OW 7097   0.423   1.701   3.046  0.3243  0.3575 -0.0073
 1775SOL    HW2 7098   0.496   1.645   3.072  1.0564  1.2838 -0.0017
 1775SOL    HW3 7099   0.345   1.654   3.074  0.9778 -0.0859  1.1235
 1775SOL    MW4 7100   0.422   1.688   3.053  0.5071  0.4212  0.1426
 1776SOL     OW 7101   0.449   1.951   3.154 -0.4493 -0.5130 -0.0080
 1776SOL    HW2 7102   0.449   1.864   3.116 -0.2238  0.0421 -1.3112
 1776SOL    HW3 7103   0.374   1.995   3.115  0.3797  0.3980 -0.6188
 1776SOL    MW4 7104   0.439   1.945   3.144 -0.3102 -0.3195 -0.2605
 1777SOL     OW 7105   0.672   2.085   3.068 -0.1598 -0.3416 -0.0640
 1777SOL    HW2 7106   0.733   2.020   3.101  0.3032  0.5614  0.8908
 1777SOL    HW3 7107   0.587   2.061   3.106 -0.3117 -1.3006 -0.9881
 1777SOL    MW4 7108   0.669   2.073   3.077 -0.1188 -0.3490 -0.0600
 1778SOL     OW 7109   0.670   2.329   3.176  0.1747  0.0672 -0.0688
 1778SOL    HW2 7110   0.653   2.325   3.270 -1.3607  0.3295 -0.3277
 1778SOL    HW3 7111   0.675   2.237   3.149  0.6342 -0.0096  0.2547
 1778SOL    MW4 7112   0.669   2.316   3.185  0.0328  0.0917 -0.0603
 1779SOL     OW 7113   0.443   2.445   3.041 -0.1826 -0.0567  0.0848
 1779SOL    HW2 7114   0.524   2.405   3.072 -0.8838 -1.7048 -0.1730
 1779SOL    HW3 7115   0.445   2.432   2.946 -0.7179 -0.0521  0.0746
 1779SOL    MW4 7116   0.454   2.438   3.032 -0.3457 -0.2735  0.0494
 1780SOL     OW 7117   0.456   2.687   3.134  0.3447  0.2493  0.0024
 1780SOL    HW2 7118   0.543   2.724   3.118 -0.2539  1.4851 -0.5110
 1780SOL    HW3 7119   0.462   2.596   3.106  1.0790  0.7058 -1.3346
 1780SOL    MW4 7120   0.468   2.680   3.128  0.3626  0.4726 -0.2418
 1781SOL     OW 7121   0.702   2.837   3.071  0.3341  0.0874 -0.1087
 1781SOL    HW2 7122   0.789   2.797   3.080  0.8100  1.0149 -0.4621
 1781SOL    HW3 7123   0.715   2.928   3.098 -1.3338 -0.6463  3.3301
 1781SOL    MW4 7124   0.715   2.844   3.075  0.1768  0.1130  0.2984
 1782SOL     OW 7125   0.745   3.084   3.177 -0.1362 -0.2022  0.1161
 1782SOL    HW2 7126   0.751   3.087   3.272  0.6553 -0.6801  0.0882
 1782SOL    HW3 7127   0.656   3.113   3.157  0.4130  2.1471  0.8699
 1782SOL    MW4 7128   0.734   3.088   3.187  0.0407  0.0447  0.2118
 1783SOL     OW 7129   0.485   3.178   3.080 -0.2904 -0.1956  0.2849
 1783SOL    HW2 7130   0.507   3.265   3.116 -0.3505  0.5378 -1.4085
 1783SOL    HW3 7131   0.399   3.158   3.116 -0.5591  0.7424  0.1705
 1783SOL    MW4 7132   0.477   3.187   3.090 -0.3338  0.0249  0.0464
 1784SOL     OW 7133   0.505   3.440   3.152 -0.3795 -0.4262  0.2081
 1784SOL    HW2 7134   0.499   3.435   3.247 -1.5654 -0.8097  0.1291
 1784SOL    HW3 7135   0.423   3.482   3.125  0.9976  1.9336 -0.4864
 1784SOL    MW4 7136   0.493   3.445   3.161 -0.3542 -0.1654  0.1060
 1785SOL     OW 7137   0.683   3.615   3.045  0.0962  0.6162 -0.4949
 1785SOL    HW2 7138   0.773   3.598   3.075 -0.8517  2.3829  3.7515
 1785SOL    HW3 7139   0.630   3.549   3.089 -0.7754 -0.0770 -2.5547
 1785SOL    MW4 7140   0.688   3.604   3.055 -0.1438  0.7578 -0.2064
 1786SOL     OW 7141   0.677   3.860   3.176 -0.0198  0.1805  0.2455
 1786SOL    HW2 7142   0.682   3.848   3.271 -0.7603  0.8932  0.3823
 1786SOL    HW3 7143   0.680   3.772   3.140  0.8903 -0.0642  0.8982
 1786SOL    MW4 7144   0.678   3.847   3.184  0.0026  0.2422  0.3496
 1787SOL     OW 7145   0.438   3.974   3.078  0.3825  0.1345  0.1579
 1787SOL    HW2 7146   0.517   3.944   3.122 -0.0635 -0.7239  0.3877
 1787SOL    HW3 7147   0.459   3.970   2.985  0.8848  0.7088  0.2405
 1787SOL    MW4 7148   0.451   3.970   3.072  0.3899  0.0970  0.1991
 1788SOL     OW 7149   0.476   4.242   3.147  0.0740 -0.4576  0.7956
 1788SOL    HW2 7150   0.459   4.151   3.122  0.4693  0.1790 -1.9961
 1788SOL    HW3 7151   0.395   4.289   3.124 -0.3320 -0.1761  2.7302
 1788SOL    MW4 7152   0.463   4.237   3.141  0.0726 -0.3365  0.6825
 1789SOL     OW 7153   0.703   4.410   3.084  0.0185 -0.1439 -0.3071
 1789SOL    HW2 7154   0.634   4.355   3.120  0.0399  0.5502  0.8540
 1789SOL    HW3 7155   0.679   4.423   2.993  0.0316 -2.0777 -0.5964
 1789SOL    MW4 7156   0.691   4.405   3.077  0.0230 -0.3075 -0.1921
 1790SOL     OW 7157   1.156   4.632   3.145 -0.3744 -0.2377 -0.1285
 1790SOL    HW2 7158   1.238   4.674   3.121 -0.1661 -0.8156 -0.4624
 1790SOL    HW3 7159   1.088   4.687   3.106 -0.0990 -0.2852 -0.6951
 1790SOL    MW4 7160   1.158   4.645   3.136 -0.3106 -0.3202 -0.2473
 1791SOL     OW 7161   0.916   0.117   3.070 -0.0437 -0.2218  0.6477
 1791SOL    HW2 7162   0.916   0.210   3.093  0.5918  0.0880 -0.5811
 1791SOL    HW3 7163   0.828   0.087   3.094 -0.4279  0.8217  0.5712
 1791SOL    MW4 7164   0.904   0.126   3.076 -0.0105 -0.0433  0.4754
 1792SOL     OW 7165   0.894   0.396   3.141  0.1137  0.6977 -0.0137
 1792SOL    HW2 7166   0.911   0.388   3.234 -0.1047  0.9725  0.0481
 1792SOL    HW3 7167   0.977   0.424   3.103  0.8630 -1.6782 -0.2118
 1792SOL    MW4 7168   0.907   0.399   3.148  0.1837  0.4205 -0.0317
 1793SOL     OW 7169   1.125   0.495   3.052 -0.1139  0.0473 -0.4781
 1793SOL    HW2 7170   1.196   0.443   3.090 -0.5463  0.0612  0.3739
 1793SOL    HW3 7171   1.144   0.498   2.958 -0.0173 -1.5415 -0.5227
 1793SOL    MW4 7172   1.137   0.489   3.045 -0.1582 -0.1605 -0.3716
 1794SOL     OW 7173   1.119   0.735   3.177  0.0179 -0.0789  0.1156
 1794SOL    HW2 7174   1.117   0.723   3.272  0.9392  0.1126  0.1617
 1794SOL    HW3 7175   1.119   0.646   3.143 -2.1854 -0.1523  0.2380
 1794SOL    MW4 7176   1.119   0.721   3.185 -0.1513 -0.0633  0.1378
 1795SOL     OW 7177   0.914   0.864   3.060  0.1356 -0.1595  0.1482
 1795SOL    HW2 7178   0.979   0.815   3.111 -0.9016 -0.7770  0.8928
 1795SOL    HW3 7179   0.830   0.838   3.098 -0.5071  1.0923 -0.4190
 1795SOL    MW4 7180   0.912   0.854   3.072 -0.0861 -0.0758  0.1716
 1796SOL     OW 7181   0.881   1.138   3.133 -0.2589  0.2438 -0.2699
 1796SOL    HW2 7182   0.956   1.175   3.087  0.6355  0.5295  1.3925
 1796SOL    HW3 7183   0.886   1.044   3.115 -0.1490  0.4041 -1.0830
 1796SOL    MW4 7184   0.892   1.131   3.125 -0.1264  0.3027 -0.1579
 1797SOL     OW 7185   1.088   1.282   3.018  0.1198 -0.1000  0.1378
 1797SOL    HW2 7186   1.160   1.230   3.054  0.2411  0.6276  0.9431
 1797SOL    HW3 7187   1.078   1.249   2.928  0.5553 -1.1378  0.4605
 1797SOL    MW4 7188   1.096   1.271   3.011  0.1933 -0.1409  0.2866
 1798SOL     OW 7189   1.098   1.503   3.168  0.2754 -0.5905 -0.0269
 1798SOL    HW2 7190   1.173   1.549   3.133 -0.3230  1.0810  0.8224
 1798SOL    HW3 7191   1.092   1.423   3.117  2.3480 -0.5198 -0.3969
 1798SOL    MW4 7192   1.107   1.498   3.157  0.4699 -0.3606  0.0364
 1799SOL     OW 7193   0.858   1.648   3.062 -0.0469  0.0383 -0.6727
 1799SOL    HW2 7194   0.929   1.599   3.104 -0.3322  0.1567 -0.0395
 1799SOL    HW3 7195   0.783   1.588   3.066 -0.3989  0.5308  0.1113
 1799SOL    MW4 7196   0.857   1.633   3.068 -0.1310  0.1189 -0.4857
 1800SOL     OW 7197   0.851   1.915   3.164  0.2085 -0.1085 -0.0190
 1800SOL    HW2 7198   0.858   1.915   3.259 -1.5588  0.0090  0.1321
 1800SOL    HW3 7199   0.840   1.823   3.140  1.8750 -0.2591 -0.2172
 1800SOL    MW4 7200   0.850   1.903   3.173  0.1952 -0.1128 -0.0252
 1801SOL     OW 7201   1.089   2.036   3.078 -0.1524  0.3665  0.2153
 1801SOL    HW2 7202   1.014   1.981   3.100  1.1664 -2.0551 -1.0283
 1801SOL    HW3 7203   1.091   2.036   2.982  0.8180  1.2927  0.2226
 1801SOL    MW4 7204   1.080   2.029   3.068  0.1496  0.1692  0.0522
 1802SOL     OW 7205   1.200   2.287   3.144 -0.5134  0.2345 -0.0890
 1802SOL    HW2 7206   1.113   2.325   3.144 -0.8781 -0.5440 -1.6358
 1802SOL    HW3 7207   1.186   2.194   3.122  0.8404  0.5489 -2.5403
 1802SOL    MW4 7208   1.187   2.279   3.141 -0.3829  0.1733 -0.6165
 1803SOL     OW 7209   0.939   2.389   3.080  0.1097  0.4303 -0.1451
 1803SOL    HW2 7210   0.854   2.367   3.120 -0.0893  1.2803 -0.0952
 1803SOL    HW3 7211   0.918   2.406   2.988  0.3946 -0.3889 -0.3701
 1803SOL    MW4 7212   0.925   2.388   3.073  0.1211  0.4343 -0.1682
 1804SOL     OW 7213   0.930   2.673   3.135  0.0095 -0.1445  0.1777
 1804SOL    HW2 7214   0.904   2.679   3.227  0.4212 -0.2062  0.2987
 1804SOL    HW3 7215   0.947   2.580   3.121  2.7341  0.2331  0.8135
 1804SOL    MW4 7216   0.928   2.662   3.145  0.4233 -0.1028  0.2776
 1805SOL     OW 7217   1.126   2.834   3.001 -0.2799  0.5024  0.1307
 1805SOL    HW2 7218   1.127   2.920   3.043  0.2427  1.4020 -1.6594
 1805SOL    HW3 7219   1.051   2.788   3.041  0.4610  1.1304  2.3284
 1805SOL    MW4 7220   1.116   2.839   3.012 -0.1132  0.7039  0.1844
 1806SOL     OW 7221   1.152   3.076   3.135  0.5102 -0.0812 -0.2370
 1806SOL    HW2 7222   1.232   3.123   3.110  0.7711  0.8593  2.3131
 1806SOL    HW3 7223   1.082   3.139   3.120  0.6806  0.5292  1.5096
 1806SOL    MW4 7224   1.154   3.090   3.129  0.5671  0.1234  0.3299
 1807SOL     OW 7225   0.926   3.252   3.074  0.2183 -0.3227  0.5604
 1807SOL    HW2 7226   0.849   3.206   3.107  0.5238 -0.2064  1.4771
 1807SOL    HW3 7227   0.922   3.243   2.979 -1.0778 -0.0553  0.5880
 1807SOL    MW4 7228   0.916   3.245   3.066  0.0876 -0.2721  0.6850
 1808SOL     OW 7229   0.918   3.515   3.167  0.1945 -0.0548  0.4333
 1808SOL    HW2 7230   0.995   3.553   3.125 -0.4162 -0.0744 -0.7180
 1808SOL    HW3 7231   0.915   3.425   3.134  0.9409 -0.7536  2.2035
 1808SOL    MW4 7232   0.928   3.508   3.157  0.2124 -0.1496  0.5150
 1809SOL     OW 7233   1.141   3.637   3.022  0.0314  0.2044 -0.2606
 1809SOL    HW2 7234   1.215   3.583   3.048 -0.4532 -0.3839 -0.0815
 1809SOL    HW3 7235   1.149   3.716   3.076  0.3310 -0.0111  0.0143
 1809SOL    MW4 7236   1.152   3.640   3.033  0.0070  0.0984 -0.2007
 1810SOL     OW 7237   1.141   3.873   3.168  0.1713 -0.3719  0.5142
 1810SOL    HW2 7238   1.134   3.881   3.263  0.5609 -1.7763  0.6765
 1810SOL    HW3 7239   1.057   3.903   3.135 -0.2848 -0.7178  1.3571
 1810SOL    MW4 7240   1.129   3.878   3.176  0.1626 -0.6028  0.6468
 1811SOL     OW 7241   0.895   3.978   3.064  0.1115 -0.7646 -0.1856
 1811SOL    HW2 7242   0.812   3.936   3.085  0.4895 -1.6747 -0.4757
 1811SOL    HW3 7243   0.897   3.983   2.969 -0.8194  1.7637 -0.1128
 1811SOL    MW4 7244   0.885   3.973   3.055  0.0386 -0.5511 -0.2143
 1812SOL     OW 7245   0.916   4.239   3.174 -0.5485  0.2913 -0.0009
 1812SOL    HW2 7246   0.906   4.155   3.129 -0.8841 -0.7858  1.9952
 1812SOL    HW3 7247   0.835   4.286   3.154 -0.1227  0.3896 -1.5861
 1812SOL    MW4 7248   0.904   4.234   3.165 -0.5366  0.1622  0.0533
 1813SOL     OW 7249   1.105   4.388   3.029 -0.0293 -0.3413 -0.0843
 1813SOL    HW2 7250   1.035   4.340   3.074 -0.0968 -0.8652 -0.7337
 1813SOL    HW3 7251   1.099   4.477   3.063 -1.6147 -0.1522 -0.8117
 1813SOL    MW4 7252   1.095   4.393   3.039 -0.2474 -0.3854 -0.2660
 1814SOL     OW 7253   1.612   4.636   3.135  0.2439  0.0570 -0.0461
 1814SOL    HW2 7254   1.602   4.654   3.228 -1.0809  2.1491 -0.5577
 1814SOL    HW3 7255   1.534   4.674   3.095 -0.0996 -2.4323 -1.8087
 1814SOL    MW4 7256   1.600   4.643   3.142  0.0238  0.0046 -0.3461
 1815SOL     OW 7257   1.383   0.106   3.049 -0.0776  0.3209  0.0772
 1815SOL    HW2 7258   1.361   0.196   3.074  0.6851  0.9646 -1.4574
 1815SOL    HW3 7259   1.374   0.106   2.953  0.9884 -0.9360 -0.0277
 1815SOL    MW4 7260   1.379   0.118   3.039  0.1637  0.2400 -0.1391
 1816SOL     OW 7261   1.329   0.353   3.164 -0.1949  0.0895  0.1170
 1816SOL    HW2 7262   1.323   0.371   3.258  0.3398 -1.2101  0.4160
 1816SOL    HW3 7263   1.414   0.388   3.138 -0.5383  0.8624  0.0073
 1816SOL    MW4 7264   1.339   0.360   3.173 -0.1697  0.0200  0.1420
 1817SOL     OW 7265   1.562   0.453   3.079  0.0722  0.7133  0.1920
 1817SOL    HW2 7266   1.567   0.544   3.107 -2.1884  0.7051  0.7217
 1817SOL    HW3 7267   1.555   0.458   2.983 -0.7791  1.1410  0.2719
 1817SOL    MW4 7268   1.562   0.466   3.070 -0.3384  0.7686  0.2724
 1818SOL     OW 7269   1.582   0.713   3.172  0.1909 -0.0506 -0.0529
 1818SOL    HW2 7270   1.582   0.733   3.265  0.0404  1.6093 -0.3913
 1818SOL    HW3 7271   1.517   0.772   3.134  1.7220  0.7548 -1.4980
 1818SOL    MW4 7272   1.573   0.723   3.179  0.3731  0.2746 -0.2882
 1819SOL     OW 7273   1.349   0.880   3.101 -0.2846 -0.2865 -0.2507
 1819SOL    HW2 7274   1.326   0.968   3.129  1.4686  0.6111 -1.5709
 1819SOL    HW3 7275   1.274   0.826   3.127 -0.9579  1.4151  1.3829
 1819SOL    MW4 7276   1.336   0.884   3.108 -0.1421  0.0564 -0.2094
 1820SOL     OW 7277   1.296   1.159   3.151 -0.1717 -0.1073  0.1784
 1820SOL    HW2 7278   1.304   1.142   3.245 -1.3375  0.8391  0.4605
 1820SOL    HW3 7279   1.386   1.174   3.121  0.0784  0.8115  1.3839
 1820SOL    MW4 7280   1.309   1.159   3.159 -0.2925  0.1388  0.3747
 1821SOL     OW 7281   1.551   1.238   3.075  0.6552 -0.1022  0.1938
 1821SOL    HW2 7282   1.629   1.195   3.109  0.8687  0.6801  0.7123
 1821SOL    HW3 7283   1.560   1.329   3.104  0.0718  0.2218 -0.6425
 1821SOL    MW4 7284   1.562   1.244   3.083  0.6064  0.0438  0.1519
 1822SOL     OW 7285   1.583   1.521   3.171  0.3812  0.2098 -0.6872
 1822SOL    HW2 7286   1.652   1.571   3.128  0.6162  1.1800  0.7815
 1822SOL    HW3 7287   1.502   1.567   3.150  0.3714  0.0477 -1.0040
 1822SOL    MW4 7288   1.582   1.534   3.163  0.4109  0.3164 -0.5352
 1823SOL     OW 7289   1.337   1.642   3.088  0.0809 -0.1255 -0.1758
 1823SOL    HW2 7290   1.346   1.732   3.117  0.5329  0.0375 -0.8134
 1823SOL    HW3 7291   1.327   1.648   2.993  1.2718 -0.8096 -0.3640
 1823SOL    MW4 7292   1.337   1.654   3.079  0.2977 -0.1942 -0.2847
 1824SOL     OW 7293   1.355   1.920   3.128  0.0442 -0.9463 -0.2196
 1824SOL    HW2 7294   1.364   1.921   3.223 -0.5038 -1.2986 -0.1636
 1824SOL    HW3 7295   1.266   1.952   3.111  0.8787  1.2556 -0.7217
 1824SOL    MW4 7296   1.344   1.925   3.138  0.0820 -0.7023 -0.2785
 1825SOL     OW 7297   1.559   2.059   3.010  0.2479 -0.0867 -0.5161
 1825SOL    HW2 7298   1.492   1.999   3.043 -0.2053  0.6708 -0.0611
 1825SOL    HW3 7299   1.568   2.035   2.917  0.4676 -1.2241 -0.2087
 1825SOL    MW4 7300   1.551   2.048   3.002  0.2171 -0.1368 -0.4156
 1826SOL     OW 7301   1.607   2.297   3.139 -0.7917  0.4696  0.0209
 1826SOL    HW2 7302   1.538   2.361   3.120 -0.0058  0.6042 -2.6040
 1826SOL    HW3 7303   1.592   2.226   3.076  0.5557 -0.2088  0.4345
 1826SOL    MW4 7304   1.596   2.296   3.128 -0.5103  0.3978 -0.2709
 1827SOL     OW 7305   1.382   2.462   3.051 -0.2936 -0.4963  0.3406
 1827SOL    HW2 7306   1.315   2.395   3.065  0.9590 -1.8999 -0.2844
 1827SOL    HW3 7307   1.398   2.459   2.956 -0.7997  1.2533  0.1822
 1827SOL    MW4 7308   1.375   2.453   3.040 -0.1951 -0.4507  0.2373
 1828SOL     OW 7309   1.348   2.726   3.134  0.3671  0.0843 -0.2499
 1828SOL    HW2 7310   1.366   2.635   3.109 -0.1300 -0.8332  2.5186
 1828SOL    HW3 7311   1.261   2.743   3.097  0.7088 -0.3388 -1.2917
 1828SOL    MW4 7312   1.339   2.716   3.126  0.3466 -0.0926 -0.0221
 1829SOL     OW 7313   1.581   2.844   3.040 -0.2175 -0.0294  0.4478
 1829SOL    HW2 7314   1.653   2.790   3.071  0.7395  1.1956  0.4085
 1829SOL    HW3 7315   1.503   2.806   3.079  0.6369 -0.3382  1.8611
 1829SOL    MW4 7316   1.580   2.832   3.049  0.0215  0.0915  0.6291
 1830SOL     OW 7317   1.610   3.099   3.158 -0.2982 -0.2369  0.4093
 1830SOL    HW2 7318   1.591   3.107   3.251 -0.1978 -0.5607  0.4576
 1830SOL    HW3 7319   1.589   3.008   3.136 -0.1654 -0.2085  0.1525
 1830SOL    MW4 7320   1.605   3.088   3.167 -0.2674 -0.2759  0.3818
 1831SOL     OW 7321   1.389   3.241   3.064  0.0096 -0.1663 -0.3656
 1831SOL    HW2 7322   1.468   3.195   3.092  0.0644 -0.1236 -0.4495
 1831SOL    HW3 7323   1.387   3.229   2.969 -0.9205 -1.5203 -0.2041
 1831SOL    MW4 7324   1.399   3.233   3.055 -0.1059 -0.3393 -0.3553
 1832SOL     OW 7325   1.349   3.494   3.140  0.1020  0.0636 -0.0880
 1832SOL    HW2 7326   1.352   3.500   3.235  1.9838 -0.1709 -0.1222
 1832SOL    HW3 7327   1.354   3.400   3.121 -0.3168  0.1058 -0.4182
 1832SOL    MW4 7328   1.350   3.483   3.150  0.2950  0.0382 -0.1361
 1833SOL     OW 7329   1.602   3.588   3.040  0.3898  0.1279 -0.1631
 1833SOL    HW2 7330   1.520   3.553   3.075  0.2873 -0.2867 -0.8204
 1833SOL    HW3 7331   1.586   3.598   2.946  0.4721  1.7755 -0.0305
 1833SOL    MW4 7332   1.589   3.585   3.032  0.3871  0.2906 -0.2323
 1834SOL     OW 7333   1.576   3.857   3.134  0.2777  0.2154 -0.0475
 1834SOL    HW2 7334   1.655   3.897   3.098  0.2903 -1.0061 -1.4083
 1834SOL    HW3 7335   1.579   3.766   3.104 -1.8408  0.2412 -0.4199
 1834SOL    MW4 7336   1.587   3.850   3.125 -0.0002  0.0577 -0.2762
 1835SOL     OW 7337   1.339   4.013   3.040 -0.1318  0.1599  0.1215
 1835SOL    HW2 7338   1.418   3.977   3.082  0.1926  1.2840  0.4890
 1835SOL    HW3 7339   1.267   3.963   3.077  0.3932 -0.7646 -0.0875
 1835SOL    MW4 7340   1.340   4.001   3.051 -0.0198  0.1863  0.1424
 1836SOL     OW 7341   1.327   4.276   3.146 -0.1405 -0.1350  0.1142
 1836SOL    HW2 7342   1.315   4.188   3.109 -0.6767 -0.2017  0.4447
 1836SOL    HW3 7343   1.260   4.329   3.104 -0.2601 -0.0409  0.4197
 1836SOL    MW4 7344   1.316   4.271   3.136 -0.2270 -0.1314  0.1981
 1837SOL     OW 7345   1.583   4.353   3.053 -0.0242  0.0699 -0.3229
 1837SOL    HW2 7346   1.495   4.322   3.074  0.0457  0.1866  0.1621
 1837SOL    HW3 7347   1.587   4.441   3.092  0.7639 -0.4751  0.8505
 1837SOL    MW4 7348   1.572   4.361   3.061  0.0890  0.0134 -0.1041
 1838SOL     OW 7349   2.086   4.613   3.094  0.0937  0.2425 -0.6224
 1838SOL    HW2 7350   2.101   4.605   3.188  0.2982  1.2174 -0.5638
 1838SOL    HW3 7351   1.999   4.651   3.086 -0.5066 -1.1436 -0.8661
 1838SOL    MW4 7352   2.077   4.617   3.105  0.0415  0.1882 -0.6468
 1839SOL     OW 7353   1.844   0.081   3.087  0.2275  0.2141 -0.4206
 1839SOL    HW2 7354   1.769   0.028   3.110  0.5422  0.2018  0.5764
 1839SOL    HW3 7355   1.830   0.104   2.995 -0.5994 -0.4259 -0.4547
 1839SOL    MW4 7356   1.833   0.077   3.078  0.1599  0.1281 -0.2935
 1840SOL     OW 7357   1.808   0.342   3.150 -0.0386 -0.0262  0.3184
 1840SOL    HW2 7358   1.804   0.247   3.143 -1.8630 -0.0577  1.3871
 1840SOL    HW3 7359   1.728   0.372   3.106  0.6836  1.0241 -0.2812
 1840SOL    MW4 7360   1.797   0.333   3.144 -0.1840  0.1082  0.3803
 1841SOL     OW 7361   2.054   0.474   3.051 -0.0726  0.2463  0.1074
 1841SOL    HW2 7362   1.980   0.432   3.094 -1.0495  0.7715 -1.0486
 1841SOL    HW3 7363   2.032   0.474   2.958  1.4070  0.3569 -0.2582
 1841SOL    MW4 7364   2.041   0.469   3.044 -0.0063  0.3302 -0.0933
 1842SOL     OW 7365   2.066   0.755   3.108 -0.1698  0.3811  0.1301
 1842SOL    HW2 7366   1.987   0.799   3.078  0.2308  0.9690 -0.0773
 1842SOL    HW3 7367   2.060   0.666   3.071 -0.5161  0.5628 -0.2497
 1842SOL    MW4 7368   2.055   0.749   3.099 -0.1626  0.4826  0.0526
 1843SOL     OW 7369   1.800   0.870   3.079 -0.1379 -0.0460  0.0853
 1843SOL    HW2 7370   1.727   0.824   3.119 -1.1380  1.1178 -0.3392
 1843SOL    HW3 7371   1.789   0.855   2.985  0.0068  0.3674  0.0011
 1843SOL    MW4 7372   1.789   0.862   3.072 -0.2507  0.1621  0.0182
 1844SOL     OW 7373   1.817   1.145   3.161  0.1748  0.7041 -0.1424
 1844SOL    HW2 7374   1.824   1.138   3.256 -2.4013  0.1832  0.0404
 1844SOL    HW3 7375   1.819   1.055   3.130  0.0303  0.8216 -0.4906
 1844SOL    MW4 7376   1.818   1.132   3.170 -0.1841  0.6509 -0.1642
 1845SOL     OW 7377   2.036   1.283   3.067  0.6688 -0.0220  0.1220
 1845SOL    HW2 7378   2.116   1.240   3.096  0.6556  0.3480  0.7158
 1845SOL    HW3 7379   1.966   1.240   3.116  0.3661 -1.2155 -1.3354
 1845SOL    MW4 7380   2.038   1.272   3.078  0.6271 -0.1307  0.0081
 1846SOL     OW 7381   2.021   1.544   3.152 -0.6085  0.5823  0.4674
 1846SOL    HW2 7382   2.031   1.546   3.247 -1.0616  0.8363  0.5119
 1846SOL    HW3 7383   2.016   1.451   3.130  0.7451  0.4814  0.5555
 1846SOL    MW4 7384   2.021   1.532   3.162 -0.4897  0.6025  0.4849
 1847SOL     OW 7385   1.786   1.660   3.051  0.4790 -0.1301 -0.1002
 1847SOL    HW2 7386   1.776   1.753   3.069  0.4940 -0.3108  0.8893
 1847SOL    HW3 7387   1.877   1.641   3.074  0.1798 -0.6048  0.7088
 1847SOL    MW4 7388   1.797   1.670   3.056  0.4415 -0.2165  0.1371
 1848SOL     OW 7389   1.792   1.931   3.095  0.2265 -0.1118 -0.0271
 1848SOL    HW2 7390   1.860   1.996   3.080  0.3000 -0.1765  0.0250
 1848SOL    HW3 7391   1.710   1.977   3.077  0.2972 -0.0989 -0.3097
 1848SOL    MW4 7392   1.790   1.946   3.091  0.2455 -0.1186 -0.0575
 1849SOL     OW 7393   2.000   2.066   3.026 -0.1762 -0.8650 -1.0121
 1849SOL    HW2 7394   2.065   2.020   3.078  1.1856  0.1963 -1.7405
 1849SOL    HW3 7395   1.999   2.155   3.062  0.1201 -0.3721 -2.1921
 1849SOL    MW4 7396   2.008   2.072   3.038  0.0426 -0.6599 -1.2639
 1850SOL     OW 7397   2.032   2.328   3.133 -0.1044 -0.1152  0.0222
 1850SOL    HW2 7398   2.108   2.370   3.093 -0.0753 -0.9281 -0.8078
 1850SOL    HW3 7399   1.957   2.363   3.084 -0.1126 -0.6725 -0.3805
 1850SOL    MW4 7400   2.032   2.338   3.121 -0.1016 -0.2960 -0.1404
 1851SOL     OW 7401   1.814   2.418   3.006  0.5286 -0.2625 -0.1764
 1851SOL    HW2 7402   1.811   2.503   3.049  0.9100 -0.2438 -0.1852
 1851SOL    HW3 7403   1.742   2.368   3.047  1.0456 -0.3310  0.6701
 1851SOL    MW4 7404   1.804   2.423   3.017  0.6471 -0.2691 -0.0659
 1852SOL     OW 7405   1.776   2.672   3.123 -0.0650  0.2196  0.7856
 1852SOL    HW2 7406   1.783   2.656   3.217  0.5194 -1.9671  0.3948
 1852SOL    HW3 7407   1.856   2.718   3.101 -0.2539  0.8404  1.3792
 1852SOL    MW4 7408   1.787   2.676   3.133 -0.0128  0.0130  0.8124
 1853SOL     OW 7409   2.003   2.805   3.043 -0.1372  0.3195 -0.2135
 1853SOL    HW2 7410   1.990   2.893   3.078 -1.1702  0.2495 -0.4062
 1853SOL    HW3 7411   2.003   2.817   2.948  0.2252  0.1788 -0.2317
 1853SOL    MW4 7412   2.001   2.818   3.035 -0.2257  0.2917 -0.2413
 1854SOL     OW 7413   2.021   3.061   3.154  0.4487 -0.3623  0.2117
 1854SOL    HW2 7414   2.015   3.084   3.246  1.3410  0.5012  0.0626
 1854SOL    HW3 7415   1.951   3.110   3.112  0.0978 -0.6894  0.4117
 1854SOL    MW4 7416   2.011   3.070   3.160  0.5201 -0.2915  0.2184
 1855SOL     OW 7417   1.831   3.217   3.038 -0.0898  0.2876 -0.3384
 1855SOL    HW2 7418   1.747   3.189   3.075  1.0446 -0.3486  1.8317
 1855SOL    HW3 7419   1.819   3.209   2.943 -2.2325 -0.4711 -0.0394
 1855SOL    MW4 7420   1.818   3.213   3.030 -0.2228  0.1036 -0.0126
 1856SOL     OW 7421   1.819   3.470   3.140  0.6693 -0.1451 -0.7014
 1856SOL    HW2 7422   1.809   3.385   3.098  0.9610 -0.4707 -0.1183
 1856SOL    HW3 7423   1.740   3.519   3.114  1.1937 -0.0815 -2.2031
 1856SOL    MW4 7424   1.807   3.465   3.131  0.7769 -0.1797 -0.8226
 1857SOL     OW 7425   2.052   3.603   2.990 -0.0174 -0.0003  0.4883
 1857SOL    HW2 7426   2.040   3.697   3.003  0.8352  0.1951 -0.1223
 1857SOL    HW3 7427   1.970   3.564   3.022 -0.3140  0.9300  0.8874
 1857SOL    MW4 7428   2.039   3.610   2.996  0.0560  0.1482  0.4604
 1858SOL     OW 7429   2.048   3.871   3.051  0.1825 -0.6160  0.2823
 1858SOL    HW2 7430   2.041   3.883   3.146 -0.9798 -0.5087  0.1899
 1858SOL    HW3 7431   1.962   3.896   3.018  0.6905 -0.3374 -0.8348
 1858SOL    MW4 7432   2.036   3.876   3.059  0.0962 -0.5651  0.1227
 1859SOL     OW 7433   1.791   3.978   3.027 -0.0641 -0.3297 -0.0739
 1859SOL    HW2 7434   1.811   4.066   3.060 -0.7321  0.0107 -0.5535
 1859SOL    HW3 7435   1.788   3.989   2.932 -0.8369 -0.7298 -0.0970
 1859SOL    MW4 7436   1.793   3.991   3.019 -0.2542 -0.3376 -0.1402
 1860SOL     OW 7437   1.818   4.223   3.131  0.3876 -0.2481  0.4820
 1860SOL    HW2 7438   1.882   4.277   3.085  0.8977 -0.0135  1.4377
 1860SOL    HW3 7439   1.735   4.267   3.117  0.6937  0.3899  0.6445
 1860SOL    MW4 7440   1.816   4.236   3.123  0.4953 -0.1330  0.6295
 1861SOL     OW 7441   1.988   4.387   3.006  0.6819 -0.1374 -0.1457
 1861SOL    HW2 7442   2.005   4.472   3.045 -0.2373 -0.4816  1.0114
 1861SOL    HW3 7443   2.020   4.395   2.916  2.6142  0.7199  0.6018
 1861SOL    MW4 7444   1.995   4.399   2.999  0.8156 -0.0697  0.1056
 1862SOL     OW 7445   2.499   4.642   3.155  0.8124  0.1021 -0.0170
 1862SOL    HW2 7446   2.491   4.556   3.114  0.1181 -0.1887  0.7013
 1862SOL    HW3 7447   2.420   4.688   3.128  0.2192 -0.1874  1.1918
 1862SOL    MW4 7448   2.488   4.636   3.146  0.6425  0.0256  0.2373
 1863SOL     OW 7449   2.283   0.117   3.044 -0.1621  0.2294  0.3222
 1863SOL    HW2 7450   2.286   0.197   3.096  0.3963  0.7324 -0.4741
 1863SOL    HW3 7451   2.202   0.074   3.071 -0.0939  0.6906  1.2915
 1863SOL    MW4 7452   2.273   0.122   3.055 -0.0794  0.3566  0.3450
 1864SOL     OW 7453   2.288   0.367   3.160 -0.0624  0.0604 -0.1590
 1864SOL    HW2 7454   2.275   0.359   3.255  0.8900  0.5125  0.0122
 1864SOL    HW3 7455   2.206   0.405   3.128 -0.6344 -0.6758  0.3922
 1864SOL    MW4 7456   2.275   0.371   3.168 -0.0122  0.0229 -0.0637
 1865SOL     OW 7457   2.489   0.521   3.026  0.1401  0.5330 -0.2620
 1865SOL    HW2 7458   2.414   0.477   3.067  0.2921  1.1789  0.7040
 1865SOL    HW3 7459   2.470   0.516   2.932 -0.7221 -0.0173 -0.0668
 1865SOL    MW4 7460   2.476   0.514   3.019  0.0464  0.5456 -0.1088
 1866SOL     OW 7461   2.475   0.782   3.113 -0.4529 -0.3882  0.1073
 1866SOL    HW2 7462   2.563   0.815   3.095 -0.3607 -0.4467  0.4399
 1866SOL    HW3 7463   2.473   0.695   3.074 -0.9293  0.2834 -1.3896
 1866SOL    MW4 7464   2.487   0.775   3.106 -0.5036 -0.3073 -0.0463
 1867SOL     OW 7465   2.266   0.934   3.027  0.1616  0.1843 -0.0801
 1867SOL    HW2 7466   2.343   0.896   3.070  0.1378  2.2457  1.9038
 1867SOL    HW3 7467   2.194   0.875   3.050  0.4186  0.4931  1.6096
 1867SOL    MW4 7468   2.267   0.922   3.036  0.1924  0.4970  0.4046
 1868SOL     OW 7469   2.278   1.178   3.174 -0.4232 -0.1652 -0.1642
 1868SOL    HW2 7470   2.289   1.168   3.268 -1.6191  0.2023  0.0227
 1868SOL    HW3 7471   2.272   1.089   3.140  0.1999 -0.3013  0.0764
 1868SOL    MW4 7472   2.279   1.165   3.182 -0.4988 -0.1347 -0.1078
 1869SOL     OW 7473   2.519   1.279   3.032 -0.5102 -0.0676 -0.0562
 1869SOL    HW2 7474   2.433   1.247   3.062 -1.1336 -0.2545 -1.9962
 1869SOL    HW3 7475   2.514   1.275   2.937  1.3937  0.6614 -0.1985
 1869SOL    MW4 7476   2.507   1.275   3.023 -0.3413  0.0040 -0.3309
 1870SOL     OW 7477   2.462   1.535   3.154  0.3369  0.2287  0.4639
 1870SOL    HW2 7478   2.385   1.584   3.126  0.6221  0.7600  0.6093
 1870SOL    HW3 7479   2.460   1.454   3.102 -0.4381  0.1453  0.6295
 1870SOL    MW4 7480   2.452   1.531   3.143  0.2723  0.2878  0.5049
 1871SOL     OW 7481   2.230   1.682   3.063  0.1061 -0.5403 -0.1929
 1871SOL    HW2 7482   2.152   1.639   3.099  1.0619 -0.6099  1.9129
 1871SOL    HW3 7483   2.216   1.684   2.969 -2.5556 -0.3140  0.1797
 1871SOL    MW4 7484   2.218   1.677   3.055 -0.1190 -0.5196  0.1341
 1872SOL     OW 7485   2.192   1.938   3.179  0.4565  0.3166  0.1988
 1872SOL    HW2 7486   2.274   1.974   3.145 -0.3121  0.4717 -1.5843
 1872SOL    HW3 7487   2.188   1.850   3.140 -0.2453  0.3378  0.2246
 1872SOL    MW4 7488   2.202   1.931   3.169  0.2625  0.3398 -0.0331
 1873SOL     OW 7489   2.440   2.042   3.066 -0.1706 -0.0658 -0.4255
 1873SOL    HW2 7490   2.522   1.999   3.093 -0.1463 -0.3772 -0.9990
 1873SOL    HW3 7491   2.441   2.038   2.971 -0.3889  0.8134 -0.4687
 1873SOL    MW4 7492   2.451   2.036   3.057 -0.1962  0.0091 -0.5068
 1874SOL     OW 7493   2.460   2.297   3.163 -0.5926  0.0463  0.0321
 1874SOL    HW2 7494   2.454   2.282   3.257  2.3739 -1.5739  0.0155
 1874SOL    HW3 7495   2.438   2.213   3.123  0.2485  0.1151 -0.6118
 1874SOL    MW4 7496   2.457   2.284   3.170 -0.0902 -0.1584 -0.0551
 1875SOL     OW 7497   2.270   2.469   3.032  0.2959  0.2794 -0.4773
 1875SOL    HW2 7498   2.291   2.553   3.072 -0.8735  1.0075 -1.3407
 1875SOL    HW3 7499   2.335   2.408   3.067  0.1304  1.1838  1.4545
 1875SOL    MW4 7500   2.281   2.472   3.042  0.1198  0.4947 -0.3363
 1876SOL     OW 7501   2.246   2.712   3.176  0.3431  0.1535 -0.5074
 1876SOL    HW2 7502   2.314   2.764   3.135  1.1731  0.0103  0.6609
 1876SOL    HW3 7503   2.164   2.746   3.140  0.9270  1.6473 -0.4398
 1876SOL    MW4 7504   2.244   2.723   3.166  0.5297  0.3317 -0.3443
 1877SOL     OW 7505   2.465   2.827   3.009  0.2927 -0.0262  0.3648
 1877SOL    HW2 7506   2.489   2.918   3.026  0.6830 -0.4579  2.2741
 1877SOL    HW3 7507   2.438   2.825   2.917  0.5603  1.9491  0.2380
 1877SOL    MW4 7508   2.464   2.838   2.999  0.3795  0.1775  0.5999
 1878SOL     OW 7509   2.499   3.070   3.131 -0.3936  0.0940  0.2907
 1878SOL    HW2 7510   2.562   3.141   3.117 -0.2176 -0.1493 -0.1860
 1878SOL    HW3 7511   2.416   3.104   3.097  0.0241 -0.4784 -1.3647
 1878SOL    MW4 7512   2.496   3.084   3.124 -0.3153 -0.0136  0.0094
 1879SOL     OW 7513   2.252   3.197   3.071 -0.2393  0.5160 -0.0447
 1879SOL    HW2 7514   2.253   3.288   3.101  1.1547  0.2571  0.7911
 1879SOL    HW3 7515   2.175   3.158   3.113 -0.6080  1.2169 -0.0767
 1879SOL    MW4 7516   2.242   3.203   3.081 -0.1040  0.5743  0.0613
 1880SOL     OW 7517   2.247   3.469   3.134 -0.2801  0.1150 -0.1795
 1880SOL    HW2 7518   2.319   3.530   3.117  0.3135 -0.2255  1.0422
 1880SOL    HW3 7519   2.172   3.506   3.087  0.4729  0.9391 -0.7455
 1880SOL    MW4 7520   2.247   3.482   3.126 -0.1024  0.1788 -0.0930
 1881SOL     OW 7521   2.448   3.652   3.069  0.0141  0.4218  0.0647
 1881SOL    HW2 7522   2.526   3.617   3.111 -1.0880 -0.3294  1.5225
 1881SOL    HW3 7523   2.451   3.746   3.088  1.2831  0.6318 -1.0943
 1881SOL    MW4 7524   2.459   3.660   3.077  0.0361  0.3504  0.1041
 1882SOL     OW 7525   2.451   3.919   3.137 -0.5075 -0.8807  0.2993
 1882SOL    HW2 7526   2.442   3.915   3.232 -1.1249 -0.0078  0.2812
 1882SOL    HW3 7527   2.543   3.940   3.122 -0.7663  0.5646  0.7428
 1882SOL    MW4 7528   2.462   3.921   3.147 -0.6231 -0.5749  0.3554
 1883SOL     OW 7529   2.254   4.057   3.001 -0.4815  0.2294  0.3067
 1883SOL    HW2 7530   2.330   4.016   3.042 -0.5050 -1.0396 -0.8722
 1883SOL    HW3 7531   2.178   4.009   3.036 -0.8178  1.9406  2.0085
 1883SOL    MW4 7532   2.254   4.045   3.011 -0.5290  0.2877  0.3757
 1884SOL     OW 7533   2.219   4.293   3.127  0.1473 -0.3047 -0.2244
 1884SOL    HW2 7534   2.215   4.222   3.062 -1.6977  0.6159 -1.1742
 1884SOL    HW3 7535   2.160   4.360   3.092  1.1158  1.2906  1.1494
 1884SOL    MW4 7536   2.211   4.292   3.114  0.0316  0.0273 -0.1684
 1885SOL     OW 7537   2.471   4.403   3.066  0.3215 -0.4681  0.2392
 1885SOL    HW2 7538   2.383   4.372   3.089 -0.2382  0.5758 -0.4237
 1885SOL    HW3 7539   2.475   4.394   2.971  0.0905  1.5671  0.0049
 1885SOL    MW4 7540   2.460   4.398   3.057  0.2172 -0.0619  0.1208
 1886SOL     OW 7541   2.918   0.016   3.148 -0.1100  0.1604 -0.0813
 1886SOL    HW2 7542   3.002   0.052   3.118 -0.1668 -0.4818 -1.0090
 1886SOL    HW3 7543   2.918  -0.074   3.116 -0.8807 -0.0350  0.4673
 1886SOL    MW4 7544   2.929   0.009   3.140 -0.2192  0.0499 -0.1313
 1887SOL     OW 7545   2.697   0.109   3.016  0.1972 -0.4235  0.1014
 1887SOL    HW2 7546   2.775   0.094   3.069 -0.8358 -2.5250  1.0800
 1887SOL    HW3 7547   2.631   0.050   3.052 -1.0117 -0.7717 -2.5272
 1887SOL    MW4 7548   2.699   0.099   3.027 -0.0986 -0.7467 -0.1163
 1888SOL     OW 7549   2.698   0.371   3.109  0.0140  0.3559 -0.0714
 1888SOL    HW2 7550   2.695   0.277   3.087 -0.3889  0.1362  0.8887
 1888SOL    HW3 7551   2.614   0.405   3.076  0.3499  0.4718 -0.8150
 1888SOL    MW4 7552   2.686   0.363   3.102  0.0052  0.3422 -0.0428
 1889SOL     OW 7553   2.947   0.461   3.045 -0.6993  0.1407 -0.1894
 1889SOL    HW2 7554   2.862   0.434   3.078  0.0376 -1.5064  0.4164
 1889SOL    HW3 7555   2.929   0.491   2.956 -1.8750 -0.4785 -0.1781
 1889SOL    MW4 7556   2.933   0.461   3.037 -0.7572 -0.1583 -0.1080
 1890SOL     OW 7557   2.906   0.720   3.109 -0.1361  0.0255  0.6577
 1890SOL    HW2 7558   2.895   0.726   3.203 -0.9630  0.3035  0.5543
 1890SOL    HW3 7559   2.923   0.627   3.092 -0.2788 -0.0717  1.0571
 1890SOL    MW4 7560   2.907   0.708   3.119 -0.2641  0.0494  0.6967
 1891SOL     OW 7561   2.712   0.892   3.042 -0.0116 -0.5475  0.5073
 1891SOL    HW2 7562   2.731   0.976   3.083 -1.8178 -1.8909  4.3583
 1891SOL    HW3 7563   2.787   0.836   3.064  0.2261 -0.5634 -0.3009
 1891SOL    MW4 7564   2.724   0.895   3.050 -0.2185 -0.7268  0.9087
 1892SOL     OW 7565   2.747   1.147   3.152  0.3031  0.4056 -0.1247
 1892SOL    HW2 7566   2.829   1.179   3.114  0.3031  1.1752  0.5040
 1892SOL    HW3 7567   2.681   1.210   3.124  0.1291  0.4217  0.3144
 1892SOL    MW4 7568   2.749   1.160   3.144  0.2802  0.5092  0.0162
 1893SOL     OW 7569   2.947   1.263   3.007 -0.0208  0.2033 -0.4008
 1893SOL    HW2 7570   3.011   1.213   3.057 -1.0119 -0.3088  0.3878
 1893SOL    HW3 7571   2.947   1.350   3.047 -1.6192 -0.5312  1.2485
 1893SOL    MW4 7572   2.955   1.268   3.019 -0.3624  0.0388 -0.0791
 1894SOL     OW 7573   2.914   1.509   3.134 -0.1986 -0.2009 -0.3268
 1894SOL    HW2 7574   2.921   1.511   3.230  0.2470  0.9937 -0.3785
 1894SOL    HW3 7575   2.995   1.549   3.103  0.5063 -2.2855 -1.2474
 1894SOL    MW4 7576   2.925   1.514   3.143 -0.0468 -0.3183 -0.4551
 1895SOL     OW 7577   2.693   1.643   3.017  0.4394  0.0917 -0.4772
 1895SOL    HW2 7578   2.768   1.600   3.058  0.0396 -0.3952 -0.2630
 1895SOL    HW3 7579   2.617   1.601   3.056  0.0506  0.8095 -0.4684
 1895SOL    MW4 7580   2.693   1.632   3.027  0.3353  0.1222 -0.4478
 1896SOL     OW 7581   2.667   1.906   3.122 -0.2013  0.0907  0.1347
 1896SOL    HW2 7582   2.736   1.953   3.076  0.5576 -0.4451  0.7322
 1896SOL    HW3 7583   2.667   1.819   3.081 -0.5194  0.0857  0.1435
 1896SOL    MW4 7584   2.676   1.900   3.110 -0.1432  0.0194  0.2147
 1897SOL     OW 7585   2.891   2.022   3.006 -0.0464 -0.3072  0.2842
 1897SOL    HW2 7586   2.914   2.106   3.045  0.8902 -0.9175  1.0751
 1897SOL    HW3 7587   2.902   2.036   2.911  0.9788  0.2162  0.4695
 1897SOL    MW4 7588   2.896   2.035   2.998  0.2125 -0.3187  0.4130
 1898SOL     OW 7589   2.901   2.295   3.129 -0.3995  0.2211 -0.0258
 1898SOL    HW2 7590   2.966   2.348   3.082 -0.0491  0.3963  0.6553
 1898SOL    HW3 7591   2.817   2.329   3.099 -0.1780  1.6148  0.8960
 1898SOL    MW4 7592   2.898   2.307   3.119 -0.3240  0.4281  0.1857
 1899SOL     OW 7593   2.665   2.438   3.040  0.0539  0.2269  0.3885
 1899SOL    HW2 7594   2.662   2.530   3.069  1.3164  0.3379  0.1849
 1899SOL    HW3 7595   2.592   2.397   3.086 -0.1647  1.2039  0.9467
 1899SOL    MW4 7596   2.655   2.445   3.050  0.1916  0.3704  0.4353
 1900SOL     OW 7597   2.681   2.709   3.095  0.2518 -0.0935  0.0066
 1900SOL    HW2 7598   2.667   2.726   3.188 -0.2068  1.5102 -0.3403
 1900SOL    HW3 7599   2.602   2.743   3.052  0.7785 -0.1417 -1.0272
 1900SOL    MW4 7600   2.669   2.716   3.102  0.2608  0.1117 -0.1755
 1901SOL     OW 7601   2.910   2.839   3.005 -0.3562 -0.3120  0.1010
 1901SOL    HW2 7602   2.985   2.792   3.040  0.4432  0.6846 -0.2721
 1901SOL    HW3 7603   2.834   2.793   3.042  0.4219 -1.4523  0.3020
 1901SOL    MW4 7604   2.910   2.827   3.015 -0.1481 -0.3309  0.0783
 1902SOL     OW 7605   2.903   3.086   3.166 -0.3236 -0.5298  0.4638
 1902SOL    HW2 7606   2.838   3.146   3.128 -0.3490 -0.0985  1.1891
 1902SOL    HW3 7607   2.899   3.009   3.110 -1.1286 -0.3181  0.2207
 1902SOL    MW4 7608   2.894   3.084   3.153 -0.4332 -0.4450  0.5274
 1903SOL     OW 7609   2.718   3.272   3.062 -0.4666 -0.1728 -0.2262
 1903SOL    HW2 7610   2.705   3.365   3.083 -2.1428 -0.3460 -0.4214
 1903SOL    HW3 7611   2.711   3.268   2.967 -0.2680 -0.4737 -0.2269
 1903SOL    MW4 7612   2.715   3.284   3.053 -0.6616 -0.2353 -0.2520
 1904SOL     OW 7613   2.716   3.541   3.146  0.0337 -0.1681  0.2417
 1904SOL    HW2 7614   2.734   3.531   3.239  1.7040  2.0638  0.2070
 1904SOL    HW3 7615   2.802   3.556   3.107 -0.7401 -0.3348 -1.5519
 1904SOL    MW4 7616   2.729   3.542   3.153  0.1520  0.1044  0.0004
 1905SOL     OW 7617   2.960   3.630   3.037 -0.1661  0.7097  0.2498
 1905SOL    HW2 7618   3.033   3.591   3.085  0.0872  0.6183 -0.2104
 1905SOL    HW3 7619   2.937   3.709   3.087 -0.2797  0.3068  0.8398
 1905SOL    MW4 7620   2.966   3.635   3.050 -0.1476  0.6445  0.2669
 1906SOL     OW 7621   2.904   3.880   3.153 -0.0718  0.3312 -0.0806
 1906SOL    HW2 7622   2.903   3.894   3.248 -0.6406 -2.0362  0.2946
 1906SOL    HW3 7623   2.824   3.922   3.122 -0.8686 -0.5331  0.7703
 1906SOL    MW4 7624   2.893   3.888   3.161 -0.2519 -0.0952  0.0812
 1907SOL     OW 7625   2.699   4.021   3.056  0.1528  0.1170 -0.1527
 1907SOL    HW2 7626   2.712   4.110   3.088  0.1260 -0.1388  0.6041
 1907SOL    HW3 7627   2.705   4.027   2.961  0.4825  0.8682 -0.0830
 1907SOL    MW4 7628   2.701   4.033   3.048  0.1927  0.1824 -0.0437
 1908SOL     OW 7629   2.702   4.280   3.125  0.2207  0.5357 -0.0142
 1908SOL    HW2 7630   2.697   4.284   3.221 -0.8324 -0.8795  0.0045
 1908SOL    HW3 7631   2.618   4.316   3.096  0.2256  0.2344 -0.3907
 1908SOL    MW4 7632   2.690   4.286   3.134  0.0824  0.3093 -0.0614
 1909SOL     OW 7633   2.933   4.429   3.058  0.0593 -0.6035  0.4198
 1909SOL    HW2 7634   2.992   4.365   3.098  0.6627 -0.4836 -0.2706
 1909SOL    HW3 7635   2.845   4.400   3.084  0.2960 -1.9365 -0.2145
 1909SOL    MW4 7636   2.929   4.417   3.067  0.1702 -0.7635  0.2450
 1910SOL     OW 7637   3.348   4.595   3.171  0.3771  0.7113 -0.1970
 1910SOL    HW2 7638   3.422   4.639   3.128  0.1658 -0.1826 -1.5110
 1910SOL    HW3 7639   3.352   4.505   3.139 -1.2504  0.6431 -0.2375
 1910SOL    MW4 7640   3.358   4.589   3.161  0.1345  0.5844 -0.3757
 1911SOL     OW 7641   3.168   0.081   3.028  0.3036  0.2205 -0.5974
 1911SOL    HW2 7642   3.175   0.164   3.075  0.6399  0.1079 -0.4465
 1911SOL    HW3 7643   3.231   0.023   3.071 -1.0629 -0.6029  0.3161
 1911SOL    MW4 7644   3.177   0.084   3.040  0.1677  0.0970 -0.4569
 1912SOL     OW 7645   3.153   0.327   3.150 -0.3438  0.2882 -0.1858
 1912SOL    HW2 7646   3.225   0.382   3.118  0.6499 -1.2150 -0.6038
 1912SOL    HW3 7647   3.074   0.371   3.120  0.4482  1.1737 -1.0289
 1912SOL    MW4 7648   3.152   0.340   3.142 -0.1082  0.2067 -0.3522
 1913SOL     OW 7649   3.367   0.478   3.057  0.3065 -0.3966  0.2148
 1913SOL    HW2 7650   3.441   0.423   3.082  0.3573  0.1300  1.2226
 1913SOL    HW3 7651   3.370   0.479   2.961 -0.1253 -2.7122  0.1452
 1913SOL    MW4 7652   3.377   0.471   3.047  0.2562 -0.6327  0.3386
 1914SOL     OW 7653   3.342   0.734   3.146 -0.2312 -0.5718  0.0001
 1914SOL    HW2 7654   3.361   0.723   3.239 -1.1944 -0.6540  0.1904
 1914SOL    HW3 7655   3.357   0.648   3.108  0.9832 -0.3391 -0.0750
 1914SOL    MW4 7656   3.347   0.721   3.153 -0.1980 -0.5520  0.0153
 1915SOL     OW 7657   3.128   0.885   3.054  0.4438 -0.2539  0.4422
 1915SOL    HW2 7658   3.196   0.827   3.087  0.1026  1.5859  4.6938
 1915SOL    HW3 7659   3.047   0.835   3.063  0.4868 -0.1489  1.4427
 1915SOL    MW4 7660   3.126   0.871   3.060  0.4044  0.0027  1.1351
 1916SOL     OW 7661   3.122   1.126   3.186 -0.2034  0.0103 -0.8044
 1916SOL    HW2 7662   3.208   1.159   3.159  0.8572 -0.6930  1.5654
 1916SOL    HW3 7663   3.120   1.036   3.154  0.2358 -0.1793 -0.3204
 1916SOL    MW4 7664   3.133   1.118   3.179 -0.0055 -0.1075 -0.4279
 1917SOL     OW 7665   3.341   1.234   3.066  0.3686 -0.0974  0.0939
 1917SOL    HW2 7666   3.428   1.195   3.076  0.2082 -0.7180 -0.8943
 1917SOL    HW3 7667   3.355   1.328   3.079  1.2257 -0.1709 -0.2660
 1917SOL    MW4 7668   3.355   1.241   3.069  0.4605 -0.1890 -0.0840
 1918SOL     OW 7669   3.361   1.512   3.113 -0.3250  0.7124  0.2729
 1918SOL    HW2 7670   3.363   1.519   3.208 -0.3200  0.7756  0.2687
 1918SOL    HW3 7671   3.444   1.551   3.085  0.3820 -0.7047  0.3256
 1918SOL    MW4 7672   3.372   1.518   3.122 -0.2311  0.5338  0.2793
 1919SOL     OW 7673   3.149   1.639   3.011  0.2256 -0.1685 -0.0562
 1919SOL    HW2 7674   3.234   1.608   3.043  0.2894  0.4480  0.3905
 1919SOL    HW3 7675   3.160   1.647   2.917  0.9847  0.8561  0.1086
 1919SOL    MW4 7676   3.162   1.636   3.003  0.3341  0.0481  0.0245
 1920SOL     OW 7677   3.118   1.909   3.130  0.9391  0.1702 -0.2511
 1920SOL    HW2 7678   3.124   1.817   3.102 -0.8473 -0.5332  1.5948
 1920SOL    HW3 7679   3.045   1.944   3.078  1.2696  0.4129 -0.5565
 1920SOL    MW4 7680   3.109   1.901   3.119  0.7470  0.1094 -0.0479
 1921SOL     OW 7681   3.334   2.060   3.066  0.6922  0.2556  0.2571
 1921SOL    HW2 7682   3.411   2.012   3.097  0.2929 -1.2904 -1.0489
 1921SOL    HW3 7683   3.261   2.000   3.079  0.1147  0.6478 -1.0189
 1921SOL    MW4 7684   3.334   2.046   3.072  0.5633  0.1034 -0.0836
 1922SOL     OW 7685   3.358   2.310   3.169  0.4222  0.0174 -0.3316
 1922SOL    HW2 7686   3.370   2.299   3.263  0.5075  1.7181 -0.1341
 1922SOL    HW3 7687   3.333   2.223   3.138 -1.2460 -0.1944  1.5096
 1922SOL    MW4 7688   3.356   2.297   3.177  0.2133  0.2138 -0.0626
 1923SOL     OW 7689   3.121   2.438   3.050  0.3248  0.1226  0.1762
 1923SOL    HW2 7690   3.196   2.401   3.096 -0.0683 -0.6676  0.1856
 1923SOL    HW3 7691   3.138   2.418   2.958  0.2038  0.0913  0.1609
 1923SOL    MW4 7692   3.133   2.431   3.044  0.2570  0.0142  0.1754
 1924SOL     OW 7693   3.173   2.716   3.104  0.3116  0.0428  0.2910
 1924SOL    HW2 7694   3.166   2.694   3.197 -1.4831  1.6572  0.5507
 1924SOL    HW3 7695   3.160   2.632   3.059  1.7170 -0.8435  1.4824
 1924SOL    MW4 7696   3.171   2.702   3.111  0.2602  0.1388  0.4825
 1925SOL     OW 7697   3.415   2.872   3.054 -0.5143 -0.4760  0.4092
 1925SOL    HW2 7698   3.399   2.966   3.066 -1.2698 -0.5442  0.0107
 1925SOL    HW3 7699   3.332   2.831   3.078 -0.4215 -0.9810 -0.1277
 1925SOL    MW4 7700   3.402   2.879   3.058 -0.6017 -0.5516  0.2858
 1926SOL     OW 7701   3.371   3.157   3.133 -0.0488  0.4181  0.1227
 1926SOL    HW2 7702   3.379   3.165   3.228  0.0589 -0.6893  0.2110
 1926SOL    HW3 7703   3.287   3.198   3.112  0.0224  0.8436  0.6726
 1926SOL    MW4 7704   3.361   3.164   3.143 -0.0252  0.3281  0.2069
 1927SOL     OW 7705   3.113   3.242   3.055  0.0308  0.3372  0.1994
 1927SOL    HW2 7706   3.040   3.184   3.078  1.1338 -0.9472  0.5747
 1927SOL    HW3 7707   3.107   3.252   2.960 -0.9076  0.6217  0.2868
 1927SOL    MW4 7708   3.102   3.236   3.046  0.0525  0.2053  0.2604
 1928SOL     OW 7709   3.150   3.490   3.168 -0.3528  0.1154  0.1822
 1928SOL    HW2 7710   3.227   3.529   3.126 -2.1704  2.0207 -1.5098
 1928SOL    HW3 7711   3.144   3.403   3.130  1.3095 -0.2691  0.7753
 1928SOL    MW4 7712   3.159   3.484   3.157 -0.3733  0.3161  0.0372
 1929SOL     OW 7713   3.381   3.612   3.044 -0.0817 -0.1169  0.1678
 1929SOL    HW2 7714   3.466   3.587   3.080 -0.4521 -0.8486  0.5474
 1929SOL    HW3 7715   3.369   3.703   3.072  0.1986 -0.2794  0.8241
 1929SOL    MW4 7716   3.390   3.621   3.053 -0.0936 -0.2349  0.3045
 1930SOL     OW 7717   3.375   3.877   3.141 -0.2125 -0.1726 -0.5340
 1930SOL    HW2 7718   3.362   3.872   3.236  0.8974  0.8054 -0.3110
 1930SOL    HW3 7719   3.294   3.916   3.108 -0.3448  0.0933  0.0918
 1930SOL    MW4 7720   3.363   3.882   3.149 -0.0835 -0.0085 -0.4220
 1931SOL     OW 7721   3.136   4.009   3.076  0.0403 -0.5192 -0.0245
 1931SOL    HW2 7722   3.065   3.956   3.110  0.1779 -0.9185 -0.3498
 1931SOL    HW3 7723   3.125   4.004   2.981  0.3418 -0.3622 -0.0664
 1931SOL    MW4 7724   3.125   4.001   3.068  0.0982 -0.5512 -0.0729
 1932SOL     OW 7725   3.140   4.261   3.167  0.2483 -0.2603  0.0433
 1932SOL    HW2 7726   3.137   4.267   3.262 -1.3802 -0.5702  0.0199
 1932SOL    HW3 7727   3.135   4.167   3.148  0.4461 -0.1951 -0.3452
 1932SOL    MW4 7728   3.139   4.250   3.177  0.0595 -0.2926 -0.0110
 1933SOL     OW 7729   3.373   4.344   3.032  0.0401 -0.4563 -0.1296
 1933SOL    HW2 7730   3.442   4.307   3.087 -0.2744 -0.0793  0.5356
 1933SOL    HW3 7731   3.292   4.309   3.070 -0.1073 -1.3676 -1.2664
 1933SOL    MW4 7732   3.371   4.334   3.044 -0.0208 -0.5268 -0.1918
 1934SOL     OW 7733   3.825   4.641   3.135  0.1143  0.4984  0.2753
 1934SOL    HW2 7734   3.827   4.548   3.112 -0.1177  0.1299  1.7096
 1934SOL    HW3 7735   3.736   4.670   3.113  0.7300  0.8567 -1.9039
 1934SOL    MW4 7736   3.814   4.633   3.129  0.1649  0.4971  0.1770
 1935SOL     OW 7737   3.568   0.059   3.050 -0.0291  0.3514  0.3550
 1935SOL    HW2 7738   3.582   0.148   3.083 -0.4410  0.1747  1.0122
 1935SOL    HW3 7739   3.559   0.070   2.955 -1.9308  1.2457  0.6224
 1935SOL    MW4 7740   3.569   0.073   3.042 -0.3343  0.4460  0.4770
 1936SOL     OW 7741   3.583   0.334   3.160  0.3644 -0.9020 -0.1717
 1936SOL    HW2 7742   3.588   0.339   3.256 -0.0673 -1.2765 -0.1283
 1936SOL    HW3 7743   3.660   0.382   3.130  0.0013  0.0466  0.3546
 1936SOL    MW4 7744   3.594   0.341   3.169  0.2595 -0.8262 -0.0965
 1937SOL     OW 7745   3.835   0.457   3.074  0.0312  0.0840 -0.2576
 1937SOL    HW2 7746   3.912   0.412   3.108 -0.7145 -0.7556  0.3398
 1937SOL    HW3 7747   3.830   0.538   3.124  0.9106  0.4625 -0.7712
 1937SOL    MW4 7748   3.845   0.462   3.085  0.0489  0.0232 -0.2465
 1938SOL     OW 7749   3.810   0.704   3.209 -0.6807 -0.3701 -0.0573
 1938SOL    HW2 7750   3.818   0.723   3.303 -1.3604  2.2718 -0.5052
 1938SOL    HW3 7751   3.867   0.768   3.166  0.1824 -2.0239 -1.4313
 1938SOL    MW4 7752   3.819   0.715   3.216 -0.6565 -0.2397 -0.2976
 1939SOL     OW 7753   3.582   0.852   3.066  0.3990 -0.1121 -0.1753
 1939SOL    HW2 7754   3.654   0.802   3.103  0.4029 -0.1007 -0.1670
 1939SOL    HW3 7755   3.503   0.807   3.096  0.4229 -1.0102 -1.4390
 1939SOL    MW4 7756   3.581   0.840   3.075  0.4027 -0.2291 -0.3409
 1940SOL     OW 7757   3.585   1.114   3.154  0.0626 -0.1011 -0.4910
 1940SOL    HW2 7758   3.671   1.125   3.113  0.3655 -0.2467  0.1009
 1940SOL    HW3 7759   3.570   1.020   3.153 -0.2923 -0.0418 -0.9978
 1940SOL    MW4 7760   3.594   1.103   3.148  0.0558 -0.1125 -0.4798
 1941SOL     OW 7761   3.839   1.205   3.071 -0.6634 -0.2393  0.4742
 1941SOL    HW2 7762   3.820   1.291   3.110 -1.1069  0.1890 -0.6843
 1941SOL    HW3 7763   3.842   1.222   2.977 -2.8122 -1.8732  0.0722
 1941SOL    MW4 7764   3.837   1.219   3.064 -1.0054 -0.3984  0.2683
 1942SOL     OW 7765   3.797   1.483   3.119  0.1638 -0.4670 -0.2707
 1942SOL    HW2 7766   3.802   1.499   3.213  4.1065  2.2819 -0.8172
 1942SOL    HW3 7767   3.724   1.537   3.089  0.7378  0.9672  0.8490
 1942SOL    MW4 7768   3.788   1.493   3.127  0.7597  0.0849 -0.1951
 1943SOL     OW 7769   3.583   1.658   3.034 -0.2363 -0.2889  0.0278
 1943SOL    HW2 7770   3.589   1.750   3.059 -0.0953 -0.2570 -0.1186
 1943SOL    HW3 7771   3.584   1.659   2.938  0.6176 -0.4953  0.0293
 1943SOL    MW4 7772   3.584   1.670   3.025 -0.1050 -0.3119  0.0086
 1944SOL     OW 7773   3.564   1.938   3.146  0.0016 -0.0473  0.2522
 1944SOL    HW2 7774   3.562   1.940   3.241 -0.0309  0.3250  0.2456
 1944SOL    HW3 7775   3.642   1.989   3.123  0.4117 -0.7369  0.0984
 1944SOL    MW4 7776   3.574   1.945   3.155  0.0514 -0.0892  0.2310
 1945SOL     OW 7777   3.820   2.042   3.054  0.1651  0.0491 -0.0443
 1945SOL    HW2 7778   3.828   2.129   3.094 -1.3645  0.6237 -0.9577
 1945SOL    HW3 7779   3.829   2.058   2.960 -0.6742 -0.7077 -0.2588
 1945SOL    MW4 7780   3.823   2.056   3.047 -0.1475  0.0251 -0.1931
 1946SOL     OW 7781   3.819   2.289   3.179  0.2498  0.1432  0.4076
 1946SOL    HW2 7782   3.821   2.305   3.274  0.1253  1.7234  0.1536
 1946SOL    HW3 7783   3.737   2.328   3.150  1.1814  1.3443 -0.6419
 1946SOL    MW4 7784   3.809   2.296   3.188  0.3563  0.5102  0.2356
 1947SOL     OW 7785   3.610   2.427   3.082 -0.2394 -0.6978 -0.0034
 1947SOL    HW2 7786   3.623   2.514   3.120  0.6108 -0.1838 -1.4480
 1947SOL    HW3 7787   3.521   2.402   3.109 -0.5696  0.6979  0.2282
 1947SOL    MW4 7788   3.600   2.435   3.091 -0.1708 -0.4459 -0.1635
 1948SOL     OW 7789   3.616   2.698   3.144  0.0124 -0.2715 -0.7425
 1948SOL    HW2 7790   3.694   2.730   3.098  0.3881 -0.1047  0.0002
 1948SOL    HW3 7791   3.545   2.755   3.115  0.5046  0.6815 -0.1004
 1948SOL    MW4 7792   3.617   2.709   3.134  0.1269 -0.1238 -0.5598
 1949SOL     OW 7793   3.831   2.855   3.065 -0.2330 -0.2799  0.0292
 1949SOL    HW2 7794   3.809   2.941   3.102 -0.1604 -0.0188 -0.5359
 1949SOL    HW3 7795   3.837   2.870   2.971 -0.7735 -1.0243 -0.1278
 1949SOL    MW4 7796   3.829   2.868   3.058 -0.2947 -0.3437 -0.0661
 1950SOL     OW 7797   3.815   3.108   3.172 -0.1043 -0.3060 -0.0167
 1950SOL    HW2 7798   3.891   3.121   3.115  0.3914 -2.1177  0.1826
 1950SOL    HW3 7799   3.745   3.158   3.131  1.0672  0.9996 -0.4800
 1950SOL    MW4 7800   3.816   3.116   3.159  0.1157 -0.3727 -0.0515
 1951SOL     OW 7801   3.612   3.264   3.023  0.1815  0.0535 -0.2291
 1951SOL    HW2 7802   3.530   3.225   3.052 -0.1960  1.3005  0.4004
 1951SOL    HW3 7803   3.625   3.231   2.934 -1.6329  0.8616 -0.7923
 1951SOL    MW4 7804   3.603   3.254   3.015 -0.1077  0.3247 -0.2204
 1952SOL     OW 7805   3.612   3.522   3.165  0.0114  0.1176 -0.2535
 1952SOL    HW2 7806   3.687   3.565   3.124 -0.8380  0.9406 -0.9815
 1952SOL    HW3 7807   3.613   3.433   3.128  0.4949  0.1960 -0.4343
 1952SOL    MW4 7808   3.622   3.516   3.155 -0.0369  0.2366 -0.3734
 1953SOL     OW 7809   3.826   3.641   3.063  0.2218 -0.0777  0.2660
 1953SOL    HW2 7810   3.836   3.734   3.084 -1.1436  0.1969 -0.2461
 1953SOL    HW3 7811   3.832   3.637   2.968 -0.2526 -0.4316  0.2473
 1953SOL    MW4 7812   3.828   3.653   3.053 -0.0209 -0.0882  0.1960
 1954SOL     OW 7813   3.837   3.893   3.134  0.3348 -0.3791  0.3927
 1954SOL    HW2 7814   3.815   3.897   3.227 -0.2315  0.0961  0.2401
 1954SOL    HW3 7815   3.761   3.931   3.090  0.2993 -1.2452 -0.3087
 1954SOL    MW4 7816   3.824   3.898   3.141  0.2554 -0.4306  0.2800
 1955SOL     OW 7817   3.605   4.011   3.048 -0.2492  0.2056  0.2539
 1955SOL    HW2 7818   3.530   3.963   3.082  0.6049  0.0466  1.9967
 1955SOL    HW3 7819   3.593   4.011   2.953 -2.4767  0.2644  0.5173
 1955SOL    MW4 7820   3.594   4.004   3.040 -0.4304  0.1924  0.5186
 1956SOL     OW 7821   3.577   4.264   3.200 -0.4374 -0.0410 -0.4737
 1956SOL    HW2 7822   3.655   4.309   3.166  0.3513  0.1162  1.4733
 1956SOL    HW3 7823   3.578   4.179   3.158  1.7278 -0.6612  0.7553
 1956SOL    MW4 7824   3.587   4.259   3.190 -0.0477 -0.1021 -0.0547
 1957SOL     OW 7825   3.822   4.375   3.092 -0.1516  0.0366 -0.4808
 1957SOL    HW2 7826   3.902   4.329   3.119 -1.0802 -1.4088 -0.1156
 1957SOL    HW3 7827   3.830   4.381   2.997  0.5386  0.1741 -0.4175
 1957SOL    MW4 7828   3.833   4.370   3.083 -0.1831 -0.1359 -0.4242
 1958SOL     OW 7829   4.233   4.637   3.225  0.0580  0.1568  0.6569
 1958SOL    HW2 7830   4.256   4.632   3.318  0.6473 -0.8323  0.4587
 1958SOL    HW3 7831   4.253   4.550   3.190 -2.4665 -0.2746  0.1355
 1958SOL    MW4 7832   4.239   4.625   3.233 -0.1973 -0.0306  0.5620
 1959SOL     OW 7833   4.043   0.109   3.058  0.0699  0.3729 -0.4413
 1959SOL    HW2 7834   4.112   0.058   3.100 -0.7560 -1.1296 -0.8940
 1959SOL    HW3 7835   3.963   0.059   3.073 -1.0565  2.4272  0.6724
 1959SOL    MW4 7836   4.041   0.096   3.066 -0.1877  0.4457 -0.3541
 1960SOL     OW 7837   4.062   0.336   3.199 -0.1812 -0.1064  0.6240
 1960SOL    HW2 7838   4.142   0.381   3.173 -1.3604  0.8905 -1.3196
 1960SOL    HW3 7839   4.060   0.256   3.145 -1.3058  0.6758 -0.5100
 1960SOL    MW4 7840   4.072   0.331   3.189 -0.4852  0.1283  0.2180
 1961SOL     OW 7841   4.268   0.478   3.100 -0.6005  0.3645  0.0692
 1961SOL    HW2 7842   4.241   0.566   3.125 -1.4506 -0.3776  1.8612
 1961SOL    HW3 7843   4.267   0.479   3.004  1.4379  2.8964  0.0341
 1961SOL    MW4 7844   4.264   0.490   3.091 -0.4438  0.6007  0.3010
 1962SOL     OW 7845   4.220   0.733   3.173  0.2062  0.7711 -0.6515
 1962SOL    HW2 7846   4.141   0.763   3.129  0.9012  0.4152 -2.1986
 1962SOL    HW3 7847   4.291   0.779   3.128  0.9382  0.4681  0.1772
 1962SOL    MW4 7848   4.219   0.743   3.161  0.3945  0.6842 -0.7463
 1963SOL     OW 7849   3.995   0.876   3.066 -0.3751 -0.2541 -0.0598
 1963SOL    HW2 7850   4.024   0.957   3.108  0.8697 -1.7134  1.9334
 1963SOL    HW3 7851   4.002   0.894   2.972 -0.1118  1.9282  0.3489
 1963SOL    MW4 7852   4.000   0.889   3.059 -0.1761 -0.1587  0.2571
 1964SOL     OW 7853   4.097   1.116   3.144 -0.2225 -0.0540  0.2429
 1964SOL    HW2 7854   4.093   1.120   3.239 -0.0460  0.3978  0.2312
 1964SOL    HW3 7855   4.030   1.176   3.114 -1.6697 -1.7156  0.0775
 1964SOL    MW4 7856   4.088   1.124   3.153 -0.3901 -0.2136  0.2195
 1965SOL     OW 7857   4.312   1.290   3.046  0.4830 -0.2028  0.1602
 1965SOL    HW2 7858   4.245   1.230   3.078 -0.0119  0.7324  0.8884
 1965SOL    HW3 7859   4.302   1.290   2.951 -0.8177  0.2456  0.2920
 1965SOL    MW4 7860   4.302   1.282   3.037  0.2461 -0.0202  0.2737
 1966SOL     OW 7861   4.226   1.539   3.149 -0.1126  0.1388  0.3366
 1966SOL    HW2 7862   4.158   1.568   3.088 -0.8487 -1.5464  0.3300
 1966SOL    HW3 7863   4.255   1.454   3.114  0.5401 -0.1182  1.4841
 1966SOL    MW4 7864   4.221   1.531   3.136 -0.1236 -0.1175  0.4871
 1967SOL     OW 7865   3.998   1.637   3.011 -0.3535  0.1439 -0.3638
 1967SOL    HW2 7866   3.990   1.694   3.088  2.0120 -0.6277  0.5170
 1967SOL    HW3 7867   3.924   1.577   3.018  0.0970 -0.2223  1.6232
 1967SOL    MW4 7868   3.987   1.636   3.022  0.0180 -0.0062  0.0146
 1968SOL     OW 7869   4.013   1.870   3.174 -0.3241  0.1738  0.4858
 1968SOL    HW2 7870   4.092   1.902   3.130 -0.6191 -0.3326 -0.4368
 1968SOL    HW3 7871   3.943   1.926   3.140 -0.7491 -1.0422 -0.6830
 1968SOL    MW4 7872   4.014   1.882   3.164 -0.4191 -0.0534  0.2099
 1969SOL     OW 7873   4.253   2.004   3.082 -0.4409 -0.4800  0.1704
 1969SOL    HW2 7874   4.252   2.097   3.107 -1.2870 -0.5281  0.3238
 1969SOL    HW3 7875   4.252   2.006   2.986 -2.7861 -0.3363  0.1687
 1969SOL    MW4 7876   4.252   2.017   3.072 -0.8620 -0.4674  0.1904
 1970SOL     OW 7877   4.256   2.289   3.122 -0.0434  0.3720 -0.1674
 1970SOL    HW2 7878   4.182   2.348   3.109 -0.7360 -0.6296 -0.7608
 1970SOL    HW3 7879   4.329   2.332   3.076 -0.2736  1.2775  0.2857
 1970SOL    MW4 7880   4.256   2.303   3.115 -0.1651  0.3593 -0.1859
 1971SOL     OW 7881   4.031   2.445   3.068  0.0494  0.0961  0.0619
 1971SOL    HW2 7882   4.033   2.517   3.131 -0.0357 -1.0768  1.4063
 1971SOL    HW3 7883   3.953   2.395   3.091 -0.5862  0.2552 -1.6551
 1971SOL    MW4 7884   4.021   2.448   3.079 -0.0457 -0.0376  0.0127
 1972SOL     OW 7885   4.048   2.698   3.191  0.5331 -0.2567 -0.0005
 1972SOL    HW2 7886   4.045   2.725   3.282  3.8952 -0.0935  0.1516
 1972SOL    HW3 7887   3.991   2.759   3.145  0.1400  0.7151  1.7629
 1972SOL    MW4 7888   4.040   2.709   3.197  0.9248 -0.1069  0.2522
 1973SOL     OW 7889   4.261   2.823   3.099 -0.2425 -0.2362 -0.1621
 1973SOL    HW2 7890   4.180   2.780   3.128 -0.6839 -0.6881 -1.9820
 1973SOL    HW3 7891   4.331   2.764   3.127 -0.5960 -0.2151  0.7628
 1973SOL    MW4 7892   4.260   2.810   3.106 -0.3474 -0.2930 -0.2802
 1974SOL     OW 7893   4.268   3.095   3.133  0.1482 -0.0804  0.0643
 1974SOL    HW2 7894   4.191   3.132   3.088  0.0238 -0.3956  0.0201
 1974SOL    HW3 7895   4.263   3.001   3.116  1.3903  0.0826 -1.2233
 1974SOL    MW4 7896   4.257   3.088   3.125  0.2957 -0.1005 -0.1114
 1975SOL     OW 7897   4.052   3.199   3.035 -0.2156 -0.5142  0.8236
 1975SOL    HW2 7898   4.046   3.292   3.055 -4.5504 -0.6234  0.4530
 1975SOL    HW3 7899   4.066   3.196   2.940  1.7717 -0.2522  1.0926
 1975SOL    MW4 7900   4.053   3.211   3.025 -0.5253 -0.4940  0.8102
 1976SOL     OW 7901   4.040   3.475   3.118  0.2490  0.1617 -0.4470
 1976SOL    HW2 7902   4.030   3.484   3.213  0.8287  0.1564 -0.3845
 1976SOL    HW3 7903   3.968   3.527   3.082 -1.0613 -1.2875  0.0176
 1976SOL    MW4 7904   4.029   3.483   3.126  0.1526 -0.0302 -0.3774
 1977SOL     OW 7905   4.292   3.618   3.108 -0.4596 -0.0394 -0.3305
 1977SOL    HW2 7906   4.278   3.703   3.148  0.1655 -0.2675  0.3763
 1977SOL    HW3 7907   4.212   3.568   3.128 -1.3807  0.7937 -1.8473
 1977SOL    MW4 7908   4.279   3.622   3.116 -0.4987  0.0404 -0.4374
 1978SOL     OW 7909   4.288   3.857   3.206  0.5180  0.2235 -0.1638
 1978SOL    HW2 7910   4.219   3.908   3.162 -0.0129  0.2820  0.7096
 1978SOL    HW3 7911   4.370   3.896   3.176  0.1612  0.4270 -0.8922
 1978SOL    MW4 7912   4.289   3.869   3.196  0.4009  0.2581 -0.1447
 1979SOL     OW 7913   4.076   4.004   3.076  0.7057 -0.5948 -0.4015
 1979SOL    HW2 7914   4.062   4.097   3.095  1.4522 -0.3599 -0.9970
 1979SOL    HW3 7915   3.999   3.961   3.114  0.4272  0.2430  0.0148
 1979SOL    MW4 7916   4.064   4.011   3.084  0.7675 -0.4533 -0.4252
 1980SOL     OW 7917   4.055   4.260   3.171  0.1938 -0.4003 -0.2991
 1980SOL    HW2 7918   4.052   4.260   3.267 -0.8714 -1.2307 -0.3194
 1980SOL    HW3 7919   4.144   4.287   3.149  0.8216 -1.4586  0.9340
 1980SOL    MW4 7920   4.066   4.264   3.181  0.1361 -0.6495 -0.1391
 1981SOL     OW 7921   4.284   4.374   3.097  0.5465  0.3663 -0.0044
 1981SOL    HW2 7922   4.359   4.318   3.116 -0.7370 -1.1959  0.6425
 1981SOL    HW3 7923   4.276   4.373   3.002  0.1016 -1.2046  0.0250
 1981SOL    MW4 7924   4.293   4.366   3.087  0.3184 -0.0471  0.0849
 1982SOL     OW 7925   0.251   0.014   3.415  0.3604 -0.1585  0.3443
 1982SOL    HW2 7926   0.331   0.030   3.465  0.2649 -0.8275  0.7146
 1982SOL    HW3 7927   0.236  -0.080   3.423 -0.1190 -0.1344 -0.2461
 1982SOL    MW4 7928   0.259   0.004   3.423  0.2845 -0.2436  0.3153
 1983SOL     OW 7929   0.035   0.111   3.549 -0.3625 -0.1198  0.5666
 1983SOL    HW2 7930   0.026   0.200   3.514  0.0289 -0.1840  0.2997
 1983SOL    HW3 7931   0.105   0.072   3.497 -2.1993 -1.4236 -0.9558
 1983SOL    MW4 7932   0.043   0.118   3.537 -0.5532 -0.3003  0.3305
 1984SOL     OW 7933   0.047   0.354   3.442  0.0528  0.5357  0.1223
 1984SOL    HW2 7934  -0.029   0.413   3.445  0.1696  0.8056 -1.8040
 1984SOL    HW3 7935   0.112   0.397   3.498 -0.3644  1.5313 -0.1354
 1984SOL    MW4 7936   0.045   0.368   3.450  0.0131  0.7027 -0.1659
 1985SOL     OW 7937   0.234   0.496   3.588  0.2570  0.8159 -0.0376
 1985SOL    HW2 7938   0.310   0.465   3.539  1.0284  1.2814  0.8652
 1985SOL    HW3 7939   0.218   0.584   3.555  0.4390  0.9217  0.1569
 1985SOL    MW4 7940   0.242   0.503   3.577  0.3828  0.8913  0.1072
 1986SOL     OW 7941   0.247   0.748   3.478  0.1189  0.1607  0.2271
 1986SOL    HW2 7942   0.321   0.803   3.503 -0.2191  0.2808  0.9948
 1986SOL    HW3 7943   0.170   0.798   3.505 -0.2075 -0.3997  0.3447
 1986SOL    MW4 7944   0.247   0.762   3.485  0.0313  0.1026  0.3439
 1987SOL     OW 7945   0.014   0.883   3.542 -0.1783  0.1030  0.1284
 1987SOL    HW2 7946   0.005   0.878   3.637 -1.4410 -1.3276 -0.0595
 1987SOL    HW3 7947  -0.009   0.974   3.521 -1.0308  0.1103  1.0631
 1987SOL    MW4 7948   0.010   0.894   3.552 -0.4573 -0.0848  0.2270
 1988SOL     OW 7949   0.011   1.159   3.463  0.3178  0.2332  0.3856
 1988SOL    HW2 7950   0.094   1.200   3.486  0.1504  0.2323  1.0114
 1988SOL    HW3 7951   0.007   1.163   3.367  1.1264  0.0475  0.3456
 1988SOL    MW4 7952   0.021   1.165   3.453  0.4024  0.2086  0.4629
 1989SOL     OW 7953   0.237   1.292   3.575  0.5974 -0.2069  0.0362
 1989SOL    HW2 7954   0.312   1.236   3.555  0.2669 -0.5626 -0.2153
 1989SOL    HW3 7955   0.253   1.372   3.524  0.1180 -0.8259 -1.0902
 1989SOL    MW4 7956   0.249   1.295   3.565  0.4905 -0.3355 -0.1456
 1990SOL     OW 7957   0.229   1.534   3.441  0.0718 -0.0786 -0.6194
 1990SOL    HW2 7958   0.314   1.572   3.462  1.0047 -1.3654 -1.9639
 1990SOL    HW3 7959   0.229   1.526   3.346 -0.3655 -2.7343 -0.4507
 1990SOL    MW4 7960   0.240   1.538   3.431  0.1372 -0.5987 -0.7745
 1991SOL     OW 7961   4.457   1.678   3.536 -0.1327 -0.3369 -0.3557
 1991SOL    HW2 7962   4.384   1.626   3.505  0.4158 -0.6289 -1.1726
 1991SOL    HW3 7963   4.535   1.626   3.515  0.3167  0.0171  0.4041
 1991SOL    MW4 7964   4.458   1.665   3.529 -0.0011 -0.3287 -0.3632
 1992SOL     OW 7965   4.483   1.930   3.452  0.1100 -0.1454  0.2748
 1992SOL    HW2 7966   4.472   1.843   3.489  1.4195 -0.0849  0.8384
 1992SOL    HW3 7967   4.492   1.915   3.358  0.2534 -0.6083  0.3618
 1992SOL    MW4 7968   4.483   1.917   3.444  0.3017 -0.1985  0.3606
 1993SOL     OW 7969   0.210   2.073   3.527  0.0872  0.0815  0.0339
 1993SOL    HW2 7970   0.207   2.067   3.622  0.0660 -1.7337 -0.0705
 1993SOL    HW3 7971   0.134   2.023   3.497  0.2397  0.4161 -0.9400
 1993SOL    MW4 7972   0.200   2.066   3.536  0.1046 -0.1138 -0.1083
 1994SOL     OW 7973   0.224   2.321   3.435  0.2175 -0.0839 -0.4491
 1994SOL    HW2 7974   0.141   2.354   3.470  1.1359  1.7737 -0.0150
 1994SOL    HW3 7975   0.235   2.235   3.477 -0.2237  0.7737  1.4521
 1994SOL    MW4 7976   0.214   2.314   3.445  0.2805  0.2743 -0.1410
 1995SOL     OW 7977   4.473   2.441   3.551 -0.1040  0.0124  0.1093
 1995SOL    HW2 7978   4.464   2.406   3.640  1.1883 -1.3330 -0.2766
 1995SOL    HW3 7979   4.393   2.413   3.507  0.0670 -0.8587  0.3418
 1995SOL    MW4 7980   4.461   2.433   3.557  0.0891 -0.2800  0.0890
 1996SOL     OW 7981   4.486   2.707   3.466  0.2241 -0.0815 -0.3719
 1996SOL    HW2 7982   4.576   2.728   3.491 -0.2758 -0.7854  2.1570
 1996SOL    HW3 7983   4.472   2.619   3.499 -1.7817  0.4866  0.3425
 1996SOL    MW4 7984   4.496   2.698   3.474 -0.1065 -0.0994  0.0560
 1997SOL     OW 7985   0.244   2.801   3.513  0.2847  0.1323 -0.0542
 1997SOL    HW2 7986   0.323   2.773   3.466  0.5342  0.8769 -0.0910
 1997SOL    HW3 7987   0.240   2.896   3.499 -0.1123  0.2378  0.7198
 1997SOL    MW4 7988   0.254   2.810   3.505  0.2652  0.2444  0.0431
 1998SOL     OW 7989   0.268   3.075   3.466 -0.1630 -0.1690 -0.3377
 1998SOL    HW2 7990   0.195   3.124   3.503 -1.3675 -2.0551 -0.1751
 1998SOL    HW3 7991   0.265   3.094   3.372  1.4769  2.7659  0.1531
 1998SOL    MW4 7992   0.258   3.084   3.458 -0.1056 -0.0306 -0.2515
 1999SOL     OW 7993   0.037   3.170   3.557  0.1753 -0.2698  0.0925
 1999SOL    HW2 7994  -0.021   3.118   3.502  1.0043 -1.7575  0.5962
 1999SOL    HW3 7995   0.019   3.260   3.532 -0.0894 -0.8747 -2.0012
 1999SOL    MW4 7996   0.027   3.175   3.546  0.2497 -0.5459 -0.1172
 2000SOL     OW 7997   0.017   3.436   3.480 -0.6151 -0.5213 -0.3469
 2000SOL    HW2 7998  -0.043   3.496   3.525  0.4968 -0.3992  0.9861
 2000SOL    HW3 7999   0.008   3.460   3.388 -1.3676  0.6304 -0.0011
 2000SOL    MW4 8000   0.008   3.447   3.474 -0.5677 -0.3532 -0.1254
 2001SOL     OW 8001   0.263   3.557   3.562  0.5009 -0.2265  0.0159
 2001SOL    HW2 8002   0.262   3.564   3.658 -0.2506  0.6007 -0.0434
 2001SOL    HW3 8003   0.190   3.500   3.542  0.9261 -0.7524 -0.0440
 2001SOL    MW4 8004   0.254   3.551   3.572  0.4579 -0.1867  0.0002
 2002SOL     OW 8005   0.278   3.823   3.473  0.2376  0.3428  0.1344
 2002SOL    HW2 8006   0.196   3.869   3.494 -0.0685  0.0314 -0.3526
 2002SOL    HW3 8007   0.260   3.732   3.497  0.4627  0.2837  0.0755
 2002SOL    MW4 8008   0.265   3.817   3.479  0.2269  0.2939  0.0624
 2003SOL     OW 8009   0.054   3.966   3.521  0.4130 -0.0216 -0.1941
 2003SOL    HW2 8010   0.045   3.989   3.614  0.1038 -1.7149  0.1981
 2003SOL    HW3 8011   0.072   4.050   3.478  0.2744  0.8225  1.3510
 2003SOL    MW4 8012   0.055   3.980   3.527  0.3539 -0.1337  0.0615
 2004SOL     OW 8013   0.052   4.240   3.424  0.3516  0.2712 -0.1382
 2004SOL    HW2 8014  -0.024   4.266   3.477  0.4319  1.1504 -0.4519
 2004SOL    HW3 8015   0.124   4.292   3.458  0.7209 -0.2178 -0.1617
 2004SOL    MW4 8016   0.051   4.250   3.435  0.4109  0.3227 -0.1827
 2005SOL     OW 8017   0.261   4.394   3.533  0.0632 -0.0161 -0.3056
 2005SOL    HW2 8018   0.242   4.356   3.618 -1.1989 -1.4493 -1.1927
 2005SOL    HW3 8019   0.326   4.335   3.494 -0.7695 -0.4425 -1.0730
 2005SOL    MW4 8020   0.267   4.381   3.539 -0.2132 -0.2614 -0.5239
 2006SOL     OW 8021   0.699   4.625   3.463  0.3048 -0.0396  0.0956
 2006SOL    HW2 8022   0.780   4.668   3.489 -0.8710  1.2777  1.6852
 2006SOL    HW3 8023   0.699   4.630   3.368  2.1762 -0.2421  0.0602
 2006SOL    MW4 8024   0.710   4.631   3.454  0.3966  0.1075  0.3006
 2007SOL     OW 8025   0.471   0.109   3.547  0.0158  0.2038  0.0153
 2007SOL    HW2 8026   0.465   0.089   3.641 -0.2819 -1.5854 -0.3540
 2007SOL    HW3 8027   0.553   0.068   3.519 -0.3969 -0.1388 -0.7002
 2007SOL    MW4 8028   0.481   0.101   3.556 -0.0779 -0.0775 -0.1279
 2008SOL     OW 8029   0.435   0.379   3.450  0.0533 -0.1225  0.1179
 2008SOL    HW2 8030   0.525   0.412   3.455  0.1690 -0.3481 -0.4277
 2008SOL    HW3 8031   0.443   0.287   3.475 -0.1308  0.0251  0.7319
 2008SOL    MW4 8032   0.448   0.371   3.454  0.0442 -0.1328  0.1269
 2009SOL     OW 8033   0.678   0.477   3.519  0.2132 -0.6142  0.4492
 2009SOL    HW2 8034   0.665   0.458   3.612  1.3846 -0.2383  0.6965
 2009SOL    HW3 8035   0.758   0.429   3.495  0.5649  0.2131 -0.0764
 2009SOL    MW4 8036   0.687   0.468   3.528  0.4142 -0.4555  0.4125
 2010SOL     OW 8037   0.679   0.746   3.435  0.1503  0.0467  0.2363
 2010SOL    HW2 8038   0.607   0.792   3.478 -0.0207 -1.5559  1.6938
 2010SOL    HW3 8039   0.659   0.653   3.448  1.1689 -0.4359 -1.5434
 2010SOL    MW4 8040   0.667   0.740   3.442  0.2621 -0.2284  0.1938
 2011SOL     OW 8041   0.459   0.885   3.551  0.1442 -0.3510 -0.1103
 2011SOL    HW2 8042   0.454   0.893   3.647 -0.1325 -0.1800 -0.1394
 2011SOL    HW3 8043   0.442   0.973   3.519 -0.6781 -0.5879 -0.3485
 2011SOL    MW4 8044   0.456   0.897   3.560 -0.0008 -0.3597 -0.1456
 2012SOL     OW 8045   0.466   1.171   3.480 -0.0943  0.1569 -0.2825
 2012SOL    HW2 8046   0.541   1.226   3.503 -0.7014  0.9179 -0.1142
 2012SOL    HW3 8047   0.474   1.159   3.385 -1.0911  2.2608 -0.6715
 2012SOL    MW4 8048   0.477   1.177   3.470 -0.3059  0.5349 -0.3116
 2013SOL     OW 8049   0.710   1.310   3.551  0.1319  0.2397 -0.0104
 2013SOL    HW2 8050   0.768   1.243   3.514 -0.6465  0.9414 -2.5741
 2013SOL    HW3 8051   0.728   1.389   3.501 -2.0171  0.8389  0.1057
 2013SOL    MW4 8052   0.720   1.311   3.540 -0.2544  0.4113 -0.3333
 2014SOL     OW 8053   0.681   1.547   3.405  0.0503 -0.1961 -0.2317
 2014SOL    HW2 8054   0.745   1.597   3.456 -0.0756 -0.7480  0.4638
 2014SOL    HW3 8055   0.598   1.590   3.422  0.2646  0.6946 -1.3562
 2014SOL    MW4 8056   0.679   1.559   3.414  0.0620 -0.1514 -0.2883
 2015SOL     OW 8057   0.452   1.676   3.525  0.3235  0.1474 -0.3769
 2015SOL    HW2 8058   0.455   1.669   3.621 -1.9643  1.3128 -0.1896
 2015SOL    HW3 8059   0.456   1.770   3.508 -1.4735  0.0809 -1.2984
 2015SOL    MW4 8060   0.453   1.687   3.536 -0.2155  0.2924 -0.4737
 2016SOL     OW 8061   0.463   1.962   3.441  0.5145 -0.0188  0.1457
 2016SOL    HW2 8062   0.378   2.003   3.455  1.3933  1.5131  1.0889
 2016SOL    HW3 8063   0.471   1.958   3.345 -0.3865  0.3149  0.0461
 2016SOL    MW4 8064   0.453   1.967   3.430  0.5116  0.2273  0.2570
 2017SOL     OW 8065   0.689   2.055   3.570  0.3328 -0.4649 -0.4444
 2017SOL    HW2 8066   0.680   2.036   3.663  0.9719 -0.1502 -0.3187
 2017SOL    HW3 8067   0.609   2.020   3.531  0.4838 -1.4040  0.0907
 2017SOL    MW4 8068   0.677   2.048   3.577  0.4370 -0.5473 -0.3572
 2018SOL     OW 8069   0.677   2.317   3.448 -0.0024  0.4655 -0.0791
 2018SOL    HW2 8070   0.753   2.358   3.490  0.2035 -0.4659  0.4803
 2018SOL    HW3 8071   0.678   2.227   3.480 -1.8428  0.6656  0.5912
 2018SOL    MW4 8072   0.687   2.310   3.458 -0.2181  0.3690  0.0832
 2019SOL     OW 8073   0.442   2.469   3.527  0.1659 -0.4640 -0.0727
 2019SOL    HW2 8074   0.523   2.423   3.505  0.3118 -0.7496  1.0343
 2019SOL    HW3 8075   0.373   2.422   3.480  0.5203 -0.8399 -0.2095
 2019SOL    MW4 8076   0.443   2.457   3.518  0.2319 -0.5513  0.0553
 2020SOL     OW 8077   0.483   2.714   3.409  0.1077 -0.2365 -0.2156
 2020SOL    HW2 8078   0.483   2.626   3.446  1.5974 -0.1211  0.0852
 2020SOL    HW3 8079   0.487   2.701   3.314  0.3003 -0.4847 -0.1710
 2020SOL    MW4 8080   0.484   2.701   3.401  0.3296 -0.2540 -0.1700
 2021SOL     OW 8081   0.698   2.809   3.543 -0.1616 -0.7105 -0.3301
 2021SOL    HW2 8082   0.770   2.754   3.511 -0.0392  0.2988 -1.8137
 2021SOL    HW3 8083   0.623   2.783   3.490  0.3632  1.9428 -2.5128
 2021SOL    MW4 8084   0.698   2.798   3.532 -0.0762 -0.2272 -0.8138
 2022SOL     OW 8085   0.738   3.076   3.470 -0.2630  0.1956 -0.1429
 2022SOL    HW2 8086   0.657   3.109   3.509  0.0426  0.2328  0.4639
 2022SOL    HW3 8087   0.730   2.981   3.474 -0.7122  0.1909 -0.9969
 2022SOL    MW4 8088   0.726   3.068   3.475 -0.2820  0.1999 -0.1755
 2023SOL     OW 8089   0.502   3.182   3.553  0.2227 -0.0163  0.3204
 2023SOL    HW2 8090   0.484   3.192   3.647 -1.0533 -0.8911  0.1877
 2023SOL    HW3 8091   0.424   3.137   3.519 -0.5981  2.8159 -1.6640
 2023SOL    MW4 8092   0.489   3.177   3.561 -0.0539  0.2420  0.0411
 2024SOL     OW 8093   0.486   3.431   3.441 -0.1154  0.3053 -0.2478
 2024SOL    HW2 8094   0.493   3.339   3.465 -1.0792 -0.2821 -2.0577
 2024SOL    HW3 8095   0.398   3.457   3.469  0.3698  0.8522  0.7923
 2024SOL    MW4 8096   0.475   3.422   3.448 -0.1785  0.3000 -0.3494
 2025SOL     OW 8097   0.676   3.593   3.588 -0.2805  0.1194  0.1809
 2025SOL    HW2 8098   0.753   3.548   3.555  0.9763  1.8744  0.6563
 2025SOL    HW3 8099   0.602   3.553   3.542  1.1870  0.6535 -2.7061
 2025SOL    MW4 8100   0.676   3.582   3.578  0.0790  0.4214 -0.1372
 2026SOL     OW 8101   0.667   3.848   3.453  0.0331 -0.5027  0.0805
 2026SOL    HW2 8102   0.601   3.898   3.501 -0.1175  0.0575 -0.7094
 2026SOL    HW3 8103   0.667   3.762   3.496 -1.8041 -0.7898 -0.4186
 2026SOL    MW4 8104   0.658   3.843   3.465 -0.2291 -0.4666 -0.0896
 2027SOL     OW 8105   0.476   3.984   3.581 -0.2594  0.1568 -0.1145
 2027SOL    HW2 8106   0.467   4.071   3.543 -0.0774  0.7339  1.1436
 2027SOL    HW3 8107   0.408   3.932   3.538  1.0726  0.3331 -2.4837
 2027SOL    MW4 8108   0.466   3.988   3.571 -0.0596  0.2562 -0.2611
 2028SOL     OW 8109   0.444   4.224   3.429 -0.5831  0.7698 -0.2739
 2028SOL    HW2 8110   0.530   4.260   3.450 -0.2234 -0.6691  0.8095
 2028SOL    HW3 8111   0.446   4.211   3.334  0.7250 -0.0594 -0.1382
 2028SOL    MW4 8112   0.456   4.227   3.419 -0.3630  0.4706 -0.1130
 2029SOL     OW 8113   0.679   4.342   3.527 -0.1097  0.0575 -0.0168
 2029SOL    HW2 8114   0.770   4.315   3.515 -0.3523  0.5956 -3.8039
 2029SOL    HW3 8115   0.678   4.434   3.500 -1.5334  0.4378  1.2776
 2029SOL    MW4 8116   0.691   4.350   3.522 -0.3295  0.1787 -0.3457
 2030SOL     OW 8117   1.179   4.625   3.423 -0.4033  0.0584  0.1135
 2030SOL    HW2 8118   1.258   4.673   3.449 -0.7408  0.3397  0.6344
 2030SOL    HW3 8119   1.172   4.640   3.329  0.0363  0.2282  0.1063
 2030SOL    MW4 8120   1.189   4.633   3.414 -0.3898  0.1179  0.1813
 2031SOL     OW 8121   0.945   0.061   3.559 -0.3802 -0.1125  0.3770
 2031SOL    HW2 8122   0.938   0.030   3.649 -0.0602 -0.6875  0.2071
 2031SOL    HW3 8123   1.026   0.022   3.526  0.0670  0.9584  0.1744
 2031SOL    MW4 8124   0.955   0.052   3.566 -0.2790 -0.0471  0.3279
 2032SOL     OW 8125   0.926   0.334   3.415 -0.1423 -0.2756  0.3861
 2032SOL    HW2 8126   1.000   0.377   3.459  0.8479 -0.5515 -0.9575
 2032SOL    HW3 8127   0.934   0.242   3.438  0.4347 -0.4362 -0.4033
 2032SOL    MW4 8128   0.937   0.328   3.424  0.0645 -0.3332  0.1047
 2033SOL     OW 8129   1.121   0.477   3.541  0.2855  0.5156  0.2278
 2033SOL    HW2 8130   1.113   0.472   3.636 -1.4061  1.2560  0.1372
 2033SOL    HW3 8131   1.088   0.564   3.518 -0.0755  0.0449 -1.1063
 2033SOL    MW4 8132   1.116   0.488   3.550  0.0147  0.5512  0.0399
 2034SOL     OW 8133   1.093   0.745   3.461 -0.2709 -0.1734  0.0500
 2034SOL    HW2 8134   1.173   0.785   3.495 -0.4999  0.1529  0.2048
 2034SOL    HW3 8135   1.022   0.789   3.508 -0.5042 -1.0738  0.5544
 2034SOL    MW4 8136   1.094   0.756   3.472 -0.3319 -0.2492  0.1370
 2035SOL     OW 8137   0.874   0.881   3.578  0.1392 -0.3742  0.0937
 2035SOL    HW2 8138   0.868   0.963   3.527 -0.5142  0.3633  1.3396
 2035SOL    HW3 8139   0.810   0.823   3.537 -0.5600  0.3013  0.2108
 2035SOL    MW4 8140   0.865   0.885   3.566 -0.0393 -0.1877  0.2735
 2036SOL     OW 8141   0.866   1.116   3.420 -0.1654 -0.1245  0.0519
 2036SOL    HW2 8142   0.948   1.157   3.448  0.7202 -2.2267  0.6275
 2036SOL    HW3 8143   0.865   1.127   3.325  0.8303 -0.1624  0.0304
 2036SOL    MW4 8144   0.877   1.123   3.411  0.0828 -0.4069  0.1250
 2037SOL     OW 8145   1.079   1.236   3.552  0.1391 -0.0605 -0.2083
 2037SOL    HW2 8146   1.103   1.228   3.644  0.3237 -0.9239 -0.3277
 2037SOL    HW3 8147   1.087   1.329   3.533  0.0473  0.1274  0.6633
 2037SOL    MW4 8148   1.083   1.247   3.561  0.1513 -0.1496 -0.1091
 2038SOL     OW 8149   1.125   1.477   3.454 -0.5601  0.0295  0.1538
 2038SOL    HW2 8150   1.203   1.531   3.466 -1.5731  1.2854  1.2448
 2038SOL    HW3 8151   1.115   1.469   3.360  1.1711 -0.5849  0.0017
 2038SOL    MW4 8152   1.134   1.483   3.444 -0.4654  0.1141  0.2777
 2039SOL     OW 8153   0.920   1.627   3.526 -0.4668  0.2811  0.2574
 2039SOL    HW2 8154   0.920   1.719   3.500  0.6502  0.7060  1.7421
 2039SOL    HW3 8155   1.001   1.591   3.490 -0.5442  0.0592  0.3020
 2039SOL    MW4 8156   0.930   1.634   3.518 -0.3296  0.3079  0.4591
 2040SOL     OW 8157   0.904   1.888   3.446  0.0587 -0.4140 -0.4049
 2040SOL    HW2 8158   0.983   1.935   3.473 -0.6012  0.9813 -0.8390
 2040SOL    HW3 8159   0.832   1.943   3.477 -0.7179 -0.3687 -2.2038
 2040SOL    MW4 8160   0.905   1.902   3.453 -0.1308 -0.2239 -0.6995
 2041SOL     OW 8161   1.155   2.013   3.536  0.2147 -0.1064 -0.0073
 2041SOL    HW2 8162   1.219   1.980   3.474  0.6591  0.1421  0.3180
 2041SOL    HW3 8163   1.142   2.105   3.511  2.0458  0.6294  1.6145
 2041SOL    MW4 8164   1.161   2.021   3.525  0.5149  0.0235  0.2496
 2042SOL     OW 8165   1.134   2.269   3.415 -0.3313  0.2146 -0.1569
 2042SOL    HW2 8166   1.204   2.327   3.446 -0.7960  1.0822 -0.7127
 2042SOL    HW3 8167   1.143   2.269   3.320 -1.9237  1.4153 -0.3290
 2042SOL    MW4 8168   1.145   2.277   3.407 -0.6027  0.4875 -0.2529
 2043SOL     OW 8169   0.919   2.443   3.545  0.0724 -0.0954 -0.0142
 2043SOL    HW2 8170   0.938   2.436   3.639 -0.4371 -1.6284 -0.0276
 2043SOL    HW3 8171   0.979   2.382   3.503 -0.9996 -0.8014 -0.5349
 2043SOL    MW4 8172   0.929   2.434   3.552 -0.1363 -0.3908 -0.0847
 2044SOL     OW 8173   0.898   2.678   3.399  0.1386  0.3291  0.1566
 2044SOL    HW2 8174   0.961   2.742   3.431  0.1811  0.1322  0.4672
 2044SOL    HW3 8175   0.914   2.600   3.452 -0.3686  0.2815  0.2426
 2044SOL    MW4 8176   0.908   2.676   3.410  0.0773  0.2969  0.2089
 2045SOL     OW 8177   1.086   2.845   3.507 -0.0355  0.3951  0.3439
 2045SOL    HW2 8178   1.085   2.840   3.602  0.6026 -0.6776  0.2967
 2045SOL    HW3 8179   1.172   2.810   3.482  0.1824  1.5422 -0.5778
 2045SOL    MW4 8180   1.097   2.840   3.516  0.0775  0.4049  0.2161
 2046SOL     OW 8181   1.157   3.106   3.422 -0.1332 -0.1464  0.0435
 2046SOL    HW2 8182   1.135   3.018   3.452 -0.4387  0.4274  1.5327
 2046SOL    HW3 8183   1.160   3.098   3.327 -1.4418 -1.4835  0.0831
 2046SOL    MW4 8184   1.154   3.093   3.413 -0.3462 -0.2471  0.2452
 2047SOL     OW 8185   0.949   3.241   3.548  0.0340 -0.3196  0.0528
 2047SOL    HW2 8186   1.026   3.197   3.511 -0.0609  1.4789 -2.4026
 2047SOL    HW3 8187   0.875   3.190   3.518  0.0543  0.2301 -0.9549
 2047SOL    MW4 8188   0.950   3.229   3.539  0.0242 -0.0098 -0.4041
 2048SOL     OW 8189   0.898   3.491   3.453 -0.0521  0.2445  0.6120
 2048SOL    HW2 8190   0.922   3.402   3.479  1.9002  0.9223  1.1902
 2048SOL    HW3 8191   0.917   3.494   3.359 -0.6529 -0.1116  0.4744
 2048SOL    MW4 8192   0.903   3.479   3.444  0.1262  0.2870  0.6701
 2049SOL     OW 8193   1.122   3.627   3.539 -0.0220 -0.1173  0.0557
 2049SOL    HW2 8194   1.122   3.610   3.634 -0.0003 -0.6876 -0.0465
 2049SOL    HW3 8195   1.047   3.578   3.506 -0.1670  0.2760 -0.1869
 2049SOL    MW4 8196   1.112   3.618   3.547 -0.0382 -0.1406  0.0102
 2050SOL     OW 8197   1.152   3.903   3.439 -0.6094 -0.1882  0.4161
 2050SOL    HW2 8198   1.235   3.940   3.469 -0.9849 -0.2051  1.4798
 2050SOL    HW3 8199   1.158   3.810   3.460  0.0281 -0.6326 -1.5904
 2050SOL    MW4 8200   1.164   3.896   3.445 -0.5749 -0.2490  0.2917
 2051SOL     OW 8201   0.906   3.989   3.535  0.1846  0.2029 -0.1985
 2051SOL    HW2 8202   0.990   3.947   3.518 -0.0861 -0.5633  0.3356
 2051SOL    HW3 8203   0.842   3.929   3.496 -0.1249  0.7316 -0.5111
 2051SOL    MW4 8204   0.909   3.976   3.527  0.1080  0.1716 -0.1693
 2052SOL     OW 8205   0.930   4.257   3.459  0.1512  0.4042  0.1182
 2052SOL    HW2 8206   0.915   4.168   3.490  2.6295  0.2451  0.9666
 2052SOL    HW3 8207   0.930   4.250   3.364 -0.0558 -0.4231  0.1762
 2052SOL    MW4 8208   0.928   4.244   3.451  0.4509  0.2741  0.2378
 2053SOL     OW 8209   1.160   4.403   3.574 -0.1659 -0.2806 -0.1665
 2053SOL    HW2 8210   1.082   4.365   3.533 -0.7387  0.6555  0.0568
 2053SOL    HW3 8211   1.172   4.487   3.531  0.9501 -0.5775 -0.4569
 2053SOL    MW4 8212   1.151   4.409   3.563 -0.0942 -0.1963 -0.1753
 2054SOL     OW 8213   1.593   0.001   3.408  0.2666  0.3233  0.5222
 2054SOL    HW2 8214   1.615  -0.088   3.436 -2.4262 -0.9126 -1.1110
 2054SOL    HW3 8215   1.521   0.026   3.466 -0.1571  0.7700 -0.2041
 2054SOL    MW4 8216   1.587  -0.007   3.420 -0.1446  0.2191  0.2109
 2055SOL     OW 8217   1.381   0.106   3.544 -0.1616 -0.5236  0.7591
 2055SOL    HW2 8218   1.371   0.101   3.639  0.4869 -0.3230  0.8461
 2055SOL    HW3 8219   1.375   0.200   3.524  0.9100 -0.4442  0.7574
 2055SOL    MW4 8220   1.379   0.118   3.554  0.0653 -0.4866  0.7703
 2056SOL     OW 8221   1.346   0.370   3.446 -0.7086 -0.1370 -0.2026
 2056SOL    HW2 8222   1.429   0.412   3.472 -0.4680 -0.4790 -0.4185
 2056SOL    HW3 8223   1.279   0.428   3.481 -0.3757  0.3616 -0.3752
 2056SOL    MW4 8224   1.348   0.383   3.454 -0.6329 -0.1164 -0.2539
 2057SOL     OW 8225   1.580   0.502   3.530  0.0713  0.4272 -0.1395
 2057SOL    HW2 8226   1.559   0.474   3.619  0.6877  0.6443  0.0745
 2057SOL    HW3 8227   1.663   0.458   3.509 -1.0327 -1.1539 -1.3200
 2057SOL    MW4 8228   1.588   0.493   3.539  0.0070  0.2472 -0.2670
 2058SOL     OW 8229   1.568   0.764   3.448 -0.1142 -0.1265  0.0248
 2058SOL    HW2 8230   1.484   0.803   3.473  0.7897  1.4243  0.6662
 2058SOL    HW3 8231   1.567   0.678   3.491 -0.5651  0.6441  1.6090
 2058SOL    MW4 8232   1.557   0.758   3.457 -0.0544  0.1797  0.3185
 2059SOL     OW 8233   1.342   0.884   3.530  0.1584  0.2378  0.1982
 2059SOL    HW2 8234   1.348   0.894   3.625 -2.2906 -1.3969  0.5663
 2059SOL    HW3 8235   1.333   0.973   3.496 -1.0190  0.6877  1.6695
 2059SOL    MW4 8236   1.342   0.897   3.538 -0.3200  0.0815  0.4409
 2060SOL     OW 8237   1.334   1.130   3.427 -0.5203  0.1898 -0.4243
 2060SOL    HW2 8238   1.408   1.171   3.472 -0.6822 -1.2177  1.1735
 2060SOL    HW3 8239   1.257   1.174   3.463 -0.6411 -0.8398  0.6245
 2060SOL    MW4 8240   1.333   1.142   3.438 -0.5576 -0.1317 -0.0751
 2061SOL     OW 8241   1.546   1.239   3.565 -0.1497  0.4298  0.0968
 2061SOL    HW2 8242   1.570   1.266   3.654  1.1346 -0.1288 -0.0669
 2061SOL    HW3 8243   1.629   1.209   3.527 -1.1774 -1.8662 -0.3680
 2061SOL    MW4 8244   1.560   1.239   3.572 -0.1159  0.0532  0.0139
 2062SOL     OW 8245   1.609   1.498   3.463  0.3493 -0.0924  0.4358
 2062SOL    HW2 8246   1.596   1.409   3.497  0.5387 -0.5097 -0.5567
 2062SOL    HW3 8247   1.619   1.486   3.368  0.2796  0.9997  0.2841
 2062SOL    MW4 8248   1.609   1.484   3.455  0.3651 -0.0033  0.2848
 2063SOL     OW 8249   1.355   1.622   3.506  0.2375 -0.1240 -0.2511
 2063SOL    HW2 8250   1.347   1.628   3.602 -1.0953 -0.5232 -0.3277
 2063SOL    HW3 8251   1.437   1.575   3.492 -0.3055 -1.4016  0.7328
 2063SOL    MW4 8252   1.364   1.616   3.517 -0.0100 -0.3452 -0.1314
 2064SOL     OW 8253   1.352   1.892   3.411  0.2843  0.2399 -0.6047
 2064SOL    HW2 8254   1.422   1.948   3.444 -1.2324  1.6997  0.2210
 2064SOL    HW3 8255   1.366   1.808   3.454  1.2215  0.6740 -0.0556
 2064SOL    MW4 8256   1.363   1.888   3.421  0.2078  0.4898 -0.4233
 2065SOL     OW 8257   1.571   2.022   3.491 -0.0313  0.0393 -0.5157
 2065SOL    HW2 8258   1.645   1.983   3.445  1.6122  2.2559  0.1962
 2065SOL    HW3 8259   1.563   2.110   3.453 -0.9710  0.5687  0.8665
 2065SOL    MW4 8260   1.579   2.029   3.480  0.0615  0.4016 -0.2394
 2066SOL     OW 8261   1.555   2.302   3.407 -0.2317 -0.1476 -0.5464
 2066SOL    HW2 8262   1.476   2.351   3.429  1.1283  2.1248 -0.6587
 2066SOL    HW3 8263   1.567   2.315   3.313  1.1689  0.8777 -0.2363
 2066SOL    MW4 8264   1.546   2.310   3.398  0.1325  0.2875 -0.5203
 2067SOL     OW 8265   1.323   2.449   3.502 -0.0993  0.6896 -0.1876
 2067SOL    HW2 8266   1.353   2.451   3.593  2.7015  0.4421 -1.0625
 2067SOL    HW3 8267   1.317   2.542   3.477 -0.0823  0.7464  0.0181
 2067SOL    MW4 8268   1.326   2.462   3.511  0.2725  0.6644 -0.2759
 2068SOL     OW 8269   1.330   2.719   3.405  0.3671 -0.2275  0.1741
 2068SOL    HW2 8270   1.408   2.765   3.437  0.6500 -1.6704  1.6356
 2068SOL    HW3 8271   1.350   2.701   3.313  1.5400 -0.1113  0.3887
 2068SOL    MW4 8272   1.343   2.723   3.398  0.5592 -0.4025  0.3952
 2069SOL     OW 8273   1.571   2.826   3.481 -0.4314 -0.0075 -0.1674
 2069SOL    HW2 8274   1.655   2.785   3.462 -0.7052 -1.2747  1.2733
 2069SOL    HW3 8275   1.579   2.915   3.446  1.8095  0.1500  0.7075
 2069SOL    MW4 8276   1.583   2.833   3.474 -0.1719 -0.1539  0.1382
 2070SOL     OW 8277   1.555   3.105   3.430 -0.1918 -0.2368 -0.1452
 2070SOL    HW2 8278   1.636   3.147   3.461 -0.5217  0.7552 -0.6038
 2070SOL    HW3 8279   1.486   3.150   3.479 -0.4454 -1.3955  0.5804
 2070SOL    MW4 8280   1.557   3.117   3.441 -0.2688 -0.2588 -0.1099
 2071SOL     OW 8281   1.345   3.287   3.529 -0.2938  0.2664  0.0819
 2071SOL    HW2 8282   1.329   3.283   3.623  0.8263  0.0043  0.2625
 2071SOL    HW3 8283   1.277   3.231   3.492 -0.1750 -0.3761  0.8111
 2071SOL    MW4 8284   1.334   3.279   3.537 -0.1304  0.1470  0.2019
 2072SOL     OW 8285   1.358   3.545   3.412  0.0087 -0.0110  0.0955
 2072SOL    HW2 8286   1.353   3.460   3.457  0.4235 -0.0560  0.0536
 2072SOL    HW3 8287   1.276   3.589   3.436 -1.0408 -1.1363 -1.3235
 2072SOL    MW4 8288   1.346   3.539   3.422 -0.0751 -0.1654 -0.0972
 2073SOL     OW 8289   1.619   3.628   3.510  0.0263  0.2575  0.0876
 2073SOL    HW2 8290   1.616   3.619   3.606 -0.2480 -0.1093  0.0468
 2073SOL    HW3 8291   1.532   3.602   3.481  0.6421 -1.3053 -0.4014
 2073SOL    MW4 8292   1.607   3.623   3.519  0.0714  0.0029  0.0177
 2074SOL     OW 8293   1.600   3.885   3.425 -0.2230  0.0461 -0.3679
 2074SOL    HW2 8294   1.595   3.797   3.461 -3.2971  0.2573 -0.1250
 2074SOL    HW3 8295   1.605   3.872   3.330 -1.3296 -0.3965 -0.3727
 2074SOL    MW4 8296   1.600   3.872   3.417 -0.7746  0.0156 -0.3364
 2075SOL     OW 8297   1.379   4.031   3.531  0.1072  0.1660  0.6613
 2075SOL    HW2 8298   1.392   4.119   3.495 -0.5840  0.7350  1.7764
 2075SOL    HW3 8299   1.452   3.979   3.495  1.5333  1.6198  1.3995
 2075SOL    MW4 8300   1.390   4.036   3.521  0.2042  0.4329  0.9058
 2076SOL     OW 8301   1.391   4.294   3.428  0.1284 -0.0518 -0.3446
 2076SOL    HW2 8302   1.309   4.323   3.467  0.5150  0.3628  0.1786
 2076SOL    HW3 8303   1.368   4.270   3.338 -0.3187  1.4061 -0.6425
 2076SOL    MW4 8304   1.377   4.295   3.421  0.1204  0.1953 -0.3149
 2077SOL     OW 8305   1.622   4.417   3.517  0.1669  0.4182  0.2464
 2077SOL    HW2 8306   1.692   4.366   3.477 -0.9310 -0.4869 -0.5400
 2077SOL    HW3 8307   1.542   4.383   3.478 -0.7626  1.0373  1.5760
 2077SOL    MW4 8308   1.621   4.406   3.507 -0.1006  0.3805  0.3180
 2078SOL     OW 8309   2.060   4.665   3.393 -0.0390  0.0238  0.2141
 2078SOL    HW2 8310   2.132   4.685   3.453  0.6510 -0.3551 -0.4822
 2078SOL    HW3 8311   1.986   4.716   3.427  0.6367  0.6575  0.7552
 2078SOL    MW4 8312   2.060   4.675   3.405  0.1412  0.0574  0.1936
 2079SOL     OW 8313   1.837   0.116   3.514 -0.0747 -0.4510 -0.1276
 2079SOL    HW2 8314   1.822   0.117   3.609  0.1782  0.3388 -0.0958
 2079SOL    HW3 8315   1.762   0.068   3.479 -1.1071  0.8194  0.3072
 2079SOL    MW4 8316   1.825   0.110   3.522 -0.1775 -0.1792 -0.0660
 2080SOL     OW 8317   1.819   0.398   3.434 -0.2375 -0.0087 -0.4358
 2080SOL    HW2 8318   1.816   0.305   3.457  0.0146  0.0793 -0.0356
 2080SOL    HW3 8319   1.808   0.400   3.339 -0.2950 -0.4448 -0.4388
 2080SOL    MW4 8320   1.817   0.386   3.425 -0.2118 -0.0546 -0.3834
 2081SOL     OW 8321   2.050   0.519   3.549 -0.5742 -0.0739  0.3064
 2081SOL    HW2 8322   2.040   0.608   3.514 -1.3590 -0.3132 -0.0778
 2081SOL    HW3 8323   1.981   0.468   3.506  0.3102 -1.0313  0.0060
 2081SOL    MW4 8324   2.039   0.524   3.539 -0.5611 -0.2318  0.2161
 2082SOL     OW 8325   2.007   0.755   3.402  0.1706  0.3358 -0.2054
 2082SOL    HW2 8326   2.077   0.798   3.451  0.1505  0.0303  0.0833
 2082SOL    HW3 8327   2.043   0.745   3.314 -0.1226  1.7005 -0.4987
 2082SOL    MW4 8328   2.021   0.760   3.396  0.1292  0.4755 -0.2060
 2083SOL     OW 8329   1.798   0.870   3.555  0.0742  0.1006 -0.2355
 2083SOL    HW2 8330   1.869   0.827   3.508  0.5824 -0.1846  0.7758
 2083SOL    HW3 8331   1.719   0.821   3.530  0.4052 -0.3378 -0.4267
 2083SOL    MW4 8332   1.797   0.858   3.545  0.1849  0.0051 -0.1273
 2084SOL     OW 8333   1.785   1.136   3.432 -0.1228  0.0779  0.4726
 2084SOL    HW2 8334   1.859   1.177   3.477 -0.9619  0.9941  1.0369
 2084SOL    HW3 8335   1.787   1.045   3.461  0.2597  0.3040  1.1706
 2084SOL    MW4 8336   1.795   1.129   3.442 -0.1830  0.2286  0.6392
 2085SOL     OW 8337   2.014   1.288   3.515  0.0165  0.4249 -0.1614
 2085SOL    HW2 8338   2.013   1.311   3.608 -0.6729  0.4716 -0.1742
 2085SOL    HW3 8339   2.023   1.372   3.469  0.8077  0.3604 -0.1265
 2085SOL    MW4 8340   2.015   1.302   3.521  0.0300  0.4226 -0.1585
 2086SOL     OW 8341   2.073   1.534   3.414  0.1043 -0.0276 -0.1742
 2086SOL    HW2 8342   2.156   1.565   3.451 -0.4343  0.4030  0.6763
 2086SOL    HW3 8343   2.014   1.608   3.422  0.0366  0.1585 -2.1533
 2086SOL    MW4 8344   2.076   1.548   3.420  0.0243  0.0538 -0.3231
 2087SOL     OW 8345   1.836   1.651   3.524  0.0624 -0.1196  0.0549
 2087SOL    HW2 8346   1.819   1.735   3.482  0.8216 -0.6660 -1.3729
 2087SOL    HW3 8347   1.767   1.593   3.493  0.3841 -0.4169 -0.1104
 2087SOL    MW4 8348   1.825   1.654   3.515  0.2050 -0.2309 -0.1553
 2088SOL     OW 8349   1.792   1.886   3.395 -0.6781 -0.4804 -0.2984
 2088SOL    HW2 8350   1.853   1.944   3.441 -0.5562 -1.4880  0.8496
 2088SOL    HW3 8351   1.797   1.913   3.304 -0.7116  1.3995  0.2281
 2088SOL    MW4 8352   1.801   1.897   3.389 -0.6664 -0.3653 -0.0774
 2089SOL     OW 8353   1.976   2.075   3.520 -0.4657  0.1827 -0.0474
 2089SOL    HW2 8354   2.059   2.030   3.506 -0.4979  0.1019  0.0188
 2089SOL    HW3 8355   1.981   2.154   3.466  0.5054  1.2340  1.5420
 2089SOL    MW4 8356   1.988   2.080   3.511 -0.3418  0.3107  0.1710
 2090SOL     OW 8357   2.001   2.322   3.418  0.3870 -0.3839 -0.1216
 2090SOL    HW2 8358   2.066   2.374   3.466  0.4295  1.2088 -1.8446
 2090SOL    HW3 8359   2.031   2.324   3.327 -1.7755 -0.0652 -0.8583
 2090SOL    MW4 8360   2.014   2.329   3.413  0.1073 -0.1317 -0.4461
 2091SOL     OW 8361   1.759   2.454   3.507 -0.0664 -0.0027 -0.2051
 2091SOL    HW2 8362   1.832   2.406   3.469  0.7024 -0.0687  1.3301
 2091SOL    HW3 8363   1.681   2.409   3.474  0.6091 -0.9374 -0.5538
 2091SOL    MW4 8364   1.758   2.442   3.498  0.1242 -0.1347 -0.0486
 2092SOL     OW 8365   1.809   2.698   3.395  0.2197  0.4207  0.0720
 2092SOL    HW2 8366   1.869   2.756   3.443 -0.8130  1.5737  0.0021
 2092SOL    HW3 8367   1.809   2.617   3.445  2.1676  0.2449 -0.1605
 2092SOL    MW4 8368   1.817   2.695   3.408  0.3404  0.5496  0.0321
 2093SOL     OW 8369   1.986   2.831   3.547 -0.0095  0.2347 -0.5775
 2093SOL    HW2 8370   2.002   2.825   3.642 -0.1167 -1.4498 -0.6517
 2093SOL    HW3 8371   2.017   2.918   3.523  0.8765  0.3310  0.8547
 2093SOL    MW4 8372   1.992   2.842   3.557  0.0932  0.0252 -0.3983
 2094SOL     OW 8373   2.064   3.065   3.429 -0.6451 -0.1380 -0.0043
 2094SOL    HW2 8374   2.137   3.113   3.467 -1.5503  1.3904 -0.1724
 2094SOL    HW3 8375   1.985   3.110   3.459 -1.4078  0.9265 -3.3141
 2094SOL    MW4 8376   2.063   3.077   3.438 -0.8652  0.2041 -0.4632
 2095SOL     OW 8377   1.800   3.183   3.500 -0.2947 -0.5885  0.1072
 2095SOL    HW2 8378   1.812   3.198   3.594 -0.4318  1.6455 -0.1984
 2095SOL    HW3 8379   1.819   3.268   3.460  0.5277 -1.7068 -1.9665
 2095SOL    MW4 8380   1.804   3.196   3.507 -0.2042 -0.4413 -0.2067
 2096SOL     OW 8381   1.809   3.452   3.428  0.2230  0.2909  0.4450
 2096SOL    HW2 8382   1.735   3.509   3.446  0.4637  0.3528  1.2512
 2096SOL    HW3 8383   1.811   3.445   3.333  1.1169  2.8614  0.2359
 2096SOL    MW4 8384   1.800   3.459   3.418  0.3727  0.6382  0.5238
 2097SOL     OW 8385   2.027   3.607   3.483 -0.6027  0.0085  0.0297
 2097SOL    HW2 8386   2.102   3.557   3.453  1.3865  2.6769  0.3633
 2097SOL    HW3 8387   1.951   3.553   3.460  1.3491 -2.3921 -0.9913
 2097SOL    MW4 8388   2.027   3.593   3.476 -0.0827  0.0438 -0.0610
 2098SOL     OW 8389   2.038   3.860   3.360  0.2061 -0.3514  0.0439
 2098SOL    HW2 8390   1.965   3.898   3.409  1.2224  0.3025  1.0795
 2098SOL    HW3 8391   2.043   3.769   3.391 -0.6689 -0.6369 -0.6269
 2098SOL    MW4 8392   2.029   3.853   3.370  0.2247 -0.3028  0.0920
 2099SOL     OW 8393   1.841   3.995   3.513  0.4523  0.4973 -0.2953
 2099SOL    HW2 8394   1.823   3.986   3.607 -1.1282  2.1726 -0.4002
 2099SOL    HW3 8395   1.758   3.971   3.471  0.8473  0.6998 -1.2008
 2099SOL    MW4 8396   1.828   3.991   3.520  0.2959  0.7451 -0.4286
 2100SOL     OW 8397   1.826   4.266   3.409 -0.4516 -0.2944 -0.6869
 2100SOL    HW2 8398   1.840   4.183   3.454  0.6629 -0.4098 -1.2540
 2100SOL    HW3 8399   1.821   4.244   3.316 -1.3871  0.1216 -0.7494
 2100SOL    MW4 8400   1.827   4.252   3.403 -0.4280 -0.2548 -0.7700
 2101SOL     OW 8401   2.044   4.412   3.500  0.4464 -0.1024  0.3484
 2101SOL    HW2 8402   1.966   4.370   3.463  0.5036 -0.0007  0.1088
 2101SOL    HW3 8403   2.039   4.502   3.470 -0.0403  0.2458  1.4531
 2101SOL    MW4 8404   2.033   4.418   3.491  0.3897 -0.0430  0.4625
 2102SOL     OW 8405   2.491   0.028   3.427 -0.1017 -0.1648  0.6304
 2102SOL    HW2 8406   2.480  -0.061   3.462 -2.0200  0.0520  0.6568
 2102SOL    HW3 8407   2.498   0.016   3.332  1.0581 -0.4391  0.7429
 2102SOL    MW4 8408   2.490   0.015   3.419 -0.2018 -0.1724  0.6487
 2103SOL     OW 8409   2.263   0.116   3.539 -0.0429  0.4497 -0.6202
 2103SOL    HW2 8410   2.251   0.207   3.510 -0.3781  0.7409  0.3819
 2103SOL    HW3 8411   2.347   0.089   3.502 -0.0192  1.1203 -1.0572
 2103SOL    MW4 8412   2.272   0.125   3.530 -0.0840  0.5766 -0.5457
 2104SOL     OW 8413   2.247   0.361   3.430 -0.3189 -0.4682  0.2824
 2104SOL    HW2 8414   2.327   0.412   3.443 -1.3909  1.3161  0.0228
 2104SOL    HW3 8415   2.178   0.414   3.470 -1.6361 -1.1600 -1.0290
 2104SOL    MW4 8416   2.249   0.374   3.437 -0.6341 -0.3241  0.0752
 2105SOL     OW 8417   2.502   0.488   3.528 -0.4222 -0.1108  0.1841
 2105SOL    HW2 8418   2.581   0.450   3.490 -0.6334 -0.7298  0.3540
 2105SOL    HW3 8419   2.487   0.568   3.478  1.7164  1.3309  1.7609
 2105SOL    MW4 8420   2.510   0.494   3.517 -0.1679 -0.0022  0.4145
 2106SOL     OW 8421   2.445   0.746   3.396  0.1912 -0.0409  0.1136
 2106SOL    HW2 8422   2.510   0.805   3.433 -0.8645  1.0308  0.2913
 2106SOL    HW3 8423   2.467   0.741   3.303  1.3726 -0.8123  0.4238
 2106SOL    MW4 8424   2.457   0.753   3.389  0.2077 -0.0013  0.1780
 2107SOL     OW 8425   2.219   0.894   3.522 -0.4761 -0.7615 -0.1433
 2107SOL    HW2 8426   2.231   0.984   3.492  1.0134 -1.0131 -0.3257
 2107SOL    HW3 8427   2.287   0.844   3.477 -0.3509 -1.7242  1.0738
 2107SOL    MW4 8428   2.229   0.900   3.512 -0.2631 -0.9217 -0.0068
 2108SOL     OW 8429   2.258   1.158   3.446 -0.1251 -0.1373  0.2638
 2108SOL    HW2 8430   2.331   1.215   3.469  0.0829 -1.2151  2.4334
 2108SOL    HW3 8431   2.180   1.205   3.476 -0.0520 -0.4192  0.9071
 2108SOL    MW4 8432   2.257   1.171   3.453 -0.0880 -0.3167  0.6349
 2109SOL     OW 8433   2.489   1.317   3.527  0.2728  0.3784  0.3814
 2109SOL    HW2 8434   2.479   1.286   3.617 -1.0069 -1.2710 -0.3031
 2109SOL    HW3 8435   2.540   1.248   3.483 -1.7429 -0.3377 -0.9059
 2109SOL    MW4 8436   2.495   1.303   3.533 -0.1620  0.0663  0.1212
 2110SOL     OW 8437   2.511   1.570   3.426  0.1515 -0.2470 -0.5169
 2110SOL    HW2 8438   2.517   1.494   3.484 -1.0956  0.2704  0.3289
 2110SOL    HW3 8439   2.484   1.534   3.342 -1.7329 -0.6295  0.2216
 2110SOL    MW4 8440   2.508   1.556   3.423 -0.2617 -0.2292 -0.3079
 2111SOL     OW 8441   2.285   1.707   3.556  0.1331  0.1862 -0.5523
 2111SOL    HW2 8442   2.263   1.681   3.646 -0.0520  0.7543 -0.4283
 2111SOL    HW3 8443   2.363   1.656   3.535  1.1252  1.2143  0.5124
 2111SOL    MW4 8444   2.293   1.697   3.565  0.2396  0.3968 -0.3954
 2112SOL     OW 8445   2.228   1.967   3.443  0.7245  0.2153 -0.0676
 2112SOL    HW2 8446   2.228   1.876   3.473 -0.7024  0.2873  0.2053
 2112SOL    HW3 8447   2.230   1.961   3.348  0.2266 -0.1117 -0.0609
 2112SOL    MW4 8448   2.228   1.954   3.435  0.4706  0.1817 -0.0307
 2113SOL     OW 8449   2.495   1.997   3.544  0.2466 -0.2215  0.5184
 2113SOL    HW2 8450   2.496   2.008   3.639  1.9153  0.1071  0.4886
 2113SOL    HW3 8451   2.403   1.990   3.521 -0.1305 -1.5490  2.3116
 2113SOL    MW4 8452   2.483   1.998   3.554  0.4170 -0.3533  0.7510
 2114SOL     OW 8453   2.455   2.266   3.448 -0.2877 -0.1708  0.5459
 2114SOL    HW2 8454   2.540   2.306   3.431  0.3999 -1.8583 -0.1904
 2114SOL    HW3 8455   2.477   2.177   3.476 -1.7922 -0.4506  0.8350
 2114SOL    MW4 8456   2.469   2.259   3.449 -0.3955 -0.4304  0.4869
 2115SOL     OW 8457   2.221   2.428   3.549  0.2679 -0.5271 -0.2394
 2115SOL    HW2 8458   2.234   2.508   3.499 -2.2647 -0.8137 -1.4316
 2115SOL    HW3 8459   2.294   2.372   3.524  1.5683  1.0590 -0.0626
 2115SOL    MW4 8460   2.232   2.431   3.539  0.1053 -0.3556 -0.3733
 2116SOL     OW 8461   2.222   2.695   3.450 -0.0580  0.4302  0.0108
 2116SOL    HW2 8462   2.141   2.740   3.471 -0.8418 -0.1840 -1.6367
 2116SOL    HW3 8463   2.233   2.706   3.355  0.1927 -2.0395 -0.2809
 2116SOL    MW4 8464   2.213   2.702   3.440 -0.1283  0.0233 -0.2450
 2117SOL     OW 8465   2.454   2.816   3.502  0.0406  0.1216  0.1537
 2117SOL    HW2 8466   2.453   2.905   3.466 -0.7424 -0.0659 -0.2863
 2117SOL    HW3 8467   2.366   2.783   3.488  0.0374 -0.3670  1.2398
 2117SOL    MW4 8468   2.442   2.823   3.496 -0.0631  0.0324  0.2389
 2118SOL     OW 8469   2.478   3.096   3.422  0.0376  0.5482 -0.3535
 2118SOL    HW2 8470   2.557   3.135   3.461 -0.2594  0.3515  0.4453
 2118SOL    HW3 8471   2.499   3.087   3.329  1.1068  0.1233 -0.0729
 2118SOL    MW4 8472   2.491   3.100   3.415  0.1394  0.4662 -0.2111
 2119SOL     OW 8473   2.263   3.247   3.522  0.2449 -0.6714 -0.3186
 2119SOL    HW2 8474   2.246   3.250   3.616  0.0342 -2.4628 -0.2865
 2119SOL    HW3 8475   2.336   3.186   3.511 -0.1429 -0.9714 -1.3680
 2119SOL    MW4 8476   2.270   3.240   3.533  0.1660 -0.9474 -0.4528
 2120SOL     OW 8477   2.274   3.498   3.411 -0.2676  0.4034  0.4695
 2120SOL    HW2 8478   2.266   3.409   3.447  0.2980  0.4150  0.6262
 2120SOL    HW3 8479   2.262   3.486   3.317  0.1056  0.1136  0.4546
 2120SOL    MW4 8480   2.272   3.485   3.404 -0.1438  0.3667  0.4882
 2121SOL     OW 8481   2.502   3.602   3.531 -0.0638  0.4603 -0.5537
 2121SOL    HW2 8482   2.506   3.687   3.487  0.5783  0.8461  0.2306
 2121SOL    HW3 8483   2.426   3.558   3.492  0.3446  0.8789 -1.8625
 2121SOL    MW4 8484   2.492   3.607   3.520  0.0748  0.5665 -0.6229
 2122SOL     OW 8485   2.466   3.865   3.420  0.0688 -0.3289  0.1362
 2122SOL    HW2 8486   2.539   3.918   3.452  0.3853 -2.1038  2.5826
 2122SOL    HW3 8487   2.388   3.903   3.462 -0.1350  0.2243 -0.7378
 2122SOL    MW4 8488   2.465   3.877   3.430  0.0837 -0.4901  0.3436
 2123SOL     OW 8489   2.242   3.990   3.487 -0.3993  0.3094  0.5145
 2123SOL    HW2 8490   2.241   4.082   3.462 -1.0923  1.0242  3.1180
 2123SOL    HW3 8491   2.168   3.952   3.439 -0.8655  1.3654  0.3847
 2123SOL    MW4 8492   2.232   3.997   3.477 -0.5523  0.5430  0.8409
 2124SOL     OW 8493   2.245   4.254   3.409  0.2925 -0.0348  0.1518
 2124SOL    HW2 8494   2.171   4.308   3.437  1.0148  1.4521 -0.7397
 2124SOL    HW3 8495   2.241   4.256   3.313  1.2167 -0.3363  0.1042
 2124SOL    MW4 8496   2.235   4.261   3.400  0.5097  0.1216  0.0279
 2125SOL     OW 8497   2.454   4.422   3.498 -0.0086 -0.5635 -0.0407
 2125SOL    HW2 8498   2.467   4.389   3.586 -1.3495  0.9121  0.7500
 2125SOL    HW3 8499   2.380   4.372   3.463 -1.0015  0.4631  0.5615
 2125SOL    MW4 8500   2.446   4.411   3.505 -0.3165 -0.2334  0.1431
 2126SOL     OW 8501   2.947   4.642   3.435 -0.8038 -0.7160  0.1691
 2126SOL    HW2 8502   2.871   4.679   3.480  0.2602 -0.2990  1.6489
 2126SOL    HW3 8503   2.932   4.662   3.342 -0.8963  2.2633  0.7831
 2126SOL    MW4 8504   2.935   4.650   3.428 -0.6756 -0.2679  0.4453
 2127SOL     OW 8505   2.741   0.139   3.503  0.0990  0.3155  0.2621
 2127SOL    HW2 8506   2.748   0.219   3.451  1.1872  0.5453  0.7477
 2127SOL    HW3 8507   2.663   0.095   3.469 -0.5728  1.6260  0.0530
 2127SOL    MW4 8508   2.731   0.144   3.492  0.1539  0.5187  0.2986
 2128SOL     OW 8509   2.743   0.382   3.387  0.3901 -0.4272  0.2952
 2128SOL    HW2 8510   2.824   0.432   3.391  0.2279 -0.2160  1.0444
 2128SOL    HW3 8511   2.718   0.384   3.295  0.7415  0.3038  0.2115
 2128SOL    MW4 8512   2.750   0.389   3.375  0.4151 -0.3029  0.3830
 2129SOL     OW 8513   2.968   0.533   3.500  0.5632  0.2359 -0.0621
 2129SOL    HW2 8514   2.975   0.544   3.594  0.5625 -0.0559 -0.0261
 2129SOL    HW3 8515   2.951   0.621   3.466 -0.7770  0.1490  0.3378
 2129SOL    MW4 8516   2.966   0.546   3.508  0.3863  0.1859 -0.0046
 2130SOL     OW 8517   2.915   0.773   3.392  0.0960 -0.3499  0.4810
 2130SOL    HW2 8518   2.983   0.810   3.448 -0.2150  0.6589  0.1888
 2130SOL    HW3 8519   2.835   0.815   3.420 -0.4916 -1.8588  1.1175
 2130SOL    MW4 8520   2.914   0.783   3.403 -0.0226 -0.4159  0.5264
 2131SOL     OW 8521   2.673   0.864   3.497  0.3323 -0.4709 -0.3793
 2131SOL    HW2 8522   2.677   0.863   3.593 -0.1770  0.3901 -0.3496
 2131SOL    HW3 8523   2.679   0.956   3.473  1.2444 -0.7283 -1.2217
 2131SOL    MW4 8524   2.675   0.876   3.506  0.3854 -0.3913 -0.4865
 2132SOL     OW 8525   2.665   1.124   3.422 -0.0678  0.1637 -0.0890
 2132SOL    HW2 8526   2.740   1.165   3.466 -0.3489 -0.0220  0.5625
 2132SOL    HW3 8527   2.684   1.135   3.329  0.5892  0.4512  0.0726
 2132SOL    MW4 8528   2.677   1.131   3.415 -0.0182  0.1772  0.0183
 2133SOL     OW 8529   2.907   1.253   3.517  0.3358  0.9790 -0.3626
 2133SOL    HW2 8530   2.896   1.267   3.611  0.7400 -0.7911 -0.0264
 2133SOL    HW3 8531   2.972   1.182   3.511  0.1617  0.9338 -1.9699
 2133SOL    MW4 8532   2.914   1.245   3.529  0.3662  0.7395 -0.5303
 2134SOL     OW 8533   2.964   1.519   3.404 -0.2137 -0.2054  0.5559
 2134SOL    HW2 8534   2.886   1.567   3.430  0.1117  0.2958  0.6125
 2134SOL    HW3 8535   2.954   1.432   3.444 -0.7622 -0.1578  0.5185
 2134SOL    MW4 8536   2.953   1.514   3.413 -0.2431 -0.1330  0.5585
 2135SOL     OW 8537   2.774   1.695   3.467 -0.3431  0.5383  0.6384
 2135SOL    HW2 8538   2.766   1.788   3.446 -0.6003  0.4989  0.5612
 2135SOL    HW3 8539   2.690   1.656   3.439  0.5662 -0.0957 -1.3045
 2135SOL    MW4 8540   2.762   1.702   3.460 -0.2571  0.4495  0.3718
 2136SOL     OW 8541   2.733   1.965   3.385 -0.3090  0.0668  0.1487
 2136SOL    HW2 8542   2.655   1.968   3.440 -1.1964  0.2996 -1.1078
 2136SOL    HW3 8543   2.700   1.954   3.296  1.0528  1.1145 -0.5060
 2136SOL    MW4 8544   2.718   1.964   3.380 -0.2464  0.2358 -0.1035
 2137SOL     OW 8545   2.943   2.043   3.515  0.0366 -0.0695 -0.0905
 2137SOL    HW2 8546   2.929   2.044   3.610  1.9254  0.5351  0.2021
 2137SOL    HW3 8547   2.863   2.004   3.479 -0.7250 -0.2308  1.7427
 2137SOL    MW4 8548   2.931   2.038   3.523  0.1853 -0.0110  0.1900
 2138SOL     OW 8549   2.939   2.329   3.409 -0.2469 -0.2762  0.0398
 2138SOL    HW2 8550   2.940   2.236   3.433  0.6924 -0.3004 -0.0667
 2138SOL    HW3 8551   2.926   2.329   3.314  1.6349 -0.3668 -0.2284
 2138SOL    MW4 8552   2.937   2.317   3.400  0.1253 -0.2913 -0.0096
 2139SOL     OW 8553   2.695   2.450   3.457  0.1426 -0.7134  0.2798
 2139SOL    HW2 8554   2.676   2.447   3.551  1.1694  2.2647  0.6414
 2139SOL    HW3 8555   2.788   2.426   3.451  0.7612  1.4648  0.3557
 2139SOL    MW4 8556   2.705   2.447   3.469  0.3597 -0.0331  0.3376
 2140SOL     OW 8557   2.686   2.714   3.393  0.1993 -0.2331 -0.3659
 2140SOL    HW2 8558   2.701   2.622   3.413  0.8221  0.2442  1.4344
 2140SOL    HW3 8559   2.603   2.736   3.435  0.2623  0.1453 -0.4282
 2140SOL    MW4 8560   2.677   2.705   3.401  0.2898 -0.1202 -0.1366
 2141SOL     OW 8561   2.948   2.811   3.498 -0.0023 -0.4733  0.1983
 2141SOL    HW2 8562   2.926   2.795   3.590  0.6101  1.2848  0.6749
 2141SOL    HW3 8563   2.867   2.792   3.450 -1.0553  0.9300  1.3676
 2141SOL    MW4 8564   2.934   2.806   3.504 -0.0604 -0.0562  0.4154
 2142SOL     OW 8565   2.916   3.081   3.445  0.0155  0.7340 -0.0938
 2142SOL    HW2 8566   2.934   2.991   3.470  1.1776  1.0593  0.2558
 2142SOL    HW3 8567   2.910   3.080   3.350  1.8034  0.6083 -0.2080
 2142SOL    MW4 8568   2.917   3.069   3.436  0.4047  0.7603 -0.0627
 2143SOL     OW 8569   2.713   3.240   3.528  0.0236 -0.3483 -0.2512
 2143SOL    HW2 8570   2.717   3.253   3.623  1.5000  0.3214 -0.3764
 2143SOL    HW3 8571   2.794   3.192   3.508  0.3333  0.6037 -1.3183
 2143SOL    MW4 8572   2.724   3.235   3.538  0.2593 -0.1343 -0.4085
 2144SOL     OW 8573   2.724   3.493   3.429  0.1906  0.0854  0.2995
 2144SOL    HW2 8574   2.734   3.400   3.453  0.8474  0.5827  2.0649
 2144SOL    HW3 8575   2.639   3.518   3.466 -0.1259  0.1219 -0.4403
 2144SOL    MW4 8576   2.714   3.484   3.437  0.2355  0.1559  0.4348
 2145SOL     OW 8577   2.947   3.622   3.518  0.2978  0.3435  0.1945
 2145SOL    HW2 8578   2.936   3.703   3.467 -0.5874  0.1909  0.1398
 2145SOL    HW3 8579   2.863   3.577   3.510  0.7292 -0.4966  0.3810
 2145SOL    MW4 8580   2.934   3.627   3.510  0.2379  0.2125  0.2119
 2146SOL     OW 8581   2.904   3.884   3.418 -0.0859 -0.3966  0.0651
 2146SOL    HW2 8582   2.973   3.927   3.470  0.5577 -0.0015 -1.1112
 2146SOL    HW3 8583   2.822   3.923   3.450  0.4725  1.5587 -0.8427
 2146SOL    MW4 8584   2.902   3.894   3.429  0.0727 -0.0865 -0.2099
 2147SOL     OW 8585   2.681   4.010   3.527 -0.0667  0.0540  0.4457
 2147SOL    HW2 8586   2.657   4.011   3.620  1.0192  1.4908  0.7228
 2147SOL    HW3 8587   2.696   4.102   3.505  0.2169 -0.3338 -1.0129
 2147SOL    MW4 8588   2.680   4.022   3.536  0.1140  0.1924  0.2898
 2148SOL     OW 8589   2.669   4.264   3.403  0.5681  0.1938 -0.4103
 2148SOL    HW2 8590   2.743   4.309   3.445  0.6766  0.6122 -1.0469
 2148SOL    HW3 8591   2.592   4.310   3.434  0.6179  0.1833 -0.2724
 2148SOL    MW4 8592   2.669   4.276   3.412  0.5890  0.2476 -0.4761
 2149SOL     OW 8593   2.885   4.385   3.530  0.2343 -0.0021  0.4578
 2149SOL    HW2 8594   2.903   4.390   3.624  0.6092 -1.1676  0.4603
 2149SOL    HW3 8595   2.914   4.469   3.495  0.0288  0.4635  1.3928
 2149SOL    MW4 8596   2.891   4.397   3.538  0.2566 -0.0945  0.5815
 2150SOL     OW 8597   3.410   4.620   3.431 -0.1215 -0.5417 -0.2128
 2150SOL    HW2 8598   3.331   4.666   3.459  0.6768  0.7699 -0.1256
 2150SOL    HW3 8599   3.405   4.619   3.335  0.5886  1.0144 -0.2712
 2150SOL    MW4 8600   3.399   4.626   3.422  0.0775 -0.1634 -0.2090
 2151SOL     OW 8601   3.184   0.087   3.519 -0.2529 -0.0716  0.3290
 2151SOL    HW2 8602   3.162   0.177   3.497 -0.6250  0.2484  1.9375
 2151SOL    HW3 8603   3.113   0.035   3.482 -0.9173  0.4627  0.8231
 2151SOL    MW4 8604   3.172   0.092   3.511 -0.3896  0.0411  0.6065
 2152SOL     OW 8605   3.161   0.336   3.431 -0.2991 -0.2239  0.1709
 2152SOL    HW2 8606   3.086   0.391   3.454  0.2203  0.9136 -0.7803
 2152SOL    HW3 8607   3.160   0.334   3.335 -0.2016 -1.7546  0.1781
 2152SOL    MW4 8608   3.151   0.343   3.421 -0.2177 -0.2758  0.0464
 2153SOL     OW 8609   3.387   0.456   3.521  0.1070  0.1465 -0.1135
 2153SOL    HW2 8610   3.387   0.458   3.616 -0.7581 -0.4362 -0.0885
 2153SOL    HW3 8611   3.307   0.409   3.498  0.8462 -0.6511 -1.1140
 2153SOL    MW4 8612   3.376   0.450   3.530  0.0904 -0.0356 -0.2422
 2154SOL     OW 8613   3.376   0.714   3.421 -0.1047  0.5421  0.2886
 2154SOL    HW2 8614   3.454   0.758   3.455  0.0019 -0.3624  1.2323
 2154SOL    HW3 8615   3.380   0.625   3.456 -1.5751  0.4854  0.3709
 2154SOL    MW4 8616   3.386   0.708   3.430 -0.2846  0.4153  0.4240
 2155SOL     OW 8617   3.151   0.870   3.524  0.4670  0.1220  0.2682
 2155SOL    HW2 8618   3.159   0.959   3.489  0.6431  0.3044  0.7725
 2155SOL    HW3 8619   3.235   0.828   3.504  0.8208  0.4432  1.0823
 2155SOL    MW4 8620   3.163   0.876   3.517  0.5369  0.1884  0.4422
 2156SOL     OW 8621   3.147   1.130   3.461 -0.5227  0.3456 -0.0151
 2156SOL    HW2 8622   3.219   1.193   3.474  0.5034 -0.7268 -0.4087
 2156SOL    HW3 8623   3.140   1.121   3.366  0.1706 -1.0527  0.0503
 2156SOL    MW4 8624   3.156   1.138   3.451 -0.2958  0.0196 -0.0584
 2157SOL     OW 8625   3.359   1.286   3.495 -0.0075  0.2486 -0.0412
 2157SOL    HW2 8626   3.444   1.243   3.480 -0.4635 -0.8568  0.5297
 2157SOL    HW3 8627   3.363   1.365   3.440  0.7533 -0.6113 -1.2695
 2157SOL    MW4 8628   3.371   1.291   3.485  0.0327 -0.0107 -0.1280
 2158SOL     OW 8629   3.382   1.536   3.392 -0.4292  0.0003 -0.0395
 2158SOL    HW2 8630   3.456   1.572   3.440 -0.4764 -0.2571  0.2287
 2158SOL    HW3 8631   3.305   1.560   3.444 -0.5096  0.0091 -0.1598
 2158SOL    MW4 8632   3.382   1.543   3.405 -0.4460 -0.0325 -0.0200
 2159SOL     OW 8633   3.152   1.642   3.547 -0.1112 -0.2333  0.3276
 2159SOL    HW2 8634   3.159   1.718   3.490 -1.1555  0.2462  0.8193
 2159SOL    HW3 8635   3.092   1.582   3.502 -1.1096  0.2388  0.9983
 2159SOL    MW4 8636   3.145   1.644   3.534 -0.3807 -0.1078  0.4810
 2160SOL     OW 8637   3.151   1.881   3.407  0.0257 -0.1890  0.3130
 2160SOL    HW2 8638   3.095   1.947   3.447  1.6668  1.4704 -0.0340
 2160SOL    HW3 8639   3.143   1.898   3.313  1.3845  0.3314  0.2771
 2160SOL    MW4 8640   3.142   1.892   3.400  0.4215  0.0986  0.2625
 2161SOL     OW 8641   3.345   2.038   3.524  0.1215  0.0325 -0.3803
 2161SOL    HW2 8642   3.337   2.122   3.478 -0.5752  0.7077  0.9327
 2161SOL    HW3 8643   3.288   1.979   3.476 -0.1451  0.5766 -0.7382
 2161SOL    MW4 8644   3.336   2.042   3.512 -0.0056  0.1934 -0.2543
 2162SOL     OW 8645   3.374   2.299   3.442 -0.0738 -0.5310  0.4811
 2162SOL    HW2 8646   3.446   2.349   3.480  0.3884 -1.8959  1.4339
 2162SOL    HW3 8647   3.296   2.351   3.460  0.5789  0.6326  0.0269
 2162SOL    MW4 8648   3.373   2.312   3.449  0.0733 -0.5576  0.5469
 2163SOL     OW 8649   3.157   2.451   3.517 -0.1349  0.1891 -0.3763
 2163SOL    HW2 8650   3.159   2.539   3.478  0.0978 -0.2130 -1.2897
 2163SOL    HW3 8651   3.070   2.418   3.495 -0.4702  0.4362  0.5416
 2163SOL    MW4 8652   3.146   2.458   3.509 -0.1484  0.1687 -0.3757
 2164SOL     OW 8653   3.162   2.701   3.393  0.2788  0.1260  0.2505
 2164SOL    HW2 8654   3.242   2.749   3.414 -0.1691  2.0359 -2.1984
 2164SOL    HW3 8655   3.092   2.748   3.440  0.3062 -0.2632  0.6827
 2164SOL    MW4 8656   3.163   2.713   3.402  0.2233  0.3266 -0.0156
 2165SOL     OW 8657   3.351   2.849   3.486 -0.2529 -0.1930  0.0387
 2165SOL    HW2 8658   3.436   2.807   3.481 -0.0092 -0.0619  2.4363
 2165SOL    HW3 8659   3.363   2.935   3.447  0.4265 -0.6043 -0.6483
 2165SOL    MW4 8660   3.364   2.855   3.481 -0.1311 -0.2300  0.2644
 2166SOL     OW 8661   3.379   3.136   3.404 -0.1054  0.3344 -0.3774
 2166SOL    HW2 8662   3.448   3.183   3.450 -0.5038  0.3950  0.1603
 2166SOL    HW3 8663   3.298   3.161   3.449 -0.7017  1.7826 -2.1983
 2166SOL    MW4 8664   3.377   3.145   3.416 -0.2366  0.5335 -0.5467
 2167SOL     OW 8665   3.143   3.189   3.549 -0.1951 -0.1035 -0.2029
 2167SOL    HW2 8666   3.155   3.280   3.522 -1.2962 -0.3320 -1.5229
 2167SOL    HW3 8667   3.055   3.166   3.518 -0.4045 -1.2395  1.1855
 2167SOL    MW4 8668   3.133   3.198   3.541 -0.3680 -0.2835 -0.1939
 2168SOL     OW 8669   3.162   3.437   3.445 -0.0016 -0.0023  0.3384
 2168SOL    HW2 8670   3.095   3.501   3.467 -0.5103 -0.2476 -0.4939
 2168SOL    HW3 8671   3.174   3.446   3.351  0.4291 -0.6400  0.3321
 2168SOL    MW4 8672   3.155   3.447   3.436 -0.0119 -0.1188  0.2277
 2169SOL     OW 8673   3.380   3.581   3.543 -0.5792 -0.3168  0.1495
 2169SOL    HW2 8674   3.365   3.669   3.508  0.8790  0.0452  0.3939
 2169SOL    HW3 8675   3.301   3.532   3.519 -1.8571  1.3185  0.9054
 2169SOL    MW4 8676   3.368   3.586   3.535 -0.5554 -0.0533  0.2815
 2170SOL     OW 8677   3.354   3.855   3.450  0.4257  0.0129 -0.2416
 2170SOL    HW2 8678   3.432   3.899   3.485  0.5830 -0.2683 -0.2366
 2170SOL    HW3 8679   3.282   3.914   3.470  0.7282  0.5924 -0.8421
 2170SOL    MW4 8680   3.355   3.869   3.457  0.4863  0.0522 -0.3202
 2171SOL     OW 8681   3.119   3.995   3.553  0.0966 -0.3107 -0.1402
 2171SOL    HW2 8682   3.106   4.000   3.648  0.7073 -1.1038 -0.0038
 2171SOL    HW3 8683   3.100   4.083   3.521  0.1342  0.0275  0.7525
 2171SOL    MW4 8684   3.115   4.007   3.562  0.1822 -0.3707 -0.0044
 2172SOL     OW 8685   3.107   4.248   3.453 -0.1327 -0.1955 -0.0496
 2172SOL    HW2 8686   3.179   4.299   3.490 -0.1390 -0.2509  0.0418
 2172SOL    HW3 8687   3.028   4.298   3.475 -0.1157 -0.1032 -0.2047
 2172SOL    MW4 8688   3.106   4.261   3.461 -0.1313 -0.1906 -0.0580
 2173SOL     OW 8689   3.329   4.385   3.555 -0.2919 -0.2975 -0.0494
 2173SOL    HW2 8690   3.340   4.392   3.650 -0.2361  0.6203 -0.1247
 2173SOL    HW3 8691   3.352   4.471   3.521  0.1910 -0.7768 -0.9528
 2173SOL    MW4 8692   3.333   4.397   3.563 -0.2208 -0.2396 -0.1785
 2174SOL     OW 8693   3.827   4.604   3.414  0.1994  0.4708  0.0685
 2174SOL    HW2 8694   3.751   4.643   3.458  0.8519  1.1134  0.6356
 2174SOL    HW3 8695   3.818   4.632   3.323  1.2141  2.8467  0.6702
 2174SOL    MW4 8696   3.816   4.613   3.408  0.4194  0.8690  0.2227
 2175SOL     OW 8697   3.617   0.092   3.548 -0.2513 -0.1991  0.0617
 2175SOL    HW2 8698   3.623   0.181   3.512 -0.9192 -0.2001 -0.0575
 2175SOL    HW3 8699   3.537   0.056   3.510 -0.0003 -0.8436  0.1371
 2175SOL    MW4 8700   3.607   0.099   3.538 -0.3063 -0.2843  0.0559
 2176SOL     OW 8701   3.639   0.347   3.446  0.6493  0.3960 -0.0298
 2176SOL    HW2 8702   3.716   0.390   3.482  1.3237  0.6236 -1.6921
 2176SOL    HW3 8703   3.567   0.406   3.465  0.9247  0.3331  1.2603
 2176SOL    MW4 8704   3.640   0.360   3.453  0.7746  0.4177 -0.0789
 2177SOL     OW 8705   3.861   0.478   3.572  0.4665  0.0302  0.1632
 2177SOL    HW2 8706   3.858   0.467   3.667  0.6066 -0.7766  0.0816
 2177SOL    HW3 8707   3.943   0.435   3.546  0.7870  0.8780 -0.2438
 2177SOL    MW4 8708   3.871   0.471   3.581  0.5273  0.0356  0.0987
 2178SOL     OW 8709   3.853   0.723   3.481 -0.1682  0.6922 -0.7952
 2178SOL    HW2 8710   3.903   0.784   3.535 -0.6365  0.0164  0.4280
 2178SOL    HW3 8711   3.862   0.639   3.526 -0.5709  0.1175 -1.7756
 2178SOL    MW4 8712   3.861   0.720   3.495 -0.2831  0.5272 -0.7632
 2179SOL     OW 8713   3.604   0.845   3.534  0.2526  0.3153 -0.3460
 2179SOL    HW2 8714   3.607   0.852   3.629 -0.0600  1.4114 -0.4137
 2179SOL    HW3 8715   3.687   0.802   3.511  1.0810  1.5433  0.2942
 2179SOL    MW4 8716   3.616   0.840   3.543  0.3207  0.6220 -0.2705
 2180SOL     OW 8717   3.577   1.126   3.438  0.4933 -0.2054 -0.2130
 2180SOL    HW2 8718   3.576   1.041   3.482  1.0824 -0.6334 -1.0062
 2180SOL    HW3 8719   3.593   1.105   3.346 -0.2784  0.7032 -0.5636
 2180SOL    MW4 8720   3.579   1.112   3.432  0.4692 -0.1420 -0.3639
 2181SOL     OW 8721   3.828   1.256   3.502  0.2217 -0.1608  0.7332
 2181SOL    HW2 8722   3.819   1.282   3.594  1.5455 -0.9592  1.1119
 2181SOL    HW3 8723   3.743   1.218   3.480 -0.0815 -0.0456  1.6621
 2181SOL    MW4 8724   3.815   1.254   3.511  0.3563 -0.2509  0.9057
 2182SOL     OW 8725   3.780   1.513   3.393 -0.0643 -0.0944  0.3481
 2182SOL    HW2 8726   3.853   1.555   3.438  0.5543  0.2223 -0.9418
 2182SOL    HW3 8727   3.782   1.422   3.424  0.5882  0.0225  0.6558
 2182SOL    MW4 8728   3.790   1.507   3.403  0.1034 -0.0372  0.2185
 2183SOL     OW 8729   3.592   1.661   3.541 -0.1494 -0.3597  0.3953
 2183SOL    HW2 8730   3.585   1.746   3.498 -0.1352 -0.4795  0.1558
 2183SOL    HW3 8731   3.658   1.613   3.490 -0.2009 -0.5355  0.4915
 2183SOL    MW4 8732   3.600   1.666   3.528 -0.1543 -0.3987  0.3764
 2184SOL     OW 8733   3.583   1.917   3.432 -0.1733  0.1215  0.2767
 2184SOL    HW2 8734   3.667   1.961   3.444 -0.0852  0.4049 -1.2272
 2184SOL    HW3 8735   3.522   1.967   3.485  0.2406  1.1233 -0.1666
 2184SOL    MW4 8736   3.586   1.929   3.440 -0.1070  0.2910  0.0198
 2185SOL     OW 8737   3.809   2.051   3.492 -0.0294  0.2114  0.0214
 2185SOL    HW2 8738   3.789   2.035   3.584 -0.4003 -0.2991 -0.1460
 2185SOL    HW3 8739   3.885   1.997   3.474 -0.7010 -0.6306 -0.2933
 2185SOL    MW4 8740   3.816   2.042   3.502 -0.1669  0.0330 -0.0422
 2186SOL     OW 8741   3.823   2.331   3.459  0.4583  0.0857 -0.1457
 2186SOL    HW2 8742   3.903   2.384   3.469  1.3496 -1.3862  0.6713
 2186SOL    HW3 8743   3.853   2.241   3.467 -0.9690 -0.5857 -2.1248
 2186SOL    MW4 8744   3.838   2.326   3.462  0.3875 -0.1971 -0.2990
 2187SOL     OW 8745   3.590   2.434   3.549 -0.5882 -0.1708 -0.0167
 2187SOL    HW2 8746   3.590   2.524   3.515 -0.1298  0.2014  0.9501
 2187SOL    HW3 8747   3.672   2.396   3.517 -0.5045 -0.0554  0.0584
 2187SOL    MW4 8748   3.601   2.441   3.540 -0.5167 -0.1065  0.1208
 2188SOL     OW 8749   3.593   2.699   3.436  0.3532 -0.0763 -0.5242
 2188SOL    HW2 8750   3.662   2.760   3.462 -1.0692  0.9092  1.0594
 2188SOL    HW3 8751   3.594   2.700   3.341  1.0226  1.6661 -0.5130
 2188SOL    MW4 8752   3.602   2.707   3.427  0.2538  0.2836 -0.3138
 2189SOL     OW 8753   3.794   2.894   3.546 -0.1432 -0.6430 -0.1150
 2189SOL    HW2 8754   3.808   2.897   3.641  1.4201 -1.0698 -0.3040
 2189SOL    HW3 8755   3.810   2.984   3.517  0.4641 -0.7406 -0.0964
 2189SOL    MW4 8756   3.798   2.906   3.555  0.1432 -0.7122 -0.1375
 2190SOL     OW 8757   3.850   3.143   3.454  0.0349  0.1620 -0.2166
 2190SOL    HW2 8758   3.937   3.184   3.461  1.0244 -1.9539  0.4165
 2190SOL    HW3 8759   3.837   3.131   3.360  0.7859 -0.1795 -0.2845
 2190SOL    MW4 8760   3.860   3.147   3.442  0.2645 -0.1622 -0.1420
 2191SOL     OW 8761   3.593   3.250   3.509 -0.1912 -0.3311  0.3954
 2191SOL    HW2 8762   3.612   3.339   3.477 -0.0424 -0.7976 -0.8285
 2191SOL    HW3 8763   3.674   3.201   3.491 -0.3219 -0.7461  0.9451
 2191SOL    MW4 8764   3.606   3.255   3.502 -0.1888 -0.4474  0.3064
 2192SOL     OW 8765   3.649   3.499   3.442  0.3494 -0.0010 -0.5461
 2192SOL    HW2 8766   3.570   3.536   3.481  0.9625 -0.7243  1.3964
 2192SOL    HW3 8767   3.640   3.517   3.348 -0.0500  3.7980  0.1593
 2192SOL    MW4 8768   3.637   3.506   3.435  0.3776  0.4048 -0.1967
 2193SOL     OW 8769   3.880   3.656   3.515 -0.1094  0.3540  0.4223
 2193SOL    HW2 8770   3.875   3.647   3.611  0.1741 -0.5076  0.3620
 2193SOL    HW3 8771   3.801   3.611   3.483 -0.0618  0.4034  0.2380
 2193SOL    MW4 8772   3.869   3.649   3.524 -0.0657  0.2468  0.3900
 2194SOL     OW 8773   3.817   3.898   3.425  0.2277  0.3673 -0.0035
 2194SOL    HW2 8774   3.738   3.926   3.470 -0.6625  0.1319 -1.3955
 2194SOL    HW3 8775   3.835   3.811   3.460  0.7091  0.9943  1.3663
 2194SOL    MW4 8776   3.809   3.890   3.436  0.1738  0.4189 -0.0064
 2195SOL     OW 8777   3.583   3.956   3.540 -0.1561 -0.4803 -0.0888
 2195SOL    HW2 8778   3.585   3.957   3.635  2.1778 -0.1687 -0.1195
 2195SOL    HW3 8779   3.582   4.049   3.515 -0.5785 -0.5611 -0.3864
 2195SOL    MW4 8780   3.583   3.968   3.549  0.0961 -0.4499 -0.1321
 2196SOL     OW 8781   3.553   4.230   3.481 -0.1519 -0.4371 -0.1132
 2196SOL    HW2 8782   3.470   4.265   3.514  0.3937  1.0282 -0.2488
 2196SOL    HW3 8783   3.550   4.245   3.387  0.2128 -0.4848 -0.1323
 2196SOL    MW4 8784   3.542   4.237   3.473 -0.0318 -0.2501 -0.1336
 2197SOL     OW 8785   3.809   4.347   3.531 -0.5063 -0.0866  0.4718
 2197SOL    HW2 8786   3.729   4.310   3.493 -0.3946  0.0007  0.1484
 2197SOL    HW3 8787   3.807   4.439   3.507 -0.5393  0.0092  0.8576
 2197SOL    MW4 8788   3.798   4.354   3.523 -0.4959 -0.0625  0.4800
 2198SOL     OW 8789   4.304   4.619   3.498 -0.2665  0.3101  0.0433
 2198SOL    HW2 8790   4.322   4.532   3.533 -1.0512  0.8928  1.9637
 2198SOL    HW3 8791   4.375   4.674   3.533 -0.2056  0.5884 -0.5184
 2198SOL    MW4 8792   4.316   4.615   3.507 -0.3620  0.4237  0.2226
 2199SOL     OW 8793   4.048   0.073   3.526  0.6370  0.0306  0.3788
 2199SOL    HW2 8794   4.121   0.022   3.490  1.2301  1.3152 -0.2492
 2199SOL    HW3 8795   3.970   0.030   3.491  1.0482 -1.5768  1.3465
 2199SOL    MW4 8796   4.047   0.060   3.517  0.7695 -0.0120  0.4236
 2200SOL     OW 8797   4.087   0.343   3.474 -0.1067 -0.2134 -0.2352
 2200SOL    HW2 8798   4.076   0.252   3.501  0.9594 -0.6177 -1.1044
 2200SOL    HW3 8799   4.076   0.341   3.379  0.2351  0.5057 -0.2974
 2200SOL    MW4 8800   4.084   0.331   3.465  0.0791 -0.1719 -0.3581
 2201SOL     OW 8801   4.305   0.491   3.555 -0.0040 -0.3716 -0.1169
 2201SOL    HW2 8802   4.293   0.579   3.520 -0.6428 -0.7818 -0.9282
 2201SOL    HW3 8803   4.231   0.441   3.523 -0.3263 -0.9019  1.3807
 2201SOL    MW4 8804   4.294   0.496   3.546 -0.1308 -0.4957 -0.0263
 2202SOL     OW 8805   4.242   0.750   3.463 -0.2670 -0.5333 -0.1701
 2202SOL    HW2 8806   4.321   0.796   3.491 -0.1157 -0.4222 -0.7559
 2202SOL    HW3 8807   4.245   0.754   3.367 -1.2146 -0.1426 -0.1913
 2202SOL    MW4 8808   4.253   0.756   3.454 -0.3721 -0.4671 -0.2502
 2203SOL     OW 8809   4.054   0.897   3.586  0.0687  0.2877 -0.1980
 2203SOL    HW2 8810   4.054   0.975   3.531 -0.9125 -0.0646 -0.7168
 2203SOL    HW3 8811   4.115   0.837   3.544  0.5238  0.6193 -0.0164
 2203SOL    MW4 8812   4.062   0.899   3.573 -0.0007  0.2850 -0.2425
 2204SOL     OW 8813   4.069   1.135   3.416 -0.3855  0.3438  0.0026
 2204SOL    HW2 8814   4.131   1.152   3.487 -1.3264 -2.3975  1.5662
 2204SOL    HW3 8815   3.988   1.178   3.444 -0.0831  1.3223 -0.5924
 2204SOL    MW4 8816   4.067   1.143   3.429 -0.4698  0.1112  0.1304
 2205SOL     OW 8817   4.263   1.258   3.564  0.8766 -0.1960 -0.2797
 2205SOL    HW2 8818   4.249   1.342   3.519  2.0627 -0.0082 -0.3082
 2205SOL    HW3 8819   4.351   1.232   3.539  0.6981 -1.2128  0.1347
 2205SOL    MW4 8820   4.273   1.266   3.555  1.0096 -0.3054 -0.2288
 2206SOL     OW 8821   4.239   1.505   3.433 -0.5627 -0.1899  0.1022
 2206SOL    HW2 8822   4.164   1.556   3.462  1.8049  4.1820 -1.1337
 2206SOL    HW3 8823   4.248   1.525   3.340  1.8215 -1.0537  0.1102
 2206SOL    MW4 8824   4.231   1.514   3.425  0.0642  0.2729 -0.0598
 2207SOL     OW 8825   4.015   1.631   3.522  0.5160 -0.6728  0.2292
 2207SOL    HW2 8826   4.029   1.632   3.616 -0.5389 -1.0749  0.3907
 2207SOL    HW3 8827   4.032   1.721   3.494 -2.6841  0.3166  1.3201
 2207SOL    MW4 8828   4.019   1.643   3.531 -0.0454 -0.5953  0.3944
 2208SOL     OW 8829   4.052   1.888   3.465  0.4602 -0.0086  0.2901
 2208SOL    HW2 8830   4.120   1.948   3.497  0.6905  0.0903 -0.3851
 2208SOL    HW3 8831   4.048   1.904   3.371  0.9913 -1.5232 -0.0068
 2208SOL    MW4 8832   4.061   1.898   3.457  0.5606 -0.1954  0.1619
 2209SOL     OW 8833   4.255   2.077   3.533 -0.0131 -0.4844  0.2380
 2209SOL    HW2 8834   4.271   2.159   3.486 -0.7184 -0.1945  0.4983
 2209SOL    HW3 8835   4.329   2.021   3.509 -0.7104 -0.5797 -1.7461
 2209SOL    MW4 8836   4.267   2.081   3.524 -0.1982 -0.4587  0.0106
 2210SOL     OW 8837   4.269   2.322   3.408 -0.9253  0.0033 -0.4242
 2210SOL    HW2 8838   4.185   2.362   3.428 -0.3970  1.2736 -0.6708
 2210SOL    HW3 8839   4.276   2.327   3.312 -0.0168  1.0737 -0.3093
 2210SOL    MW4 8840   4.259   2.328   3.398 -0.7357  0.3121 -0.4415
 2211SOL     OW 8841   4.054   2.473   3.511  0.2928 -0.1648  0.2236
 2211SOL    HW2 8842   4.083   2.469   3.602  0.3149  0.8479  0.2579
 2211SOL    HW3 8843   4.033   2.565   3.496  0.1618 -0.3518 -0.7532
 2211SOL    MW4 8844   4.055   2.484   3.521  0.2785 -0.0559  0.0992
 2212SOL     OW 8845   4.002   2.751   3.448 -0.0618  0.2996  0.6055
 2212SOL    HW2 8846   4.079   2.777   3.500  1.2720 -0.7355 -0.7949
 2212SOL    HW3 8847   3.929   2.797   3.490  1.3189  1.4009  1.9173
 2212SOL    MW4 8848   4.003   2.761   3.461  0.2964  0.3084  0.5938
 2213SOL     OW 8849   4.256   2.822   3.527  0.3054  0.0077  0.3398
 2213SOL    HW2 8850   4.254   2.850   3.618  1.4084  1.7011 -0.1341
 2213SOL    HW3 8851   4.345   2.788   3.514 -0.0614 -0.8639  0.0717
 2213SOL    MW4 8852   4.268   2.821   3.537  0.4025  0.1161  0.2419
 2214SOL     OW 8853   4.291   3.084   3.404 -0.1078 -0.0293  0.5737
 2214SOL    HW2 8854   4.257   2.998   3.430  0.7925 -0.6563 -0.2849
 2214SOL    HW3 8855   4.286   3.083   3.308  0.2315  0.7473  0.5475
 2214SOL    MW4 8856   4.286   3.073   3.395  0.0557 -0.0096  0.4569
 2215SOL     OW 8857   4.093   3.262   3.485  0.0807 -0.2577  0.1616
 2215SOL    HW2 8858   4.086   3.342   3.433 -0.2566 -0.6895 -0.4694
 2215SOL    HW3 8859   4.163   3.212   3.442 -1.1322 -1.2319 -0.7360
 2215SOL    MW4 8860   4.102   3.266   3.472 -0.1238 -0.4432 -0.0401
 2216SOL     OW 8861   4.096   3.536   3.409 -0.3022  0.1293  0.0436
 2216SOL    HW2 8862   4.178   3.556   3.455 -0.4448 -1.1272  0.8564
 2216SOL    HW3 8863   4.031   3.592   3.451 -0.0612  0.3897  0.0751
 2216SOL    MW4 8864   4.098   3.546   3.421 -0.2892 -0.0022  0.1550
 2217SOL     OW 8865   4.325   3.624   3.564  0.0422  0.6268 -0.4263
 2217SOL    HW2 8866   4.303   3.634   3.656 -0.7538 -0.7018 -0.4619
 2217SOL    HW3 8867   4.307   3.710   3.526  2.1559  1.7115  0.9916
 2217SOL    MW4 8868   4.319   3.637   3.571  0.2161  0.5946 -0.2440
 2218SOL     OW 8869   4.288   3.887   3.475 -0.3685 -0.1916 -0.3091
 2218SOL    HW2 8870   4.374   3.924   3.492 -0.4275  0.4418 -1.3341
 2218SOL    HW3 8871   4.282   3.883   3.379 -1.0139 -1.3186 -0.2379
 2218SOL    MW4 8872   4.299   3.891   3.464 -0.4615 -0.2567 -0.4349
 2219SOL     OW 8873   4.037   4.029   3.522  0.0460  0.2942 -0.1617
 2219SOL    HW2 8874   4.116   3.975   3.515 -0.4694 -0.4564 -0.1809
 2219SOL    HW3 8875   3.967   3.975   3.485 -0.6889  0.5010  0.9002
 2219SOL    MW4 8876   4.038   4.015   3.516 -0.1190  0.2224 -0.0241
 2220SOL     OW 8877   4.082   4.292   3.452 -0.1984  0.2911 -0.1262
 2220SOL    HW2 8878   4.074   4.199   3.475 -0.7033  0.2733 -0.3805
 2220SOL    HW3 8879   3.999   4.331   3.479  0.2379  0.7840  0.5135
 2220SOL    MW4 8880   4.070   4.285   3.458 -0.2074  0.3538 -0.0754
 2221SOL     OW 8881   4.332   4.354   3.579  0.1835 -0.1229  0.0936
 2221SOL    HW2 8882   4.306   4.362   3.671  0.1369 -0.6456  0.1273
 2221SOL    HW3 8883   4.249   4.341   3.532  0.2781 -0.6330  0.0668
 2221SOL    MW4 8884   4.317   4.353   3.585  0.1898 -0.2592  0.0945
 2222SOL     OW 8885   0.250   4.603   3.950 -0.0484  0.3462  0.1528
 2222SOL    HW2 8886   0.247   4.611   4.046 -0.2488  1.2482  0.0744
 2222SOL    HW3 8887   0.189   4.669   3.919  0.2304  0.2429 -0.6155
 2222SOL    MW4 8888   0.241   4.613   3.959 -0.0380  0.4516  0.0411
 2223SOL     OW 8889   0.035   0.083   3.850 -0.6499  0.0218 -0.3189
 2223SOL    HW2 8890   0.016   0.173   3.877 -1.4834  0.1157 -1.1809
 2223SOL    HW3 8891   0.059   0.091   3.758  0.1883 -0.5286 -0.1486
 2223SOL    MW4 8892   0.035   0.096   3.841 -0.6492 -0.0384 -0.4102
 2224SOL     OW 8893   0.001   0.340   3.940  0.3348  0.3225  0.2914
 2224SOL    HW2 8894  -0.069   0.399   3.911 -0.1459 -1.1972 -1.7209
 2224SOL    HW3 8895   0.081   0.383   3.911 -0.0091  0.0262 -1.1202
 2224SOL    MW4 8896   0.002   0.354   3.932  0.2260  0.0829 -0.1603
 2225SOL     OW 8897   0.242   0.474   3.867  0.1088 -0.2399  0.4960
 2225SOL    HW2 8898   0.241   0.569   3.879  1.3506  0.0348 -1.3863
 2225SOL    HW3 8899   0.239   0.462   3.772 -1.3445 -2.1137  0.7548
 2225SOL    MW4 8900   0.241   0.485   3.856  0.0809 -0.4509  0.2818
 2226SOL     OW 8901   0.226   0.743   3.919 -0.1167  0.4175  0.4631
 2226SOL    HW2 8902   0.241   0.757   4.012  1.0120  0.7171  0.2492
 2226SOL    HW3 8903   0.147   0.792   3.899 -0.3626  0.3454  1.2601
 2226SOL    MW4 8904   0.217   0.751   3.928 -0.0002  0.4475  0.5400
 2227SOL     OW 8905   0.015   0.899   3.832  0.2320  0.1230 -0.2924
 2227SOL    HW2 8906  -0.067   0.863   3.866 -0.7010  0.1710 -2.3960
 2227SOL    HW3 8907   0.028   0.980   3.881 -1.0473  0.1788 -0.0150
 2227SOL    MW4 8908   0.006   0.905   3.843 -0.0599  0.1367 -0.5333
 2228SOL     OW 8909   0.003   1.144   3.967 -0.5025  0.1583  0.3427
 2228SOL    HW2 8910  -0.080   1.170   3.926  0.1502  1.2794 -0.2754
 2228SOL    HW3 8911   0.066   1.210   3.938  0.7923 -1.1398  0.1638
 2228SOL    MW4 8912   0.000   1.156   3.957 -0.2456  0.1350  0.2376
 2229SOL     OW 8913   0.207   1.309   3.855  0.0772 -0.0241 -0.0797
 2229SOL    HW2 8914   0.209   1.400   3.883 -0.0529 -0.1373  0.3066
 2229SOL    HW3 8915   0.220   1.312   3.761  2.7886  0.2275  0.2539
 2229SOL    MW4 8916   0.209   1.321   3.847  0.4178 -0.0058  0.0153
 2230SOL     OW 8917   0.226   1.597   3.947  0.3293  0.0163  0.4863
 2230SOL    HW2 8918   0.207   1.564   4.034 -2.5169 -2.6796 -1.0311
 2230SOL    HW3 8919   0.145   1.640   3.920  0.7869 -0.1528 -1.2238
 2230SOL    MW4 8920   0.213   1.598   3.955  0.0141 -0.3617  0.0605
 2231SOL     OW 8921   4.451   1.688   3.819  0.1421  0.3595 -0.3633
 2231SOL    HW2 8922   4.448   1.782   3.837 -2.7059  0.3950 -0.7582
 2231SOL    HW3 8923   4.464   1.682   3.725  0.8560  0.3338 -0.2677
 2231SOL    MW4 8924   4.452   1.700   3.809 -0.1394  0.3608 -0.4028
 2232SOL     OW 8925   0.005   1.972   3.923  0.4939  0.0615  0.1369
 2232SOL    HW2 8926  -0.021   1.959   4.014  0.3322 -0.1224  0.0647
 2232SOL    HW3 8927  -0.063   2.027   3.885  0.9466  0.7489  0.3230
 2232SOL    MW4 8928  -0.007   1.977   3.930  0.5323  0.1280  0.1520
 2233SOL     OW 8929   0.235   2.040   3.805 -0.3903 -0.3150 -0.1965
 2233SOL    HW2 8930   0.240   2.131   3.835 -0.1160 -0.6261  0.7173
 2233SOL    HW3 8931   0.154   2.006   3.843  0.2728 -0.8955  0.7328
 2233SOL    MW4 8932   0.225   2.047   3.814 -0.2666 -0.4326  0.0467
 2234SOL     OW 8933   0.230   2.309   3.909 -0.1796 -0.3154 -0.0261
 2234SOL    HW2 8934   0.215   2.302   4.004  0.6601 -0.8588  0.0725
 2234SOL    HW3 8935   0.149   2.347   3.875 -0.2273  0.5345  1.0003
 2234SOL    MW4 8936   0.217   2.313   3.917 -0.0751 -0.2750  0.1223
 2235SOL     OW 8937   4.475   2.398   3.818 -0.0341  0.1793  0.1140
 2235SOL    HW2 8938   4.399   2.371   3.870  0.4382  0.2273  0.8345
 2235SOL    HW3 8939   4.484   2.491   3.836 -0.8140  0.5344 -1.2817
 2235SOL    MW4 8940   4.466   2.407   3.827 -0.0747  0.2325  0.0249
 2236SOL     OW 8941   4.490   2.659   3.879  0.0645 -0.0253 -0.4500
 2236SOL    HW2 8942   4.512   2.640   3.971  0.8996 -1.2014 -0.8766
 2236SOL    HW3 8943   4.554   2.725   3.853  1.8264 -1.9124 -1.0623
 2236SOL    MW4 8944   4.501   2.665   3.888  0.4071 -0.4295 -0.5870
 2237SOL     OW 8945   0.195   2.823   3.803 -0.2645  0.0392  0.0275
 2237SOL    HW2 8946   0.271   2.779   3.841 -0.8081 -0.0647  1.0300
 2237SOL    HW3 8947   0.206   2.814   3.709  0.8650 -0.1423  0.1700
 2237SOL    MW4 8948   0.206   2.816   3.796 -0.1872  0.0015  0.1786
 2238SOL     OW 8949   0.236   3.069   3.929  0.5952 -0.1449 -0.7621
 2238SOL    HW2 8950   0.236   3.030   4.016  0.2915  0.5650 -0.4397
 2238SOL    HW3 8951   0.227   2.994   3.869  0.2145 -0.5860 -0.1608
 2238SOL    MW4 8952   0.235   3.054   3.933  0.5049 -0.1094 -0.6402
 2239SOL     OW 8953   0.032   3.226   3.835  0.1432  0.2508 -0.0580
 2239SOL    HW2 8954   0.116   3.182   3.848  0.0148  0.1171  0.3123
 2239SOL    HW3 8955   0.012   3.211   3.742 -0.0232 -0.6926  0.1221
 2239SOL    MW4 8956   0.041   3.218   3.824  0.1043  0.1087  0.0146
 2240SOL     OW 8957   4.491   3.485   3.944 -0.1692  0.1314 -0.2958
 2240SOL    HW2 8958   4.566   3.530   3.906  0.7853 -1.3563 -0.2312
 2240SOL    HW3 8959   4.501   3.394   3.917 -0.2690 -0.6849  2.2506
 2240SOL    MW4 8960   4.502   3.479   3.935 -0.0564 -0.1726  0.0487
 2241SOL     OW 8961   0.244   3.606   3.842 -0.5261 -0.4921  0.1398
 2241SOL    HW2 8962   0.305   3.561   3.900 -0.2220 -0.5956 -0.2667
 2241SOL    HW3 8963   0.231   3.692   3.883 -0.0973 -0.4628  0.2146
 2241SOL    MW4 8964   0.250   3.612   3.855 -0.4294 -0.5019  0.0961
 2242SOL     OW 8965   0.214   3.855   3.973  0.0212 -0.4173 -0.2355
 2242SOL    HW2 8966   0.232   3.854   4.067  0.4393  1.5294 -0.2637
 2242SOL    HW3 8967   0.293   3.893   3.934 -0.7008  0.1121 -1.2181
 2242SOL    MW4 8968   0.227   3.860   3.980 -0.0189 -0.0906 -0.3689
 2243SOL     OW 8969   0.008   3.991   3.824 -0.0280 -0.5846  0.3067
 2243SOL    HW2 8970  -0.065   3.941   3.861  0.0738 -0.1977  1.0529
 2243SOL    HW3 8971   0.086   3.946   3.856  0.0872 -2.0858 -1.9806
 2243SOL    MW4 8972   0.008   3.978   3.833  0.0006 -0.7316  0.1033
 2244SOL     OW 8973   4.477   4.248   3.943  0.1147  0.2610 -0.1083
 2244SOL    HW2 8974   4.551   4.298   3.909  0.2532  0.4170  0.4333
 2244SOL    HW3 8975   4.474   4.170   3.887  0.9844  0.0215  0.1707
 2244SOL    MW4 8976   4.487   4.244   3.931  0.2478  0.2500  0.0000
 2245SOL     OW 8977   0.217   4.354   3.827 -0.0103 -0.1676 -0.1770
 2245SOL    HW2 8978   0.301   4.314   3.849  0.3833  0.2392 -0.9130
 2245SOL    HW3 8979   0.223   4.443   3.862 -0.1754 -0.1687 -0.1438
 2245SOL    MW4 8980   0.229   4.361   3.834  0.0198 -0.1140 -0.2697
 2246SOL     OW 8981   0.682   4.620   3.930  0.0069  0.2665 -0.0311
 2246SOL    HW2 8982   0.697   4.533   3.891  0.7510  0.7161 -0.7608
 2246SOL    HW3 8983   0.601   4.650   3.890 -0.8472 -0.5540  1.0512
 2246SOL    MW4 8984   0.673   4.612   3.920 -0.0076  0.2176  0.0154
 2247SOL     OW 8985   0.452   0.055   3.816 -0.1833  0.0475  0.0883
 2247SOL    HW2 8986   0.441   0.140   3.859  1.4005 -0.1166  0.8976
 2247SOL    HW3 8987   0.390  -0.003   3.860 -0.7269  0.6030  0.0557
 2247SOL    MW4 8988   0.443   0.059   3.828 -0.0461  0.0991  0.1908
 2248SOL     OW 8989   0.466   0.340   3.937 -0.3171 -0.0966  0.2971
 2248SOL    HW2 8990   0.542   0.374   3.890 -0.8371 -1.3360 -1.5139
 2248SOL    HW3 8991   0.394   0.395   3.908 -0.1832  0.8924  1.7914
 2248SOL    MW4 8992   0.467   0.352   3.927 -0.3681 -0.1296  0.2553
 2249SOL     OW 8993   0.660   0.436   3.778  0.4585 -0.2445 -0.2600
 2249SOL    HW2 8994   0.747   0.398   3.792  1.1338  1.5873  0.6101
 2249SOL    HW3 8995   0.665   0.523   3.817 -1.4910  0.2371 -1.0315
 2249SOL    MW4 8996   0.672   0.442   3.785  0.2904  0.0608 -0.2470
 2250SOL     OW 8997   0.661   0.694   3.888  0.2092 -0.0824  0.6578
 2250SOL    HW2 8998   0.730   0.755   3.862  0.4090 -0.0873  1.1661
 2250SOL    HW3 8999   0.580   0.744   3.879  0.1247 -0.5679 -1.4507
 2250SOL    MW4 9000   0.660   0.709   3.884  0.2244 -0.1471  0.4466
 2251SOL     OW 9001   0.455   0.877   3.838 -0.1293  0.0384  0.1208
 2251SOL    HW2 9002   0.437   0.959   3.884  0.6910 -0.4082  1.2771
 2251SOL    HW3 9003   0.386   0.818   3.869  0.0909 -0.0966  0.3633
 2251SOL    MW4 9004   0.443   0.880   3.848  0.0080 -0.0383  0.3054
 2252SOL     OW 9005   0.424   1.152   3.958 -0.0655 -0.5739 -0.2650
 2252SOL    HW2 9006   0.501   1.194   3.918 -1.6887  1.8398 -0.9797
 2252SOL    HW3 9007   0.349   1.191   3.913 -1.8349 -0.4094  2.6491
 2252SOL    MW4 9008   0.424   1.163   3.947 -0.5131 -0.2337  0.0252
 2253SOL     OW 9009   0.668   1.270   3.816  0.0442  0.1270  0.1067
 2253SOL    HW2 9010   0.741   1.211   3.835 -0.2113 -0.2887 -0.2047
 2253SOL    HW3 9011   0.677   1.289   3.723 -2.0127 -2.3491 -0.6626
 2253SOL    MW4 9012   0.679   1.265   3.806 -0.2609 -0.2545 -0.0359
 2254SOL     OW 9013   0.669   1.520   3.920 -0.2452 -0.1621  0.1986
 2254SOL    HW2 9014   0.750   1.554   3.882  0.7120 -0.4140  1.9415
 2254SOL    HW3 9015   0.660   1.432   3.882 -0.3330  0.3062 -0.8801
 2254SOL    MW4 9016   0.678   1.513   3.910 -0.1305 -0.1336  0.2862
 2255SOL     OW 9017   0.461   1.691   3.836  0.0385 -0.0738 -0.0300
 2255SOL    HW2 9018   0.527   1.627   3.861  1.5176  0.8951 -1.3541
 2255SOL    HW3 9019   0.379   1.654   3.867  1.2456 -1.0355  2.1722
 2255SOL    MW4 9020   0.459   1.678   3.844  0.3929 -0.0729  0.0859
 2256SOL     OW 9021   0.447   1.933   3.956  0.0894 -0.1457  0.0755
 2256SOL    HW2 9022   0.448   1.842   3.925  0.3414 -0.1513  0.1054
 2256SOL    HW3 9023   0.381   1.975   3.901  0.7383 -0.0903 -0.6683
 2256SOL    MW4 9024   0.438   1.926   3.944  0.2083 -0.1392 -0.0186
 2257SOL     OW 9025   0.689   2.020   3.848  0.4120  0.0036  0.1366
 2257SOL    HW2 9026   0.691   2.113   3.871 -0.9252  0.4018 -1.2448
 2257SOL    HW3 9027   0.604   1.989   3.880 -0.3607 -0.0482 -1.8949
 2257SOL    MW4 9028   0.678   2.028   3.856  0.1336  0.0493 -0.3137
 2258SOL     OW 9029   0.700   2.298   3.902 -0.2349  0.1327  0.0641
 2258SOL    HW2 9030   0.774   2.337   3.857 -0.4444  2.2213  1.4549
 2258SOL    HW3 9031   0.625   2.350   3.874 -0.9462 -0.9585 -0.1008
 2258SOL    MW4 9032   0.700   2.310   3.892 -0.3564  0.2643  0.2258
 2259SOL     OW 9033   0.453   2.450   3.814  0.4242  0.4973  0.0371
 2259SOL    HW2 9034   0.375   2.412   3.853  0.3540  2.0196  1.4049
 2259SOL    HW3 9035   0.435   2.450   3.720  0.0631 -1.9783  0.0786
 2259SOL    MW4 9036   0.441   2.445   3.806  0.3673  0.3715  0.2231
 2260SOL     OW 9037   0.436   2.703   3.885 -0.1737 -0.0520 -0.0008
 2260SOL    HW2 9038   0.515   2.746   3.854  0.0747  0.3780  1.2155
 2260SOL    HW3 9039   0.443   2.613   3.851  0.1153  0.3874 -1.1234
 2260SOL    MW4 9040   0.447   2.696   3.876 -0.1028  0.0627  0.0116
 2261SOL     OW 9041   0.660   2.866   3.818  0.4558  0.5715  0.0450
 2261SOL    HW2 9042   0.739   2.815   3.838 -0.4772 -0.8075  0.2511
 2261SOL    HW3 9043   0.651   2.860   3.723 -0.0296 -0.2214  0.1372
 2261SOL    MW4 9044   0.670   2.859   3.808  0.2686  0.2849  0.0844
 2262SOL     OW 9045   0.684   3.102   3.945  0.5715  0.2284  0.0972
 2262SOL    HW2 9046   0.674   3.101   4.040 -0.8145  0.2339 -0.0293
 2262SOL    HW3 9047   0.684   3.010   3.919  0.9929  0.2258  0.1129
 2262SOL    MW4 9048   0.683   3.090   3.954  0.4442  0.2288  0.0825
 2263SOL     OW 9049   0.449   3.207   3.828  0.1274  0.2230  0.1885
 2263SOL    HW2 9050   0.534   3.185   3.867  0.5016  0.4815 -0.4764
 2263SOL    HW3 9051   0.386   3.153   3.876  1.0563 -2.5671 -1.6231
 2263SOL    MW4 9052   0.452   3.197   3.840  0.2993 -0.1110 -0.1382
 2264SOL     OW 9053   0.445   3.446   3.968 -0.0631 -0.1295  0.5084
 2264SOL    HW2 9054   0.526   3.482   3.931  0.3128 -1.2291  0.2394
 2264SOL    HW3 9055   0.432   3.364   3.921 -1.1632 -0.1200  0.7847
 2264SOL    MW4 9056   0.454   3.440   3.957 -0.1587 -0.2733  0.5093
 2265SOL     OW 9057   0.654   3.577   3.864  0.6946 -0.0235 -0.1970
 2265SOL    HW2 9058   0.657   3.671   3.880 -1.6774 -0.2410  1.8809
 2265SOL    HW3 9059   0.657   3.568   3.769  2.7789  2.0318 -0.3534
 2265SOL    MW4 9060   0.655   3.588   3.854  0.6566  0.2190  0.0565
 2266SOL     OW 9061   0.667   3.846   3.956 -0.1365  0.1512 -0.1349
 2266SOL    HW2 9062   0.691   3.846   4.048  0.0480 -1.5903 -0.1637
 2266SOL    HW3 9063   0.742   3.887   3.912 -0.1465  0.8229  0.4563
 2266SOL    MW4 9064   0.680   3.851   3.962 -0.1135  0.0100 -0.0607
 2267SOL     OW 9065   0.441   3.970   3.865  0.1067 -0.1186 -0.2261
 2267SOL    HW2 9066   0.523   3.927   3.888  0.5772  0.9662  0.1657
 2267SOL    HW3 9067   0.445   3.981   3.770  0.1779 -0.5417 -0.2730
 2267SOL    MW4 9068   0.452   3.966   3.856  0.1782 -0.0313 -0.1806
 2268SOL     OW 9069   0.465   4.248   3.922 -0.4149  0.2965 -0.3854
 2268SOL    HW2 9070   0.549   4.281   3.889  0.1112 -0.3154  0.3384
 2268SOL    HW3 9071   0.465   4.155   3.899 -0.6652  0.1782  0.0827
 2268SOL    MW4 9072   0.476   4.240   3.914 -0.3785  0.2002 -0.2282
 2269SOL     OW 9073   0.691   4.366   3.811 -0.0955 -0.7871  0.4458
 2269SOL    HW2 9074   0.761   4.315   3.851 -0.1674 -0.3376  1.1490
 2269SOL    HW3 9075   0.695   4.344   3.718  1.2735 -0.4128  0.4050
 2269SOL    MW4 9076   0.700   4.356   3.804  0.0756 -0.6784  0.5332
 2270SOL     OW 9077   1.142   4.634   3.995  0.2958  0.0459 -0.1686
 2270SOL    HW2 9078   1.205   4.689   3.950  0.7674  0.3016  0.7754
 2270SOL    HW3 9079   1.144   4.551   3.947  0.8570  0.2776 -0.5502
 2270SOL    MW4 9080   1.151   4.630   3.983  0.4321  0.1102 -0.0944
 2271SOL     OW 9081   0.936   0.037   3.830  0.2837  0.2907 -0.1413
 2271SOL    HW2 9082   1.000   0.022   3.899  0.2078  1.7975  0.2861
 2271SOL    HW3 9083   0.851   0.022   3.871  0.2410  1.1332  0.0887
 2271SOL    MW4 9084   0.933   0.033   3.844  0.2680  0.6007 -0.0546
 2272SOL     OW 9085   0.892   0.314   3.871 -0.1380  0.1195 -0.1184
 2272SOL    HW2 9086   0.850   0.299   3.956  0.8900  0.1474  0.4071
 2272SOL    HW3 9087   0.908   0.226   3.836  1.4723  0.0427  0.7507
 2272SOL    MW4 9088   0.889   0.300   3.878  0.2101  0.1130  0.0656
 2273SOL     OW 9089   1.103   0.482   3.808  0.2236  0.1389  0.2798
 2273SOL    HW2 9090   1.176   0.439   3.853  0.2128  0.1242  0.2833
 2273SOL    HW3 9091   1.025   0.442   3.846  0.2300 -0.5166 -0.3838
 2273SOL    MW4 9092   1.102   0.471   3.819  0.2230  0.0504  0.1927
 2274SOL     OW 9093   1.165   0.750   3.889 -0.6195  0.5422  0.1660
 2274SOL    HW2 9094   1.156   0.729   3.983 -2.3877 -0.1314 -0.1275
 2274SOL    HW3 9095   1.149   0.666   3.845 -0.0977  0.9269 -0.7652
 2274SOL    MW4 9096   1.162   0.736   3.896 -0.7839  0.5041  0.0044
 2275SOL     OW 9097   0.902   0.845   3.839  0.1553 -0.5905 -0.4443
 2275SOL    HW2 9098   0.989   0.810   3.859  1.1214  2.1415  0.3827
 2275SOL    HW3 9099   0.897   0.847   3.744  0.1697 -2.6726 -0.5078
 2275SOL    MW4 9100   0.913   0.841   3.829  0.2847 -0.5048 -0.3436
 2276SOL     OW 9101   0.908   1.128   3.893 -0.3769  0.7179  0.0480
 2276SOL    HW2 9102   0.911   1.126   3.989 -1.4510 -0.0357  0.0802
 2276SOL    HW3 9103   0.894   1.037   3.868 -1.6190  1.1154 -0.7569
 2276SOL    MW4 9104   0.907   1.116   3.903 -0.6825  0.6709 -0.0540
 2277SOL     OW 9105   1.149   1.259   3.814  0.2866  0.1821 -0.1642
 2277SOL    HW2 9106   1.143   1.349   3.846  0.2143 -0.7704  2.6694
 2277SOL    HW3 9107   1.066   1.219   3.841  0.9356 -1.1098 -0.0658
 2277SOL    MW4 9108   1.137   1.266   3.822  0.3627 -0.1140  0.2226
 2278SOL     OW 9109   1.111   1.518   3.915 -0.2066 -0.1019 -0.1990
 2278SOL    HW2 9110   1.130   1.522   4.008  0.1011 -1.1495 -0.2168
 2278SOL    HW3 9111   1.190   1.553   3.873  0.0343 -0.5447 -0.1106
 2278SOL    MW4 9112   1.124   1.523   3.921 -0.1342 -0.2986 -0.1897
 2279SOL     OW 9113   0.903   1.665   3.810 -0.2852 -0.1021  0.2100
 2279SOL    HW2 9114   0.962   1.601   3.850 -1.1948 -0.9230  0.2684
 2279SOL    HW3 9115   0.887   1.632   3.722 -0.1027  0.4856 -0.0426
 2279SOL    MW4 9116   0.909   1.652   3.804 -0.3812 -0.1328  0.1844
 2280SOL     OW 9117   0.936   1.920   3.914 -0.0174  0.5421 -0.5292
 2280SOL    HW2 9118   0.945   1.830   3.882  0.5923  0.5753 -0.4609
 2280SOL    HW3 9119   0.851   1.949   3.881  0.9316  0.8427 -2.7548
 2280SOL    MW4 9120   0.926   1.912   3.906  0.1883  0.5861 -0.8138
 2281SOL     OW 9121   1.157   2.059   3.813  0.0591  0.5298 -0.3819
 2281SOL    HW2 9122   1.086   2.004   3.847  1.1293 -0.6293 -0.0066
 2281SOL    HW3 9123   1.167   2.032   3.722  0.7064 -0.0363 -0.1475
 2281SOL    MW4 9124   1.149   2.048   3.805  0.2857  0.3022 -0.3015
 2282SOL     OW 9125   1.174   2.314   3.916 -0.1392  0.2632  0.1479
 2282SOL    HW2 9126   1.171   2.307   4.011 -1.4822  0.1412  0.1035
 2282SOL    HW3 9127   1.145   2.229   3.884  0.4351  0.2563 -0.3772
 2282SOL    MW4 9128   1.170   2.302   3.924 -0.2406  0.2462  0.0728
 2283SOL     OW 9129   0.935   2.447   3.833  0.1172 -0.3298  0.0814
 2283SOL    HW2 9130   0.915   2.535   3.866  1.8907 -0.9744  3.0545
 2283SOL    HW3 9131   1.024   2.430   3.863  0.9362 -1.9698 -3.1049
 2283SOL    MW4 9132   0.944   2.456   3.841  0.4593 -0.6312  0.0533
 2284SOL     OW 9133   0.903   2.722   3.894  0.5214 -0.2602 -0.0727
 2284SOL    HW2 9134   0.892   2.750   3.985 -1.5250  1.2170 -0.7273
 2284SOL    HW3 9135   0.981   2.768   3.864 -0.0282  0.9669  0.3304
 2284SOL    MW4 9136   0.912   2.732   3.902  0.1789  0.0966 -0.1059
 2285SOL     OW 9137   1.124   2.846   3.800 -0.0153 -0.3729  0.2955
 2285SOL    HW2 9138   1.200   2.791   3.818  0.9116  0.4002 -1.2292
 2285SOL    HW3 9139   1.136   2.923   3.855  1.0176  0.3692 -0.9340
 2285SOL    MW4 9140   1.135   2.849   3.810  0.2433 -0.1730 -0.0679
 2286SOL     OW 9141   1.151   3.090   3.934 -0.4088  0.1250  0.1869
 2286SOL    HW2 9142   1.227   3.126   3.888 -1.0117 -0.4435 -1.2905
 2286SOL    HW3 9143   1.078   3.145   3.906 -0.8100 -0.3303  0.3383
 2286SOL    MW4 9144   1.152   3.102   3.925 -0.5412 -0.0101  0.0120
 2287SOL     OW 9145   0.906   3.235   3.826  0.1906 -0.4577  0.3386
 2287SOL    HW2 9146   0.821   3.198   3.853 -0.6314  1.5606  0.5614
 2287SOL    HW3 9147   0.906   3.228   3.731 -0.9594  1.0557  0.2124
 2287SOL    MW4 9148   0.895   3.229   3.817 -0.0696  0.0083  0.3514
 2288SOL     OW 9149   0.895   3.478   3.942  0.1681  0.2265  0.5673
 2288SOL    HW2 9150   0.899   3.403   3.883  1.3883  1.1334 -0.5313
 2288SOL    HW3 9151   0.817   3.526   3.914  0.1984  0.1362  0.3238
 2288SOL    MW4 9152   0.885   3.474   3.930  0.3331  0.3342  0.3902
 2289SOL     OW 9153   1.112   3.625   3.823  0.1140 -0.4799 -0.6006
 2289SOL    HW2 9154   1.108   3.720   3.833  0.6119 -0.4089 -1.0532
 2289SOL    HW3 9155   1.049   3.592   3.886  1.4671  0.0614  1.0729
 2289SOL    MW4 9156   1.103   3.633   3.832  0.3582 -0.3991 -0.4395
 2290SOL     OW 9157   1.112   3.887   3.912 -0.2041 -0.4787  0.2334
 2290SOL    HW2 9158   1.137   3.866   4.002  0.2369 -1.7631 -0.1722
 2290SOL    HW3 9159   1.188   3.932   3.875 -0.7351  0.8779  0.7756
 2290SOL    MW4 9160   1.125   3.890   3.919 -0.2159 -0.4691  0.2514
 2291SOL     OW 9161   0.873   3.989   3.832  0.1250 -0.0630 -0.4493
 2291SOL    HW2 9162   0.959   3.956   3.858  1.1247  2.6207 -0.1730
 2291SOL    HW3 9163   0.874   3.985   3.737  1.0932  1.1752 -0.5073
 2291SOL    MW4 9164   0.885   3.984   3.823  0.3847  0.4545 -0.4205
 2292SOL     OW 9165   0.916   4.243   3.932  0.0289 -0.3895 -0.0006
 2292SOL    HW2 9166   0.924   4.238   4.028 -0.7952  0.4612  0.1118
 2292SOL    HW3 9167   0.915   4.151   3.904  0.5581 -0.6422  0.7752
 2292SOL    MW4 9168   0.917   4.230   3.941 -0.0100 -0.3106  0.1166
 2293SOL     OW 9169   1.158   4.396   3.866 -0.0409 -0.4293 -0.2825
 2293SOL    HW2 9170   1.077   4.350   3.887 -0.7613  0.4797 -1.0194
 2293SOL    HW3 9171   1.165   4.390   3.771  0.2678  0.2882 -0.3103
 2293SOL    MW4 9172   1.148   4.389   3.856 -0.0952 -0.2147 -0.3834
 2294SOL     OW 9173   1.574   4.659   3.901  0.5307 -0.7519 -0.2629
 2294SOL    HW2 9174   1.583   4.656   3.996 -0.1742  0.4666 -0.1501
 2294SOL    HW3 9175   1.594   4.570   3.872  0.1534 -1.2742  1.0687
 2294SOL    MW4 9176   1.578   4.647   3.910  0.3879 -0.6601 -0.0723
 2295SOL     OW 9177   1.330   0.106   3.833 -0.2761  0.1936 -0.0924
 2295SOL    HW2 9178   1.327   0.199   3.852  0.0458  0.5672 -1.8063
 2295SOL    HW3 9179   1.416   0.078   3.865 -0.9870  0.1336  1.8488
 2295SOL    MW4 9180   1.341   0.114   3.840 -0.3274  0.2350 -0.0624
 2296SOL     OW 9181   1.311   0.370   3.952  0.3150 -0.5604  0.3618
 2296SOL    HW2 9182   1.331   0.363   4.045 -0.6091 -0.5434  0.5696
 2296SOL    HW3 9183   1.388   0.412   3.913  1.6390 -2.5723  0.7577
 2296SOL    MW4 9184   1.323   0.374   3.959  0.3678 -0.8236  0.4414
 2297SOL     OW 9185   1.535   0.479   3.821 -0.2865  0.1454 -0.0190
 2297SOL    HW2 9186   1.613   0.433   3.853 -0.0002  0.4316 -0.3080
 2297SOL    HW3 9187   1.542   0.567   3.859 -1.0435 -0.1664  0.8718
 2297SOL    MW4 9188   1.546   0.485   3.830 -0.3486  0.1420  0.0604
 2298SOL     OW 9189   1.565   0.751   3.900  0.1147 -0.4843  0.0571
 2298SOL    HW2 9190   1.646   0.800   3.889  0.0073 -0.4011 -0.3867
 2298SOL    HW3 9191   1.496   0.810   3.869 -0.1335 -0.4948  0.5856
 2298SOL    MW4 9192   1.566   0.765   3.894  0.0678 -0.4747  0.0683
 2299SOL     OW 9193   1.371   0.918   3.806 -0.0208  0.4301 -0.0338
 2299SOL    HW2 9194   1.370   0.997   3.860 -0.7370 -0.3616  1.1295
 2299SOL    HW3 9195   1.289   0.874   3.827 -0.6032  0.4058 -2.2263
 2299SOL    MW4 9196   1.360   0.923   3.816 -0.1922  0.3224 -0.1696
 2300SOL     OW 9197   1.373   1.154   3.956 -0.2103  0.0288 -0.1701
 2300SOL    HW2 9198   1.448   1.196   3.914  0.1692  1.2730  1.6803
 2300SOL    HW3 9199   1.296   1.193   3.913  0.1832  0.6735 -0.3019
 2300SOL    MW4 9200   1.372   1.165   3.945 -0.1083  0.2780  0.0566
 2301SOL     OW 9201   1.591   1.268   3.842 -0.3284  0.1518 -0.0626
 2301SOL    HW2 9202   1.675   1.229   3.863 -0.2740  0.6887  0.7512
 2301SOL    HW3 9203   1.601   1.360   3.867 -1.3202  0.1069  0.5435
 2301SOL    MW4 9204   1.603   1.275   3.848 -0.4521  0.2167  0.1247
 2302SOL     OW 9205   1.571   1.535   3.903  0.3472  0.0863 -0.0687
 2302SOL    HW2 9206   1.575   1.546   3.998  1.0477  2.1489 -0.3191
 2302SOL    HW3 9207   1.645   1.585   3.870  0.8021 -1.5883 -1.6385
 2302SOL    MW4 9208   1.581   1.543   3.912  0.4997  0.1375 -0.3089
 2303SOL     OW 9209   1.335   1.639   3.790 -0.3623 -0.2626  0.5581
 2303SOL    HW2 9210   1.334   1.723   3.834  0.2338  0.3860 -0.6362
 2303SOL    HW3 9211   1.416   1.597   3.817 -0.1040  0.0404  0.2517
 2303SOL    MW4 9212   1.345   1.644   3.799 -0.2495 -0.1371  0.3601
 2304SOL     OW 9213   1.361   1.891   3.897 -0.1895  0.0783  0.1417
 2304SOL    HW2 9214   1.364   1.898   3.992  0.1161  1.4057  0.0463
 2304SOL    HW3 9215   1.295   1.954   3.870  0.2751  0.2604 -0.5789
 2304SOL    MW4 9216   1.353   1.900   3.906 -0.0879  0.2775  0.0341
 2305SOL     OW 9217   1.604   1.973   3.771 -0.1755  1.2569  0.0213
 2305SOL    HW2 9218   1.516   1.959   3.806 -0.6015 -1.3422 -1.9460
 2305SOL    HW3 9219   1.589   2.007   3.683  0.7131 -1.4818 -1.2281
 2305SOL    MW4 9220   1.590   1.976   3.764 -0.1145  0.5527 -0.4031
 2306SOL     OW 9221   1.615   2.233   3.881  0.0215 -0.0125  0.0042
 2306SOL    HW2 9222   1.685   2.287   3.847 -0.0149  0.1871  0.2430
 2306SOL    HW3 9223   1.627   2.148   3.838 -0.3412  0.3868 -0.8964
 2306SOL    MW4 9224   1.626   2.229   3.871 -0.0311  0.0666 -0.0831
 2307SOL     OW 9225   1.402   2.431   3.773 -0.2058  0.1267 -0.2386
 2307SOL    HW2 9226   1.464   2.358   3.782  0.4558  0.8813  1.5375
 2307SOL    HW3 9227   1.319   2.396   3.803 -0.1977 -0.3074 -0.7193
 2307SOL    MW4 9228   1.399   2.417   3.778 -0.1175  0.1689 -0.0677
 2308SOL     OW 9229   1.356   2.697   3.861 -0.4384  0.0180 -0.1619
 2308SOL    HW2 9230   1.350   2.687   3.956 -0.6278  0.9149 -0.0746
 2308SOL    HW3 9231   1.383   2.611   3.829  0.2901 -0.0942  0.7671
 2308SOL    MW4 9232   1.358   2.685   3.869 -0.3673  0.1215 -0.0278
 2309SOL     OW 9233   1.570   2.849   3.786 -0.1621 -0.1839  0.0091
 2309SOL    HW2 9234   1.487   2.806   3.803 -0.2908  0.0226 -0.0962
 2309SOL    HW3 9235   1.575   2.855   3.691  0.9213 -2.0471 -0.0689
 2309SOL    MW4 9236   1.560   2.844   3.776 -0.0362 -0.4025 -0.0151
 2310SOL     OW 9237   1.594   3.107   3.857  0.1164  0.1224 -0.4112
 2310SOL    HW2 9238   1.594   3.113   3.952 -1.6915  1.1334 -0.4425
 2310SOL    HW3 9239   1.589   3.013   3.839 -1.0401 -0.0169  0.5351
 2310SOL    MW4 9240   1.593   3.095   3.867 -0.2747  0.2374 -0.2905
 2311SOL     OW 9241   1.362   3.243   3.804 -0.3409 -0.1944 -0.3602
 2311SOL    HW2 9242   1.361   3.327   3.849  2.2342  0.1574 -0.8835
 2311SOL    HW3 9243   1.449   3.207   3.822 -0.7124 -1.8621 -1.7439
 2311SOL    MW4 9244   1.373   3.249   3.812 -0.0502 -0.3680 -0.6118
 2312SOL     OW 9245   1.358   3.491   3.919  0.0793 -0.1240  0.1331
 2312SOL    HW2 9246   1.431   3.536   3.876  0.6476  0.1855  1.4114
 2312SOL    HW3 9247   1.280   3.537   3.888  0.3244 -1.1390 -2.0759
 2312SOL    MW4 9248   1.357   3.503   3.909  0.1866 -0.2171  0.0103
 2313SOL     OW 9249   1.586   3.601   3.783  0.4482  0.1469  0.1157
 2313SOL    HW2 9250   1.661   3.556   3.821  1.3294  0.8429 -0.7777
 2313SOL    HW3 9251   1.593   3.691   3.815 -0.4457  0.0458  0.6426
 2313SOL    MW4 9252   1.597   3.607   3.792  0.4465  0.2254  0.0674
 2314SOL     OW 9253   1.570   3.871   3.883 -0.0445  0.5651 -0.9535
 2314SOL    HW2 9254   1.573   3.875   3.978  0.9286  1.7543 -1.0202
 2314SOL    HW3 9255   1.491   3.920   3.859  0.4941  1.4938 -0.8243
 2314SOL    MW4 9256   1.560   3.878   3.892  0.1549  0.8445 -0.9453
 2315SOL     OW 9257   1.335   4.002   3.807  0.2494 -0.4963  0.0405
 2315SOL    HW2 9258   1.362   4.087   3.841 -1.6607  0.0277  0.3335
 2315SOL    HW3 9259   1.364   4.001   3.716 -0.0914  0.6600 -0.0896
 2315SOL    MW4 9260   1.342   4.013   3.800 -0.0476 -0.2746  0.0620
 2316SOL     OW 9261   1.396   4.242   3.896  0.0839  0.1434 -0.5238
 2316SOL    HW2 9262   1.456   4.313   3.877 -0.5650  0.8204 -0.0507
 2316SOL    HW3 9263   1.310   4.283   3.901 -0.4145 -0.8022 -1.1124
 2316SOL    MW4 9264   1.392   4.257   3.894 -0.0675  0.1079 -0.5390
 2317SOL     OW 9265   1.613   4.395   3.794 -0.5865 -0.1030  0.1520
 2317SOL    HW2 9266   1.696   4.352   3.816 -0.9493 -0.1769  1.4402
 2317SOL    HW3 9267   1.607   4.390   3.699  0.7066 -0.4397  0.0858
 2317SOL    MW4 9268   1.623   4.388   3.784 -0.4637 -0.1571  0.3132
 2318SOL     OW 9269   2.019   4.625   3.899 -0.5853  0.1413 -0.0092
 2318SOL    HW2 9270   2.099   4.673   3.874  0.2203 -0.6406  1.0333
 2318SOL    HW3 9271   2.038   4.534   3.877 -2.4324  0.3618 -2.7708
 2318SOL    MW4 9272   2.032   4.619   3.892 -0.7227  0.0672 -0.2360
 2319SOL     OW 9273   1.793   0.105   3.786 -0.4954 -0.0397 -0.2268
 2319SOL    HW2 9274   1.866   0.052   3.817  0.2925  0.8374 -0.5602
 2319SOL    HW3 9275   1.715   0.061   3.819  0.1766 -1.1028 -0.0514
 2319SOL    MW4 9276   1.792   0.092   3.794 -0.3028 -0.0642 -0.2477
 2320SOL     OW 9277   1.788   0.371   3.904  0.5268  0.5030 -0.0242
 2320SOL    HW2 9278   1.807   0.368   3.998  1.5275 -0.0926 -0.2446
 2320SOL    HW3 9279   1.787   0.280   3.876 -0.1195  0.6599 -0.5297
 2320SOL    MW4 9280   1.790   0.359   3.913  0.5736  0.4451 -0.1199
 2321SOL     OW 9281   2.053   0.455   3.816 -0.2043 -0.3080 -0.0291
 2321SOL    HW2 9282   1.969   0.409   3.818 -0.9700  1.0869  1.1284
 2321SOL    HW3 9283   2.060   0.486   3.725 -0.8380 -0.6525 -0.1998
 2321SOL    MW4 9284   2.043   0.453   3.804 -0.3889 -0.1694  0.1011
 2322SOL     OW 9285   2.021   0.709   3.912  0.1240 -0.3631 -0.0022
 2322SOL    HW2 9286   2.020   0.723   4.007 -1.3289  0.2887 -0.0924
 2322SOL    HW3 9287   2.019   0.614   3.902  2.1510 -0.4867  0.6104
 2322SOL    MW4 9288   2.020   0.698   3.924  0.1998 -0.2934  0.0667
 2323SOL     OW 9289   1.801   0.881   3.830 -0.1275 -0.1673  0.3681
 2323SOL    HW2 9290   1.868   0.813   3.837  1.5719  1.4697  0.4622
 2323SOL    HW3 9291   1.782   0.886   3.737  0.4317 -0.1299  0.2526
 2323SOL    MW4 9292   1.807   0.872   3.819  0.1705  0.0536  0.3653
 2324SOL     OW 9293   1.832   1.145   3.921  0.0928 -0.0348 -0.1656
 2324SOL    HW2 9294   1.840   1.129   4.015  0.4608  1.3441  0.0589
 2324SOL    HW3 9295   1.830   1.058   3.882  0.8891 -0.6205  1.0443
 2324SOL    MW4 9296   1.833   1.132   3.928  0.2464  0.0698  0.0237
 2325SOL     OW 9297   2.036   1.305   3.798 -0.1713 -0.0129 -0.1474
 2325SOL    HW2 9298   2.103   1.244   3.827 -1.2747 -0.1068  2.2978
 2325SOL    HW3 9299   1.953   1.266   3.827 -1.0963  1.3571 -0.8719
 2325SOL    MW4 9300   2.034   1.292   3.806 -0.4389  0.1555  0.0796
 2326SOL     OW 9301   2.034   1.533   3.930  0.3997 -0.1322  0.1977
 2326SOL    HW2 9302   1.949   1.562   3.898  0.3307  0.3265  0.7803
 2326SOL    HW3 9303   2.051   1.451   3.884 -0.2276 -0.0764 -0.1297
 2326SOL    MW4 9304   2.025   1.526   3.920  0.3078 -0.0643  0.2314
 2327SOL     OW 9305   1.820   1.628   3.815  0.2525 -0.9650  0.0369
 2327SOL    HW2 9306   1.837   1.716   3.847 -0.1658 -1.1802  0.8921
 2327SOL    HW3 9307   1.825   1.634   3.720 -1.5031  0.3540  0.0120
 2327SOL    MW4 9308   1.823   1.640   3.807 -0.0343 -0.8193  0.1464
 2328SOL     OW 9309   1.829   1.895   3.897  0.3118  0.0238 -0.0141
 2328SOL    HW2 9310   1.822   1.927   3.987  0.9555  0.2415 -0.0321
 2328SOL    HW3 9311   1.748   1.924   3.854  0.9611  1.8384 -0.0831
 2328SOL    MW4 9312   1.818   1.903   3.903  0.4824  0.2920 -0.0256
 2329SOL     OW 9313   2.028   2.062   3.789 -0.4844 -0.3585 -0.0587
 2329SOL    HW2 9314   1.961   2.001   3.820 -2.3336  1.7802  0.2873
 2329SOL    HW3 9315   2.007   2.076   3.697 -0.1883 -0.0585 -0.0809
 2329SOL    MW4 9316   2.016   2.056   3.781 -0.6893 -0.0367 -0.0160
 2330SOL     OW 9317   2.014   2.280   3.942  0.2113 -0.2040  0.1013
 2330SOL    HW2 9318   1.945   2.329   3.898  0.2536 -0.8042 -0.6289
 2330SOL    HW3 9319   2.015   2.195   3.899  1.1431 -0.3394  0.3764
 2330SOL    MW4 9320   2.005   2.276   3.931  0.3398 -0.3010  0.0412
 2331SOL     OW 9321   1.814   2.403   3.784 -0.2659 -0.2855 -0.1497
 2331SOL    HW2 9322   1.791   2.490   3.816  1.2944  0.3001 -0.5587
 2331SOL    HW3 9323   1.804   2.409   3.689 -2.0626 -1.1520 -0.0313
 2331SOL    MW4 9324   1.810   2.415   3.776 -0.2971 -0.3226 -0.1880
 2332SOL     OW 9325   1.784   2.661   3.875  0.3829  0.0111  0.4612
 2332SOL    HW2 9326   1.801   2.685   3.966 -0.1326 -0.7790  0.7692
 2332SOL    HW3 9327   1.707   2.712   3.850  0.3801  0.0448  0.5406
 2332SOL    MW4 9328   1.776   2.671   3.884  0.3145 -0.0887  0.5123
 2333SOL     OW 9329   2.008   2.843   3.815  0.0677  0.1397  0.0594
 2333SOL    HW2 9330   2.086   2.806   3.856  0.4163 -0.5254 -1.1743
 2333SOL    HW3 9331   1.936   2.787   3.843  0.1388  0.3512  0.6572
 2333SOL    MW4 9332   2.009   2.831   3.824  0.1231  0.0799 -0.0245
 2334SOL     OW 9333   2.032   3.090   3.928 -0.0902  0.0220  0.3308
 2334SOL    HW2 9334   2.113   3.125   3.892  0.7092  0.6529  2.6782
 2334SOL    HW3 9335   2.017   3.010   3.878  0.0212  1.7638 -2.5842
 2334SOL    MW4 9336   2.041   3.084   3.917  0.0299  0.3350  0.2559
 2335SOL     OW 9337   1.844   3.225   3.763 -0.1434 -0.1966  0.1381
 2335SOL    HW2 9338   1.921   3.194   3.810  0.3370 -0.4555 -0.8006
 2335SOL    HW3 9339   1.774   3.165   3.789  0.3868 -1.0344 -0.3658
 2335SOL    MW4 9340   1.845   3.213   3.773 -0.0101 -0.3413 -0.0522
 2336SOL     OW 9341   1.828   3.489   3.876  0.0442 -0.2518 -0.3467
 2336SOL    HW2 9342   1.899   3.530   3.828  1.4077 -1.6562  0.4141
 2336SOL    HW3 9343   1.827   3.399   3.845 -0.4051 -0.6354  0.7342
 2336SOL    MW4 9344   1.837   3.482   3.866  0.1648 -0.4877 -0.1037
 2337SOL     OW 9345   2.042   3.629   3.766 -0.3323  0.0336  0.3215
 2337SOL    HW2 9346   2.105   3.563   3.795 -0.8369 -0.3397  0.5883
 2337SOL    HW3 9347   2.036   3.617   3.671 -1.0891 -0.9148  0.4776
 2337SOL    MW4 9348   2.049   3.618   3.757 -0.4987 -0.1408  0.3773
 2338SOL     OW 9349   2.017   3.859   3.905 -0.4662  0.4058  0.4011
 2338SOL    HW2 9350   2.093   3.905   3.869  0.5903 -0.0763  1.9996
 2338SOL    HW3 9351   2.019   3.773   3.865 -1.0971  0.9122 -0.7673
 2338SOL    MW4 9352   2.027   3.854   3.895 -0.4101  0.4090  0.4578
 2339SOL     OW 9353   1.811   4.014   3.793  0.1633 -0.0521  0.6120
 2339SOL    HW2 9354   1.882   3.953   3.814 -0.6786 -1.8686 -1.4791
 2339SOL    HW3 9355   1.734   3.976   3.835 -0.1687  0.1642  0.1997
 2339SOL    MW4 9356   1.810   4.001   3.801  0.0084 -0.2632  0.2817
 2340SOL     OW 9357   1.832   4.271   3.908 -0.0636  0.1714  0.2818
 2340SOL    HW2 9358   1.911   4.304   3.865  1.5543 -0.9384  2.3456
 2340SOL    HW3 9359   1.808   4.194   3.857  1.6522 -0.9483  1.1184
 2340SOL    MW4 9360   1.839   4.265   3.896  0.3762 -0.1228  0.6645
 2341SOL     OW 9361   2.064   4.380   3.780 -0.3063  0.1373 -0.4820
 2341SOL    HW2 9362   2.146   4.329   3.783  0.6335  1.6976  1.1928
 2341SOL    HW3 9363   2.053   4.401   3.688  2.0143  1.1955 -0.5635
 2341SOL    MW4 9364   2.073   4.376   3.769  0.1239  0.4828 -0.2718
 2342SOL     OW 9365   2.534   4.652   3.864  0.0147 -0.2795  0.1648
 2342SOL    HW2 9366   2.535   4.643   3.959  0.2055 -1.5944  0.0473
 2342SOL    HW3 9367   2.615   4.701   3.844  0.1523 -0.3095  0.6427
 2342SOL    MW4 9368   2.545   4.657   3.874  0.0580 -0.4569  0.2124
 2343SOL     OW 9369   2.267   0.056   3.818 -0.0723 -0.4125  0.0131
 2343SOL    HW2 9370   2.351   0.022   3.847  0.3196 -0.0929 -0.7294
 2343SOL    HW3 9371   2.278   0.072   3.725 -1.4561 -1.8459 -0.4203
 2343SOL    MW4 9372   2.280   0.054   3.810 -0.2032 -0.5595 -0.1420
 2344SOL     OW 9373   2.260   0.306   3.926  0.0309  0.9540 -0.1465
 2344SOL    HW2 9374   2.271   0.214   3.902  1.5353  1.3126 -0.8830
 2344SOL    HW3 9375   2.186   0.336   3.874  0.1540  0.4132 -0.6406
 2344SOL    MW4 9376   2.252   0.298   3.916  0.2456  0.9299 -0.3089
 2345SOL     OW 9377   2.442   0.482   3.810 -0.3791  0.3015  0.3357
 2345SOL    HW2 9378   2.380   0.415   3.837  0.1730 -0.4741 -0.2814
 2345SOL    HW3 9379   2.441   0.479   3.715 -0.1804  1.0164  0.3079
 2345SOL    MW4 9380   2.434   0.473   3.801 -0.2800  0.2935  0.2506
 2346SOL     OW 9381   2.464   0.768   3.921 -0.2220 -0.1287  0.1536
 2346SOL    HW2 9382   2.387   0.813   3.887 -0.4084  0.1912  1.0024
 2346SOL    HW3 9383   2.459   0.680   3.883  0.2546  0.6140 -1.6705
 2346SOL    MW4 9384   2.453   0.762   3.911 -0.1837  0.0115  0.0249
 2347SOL     OW 9385   2.233   0.852   3.795 -0.1061  0.1023  0.3772
 2347SOL    HW2 9386   2.150   0.821   3.831 -0.3350 -0.6253 -0.7733
 2347SOL    HW3 9387   2.215   0.870   3.703  1.2099 -0.8426 -0.0909
 2347SOL    MW4 9388   2.220   0.851   3.788  0.0374 -0.1183  0.1636
 2348SOL     OW 9389   2.259   1.121   3.873 -0.3872 -0.1811 -0.2218
 2348SOL    HW2 9390   2.260   1.106   3.968 -0.6851 -2.2535 -0.5162
 2348SOL    HW3 9391   2.242   1.034   3.836 -0.1827  0.6006 -2.1761
 2348SOL    MW4 9392   2.257   1.107   3.881 -0.3995 -0.3514 -0.5185
 2349SOL     OW 9393   2.496   1.241   3.796 -0.0702 -0.2217  0.4708
 2349SOL    HW2 9394   2.493   1.331   3.828 -0.3387 -0.5427  1.3693
 2349SOL    HW3 9395   2.420   1.198   3.836  1.3552 -1.4473  1.9584
 2349SOL    MW4 9396   2.486   1.247   3.806  0.0824 -0.4258  0.7856
 2350SOL     OW 9397   2.497   1.523   3.883 -0.5164 -0.0211 -0.1140
 2350SOL    HW2 9398   2.565   1.571   3.835 -0.5412 -0.4553 -0.5924
 2350SOL    HW3 9399   2.420   1.580   3.879 -0.5939 -0.1702 -0.8265
 2350SOL    MW4 9400   2.496   1.537   3.876 -0.5299 -0.0981 -0.2711
 2351SOL     OW 9401   2.251   1.668   3.830 -0.0550  0.6053 -0.2163
 2351SOL    HW2 9402   2.243   1.761   3.846  0.6835  0.3583  1.7646
 2351SOL    HW3 9403   2.174   1.629   3.870  0.0532  0.2951 -0.3026
 2351SOL    MW4 9404   2.240   1.675   3.837  0.0567  0.5318  0.0337
 2352SOL     OW 9405   2.235   1.941   3.911 -0.6584 -0.7150  0.2590
 2352SOL    HW2 9406   2.233   1.939   4.007  0.8377  2.7528  0.4030
 2352SOL    HW3 9407   2.154   1.986   3.887  0.4775  1.2098  0.0247
 2352SOL    MW4 9408   2.224   1.947   3.921 -0.3111 -0.0035  0.2471
 2353SOL     OW 9409   2.464   2.064   3.825 -0.1634 -0.0936  0.2596
 2353SOL    HW2 9410   2.464   2.156   3.851 -1.4598  0.1491 -0.5283
 2353SOL    HW3 9411   2.382   2.029   3.860 -1.2021 -0.1372 -2.0960
 2353SOL    MW4 9412   2.453   2.071   3.833 -0.4714 -0.0673 -0.1551
 2354SOL     OW 9413   2.461   2.340   3.883 -0.6070  0.0443  0.0289
 2354SOL    HW2 9414   2.528   2.372   3.823  0.0528 -2.3645 -0.5709
 2354SOL    HW3 9415   2.379   2.378   3.850  0.0868  0.7060 -0.9460
 2354SOL    MW4 9416   2.459   2.349   3.871 -0.4284 -0.1862 -0.1789
 2355SOL     OW 9417   2.213   2.467   3.821 -0.4080 -0.0475 -0.0554
 2355SOL    HW2 9418   2.141   2.422   3.864 -0.7508  0.5647  0.0147
 2355SOL    HW3 9419   2.207   2.441   3.729 -1.4601  0.9444 -0.2836
 2355SOL    MW4 9420   2.203   2.458   3.814 -0.5921  0.1642 -0.0762
 2356SOL     OW 9421   2.222   2.720   3.920  0.3307  0.4507 -0.1875
 2356SOL    HW2 9422   2.224   2.707   4.014  0.7456 -1.1374 -0.3978
 2356SOL    HW3 9423   2.229   2.632   3.883 -0.5940  0.9714 -1.6930
 2356SOL    MW4 9424   2.223   2.707   3.927  0.2635  0.3099 -0.4139
 2357SOL     OW 9425   2.443   2.851   3.780  0.1142 -0.0428 -1.1848
 2357SOL    HW2 9426   2.373   2.807   3.828  0.8503  0.3529  0.3097
 2357SOL    HW3 9427   2.431   2.825   3.689  0.0858 -2.7559 -0.4586
 2357SOL    MW4 9428   2.432   2.842   3.775  0.2076 -0.3486 -0.8918
 2358SOL     OW 9429   2.508   3.101   3.859 -0.1167 -0.3201 -0.2651
 2358SOL    HW2 9430   2.514   3.077   3.952 -0.3423  0.0753 -0.1477
 2358SOL    HW3 9431   2.477   3.021   3.816 -1.0914 -0.1740  0.1539
 2358SOL    MW4 9432   2.505   3.087   3.866 -0.2750 -0.2487 -0.1943
 2359SOL     OW 9433   2.249   3.209   3.807 -0.4726  0.0312  0.0806
 2359SOL    HW2 9434   2.252   3.305   3.804 -0.9955  0.0306 -0.9730
 2359SOL    HW3 9435   2.335   3.183   3.839  0.1573  0.8286 -0.9098
 2359SOL    MW4 9436   2.261   3.218   3.811 -0.4585  0.1363 -0.1891
 2360SOL     OW 9437   2.238   3.486   3.864  0.3864  0.0838 -0.3462
 2360SOL    HW2 9438   2.242   3.480   3.960  0.7209  0.5842 -0.3263
 2360SOL    HW3 9439   2.321   3.526   3.840 -0.1946  1.0483 -0.7574
 2360SOL    MW4 9440   2.249   3.490   3.874  0.3539  0.2771 -0.3979
 2361SOL     OW 9441   2.492   3.596   3.824 -0.2629  0.4098  0.7293
 2361SOL    HW2 9442   2.572   3.551   3.850 -0.9703 -1.1323  0.2492
 2361SOL    HW3 9443   2.503   3.613   3.731  0.2588  1.7886  1.0293
 2361SOL    MW4 9444   2.504   3.593   3.815 -0.2874  0.3883  0.7055
 2362SOL     OW 9445   2.483   3.857   3.901  0.1158  0.1892 -0.5834
 2362SOL    HW2 9446   2.563   3.901   3.874  1.6304 -0.9874  1.8132
 2362SOL    HW3 9447   2.499   3.764   3.885 -0.2757 -0.1798  1.0079
 2362SOL    MW4 9448   2.495   3.851   3.895  0.2640 -0.0147 -0.0573
 2363SOL     OW 9449   2.241   3.954   3.773  0.1320  0.1422  0.0254
 2363SOL    HW2 9450   2.325   3.915   3.795  0.7406  0.9994 -0.7014
 2363SOL    HW3 9451   2.246   3.970   3.678 -1.3793 -1.0600 -0.2698
 2363SOL    MW4 9452   2.253   3.951   3.763  0.0129  0.0967 -0.1094
 2364SOL     OW 9453   2.306   4.218   3.896  0.2950  0.2011 -0.1194
 2364SOL    HW2 9454   2.300   4.227   3.991  0.2335  1.0372 -0.2036
 2364SOL    HW3 9455   2.291   4.124   3.880  0.1752  0.0826  0.6791
 2364SOL    MW4 9456   2.303   4.206   3.907  0.2711  0.2958 -0.0252
 2365SOL     OW 9457   2.515   4.359   3.778 -0.3644 -0.0812 -0.0830
 2365SOL    HW2 9458   2.438   4.320   3.818 -0.2609  0.4529  0.6322
 2365SOL    HW3 9459   2.513   4.450   3.804  1.0872 -0.2966  0.8197
 2365SOL    MW4 9460   2.505   4.366   3.786 -0.1592 -0.0392  0.1304
 2366SOL     OW 9461   2.946   4.635   3.866  0.3536 -0.5081  0.4051
 2366SOL    HW2 9462   2.948   4.648   3.961  1.3338  0.0161  0.3281
 2366SOL    HW3 9463   3.037   4.648   3.839  0.1086 -0.8284 -0.5846
 2366SOL    MW4 9464   2.958   4.639   3.875  0.4506 -0.4812  0.2644
 2367SOL     OW 9465   2.741   0.154   3.792 -0.7126 -0.4355 -0.0815
 2367SOL    HW2 9466   2.827   0.116   3.810 -0.2755  0.7686  0.4221
 2367SOL    HW3 9467   2.741   0.170   3.698 -1.3830 -2.8347 -0.5067
 2367SOL    MW4 9468   2.752   0.151   3.782 -0.7434 -0.5931 -0.0712
 2368SOL     OW 9469   2.703   0.411   3.888 -0.2802 -0.3335  0.7931
 2368SOL    HW2 9470   2.710   0.319   3.863 -0.1743 -0.4971  1.4099
 2368SOL    HW3 9471   2.620   0.440   3.849 -0.5743 -0.8341  1.0375
 2368SOL    MW4 9472   2.693   0.403   3.880 -0.3050 -0.4211  0.9067
 2369SOL     OW 9473   2.945   0.543   3.792 -0.1936 -0.5839 -0.1560
 2369SOL    HW2 9474   3.027   0.512   3.831 -1.2170 -1.7600  1.1268
 2369SOL    HW3 9475   2.877   0.495   3.839 -1.6259  0.4174 -1.1715
 2369SOL    MW4 9476   2.947   0.533   3.803 -0.5176 -0.6070 -0.1207
 2370SOL     OW 9477   2.922   0.805   3.881 -0.3910 -0.3375 -0.4717
 2370SOL    HW2 9478   3.002   0.843   3.844  0.6101 -1.0233  0.9121
 2370SOL    HW3 9479   2.926   0.712   3.857  0.5609 -0.9076  1.7805
 2370SOL    MW4 9480   2.933   0.797   3.873 -0.1333 -0.5032  0.0080
 2371SOL     OW 9481   2.672   0.867   3.774 -0.3517  0.1756  0.2909
 2371SOL    HW2 9482   2.751   0.823   3.805 -0.4343 -0.3986 -0.3096
 2371SOL    HW3 9483   2.602   0.833   3.831  0.2689  2.8351  2.7160
 2371SOL    MW4 9484   2.673   0.856   3.786 -0.2807  0.4507  0.5317
 2372SOL     OW 9485   2.709   1.116   3.900 -0.3006 -0.2870  0.0695
 2372SOL    HW2 9486   2.699   1.030   3.859 -2.7299  0.1767 -0.3719
 2372SOL    HW3 9487   2.639   1.169   3.862  0.4985  1.5980  1.1437
 2372SOL    MW4 9488   2.698   1.112   3.889 -0.5157  0.0229  0.1530
 2373SOL     OW 9489   2.898   1.283   3.793  0.3517 -0.0007  0.1294
 2373SOL    HW2 9490   2.890   1.371   3.829 -1.1237 -0.2987  0.5985
 2373SOL    HW3 9491   2.823   1.235   3.831 -0.0220 -0.8901 -1.6724
 2373SOL    MW4 9492   2.887   1.288   3.803  0.1077 -0.1574 -0.0465
 2374SOL     OW 9493   2.896   1.544   3.897  0.5546  0.0827 -0.4812
 2374SOL    HW2 9494   2.896   1.545   3.993 -0.1352  1.6395 -0.4818
 2374SOL    HW3 9495   2.977   1.587   3.873  1.4270 -1.5953 -0.6155
 2374SOL    MW4 9496   2.907   1.549   3.907  0.5787  0.0667 -0.4990
 2375SOL     OW 9497   2.696   1.676   3.752  0.3186  0.3318 -0.0426
 2375SOL    HW2 9498   2.769   1.635   3.798  0.9563  3.1463  1.5347
 2375SOL    HW3 9499   2.732   1.698   3.666  1.0949  1.0055  0.4488
 2375SOL    MW4 9500   2.710   1.673   3.746  0.5052  0.7920  0.2303
 2376SOL     OW 9501   2.671   1.912   3.920 -0.1516 -0.2410 -0.0736
 2376SOL    HW2 9502   2.658   1.825   3.882  1.0809 -0.4222 -0.1077
 2376SOL    HW3 9503   2.608   1.968   3.874  0.8362 -0.6018 -1.8957
 2376SOL    MW4 9504   2.661   1.908   3.909  0.1413 -0.3125 -0.3185
 2377SOL     OW 9505   2.901   2.027   3.805  0.3921 -0.4560 -0.2152
 2377SOL    HW2 9506   2.887   2.120   3.821 -0.2840  0.0838 -3.4899
 2377SOL    HW3 9507   2.826   1.984   3.846 -0.3638  0.6439 -0.4159
 2377SOL    MW4 9508   2.889   2.034   3.813  0.2031 -0.2397 -0.6737
 2378SOL     OW 9509   2.909   2.296   3.862  0.2816  0.8963 -0.1683
 2378SOL    HW2 9510   2.901   2.313   3.956  0.0480  1.1356 -0.2309
 2378SOL    HW3 9511   2.993   2.336   3.838  0.3960  0.7344 -0.0384
 2378SOL    MW4 9512   2.919   2.304   3.871  0.2658  0.9065 -0.1594
 2379SOL     OW 9513   2.683   2.422   3.735  0.5083  0.1745 -0.0326
 2379SOL    HW2 9514   2.694   2.511   3.769  0.2744  0.3231 -0.3428
 2379SOL    HW3 9515   2.762   2.376   3.763  0.5263  0.4171  0.3260
 2379SOL    MW4 9516   2.695   2.428   3.743  0.4798  0.2261 -0.0262
 2380SOL     OW 9517   2.666   2.691   3.832  0.2207  0.4005  0.1720
 2380SOL    HW2 9518   2.675   2.697   3.927  0.9669  0.5713  0.0920
 2380SOL    HW3 9519   2.600   2.756   3.810 -1.9917 -1.5361  0.8809
 2380SOL    MW4 9520   2.658   2.700   3.842  0.0272  0.1675  0.2549
 2381SOL     OW 9521   2.906   2.783   3.759 -0.1677 -0.0012  0.2891
 2381SOL    HW2 9522   2.916   2.870   3.796 -0.2308  0.3214 -0.4409
 2381SOL    HW3 9523   2.816   2.758   3.777  0.4923 -0.8785  2.5388
 2381SOL    MW4 9524   2.896   2.791   3.766 -0.0890 -0.0744  0.4896
 2382SOL     OW 9525   2.904   3.043   3.881 -0.0804  0.2519  0.2888
 2382SOL    HW2 9526   2.987   3.086   3.864 -0.3092  0.7184  0.3314
 2382SOL    HW3 9527   2.838   3.104   3.848 -0.4178  0.0446  0.5692
 2382SOL    MW4 9528   2.906   3.057   3.875 -0.1551  0.2861  0.3314
 2383SOL     OW 9529   2.734   3.244   3.795 -0.3734 -0.5528  0.3504
 2383SOL    HW2 9530   2.724   3.327   3.843 -1.4531  0.2879 -1.2960
 2383SOL    HW3 9531   2.660   3.191   3.825 -0.3193 -0.5050  0.5716
 2383SOL    MW4 9532   2.723   3.248   3.806 -0.5087 -0.4356  0.1624
 2384SOL     OW 9533   2.733   3.504   3.923  0.3946  0.1876 -0.1704
 2384SOL    HW2 9534   2.748   3.489   4.016  0.1693  1.8382  0.1460
 2384SOL    HW3 9535   2.815   3.539   3.890 -0.4399  2.4632  0.0626
 2384SOL    MW4 9536   2.745   3.506   3.931  0.2548  0.7056 -0.0979
 2385SOL     OW 9537   2.983   3.594   3.813  0.6456 -0.0800 -0.1463
 2385SOL    HW2 9538   3.049   3.546   3.862  0.9685 -1.1884 -1.6414
 2385SOL    HW3 9539   2.998   3.570   3.722 -1.7500 -0.2630 -0.5198
 2385SOL    MW4 9540   2.994   3.585   3.808  0.3721 -0.2504 -0.3928
 2386SOL     OW 9541   2.902   3.875   3.903  0.1414  0.1271  0.2819
 2386SOL    HW2 9542   2.912   3.853   3.996  0.2785  0.7235  0.4103
 2386SOL    HW3 9543   2.931   3.796   3.857 -0.8812 -0.5403  0.7578
 2386SOL    MW4 9544   2.907   3.861   3.909  0.0246  0.1178  0.3616
 2387SOL     OW 9545   2.692   4.014   3.809 -0.4098 -0.2855 -0.0444
 2387SOL    HW2 9546   2.702   4.096   3.858 -1.7494 -0.5442  0.6823
 2387SOL    HW3 9547   2.770   3.963   3.831  0.0146  0.4520  0.1689
 2387SOL    MW4 9548   2.704   4.018   3.818 -0.5305 -0.2223  0.0796
 2388SOL     OW 9549   2.697   4.248   3.959  0.0026  0.3217 -0.3485
 2388SOL    HW2 9550   2.772   4.284   3.910 -0.1326 -0.1650 -0.9147
 2388SOL    HW3 9551   2.622   4.266   3.903 -0.0946 -0.6579 -0.5375
 2388SOL    MW4 9552   2.697   4.255   3.945 -0.0281  0.1283 -0.4481
 2389SOL     OW 9553   2.889   4.363   3.802 -0.5371 -0.1388  0.0292
 2389SOL    HW2 9554   2.971   4.333   3.842 -1.0584 -0.9018  0.5314
 2389SOL    HW3 9555   2.882   4.455   3.828 -0.1927 -0.2623  0.5606
 2389SOL    MW4 9556   2.899   4.372   3.810 -0.5604 -0.2558  0.1656
 2390SOL     OW 9557   3.414   4.653   3.961 -0.0523 -0.1714  0.3275
 2390SOL    HW2 9558   3.416   4.659   4.056 -0.9669  0.9048  0.2882
 2390SOL    HW3 9559   3.490   4.704   3.932  0.3710 -0.7069  0.4761
 2390SOL    MW4 9560   3.425   4.660   3.969 -0.1171 -0.1001  0.3419
 2391SOL     OW 9561   3.194   0.122   3.790 -0.0162 -0.2481  0.3475
 2391SOL    HW2 9562   3.278   0.093   3.825  0.7939  2.2093  0.5117
 2391SOL    HW3 9563   3.206   0.119   3.695 -0.2543 -1.3203  0.3455
 2391SOL    MW4 9564   3.207   0.118   3.782  0.0593 -0.0654  0.3689
 2392SOL     OW 9565   3.189   0.395   3.885  0.0402 -0.7564 -0.1903
 2392SOL    HW2 9566   3.200   0.394   3.980  0.7190  0.9535 -0.2394
 2392SOL    HW3 9567   3.196   0.302   3.859 -0.7415 -1.2906  1.4740
 2392SOL    MW4 9568   3.191   0.382   3.894  0.0267 -0.6012  0.0228
 2393SOL     OW 9569   3.430   0.495   3.795  0.0040 -0.4551 -0.3514
 2393SOL    HW2 9570   3.500   0.448   3.839  0.2771  1.9458  1.9237
 2393SOL    HW3 9571   3.350   0.461   3.835  0.1829  0.6191  0.9815
 2393SOL    MW4 9572   3.428   0.485   3.806  0.0636  0.0034  0.1246
 2394SOL     OW 9573   3.375   0.774   3.828 -0.3290  0.3423 -0.2666
 2394SOL    HW2 9574   3.366   0.756   3.922  0.7573  0.6731 -0.0967
 2394SOL    HW3 9575   3.390   0.689   3.788 -2.2834  0.0075 -0.3311
 2394SOL    MW4 9576   3.376   0.761   3.835 -0.4435  0.3418 -0.2527
 2395SOL     OW 9577   3.149   0.934   3.794  0.1493 -0.4702  0.2518
 2395SOL    HW2 9578   3.224   0.879   3.817  0.2687 -0.5593 -0.3456
 2395SOL    HW3 9579   3.136   0.919   3.700 -0.4203 -0.2160  0.2894
 2395SOL    MW4 9580   3.157   0.925   3.784  0.0899 -0.4485  0.1779
 2396SOL     OW 9581   3.145   1.186   3.905 -0.2006  0.2862 -0.0851
 2396SOL    HW2 9582   3.146   1.102   3.859  1.7152  0.6879 -0.8100
 2396SOL    HW3 9583   3.067   1.230   3.870 -1.0015 -1.0209  0.0143
 2396SOL    MW4 9584   3.135   1.181   3.894 -0.0535  0.1668 -0.1676
 2397SOL     OW 9585   3.369   1.267   3.772 -0.3816 -0.1570 -0.0305
 2397SOL    HW2 9586   3.289   1.231   3.812  0.2798 -3.0974 -1.2907
 2397SOL    HW3 9587   3.352   1.265   3.678  0.4495  1.0377 -0.2135
 2397SOL    MW4 9588   3.356   1.262   3.765 -0.1847 -0.3873 -0.2209
 2398SOL     OW 9589   3.380   1.501   3.939 -0.1886  0.1020 -0.3461
 2398SOL    HW2 9590   3.302   1.552   3.917 -1.1838 -0.3387  1.9410
 2398SOL    HW3 9591   3.378   1.427   3.879 -0.4625  1.1030 -1.5911
 2398SOL    MW4 9592   3.369   1.498   3.928 -0.3561  0.1759 -0.2086
 2399SOL     OW 9593   3.171   1.666   3.827 -0.1840  0.2036  0.3104
 2399SOL    HW2 9594   3.167   1.757   3.856 -1.3304  0.0584  0.6354
 2399SOL    HW3 9595   3.167   1.671   3.732 -0.5608  0.4867  0.3374
 2399SOL    MW4 9596   3.170   1.679   3.818 -0.3850  0.2218  0.3568
 2400SOL     OW 9597   3.148   1.929   3.923 -0.2540  0.3601 -0.6850
 2400SOL    HW2 9598   3.140   1.929   4.018 -2.5711  0.4597 -0.8448
 2400SOL    HW3 9599   3.073   1.981   3.892  0.8062  0.8506 -2.5425
 2400SOL    MW4 9600   3.137   1.936   3.931 -0.4198  0.4379 -0.9512
 2401SOL     OW 9601   3.365   2.045   3.818 -0.2023  0.2314 -0.1172
 2401SOL    HW2 9602   3.282   2.008   3.849  0.3782 -1.4492 -0.5004
 2401SOL    HW3 9603   3.356   2.045   3.722 -0.3427  1.4570 -0.1082
 2401SOL    MW4 9604   3.353   2.040   3.809 -0.1442  0.1714 -0.1666
 2402SOL     OW 9605   3.381   2.312   3.893  0.4527 -0.3552 -0.3410
 2402SOL    HW2 9606   3.310   2.354   3.844  0.4490  1.7596  1.3990
 2402SOL    HW3 9607   3.380   2.221   3.863 -2.3921 -0.1469 -1.0615
 2402SOL    MW4 9608   3.371   2.305   3.883  0.0769 -0.0487 -0.2065
 2403SOL     OW 9609   3.152   2.452   3.804 -0.0674  0.0478 -0.0956
 2403SOL    HW2 9610   3.147   2.544   3.832  0.0707  0.1182 -0.3019
 2403SOL    HW3 9611   3.182   2.456   3.713 -1.7330 -0.1362 -0.6646
 2403SOL    MW4 9612   3.156   2.465   3.796 -0.2689  0.0328 -0.1979
 2404SOL     OW 9613   3.133   2.705   3.883 -0.1723  0.3671 -0.0045
 2404SOL    HW2 9614   3.114   2.717   3.976 -0.6566 -0.1880 -0.0253
 2404SOL    HW3 9615   3.049   2.722   3.840  0.0662  0.6883 -0.3461
 2404SOL    MW4 9616   3.119   2.709   3.890 -0.2047  0.3362 -0.0523
 2405SOL     OW 9617   3.352   2.800   3.766 -0.0599  0.4452  0.4058
 2405SOL    HW2 9618   3.270   2.759   3.795  0.0107  0.2161  0.2795
 2405SOL    HW3 9619   3.338   2.817   3.673  0.5969 -0.9550  0.0418
 2405SOL    MW4 9620   3.339   2.797   3.757  0.0361  0.2302  0.3411
 2406SOL     OW 9621   3.373   3.060   3.876 -0.3467  0.2933 -0.2606
 2406SOL    HW2 9622   3.454   3.105   3.852 -1.0109  1.2221 -0.8190
 2406SOL    HW3 9623   3.369   2.984   3.819 -0.2947  0.7170 -0.8303
 2406SOL    MW4 9624   3.383   3.056   3.866 -0.4275  0.4717 -0.4095
 2407SOL     OW 9625   3.134   3.185   3.835 -0.0691  0.2636 -0.3338
 2407SOL    HW2 9626   3.216   3.139   3.852 -1.1703 -1.9058 -0.5908
 2407SOL    HW3 9627   3.136   3.205   3.741  0.3410  0.5392 -0.2629
 2407SOL    MW4 9628   3.145   3.182   3.825 -0.1603  0.0137 -0.3583
 2408SOL     OW 9629   3.143   3.438   3.961  0.4104 -0.0988 -0.3637
 2408SOL    HW2 9630   3.231   3.458   3.929  0.5648  1.0008  0.7375
 2408SOL    HW3 9631   3.122   3.353   3.921  2.6186 -1.1727  0.6524
 2408SOL    MW4 9632   3.151   3.429   3.951  0.7221 -0.0954 -0.0844
 2409SOL     OW 9633   3.385   3.550   3.837  0.5543  0.7313 -0.2870
 2409SOL    HW2 9634   3.378   3.643   3.861 -1.6478  0.3742  0.6271
 2409SOL    HW3 9635   3.381   3.550   3.742 -0.7355  1.5171 -0.2572
 2409SOL    MW4 9636   3.383   3.563   3.828  0.0936  0.7879 -0.1625
 2410SOL     OW 9637   3.325   3.822   3.882 -0.0419  0.1055  0.2467
 2410SOL    HW2 9638   3.408   3.866   3.864 -0.2719  0.1743 -0.6611
 2410SOL    HW3 9639   3.258   3.888   3.860 -0.3597 -0.3299 -0.0946
 2410SOL    MW4 9640   3.327   3.837   3.877 -0.1142  0.0571  0.0819
 2411SOL     OW 9641   3.102   4.039   3.824 -0.3777 -0.2596 -0.2226
 2411SOL    HW2 9642   3.099   4.130   3.856  1.8072 -0.8721  1.8897
 2411SOL    HW3 9643   3.023   3.999   3.860 -0.8677  0.5449 -0.3729
 2411SOL    MW4 9644   3.091   4.046   3.833 -0.1541 -0.2343  0.0362
 2412SOL     OW 9645   3.123   4.308   3.930 -0.0289  0.1896  0.1083
 2412SOL    HW2 9646   3.145   4.288   4.021 -0.4918  0.5537  0.3007
 2412SOL    HW3 9647   3.207   4.328   3.889  0.3230 -1.0711  0.1787
 2412SOL    MW4 9648   3.137   4.308   3.936 -0.0435  0.0713  0.1430
 2413SOL     OW 9649   3.370   4.392   3.824  0.3827  0.0820  0.0028
 2413SOL    HW2 9650   3.452   4.345   3.831  0.2763 -0.4489 -1.9717
 2413SOL    HW3 9651   3.385   4.474   3.871  1.0866 -1.2061  2.0672
 2413SOL    MW4 9652   3.383   4.397   3.831  0.4616 -0.1580  0.0147
 2414SOL     OW 9653   3.850   4.636   3.912 -0.1887  0.4476 -0.8427
 2414SOL    HW2 9654   3.920   4.670   3.856 -0.6773 -0.5744 -2.1027
 2414SOL    HW3 9655   3.836   4.547   3.882 -0.5406 -0.0991  0.8723
 2414SOL    MW4 9656   3.857   4.629   3.901 -0.2996  0.2406 -0.7826
 2415SOL     OW 9657   3.625   0.106   3.824 -0.4628  0.2602  0.2766
 2415SOL    HW2 9658   3.692   0.044   3.852  0.3300  1.5277  1.2748
 2415SOL    HW3 9659   3.622   0.097   3.729  0.6963 -0.2486  0.2783
 2415SOL    MW4 9660   3.634   0.097   3.815 -0.2053  0.3603  0.4085
 2416SOL     OW 9661   3.628   0.370   3.955  0.3986 -0.1325  0.1222
 2416SOL    HW2 9662   3.700   0.411   3.906 -0.4408 -0.2792 -1.2379
 2416SOL    HW3 9663   3.624   0.281   3.923 -1.8738  0.5090 -1.4888
 2416SOL    MW4 9664   3.637   0.364   3.945 -0.0120 -0.0672 -0.2698
 2417SOL     OW 9665   3.851   0.468   3.838  0.2573 -0.0106  0.1951
 2417SOL    HW2 9666   3.927   0.414   3.856 -0.0643 -0.5965 -0.1864
 2417SOL    HW3 9667   3.860   0.543   3.897 -0.2075 -1.3458  2.0255
 2417SOL    MW4 9668   3.862   0.471   3.849  0.1535 -0.2641  0.3863
 2418SOL     OW 9669   3.835   0.708   3.967  0.0792  0.2194  0.3111
 2418SOL    HW2 9670   3.912   0.754   3.935  0.2438  0.0484  0.4573
 2418SOL    HW3 9671   3.761   0.762   3.940  0.2820  0.6827  0.6811
 2418SOL    MW4 9672   3.835   0.721   3.959  0.1276  0.2580  0.3792
 2419SOL     OW 9673   3.631   0.886   3.826  0.2394 -0.0552 -0.3593
 2419SOL    HW2 9674   3.617   0.978   3.850 -0.0132 -0.3889  0.8032
 2419SOL    HW3 9675   3.545   0.846   3.835  0.4629 -0.5290 -0.3400
 2419SOL    MW4 9676   3.618   0.893   3.830  0.2356 -0.1618 -0.2033
 2420SOL     OW 9677   3.604   1.154   3.895  0.2200  0.2727  0.3644
 2420SOL    HW2 9678   3.670   1.207   3.851  0.1596 -0.6681 -0.8938
 2420SOL    HW3 9679   3.521   1.178   3.852  0.2348 -1.0314 -0.4262
 2420SOL    MW4 9680   3.602   1.164   3.883  0.2140 -0.0235  0.0941
 2421SOL     OW 9681   3.807   1.294   3.775  0.0592  0.6443  0.4364
 2421SOL    HW2 9682   3.870   1.254   3.836  0.4664  3.3183  1.8374
 2421SOL    HW3 9683   3.789   1.380   3.812 -2.2766  1.0454 -1.4820
 2421SOL    MW4 9684   3.813   1.300   3.788 -0.1952  1.0500  0.3681
 2422SOL     OW 9685   3.811   1.557   3.902 -0.0800  0.2217 -0.4926
 2422SOL    HW2 9686   3.816   1.562   3.998 -0.8891  1.1723 -0.4827
 2422SOL    HW3 9687   3.718   1.573   3.883 -0.1621 -1.2578 -1.3738
 2422SOL    MW4 9688   3.799   1.560   3.912 -0.1976  0.1519 -0.6075
 2423SOL     OW 9689   3.568   1.672   3.856  0.5674 -0.3526  0.0672
 2423SOL    HW2 9690   3.496   1.623   3.894  0.3478  0.7385  1.1084
 2423SOL    HW3 9691   3.554   1.668   3.762 -1.0469  0.1440  0.2760
 2423SOL    MW4 9692   3.557   1.665   3.849  0.3254 -0.1432  0.2321
 2424SOL     OW 9693   3.592   1.935   3.914  0.1411  0.6832 -0.2154
 2424SOL    HW2 9694   3.591   1.844   3.887  0.1415  1.0983 -1.6604
 2424SOL    HW3 9695   3.509   1.970   3.881  1.3548  1.8738 -2.0898
 2424SOL    MW4 9696   3.581   1.928   3.906  0.3012  0.8951 -0.6534
 2425SOL     OW 9697   3.805   2.035   3.763  0.0783 -0.0185 -0.6287
 2425SOL    HW2 9698   3.884   1.994   3.798 -0.3964 -0.6216 -0.2500
 2425SOL    HW3 9699   3.735   2.004   3.820 -0.3908  0.7734 -0.7600
 2425SOL    MW4 9700   3.806   2.026   3.775 -0.0462  0.0064 -0.5961
 2426SOL     OW 9701   3.851   2.279   3.886 -0.3696 -0.0733 -0.4394
 2426SOL    HW2 9702   3.772   2.329   3.869 -0.6055 -0.5073 -0.6338
 2426SOL    HW3 9703   3.843   2.201   3.830 -0.1494 -0.4698  0.0727
 2426SOL    MW4 9704   3.840   2.275   3.876 -0.3717 -0.1829 -0.3975
 2427SOL     OW 9705   3.618   2.419   3.827 -0.0117  0.0388 -0.0443
 2427SOL    HW2 9706   3.540   2.374   3.860  0.1601 -0.5350 -0.4288
 2427SOL    HW3 9707   3.609   2.416   3.732  0.3132  0.2736 -0.0838
 2427SOL    MW4 9708   3.606   2.413   3.819  0.0539 -0.0059 -0.1002
 2428SOL     OW 9709   3.581   2.682   3.862 -0.0439 -0.3628 -0.4466
 2428SOL    HW2 9710   3.586   2.588   3.847 -0.3886 -0.4907  0.2100
 2428SOL    HW3 9711   3.493   2.706   3.834  0.0271 -0.2481 -0.5694
 2428SOL    MW4 9712   3.570   2.673   3.857 -0.0800 -0.3646 -0.3762
 2429SOL     OW 9713   3.809   2.839   3.818 -0.5637  0.2603  0.2459
 2429SOL    HW2 9714   3.880   2.784   3.851 -1.2851  0.7047  2.6536
 2429SOL    HW3 9715   3.730   2.789   3.836 -1.0451  1.0045  0.2113
 2429SOL    MW4 9716   3.808   2.825   3.825 -0.7224  0.4171  0.5590
 2430SOL     OW 9717   3.889   3.102   3.853  0.2464  0.1613  0.9581
 2430SOL    HW2 9718   3.802   3.140   3.843 -0.1911 -1.0093  0.2107
 2430SOL    HW3 9719   3.874   3.007   3.850  1.7306 -0.0296 -0.7587
 2430SOL    MW4 9720   3.876   3.094   3.851  0.3845 -0.0183  0.6330
 2431SOL     OW 9721   3.623   3.183   3.809 -0.2298 -0.0115  0.4294
 2431SOL    HW2 9722   3.609   3.266   3.856 -1.9992  0.1530 -0.3963
 2431SOL    HW3 9723   3.592   3.200   3.720  0.3125 -1.2704 -0.0017
 2431SOL    MW4 9724   3.617   3.196   3.804 -0.3917 -0.1559  0.2636
 2432SOL     OW 9725   3.630   3.442   3.916  0.2703 -0.2820 -0.0630
 2432SOL    HW2 9726   3.653   3.454   4.009 -0.1918 -0.9273  0.1369
 2432SOL    HW3 9727   3.549   3.491   3.905  1.7305  2.0517 -0.7879
 2432SOL    MW4 9728   3.623   3.450   3.927  0.4020 -0.0592 -0.1323
 2433SOL     OW 9729   3.841   3.605   3.794 -0.1699 -0.3888 -0.1999
 2433SOL    HW2 9730   3.828   3.681   3.850 -0.2808 -0.8767  0.4532
 2433SOL    HW3 9731   3.775   3.542   3.823  1.0164 -1.3819  0.4497
 2433SOL    MW4 9732   3.831   3.607   3.806 -0.0280 -0.5842 -0.0281
 2434SOL     OW 9733   3.810   3.855   3.930  0.2441  0.2111  0.1721
 2434SOL    HW2 9734   3.820   3.853   4.026  1.1807 -2.0578  0.0579
 2434SOL    HW3 9735   3.880   3.913   3.901 -0.3530  1.3134  0.8848
 2434SOL    MW4 9736   3.821   3.862   3.939  0.2889  0.0572  0.2510
 2435SOL     OW 9737   3.572   3.951   3.831  0.2566 -0.4212  0.3567
 2435SOL    HW2 9738   3.569   4.043   3.859 -1.9187 -0.7737  1.4084
 2435SOL    HW3 9739   3.658   3.920   3.861  0.8021  1.1172  0.4530
 2435SOL    MW4 9740   3.583   3.959   3.839  0.0415 -0.2648  0.5081
 2436SOL     OW 9741   3.590   4.230   3.861 -0.4891  0.4340 -0.0524
 2436SOL    HW2 9742   3.579   4.219   3.956 -0.0075  1.5098  0.1344
 2436SOL    HW3 9743   3.670   4.282   3.852 -1.7052  2.1933 -0.9493
 2436SOL    MW4 9744   3.599   4.235   3.872 -0.5860  0.8081 -0.1461
 2437SOL     OW 9745   3.807   4.391   3.799  0.0746 -0.1350 -0.0996
 2437SOL    HW2 9746   3.890   4.348   3.818 -0.3441 -0.6862  0.5427
 2437SOL    HW3 9747   3.797   4.384   3.704  0.2194 -1.0817 -0.0513
 2437SOL    MW4 9748   3.816   4.384   3.789  0.0384 -0.3327 -0.0085
 2438SOL     OW 9749   4.281   4.621   3.934 -0.4283  0.0925 -0.2470
 2438SOL    HW2 9750   4.262   4.648   4.024 -1.8014  1.2214 -0.8632
 2438SOL    HW3 9751   4.363   4.666   3.912  0.8958 -1.6137  1.0376
 2438SOL    MW4 9752   4.289   4.631   3.943 -0.4347  0.0163 -0.1588
 2439SOL     OW 9753   4.083   0.083   3.799 -0.3927  0.2266  0.0460
 2439SOL    HW2 9754   4.153   0.042   3.849 -0.3841 -0.4531 -0.5223
 2439SOL    HW3 9755   4.099   0.057   3.708 -0.9820  0.6297 -0.1788
 2439SOL    MW4 9756   4.094   0.074   3.793 -0.4693  0.1901 -0.0586
 2440SOL     OW 9757   4.079   0.338   3.929  0.1163 -0.0295 -0.0722
 2440SOL    HW2 9758   4.067   0.304   4.018 -0.4765  0.4672  0.0417
 2440SOL    HW3 9759   4.113   0.263   3.879  0.4590 -0.3082  0.5716
 2440SOL    MW4 9760   4.082   0.323   3.934  0.0833 -0.0007  0.0278
 2441SOL     OW 9761   4.272   0.532   3.905 -0.2314  0.2056 -0.6046
 2441SOL    HW2 9762   4.197   0.482   3.938 -0.0298  0.0655 -0.3532
 2441SOL    HW3 9763   4.263   0.530   3.810 -0.6380  0.3322 -0.5687
 2441SOL    MW4 9764   4.261   0.525   3.897 -0.2584  0.2038 -0.5667
 2442SOL     OW 9765   4.277   0.806   3.960 -0.4667  0.3456 -0.2416
 2442SOL    HW2 9766   4.197   0.839   3.919  0.0393  0.1543 -1.3813
 2442SOL    HW3 9767   4.272   0.711   3.950 -1.5380  0.0795  2.3443
 2442SOL    MW4 9768   4.265   0.798   3.954 -0.5413  0.2853 -0.0508
 2443SOL     OW 9769   4.032   0.880   3.873  0.1494 -0.4414  0.0260
 2443SOL    HW2 9770   4.015   0.974   3.881  1.4656  0.0525 -2.4769
 2443SOL    HW3 9771   4.030   0.863   3.779 -2.7759 -3.4809  0.5343
 2443SOL    MW4 9772   4.030   0.890   3.862 -0.0629 -0.7773 -0.2372
 2444SOL     OW 9773   3.994   1.137   3.961 -0.2268  0.1384 -0.1477
 2444SOL    HW2 9774   4.005   1.138   4.056  1.1236  0.1731 -0.3052
 2444SOL    HW3 9775   4.081   1.155   3.926 -0.8473  0.8250 -1.3848
 2444SOL    MW4 9776   4.007   1.140   3.969 -0.1305  0.2335 -0.3317
 2445SOL     OW 9777   4.239   1.220   3.832  0.2974 -0.3631 -0.0836
 2445SOL    HW2 9778   4.238   1.314   3.854  0.5475 -0.2570 -0.5324
 2445SOL    HW3 9779   4.249   1.217   3.737  0.5863 -0.8531 -0.0390
 2445SOL    MW4 9780   4.240   1.232   3.823  0.3685 -0.4137 -0.1369
 2446SOL     OW 9781   4.261   1.498   3.888 -0.1577  0.1038  0.5864
 2446SOL    HW2 9782   4.190   1.559   3.868 -0.4056 -0.6271 -0.7897
 2446SOL    HW3 9783   4.341   1.550   3.874 -0.3607  0.0304 -0.9228
 2446SOL    MW4 9784   4.262   1.513   3.884 -0.2172 -0.0023  0.2057
 2447SOL     OW 9785   4.053   1.657   3.802 -0.1047  0.3645  0.0594
 2447SOL    HW2 9786   4.056   1.752   3.812 -2.0106  0.6475 -1.7836
 2447SOL    HW3 9787   3.971   1.631   3.845  1.2644 -0.6937  2.1284
 2447SOL    MW4 9788   4.042   1.666   3.809 -0.1755  0.2622  0.0892
 2448SOL     OW 9789   4.041   1.924   3.850 -0.0959 -0.2431 -0.3035
 2448SOL    HW2 9790   4.034   1.916   3.945 -0.2459 -0.8211 -0.3595
 2448SOL    HW3 9791   4.124   1.970   3.835 -0.4638  0.5671  0.1299
 2448SOL    MW4 9792   4.051   1.929   3.860 -0.1642 -0.2125 -0.2537
 2449SOL     OW 9793   4.278   2.084   3.809 -0.2283 -0.1811 -0.3592
 2449SOL    HW2 9794   4.256   2.169   3.846  1.3033 -0.6397  1.6755
 2449SOL    HW3 9795   4.281   2.099   3.714  0.3775  2.0945 -0.0035
 2449SOL    MW4 9796   4.275   2.097   3.801  0.0537  0.0586 -0.0438
 2450SOL     OW 9797   4.242   2.316   3.954  0.4187  0.5400 -0.4528
 2450SOL    HW2 9798   4.229   2.311   4.048  0.9505 -0.3131 -0.4163
 2450SOL    HW3 9799   4.170   2.370   3.922 -0.7498 -0.5805  0.2437
 2450SOL    MW4 9800   4.231   2.323   3.962  0.3347  0.2796 -0.3561
 2451SOL     OW 9801   4.067   2.453   3.794 -0.1048 -0.1988  0.0148
 2451SOL    HW2 9802   4.050   2.540   3.831 -0.3484 -0.1492 -0.2120
 2451SOL    HW3 9803   3.986   2.405   3.811 -0.1348 -0.2438 -0.2593
 2451SOL    MW4 9804   4.054   2.458   3.801 -0.1409 -0.1982 -0.0513
 2452SOL     OW 9805   4.043   2.699   3.908 -0.5397 -0.4127  0.3265
 2452SOL    HW2 9806   4.046   2.700   4.003 -1.5215  2.2155  0.3709
 2452SOL    HW3 9807   4.126   2.738   3.881 -0.7347 -0.1461  0.1177
 2452SOL    MW4 9808   4.054   2.704   3.917 -0.6950 -0.0308  0.3048
 2453SOL     OW 9809   4.282   2.833   3.808 -0.2075 -0.2803 -0.1628
 2453SOL    HW2 9810   4.308   2.911   3.857 -0.5794  0.0386 -0.4597
 2453SOL    HW3 9811   4.350   2.769   3.826 -0.3772 -0.1893  0.8203
 2453SOL    MW4 9812   4.294   2.835   3.817 -0.2789 -0.2262 -0.0723
 2454SOL     OW 9813   4.312   3.093   3.955 -0.1164 -0.1001 -0.2336
 2454SOL    HW2 9814   4.237   3.132   3.909 -0.1196  0.1611 -0.0036
 2454SOL    HW3 9815   4.387   3.145   3.927 -0.3561  1.1484  1.3771
 2454SOL    MW4 9816   4.312   3.105   3.945 -0.1484  0.0991  0.0093
 2455SOL     OW 9817   4.116   3.239   3.780  0.0777 -0.3691 -0.2305
 2455SOL    HW2 9818   4.035   3.196   3.807 -0.0768 -0.7404 -1.2553
 2455SOL    HW3 9819   4.105   3.255   3.686  1.4302 -0.9913 -0.5197
 2455SOL    MW4 9820   4.104   3.235   3.771  0.2357 -0.5002 -0.4038
 2456SOL     OW 9821   4.050   3.480   3.908  0.0902  0.5019  0.2620
 2456SOL    HW2 9822   4.078   3.405   3.856  0.6751  0.9539 -0.0748
 2456SOL    HW3 9823   3.982   3.522   3.855  0.3738  0.7083  0.0624
 2456SOL    MW4 9824   4.044   3.475   3.894  0.2048  0.5888  0.1913
 2457SOL     OW 9825   4.282   3.627   3.840 -0.5649  0.5612 -0.0648
 2457SOL    HW2 9826   4.206   3.569   3.855  0.2784 -0.6467 -0.3571
 2457SOL    HW3 9827   4.351   3.588   3.894 -0.1792  1.7187  0.2781
 2457SOL    MW4 9828   4.281   3.614   3.849 -0.4027  0.5545 -0.0581
 2458SOL     OW 9829   4.256   3.886   3.939 -0.2689  0.1385 -0.2971
 2458SOL    HW2 9830   4.178   3.931   3.905 -1.3017 -1.4118 -0.0251
 2458SOL    HW3 9831   4.259   3.804   3.890  0.3752 -0.4538  0.7190
 2458SOL    MW4 9832   4.246   3.881   3.928 -0.3202 -0.1442 -0.1271
 2459SOL     OW 9833   4.036   3.993   3.803  0.0689  0.1798  0.3302
 2459SOL    HW2 9834   4.029   4.084   3.830 -1.6953  0.1622  0.0073
 2459SOL    HW3 9835   4.025   3.995   3.708  0.3624 -0.3299  0.2818
 2459SOL    MW4 9836   4.033   4.005   3.794 -0.1251  0.1102  0.2812
 2460SOL     OW 9837   4.004   4.248   3.920  0.2108 -0.0757 -0.2387
 2460SOL    HW2 9838   4.001   4.223   4.013 -0.8271 -0.8143 -0.4564
 2460SOL    HW3 9839   4.085   4.298   3.911  0.8987 -0.9766  0.8228
 2460SOL    MW4 9840   4.014   4.251   3.931  0.1646 -0.2920 -0.1274
 2461SOL     OW 9841   4.253   4.367   3.850 -0.3385  0.5467  0.3280
 2461SOL    HW2 9842   4.269   4.455   3.883  2.8081  0.7988 -1.6348
 2461SOL    HW3 9843   4.328   4.315   3.881 -0.3549 -0.5770 -1.4039
 2461SOL    MW4 9844   4.265   4.371   3.858  0.0745  0.4317 -0.1595
 2462SOL     OW 9845   0.225   4.631   4.237  0.4911  0.3206 -0.4189
 2462SOL    HW2 9846   0.300   4.677   4.274 -0.4851  0.1592  1.8175
 2462SOL    HW3 9847   0.235   4.540   4.267 -1.6553  0.7203  1.6519
 2462SOL    MW4 9848   0.236   4.625   4.246  0.0791  0.3520  0.1494
 2463SOL     OW 9849   4.465   0.061   4.311  0.0826  0.3230  0.2617
 2463SOL    HW2 9850   4.480   0.061   4.405 -0.3123 -0.1771  0.3283
 2463SOL    HW3 9851   4.545   0.026   4.273  0.9531  2.2263  0.2840
 2463SOL    MW4 9852   4.477   0.057   4.318  0.1453  0.5081  0.2735
 2464SOL     OW 9853   0.006   0.337   4.234 -0.1357  0.4734  0.1052
 2464SOL    HW2 9854   0.010   0.247   4.266 -2.0872  0.1868 -0.4213
 2464SOL    HW3 9855   0.016   0.328   4.139  0.3190  0.8815  0.1109
 2464SOL    MW4 9856   0.008   0.324   4.226 -0.3332  0.4894  0.0365
 2465SOL     OW 9857   0.232   0.500   4.272 -0.1037 -0.2839  0.1489
 2465SOL    HW2 9858   0.302   0.438   4.251 -1.2971 -1.2409 -1.0487
 2465SOL    HW3 9859   0.151   0.452   4.255 -1.0552  1.1935  0.4319
 2465SOL    MW4 9860   0.231   0.486   4.267 -0.3867 -0.2153  0.0282
 2466SOL     OW 9861   0.269   0.764   4.184 -0.1781 -0.0885  0.6158
 2466SOL    HW2 9862   0.198   0.812   4.225 -1.1945 -1.8890  1.0045
 2466SOL    HW3 9863   0.248   0.672   4.198  1.5393 -0.6783 -0.4293
 2466SOL    MW4 9864   0.257   0.758   4.191 -0.0856 -0.4038  0.5292
 2467SOL     OW 9865   0.042   0.894   4.299 -0.0300 -0.4439 -0.0044
 2467SOL    HW2 9866  -0.031   0.852   4.253 -0.4518 -0.3994  0.6209
 2467SOL    HW3 9867   0.029   0.987   4.285  0.2981 -0.4687 -0.4791
 2467SOL    MW4 9868   0.031   0.901   4.291 -0.0424 -0.4413  0.0155
 2468SOL     OW 9869   0.015   1.161   4.261  0.1170  0.1395 -0.4368
 2468SOL    HW2 9870   0.098   1.205   4.278 -0.4077  0.9662  0.0361
 2468SOL    HW3 9871   0.006   1.163   4.166 -0.2401  1.7209 -0.3883
 2468SOL    MW4 9872   0.024   1.167   4.251  0.0007  0.4572 -0.3680
 2469SOL     OW 9873   0.242   1.292   4.349 -0.4182 -0.4365 -0.5246
 2469SOL    HW2 9874   0.231   1.332   4.435 -0.2499 -0.0567 -0.6767
 2469SOL    HW3 9875   0.330   1.254   4.351 -0.3849 -0.3618 -0.5543
 2469SOL    MW4 9876   0.253   1.292   4.360 -0.3916 -0.3766 -0.5486
 2470SOL     OW 9877   0.163   1.418   4.598  0.0386  0.0702 -0.0068
 2470SOL    HW2 9878   0.116   1.501   4.591 -0.5779 -0.1448  1.2829
 2470SOL    HW3 9879   0.103   1.362   4.648  0.6229 -1.0111 -0.5179
 2470SOL    MW4 9880   0.149   1.422   4.604  0.0343 -0.1008  0.0960
 2471SOL     OW 9881   0.200   1.523   4.204 -0.2447 -0.0414  0.0350
 2471SOL    HW2 9882   0.211   1.437   4.244 -0.7979 -0.5608 -0.8961
 2471SOL    HW3 9883   0.114   1.553   4.233  0.0334  0.2871  0.5211
 2471SOL    MW4 9884   0.190   1.516   4.213 -0.2810 -0.0666 -0.0237
 2472SOL     OW 9885   0.168   2.050   4.295  0.2298  0.0129 -0.1010
 2472SOL    HW2 9886   0.156   2.030   4.388  0.6272  0.5930  0.0804
 2472SOL    HW3 9887   0.257   2.021   4.276  0.7585  1.4427  0.1307
 2472SOL    MW4 9888   0.178   2.044   4.305  0.3520  0.2781 -0.0465
 2473SOL     OW 9889   0.399   1.947   4.635 -0.3432  0.1525 -0.0753
 2473SOL    HW2 9890   0.313   1.958   4.594  0.6957 -0.1052 -2.4258
 2473SOL    HW3 9891   0.420   1.855   4.621  0.9925  0.5737 -0.9539
 2473SOL    MW4 9892   0.390   1.937   4.627 -0.0299  0.1741 -0.5014
 2474SOL     OW 9893   0.167   2.310   4.200 -0.1447 -0.5597 -0.0174
 2474SOL    HW2 9894   0.253   2.341   4.228 -0.5978  0.5682  0.1293
 2474SOL    HW3 9895   0.164   2.219   4.229  1.3586 -0.8858 -0.8387
 2474SOL    MW4 9896   0.178   2.302   4.208 -0.0061 -0.4539 -0.1064
 2475SOL     OW 9897   4.473   2.476   4.330  0.5107 -0.4470 -0.1503
 2475SOL    HW2 9898   4.389   2.436   4.306  0.2467 -0.1768  0.3093
 2475SOL    HW3 9899   4.539   2.418   4.291  0.1012 -0.2229 -1.1949
 2475SOL    MW4 9900   4.471   2.463   4.322  0.4219 -0.3818 -0.2275
 2476SOL     OW 9901   0.025   2.679   4.157  0.0648  0.0159 -0.2660
 2476SOL    HW2 9902   0.111   2.698   4.193  0.1525 -1.2487  0.2353
 2476SOL    HW3 9903  -0.009   2.607   4.211 -0.7338 -0.4147 -1.2997
 2476SOL    MW4 9904   0.032   2.672   4.169 -0.0290 -0.2077 -0.3362
 2477SOL     OW 9905   0.248   2.813   4.301  0.5525 -0.1451  0.2437
 2477SOL    HW2 9906   0.324   2.785   4.251  1.8373  1.1251  1.4346
 2477SOL    HW3 9907   0.238   2.905   4.279 -1.8276 -0.7315 -1.3564
 2477SOL    MW4 9908   0.256   2.821   4.291  0.4080 -0.0549  0.1897
 2478SOL     OW 9909   0.235   3.094   4.246 -0.2742  0.0192 -0.0920
 2478SOL    HW2 9910   0.310   3.145   4.275 -0.2640 -0.0937  0.0873
 2478SOL    HW3 9911   0.159   3.141   4.281 -0.2479 -0.2604  0.3444
 2478SOL    MW4 9912   0.235   3.107   4.255 -0.2694 -0.0326 -0.0108
 2479SOL     OW 9913   4.480   3.214   4.355  0.4275 -0.0886 -0.4344
 2479SOL    HW2 9914   4.410   3.170   4.306  1.2673 -1.5229 -0.3631
 2479SOL    HW3 9915   4.494   3.296   4.309 -1.9185  0.6342  0.0562
 2479SOL    MW4 9916   4.472   3.219   4.343  0.2288 -0.1825 -0.3602
 2480SOL     OW 9917   0.022   3.453   4.244  0.1720  0.0766 -0.3837
 2480SOL    HW2 9918  -0.050   3.512   4.269  0.5818  0.3439  0.1539
 2480SOL    HW3 9919   0.014   3.447   4.149  0.8065  1.9072 -0.5853
 2480SOL    MW4 9920   0.011   3.460   4.235  0.3098  0.3534 -0.3394
 2481SOL     OW 9921   0.251   3.602   4.336 -0.0950 -0.1462  0.0245
 2481SOL    HW2 9922   0.340   3.575   4.312 -0.3683 -0.1212 -1.0675
 2481SOL    HW3 9923   0.196   3.530   4.304 -0.5814  0.4506 -0.4989
 2481SOL    MW4 9924   0.255   3.589   4.328 -0.1952 -0.0642 -0.1887
 2482SOL     OW 9925   0.262   3.862   4.246 -0.7705 -0.5209  0.0643
 2482SOL    HW2 9926   0.175   3.900   4.263 -0.4565  0.1139  0.2416
 2482SOL    HW3 9927   0.251   3.769   4.267 -1.4926 -0.5046 -0.2140
 2482SOL    MW4 9928   0.249   3.854   4.251 -0.8244 -0.4350  0.0510
 2483SOL     OW 9929   0.017   3.998   4.300  0.0054  0.3518 -0.3123
 2483SOL    HW2 9930  -0.020   3.992   4.388 -0.3992 -0.9967 -0.5575
 2483SOL    HW3 9931  -0.046   3.951   4.245 -0.0750  1.7470 -1.4329
 2483SOL    MW4 9932   0.004   3.991   4.304 -0.0586  0.3579 -0.4925
 2484SOL     OW 9933   4.441   4.232   4.224  0.1904 -0.7298  0.0082
 2484SOL    HW2 9934   4.451   4.143   4.259  0.1081 -0.5935  0.3781
 2484SOL    HW3 9935   4.458   4.222   4.130 -0.0893 -1.1833  0.0044
 2484SOL    MW4 9936   4.445   4.219   4.216  0.1427 -0.7716  0.0565
 2485SOL     OW 9937   0.211   4.352   4.294  0.1793 -0.1882  0.3160
 2485SOL    HW2 9938   0.218   4.324   4.385 -0.8598  0.6503  0.6534
 2485SOL    HW3 9939   0.131   4.310   4.262 -1.1729  2.0183  0.7029
 2485SOL    MW4 9940   0.201   4.342   4.301 -0.1362  0.2136  0.4116
 2486SOL     OW 9941   0.686   4.588   4.209 -0.4086  0.6253 -0.6391
 2486SOL    HW2 9942   0.612   4.640   4.239 -0.1677  0.6040 -0.0150
 2486SOL    HW3 9943   0.680   4.592   4.113 -0.7893  1.2264 -0.5932
 2486SOL    MW4 9944   0.676   4.595   4.200 -0.4271  0.7018 -0.5507
 2487SOL     OW 9945   0.462   0.094   4.298 -0.0684  0.3861 -0.3860
 2487SOL    HW2 9946   0.515   0.097   4.377 -0.9985 -0.0213  0.2592
 2487SOL    HW3 9947   0.467   0.182   4.261  0.3381  0.5801  0.1390
 2487SOL    MW4 9948   0.470   0.106   4.303 -0.1375  0.3579 -0.2316
 2488SOL     OW 9949   0.463   0.355   4.218 -0.3088  0.1298 -0.1383
 2488SOL    HW2 9950   0.538   0.406   4.248 -0.8911  1.0759 -0.2767
 2488SOL    HW3 9951   0.474   0.350   4.123  1.5132 -2.8315  0.1600
 2488SOL    MW4 9952   0.474   0.361   4.210 -0.1452 -0.1361 -0.1172
 2489SOL     OW 9953   0.695   0.485   4.289  0.1641  0.2506  0.0214
 2489SOL    HW2 9954   0.744   0.419   4.241 -0.2810  0.0480 -0.1588
 2489SOL    HW3 9955   0.710   0.566   4.240 -0.5940 -0.0274 -0.6856
 2489SOL    MW4 9956   0.703   0.487   4.276  0.0054  0.1872 -0.0957
 2490SOL     OW 9957   0.711   0.728   4.166  0.0157  0.1744  0.2453
 2490SOL    HW2 9958   0.641   0.791   4.182 -1.7005 -1.7748  0.7854
 2490SOL    HW3 9959   0.702   0.705   4.073  0.2080  0.2573  0.2070
 2490SOL    MW4 9960   0.700   0.733   4.156 -0.1853 -0.0718  0.3115
 2491SOL     OW 9961   0.509   0.918   4.235  0.1585 -0.0598  0.5173
 2491SOL    HW2 9962   0.499   1.012   4.224  0.1180 -0.1087  0.1253
 2491SOL    HW3 9963   0.425   0.881   4.207 -0.0571 -0.1645  1.3057
 2491SOL    MW4 9964   0.497   0.926   4.230  0.1247 -0.0801  0.5696
 2492SOL     OW 9965   0.478   1.191   4.234  0.2551 -0.1476 -0.0523
 2492SOL    HW2 9966   0.570   1.215   4.240 -0.0128  1.0730 -0.8045
 2492SOL    HW3 9967   0.461   1.184   4.140 -0.9317  1.6423  0.0090
 2492SOL    MW4 9968   0.488   1.193   4.223  0.0632  0.2496 -0.1434
 2493SOL     OW 9969   0.741   1.291   4.288  0.0950 -0.7305 -0.1471
 2493SOL    HW2 9970   0.776   1.320   4.372  0.7445 -0.0032 -0.6618
 2493SOL    HW3 9971   0.713   1.371   4.244  0.8074 -0.9810 -1.0830
 2493SOL    MW4 9972   0.742   1.305   4.293  0.2747 -0.6676 -0.3385
 2494SOL     OW 9973   0.631   1.512   4.196  0.1460 -0.2064 -0.2654
 2494SOL    HW2 9974   0.716   1.548   4.220 -0.9778  2.6995 -0.4771
 2494SOL    HW3 9975   0.627   1.520   4.101 -0.5039  0.0175 -0.2228
 2494SOL    MW4 9976   0.642   1.518   4.187 -0.0880  0.2065 -0.2877
 2495SOL     OW 9977   0.424   1.664   4.302  0.0951 -0.2090  0.1074
 2495SOL    HW2 9978   0.505   1.624   4.272 -0.8803 -1.6661 -0.6562
 2495SOL    HW3 9979   0.355   1.604   4.273 -1.3465  1.5551 -0.2627
 2495SOL    MW4 9980   0.425   1.651   4.294 -0.2238 -0.1685 -0.0422
 2496SOL     OW 9981   0.406   1.940   4.232  0.0882  0.1834 -0.1156
 2496SOL    HW2 9982   0.397   1.846   4.251  4.1001 -0.3751 -0.5440
 2496SOL    HW3 9983   0.417   1.943   4.137 -0.6854  1.1743 -0.1737
 2496SOL    MW4 9984   0.406   1.928   4.222  0.5154  0.2404 -0.1798
 2497SOL     OW 9985   0.660   2.056   4.272 -0.0778  0.6717 -0.2849
 2497SOL    HW2 9986   0.656   2.066   4.367 -0.0486 -0.8252 -0.1074
 2497SOL    HW3 9987   0.582   2.004   4.250  0.9917 -0.7498 -0.8068
 2497SOL    MW4 9988   0.649   2.050   4.282  0.0672  0.2867 -0.3304
 2498SOL     OW 9989   0.679   2.311   4.193 -0.2573 -0.4688  0.0174
 2498SOL    HW2 9990   0.661   2.223   4.226 -1.2193 -0.3258 -0.1287
 2498SOL    HW3 9991   0.691   2.299   4.099 -0.1452 -0.4769  0.0326
 2498SOL    MW4 9992   0.678   2.297   4.185 -0.3695 -0.4510  0.0001
 2499SOL     OW 9993   0.410   2.416   4.223  0.0780 -0.2267 -0.0888
 2499SOL    HW2 9994   0.418   2.504   4.187  0.6338 -0.3640 -0.3104
 2499SOL    HW3 9995   0.498   2.378   4.214  0.4493  0.0421  2.2096
 2499SOL    MW4 9996   0.423   2.422   4.217  0.2003 -0.2094  0.1852
 2500SOL     OW 9997   0.425   2.673   4.155 -0.2114  0.6051 -0.5481
 2500SOL    HW2 9998   0.508   2.716   4.174 -0.9211  1.7251  0.0142
 2500SOL    HW3 9999   0.416   2.680   4.059  0.1247  0.8824 -0.5608
 2500SOL    MW410000   0.435   2.679   4.145 -0.2607  0.7895 -0.4756
 2501SOL     OW10001   0.631   2.839   4.274 -0.4811  0.2330 -0.4258
 2501SOL    HW210002   0.649   2.847   4.367  1.3633  0.3313 -0.7794
 2501SOL    HW310003   0.620   2.929   4.243  0.8279  0.3179 -0.6641
 2501SOL    MW410004   0.632   2.852   4.282 -0.0650  0.2572 -0.5039
 2502SOL     OW10005   0.646   3.115   4.219 -0.4145 -0.2638 -0.1794
 2502SOL    HW210006   0.731   3.149   4.247 -0.0040  0.4484 -2.1720
 2502SOL    HW310007   0.585   3.143   4.287  0.8104 -0.0107  0.8230
 2502SOL    MW410008   0.649   3.123   4.232 -0.1987 -0.1364 -0.3101
 2503SOL     OW10009   0.442   3.237   4.360  0.2320 -0.1715  0.2978
 2503SOL    HW210010   0.433   3.246   4.455  0.2111  1.8596  0.1315
 2503SOL    HW310011   0.468   3.324   4.331  1.0282 -0.9915 -1.4804
 2503SOL    MW410012   0.444   3.250   4.369  0.3343 -0.0117  0.0413
 2504SOL     OW10013   0.491   3.503   4.262  0.2923 -0.1186  0.1660
 2504SOL    HW210014   0.582   3.531   4.274  0.9099 -1.2981 -1.5878
 2504SOL    HW310015   0.485   3.480   4.169 -1.6968 -0.4336  0.3561
 2504SOL    MW410016   0.502   3.504   4.251  0.1114 -0.3158 -0.0403
 2505SOL     OW10017   0.743   3.596   4.342 -0.0676 -0.1715  0.6693
 2505SOL    HW210018   0.741   3.607   4.437  0.5552 -1.0150  0.7850
 2505SOL    HW310019   0.829   3.558   4.325 -0.3590 -0.4417 -0.1893
 2505SOL    MW410020   0.754   3.593   4.352 -0.0239 -0.3184  0.5713
 2506SOL     OW10021   0.726   3.856   4.219 -0.3103 -0.5333  0.5690
 2506SOL    HW210022   0.654   3.910   4.251  0.1956  0.5233 -0.0500
 2506SOL    HW310023   0.718   3.774   4.268 -1.3623 -0.0725  1.1854
 2506SOL    MW410024   0.716   3.852   4.230 -0.3824 -0.3331  0.5687
 2507SOL     OW10025   0.483   4.008   4.326  0.0378 -0.2847  0.2415
 2507SOL    HW210026   0.462   4.090   4.282  0.7532  0.1185  0.6368
 2507SOL    HW310027   0.413   3.948   4.300  0.0976  0.1370 -0.9131
 2507SOL    MW410028   0.471   4.011   4.317  0.1401 -0.1759  0.1413
 2508SOL     OW10029   0.452   4.250   4.195  0.5568 -0.4150  0.0951
 2508SOL    HW210030   0.373   4.296   4.223  0.2077 -2.1112  2.0606
 2508SOL    HW310031   0.446   4.246   4.100 -1.7365 -0.5476  0.2245
 2508SOL    MW410032   0.441   4.256   4.186  0.2082 -0.6563  0.3715
 2509SOL     OW10033   0.698   4.329   4.315  0.9405  0.0057  0.3371
 2509SOL    HW210034   0.619   4.301   4.268  1.2700  0.9842 -0.8216
 2509SOL    HW310035   0.708   4.422   4.292  0.9226  0.6089  2.6020
 2509SOL    MW410036   0.689   4.338   4.306  0.9816  0.2144  0.4830
 2510SOL     OW10037   1.136   4.612   4.252 -0.6973 -0.0135 -0.2190
 2510SOL    HW210038   1.153   4.518   4.265 -3.7843 -0.7567 -1.0739
 2510SOL    HW310039   1.141   4.624   4.157 -1.0411  0.5243 -0.1684
 2510SOL    MW410040   1.139   4.601   4.241 -1.1500 -0.0406 -0.3251
 2511SOL     OW10041   0.892   0.072   4.292 -0.2975  0.0072 -0.0290
 2511SOL    HW210042   0.975   0.027   4.277  0.1089  0.6728  0.1843
 2511SOL    HW310043   0.825   0.011   4.263  0.2427 -0.8178  0.4650
 2511SOL    MW410044   0.894   0.058   4.287 -0.1726 -0.0138  0.0644
 2512SOL     OW10045   0.866   0.310   4.138 -0.2803 -0.4140  1.0064
 2512SOL    HW210046   0.945   0.363   4.144  0.4432 -1.2811 -0.6108
 2512SOL    HW310047   0.888   0.229   4.184 -0.3766 -0.4798  0.9365
 2512SOL    MW410048   0.879   0.306   4.145 -0.1976 -0.5371  0.7838
 2513SOL     OW10049   1.086   0.448   4.231 -0.3777 -0.4208  0.0236
 2513SOL    HW210050   1.089   0.468   4.325 -1.6760 -3.1587  0.6809
 2513SOL    HW310051   1.165   0.397   4.215  0.9312  1.7866 -0.8633
 2513SOL    MW410052   1.097   0.444   4.241 -0.3763 -0.4908 -0.0067
 2514SOL     OW10053   1.122   0.720   4.165  0.0381 -0.2680  0.2635
 2514SOL    HW210054   1.206   0.751   4.201 -0.0494 -1.2637  1.3371
 2514SOL    HW310055   1.118   0.628   4.190  0.0529 -1.0587 -2.4752
 2514SOL    MW410056   1.133   0.712   4.173  0.0285 -0.5037  0.0438
 2515SOL     OW10057   0.925   0.859   4.300 -0.1212 -0.3581 -0.1117
 2515SOL    HW210058   1.003   0.823   4.257 -0.3599  2.1866 -2.8309
 2515SOL    HW310059   0.851   0.817   4.255 -0.3527 -0.8721  0.7380
 2515SOL    MW410060   0.925   0.849   4.289 -0.1832 -0.0902 -0.3583
 2516SOL     OW10061   0.935   1.126   4.156  0.2239 -0.1534  0.0871
 2516SOL    HW210062   0.950   1.039   4.190  1.1845 -0.1389 -0.2835
 2516SOL    HW310063   0.873   1.166   4.217 -0.1536 -1.0512  0.3025
 2516SOL    MW410064   0.929   1.120   4.168  0.3008 -0.2700  0.0666
 2517SOL     OW10065   1.143   1.259   4.261 -0.4603 -0.0905 -0.0399
 2517SOL    HW210066   1.128   1.236   4.353  0.2572  1.0374  0.3659
 2517SOL    HW310067   1.074   1.212   4.213 -0.8256 -0.6955  1.0662
 2517SOL    MW410068   1.132   1.250   4.267 -0.4139 -0.0215  0.1595
 2518SOL     OW10069   1.144   1.535   4.210  0.1415 -0.2271 -0.2113
 2518SOL    HW210070   1.062   1.577   4.236 -0.4981 -0.5520 -1.6595
 2518SOL    HW310071   1.131   1.442   4.232  0.1037 -0.2829 -0.4659
 2518SOL    MW410072   1.132   1.528   4.216  0.0522 -0.2773 -0.4359
 2519SOL     OW10073   0.859   1.652   4.255 -0.8480 -0.1223  0.7148
 2519SOL    HW210074   0.830   1.666   4.346 -0.5356  0.3089  0.7474
 2519SOL    HW310075   0.856   1.739   4.215  0.4915 -0.0561  0.7439
 2519SOL    MW410076   0.855   1.665   4.262 -0.6300 -0.0567  0.7230
 2520SOL     OW10077   0.886   1.920   4.181 -0.0482 -0.0466 -0.5745
 2520SOL    HW210078   0.812   1.977   4.202  0.5252 -0.1368  1.8708
 2520SOL    HW310079   0.899   1.931   4.087 -1.9517  1.4186 -0.7011
 2520SOL    MW410080   0.878   1.929   4.172 -0.2237  0.1348 -0.2686
 2521SOL     OW10081   1.124   2.059   4.268  0.1388 -1.0246  0.9049
 2521SOL    HW210082   1.104   2.051   4.361 -0.4889  0.1113  0.8780
 2521SOL    HW310083   1.051   2.016   4.224  1.1687 -2.8968  0.9446
 2521SOL    MW410084   1.112   2.052   4.274  0.1919 -1.1218  0.9066
 2522SOL     OW10085   1.123   2.317   4.186  0.1923  0.3263  0.0351
 2522SOL    HW210086   1.203   2.355   4.222 -0.8940  0.9601  1.8294
 2522SOL    HW310087   1.127   2.225   4.210  0.9466  0.1009 -0.9240
 2522SOL    MW410088   1.134   2.310   4.194  0.1485  0.3802  0.1453
 2523SOL     OW10089   0.893   2.468   4.269 -0.4874 -0.0349 -0.5740
 2523SOL    HW210090   0.972   2.418   4.247  0.1617 -0.7788  3.1180
 2523SOL    HW310091   0.822   2.423   4.223  0.6956 -1.7617 -0.7423
 2523SOL    MW410092   0.894   2.456   4.260 -0.2457 -0.3609 -0.1091
 2524SOL     OW10093   0.886   2.736   4.174  0.3128 -0.0762 -0.0715
 2524SOL    HW210094   0.891   2.651   4.218  0.9310  0.7115  1.4081
 2524SOL    HW310095   0.801   2.772   4.201  0.7311  0.4488  0.5388
 2524SOL    MW410096   0.875   2.729   4.183  0.4496  0.0970  0.2042
 2525SOL     OW10097   1.127   2.792   4.302 -0.0616  0.4628 -0.0393
 2525SOL    HW210098   1.138   2.879   4.261  0.5124 -0.4319 -1.8706
 2525SOL    HW310099   1.049   2.756   4.260 -0.1174 -0.0295  0.4919
 2525SOL    MW410100   1.118   2.799   4.291  0.0068  0.2798 -0.2108
 2526SOL     OW10101   1.129   3.054   4.203  0.2855 -0.8575 -0.1517
 2526SOL    HW210102   1.208   3.080   4.252  0.3585 -0.9326 -0.2297
 2526SOL    HW310103   1.149   3.075   4.112 -0.3425  0.4622  0.0100
 2526SOL    MW410104   1.142   3.060   4.198  0.2123 -0.6933 -0.1407
 2527SOL     OW10105   0.892   3.219   4.304  0.2699 -0.2871 -0.0866
 2527SOL    HW210106   0.880   3.182   4.391  1.3449  2.6178  1.3649
 2527SOL    HW310107   0.947   3.155   4.258 -0.5887 -2.0052  1.2236
 2527SOL    MW410108   0.898   3.206   4.309  0.2984 -0.1305  0.2778
 2528SOL     OW10109   0.969   3.475   4.235  0.0791 -0.0284 -0.3706
 2528SOL    HW210110   0.960   3.384   4.261 -1.1986  0.3081  0.4602
 2528SOL    HW310111   0.944   3.477   4.143 -0.2205 -0.4743 -0.3009
 2528SOL    MW410112   0.964   3.464   4.226 -0.1290 -0.0428 -0.2518
 2529SOL     OW10113   1.183   3.620   4.300 -0.1569 -0.1046 -0.3805
 2529SOL    HW210114   1.186   3.702   4.252  0.3591 -0.8260 -1.5904
 2529SOL    HW310115   1.099   3.581   4.278 -0.4488  0.1464  0.2784
 2529SOL    MW410116   1.172   3.626   4.291 -0.1273 -0.1666 -0.4532
 2530SOL     OW10117   1.156   3.854   4.182  0.5087 -0.4201  0.0357
 2530SOL    HW210118   1.235   3.897   4.214  0.9039 -1.2667  0.2056
 2530SOL    HW310119   1.085   3.893   4.232  0.8762 -0.0535  0.2722
 2530SOL    MW410120   1.157   3.865   4.193  0.6094 -0.4834  0.0893
 2531SOL     OW10121   0.950   3.972   4.323 -0.0899  0.0787 -0.0347
 2531SOL    HW210122   0.935   4.056   4.280 -0.6633 -0.6379 -1.2389
 2531SOL    HW310123   0.875   3.918   4.299  0.6661 -1.0425  0.0707
 2531SOL    MW410124   0.938   3.976   4.314 -0.0658 -0.1638 -0.1797
 2532SOL     OW10125   0.916   4.210   4.202  0.4666 -0.1434  0.1695
 2532SOL    HW210126   0.992   4.255   4.238  0.5819 -0.4671  0.3368
 2532SOL    HW310127   0.841   4.246   4.250  0.6455 -0.7474  0.9026
 2532SOL    MW410128   0.916   4.220   4.213  0.5054 -0.2658  0.2883
 2533SOL     OW10129   1.147   4.325   4.302  0.0821  0.2374 -0.1813
 2533SOL    HW210130   1.155   4.316   4.397 -0.0497  2.7168  0.0854
 2533SOL    HW310131   1.223   4.277   4.267  0.0055 -0.8849  1.1524
 2533SOL    MW410132   1.158   4.317   4.310  0.0546  0.4165  0.0298
 2534SOL     OW10133   1.592   4.623   4.176  0.1664  0.1897 -0.0165
 2534SOL    HW210134   1.667   4.679   4.197 -0.6754  1.3617 -0.0804
 2534SOL    HW310135   1.517   4.668   4.214 -0.6448 -0.4831 -0.7882
 2534SOL    MW410136   1.592   4.636   4.184 -0.0517  0.2556 -0.1267
 2535SOL     OW10137   1.371   0.071   4.285  0.3748  0.6218  0.1733
 2535SOL    HW210138   1.362   0.087   4.379 -1.5222  1.0083 -0.0560
 2535SOL    HW310139   1.295   0.018   4.263  0.6414  0.8132 -1.2099
 2535SOL    MW410140   1.360   0.066   4.295  0.1597  0.6980 -0.0395
 2536SOL     OW10141   1.357   0.338   4.200  0.7068  0.2321  0.3946
 2536SOL    HW210142   1.445   0.376   4.212  0.5167  0.6160  0.5913
 2536SOL    HW310143   1.367   0.247   4.225  0.9302  0.3975  0.9143
 2536SOL    MW410144   1.370   0.331   4.205  0.7112  0.3046  0.4892
 2537SOL     OW10145   1.607   0.461   4.245 -0.0852 -0.2324  0.4927
 2537SOL    HW210146   1.592   0.453   4.339  0.0404  1.4510  0.6644
 2537SOL    HW310147   1.586   0.552   4.224 -0.4742 -0.6822 -1.1761
 2537SOL    MW410148   1.603   0.472   4.254 -0.1200 -0.0696  0.2951
 2538SOL     OW10149   1.543   0.712   4.174  0.2997 -0.1982  0.1067
 2538SOL    HW210150   1.622   0.762   4.195  0.1571 -0.3374  0.9874
 2538SOL    HW310151   1.531   0.724   4.079  1.4813 -0.3487 -0.0613
 2538SOL    MW410152   1.552   0.720   4.164  0.4368 -0.2364  0.2008
 2539SOL     OW10153   1.329   0.842   4.309 -0.7133  0.3821 -0.0990
 2539SOL    HW210154   1.349   0.932   4.282 -0.6999  0.9903  1.9044
 2539SOL    HW310155   1.407   0.793   4.284  0.2032  1.3517  0.7789
 2539SOL    MW410156   1.342   0.848   4.302 -0.5906  0.5903  0.2812
 2540SOL     OW10157   1.378   1.117   4.230  0.5648 -0.3412  0.4516
 2540SOL    HW210158   1.305   1.173   4.255  1.4654  0.6832  0.8641
 2540SOL    HW310159   1.384   1.127   4.135  0.2882 -0.2707  0.4416
 2540SOL    MW410160   1.369   1.126   4.221  0.6471 -0.1968  0.5047
 2541SOL     OW10161   1.592   1.270   4.278  0.2510 -0.4819 -0.3323
 2541SOL    HW210162   1.608   1.265   4.372 -0.2713  2.2991 -0.0495
 2541SOL    HW310163   1.513   1.218   4.264 -1.6095  1.7762  1.3347
 2541SOL    MW410164   1.583   1.262   4.288 -0.0634  0.1830 -0.0750
 2542SOL     OW10165   1.542   1.544   4.204 -0.1201  0.1497 -0.3088
 2542SOL    HW210166   1.475   1.583   4.260  0.2578 -1.1980  1.1186
 2542SOL    HW310167   1.541   1.451   4.228  2.2330  0.1107 -0.3010
 2542SOL    MW410168   1.533   1.536   4.214  0.2402 -0.0333 -0.1194
 2543SOL     OW10169   1.338   1.689   4.339 -0.0849  0.3785 -0.4764
 2543SOL    HW210170   1.351   1.758   4.275  0.6354 -0.2969 -1.0696
 2543SOL    HW310171   1.271   1.632   4.300  1.1641 -0.6569 -1.1767
 2543SOL    MW410172   1.331   1.690   4.325  0.1749  0.1528 -0.6471
 2544SOL     OW10173   1.372   1.936   4.172 -0.3480 -0.7431 -0.1667
 2544SOL    HW210174   1.456   1.972   4.200 -0.4440 -1.3250  0.8987
 2544SOL    HW310175   1.307   1.993   4.213 -0.4818 -1.3529  0.4914
 2544SOL    MW410176   1.375   1.948   4.181 -0.3784 -0.9003  0.0607
 2545SOL     OW10177   1.588   2.083   4.264 -0.0020  0.6571  0.1258
 2545SOL    HW210178   1.587   2.083   4.359 -0.2690  0.6691  0.1238
 2545SOL    HW310179   1.583   2.175   4.239 -0.6213  0.6194  0.0969
 2545SOL    MW410180   1.588   2.095   4.273 -0.1189  0.6537  0.1218
 2546SOL     OW10181   1.585   2.344   4.136 -0.1813  0.2287  0.2406
 2546SOL    HW210182   1.654   2.406   4.159 -0.6312  0.9679 -0.3837
 2546SOL    HW310183   1.602   2.322   4.044 -1.8193  1.7919 -0.4579
 2546SOL    MW410184   1.597   2.349   4.127 -0.4567  0.5325  0.0661
 2547SOL     OW10185   1.361   2.441   4.266  0.2276  0.0795  0.2248
 2547SOL    HW210186   1.352   2.528   4.225  0.3979  0.2339  0.5157
 2547SOL    HW310187   1.437   2.402   4.223  0.3637  0.2134  0.3423
 2547SOL    MW410188   1.369   2.448   4.255  0.2680  0.1175  0.2787
 2548SOL     OW10189   1.331   2.681   4.153  0.0275 -0.6630  0.1733
 2548SOL    HW210190   1.407   2.732   4.180  0.2888 -0.3894 -1.0387
 2548SOL    HW310191   1.257   2.722   4.198  0.3539  0.2393 -0.0995
 2548SOL    MW410192   1.331   2.693   4.162  0.1050 -0.5079 -0.0226
 2549SOL     OW10193   1.574   2.815   4.217  0.2797 -0.1661 -0.3263
 2549SOL    HW210194   1.610   2.811   4.306 -0.2274 -0.4777 -0.1325
 2549SOL    HW310195   1.563   2.908   4.200 -0.1274 -0.1226  0.1482
 2549SOL    MW410196   1.578   2.827   4.226  0.1591 -0.2015 -0.2381
 2550SOL     OW10197   1.594   3.077   4.149 -0.0872  0.1435 -0.4174
 2550SOL    HW210198   1.666   3.111   4.201 -0.1837  1.8636 -1.3812
 2550SOL    HW310199   1.517   3.124   4.181 -0.7641 -1.4539  0.3914
 2550SOL    MW410200   1.593   3.088   4.160 -0.1893  0.1597 -0.4379
 2551SOL     OW10201   1.369   3.202   4.298  0.0814 -0.0536  0.2261
 2551SOL    HW210202   1.397   3.219   4.388  0.8734 -0.1225 -0.0057
 2551SOL    HW310203   1.346   3.288   4.263 -0.8492 -0.1090  0.7002
 2551SOL    MW410204   1.370   3.216   4.305  0.0631 -0.0700  0.2581
 2552SOL     OW10205   1.370   3.458   4.193  0.2345 -0.0286 -0.5363
 2552SOL    HW210206   1.308   3.511   4.243 -0.5913 -0.1240 -1.4623
 2552SOL    HW310207   1.359   3.485   4.102 -1.0382 -2.5944 -1.1797
 2552SOL    MW410208   1.361   3.469   4.188 -0.0423 -0.3797 -0.7433
 2553SOL     OW10209   1.590   3.627   4.254 -0.0110  0.4505  0.1097
 2553SOL    HW210210   1.644   3.606   4.330  0.9666 -1.0608 -0.9754
 2553SOL    HW310211   1.517   3.565   4.258  0.8722 -0.7102 -1.0084
 2553SOL    MW410212   1.587   3.616   4.264  0.2345  0.0980 -0.1809
 2554SOL     OW10213   1.600   3.885   4.156  0.1056  0.3161  0.3936
 2554SOL    HW210214   1.529   3.927   4.205 -1.1719 -0.3184 -0.8826
 2554SOL    HW310215   1.591   3.792   4.177 -0.5450  0.0223 -1.1332
 2554SOL    MW410216   1.589   3.878   4.165 -0.1488  0.1936  0.0238
 2555SOL     OW10217   1.384   3.982   4.280 -0.5331 -0.6918 -0.0332
 2555SOL    HW210218   1.384   3.997   4.374  1.9495 -0.4314 -0.0526
 2555SOL    HW310219   1.369   4.069   4.242 -1.6366 -0.8136  0.1110
 2555SOL    MW410220   1.382   3.995   4.287 -0.3511 -0.6736 -0.0167
 2556SOL     OW10221   1.367   4.216   4.159  0.2576  0.0336  0.0034
 2556SOL    HW210222   1.444   4.264   4.191  1.4151 -2.6905  1.5071
 2556SOL    HW310223   1.384   4.202   4.066  1.1245  0.2699  0.1245
 2556SOL    MW410224   1.379   4.221   4.151  0.5247 -0.2946  0.2177
 2557SOL     OW10225   1.577   4.364   4.248  0.3216  0.2946 -0.6738
 2557SOL    HW210226   1.575   4.457   4.228  0.1324 -0.1166 -2.7174
 2557SOL    HW310227   1.666   4.336   4.227  0.5867  0.1468  0.6164
 2557SOL    MW410228   1.588   4.372   4.242  0.3316  0.2209 -0.7732
 2558SOL     OW10229   2.019   4.632   4.173  0.3011 -0.1056  0.0631
 2558SOL    HW210230   1.947   4.682   4.213 -0.3581 -1.6135  0.7955
 2558SOL    HW310231   2.004   4.640   4.079  0.5075  1.5032  0.1441
 2558SOL    MW410232   2.007   4.640   4.166  0.2413 -0.0922  0.1704
 2559SOL     OW10233   1.801   0.099   4.271 -0.3947 -0.0602  0.1582
 2559SOL    HW210234   1.778   0.101   4.364 -1.4297  0.0780 -0.0976
 2559SOL    HW310235   1.824   0.189   4.251 -0.9526  0.0657  0.0852
 2559SOL    MW410236   1.801   0.111   4.281 -0.6049 -0.0254  0.1148
 2560SOL     OW10237   1.842   0.361   4.166  0.7650  0.1133  0.3457
 2560SOL    HW210238   1.904   0.430   4.190  0.7604 -0.0957  0.9654
 2560SOL    HW310239   1.756   0.396   4.186  0.3842  1.7726 -3.7889
 2560SOL    MW410240   1.839   0.374   4.171  0.7141  0.3046 -0.1181
 2561SOL     OW10241   2.072   0.501   4.265 -0.1914  0.2423  0.3137
 2561SOL    HW210242   2.074   0.459   4.351 -0.5761 -0.4895 -0.0263
 2561SOL    HW310243   2.139   0.454   4.214  0.6779  1.2792  0.4846
 2561SOL    MW410244   2.081   0.489   4.270 -0.1275  0.2826  0.2914
 2562SOL     OW10245   2.001   0.770   4.186  0.0529  0.1505  0.0198
 2562SOL    HW210246   2.090   0.786   4.218 -0.0991  0.7926  0.1285
 2562SOL    HW310247   1.983   0.680   4.211  0.2828  0.3509  0.9347
 2562SOL    MW410248   2.010   0.761   4.194  0.0632  0.2616  0.1548
 2563SOL     OW10249   1.769   0.856   4.263 -0.5539 -0.0353  0.2064
 2563SOL    HW210250   1.773   0.951   4.257 -1.0590 -0.0293 -0.1664
 2563SOL    HW310251   1.852   0.826   4.227 -0.2762  0.2732  0.5913
 2563SOL    MW410252   1.780   0.864   4.257 -0.5839  0.0062  0.2080
 2564SOL     OW10253   1.804   1.117   4.202 -0.1216 -0.6107 -0.4343
 2564SOL    HW210254   1.878   1.160   4.243 -0.1812  0.2145 -1.1920
 2564SOL    HW310255   1.728   1.168   4.230 -0.3104 -0.8894 -0.4323
 2564SOL    MW410256   1.803   1.129   4.211 -0.1544 -0.5386 -0.5340
 2565SOL     OW10257   2.039   1.241   4.295 -0.1989 -0.1952 -0.1810
 2565SOL    HW210258   2.115   1.217   4.242 -0.3684 -0.4208 -0.3232
 2565SOL    HW310259   2.025   1.334   4.277 -0.5490 -0.3824 -0.9046
 2565SOL    MW410260   2.047   1.250   4.286 -0.2674 -0.2497 -0.2952
 2566SOL     OW10261   1.977   1.516   4.215 -0.4484 -0.1833 -0.2304
 2566SOL    HW210262   2.048   1.575   4.239 -1.6759  0.8749  0.8649
 2566SOL    HW310263   1.994   1.494   4.123  1.3464 -0.0516  0.0487
 2566SOL    MW410264   1.989   1.521   4.206 -0.3735 -0.0263 -0.0491
 2567SOL     OW10265   1.770   1.689   4.297 -0.0949 -0.5567  0.1607
 2567SOL    HW210266   1.841   1.630   4.273 -0.5019  0.0535 -2.7506
 2567SOL    HW310267   1.691   1.643   4.271 -0.5502  0.3297 -0.0311
 2567SOL    MW410268   1.769   1.675   4.291 -0.2087 -0.3592 -0.2487
 2568SOL     OW10269   1.806   1.948   4.163  0.2605 -0.0160  0.3577
 2568SOL    HW210270   1.795   1.863   4.205  1.0883 -0.3335 -0.0502
 2568SOL    HW310271   1.728   1.998   4.188 -0.6889 -1.2083 -0.1708
 2568SOL    MW410272   1.794   1.943   4.172  0.2445 -0.2152  0.2342
 2569SOL     OW10273   2.001   2.032   4.339 -0.0380 -0.3277 -0.2944
 2569SOL    HW210274   2.078   2.001   4.291  0.2573 -0.9387  0.5585
 2569SOL    HW310275   1.927   2.009   4.284  0.3228 -0.7073 -0.6202
 2569SOL    MW410276   2.001   2.025   4.325  0.0486 -0.4584 -0.2249
 2570SOL     OW10277   1.990   2.279   4.214  0.7306 -0.0422 -0.0403
 2570SOL    HW210278   1.998   2.196   4.260 -2.4157  0.2277  1.1008
 2570SOL    HW310279   1.986   2.256   4.122 -0.3448 -1.2008  0.2876
 2570SOL    MW410280   1.991   2.265   4.208  0.1736 -0.1595  0.1535
 2571SOL     OW10281   1.814   2.485   4.238 -0.2524 -0.6642 -0.2963
 2571SOL    HW210282   1.821   2.524   4.325  0.4022 -0.2277 -0.5380
 2571SOL    HW310283   1.885   2.420   4.235  0.7967  0.4847 -1.0891
 2571SOL    MW410284   1.824   2.482   4.249 -0.0276 -0.4550 -0.4328
 2572SOL     OW10285   1.841   2.735   4.121  0.4464 -0.7593  0.4777
 2572SOL    HW210286   1.852   2.645   4.151  0.3145 -0.5401  1.1912
 2572SOL    HW310287   1.752   2.759   4.147  0.5872 -0.3211  0.5643
 2572SOL    MW410288   1.831   2.727   4.129  0.4476 -0.6726  0.5833
 2573SOL     OW10289   2.033   2.839   4.311  0.4124 -0.2058  0.7426
 2573SOL    HW210290   2.010   2.813   4.400  1.3850  1.3276  1.4710
 2573SOL    HW310291   1.957   2.816   4.258 -1.1911  1.1371  2.3984
 2573SOL    MW410292   2.020   2.833   4.316  0.3292  0.1737  1.0572
 2574SOL     OW10293   2.023   3.084   4.204 -0.0397 -0.8359  0.1102
 2574SOL    HW210294   2.032   2.995   4.239 -0.5694 -1.3619 -1.0444
 2574SOL    HW310295   2.022   3.072   4.109  2.0097  0.6204 -0.1098
 2574SOL    MW410296   2.024   3.070   4.196  0.1608 -0.7131 -0.0712
 2575SOL     OW10297   1.800   3.200   4.314  0.4516 -0.1630 -0.1919
 2575SOL    HW210298   1.792   3.292   4.290  2.3418  0.0313 -0.2062
 2575SOL    HW310299   1.878   3.170   4.267 -1.1503 -2.2553 -1.6151
 2575SOL    MW410300   1.809   3.208   4.305  0.4896 -0.4134 -0.3815
 2576SOL     OW10301   1.782   3.453   4.175 -0.6668  0.2258 -0.1720
 2576SOL    HW210302   1.698   3.500   4.184 -1.2413 -0.7963 -0.1295
 2576SOL    HW310303   1.794   3.442   4.081 -0.8597 -0.1183 -0.1576
 2576SOL    MW410304   1.772   3.458   4.164 -0.7681  0.0455 -0.1645
 2577SOL     OW10305   2.024   3.570   4.257 -0.1472  0.3636 -0.1926
 2577SOL    HW210306   2.031   3.665   4.245 -0.4743  0.3883 -0.1833
 2577SOL    HW310307   1.935   3.549   4.229  0.0868 -0.0120 -0.6678
 2577SOL    MW410308   2.013   3.580   4.252 -0.1594  0.3173 -0.2541
 2578SOL     OW10309   2.042   3.836   4.196  0.1071  0.0452  0.2486
 2578SOL    HW210310   1.963   3.875   4.235  0.1741  1.8414 -1.3206
 2578SOL    HW310311   2.020   3.826   4.104  0.7995 -1.9350  0.2765
 2578SOL    MW410312   2.029   3.840   4.189  0.2073  0.0210  0.0452
 2579SOL     OW10313   1.826   3.992   4.290 -0.2078 -0.3547 -0.0473
 2579SOL    HW210314   1.825   4.087   4.277 -1.8115  0.0131  2.4583
 2579SOL    HW310315   1.755   3.960   4.234 -1.1021  0.1992  0.7366
 2579SOL    MW410316   1.816   4.001   4.281 -0.5374 -0.2331  0.3867
 2580SOL     OW10317   1.833   4.252   4.194 -0.3350  0.5219  0.6569
 2580SOL    HW210318   1.919   4.290   4.215  0.0077  0.6775 -0.9511
 2580SOL    HW310319   1.834   4.243   4.098 -2.4191  1.2425  0.5556
 2580SOL    MW410320   1.845   4.256   4.184 -0.5648  0.6375  0.4314
 2581SOL     OW10321   2.080   4.383   4.260 -0.1350  0.3068  0.3087
 2581SOL    HW210322   2.086   4.391   4.355 -0.6826  0.3715  0.3429
 2581SOL    HW310323   2.055   4.471   4.230  1.6626  0.7156 -0.0487
 2581SOL    MW410324   2.078   4.396   4.268  0.0299  0.3693  0.2661
 2582SOL     OW10325   2.507   4.658   4.135 -0.2029 -0.2765  0.6999
 2582SOL    HW210326   2.557   4.728   4.177 -2.1595  0.6921  1.4756
 2582SOL    HW310327   2.522   4.581   4.190  1.0312 -0.2045  0.4853
 2582SOL    MW410328   2.515   4.657   4.148 -0.2982 -0.1392  0.7739
 2583SOL     OW10329   2.251   0.069   4.272  0.3066  0.1981  0.1351
 2583SOL    HW210330   2.321   0.032   4.217  0.3054  1.6593 -0.8610
 2583SOL    HW310331   2.171   0.033   4.235  0.2638  1.6260 -1.2017
 2583SOL    MW410332   2.250   0.059   4.260  0.3008  0.5793 -0.1727
 2584SOL     OW10333   2.294   0.342   4.203 -0.0059  0.0770  0.0651
 2584SOL    HW210334   2.274   0.252   4.229  0.7978 -0.0552  0.2544
 2584SOL    HW310335   2.286   0.342   4.108 -3.4319  0.6784  0.2924
 2584SOL    MW410336   2.290   0.330   4.194 -0.3519  0.1389  0.1201
 2585SOL     OW10337   2.493   0.490   4.319 -0.0674  0.0001  0.2180
 2585SOL    HW210338   2.525   0.443   4.396 -1.7681  0.4384  1.2025
 2585SOL    HW310339   2.410   0.447   4.297 -0.1409  0.5945 -0.7004
 2585SOL    MW410340   2.486   0.478   4.326 -0.3015  0.1363  0.2267
 2586SOL     OW10341   2.495   0.764   4.204 -0.3816  0.4716  0.4946
 2586SOL    HW210342   2.488   0.678   4.246  0.2908  0.4073  0.4772
 2586SOL    HW310343   2.493   0.745   4.110 -0.6104  0.5081  0.4915
 2586SOL    MW410344   2.494   0.750   4.197 -0.3231  0.4679  0.4919
 2587SOL     OW10345   2.242   0.893   4.270 -0.2792 -0.5052  0.0877
 2587SOL    HW210346   2.239   0.878   4.364  0.7019  1.1110  0.3882
 2587SOL    HW310347   2.314   0.837   4.240  1.5618  1.4246  0.7978
 2587SOL    MW410348   2.252   0.884   4.278  0.0931 -0.0374  0.2210
 2588SOL     OW10349   2.248   1.146   4.145 -0.0812  0.0945 -0.1332
 2588SOL    HW210350   2.326   1.198   4.167  0.0121  0.5399 -1.5148
 2588SOL    HW310351   2.254   1.070   4.204  1.7620 -0.2189 -0.6818
 2588SOL    MW410352   2.259   1.143   4.156  0.1743  0.1120 -0.3879
 2589SOL     OW10353   2.479   1.261   4.236 -0.5267  0.3518  0.2466
 2589SOL    HW210354   2.470   1.272   4.331 -0.6647  1.4603  0.1124
 2589SOL    HW310355   2.565   1.220   4.225 -0.4095  0.4300  0.8376
 2589SOL    MW410356   2.490   1.257   4.247 -0.5294  0.5084  0.3069
 2590SOL     OW10357   2.475   1.525   4.160 -0.3139  0.0582 -0.0271
 2590SOL    HW210358   2.468   1.432   4.183 -0.9838  0.0674 -0.1788
 2590SOL    HW310359   2.497   1.526   4.067 -1.3173  0.0599 -0.2687
 2590SOL    MW410360   2.477   1.513   4.151 -0.5347  0.0596 -0.0790
 2591SOL     OW10361   2.230   1.659   4.248  0.1660  0.0331  0.0018
 2591SOL    HW210362   2.245   1.661   4.342 -1.7297 -0.2030  0.3369
 2591SOL    HW310363   2.294   1.597   4.214  0.4102 -0.3952  1.2298
 2591SOL    MW410364   2.240   1.651   4.256 -0.0519 -0.0546  0.2080
 2592SOL     OW10365   2.204   1.922   4.182  0.2590 -0.1887  0.6988
 2592SOL    HW210366   2.287   1.959   4.213  0.2309 -0.3393  0.9533
 2592SOL    HW310367   2.209   1.830   4.207  0.3648 -0.3761 -0.0073
 2592SOL    MW410368   2.216   1.915   4.190  0.2693 -0.2333  0.6392
 2593SOL     OW10369   2.437   2.059   4.237  0.5388 -0.5803  0.1679
 2593SOL    HW210370   2.428   2.072   4.332  0.0214 -0.3105  0.0849
 2593SOL    HW310371   2.525   2.022   4.226  0.3489 -1.2484  0.8185
 2593SOL    MW410372   2.447   2.056   4.248  0.4455 -0.6328  0.2428
 2594SOL     OW10373   2.406   2.329   4.158  0.0322 -0.1060 -0.3483
 2594SOL    HW210374   2.409   2.236   4.178 -1.5469 -0.3264 -1.0733
 2594SOL    HW310375   2.404   2.333   4.063 -2.1299  0.5653 -0.3057
 2594SOL    MW410376   2.406   2.317   4.148 -0.4614 -0.0465 -0.4384
 2595SOL     OW10377   2.213   2.431   4.325  0.1372  0.2080 -0.3562
 2595SOL    HW210378   2.291   2.400   4.279 -0.3319 -0.1576 -0.9139
 2595SOL    HW310379   2.141   2.382   4.285 -0.4499  0.9992 -0.2758
 2595SOL    MW410380   2.213   2.420   4.314 -0.0021  0.2641 -0.4192
 2596SOL     OW10381   2.226   2.695   4.201 -0.6819 -0.0149 -0.1201
 2596SOL    HW210382   2.229   2.605   4.232 -1.1034 -0.0316 -0.1316
 2596SOL    HW310383   2.152   2.734   4.247  0.8317  0.9353  1.5319
 2596SOL    MW410384   2.217   2.688   4.211 -0.5378  0.1083  0.0964
 2597SOL     OW10385   2.487   2.810   4.246  0.1256 -0.4260  0.2071
 2597SOL    HW210386   2.486   2.820   4.341  0.4826  0.6887  0.1007
 2597SOL    HW310387   2.403   2.769   4.225 -0.6622  0.8512  0.8363
 2597SOL    MW410388   2.476   2.806   4.256  0.0687 -0.1104  0.2761
 2598SOL     OW10389   2.496   3.073   4.141  0.2065 -0.1599 -0.1645
 2598SOL    HW210390   2.416   3.113   4.175  0.8363  1.1415 -0.1615
 2598SOL    HW310391   2.500   2.987   4.182 -0.9421 -0.0425  0.1989
 2598SOL    MW410392   2.486   3.067   4.151  0.1380  0.0273 -0.1162
 2599SOL     OW10393   2.270   3.199   4.224 -0.2918  0.2395 -0.6347
 2599SOL    HW210394   2.264   3.291   4.200  0.9804  0.5386  0.1851
 2599SOL    HW310395   2.178   3.170   4.228 -0.7068  1.4980 -0.7386
 2599SOL    MW410396   2.257   3.207   4.221 -0.1787  0.4450 -0.5402
 2600SOL     OW10397   2.248   3.464   4.128 -0.2449 -0.1314 -0.2638
 2600SOL    HW210398   2.322   3.507   4.171  1.0027 -1.8296 -0.6546
 2600SOL    HW310399   2.171   3.506   4.165  0.8103 -0.8919  2.9897
 2600SOL    MW410400   2.248   3.475   4.139  0.0589 -0.4558  0.1139
 2601SOL     OW10401   2.477   3.568   4.238 -0.0971 -0.0179  0.5313
 2601SOL    HW210402   2.492   3.569   4.332 -0.7420  1.3528  0.6330
 2601SOL    HW310403   2.460   3.659   4.215 -0.8603 -0.4639 -0.7593
 2601SOL    MW410404   2.477   3.580   4.247 -0.2829  0.1041  0.3744
 2602SOL     OW10405   2.455   3.832   4.173  0.0412  0.2261 -0.2376
 2602SOL    HW210406   2.532   3.866   4.220  0.5117 -0.2667 -0.6413
 2602SOL    HW310407   2.474   3.847   4.081  0.1623 -0.9118 -0.4107
 2602SOL    MW410408   2.468   3.838   4.167  0.1193  0.0110 -0.3137
 2603SOL     OW10409   2.245   3.981   4.288 -0.2598 -0.0451  0.5322
 2603SOL    HW210410   2.319   3.929   4.256 -1.2392 -0.9492 -0.2847
 2603SOL    HW310411   2.170   3.951   4.236 -0.9576  1.7698  0.4358
 2603SOL    MW410412   2.245   3.970   4.277 -0.4811  0.0750  0.4117
 2604SOL     OW10413   2.292   4.237   4.177  0.5945  0.1924 -0.1389
 2604SOL    HW210414   2.268   4.150   4.208  0.1916 -0.1448 -1.3835
 2604SOL    HW310415   2.218   4.292   4.202  0.6169  0.0799  0.1795
 2604SOL    MW410416   2.279   4.233   4.184  0.5443  0.1331 -0.2611
 2605SOL     OW10417   2.459   4.434   4.295  0.0615  0.0823  0.3860
 2605SOL    HW210418   2.543   4.389   4.287  0.4748  0.8627  0.2750
 2605SOL    HW310419   2.394   4.372   4.261  0.6599 -0.3069 -0.0418
 2605SOL    MW410420   2.461   4.420   4.290  0.1950  0.1339  0.3149
 2606SOL     OW10421   2.915   4.661   4.131 -0.7797 -0.0690 -0.0503
 2606SOL    HW210422   2.989   4.711   4.164  0.5578 -1.0204 -1.5006
 2606SOL    HW310423   2.925   4.574   4.171 -1.8265  0.1585  0.7236
 2606SOL    MW410424   2.926   4.656   4.140 -0.7413 -0.1645 -0.1396
 2607SOL     OW10425   2.705   0.156   4.256 -0.0859  0.2470  0.0583
 2607SOL    HW210426   2.718   0.250   4.257 -0.8892  0.3815 -0.9206
 2607SOL    HW310427   2.762   0.125   4.185 -1.1603  0.2208 -0.8039
 2607SOL    MW410428   2.714   0.164   4.247 -0.3336  0.2613 -0.1846
 2608SOL     OW10429   2.714   0.423   4.173 -0.3296 -0.1736  0.1066
 2608SOL    HW210430   2.630   0.446   4.213 -0.4422 -1.1522  0.4325
 2608SOL    HW310431   2.701   0.440   4.079 -1.0094 -0.6952  0.1061
 2608SOL    MW410432   2.701   0.429   4.166 -0.4341 -0.3715  0.1495
 2609SOL     OW10433   2.926   0.570   4.268  0.6124 -0.2420 -0.2801
 2609SOL    HW210434   2.922   0.659   4.232 -1.0421 -0.1580  0.0976
 2609SOL    HW310435   2.850   0.525   4.230 -0.3587 -0.5733  1.9940
 2609SOL    MW410436   2.916   0.576   4.258  0.2660 -0.2746  0.0698
 2610SOL     OW10437   2.928   0.822   4.156  0.0318  0.3863  0.1159
 2610SOL    HW210438   3.009   0.865   4.184  0.1260  0.6770 -0.5931
 2610SOL    HW310439   2.937   0.813   4.061 -0.4989 -0.1460  0.1122
 2610SOL    MW410440   2.940   0.826   4.147 -0.0258  0.3544  0.0219
 2611SOL     OW10441   2.725   0.917   4.313  0.3573 -0.5906 -0.0181
 2611SOL    HW210442   2.799   0.892   4.259  1.1344  0.5311  0.4993
 2611SOL    HW310443   2.649   0.876   4.271  1.3406 -2.3048 -0.1570
 2611SOL    MW410444   2.724   0.909   4.300  0.5896 -0.6688  0.0319
 2612SOL     OW10445   2.742   1.171   4.190  0.0530 -0.2303  0.6353
 2612SOL    HW210446   2.750   1.089   4.239  0.2746 -0.9721 -0.5894
 2612SOL    HW310447   2.740   1.143   4.098  0.6440  1.1753  0.1747
 2612SOL    MW410448   2.743   1.156   4.184  0.1602 -0.1428  0.4130
 2613SOL     OW10449   2.970   1.293   4.323  0.5027  0.0210  0.7452
 2613SOL    HW210450   3.046   1.245   4.290 -0.2429 -1.1416  0.6764
 2613SOL    HW310451   2.897   1.259   4.272  0.0203  1.5558  0.4134
 2613SOL    MW410452   2.971   1.282   4.312  0.3407  0.0701  0.6923
 2614SOL     OW10453   2.898   1.556   4.190 -0.1326  0.6017 -0.2884
 2614SOL    HW210454   2.971   1.609   4.221 -0.3146  0.2873  0.7194
 2614SOL    HW310455   2.914   1.469   4.227 -1.8972  0.9516  1.4036
 2614SOL    MW410456   2.910   1.552   4.199 -0.3894  0.6064  0.0678
 2615SOL     OW10457   2.674   1.659   4.310 -0.4437 -0.7027 -0.2025
 2615SOL    HW210458   2.742   1.607   4.268 -1.4236 -1.6884 -0.6252
 2615SOL    HW310459   2.592   1.626   4.271 -1.2146 -0.1887  0.9542
 2615SOL    MW410460   2.672   1.647   4.299 -0.6747 -0.7650 -0.1057
 2616SOL     OW10461   2.673   1.907   4.192  0.0429  0.1198 -0.4626
 2616SOL    HW210462   2.688   1.816   4.218 -0.8365 -0.0237 -0.4720
 2616SOL    HW310463   2.672   1.905   4.096 -1.4859 -0.0974 -0.4432
 2616SOL    MW410464   2.675   1.895   4.183 -0.2749  0.0722 -0.4612
 2617SOL     OW10465   2.918   2.058   4.258  0.1452 -0.0432  0.1268
 2617SOL    HW210466   2.905   2.137   4.205 -1.5246 -0.0309  0.5084
 2617SOL    HW310467   2.841   2.004   4.239 -0.0672 -0.3955  1.9109
 2617SOL    MW410468   2.906   2.061   4.248 -0.1032 -0.0881  0.4125
 2618SOL     OW10469   2.914   2.306   4.141  0.3539  0.0315 -0.1861
 2618SOL    HW210470   2.981   2.342   4.200  0.3703 -0.6428  0.2139
 2618SOL    HW310471   2.836   2.360   4.159  0.5085  0.1771  0.0667
 2618SOL    MW410472   2.912   2.318   4.151  0.3765 -0.0383 -0.1000
 2619SOL     OW10473   2.659   2.427   4.200  0.0062 -0.3636 -0.2067
 2619SOL    HW210474   2.664   2.419   4.295 -2.3336  0.8599  0.0540
 2619SOL    HW310475   2.578   2.383   4.177 -0.3869  0.9789 -1.4308
 2619SOL    MW410476   2.649   2.420   4.209 -0.3544 -0.0250 -0.3338
 2620SOL     OW10477   2.687   2.693   4.109  0.2948 -0.1668 -0.2880
 2620SOL    HW210478   2.666   2.600   4.117 -1.2804  0.0382 -1.7801
 2620SOL    HW310479   2.619   2.737   4.159  2.0035  0.1355  1.8400
 2620SOL    MW410480   2.676   2.687   4.117  0.3124 -0.0998 -0.2041
 2621SOL     OW10481   2.883   2.783   4.291 -0.3769 -1.2602  0.5985
 2621SOL    HW210482   2.885   2.743   4.377  1.1670 -1.7731  0.3491
 2621SOL    HW310483   2.808   2.744   4.247 -1.3948 -0.7117  1.8295
 2621SOL    MW410484   2.874   2.773   4.296 -0.3075 -1.2555  0.7280
 2622SOL     OW10485   2.919   3.038   4.156  0.1161  0.1559  0.1325
 2622SOL    HW210486   2.903   2.957   4.206  1.2087 -0.4897 -0.5442
 2622SOL    HW310487   2.897   3.014   4.066  0.9714  0.4571 -0.1554
 2622SOL    MW410488   2.914   3.024   4.151  0.3731  0.1105  0.0053
 2623SOL     OW10489   2.717   3.186   4.257  0.0575  0.2778 -0.1063
 2623SOL    HW210490   2.785   3.132   4.216 -0.3571  1.2568 -2.1687
 2623SOL    HW310491   2.636   3.158   4.215 -0.3969  1.2608  0.1115
 2623SOL    MW410492   2.716   3.175   4.246 -0.0572  0.5367 -0.3496
 2624SOL     OW10493   2.727   3.470   4.214  0.0973 -0.3057 -0.1793
 2624SOL    HW210494   2.715   3.377   4.232  0.3023 -0.4091 -0.5813
 2624SOL    HW310495   2.638   3.503   4.200  0.1372 -0.7262 -1.4511
 2624SOL    MW410496   2.713   3.462   4.215  0.1296 -0.3748 -0.4001
 2625SOL     OW10497   2.924   3.606   4.356 -0.4803 -0.0486 -0.1231
 2625SOL    HW210498   2.897   3.653   4.435 -0.0938  1.1471 -0.6779
 2625SOL    HW310499   2.846   3.557   4.329 -0.8947  0.2749  0.4676
 2625SOL    MW410500   2.910   3.606   4.363 -0.4839  0.1518 -0.1183
 2626SOL     OW10501   2.915   3.830   4.181 -0.6024 -0.2566  0.1588
 2626SOL    HW210502   2.984   3.893   4.203  0.3156 -0.7285 -1.3138
 2626SOL    HW310503   2.925   3.760   4.246  1.4057 -1.1231 -0.9972
 2626SOL    MW410504   2.926   3.829   4.193 -0.2163 -0.4332 -0.1880
 2627SOL     OW10505   2.691   3.962   4.257 -0.0801 -0.0634  0.2579
 2627SOL    HW210506   2.712   4.055   4.245 -0.0944  0.0249  0.8918
 2627SOL    HW310507   2.768   3.916   4.225  0.6373  0.2224  1.5200
 2627SOL    MW410508   2.704   3.968   4.251  0.0126 -0.0141  0.5081
 2628SOL     OW10509   2.702   4.264   4.240  0.4166  0.3622 -0.1929
 2628SOL    HW210510   2.777   4.322   4.255  0.1881  0.2400  1.4794
 2628SOL    HW310511   2.696   4.257   4.144  0.3513  3.2106 -0.4416
 2628SOL    MW410512   2.711   4.270   4.229  0.3778  0.7219 -0.0051
 2629SOL     OW10513   2.936   4.413   4.256 -0.1849  0.1894 -0.0403
 2629SOL    HW210514   2.946   4.438   4.348  0.8584  1.3980 -0.4535
 2629SOL    HW310515   3.014   4.361   4.236  1.5454  3.0636 -1.1983
 2629SOL    MW410516   2.948   4.410   4.265  0.1811  0.7281 -0.2476
 2630SOL     OW10517   3.400   4.661   4.242 -0.0090  0.4442  0.3664
 2630SOL    HW210518   3.479   4.682   4.291 -0.7284 -0.2389  1.8647
 2630SOL    HW310519   3.384   4.568   4.262 -0.6585  0.3199 -0.6897
 2630SOL    MW410520   3.408   4.651   4.251 -0.1896  0.3377  0.4247
 2631SOL     OW10521   3.137   0.136   4.259  0.2220  0.3571 -0.0471
 2631SOL    HW210522   3.109   0.121   4.349  1.3384  2.7585  0.7410
 2631SOL    HW310523   3.213   0.079   4.248 -1.4780 -1.9043 -0.3491
 2631SOL    MW410524   3.143   0.126   4.270  0.1450  0.3756  0.0170
 2632SOL     OW10525   3.155   0.410   4.183  0.5133 -0.1473  0.1440
 2632SOL    HW210526   3.138   0.319   4.208  0.6478 -0.0603  0.5488
 2632SOL    HW310527   3.078   0.458   4.214  0.2473 -0.1861 -0.4415
 2632SOL    MW410528   3.142   0.404   4.190  0.4959 -0.1410  0.1202
 2633SOL     OW10529   3.405   0.510   4.282  1.0345  0.2653  0.0625
 2633SOL    HW210530   3.467   0.445   4.250  0.6599 -0.3297  0.5477
 2633SOL    HW310531   3.322   0.487   4.240  0.3805 -0.9222  1.9406
 2633SOL    MW410532   3.402   0.499   4.272  0.8988  0.0301  0.3743
 2634SOL     OW10533   3.397   0.767   4.138 -0.3049 -0.3117  0.1950
 2634SOL    HW210534   3.319   0.811   4.170 -0.6094 -1.8124  1.5153
 2634SOL    HW310535   3.411   0.694   4.197  0.7314 -1.4795 -1.4311
 2634SOL    MW410536   3.389   0.763   4.150 -0.2083 -0.6638  0.1547
 2635SOL     OW10537   3.186   0.943   4.252 -0.0159 -0.2853 -0.2599
 2635SOL    HW210538   3.218   0.931   4.341 -1.1309  1.7413  0.4467
 2635SOL    HW310539   3.186   1.038   4.239  0.3582 -0.5662 -2.5102
 2635SOL    MW410540   3.190   0.954   4.262 -0.1136 -0.0550 -0.4636
 2636SOL     OW10541   3.181   1.215   4.182  0.2115  0.1980 -0.6492
 2636SOL    HW210542   3.251   1.280   4.187  0.0441  0.3249  0.1423
 2636SOL    HW310543   3.168   1.200   4.088 -1.3773  3.1047 -0.9502
 2636SOL    MW410544   3.188   1.222   4.170 -0.0202  0.5982 -0.5845
 2637SOL     OW10545   3.460   1.249   4.343 -0.0458  0.0966 -0.3852
 2637SOL    HW210546   3.517   1.268   4.418 -0.8034  0.2286  0.1650
 2637SOL    HW310547   3.432   1.335   4.312  1.5229  0.1232 -1.8279
 2637SOL    MW410548   3.464   1.263   4.349  0.0612  0.1175 -0.5029
 2638SOL     OW10549   3.371   1.494   4.219  0.1812  0.2768 -0.0740
 2638SOL    HW210550   3.293   1.538   4.252  0.3488  0.9744 -0.6038
 2638SOL    HW310551   3.369   1.507   4.125  0.9560  0.3369 -0.0901
 2638SOL    MW410552   3.360   1.501   4.211  0.3055  0.3768 -0.1461
 2639SOL     OW10553   3.129   1.657   4.277  0.4687  0.3754  0.1013
 2639SOL    HW210554   3.110   1.670   4.369 -0.0980 -2.0263  0.3691
 2639SOL    HW310555   3.158   1.743   4.245 -0.6187  1.5312  2.1734
 2639SOL    MW410556   3.131   1.670   4.285  0.2505  0.2110  0.4101
 2640SOL     OW10557   3.149   1.929   4.222 -0.5971  0.2188 -0.2788
 2640SOL    HW210558   3.217   1.968   4.278  0.0690 -0.1900 -0.7907
 2640SOL    HW310559   3.072   1.983   4.236  0.2334  1.5292 -0.7418
 2640SOL    MW410560   3.148   1.941   4.231 -0.3996  0.3378 -0.4074
 2641SOL     OW10561   3.334   2.057   4.362  0.0498 -0.2162  0.2015
 2641SOL    HW210562   3.415   2.017   4.332  0.8260 -0.1260  2.0921
 2641SOL    HW310563   3.335   2.145   4.325  0.9260 -0.1473  0.3866
 2641SOL    MW410564   3.345   2.063   4.353  0.2678 -0.1952  0.4754
 2642SOL     OW10565   3.337   2.298   4.184  0.2631 -0.2550 -0.2201
 2642SOL    HW210566   3.417   2.343   4.212 -0.3021  0.7831 -0.2212
 2642SOL    HW310567   3.330   2.319   4.091  0.2847 -0.7962 -0.3419
 2642SOL    MW410568   3.347   2.307   4.175  0.1914 -0.1895 -0.2363
 2643SOL     OW10569   3.115   2.412   4.311 -0.1800 -0.6100 -0.2654
 2643SOL    HW210570   3.131   2.499   4.275  1.1847 -0.3834  0.8479
 2643SOL    HW310571   3.191   2.360   4.283 -0.4874 -1.1689 -0.0613
 2643SOL    MW410572   3.127   2.416   4.302 -0.0405 -0.6538 -0.0916
 2644SOL     OW10573   3.119   2.655   4.171  0.0280 -0.1986 -0.0881
 2644SOL    HW210574   3.204   2.698   4.183  0.0043  0.2934 -1.5419
 2644SOL    HW310575   3.056   2.718   4.206  0.2519 -0.4804  0.8178
 2644SOL    MW410576   3.122   2.669   4.177  0.0544 -0.1709 -0.1604
 2645SOL     OW10577   3.347   2.817   4.225  0.0012 -0.1870 -0.5130
 2645SOL    HW210578   3.427   2.772   4.198  0.4232 -0.4776  1.1571
 2645SOL    HW310579   3.364   2.910   4.207  0.7418 -0.2404 -0.0629
 2645SOL    MW410580   3.360   2.824   4.219  0.1545 -0.2324 -0.2332
 2646SOL     OW10581   3.406   3.086   4.145 -0.5428 -0.1430  0.2062
 2646SOL    HW210582   3.324   3.128   4.172 -0.7337 -0.7124  0.5286
 2646SOL    HW310583   3.391   3.058   4.055 -0.3271  0.6987 -0.0940
 2646SOL    MW410584   3.393   3.088   4.137 -0.5395 -0.1071  0.2091
 2647SOL     OW10585   3.163   3.174   4.233 -0.3642  0.0627 -0.1044
 2647SOL    HW210586   3.152   3.269   4.241 -0.3157  0.2162 -1.7877
 2647SOL    HW310587   3.076   3.142   4.211 -0.3402 -0.2747  0.2768
 2647SOL    MW410588   3.150   3.182   4.231 -0.3546  0.0385 -0.2762
 2648SOL     OW10589   3.128   3.446   4.248 -0.1425  0.5365 -0.0497
 2648SOL    HW210590   3.048   3.486   4.283 -0.4981 -1.1793  1.1393
 2648SOL    HW310591   3.118   3.454   4.153 -0.2442  3.1544  0.1444
 2648SOL    MW410592   3.116   3.453   4.240 -0.2028  0.6555  0.1328
 2649SOL     OW10593   3.373   3.572   4.290 -0.3127 -0.0189 -0.8305
 2649SOL    HW210594   3.382   3.570   4.386 -2.1297  0.6005 -0.6158
 2649SOL    HW310595   3.294   3.520   4.273 -0.7054  0.9234 -1.8983
 2649SOL    MW410596   3.364   3.565   4.301 -0.6043  0.1872 -0.9430
 2650SOL     OW10597   3.346   3.826   4.171 -0.1429  0.4458 -0.0227
 2650SOL    HW210598   3.341   3.733   4.196 -2.5928  0.7325  0.7529
 2650SOL    HW310599   3.339   3.825   4.075  1.3948 -0.2524 -0.1301
 2650SOL    MW410600   3.344   3.813   4.161 -0.2633  0.3915  0.0655
 2651SOL     OW10601   3.111   3.970   4.293 -0.5757  0.1596  0.2180
 2651SOL    HW210602   3.092   3.930   4.378 -0.4619 -0.7557 -0.1833
 2651SOL    HW310603   3.193   3.929   4.265 -0.4604  0.6721 -0.2130
 2651SOL    MW410604   3.120   3.960   4.300 -0.5455  0.1064  0.1082
 2652SOL     OW10605   3.146   4.243   4.203 -0.2596  0.1635 -0.0273
 2652SOL    HW210606   3.218   4.282   4.253 -0.3646 -0.1299  0.3583
 2652SOL    HW310607   3.128   4.160   4.248 -1.1554  0.4553  0.1711
 2652SOL    MW410608   3.153   4.237   4.216 -0.3916  0.1633  0.0497
 2653SOL     OW10609   3.370   4.392   4.308 -0.1023  0.2650  0.2455
 2653SOL    HW210610   3.377   4.375   4.402 -0.6631 -1.2980  0.0167
 2653SOL    HW310611   3.431   4.330   4.268  0.3013  1.0776 -0.4130
 2653SOL    MW410612   3.379   4.381   4.315 -0.1230  0.1660  0.1285
 2654SOL     OW10613   3.811   4.620   4.181  0.3528  0.2497 -0.3314
 2654SOL    HW210614   3.881   4.649   4.240 -0.7719  1.3046  0.5083
 2654SOL    HW310615   3.847   4.634   4.093  1.3508  0.3823  0.0851
 2654SOL    MW410616   3.825   4.626   4.177  0.3361  0.4064 -0.1657
 2655SOL     OW10617   3.640   0.084   4.348  0.0507  0.0257 -0.2966
 2655SOL    HW210618   3.613   0.173   4.323 -0.3366  0.4318  1.4814
 2655SOL    HW310619   3.690   0.053   4.274 -1.4062  1.0305 -1.7546
 2655SOL    MW410620   3.643   0.092   4.335 -0.1926  0.2118 -0.2544
 2656SOL     OW10621   3.593   0.328   4.224 -0.0187  0.0805  0.0524
 2656SOL    HW210622   3.665   0.381   4.259  0.0665  0.1396 -0.2047
 2656SOL    HW310623   3.601   0.339   4.129 -0.7672  0.6134  0.0476
 2656SOL    MW410624   3.604   0.337   4.216 -0.1062  0.1586  0.0178
 2657SOL     OW10625   3.823   0.476   4.320  0.1415  0.4018 -0.4381
 2657SOL    HW210626   3.834   0.453   4.413  0.7008  1.7998 -0.1465
 2657SOL    HW310627   3.861   0.564   4.313 -1.6045  1.0827 -1.5907
 2657SOL    MW410628   3.830   0.485   4.332 -0.0150  0.6761 -0.5517
 2658SOL     OW10629   3.878   0.761   4.230  0.4167  0.0110 -0.0743
 2658SOL    HW210630   3.796   0.804   4.254  1.2913  0.8864  1.4011
 2658SOL    HW310631   3.864   0.734   4.139 -0.6063  2.3585 -0.6695
 2658SOL    MW410632   3.865   0.763   4.221  0.3971  0.4362  0.0419
 2659SOL     OW10633   3.624   0.908   4.272 -0.4126 -0.3405  0.5147
 2659SOL    HW210634   3.629   0.993   4.230 -0.3190 -0.4326  0.3413
 2659SOL    HW310635   3.556   0.861   4.224 -1.6117  0.2061  1.6205
 2659SOL    MW410636   3.616   0.913   4.260 -0.5584 -0.2805  0.6377
 2660SOL     OW10637   3.651   1.170   4.167 -0.2973  0.0060  0.2404
 2660SOL    HW210638   3.566   1.209   4.190 -0.0983 -0.1593  1.3019
 2660SOL    HW310639   3.649   1.161   4.072 -1.9493 -1.0901  0.3671
 2660SOL    MW410640   3.640   1.174   4.158 -0.4890 -0.1604  0.3972
 2661SOL     OW10641   3.811   1.312   4.343 -0.4719 -0.2601 -0.4809
 2661SOL    HW210642   3.764   1.266   4.274  1.1669 -0.5832 -1.4178
 2661SOL    HW310643   3.837   1.396   4.303  1.3468 -0.8640 -0.6307
 2661SOL    MW410644   3.808   1.317   4.329 -0.0157 -0.3824 -0.6243
 2662SOL     OW10645   3.826   1.550   4.177 -0.1601  0.3190  0.5310
 2662SOL    HW210646   3.895   1.609   4.207 -0.1332  0.2648  0.5754
 2662SOL    HW310647   3.745   1.593   4.203 -0.1455  0.4191  0.4128
 2662SOL    MW410648   3.824   1.563   4.184 -0.1547  0.3251  0.5212
 2663SOL     OW10649   3.589   1.658   4.252  0.0041  0.2685 -0.5225
 2663SOL    HW210650   3.521   1.599   4.219 -0.4233  0.6972 -0.4129
 2663SOL    HW310651   3.591   1.641   4.346  1.8828 -1.6398 -0.8685
 2663SOL    MW410652   3.580   1.648   4.260  0.1956  0.0733 -0.5537
 2664SOL     OW10653   3.559   1.930   4.229  0.2588  0.0624 -0.7328
 2664SOL    HW210654   3.551   1.835   4.237  0.3437  0.1073 -0.0617
 2664SOL    HW310655   3.540   1.948   4.137 -0.3298 -0.5464 -0.7360
 2664SOL    MW410656   3.556   1.919   4.218  0.1924 -0.0120 -0.6447
 2665SOL     OW10657   3.818   2.020   4.284  0.3513 -0.1570 -0.3906
 2665SOL    HW210658   3.843   1.999   4.374  2.7890  0.6058 -0.8527
 2665SOL    HW310659   3.728   1.987   4.276  0.0373 -0.1045  2.3452
 2665SOL    MW410660   3.810   2.013   4.295  0.6315 -0.0494 -0.0906
 2666SOL     OW10661   3.790   2.287   4.189  0.0462  0.1626 -0.8380
 2666SOL    HW210662   3.802   2.199   4.225  0.2494  0.4690 -0.1402
 2666SOL    HW310663   3.814   2.279   4.097 -0.0275 -0.5326 -0.7994
 2666SOL    MW410664   3.795   2.275   4.182  0.0633  0.1113 -0.7409
 2667SOL     OW10665   3.552   2.453   4.259  0.1204 -0.3860  0.7439
 2667SOL    HW210666   3.541   2.429   4.351 -1.6645 -0.8438  0.4272
 2667SOL    HW310667   3.624   2.397   4.228  0.3988 -0.5803  1.7309
 2667SOL    MW410668   3.560   2.442   4.267 -0.0783 -0.4721  0.8324
 2668SOL     OW10669   3.602   2.708   4.145 -0.4086  0.1239 -0.0211
 2668SOL    HW210670   3.594   2.617   4.172  0.1852  0.5214  1.5281
 2668SOL    HW310671   3.588   2.706   4.050  1.0449 -1.7727 -0.2306
 2668SOL    MW410672   3.599   2.696   4.136 -0.1385 -0.0739  0.1556
 2669SOL     OW10673   3.826   2.866   4.225  0.3709  0.0086  0.2567
 2669SOL    HW210674   3.792   2.884   4.313 -1.2982  0.5938 -0.4927
 2669SOL    HW310675   3.759   2.812   4.184  1.4633 -0.8339 -0.4397
 2669SOL    MW410676   3.813   2.861   4.232  0.2948 -0.0253  0.0660
 2670SOL     OW10677   3.879   3.123   4.137  0.6110  0.4639  0.3135
 2670SOL    HW210678   3.880   3.030   4.157 -1.4531  0.5495  0.8428
 2670SOL    HW310679   3.873   3.127   4.042  0.6295  0.0708  0.2967
 2670SOL    MW410680   3.879   3.111   4.127  0.3411  0.4233  0.3811
 2671SOL     OW10681   3.640   3.230   4.248  0.1817  0.0985  0.2772
 2671SOL    HW210682   3.722   3.183   4.231  0.4669  0.1090  1.5916
 2671SOL    HW310683   3.572   3.171   4.214  0.7061 -0.0386 -0.5549
 2671SOL    MW410684   3.641   3.216   4.241  0.2885  0.0818  0.3408
 2672SOL     OW10685   3.623   3.489   4.196  0.1520 -0.4257  0.3876
 2672SOL    HW210686   3.623   3.396   4.218 -0.7416 -0.6180 -0.4169
 2672SOL    HW310687   3.539   3.522   4.228  0.9603  0.3766  1.7591
 2672SOL    MW410688   3.612   3.481   4.203  0.1407 -0.3452  0.4624
 2673SOL     OW10689   3.844   3.600   4.331 -0.0680 -0.0135  0.3801
 2673SOL    HW210690   3.932   3.584   4.298 -0.0205 -0.7952  0.8867
 2673SOL    HW310691   3.787   3.546   4.277 -0.1740  0.0327  0.4441
 2673SOL    MW410692   3.848   3.591   4.320 -0.0757 -0.1106  0.4554
 2674SOL     OW10693   3.804   3.846   4.225  0.0179 -0.1092 -0.5012
 2674SOL    HW210694   3.724   3.891   4.253 -0.4462 -1.2253  0.0078
 2674SOL    HW310695   3.806   3.766   4.278 -0.0542 -1.5201 -2.5660
 2674SOL    MW410696   3.793   3.842   4.236 -0.0529 -0.4426 -0.7064
 2675SOL     OW10697   3.559   3.974   4.288  0.0967  0.2225 -0.0226
 2675SOL    HW210698   3.518   4.010   4.367 -0.8164 -0.2824 -0.2589
 2675SOL    HW310699   3.489   3.923   4.246  1.1602 -1.2051 -0.0831
 2675SOL    MW410700   3.544   3.972   4.293  0.1165 -0.0325 -0.0618
 2676SOL     OW10701   3.539   4.223   4.128  0.2315 -0.9422 -0.5491
 2676SOL    HW210702   3.612   4.274   4.161  0.5297 -2.1245  0.6546
 2676SOL    HW310703   3.550   4.136   4.167 -1.2447 -1.4261 -1.1553
 2676SOL    MW410704   3.550   4.218   4.137  0.0761 -1.1621 -0.4702
 2677SOL     OW10705   3.773   4.360   4.268 -0.2390 -0.4188 -0.0799
 2677SOL    HW210706   3.857   4.316   4.255 -1.0046 -1.5307 -1.3310
 2677SOL    HW310707   3.784   4.445   4.225  0.0376 -0.7992 -0.7630
 2677SOL    MW410708   3.786   4.365   4.261 -0.3035 -0.6157 -0.3351
 2678SOL     OW10709   4.233   4.585   4.231  0.6964 -0.0478 -0.4476
 2678SOL    HW210710   4.229   4.490   4.242 -1.3684  0.1516  0.7570
 2678SOL    HW310711   4.314   4.611   4.276  1.4001 -1.2443 -0.9902
 2678SOL    MW410712   4.243   4.575   4.238  0.5168 -0.1794 -0.3602
 2679SOL     OW10713   4.017   0.063   4.322 -0.3231 -0.1096 -0.0908
 2679SOL    HW210714   4.009   0.154   4.291 -0.3415 -0.2212 -0.4112
 2679SOL    HW310715   4.098   0.032   4.282 -0.1488 -0.1328  0.2780
 2679SOL    MW410716   4.026   0.071   4.313 -0.3025 -0.1274 -0.0844
 2680SOL     OW10717   4.037   0.308   4.207  0.7296  0.2610  0.0038
 2680SOL    HW210718   4.116   0.350   4.242  0.5744  0.9408 -0.4513
 2680SOL    HW310719   3.965   0.358   4.245  0.5337  0.0574 -0.1047
 2680SOL    MW410720   4.038   0.320   4.216  0.6833  0.3238 -0.0705
 2681SOL     OW10721   4.253   0.449   4.309 -0.3901 -0.1771  0.3472
 2681SOL    HW210722   4.276   0.532   4.266  0.4432 -0.4410  0.2590
 2681SOL    HW310723   4.330   0.394   4.296 -1.5353 -1.5102 -0.9427
 2681SOL    MW410724   4.267   0.453   4.302 -0.4313 -0.3878  0.1653
 2682SOL     OW10725   4.296   0.741   4.233  0.1935  0.1322 -0.2321
 2682SOL    HW210726   4.233   0.800   4.276 -1.2601 -1.5937  0.0387
 2682SOL    HW310727   4.290   0.763   4.140  0.7928  1.4508  0.0183
 2682SOL    MW410728   4.287   0.752   4.227  0.0808  0.0785 -0.1634
 2683SOL     OW10729   4.085   0.907   4.327  0.0562  0.2163  0.0450
 2683SOL    HW210730   4.057   0.997   4.310 -2.9103 -0.4529  1.0697
 2683SOL    HW310731   4.018   0.853   4.284  0.7339 -1.4983  1.1030
 2683SOL    MW410732   4.073   0.912   4.319 -0.2457 -0.0982  0.3198
 2684SOL     OW10733   4.035   1.168   4.259  0.3476  0.0666 -0.2712
 2684SOL    HW210734   4.106   1.227   4.282  0.5246 -0.2879  0.1147
 2684SOL    HW310735   3.956   1.210   4.293  0.5493 -0.2175  0.5747
 2684SOL    MW410736   4.034   1.181   4.267  0.3976 -0.0176 -0.1087
 2685SOL     OW10737   4.266   1.299   4.343 -0.6026 -0.2957  0.2170
 2685SOL    HW210738   4.249   1.320   4.435 -0.4155  0.1445  0.1516
 2685SOL    HW310739   4.344   1.243   4.345 -0.5800 -0.2602  0.3216
 2685SOL    MW410740   4.274   1.294   4.355 -0.5749 -0.2329  0.2222
 2686SOL     OW10741   4.228   1.515   4.179 -0.0129 -0.3190 -0.6464
 2686SOL    HW210742   4.238   1.440   4.238  0.8502 -0.6745 -1.2244
 2686SOL    HW310743   4.241   1.478   4.091 -1.0135  0.2510 -1.0445
 2686SOL    MW410744   4.231   1.500   4.175 -0.0310 -0.2907 -0.7752
 2687SOL     OW10745   4.061   1.700   4.264 -0.1376  0.1668  0.4543
 2687SOL    HW210746   4.053   1.693   4.359 -0.7672 -2.2127  0.2514
 2687SOL    HW310747   4.110   1.622   4.238 -0.0436  0.7527 -1.1878
 2687SOL    MW410748   4.066   1.689   4.273 -0.2083 -0.0699  0.2108
 2688SOL     OW10749   4.038   1.933   4.131  0.0198  0.0942  0.3146
 2688SOL    HW210750   4.058   1.843   4.154 -0.4023  0.0249  0.4069
 2688SOL    HW310751   3.949   1.948   4.164 -0.1210  0.3723 -0.1837
 2688SOL    MW410752   4.029   1.923   4.138 -0.0545  0.1218  0.2610
 2689SOL     OW10753   4.454   1.912   4.212 -0.1062  0.1377 -0.4113
 2689SOL    HW210754   4.528   1.963   4.244  0.0207  0.0954 -0.6377
 2689SOL    HW310755   4.377   1.963   4.236  0.0188  0.4140 -0.6055
 2689SOL    MW410756   4.454   1.925   4.219 -0.0730  0.1685 -0.4668
 2690SOL     OW10757   4.236   2.344   4.239  0.4279  0.3333  0.1530
 2690SOL    HW210758   4.152   2.381   4.267 -0.5060 -1.3924 -0.2869
 2690SOL    HW310759   4.233   2.253   4.269  1.7351 -0.0068 -0.7103
 2690SOL    MW410760   4.224   2.337   4.246  0.4772  0.0607 -0.0189
 2691SOL     OW10761   3.988   2.462   4.293  0.4128  0.3133 -0.3552
 2691SOL    HW210762   3.977   2.446   4.387  0.0530  0.6232 -0.3422
 2691SOL    HW310763   3.933   2.397   4.251  0.4297  0.2944 -0.3486
 2691SOL    MW410764   3.979   2.451   4.300  0.3675  0.3517 -0.3526
 2692SOL     OW10765   4.060   2.715   4.185 -0.1682  0.4925  0.0395
 2692SOL    HW210766   4.025   2.630   4.211  0.8455  0.3040  0.7993
 2692SOL    HW310767   3.990   2.777   4.205 -1.6094 -0.3771 -2.2063
 2692SOL    MW410768   4.046   2.712   4.191 -0.2246  0.3529 -0.1566
 2693SOL     OW10769   4.304   2.780   4.294 -0.1304  0.2205 -0.1037
 2693SOL    HW210770   4.222   2.739   4.266 -0.4499 -0.4155  1.7388
 2693SOL    HW310771   4.370   2.740   4.238 -0.7289 -1.1826  0.1701
 2693SOL    MW410772   4.302   2.770   4.283 -0.2515 -0.0485  0.1755
 2694SOL     OW10773   4.274   3.056   4.245 -0.2383 -0.0922  0.1071
 2694SOL    HW210774   4.285   2.963   4.262  1.3433 -0.2721 -1.6868
 2694SOL    HW310775   4.269   3.063   4.150 -0.8671  1.6061  0.2366
 2694SOL    MW410776   4.275   3.045   4.235 -0.1126  0.1081 -0.1125
 2695SOL     OW10777   4.074   3.234   4.288 -0.5180  0.1870  0.1687
 2695SOL    HW210778   4.150   3.178   4.271 -0.6038  0.6710 -1.9629
 2695SOL    HW310779   4.002   3.191   4.241 -1.4119  0.1511  1.5282
 2695SOL    MW410780   4.075   3.221   4.280 -0.6473  0.2461  0.0668
 2696SOL     OW10781   4.062   3.486   4.182  0.0544  0.1773 -0.1783
 2696SOL    HW210782   4.084   3.398   4.211 -0.5264  0.2981  0.6692
 2696SOL    HW310783   4.066   3.482   4.087  2.6466 -0.0632 -0.0885
 2696SOL    MW410784   4.065   3.474   4.174  0.3198  0.1615 -0.0546
 2697SOL     OW10785   4.289   3.613   4.317  0.5268  0.3032  0.1499
 2697SOL    HW210786   4.283   3.707   4.304  1.3705  0.3356 -0.0412
 2697SOL    HW310787   4.211   3.578   4.273  1.5922  0.6932 -2.1242
 2697SOL    MW410788   4.278   3.621   4.309  0.7787  0.3589 -0.1754
 2698SOL     OW10789   4.279   3.869   4.213  0.0781  0.1358  0.1186
 2698SOL    HW210790   4.192   3.891   4.246  0.4728  0.4702  0.9451
 2698SOL    HW310791   4.271   3.879   4.118 -0.6903  0.5130  0.2133
 2698SOL    MW410792   4.266   3.874   4.205  0.0288  0.2297  0.2402
 2699SOL     OW10793   4.033   3.948   4.330 -0.0583 -0.2163  0.2946
 2699SOL    HW210794   4.034   3.916   4.420  0.7819 -1.4888 -0.1447
 2699SOL    HW310795   3.955   3.908   4.291 -0.7440  0.7974  0.6068
 2699SOL    MW410796   4.023   3.939   4.337 -0.0379 -0.2504  0.2779
 2700SOL     OW10797   4.000   4.203   4.184  0.2459 -1.0312 -0.0089
 2700SOL    HW210798   4.075   4.245   4.227 -1.2698  0.3387  1.3544
 2700SOL    HW310799   3.985   4.123   4.234  0.5283 -1.1059 -0.0395
 2700SOL    MW410800   4.008   4.198   4.196  0.0832 -0.8603  0.1669
 2701SOL     OW10801   4.254   4.582   4.704  0.6158 -0.0374 -0.2745
 2701SOL    HW210802   4.248   4.599   4.798 -1.9193 -0.7827 -0.2625
 2701SOL    HW310803   4.172   4.617   4.669  0.7510 -1.3619 -1.9579
 2701SOL    MW410804   4.243   4.589   4.712  0.2992 -0.3104 -0.4950
 2702SOL     OW10805   0.010   0.043   4.583  0.2988 -0.0611  0.7284
 2702SOL    HW210806   0.005   0.135   4.607 -1.1355 -0.1599  0.8309
 2702SOL    HW310807  -0.067   0.003   4.622  0.2595 -1.0704 -0.3421
 2702SOL    MW410808  -0.001   0.050   4.591  0.1044 -0.2073  0.6007
 2703SOL     OW10809   4.277   4.328   4.589  0.2568  0.0909 -0.2062
 2703SOL    HW210810   4.234   4.256   4.634 -0.2916  0.8062  0.4254
 2703SOL    HW310811   4.254   4.406   4.640  0.1924  0.8205 -1.3266
 2703SOL    MW410812   4.268   4.329   4.601  0.1759  0.2816 -0.2707
 2704SOL     OW10813   4.023   0.026   4.611 -0.2361  0.2392 -0.0735
 2704SOL    HW210814   4.037   0.033   4.516  0.6094  1.7658  0.1420
 2704SOL    HW310815   3.932   0.000   4.620  0.3982 -2.6755 -1.3648
 2704SOL    MW410816   4.013   0.024   4.599 -0.0408  0.0561 -0.2154
 2705SOL     OW10817   4.174   1.155   4.886  0.0305  0.1341  0.3786
 2705SOL    HW210818   4.198   1.069   4.919  0.1874 -0.4407 -1.2165
 2705SOL    HW310819   4.251   1.209   4.904  0.5058 -0.4239  0.0451
 2705SOL    MW410820   4.187   1.151   4.893  0.1140 -0.0154  0.1241
 2706SOL     OW10821   0.261   4.545   4.568 -0.0003  0.2226 -0.0761
 2706SOL    HW210822   0.175   4.587   4.568 -0.6011 -0.9623 -1.7309
 2706SOL    HW310823   0.244   4.454   4.589  0.7216 -0.2162 -1.2902
 2706SOL    MW410824   0.248   4.538   4.570  0.0157  0.0084 -0.4546
 2707SOL     OW10825   0.723   0.636   4.638  0.2165  0.1514 -0.1286
 2707SOL    HW210826   0.627   0.640   4.639  0.2008 -0.2522  0.8156
 2707SOL    HW310827   0.743   0.547   4.609  0.2767 -0.2285  1.0339
 2707SOL    MW410828   0.713   0.624   4.635  0.2224  0.0480  0.1494
 2708SOL     OW10829   4.290   0.725   4.708  0.3575 -0.6052 -0.3730
 2708SOL    HW210830   4.282   0.637   4.670  1.1258 -0.3175 -1.2060
 2708SOL    HW310831   4.361   0.766   4.658  0.5754  0.1879  0.5894
 2708SOL    MW410832   4.298   0.718   4.696  0.4876 -0.4626 -0.3559
 2709SOL     OW10833   0.610   1.329   4.705 -0.3068  0.2054 -0.3706
 2709SOL    HW210834   0.529   1.375   4.724  0.2708  0.8696  0.5516
 2709SOL    HW310835   0.588   1.236   4.713 -1.3057  0.3321 -1.5552
 2709SOL    MW410836   0.597   1.323   4.709 -0.3624  0.3098 -0.4053
 2710SOL     OW10837   0.650   2.070   4.562 -0.0074 -0.3603 -0.0288
 2710SOL    HW210838   0.708   2.005   4.602 -1.4862 -0.9196  1.2749
 2710SOL    HW310839   0.562   2.036   4.577 -0.7812  1.5980  0.0610
 2710SOL    MW410840   0.646   2.057   4.570 -0.3046 -0.1757  0.1551
 2711SOL     OW10841   4.452   1.299   4.720 -0.0512 -0.0823 -0.6965
 2711SOL    HW210842   4.437   1.330   4.809  1.1623 -1.0190 -0.1470
 2711SOL    HW310843   4.473   1.206   4.730 -0.0961 -0.2471 -1.9833
 2711SOL    MW410844   4.453   1.291   4.733  0.1030 -0.2277 -0.7938
 2712SOL     OW10845   0.091   1.943   4.574  0.5184 -0.6035  0.0349
 2712SOL    HW210846   0.054   1.855   4.562 -0.7006 -0.3016  1.4256
 2712SOL    HW310847   0.028   1.988   4.629  1.2929  1.0688 -0.4175
 2712SOL    MW410848   0.078   1.937   4.580  0.4598 -0.3430  0.1587
 2713SOL     OW10849   0.475   1.683   4.608  0.2989 -0.4381  0.2253
 2713SOL    HW210850   0.447   1.603   4.654  0.1376 -0.4617  0.0859
 2713SOL    HW310851   0.445   1.671   4.518  1.0260 -0.5950 -0.0003
 2713SOL    MW410852   0.467   1.671   4.602  0.3735 -0.4619  0.1771
 2714SOL     OW10853   4.418   2.142   4.692 -0.2005  0.1878 -0.2610
 2714SOL    HW210854   4.452   2.141   4.781 -0.7897 -1.9718 -0.0351
 2714SOL    HW310855   4.460   2.218   4.651 -0.5024  1.6539  2.0636
 2714SOL    MW410856   4.428   2.152   4.698 -0.3180  0.0963  0.0755
 2715SOL     OW10857   4.163   2.521   4.664  0.3115  0.0195 -0.3636
 2715SOL    HW210858   4.201   2.592   4.611  0.4810  1.0397  1.0880
 2715SOL    HW310859   4.163   2.555   4.753 -0.7647 -1.3444  0.1823
 2715SOL    MW410860   4.168   2.535   4.669  0.1919 -0.0258 -0.1001
 2716SOL     OW10861   0.347   2.758   4.562 -0.1753  0.5786  0.1147
 2716SOL    HW210862   0.299   2.789   4.485  1.8056  1.0506 -0.9619
 2716SOL    HW310863   0.400   2.685   4.531 -0.6246 -0.3395  1.4267
 2716SOL    MW410864   0.348   2.753   4.548  0.0268  0.5197  0.1457
 2717SOL     OW10865   0.345   2.973   4.735  0.1434  0.3106 -0.1998
 2717SOL    HW210866   0.386   2.938   4.815 -0.3347  0.2146  0.0063
 2717SOL    HW310867   0.339   2.897   4.677 -0.7478  0.0684  0.1874
 2717SOL    MW410868   0.350   2.958   4.738 -0.0373  0.2660 -0.1215
 2718SOL     OW10869   4.482   2.399   4.602 -0.2135  0.3282 -0.1382
 2718SOL    HW210870   4.475   2.426   4.510 -0.1697  0.8258  0.0033
 2718SOL    HW310871   4.557   2.448   4.636  0.3853 -0.6014 -0.0950
 2718SOL    MW410872   4.491   2.409   4.594 -0.1287  0.2712 -0.1138
 2719SOL     OW10873   4.329   3.380   4.705 -0.9335  0.7449  0.3171
 2719SOL    HW210874   4.411   3.344   4.671 -1.0819  1.2397 -0.5608
 2719SOL    HW310875   4.261   3.321   4.673 -1.0666  1.1708 -0.1865
 2719SOL    MW410876   4.331   3.368   4.696 -0.9706  0.8664  0.1348
 2720SOL     OW10877   0.099   3.295   4.612 -0.0398  0.7211 -0.1632
 2720SOL    HW210878   0.078   3.266   4.523  1.3144  0.7741 -0.5124
 2720SOL    HW310879   0.140   3.381   4.600  2.4139 -0.3499  0.2963
 2720SOL    MW410880   0.102   3.303   4.599  0.4626  0.5868 -0.1487
 2721SOL     OW10881   4.269   3.785   4.714  0.7521 -0.3260 -0.3313
 2721SOL    HW210882   4.190   3.819   4.673  0.5561 -0.4695 -0.0704
 2721SOL    HW310883   4.310   3.731   4.646  0.0554 -1.1422 -0.0959
 2721SOL    MW410884   4.264   3.783   4.699  0.6343 -0.4526 -0.2658
 2722SOL     OW10885   4.272   4.624   4.966 -0.2980 -0.2251 -0.3447
 2722SOL    HW210886   4.325   4.701   4.981 -1.3442  0.6044 -0.7996
 2722SOL    HW310887   4.317   4.553   5.012  0.7249  0.6305 -0.0268
 2722SOL    MW410888   4.285   4.625   4.974 -0.3011 -0.0028 -0.3628
 2723SOL     OW10889   3.830   0.455   4.590  0.0868 -0.5878 -0.4470
 2723SOL    HW210890   3.750   0.418   4.628 -0.2976  0.9710  0.3171
 2723SOL    HW310891   3.817   0.550   4.594  1.5082 -0.3300 -1.3528
 2723SOL    MW410892   3.818   0.463   4.595  0.2236 -0.3481 -0.4657
 2724SOL     OW10893   3.946   3.646   4.955 -0.4721 -0.3630  0.2241
 2724SOL    HW210894   4.030   3.601   4.944 -0.0177  0.5262  0.0108
 2724SOL    HW310895   3.917   3.620   5.042  0.7195  0.4317  0.8821
 2724SOL    MW410896   3.953   3.637   4.965 -0.2549 -0.1408  0.2828
 2725SOL     OW10897   3.829   4.202   4.717  0.0393 -0.6598 -0.1554
 2725SOL    HW210898   3.783   4.257   4.653  0.5665 -0.6420 -0.5260
 2725SOL    HW310899   3.767   4.132   4.737 -0.3503 -0.3431 -0.2520
 2725SOL    MW410900   3.815   4.200   4.711  0.0574 -0.6157 -0.2171
 2726SOL     OW10901   0.473   4.639   4.701 -0.4452  0.0796 -0.0795
 2726SOL    HW210902   0.398   4.613   4.648  0.1730 -1.1716 -0.3552
 2726SOL    HW310903   0.434   4.680   4.779 -1.3520  1.5922 -1.3152
 2726SOL    MW410904   0.458   4.641   4.704 -0.4833  0.1141 -0.2789
 2727SOL     OW10905   4.270   0.888   4.937 -0.2224  0.2781  0.1248
 2727SOL    HW210906   4.246   0.820   4.875 -0.0365  0.6641 -0.3714
 2727SOL    HW310907   4.346   0.854   4.983 -0.9247 -0.4047  0.7976
 2727SOL    MW410908   4.277   0.875   4.935 -0.2906  0.2390  0.1481
 2728SOL     OW10909   1.041   1.134   4.808 -0.2643  0.0172  0.3940
 2728SOL    HW210910   1.118   1.131   4.865 -0.9551 -0.5176  1.3080
 2728SOL    HW310911   1.008   1.044   4.808 -1.1725  0.3505  0.3958
 2728SOL    MW410912   1.047   1.122   4.815 -0.4753 -0.0094  0.5149
 2729SOL     OW10913   0.638   0.123   4.544 -0.1961  0.6585  0.0791
 2729SOL    HW210914   0.725   0.084   4.556  0.3702  1.4641 -1.2070
 2729SOL    HW310915   0.581   0.076   4.604  0.9209 -0.6208  0.1498
 2729SOL    MW410916   0.642   0.112   4.553  0.0259  0.5960 -0.0812
 2730SOL     OW10917   1.059   0.868   4.746  0.0342  0.2801  0.1738
 2730SOL    HW210918   1.145   0.889   4.711 -0.1728 -0.3859 -0.7580
 2730SOL    HW310919   1.020   0.809   4.681 -0.6891 -0.3016  1.1211
 2730SOL    MW410920   1.065   0.863   4.733 -0.0885  0.1155  0.1758
 2731SOL     OW10921   0.058   0.845   4.587  0.0496  0.2066 -0.2279
 2731SOL    HW210922   0.127   0.782   4.608 -0.1355  0.0838 -0.0018
 2731SOL    HW310923   0.062   0.853   4.491  0.3228  0.1381 -0.2230
 2731SOL    MW410924   0.068   0.838   4.577  0.0612  0.1813 -0.1974
 2732SOL     OW10925   2.027   1.183   4.578  0.0757 -0.0297  0.0050
 2732SOL    HW210926   2.038   1.194   4.484 -0.6101 -0.4912 -0.1369
 2732SOL    HW310927   2.115   1.171   4.612  0.3713  0.6909 -0.5099
 2732SOL    MW410928   2.040   1.183   4.570  0.0242  0.0045 -0.0816
 2733SOL     OW10929   0.748   1.673   4.525 -0.1377 -0.2464 -0.1741
 2733SOL    HW210930   0.802   1.740   4.566  0.0927  0.1232 -1.0538
 2733SOL    HW310931   0.662   1.683   4.565  0.0299  0.2384  0.0666
 2733SOL    MW410932   0.744   1.683   4.535 -0.0852 -0.1337 -0.2584
 2734SOL     OW10933   1.372   1.251   4.634  0.4815  0.0642 -0.2245
 2734SOL    HW210934   1.354   1.204   4.715 -1.5402  0.5111 -0.4061
 2734SOL    HW310935   1.290   1.249   4.586  0.6848  2.7751 -0.7573
 2734SOL    MW410936   1.359   1.244   4.638  0.2416  0.4808 -0.3188
 2735SOL     OW10937   0.861   1.894   4.637  0.2848 -0.2455 -0.0202
 2735SOL    HW210938   0.914   1.943   4.574 -0.1510 -1.0335 -1.0016
 2735SOL    HW310939   0.924   1.852   4.695  0.7117 -0.3821 -0.5842
 2735SOL    MW410940   0.876   1.895   4.637  0.2836 -0.3675 -0.2241
 2736SOL     OW10941   0.644   2.351   4.622  0.2949 -0.2098 -0.1059
 2736SOL    HW210942   0.733   2.386   4.615  0.3143 -0.6813 -2.3173
 2736SOL    HW310943   0.651   2.259   4.598 -0.7927 -0.2623 -0.2702
 2736SOL    MW410944   0.656   2.344   4.618  0.1539 -0.2789 -0.4193
 2737SOL     OW10945   1.287   1.765   4.777  0.4348  0.0547 -0.1615
 2737SOL    HW210946   1.194   1.745   4.767  0.3066 -0.0057  1.0924
 2737SOL    HW310947   1.328   1.680   4.794  0.5882  0.2138  0.2516
 2737SOL    MW410948   1.280   1.751   4.778  0.4381  0.0678  0.0585
 2738SOL     OW10949   0.168   2.589   4.737  0.1454  0.1058  0.5639
 2738SOL    HW210950   0.227   2.636   4.679 -0.1117 -0.2820 -0.0277
 2738SOL    HW310951   0.224   2.524   4.781  0.2413  0.0251  0.3247
 2738SOL    MW410952   0.183   2.586   4.735  0.1241  0.0440  0.4543
 2739SOL     OW10953   0.851   2.706   4.660 -0.0526 -0.0239 -0.4444
 2739SOL    HW210954   0.857   2.694   4.755  0.4005 -0.8086 -0.5682
 2739SOL    HW310955   0.930   2.753   4.636  0.9108 -1.7333 -0.7202
 2739SOL    MW410956   0.862   2.710   4.669  0.1343 -0.3530 -0.4971
 2740SOL     OW10957   0.482   2.514   4.478 -0.6203  0.0284 -0.3458
 2740SOL    HW210958   0.547   2.452   4.513 -0.7358  0.5184  0.7623
 2740SOL    HW310959   0.447   2.470   4.400  0.1184 -0.8005 -0.2277
 2740SOL    MW410960   0.486   2.500   4.472 -0.5380 -0.0163 -0.1840
 2741SOL     OW10961   1.286   2.989   4.579 -0.2912  0.1414 -0.1680
 2741SOL    HW210962   1.195   2.959   4.587 -0.3620  0.8514  2.1066
 2741SOL    HW310963   1.337   2.909   4.566 -1.2422 -0.2599 -1.4591
 2741SOL    MW410964   1.281   2.974   4.579 -0.4260  0.1822 -0.0383
 2742SOL     OW10965   0.723   3.315   4.584  0.2788  0.1130 -0.4267
 2742SOL    HW210966   0.754   3.404   4.601 -0.6755  0.6406 -1.4324
 2742SOL    HW310967   0.636   3.312   4.625  0.0774 -0.1898 -0.8780
 2742SOL    MW410968   0.716   3.326   4.592  0.1264  0.1427 -0.6189
 2743SOL     OW10969   1.391   4.468   4.654 -0.2981 -0.1242  0.3551
 2743SOL    HW210970   1.318   4.408   4.645  0.5088 -1.2159  0.9922
 2743SOL    HW310971   1.461   4.429   4.601  0.0918  0.4764  0.4212
 2743SOL    MW410972   1.391   4.455   4.646 -0.1402 -0.1890  0.4479
 2744SOL     OW10973   4.442   2.760   4.781 -0.1056 -0.0182  0.2903
 2744SOL    HW210974   4.505   2.696   4.750 -1.0637  0.0360 -1.8642
 2744SOL    HW310975   4.477   2.845   4.754 -0.2993  0.1445  0.5366
 2744SOL    MW410976   4.455   2.763   4.774 -0.2576  0.0104  0.0385
 2745SOL     OW10977   4.410   3.609   4.564 -0.0710 -0.1861  0.1474
 2745SOL    HW210978   4.380   3.529   4.607  1.0708 -0.9159 -0.3621
 2745SOL    HW310979   4.362   3.612   4.482  0.6518 -0.9378 -0.3177
 2745SOL    MW410980   4.400   3.599   4.559  0.1750 -0.3815  0.0188
 2746SOL     OW10981   0.994   4.101   4.572  0.4325  0.1282  0.0481
 2746SOL    HW210982   0.910   4.143   4.591  1.1453  1.0675  1.1638
 2746SOL    HW310983   0.976   4.046   4.495 -1.0090  0.9096 -0.1943
 2746SOL    MW410984   0.981   4.099   4.564  0.3363  0.3552  0.1633
 2747SOL     OW10985   4.453   4.092   4.572 -0.1073  0.1156  0.2566
 2747SOL    HW210986   4.429   4.082   4.664 -1.4403 -1.8914 -0.2658
 2747SOL    HW310987   4.411   4.174   4.546  0.8613  1.0602  1.6019
 2747SOL    MW410988   4.444   4.101   4.581 -0.1554 -0.0246  0.3652
 2748SOL     OW10989   4.420   4.022   4.833 -0.0757  0.1763  0.3052
 2748SOL    HW210990   4.395   3.933   4.808 -0.9761 -0.0026  1.7824
 2748SOL    HW310991   4.346   4.054   4.885  0.5443  1.5380  0.3729
 2748SOL    MW410992   4.407   4.014   4.836 -0.1127  0.3324  0.5090
 2749SOL     OW10993   0.210   4.261   4.565  0.4888 -0.0136  0.0641
 2749SOL    HW210994   0.286   4.202   4.566  0.1584 -0.4467 -0.1660
 2749SOL    HW310995   0.135   4.202   4.572  0.2331  0.5311  2.0183
 2749SOL    MW410996   0.210   4.245   4.566  0.4114  0.0011  0.2916
 2750SOL     OW10997   1.075   0.098   4.771  0.3227 -0.0789  0.4044
 2750SOL    HW210998   1.017   0.150   4.827  1.5148 -0.0365  1.6047
 2750SOL    HW310999   1.135   0.162   4.732 -0.9412 -0.0057 -1.5100
 2750SOL    MW411000   1.075   0.113   4.773  0.3132 -0.0637  0.3102
 2751SOL     OW11001   0.894   0.005   4.568  0.0959  0.1846  0.2469
 2751SOL    HW211002   0.964   0.048   4.617  0.0176  0.1727  0.3680
 2751SOL    HW311003   0.900   0.044   4.481 -0.3444  0.8604  0.5145
 2751SOL    MW411004   0.904   0.016   4.563  0.0275  0.2722  0.2982
 2752SOL     OW11005   0.768   0.375   4.541  0.2626 -0.0612  0.3987
 2752SOL    HW211006   0.727   0.288   4.548  0.4038 -0.0817  1.0003
 2752SOL    HW311007   0.733   0.412   4.460 -0.0977 -0.5239  0.3440
 2752SOL    MW411008   0.758   0.368   4.531  0.2337 -0.1250  0.4709
 2753SOL     OW11009   1.590   0.875   4.684 -0.5551  0.0141  0.0003
 2753SOL    HW211010   1.603   0.854   4.776 -0.3496 -1.1608 -0.2877
 2753SOL    HW311011   1.656   0.941   4.665  0.8839 -1.3399  0.1497
 2753SOL    MW411012   1.601   0.881   4.693 -0.3381 -0.3195 -0.0180
 2754SOL     OW11013   1.750   0.712   4.528  0.1152  0.2646  0.6612
 2754SOL    HW211014   1.701   0.770   4.586 -0.4205  1.2420 -0.7427
 2754SOL    HW311015   1.763   0.763   4.448  0.2867 -1.2767 -0.3178
 2754SOL    MW411016   1.745   0.726   4.525  0.0672  0.1902  0.3468
 2755SOL     OW11017   0.394   1.469   4.764 -0.3941  0.4365 -0.4675
 2755SOL    HW211018   0.384   1.508   4.850  1.6035  2.0418 -0.9302
 2755SOL    HW311019   0.305   1.446   4.737 -1.0167 -0.2250  2.0582
 2755SOL    MW411020   0.381   1.471   4.772 -0.2127  0.5610 -0.1953
 2756SOL     OW11021   0.826   1.401   4.537  0.3713  0.3424  0.3152
 2756SOL    HW211022   0.815   1.496   4.543  1.4375  0.4252  1.1548
 2756SOL    HW311023   0.756   1.365   4.593 -1.5693  0.5345 -1.9273
 2756SOL    MW411024   0.815   1.409   4.545  0.2559  0.3786  0.1301
 2757SOL     OW11025   0.961   0.709   4.537  0.3474  0.4132  0.8842
 2757SOL    HW211026   0.874   0.698   4.575 -0.1940 -0.8605 -0.6594
 2757SOL    HW311027   0.949   0.770   4.465  0.8332  0.6701  1.0172
 2757SOL    MW411028   0.948   0.715   4.533  0.3401  0.2791  0.6981
 2758SOL     OW11029   1.798   1.050   4.646  0.3032  0.6061 -0.2087
 2758SOL    HW211030   1.810   1.060   4.741 -0.7909  0.5327 -0.0494
 2758SOL    HW311031   1.882   1.074   4.608  0.4648  1.5984  0.7334
 2758SOL    MW411032   1.810   1.055   4.654  0.1802  0.7273 -0.0634
 2759SOL     OW11033   1.066   1.245   4.554 -0.3099  0.3272  0.6714
 2759SOL    HW211034   1.049   1.195   4.634 -2.2744  0.8126  0.5801
 2759SOL    HW311035   0.990   1.301   4.544  1.0810  2.1125 -0.1816
 2759SOL    MW411036   1.054   1.246   4.563 -0.3856  0.6268  0.5468
 2760SOL     OW11037   1.137   2.321   4.600  0.4328  0.0613 -0.7139
 2760SOL    HW211038   1.209   2.372   4.565  0.8936 -0.6620 -0.8434
 2760SOL    HW311039   1.058   2.369   4.576  0.8638  0.7360 -0.7728
 2760SOL    MW411040   1.136   2.334   4.592  0.5505  0.0549 -0.7388
 2761SOL     OW11041   1.448   2.756   4.612  0.4762 -0.2197  0.1378
 2761SOL    HW211042   1.418   2.666   4.605 -0.7278  0.1231  0.8209
 2761SOL    HW311043   1.436   2.779   4.704 -1.1203  1.2841 -0.4100
 2761SOL    MW411044   1.443   2.747   4.623  0.1067  0.0239  0.1557
 2762SOL     OW11045   1.684   2.819   4.485  0.1269 -0.0442 -0.1135
 2762SOL    HW211046   1.600   2.799   4.527  1.1182 -0.4299  1.6942
 2762SOL    HW311047   1.702   2.910   4.510  1.2541 -0.6290  1.2239
 2762SOL    MW411048   1.675   2.829   4.494  0.4064 -0.1723  0.3014
 2763SOL     OW11049   1.471   3.497   4.573 -0.3090 -0.3986  0.2037
 2763SOL    HW211050   1.556   3.518   4.534 -0.0037 -1.5183  0.2729
 2763SOL    HW311051   1.474   3.403   4.590 -1.6779 -0.5047 -0.0696
 2763SOL    MW411052   1.483   3.488   4.570 -0.4494 -0.5603  0.1768
 2764SOL     OW11053   0.661   2.849   4.535  0.0658 -0.6029  0.0629
 2764SOL    HW211054   0.725   2.799   4.586  0.7394  1.0975  0.9651
 2764SOL    HW311055   0.577   2.811   4.558  0.3158  0.3846  2.8231
 2764SOL    MW411056   0.659   2.838   4.545  0.1877 -0.2482  0.5461
 2765SOL     OW11057   0.508   3.802   4.702 -0.8724  0.6006 -0.3244
 2765SOL    HW211058   0.471   3.888   4.685 -0.8136  0.4870 -1.0468
 2765SOL    HW311059   0.433   3.743   4.705 -0.8191  0.4867 -1.0609
 2765SOL    MW411060   0.493   3.806   4.700 -0.8576  0.5706 -0.5169
 2766SOL     OW11061   1.029   2.879   4.546  0.5698  0.3096  0.3136
 2766SOL    HW211062   1.044   2.850   4.456 -1.3650 -1.5182  0.5298
 2766SOL    HW311063   0.960   2.945   4.538 -1.1985 -1.4564  0.6310
 2766SOL    MW411064   1.022   2.884   4.533  0.0812 -0.1645  0.3840
 2767SOL     OW11065   0.846   3.069   4.566  0.0382  0.2985  0.1172
 2767SOL    HW211066   0.822   3.157   4.595 -0.8808  0.2506 -0.4970
 2767SOL    HW311067   0.765   3.019   4.569  0.3956 -0.3220 -0.3152
 2767SOL    MW411068   0.832   3.074   4.570 -0.0359  0.2103 -0.0209
 2768SOL     OW11069   1.739   3.616   4.470 -0.4691  0.3251  0.4662
 2768SOL    HW211070   1.743   3.709   4.489  0.2888 -0.1217  2.6144
 2768SOL    HW311071   1.825   3.582   4.495 -0.5498 -0.8603 -0.8117
 2768SOL    MW411072   1.751   3.624   4.476 -0.3797  0.1097  0.5810
 2769SOL     OW11073   0.403   3.229   4.638  0.1375 -0.1294  0.1564
 2769SOL    HW211074   0.313   3.251   4.661  0.4165  0.8214  0.3998
 2769SOL    HW311075   0.418   3.143   4.677 -0.1743  0.3996  1.4624
 2769SOL    MW411076   0.393   3.221   4.646  0.1332  0.0659  0.3608
 2770SOL     OW11077   0.466   4.114   4.590  0.0461  0.0522 -0.3058
 2770SOL    HW211078   0.481   4.083   4.501  0.6181  0.5937 -0.3980
 2770SOL    HW311079   0.553   4.137   4.623 -0.0605 -0.8381  0.6580
 2770SOL    MW411080   0.479   4.113   4.583  0.1075  0.0062 -0.1908
 2771SOL     OW11081   0.734   4.229   4.577 -0.8048  0.7013  0.0215
 2771SOL    HW211082   0.714   4.272   4.494  0.3554  0.1067 -0.5726
 2771SOL    HW311083   0.747   4.301   4.639 -1.2451  1.1545 -0.4079
 2771SOL    MW411084   0.733   4.244   4.574 -0.7098  0.6827 -0.1135
 2772SOL     OW11085   0.719   4.487   4.693 -0.4795  0.1718 -0.6678
 2772SOL    HW211086   0.644   4.544   4.706 -1.3471 -0.9994 -0.4849
 2772SOL    HW311087   0.774   4.534   4.630 -1.6727  0.7569 -1.2909
 2772SOL    MW411088   0.717   4.500   4.686 -0.7514  0.0945 -0.7259
 2773SOL     OW11089   1.875   4.162   4.842  0.2735 -0.1229  0.2514
 2773SOL    HW211090   1.790   4.179   4.801 -0.3235 -2.3445  0.5109
 2773SOL    HW311091   1.885   4.232   4.907 -1.1571  0.3933 -0.0709
 2773SOL    MW411092   1.865   4.173   4.845  0.0060 -0.3479  0.2431
 2774SOL     OW11093   1.609   4.343   4.534  0.8288  0.0381 -0.4755
 2774SOL    HW211094   1.691   4.392   4.541  1.0832 -0.3585 -0.6353
 2774SOL    HW311095   1.588   4.345   4.441  0.2437  0.8079 -0.3252
 2774SOL    MW411096   1.617   4.349   4.523  0.7852  0.0873 -0.4768
 2775SOL     OW11097   1.229   4.236   4.581 -0.0817  0.1026 -0.0029
 2775SOL    HW211098   1.298   4.170   4.591 -0.3751 -0.2376 -0.2240
 2775SOL    HW311099   1.148   4.189   4.603 -0.4036  0.1280 -1.0902
 2775SOL    MW411100   1.228   4.221   4.585 -0.1629  0.0610 -0.1756
 2776SOL     OW11101   1.243   0.278   4.657 -0.5227  0.0469  0.0589
 2776SOL    HW211102   1.189   0.333   4.601  1.7018  0.1229 -2.0795
 2776SOL    HW311103   1.302   0.339   4.702 -1.4752 -0.1326  1.5949
 2776SOL    MW411104   1.244   0.293   4.656 -0.3549  0.0333 -0.0206
 2777SOL     OW11105   1.744   0.063   4.549 -0.2163  0.2316  0.4160
 2777SOL    HW211106   1.652   0.064   4.576 -0.5239  0.0218 -0.6087
 2777SOL    HW311107   1.771  -0.029   4.559 -0.6453 -0.0634 -1.0040
 2777SOL    MW411108   1.735   0.051   4.554 -0.3135  0.1650  0.0934
 2778SOL     OW11109   1.310   0.885   4.595  0.1011  0.3257  0.4002
 2778SOL    HW211110   1.401   0.899   4.620  0.1334  1.0798 -0.1061
 2778SOL    HW311111   1.313   0.875   4.500 -0.4855  1.7163  0.2196
 2778SOL    MW411112   1.322   0.886   4.586  0.0280  0.6086  0.3096
 2779SOL     OW11113   1.903   1.522   4.854 -0.0678  0.4713  0.3856
 2779SOL    HW211114   1.948   1.461   4.912  0.9404  1.4192  0.6316
 2779SOL    HW311115   1.898   1.603   4.904  0.4672  1.1906 -0.6957
 2779SOL    MW411116   1.909   1.525   4.868  0.1358  0.6913  0.2754
 2780SOL     OW11117   1.037   0.449   4.513  0.0789 -0.2159  0.0868
 2780SOL    HW211118   1.021   0.542   4.531 -0.5174 -0.2227 -0.3528
 2780SOL    HW311119   0.958   0.405   4.546  0.2310 -0.5303  0.0300
 2780SOL    MW411120   1.024   0.455   4.519  0.0203 -0.2583  0.0213
 2781SOL     OW11121   2.075   0.394   4.523  0.4677  0.4737  0.0965
 2781SOL    HW211122   2.133   0.361   4.593  0.7920 -0.9818 -0.8341
 2781SOL    HW311123   1.988   0.362   4.548  0.4302  0.7341  0.3066
 2781SOL    MW411124   2.071   0.385   4.536  0.5056  0.3160  0.0014
 2782SOL     OW11125   1.645   1.272   4.552 -0.4050 -0.4285  0.2955
 2782SOL    HW211126   1.553   1.266   4.580 -1.1548 -1.8923 -2.2749
 2782SOL    HW311127   1.683   1.188   4.578  0.4342  0.4419  1.9748
 2782SOL    MW411128   1.638   1.260   4.559 -0.3932 -0.5068  0.1779
 2783SOL     OW11129   1.330   1.890   4.545  0.9194  0.3720  0.2851
 2783SOL    HW211130   1.327   1.855   4.634  2.3990 -0.8814 -0.1414
 2783SOL    HW311131   1.326   1.813   4.489  1.2384  1.0779 -0.7220
 2783SOL    MW411132   1.329   1.875   4.549  1.1567  0.2998  0.0959
 2784SOL     OW11133   1.643   2.426   4.616  0.1787 -0.5212  0.2092
 2784SOL    HW211134   1.676   2.349   4.662 -0.6890 -0.5044  0.8768
 2784SOL    HW311135   1.722   2.468   4.581  0.8252 -0.7755  1.3050
 2784SOL    MW411136   1.658   2.422   4.618  0.1495 -0.5525  0.4419
 2785SOL     OW11137   2.014   2.269   4.749 -0.3339 -0.0620 -0.6842
 2785SOL    HW211138   1.931   2.223   4.733 -0.5769 -0.8814  2.4862
 2785SOL    HW311139   1.990   2.341   4.806  1.0439  0.0999 -0.3035
 2785SOL    MW411140   2.000   2.272   4.754 -0.1842 -0.1488 -0.2156
 2786SOL     OW11141   0.900   2.460   4.561  0.2118 -0.0281 -0.0929
 2786SOL    HW211142   0.894   2.551   4.589  0.3595 -0.0755  0.0936
 2786SOL    HW311143   0.865   2.460   4.472 -0.0726  0.1558  0.0175
 2786SOL    MW411144   0.895   2.472   4.553  0.1937 -0.0101 -0.0538
 2787SOL     OW11145   1.397   3.949   4.557 -0.2624  0.2231  0.5712
 2787SOL    HW211146   1.347   3.869   4.567 -0.6031  0.0792 -1.9327
 2787SOL    HW311147   1.489   3.921   4.564 -0.4354 -0.0043  2.0001
 2787SOL    MW411148   1.403   3.935   4.559 -0.3302  0.1741  0.4294
 2788SOL     OW11149   1.367   2.487   4.555 -0.2637 -0.5043 -0.1298
 2788SOL    HW211150   1.369   2.484   4.459 -1.7282 -0.0942 -0.1897
 2788SOL    HW311151   1.455   2.460   4.582  0.7520  1.2089 -1.6256
 2788SOL    MW411152   1.379   2.483   4.546 -0.3229 -0.2241 -0.3351
 2789SOL     OW11153   1.850   2.568   4.499  0.0091  0.1950 -0.0818
 2789SOL    HW211154   1.814   2.655   4.512 -0.1193  0.0664  0.4421
 2789SOL    HW311155   1.940   2.574   4.531 -0.0817  0.0697  0.2024
 2789SOL    MW411156   1.857   2.580   4.505 -0.0198  0.1615  0.0248
 2790SOL     OW11157   1.464   3.212   4.571  0.0328  0.4468  0.3362
 2790SOL    HW211158   1.551   3.173   4.564  0.0685  0.5238  0.3505
 2790SOL    HW311159   1.404   3.138   4.573  0.0756  0.4002 -0.0030
 2790SOL    MW411160   1.467   3.197   4.570  0.0432  0.4508  0.2933
 2791SOL     OW11161   1.264   3.708   4.548 -0.5491 -0.2240  0.0906
 2791SOL    HW211162   1.318   3.636   4.580  0.4371  0.3757 -0.2061
 2791SOL    HW311163   1.222   3.675   4.469  0.9036 -0.0480 -0.7630
 2791SOL    MW411164   1.265   3.694   4.542 -0.2273 -0.1217 -0.0612
 2792SOL     OW11165   0.727   3.638   4.600 -0.4471 -0.0660 -0.0485
 2792SOL    HW211166   0.666   3.707   4.626 -0.8442  0.1554 -1.5065
 2792SOL    HW311167   0.813   3.671   4.625 -0.7845  0.2655  0.6837
 2792SOL    MW411168   0.730   3.651   4.606 -0.5440  0.0069 -0.1443
 2793SOL     OW11169   2.020   3.527   4.526  0.6561 -0.1115  0.2597
 2793SOL    HW211170   2.027   3.527   4.431 -0.6650  0.9241  0.1523
 2793SOL    HW311171   2.033   3.436   4.551  1.4937 -0.3056 -0.8739
 2793SOL    MW411172   2.022   3.515   4.517  0.5923 -0.0005  0.0960
 2794SOL     OW11173   1.710   3.093   4.558 -0.2288 -0.3046 -0.4956
 2794SOL    HW211174   1.778   3.084   4.625 -0.3226  1.6466 -0.1060
 2794SOL    HW311175   1.757   3.125   4.481 -0.7704  1.5731 -0.0604
 2794SOL    MW411176   1.725   3.096   4.557 -0.3126  0.2006 -0.3868
 2795SOL     OW11177   2.238   3.666   4.645 -0.1365 -0.2506 -0.1192
 2795SOL    HW211178   2.216   3.729   4.713 -0.4283 -1.2701  0.7450
 2795SOL    HW311179   2.153   3.633   4.614  0.0357 -1.0490  0.2353
 2795SOL    MW411180   2.224   3.670   4.650 -0.1523 -0.4904  0.0416
 2796SOL     OW11181   0.988   3.773   4.648 -0.2095 -0.2567  0.1480
 2796SOL    HW211182   0.983   3.860   4.608  0.5863 -0.6221 -0.7614
 2796SOL    HW311183   1.079   3.746   4.634 -0.0770 -0.6383  1.6916
 2796SOL    MW411184   0.999   3.781   4.641 -0.0870 -0.3553  0.2316
 2797SOL     OW11185   1.783   4.438   4.894 -0.2663  0.1867 -0.1883
 2797SOL    HW211186   1.799   4.530   4.918 -1.6661  0.7230 -1.2211
 2797SOL    HW311187   1.691   4.424   4.915 -0.1424 -0.8866 -0.3446
 2797SOL    MW411188   1.773   4.449   4.900 -0.4346  0.1159 -0.3452
 2798SOL     OW11189   2.276   0.308   4.693  0.2035  0.2230  0.0171
 2798SOL    HW211190   2.342   0.378   4.691 -1.4446  1.8207  0.4101
 2798SOL    HW311191   2.306   0.250   4.764  1.3668  0.7411 -0.0313
 2798SOL    MW411192   2.289   0.310   4.702  0.1395  0.5022  0.0626
 2799SOL     OW11193   1.398   0.064   4.564 -0.3157  0.2091 -0.0029
 2799SOL    HW211194   1.343   0.130   4.607  0.7227  0.4937  0.9275
 2799SOL    HW311195   1.380  -0.017   4.611  2.1028  0.8709  2.1686
 2799SOL    MW411196   1.388   0.062   4.576  0.1404  0.3340  0.4064
 2800SOL     OW11197   1.826   0.331   4.597  0.0426 -0.2721  0.1936
 2800SOL    HW211198   1.803   0.239   4.600 -2.2122  0.2523 -0.3216
 2800SOL    HW311199   1.743   0.377   4.586  1.0687  1.8505  0.8526
 2800SOL    MW411200   1.812   0.325   4.596 -0.1195  0.0772  0.2126
 2801SOL     OW11201   2.362   0.088   4.548  0.3062 -0.5499  0.3447
 2801SOL    HW211202   2.320   0.098   4.463 -1.1102  0.0075  1.0786
 2801SOL    HW311203   2.338   0.167   4.596  0.0754 -1.4005  1.6649
 2801SOL    MW411204   2.353   0.099   4.543  0.0888 -0.5886  0.6157
 2802SOL     OW11205   2.022   0.683   4.598  0.7048 -0.1029  0.0990
 2802SOL    HW211206   2.016   0.588   4.592  0.9177 -0.1195  0.1656
 2802SOL    HW311207   1.937   0.714   4.565 -0.3477 -0.4084  2.3927
 2802SOL    MW411208   2.010   0.674   4.593  0.5940 -0.1454  0.4104
 2803SOL     OW11209   1.607   0.469   4.526  0.1411  0.0875 -0.2439
 2803SOL    HW211210   1.653   0.552   4.541  0.2627 -0.0126 -0.0641
 2803SOL    HW311211   1.534   0.469   4.588 -0.1379  0.2756 -0.5739
 2803SOL    MW411212   1.604   0.480   4.536  0.1203  0.0991 -0.2637
 2804SOL     OW11213   2.047   1.484   4.608  0.4083 -0.0862 -0.1110
 2804SOL    HW211214   2.012   1.403   4.570  0.3045 -0.5938  1.0657
 2804SOL    HW311215   1.993   1.501   4.684  3.2645 -1.4122  2.3290
 2804SOL    MW411216   2.036   1.476   4.613  0.7714 -0.3281  0.3662
 2805SOL     OW11217   1.086   2.039   4.537 -0.1759 -0.4981  0.0814
 2805SOL    HW211218   1.167   1.992   4.553 -0.6340 -0.3411  3.0890
 2805SOL    HW311219   1.105   2.129   4.564 -0.9379 -0.1524 -0.5173
 2805SOL    MW411220   1.099   2.045   4.543 -0.3369 -0.4318  0.3992
 2806SOL     OW11221   1.676   1.526   4.670 -0.1145 -0.1526  0.2856
 2806SOL    HW211222   1.682   1.448   4.616 -1.0877 -0.0845  0.0609
 2806SOL    HW311223   1.759   1.530   4.716  0.9771  0.1496 -1.6785
 2806SOL    MW411224   1.688   1.516   4.669 -0.0989 -0.1038 -0.0032
 2807SOL     OW11225   1.596   2.014   4.547  0.0430  0.0441  0.1641
 2807SOL    HW211226   1.505   1.984   4.547  0.6143 -1.7393 -1.0246
 2807SOL    HW311227   1.648   1.934   4.556  1.5528  0.8436 -1.2450
 2807SOL    MW411228   1.591   2.000   4.548  0.3175 -0.0857 -0.1787
 2808SOL     OW11229   1.754   1.769   4.555 -0.2600  0.0463  0.2094
 2808SOL    HW211230   1.706   1.698   4.598  0.8253 -1.4585 -0.9816
 2808SOL    HW311231   1.755   1.744   4.462  0.1522  1.6256 -0.2310
 2808SOL    MW411232   1.748   1.756   4.548 -0.0624  0.0561 -0.0058
 2809SOL     OW11233   2.014   1.854   4.553  0.5429  0.1276  0.0511
 2809SOL    HW211234   1.923   1.824   4.558  0.9254 -1.1536 -0.3980
 2809SOL    HW311235   2.016   1.915   4.480 -0.3491  1.6312  1.2549
 2809SOL    MW411236   2.003   1.858   4.544  0.4757  0.1569  0.1507
 2810SOL     OW11237   1.733   2.190   4.726 -0.7728  0.7253  0.0192
 2810SOL    HW211238   1.668   2.173   4.795  0.3136 -1.8135  0.4685
 2810SOL    HW311239   1.697   2.146   4.649 -0.4698  0.9183 -0.2314
 2810SOL    MW411240   1.719   2.182   4.725 -0.5895  0.4158  0.0454
 2811SOL     OW11241   2.153   2.475   4.590  0.0819 -0.2689 -0.2601
 2811SOL    HW211242   2.116   2.406   4.645 -2.2635  1.0116 -0.1707
 2811SOL    HW311243   2.159   2.436   4.503 -1.2756 -0.6002 -0.2186
 2811SOL    MW411244   2.149   2.461   4.586 -0.4066 -0.1436 -0.2429
 2812SOL     OW11245   2.288   2.698   4.648 -0.2087  0.6335  0.5064
 2812SOL    HW211246   2.344   2.664   4.717  0.4090  1.4848  0.4322
 2812SOL    HW311247   2.226   2.627   4.630  0.7095 -0.2382  0.7228
 2812SOL    MW411248   2.287   2.684   4.655 -0.0061  0.6308  0.5252
 2813SOL     OW11249   1.620   4.125   4.699 -0.4393  0.3956 -0.1763
 2813SOL    HW211250   1.599   4.199   4.642 -1.0504  1.0064  0.8427
 2813SOL    HW311251   1.545   4.117   4.758 -0.8092 -1.6374 -0.8824
 2813SOL    MW411252   1.607   4.133   4.699 -0.5687  0.2080 -0.1350
 2814SOL     OW11253   2.141   3.263   4.597 -0.0339 -0.1264 -0.3765
 2814SOL    HW211254   2.204   3.208   4.551  1.0426  1.4308 -0.8183
 2814SOL    HW311255   2.194   3.317   4.655 -1.0473  0.5355 -0.0509
 2814SOL    MW411256   2.157   3.263   4.598 -0.0256  0.1663 -0.3918
 2815SOL     OW11257   1.949   3.052   4.690 -0.0283 -0.1171  0.0960
 2815SOL    HW211258   2.002   3.025   4.765  0.3637 -1.7805 -0.7674
 2815SOL    HW311259   2.004   3.115   4.643  0.4453 -0.4432  0.2111
 2815SOL    MW411260   1.963   3.057   4.694  0.0859 -0.3796 -0.0027
 2816SOL     OW11261   2.494   3.635   4.527 -0.4820  0.2512  0.4962
 2816SOL    HW211262   2.407   3.639   4.567 -0.4176  0.4541  0.6143
 2816SOL    HW311263   2.531   3.722   4.541 -0.1786  0.0983  0.6304
 2816SOL    MW411264   2.487   3.647   4.534 -0.4335  0.2578  0.5295
 2817SOL     OW11265   1.963   3.936   4.673  0.2539  0.1249  0.2165
 2817SOL    HW211266   1.936   4.007   4.730  0.4666  0.1068  0.3400
 2817SOL    HW311267   1.881   3.902   4.636  0.0141 -0.6706  1.4551
 2817SOL    MW411268   1.948   3.941   4.675  0.2504  0.0175  0.3962
 2818SOL     OW11269   2.197   3.868   4.831 -0.1807 -0.2731  0.3489
 2818SOL    HW211270   2.111   3.889   4.795 -0.6123 -1.5931  0.5825
 2818SOL    HW311271   2.257   3.928   4.787 -0.9566 -0.6028 -1.1709
 2818SOL    MW411272   2.193   3.879   4.821 -0.3400 -0.4908  0.1792
 2819SOL     OW11273   1.726   3.895   4.537 -0.6722  0.0111 -0.1346
 2819SOL    HW211274   1.711   3.965   4.601  1.0466 -0.4396  0.8040
 2819SOL    HW311275   1.751   3.940   4.457  0.5682  0.4786  0.5056
 2819SOL    MW411276   1.727   3.910   4.535 -0.2818  0.0133  0.0737
 2820SOL     OW11277   2.152   4.088   4.516 -0.1970  0.1953 -0.2775
 2820SOL    HW211278   2.085   4.026   4.545  2.0011 -2.0754  0.1376
 2820SOL    HW311279   2.194   4.044   4.443 -0.3145  2.3918 -1.7154
 2820SOL    MW411280   2.148   4.074   4.510  0.0775  0.1855 -0.4124
 2821SOL     OW11281   1.830   4.466   4.621 -0.2742  0.4008  0.6470
 2821SOL    HW211282   1.908   4.428   4.581 -0.9063 -1.4332  1.0953
 2821SOL    HW311283   1.838   4.444   4.714 -0.5065  1.6623  0.9733
 2821SOL    MW411284   1.841   4.458   4.628 -0.3883  0.3253  0.7492
 2822SOL     OW11285   2.089   4.390   4.522  0.4754 -0.1345 -0.1151
 2822SOL    HW211286   2.102   4.295   4.534 -0.7662 -0.4441 -1.1231
 2822SOL    HW311287   2.172   4.429   4.549  1.6254 -1.6437 -1.3690
 2822SOL    MW411288   2.102   4.382   4.528  0.4633 -0.3744 -0.4135
 2823SOL     OW11289   2.360   4.466   4.553 -0.1755  0.4249  0.2960
 2823SOL    HW211290   2.408   4.453   4.471  1.7299  0.4246  1.3929
 2823SOL    HW311291   2.348   4.561   4.559  0.4581  0.4957  0.4534
 2823SOL    MW411292   2.365   4.477   4.543  0.1595  0.4342  0.4615
 2824SOL     OW11293   1.408   1.511   4.760  0.0845  0.2550  0.0674
 2824SOL    HW211294   1.498   1.516   4.730  0.9126 -1.7240  2.0726
 2824SOL    HW311295   1.373   1.433   4.717  0.0638 -0.2921  1.0433
 2824SOL    MW411296   1.415   1.501   4.750  0.1910 -0.0783  0.4607
 2825SOL     OW11297   2.663   0.086   4.524 -0.3886  0.0436  0.0877
 2825SOL    HW211298   2.668   0.098   4.429  1.2888 -1.6731 -0.0793
 2825SOL    HW311299   2.579   0.043   4.538 -1.1226  1.2634 -0.4921
 2825SOL    MW411300   2.652   0.082   4.513 -0.2641 -0.0220 -0.0108
 2826SOL     OW11301   2.474   0.731   4.680  0.4839  0.0663 -0.3223
 2826SOL    HW211302   2.395   0.748   4.630  0.9486  1.8971 -0.4528
 2826SOL    HW311303   2.542   0.716   4.614  0.3150 -1.2619 -0.2118
 2826SOL    MW411304   2.473   0.731   4.665  0.5230  0.1326 -0.3250
 2827SOL     OW11305   2.906   0.518   4.550 -0.8320  0.0512  0.0225
 2827SOL    HW211306   2.961   0.576   4.603 -0.0026 -1.9843  1.4409
 2827SOL    HW311307   2.931   0.538   4.460 -0.3056  1.6386  0.4901
 2827SOL    MW411308   2.917   0.529   4.545 -0.6531 -0.0079  0.2713
 2828SOL     OW11309   2.305   1.109   4.649  0.8544 -0.2242 -0.2872
 2828SOL    HW211310   2.352   1.057   4.715 -0.7796 -0.8569  0.4192
 2828SOL    HW311311   2.373   1.163   4.608  2.1844 -1.1048  0.6974
 2828SOL    MW411312   2.320   1.109   4.653  0.8143 -0.4238 -0.0641
 2829SOL     OW11313   2.463   1.291   4.509 -0.1455 -0.3668  0.2499
 2829SOL    HW211314   2.549   1.248   4.511 -0.1736 -0.3364  2.5022
 2829SOL    HW311315   2.483   1.384   4.512 -0.2441 -0.3300 -0.1589
 2829SOL    MW411316   2.477   1.297   4.510 -0.1622 -0.3579  0.4931
 2830SOL     OW11317   2.514   1.584   4.543  0.0479  0.1860  0.6981
 2830SOL    HW211318   2.550   1.642   4.476 -0.0916  0.3987  0.8048
 2830SOL    HW311319   2.427   1.620   4.561  1.0219  1.6460  2.7957
 2830SOL    MW411320   2.507   1.596   4.537  0.1580  0.4067  0.9889
 2831SOL     OW11321   2.235   1.681   4.543  0.4331  0.1365 -0.1888
 2831SOL    HW211322   2.170   1.751   4.534  0.9769  0.8014  0.9880
 2831SOL    HW311323   2.185   1.604   4.568 -0.0649  0.3084 -0.6503
 2831SOL    MW411324   2.220   1.680   4.545  0.4391  0.2469 -0.0944
 2832SOL     OW11325   2.176   2.051   4.689 -0.2540 -0.0712  0.3729
 2832SOL    HW211326   2.114   1.985   4.658 -1.1431  1.0137 -0.2303
 2832SOL    HW311327   2.121   2.119   4.728  0.4930  1.2167 -0.7527
 2832SOL    MW411328   2.161   2.051   4.690 -0.2728  0.2418  0.1448
 2833SOL     OW11329   2.395   2.101   4.520 -0.5692 -0.3804 -0.1606
 2833SOL    HW211330   2.320   2.079   4.576 -1.0974  0.3726 -0.5557
 2833SOL    HW311331   2.468   2.053   4.558 -1.2423 -1.0879  0.2613
 2833SOL    MW411332   2.395   2.092   4.532 -0.7277 -0.3744 -0.1571
 2834SOL     OW11333   2.724   2.379   4.454 -0.1007  0.5353 -0.1568
 2834SOL    HW211334   2.640   2.386   4.499 -0.8083  1.9179 -1.6374
 2834SOL    HW311335   2.771   2.459   4.478  0.0148  0.6840 -0.8645
 2834SOL    MW411336   2.719   2.390   4.463 -0.1788  0.7373 -0.4455
 2835SOL     OW11337   2.485   2.614   4.822 -0.3366  0.0383  0.7147
 2835SOL    HW211338   2.500   2.536   4.875 -0.7198 -1.1645 -0.9203
 2835SOL    HW311339   2.572   2.640   4.791 -0.2139  0.2527  1.2291
 2835SOL    MW411340   2.498   2.607   4.825 -0.3710 -0.0921  0.5668
 2836SOL     OW11341   2.027   2.794   4.580  0.1532  0.0287  0.1213
 2836SOL    HW211342   1.985   2.870   4.621  1.3342  0.3192  0.8401
 2836SOL    HW311343   2.108   2.783   4.629  0.1711 -1.4717 -0.2404
 2836SOL    MW411344   2.032   2.803   4.592  0.3114 -0.1309  0.1684
 2837SOL     OW11345   2.477   2.875   4.525  0.2173  0.5663  0.1669
 2837SOL    HW211346   2.407   2.827   4.569  1.8753 -0.8245  1.3601
 2837SOL    HW311347   2.450   2.967   4.533 -1.7309  0.0340  0.1058
 2837SOL    MW411348   2.464   2.881   4.532  0.1790  0.3126  0.3162
 2838SOL     OW11349   2.346   3.126   4.483  0.3514 -0.0638 -0.2481
 2838SOL    HW211350   2.394   3.209   4.491 -0.6828  0.3952  1.5723
 2838SOL    HW311351   2.320   3.123   4.391  1.5354  0.9999 -0.6336
 2838SOL    MW411352   2.349   3.137   4.472  0.3712  0.1371 -0.0588
 2839SOL     OW11353   1.495   4.403   4.923  0.1718  0.0861 -0.2593
 2839SOL    HW211354   1.453   4.442   4.845 -1.1800  0.3706  0.5906
 2839SOL    HW311355   1.470   4.310   4.919 -1.5233  0.4768  0.8573
 2839SOL    MW411356   1.486   4.396   4.912 -0.2302  0.1752  0.0001
 2840SOL     OW11357   2.593   3.894   4.555  0.5871 -0.1724  0.0992
 2840SOL    HW211358   2.519   3.934   4.600 -0.5081 -1.3396 -0.6164
 2840SOL    HW311359   2.641   3.968   4.517  0.5279  0.6833  1.6692
 2840SOL    MW411360   2.589   3.909   4.556  0.4348 -0.2135  0.2119
 2841SOL     OW11361   2.293   3.420   4.770 -0.4376  0.2731  0.8158
 2841SOL    HW211362   2.375   3.387   4.732 -0.0351  0.0898  1.8041
 2841SOL    HW311363   2.279   3.504   4.728 -0.8798 -0.6563 -0.9319
 2841SOL    MW411364   2.302   3.426   4.760 -0.4429  0.1263  0.7156
 2842SOL     OW11365   3.438   3.848   4.906  0.7248 -0.2089 -0.0161
 2842SOL    HW211366   3.365   3.910   4.900  0.4937 -0.6107 -1.7367
 2842SOL    HW311367   3.401   3.771   4.950  0.1091 -0.3859 -0.8279
 2842SOL    MW411368   3.423   3.846   4.911  0.6131 -0.2853 -0.3502
 2843SOL     OW11369   3.088   3.877   4.552  0.2553 -0.2358 -0.6100
 2843SOL    HW211370   3.014   3.842   4.602  0.6917 -0.4931 -0.1387
 2843SOL    HW311371   3.164   3.831   4.587  0.6160 -0.1160 -1.2318
 2843SOL    MW411372   3.088   3.866   4.563  0.3604 -0.2539 -0.6299
 2844SOL     OW11373   2.374   4.007   4.665  0.2345  0.4858  0.1743
 2844SOL    HW211374   2.402   4.094   4.692  0.1165  0.3472  0.7403
 2844SOL    HW311375   2.304   4.023   4.602 -0.0477  0.7923  0.5673
 2844SOL    MW411376   2.368   4.021   4.660  0.1817  0.5079  0.3009
 2845SOL     OW11377   2.493   4.259   4.671  0.1995  0.2750 -0.7091
 2845SOL    HW211378   2.448   4.338   4.639 -1.2198  0.4127  1.4744
 2845SOL    HW311379   2.513   4.279   4.763  0.0330 -1.7967 -0.1988
 2845SOL    MW411380   2.490   4.272   4.679 -0.0098  0.0198 -0.3537
 2846SOL     OW11381   3.089   0.320   4.683  0.0145 -0.2066 -0.0130
 2846SOL    HW211382   3.016   0.377   4.657 -0.1209 -0.7218 -0.7689
 2846SOL    HW311383   3.166   0.363   4.646 -0.0425 -0.3101 -0.2501
 2846SOL    MW411384   3.089   0.334   4.675 -0.0109 -0.2882 -0.1440
 2847SOL     OW11385   2.857   4.553   4.512  0.1281  0.6360 -0.0846
 2847SOL    HW211386   2.930   4.615   4.519 -0.2090  1.4874 -3.4375
 2847SOL    HW311387   2.779   4.608   4.514 -0.4479 -0.1936  2.4581
 2847SOL    MW411388   2.857   4.569   4.513  0.0076  0.6389 -0.1915
 2848SOL     OW11389   3.069   0.069   4.524  0.3935 -0.0481  0.4360
 2848SOL    HW211390   3.085   0.154   4.565  0.2086 -0.3133  1.0505
 2848SOL    HW311391   3.134   0.011   4.563  0.3855 -0.2414  0.1660
 2848SOL    MW411392   3.080   0.073   4.534  0.3680 -0.1086  0.4815
 2849SOL     OW11393   2.696   0.728   4.518 -0.2104 -0.3048 -0.6450
 2849SOL    HW211394   2.713   0.789   4.446  0.9929  0.9075  0.6278
 2849SOL    HW311395   2.779   0.683   4.532 -0.4704 -0.6281 -0.0958
 2849SOL    MW411396   2.709   0.730   4.511 -0.0859 -0.1875 -0.4046
 2850SOL     OW11397   3.562   0.637   4.803  0.0888 -0.4106  0.2451
 2850SOL    HW211398   3.643   0.678   4.772  0.3717 -1.6104 -0.6817
 2850SOL    HW311399   3.574   0.544   4.783 -1.1282 -0.7318  0.9706
 2850SOL    MW411400   3.574   0.630   4.796 -0.0344 -0.6113  0.2185
 2851SOL     OW11401   2.251   0.824   4.540  0.1456  0.3193 -0.8290
 2851SOL    HW211402   2.248   0.911   4.580  0.4235  0.2803 -0.7181
 2851SOL    HW311403   2.171   0.782   4.569  0.6631  0.0517  0.2473
 2851SOL    MW411404   2.240   0.830   4.550  0.2506  0.2789 -0.6723
 2852SOL     OW11405   2.692   1.130   4.509  0.1209  0.2247  0.2896
 2852SOL    HW211406   2.775   1.154   4.550 -0.1770 -0.0388  1.0793
 2852SOL    HW311407   2.708   1.043   4.471  0.0138 -0.1390  1.0561
 2852SOL    MW411408   2.705   1.121   4.510  0.0675  0.1420  0.4949
 2853SOL     OW11409   2.950   1.207   4.594  0.0347  0.1631 -0.1562
 2853SOL    HW211410   2.924   1.274   4.657  0.4302  0.3726 -0.2129
 2853SOL    HW311411   2.947   1.252   4.509 -0.1155 -0.0104 -0.2440
 2853SOL    MW411412   2.946   1.222   4.591  0.0671  0.1679 -0.1752
 2854SOL     OW11413   3.081   1.568   4.817  0.5510  0.1436  0.4868
 2854SOL    HW211414   3.019   1.495   4.819  0.5596  0.1318  0.2887
 2854SOL    HW311415   3.079   1.598   4.727  1.8239 -0.7016  0.1671
 2854SOL    MW411416   3.072   1.562   4.806  0.7201  0.0305  0.4185
 2855SOL     OW11417   2.821   1.777   4.534 -0.2474 -0.4233  0.3952
 2855SOL    HW211418   2.755   1.838   4.565  0.0978  0.3621 -0.4054
 2855SOL    HW311419   2.782   1.738   4.456  0.9340  1.3526 -1.1163
 2855SOL    MW411420   2.807   1.780   4.528 -0.0460 -0.0854  0.0901
 2856SOL     OW11421   2.636   1.986   4.569  0.2715 -0.0651  0.4908
 2856SOL    HW211422   2.644   1.963   4.661 -0.8338  0.6776  0.7886
 2856SOL    HW311423   2.716   2.034   4.549  0.0581  0.6601  1.3463
 2856SOL    MW411424   2.648   1.990   4.578  0.0975  0.1286  0.6429
 2857SOL     OW11425   2.856   2.135   4.510 -0.4315  0.1271 -0.0951
 2857SOL    HW211426   2.829   2.222   4.482  0.9890  0.3070 -0.9843
 2857SOL    HW311427   2.884   2.092   4.429 -0.0927 -0.7653  0.4936
 2857SOL    MW411428   2.856   2.141   4.495 -0.1994  0.0331 -0.1347
 2858SOL     OW11429   3.074   2.143   4.689 -0.2653  0.4800 -0.2860
 2858SOL    HW211430   3.055   2.192   4.769  2.2991 -0.4490  0.9433
 2858SOL    HW311431   2.992   2.146   4.640 -1.8240  1.2936  2.2394
 2858SOL    MW411432   3.060   2.150   4.693 -0.1326  0.4648  0.2094
 2859SOL     OW11433   2.470   2.360   4.573 -0.1334 -0.2809 -0.2601
 2859SOL    HW211434   2.441   2.268   4.574 -2.5082  0.4142 -1.3179
 2859SOL    HW311435   2.394   2.409   4.605  0.6024  1.4654 -1.1311
 2859SOL    MW411436   2.456   2.354   4.577 -0.3496  0.0412 -0.5146
 2860SOL     OW11437   2.923   3.091   4.636  0.5959  0.4965 -0.3682
 2860SOL    HW211438   2.902   3.038   4.713 -1.3863  0.0421 -1.1838
 2860SOL    HW311439   3.015   3.073   4.618  1.3323  1.2373  2.3669
 2860SOL    MW411440   2.932   3.082   4.644  0.4315  0.5343 -0.1150
 2861SOL     OW11441   2.718   2.727   4.700  0.0324 -0.0450  0.1750
 2861SOL    HW211442   2.739   2.796   4.763 -0.1892  0.7504 -0.6017
 2861SOL    HW311443   2.656   2.769   4.639  0.7870 -0.5815 -0.9690
 2861SOL    MW411444   2.712   2.742   4.700  0.1027 -0.0109 -0.0784
 2862SOL     OW11445   2.765   3.285   4.519  0.4580 -0.0194 -0.0144
 2862SOL    HW211446   2.827   3.228   4.563  0.8291  0.1998 -0.2521
 2862SOL    HW311447   2.764   3.253   4.428  0.0093 -0.2042  0.0517
 2862SOL    MW411448   2.773   3.273   4.512  0.4478 -0.0149 -0.0370
 2863SOL     OW11449   2.767   2.927   4.905  0.1053  0.0452 -0.1814
 2863SOL    HW211450   2.849   2.942   4.953  0.7177  0.4826 -1.3335
 2863SOL    HW311451   2.709   2.998   4.933 -0.1671 -0.7091  1.2276
 2863SOL    MW411452   2.770   2.938   4.915  0.1502  0.0034 -0.1475
 2864SOL     OW11453   2.879   3.699   4.633 -0.6932 -0.5465 -0.4746
 2864SOL    HW211454   2.925   3.643   4.696 -0.7174 -1.4031 -1.2134
 2864SOL    HW311455   2.787   3.691   4.655 -0.6369 -0.2040 -0.1066
 2864SOL    MW411456   2.873   3.691   4.644 -0.6890 -0.6143 -0.5235
 2865SOL     OW11457   3.343   3.760   4.641 -0.0763 -0.4741 -0.4237
 2865SOL    HW211458   3.357   3.665   4.637 -1.8452 -0.8579  1.6040
 2865SOL    HW311459   3.357   3.783   4.733 -1.2562  0.9472 -0.5769
 2865SOL    MW411460   3.347   3.750   4.653 -0.4654 -0.3372 -0.1764
 2866SOL     OW11461   3.845   3.747   4.719  1.1043  0.1390  0.2647
 2866SOL    HW211462   3.884   3.699   4.793  0.0061  0.0764  0.8194
 2866SOL    HW311463   3.796   3.680   4.671  0.0097  0.5857  0.7341
 2866SOL    MW411464   3.844   3.732   4.722  0.8150  0.1896  0.3998
 2867SOL     OW11465   2.487   3.362   4.553 -0.1302 -0.2201  0.1865
 2867SOL    HW211466   2.504   3.456   4.555 -0.5937 -0.1611  1.3515
 2867SOL    HW311467   2.574   3.322   4.549  0.1183  0.2250  0.9674
 2867SOL    MW411468   2.500   3.369   4.553 -0.1586 -0.1536  0.4433
 2868SOL     OW11469   2.703   4.163   4.533  0.3144  0.1035  0.2383
 2868SOL    HW211470   2.635   4.203   4.587 -0.0134 -0.0368 -0.0718
 2868SOL    HW311471   2.679   4.186   4.443  0.3432 -0.4551  0.0878
 2868SOL    MW411472   2.691   4.171   4.528  0.2750  0.0113  0.1776
 2869SOL     OW11473   2.909   4.309   4.635  0.8626  0.1122  0.0972
 2869SOL    HW211474   2.838   4.250   4.608  1.0154 -0.6138  1.2559
 2869SOL    HW311475   2.891   4.391   4.589  0.6256 -0.8140 -1.5206
 2869SOL    MW411476   2.897   4.312   4.625  0.8515 -0.1058  0.0366
 2870SOL     OW11477   3.339   0.413   4.548  0.3221 -0.0409  0.2602
 2870SOL    HW211478   3.370   0.412   4.457  2.1690 -0.5425  0.8713
 2870SOL    HW311479   3.341   0.505   4.573 -0.2109  0.1031 -0.1964
 2870SOL    MW411480   3.343   0.425   4.539  0.4954 -0.0881  0.2806
 2871SOL     OW11481   2.496   0.466   4.726  0.3194 -0.0900  0.3186
 2871SOL    HW211482   2.559   0.437   4.660  0.0529  0.0439  0.0060
 2871SOL    HW311483   2.498   0.562   4.721 -0.3241 -0.0954 -0.0799
 2871SOL    MW411484   2.505   0.475   4.717  0.1994 -0.0731  0.2248
 2872SOL     OW11485   2.456   0.962   4.827 -0.1137 -0.6677  0.1944
 2872SOL    HW211486   2.478   0.882   4.779  0.0735 -1.1102  1.0049
 2872SOL    HW311487   2.539   0.989   4.866 -0.6897 -1.5918  2.1511
 2872SOL    MW411488   2.470   0.955   4.826 -0.1650 -0.8480  0.5595
 2873SOL     OW11489   2.663   0.379   4.534  0.2172  0.5922  0.0099
 2873SOL    HW211490   2.675   0.284   4.540  0.4338  0.6799  1.1877
 2873SOL    HW311491   2.751   0.414   4.546  0.1696  0.9392 -0.6461
 2873SOL    MW411492   2.676   0.371   4.536  0.2395  0.6496  0.0788
 2874SOL     OW11493   3.351   0.687   4.633  0.3071  0.5759 -0.0796
 2874SOL    HW211494   3.409   0.749   4.589  1.5807 -0.4266  0.1369
 2874SOL    HW311495   3.398   0.661   4.712 -0.8056  0.3623  0.5277
 2874SOL    MW411496   3.365   0.692   4.638  0.3283  0.4154  0.0291
 2875SOL     OW11497   3.361   1.041   4.487  0.3637  0.0283  0.3835
 2875SOL    HW211498   3.394   1.112   4.432  0.5904 -1.1084 -0.9700
 2875SOL    HW311499   3.440   0.997   4.518  0.2099  0.0374  0.7905
 2875SOL    MW411500   3.376   1.045   4.484  0.3733 -0.1204  0.2586
 2876SOL     OW11501   3.084   1.699   4.561 -0.3908  0.1562  0.2393
 2876SOL    HW211502   2.997   1.735   4.549 -0.1703  0.6311  0.0418
 2876SOL    HW311503   3.142   1.775   4.562  0.1459 -0.2269 -0.8666
 2876SOL    MW411504   3.080   1.714   4.559 -0.2909  0.1683  0.0673
 2877SOL     OW11505   4.001   1.119   4.689 -0.1814  0.3961  0.2260
 2877SOL    HW211506   4.058   1.130   4.766  0.4683  0.1340 -0.2061
 2877SOL    HW311507   4.017   1.029   4.661 -1.6503 -0.0308  0.7554
 2877SOL    MW411508   4.011   1.108   4.696 -0.2895  0.3052  0.2388
 2878SOL     OW11509   3.340   1.577   4.917 -0.1389  0.2209  0.2436
 2878SOL    HW211510   3.378   1.490   4.904 -1.5446 -0.3444 -0.2017
 2878SOL    HW311511   3.248   1.567   4.893 -0.4742  1.6709  0.8405
 2878SOL    MW411512   3.333   1.564   4.912 -0.3686  0.3376  0.2636
 2879SOL     OW11513   3.445   1.765   4.725 -0.0991  0.1187  0.0663
 2879SOL    HW211514   3.389   1.842   4.713  0.8249  1.0052  1.2944
 2879SOL    HW311515   3.398   1.711   4.788  1.2031  1.6809  2.4287
 2879SOL    MW411516   3.431   1.768   4.732  0.1946  0.4418  0.5400
 2880SOL     OW11517   3.231   1.924   4.616  0.1836  0.0829 -0.1213
 2880SOL    HW211518   3.174   1.995   4.643 -0.4568 -0.5791  0.2882
 2880SOL    HW311519   3.283   1.960   4.544 -0.0542  0.9898  0.1660
 2880SOL    MW411520   3.230   1.938   4.610  0.0677  0.1152 -0.0294
 2881SOL     OW11521   3.803   2.059   4.809 -0.2011  0.1922  0.2120
 2881SOL    HW211522   3.742   2.016   4.869  0.0703  2.0254  1.8511
 2881SOL    HW311523   3.752   2.130   4.770  0.4550  0.8272  0.4929
 2881SOL    MW411524   3.788   2.063   4.812 -0.0787  0.5178  0.4653
 2882SOL     OW11525   2.877   2.604   4.507  0.2196 -0.2854 -0.6126
 2882SOL    HW211526   2.840   2.645   4.586  0.4563 -0.6237 -0.3238
 2882SOL    HW311527   2.970   2.593   4.527 -0.2073 -2.9351  0.1907
 2882SOL    MW411528   2.884   2.608   4.520  0.1945 -0.6796 -0.4685
 2883SOL     OW11529   3.482   2.393   4.524  0.3647 -0.1291 -0.0538
 2883SOL    HW211530   3.395   2.356   4.539 -0.0212  1.7602  2.5847
 2883SOL    HW311531   3.476   2.483   4.555  3.0261  0.2835 -0.6237
 2883SOL    MW411532   3.470   2.400   4.530  0.6649  0.1746  0.2191
 2884SOL     OW11533   3.224   2.316   4.556  0.0918  0.0729  0.0970
 2884SOL    HW211534   3.177   2.338   4.476 -0.8844  1.9191  1.1459
 2884SOL    HW311535   3.173   2.246   4.596 -0.7789  0.8129  0.3043
 2884SOL    MW411536   3.211   2.310   4.551 -0.1519  0.4142  0.2628
 2885SOL     OW11537   3.484   2.642   4.639  0.1167  0.1067 -0.5067
 2885SOL    HW211538   3.578   2.655   4.637 -0.0972  1.7060 -0.3400
 2885SOL    HW311539   3.463   2.623   4.730  0.2350  0.0361 -0.4950
 2885SOL    MW411540   3.493   2.641   4.651  0.1041  0.3084 -0.4831
 2886SOL     OW11541   3.172   3.058   4.515 -0.0898  0.4538  0.1761
 2886SOL    HW211542   3.211   2.971   4.512 -0.5742  0.2431 -0.0542
 2886SOL    HW311543   3.169   3.086   4.424 -0.8959  0.2762  0.1411
 2886SOL    MW411544   3.177   3.050   4.502 -0.2600  0.4026  0.1411
 2887SOL     OW11545   3.301   2.814   4.518  0.1541 -0.1950 -0.1892
 2887SOL    HW211546   3.321   2.807   4.424  0.7725 -0.0197 -0.0694
 2887SOL    HW311547   3.376   2.774   4.561  0.9120  1.7382  0.3127
 2887SOL    MW411548   3.313   2.807   4.511  0.3357  0.0832 -0.1072
 2888SOL     OW11549   3.916   2.446   4.557 -0.2445 -0.5933  0.3116
 2888SOL    HW211550   3.869   2.388   4.617  1.3571 -0.9098  1.3010
 2888SOL    HW311551   3.996   2.469   4.604  0.2545  0.5044 -1.0473
 2888SOL    MW411552   3.920   2.441   4.571  0.0326 -0.4903  0.2629
 2889SOL     OW11553   3.636   3.163   4.526 -0.2119 -0.1572  0.3131
 2889SOL    HW211554   3.703   3.218   4.566  0.6004 -1.8257  1.3187
 2889SOL    HW311555   3.637   3.187   4.433  0.6780  0.9343  0.6002
 2889SOL    MW411556   3.645   3.173   4.519  0.0127 -0.2334  0.4837
 2890SOL     OW11557   3.424   4.022   4.558 -0.5777  0.1505  0.3778
 2890SOL    HW211558   3.498   4.026   4.619  0.2846 -0.3430 -0.6142
 2890SOL    HW311559   3.401   3.930   4.554 -1.2144  0.2935  0.6281
 2890SOL    MW411560   3.431   4.011   4.565 -0.5480  0.1043  0.2799
 2891SOL     OW11561   3.217   3.996   4.832 -0.1596 -0.4034 -0.1389
 2891SOL    HW211562   3.195   4.067   4.771 -0.1220 -0.2306  0.0487
 2891SOL    HW311563   3.148   3.997   4.897  0.0563 -0.2765  0.0900
 2891SOL    MW411564   3.205   4.006   4.832 -0.1261 -0.3639 -0.0839
 2892SOL     OW11565   3.144   4.164   4.587  0.0176 -0.2128  0.0887
 2892SOL    HW211566   3.122   4.071   4.574 -1.1489 -0.1373  1.3703
 2892SOL    HW311567   3.059   4.207   4.598  0.6308  0.7539  1.0771
 2892SOL    MW411568   3.130   4.157   4.587 -0.0554 -0.0753  0.3882
 2893SOL     OW11569   3.412   4.326   4.565  0.3075 -0.1531  0.3128
 2893SOL    HW211570   3.384   4.234   4.566  0.4313 -0.1895  1.7773
 2893SOL    HW311571   3.507   4.321   4.553  0.2644 -0.1999 -0.0128
 2893SOL    MW411572   3.421   4.313   4.563  0.3182 -0.1641  0.4630
 2894SOL     OW11573   3.652   3.970   4.760  0.0603 -0.1120  0.3319
 2894SOL    HW211574   3.712   3.898   4.738  0.3134 -0.2011  1.2951
 2894SOL    HW311575   3.581   3.928   4.808  0.6740  0.4172  1.7051
 2894SOL    MW411576   3.651   3.955   4.763  0.1747 -0.0540  0.6402
 2895SOL     OW11577   3.616   0.109   4.803 -0.2610  0.3115 -0.0905
 2895SOL    HW211578   3.653   0.142   4.885 -1.4142  0.8386  0.2254
 2895SOL    HW311579   3.537   0.060   4.830  0.4100 -1.1554 -0.7117
 2895SOL    MW411580   3.610   0.107   4.818 -0.3246  0.1875 -0.1307
 2896SOL     OW11581   3.076   0.715   4.678 -0.2713  0.1885  0.4354
 2896SOL    HW211582   3.055   0.798   4.634  0.3645 -0.3241 -0.8504
 2896SOL    HW311583   3.170   0.705   4.667 -0.4764 -1.1405 -0.2024
 2896SOL    MW411584   3.086   0.725   4.671 -0.2145 -0.0545  0.1816
 2897SOL     OW11585   3.093   0.968   4.552 -0.1335  0.0021 -0.1783
 2897SOL    HW211586   3.182   1.001   4.538  0.1679 -0.3549  0.8483
 2897SOL    HW311587   3.043   1.045   4.580  0.3506 -0.2091  1.3033
 2897SOL    MW411588   3.098   0.982   4.554 -0.0298 -0.0729  0.1526
 2898SOL     OW11589   4.188   1.346   4.620 -0.1711  0.0472 -0.2293
 2898SOL    HW211590   4.139   1.268   4.646 -0.0104  0.2767  0.7919
 2898SOL    HW311591   4.274   1.335   4.662 -1.0225  2.0310  2.2005
 2898SOL    MW411592   4.193   1.334   4.629 -0.2622  0.3392  0.2260
 2899SOL     OW11593   3.716   1.096   4.676 -0.3071  0.0788 -0.0731
 2899SOL    HW211594   3.684   1.185   4.661 -0.9134 -0.4094 -1.8686
 2899SOL    HW311595   3.811   1.104   4.676 -0.3846  1.0172  1.7113
 2899SOL    MW411596   3.724   1.109   4.674 -0.3973  0.1382 -0.0746
 2900SOL     OW11597   4.044   0.853   4.597  0.4416  0.5759  0.4457
 2900SOL    HW211598   4.110   0.800   4.642  0.2479 -1.2049 -1.3387
 2900SOL    HW311599   4.076   0.861   4.507 -0.8181  1.3371  0.0515
 2900SOL    MW411600   4.057   0.847   4.591  0.2499  0.4414  0.1583
 2901SOL     OW11601   4.287   0.469   4.595  0.5171  0.5193 -0.2004
 2901SOL    HW211602   4.217   0.410   4.622  2.3847 -1.4811  0.3643
 2901SOL    HW311603   4.280   0.472   4.499  0.3241 -0.5084 -0.2222
 2901SOL    MW411604   4.277   0.462   4.586  0.7381  0.1198 -0.1288
 2902SOL     OW11605   3.591   1.621   4.532  0.2550  0.4078 -0.0643
 2902SOL    HW211606   3.678   1.653   4.554  0.6235  0.3565 -1.4048
 2902SOL    HW311607   3.532   1.670   4.589  1.2085  0.0057  1.2744
 2902SOL    MW411608   3.594   1.632   4.542  0.4294  0.3480 -0.0646
 2903SOL     OW11609   3.844   1.656   4.641 -0.2261  0.2990 -0.4164
 2903SOL    HW211610   3.857   1.619   4.729  1.4472 -0.3383 -0.9235
 2903SOL    HW311611   3.930   1.649   4.599 -0.9579  0.8428 -2.0211
 2903SOL    MW411612   3.857   1.650   4.647 -0.1019  0.2866 -0.6951
 2904SOL     OW11613   3.634   1.874   4.944 -0.2351 -0.7784  0.4997
 2904SOL    HW211614   3.673   1.808   5.002  2.9558 -1.4105 -2.2288
 2904SOL    HW311615   3.583   1.823   4.881 -0.3638 -0.4178  0.3100
 2904SOL    MW411616   3.632   1.858   4.943  0.1689 -0.8142  0.1146
 2905SOL     OW11617   4.162   2.254   4.695  0.4989 -0.2013  0.3749
 2905SOL    HW211618   4.250   2.218   4.700  0.2837 -0.6204  1.3914
 2905SOL    HW311619   4.174   2.348   4.683  1.0867 -0.2018  0.9652
 2905SOL    MW411620   4.175   2.262   4.694  0.5480 -0.2567  0.5869
 2906SOL     OW11621   4.452   1.645   4.296 -0.1154  0.0136  0.1225
 2906SOL    HW211622   4.456   1.734   4.261 -0.9812  0.1988  0.4707
 2906SOL    HW311623   4.371   1.608   4.259 -0.9608  0.1517  1.7599
 2906SOL    MW411624   4.442   1.652   4.286 -0.3412  0.0563  0.3845
 2907SOL     OW11625   4.039   2.163   4.923  0.1991 -0.1328 -0.4887
 2907SOL    HW211626   4.084   2.195   4.844  1.6405 -1.0269 -0.0460
 2907SOL    HW311627   3.957   2.127   4.890  0.9838 -0.9031 -1.6453
 2907SOL    MW411628   4.034   2.163   4.908  0.4928 -0.3524 -0.5829
 2908SOL     OW11629   3.752   2.683   4.623 -0.7935  0.3317  0.1745
 2908SOL    HW211630   3.804   2.618   4.577 -0.0744  0.9689  0.0698
 2908SOL    HW311631   3.773   2.766   4.580 -0.9200  0.7767  0.9542
 2908SOL    MW411632   3.762   2.685   4.612 -0.7153  0.4745  0.2636
 2909SOL     OW11633   3.772   2.923   4.487  0.0997 -0.6804  0.3968
 2909SOL    HW211634   3.857   2.951   4.519 -0.1503 -0.3422  0.7672
 2909SOL    HW311635   3.716   3.001   4.494 -0.0716 -0.7219 -0.4422
 2909SOL    MW411636   3.776   2.937   4.492  0.0441 -0.6413  0.3350
 2910SOL     OW11637   4.036   2.959   4.594 -0.9149  0.0568 -0.2519
 2910SOL    HW211638   4.043   2.948   4.689 -0.5641  2.1535 -0.0137
 2910SOL    HW311639   4.094   2.893   4.557  0.8419  0.8202  1.0671
 2910SOL    MW411640   4.044   2.949   4.601 -0.6368  0.4342 -0.0464
 2911SOL     OW11641   3.377   3.232   4.600  0.4516  0.2106 -0.2720
 2911SOL    HW211642   3.314   3.166   4.573  0.1637  0.6931 -0.7907
 2911SOL    HW311643   3.462   3.198   4.571  0.2275  0.3850 -1.1365
 2911SOL    MW411644   3.380   3.219   4.593  0.3841  0.2973 -0.4545
 2912SOL     OW11645   3.866   3.315   4.635 -0.1817 -0.1937 -0.0577
 2912SOL    HW211646   3.875   3.319   4.730 -0.9500  1.1522 -0.0210
 2912SOL    HW311647   3.956   3.314   4.602  0.1379  2.3738  0.6099
 2912SOL    MW411648   3.879   3.316   4.643 -0.2409  0.3226  0.0352
 2913SOL     OW11649   3.426   3.498   4.568 -0.4114 -0.2385  0.3433
 2913SOL    HW211650   3.397   3.407   4.564  0.4005 -0.4234 -2.0315
 2913SOL    HW311651   3.520   3.492   4.583 -0.5489  0.2567  1.4888
 2913SOL    MW411652   3.435   3.486   4.569 -0.3224 -0.1975  0.1811
 2914SOL     OW11653   3.714   3.537   4.567 -0.2201 -0.4940 -0.3981
 2914SOL    HW211654   3.757   3.563   4.486 -0.9050  0.8622 -0.3258
 2914SOL    HW311655   3.765   3.461   4.597  0.1398 -0.9047 -1.9886
 2914SOL    MW411656   3.726   3.530   4.561 -0.2630 -0.3693 -0.5984
 2915SOL     OW11657   0.076   2.994   4.712 -0.2425 -0.0951 -0.8094
 2915SOL    HW211658   0.046   3.085   4.714 -0.3552 -0.1617  1.1859
 2915SOL    HW311659   0.171   2.999   4.724 -0.0626 -0.1871 -2.0552
 2915SOL    MW411660   0.085   3.007   4.714 -0.2337 -0.1160 -0.7105
 2916SOL     OW11661   4.037   3.882   4.595 -0.2380 -0.0514  0.0894
 2916SOL    HW211662   4.044   3.969   4.634  0.4581 -0.2949  0.5053
 2916SOL    HW311663   3.969   3.838   4.646  0.4245 -0.2493  0.8020
 2916SOL    MW411664   4.029   3.888   4.607 -0.0588 -0.1097  0.2383
 2917SOL     OW11665   3.685   4.369   4.533 -0.4564  0.0580 -0.2556
 2917SOL    HW211666   3.721   4.366   4.445 -1.8451  1.0683 -0.8672
 2917SOL    HW311667   3.714   4.452   4.569  0.0703 -0.3321  0.2422
 2917SOL    MW411668   3.694   4.379   4.526 -0.5701  0.1398 -0.2706
 2918SOL     OW11669   3.231   4.532   4.617  0.2264  0.2269  0.2097
 2918SOL    HW211670   3.272   4.450   4.591  1.0665  0.4824  0.7044
 2918SOL    HW311671   3.276   4.557   4.698 -0.7869  0.6041  0.6678
 2918SOL    MW411672   3.242   4.524   4.624  0.2036  0.3104  0.3354
 2919SOL     OW11673   3.579   0.894   4.544 -0.1320  0.0289 -0.1718
 2919SOL    HW211674   3.624   0.969   4.583  0.9820 -1.0385  0.6781
 2919SOL    HW311675   3.599   0.899   4.451  0.4284  0.4814 -0.0314
 2919SOL    MW411676   3.588   0.904   4.537  0.0889 -0.0522 -0.0411
 2920SOL     OW11677   3.780   0.730   4.641  0.0729  0.3084 -0.1349
 2920SOL    HW211678   3.859   0.782   4.632 -0.0974  0.8801  1.4654
 2920SOL    HW311679   3.712   0.782   4.597  0.0229  1.1663  0.9455
 2920SOL    MW411680   3.781   0.744   4.634  0.0438  0.4970  0.2188
 2921SOL     OW11681   0.048   0.372   4.585 -0.4023  0.3873 -0.1300
 2921SOL    HW211682  -0.041   0.407   4.583 -0.0049  1.4224 -0.1393
 2921SOL    HW311683   0.104   0.447   4.565  0.4445 -0.3670 -0.6690
 2921SOL    MW411684   0.044   0.386   4.582 -0.2382  0.4244 -0.2023
 2922SOL     OW11685   0.227   0.639   4.542  0.0202  0.3732  0.1594
 2922SOL    HW211686   0.310   0.621   4.586  0.0952 -1.8022 -0.8084
 2922SOL    HW311687   0.246   0.626   4.449 -1.6956 -1.4483  0.0291
 2922SOL    MW411688   0.240   0.635   4.536 -0.1963 -0.1541  0.0145
 2923SOL     OW11689   4.069   0.317   4.676  0.0776  0.3869  0.0113
 2923SOL    HW211690   4.050   0.224   4.665 -0.6431  0.1448  2.7773
 2923SOL    HW311691   3.992   0.362   4.640  0.3310 -0.0962 -1.1310
 2923SOL    MW411692   4.056   0.311   4.670  0.0160  0.2912  0.2255
 2924SOL     OW11693   3.613   1.345   4.561 -0.1011 -0.2674 -0.3142
 2924SOL    HW211694   3.692   1.326   4.509 -0.4460 -1.3750 -0.4416
 2924SOL    HW311695   3.607   1.440   4.560  1.3172 -0.1558 -0.1971
 2924SOL    MW411696   3.623   1.355   4.554  0.0405 -0.3988 -0.3156
 2925SOL     OW11697   4.460   1.011   4.785  0.3941  0.0732 -0.3003
 2925SOL    HW211698   4.484   0.978   4.698  0.9930 -0.4035  0.0391
 2925SOL    HW311699   4.390   0.952   4.814 -0.7232  1.0390 -1.0020
 2925SOL    MW411700   4.454   0.999   4.778  0.3258  0.1377 -0.3481
 2926SOL     OW11701   0.009   1.667   4.563 -0.0080  0.1043  0.0218
 2926SOL    HW211702  -0.073   1.697   4.604 -0.6477 -1.0567 -0.3829
 2926SOL    HW311703  -0.014   1.654   4.471  1.0057  1.1204 -0.3820
 2926SOL    MW411704  -0.005   1.669   4.556  0.0414  0.0852 -0.0849
 2927SOL     OW11705   4.090   1.604   4.544 -0.2849  0.1836 -0.0964
 2927SOL    HW211706   4.114   1.514   4.567 -0.9511  0.0547  0.0920
 2927SOL    HW311707   4.156   1.658   4.588 -1.5131 -0.0658  2.0880
 2927SOL    MW411708   4.102   1.599   4.553 -0.5349  0.1337  0.2166
 2928SOL     OW11709   3.140   2.591   4.610 -0.4943 -0.0151 -0.5373
 2928SOL    HW211710   3.222   2.638   4.595 -0.9629  1.1209  0.3858
 2928SOL    HW311711   3.162   2.499   4.594  0.9899  0.2637 -0.1826
 2928SOL    MW411712   3.153   2.585   4.606 -0.3603  0.1716 -0.3687
 2929SOL     OW11713   4.240   2.077   4.276  0.0703 -0.8725 -0.1087
 2929SOL    HW211714   4.179   2.040   4.213 -1.7402  2.6493 -0.5353
 2929SOL    HW311715   4.199   2.061   4.361 -2.3941  2.9699 -0.4911
 2929SOL    MW411716   4.227   2.070   4.279 -0.4938  0.0992 -0.2154
 2930SOL     OW11717   4.137   2.020   4.517 -0.1765  0.0362 -0.0191
 2930SOL    HW211718   4.142   2.102   4.567 -2.9855  0.8064 -0.8850
 2930SOL    HW311719   4.057   1.977   4.549 -0.1449 -1.0941 -1.4032
 2930SOL    MW411720   4.127   2.025   4.528 -0.5429 -0.0113 -0.3160
 2931SOL     OW11721   3.861   1.957   4.566 -0.2846  0.0357  0.0437
 2931SOL    HW211722   3.834   1.866   4.579  0.3528 -0.1386  0.1848
 2931SOL    HW311723   3.844   2.000   4.649  1.7352 -0.5536  0.7922
 2931SOL    MW411724   3.855   1.950   4.579  0.0660 -0.0651  0.1611
 2932SOL     OW11725   3.704   2.330   4.715  0.3845  0.1225  0.0041
 2932SOL    HW211726   3.636   2.373   4.663  1.2654  0.9630 -0.4788
 2932SOL    HW311727   3.696   2.368   4.802 -0.5812 -0.7072  0.2797
 2932SOL    MW411728   3.694   2.341   4.719  0.3733  0.1239 -0.0233
 2933SOL     OW11729   4.218   2.697   4.903 -0.2128  0.4359 -0.4224
 2933SOL    HW211730   4.302   2.717   4.863 -1.0650 -0.4770 -2.7745
 2933SOL    HW311731   4.166   2.777   4.890 -0.2250  0.4349 -0.3815
 2933SOL    MW411732   4.222   2.710   4.896 -0.3269  0.3153 -0.7274
 2934SOL     OW11733   4.267   2.781   4.569  0.0589  1.0092 -0.0782
 2934SOL    HW211734   4.344   2.776   4.626 -0.4784  0.6642  0.6256
 2934SOL    HW311735   4.301   2.768   4.481  0.6331 -0.5100  0.3548
 2934SOL    MW411736   4.282   2.779   4.565  0.0638  0.7632  0.0718
 2935SOL     OW11737   4.145   3.228   4.568 -0.4747  0.0567  0.2712
 2935SOL    HW211738   4.111   3.243   4.480  1.0601 -0.5209 -0.4326
 2935SOL    HW311739   4.119   3.138   4.590  0.8610 -0.4937 -0.3907
 2935SOL    MW411740   4.137   3.218   4.560 -0.0960 -0.0921  0.0910
 2936SOL     OW11741   0.200   3.561   4.599 -0.0013 -0.1921  0.2083
 2936SOL    HW211742   0.240   3.578   4.514 -0.8556 -1.8108 -0.5349
 2936SOL    HW311743   0.112   3.597   4.592 -0.1807 -0.6118  0.2992
 2936SOL    MW411744   0.194   3.568   4.587 -0.1377 -0.4611  0.1223
 2937SOL     OW11745   4.098   4.137   4.724 -0.1469  0.0613 -0.5559
 2937SOL    HW211746   4.115   4.133   4.818  0.6654  0.1771 -0.6960
 2937SOL    HW311747   4.009   4.173   4.718 -1.3590 -2.6599  0.2208
 2937SOL    MW411748   4.088   4.142   4.736 -0.1996 -0.2825 -0.4719
 2938SOL     OW11749   3.757   4.644   4.611  0.1480  0.1879  0.7182
 2938SOL    HW211750   3.709   4.700   4.671 -1.6784 -0.1021 -0.4303
 2938SOL    HW311751   3.737   4.678   4.524  2.3531  0.2977  0.2158
 2938SOL    MW411752   3.748   4.656   4.608  0.1980  0.1642  0.5003
 2939SOL     OW11753   4.212   3.562   4.883  0.7433 -0.1329 -0.2899
 2939SOL    HW211754   4.233   3.639   4.829 -0.1616  0.9642  0.8727
 2939SOL    HW311755   4.254   3.489   4.838  1.4054  1.0026 -1.5730
 2939SOL    MW411756   4.221   3.563   4.870  0.7112  0.1616 -0.3058
 2940SOL     OW11757   3.576   0.368   4.699 -0.2253 -0.2213  0.3041
 2940SOL    HW211758   3.490   0.382   4.660  0.1047 -0.3998 -0.4838
 2940SOL    HW311759   3.571   0.279   4.735  0.1102 -0.7651 -0.9866
 2940SOL    MW411760   3.564   0.358   4.699 -0.1375 -0.3166  0.0299
 2941SOL     OW11761   4.197   4.335   4.305 -0.0652  0.3307  0.3983
 2941SOL    HW211762   4.284   4.302   4.283  0.3308  2.3366 -1.1531
 2941SOL    HW311763   4.199   4.346   4.400  0.9401 -0.8120  0.5184
 2941SOL    MW411764   4.209   4.332   4.315  0.1197  0.4446  0.2095
   4.49070   4.66690  10.00000
