Written by MDAnalysis
11764
    1DMSO    SD    1   4.102   4.243   5.728
    1DMSO   CD1    2   3.976   4.202   5.850
    1DMSO    OD    3   4.037   4.339   5.628
    1DMSO   CD2    4   4.207   4.344   5.836
    1DMSO    SD    5   4.102   3.281   5.728
    1DMSO   CD1    6   3.936   3.215   5.750
    1DMSO    OD    7   4.086   3.423   5.672
    1DMSO   CD2    8   4.143   3.299   5.903
    1DMSO    SD    9   4.102   2.319   5.728
    1DMSO   CD1   10   4.249   2.411   5.778
    1DMSO    OD   11   4.083   2.346   5.578
    1DMSO   CD2   12   4.173   2.154   5.742
    1DMSO    SD   13   4.102   1.358   5.728
    1DMSO   CD1   14   4.211   1.501   5.733
    1DMSO    OD   15   3.967   1.406   5.675
    1DMSO   CD2   16   4.184   1.272   5.591
    1DMSO    SD   17   4.102   0.396   5.728
    1DMSO   CD1   18   4.246   0.396   5.837
    1DMSO    OD   19   4.133   0.297   5.615
    1DMSO   CD2   20   3.988   0.312   5.840
    1DMSO    SD   21   3.173   4.243   5.728
    1DMSO   CD1   22   3.345   4.189   5.732
    1DMSO    OD   23   3.125   4.226   5.583
    1DMSO   CD2   24   3.103   4.106   5.822
    1DMSO    SD   25   3.173   3.281   5.728
    1DMSO   CD1   26   3.046   3.299   5.602
    1DMSO    OD   27   3.181   3.415   5.803
    1DMSO   CD2   28   3.083   3.167   5.836
    1DMSO    SD   29   3.173   2.319   5.728
    1DMSO   CD1   30   3.123   2.479   5.663
    1DMSO    OD   31   3.178   2.334   5.881
    1DMSO   CD2   32   3.021   2.230   5.689
    1DMSO    SD   33   3.173   1.358   5.728
    1DMSO   CD1   34   3.016   1.282   5.685
    1DMSO    OD   35   3.157   1.508   5.705
    1DMSO   CD2   36   3.163   1.332   5.907
    1DMSO    SD   37   3.173   0.396   5.728
    1DMSO   CD1   38   3.020   0.369   5.819
    1DMSO    OD   39   3.151   0.520   5.641
    1DMSO   CD2   40   3.275   0.448   5.868
    1DMSO    SD   41   2.244   4.243   5.728
    1DMSO   CD1   42   2.089   4.334   5.722
    1DMSO    OD   43   2.352   4.343   5.773
    1DMSO   CD2   44   2.206   4.141   5.872
    1DMSO    SD   45   2.244   3.281   5.728
    1DMSO   CD1   46   2.415   3.338   5.730
    1DMSO    OD   47   2.189   3.310   5.588
    1DMSO   CD2   48   2.279   3.104   5.734
    1DMSO    SD   49   2.244   2.319   5.728
    1DMSO   CD1   50   2.380   2.328   5.845
    1DMSO    OD   51   2.282   2.214   5.624
    1DMSO   CD2   52   2.124   2.242   5.838
    1DMSO    SD   53   2.244   1.358   5.728
    1DMSO   CD1   54   2.138   1.501   5.754
    1DMSO    OD   55   2.378   1.389   5.796
    1DMSO   CD2   56   2.156   1.244   5.838
    1DMSO    SD   57   2.244   0.396   5.728
    1DMSO   CD1   58   2.066   0.393   5.702
    1DMSO    OD   59   2.286   0.543   5.731
    1DMSO   CD2   60   2.243   0.339   5.900
    1DMSO    SD   61   1.315   4.243   5.728
    1DMSO   CD1   62   1.335   4.389   5.831
    1DMSO    OD   63   1.299   4.124   5.823
    1DMSO   CD2   64   1.150   4.282   5.666
    1DMSO    SD   65   1.315   3.281   5.728
    1DMSO   CD1   66   1.176   3.281   5.614
    1DMSO    OD   67   1.324   3.423   5.786
    1DMSO   CD2   68   1.239   3.178   5.856
    1DMSO    SD   69   1.315   2.319   5.728
    1DMSO   CD1   70   1.276   2.454   5.615
    1DMSO    OD   71   1.282   2.369   5.869
    1DMSO   CD2   72   1.180   2.209   5.679
    1DMSO    SD   73   1.315   1.358   5.728
    1DMSO   CD1   74   1.167   1.444   5.672
    1DMSO    OD   75   1.395   1.458   5.811
    1DMSO   CD2   76   1.234   1.246   5.845
    1DMSO    SD   77   1.315   0.396   5.728
    1DMSO   CD1   78   1.414   0.447   5.869
    1DMSO    OD   79   1.376   0.265   5.676
    1DMSO   CD2   80   1.166   0.351   5.819
    1DMSO    SD   81   0.386   4.243   5.728
    1DMSO   CD1   82   0.417   4.358   5.593
    1DMSO    OD   83   0.280   4.309   5.818
    1DMSO   CD2   84   0.299   4.117   5.631
    1DMSO    SD   85   0.386   3.281   5.728
    1DMSO   CD1   86   0.478   3.385   5.843
    1DMSO    OD   87   0.479   3.253   5.609
    1DMSO   CD2   88   0.384   3.131   5.829
    1DMSO    SD   89   0.386   2.319   5.728
    1DMSO   CD1   90   0.387   2.497   5.697
    1DMSO    OD   91   0.326   2.300   5.868
    1DMSO   CD2   92   0.256   2.276   5.610
    1DMSO    SD   93   0.386   1.358   5.728
    1DMSO   CD1   94   0.409   1.503   5.832
    1DMSO    OD   95   0.339   1.244   5.820
    1DMSO   CD2   96   0.239   1.416   5.640
    1DMSO    SD   97   0.386   0.396   5.728
    1DMSO   CD1   98   0.248   0.443   5.622
    1DMSO    OD   99   0.419   0.519   5.814
    1DMSO   CD2  100   0.295   0.282   5.835
    1DMSO    SD  101   4.180   4.323   5.198
    1DMSO   CD1  102   4.195   4.428   5.344
    1DMSO    OD  103   4.031   4.289   5.184
    1DMSO   CD2  104   4.215   4.450   5.074
    1DMSO    SD  105   4.180   3.522   5.198
    1DMSO   CD1  106   4.198   3.568   5.371
    1DMSO    OD  107   4.059   3.428   5.190
    1DMSO   CD2  108   4.125   3.683   5.137
    1DMSO    SD  109   4.180   2.720   5.198
    1DMSO   CD1  110   4.146   2.742   5.023
    1DMSO    OD  111   4.113   2.838   5.271
    1DMSO   CD2  112   4.074   2.576   5.225
    1DMSO    SD  113   4.180   1.919   5.198
    1DMSO   CD1  114   4.252   1.910   5.034
    1DMSO    OD  115   4.063   2.017   5.189
    1DMSO   CD2  116   4.108   1.753   5.200
    1DMSO    SD  117   4.180   1.117   5.198
    1DMSO   CD1  118   4.211   1.247   5.319
    1DMSO    OD  119   4.317   1.068   5.149
    1DMSO   CD2  120   4.118   0.992   5.313
    1DMSO    SD  121   4.180   0.316   5.198
    1DMSO   CD1  122   4.259   0.198   5.087
    1DMSO    OD  123   4.073   0.389   5.116
    1DMSO   CD2  124   4.093   0.195   5.301
    1DMSO    SD  125   3.406   4.323   5.198
    1DMSO   CD1  126   3.382   4.496   5.153
    1DMSO    OD  127   3.381   4.314   5.349
    1DMSO   CD2  128   3.257   4.258   5.118
    1DMSO    SD  129   3.406   3.522   5.198
    1DMSO   CD1  130   3.386   3.489   5.374
    1DMSO    OD  131   3.274   3.480   5.130
    1DMSO   CD2  132   3.403   3.702   5.208
    1DMSO    SD  133   3.406   2.720   5.198
    1DMSO   CD1  134   3.374   2.759   5.025
    1DMSO    OD  135   3.340   2.831   5.281
    1DMSO   CD2  136   3.297   2.576   5.210
    1DMSO    SD  137   3.406   1.919   5.198
    1DMSO   CD1  138   3.422   2.060   5.308
    1DMSO    OD  139   3.481   1.803   5.264
    1DMSO   CD2  140   3.229   1.889   5.226
    1DMSO    SD  141   3.406   1.117   5.198
    1DMSO   CD1  142   3.423   1.229   5.058
    1DMSO    OD  143   3.311   1.186   5.297
    1DMSO   CD2  144   3.309   0.990   5.114
    1DMSO    SD  145   3.406   0.316   5.198
    1DMSO   CD1  146   3.396   0.324   5.377
    1DMSO    OD  147   3.270   0.265   5.149
    1DMSO   CD2  148   3.408   0.494   5.167
    1DMSO    SD  149   2.631   4.323   5.198
    1DMSO   CD1  150   2.624   4.457   5.318
    1DMSO    OD  151   2.745   4.357   5.101
    1DMSO   CD2  152   2.694   4.196   5.309
    1DMSO    SD  153   2.631   3.522   5.198
    1DMSO   CD1  154   2.679   3.566   5.366
    1DMSO    OD  155   2.571   3.381   5.205
    1DMSO   CD2  156   2.492   3.636   5.182
    1DMSO    SD  157   2.631   2.720   5.198
    1DMSO   CD1  158   2.801   2.685   5.151
    1DMSO    OD  159   2.553   2.745   5.068
    1DMSO   CD2  160   2.588   2.554   5.254
    1DMSO    SD  161   2.631   1.919   5.198
    1DMSO   CD1  162   2.637   1.976   5.027
    1DMSO    OD  163   2.542   2.017   5.275
    1DMSO   CD2  164   2.532   1.771   5.170
    1DMSO    SD  165   2.631   1.117   5.198
    1DMSO   CD1  166   2.619   1.108   5.377
    1DMSO    OD  167   2.498   1.067   5.142
    1DMSO   CD2  168   2.628   1.297   5.184
    1DMSO    SD  169   2.631   0.316   5.198
    1DMSO   CD1  170   2.778   0.404   5.254
    1DMSO    OD  171   2.623   0.336   5.046
    1DMSO   CD2  172   2.694   0.148   5.224
    1DMSO    SD  173   1.857   4.323   5.198
    1DMSO   CD1  174   1.988   4.257   5.302
    1DMSO    OD  175   1.835   4.222   5.085
    1DMSO   CD2  176   1.721   4.301   5.315
    1DMSO    SD  177   1.857   3.522   5.198
    1DMSO   CD1  178   1.919   3.615   5.339
    1DMSO    OD  179   1.928   3.386   5.200
    1DMSO   CD2  180   1.690   3.494   5.261
    1DMSO    SD  181   1.857   2.720   5.198
    1DMSO   CD1  182   1.892   2.844   5.324
    1DMSO    OD  183   1.930   2.592   5.240
    1DMSO   CD2  184   1.682   2.695   5.238
    1DMSO    SD  185   1.857   1.919   5.198
    1DMSO   CD1  186   1.972   1.995   5.313
    1DMSO    OD  187   1.941   1.856   5.086
    1DMSO   CD2  188   1.804   1.783   5.305
    1DMSO    SD  189   1.857   1.117   5.198
    1DMSO   CD1  190   1.905   1.217   5.340
    1DMSO    OD  191   1.879   0.971   5.238
    1DMSO   CD2  192   1.679   1.147   5.208
    1DMSO    SD  193   1.857   0.316   5.198
    1DMSO   CD1  194   1.882   0.439   5.326
    1DMSO    OD  195   1.710   0.273   5.206
    1DMSO   CD2  196   1.870   0.427   5.056
    1DMSO    SD  197   1.082   4.323   5.198
    1DMSO   CD1  198   1.223   4.330   5.310
    1DMSO    OD  199   1.119   4.223   5.088
    1DMSO   CD2  200   0.968   4.239   5.309
    1DMSO    SD  201   1.082   3.522   5.198
    1DMSO   CD1  202   1.111   3.650   5.321
    1DMSO    OD  203   0.965   3.437   5.249
    1DMSO   CD2  204   1.016   3.629   5.068
    1DMSO    SD  205   1.082   2.720   5.198
    1DMSO   CD1  206   1.042   2.733   5.023
    1DMSO    OD  207   1.019   2.842   5.267
    1DMSO   CD2  208   0.977   2.578   5.236
    1DMSO    SD  209   1.082   1.919   5.198
    1DMSO   CD1  210   0.972   2.030   5.286
    1DMSO    OD  211   1.200   2.004   5.149
    1DMSO   CD2  212   1.142   1.826   5.341
    1DMSO    SD  213   1.082   1.117   5.198
    1DMSO   CD1  214   0.998   1.241   5.099
    1DMSO    OD  215   1.103   1.179   5.337
    1DMSO   CD2  216   0.945   1.001   5.212
    1DMSO    SD  217   1.082   0.316   5.198
    1DMSO   CD1  218   1.226   0.407   5.256
    1DMSO    OD  219   1.075   0.337   5.046
    1DMSO   CD2  220   1.149   0.150   5.223
    1DMSO    SD  221   0.308   4.323   5.198
    1DMSO   CD1  222   0.222   4.391   5.340
    1DMSO    OD  223   0.287   4.422   5.082
    1DMSO   CD2  224   0.476   4.350   5.258
    1DMSO    SD  225   0.308   3.522   5.198
    1DMSO   CD1  226   0.333   3.652   5.319
    1DMSO    OD  227   0.381   3.566   5.070
    1DMSO   CD2  228   0.413   3.397   5.276
    1DMSO    SD  229   0.308   2.720   5.198
    1DMSO   CD1  230   0.314   2.692   5.020
    1DMSO    OD  231   0.214   2.839   5.221
    1DMSO   CD2  232   0.215   2.572   5.242
    1DMSO    SD  233   0.308   1.919   5.198
    1DMSO   CD1  234   0.159   1.843   5.132
    1DMSO    OD  235   0.289   2.071   5.186
    1DMSO   CD2  236   0.281   1.877   5.372
    1DMSO    SD  237   0.308   1.117   5.198
    1DMSO   CD1  238   0.481   1.148   5.237
    1DMSO    OD  239   0.298   1.107   5.045
    1DMSO   CD2  240   0.300   0.948   5.262
    1DMSO    SD  241   0.308   0.316   5.198
    1DMSO   CD1  242   0.456   0.376   5.281
    1DMSO    OD  243   0.348   0.285   5.053
    1DMSO   CD2  244   0.297   0.157   5.283
    1SOL     OW  245   0.355   0.147   0.481
    1SOL    HW2  246   0.448   0.161   0.466
    1SOL    HW3  247   0.312   0.218   0.433
    1SOL    MW4  248   0.361   0.158   0.472
    2SOL     OW  249   3.984   0.231   0.489
    2SOL    HW2  250   4.062   0.181   0.469
    2SOL    HW3  251   3.990   0.309   0.433
    2SOL    MW4  252   3.995   0.235   0.479
    3SOL     OW  253   3.790   0.311   0.132
    3SOL    HW2  254   3.714   0.293   0.075
    3SOL    HW3  255   3.773   0.260   0.211
    3SOL    MW4  256   3.777   0.302   0.135
    4SOL     OW  257   4.462   1.673   0.514
    4SOL    HW2  258   4.486   1.657   0.606
    4SOL    HW3  259   4.537   1.641   0.464
    4SOL    MW4  260   4.475   1.667   0.520
    5SOL     OW  261   1.324   0.826   0.288
    5SOL    HW2  262   1.230   0.835   0.306
    5SOL    HW3  263   1.328   0.792   0.199
    5SOL    MW4  264   1.312   0.822   0.279
    6SOL     OW  265   0.166   0.552   0.486
    6SOL    HW2  266   0.179   0.549   0.581
    6SOL    HW3  267   0.146   0.461   0.462
    6SOL    MW4  268   0.165   0.539   0.496
    7SOL     OW  269   0.416   0.913   0.476
    7SOL    HW2  270   0.438   0.886   0.565
    7SOL    HW3  271   0.397   0.831   0.430
    7SOL    MW4  272   0.416   0.898   0.482
    8SOL     OW  273   0.782   0.858   0.443
    8SOL    HW2  274   0.823   0.895   0.521
    8SOL    HW3  275   0.748   0.935   0.396
    8SOL    MW4  276   0.783   0.873   0.447
    9SOL     OW  277   0.624   1.042   0.308
    9SOL    HW2  278   0.594   1.056   0.219
    9SOL    HW3  279   0.545   1.018   0.357
    9SOL    MW4  280   0.610   1.041   0.303
   10SOL     OW  281   4.284   1.808   0.172
   10SOL    HW2  282   4.260   1.753   0.247
   10SOL    HW3  283   4.248   1.895   0.194
   10SOL    MW4  284   4.276   1.812   0.185
   11SOL     OW  285   4.213   1.628   0.400
   11SOL    HW2  286   4.153   1.695   0.432
   11SOL    HW3  287   4.295   1.643   0.448
   11SOL    MW4  288   4.216   1.639   0.411
   12SOL     OW  289   0.051   1.930   0.377
   12SOL    HW2  290   0.014   1.862   0.433
   12SOL    HW3  291   0.037   1.899   0.288
   12SOL    MW4  292   0.045   1.917   0.373
   13SOL     OW  293   0.157   2.495   0.334
   13SOL    HW2  294   0.106   2.477   0.255
   13SOL    HW3  295   0.248   2.491   0.306
   13SOL    MW4  296   0.162   2.492   0.320
   14SOL     OW  297   4.310   2.814   0.476
   14SOL    HW2  298   4.402   2.787   0.475
   14SOL    HW3  299   4.314   2.910   0.479
   14SOL    MW4  300   4.323   2.823   0.477
   15SOL     OW  301   4.284   3.411   0.438
   15SOL    HW2  302   4.223   3.343   0.468
   15SOL    HW3  303   4.356   3.362   0.399
   15SOL    MW4  304   4.285   3.395   0.437
   16SOL     OW  305   0.328   3.212   0.323
   16SOL    HW2  306   0.357   3.204   0.414
   16SOL    HW3  307   0.404   3.247   0.276
   16SOL    MW4  308   0.342   3.216   0.329
   17SOL     OW  309   0.844   3.411   0.387
   17SOL    HW2  310   0.892   3.457   0.317
   17SOL    HW3  311   0.818   3.480   0.448
   17SOL    MW4  312   0.847   3.426   0.386
   18SOL     OW  313   0.972   3.808   0.287
   18SOL    HW2  314   1.030   3.884   0.296
   18SOL    HW3  315   0.890   3.835   0.328
   18SOL    MW4  316   0.969   3.821   0.294
   19SOL     OW  317   3.815   3.350   0.431
   19SOL    HW2  318   3.817   3.439   0.468
   19SOL    HW3  319   3.905   3.334   0.403
   19SOL    MW4  320   3.827   3.360   0.432
   20SOL     OW  321   4.479   3.850   0.448
   20SOL    HW2  322   4.403   3.795   0.467
   20SOL    HW3  323   4.446   3.939   0.455
   20SOL    MW4  324   4.465   3.854   0.451
   21SOL     OW  325   0.203   4.545   0.507
   21SOL    HW2  326   0.251   4.623   0.480
   21SOL    HW3  327   0.199   4.490   0.429
   21SOL    MW4  328   0.208   4.548   0.493
   22SOL     OW  329   0.108   4.393   0.282
   22SOL    HW2  330   0.020   4.370   0.312
   22SOL    HW3  331   0.100   4.402   0.187
   22SOL    MW4  332   0.095   4.392   0.273
   23SOL     OW  333   4.335   4.323   0.397
   23SOL    HW2  334   4.310   4.244   0.445
   23SOL    HW3  335   4.254   4.374   0.391
   23SOL    MW4  336   4.321   4.319   0.403
   24SOL     OW  337   0.432   3.669   0.499
   24SOL    HW2  338   0.526   3.654   0.501
   24SOL    HW3  339   0.423   3.763   0.483
   24SOL    MW4  340   0.443   3.679   0.497
   25SOL     OW  341   0.737   0.008   0.357
   25SOL    HW2  342   0.830   0.006   0.378
   25SOL    HW3  343   0.727  -0.055   0.285
   25SOL    MW4  344   0.748  -0.001   0.350
   26SOL     OW  345   0.106   0.263   0.398
   26SOL    HW2  346   0.070   0.199   0.459
   26SOL    HW3  347   0.042   0.270   0.328
   26SOL    MW4  348   0.093   0.256   0.397
   27SOL     OW  349   4.378   0.566   0.482
   27SOL    HW2  350   4.473   0.565   0.479
   27SOL    HW3  351   4.354   0.656   0.463
   27SOL    MW4  352   4.387   0.577   0.479
   28SOL     OW  353   1.049   4.435   0.524
   28SOL    HW2  354   0.966   4.387   0.526
   28SOL    HW3  355   1.096   4.405   0.601
   28SOL    MW4  356   1.044   4.425   0.534
   29SOL     OW  357   1.062   0.803   0.358
   29SOL    HW2  358   0.968   0.813   0.374
   29SOL    HW3  359   1.087   0.727   0.411
   29SOL    MW4  360   1.053   0.794   0.367
   30SOL     OW  361   0.583   0.469   0.258
   30SOL    HW2  362   0.666   0.496   0.219
   30SOL    HW3  363   0.606   0.395   0.314
   30SOL    MW4  364   0.597   0.463   0.260
   31SOL     OW  365   0.180   1.083   0.496
   31SOL    HW2  366   0.101   1.029   0.496
   31SOL    HW3  367   0.252   1.021   0.485
   31SOL    MW4  368   0.179   1.068   0.495
   32SOL     OW  369   0.459   1.626   0.480
   32SOL    HW2  370   0.526   1.557   0.476
   32SOL    HW3  371   0.389   1.595   0.422
   32SOL    MW4  372   0.458   1.613   0.472
   33SOL     OW  373   0.205   1.625   0.337
   33SOL    HW2  374   0.162   1.539   0.338
   33SOL    HW3  375   0.173   1.667   0.257
   33SOL    MW4  376   0.195   1.619   0.326
   34SOL     OW  377   0.418   2.496   0.222
   34SOL    HW2  378   0.496   2.449   0.253
   34SOL    HW3  379   0.440   2.588   0.233
   34SOL    MW4  380   0.431   2.502   0.228
   35SOL     OW  381   0.072   2.732   0.489
   35SOL    HW2  382   0.086   2.654   0.435
   35SOL    HW3  383   0.135   2.796   0.456
   35SOL    MW4  384   0.083   2.730   0.477
   36SOL     OW  385   3.868   2.281   0.268
   36SOL    HW2  386   3.893   2.371   0.289
   36SOL    HW3  387   3.882   2.274   0.173
   36SOL    MW4  388   3.873   2.292   0.258
   37SOL     OW  389   0.589   2.540   0.526
   37SOL    HW2  390   0.563   2.462   0.477
   37SOL    HW3  391   0.679   2.557   0.497
   37SOL    MW4  392   0.598   2.532   0.516
   38SOL     OW  393   0.499   2.739   0.330
   38SOL    HW2  394   0.528   2.680   0.400
   38SOL    HW3  395   0.555   2.816   0.339
   38SOL    MW4  396   0.510   2.741   0.341
   39SOL     OW  397   4.342   3.085   0.482
   39SOL    HW2  398   4.259   3.131   0.491
   39SOL    HW3  399   4.404   3.137   0.533
   39SOL    MW4  400   4.340   3.098   0.490
   40SOL     OW  401   0.288   2.917   0.374
   40SOL    HW2  402   0.305   3.000   0.329
   40SOL    HW3  403   0.366   2.864   0.357
   40SOL    MW4  404   0.301   2.921   0.366
   41SOL     OW  405   0.802   4.452   0.208
   41SOL    HW2  406   0.784   4.429   0.117
   41SOL    HW3  407   0.895   4.434   0.219
   41SOL    MW4  408   0.812   4.446   0.197
   42SOL     OW  409   0.105   3.350   0.414
   42SOL    HW2  410   0.125   3.443   0.423
   42SOL    HW3  411   0.175   3.315   0.360
   42SOL    MW4  412   0.117   3.357   0.408
   43SOL     OW  413   0.722   3.623   0.529
   43SOL    HW2  414   0.714   3.712   0.494
   43SOL    HW3  415   0.704   3.632   0.622
   43SOL    MW4  416   0.718   3.636   0.537
   44SOL     OW  417   1.156   3.639   0.447
   44SOL    HW2  418   1.071   3.672   0.417
   44SOL    HW3  419   1.173   3.563   0.391
   44SOL    MW4  420   1.147   3.633   0.436
   45SOL     OW  421   0.450   3.956   0.441
   45SOL    HW2  422   0.436   3.994   0.527
   45SOL    HW3  423   0.367   3.968   0.395
   45SOL    MW4  424   0.437   3.962   0.446
   46SOL     OW  425   0.987   3.567   0.198
   46SOL    HW2  426   0.954   3.557   0.108
   46SOL    HW3  427   0.980   3.661   0.215
   46SOL    MW4  428   0.982   3.578   0.188
   47SOL     OW  429   0.746   4.395   0.504
   47SOL    HW2  430   0.712   4.462   0.445
   47SOL    HW3  431   0.725   4.427   0.591
   47SOL    MW4  432   0.739   4.408   0.508
   48SOL     OW  433   0.613   0.237   0.450
   48SOL    HW2  434   0.665   0.165   0.415
   48SOL    HW3  435   0.662   0.266   0.527
   48SOL    MW4  436   0.627   0.232   0.456
   49SOL     OW  437   0.681   0.602   0.514
   49SOL    HW2  438   0.717   0.688   0.495
   49SOL    HW3  439   0.628   0.580   0.437
   49SOL    MW4  440   0.679   0.610   0.501
   50SOL     OW  441   0.363   0.665   0.328
   50SOL    HW2  442   0.289   0.635   0.381
   50SOL    HW3  443   0.420   0.588   0.321
   50SOL    MW4  444   0.361   0.651   0.334
   51SOL     OW  445   1.378   0.555   0.329
   51SOL    HW2  446   1.365   0.650   0.329
   51SOL    HW3  447   1.469   0.543   0.358
   51SOL    MW4  448   1.389   0.566   0.333
   52SOL     OW  449   1.799   0.693   0.263
   52SOL    HW2  450   1.782   0.787   0.271
   52SOL    HW3  451   1.735   0.653   0.323
   52SOL    MW4  452   1.788   0.700   0.272
   53SOL     OW  453   1.487   0.972   0.458
   53SOL    HW2  454   1.427   0.935   0.393
   53SOL    HW3  455   1.445   0.955   0.542
   53SOL    MW4  456   1.474   0.965   0.460
   54SOL     OW  457   0.678   1.451   0.522
   54SOL    HW2  458   0.694   1.362   0.489
   54SOL    HW3  459   0.766   1.488   0.532
   54SOL    MW4  460   0.692   1.444   0.519
   55SOL     OW  461   0.781   1.202   0.487
   55SOL    HW2  462   0.745   1.160   0.409
   55SOL    HW3  463   0.869   1.230   0.461
   55SOL    MW4  464   0.788   1.200   0.473
   56SOL     OW  465   1.737   1.395   0.446
   56SOL    HW2  466   1.776   1.482   0.440
   56SOL    HW3  467   1.812   1.335   0.446
   56SOL    MW4  468   1.752   1.398   0.445
   57SOL     OW  469   1.036   1.368   0.480
   57SOL    HW2  470   1.124   1.377   0.445
   57SOL    HW3  471   1.005   1.459   0.489
   57SOL    MW4  472   1.043   1.381   0.476
   58SOL     OW  473   0.928   1.619   0.533
   58SOL    HW2  474   1.016   1.654   0.518
   58SOL    HW3  475   0.916   1.625   0.628
   58SOL    MW4  476   0.938   1.625   0.544
   59SOL     OW  477   0.315   1.900   0.430
   59SOL    HW2  478   0.223   1.905   0.406
   59SOL    HW3  479   0.331   1.806   0.443
   59SOL    MW4  480   0.305   1.888   0.428
   60SOL     OW  481   0.700   1.790   0.465
   60SOL    HW2  482   0.769   1.728   0.486
   60SOL    HW3  483   0.620   1.737   0.465
   60SOL    MW4  484   0.698   1.774   0.468
   61SOL     OW  485   0.856   2.546   0.468
   61SOL    HW2  486   0.863   2.460   0.428
   61SOL    HW3  487   0.893   2.535   0.555
   61SOL    MW4  488   0.862   2.533   0.474
   62SOL     OW  489   0.565   2.041   0.464
   62SOL    HW2  490   0.620   1.966   0.440
   62SOL    HW3  491   0.477   2.015   0.439
   62SOL    MW4  492   0.561   2.028   0.457
   63SOL     OW  493   1.096   2.685   0.417
   63SOL    HW2  494   1.023   2.624   0.410
   63SOL    HW3  495   1.058   2.771   0.399
   63SOL    MW4  496   1.081   2.688   0.414
   64SOL     OW  497   0.608   2.314   0.346
   64SOL    HW2  498   0.694   2.301   0.306
   64SOL    HW3  499   0.581   2.225   0.372
   64SOL    MW4  500   0.616   2.300   0.344
   65SOL     OW  501   0.695   2.937   0.454
   65SOL    HW2  502   0.731   2.915   0.540
   65SOL    HW3  503   0.674   3.030   0.460
   65SOL    MW4  504   0.697   2.946   0.466
   66SOL     OW  505   1.014   3.236   0.479
   66SOL    HW2  506   0.989   3.217   0.569
   66SOL    HW3  507   0.948   3.298   0.448
   66SOL    MW4  508   1.002   3.242   0.486
   67SOL     OW  509   1.395   3.779   0.506
   67SOL    HW2  510   1.465   3.717   0.486
   67SOL    HW3  511   1.316   3.737   0.472
   67SOL    MW4  512   1.394   3.765   0.499
   68SOL     OW  513   1.079   4.063   0.381
   68SOL    HW2  514   1.097   4.138   0.323
   68SOL    HW3  515   1.000   4.088   0.428
   68SOL    MW4  516   1.071   4.077   0.379
   69SOL     OW  517   0.711   3.890   0.411
   69SOL    HW2  518   0.767   3.958   0.448
   69SOL    HW3  519   0.622   3.924   0.420
   69SOL    MW4  520   0.706   3.903   0.417
   70SOL     OW  521   1.088   4.422   0.261
   70SOL    HW2  522   1.169   4.448   0.217
   70SOL    HW3  523   1.108   4.426   0.354
   70SOL    MW4  524   1.101   4.426   0.267
   71SOL     OW  525   1.145   0.505   0.461
   71SOL    HW2  526   1.139   0.409   0.468
   71SOL    HW3  527   1.229   0.520   0.417
   71SOL    MW4  528   1.156   0.494   0.456
   72SOL     OW  529   0.982   0.037   0.485
   72SOL    HW2  530   1.020  -0.051   0.490
   72SOL    HW3  531   0.947   0.053   0.572
   72SOL    MW4  532   0.983   0.028   0.497
   73SOL     OW  533   1.449   0.272   0.283
   73SOL    HW2  534   1.544   0.282   0.293
   73SOL    HW3  535   1.418   0.362   0.268
   73SOL    MW4  536   1.458   0.285   0.283
   74SOL     OW  537   1.635   0.537   0.443
   74SOL    HW2  538   1.678   0.456   0.416
   74SOL    HW3  539   1.623   0.528   0.537
   74SOL    MW4  540   1.639   0.525   0.452
   75SOL     OW  541   1.178   0.226   0.482
   75SOL    HW2  542   1.106   0.163   0.478
   75SOL    HW3  543   1.238   0.199   0.413
   75SOL    MW4  544   1.177   0.214   0.473
   76SOL     OW  545   1.969   0.469   0.244
   76SOL    HW2  546   2.014   0.437   0.165
   76SOL    HW3  547   1.920   0.546   0.214
   76SOL    MW4  548   1.969   0.475   0.229
   77SOL     OW  549   2.214   0.802   0.477
   77SOL    HW2  550   2.178   0.713   0.471
   77SOL    HW3  551   2.298   0.797   0.432
   77SOL    MW4  552   2.220   0.789   0.470
   78SOL     OW  553   1.761   0.950   0.439
   78SOL    HW2  554   1.784   0.904   0.520
   78SOL    HW3  555   1.665   0.949   0.438
   78SOL    MW4  556   1.751   0.944   0.450
   79SOL     OW  557   1.483   1.269   0.461
   79SOL    HW2  558   1.474   1.173   0.464
   79SOL    HW3  559   1.570   1.283   0.425
   79SOL    MW4  560   1.493   1.258   0.457
   80SOL     OW  561   1.304   1.462   0.361
   80SOL    HW2  562   1.374   1.411   0.401
   80SOL    HW3  563   1.303   1.433   0.270
   80SOL    MW4  564   1.313   1.451   0.354
   81SOL     OW  565   1.200   1.694   0.486
   81SOL    HW2  566   1.248   1.659   0.561
   81SOL    HW3  567   1.221   1.634   0.414
   81SOL    MW4  568   1.209   1.681   0.486
   82SOL     OW  569   1.151   2.178   0.286
   82SOL    HW2  570   1.225   2.233   0.312
   82SOL    HW3  571   1.174   2.090   0.317
   82SOL    MW4  572   1.164   2.173   0.293
   83SOL     OW  573   1.340   2.548   0.466
   83SOL    HW2  574   1.258   2.596   0.452
   83SOL    HW3  575   1.408   2.615   0.461
   83SOL    MW4  576   1.338   2.563   0.463
   84SOL     OW  577   1.950   2.149   0.450
   84SOL    HW2  578   1.960   2.114   0.538
   84SOL    HW3  579   2.007   2.094   0.396
   84SOL    MW4  580   1.959   2.137   0.455
   85SOL     OW  581   1.517   2.044   0.487
   85SOL    HW2  582   1.511   2.130   0.444
   85SOL    HW3  583   1.430   2.005   0.474
   85SOL    MW4  584   1.504   2.050   0.480
   86SOL     OW  585   0.898   2.280   0.359
   86SOL    HW2  586   0.905   2.226   0.439
   86SOL    HW3  587   0.982   2.268   0.315
   86SOL    MW4  588   0.910   2.271   0.364
   87SOL     OW  589   1.007   2.961   0.405
   87SOL    HW2  590   0.921   2.946   0.366
   87SOL    HW3  591   1.006   3.053   0.431
   87SOL    MW4  592   0.996   2.971   0.403
   88SOL     OW  593   2.107   2.419   0.433
   88SOL    HW2  594   2.199   2.405   0.453
   88SOL    HW3  595   2.067   2.332   0.439
   88SOL    MW4  596   2.114   2.406   0.437
   89SOL     OW  597   1.720   4.107   0.510
   89SOL    HW2  598   1.656   4.160   0.463
   89SOL    HW3  599   1.710   4.019   0.473
   89SOL    MW4  600   1.710   4.102   0.499
   90SOL     OW  601   1.350   4.038   0.434
   90SOL    HW2  602   1.368   3.950   0.467
   90SOL    HW3  603   1.257   4.037   0.412
   90SOL    MW4  604   1.340   4.026   0.436
   91SOL     OW  605   1.748   2.837   0.347
   91SOL    HW2  606   1.661   2.804   0.368
   91SOL    HW3  607   1.808   2.778   0.394
   91SOL    MW4  608   1.745   2.825   0.356
   92SOL     OW  609   1.678   3.620   0.256
   92SOL    HW2  610   1.763   3.578   0.243
   92SOL    HW3  611   1.621   3.550   0.286
   92SOL    MW4  612   1.682   3.605   0.258
   93SOL     OW  613   1.294   3.251   0.476
   93SOL    HW2  614   1.315   3.164   0.444
   93SOL    HW3  615   1.199   3.258   0.468
   93SOL    MW4  616   1.284   3.241   0.470
   94SOL     OW  617   1.583   3.392   0.440
   94SOL    HW2  618   1.504   3.371   0.488
   94SOL    HW3  619   1.616   3.307   0.409
   94SOL    MW4  620   1.577   3.378   0.442
   95SOL     OW  621   0.846   4.128   0.489
   95SOL    HW2  622   0.831   4.096   0.578
   95SOL    HW3  623   0.797   4.210   0.485
   95SOL    MW4  624   0.837   4.135   0.500
   96SOL     OW  625   2.274   0.001   0.605
   96SOL    HW2  626   2.242  -0.085   0.578
   96SOL    HW3  627   2.370  -0.005   0.597
   96SOL    MW4  628   2.283  -0.011   0.600
   97SOL     OW  629   1.840   4.515   0.398
   97SOL    HW2  630   1.748   4.492   0.409
   97SOL    HW3  631   1.884   4.431   0.382
   97SOL    MW4  632   1.834   4.501   0.398
   98SOL     OW  633   1.888   0.112   0.465
   98SOL    HW2  634   1.860   0.119   0.556
   98SOL    HW3  635   1.871   0.021   0.441
   98SOL    MW4  636   1.882   0.101   0.474
   99SOL     OW  637   1.398   0.015   0.351
   99SOL    HW2  638   1.423   0.102   0.322
   99SOL    HW3  639   1.468  -0.012   0.411
   99SOL    MW4  640   1.410   0.023   0.355
  100SOL     OW  641   2.149   0.458   0.451
  100SOL    HW2  642   2.135   0.365   0.474
  100SOL    HW3  643   2.109   0.467   0.365
  100SOL    MW4  644   2.142   0.447   0.443
  101SOL     OW  645   2.382   1.531   0.435
  101SOL    HW2  646   2.325   1.475   0.488
  101SOL    HW3  647   2.326   1.604   0.408
  101SOL    MW4  648   2.367   1.533   0.439
  102SOL     OW  649   2.182   1.082   0.447
  102SOL    HW2  650   2.275   1.097   0.466
  102SOL    HW3  651   2.172   0.987   0.447
  102SOL    MW4  652   2.193   1.071   0.450
  103SOL     OW  653   1.918   1.169   0.487
  103SOL    HW2  654   1.865   1.091   0.472
  103SOL    HW3  655   2.005   1.146   0.455
  103SOL    MW4  656   1.923   1.156   0.481
  104SOL     OW  657   2.598   1.349   0.364
  104SOL    HW2  658   2.675   1.403   0.345
  104SOL    HW3  659   2.530   1.412   0.389
  104SOL    MW4  660   2.599   1.365   0.365
  105SOL     OW  661   2.160   1.719   0.471
  105SOL    HW2  662   2.164   1.811   0.446
  105SOL    HW3  663   2.067   1.701   0.483
  105SOL    MW4  664   2.149   1.729   0.470
  106SOL     OW  665   1.773   1.930   0.412
  106SOL    HW2  666   1.811   2.017   0.402
  106SOL    HW3  667   1.680   1.945   0.425
  106SOL    MW4  668   1.766   1.943   0.412
  107SOL     OW  669   2.373   2.406   0.534
  107SOL    HW2  670   2.450   2.462   0.525
  107SOL    HW3  671   2.328   2.441   0.612
  107SOL    MW4  672   2.377   2.418   0.543
  108SOL     OW  673   1.914   3.262   0.484
  108SOL    HW2  674   1.976   3.194   0.460
  108SOL    HW3  675   1.929   3.331   0.419
  108SOL    MW4  676   1.924   3.262   0.472
  109SOL     OW  677   1.495   2.771   0.443
  109SOL    HW2  678   1.444   2.851   0.433
  109SOL    HW3  679   1.535   2.779   0.530
  109SOL    MW4  680   1.494   2.783   0.453
  110SOL     OW  681   1.318   2.993   0.370
  110SOL    HW2  682   1.363   3.010   0.287
  110SOL    HW3  683   1.227   2.976   0.343
  110SOL    MW4  684   1.312   2.993   0.355
  111SOL     OW  685   1.245   1.977   0.479
  111SOL    HW2  686   1.191   1.987   0.557
  111SOL    HW3  687   1.245   1.883   0.462
  111SOL    MW4  688   1.238   1.966   0.487
  112SOL     OW  689   3.601   2.339   0.388
  112SOL    HW2  690   3.662   2.301   0.325
  112SOL    HW3  691   3.595   2.274   0.458
  112SOL    MW4  692   3.608   2.325   0.389
  113SOL     OW  693   1.923   2.661   0.473
  113SOL    HW2  694   1.956   2.712   0.546
  113SOL    HW3  695   1.992   2.596   0.457
  113SOL    MW4  696   1.937   2.659   0.480
  114SOL     OW  697   1.513   2.305   0.402
  114SOL    HW2  698   1.607   2.325   0.409
  114SOL    HW3  699   1.470   2.388   0.420
  114SOL    MW4  700   1.520   2.319   0.406
  115SOL     OW  701   1.673   3.113   0.414
  115SOL    HW2  702   1.699   3.025   0.387
  115SOL    HW3  703   1.753   3.153   0.449
  115SOL    MW4  704   1.687   3.107   0.415
  116SOL     OW  705   2.273   3.191   0.479
  116SOL    HW2  706   2.206   3.124   0.467
  116SOL    HW3  707   2.255   3.227   0.566
  116SOL    MW4  708   2.262   3.187   0.489
  117SOL     OW  709   1.788   3.836   0.420
  117SOL    HW2  710   1.756   3.789   0.343
  117SOL    HW3  711   1.883   3.821   0.420
  117SOL    MW4  712   1.796   3.828   0.410
  118SOL     OW  713   1.508   4.249   0.352
  118SOL    HW2  714   1.464   4.177   0.397
  118SOL    HW3  715   1.442   4.284   0.292
  118SOL    MW4  716   1.494   4.244   0.350
  119SOL     OW  717   1.580   4.497   0.469
  119SOL    HW2  718   1.588   4.475   0.562
  119SOL    HW3  719   1.559   4.413   0.427
  119SOL    MW4  720   1.578   4.483   0.476
  120SOL     OW  721   1.351   4.471   0.188
  120SOL    HW2  722   1.370   4.533   0.258
  120SOL    HW3  723   1.369   4.520   0.107
  120SOL    MW4  724   1.356   4.486   0.186
  121SOL     OW  725   2.419   0.193   0.351
  121SOL    HW2  726   2.453   0.136   0.420
  121SOL    HW3  727   2.324   0.190   0.361
  121SOL    MW4  728   2.411   0.185   0.361
  122SOL     OW  729   2.151   0.178   0.458
  122SOL    HW2  730   2.175   0.107   0.518
  122SOL    HW3  731   2.056   0.169   0.448
  122SOL    MW4  732   2.142   0.167   0.464
  123SOL     OW  733   2.690   0.929   0.499
  123SOL    HW2  734   2.639   0.855   0.465
  123SOL    HW3  735   2.772   0.927   0.451
  123SOL    MW4  736   2.694   0.919   0.488
  124SOL     OW  737   2.477   0.746   0.390
  124SOL    HW2  738   2.468   0.652   0.409
  124SOL    HW3  739   2.522   0.748   0.305
  124SOL    MW4  740   2.482   0.734   0.381
  125SOL     OW  741   2.905   0.897   0.131
  125SOL    HW2  742   2.915   0.933   0.219
  125SOL    HW3  743   2.982   0.842   0.118
  125SOL    MW4  744   2.916   0.894   0.141
  126SOL     OW  745   2.946   1.000   0.397
  126SOL    HW2  746   3.017   0.981   0.458
  126SOL    HW3  747   2.914   1.086   0.423
  126SOL    MW4  748   2.951   1.009   0.408
  127SOL     OW  749   2.960   1.247   0.503
  127SOL    HW2  750   2.934   1.336   0.479
  127SOL    HW3  751   2.926   1.235   0.592
  127SOL    MW4  752   2.952   1.257   0.511
  128SOL     OW  753   2.732   1.664   0.429
  128SOL    HW2  754   2.717   1.696   0.518
  128SOL    HW3  755   2.694   1.732   0.373
  128SOL    MW4  756   2.725   1.677   0.433
  129SOL     OW  757   2.809   0.674   0.366
  129SOL    HW2  758   2.892   0.714   0.341
  129SOL    HW3  759   2.750   0.692   0.293
  129SOL    MW4  760   2.812   0.681   0.353
  130SOL     OW  761   2.212   2.003   0.336
  130SOL    HW2  762   2.287   2.045   0.378
  130SOL    HW3  763   2.234   1.999   0.244
  130SOL    MW4  764   2.225   2.008   0.330
  131SOL     OW  765   1.890   1.675   0.481
  131SOL    HW2  766   1.850   1.675   0.568
  131SOL    HW3  767   1.870   1.762   0.446
  131SOL    MW4  768   1.882   1.687   0.488
  132SOL     OW  769   2.425   2.138   0.475
  132SOL    HW2  770   2.405   2.228   0.501
  132SOL    HW3  771   2.520   2.138   0.458
  132SOL    MW4  772   2.435   2.150   0.476
  133SOL     OW  773   2.706   2.165   0.441
  133SOL    HW2  774   2.737   2.252   0.413
  133SOL    HW3  775   2.774   2.134   0.500
  133SOL    MW4  776   2.719   2.173   0.445
  134SOL     OW  777   2.577   2.793   0.462
  134SOL    HW2  778   2.577   2.864   0.398
  134SOL    HW3  779   2.526   2.826   0.536
  134SOL    MW4  780   2.571   2.807   0.463
  135SOL     OW  781   1.769   2.407   0.441
  135SOL    HW2  782   1.837   2.341   0.428
  135SOL    HW3  783   1.807   2.488   0.408
  135SOL    MW4  784   1.783   2.409   0.435
  136SOL     OW  785   2.050   3.014   0.468
  136SOL    HW2  786   2.034   2.964   0.548
  136SOL    HW3  787   2.000   2.968   0.400
  136SOL    MW4  788   2.041   3.001   0.469
  137SOL     OW  789   2.034   3.702   0.485
  137SOL    HW2  790   2.129   3.711   0.477
  137SOL    HW3  791   2.019   3.680   0.577
  137SOL    MW4  792   2.044   3.700   0.496
  138SOL     OW  793   2.188   4.063   0.445
  138SOL    HW2  794   2.199   3.995   0.379
  138SOL    HW3  795   2.264   4.120   0.433
  138SOL    MW4  796   2.200   4.062   0.435
  139SOL     OW  797   1.628   3.631   0.564
  139SOL    HW2  798   1.635   3.538   0.541
  139SOL    HW3  799   1.705   3.671   0.525
  139SOL    MW4  800   1.639   3.624   0.556
  140SOL     OW  801   1.921   3.494   0.315
  140SOL    HW2  802   1.990   3.471   0.253
  140SOL    HW3  803   1.957   3.568   0.364
  140SOL    MW4  804   1.935   3.501   0.314
  141SOL     OW  805   2.098   4.472   0.519
  141SOL    HW2  806   2.085   4.378   0.514
  141SOL    HW3  807   2.019   4.510   0.481
  141SOL    MW4  808   2.086   4.465   0.513
  142SOL     OW  809   1.976   4.232   0.451
  142SOL    HW2  810   1.902   4.173   0.464
  142SOL    HW3  811   2.051   4.174   0.436
  142SOL    MW4  812   1.976   4.217   0.450
  143SOL     OW  813   2.400   4.266   0.427
  143SOL    HW2  814   2.405   4.303   0.515
  143SOL    HW3  815   2.443   4.332   0.372
  143SOL    MW4  816   2.407   4.280   0.431
  144SOL     OW  817   2.329   3.898   0.261
  144SOL    HW2  818   2.300   3.866   0.176
  144SOL    HW3  819   2.310   3.826   0.321
  144SOL    MW4  820   2.323   3.884   0.258
  145SOL     OW  821   2.773   3.919   0.507
  145SOL    HW2  822   2.692   3.948   0.465
  145SOL    HW3  823   2.835   3.990   0.490
  145SOL    MW4  824   2.770   3.932   0.499
  146SOL     OW  825   2.443   0.470   0.445
  146SOL    HW2  826   2.348   0.474   0.435
  146SOL    HW3  827   2.466   0.382   0.415
  146SOL    MW4  828   2.434   0.459   0.440
  147SOL     OW  829   1.740   0.305   0.341
  147SOL    HW2  830   1.811   0.356   0.302
  147SOL    HW3  831   1.784   0.231   0.384
  147SOL    MW4  832   1.755   0.302   0.341
  148SOL     OW  833   3.138   0.373   0.376
  148SOL    HW2  834   3.229   0.402   0.372
  148SOL    HW3  835   3.143   0.279   0.391
  148SOL    MW4  836   3.150   0.365   0.377
  149SOL     OW  837   2.467   1.115   0.474
  149SOL    HW2  838   2.514   1.180   0.422
  149SOL    HW3  839   2.526   1.040   0.480
  149SOL    MW4  840   2.481   1.114   0.468
  150SOL     OW  841   3.261   0.784   0.429
  150SOL    HW2  842   3.336   0.841   0.414
  150SOL    HW3  843   3.219   0.819   0.507
  150SOL    MW4  844   3.266   0.796   0.437
  151SOL     OW  845   3.198   1.614   0.475
  151SOL    HW2  846   3.212   1.519   0.478
  151SOL    HW3  847   3.283   1.650   0.448
  151SOL    MW4  848   3.211   1.606   0.471
  152SOL     OW  849   3.195   1.192   0.366
  152SOL    HW2  850   3.158   1.161   0.284
  152SOL    HW3  851   3.119   1.213   0.421
  152SOL    MW4  852   3.180   1.191   0.362
  153SOL     OW  853   3.430   1.770   0.426
  153SOL    HW2  854   3.399   1.846   0.376
  153SOL    HW3  855   3.512   1.799   0.467
  153SOL    MW4  856   3.437   1.784   0.425
  154SOL     OW  857   2.763   0.195   0.617
  154SOL    HW2  858   2.756   0.258   0.688
  154SOL    HW3  859   2.801   0.244   0.545
  154SOL    MW4  860   2.767   0.209   0.617
  155SOL     OW  861   3.165   2.071   0.619
  155SOL    HW2  862   3.070   2.084   0.618
  155SOL    HW3  863   3.179   2.000   0.681
  155SOL    MW4  864   3.154   2.064   0.627
  156SOL     OW  865   2.825   2.416   0.303
  156SOL    HW2  866   2.852   2.399   0.212
  156SOL    HW3  867   2.908   2.418   0.351
  156SOL    MW4  868   2.840   2.414   0.297
  157SOL     OW  869   2.947   1.496   0.379
  157SOL    HW2  870   2.866   1.545   0.393
  157SOL    HW3  871   3.016   1.553   0.414
  157SOL    MW4  872   2.946   1.510   0.386
  158SOL     OW  873   2.620   2.521   0.471
  158SOL    HW2  874   2.598   2.612   0.451
  158SOL    HW3  875   2.682   2.496   0.403
  158SOL    MW4  876   2.625   2.530   0.460
  159SOL     OW  877   2.736   3.193   0.572
  159SOL    HW2  878   2.786   3.262   0.529
  159SOL    HW3  879   2.741   3.213   0.665
  159SOL    MW4  880   2.743   3.204   0.578
  160SOL     OW  881   2.856   3.393   0.422
  160SOL    HW2  882   2.946   3.361   0.422
  160SOL    HW3  883   2.864   3.488   0.434
  160SOL    MW4  884   2.869   3.401   0.424
  161SOL     OW  885   3.095   3.249   0.482
  161SOL    HW2  886   3.109   3.155   0.470
  161SOL    HW3  887   3.095   3.262   0.577
  161SOL    MW4  888   3.097   3.239   0.493
  162SOL     OW  889   2.355   3.461   0.360
  162SOL    HW2  890   2.446   3.451   0.334
  162SOL    HW3  891   2.341   3.394   0.427
  162SOL    MW4  892   2.365   3.451   0.365
  163SOL     OW  893   2.164   3.460   0.116
  163SOL    HW2  894   2.232   3.478   0.180
  163SOL    HW3  895   2.210   3.422   0.041
  163SOL    MW4  896   2.179   3.458   0.114
  164SOL     OW  897   3.626   3.473   0.241
  164SOL    HW2  898   3.668   3.416   0.305
  164SOL    HW3  899   3.532   3.456   0.251
  164SOL    MW4  900   3.619   3.463   0.251
  165SOL     OW  901   2.567   4.031   0.352
  165SOL    HW2  902   2.535   4.121   0.359
  165SOL    HW3  903   2.499   3.986   0.301
  165SOL    MW4  904   2.554   4.037   0.346
  166SOL     OW  905   2.304   3.705   0.463
  166SOL    HW2  906   2.334   3.694   0.553
  166SOL    HW3  907   2.335   3.626   0.418
  166SOL    MW4  908   2.312   3.693   0.469
  167SOL     OW  909   3.615   3.995   0.456
  167SOL    HW2  910   3.541   4.048   0.427
  167SOL    HW3  911   3.597   3.907   0.422
  167SOL    MW4  912   3.603   3.990   0.447
  168SOL     OW  913   2.937   4.391   0.416
  168SOL    HW2  914   2.915   4.414   0.506
  168SOL    HW3  915   2.900   4.304   0.404
  168SOL    MW4  916   2.929   4.382   0.427
  169SOL     OW  917   3.394   4.408   0.464
  169SOL    HW2  918   3.461   4.464   0.424
  169SOL    HW3  919   3.311   4.442   0.430
  169SOL    MW4  920   3.392   4.420   0.454
  170SOL     OW  921   3.161   4.522   0.339
  170SOL    HW2  922   3.080   4.479   0.365
  170SOL    HW3  923   3.155   4.529   0.244
  170SOL    MW4  924   3.150   4.517   0.330
  171SOL     OW  925   2.901   4.124   0.329
  171SOL    HW2  926   2.841   4.085   0.265
  171SOL    HW3  927   2.988   4.098   0.299
  171SOL    MW4  928   2.905   4.115   0.316
  172SOL     OW  929   2.636   0.798   0.160
  172SOL    HW2  930   2.593   0.800   0.075
  172SOL    HW3  931   2.710   0.858   0.151
  172SOL    MW4  932   2.640   0.806   0.148
  173SOL     OW  933   3.370   0.538   0.407
  173SOL    HW2  934   3.460   0.549   0.376
  173SOL    HW3  935   3.335   0.626   0.411
  173SOL    MW4  936   3.378   0.551   0.403
  174SOL     OW  937   2.893   0.430   0.499
  174SOL    HW2  938   2.854   0.495   0.441
  174SOL    HW3  939   2.979   0.412   0.462
  174SOL    MW4  940   2.899   0.437   0.486
  175SOL     OW  941   3.626   0.476   0.334
  175SOL    HW2  942   3.696   0.497   0.395
  175SOL    HW3  943   3.671   0.457   0.251
  175SOL    MW4  944   3.641   0.476   0.331
  176SOL     OW  945   3.080   0.698   0.229
  176SOL    HW2  946   3.155   0.729   0.281
  176SOL    HW3  947   3.073   0.605   0.250
  176SOL    MW4  948   3.089   0.690   0.239
  177SOL     OW  949   3.672   1.870   0.534
  177SOL    HW2  950   3.660   1.830   0.620
  177SOL    HW3  951   3.624   1.953   0.539
  177SOL    MW4  952   3.664   1.876   0.546
  178SOL     OW  953   3.318   2.062   0.393
  178SOL    HW2  954   3.264   2.045   0.470
  178SOL    HW3  955   3.294   2.150   0.366
  178SOL    MW4  956   3.308   2.071   0.399
  179SOL     OW  957   3.461   0.993   0.406
  179SOL    HW2  958   3.407   1.069   0.384
  179SOL    HW3  959   3.470   0.997   0.501
  179SOL    MW4  960   3.455   1.004   0.416
  180SOL     OW  961   3.546   2.110   0.541
  180SOL    HW2  962   3.466   2.100   0.489
  180SOL    HW3  963   3.517   2.102   0.632
  180SOL    MW4  964   3.531   2.108   0.546
  181SOL     OW  965   3.278   2.321   0.664
  181SOL    HW2  966   3.235   2.236   0.652
  181SOL    HW3  967   3.325   2.312   0.747
  181SOL    MW4  968   3.279   2.308   0.674
  182SOL     OW  969   3.573   2.739   0.600
  182SOL    HW2  970   3.596   2.753   0.692
  182SOL    HW3  971   3.622   2.660   0.576
  182SOL    MW4  972   3.583   2.731   0.609
  183SOL     OW  973   2.530   3.082   0.413
  183SOL    HW2  974   2.452   3.131   0.438
  183SOL    HW3  975   2.595   3.105   0.480
  183SOL    MW4  976   2.528   3.091   0.425
  184SOL     OW  977   3.138   2.752   0.277
  184SOL    HW2  978   3.125   2.663   0.312
  184SOL    HW3  979   3.143   2.739   0.182
  184SOL    MW4  980   3.137   2.738   0.269
  185SOL     OW  981   2.928   2.855   0.836
  185SOL    HW2  982   2.928   2.861   0.740
  185SOL    HW3  983   3.012   2.814   0.857
  185SOL    MW4  984   2.939   2.851   0.826
  186SOL     OW  985   3.210   0.105   0.456
  186SOL    HW2  986   3.191   0.089   0.548
  186SOL    HW3  987   3.185   0.024   0.412
  186SOL    MW4  988   3.204   0.092   0.462
  187SOL     OW  989   3.168   3.806   0.442
  187SOL    HW2  990   3.230   3.738   0.468
  187SOL    HW3  991   3.158   3.861   0.519
  187SOL    MW4  992   3.175   3.805   0.455
  188SOL     OW  993   3.586   3.713   0.406
  188SOL    HW2  994   3.597   3.664   0.324
  188SOL    HW3  995   3.504   3.680   0.443
  188SOL    MW4  996   3.577   3.702   0.400
  189SOL     OW  997   3.575   3.244   0.455
  189SOL    HW2  998   3.664   3.278   0.445
  189SOL    HW3  999   3.582   3.150   0.439
  189SOL    MW4 1000   3.587   3.236   0.451
  190SOL     OW 1001   3.348   3.374   0.376
  190SOL    HW2 1002   3.271   3.318   0.388
  190SOL    HW3 1003   3.419   3.327   0.418
  190SOL    MW4 1004   3.347   3.361   0.383
  191SOL     OW 1005   3.154   4.035   0.227
  191SOL    HW2 1006   3.152   3.958   0.284
  191SOL    HW3 1007   3.176   4.001   0.140
  191SOL    MW4 1008   3.157   4.020   0.223
  192SOL     OW 1009   2.601   3.343   0.297
  192SOL    HW2 1010   2.697   3.345   0.297
  192SOL    HW3 1011   2.579   3.253   0.320
  192SOL    MW4 1012   2.611   3.332   0.300
  193SOL     OW 1013   4.220   0.086   0.423
  193SOL    HW2 1014   4.306   0.067   0.459
  193SOL    HW3 1015   4.169   0.006   0.437
  193SOL    MW4 1016   4.225   0.073   0.429
  194SOL     OW 1017   3.734   0.168   0.364
  194SOL    HW2 1018   3.665   0.202   0.421
  194SOL    HW3 1019   3.815   0.189   0.411
  194SOL    MW4 1020   3.736   0.176   0.378
  195SOL     OW 1021   3.514   0.260   0.492
  195SOL    HW2 1022   3.425   0.225   0.486
  195SOL    HW3 1023   3.510   0.345   0.448
  195SOL    MW4 1024   3.502   0.267   0.485
  196SOL     OW 1025   3.858   0.583   0.506
  196SOL    HW2 1026   3.848   0.570   0.600
  196SOL    HW3 1027   3.927   0.522   0.481
  196SOL    MW4 1028   3.865   0.573   0.515
  197SOL     OW 1029   4.009   0.425   0.301
  197SOL    HW2 1030   4.098   0.405   0.273
  197SOL    HW3 1031   3.953   0.389   0.232
  197SOL    MW4 1032   4.013   0.417   0.289
  198SOL     OW 1033   4.227   0.822   0.434
  198SOL    HW2 1034   4.143   0.819   0.480
  198SOL    HW3 1035   4.204   0.807   0.342
  198SOL    MW4 1036   4.213   0.819   0.428
  199SOL     OW 1037   3.757   1.032   0.449
  199SOL    HW2 1038   3.757   1.127   0.462
  199SOL    HW3 1039   3.665   1.010   0.437
  199SOL    MW4 1040   3.745   1.042   0.449
  200SOL     OW 1041   4.091   1.387   0.364
  200SOL    HW2 1042   4.067   1.403   0.273
  200SOL    HW3 1043   4.125   1.471   0.395
  200SOL    MW4 1044   4.092   1.401   0.356
  201SOL     OW 1045   3.820   1.313   0.466
  201SOL    HW2 1046   3.909   1.343   0.448
  201SOL    HW3 1047   3.766   1.391   0.454
  201SOL    MW4 1048   3.825   1.328   0.462
  202SOL     OW 1049   3.371   1.394   0.484
  202SOL    HW2 1050   3.381   1.369   0.576
  202SOL    HW3 1051   3.328   1.319   0.443
  202SOL    MW4 1052   3.367   1.381   0.491
  203SOL     OW 1053   3.670   1.568   0.494
  203SOL    HW2 1054   3.579   1.548   0.473
  203SOL    HW3 1055   3.676   1.663   0.487
  203SOL    MW4 1056   3.659   1.578   0.490
  204SOL     OW 1057   3.731   2.521   0.539
  204SOL    HW2 1058   3.684   2.456   0.487
  204SOL    HW3 1059   3.722   2.491   0.629
  204SOL    MW4 1060   3.724   2.508   0.544
  205SOL     OW 1061   3.949   2.519   0.378
  205SOL    HW2 1062   3.873   2.517   0.435
  205SOL    HW3 1063   4.017   2.473   0.426
  205SOL    MW4 1064   3.948   2.512   0.392
  206SOL     OW 1065   3.070   2.489   0.401
  206SOL    HW2 1066   3.147   2.444   0.366
  206SOL    HW3 1067   3.086   2.493   0.496
  206SOL    MW4 1068   3.082   2.484   0.409
  207SOL     OW 1069   2.907   3.661   0.498
  207SOL    HW2 1070   2.993   3.699   0.481
  207SOL    HW3 1071   2.846   3.735   0.494
  207SOL    MW4 1072   2.910   3.676   0.495
  208SOL     OW 1073   3.092   2.954   0.441
  208SOL    HW2 1074   3.109   2.892   0.370
  208SOL    HW3 1075   3.007   2.927   0.476
  208SOL    MW4 1076   3.083   2.942   0.436
  209SOL     OW 1077   4.037   2.784   0.411
  209SOL    HW2 1078   4.131   2.789   0.425
  209SOL    HW3 1079   4.022   2.695   0.379
  209SOL    MW4 1080   4.047   2.773   0.408
  210SOL     OW 1081   3.689   2.980   0.520
  210SOL    HW2 1082   3.763   2.979   0.580
  210SOL    HW3 1083   3.640   2.900   0.541
  210SOL    MW4 1084   3.692   2.969   0.530
  211SOL     OW 1085   3.982   3.751   0.388
  211SOL    HW2 1086   3.954   3.691   0.457
  211SOL    HW3 1087   3.949   3.712   0.307
  211SOL    MW4 1088   3.974   3.738   0.386
  212SOL     OW 1089   3.307   2.352   0.360
  212SOL    HW2 1090   3.317   2.338   0.455
  212SOL    HW3 1091   3.395   2.371   0.329
  212SOL    MW4 1092   3.320   2.353   0.369
  213SOL     OW 1093   3.349   3.613   0.514
  213SOL    HW2 1094   3.333   3.525   0.482
  213SOL    HW3 1095   3.374   3.601   0.606
  213SOL    MW4 1096   3.350   3.600   0.522
  214SOL     OW 1097   4.239   3.695   0.479
  214SOL    HW2 1098   4.153   3.720   0.446
  214SOL    HW3 1099   4.257   3.611   0.438
  214SOL    MW4 1100   4.230   3.687   0.469
  215SOL     OW 1101   3.376   4.134   0.376
  215SOL    HW2 1102   3.377   4.227   0.395
  215SOL    HW3 1103   3.303   4.122   0.316
  215SOL    MW4 1104   3.367   4.144   0.371
  216SOL     OW 1105   3.803   4.425   0.565
  216SOL    HW2 1106   3.831   4.343   0.524
  216SOL    HW3 1107   3.805   4.406   0.658
  216SOL    MW4 1108   3.807   4.411   0.572
  217SOL     OW 1109   4.487   0.051   0.552
  217SOL    HW2 1110   4.539  -0.029   0.539
  217SOL    HW3 1111   4.486   0.064   0.647
  217SOL    MW4 1112   4.494   0.042   0.563
  218SOL     OW 1113   3.957   0.838   0.508
  218SOL    HW2 1114   3.897   0.900   0.467
  218SOL    HW3 1115   3.906   0.758   0.519
  218SOL    MW4 1116   3.943   0.836   0.504
  219SOL     OW 1117   0.055   1.764   0.115
  219SOL    HW2 1118  -0.040   1.768   0.109
  219SOL    HW3 1119   0.087   1.801   0.033
  219SOL    MW4 1120   0.047   1.770   0.104
  220SOL     OW 1121   4.288   0.339   0.316
  220SOL    HW2 1122   4.282   0.253   0.359
  220SOL    HW3 1123   4.330   0.395   0.381
  220SOL    MW4 1124   4.293   0.335   0.331
  221SOL     OW 1125   4.423   0.996   0.519
  221SOL    HW2 1126   4.413   1.089   0.498
  221SOL    HW3 1127   4.347   0.954   0.480
  221SOL    MW4 1128   4.412   1.003   0.511
  222SOL     OW 1129   3.626   4.620   0.484
  222SOL    HW2 1130   3.698   4.560   0.507
  222SOL    HW3 1131   3.668   4.687   0.430
  222SOL    MW4 1132   3.641   4.621   0.480
  223SOL     OW 1133   4.321   1.253   0.438
  223SOL    HW2 1134   4.295   1.266   0.529
  223SOL    HW3 1135   4.248   1.288   0.387
  223SOL    MW4 1136   4.308   1.259   0.444
  224SOL     OW 1137   0.064   1.376   0.431
  224SOL    HW2 1138  -0.028   1.360   0.453
  224SOL    HW3 1139   0.108   1.292   0.446
  224SOL    MW4 1140   0.058   1.363   0.436
  225SOL     OW 1141   4.001   2.123   0.475
  225SOL    HW2 1142   3.945   2.163   0.410
  225SOL    HW3 1143   4.055   2.195   0.508
  225SOL    MW4 1144   4.001   2.138   0.471
  226SOL     OW 1145   4.084   1.845   0.531
  226SOL    HW2 1146   4.153   1.912   0.529
  226SOL    HW3 1147   4.005   1.892   0.506
  226SOL    MW4 1148   4.083   1.860   0.527
  227SOL     OW 1149   4.389   2.139   0.438
  227SOL    HW2 1150   4.430   2.224   0.455
  227SOL    HW3 1151   4.462   2.080   0.418
  227SOL    MW4 1152   4.404   2.142   0.437
  228SOL     OW 1153   4.195   2.081   0.251
  228SOL    HW2 1154   4.117   2.106   0.301
  228SOL    HW3 1155   4.268   2.116   0.301
  228SOL    MW4 1156   4.194   2.089   0.264
  229SOL     OW 1157   4.449   2.405   0.513
  229SOL    HW2 1158   4.520   2.443   0.461
  229SOL    HW3 1159   4.458   2.446   0.599
  229SOL    MW4 1160   4.460   2.416   0.517
  230SOL     OW 1161   3.927   3.032   0.329
  230SOL    HW2 1162   3.971   2.947   0.333
  230SOL    HW3 1163   3.835   3.012   0.342
  230SOL    MW4 1164   3.921   3.018   0.331
  231SOL     OW 1165   4.166   2.360   0.541
  231SOL    HW2 1166   4.147   2.400   0.626
  231SOL    HW3 1167   4.261   2.351   0.539
  231SOL    MW4 1168   4.176   2.364   0.552
  232SOL     OW 1169   0.166   3.630   0.453
  232SOL    HW2 1170   0.117   3.711   0.434
  232SOL    HW3 1171   0.257   3.658   0.456
  232SOL    MW4 1172   0.171   3.644   0.450
  233SOL     OW 1173   3.829   3.631   0.155
  233SOL    HW2 1174   3.764   3.565   0.180
  233SOL    HW3 1175   3.801   3.660   0.068
  233SOL    MW4 1176   3.817   3.626   0.147
  234SOL     OW 1177   0.604   3.221   0.451
  234SOL    HW2 1178   0.560   3.264   0.523
  234SOL    HW3 1179   0.669   3.284   0.420
  234SOL    MW4 1180   0.607   3.235   0.456
  235SOL     OW 1181   3.803   3.602   0.543
  235SOL    HW2 1182   3.730   3.645   0.498
  235SOL    HW3 1183   3.782   3.612   0.636
  235SOL    MW4 1184   3.790   3.609   0.550
  236SOL     OW 1185   4.083   3.204   0.489
  236SOL    HW2 1186   4.048   3.186   0.577
  236SOL    HW3 1187   4.035   3.144   0.432
  236SOL    MW4 1188   4.072   3.194   0.493
  237SOL     OW 1189   4.304   4.081   0.523
  237SOL    HW2 1190   4.224   4.029   0.532
  237SOL    HW3 1191   4.359   4.053   0.597
  237SOL    MW4 1192   4.301   4.070   0.534
  238SOL     OW 1193   4.010   3.999   0.512
  238SOL    HW2 1194   3.992   3.915   0.469
  238SOL    HW3 1195   3.941   4.057   0.481
  238SOL    MW4 1196   3.999   3.996   0.502
  239SOL     OW 1197   3.846   4.195   0.413
  239SOL    HW2 1198   3.757   4.160   0.408
  239SOL    HW3 1199   3.868   4.215   0.322
  239SOL    MW4 1200   3.837   4.193   0.400
  240SOL     OW 1201   4.083   4.504   0.485
  240SOL    HW2 1202   4.126   4.455   0.555
  240SOL    HW3 1203   3.990   4.482   0.495
  240SOL    MW4 1204   4.076   4.494   0.495
  241SOL     OW 1205   0.237   4.639   0.905
  241SOL    HW2 1206   0.240   4.549   0.873
  241SOL    HW3 1207   0.154   4.673   0.873
  241SOL    MW4 1208   0.227   4.632   0.897
  242SOL     OW 1209   0.013   0.085   0.819
  242SOL    HW2 1210  -0.079   0.063   0.806
  242SOL    HW3 1211   0.015   0.181   0.817
  242SOL    MW4 1212   0.001   0.095   0.817
  243SOL     OW 1213   4.487   0.362   0.829
  243SOL    HW2 1214   4.479   0.373   0.924
  243SOL    HW3 1215   4.567   0.410   0.806
  243SOL    MW4 1216   4.497   0.370   0.839
  244SOL     OW 1217   0.196   0.537   0.755
  244SOL    HW2 1218   0.269   0.487   0.792
  244SOL    HW3 1219   0.206   0.625   0.790
  244SOL    MW4 1220   0.207   0.542   0.764
  245SOL     OW 1221   0.197   0.791   0.846
  245SOL    HW2 1222   0.193   0.772   0.939
  245SOL    HW3 1223   0.111   0.828   0.825
  245SOL    MW4 1224   0.185   0.794   0.855
  246SOL     OW 1225   4.443   0.893   0.781
  246SOL    HW2 1226   4.360   0.857   0.811
  246SOL    HW3 1227   4.432   0.903   0.686
  246SOL    MW4 1228   4.431   0.889   0.772
  247SOL     OW 1229   0.014   1.152   0.856
  247SOL    HW2 1230   0.001   1.160   0.951
  247SOL    HW3 1231   0.001   1.059   0.838
  247SOL    MW4 1232   0.011   1.141   0.866
  248SOL     OW 1233   0.244   1.232   0.731
  248SOL    HW2 1234   0.160   1.207   0.771
  248SOL    HW3 1235   0.251   1.177   0.653
  248SOL    MW4 1236   0.234   1.221   0.726
  249SOL     OW 1237   0.239   1.505   0.842
  249SOL    HW2 1238   0.328   1.537   0.832
  249SOL    HW3 1239   0.239   1.418   0.803
  249SOL    MW4 1240   0.251   1.498   0.836
  250SOL     OW 1241   0.017   1.651   0.793
  250SOL    HW2 1242  -0.064   1.605   0.815
  250SOL    HW3 1243   0.087   1.596   0.828
  250SOL    MW4 1244   0.015   1.638   0.801
  251SOL     OW 1245   0.011   1.943   0.816
  251SOL    HW2 1246   0.088   1.974   0.769
  251SOL    HW3 1247   0.013   1.848   0.806
  251SOL    MW4 1248   0.021   1.935   0.808
  252SOL     OW 1249   0.252   2.026   0.679
  252SOL    HW2 1250   0.255   2.121   0.675
  252SOL    HW3 1251   0.289   1.997   0.596
  252SOL    MW4 1252   0.257   2.035   0.668
  253SOL     OW 1253   0.291   2.305   0.790
  253SOL    HW2 1254   0.279   2.288   0.883
  253SOL    HW3 1255   0.364   2.366   0.785
  253SOL    MW4 1256   0.299   2.311   0.801
  254SOL     OW 1257   0.058   2.471   0.770
  254SOL    HW2 1258  -0.006   2.404   0.794
  254SOL    HW3 1259   0.142   2.426   0.770
  254SOL    MW4 1260   0.061   2.456   0.773
  255SOL     OW 1261   0.078   2.742   0.831
  255SOL    HW2 1262   0.077   2.745   0.927
  255SOL    HW3 1263   0.074   2.649   0.810
  255SOL    MW4 1264   0.077   2.730   0.841
  256SOL     OW 1265   0.285   2.860   0.706
  256SOL    HW2 1266   0.208   2.810   0.736
  256SOL    HW3 1267   0.278   2.860   0.611
  256SOL    MW4 1268   0.274   2.853   0.697
  257SOL     OW 1269   0.240   3.114   0.787
  257SOL    HW2 1270   0.247   3.115   0.883
  257SOL    HW3 1271   0.249   3.022   0.763
  257SOL    MW4 1272   0.242   3.102   0.797
  258SOL     OW 1273   0.026   3.228   0.656
  258SOL    HW2 1274   0.102   3.187   0.696
  258SOL    HW3 1275   0.061   3.277   0.581
  258SOL    MW4 1276   0.040   3.229   0.651
  259SOL     OW 1277   4.471   3.444   0.831
  259SOL    HW2 1278   4.402   3.497   0.793
  259SOL    HW3 1279   4.481   3.370   0.771
  259SOL    MW4 1280   4.463   3.441   0.818
  260SOL     OW 1281   0.163   3.609   0.734
  260SOL    HW2 1282   0.105   3.543   0.772
  260SOL    HW3 1283   0.161   3.592   0.640
  260SOL    MW4 1284   0.155   3.598   0.727
  261SOL     OW 1285   0.219   3.897   0.814
  261SOL    HW2 1286   0.225   3.923   0.906
  261SOL    HW3 1287   0.181   3.810   0.816
  261SOL    MW4 1288   0.215   3.889   0.826
  262SOL     OW 1289   4.470   4.012   0.726
  262SOL    HW2 1290   4.415   3.950   0.773
  262SOL    HW3 1291   4.560   3.981   0.741
  262SOL    MW4 1292   4.475   4.000   0.734
  263SOL     OW 1293   4.440   4.281   0.798
  263SOL    HW2 1294   4.433   4.277   0.893
  263SOL    HW3 1295   4.443   4.189   0.769
  263SOL    MW4 1296   4.440   4.268   0.806
  264SOL     OW 1297   0.215   4.407   0.757
  264SOL    HW2 1298   0.130   4.363   0.760
  264SOL    HW3 1299   0.217   4.448   0.671
  264SOL    MW4 1300   0.204   4.406   0.746
  265SOL     OW 1301   0.674   0.053   0.869
  265SOL    HW2 1302   0.669   0.046   0.964
  265SOL    HW3 1303   0.588   0.084   0.842
  265SOL    MW4 1304   0.662   0.056   0.878
  266SOL     OW 1305   0.414   0.150   0.764
  266SOL    HW2 1306   0.352   0.083   0.793
  266SOL    HW3 1307   0.427   0.133   0.671
  266SOL    MW4 1308   0.407   0.139   0.756
  267SOL     OW 1309   0.414   0.402   0.886
  267SOL    HW2 1310   0.504   0.424   0.859
  267SOL    HW3 1311   0.392   0.326   0.833
  267SOL    MW4 1312   0.423   0.395   0.875
  268SOL     OW 1313   0.655   0.493   0.766
  268SOL    HW2 1314   0.745   0.463   0.778
  268SOL    HW3 1315   0.652   0.527   0.677
  268SOL    MW4 1316   0.667   0.493   0.756
  269SOL     OW 1317   0.708   0.765   0.803
  269SOL    HW2 1318   0.629   0.803   0.764
  269SOL    HW3 1319   0.693   0.671   0.800
  269SOL    MW4 1320   0.696   0.758   0.797
  270SOL     OW 1321   0.452   0.872   0.749
  270SOL    HW2 1322   0.473   0.958   0.785
  270SOL    HW3 1323   0.368   0.849   0.789
  270SOL    MW4 1324   0.444   0.880   0.759
  271SOL     OW 1325   0.481   1.132   0.844
  271SOL    HW2 1326   0.559   1.167   0.801
  271SOL    HW3 1327   0.408   1.177   0.802
  271SOL    MW4 1328   0.482   1.143   0.833
  272SOL     OW 1329   0.708   1.261   0.756
  272SOL    HW2 1330   0.705   1.356   0.767
  272SOL    HW3 1331   0.728   1.249   0.663
  272SOL    MW4 1332   0.710   1.272   0.745
  273SOL     OW 1333   0.716   1.533   0.849
  273SOL    HW2 1334   0.706   1.528   0.944
  273SOL    HW3 1335   0.628   1.550   0.817
  273SOL    MW4 1336   0.703   1.535   0.858
  274SOL     OW 1337   0.480   1.623   0.753
  274SOL    HW2 1338   0.494   1.714   0.778
  274SOL    HW3 1339   0.474   1.625   0.658
  274SOL    MW4 1340   0.481   1.635   0.744
  275SOL     OW 1341   0.445   1.909   0.866
  275SOL    HW2 1342   0.446   1.926   0.960
  275SOL    HW3 1343   0.368   1.955   0.834
  275SOL    MW4 1344   0.435   1.917   0.874
  276SOL     OW 1345   0.623   2.093   0.753
  276SOL    HW2 1346   0.571   2.028   0.800
  276SOL    HW3 1347   0.596   2.083   0.661
  276SOL    MW4 1348   0.613   2.083   0.747
  277SOL     OW 1349   0.692   2.360   0.850
  277SOL    HW2 1350   0.713   2.351   0.943
  277SOL    HW3 1351   0.671   2.270   0.822
  277SOL    MW4 1352   0.692   2.347   0.859
  278SOL     OW 1353   0.469   2.496   0.773
  278SOL    HW2 1354   0.546   2.448   0.804
  278SOL    HW3 1355   0.489   2.516   0.681
  278SOL    MW4 1356   0.482   2.493   0.765
  279SOL     OW 1357   0.492   2.763   0.873
  279SOL    HW2 1358   0.472   2.670   0.856
  279SOL    HW3 1359   0.423   2.810   0.826
  279SOL    MW4 1360   0.480   2.757   0.864
  280SOL     OW 1361   0.713   2.858   0.731
  280SOL    HW2 1362   0.795   2.811   0.749
  280SOL    HW3 1363   0.646   2.807   0.775
  280SOL    MW4 1364   0.715   2.845   0.739
  281SOL     OW 1365   0.675   3.118   0.808
  281SOL    HW2 1366   0.602   3.159   0.763
  281SOL    HW3 1367   0.686   3.033   0.764
  281SOL    MW4 1368   0.667   3.112   0.796
  282SOL     OW 1369   0.460   3.252   0.710
  282SOL    HW2 1370   0.443   3.339   0.746
  282SOL    HW3 1371   0.382   3.201   0.734
  282SOL    MW4 1372   0.447   3.257   0.718
  283SOL     OW 1373   0.406   3.495   0.834
  283SOL    HW2 1374   0.414   3.508   0.929
  283SOL    HW3 1375   0.327   3.543   0.809
  283SOL    MW4 1376   0.397   3.503   0.844
  284SOL     OW 1377   0.651   3.614   0.791
  284SOL    HW2 1378   0.571   3.562   0.801
  284SOL    HW3 1379   0.623   3.704   0.805
  284SOL    MW4 1380   0.637   3.619   0.794
  285SOL     OW 1381   0.628   3.891   0.838
  285SOL    HW2 1382   0.707   3.919   0.791
  285SOL    HW3 1383   0.559   3.947   0.804
  285SOL    MW4 1384   0.630   3.902   0.827
  286SOL     OW 1385   0.448   4.053   0.710
  286SOL    HW2 1386   0.438   4.141   0.747
  286SOL    HW3 1387   0.375   4.003   0.749
  286SOL    MW4 1388   0.437   4.058   0.720
  287SOL     OW 1389   0.462   4.311   0.836
  287SOL    HW2 1390   0.451   4.301   0.931
  287SOL    HW3 1391   0.381   4.354   0.807
  287SOL    MW4 1392   0.450   4.315   0.845
  288SOL     OW 1393   0.700   4.456   0.785
  288SOL    HW2 1394   0.629   4.396   0.805
  288SOL    HW3 1395   0.678   4.537   0.831
  288SOL    MW4 1396   0.688   4.459   0.793
  289SOL     OW 1397   1.152   0.023   0.892
  289SOL    HW2 1398   1.215   0.081   0.849
  289SOL    HW3 1399   1.067   0.052   0.860
  289SOL    MW4 1400   1.149   0.035   0.882
  290SOL     OW 1401   0.921   0.108   0.748
  290SOL    HW2 1402   0.943   0.197   0.774
  290SOL    HW3 1403   0.834   0.092   0.785
  290SOL    MW4 1404   0.912   0.118   0.756
  291SOL     OW 1405   0.899   0.368   0.840
  291SOL    HW2 1406   0.900   0.375   0.935
  291SOL    HW3 1407   0.981   0.410   0.812
  291SOL    MW4 1408   0.910   0.375   0.849
  292SOL     OW 1409   1.130   0.504   0.746
  292SOL    HW2 1410   1.204   0.456   0.784
  292SOL    HW3 1411   1.149   0.507   0.652
  292SOL    MW4 1412   1.142   0.498   0.739
  293SOL     OW 1413   1.153   0.777   0.807
  293SOL    HW2 1414   1.140   0.770   0.901
  293SOL    HW3 1415   1.158   0.687   0.776
  293SOL    MW4 1416   1.152   0.764   0.815
  294SOL     OW 1417   0.910   0.914   0.692
  294SOL    HW2 1418   0.998   0.880   0.708
  294SOL    HW3 1419   0.852   0.847   0.728
  294SOL    MW4 1420   0.914   0.900   0.699
  295SOL     OW 1421   0.906   1.123   0.880
  295SOL    HW2 1422   0.915   1.045   0.826
  295SOL    HW3 1423   0.835   1.173   0.839
  295SOL    MW4 1424   0.898   1.119   0.867
  296SOL     OW 1425   1.116   1.310   0.748
  296SOL    HW2 1426   1.057   1.250   0.794
  296SOL    HW3 1427   1.096   1.297   0.655
  296SOL    MW4 1428   1.105   1.301   0.742
  297SOL     OW 1429   1.140   1.545   0.899
  297SOL    HW2 1430   1.069   1.606   0.880
  297SOL    HW3 1431   1.122   1.469   0.845
  297SOL    MW4 1432   1.128   1.543   0.890
  298SOL     OW 1433   0.936   1.697   0.804
  298SOL    HW2 1434   0.922   1.791   0.811
  298SOL    HW3 1435   0.851   1.658   0.824
  298SOL    MW4 1436   0.923   1.704   0.808
  299SOL     OW 1437   0.883   1.964   0.844
  299SOL    HW2 1438   0.879   1.973   0.940
  299SOL    HW3 1439   0.800   2.001   0.813
  299SOL    MW4 1440   0.872   1.970   0.853
  300SOL     OW 1441   1.143   2.055   0.719
  300SOL    HW2 1442   1.144   2.141   0.762
  300SOL    HW3 1443   1.067   2.010   0.756
  300SOL    MW4 1444   1.133   2.061   0.729
  301SOL     OW 1445   1.105   2.307   0.882
  301SOL    HW2 1446   1.113   2.302   0.977
  301SOL    HW3 1447   1.175   2.365   0.855
  301SOL    MW4 1448   1.115   2.314   0.891
  302SOL     OW 1449   0.904   2.439   0.720
  302SOL    HW2 1450   0.969   2.399   0.779
  302SOL    HW3 1451   0.820   2.407   0.752
  302SOL    MW4 1452   0.902   2.430   0.732
  303SOL     OW 1453   0.922   2.697   0.842
  303SOL    HW2 1454   0.921   2.680   0.936
  303SOL    HW3 1455   0.900   2.612   0.803
  303SOL    MW4 1456   0.919   2.683   0.849
  304SOL     OW 1457   1.159   2.766   0.696
  304SOL    HW2 1458   1.076   2.747   0.739
  304SOL    HW3 1459   1.145   2.744   0.604
  304SOL    MW4 1460   1.146   2.760   0.690
  305SOL     OW 1461   1.154   3.037   0.816
  305SOL    HW2 1462   1.073   3.083   0.796
  305SOL    HW3 1463   1.150   2.956   0.765
  305SOL    MW4 1464   1.143   3.032   0.807
  306SOL     OW 1465   0.932   3.214   0.764
  306SOL    HW2 1466   0.934   3.307   0.787
  306SOL    HW3 1467   0.841   3.188   0.777
  306SOL    MW4 1468   0.920   3.223   0.769
  307SOL     OW 1469   0.912   3.485   0.840
  307SOL    HW2 1470   0.970   3.548   0.796
  307SOL    HW3 1471   0.825   3.523   0.831
  307SOL    MW4 1472   0.908   3.499   0.833
  308SOL     OW 1473   1.107   3.634   0.719
  308SOL    HW2 1474   1.185   3.593   0.756
  308SOL    HW3 1475   1.109   3.611   0.626
  308SOL    MW4 1476   1.117   3.625   0.712
  309SOL     OW 1477   1.124   3.888   0.832
  309SOL    HW2 1478   1.129   3.874   0.926
  309SOL    HW3 1479   1.118   3.801   0.794
  309SOL    MW4 1480   1.124   3.875   0.839
  310SOL     OW 1481   0.879   4.006   0.755
  310SOL    HW2 1482   0.877   4.092   0.797
  310SOL    HW3 1483   0.955   3.962   0.793
  310SOL    MW4 1484   0.889   4.011   0.766
  311SOL     OW 1485   0.895   4.257   0.873
  311SOL    HW2 1486   0.980   4.300   0.861
  311SOL    HW3 1487   0.833   4.315   0.830
  311SOL    MW4 1488   0.898   4.270   0.865
  312SOL     OW 1489   1.117   4.418   0.815
  312SOL    HW2 1490   1.200   4.377   0.839
  312SOL    HW3 1491   1.127   4.509   0.844
  312SOL    MW4 1492   1.129   4.425   0.822
  313SOL     OW 1493   1.595   0.041   0.859
  313SOL    HW2 1494   1.574   0.006   0.946
  313SOL    HW3 1495   1.515   0.084   0.831
  313SOL    MW4 1496   1.582   0.042   0.867
  314SOL     OW 1497   1.339   0.145   0.716
  314SOL    HW2 1498   1.343   0.239   0.736
  314SOL    HW3 1499   1.307   0.142   0.626
  314SOL    MW4 1500   1.335   0.157   0.707
  315SOL     OW 1501   1.358   0.391   0.861
  315SOL    HW2 1502   1.363   0.386   0.956
  315SOL    HW3 1503   1.436   0.440   0.835
  315SOL    MW4 1504   1.369   0.397   0.870
  316SOL     OW 1505   1.602   0.515   0.734
  316SOL    HW2 1506   1.592   0.608   0.757
  316SOL    HW3 1507   1.684   0.489   0.775
  316SOL    MW4 1508   1.611   0.524   0.742
  317SOL     OW 1509   1.558   0.789   0.824
  317SOL    HW2 1510   1.634   0.832   0.786
  317SOL    HW3 1511   1.483   0.836   0.788
  317SOL    MW4 1512   1.558   0.801   0.814
  318SOL     OW 1513   1.361   0.951   0.721
  318SOL    HW2 1514   1.367   1.023   0.784
  318SOL    HW3 1515   1.285   0.901   0.748
  318SOL    MW4 1516   1.352   0.954   0.733
  319SOL     OW 1517   1.342   1.184   0.860
  319SOL    HW2 1518   1.426   1.218   0.830
  319SOL    HW3 1519   1.277   1.233   0.809
  319SOL    MW4 1520   1.344   1.195   0.849
  320SOL     OW 1521   1.562   1.293   0.725
  320SOL    HW2 1522   1.584   1.380   0.756
  320SOL    HW3 1523   1.544   1.305   0.631
  320SOL    MW4 1524   1.563   1.306   0.716
  321SOL     OW 1525   1.575   1.563   0.805
  321SOL    HW2 1526   1.562   1.568   0.900
  321SOL    HW3 1527   1.491   1.590   0.767
  321SOL    MW4 1528   1.562   1.567   0.812
  322SOL     OW 1529   1.331   1.644   0.721
  322SOL    HW2 1530   1.319   1.736   0.744
  322SOL    HW3 1531   1.285   1.596   0.790
  322SOL    MW4 1532   1.323   1.650   0.733
  323SOL     OW 1533   1.344   1.898   0.811
  323SOL    HW2 1534   1.329   1.891   0.905
  323SOL    HW3 1535   1.272   1.953   0.779
  323SOL    MW4 1536   1.332   1.904   0.819
  324SOL     OW 1537   1.557   2.055   0.762
  324SOL    HW2 1538   1.481   2.002   0.788
  324SOL    HW3 1539   1.557   2.051   0.666
  324SOL    MW4 1540   1.547   2.047   0.753
  325SOL     OW 1541   1.535   2.312   0.872
  325SOL    HW2 1542   1.466   2.360   0.828
  325SOL    HW3 1543   1.525   2.222   0.840
  325SOL    MW4 1544   1.524   2.306   0.862
  326SOL     OW 1545   1.315   2.445   0.780
  326SOL    HW2 1546   1.342   2.533   0.805
  326SOL    HW3 1547   1.305   2.449   0.685
  326SOL    MW4 1548   1.317   2.457   0.771
  327SOL     OW 1549   1.387   2.719   0.853
  327SOL    HW2 1550   1.357   2.728   0.944
  327SOL    HW3 1551   1.314   2.752   0.801
  327SOL    MW4 1552   1.373   2.725   0.858
  328SOL     OW 1553   1.586   2.822   0.706
  328SOL    HW2 1554   1.588   2.912   0.738
  328SOL    HW3 1555   1.523   2.777   0.762
  328SOL    MW4 1556   1.578   2.828   0.717
  329SOL     OW 1557   1.569   3.076   0.797
  329SOL    HW2 1558   1.571   3.080   0.892
  329SOL    HW3 1559   1.484   3.114   0.773
  329SOL    MW4 1560   1.558   3.081   0.806
  330SOL     OW 1561   1.338   3.223   0.749
  330SOL    HW2 1562   1.268   3.169   0.786
  330SOL    HW3 1563   1.323   3.221   0.655
  330SOL    MW4 1564   1.327   3.215   0.742
  331SOL     OW 1565   1.326   3.514   0.841
  331SOL    HW2 1566   1.398   3.576   0.850
  331SOL    HW3 1567   1.364   3.440   0.793
  331SOL    MW4 1568   1.341   3.512   0.836
  332SOL     OW 1569   1.552   3.666   0.830
  332SOL    HW2 1570   1.620   3.610   0.868
  332SOL    HW3 1571   1.571   3.666   0.736
  332SOL    MW4 1572   1.564   3.659   0.822
  333SOL     OW 1573   1.543   3.927   0.906
  333SOL    HW2 1574   1.459   3.952   0.866
  333SOL    HW3 1575   1.557   3.837   0.877
  333SOL    MW4 1576   1.534   3.918   0.897
  334SOL     OW 1577   1.326   4.057   0.725
  334SOL    HW2 1578   1.241   4.020   0.749
  334SOL    HW3 1579   1.326   4.057   0.629
  334SOL    MW4 1580   1.315   4.052   0.715
  335SOL     OW 1581   1.371   4.280   0.868
  335SOL    HW2 1582   1.457   4.303   0.832
  335SOL    HW3 1583   1.348   4.198   0.824
  335SOL    MW4 1584   1.380   4.272   0.857
  336SOL     OW 1585   1.587   4.460   0.742
  336SOL    HW2 1586   1.653   4.410   0.790
  336SOL    HW3 1587   1.593   4.549   0.776
  336SOL    MW4 1588   1.596   4.465   0.753
  337SOL     OW 1589   2.044   0.014   0.887
  337SOL    HW2 1590   2.138   0.030   0.893
  337SOL    HW3 1591   2.037  -0.077   0.857
  337SOL    MW4 1592   2.056   0.004   0.883
  338SOL     OW 1593   1.835   0.140   0.742
  338SOL    HW2 1594   1.913   0.107   0.786
  338SOL    HW3 1595   1.763   0.089   0.778
  338SOL    MW4 1596   1.836   0.129   0.753
  339SOL     OW 1597   1.858   0.402   0.835
  339SOL    HW2 1598   1.866   0.322   0.783
  339SOL    HW3 1599   1.936   0.453   0.813
  339SOL    MW4 1600   1.869   0.398   0.825
  340SOL     OW 1601   2.079   0.525   0.733
  340SOL    HW2 1602   2.158   0.491   0.775
  340SOL    HW3 1603   2.083   0.490   0.643
  340SOL    MW4 1604   2.090   0.516   0.726
  341SOL     OW 1605   2.036   0.794   0.825
  341SOL    HW2 1606   2.104   0.854   0.796
  341SOL    HW3 1607   2.059   0.710   0.784
  341SOL    MW4 1608   2.048   0.791   0.816
  342SOL     OW 1609   1.799   0.908   0.737
  342SOL    HW2 1610   1.814   0.999   0.762
  342SOL    HW3 1611   1.875   0.861   0.770
  342SOL    MW4 1612   1.811   0.914   0.744
  343SOL     OW 1613   1.800   1.178   0.854
  343SOL    HW2 1614   1.876   1.218   0.813
  343SOL    HW3 1615   1.725   1.218   0.809
  343SOL    MW4 1616   1.800   1.189   0.843
  344SOL     OW 1617   1.997   1.317   0.734
  344SOL    HW2 1618   2.080   1.278   0.762
  344SOL    HW3 1619   1.982   1.283   0.646
  344SOL    MW4 1620   2.006   1.308   0.726
  345SOL     OW 1621   2.017   1.545   0.886
  345SOL    HW2 1622   2.098   1.581   0.850
  345SOL    HW3 1623   2.002   1.464   0.837
  345SOL    MW4 1624   2.026   1.539   0.875
  346SOL     OW 1625   1.796   1.696   0.749
  346SOL    HW2 1626   1.854   1.636   0.794
  346SOL    HW3 1627   1.709   1.656   0.757
  346SOL    MW4 1628   1.792   1.683   0.756
  347SOL     OW 1629   1.814   1.964   0.815
  347SOL    HW2 1630   1.811   1.873   0.786
  347SOL    HW3 1631   1.724   1.996   0.806
  347SOL    MW4 1632   1.802   1.956   0.810
  348SOL     OW 1633   2.047   2.074   0.721
  348SOL    HW2 1634   2.040   2.160   0.761
  348SOL    HW3 1635   1.965   2.030   0.743
  348SOL    MW4 1636   2.036   2.079   0.729
  349SOL     OW 1637   1.998   2.325   0.857
  349SOL    HW2 1638   1.979   2.312   0.950
  349SOL    HW3 1639   1.912   2.341   0.818
  349SOL    MW4 1640   1.984   2.326   0.864
  350SOL     OW 1641   1.749   2.409   0.724
  350SOL    HW2 1642   1.666   2.376   0.758
  350SOL    HW3 1643   1.733   2.421   0.630
  350SOL    MW4 1644   1.736   2.406   0.716
  351SOL     OW 1645   1.801   2.666   0.832
  351SOL    HW2 1646   1.800   2.574   0.806
  351SOL    HW3 1647   1.732   2.707   0.780
  351SOL    MW4 1648   1.792   2.659   0.822
  352SOL     OW 1649   1.984   2.817   0.688
  352SOL    HW2 1650   2.075   2.799   0.713
  352SOL    HW3 1651   1.932   2.769   0.753
  352SOL    MW4 1652   1.989   2.808   0.700
  353SOL     OW 1653   1.990   3.043   0.869
  353SOL    HW2 1654   1.911   3.095   0.854
  353SOL    HW3 1655   1.973   2.960   0.824
  353SOL    MW4 1656   1.977   3.039   0.861
  354SOL     OW 1657   1.821   3.259   0.764
  354SOL    HW2 1658   1.733   3.223   0.748
  354SOL    HW3 1659   1.865   3.250   0.679
  354SOL    MW4 1660   1.815   3.253   0.750
  355SOL     OW 1661   1.768   3.496   0.889
  355SOL    HW2 1662   1.757   3.479   0.982
  355SOL    HW3 1663   1.787   3.410   0.851
  355SOL    MW4 1664   1.769   3.482   0.896
  356SOL     OW 1665   1.977   3.641   0.764
  356SOL    HW2 1666   1.960   3.730   0.794
  356SOL    HW3 1667   1.901   3.591   0.792
  356SOL    MW4 1668   1.965   3.646   0.772
  357SOL     OW 1669   1.964   3.898   0.846
  357SOL    HW2 1670   1.978   3.915   0.940
  357SOL    HW3 1671   1.886   3.948   0.825
  357SOL    MW4 1672   1.956   3.907   0.856
  358SOL     OW 1673   1.754   4.054   0.781
  358SOL    HW2 1674   1.669   4.014   0.800
  358SOL    HW3 1675   1.755   4.063   0.686
  358SOL    MW4 1676   1.743   4.050   0.771
  359SOL     OW 1677   1.777   4.316   0.878
  359SOL    HW2 1678   1.764   4.301   0.971
  359SOL    HW3 1679   1.759   4.231   0.837
  359SOL    MW4 1680   1.773   4.303   0.885
  360SOL     OW 1681   2.023   4.402   0.794
  360SOL    HW2 1682   1.939   4.366   0.821
  360SOL    HW3 1683   2.010   4.428   0.703
  360SOL    MW4 1684   2.010   4.401   0.786
  361SOL     OW 1685   2.559   4.583   0.840
  361SOL    HW2 1686   2.598   4.581   0.928
  361SOL    HW3 1687   2.539   4.492   0.820
  361SOL    MW4 1688   2.562   4.571   0.849
  362SOL     OW 1689   2.320   0.088   0.871
  362SOL    HW2 1690   2.394   0.032   0.894
  362SOL    HW3 1691   2.295   0.058   0.783
  362SOL    MW4 1692   2.326   0.076   0.862
  363SOL     OW 1693   2.271   0.369   0.877
  363SOL    HW2 1694   2.349   0.408   0.837
  363SOL    HW3 1695   2.289   0.275   0.878
  363SOL    MW4 1696   2.284   0.362   0.872
  364SOL     OW 1697   2.461   0.495   0.721
  364SOL    HW2 1698   2.553   0.471   0.736
  364SOL    HW3 1699   2.449   0.485   0.627
  364SOL    MW4 1700   2.472   0.491   0.711
  365SOL     OW 1701   2.447   0.788   0.813
  365SOL    HW2 1702   2.541   0.802   0.810
  365SOL    HW3 1703   2.435   0.698   0.783
  365SOL    MW4 1704   2.457   0.778   0.809
  366SOL     OW 1705   2.244   0.941   0.735
  366SOL    HW2 1706   2.323   0.901   0.771
  366SOL    HW3 1707   2.244   0.914   0.643
  366SOL    MW4 1708   2.255   0.932   0.727
  367SOL     OW 1709   2.209   1.192   0.833
  367SOL    HW2 1710   2.215   1.180   0.928
  367SOL    HW3 1711   2.222   1.105   0.796
  367SOL    MW4 1712   2.212   1.179   0.841
  368SOL     OW 1713   2.469   1.233   0.725
  368SOL    HW2 1714   2.382   1.223   0.764
  368SOL    HW3 1715   2.465   1.182   0.644
  368SOL    MW4 1716   2.457   1.225   0.719
  369SOL     OW 1717   2.457   1.537   0.783
  369SOL    HW2 1718   2.538   1.584   0.764
  369SOL    HW3 1719   2.472   1.449   0.750
  369SOL    MW4 1720   2.470   1.532   0.776
  370SOL     OW 1721   2.222   1.678   0.740
  370SOL    HW2 1722   2.308   1.637   0.733
  370SOL    HW3 1723   2.191   1.685   0.649
  370SOL    MW4 1724   2.229   1.673   0.727
  371SOL     OW 1725   2.253   1.932   0.832
  371SOL    HW2 1726   2.242   1.840   0.810
  371SOL    HW3 1727   2.185   1.977   0.781
  371SOL    MW4 1728   2.243   1.926   0.822
  372SOL     OW 1729   2.479   2.084   0.761
  372SOL    HW2 1730   2.414   2.017   0.784
  372SOL    HW3 1731   2.466   2.100   0.668
  372SOL    MW4 1732   2.469   2.077   0.752
  373SOL     OW 1733   2.472   2.325   0.890
  373SOL    HW2 1734   2.534   2.382   0.844
  373SOL    HW3 1735   2.480   2.240   0.845
  373SOL    MW4 1736   2.481   2.321   0.878
  374SOL     OW 1737   2.237   2.463   0.782
  374SOL    HW2 1738   2.308   2.422   0.832
  374SOL    HW3 1739   2.158   2.421   0.815
  374SOL    MW4 1740   2.236   2.452   0.793
  375SOL     OW 1741   2.210   2.737   0.834
  375SOL    HW2 1742   2.222   2.743   0.929
  375SOL    HW3 1743   2.206   2.643   0.817
  375SOL    MW4 1744   2.211   2.725   0.845
  376SOL     OW 1745   2.457   2.843   0.724
  376SOL    HW2 1746   2.523   2.811   0.786
  376SOL    HW3 1747   2.376   2.800   0.751
  376SOL    MW4 1748   2.455   2.833   0.736
  377SOL     OW 1749   2.415   3.107   0.854
  377SOL    HW2 1750   2.422   3.089   0.948
  377SOL    HW3 1751   2.428   3.022   0.812
  377SOL    MW4 1752   2.418   3.093   0.861
  378SOL     OW 1753   2.184   3.234   0.750
  378SOL    HW2 1754   2.119   3.177   0.792
  378SOL    HW3 1755   2.269   3.195   0.775
  378SOL    MW4 1756   2.187   3.221   0.759
  379SOL     OW 1757   2.211   3.502   0.834
  379SOL    HW2 1758   2.201   3.412   0.805
  379SOL    HW3 1759   2.124   3.541   0.820
  379SOL    MW4 1760   2.198   3.496   0.828
  380SOL     OW 1761   2.429   3.647   0.701
  380SOL    HW2 1762   2.512   3.604   0.723
  380SOL    HW3 1763   2.362   3.592   0.739
  380SOL    MW4 1764   2.431   3.634   0.709
  381SOL     OW 1765   2.432   3.882   0.874
  381SOL    HW2 1766   2.360   3.932   0.834
  381SOL    HW3 1767   2.427   3.797   0.831
  381SOL    MW4 1768   2.422   3.878   0.863
  382SOL     OW 1769   2.182   4.010   0.733
  382SOL    HW2 1770   2.104   3.963   0.762
  382SOL    HW3 1771   2.170   4.023   0.639
  382SOL    MW4 1772   2.170   4.006   0.725
  383SOL     OW 1773   2.240   4.268   0.859
  383SOL    HW2 1774   2.219   4.185   0.816
  383SOL    HW3 1775   2.174   4.329   0.827
  383SOL    MW4 1776   2.228   4.265   0.849
  384SOL     OW 1777   2.452   4.369   0.688
  384SOL    HW2 1778   2.534   4.323   0.704
  384SOL    HW3 1779   2.390   4.333   0.751
  384SOL    MW4 1780   2.455   4.358   0.698
  385SOL     OW 1781   2.898   0.016   0.784
  385SOL    HW2 1782   2.903  -0.072   0.747
  385SOL    HW3 1783   2.845   0.066   0.721
  385SOL    MW4 1784   2.891   0.011   0.770
  386SOL     OW 1785   2.570   4.651   0.548
  386SOL    HW2 1786   2.637   4.719   0.557
  386SOL    HW3 1787   2.559   4.617   0.637
  386SOL    MW4 1788   2.578   4.655   0.561
  387SOL     OW 1789   2.717   0.369   0.820
  387SOL    HW2 1790   2.725   0.355   0.915
  387SOL    HW3 1791   2.789   0.428   0.799
  387SOL    MW4 1792   2.728   0.375   0.830
  388SOL     OW 1793   2.944   0.493   0.755
  388SOL    HW2 1794   3.012   0.430   0.780
  388SOL    HW3 1795   2.923   0.471   0.664
  388SOL    MW4 1796   2.950   0.482   0.746
  389SOL     OW 1797   3.027   0.743   0.789
  389SOL    HW2 1798   2.987   0.766   0.872
  389SOL    HW3 1799   3.003   0.651   0.776
  389SOL    MW4 1800   3.018   0.734   0.798
  390SOL     OW 1801   2.697   0.892   0.775
  390SOL    HW2 1802   2.778   0.842   0.785
  390SOL    HW3 1803   2.696   0.917   0.683
  390SOL    MW4 1804   2.708   0.888   0.764
  391SOL     OW 1805   2.672   1.140   0.895
  391SOL    HW2 1806   2.673   1.048   0.868
  391SOL    HW3 1807   2.624   1.185   0.825
  391SOL    MW4 1808   2.666   1.134   0.882
  392SOL     OW 1809   2.878   1.253   0.770
  392SOL    HW2 1810   2.956   1.218   0.813
  392SOL    HW3 1811   2.805   1.215   0.818
  392SOL    MW4 1812   2.879   1.244   0.782
  393SOL     OW 1813   2.915   1.540   0.825
  393SOL    HW2 1814   2.998   1.572   0.789
  393SOL    HW3 1815   2.908   1.450   0.793
  393SOL    MW4 1816   2.925   1.532   0.816
  394SOL     OW 1817   2.689   1.686   0.734
  394SOL    HW2 1818   2.690   1.766   0.787
  394SOL    HW3 1819   2.768   1.640   0.762
  394SOL    MW4 1820   2.700   1.691   0.745
  395SOL     OW 1821   2.713   1.950   0.814
  395SOL    HW2 1822   2.719   1.955   0.910
  395SOL    HW3 1823   2.631   1.994   0.793
  395SOL    MW4 1824   2.703   1.957   0.824
  396SOL     OW 1825   2.881   2.099   0.640
  396SOL    HW2 1826   2.882   2.176   0.697
  396SOL    HW3 1827   2.836   2.032   0.692
  396SOL    MW4 1828   2.875   2.101   0.654
  397SOL     OW 1829   2.867   2.342   0.774
  397SOL    HW2 1830   2.886   2.331   0.867
  397SOL    HW3 1831   2.781   2.382   0.771
  397SOL    MW4 1832   2.858   2.346   0.786
  398SOL     OW 1833   2.645   2.503   0.751
  398SOL    HW2 1834   2.644   2.522   0.657
  398SOL    HW3 1835   2.667   2.587   0.792
  398SOL    MW4 1836   2.648   2.517   0.744
  399SOL     OW 1837   2.681   2.757   0.873
  399SOL    HW2 1838   2.688   2.742   0.968
  399SOL    HW3 1839   2.769   2.782   0.847
  399SOL    MW4 1840   2.693   2.758   0.882
  400SOL     OW 1841   2.824   2.912   0.566
  400SOL    HW2 1842   2.758   2.859   0.522
  400SOL    HW3 1843   2.786   3.000   0.570
  400SOL    MW4 1844   2.810   2.916   0.561
  401SOL     OW 1845   2.923   3.126   0.930
  401SOL    HW2 1846   2.829   3.139   0.913
  401SOL    HW3 1847   2.945   3.044   0.886
  401SOL    MW4 1848   2.913   3.117   0.922
  402SOL     OW 1849   2.677   3.209   0.850
  402SOL    HW2 1850   2.654   3.301   0.836
  402SOL    HW3 1851   2.593   3.163   0.845
  402SOL    MW4 1852   2.663   3.215   0.847
  403SOL     OW 1853   2.624   3.480   0.817
  403SOL    HW2 1854   2.633   3.484   0.913
  403SOL    HW3 1855   2.711   3.505   0.784
  403SOL    MW4 1856   2.637   3.484   0.826
  404SOL     OW 1857   2.870   3.568   0.766
  404SOL    HW2 1858   2.876   3.655   0.807
  404SOL    HW3 1859   2.901   3.582   0.676
  404SOL    MW4 1860   2.875   3.582   0.759
  405SOL     OW 1861   2.910   3.843   0.846
  405SOL    HW2 1862   2.920   3.838   0.941
  405SOL    HW3 1863   2.828   3.892   0.833
  405SOL    MW4 1864   2.900   3.849   0.857
  406SOL     OW 1865   2.675   3.993   0.773
  406SOL    HW2 1866   2.594   3.951   0.803
  406SOL    HW3 1867   2.688   3.959   0.685
  406SOL    MW4 1868   2.666   3.983   0.765
  407SOL     OW 1869   2.684   4.256   0.803
  407SOL    HW2 1870   2.672   4.267   0.897
  407SOL    HW3 1871   2.688   4.161   0.790
  407SOL    MW4 1872   2.683   4.245   0.813
  408SOL     OW 1873   2.881   4.401   0.691
  408SOL    HW2 1874   2.958   4.348   0.714
  408SOL    HW3 1875   2.807   4.353   0.729
  408SOL    MW4 1876   2.881   4.388   0.699
  409SOL     OW 1877   3.337   4.582   0.848
  409SOL    HW2 1878   3.323   4.596   0.942
  409SOL    HW3 1879   3.282   4.648   0.806
  409SOL    MW4 1880   3.328   4.593   0.855
  410SOL     OW 1881   3.168   0.093   0.725
  410SOL    HW2 1882   3.168   0.184   0.752
  410SOL    HW3 1883   3.078   0.063   0.739
  410SOL    MW4 1884   3.156   0.101   0.730
  411SOL     OW 1885   3.186   0.370   0.822
  411SOL    HW2 1886   3.196   0.389   0.915
  411SOL    HW3 1887   3.251   0.425   0.779
  411SOL    MW4 1888   3.196   0.380   0.829
  412SOL     OW 1889   3.367   0.532   0.691
  412SOL    HW2 1890   3.440   0.477   0.721
  412SOL    HW3 1891   3.376   0.532   0.596
  412SOL    MW4 1892   3.378   0.525   0.682
  413SOL     OW 1893   3.313   0.775   0.817
  413SOL    HW2 1894   3.219   0.779   0.804
  413SOL    HW3 1895   3.340   0.693   0.776
  413SOL    MW4 1896   3.304   0.765   0.810
  414SOL     OW 1897   3.115   0.940   0.605
  414SOL    HW2 1898   3.123   1.008   0.671
  414SOL    HW3 1899   3.057   0.875   0.644
  414SOL    MW4 1900   3.109   0.940   0.619
  415SOL     OW 1901   3.160   1.147   0.809
  415SOL    HW2 1902   3.183   1.147   0.902
  415SOL    HW3 1903   3.231   1.194   0.766
  415SOL    MW4 1904   3.172   1.153   0.815
  416SOL     OW 1905   3.399   1.287   0.731
  416SOL    HW2 1906   3.478   1.235   0.749
  416SOL    HW3 1907   3.411   1.366   0.784
  416SOL    MW4 1908   3.411   1.291   0.740
  417SOL     OW 1909   3.409   1.537   0.839
  417SOL    HW2 1910   3.421   1.526   0.934
  417SOL    HW3 1911   3.470   1.606   0.815
  417SOL    MW4 1912   3.418   1.544   0.849
  418SOL     OW 1913   3.166   1.631   0.746
  418SOL    HW2 1914   3.256   1.604   0.765
  418SOL    HW3 1915   3.166   1.653   0.653
  418SOL    MW4 1916   3.178   1.630   0.736
  419SOL     OW 1917   3.235   1.884   0.825
  419SOL    HW2 1918   3.183   1.897   0.904
  419SOL    HW3 1919   3.208   1.798   0.792
  419SOL    MW4 1920   3.224   1.875   0.831
  420SOL     OW 1921   3.459   2.047   0.797
  420SOL    HW2 1922   3.445   2.131   0.841
  420SOL    HW3 1923   3.379   1.997   0.813
  420SOL    MW4 1924   3.446   2.051   0.805
  421SOL     OW 1925   3.453   2.299   0.888
  421SOL    HW2 1926   3.421   2.323   0.975
  421SOL    HW3 1927   3.513   2.370   0.865
  421SOL    MW4 1928   3.457   2.312   0.896
  422SOL     OW 1929   3.085   2.522   0.680
  422SOL    HW2 1930   3.154   2.456   0.673
  422SOL    HW3 1931   3.006   2.472   0.705
  422SOL    MW4 1932   3.083   2.506   0.683
  423SOL     OW 1933   3.160   2.733   0.883
  423SOL    HW2 1934   3.126   2.656   0.837
  423SOL    HW3 1935   3.225   2.770   0.823
  423SOL    MW4 1936   3.164   2.728   0.869
  424SOL     OW 1937   3.291   2.890   0.651
  424SOL    HW2 1938   3.232   2.923   0.584
  424SOL    HW3 1939   3.360   2.845   0.602
  424SOL    MW4 1940   3.292   2.888   0.636
  425SOL     OW 1941   3.339   3.087   0.843
  425SOL    HW2 1942   3.362   3.058   0.932
  425SOL    HW3 1943   3.326   3.005   0.795
  425SOL    MW4 1944   3.340   3.072   0.849
  426SOL     OW 1945   3.111   3.249   0.779
  426SOL    HW2 1946   3.182   3.186   0.782
  426SOL    HW3 1947   3.039   3.207   0.827
  426SOL    MW4 1948   3.111   3.235   0.786
  427SOL     OW 1949   3.108   3.487   0.905
  427SOL    HW2 1950   3.118   3.398   0.872
  427SOL    HW3 1951   3.024   3.517   0.871
  427SOL    MW4 1952   3.099   3.479   0.896
  428SOL     OW 1953   3.347   3.577   0.784
  428SOL    HW2 1954   3.332   3.672   0.779
  428SOL    HW3 1955   3.267   3.543   0.825
  428SOL    MW4 1956   3.334   3.585   0.789
  429SOL     OW 1957   3.323   3.858   0.838
  429SOL    HW2 1958   3.337   3.859   0.933
  429SOL    HW3 1959   3.394   3.910   0.802
  429SOL    MW4 1960   3.334   3.865   0.846
  430SOL     OW 1961   3.105   3.970   0.691
  430SOL    HW2 1962   3.187   3.949   0.734
  430SOL    HW3 1963   3.039   3.919   0.738
  430SOL    MW4 1964   3.107   3.961   0.703
  431SOL     OW 1965   3.088   4.239   0.793
  431SOL    HW2 1966   3.180   4.264   0.780
  431SOL    HW3 1967   3.079   4.157   0.744
  431SOL    MW4 1968   3.099   4.231   0.785
  432SOL     OW 1969   3.322   4.355   0.714
  432SOL    HW2 1970   3.319   4.437   0.762
  432SOL    HW3 1971   3.355   4.378   0.627
  432SOL    MW4 1972   3.326   4.369   0.709
  433SOL     OW 1973   3.789   4.664   0.843
  433SOL    HW2 1974   3.860   4.709   0.798
  433SOL    HW3 1975   3.711   4.716   0.822
  433SOL    MW4 1976   3.788   4.677   0.834
  434SOL     OW 1977   3.541   0.107   0.757
  434SOL    HW2 1978   3.484   0.040   0.795
  434SOL    HW3 1979   3.558   0.076   0.668
  434SOL    MW4 1980   3.535   0.094   0.751
  435SOL     OW 1981   3.606   0.375   0.790
  435SOL    HW2 1982   3.585   0.379   0.883
  435SOL    HW3 1983   3.577   0.288   0.762
  435SOL    MW4 1984   3.600   0.364   0.799
  436SOL     OW 1985   3.818   0.560   0.772
  436SOL    HW2 1986   3.789   0.646   0.804
  436SOL    HW3 1987   3.747   0.500   0.795
  436SOL    MW4 1988   3.805   0.564   0.779
  437SOL     OW 1989   3.748   0.811   0.846
  437SOL    HW2 1990   3.746   0.812   0.942
  437SOL    HW3 1991   3.834   0.847   0.823
  437SOL    MW4 1992   3.759   0.816   0.856
  438SOL     OW 1993   3.487   0.950   0.674
  438SOL    HW2 1994   3.565   0.895   0.680
  438SOL    HW3 1995   3.423   0.906   0.729
  438SOL    MW4 1996   3.489   0.937   0.682
  439SOL     OW 1997   3.632   1.139   0.834
  439SOL    HW2 1998   3.608   1.131   0.926
  439SOL    HW3 1999   3.594   1.061   0.793
  439SOL    MW4 2000   3.623   1.127   0.841
  440SOL     OW 2001   3.853   1.303   0.756
  440SOL    HW2 2002   3.777   1.249   0.777
  440SOL    HW3 2003   3.850   1.312   0.661
  440SOL    MW4 2004   3.843   1.297   0.746
  441SOL     OW 2005   3.825   1.567   0.846
  441SOL    HW2 2006   3.901   1.618   0.818
  441SOL    HW3 2007   3.841   1.479   0.812
  441SOL    MW4 2008   3.837   1.562   0.838
  442SOL     OW 2009   3.601   1.722   0.771
  442SOL    HW2 2010   3.630   1.795   0.825
  442SOL    HW3 2011   3.671   1.657   0.779
  442SOL    MW4 2012   3.614   1.723   0.779
  443SOL     OW 2013   3.682   1.946   0.922
  443SOL    HW2 2014   3.747   1.999   0.876
  443SOL    HW3 2015   3.598   1.978   0.889
  443SOL    MW4 2016   3.679   1.958   0.911
  444SOL     OW 2017   3.874   2.062   0.730
  444SOL    HW2 2018   3.960   2.031   0.760
  444SOL    HW3 2019   3.888   2.086   0.639
  444SOL    MW4 2020   3.887   2.061   0.722
  445SOL     OW 2021   3.861   2.319   0.857
  445SOL    HW2 2022   3.844   2.301   0.949
  445SOL    HW3 2023   3.860   2.233   0.815
  445SOL    MW4 2024   3.859   2.305   0.863
  446SOL     OW 2025   3.653   2.494   0.812
  446SOL    HW2 2026   3.659   2.583   0.848
  446SOL    HW3 2027   3.733   2.451   0.840
  446SOL    MW4 2028   3.664   2.500   0.820
  447SOL     OW 2029   3.678   2.783   0.867
  447SOL    HW2 2030   3.668   2.776   0.962
  447SOL    HW3 2031   3.728   2.864   0.854
  447SOL    MW4 2032   3.683   2.793   0.878
  448SOL     OW 2033   3.872   2.781   0.643
  448SOL    HW2 2034   3.784   2.745   0.630
  448SOL    HW3 2035   3.907   2.788   0.554
  448SOL    MW4 2036   3.865   2.778   0.630
  449SOL     OW 2037   3.794   3.037   0.872
  449SOL    HW2 2038   3.869   3.090   0.844
  449SOL    HW3 2039   3.718   3.084   0.839
  449SOL    MW4 2040   3.794   3.050   0.864
  450SOL     OW 2041   3.573   3.179   0.746
  450SOL    HW2 2042   3.490   3.137   0.767
  450SOL    HW3 2043   3.574   3.183   0.650
  450SOL    MW4 2044   3.562   3.174   0.736
  451SOL     OW 2045   3.579   3.445   0.856
  451SOL    HW2 2046   3.562   3.354   0.830
  451SOL    HW3 2047   3.499   3.492   0.831
  451SOL    MW4 2048   3.566   3.439   0.849
  452SOL     OW 2049   3.804   3.595   0.867
  452SOL    HW2 2050   3.887   3.548   0.860
  452SOL    HW3 2051   3.738   3.527   0.856
  452SOL    MW4 2052   3.806   3.580   0.865
  453SOL     OW 2053   3.767   3.863   0.852
  453SOL    HW2 2054   3.693   3.888   0.796
  453SOL    HW3 2055   3.762   3.767   0.857
  453SOL    MW4 2056   3.757   3.853   0.845
  454SOL     OW 2057   3.541   3.979   0.723
  454SOL    HW2 2058   3.536   4.069   0.755
  454SOL    HW3 2059   3.558   3.987   0.629
  454SOL    MW4 2060   3.543   3.992   0.715
  455SOL     OW 2061   3.562   4.248   0.838
  455SOL    HW2 2062   3.646   4.294   0.833
  455SOL    HW3 2063   3.498   4.311   0.807
  455SOL    MW4 2064   3.565   4.262   0.834
  456SOL     OW 2065   3.796   4.400   0.844
  456SOL    HW2 2066   3.880   4.359   0.864
  456SOL    HW3 2067   3.815   4.494   0.840
  456SOL    MW4 2068   3.809   4.407   0.846
  457SOL     OW 2069   4.247   4.661   0.823
  457SOL    HW2 2070   4.249   4.656   0.918
  457SOL    HW3 2071   4.167   4.710   0.803
  457SOL    MW4 2072   4.237   4.667   0.833
  458SOL     OW 2073   4.013   0.145   0.742
  458SOL    HW2 2074   4.015   0.213   0.810
  458SOL    HW3 2075   3.999   0.193   0.661
  458SOL    MW4 2076   4.011   0.160   0.741
  459SOL     OW 2077   4.035   0.398   0.857
  459SOL    HW2 2078   4.111   0.432   0.811
  459SOL    HW3 2079   3.961   0.444   0.818
  459SOL    MW4 2080   4.035   0.409   0.846
  460SOL     OW 2081   4.271   0.496   0.726
  460SOL    HW2 2082   4.339   0.464   0.784
  460SOL    HW3 2083   4.316   0.516   0.644
  460SOL    MW4 2084   4.286   0.495   0.723
  461SOL     OW 2085   4.224   0.763   0.865
  461SOL    HW2 2086   4.141   0.804   0.840
  461SOL    HW3 2087   4.212   0.670   0.845
  461SOL    MW4 2088   4.212   0.756   0.859
  462SOL     OW 2089   4.002   0.895   0.770
  462SOL    HW2 2090   4.023   0.985   0.794
  462SOL    HW3 2091   4.008   0.894   0.674
  462SOL    MW4 2092   4.005   0.906   0.761
  463SOL     OW 2093   4.075   1.158   0.831
  463SOL    HW2 2094   4.059   1.140   0.924
  463SOL    HW3 2095   3.997   1.205   0.802
  463SOL    MW4 2096   4.062   1.162   0.839
  464SOL     OW 2097   4.292   1.285   0.730
  464SOL    HW2 2098   4.209   1.241   0.751
  464SOL    HW3 2099   4.359   1.225   0.763
  464SOL    MW4 2100   4.290   1.271   0.737
  465SOL     OW 2101   4.257   1.537   0.853
  465SOL    HW2 2102   4.280   1.530   0.946
  465SOL    HW3 2103   4.271   1.448   0.819
  465SOL    MW4 2104   4.262   1.524   0.861
  466SOL     OW 2105   4.068   1.716   0.797
  466SOL    HW2 2106   4.130   1.645   0.813
  466SOL    HW3 2107   4.076   1.734   0.703
  466SOL    MW4 2108   4.078   1.709   0.787
  467SOL     OW 2109   4.123   1.978   0.870
  467SOL    HW2 2110   4.204   2.016   0.836
  467SOL    HW3 2111   4.129   1.885   0.849
  467SOL    MW4 2112   4.135   1.971   0.863
  468SOL     OW 2113   4.278   2.049   0.661
  468SOL    HW2 2114   4.349   1.993   0.693
  468SOL    HW3 2115   4.311   2.085   0.578
  468SOL    MW4 2116   4.292   2.046   0.654
  469SOL     OW 2117   4.348   2.298   0.800
  469SOL    HW2 2118   4.260   2.337   0.808
  469SOL    HW3 2119   4.332   2.210   0.768
  469SOL    MW4 2120   4.334   2.292   0.797
  470SOL     OW 2121   4.108   2.438   0.802
  470SOL    HW2 2122   4.093   2.531   0.818
  470SOL    HW3 2123   4.028   2.395   0.831
  470SOL    MW4 2124   4.096   2.445   0.808
  471SOL     OW 2125   4.076   2.702   0.819
  471SOL    HW2 2126   4.153   2.754   0.797
  471SOL    HW3 2127   4.011   2.728   0.754
  471SOL    MW4 2128   4.078   2.712   0.808
  472SOL     OW 2129   4.311   2.835   0.768
  472SOL    HW2 2130   4.395   2.810   0.805
  472SOL    HW3 2131   4.323   2.825   0.673
  472SOL    MW4 2132   4.323   2.830   0.760
  473SOL     OW 2133   4.304   3.112   0.838
  473SOL    HW2 2134   4.317   3.025   0.803
  473SOL    HW3 2135   4.355   3.169   0.780
  473SOL    MW4 2136   4.313   3.108   0.826
  474SOL     OW 2137   4.012   3.164   0.760
  474SOL    HW2 2138   4.015   3.256   0.786
  474SOL    HW3 2139   4.099   3.130   0.782
  474SOL    MW4 2140   4.024   3.172   0.767
  475SOL     OW 2141   4.041   3.450   0.840
  475SOL    HW2 2142   4.056   3.464   0.934
  475SOL    HW3 2143   4.113   3.494   0.797
  475SOL    MW4 2144   4.052   3.457   0.847
  476SOL     OW 2145   4.269   3.593   0.733
  476SOL    HW2 2146   4.272   3.674   0.783
  476SOL    HW3 2147   4.266   3.620   0.642
  476SOL    MW4 2148   4.269   3.607   0.728
  477SOL     OW 2149   4.267   3.845   0.853
  477SOL    HW2 2150   4.261   3.855   0.948
  477SOL    HW3 2151   4.181   3.871   0.821
  477SOL    MW4 2152   4.255   3.850   0.861
  478SOL     OW 2153   4.020   3.974   0.780
  478SOL    HW2 2154   3.945   3.930   0.820
  478SOL    HW3 2155   3.998   3.981   0.687
  478SOL    MW4 2156   4.007   3.969   0.773
  479SOL     OW 2157   4.035   4.236   0.843
  479SOL    HW2 2158   4.100   4.293   0.802
  479SOL    HW3 2159   4.047   4.151   0.802
  479SOL    MW4 2160   4.045   4.232   0.832
  480SOL     OW 2161   4.216   4.402   0.699
  480SOL    HW2 2162   4.224   4.493   0.727
  480SOL    HW3 2163   4.305   4.366   0.710
  480SOL    MW4 2164   4.229   4.409   0.704
  481SOL     OW 2165   0.211   0.018   1.182
  481SOL    HW2 2166   0.295   0.049   1.216
  481SOL    HW3 2167   0.226   0.007   1.088
  481SOL    MW4 2168   0.224   0.021   1.174
  482SOL     OW 2169   4.461   0.140   1.251
  482SOL    HW2 2170   4.389   0.091   1.211
  482SOL    HW3 2171   4.539   0.087   1.233
  482SOL    MW4 2172   4.462   0.127   1.243
  483SOL     OW 2173   4.465   0.391   1.121
  483SOL    HW2 2174   4.387   0.429   1.161
  483SOL    HW3 2175   4.469   0.302   1.156
  483SOL    MW4 2176   4.456   0.384   1.131
  484SOL     OW 2177   0.187   0.514   1.246
  484SOL    HW2 2178   0.196   0.590   1.189
  484SOL    HW3 2179   0.118   0.461   1.206
  484SOL    MW4 2180   0.179   0.517   1.233
  485SOL     OW 2181   0.217   0.752   1.111
  485SOL    HW2 2182   0.301   0.781   1.146
  485SOL    HW3 2183   0.151   0.800   1.161
  485SOL    MW4 2184   0.219   0.762   1.122
  486SOL     OW 2185   4.483   0.912   1.241
  486SOL    HW2 2186   4.486   0.895   1.335
  486SOL    HW3 2187   4.412   0.856   1.208
  486SOL    MW4 2188   4.474   0.903   1.249
  487SOL     OW 2189   4.453   1.161   1.124
  487SOL    HW2 2190   4.372   1.196   1.160
  487SOL    HW3 2191   4.466   1.077   1.168
  487SOL    MW4 2192   4.444   1.155   1.134
  488SOL     OW 2193   0.199   1.262   1.230
  488SOL    HW2 2194   0.259   1.202   1.185
  488SOL    HW3 2195   0.112   1.236   1.199
  488SOL    MW4 2196   0.195   1.250   1.220
  489SOL     OW 2197   0.238   1.516   1.129
  489SOL    HW2 2198   0.254   1.426   1.159
  489SOL    HW3 2199   0.225   1.508   1.034
  489SOL    MW4 2200   0.239   1.503   1.120
  490SOL     OW 2201   0.023   1.663   1.235
  490SOL    HW2 2202   0.033   1.746   1.188
  490SOL    HW3 2203   0.098   1.611   1.208
  490SOL    MW4 2204   0.034   1.667   1.225
  491SOL     OW 2205   0.007   1.911   1.121
  491SOL    HW2 2206  -0.064   1.963   1.159
  491SOL    HW3 2207   0.001   1.928   1.027
  491SOL    MW4 2208  -0.003   1.920   1.113
  492SOL     OW 2209   0.198   2.064   1.249
  492SOL    HW2 2210   0.202   2.136   1.187
  492SOL    HW3 2211   0.140   1.999   1.208
  492SOL    MW4 2212   0.191   2.065   1.236
  493SOL     OW 2213   0.230   2.289   1.070
  493SOL    HW2 2214   0.314   2.335   1.076
  493SOL    HW3 2215   0.166   2.353   1.098
  493SOL    MW4 2216   0.233   2.303   1.074
  494SOL     OW 2217   0.033   2.432   1.194
  494SOL    HW2 2218   0.029   2.425   1.289
  494SOL    HW3 2219  -0.034   2.371   1.162
  494SOL    MW4 2220   0.023   2.423   1.202
  495SOL     OW 2221   0.033   2.718   1.111
  495SOL    HW2 2222  -0.033   2.745   1.174
  495SOL    HW3 2223   0.014   2.625   1.094
  495SOL    MW4 2224   0.022   2.709   1.117
  496SOL     OW 2225   0.246   2.855   1.221
  496SOL    HW2 2226   0.226   2.841   1.314
  496SOL    HW3 2227   0.178   2.807   1.174
  496SOL    MW4 2228   0.234   2.847   1.227
  497SOL     OW 2229   0.205   3.090   1.077
  497SOL    HW2 2230   0.276   3.148   1.104
  497SOL    HW3 2231   0.216   3.012   1.130
  497SOL    MW4 2232   0.216   3.088   1.087
  498SOL     OW 2233   4.484   3.233   1.210
  498SOL    HW2 2234   4.417   3.169   1.188
  498SOL    HW3 2235   4.563   3.200   1.167
  498SOL    MW4 2236   4.485   3.220   1.201
  499SOL     OW 2237   4.449   3.500   1.107
  499SOL    HW2 2238   4.461   3.416   1.150
  499SOL    HW3 2239   4.465   3.482   1.014
  499SOL    MW4 2240   4.453   3.487   1.100
  500SOL     OW 2241   0.185   3.647   1.191
  500SOL    HW2 2242   0.189   3.635   1.285
  500SOL    HW3 2243   0.105   3.602   1.164
  500SOL    MW4 2244   0.175   3.639   1.200
  501SOL     OW 2245   0.212   3.915   1.098
  501SOL    HW2 2246   0.141   3.952   1.152
  501SOL    HW3 2247   0.204   3.821   1.110
  501SOL    MW4 2248   0.202   3.908   1.107
  502SOL     OW 2249   4.465   4.002   1.203
  502SOL    HW2 2250   4.451   3.996   1.297
  502SOL    HW3 2251   4.393   3.953   1.164
  502SOL    MW4 2252   4.454   3.995   1.210
  503SOL     OW 2253   4.449   4.264   1.094
  503SOL    HW2 2254   4.534   4.293   1.127
  503SOL    HW3 2255   4.450   4.169   1.104
  503SOL    MW4 2256   4.460   4.255   1.100
  504SOL     OW 2257   0.149   4.414   1.236
  504SOL    HW2 2258   0.180   4.409   1.326
  504SOL    HW3 2259   0.159   4.506   1.212
  504SOL    MW4 2260   0.154   4.426   1.244
  505SOL     OW 2261   0.679   4.653   1.144
  505SOL    HW2 2262   0.751   4.687   1.198
  505SOL    HW3 2263   0.664   4.564   1.178
  505SOL    MW4 2264   0.687   4.645   1.156
  506SOL     OW 2265   0.472   0.120   1.268
  506SOL    HW2 2266   0.458   0.206   1.228
  506SOL    HW3 2267   0.548   0.084   1.222
  506SOL    MW4 2268   0.480   0.127   1.257
  507SOL     OW 2269   0.416   0.379   1.166
  507SOL    HW2 2270   0.330   0.408   1.196
  507SOL    HW3 2271   0.411   0.386   1.070
  507SOL    MW4 2272   0.404   0.384   1.157
  508SOL     OW 2273   0.653   0.489   1.248
  508SOL    HW2 2274   0.652   0.576   1.209
  508SOL    HW3 2275   0.569   0.450   1.224
  508SOL    MW4 2276   0.642   0.495   1.240
  509SOL     OW 2277   0.649   0.731   1.092
  509SOL    HW2 2278   0.578   0.791   1.116
  509SOL    HW3 2279   0.665   0.748   1.000
  509SOL    MW4 2280   0.642   0.741   1.083
  510SOL     OW 2281   0.444   0.885   1.210
  510SOL    HW2 2282   0.426   0.908   1.302
  510SOL    HW3 2283   0.432   0.967   1.162
  510SOL    MW4 2284   0.440   0.899   1.216
  511SOL     OW 2285   0.422   1.138   1.117
  511SOL    HW2 2286   0.499   1.161   1.169
  511SOL    HW3 2287   0.451   1.148   1.026
  511SOL    MW4 2288   0.436   1.142   1.112
  512SOL     OW 2289   0.627   1.254   1.251
  512SOL    HW2 2290   0.705   1.199   1.250
  512SOL    HW3 2291   0.657   1.337   1.213
  512SOL    MW4 2292   0.642   1.258   1.246
  513SOL     OW 2293   0.683   1.546   1.133
  513SOL    HW2 2294   0.751   1.603   1.167
  513SOL    HW3 2295   0.602   1.597   1.142
  513SOL    MW4 2296   0.681   1.560   1.139
  514SOL     OW 2297   0.446   1.666   1.227
  514SOL    HW2 2298   0.436   1.648   1.320
  514SOL    HW3 2299   0.374   1.619   1.186
  514SOL    MW4 2300   0.436   1.657   1.234
  515SOL     OW 2301   0.430   1.935   1.141
  515SOL    HW2 2302   0.436   1.844   1.170
  515SOL    HW3 2303   0.341   1.961   1.165
  515SOL    MW4 2304   0.419   1.927   1.148
  516SOL     OW 2305   0.654   2.050   1.220
  516SOL    HW2 2306   0.645   2.055   1.315
  516SOL    HW3 2307   0.582   1.995   1.192
  516SOL    MW4 2308   0.643   2.044   1.229
  517SOL     OW 2309   0.705   2.310   1.128
  517SOL    HW2 2310   0.622   2.358   1.133
  517SOL    HW3 2311   0.686   2.226   1.169
  517SOL    MW4 2312   0.691   2.305   1.134
  518SOL     OW 2313   0.445   2.424   1.176
  518SOL    HW2 2314   0.442   2.408   1.270
  518SOL    HW3 2315   0.450   2.519   1.168
  518SOL    MW4 2316   0.445   2.434   1.187
  519SOL     OW 2317   0.480   2.704   1.160
  519SOL    HW2 2318   0.401   2.752   1.186
  519SOL    HW3 2319   0.490   2.724   1.067
  519SOL    MW4 2320   0.471   2.713   1.151
  520SOL     OW 2321   0.695   2.884   1.211
  520SOL    HW2 2322   0.680   2.970   1.173
  520SOL    HW3 2323   0.618   2.833   1.187
  520SOL    MW4 2324   0.683   2.888   1.203
  521SOL     OW 2325   0.668   3.126   1.086
  521SOL    HW2 2326   0.755   3.145   1.121
  521SOL    HW3 2327   0.682   3.120   0.991
  521SOL    MW4 2328   0.682   3.128   1.078
  522SOL     OW 2329   0.418   3.264   1.170
  522SOL    HW2 2330   0.426   3.356   1.147
  522SOL    HW3 2331   0.497   3.223   1.133
  522SOL    MW4 2332   0.430   3.271   1.162
  523SOL     OW 2333   0.433   3.540   1.104
  523SOL    HW2 2334   0.517   3.578   1.132
  523SOL    HW3 2335   0.367   3.597   1.143
  523SOL    MW4 2336   0.436   3.553   1.113
  524SOL     OW 2337   0.667   3.673   1.183
  524SOL    HW2 2338   0.675   3.678   1.278
  524SOL    HW3 2339   0.665   3.764   1.154
  524SOL    MW4 2340   0.668   3.685   1.191
  525SOL     OW 2341   0.679   3.933   1.096
  525SOL    HW2 2342   0.602   3.972   1.139
  525SOL    HW3 2343   0.656   3.933   1.003
  525SOL    MW4 2344   0.666   3.938   1.089
  526SOL     OW 2345   0.446   4.056   1.204
  526SOL    HW2 2346   0.437   4.151   1.208
  526SOL    HW3 2347   0.368   4.026   1.158
  526SOL    MW4 2348   0.435   4.065   1.198
  527SOL     OW 2349   0.391   4.312   1.119
  527SOL    HW2 2350   0.464   4.354   1.164
  527SOL    HW3 2351   0.313   4.348   1.160
  527SOL    MW4 2352   0.390   4.322   1.130
  528SOL     OW 2353   0.642   4.394   1.226
  528SOL    HW2 2354   0.640   4.387   1.322
  528SOL    HW3 2355   0.730   4.365   1.202
  528SOL    MW4 2356   0.653   4.389   1.236
  529SOL     OW 2357   1.100   0.038   1.170
  529SOL    HW2 2358   1.102  -0.057   1.185
  529SOL    HW3 2359   1.121   0.048   1.077
  529SOL    MW4 2360   1.103   0.026   1.160
  530SOL     OW 2361   0.878   0.144   1.263
  530SOL    HW2 2362   0.886   0.120   1.355
  530SOL    HW3 2363   0.956   0.108   1.221
  530SOL    MW4 2364   0.889   0.136   1.269
  531SOL     OW 2365   0.885   0.375   1.123
  531SOL    HW2 2366   0.870   0.292   1.170
  531SOL    HW3 2367   0.815   0.433   1.153
  531SOL    MW4 2368   0.874   0.371   1.133
  532SOL     OW 2369   1.147   0.473   1.226
  532SOL    HW2 2370   1.135   0.481   1.321
  532SOL    HW3 2371   1.061   0.444   1.194
  532SOL    MW4 2372   1.134   0.471   1.234
  533SOL     OW 2373   1.133   0.756   1.103
  533SOL    HW2 2374   1.049   0.787   1.137
  533SOL    HW3 2375   1.143   0.669   1.140
  533SOL    MW4 2376   1.123   0.749   1.112
  534SOL     OW 2377   0.882   0.829   1.186
  534SOL    HW2 2378   0.869   0.924   1.179
  534SOL    HW3 2379   0.807   0.792   1.138
  534SOL    MW4 2380   0.870   0.837   1.178
  535SOL     OW 2381   0.868   1.109   1.163
  535SOL    HW2 2382   0.937   1.170   1.188
  535SOL    HW3 2383   0.864   1.115   1.068
  535SOL    MW4 2384   0.877   1.118   1.154
  536SOL     OW 2385   1.074   1.273   1.266
  536SOL    HW2 2386   1.087   1.288   1.360
  536SOL    HW3 2387   1.158   1.236   1.237
  536SOL    MW4 2388   1.087   1.270   1.275
  537SOL     OW 2389   1.105   1.529   1.175
  537SOL    HW2 2390   1.072   1.443   1.203
  537SOL    HW3 2391   1.128   1.516   1.083
  537SOL    MW4 2392   1.103   1.516   1.167
  538SOL     OW 2393   0.891   1.686   1.230
  538SOL    HW2 2394   0.902   1.764   1.176
  538SOL    HW3 2395   0.972   1.636   1.217
  538SOL    MW4 2396   0.903   1.689   1.221
  539SOL     OW 2397   0.890   1.940   1.125
  539SOL    HW2 2398   0.961   1.984   1.172
  539SOL    HW3 2399   0.812   1.990   1.148
  539SOL    MW4 2400   0.889   1.952   1.134
  540SOL     OW 2401   1.105   2.060   1.251
  540SOL    HW2 2402   1.109   2.053   1.347
  540SOL    HW3 2403   1.130   2.150   1.232
  540SOL    MW4 2404   1.109   2.071   1.261
  541SOL     OW 2405   1.148   2.327   1.170
  541SOL    HW2 2406   1.219   2.382   1.202
  541SOL    HW3 2407   1.069   2.377   1.189
  541SOL    MW4 2408   1.147   2.341   1.177
  542SOL     OW 2409   0.897   2.483   1.234
  542SOL    HW2 2410   0.888   2.481   1.330
  542SOL    HW3 2411   0.833   2.418   1.203
  542SOL    MW4 2412   0.887   2.474   1.243
  543SOL     OW 2413   0.901   2.719   1.115
  543SOL    HW2 2414   0.881   2.636   1.158
  543SOL    HW3 2415   0.830   2.777   1.142
  543SOL    MW4 2416   0.889   2.715   1.124
  544SOL     OW 2417   1.113   2.823   1.254
  544SOL    HW2 2418   1.102   2.809   1.348
  544SOL    HW3 2419   1.034   2.787   1.215
  544SOL    MW4 2420   1.101   2.817   1.261
  545SOL     OW 2421   1.148   3.075   1.116
  545SOL    HW2 2422   1.147   2.994   1.167
  545SOL    HW3 2423   1.126   3.048   1.027
  545SOL    MW4 2424   1.145   3.061   1.111
  546SOL     OW 2425   0.892   3.209   1.232
  546SOL    HW2 2426   0.895   3.300   1.202
  546SOL    HW3 2427   0.979   3.175   1.212
  546SOL    MW4 2428   0.903   3.216   1.225
  547SOL     OW 2429   0.840   3.441   1.110
  547SOL    HW2 2430   0.773   3.507   1.128
  547SOL    HW3 2431   0.859   3.451   1.017
  547SOL    MW4 2432   0.833   3.451   1.100
  548SOL     OW 2433   1.069   3.593   1.191
  548SOL    HW2 2434   1.147   3.551   1.155
  548SOL    HW3 2435   0.995   3.545   1.154
  548SOL    MW4 2436   1.070   3.581   1.181
  549SOL     OW 2437   1.139   3.847   1.111
  549SOL    HW2 2438   1.062   3.889   1.150
  549SOL    HW3 2439   1.125   3.753   1.125
  549SOL    MW4 2440   1.127   3.840   1.118
  550SOL     OW 2441   0.929   4.014   1.205
  550SOL    HW2 2442   0.915   4.029   1.299
  550SOL    HW3 2443   0.843   3.985   1.173
  550SOL    MW4 2444   0.916   4.012   1.213
  551SOL     OW 2445   0.895   4.308   1.161
  551SOL    HW2 2446   0.905   4.215   1.179
  551SOL    HW3 2447   0.897   4.314   1.065
  551SOL    MW4 2448   0.897   4.296   1.150
  552SOL     OW 2449   1.118   4.442   1.232
  552SOL    HW2 2450   1.120   4.427   1.327
  552SOL    HW3 2451   1.034   4.405   1.205
  552SOL    MW4 2452   1.107   4.435   1.241
  553SOL     OW 2453   1.616   4.615   1.115
  553SOL    HW2 2454   1.665   4.670   1.176
  553SOL    HW3 2455   1.581   4.544   1.169
  553SOL    MW4 2456   1.618   4.613   1.130
  554SOL     OW 2457   1.385   0.123   1.204
  554SOL    HW2 2458   1.443   0.059   1.164
  554SOL    HW3 2459   1.297   0.088   1.190
  554SOL    MW4 2460   1.381   0.110   1.197
  555SOL     OW 2461   1.397   0.406   1.127
  555SOL    HW2 2462   1.402   0.316   1.157
  555SOL    HW3 2463   1.318   0.441   1.168
  555SOL    MW4 2464   1.387   0.399   1.136
  556SOL     OW 2465   1.636   0.516   1.209
  556SOL    HW2 2466   1.622   0.598   1.162
  556SOL    HW3 2467   1.556   0.465   1.193
  556SOL    MW4 2468   1.623   0.520   1.201
  557SOL     OW 2469   1.566   0.748   1.099
  557SOL    HW2 2470   1.652   0.787   1.118
  557SOL    HW3 2471   1.564   0.740   1.004
  557SOL    MW4 2472   1.577   0.752   1.089
  558SOL     OW 2473   1.335   0.878   1.254
  558SOL    HW2 2474   1.407   0.837   1.207
  558SOL    HW3 2475   1.256   0.837   1.219
  558SOL    MW4 2476   1.334   0.867   1.243
  559SOL     OW 2477   1.322   1.156   1.173
  559SOL    HW2 2478   1.308   1.062   1.186
  559SOL    HW3 2479   1.314   1.169   1.079
  559SOL    MW4 2480   1.319   1.146   1.163
  560SOL     OW 2481   1.558   1.317   1.215
  560SOL    HW2 2482   1.618   1.261   1.166
  560SOL    HW3 2483   1.475   1.269   1.215
  560SOL    MW4 2484   1.555   1.303   1.208
  561SOL     OW 2485   1.546   1.555   1.082
  561SOL    HW2 2486   1.619   1.607   1.116
  561SOL    HW3 2487   1.566   1.465   1.107
  561SOL    MW4 2488   1.558   1.550   1.090
  562SOL     OW 2489   1.342   1.671   1.230
  562SOL    HW2 2490   1.416   1.624   1.192
  562SOL    HW3 2491   1.269   1.609   1.223
  562SOL    MW4 2492   1.342   1.656   1.224
  563SOL     OW 2493   1.299   1.926   1.107
  563SOL    HW2 2494   1.320   1.839   1.141
  563SOL    HW3 2495   1.232   1.960   1.166
  563SOL    MW4 2496   1.293   1.919   1.119
  564SOL     OW 2497   1.535   2.058   1.195
  564SOL    HW2 2498   1.552   2.151   1.181
  564SOL    HW3 2499   1.457   2.040   1.143
  564SOL    MW4 2500   1.527   2.068   1.186
  565SOL     OW 2501   1.561   2.332   1.144
  565SOL    HW2 2502   1.489   2.385   1.177
  565SOL    HW3 2503   1.554   2.339   1.048
  565SOL    MW4 2504   1.550   2.340   1.136
  566SOL     OW 2505   1.370   2.480   1.251
  566SOL    HW2 2506   1.339   2.478   1.342
  566SOL    HW3 2507   1.347   2.568   1.221
  566SOL    MW4 2508   1.363   2.491   1.259
  567SOL     OW 2509   1.331   2.726   1.136
  567SOL    HW2 2510   1.409   2.764   1.175
  567SOL    HW3 2511   1.258   2.762   1.186
  567SOL    MW4 2512   1.332   2.735   1.148
  568SOL     OW 2513   1.567   2.853   1.207
  568SOL    HW2 2514   1.642   2.801   1.179
  568SOL    HW3 2515   1.563   2.926   1.146
  568SOL    MW4 2516   1.576   2.855   1.196
  569SOL     OW 2517   1.552   3.106   1.073
  569SOL    HW2 2518   1.638   3.131   1.106
  569SOL    HW3 2519   1.491   3.160   1.123
  569SOL    MW4 2520   1.555   3.116   1.084
  570SOL     OW 2521   1.342   3.225   1.220
  570SOL    HW2 2522   1.328   3.226   1.315
  570SOL    HW3 2523   1.273   3.168   1.186
  570SOL    MW4 2524   1.331   3.217   1.228
  571SOL     OW 2525   1.301   3.477   1.116
  571SOL    HW2 2526   1.318   3.386   1.140
  571SOL    HW3 2527   1.312   3.479   1.021
  571SOL    MW4 2528   1.305   3.465   1.106
  572SOL     OW 2529   1.518   3.583   1.234
  572SOL    HW2 2530   1.529   3.676   1.217
  572SOL    HW3 2531   1.425   3.566   1.221
  572SOL    MW4 2532   1.507   3.593   1.230
  573SOL     OW 2533   1.530   3.846   1.181
  573SOL    HW2 2534   1.462   3.902   1.219
  573SOL    HW3 2535   1.529   3.867   1.088
  573SOL    MW4 2536   1.521   3.857   1.174
  574SOL     OW 2537   1.319   4.010   1.262
  574SOL    HW2 2538   1.321   4.090   1.211
  574SOL    HW3 2539   1.253   3.955   1.220
  574SOL    MW4 2540   1.311   4.013   1.250
  575SOL     OW 2541   1.293   4.247   1.127
  575SOL    HW2 2542   1.230   4.316   1.147
  575SOL    HW3 2543   1.323   4.268   1.038
  575SOL    MW4 2544   1.289   4.259   1.118
  576SOL     OW 2545   1.490   4.408   1.242
  576SOL    HW2 2546   1.496   4.392   1.336
  576SOL    HW3 2547   1.425   4.345   1.211
  576SOL    MW4 2548   1.482   4.398   1.251
  577SOL     OW 2549   1.995   4.646   1.162
  577SOL    HW2 2550   2.009   4.556   1.191
  577SOL    HW3 2551   1.983   4.640   1.068
  577SOL    MW4 2552   1.995   4.633   1.154
  578SOL     OW 2553   1.801   0.128   1.265
  578SOL    HW2 2554   1.823   0.211   1.222
  578SOL    HW3 2555   1.866   0.066   1.232
  578SOL    MW4 2556   1.812   0.131   1.255
  579SOL     OW 2557   1.840   0.370   1.125
  579SOL    HW2 2558   1.772   0.435   1.144
  579SOL    HW3 2559   1.836   0.358   1.030
  579SOL    MW4 2560   1.831   0.377   1.115
  580SOL     OW 2561   2.030   0.548   1.212
  580SOL    HW2 2562   2.035   0.548   1.307
  580SOL    HW3 2563   1.966   0.480   1.190
  580SOL    MW4 2564   2.022   0.539   1.221
  581SOL     OW 2565   2.031   0.802   1.099
  581SOL    HW2 2566   2.036   0.709   1.122
  581SOL    HW3 2567   2.031   0.803   1.003
  581SOL    MW4 2568   2.032   0.790   1.089
  582SOL     OW 2569   1.788   0.896   1.186
  582SOL    HW2 2570   1.793   0.917   1.280
  582SOL    HW3 2571   1.878   0.874   1.162
  582SOL    MW4 2572   1.801   0.896   1.196
  583SOL     OW 2573   1.777   1.185   1.126
  583SOL    HW2 2574   1.774   1.092   1.148
  583SOL    HW3 2575   1.787   1.186   1.031
  583SOL    MW4 2576   1.778   1.173   1.116
  584SOL     OW 2577   1.986   1.307   1.244
  584SOL    HW2 2578   2.062   1.258   1.214
  584SOL    HW3 2579   1.911   1.261   1.206
  584SOL    MW4 2580   1.986   1.294   1.235
  585SOL     OW 2581   2.005   1.582   1.147
  585SOL    HW2 2582   2.012   1.493   1.182
  585SOL    HW3 2583   2.010   1.570   1.052
  585SOL    MW4 2584   2.007   1.569   1.139
  586SOL     OW 2585   1.757   1.680   1.223
  586SOL    HW2 2586   1.764   1.770   1.190
  586SOL    HW3 2587   1.834   1.636   1.188
  586SOL    MW4 2588   1.768   1.686   1.214
  587SOL     OW 2589   1.787   1.950   1.117
  587SOL    HW2 2590   1.696   1.978   1.119
  587SOL    HW3 2591   1.810   1.949   1.024
  587SOL    MW4 2592   1.778   1.953   1.105
  588SOL     OW 2593   2.043   2.082   1.201
  588SOL    HW2 2594   2.044   2.069   1.296
  588SOL    HW3 2595   1.958   2.051   1.173
  588SOL    MW4 2596   2.032   2.076   1.210
  589SOL     OW 2597   2.010   2.357   1.153
  589SOL    HW2 2598   2.096   2.395   1.172
  589SOL    HW3 2599   2.018   2.265   1.176
  589SOL    MW4 2600   2.022   2.350   1.158
  590SOL     OW 2601   1.782   2.453   1.261
  590SOL    HW2 2602   1.867   2.416   1.241
  590SOL    HW3 2603   1.720   2.400   1.211
  590SOL    MW4 2604   1.785   2.441   1.252
  591SOL     OW 2605   1.803   2.700   1.121
  591SOL    HW2 2606   1.798   2.614   1.163
  591SOL    HW3 2607   1.792   2.681   1.028
  591SOL    MW4 2608   1.800   2.686   1.114
  592SOL     OW 2609   2.044   2.790   1.242
  592SOL    HW2 2610   2.036   2.876   1.201
  592SOL    HW3 2611   1.969   2.741   1.208
  592SOL    MW4 2612   2.033   2.795   1.232
  593SOL     OW 2613   2.015   3.060   1.137
  593SOL    HW2 2614   1.931   3.089   1.172
  593SOL    HW3 2615   2.002   3.055   1.042
  593SOL    MW4 2616   2.003   3.063   1.129
  594SOL     OW 2617   1.784   3.185   1.216
  594SOL    HW2 2618   1.776   3.191   1.311
  594SOL    HW3 2619   1.773   3.274   1.185
  594SOL    MW4 2620   1.781   3.197   1.224
  595SOL     OW 2621   1.743   3.469   1.156
  595SOL    HW2 2622   1.801   3.545   1.167
  595SOL    HW3 2623   1.655   3.504   1.171
  595SOL    MW4 2624   1.739   3.484   1.159
  596SOL     OW 2625   1.981   3.648   1.213
  596SOL    HW2 2626   1.994   3.643   1.308
  596SOL    HW3 2627   2.056   3.602   1.175
  596SOL    MW4 2628   1.993   3.641   1.220
  597SOL     OW 2629   2.005   3.915   1.123
  597SOL    HW2 2630   1.929   3.966   1.150
  597SOL    HW3 2631   1.989   3.828   1.159
  597SOL    MW4 2632   1.993   3.910   1.131
  598SOL     OW 2633   1.758   4.001   1.214
  598SOL    HW2 2634   1.771   4.011   1.308
  598SOL    HW3 2635   1.680   3.947   1.207
  598SOL    MW4 2636   1.749   3.995   1.226
  599SOL     OW 2637   1.737   4.276   1.155
  599SOL    HW2 2638   1.733   4.182   1.169
  599SOL    HW3 2639   1.652   4.308   1.186
  599SOL    MW4 2640   1.725   4.268   1.161
  600SOL     OW 2641   1.993   4.383   1.218
  600SOL    HW2 2642   1.975   4.385   1.312
  600SOL    HW3 2643   1.912   4.351   1.179
  600SOL    MW4 2644   1.980   4.379   1.226
  601SOL     OW 2645   2.496   4.663   1.121
  601SOL    HW2 2646   2.569   4.719   1.146
  601SOL    HW3 2647   2.419   4.708   1.153
  601SOL    MW4 2648   2.496   4.676   1.129
  602SOL     OW 2649   2.239   0.077   1.207
  602SOL    HW2 2650   2.240   0.170   1.186
  602SOL    HW3 2651   2.150   0.049   1.186
  602SOL    MW4 2652   2.227   0.086   1.202
  603SOL     OW 2653   2.241   0.357   1.146
  603SOL    HW2 2654   2.171   0.420   1.163
  603SOL    HW3 2655   2.245   0.351   1.051
  603SOL    MW4 2656   2.233   0.365   1.136
  604SOL     OW 2657   2.475   0.503   1.219
  604SOL    HW2 2658   2.482   0.521   1.312
  604SOL    HW3 2659   2.401   0.444   1.211
  604SOL    MW4 2660   2.466   0.498   1.230
  605SOL     OW 2661   2.452   0.763   1.100
  605SOL    HW2 2662   2.455   0.670   1.122
  605SOL    HW3 2663   2.431   0.765   1.006
  605SOL    MW4 2664   2.450   0.751   1.090
  606SOL     OW 2665   2.249   0.920   1.204
  606SOL    HW2 2666   2.324   0.870   1.172
  606SOL    HW3 2667   2.173   0.872   1.171
  606SOL    MW4 2668   2.249   0.907   1.195
  607SOL     OW 2669   2.209   1.195   1.116
  607SOL    HW2 2670   2.296   1.231   1.134
  607SOL    HW3 2671   2.213   1.105   1.148
  607SOL    MW4 2672   2.221   1.188   1.123
  608SOL     OW 2673   2.454   1.319   1.200
  608SOL    HW2 2674   2.533   1.271   1.178
  608SOL    HW3 2675   2.470   1.408   1.169
  608SOL    MW4 2676   2.466   1.325   1.193
  609SOL     OW 2677   2.472   1.553   1.063
  609SOL    HW2 2678   2.388   1.593   1.084
  609SOL    HW3 2679   2.470   1.540   0.968
  609SOL    MW4 2680   2.461   1.557   1.053
  610SOL     OW 2681   2.263   1.679   1.202
  610SOL    HW2 2682   2.263   1.765   1.160
  610SOL    HW3 2683   2.172   1.650   1.197
  610SOL    MW4 2684   2.251   1.686   1.195
  611SOL     OW 2685   2.267   1.946   1.113
  611SOL    HW2 2686   2.186   1.995   1.132
  611SOL    HW3 2687   2.265   1.934   1.018
  611SOL    MW4 2688   2.256   1.951   1.103
  612SOL     OW 2689   2.474   2.090   1.224
  612SOL    HW2 2690   2.549   2.048   1.182
  612SOL    HW3 2691   2.399   2.037   1.199
  612SOL    MW4 2692   2.474   2.078   1.215
  613SOL     OW 2693   2.477   2.338   1.149
  613SOL    HW2 2694   2.489   2.250   1.184
  613SOL    HW3 2695   2.453   2.326   1.058
  613SOL    MW4 2696   2.476   2.325   1.142
  614SOL     OW 2697   2.264   2.485   1.229
  614SOL    HW2 2698   2.258   2.483   1.324
  614SOL    HW3 2699   2.338   2.428   1.208
  614SOL    MW4 2700   2.273   2.477   1.239
  615SOL     OW 2701   2.274   2.753   1.107
  615SOL    HW2 2702   2.281   2.658   1.104
  615SOL    HW3 2703   2.193   2.770   1.155
  615SOL    MW4 2704   2.264   2.743   1.113
  616SOL     OW 2705   2.514   2.841   1.234
  616SOL    HW2 2706   2.509   2.832   1.329
  616SOL    HW3 2707   2.437   2.795   1.201
  616SOL    MW4 2708   2.503   2.834   1.242
  617SOL     OW 2709   2.436   3.099   1.138
  617SOL    HW2 2710   2.359   3.147   1.168
  617SOL    HW3 2711   2.437   3.020   1.192
  617SOL    MW4 2712   2.426   3.095   1.149
  618SOL     OW 2713   2.214   3.232   1.219
  618SOL    HW2 2714   2.199   3.310   1.166
  618SOL    HW3 2715   2.149   3.168   1.188
  618SOL    MW4 2716   2.203   3.234   1.208
  619SOL     OW 2717   2.200   3.493   1.113
  619SOL    HW2 2718   2.285   3.527   1.140
  619SOL    HW3 2719   2.204   3.490   1.017
  619SOL    MW4 2720   2.212   3.497   1.104
  620SOL     OW 2721   2.452   3.617   1.188
  620SOL    HW2 2722   2.463   3.590   1.280
  620SOL    HW3 2723   2.453   3.712   1.191
  620SOL    MW4 2724   2.454   3.626   1.201
  621SOL     OW 2725   2.475   3.889   1.149
  621SOL    HW2 2726   2.392   3.921   1.182
  621SOL    HW3 2727   2.459   3.873   1.056
  621SOL    MW4 2728   2.462   3.891   1.141
  622SOL     OW 2729   2.235   4.023   1.231
  622SOL    HW2 2730   2.240   4.114   1.200
  622SOL    HW3 2731   2.155   3.989   1.192
  622SOL    MW4 2732   2.225   4.031   1.222
  623SOL     OW 2733   2.243   4.279   1.138
  623SOL    HW2 2734   2.160   4.314   1.170
  623SOL    HW3 2735   2.237   4.286   1.042
  623SOL    MW4 2736   2.231   4.284   1.129
  624SOL     OW 2737   2.463   4.400   1.245
  624SOL    HW2 2738   2.406   4.336   1.202
  624SOL    HW3 2739   2.448   4.482   1.196
  624SOL    MW4 2740   2.454   4.402   1.233
  625SOL     OW 2741   2.955   4.637   1.098
  625SOL    HW2 2742   2.925   4.554   1.135
  625SOL    HW3 2743   2.937   4.630   1.004
  625SOL    MW4 2744   2.949   4.625   1.090
  626SOL     OW 2745   2.720   0.119   1.208
  626SOL    HW2 2746   2.746   0.124   1.300
  626SOL    HW3 2747   2.794   0.077   1.164
  626SOL    MW4 2748   2.733   0.114   1.214
  627SOL     OW 2749   2.698   0.379   1.103
  627SOL    HW2 2750   2.703   0.292   1.143
  627SOL    HW3 2751   2.607   0.405   1.115
  627SOL    MW4 2752   2.687   0.371   1.110
  628SOL     OW 2753   2.915   0.544   1.171
  628SOL    HW2 2754   2.916   0.622   1.116
  628SOL    HW3 2755   2.838   0.495   1.141
  628SOL    MW4 2756   2.905   0.548   1.159
  629SOL     OW 2757   2.912   0.784   1.037
  629SOL    HW2 2758   2.983   0.827   1.084
  629SOL    HW3 2759   2.833   0.809   1.085
  629SOL    MW4 2760   2.911   0.793   1.049
  630SOL     OW 2761   2.696   0.888   1.188
  630SOL    HW2 2762   2.673   0.981   1.185
  630SOL    HW3 2763   2.613   0.842   1.174
  630SOL    MW4 2764   2.682   0.894   1.186
  631SOL     OW 2765   2.692   1.173   1.169
  631SOL    HW2 2766   2.777   1.205   1.199
  631SOL    HW3 2767   2.702   1.160   1.075
  631SOL    MW4 2768   2.704   1.175   1.160
  632SOL     OW 2769   2.950   1.287   1.212
  632SOL    HW2 2770   2.955   1.310   1.305
  632SOL    HW3 2771   2.945   1.371   1.166
  632SOL    MW4 2772   2.950   1.301   1.218
  633SOL     OW 2773   2.916   1.549   1.115
  633SOL    HW2 2774   2.992   1.590   1.156
  633SOL    HW3 2775   2.931   1.559   1.021
  633SOL    MW4 2776   2.928   1.555   1.108
  634SOL     OW 2777   2.680   1.690   1.193
  634SOL    HW2 2778   2.756   1.635   1.175
  634SOL    HW3 2779   2.611   1.655   1.136
  634SOL    MW4 2780   2.681   1.678   1.183
  635SOL     OW 2781   2.685   1.949   1.116
  635SOL    HW2 2782   2.767   1.985   1.148
  635SOL    HW3 2783   2.688   1.856   1.139
  635SOL    MW4 2784   2.696   1.941   1.124
  636SOL     OW 2785   2.914   2.079   1.198
  636SOL    HW2 2786   2.939   2.106   1.286
  636SOL    HW3 2787   2.910   2.160   1.148
  636SOL    MW4 2788   2.917   2.093   1.203
  637SOL     OW 2789   2.910   2.321   1.066
  637SOL    HW2 2790   2.987   2.359   1.108
  637SOL    HW3 2791   2.836   2.358   1.113
  637SOL    MW4 2792   2.910   2.331   1.078
  638SOL     OW 2793   2.711   2.460   1.210
  638SOL    HW2 2794   2.720   2.464   1.305
  638SOL    HW3 2795   2.628   2.415   1.195
  638SOL    MW4 2796   2.701   2.454   1.220
  639SOL     OW 2797   2.751   2.725   1.132
  639SOL    HW2 2798   2.733   2.632   1.148
  639SOL    HW3 2799   2.672   2.770   1.161
  639SOL    MW4 2800   2.738   2.718   1.138
  640SOL     OW 2801   2.962   2.855   1.265
  640SOL    HW2 2802   2.955   2.838   1.359
  640SOL    HW3 2803   2.894   2.800   1.225
  640SOL    MW4 2804   2.953   2.845   1.272
  641SOL     OW 2805   2.850   3.104   1.194
  641SOL    HW2 2806   2.875   3.013   1.212
  641SOL    HW3 2807   2.875   3.118   1.103
  641SOL    MW4 2808   2.857   3.094   1.184
  642SOL     OW 2809   2.628   3.250   1.252
  642SOL    HW2 2810   2.707   3.198   1.238
  642SOL    HW3 2811   2.558   3.199   1.211
  642SOL    MW4 2812   2.629   3.236   1.245
  643SOL     OW 2813   2.666   3.464   1.089
  643SOL    HW2 2814   2.664   3.379   1.133
  643SOL    HW3 2815   2.589   3.510   1.122
  643SOL    MW4 2816   2.656   3.459   1.099
  644SOL     OW 2817   2.872   3.580   1.249
  644SOL    HW2 2818   2.954   3.533   1.230
  644SOL    HW3 2819   2.807   3.538   1.193
  644SOL    MW4 2820   2.875   3.568   1.239
  645SOL     OW 2821   2.896   3.843   1.118
  645SOL    HW2 2822   2.977   3.878   1.155
  645SOL    HW3 2823   2.890   3.754   1.151
  645SOL    MW4 2824   2.906   3.836   1.127
  646SOL     OW 2825   2.704   4.033   1.197
  646SOL    HW2 2826   2.767   3.965   1.174
  646SOL    HW3 2827   2.620   3.997   1.169
  646SOL    MW4 2828   2.701   4.019   1.190
  647SOL     OW 2829   2.671   4.307   1.085
  647SOL    HW2 2830   2.679   4.215   1.112
  647SOL    HW3 2831   2.610   4.345   1.148
  647SOL    MW4 2832   2.664   4.300   1.097
  648SOL     OW 2833   2.877   4.395   1.213
  648SOL    HW2 2834   2.947   4.343   1.173
  648SOL    HW3 2835   2.798   4.369   1.165
  648SOL    MW4 2836   2.876   4.384   1.201
  649SOL     OW 2837   3.330   4.658   1.115
  649SOL    HW2 2838   3.408   4.698   1.153
  649SOL    HW3 2839   3.262   4.724   1.124
  649SOL    MW4 2840   3.331   4.672   1.121
  650SOL     OW 2841   3.127   0.170   1.174
  650SOL    HW2 2842   3.136   0.164   1.269
  650SOL    HW3 2843   3.072   0.095   1.151
  650SOL    MW4 2844   3.121   0.159   1.184
  651SOL     OW 2845   3.170   0.435   1.127
  651SOL    HW2 2846   3.141   0.345   1.143
  651SOL    HW3 2847   3.092   0.488   1.141
  651SOL    MW4 2848   3.156   0.430   1.131
  652SOL     OW 2849   3.394   0.555   1.222
  652SOL    HW2 2850   3.386   0.644   1.190
  652SOL    HW3 2851   3.312   0.512   1.195
  652SOL    MW4 2852   3.382   0.561   1.214
  653SOL     OW 2853   3.362   0.796   1.086
  653SOL    HW2 2854   3.274   0.816   1.118
  653SOL    HW3 2855   3.352   0.790   0.991
  653SOL    MW4 2856   3.349   0.798   1.077
  654SOL     OW 2857   3.119   0.870   1.209
  654SOL    HW2 2858   3.143   0.864   1.301
  654SOL    HW3 2859   3.134   0.962   1.186
  654SOL    MW4 2860   3.124   0.882   1.218
  655SOL     OW 2861   3.166   1.140   1.149
  655SOL    HW2 2862   3.244   1.192   1.163
  655SOL    HW3 2863   3.093   1.200   1.166
  655SOL    MW4 2864   3.167   1.155   1.153
  656SOL     OW 2865   3.388   1.293   1.220
  656SOL    HW2 2866   3.387   1.306   1.315
  656SOL    HW3 2867   3.374   1.381   1.184
  656SOL    MW4 2868   3.386   1.306   1.228
  657SOL     OW 2869   3.369   1.544   1.125
  657SOL    HW2 2870   3.443   1.599   1.152
  657SOL    HW3 2871   3.292   1.593   1.151
  657SOL    MW4 2872   3.369   1.558   1.132
  658SOL     OW 2873   3.142   1.683   1.204
  658SOL    HW2 2874   3.132   1.716   1.293
  658SOL    HW3 2875   3.123   1.759   1.148
  658SOL    MW4 2876   3.138   1.698   1.208
  659SOL     OW 2877   3.110   1.930   1.080
  659SOL    HW2 2878   3.187   1.971   1.119
  659SOL    HW3 2879   3.037   1.984   1.110
  659SOL    MW4 2880   3.111   1.943   1.089
  660SOL     OW 2881   3.340   2.045   1.212
  660SOL    HW2 2882   3.430   2.015   1.199
  660SOL    HW3 2883   3.340   2.135   1.180
  660SOL    MW4 2884   3.352   2.053   1.206
  661SOL     OW 2885   3.333   2.309   1.140
  661SOL    HW2 2886   3.404   2.358   1.183
  661SOL    HW3 2887   3.255   2.332   1.190
  661SOL    MW4 2888   3.332   2.319   1.152
  662SOL     OW 2889   3.114   2.460   1.235
  662SOL    HW2 2890   3.126   2.461   1.330
  662SOL    HW3 2891   3.156   2.540   1.204
  662SOL    MW4 2892   3.121   2.471   1.244
  663SOL     OW 2893   3.183   2.724   1.166
  663SOL    HW2 2894   3.101   2.766   1.191
  663SOL    HW3 2895   3.186   2.731   1.071
  663SOL    MW4 2896   3.172   2.730   1.157
  664SOL     OW 2897   3.411   2.822   1.271
  664SOL    HW2 2898   3.395   2.911   1.239
  664SOL    HW3 2899   3.329   2.775   1.255
  664SOL    MW4 2900   3.398   2.827   1.265
  665SOL     OW 2901   3.356   3.075   1.122
  665SOL    HW2 2902   3.437   3.112   1.157
  665SOL    HW3 2903   3.287   3.129   1.159
  665SOL    MW4 2904   3.358   3.087   1.132
  666SOL     OW 2905   3.116   3.213   1.243
  666SOL    HW2 2906   3.112   3.307   1.224
  666SOL    HW3 2907   3.026   3.182   1.228
  666SOL    MW4 2908   3.103   3.221   1.239
  667SOL     OW 2909   3.107   3.474   1.182
  667SOL    HW2 2910   3.195   3.512   1.181
  667SOL    HW3 2911   3.086   3.459   1.090
  667SOL    MW4 2912   3.116   3.477   1.170
  668SOL     OW 2913   3.339   3.609   1.200
  668SOL    HW2 2914   3.342   3.628   1.294
  668SOL    HW3 2915   3.417   3.557   1.183
  668SOL    MW4 2916   3.350   3.605   1.210
  669SOL     OW 2917   3.382   3.875   1.108
  669SOL    HW2 2918   3.300   3.907   1.144
  669SOL    HW3 2919   3.384   3.782   1.132
  669SOL    MW4 2920   3.371   3.867   1.116
  670SOL     OW 2921   3.134   3.971   1.190
  670SOL    HW2 2922   3.133   3.981   1.285
  670SOL    HW3 2923   3.117   4.059   1.156
  670SOL    MW4 2924   3.131   3.984   1.198
  671SOL     OW 2925   3.096   4.238   1.096
  671SOL    HW2 2926   3.165   4.303   1.108
  671SOL    HW3 2927   3.101   4.215   1.003
  671SOL    MW4 2928   3.106   4.244   1.085
  672SOL     OW 2929   3.337   4.374   1.161
  672SOL    HW2 2930   3.425   4.342   1.145
  672SOL    HW3 2931   3.341   4.467   1.139
  672SOL    MW4 2932   3.349   4.382   1.156
  673SOL     OW 2933   3.797   4.650   1.138
  673SOL    HW2 2934   3.799   4.557   1.160
  673SOL    HW3 2935   3.805   4.652   1.042
  673SOL    MW4 2936   3.798   4.638   1.128
  674SOL     OW 2937   3.560   0.104   1.192
  674SOL    HW2 2938   3.565   0.175   1.128
  674SOL    HW3 2939   3.642   0.056   1.181
  674SOL    MW4 2940   3.571   0.107   1.182
  675SOL     OW 2941   3.560   0.361   1.063
  675SOL    HW2 2942   3.634   0.376   1.122
  675SOL    HW3 2943   3.498   0.431   1.083
  675SOL    MW4 2944   3.561   0.372   1.074
  676SOL     OW 2945   3.751   0.476   1.233
  676SOL    HW2 2946   3.841   0.467   1.200
  676SOL    HW3 2947   3.729   0.568   1.218
  676SOL    MW4 2948   3.760   0.487   1.227
  677SOL     OW 2949   3.747   0.734   1.143
  677SOL    HW2 2950   3.824   0.778   1.178
  677SOL    HW3 2951   3.672   0.784   1.177
  677SOL    MW4 2952   3.747   0.746   1.152
  678SOL     OW 2953   3.581   0.926   1.208
  678SOL    HW2 2954   3.599   1.008   1.163
  678SOL    HW3 2955   3.496   0.897   1.174
  678SOL    MW4 2956   3.572   0.933   1.198
  679SOL     OW 2957   3.608   1.180   1.104
  679SOL    HW2 2958   3.674   1.223   1.158
  679SOL    HW3 2959   3.525   1.199   1.148
  679SOL    MW4 2960   3.605   1.188   1.117
  680SOL     OW 2961   3.813   1.295   1.248
  680SOL    HW2 2962   3.815   1.321   1.341
  680SOL    HW3 2963   3.811   1.378   1.200
  680SOL    MW4 2964   3.813   1.310   1.254
  681SOL     OW 2965   3.830   1.546   1.123
  681SOL    HW2 2966   3.899   1.608   1.148
  681SOL    HW3 2967   3.833   1.545   1.027
  681SOL    MW4 2968   3.840   1.554   1.113
  682SOL     OW 2969   3.602   1.687   1.210
  682SOL    HW2 2970   3.621   1.780   1.208
  682SOL    HW3 2971   3.683   1.645   1.181
  682SOL    MW4 2972   3.615   1.693   1.206
  683SOL     OW 2973   3.608   1.964   1.204
  683SOL    HW2 2974   3.681   2.018   1.234
  683SOL    HW3 2975   3.628   1.946   1.112
  683SOL    MW4 2976   3.620   1.969   1.196
  684SOL     OW 2977   3.839   2.080   1.275
  684SOL    HW2 2978   3.860   2.067   1.368
  684SOL    HW3 2979   3.896   2.018   1.230
  684SOL    MW4 2980   3.849   2.070   1.282
  685SOL     OW 2981   3.821   2.330   1.132
  685SOL    HW2 2982   3.894   2.385   1.160
  685SOL    HW3 2983   3.838   2.245   1.174
  685SOL    MW4 2984   3.833   2.326   1.141
  686SOL     OW 2985   3.570   2.423   1.227
  686SOL    HW2 2986   3.586   2.428   1.321
  686SOL    HW3 2987   3.649   2.382   1.191
  686SOL    MW4 2988   3.583   2.418   1.235
  687SOL     OW 2989   3.626   2.699   1.143
  687SOL    HW2 2990   3.614   2.608   1.168
  687SOL    HW3 2991   3.555   2.746   1.186
  687SOL    MW4 2992   3.615   2.693   1.152
  688SOL     OW 2993   3.863   2.864   1.243
  688SOL    HW2 2994   3.859   2.871   1.339
  688SOL    HW3 2995   3.795   2.800   1.222
  688SOL    MW4 2996   3.853   2.857   1.253
  689SOL     OW 2997   3.789   3.103   1.151
  689SOL    HW2 2998   3.823   3.023   1.191
  689SOL    HW3 2999   3.768   3.077   1.061
  689SOL    MW4 3000   3.791   3.089   1.144
  690SOL     OW 3001   3.569   3.216   1.239
  690SOL    HW2 3002   3.549   3.299   1.195
  690SOL    HW3 3003   3.648   3.185   1.195
  690SOL    MW4 3004   3.577   3.223   1.227
  691SOL     OW 3005   3.573   3.485   1.129
  691SOL    HW2 3006   3.653   3.527   1.162
  691SOL    HW3 3007   3.589   3.474   1.035
  691SOL    MW4 3008   3.586   3.489   1.121
  692SOL     OW 3009   3.791   3.606   1.227
  692SOL    HW2 3010   3.802   3.594   1.321
  692SOL    HW3 3011   3.815   3.698   1.212
  692SOL    MW4 3012   3.796   3.617   1.237
  693SOL     OW 3013   3.816   3.878   1.136
  693SOL    HW2 3014   3.739   3.922   1.171
  693SOL    HW3 3015   3.806   3.883   1.041
  693SOL    MW4 3016   3.805   3.884   1.128
  694SOL     OW 3017   3.591   4.000   1.232
  694SOL    HW2 3018   3.579   3.973   1.323
  694SOL    HW3 3019   3.518   3.959   1.185
  694SOL    MW4 3020   3.580   3.991   1.238
  695SOL     OW 3021   3.584   4.263   1.134
  695SOL    HW2 3022   3.593   4.178   1.177
  695SOL    HW3 3023   3.589   4.242   1.040
  695SOL    MW4 3024   3.586   4.249   1.127
  696SOL     OW 3025   3.828   4.382   1.224
  696SOL    HW2 3026   3.823   4.377   1.319
  696SOL    HW3 3027   3.751   4.333   1.193
  696SOL    MW4 3028   3.817   4.375   1.232
  697SOL     OW 3029   4.257   0.008   1.113
  697SOL    HW2 3030   4.249  -0.082   1.146
  697SOL    HW3 3031   4.182   0.054   1.149
  697SOL    MW4 3032   4.246   0.002   1.122
  698SOL     OW 3033   4.024   0.117   1.203
  698SOL    HW2 3034   4.020   0.136   1.297
  698SOL    HW3 3035   3.943   0.068   1.186
  698SOL    MW4 3036   4.013   0.113   1.213
  699SOL     OW 3037   3.999   0.401   1.126
  699SOL    HW2 3038   4.005   0.307   1.143
  699SOL    HW3 3039   4.020   0.410   1.033
  699SOL    MW4 3040   4.002   0.390   1.116
  700SOL     OW 3041   4.235   0.492   1.235
  700SOL    HW2 3042   4.224   0.481   1.329
  700SOL    HW3 3043   4.150   0.469   1.198
  700SOL    MW4 3044   4.222   0.487   1.242
  701SOL     OW 3045   4.262   0.765   1.146
  701SOL    HW2 3046   4.239   0.676   1.170
  701SOL    HW3 3047   4.259   0.766   1.050
  701SOL    MW4 3048   4.259   0.754   1.136
  702SOL     OW 3049   3.984   0.881   1.243
  702SOL    HW2 3050   3.991   0.881   1.339
  702SOL    HW3 3051   4.065   0.839   1.213
  702SOL    MW4 3052   3.995   0.875   1.252
  703SOL     OW 3053   4.001   1.143   1.113
  703SOL    HW2 3054   3.987   1.053   1.142
  703SOL    HW3 3055   3.928   1.192   1.149
  703SOL    MW4 3056   3.990   1.137   1.121
  704SOL     OW 3057   4.226   1.296   1.216
  704SOL    HW2 3058   4.219   1.279   1.310
  704SOL    HW3 3059   4.145   1.261   1.179
  704SOL    MW4 3060   4.214   1.289   1.223
  705SOL     OW 3061   4.275   1.550   1.123
  705SOL    HW2 3062   4.270   1.458   1.149
  705SOL    HW3 3063   4.362   1.578   1.153
  705SOL    MW4 3064   4.286   1.541   1.130
  706SOL     OW 3065   4.059   1.705   1.225
  706SOL    HW2 3066   4.088   1.700   1.317
  706SOL    HW3 3067   4.124   1.654   1.177
  706SOL    MW4 3068   4.071   1.698   1.231
  707SOL     OW 3069   4.050   1.962   1.141
  707SOL    HW2 3070   4.053   1.871   1.171
  707SOL    HW3 3071   4.069   1.957   1.048
  707SOL    MW4 3072   4.053   1.949   1.133
  708SOL     OW 3073   4.292   2.052   1.235
  708SOL    HW2 3074   4.301   2.139   1.195
  708SOL    HW3 3075   4.208   2.020   1.203
  708SOL    MW4 3076   4.282   2.059   1.226
  709SOL     OW 3077   4.310   2.280   1.076
  709SOL    HW2 3078   4.234   2.331   1.104
  709SOL    HW3 3079   4.319   2.298   0.983
  709SOL    MW4 3080   4.301   2.289   1.068
  710SOL     OW 3081   4.046   2.452   1.229
  710SOL    HW2 3082   4.044   2.436   1.324
  710SOL    HW3 3083   4.066   2.546   1.221
  710SOL    MW4 3084   4.048   2.463   1.241
  711SOL     OW 3085   4.077   2.723   1.120
  711SOL    HW2 3086   4.001   2.774   1.148
  711SOL    HW3 3087   4.073   2.726   1.024
  711SOL    MW4 3088   4.066   2.730   1.111
  712SOL     OW 3089   4.292   2.841   1.248
  712SOL    HW2 3090   4.303   2.923   1.199
  712SOL    HW3 3091   4.229   2.791   1.196
  712SOL    MW4 3092   4.285   2.845   1.234
  713SOL     OW 3093   4.257   3.099   1.113
  713SOL    HW2 3094   4.187   3.156   1.145
  713SOL    HW3 3095   4.260   3.114   1.019
  713SOL    MW4 3096   4.248   3.108   1.105
  714SOL     OW 3097   4.030   3.251   1.188
  714SOL    HW2 3098   4.037   3.237   1.283
  714SOL    HW3 3099   3.953   3.199   1.163
  714SOL    MW4 3100   4.021   3.242   1.198
  715SOL     OW 3101   4.035   3.519   1.101
  715SOL    HW2 3102   4.036   3.437   1.150
  715SOL    HW3 3103   3.947   3.555   1.116
  715SOL    MW4 3104   4.023   3.513   1.109
  716SOL     OW 3105   4.254   3.641   1.250
  716SOL    HW2 3106   4.182   3.587   1.217
  716SOL    HW3 3107   4.333   3.600   1.216
  716SOL    MW4 3108   4.255   3.629   1.241
  717SOL     OW 3109   4.216   3.880   1.128
  717SOL    HW2 3110   4.146   3.929   1.173
  717SOL    HW3 3111   4.212   3.793   1.167
  717SOL    MW4 3112   4.206   3.875   1.139
  718SOL     OW 3113   4.022   4.028   1.275
  718SOL    HW2 3114   4.032   4.107   1.222
  718SOL    HW3 3115   3.948   3.981   1.235
  718SOL    MW4 3116   4.014   4.032   1.263
  719SOL     OW 3117   4.040   4.263   1.128
  719SOL    HW2 3118   3.956   4.298   1.157
  719SOL    HW3 3119   4.031   4.254   1.033
  719SOL    MW4 3120   4.028   4.266   1.119
  720SOL     OW 3121   4.253   4.417   1.209
  720SOL    HW2 3122   4.175   4.367   1.186
  720SOL    HW3 3123   4.325   4.368   1.169
  720SOL    MW4 3124   4.252   4.404   1.201
  721SOL     OW 3125   0.208   4.654   1.628
  721SOL    HW2 3126   0.288   4.700   1.602
  721SOL    HW3 3127   0.137   4.710   1.598
  721SOL    MW4 3128   0.210   4.668   1.621
  722SOL     OW 3129   4.484   0.123   1.527
  722SOL    HW2 3130   4.401   0.086   1.556
  722SOL    HW3 3131   4.474   0.133   1.432
  722SOL    MW4 3132   4.471   0.120   1.518
  723SOL     OW 3133   4.471   0.386   1.601
  723SOL    HW2 3134   4.461   0.393   1.696
  723SOL    HW3 3135   4.490   0.293   1.586
  723SOL    MW4 3136   4.472   0.374   1.611
  724SOL     OW 3137   0.199   0.534   1.526
  724SOL    HW2 3138   0.123   0.482   1.552
  724SOL    HW3 3139   0.187   0.548   1.432
  724SOL    MW4 3140   0.187   0.529   1.517
  725SOL     OW 3141   0.240   0.782   1.663
  725SOL    HW2 3142   0.302   0.835   1.611
  725SOL    HW3 3143   0.223   0.705   1.609
  725SOL    MW4 3144   0.246   0.779   1.649
  726SOL     OW 3145   0.001   0.863   1.532
  726SOL    HW2 3146  -0.022   0.956   1.540
  726SOL    HW3 3147   0.075   0.851   1.591
  726SOL    MW4 3148   0.008   0.874   1.541
  727SOL     OW 3149   4.467   1.131   1.571
  727SOL    HW2 3150   4.463   1.128   1.666
  727SOL    HW3 3151   4.552   1.170   1.551
  727SOL    MW4 3152   4.478   1.136   1.581
  728SOL     OW 3153   0.226   1.236   1.509
  728SOL    HW2 3154   0.234   1.327   1.539
  728SOL    HW3 3155   0.222   1.242   1.414
  728SOL    MW4 3156   0.226   1.249   1.501
  729SOL     OW 3157   0.200   1.492   1.624
  729SOL    HW2 3158   0.218   1.497   1.718
  729SOL    HW3 3159   0.122   1.547   1.612
  729SOL    MW4 3160   0.192   1.500   1.635
  730SOL     OW 3161   4.475   1.663   1.528
  730SOL    HW2 3162   4.496   1.753   1.556
  730SOL    HW3 3163   4.494   1.663   1.434
  730SOL    MW4 3164   4.480   1.675   1.519
  731SOL     OW 3165   4.479   1.931   1.619
  731SOL    HW2 3166   4.474   1.929   1.714
  731SOL    HW3 3167   4.423   2.005   1.594
  731SOL    MW4 3168   4.471   1.941   1.628
  732SOL     OW 3169   0.230   2.088   1.536
  732SOL    HW2 3170   0.158   2.033   1.566
  732SOL    HW3 3171   0.212   2.101   1.443
  732SOL    MW4 3172   0.218   2.083   1.528
  733SOL     OW 3173   0.214   2.376   1.607
  733SOL    HW2 3174   0.219   2.386   1.702
  733SOL    HW3 3175   0.219   2.281   1.594
  733SOL    MW4 3176   0.215   2.365   1.618
  734SOL     OW 3177   0.003   2.454   1.461
  734SOL    HW2 3178  -0.068   2.425   1.518
  734SOL    HW3 3179   0.082   2.440   1.513
  734SOL    MW4 3180   0.004   2.448   1.476
  735SOL     OW 3181   4.482   2.708   1.591
  735SOL    HW2 3182   4.407   2.760   1.562
  735SOL    HW3 3183   4.473   2.624   1.548
  735SOL    MW4 3184   4.471   2.704   1.582
  736SOL     OW 3185   0.226   2.826   1.505
  736SOL    HW2 3186   0.302   2.776   1.534
  736SOL    HW3 3187   0.151   2.781   1.543
  736SOL    MW4 3188   0.226   2.814   1.514
  737SOL     OW 3189   0.242   3.095   1.596
  737SOL    HW2 3190   0.158   3.130   1.565
  737SOL    HW3 3191   0.245   3.006   1.559
  737SOL    MW4 3192   0.231   3.088   1.587
  738SOL     OW 3193   0.014   3.235   1.494
  738SOL    HW2 3194   0.018   3.324   1.528
  738SOL    HW3 3195   0.004   3.246   1.399
  738SOL    MW4 3196   0.013   3.248   1.486
  739SOL     OW 3197   0.036   3.495   1.608
  739SOL    HW2 3198   0.058   3.506   1.701
  739SOL    HW3 3199  -0.051   3.535   1.600
  739SOL    MW4 3200   0.027   3.502   1.619
  740SOL     OW 3201   0.222   3.613   1.468
  740SOL    HW2 3202   0.225   3.705   1.494
  740SOL    HW3 3203   0.158   3.574   1.527
  740SOL    MW4 3204   0.214   3.620   1.479
  741SOL     OW 3205   0.198   3.862   1.599
  741SOL    HW2 3206   0.209   3.870   1.693
  741SOL    HW3 3207   0.264   3.920   1.562
  741SOL    MW4 3208   0.208   3.870   1.606
  742SOL     OW 3209   4.481   3.987   1.479
  742SOL    HW2 3210   4.482   4.071   1.526
  742SOL    HW3 3211   4.559   3.942   1.510
  742SOL    MW4 3212   4.491   3.992   1.490
  743SOL     OW 3213   0.010   4.238   1.593
  743SOL    HW2 3214   0.002   4.246   1.688
  743SOL    HW3 3215  -0.062   4.290   1.558
  743SOL    MW4 3216  -0.000   4.246   1.601
  744SOL     OW 3217   0.232   4.400   1.508
  744SOL    HW2 3218   0.167   4.340   1.545
  744SOL    HW3 3219   0.219   4.481   1.556
  744SOL    MW4 3220   0.221   4.402   1.519
  745SOL     OW 3221   0.671   4.638   1.639
  745SOL    HW2 3222   0.743   4.689   1.603
  745SOL    HW3 3223   0.592   4.687   1.614
  745SOL    MW4 3224   0.670   4.651   1.631
  746SOL     OW 3225   0.444   0.106   1.556
  746SOL    HW2 3226   0.454   0.199   1.574
  746SOL    HW3 3227   0.442   0.100   1.460
  746SOL    MW4 3228   0.445   0.117   1.546
  747SOL     OW 3229   0.459   0.408   1.601
  747SOL    HW2 3230   0.539   0.448   1.566
  747SOL    HW3 3231   0.388   0.456   1.560
  747SOL    MW4 3232   0.460   0.419   1.591
  748SOL     OW 3233   0.710   0.526   1.508
  748SOL    HW2 3234   0.678   0.615   1.525
  748SOL    HW3 3235   0.698   0.513   1.414
  748SOL    MW4 3236   0.704   0.536   1.498
  749SOL     OW 3237   0.652   0.781   1.571
  749SOL    HW2 3238   0.679   0.766   1.662
  749SOL    HW3 3239   0.727   0.825   1.530
  749SOL    MW4 3240   0.665   0.785   1.578
  750SOL     OW 3241   0.432   0.925   1.480
  750SOL    HW2 3242   0.436   1.003   1.535
  750SOL    HW3 3243   0.511   0.875   1.503
  750SOL    MW4 3244   0.443   0.929   1.490
  751SOL     OW 3245   0.424   1.109   1.671
  751SOL    HW2 3246   0.502   1.153   1.636
  751SOL    HW3 3247   0.351   1.152   1.628
  751SOL    MW4 3248   0.425   1.120   1.661
  752SOL     OW 3249   0.645   1.259   1.535
  752SOL    HW2 3250   0.639   1.354   1.547
  752SOL    HW3 3251   0.626   1.246   1.442
  752SOL    MW4 3252   0.642   1.270   1.524
  753SOL     OW 3253   0.648   1.545   1.625
  753SOL    HW2 3254   0.719   1.572   1.568
  753SOL    HW3 3255   0.568   1.564   1.575
  753SOL    MW4 3256   0.647   1.551   1.611
  754SOL     OW 3257   0.421   1.638   1.504
  754SOL    HW2 3258   0.426   1.732   1.524
  754SOL    HW3 3259   0.336   1.611   1.539
  754SOL    MW4 3260   0.411   1.647   1.512
  755SOL     OW 3261   0.429   1.903   1.588
  755SOL    HW2 3262   0.440   1.903   1.684
  755SOL    HW3 3263   0.358   1.965   1.572
  755SOL    MW4 3264   0.421   1.911   1.599
  756SOL     OW 3265   0.653   2.071   1.511
  756SOL    HW2 3266   0.735   2.027   1.532
  756SOL    HW3 3267   0.587   2.025   1.563
  756SOL    MW4 3268   0.655   2.059   1.521
  757SOL     OW 3269   0.630   2.335   1.608
  757SOL    HW2 3270   0.551   2.370   1.569
  757SOL    HW3 3271   0.628   2.241   1.587
  757SOL    MW4 3272   0.619   2.327   1.600
  758SOL     OW 3273   0.434   2.461   1.455
  758SOL    HW2 3274   0.452   2.544   1.499
  758SOL    HW3 3275   0.350   2.433   1.491
  758SOL    MW4 3276   0.425   2.468   1.466
  759SOL     OW 3277   0.447   2.689   1.597
  759SOL    HW2 3278   0.446   2.682   1.692
  759SOL    HW3 3279   0.516   2.753   1.578
  759SOL    MW4 3280   0.456   2.696   1.607
  760SOL     OW 3281   0.671   2.849   1.523
  760SOL    HW2 3282   0.657   2.939   1.550
  760SOL    HW3 3283   0.649   2.848   1.430
  760SOL    MW4 3284   0.666   2.861   1.514
  761SOL     OW 3285   0.666   3.115   1.583
  761SOL    HW2 3286   0.746   3.150   1.543
  761SOL    HW3 3287   0.597   3.173   1.553
  761SOL    MW4 3288   0.668   3.127   1.574
  762SOL     OW 3289   0.456   3.262   1.449
  762SOL    HW2 3290   0.376   3.226   1.487
  762SOL    HW3 3291   0.443   3.254   1.354
  762SOL    MW4 3292   0.444   3.256   1.441
  763SOL     OW 3293   0.448   3.519   1.586
  763SOL    HW2 3294   0.460   3.438   1.536
  763SOL    HW3 3295   0.368   3.557   1.551
  763SOL    MW4 3296   0.439   3.513   1.575
  764SOL     OW 3297   0.667   3.640   1.464
  764SOL    HW2 3298   0.735   3.584   1.502
  764SOL    HW3 3299   0.585   3.603   1.495
  764SOL    MW4 3300   0.665   3.628   1.473
  765SOL     OW 3301   0.646   3.888   1.582
  765SOL    HW2 3302   0.720   3.930   1.538
  765SOL    HW3 3303   0.646   3.798   1.548
  765SOL    MW4 3304   0.656   3.882   1.572
  766SOL     OW 3305   0.417   4.017   1.485
  766SOL    HW2 3306   0.494   3.974   1.523
  766SOL    HW3 3307   0.442   4.035   1.394
  766SOL    MW4 3308   0.431   4.014   1.478
  767SOL     OW 3309   0.440   4.264   1.627
  767SOL    HW2 3310   0.440   4.181   1.579
  767SOL    HW3 3311   0.379   4.320   1.579
  767SOL    MW4 3312   0.432   4.261   1.614
  768SOL     OW 3313   0.662   4.392   1.508
  768SOL    HW2 3314   0.582   4.356   1.549
  768SOL    HW3 3315   0.674   4.477   1.551
  768SOL    MW4 3316   0.653   4.398   1.519
  769SOL     OW 3317   1.111   4.644   1.635
  769SOL    HW2 3318   1.117   4.668   1.727
  769SOL    HW3 3319   1.182   4.693   1.593
  769SOL    MW4 3320   1.122   4.654   1.642
  770SOL     OW 3321   0.873   0.114   1.542
  770SOL    HW2 3322   0.890   0.204   1.568
  770SOL    HW3 3323   0.940   0.063   1.588
  770SOL    MW4 3324   0.884   0.119   1.552
  771SOL     OW 3325   0.912   0.380   1.634
  771SOL    HW2 3326   0.899   0.400   1.726
  771SOL    HW3 3327   0.843   0.430   1.589
  771SOL    MW4 3328   0.901   0.389   1.640
  772SOL     OW 3329   1.128   0.531   1.512
  772SOL    HW2 3330   1.111   0.616   1.553
  772SOL    HW3 3331   1.056   0.475   1.543
  772SOL    MW4 3332   1.116   0.535   1.522
  773SOL     OW 3333   1.113   0.808   1.605
  773SOL    HW2 3334   1.111   0.796   1.700
  773SOL    HW3 3335   1.193   0.857   1.590
  773SOL    MW4 3336   1.123   0.813   1.616
  774SOL     OW 3337   0.890   0.879   1.470
  774SOL    HW2 3338   0.977   0.865   1.506
  774SOL    HW3 3339   0.894   0.840   1.382
  774SOL    MW4 3340   0.902   0.872   1.463
  775SOL     OW 3341   0.877   1.135   1.619
  775SOL    HW2 3342   0.879   1.052   1.572
  775SOL    HW3 3343   0.797   1.178   1.588
  775SOL    MW4 3344   0.866   1.129   1.609
  776SOL     OW 3345   1.112   1.318   1.532
  776SOL    HW2 3346   1.194   1.297   1.577
  776SOL    HW3 3347   1.045   1.272   1.582
  776SOL    MW4 3348   1.114   1.309   1.544
  777SOL     OW 3349   1.093   1.578   1.617
  777SOL    HW2 3350   1.164   1.623   1.571
  777SOL    HW3 3351   1.090   1.491   1.577
  777SOL    MW4 3352   1.102   1.573   1.606
  778SOL     OW 3353   0.850   1.675   1.506
  778SOL    HW2 3354   0.934   1.648   1.545
  778SOL    HW3 3355   0.868   1.680   1.412
  778SOL    MW4 3356   0.863   1.672   1.499
  779SOL     OW 3357   0.872   1.942   1.606
  779SOL    HW2 3358   0.957   1.980   1.586
  779SOL    HW3 3359   0.874   1.854   1.568
  779SOL    MW4 3360   0.883   1.935   1.598
  780SOL     OW 3361   1.118   2.072   1.526
  780SOL    HW2 3362   1.203   2.037   1.551
  780SOL    HW3 3363   1.117   2.162   1.560
  780SOL    MW4 3364   1.129   2.080   1.534
  781SOL     OW 3365   1.082   2.330   1.630
  781SOL    HW2 3366   1.149   2.385   1.590
  781SOL    HW3 3367   1.002   2.352   1.583
  781SOL    MW4 3368   1.081   2.340   1.618
  782SOL     OW 3369   0.852   2.451   1.494
  782SOL    HW2 3370   0.856   2.542   1.525
  782SOL    HW3 3371   0.773   2.415   1.536
  782SOL    MW4 3372   0.842   2.458   1.504
  783SOL     OW 3373   0.884   2.709   1.607
  783SOL    HW2 3374   0.886   2.700   1.702
  783SOL    HW3 3375   0.801   2.752   1.588
  783SOL    MW4 3376   0.873   2.714   1.617
  784SOL     OW 3377   1.114   2.819   1.519
  784SOL    HW2 3378   1.093   2.912   1.525
  784SOL    HW3 3379   1.035   2.774   1.549
  784SOL    MW4 3380   1.101   2.825   1.524
  785SOL     OW 3381   1.121   3.091   1.594
  785SOL    HW2 3382   1.136   3.095   1.689
  785SOL    HW3 3383   1.206   3.113   1.555
  785SOL    MW4 3384   1.135   3.094   1.602
  786SOL     OW 3385   0.908   3.238   1.503
  786SOL    HW2 3386   0.987   3.204   1.544
  786SOL    HW3 3387   0.914   3.208   1.412
  786SOL    MW4 3388   0.919   3.230   1.496
  787SOL     OW 3389   0.874   3.503   1.596
  787SOL    HW2 3390   0.950   3.550   1.561
  787SOL    HW3 3391   0.888   3.412   1.568
  787SOL    MW4 3392   0.886   3.497   1.588
  788SOL     OW 3393   1.107   3.629   1.468
  788SOL    HW2 3394   1.179   3.572   1.495
  788SOL    HW3 3395   1.106   3.623   1.373
  788SOL    MW4 3396   1.116   3.621   1.459
  789SOL     OW 3397   1.090   3.875   1.591
  789SOL    HW2 3398   1.177   3.914   1.576
  789SOL    HW3 3399   1.093   3.792   1.545
  789SOL    MW4 3400   1.102   3.869   1.583
  790SOL     OW 3401   0.861   4.015   1.477
  790SOL    HW2 3402   0.861   4.108   1.502
  790SOL    HW3 3403   0.935   3.978   1.524
  790SOL    MW4 3404   0.871   4.022   1.486
  791SOL     OW 3405   0.902   4.257   1.604
  791SOL    HW2 3406   0.914   4.263   1.699
  791SOL    HW3 3407   0.820   4.302   1.587
  791SOL    MW4 3408   0.893   4.264   1.614
  792SOL     OW 3409   1.128   4.387   1.500
  792SOL    HW2 3410   1.051   4.340   1.532
  792SOL    HW3 3411   1.122   4.473   1.540
  792SOL    MW4 3412   1.117   4.392   1.510
  793SOL     OW 3413   1.537   4.657   1.567
  793SOL    HW2 3414   1.540   4.656   1.663
  793SOL    HW3 3415   1.456   4.704   1.547
  793SOL    MW4 3416   1.527   4.663   1.577
  794SOL     OW 3417   1.299   0.137   1.487
  794SOL    HW2 3418   1.309   0.223   1.529
  794SOL    HW3 3419   1.308   0.156   1.393
  794SOL    MW4 3420   1.302   0.151   1.480
  795SOL     OW 3421   1.343   0.377   1.594
  795SOL    HW2 3422   1.425   0.416   1.564
  795SOL    HW3 3423   1.275   0.438   1.564
  795SOL    MW4 3424   1.345   0.390   1.586
  796SOL     OW 3425   1.567   0.519   1.488
  796SOL    HW2 3426   1.637   0.484   1.543
  796SOL    HW3 3427   1.604   0.523   1.400
  796SOL    MW4 3428   1.581   0.515   1.484
  797SOL     OW 3429   1.585   0.806   1.571
  797SOL    HW2 3430   1.573   0.795   1.665
  797SOL    HW3 3431   1.564   0.721   1.534
  797SOL    MW4 3432   1.580   0.794   1.578
  798SOL     OW 3433   1.345   0.963   1.517
  798SOL    HW2 3434   1.424   0.919   1.550
  798SOL    HW3 3435   1.347   0.948   1.423
  798SOL    MW4 3436   1.356   0.955   1.509
  799SOL     OW 3437   1.348   1.235   1.623
  799SOL    HW2 3438   1.354   1.215   1.716
  799SOL    HW3 3439   1.357   1.151   1.579
  799SOL    MW4 3440   1.350   1.222   1.629
  800SOL     OW 3441   1.559   1.376   1.488
  800SOL    HW2 3442   1.485   1.333   1.531
  800SOL    HW3 3443   1.547   1.355   1.395
  800SOL    MW4 3444   1.547   1.367   1.482
  801SOL     OW 3445   1.531   1.625   1.633
  801SOL    HW2 3446   1.524   1.611   1.727
  801SOL    HW3 3447   1.562   1.541   1.598
  801SOL    MW4 3448   1.534   1.612   1.641
  802SOL     OW 3449   1.301   1.721   1.501
  802SOL    HW2 3450   1.374   1.671   1.538
  802SOL    HW3 3451   1.308   1.708   1.406
  802SOL    MW4 3452   1.312   1.713   1.493
  803SOL     OW 3453   1.354   1.964   1.605
  803SOL    HW2 3454   1.373   1.953   1.698
  803SOL    HW3 3455   1.358   1.875   1.570
  803SOL    MW4 3456   1.357   1.951   1.612
  804SOL     OW 3457   1.574   2.073   1.486
  804SOL    HW2 3458   1.499   2.026   1.523
  804SOL    HW3 3459   1.564   2.062   1.391
  804SOL    MW4 3460   1.563   2.066   1.478
  805SOL     OW 3461   1.522   2.326   1.595
  805SOL    HW2 3462   1.607   2.370   1.593
  805SOL    HW3 3463   1.536   2.245   1.546
  805SOL    MW4 3464   1.535   2.321   1.589
  806SOL     OW 3465   1.302   2.462   1.510
  806SOL    HW2 3466   1.308   2.554   1.537
  806SOL    HW3 3467   1.375   2.419   1.554
  806SOL    MW4 3468   1.312   2.469   1.519
  807SOL     OW 3469   1.332   2.701   1.652
  807SOL    HW2 3470   1.388   2.746   1.589
  807SOL    HW3 3471   1.244   2.735   1.634
  807SOL    MW4 3472   1.328   2.712   1.641
  808SOL     OW 3473   1.521   2.831   1.500
  808SOL    HW2 3474   1.595   2.787   1.543
  808SOL    HW3 3475   1.542   2.829   1.407
  808SOL    MW4 3476   1.534   2.825   1.494
  809SOL     OW 3477   1.551   3.081   1.599
  809SOL    HW2 3478   1.631   3.125   1.570
  809SOL    HW3 3479   1.555   2.994   1.559
  809SOL    MW4 3480   1.562   3.075   1.590
  810SOL     OW 3481   1.336   3.203   1.486
  810SOL    HW2 3482   1.342   3.292   1.521
  810SOL    HW3 3483   1.410   3.157   1.524
  810SOL    MW4 3484   1.347   3.209   1.495
  811SOL     OW 3485   1.311   3.473   1.578
  811SOL    HW2 3486   1.316   3.471   1.673
  811SOL    HW3 3487   1.395   3.510   1.550
  811SOL    MW4 3488   1.323   3.478   1.587
  812SOL     OW 3489   1.541   3.568   1.498
  812SOL    HW2 3490   1.541   3.662   1.517
  812SOL    HW3 3491   1.549   3.562   1.403
  812SOL    MW4 3492   1.542   3.580   1.488
  813SOL     OW 3493   1.586   3.832   1.591
  813SOL    HW2 3494   1.596   3.848   1.685
  813SOL    HW3 3495   1.511   3.885   1.566
  813SOL    MW4 3496   1.578   3.841   1.600
  814SOL     OW 3497   1.363   3.966   1.526
  814SOL    HW2 3498   1.361   4.051   1.569
  814SOL    HW3 3499   1.333   3.983   1.437
  814SOL    MW4 3500   1.358   3.979   1.520
  815SOL     OW 3501   1.347   4.230   1.623
  815SOL    HW2 3502   1.422   4.276   1.586
  815SOL    HW3 3503   1.270   4.275   1.588
  815SOL    MW4 3504   1.347   4.242   1.614
  816SOL     OW 3505   1.531   4.384   1.510
  816SOL    HW2 3506   1.612   4.347   1.545
  816SOL    HW3 3507   1.541   4.478   1.523
  816SOL    MW4 3508   1.543   4.392   1.516
  817SOL     OW 3509   1.996   0.005   1.602
  817SOL    HW2 3510   1.999   0.003   1.698
  817SOL    HW3 3511   1.925   0.066   1.582
  817SOL    MW4 3512   1.987   0.013   1.612
  818SOL     OW 3513   1.778   0.153   1.543
  818SOL    HW2 3514   1.700   0.103   1.569
  818SOL    HW3 3515   1.787   0.137   1.449
  818SOL    MW4 3516   1.769   0.144   1.534
  819SOL     OW 3517   1.786   0.432   1.652
  819SOL    HW2 3518   1.856   0.470   1.599
  819SOL    HW3 3519   1.786   0.339   1.627
  819SOL    MW4 3520   1.796   0.424   1.641
  820SOL     OW 3521   2.013   0.523   1.495
  820SOL    HW2 3522   2.102   0.492   1.510
  820SOL    HW3 3523   2.017   0.617   1.511
  820SOL    MW4 3524   2.025   0.531   1.499
  821SOL     OW 3525   2.038   0.791   1.540
  821SOL    HW2 3526   2.120   0.837   1.522
  821SOL    HW3 3527   1.972   0.839   1.491
  821SOL    MW4 3528   2.040   0.803   1.531
  822SOL     OW 3529   1.781   0.971   1.453
  822SOL    HW2 3530   1.778   1.048   1.510
  822SOL    HW3 3531   1.708   0.917   1.483
  822SOL    MW4 3532   1.771   0.974   1.465
  823SOL     OW 3533   1.770   1.214   1.626
  823SOL    HW2 3534   1.852   1.255   1.598
  823SOL    HW3 3535   1.702   1.257   1.573
  823SOL    MW4 3536   1.772   1.225   1.615
  824SOL     OW 3537   2.011   1.320   1.518
  824SOL    HW2 3538   2.015   1.413   1.541
  824SOL    HW3 3539   2.012   1.320   1.422
  824SOL    MW4 3540   2.012   1.332   1.508
  825SOL     OW 3541   2.032   1.600   1.617
  825SOL    HW2 3542   2.108   1.627   1.564
  825SOL    HW3 3543   1.958   1.643   1.575
  825SOL    MW4 3544   2.033   1.610   1.604
  826SOL     OW 3545   1.779   1.704   1.507
  826SOL    HW2 3546   1.698   1.679   1.550
  826SOL    HW3 3547   1.757   1.709   1.414
  826SOL    MW4 3548   1.766   1.701   1.501
  827SOL     OW 3549   1.822   1.982   1.580
  827SOL    HW2 3550   1.822   1.891   1.553
  827SOL    HW3 3551   1.739   2.017   1.547
  827SOL    MW4 3552   1.811   1.975   1.572
  828SOL     OW 3553   2.054   2.097   1.484
  828SOL    HW2 3554   2.123   2.032   1.499
  828SOL    HW3 3555   1.975   2.055   1.518
  828SOL    MW4 3556   2.053   2.083   1.491
  829SOL     OW 3557   2.015   2.338   1.626
  829SOL    HW2 3558   2.017   2.312   1.719
  829SOL    HW3 3559   2.026   2.256   1.578
  829SOL    MW4 3560   2.017   2.324   1.632
  830SOL     OW 3561   1.772   2.445   1.554
  830SOL    HW2 3562   1.857   2.410   1.581
  830SOL    HW3 3563   1.777   2.451   1.459
  830SOL    MW4 3564   1.784   2.441   1.545
  831SOL     OW 3565   1.756   2.709   1.619
  831SOL    HW2 3566   1.839   2.745   1.586
  831SOL    HW3 3567   1.760   2.616   1.595
  831SOL    MW4 3568   1.768   2.702   1.611
  832SOL     OW 3569   1.975   2.817   1.502
  832SOL    HW2 3570   2.009   2.903   1.526
  832SOL    HW3 3571   1.986   2.812   1.407
  832SOL    MW4 3572   1.981   2.827   1.493
  833SOL     OW 3573   2.007   3.078   1.595
  833SOL    HW2 3574   2.019   3.068   1.690
  833SOL    HW3 3575   2.082   3.130   1.567
  833SOL    MW4 3576   2.019   3.083   1.604
  834SOL     OW 3577   1.780   3.205   1.490
  834SOL    HW2 3578   1.771   3.288   1.537
  834SOL    HW3 3579   1.860   3.166   1.525
  834SOL    MW4 3580   1.789   3.211   1.501
  835SOL     OW 3581   1.801   3.463   1.588
  835SOL    HW2 3582   1.811   3.469   1.683
  835SOL    HW3 3583   1.713   3.496   1.570
  835SOL    MW4 3584   1.791   3.468   1.598
  836SOL     OW 3585   1.999   3.629   1.483
  836SOL    HW2 3586   2.069   3.580   1.526
  836SOL    HW3 3587   1.919   3.583   1.507
  836SOL    MW4 3588   1.998   3.616   1.492
  837SOL     OW 3589   2.009   3.876   1.593
  837SOL    HW2 3590   2.078   3.924   1.547
  837SOL    HW3 3591   2.009   3.789   1.552
  837SOL    MW4 3592   2.018   3.870   1.581
  838SOL     OW 3593   1.798   4.014   1.481
  838SOL    HW2 3594   1.874   3.984   1.531
  838SOL    HW3 3595   1.726   3.958   1.511
  838SOL    MW4 3596   1.798   4.003   1.491
  839SOL     OW 3597   1.761   4.262   1.627
  839SOL    HW2 3598   1.841   4.307   1.599
  839SOL    HW3 3599   1.761   4.180   1.578
  839SOL    MW4 3600   1.772   4.257   1.617
  840SOL     OW 3601   1.979   4.406   1.504
  840SOL    HW2 3602   2.052   4.352   1.534
  840SOL    HW3 3603   1.996   4.492   1.543
  840SOL    MW4 3604   1.991   4.410   1.513
  841SOL     OW 3605   2.471   4.648   1.597
  841SOL    HW2 3606   2.479   4.677   1.688
  841SOL    HW3 3607   2.392   4.693   1.564
  841SOL    MW4 3608   2.462   4.658   1.604
  842SOL     OW 3609   2.231   0.107   1.489
  842SOL    HW2 3610   2.161   0.050   1.522
  842SOL    HW3 3611   2.235   0.087   1.395
  842SOL    MW4 3612   2.222   0.097   1.481
  843SOL     OW 3613   2.247   0.398   1.553
  843SOL    HW2 3614   2.243   0.387   1.648
  843SOL    HW3 3615   2.241   0.310   1.517
  843SOL    MW4 3616   2.246   0.385   1.561
  844SOL     OW 3617   2.499   0.529   1.487
  844SOL    HW2 3618   2.573   0.474   1.513
  844SOL    HW3 3619   2.422   0.482   1.519
  844SOL    MW4 3620   2.498   0.515   1.495
  845SOL     OW 3621   2.506   0.779   1.576
  845SOL    HW2 3622   2.420   0.810   1.548
  845SOL    HW3 3623   2.507   0.687   1.552
  845SOL    MW4 3624   2.495   0.771   1.569
  846SOL     OW 3625   2.278   0.912   1.475
  846SOL    HW2 3626   2.280   0.998   1.518
  846SOL    HW3 3627   2.292   0.932   1.382
  846SOL    MW4 3628   2.280   0.926   1.468
  847SOL     OW 3629   2.258   1.180   1.590
  847SOL    HW2 3630   2.260   1.176   1.686
  847SOL    HW3 3631   2.181   1.232   1.570
  847SOL    MW4 3632   2.248   1.186   1.600
  848SOL     OW 3633   2.471   1.312   1.477
  848SOL    HW2 3634   2.394   1.269   1.515
  848SOL    HW3 3635   2.459   1.305   1.383
  848SOL    MW4 3636   2.459   1.305   1.470
  849SOL     OW 3637   2.491   1.543   1.623
  849SOL    HW2 3638   2.566   1.597   1.600
  849SOL    HW3 3639   2.497   1.467   1.566
  849SOL    MW4 3640   2.502   1.540   1.613
  850SOL     OW 3641   2.269   1.648   1.483
  850SOL    HW2 3642   2.351   1.610   1.516
  850SOL    HW3 3643   2.281   1.652   1.388
  850SOL    MW4 3644   2.282   1.644   1.475
  851SOL     OW 3645   2.260   1.912   1.554
  851SOL    HW2 3646   2.261   1.925   1.649
  851SOL    HW3 3647   2.249   1.818   1.542
  851SOL    MW4 3648   2.259   1.902   1.565
  852SOL     OW 3649   2.494   2.054   1.494
  852SOL    HW2 3650   2.425   1.999   1.532
  852SOL    HW3 3651   2.481   2.047   1.400
  852SOL    MW4 3652   2.483   2.046   1.487
  853SOL     OW 3653   2.476   2.331   1.581
  853SOL    HW2 3654   2.456   2.326   1.674
  853SOL    HW3 3655   2.479   2.240   1.552
  853SOL    MW4 3656   2.474   2.318   1.589
  854SOL     OW 3657   2.232   2.449   1.503
  854SOL    HW2 3658   2.319   2.418   1.526
  854SOL    HW3 3659   2.172   2.397   1.556
  854SOL    MW4 3660   2.235   2.438   1.513
  855SOL     OW 3661   2.233   2.717   1.570
  855SOL    HW2 3662   2.234   2.626   1.539
  855SOL    HW3 3663   2.144   2.747   1.552
  855SOL    MW4 3664   2.221   2.709   1.563
  856SOL     OW 3665   2.452   2.847   1.488
  856SOL    HW2 3666   2.454   2.916   1.554
  856SOL    HW3 3667   2.381   2.788   1.516
  856SOL    MW4 3668   2.443   2.848   1.500
  857SOL     OW 3669   2.426   3.082   1.618
  857SOL    HW2 3670   2.510   3.124   1.605
  857SOL    HW3 3671   2.362   3.144   1.583
  857SOL    MW4 3672   2.428   3.096   1.612
  858SOL     OW 3673   2.225   3.236   1.509
  858SOL    HW2 3674   2.211   3.324   1.542
  858SOL    HW3 3675   2.231   3.247   1.414
  858SOL    MW4 3676   2.224   3.249   1.501
  859SOL     OW 3677   2.213   3.500   1.615
  859SOL    HW2 3678   2.242   3.508   1.706
  859SOL    HW3 3679   2.286   3.532   1.563
  859SOL    MW4 3680   2.226   3.505   1.620
  860SOL     OW 3681   2.451   3.571   1.483
  860SOL    HW2 3682   2.529   3.537   1.527
  860SOL    HW3 3683   2.443   3.661   1.514
  860SOL    MW4 3684   2.460   3.578   1.493
  861SOL     OW 3685   2.432   3.835   1.568
  861SOL    HW2 3686   2.423   3.833   1.663
  861SOL    HW3 3687   2.507   3.893   1.553
  861SOL    MW4 3688   2.441   3.842   1.578
  862SOL     OW 3689   2.238   4.026   1.501
  862SOL    HW2 3690   2.302   3.962   1.535
  862SOL    HW3 3691   2.250   4.023   1.406
  862SOL    MW4 3692   2.248   4.017   1.493
  863SOL     OW 3693   2.194   4.272   1.633
  863SOL    HW2 3694   2.262   4.325   1.591
  863SOL    HW3 3695   2.192   4.191   1.583
  863SOL    MW4 3696   2.203   4.268   1.621
  864SOL     OW 3697   2.395   4.405   1.517
  864SOL    HW2 3698   2.416   4.496   1.538
  864SOL    HW3 3699   2.416   4.397   1.424
  864SOL    MW4 3700   2.401   4.416   1.507
  865SOL     OW 3701   2.934   4.642   1.543
  865SOL    HW2 3702   2.933   4.636   1.638
  865SOL    HW3 3703   2.849   4.680   1.520
  865SOL    MW4 3704   2.923   4.646   1.552
  866SOL     OW 3705   2.711   0.122   1.488
  866SOL    HW2 3706   2.708   0.211   1.522
  866SOL    HW3 3707   2.632   0.081   1.521
  866SOL    MW4 3708   2.700   0.128   1.497
  867SOL     OW 3709   2.709   0.381   1.605
  867SOL    HW2 3710   2.716   0.377   1.700
  867SOL    HW3 3711   2.793   0.417   1.577
  867SOL    MW4 3712   2.721   0.385   1.614
  868SOL     OW 3713   2.912   0.515   1.462
  868SOL    HW2 3714   2.910   0.605   1.496
  868SOL    HW3 3715   2.910   0.525   1.367
  868SOL    MW4 3716   2.911   0.529   1.454
  869SOL     OW 3717   2.922   0.770   1.570
  869SOL    HW2 3718   2.913   0.763   1.665
  869SOL    HW3 3719   2.865   0.843   1.546
  869SOL    MW4 3720   2.913   0.778   1.580
  870SOL     OW 3721   2.726   0.949   1.485
  870SOL    HW2 3722   2.660   0.886   1.511
  870SOL    HW3 3723   2.756   0.919   1.399
  870SOL    MW4 3724   2.721   0.937   1.477
  871SOL     OW 3725   2.702   1.230   1.593
  871SOL    HW2 3726   2.712   1.139   1.566
  871SOL    HW3 3727   2.632   1.264   1.538
  871SOL    MW4 3728   2.694   1.223   1.583
  872SOL     OW 3729   2.955   1.333   1.490
  872SOL    HW2 3730   3.021   1.273   1.523
  872SOL    HW3 3731   2.872   1.293   1.516
  872SOL    MW4 3732   2.952   1.320   1.498
  873SOL     OW 3733   2.929   1.587   1.601
  873SOL    HW2 3734   2.850   1.625   1.562
  873SOL    HW3 3735   2.939   1.503   1.558
  873SOL    MW4 3736   2.920   1.581   1.590
  874SOL     OW 3737   2.713   1.698   1.477
  874SOL    HW2 3738   2.725   1.790   1.502
  874SOL    HW3 3739   2.682   1.702   1.387
  874SOL    MW4 3740   2.711   1.711   1.468
  875SOL     OW 3741   2.758   1.976   1.562
  875SOL    HW2 3742   2.757   1.955   1.655
  875SOL    HW3 3743   2.672   2.015   1.545
  875SOL    MW4 3744   2.747   1.979   1.572
  876SOL     OW 3745   2.973   2.124   1.498
  876SOL    HW2 3746   2.963   2.209   1.541
  876SOL    HW3 3747   2.889   2.079   1.514
  876SOL    MW4 3748   2.960   2.129   1.506
  877SOL     OW 3749   2.925   2.357   1.649
  877SOL    HW2 3750   2.910   2.337   1.741
  877SOL    HW3 3751   2.841   2.390   1.617
  877SOL    MW4 3752   2.912   2.359   1.657
  878SOL     OW 3753   2.701   2.457   1.474
  878SOL    HW2 3754   2.697   2.543   1.517
  878SOL    HW3 3755   2.623   2.411   1.506
  878SOL    MW4 3756   2.690   2.462   1.484
  879SOL     OW 3757   2.691   2.718   1.587
  879SOL    HW2 3758   2.762   2.780   1.569
  879SOL    HW3 3759   2.611   2.766   1.562
  879SOL    MW4 3760   2.690   2.733   1.581
  880SOL     OW 3761   2.906   2.862   1.539
  880SOL    HW2 3762   2.978   2.814   1.580
  880SOL    HW3 3763   2.908   2.948   1.580
  880SOL    MW4 3764   2.916   2.867   1.549
  881SOL     OW 3765   2.896   3.117   1.628
  881SOL    HW2 3766   2.901   3.141   1.721
  881SOL    HW3 3767   2.972   3.159   1.589
  881SOL    MW4 3768   2.907   3.125   1.635
  882SOL     OW 3769   2.647   3.199   1.529
  882SOL    HW2 3770   2.737   3.167   1.533
  882SOL    HW3 3771   2.632   3.216   1.436
  882SOL    MW4 3772   2.657   3.197   1.517
  883SOL     OW 3773   2.682   3.452   1.627
  883SOL    HW2 3774   2.659   3.462   1.720
  883SOL    HW3 3775   2.670   3.359   1.609
  883SOL    MW4 3776   2.678   3.441   1.637
  884SOL     OW 3777   2.894   3.601   1.545
  884SOL    HW2 3778   2.830   3.546   1.590
  884SOL    HW3 3779   2.891   3.572   1.454
  884SOL    MW4 3780   2.885   3.590   1.539
  885SOL     OW 3781   2.879   3.887   1.586
  885SOL    HW2 3782   2.796   3.919   1.549
  885SOL    HW3 3783   2.881   3.794   1.565
  885SOL    MW4 3784   2.868   3.879   1.578
  886SOL     OW 3785   2.657   4.007   1.483
  886SOL    HW2 3786   2.656   4.094   1.522
  886SOL    HW3 3787   2.656   4.023   1.388
  886SOL    MW4 3788   2.657   4.021   1.476
  887SOL     OW 3789   2.639   4.276   1.588
  887SOL    HW2 3790   2.715   4.320   1.551
  887SOL    HW3 3791   2.564   4.331   1.562
  887SOL    MW4 3792   2.639   4.289   1.580
  888SOL     OW 3793   2.856   4.395   1.467
  888SOL    HW2 3794   2.883   4.485   1.489
  888SOL    HW3 3795   2.849   4.396   1.371
  888SOL    MW4 3796   2.859   4.407   1.457
  889SOL     OW 3797   3.331   4.664   1.590
  889SOL    HW2 3798   3.411   4.699   1.550
  889SOL    HW3 3799   3.330   4.571   1.565
  889SOL    MW4 3800   3.342   4.656   1.581
  890SOL     OW 3801   3.133   0.124   1.432
  890SOL    HW2 3802   3.205   0.082   1.479
  890SOL    HW3 3803   3.055   0.077   1.460
  890SOL    MW4 3804   3.132   0.112   1.442
  891SOL     OW 3805   3.150   0.385   1.536
  891SOL    HW2 3806   3.140   0.296   1.502
  891SOL    HW3 3807   3.066   0.428   1.517
  891SOL    MW4 3808   3.137   0.379   1.529
  892SOL     OW 3809   3.392   0.536   1.499
  892SOL    HW2 3810   3.312   0.485   1.512
  892SOL    HW3 3811   3.399   0.546   1.404
  892SOL    MW4 3812   3.382   0.531   1.488
  893SOL     OW 3813   3.396   0.785   1.620
  893SOL    HW2 3814   3.378   0.775   1.713
  893SOL    HW3 3815   3.410   0.696   1.588
  893SOL    MW4 3816   3.396   0.772   1.628
  894SOL     OW 3817   3.176   0.882   1.494
  894SOL    HW2 3818   3.243   0.842   1.550
  894SOL    HW3 3819   3.097   0.829   1.509
  894SOL    MW4 3820   3.174   0.870   1.503
  895SOL     OW 3821   3.132   1.146   1.583
  895SOL    HW2 3822   3.162   1.145   1.674
  895SOL    HW3 3823   3.132   1.054   1.556
  895SOL    MW4 3824   3.136   1.134   1.591
  896SOL     OW 3825   3.326   1.304   1.485
  896SOL    HW2 3826   3.409   1.270   1.520
  896SOL    HW3 3827   3.259   1.246   1.520
  896SOL    MW4 3828   3.328   1.292   1.494
  897SOL     OW 3829   3.335   1.572   1.557
  897SOL    HW2 3830   3.320   1.546   1.648
  897SOL    HW3 3831   3.357   1.491   1.511
  897SOL    MW4 3832   3.336   1.558   1.563
  898SOL     OW 3833   3.140   1.725   1.459
  898SOL    HW2 3834   3.215   1.675   1.490
  898SOL    HW3 3835   3.065   1.687   1.505
  898SOL    MW4 3836   3.140   1.713   1.469
  899SOL     OW 3837   3.174   1.970   1.606
  899SOL    HW2 3838   3.155   1.883   1.570
  899SOL    HW3 3839   3.103   2.025   1.573
  899SOL    MW4 3840   3.162   1.966   1.597
  900SOL     OW 3841   3.406   2.095   1.511
  900SOL    HW2 3842   3.333   2.043   1.545
  900SOL    HW3 3843   3.393   2.095   1.416
  900SOL    MW4 3844   3.395   2.088   1.503
  901SOL     OW 3845   3.387   2.344   1.638
  901SOL    HW2 3846   3.443   2.389   1.575
  901SOL    HW3 3847   3.394   2.252   1.616
  901SOL    MW4 3848   3.395   2.338   1.627
  902SOL     OW 3849   3.147   2.442   1.523
  902SOL    HW2 3850   3.222   2.415   1.576
  902SOL    HW3 3851   3.071   2.423   1.578
  902SOL    MW4 3852   3.147   2.436   1.537
  903SOL     OW 3853   3.142   2.710   1.606
  903SOL    HW2 3854   3.220   2.760   1.583
  903SOL    HW3 3855   3.156   2.624   1.566
  903SOL    MW4 3856   3.154   2.705   1.598
  904SOL     OW 3857   3.387   2.841   1.542
  904SOL    HW2 3858   3.354   2.929   1.560
  904SOL    HW3 3859   3.391   2.836   1.446
  904SOL    MW4 3860   3.383   2.852   1.531
  905SOL     OW 3861   3.333   3.110   1.606
  905SOL    HW2 3862   3.352   3.092   1.698
  905SOL    HW3 3863   3.414   3.146   1.571
  905SOL    MW4 3864   3.346   3.112   1.614
  906SOL     OW 3865   3.113   3.241   1.520
  906SOL    HW2 3866   3.196   3.205   1.550
  906SOL    HW3 3867   3.116   3.232   1.425
  906SOL    MW4 3868   3.124   3.235   1.511
  907SOL     OW 3869   3.158   3.504   1.594
  907SOL    HW2 3870   3.137   3.418   1.557
  907SOL    HW3 3871   3.081   3.558   1.576
  907SOL    MW4 3872   3.145   3.500   1.586
  908SOL     OW 3873   3.376   3.624   1.486
  908SOL    HW2 3874   3.447   3.577   1.531
  908SOL    HW3 3875   3.296   3.588   1.523
  908SOL    MW4 3876   3.375   3.613   1.497
  909SOL     OW 3877   3.319   3.877   1.599
  909SOL    HW2 3878   3.244   3.908   1.548
  909SOL    HW3 3879   3.326   3.784   1.578
  909SOL    MW4 3880   3.310   3.869   1.589
  910SOL     OW 3881   3.106   4.001   1.456
  910SOL    HW2 3882   3.102   4.093   1.480
  910SOL    HW3 3883   3.030   3.961   1.498
  910SOL    MW4 3884   3.096   4.008   1.465
  911SOL     OW 3885   3.095   4.263   1.557
  911SOL    HW2 3886   3.094   4.247   1.651
  911SOL    HW3 3887   3.009   4.299   1.538
  911SOL    MW4 3888   3.084   4.265   1.567
  912SOL     OW 3889   3.338   4.411   1.484
  912SOL    HW2 3890   3.254   4.370   1.507
  912SOL    HW3 3891   3.331   4.430   1.390
  912SOL    MW4 3892   3.326   4.408   1.475
  913SOL     OW 3893   3.810   4.616   1.582
  913SOL    HW2 3894   3.814   4.626   1.677
  913SOL    HW3 3895   3.880   4.672   1.549
  913SOL    MW4 3896   3.820   4.625   1.591
  914SOL     OW 3897   3.567   0.069   1.471
  914SOL    HW2 3898   3.650   0.023   1.486
  914SOL    HW3 3899   3.562   0.078   1.376
  914SOL    MW4 3900   3.578   0.064   1.460
  915SOL     OW 3901   3.555   0.329   1.611
  915SOL    HW2 3902   3.568   0.250   1.558
  915SOL    HW3 3903   3.493   0.381   1.561
  915SOL    MW4 3904   3.549   0.325   1.598
  916SOL     OW 3905   3.760   0.469   1.513
  916SOL    HW2 3906   3.680   0.427   1.543
  916SOL    HW3 3907   3.760   0.456   1.418
  916SOL    MW4 3908   3.749   0.462   1.504
  917SOL     OW 3909   3.795   0.744   1.564
  917SOL    HW2 3910   3.716   0.794   1.548
  917SOL    HW3 3911   3.768   0.652   1.557
  917SOL    MW4 3912   3.781   0.738   1.561
  918SOL     OW 3913   3.588   0.936   1.493
  918SOL    HW2 3914   3.509   0.888   1.518
  918SOL    HW3 3915   3.589   0.933   1.397
  918SOL    MW4 3916   3.578   0.929   1.484
  919SOL     OW 3917   3.570   1.208   1.572
  919SOL    HW2 3918   3.657   1.240   1.550
  919SOL    HW3 3919   3.565   1.121   1.532
  919SOL    MW4 3920   3.581   1.201   1.564
  920SOL     OW 3921   3.816   1.327   1.523
  920SOL    HW2 3922   3.900   1.282   1.538
  920SOL    HW3 3923   3.825   1.409   1.572
  920SOL    MW4 3924   3.829   1.332   1.532
  921SOL     OW 3925   3.822   1.591   1.615
  921SOL    HW2 3926   3.813   1.571   1.708
  921SOL    HW3 3927   3.733   1.616   1.588
  921SOL    MW4 3928   3.809   1.591   1.623
  922SOL     OW 3929   3.587   1.676   1.488
  922SOL    HW2 3930   3.498   1.643   1.502
  922SOL    HW3 3931   3.600   1.669   1.394
  922SOL    MW4 3932   3.577   1.671   1.477
  923SOL     OW 3933   3.591   1.920   1.600
  923SOL    HW2 3934   3.589   1.834   1.558
  923SOL    HW3 3935   3.546   1.978   1.540
  923SOL    MW4 3936   3.585   1.916   1.587
  924SOL     OW 3937   3.851   2.042   1.535
  924SOL    HW2 3938   3.835   2.131   1.568
  924SOL    HW3 3939   3.774   1.992   1.564
  924SOL    MW4 3940   3.838   2.047   1.543
  925SOL     OW 3941   3.805   2.308   1.600
  925SOL    HW2 3942   3.798   2.321   1.695
  925SOL    HW3 3943   3.886   2.352   1.575
  925SOL    MW4 3944   3.814   2.316   1.609
  926SOL     OW 3945   3.604   2.460   1.497
  926SOL    HW2 3946   3.615   2.550   1.528
  926SOL    HW3 3947   3.688   2.417   1.517
  926SOL    MW4 3948   3.617   2.466   1.503
  927SOL     OW 3949   3.615   2.719   1.612
  927SOL    HW2 3950   3.620   2.716   1.707
  927SOL    HW3 3951   3.532   2.761   1.593
  927SOL    MW4 3952   3.605   2.724   1.622
  928SOL     OW 3953   3.873   2.870   1.526
  928SOL    HW2 3954   3.934   2.804   1.559
  928SOL    HW3 3955   3.786   2.838   1.552
  928SOL    MW4 3956   3.869   2.857   1.533
  929SOL     OW 3957   3.819   3.126   1.599
  929SOL    HW2 3958   3.894   3.170   1.559
  929SOL    HW3 3959   3.834   3.033   1.580
  929SOL    MW4 3960   3.831   3.119   1.591
  930SOL     OW 3961   3.571   3.219   1.521
  930SOL    HW2 3962   3.657   3.183   1.541
  930SOL    HW3 3963   3.561   3.207   1.427
  930SOL    MW4 3964   3.581   3.212   1.511
  931SOL     OW 3965   3.565   3.485   1.626
  931SOL    HW2 3966   3.648   3.514   1.587
  931SOL    HW3 3967   3.558   3.392   1.602
  931SOL    MW4 3968   3.575   3.476   1.618
  932SOL     OW 3969   3.785   3.610   1.511
  932SOL    HW2 3970   3.866   3.566   1.534
  932SOL    HW3 3971   3.794   3.698   1.547
  932SOL    MW4 3972   3.797   3.616   1.519
  933SOL     OW 3973   3.792   3.854   1.625
  933SOL    HW2 3974   3.864   3.909   1.593
  933SOL    HW3 3975   3.716   3.884   1.577
  933SOL    MW4 3976   3.792   3.865   1.615
  934SOL     OW 3977   3.560   3.971   1.495
  934SOL    HW2 3978   3.562   4.064   1.515
  934SOL    HW3 3979   3.473   3.942   1.524
  934SOL    MW4 3980   3.548   3.979   1.502
  935SOL     OW 3981   3.574   4.248   1.557
  935SOL    HW2 3982   3.565   4.271   1.649
  935SOL    HW3 3983   3.509   4.301   1.512
  935SOL    MW4 3984   3.564   4.258   1.563
  936SOL     OW 3985   3.826   4.356   1.498
  936SOL    HW2 3986   3.745   4.305   1.506
  936SOL    HW3 3987   3.807   4.438   1.543
  936SOL    MW4 3988   3.813   4.360   1.505
  937SOL     OW 3989   4.228   0.002   1.587
  937SOL    HW2 3990   4.246  -0.023   1.677
  937SOL    HW3 3991   4.231  -0.080   1.538
  937SOL    MW4 3992   4.231  -0.012   1.592
  938SOL     OW 3993   4.002   0.152   1.481
  938SOL    HW2 3994   4.004   0.236   1.526
  938SOL    HW3 3995   4.077   0.104   1.518
  938SOL    MW4 3996   4.012   0.157   1.492
  939SOL     OW 3997   3.997   0.385   1.631
  939SOL    HW2 3998   4.003   0.386   1.727
  939SOL    HW3 3999   3.907   0.411   1.613
  939SOL    MW4 4000   3.986   0.389   1.642
  940SOL     OW 4001   4.221   0.495   1.517
  940SOL    HW2 4002   4.149   0.451   1.562
  940SOL    HW3 4003   4.300   0.453   1.550
  940SOL    MW4 4004   4.222   0.484   1.527
  941SOL     OW 4005   4.249   0.755   1.627
  941SOL    HW2 4006   4.242   0.670   1.584
  941SOL    HW3 4007   4.326   0.796   1.588
  941SOL    MW4 4008   4.258   0.749   1.616
  942SOL     OW 4009   4.032   0.888   1.525
  942SOL    HW2 4010   4.110   0.863   1.575
  942SOL    HW3 4011   3.967   0.821   1.547
  942SOL    MW4 4012   4.034   0.876   1.534
  943SOL     OW 4013   4.029   1.149   1.591
  943SOL    HW2 4014   4.008   1.144   1.684
  943SOL    HW3 4015   4.019   1.059   1.559
  943SOL    MW4 4016   4.025   1.137   1.599
  944SOL     OW 4017   4.243   1.288   1.504
  944SOL    HW2 4018   4.176   1.230   1.540
  944SOL    HW3 4019   4.326   1.250   1.533
  944SOL    MW4 4020   4.245   1.275   1.512
  945SOL     OW 4021   4.259   1.526   1.658
  945SOL    HW2 4022   4.261   1.431   1.641
  945SOL    HW3 4023   4.342   1.558   1.622
  945SOL    MW4 4024   4.270   1.517   1.651
  946SOL     OW 4025   4.069   1.687   1.525
  946SOL    HW2 4026   4.129   1.627   1.569
  946SOL    HW3 4027   3.981   1.656   1.549
  946SOL    MW4 4028   4.065   1.675   1.534
  947SOL     OW 4029   4.099   1.947   1.621
  947SOL    HW2 4030   4.098   1.855   1.595
  947SOL    HW3 4031   4.019   1.984   1.582
  947SOL    MW4 4032   4.088   1.940   1.612
  948SOL     OW 4033   4.292   2.112   1.524
  948SOL    HW2 4034   4.221   2.052   1.546
  948SOL    HW3 4035   4.302   2.105   1.429
  948SOL    MW4 4036   4.284   2.103   1.514
  949SOL     OW 4037   4.278   2.361   1.620
  949SOL    HW2 4038   4.268   2.350   1.714
  949SOL    HW3 4039   4.278   2.272   1.585
  949SOL    MW4 4040   4.277   2.348   1.628
  950SOL     OW 4041   4.045   2.448   1.515
  950SOL    HW2 4042   4.052   2.537   1.548
  950SOL    HW3 4043   4.126   2.406   1.542
  950SOL    MW4 4044   4.056   2.454   1.523
  951SOL     OW 4045   4.047   2.690   1.623
  951SOL    HW2 4046   4.035   2.695   1.718
  951SOL    HW3 4047   4.123   2.746   1.606
  951SOL    MW4 4048   4.055   2.698   1.634
  952SOL     OW 4049   4.262   2.840   1.537
  952SOL    HW2 4050   4.254   2.935   1.549
  952SOL    HW3 4051   4.280   2.829   1.444
  952SOL    MW4 4052   4.264   2.851   1.526
  953SOL     OW 4053   4.273   3.125   1.584
  953SOL    HW2 4054   4.287   3.133   1.679
  953SOL    HW3 4055   4.356   3.152   1.545
  953SOL    MW4 4056   4.286   3.129   1.592
  954SOL     OW 4057   4.034   3.277   1.480
  954SOL    HW2 4058   4.029   3.367   1.512
  954SOL    HW3 4059   4.115   3.243   1.519
  954SOL    MW4 4060   4.044   3.284   1.490
  955SOL     OW 4061   4.018   3.518   1.600
  955SOL    HW2 4062   4.015   3.499   1.694
  955SOL    HW3 4063   4.110   3.535   1.581
  955SOL    MW4 4064   4.029   3.517   1.610
  956SOL     OW 4065   4.288   3.593   1.525
  956SOL    HW2 4066   4.284   3.683   1.555
  956SOL    HW3 4067   4.289   3.600   1.429
  956SOL    MW4 4068   4.288   3.606   1.516
  957SOL     OW 4069   4.286   3.860   1.613
  957SOL    HW2 4070   4.210   3.902   1.572
  957SOL    HW3 4071   4.361   3.894   1.565
  957SOL    MW4 4072   4.285   3.870   1.601
  958SOL     OW 4073   4.023   3.959   1.554
  958SOL    HW2 4074   4.045   4.043   1.594
  958SOL    HW3 4075   4.027   3.976   1.459
  958SOL    MW4 4076   4.026   3.972   1.547
  959SOL     OW 4077   4.057   4.238   1.606
  959SOL    HW2 4078   4.039   4.231   1.699
  959SOL    HW3 4079   3.971   4.257   1.566
  959SOL    MW4 4080   4.043   4.240   1.613
  960SOL     OW 4081   4.278   4.403   1.493
  960SOL    HW2 4082   4.193   4.370   1.523
  960SOL    HW3 4083   4.272   4.399   1.398
  960SOL    MW4 4084   4.266   4.398   1.484
  961SOL     OW 4085   0.216   4.667   1.939
  961SOL    HW2 4086   0.294   4.708   1.975
  961SOL    HW3 4087   0.231   4.665   1.845
  961SOL    MW4 4088   0.228   4.672   1.931
  962SOL     OW 4089   4.467   0.129   2.004
  962SOL    HW2 4090   4.460   0.219   1.971
  962SOL    HW3 4091   4.554   0.100   1.975
  962SOL    MW4 4092   4.478   0.137   1.996
  963SOL     OW 4093   4.447   0.391   1.891
  963SOL    HW2 4094   4.387   0.453   1.932
  963SOL    HW3 4095   4.534   0.422   1.916
  963SOL    MW4 4096   4.450   0.403   1.900
  964SOL     OW 4097   0.188   0.475   1.991
  964SOL    HW2 4098   0.267   0.438   1.950
  964SOL    HW3 4099   0.183   0.564   1.957
  964SOL    MW4 4100   0.198   0.482   1.981
  965SOL     OW 4101   0.199   0.762   1.947
  965SOL    HW2 4102   0.276   0.803   1.987
  965SOL    HW3 4103   0.218   0.763   1.853
  965SOL    MW4 4104   0.212   0.768   1.939
  966SOL     OW 4105   4.476   0.923   2.019
  966SOL    HW2 4106   4.402   0.867   1.994
  966SOL    HW3 4107   4.554   0.875   1.992
  966SOL    MW4 4108   4.476   0.909   2.012
  967SOL     OW 4109   4.448   1.133   1.846
  967SOL    HW2 4110   4.378   1.181   1.888
  967SOL    HW3 4111   4.464   1.058   1.904
  967SOL    MW4 4112   4.441   1.129   1.859
  968SOL     OW 4113   0.174   1.249   1.981
  968SOL    HW2 4114   0.174   1.338   1.945
  968SOL    HW3 4115   0.101   1.206   1.937
  968SOL    MW4 4116   0.164   1.255   1.970
  969SOL     OW 4117   0.222   1.508   1.897
  969SOL    HW2 4118   0.301   1.550   1.931
  969SOL    HW3 4119   0.152   1.570   1.917
  969SOL    MW4 4120   0.223   1.522   1.904
  970SOL     OW 4121   0.017   1.682   1.988
  970SOL    HW2 4122   0.026   1.679   2.083
  970SOL    HW3 4123  -0.067   1.638   1.970
  970SOL    MW4 4124   0.007   1.676   1.998
  971SOL     OW 4125   4.488   1.942   1.898
  971SOL    HW2 4126   4.414   1.979   1.945
  971SOL    HW3 4127   4.494   1.851   1.930
  971SOL    MW4 4128   4.479   1.935   1.909
  972SOL     OW 4129   0.245   2.075   1.974
  972SOL    HW2 4130   0.223   2.163   1.942
  972SOL    HW3 4131   0.169   2.022   1.950
  972SOL    MW4 4132   0.232   2.080   1.967
  973SOL     OW 4133   0.188   2.338   1.889
  973SOL    HW2 4134   0.273   2.370   1.921
  973SOL    HW3 4135   0.124   2.396   1.931
  973SOL    MW4 4136   0.191   2.350   1.899
  974SOL     OW 4137   4.450   2.457   2.031
  974SOL    HW2 4138   4.464   2.438   2.124
  974SOL    HW3 4139   4.465   2.551   2.023
  974SOL    MW4 4140   4.454   2.467   2.042
  975SOL     OW 4141   4.473   2.701   1.888
  975SOL    HW2 4142   4.392   2.747   1.908
  975SOL    HW3 4143   4.479   2.702   1.793
  975SOL    MW4 4144   4.463   2.707   1.878
  976SOL     OW 4145   0.203   2.854   1.982
  976SOL    HW2 4146   0.197   2.944   1.952
  976SOL    HW3 4147   0.127   2.811   1.944
  976SOL    MW4 4148   0.192   2.860   1.973
  977SOL     OW 4149   0.232   3.148   1.887
  977SOL    HW2 4150   0.314   3.163   1.933
  977SOL    HW3 4151   0.253   3.160   1.795
  977SOL    MW4 4152   0.245   3.152   1.881
  978SOL     OW 4153   0.017   3.252   2.014
  978SOL    HW2 4154  -0.050   3.214   1.958
  978SOL    HW3 4155   0.097   3.204   1.993
  978SOL    MW4 4156   0.019   3.241   2.004
  979SOL     OW 4157   0.033   3.505   1.892
  979SOL    HW2 4158   0.101   3.551   1.941
  979SOL    HW3 4159   0.046   3.412   1.912
  979SOL    MW4 4160   0.044   3.499   1.901
  980SOL     OW 4161   0.261   3.631   1.998
  980SOL    HW2 4162   0.261   3.612   2.092
  980SOL    HW3 4163   0.320   3.566   1.960
  980SOL    MW4 4164   0.269   3.620   2.005
  981SOL     OW 4165   0.244   3.871   1.875
  981SOL    HW2 4166   0.315   3.931   1.901
  981SOL    HW3 4167   0.268   3.787   1.913
  981SOL    MW4 4168   0.257   3.868   1.883
  982SOL     OW 4169   0.016   4.005   1.981
  982SOL    HW2 4170   0.026   4.093   1.942
  982SOL    HW3 4171   0.089   3.955   1.946
  982SOL    MW4 4172   0.027   4.010   1.971
  983SOL     OW 4173   4.490   4.237   1.863
  983SOL    HW2 4174   4.410   4.271   1.903
  983SOL    HW3 4175   4.561   4.289   1.903
  983SOL    MW4 4176   4.489   4.249   1.874
  984SOL     OW 4177   0.190   4.386   2.000
  984SOL    HW2 4178   0.200   4.386   2.095
  984SOL    HW3 4179   0.196   4.478   1.974
  984SOL    MW4 4180   0.192   4.398   2.009
  985SOL     OW 4181   0.689   0.004   1.910
  985SOL    HW2 4182   0.690  -0.085   1.944
  985SOL    HW3 4183   0.702  -0.006   1.815
  985SOL    MW4 4184   0.691  -0.009   1.902
  986SOL     OW 4185   0.464   0.117   2.014
  986SOL    HW2 4186   0.445   0.200   1.969
  986SOL    HW3 4187   0.544   0.085   1.973
  986SOL    MW4 4188   0.472   0.124   2.003
  987SOL     OW 4189   0.421   0.368   1.882
  987SOL    HW2 4190   0.499   0.416   1.911
  987SOL    HW3 4191   0.417   0.383   1.787
  987SOL    MW4 4192   0.431   0.376   1.873
  988SOL     OW 4193   0.622   0.517   1.976
  988SOL    HW2 4194   0.631   0.513   2.071
  988SOL    HW3 4195   0.702   0.475   1.943
  988SOL    MW4 4196   0.634   0.511   1.984
  989SOL     OW 4197   0.681   0.751   1.835
  989SOL    HW2 4198   0.746   0.790   1.894
  989SOL    HW3 4199   0.650   0.674   1.882
  989SOL    MW4 4200   0.686   0.746   1.849
  990SOL     OW 4201   0.451   0.864   2.008
  990SOL    HW2 4202   0.453   0.958   1.990
  990SOL    HW3 4203   0.530   0.830   1.964
  990SOL    MW4 4204   0.462   0.872   2.000
  991SOL     OW 4205   0.416   1.133   1.956
  991SOL    HW2 4206   0.340   1.188   1.978
  991SOL    HW3 4207   0.426   1.143   1.862
  991SOL    MW4 4208   0.407   1.142   1.947
  992SOL     OW 4209   0.668   1.271   2.009
  992SOL    HW2 4210   0.702   1.257   2.097
  992SOL    HW3 4211   0.589   1.217   2.005
  992SOL    MW4 4212   0.662   1.262   2.020
  993SOL     OW 4213   0.690   1.535   1.907
  993SOL    HW2 4214   0.680   1.442   1.930
  993SOL    HW3 4215   0.692   1.535   1.811
  993SOL    MW4 4216   0.689   1.522   1.897
  994SOL     OW 4217   0.448   1.683   1.953
  994SOL    HW2 4218   0.453   1.700   2.047
  994SOL    HW3 4219   0.531   1.641   1.932
  994SOL    MW4 4220   0.460   1.680   1.963
  995SOL     OW 4221   0.475   1.946   1.872
  995SOL    HW2 4222   0.474   1.855   1.902
  995SOL    HW3 4223   0.399   1.986   1.913
  995SOL    MW4 4224   0.465   1.939   1.881
  996SOL     OW 4225   0.707   2.063   1.950
  996SOL    HW2 4226   0.688   2.067   2.043
  996SOL    HW3 4227   0.626   2.030   1.911
  996SOL    MW4 4228   0.694   2.060   1.957
  997SOL     OW 4229   0.664   2.347   1.893
  997SOL    HW2 4230   0.674   2.253   1.911
  997SOL    HW3 4231   0.681   2.354   1.799
  997SOL    MW4 4232   0.667   2.335   1.883
  998SOL     OW 4233   0.421   2.461   1.987
  998SOL    HW2 4234   0.432   2.467   2.082
  998SOL    HW3 4235   0.497   2.412   1.957
  998SOL    MW4 4236   0.433   2.455   1.995
  999SOL     OW 4237   0.445   2.728   1.892
  999SOL    HW2 4238   0.449   2.638   1.924
  999SOL    HW3 4239   0.359   2.760   1.920
  999SOL    MW4 4240   0.434   2.721   1.900
 1000SOL     OW 4241   0.673   2.842   2.009
 1000SOL    HW2 4242   0.650   2.854   2.101
 1000SOL    HW3 4243   0.588   2.828   1.966
 1000SOL    MW4 4244   0.659   2.842   2.015
 1001SOL     OW 4245   0.690   3.101   1.861
 1001SOL    HW2 4246   0.681   3.010   1.891
 1001SOL    HW3 4247   0.694   3.095   1.766
 1001SOL    MW4 4248   0.690   3.088   1.852
 1002SOL     OW 4249   0.492   3.247   1.998
 1002SOL    HW2 4250   0.475   3.325   1.945
 1002SOL    HW3 4251   0.568   3.207   1.956
 1002SOL    MW4 4252   0.500   3.252   1.985
 1003SOL     OW 4253   0.437   3.474   1.861
 1003SOL    HW2 4254   0.511   3.523   1.896
 1003SOL    HW3 4255   0.438   3.493   1.767
 1003SOL    MW4 4256   0.446   3.483   1.853
 1004SOL     OW 4257   0.637   3.616   1.996
 1004SOL    HW2 4258   0.716   3.567   1.974
 1004SOL    HW3 4259   0.648   3.700   1.953
 1004SOL    MW4 4260   0.649   3.620   1.988
 1005SOL     OW 4261   0.675   3.848   1.865
 1005SOL    HW2 4262   0.754   3.894   1.892
 1005SOL    HW3 4263   0.662   3.873   1.774
 1005SOL    MW4 4264   0.684   3.857   1.856
 1006SOL     OW 4265   0.453   4.021   2.001
 1006SOL    HW2 4266   0.459   4.110   1.968
 1006SOL    HW3 4267   0.538   3.982   1.978
 1006SOL    MW4 4268   0.465   4.027   1.993
 1007SOL     OW 4269   0.447   4.298   1.921
 1007SOL    HW2 4270   0.356   4.313   1.945
 1007SOL    HW3 4271   0.445   4.285   1.826
 1007SOL    MW4 4272   0.435   4.298   1.911
 1008SOL     OW 4273   0.692   4.413   1.977
 1008SOL    HW2 4274   0.754   4.360   1.928
 1008SOL    HW3 4275   0.607   4.372   1.960
 1008SOL    MW4 4276   0.689   4.400   1.969
 1009SOL     OW 4277   1.073   0.014   1.905
 1009SOL    HW2 4278   1.156   0.057   1.926
 1009SOL    HW3 4279   1.088  -0.078   1.925
 1009SOL    MW4 4280   1.086   0.008   1.911
 1010SOL     OW 4281   0.870   0.164   2.050
 1010SOL    HW2 4282   0.958   0.138   2.023
 1010SOL    HW3 4283   0.812   0.099   2.009
 1010SOL    MW4 4284   0.874   0.152   2.041
 1011SOL     OW 4285   0.868   0.394   1.901
 1011SOL    HW2 4286   0.953   0.429   1.928
 1011SOL    HW3 4287   0.861   0.311   1.948
 1011SOL    MW4 4288   0.878   0.387   1.911
 1012SOL     OW 4289   1.113   0.511   2.000
 1012SOL    HW2 4290   1.190   0.467   1.965
 1012SOL    HW3 4291   1.111   0.596   1.956
 1012SOL    MW4 4292   1.123   0.516   1.990
 1013SOL     OW 4293   1.102   0.752   1.874
 1013SOL    HW2 4294   1.179   0.801   1.902
 1013SOL    HW3 4295   1.029   0.796   1.917
 1013SOL    MW4 4296   1.103   0.765   1.883
 1014SOL     OW 4297   0.858   0.871   2.013
 1014SOL    HW2 4298   0.873   0.890   2.105
 1014SOL    HW3 4299   0.865   0.956   1.970
 1014SOL    MW4 4300   0.861   0.885   2.019
 1015SOL     OW 4301   0.871   1.118   1.887
 1015SOL    HW2 4302   0.798   1.171   1.917
 1015SOL    HW3 4303   0.870   1.125   1.792
 1015SOL    MW4 4304   0.861   1.126   1.878
 1016SOL     OW 4305   1.087   1.251   1.980
 1016SOL    HW2 4306   1.094   1.337   1.939
 1016SOL    HW3 4307   0.999   1.220   1.959
 1016SOL    MW4 4308   1.077   1.258   1.972
 1017SOL     OW 4309   1.126   1.519   1.883
 1017SOL    HW2 4310   1.044   1.539   1.928
 1017SOL    HW3 4311   1.113   1.549   1.794
 1017SOL    MW4 4312   1.114   1.525   1.877
 1018SOL     OW 4313   0.914   1.641   1.996
 1018SOL    HW2 4314   0.921   1.730   1.961
 1018SOL    HW3 4315   0.831   1.608   1.963
 1018SOL    MW4 4316   0.904   1.649   1.987
 1019SOL     OW 4317   0.915   1.900   1.884
 1019SOL    HW2 4318   0.839   1.939   1.925
 1019SOL    HW3 4319   0.894   1.897   1.791
 1019SOL    MW4 4320   0.902   1.905   1.877
 1020SOL     OW 4321   1.146   2.032   1.958
 1020SOL    HW2 4322   1.135   2.122   1.929
 1020SOL    HW3 4323   1.070   1.985   1.924
 1020SOL    MW4 4324   1.135   2.037   1.950
 1021SOL     OW 4325   1.097   2.306   1.898
 1021SOL    HW2 4326   1.181   2.347   1.920
 1021SOL    HW3 4327   1.088   2.320   1.804
 1021SOL    MW4 4328   1.107   2.313   1.889
 1022SOL     OW 4329   0.893   2.454   1.982
 1022SOL    HW2 4330   0.954   2.386   1.952
 1022SOL    HW3 4331   0.808   2.427   1.947
 1022SOL    MW4 4332   0.890   2.441   1.974
 1023SOL     OW 4333   0.915   2.733   1.893
 1023SOL    HW2 4334   0.932   2.648   1.934
 1023SOL    HW3 4335   0.828   2.757   1.924
 1023SOL    MW4 4336   0.906   2.725   1.902
 1024SOL     OW 4337   1.149   2.859   1.990
 1024SOL    HW2 4338   1.134   2.861   2.085
 1024SOL    HW3 4339   1.068   2.825   1.953
 1024SOL    MW4 4340   1.137   2.855   1.998
 1025SOL     OW 4341   1.158   3.100   1.881
 1025SOL    HW2 4342   1.075   3.142   1.900
 1025SOL    HW3 4343   1.154   3.016   1.927
 1025SOL    MW4 4344   1.146   3.094   1.889
 1026SOL     OW 4345   0.916   3.234   1.938
 1026SOL    HW2 4346   0.898   3.252   2.030
 1026SOL    HW3 4347   0.850   3.169   1.913
 1026SOL    MW4 4348   0.905   3.228   1.947
 1027SOL     OW 4349   0.844   3.493   1.868
 1027SOL    HW2 4350   0.857   3.400   1.889
 1027SOL    HW3 4351   0.839   3.496   1.773
 1027SOL    MW4 4352   0.845   3.481   1.858
 1028SOL     OW 4353   1.092   3.601   1.915
 1028SOL    HW2 4354   1.085   3.629   2.006
 1028SOL    HW3 4355   1.006   3.565   1.894
 1028SOL    MW4 4356   1.080   3.600   1.924
 1029SOL     OW 4357   1.139   3.864   1.882
 1029SOL    HW2 4358   1.115   3.771   1.882
 1029SOL    HW3 4359   1.139   3.888   1.789
 1029SOL    MW4 4360   1.135   3.855   1.870
 1030SOL     OW 4361   0.901   3.973   1.968
 1030SOL    HW2 4362   0.913   3.999   2.059
 1030SOL    HW3 4363   0.989   3.951   1.937
 1030SOL    MW4 4364   0.914   3.974   1.976
 1031SOL     OW 4365   0.888   4.249   1.882
 1031SOL    HW2 4366   0.972   4.278   1.918
 1031SOL    HW3 4367   0.885   4.155   1.902
 1031SOL    MW4 4368   0.899   4.240   1.889
 1032SOL     OW 4369   1.097   4.416   1.983
 1032SOL    HW2 4370   1.108   4.402   2.077
 1032SOL    HW3 4371   1.162   4.359   1.942
 1032SOL    MW4 4372   1.107   4.407   1.990
 1033SOL     OW 4373   1.543   4.655   1.859
 1033SOL    HW2 4374   1.616   4.690   1.910
 1033SOL    HW3 4375   1.539   4.563   1.884
 1033SOL    MW4 4376   1.552   4.648   1.869
 1034SOL     OW 4377   1.317   0.115   1.950
 1034SOL    HW2 4378   1.341   0.115   2.042
 1034SOL    HW3 4379   1.392   0.077   1.905
 1034SOL    MW4 4380   1.330   0.110   1.956
 1035SOL     OW 4381   1.337   0.392   1.896
 1035SOL    HW2 4382   1.322   0.299   1.911
 1035SOL    HW3 4383   1.333   0.403   1.801
 1035SOL    MW4 4384   1.334   0.381   1.885
 1036SOL     OW 4385   1.524   0.530   2.010
 1036SOL    HW2 4386   1.603   0.487   1.978
 1036SOL    HW3 4387   1.452   0.483   1.968
 1036SOL    MW4 4388   1.525   0.518   2.000
 1037SOL     OW 4389   1.559   0.772   1.864
 1037SOL    HW2 4390   1.641   0.811   1.896
 1037SOL    HW3 4391   1.552   0.689   1.913
 1037SOL    MW4 4392   1.569   0.766   1.875
 1038SOL     OW 4393   1.331   0.897   1.941
 1038SOL    HW2 4394   1.340   0.898   2.037
 1038SOL    HW3 4395   1.414   0.864   1.909
 1038SOL    MW4 4396   1.343   0.893   1.950
 1039SOL     OW 4397   1.369   1.174   1.900
 1039SOL    HW2 4398   1.368   1.079   1.907
 1039SOL    HW3 4399   1.281   1.201   1.926
 1039SOL    MW4 4400   1.357   1.165   1.905
 1040SOL     OW 4401   1.580   1.290   2.038
 1040SOL    HW2 4402   1.589   1.372   1.989
 1040SOL    HW3 4403   1.519   1.237   1.987
 1040SOL    MW4 4404   1.573   1.294   2.025
 1041SOL     OW 4405   1.574   1.518   1.884
 1041SOL    HW2 4406   1.642   1.582   1.905
 1041SOL    HW3 4407   1.494   1.556   1.919
 1041SOL    MW4 4408   1.573   1.532   1.891
 1042SOL     OW 4409   1.358   1.595   2.017
 1042SOL    HW2 4410   1.369   1.607   2.111
 1042SOL    HW3 4411   1.264   1.575   2.006
 1042SOL    MW4 4412   1.347   1.594   2.028
 1043SOL     OW 4413   1.362   1.898   1.877
 1043SOL    HW2 4414   1.372   1.816   1.925
 1043SOL    HW3 4415   1.282   1.937   1.913
 1043SOL    MW4 4416   1.352   1.892   1.888
 1044SOL     OW 4417   1.584   2.032   1.987
 1044SOL    HW2 4418   1.569   2.125   1.970
 1044SOL    HW3 4419   1.513   1.988   1.940
 1044SOL    MW4 4420   1.572   2.038   1.979
 1045SOL     OW 4421   1.545   2.300   1.875
 1045SOL    HW2 4422   1.627   2.347   1.890
 1045SOL    HW3 4423   1.528   2.310   1.781
 1045SOL    MW4 4424   1.554   2.307   1.864
 1046SOL     OW 4425   1.326   2.410   1.976
 1046SOL    HW2 4426   1.351   2.501   1.961
 1046SOL    HW3 4427   1.400   2.359   1.943
 1046SOL    MW4 4428   1.339   2.416   1.970
 1047SOL     OW 4429   1.352   2.658   1.925
 1047SOL    HW2 4430   1.283   2.719   1.952
 1047SOL    HW3 4431   1.357   2.667   1.830
 1047SOL    MW4 4432   1.344   2.667   1.916
 1048SOL     OW 4433   1.588   2.819   1.992
 1048SOL    HW2 4434   1.667   2.773   1.963
 1048SOL    HW3 4435   1.517   2.760   1.969
 1048SOL    MW4 4436   1.589   2.805   1.985
 1049SOL     OW 4437   1.565   3.082   1.873
 1049SOL    HW2 4438   1.579   2.991   1.900
 1049SOL    HW3 4439   1.567   3.079   1.778
 1049SOL    MW4 4440   1.567   3.069   1.864
 1050SOL     OW 4441   1.371   3.234   1.995
 1050SOL    HW2 4442   1.439   3.187   1.947
 1050SOL    HW3 4443   1.290   3.187   1.973
 1050SOL    MW4 4444   1.369   3.221   1.986
 1051SOL     OW 4445   1.333   3.470   1.856
 1051SOL    HW2 4446   1.351   3.385   1.897
 1051SOL    HW3 4447   1.245   3.492   1.886
 1051SOL    MW4 4448   1.324   3.462   1.865
 1052SOL     OW 4449   1.549   3.604   1.987
 1052SOL    HW2 4450   1.534   3.623   2.080
 1052SOL    HW3 4451   1.467   3.563   1.958
 1052SOL    MW4 4452   1.536   3.601   1.996
 1053SOL     OW 4453   1.596   3.860   1.869
 1053SOL    HW2 4454   1.674   3.904   1.902
 1053SOL    HW3 4455   1.593   3.776   1.915
 1053SOL    MW4 4456   1.606   3.855   1.879
 1054SOL     OW 4457   1.368   4.000   1.975
 1054SOL    HW2 4458   1.457   3.976   1.949
 1054SOL    HW3 4459   1.312   3.934   1.935
 1054SOL    MW4 4460   1.372   3.988   1.966
 1055SOL     OW 4461   1.286   4.242   1.900
 1055SOL    HW2 4462   1.302   4.153   1.929
 1055SOL    HW3 4463   1.300   4.240   1.805
 1055SOL    MW4 4464   1.290   4.230   1.891
 1056SOL     OW 4465   1.513   4.379   1.982
 1056SOL    HW2 4466   1.514   4.380   2.077
 1056SOL    HW3 4467   1.439   4.322   1.960
 1056SOL    MW4 4468   1.503   4.371   1.991
 1057SOL     OW 4469   1.988   0.046   1.886
 1057SOL    HW2 4470   2.065   0.098   1.911
 1057SOL    HW3 4471   2.010  -0.043   1.914
 1057SOL    MW4 4472   2.001   0.041   1.893
 1058SOL     OW 4473   1.732   0.130   1.975
 1058SOL    HW2 4474   1.736   0.130   2.071
 1058SOL    HW3 4475   1.813   0.087   1.948
 1058SOL    MW4 4476   1.743   0.124   1.984
 1059SOL     OW 4477   1.751   0.404   1.918
 1059SOL    HW2 4478   1.751   0.309   1.929
 1059SOL    HW3 4479   1.768   0.416   1.824
 1059SOL    MW4 4480   1.753   0.393   1.907
 1060SOL     OW 4481   2.015   0.496   1.982
 1060SOL    HW2 4482   2.014   0.588   1.954
 1060SOL    HW3 4483   1.932   0.461   1.950
 1060SOL    MW4 4484   2.004   0.504   1.974
 1061SOL     OW 4485   2.018   0.751   1.835
 1061SOL    HW2 4486   2.102   0.789   1.860
 1061SOL    HW3 4487   2.018   0.752   1.740
 1061SOL    MW4 4488   2.029   0.756   1.826
 1062SOL     OW 4489   1.790   0.899   1.970
 1062SOL    HW2 4490   1.787   0.988   1.934
 1062SOL    HW3 4491   1.863   0.857   1.925
 1062SOL    MW4 4492   1.799   0.905   1.959
 1063SOL     OW 4493   1.769   1.161   1.902
 1063SOL    HW2 4494   1.700   1.211   1.945
 1063SOL    HW3 4495   1.771   1.195   1.812
 1063SOL    MW4 4496   1.760   1.172   1.896
 1064SOL     OW 4497   2.008   1.297   1.957
 1064SOL    HW2 4498   2.082   1.242   1.930
 1064SOL    HW3 4499   1.931   1.246   1.932
 1064SOL    MW4 4500   2.007   1.283   1.950
 1065SOL     OW 4501   2.013   1.575   1.885
 1065SOL    HW2 4502   2.013   1.481   1.900
 1065SOL    HW3 4503   2.006   1.585   1.790
 1065SOL    MW4 4504   2.012   1.564   1.875
 1066SOL     OW 4505   1.774   1.697   1.969
 1066SOL    HW2 4506   1.783   1.778   1.920
 1066SOL    HW3 4507   1.853   1.648   1.948
 1066SOL    MW4 4508   1.786   1.701   1.960
 1067SOL     OW 4509   1.803   1.963   1.854
 1067SOL    HW2 4510   1.728   2.008   1.893
 1067SOL    HW3 4511   1.797   1.981   1.761
 1067SOL    MW4 4512   1.792   1.971   1.847
 1068SOL     OW 4513   2.034   2.052   1.954
 1068SOL    HW2 4514   2.104   2.019   1.898
 1068SOL    HW3 4515   1.955   2.010   1.921
 1068SOL    MW4 4516   2.033   2.042   1.942
 1069SOL     OW 4517   2.017   2.328   1.893
 1069SOL    HW2 4518   2.105   2.364   1.903
 1069SOL    HW3 4519   2.024   2.237   1.921
 1069SOL    MW4 4520   2.029   2.321   1.898
 1070SOL     OW 4521   1.763   2.446   1.929
 1070SOL    HW2 4522   1.747   2.443   2.024
 1070SOL    HW3 4523   1.852   2.414   1.918
 1070SOL    MW4 4524   1.772   2.442   1.940
 1071SOL     OW 4525   1.835   2.712   1.895
 1071SOL    HW2 4526   1.828   2.619   1.916
 1071SOL    HW3 4527   1.821   2.717   1.801
 1071SOL    MW4 4528   1.832   2.700   1.886
 1072SOL     OW 4529   2.081   2.852   1.972
 1072SOL    HW2 4530   2.094   2.843   2.066
 1072SOL    HW3 4531   2.013   2.788   1.950
 1072SOL    MW4 4532   2.074   2.843   1.981
 1073SOL     OW 4533   2.013   3.089   1.871
 1073SOL    HW2 4534   1.928   3.115   1.907
 1073SOL    HW3 4535   2.033   3.006   1.916
 1073SOL    MW4 4536   2.004   3.081   1.882
 1074SOL     OW 4537   1.779   3.212   1.969
 1074SOL    HW2 4538   1.783   3.197   2.063
 1074SOL    HW3 4539   1.706   3.158   1.939
 1074SOL    MW4 4540   1.770   3.203   1.978
 1075SOL     OW 4541   1.784   3.468   1.870
 1075SOL    HW2 4542   1.782   3.377   1.900
 1075SOL    HW3 4543   1.700   3.504   1.898
 1075SOL    MW4 4544   1.772   3.461   1.878
 1076SOL     OW 4545   2.000   3.611   1.953
 1076SOL    HW2 4546   1.994   3.700   1.917
 1076SOL    HW3 4547   1.924   3.566   1.918
 1076SOL    MW4 4548   1.989   3.617   1.944
 1077SOL     OW 4549   1.978   3.871   1.871
 1077SOL    HW2 4550   2.061   3.889   1.915
 1077SOL    HW3 4551   1.998   3.879   1.778
 1077SOL    MW4 4552   1.992   3.875   1.865
 1078SOL     OW 4553   1.784   4.008   1.988
 1078SOL    HW2 4554   1.761   4.090   1.944
 1078SOL    HW3 4555   1.861   3.976   1.940
 1078SOL    MW4 4556   1.791   4.014   1.976
 1079SOL     OW 4557   1.766   4.293   1.917
 1079SOL    HW2 4558   1.676   4.311   1.942
 1079SOL    HW3 4559   1.766   4.294   1.821
 1079SOL    MW4 4560   1.754   4.296   1.908
 1080SOL     OW 4561   2.007   4.430   1.979
 1080SOL    HW2 4562   2.073   4.372   1.940
 1080SOL    HW3 4563   1.926   4.380   1.976
 1080SOL    MW4 4564   2.005   4.416   1.974
 1081SOL     OW 4565   2.455   4.661   1.888
 1081SOL    HW2 4566   2.535   4.705   1.916
 1081SOL    HW3 4567   2.456   4.578   1.934
 1081SOL    MW4 4568   2.465   4.656   1.898
 1082SOL     OW 4569   2.229   0.154   1.977
 1082SOL    HW2 4570   2.242   0.147   2.071
 1082SOL    HW3 4571   2.300   0.103   1.938
 1082SOL    MW4 4572   2.240   0.146   1.984
 1083SOL     OW 4573   2.235   0.388   1.829
 1083SOL    HW2 4574   2.265   0.324   1.894
 1083SOL    HW3 4575   2.157   0.427   1.868
 1083SOL    MW4 4576   2.229   0.385   1.843
 1084SOL     OW 4577   2.461   0.526   1.923
 1084SOL    HW2 4578   2.533   0.471   1.891
 1084SOL    HW3 4579   2.382   0.482   1.893
 1084SOL    MW4 4580   2.460   0.512   1.915
 1085SOL     OW 4581   2.483   0.795   1.842
 1085SOL    HW2 4582   2.479   0.704   1.873
 1085SOL    HW3 4583   2.487   0.788   1.747
 1085SOL    MW4 4584   2.483   0.782   1.834
 1086SOL     OW 4585   2.247   0.886   1.938
 1086SOL    HW2 4586   2.259   0.855   2.027
 1086SOL    HW3 4587   2.331   0.869   1.895
 1086SOL    MW4 4588   2.260   0.880   1.944
 1087SOL     OW 4589   2.228   1.155   1.883
 1087SOL    HW2 4590   2.305   1.186   1.929
 1087SOL    HW3 4591   2.228   1.060   1.897
 1087SOL    MW4 4592   2.238   1.147   1.891
 1088SOL     OW 4593   2.473   1.279   1.967
 1088SOL    HW2 4594   2.461   1.293   2.061
 1088SOL    HW3 4595   2.455   1.364   1.927
 1088SOL    MW4 4596   2.469   1.292   1.974
 1089SOL     OW 4597   2.436   1.547   1.886
 1089SOL    HW2 4598   2.369   1.610   1.913
 1089SOL    HW3 4599   2.443   1.560   1.791
 1089SOL    MW4 4600   2.428   1.557   1.877
 1090SOL     OW 4601   2.250   1.711   2.001
 1090SOL    HW2 4602   2.226   1.710   2.094
 1090SOL    HW3 4603   2.176   1.667   1.958
 1090SOL    MW4 4604   2.237   1.705   2.008
 1091SOL     OW 4605   2.251   1.933   1.823
 1091SOL    HW2 4606   2.329   1.974   1.859
 1091SOL    HW3 4607   2.238   1.854   1.875
 1091SOL    MW4 4608   2.259   1.928   1.835
 1092SOL     OW 4609   2.474   2.055   1.920
 1092SOL    HW2 4610   2.563   2.018   1.911
 1092SOL    HW3 4611   2.484   2.147   1.897
 1092SOL    MW4 4612   2.487   2.062   1.916
 1093SOL     OW 4613   2.453   2.332   1.854
 1093SOL    HW2 4614   2.523   2.395   1.872
 1093SOL    HW3 4615   2.373   2.376   1.882
 1093SOL    MW4 4616   2.452   2.346   1.860
 1094SOL     OW 4617   2.239   2.471   1.938
 1094SOL    HW2 4618   2.262   2.475   2.031
 1094SOL    HW3 4619   2.235   2.563   1.911
 1094SOL    MW4 4620   2.242   2.484   1.947
 1095SOL     OW 4621   2.291   2.716   1.848
 1095SOL    HW2 4622   2.214   2.767   1.873
 1095SOL    HW3 4623   2.283   2.705   1.753
 1095SOL    MW4 4624   2.280   2.721   1.839
 1096SOL     OW 4625   2.494   2.863   1.958
 1096SOL    HW2 4626   2.465   2.951   1.933
 1096SOL    HW3 4627   2.424   2.805   1.928
 1096SOL    MW4 4628   2.481   2.867   1.951
 1097SOL     OW 4629   2.434   3.114   1.901
 1097SOL    HW2 4630   2.348   3.144   1.931
 1097SOL    HW3 4631   2.430   3.122   1.806
 1097SOL    MW4 4632   2.422   3.119   1.893
 1098SOL     OW 4633   2.212   3.234   1.977
 1098SOL    HW2 4634   2.179   3.239   2.067
 1098SOL    HW3 4635   2.150   3.178   1.931
 1098SOL    MW4 4636   2.200   3.227   1.983
 1099SOL     OW 4637   2.257   3.507   1.924
 1099SOL    HW2 4638   2.241   3.414   1.942
 1099SOL    HW3 4639   2.175   3.550   1.945
 1099SOL    MW4 4640   2.244   3.500   1.929
 1100SOL     OW 4641   2.494   3.653   1.970
 1100SOL    HW2 4642   2.502   3.656   2.065
 1100SOL    HW3 4643   2.420   3.594   1.955
 1100SOL    MW4 4644   2.485   3.645   1.981
 1101SOL     OW 4645   2.454   3.908   1.856
 1101SOL    HW2 4646   2.380   3.943   1.905
 1101SOL    HW3 4647   2.472   3.823   1.896
 1101SOL    MW4 4648   2.447   3.902   1.868
 1102SOL     OW 4649   2.223   3.981   1.974
 1102SOL    HW2 4650   2.205   3.989   2.068
 1102SOL    HW3 4651   2.207   4.069   1.940
 1102SOL    MW4 4652   2.219   3.994   1.982
 1103SOL     OW 4653   2.200   4.256   1.902
 1103SOL    HW2 4654   2.271   4.312   1.931
 1103SOL    HW3 4655   2.199   4.265   1.807
 1103SOL    MW4 4656   2.209   4.265   1.894
 1104SOL     OW 4657   2.427   4.400   1.977
 1104SOL    HW2 4658   2.449   4.400   2.070
 1104SOL    HW3 4659   2.508   4.373   1.933
 1104SOL    MW4 4660   2.441   4.396   1.983
 1105SOL     OW 4661   2.918   4.666   1.823
 1105SOL    HW2 4662   2.984   4.720   1.865
 1105SOL    HW3 4663   2.938   4.577   1.851
 1105SOL    MW4 4664   2.929   4.661   1.832
 1106SOL     OW 4665   2.697   0.124   1.957
 1106SOL    HW2 4666   2.708   0.130   2.052
 1106SOL    HW3 4667   2.775   0.078   1.927
 1106SOL    MW4 4668   2.708   0.119   1.966
 1107SOL     OW 4669   2.702   0.385   1.885
 1107SOL    HW2 4670   2.784   0.426   1.910
 1107SOL    HW3 4671   2.705   0.297   1.922
 1107SOL    MW4 4672   2.713   0.379   1.893
 1108SOL     OW 4673   2.941   0.503   1.925
 1108SOL    HW2 4674   3.019   0.461   1.888
 1108SOL    HW3 4675   2.940   0.590   1.886
 1108SOL    MW4 4676   2.951   0.509   1.915
 1109SOL     OW 4677   2.911   0.757   1.844
 1109SOL    HW2 4678   2.993   0.795   1.877
 1109SOL    HW3 4679   2.843   0.795   1.900
 1109SOL    MW4 4680   2.913   0.767   1.856
 1110SOL     OW 4681   2.693   0.893   1.987
 1110SOL    HW2 4682   2.695   0.980   1.947
 1110SOL    HW3 4683   2.626   0.845   1.938
 1110SOL    MW4 4684   2.684   0.898   1.975
 1111SOL     OW 4685   2.691   1.155   1.876
 1111SOL    HW2 4686   2.613   1.193   1.915
 1111SOL    HW3 4687   2.674   1.158   1.781
 1111SOL    MW4 4688   2.678   1.161   1.868
 1112SOL     OW 4689   2.938   1.295   1.924
 1112SOL    HW2 4690   2.923   1.390   1.917
 1112SOL    HW3 4691   2.857   1.256   1.891
 1112SOL    MW4 4692   2.925   1.302   1.918
 1113SOL     OW 4693   2.903   1.587   1.907
 1113SOL    HW2 4694   2.991   1.606   1.940
 1113SOL    HW3 4695   2.912   1.593   1.812
 1113SOL    MW4 4696   2.916   1.590   1.899
 1114SOL     OW 4697   2.658   1.685   1.971
 1114SOL    HW2 4698   2.743   1.641   1.963
 1114SOL    HW3 4699   2.595   1.622   1.937
 1114SOL    MW4 4700   2.661   1.671   1.965
 1115SOL     OW 4701   2.703   1.920   1.848
 1115SOL    HW2 4702   2.776   1.954   1.899
 1115SOL    HW3 4703   2.684   1.835   1.887
 1115SOL    MW4 4704   2.710   1.913   1.860
 1116SOL     OW 4705   2.926   2.060   1.958
 1116SOL    HW2 4706   2.919   2.071   2.053
 1116SOL    HW3 4707   3.015   2.028   1.944
 1116SOL    MW4 4708   2.937   2.058   1.968
 1117SOL     OW 4709   2.915   2.332   1.920
 1117SOL    HW2 4710   3.003   2.365   1.938
 1117SOL    HW3 4711   2.922   2.237   1.932
 1117SOL    MW4 4712   2.928   2.323   1.924
 1118SOL     OW 4713   2.680   2.466   1.984
 1118SOL    HW2 4714   2.701   2.551   1.944
 1118SOL    HW3 4715   2.762   2.417   1.979
 1118SOL    MW4 4716   2.694   2.471   1.978
 1119SOL     OW 4717   2.711   2.722   1.878
 1119SOL    HW2 4718   2.639   2.776   1.911
 1119SOL    HW3 4719   2.693   2.711   1.785
 1119SOL    MW4 4720   2.699   2.728   1.870
 1120SOL     OW 4721   2.920   2.877   1.981
 1120SOL    HW2 4722   2.911   2.967   1.951
 1120SOL    HW3 4723   2.846   2.831   1.941
 1120SOL    MW4 4724   2.909   2.883   1.972
 1121SOL     OW 4725   2.930   3.149   1.910
 1121SOL    HW2 4726   3.004   3.182   1.961
 1121SOL    HW3 4727   2.853   3.180   1.958
 1121SOL    MW4 4728   2.929   3.157   1.923
 1122SOL     OW 4729   2.665   3.220   2.003
 1122SOL    HW2 4730   2.668   3.309   1.967
 1122SOL    HW3 4731   2.581   3.186   1.974
 1122SOL    MW4 4732   2.654   3.227   1.994
 1123SOL     OW 4733   2.692   3.480   1.901
 1123SOL    HW2 4734   2.776   3.519   1.924
 1123SOL    HW3 4735   2.627   3.541   1.937
 1123SOL    MW4 4736   2.695   3.493   1.909
 1124SOL     OW 4737   2.921   3.625   1.947
 1124SOL    HW2 4738   2.917   3.642   2.041
 1124SOL    HW3 4739   2.994   3.564   1.937
 1124SOL    MW4 4740   2.930   3.619   1.958
 1125SOL     OW 4741   2.900   3.903   1.864
 1125SOL    HW2 4742   2.900   3.810   1.888
 1125SOL    HW3 4743   2.883   3.903   1.770
 1125SOL    MW4 4744   2.898   3.891   1.855
 1126SOL     OW 4745   2.657   4.067   1.947
 1126SOL    HW2 4746   2.737   4.022   1.919
 1126SOL    HW3 4747   2.586   4.011   1.917
 1126SOL    MW4 4748   2.658   4.054   1.940
 1127SOL     OW 4749   2.666   4.316   1.853
 1127SOL    HW2 4750   2.665   4.233   1.901
 1127SOL    HW3 4751   2.666   4.291   1.761
 1127SOL    MW4 4752   2.666   4.302   1.847
 1128SOL     OW 4753   2.919   4.416   1.945
 1128SOL    HW2 4754   2.921   4.409   2.040
 1128SOL    HW3 4755   2.830   4.392   1.921
 1128SOL    MW4 4756   2.908   4.412   1.954
 1129SOL     OW 4757   3.402   4.636   1.864
 1129SOL    HW2 4758   3.393   4.545   1.895
 1129SOL    HW3 4759   3.383   4.632   1.771
 1129SOL    MW4 4760   3.398   4.623   1.856
 1130SOL     OW 4761   3.165   0.100   1.919
 1130SOL    HW2 4762   3.182   0.104   2.014
 1130SOL    HW3 4763   3.230   0.037   1.886
 1130SOL    MW4 4764   3.176   0.092   1.927
 1131SOL     OW 4765   3.184   0.379   1.821
 1131SOL    HW2 4766   3.193   0.285   1.834
 1131SOL    HW3 4767   3.187   0.391   1.726
 1131SOL    MW4 4768   3.186   0.368   1.810
 1132SOL     OW 4769   3.380   0.498   1.971
 1132SOL    HW2 4770   3.460   0.455   1.940
 1132SOL    HW3 4771   3.311   0.463   1.916
 1132SOL    MW4 4772   3.382   0.488   1.960
 1133SOL     OW 4773   3.385   0.781   1.889
 1133SOL    HW2 4774   3.302   0.828   1.902
 1133SOL    HW3 4775   3.373   0.698   1.936
 1133SOL    MW4 4776   3.372   0.776   1.897
 1134SOL     OW 4777   3.131   0.878   1.965
 1134SOL    HW2 4778   3.149   0.887   2.059
 1134SOL    HW3 4779   3.131   0.968   1.932
 1134SOL    MW4 4780   3.134   0.891   1.973
 1135SOL     OW 4781   3.157   1.133   1.869
 1135SOL    HW2 4782   3.224   1.195   1.900
 1135SOL    HW3 4783   3.074   1.176   1.891
 1135SOL    MW4 4784   3.154   1.147   1.876
 1136SOL     OW 4785   3.380   1.296   1.959
 1136SOL    HW2 4786   3.390   1.302   2.054
 1136SOL    HW3 4787   3.369   1.386   1.930
 1136SOL    MW4 4788   3.380   1.308   1.968
 1137SOL     OW 4789   3.346   1.533   1.835
 1137SOL    HW2 4790   3.430   1.574   1.855
 1137SOL    HW3 4791   3.282   1.581   1.887
 1137SOL    MW4 4792   3.349   1.544   1.845
 1138SOL     OW 4793   3.173   1.661   2.004
 1138SOL    HW2 4794   3.149   1.664   2.097
 1138SOL    HW3 4795   3.162   1.751   1.974
 1138SOL    MW4 4796   3.169   1.673   2.013
 1139SOL     OW 4797   3.166   1.921   1.884
 1139SOL    HW2 4798   3.240   1.965   1.926
 1139SOL    HW3 4799   3.179   1.936   1.790
 1139SOL    MW4 4800   3.177   1.929   1.877
 1140SOL     OW 4801   3.393   2.084   1.986
 1140SOL    HW2 4802   3.457   2.036   1.933
 1140SOL    HW3 4803   3.398   2.174   1.954
 1140SOL    MW4 4804   3.402   2.089   1.975
 1141SOL     OW 4805   3.422   2.346   1.906
 1141SOL    HW2 4806   3.338   2.388   1.924
 1141SOL    HW3 4807   3.427   2.341   1.811
 1141SOL    MW4 4808   3.412   2.351   1.896
 1142SOL     OW 4809   3.179   2.467   1.958
 1142SOL    HW2 4810   3.166   2.463   2.052
 1142SOL    HW3 4811   3.150   2.554   1.932
 1142SOL    MW4 4812   3.174   2.478   1.967
 1143SOL     OW 4813   3.136   2.727   1.891
 1143SOL    HW2 4814   3.055   2.773   1.913
 1143SOL    HW3 4815   3.141   2.735   1.795
 1143SOL    MW4 4816   3.126   2.734   1.881
 1144SOL     OW 4817   3.380   2.862   1.993
 1144SOL    HW2 4818   3.372   2.882   2.086
 1144SOL    HW3 4819   3.297   2.820   1.970
 1144SOL    MW4 4820   3.368   2.859   2.002
 1145SOL     OW 4821   3.353   3.098   1.868
 1145SOL    HW2 4822   3.419   3.149   1.915
 1145SOL    HW3 4823   3.359   3.011   1.906
 1145SOL    MW4 4824   3.363   3.093   1.879
 1146SOL     OW 4825   3.147   3.244   2.018
 1146SOL    HW2 4826   3.149   3.325   1.968
 1146SOL    HW3 4827   3.209   3.186   1.973
 1146SOL    MW4 4828   3.156   3.247   2.006
 1147SOL     OW 4829   3.146   3.480   1.878
 1147SOL    HW2 4830   3.226   3.521   1.911
 1147SOL    HW3 4831   3.147   3.499   1.784
 1147SOL    MW4 4832   3.157   3.488   1.870
 1148SOL     OW 4833   3.351   3.642   1.980
 1148SOL    HW2 4834   3.438   3.610   1.958
 1148SOL    HW3 4835   3.351   3.733   1.950
 1148SOL    MW4 4836   3.362   3.650   1.973
 1149SOL     OW 4837   3.344   3.910   1.873
 1149SOL    HW2 4838   3.266   3.960   1.897
 1149SOL    HW3 4839   3.341   3.906   1.777
 1149SOL    MW4 4840   3.333   3.916   1.863
 1150SOL     OW 4841   3.123   4.036   1.957
 1150SOL    HW2 4842   3.156   4.011   2.043
 1150SOL    HW3 4843   3.041   3.987   1.947
 1150SOL    MW4 4844   3.117   4.026   1.967
 1151SOL     OW 4845   3.143   4.281   1.840
 1151SOL    HW2 4846   3.139   4.193   1.876
 1151SOL    HW3 4847   3.064   4.324   1.873
 1151SOL    MW4 4848   3.132   4.275   1.849
 1152SOL     OW 4849   3.364   4.372   1.988
 1152SOL    HW2 4850   3.444   4.329   1.958
 1152SOL    HW3 4851   3.294   4.330   1.938
 1152SOL    MW4 4852   3.365   4.361   1.977
 1153SOL     OW 4853   3.820   4.653   1.871
 1153SOL    HW2 4854   3.827   4.562   1.901
 1153SOL    HW3 4855   3.742   4.687   1.914
 1153SOL    MW4 4856   3.810   4.645   1.880
 1154SOL     OW 4857   3.603   0.093   1.986
 1154SOL    HW2 4858   3.586   0.103   2.080
 1154SOL    HW3 4859   3.524   0.051   1.952
 1154SOL    MW4 4860   3.590   0.089   1.994
 1155SOL     OW 4861   3.595   0.354   1.877
 1155SOL    HW2 4862   3.606   0.265   1.909
 1155SOL    HW3 4863   3.578   0.344   1.783
 1155SOL    MW4 4864   3.594   0.341   1.869
 1156SOL     OW 4865   3.790   0.508   2.005
 1156SOL    HW2 4866   3.789   0.593   1.960
 1156SOL    HW3 4867   3.724   0.456   1.960
 1156SOL    MW4 4868   3.781   0.512   1.993
 1157SOL     OW 4869   3.813   0.744   1.860
 1157SOL    HW2 4870   3.740   0.801   1.884
 1157SOL    HW3 4871   3.812   0.743   1.764
 1157SOL    MW4 4872   3.804   0.751   1.850
 1158SOL     OW 4873   3.609   0.900   1.962
 1158SOL    HW2 4874   3.601   0.992   1.935
 1158SOL    HW3 4875   3.532   0.858   1.925
 1158SOL    MW4 4876   3.597   0.907   1.954
 1159SOL     OW 4877   3.592   1.186   1.847
 1159SOL    HW2 4878   3.508   1.225   1.872
 1159SOL    HW3 4879   3.591   1.186   1.751
 1159SOL    MW4 4880   3.581   1.191   1.837
 1160SOL     OW 4881   3.823   1.278   1.982
 1160SOL    HW2 4882   3.818   1.281   2.077
 1160SOL    HW3 4883   3.736   1.250   1.954
 1160SOL    MW4 4884   3.811   1.275   1.991
 1161SOL     OW 4885   3.815   1.547   1.894
 1161SOL    HW2 4886   3.878   1.604   1.938
 1161SOL    HW3 4887   3.824   1.463   1.940
 1161SOL    MW4 4888   3.824   1.543   1.906
 1162SOL     OW 4889   3.580   1.658   1.961
 1162SOL    HW2 4890   3.599   1.751   1.943
 1162SOL    HW3 4891   3.658   1.612   1.932
 1162SOL    MW4 4892   3.593   1.664   1.955
 1163SOL     OW 4893   3.581   1.921   1.862
 1163SOL    HW2 4894   3.654   1.975   1.892
 1163SOL    HW3 4895   3.592   1.918   1.766
 1163SOL    MW4 4896   3.592   1.928   1.853
 1164SOL     OW 4897   3.790   2.073   1.950
 1164SOL    HW2 4898   3.879   2.040   1.937
 1164SOL    HW3 4899   3.791   2.160   1.909
 1164SOL    MW4 4900   3.802   2.080   1.943
 1165SOL     OW 4901   3.829   2.341   1.880
 1165SOL    HW2 4902   3.914   2.371   1.911
 1165SOL    HW3 4903   3.769   2.413   1.900
 1165SOL    MW4 4904   3.833   2.355   1.886
 1166SOL     OW 4905   3.642   2.506   2.001
 1166SOL    HW2 4906   3.614   2.586   1.957
 1166SOL    HW3 4907   3.576   2.441   1.976
 1166SOL    MW4 4908   3.630   2.508   1.992
 1167SOL     OW 4909   3.618   2.749   1.887
 1167SOL    HW2 4910   3.682   2.798   1.939
 1167SOL    HW3 4911   3.535   2.793   1.904
 1167SOL    MW4 4912   3.616   2.761   1.896
 1168SOL     OW 4913   3.815   2.896   2.016
 1168SOL    HW2 4914   3.836   2.919   2.107
 1168SOL    HW3 4915   3.823   2.979   1.969
 1168SOL    MW4 4916   3.819   2.910   2.022
 1169SOL     OW 4917   3.818   3.147   1.887
 1169SOL    HW2 4918   3.734   3.181   1.917
 1169SOL    HW3 4919   3.808   3.140   1.792
 1169SOL    MW4 4920   3.806   3.151   1.878
 1170SOL     OW 4921   3.547   3.236   1.993
 1170SOL    HW2 4922   3.568   3.248   2.085
 1170SOL    HW3 4923   3.561   3.322   1.954
 1170SOL    MW4 4924   3.552   3.249   2.000
 1171SOL     OW 4925   3.578   3.496   1.899
 1171SOL    HW2 4926   3.670   3.498   1.926
 1171SOL    HW3 4927   3.581   3.490   1.804
 1171SOL    MW4 4928   3.591   3.496   1.890
 1172SOL     OW 4929   3.835   3.561   1.979
 1172SOL    HW2 4930   3.916   3.530   1.940
 1172SOL    HW3 4931   3.832   3.654   1.958
 1172SOL    MW4 4932   3.845   3.569   1.971
 1173SOL     OW 4933   3.814   3.830   1.925
 1173SOL    HW2 4934   3.731   3.873   1.946
 1173SOL    HW3 4935   3.816   3.829   1.829
 1173SOL    MW4 4936   3.803   3.836   1.915
 1174SOL     OW 4937   3.571   4.014   1.973
 1174SOL    HW2 4938   3.564   4.016   2.069
 1174SOL    HW3 4939   3.488   3.978   1.944
 1174SOL    MW4 4940   3.559   4.009   1.982
 1175SOL     OW 4941   3.592   4.270   1.863
 1175SOL    HW2 4942   3.668   4.313   1.902
 1175SOL    HW3 4943   3.588   4.185   1.906
 1175SOL    MW4 4944   3.602   4.265   1.874
 1176SOL     OW 4945   3.809   4.401   1.987
 1176SOL    HW2 4946   3.817   4.378   2.080
 1176SOL    HW3 4947   3.873   4.345   1.943
 1176SOL    MW4 4948   3.819   4.390   1.994
 1177SOL     OW 4949   4.266   4.638   1.878
 1177SOL    HW2 4950   4.194   4.682   1.923
 1177SOL    HW3 4951   4.345   4.682   1.911
 1177SOL    MW4 4952   4.267   4.650   1.888
 1178SOL     OW 4953   4.045   0.082   2.002
 1178SOL    HW2 4954   4.039   0.088   2.097
 1178SOL    HW3 4955   3.961   0.043   1.976
 1178SOL    MW4 4956   4.033   0.078   2.011
 1179SOL     OW 4957   4.035   0.365   1.907
 1179SOL    HW2 4958   4.033   0.270   1.911
 1179SOL    HW3 4959   3.950   0.393   1.941
 1179SOL    MW4 4960   4.023   0.356   1.912
 1180SOL     OW 4961   4.231   0.521   2.005
 1180SOL    HW2 4962   4.231   0.530   2.100
 1180SOL    HW3 4963   4.154   0.468   1.986
 1180SOL    MW4 4964   4.221   0.515   2.015
 1181SOL     OW 4965   4.247   0.780   1.908
 1181SOL    HW2 4966   4.227   0.695   1.949
 1181SOL    HW3 4967   4.238   0.763   1.814
 1181SOL    MW4 4968   4.243   0.766   1.901
 1182SOL     OW 4969   4.017   0.868   2.028
 1182SOL    HW2 4970   4.102   0.840   1.994
 1182SOL    HW3 4971   3.953   0.816   1.979
 1182SOL    MW4 4972   4.019   0.858   2.017
 1183SOL     OW 4973   4.038   1.121   1.885
 1183SOL    HW2 4974   4.046   1.031   1.918
 1183SOL    HW3 4975   3.963   1.158   1.932
 1183SOL    MW4 4976   4.029   1.114   1.896
 1184SOL     OW 4977   4.249   1.271   1.991
 1184SOL    HW2 4978   4.232   1.281   2.085
 1184SOL    HW3 4979   4.182   1.209   1.961
 1184SOL    MW4 4980   4.238   1.264   2.000
 1185SOL     OW 4981   4.269   1.538   1.944
 1185SOL    HW2 4982   4.251   1.445   1.959
 1185SOL    HW3 4983   4.280   1.545   1.849
 1185SOL    MW4 4984   4.268   1.526   1.933
 1186SOL     OW 4985   4.017   1.683   2.012
 1186SOL    HW2 4986   4.015   1.670   2.107
 1186SOL    HW3 4987   4.090   1.629   1.982
 1186SOL    MW4 4988   4.026   1.674   2.021
 1187SOL     OW 4989   4.037   1.927   1.889
 1187SOL    HW2 4990   4.045   1.837   1.919
 1187SOL    HW3 4991   4.067   1.924   1.798
 1187SOL    MW4 4992   4.042   1.915   1.881
 1188SOL     OW 4993   4.252   2.064   1.996
 1188SOL    HW2 4994   4.263   2.054   2.091
 1188SOL    HW3 4995   4.170   2.019   1.977
 1188SOL    MW4 4996   4.243   2.057   2.006
 1189SOL     OW 4997   4.238   2.330   1.902
 1189SOL    HW2 4998   4.234   2.243   1.942
 1189SOL    HW3 4999   4.321   2.366   1.933
 1189SOL    MW4 5000   4.248   2.323   1.912
 1190SOL     OW 5001   4.039   2.501   1.997
 1190SOL    HW2 5002   4.049   2.490   2.091
 1190SOL    HW3 5003   4.103   2.441   1.958
 1190SOL    MW4 5004   4.048   2.491   2.004
 1191SOL     OW 5005   4.004   2.755   1.889
 1191SOL    HW2 5006   4.021   2.670   1.930
 1191SOL    HW3 5007   3.934   2.794   1.942
 1191SOL    MW4 5008   3.997   2.749   1.902
 1192SOL     OW 5009   4.251   2.863   1.974
 1192SOL    HW2 5010   4.270   2.846   2.067
 1192SOL    HW3 5011   4.167   2.821   1.958
 1192SOL    MW4 5012   4.243   2.855   1.984
 1193SOL     OW 5013   4.313   3.122   1.858
 1193SOL    HW2 5014   4.237   3.157   1.905
 1193SOL    HW3 5015   4.307   3.027   1.870
 1193SOL    MW4 5016   4.302   3.114   1.866
 1194SOL     OW 5017   4.080   3.201   1.989
 1194SOL    HW2 5018   4.081   3.202   2.085
 1194SOL    HW3 5019   3.998   3.158   1.966
 1194SOL    MW4 5020   4.070   3.195   1.999
 1195SOL     OW 5021   4.056   3.457   1.879
 1195SOL    HW2 5022   4.133   3.494   1.923
 1195SOL    HW3 5023   4.059   3.364   1.901
 1195SOL    MW4 5024   4.067   3.449   1.888
 1196SOL     OW 5025   4.279   3.616   1.978
 1196SOL    HW2 5026   4.257   3.701   1.941
 1196SOL    HW3 5027   4.366   3.596   1.943
 1196SOL    MW4 5028   4.287   3.624   1.968
 1197SOL     OW 5029   4.283   3.880   1.901
 1197SOL    HW2 5030   4.369   3.917   1.917
 1197SOL    HW3 5031   4.275   3.876   1.806
 1197SOL    MW4 5032   4.293   3.884   1.891
 1198SOL     OW 5033   4.032   3.977   1.959
 1198SOL    HW2 5034   4.108   3.920   1.949
 1198SOL    HW3 5035   3.957   3.917   1.959
 1198SOL    MW4 5036   4.032   3.962   1.958
 1199SOL     OW 5037   4.009   4.255   1.872
 1199SOL    HW2 5038   4.087   4.306   1.891
 1199SOL    HW3 5039   4.025   4.169   1.912
 1199SOL    MW4 5040   4.021   4.250   1.880
 1200SOL     OW 5041   4.252   4.365   1.956
 1200SOL    HW2 5042   4.259   4.383   2.050
 1200SOL    HW3 5043   4.257   4.451   1.915
 1200SOL    MW4 5044   4.254   4.379   1.963
 1201SOL     OW 5045   0.198   0.017   2.376
 1201SOL    HW2 5046   0.206   0.034   2.469
 1201SOL    HW3 5047   0.284   0.037   2.340
 1201SOL    MW4 5048   0.210   0.022   2.383
 1202SOL     OW 5049   4.469   0.158   2.284
 1202SOL    HW2 5050   4.558   0.128   2.300
 1202SOL    HW3 5051   4.458   0.149   2.189
 1202SOL    MW4 5052   4.479   0.153   2.273
 1203SOL     OW 5053   4.465   0.424   2.349
 1203SOL    HW2 5054   4.552   0.449   2.319
 1203SOL    HW3 5055   4.458   0.331   2.329
 1203SOL    MW4 5056   4.476   0.415   2.343
 1204SOL     OW 5057   0.230   0.488   2.252
 1204SOL    HW2 5058   0.313   0.455   2.287
 1204SOL    HW3 5059   0.241   0.485   2.157
 1204SOL    MW4 5060   0.242   0.483   2.244
 1205SOL     OW 5061   0.238   0.756   2.358
 1205SOL    HW2 5062   0.217   0.747   2.451
 1205SOL    HW3 5063   0.227   0.668   2.322
 1205SOL    MW4 5064   0.234   0.743   2.365
 1206SOL     OW 5065   0.016   0.921   2.311
 1206SOL    HW2 5066   0.088   0.861   2.332
 1206SOL    HW3 5067  -0.003   0.904   2.219
 1206SOL    MW4 5068   0.023   0.911   2.302
 1207SOL     OW 5069   0.004   1.220   2.372
 1207SOL    HW2 5070  -0.011   1.224   2.466
 1207SOL    HW3 5071   0.007   1.127   2.351
 1207SOL    MW4 5072   0.002   1.208   2.381
 1208SOL     OW 5073   0.256   1.257   2.246
 1208SOL    HW2 5074   0.180   1.229   2.296
 1208SOL    HW3 5075   0.230   1.248   2.155
 1208SOL    MW4 5076   0.243   1.252   2.241
 1209SOL     OW 5077   0.239   1.514   2.341
 1209SOL    HW2 5078   0.241   1.514   2.437
 1209SOL    HW3 5079   0.250   1.422   2.317
 1209SOL    MW4 5080   0.241   1.502   2.350
 1210SOL     OW 5081   0.013   1.663   2.270
 1210SOL    HW2 5082   0.001   1.737   2.330
 1210SOL    HW3 5083   0.098   1.626   2.295
 1210SOL    MW4 5084   0.023   1.668   2.281
 1211SOL     OW 5085   4.468   1.918   2.385
 1211SOL    HW2 5086   4.399   1.961   2.335
 1211SOL    HW3 5087   4.549   1.962   2.357
 1211SOL    MW4 5088   4.470   1.930   2.374
 1212SOL     OW 5089   0.207   2.034   2.252
 1212SOL    HW2 5090   0.296   2.000   2.263
 1212SOL    HW3 5091   0.200   2.054   2.159
 1212SOL    MW4 5092   0.218   2.032   2.241
 1213SOL     OW 5093   0.235   2.288   2.377
 1213SOL    HW2 5094   0.216   2.277   2.470
 1213SOL    HW3 5095   0.219   2.202   2.339
 1213SOL    MW4 5096   0.230   2.276   2.384
 1214SOL     OW 5097   4.475   2.391   2.318
 1214SOL    HW2 5098   4.472   2.485   2.339
 1214SOL    HW3 5099   4.567   2.367   2.325
 1214SOL    MW4 5100   4.487   2.400   2.322
 1215SOL     OW 5101   0.037   2.668   2.322
 1215SOL    HW2 5102   0.040   2.667   2.418
 1215SOL    HW3 5103   0.094   2.742   2.297
 1215SOL    MW4 5104   0.045   2.678   2.331
 1216SOL     OW 5105   0.218   2.873   2.254
 1216SOL    HW2 5106   0.294   2.819   2.276
 1216SOL    HW3 5107   0.207   2.861   2.160
 1216SOL    MW4 5108   0.227   2.865   2.245
 1217SOL     OW 5109   0.216   3.135   2.353
 1217SOL    HW2 5110   0.137   3.182   2.325
 1217SOL    HW3 5111   0.200   3.044   2.329
 1217SOL    MW4 5112   0.203   3.129   2.346
 1218SOL     OW 5113   4.474   3.238   2.296
 1218SOL    HW2 5114   4.466   3.321   2.342
 1218SOL    HW3 5115   4.480   3.262   2.203
 1218SOL    MW4 5116   4.473   3.252   2.290
 1219SOL     OW 5117   4.485   3.496   2.401
 1219SOL    HW2 5118   4.456   3.495   2.493
 1219SOL    HW3 5119   4.422   3.554   2.357
 1219SOL    MW4 5120   4.473   3.503   2.408
 1220SOL     OW 5121   0.228   3.564   2.267
 1220SOL    HW2 5122   0.312   3.527   2.295
 1220SOL    HW3 5123   0.164   3.525   2.327
 1220SOL    MW4 5124   0.231   3.554   2.279
 1221SOL     OW 5125   0.221   3.854   2.383
 1221SOL    HW2 5126   0.143   3.897   2.349
 1221SOL    HW3 5127   0.223   3.769   2.338
 1221SOL    MW4 5128   0.211   3.848   2.373
 1222SOL     OW 5129   4.479   3.983   2.249
 1222SOL    HW2 5130   4.491   4.072   2.281
 1222SOL    HW3 5131   4.490   3.990   2.154
 1222SOL    MW4 5132   4.482   3.996   2.240
 1223SOL     OW 5133   4.467   4.248   2.330
 1223SOL    HW2 5134   4.460   4.241   2.425
 1223SOL    HW3 5135   4.538   4.311   2.315
 1223SOL    MW4 5136   4.475   4.255   2.340
 1224SOL     OW 5137   0.198   4.377   2.277
 1224SOL    HW2 5138   0.279   4.346   2.318
 1224SOL    HW3 5139   0.187   4.466   2.310
 1224SOL    MW4 5140   0.208   4.385   2.287
 1225SOL     OW 5141   0.699   4.649   2.377
 1225SOL    HW2 5142   0.681   4.638   2.470
 1225SOL    HW3 5143   0.775   4.707   2.374
 1225SOL    MW4 5144   0.706   4.655   2.389
 1226SOL     OW 5145   0.454   0.110   2.283
 1226SOL    HW2 5146   0.537   0.068   2.305
 1226SOL    HW3 5147   0.454   0.114   2.187
 1226SOL    MW4 5148   0.465   0.105   2.273
 1227SOL     OW 5149   0.462   0.370   2.357
 1227SOL    HW2 5150   0.469   0.370   2.452
 1227SOL    HW3 5151   0.440   0.280   2.334
 1227SOL    MW4 5152   0.460   0.358   2.366
 1228SOL     OW 5153   0.687   0.478   2.251
 1228SOL    HW2 5154   0.681   0.569   2.280
 1228SOL    HW3 5155   0.610   0.435   2.288
 1228SOL    MW4 5156   0.676   0.485   2.260
 1229SOL     OW 5157   0.686   0.729   2.349
 1229SOL    HW2 5158   0.691   0.724   2.444
 1229SOL    HW3 5159   0.610   0.785   2.332
 1229SOL    MW4 5160   0.677   0.736   2.359
 1230SOL     OW 5161   0.474   0.889   2.289
 1230SOL    HW2 5162   0.388   0.861   2.321
 1230SOL    HW3 5163   0.472   0.869   2.196
 1230SOL    MW4 5164   0.462   0.883   2.281
 1231SOL     OW 5165   0.484   1.159   2.385
 1231SOL    HW2 5166   0.485   1.069   2.352
 1231SOL    HW3 5167   0.425   1.205   2.325
 1231SOL    MW4 5168   0.476   1.153   2.373
 1232SOL     OW 5169   0.715   1.264   2.284
 1232SOL    HW2 5170   0.708   1.357   2.304
 1232SOL    HW3 5171   0.641   1.224   2.330
 1232SOL    MW4 5172   0.704   1.271   2.293
 1233SOL     OW 5173   0.656   1.542   2.355
 1233SOL    HW2 5174   0.672   1.538   2.449
 1233SOL    HW3 5175   0.739   1.575   2.318
 1233SOL    MW4 5176   0.669   1.546   2.362
 1234SOL     OW 5177   0.440   1.678   2.241
 1234SOL    HW2 5178   0.521   1.651   2.284
 1234SOL    HW3 5179   0.374   1.618   2.273
 1234SOL    MW4 5180   0.442   1.667   2.251
 1235SOL     OW 5181   0.445   1.931   2.336
 1235SOL    HW2 5182   0.525   1.972   2.301
 1235SOL    HW3 5183   0.440   1.846   2.293
 1235SOL    MW4 5184   0.455   1.925   2.326
 1236SOL     OW 5185   0.664   2.044   2.226
 1236SOL    HW2 5186   0.746   2.005   2.257
 1236SOL    HW3 5187   0.664   2.132   2.263
 1236SOL    MW4 5188   0.675   2.051   2.235
 1237SOL     OW 5189   0.698   2.301   2.344
 1237SOL    HW2 5190   0.691   2.318   2.437
 1237SOL    HW3 5191   0.763   2.364   2.312
 1237SOL    MW4 5192   0.706   2.311   2.352
 1238SOL     OW 5193   0.453   2.421   2.265
 1238SOL    HW2 5194   0.529   2.370   2.295
 1238SOL    HW3 5195   0.378   2.378   2.306
 1238SOL    MW4 5196   0.454   2.409   2.275
 1239SOL     OW 5197   0.400   2.679   2.349
 1239SOL    HW2 5198   0.428   2.678   2.440
 1239SOL    HW3 5199   0.401   2.587   2.322
 1239SOL    MW4 5200   0.404   2.667   2.357
 1240SOL     OW 5201   0.660   2.834   2.279
 1240SOL    HW2 5202   0.738   2.787   2.308
 1240SOL    HW3 5203   0.587   2.777   2.302
 1240SOL    MW4 5204   0.660   2.820   2.286
 1241SOL     OW 5205   0.702   3.103   2.392
 1241SOL    HW2 5206   0.617   3.138   2.364
 1241SOL    HW3 5207   0.706   3.016   2.354
 1241SOL    MW4 5208   0.691   3.096   2.384
 1242SOL     OW 5209   0.471   3.205   2.281
 1242SOL    HW2 5210   0.379   3.178   2.290
 1242SOL    HW3 5211   0.484   3.214   2.187
 1242SOL    MW4 5212   0.460   3.203   2.270
 1243SOL     OW 5213   0.458   3.456   2.408
 1243SOL    HW2 5214   0.531   3.503   2.368
 1243SOL    HW3 5215   0.459   3.370   2.366
 1243SOL    MW4 5216   0.468   3.451   2.397
 1244SOL     OW 5217   0.646   3.636   2.283
 1244SOL    HW2 5218   0.666   3.727   2.306
 1244SOL    HW3 5219   0.629   3.638   2.189
 1244SOL    MW4 5220   0.646   3.648   2.274
 1245SOL     OW 5221   0.684   3.916   2.348
 1245SOL    HW2 5222   0.675   3.904   2.443
 1245SOL    HW3 5223   0.596   3.940   2.319
 1245SOL    MW4 5224   0.671   3.918   2.357
 1246SOL     OW 5225   0.435   4.026   2.287
 1246SOL    HW2 5226   0.365   3.971   2.321
 1246SOL    HW3 5227   0.428   4.021   2.192
 1246SOL    MW4 5228   0.425   4.018   2.279
 1247SOL     OW 5229   0.445   4.309   2.354
 1247SOL    HW2 5230   0.525   4.351   2.322
 1247SOL    HW3 5231   0.454   4.217   2.329
 1247SOL    MW4 5232   0.457   4.303   2.347
 1248SOL     OW 5233   0.686   4.390   2.251
 1248SOL    HW2 5234   0.697   4.478   2.287
 1248SOL    HW3 5235   0.699   4.401   2.157
 1248SOL    MW4 5236   0.689   4.403   2.243
 1249SOL     OW 5237   1.130   4.640   2.363
 1249SOL    HW2 5238   1.121   4.612   2.455
 1249SOL    HW3 5239   1.051   4.690   2.345
 1249SOL    MW4 5240   1.118   4.643   2.373
 1250SOL     OW 5241   0.909   0.150   2.323
 1250SOL    HW2 5242   0.925   0.238   2.357
 1250SOL    HW3 5243   0.881   0.164   2.232
 1250SOL    MW4 5244   0.907   0.164   2.316
 1251SOL     OW 5245   0.925   0.415   2.398
 1251SOL    HW2 5246   0.998   0.461   2.358
 1251SOL    HW3 5247   0.847   0.452   2.356
 1251SOL    MW4 5248   0.924   0.426   2.387
 1252SOL     OW 5249   1.164   0.523   2.268
 1252SOL    HW2 5250   1.227   0.456   2.294
 1252SOL    HW3 5251   1.161   0.519   2.173
 1252SOL    MW4 5252   1.172   0.514   2.259
 1253SOL     OW 5253   1.128   0.797   2.362
 1253SOL    HW2 5254   1.042   0.824   2.329
 1253SOL    HW3 5255   1.139   0.708   2.329
 1253SOL    MW4 5256   1.118   0.789   2.354
 1254SOL     OW 5257   0.889   0.925   2.294
 1254SOL    HW2 5258   0.913   1.002   2.345
 1254SOL    HW3 5259   0.819   0.883   2.344
 1254SOL    MW4 5260   0.883   0.929   2.307
 1255SOL     OW 5261   0.969   1.168   2.421
 1255SOL    HW2 5262   1.044   1.196   2.370
 1255SOL    HW3 5263   0.897   1.223   2.390
 1255SOL    MW4 5264   0.969   1.179   2.410
 1256SOL     OW 5265   1.151   1.289   2.245
 1256SOL    HW2 5266   1.226   1.230   2.249
 1256SOL    HW3 5267   1.119   1.281   2.155
 1256SOL    MW4 5268   1.157   1.280   2.234
 1257SOL     OW 5269   1.141   1.541   2.371
 1257SOL    HW2 5270   1.062   1.590   2.348
 1257SOL    HW3 5271   1.137   1.462   2.318
 1257SOL    MW4 5272   1.130   1.537   2.361
 1258SOL     OW 5273   0.901   1.670   2.275
 1258SOL    HW2 5274   0.891   1.764   2.288
 1258SOL    HW3 5275   0.908   1.660   2.180
 1258SOL    MW4 5276   0.901   1.681   2.264
 1259SOL     OW 5277   0.899   1.932   2.316
 1259SOL    HW2 5278   0.903   1.931   2.412
 1259SOL    HW3 5279   0.970   1.991   2.290
 1259SOL    MW4 5280   0.909   1.940   2.325
 1260SOL     OW 5281   1.124   2.103   2.241
 1260SOL    HW2 5282   1.194   2.053   2.281
 1260SOL    HW3 5283   1.125   2.077   2.149
 1260SOL    MW4 5284   1.133   2.093   2.234
 1261SOL     OW 5285   1.112   2.347   2.356
 1261SOL    HW2 5286   1.191   2.393   2.328
 1261SOL    HW3 5287   1.118   2.262   2.313
 1261SOL    MW4 5288   1.123   2.342   2.347
 1262SOL     OW 5289   0.899   2.489   2.247
 1262SOL    HW2 5290   0.967   2.432   2.284
 1262SOL    HW3 5291   0.897   2.467   2.154
 1262SOL    MW4 5292   0.908   2.478   2.240
 1263SOL     OW 5293   0.896   2.729   2.369
 1263SOL    HW2 5294   0.894   2.717   2.464
 1263SOL    HW3 5295   0.904   2.641   2.334
 1263SOL    MW4 5296   0.896   2.716   2.377
 1264SOL     OW 5297   1.128   2.856   2.283
 1264SOL    HW2 5298   1.205   2.804   2.305
 1264SOL    HW3 5299   1.055   2.807   2.322
 1264SOL    MW4 5300   1.128   2.842   2.291
 1265SOL     OW 5301   1.127   3.125   2.373
 1265SOL    HW2 5302   1.069   3.185   2.325
 1265SOL    HW3 5303   1.102   3.038   2.342
 1265SOL    MW4 5304   1.116   3.121   2.362
 1266SOL     OW 5305   0.900   3.252   2.239
 1266SOL    HW2 5306   0.898   3.336   2.286
 1266SOL    HW3 5307   0.850   3.192   2.296
 1266SOL    MW4 5308   0.893   3.255   2.253
 1267SOL     OW 5309   0.884   3.507   2.361
 1267SOL    HW2 5310   0.879   3.478   2.452
 1267SOL    HW3 5311   0.802   3.555   2.347
 1267SOL    MW4 5312   0.872   3.509   2.371
 1268SOL     OW 5313   1.090   3.617   2.203
 1268SOL    HW2 5314   1.175   3.601   2.245
 1268SOL    HW3 5315   1.026   3.576   2.261
 1268SOL    MW4 5316   1.093   3.609   2.216
 1269SOL     OW 5317   1.075   3.852   2.332
 1269SOL    HW2 5318   1.157   3.895   2.305
 1269SOL    HW3 5319   1.068   3.775   2.275
 1269SOL    MW4 5320   1.085   3.847   2.321
 1270SOL     OW 5321   0.902   4.034   2.246
 1270SOL    HW2 5322   0.960   3.963   2.272
 1270SOL    HW3 5323   0.816   4.008   2.279
 1270SOL    MW4 5324   0.898   4.021   2.254
 1271SOL     OW 5325   0.907   4.272   2.383
 1271SOL    HW2 5326   0.905   4.185   2.344
 1271SOL    HW3 5327   0.834   4.318   2.342
 1271SOL    MW4 5328   0.897   4.267   2.372
 1272SOL     OW 5329   1.123   4.387   2.252
 1272SOL    HW2 5330   1.052   4.337   2.291
 1272SOL    HW3 5331   1.111   4.476   2.285
 1272SOL    MW4 5332   1.112   4.392   2.261
 1273SOL     OW 5333   1.548   4.637   2.371
 1273SOL    HW2 5334   1.622   4.674   2.322
 1273SOL    HW3 5335   1.471   4.664   2.321
 1273SOL    MW4 5336   1.548   4.645   2.358
 1274SOL     OW 5337   1.341   0.101   2.231
 1274SOL    HW2 5338   1.347   0.184   2.277
 1274SOL    HW3 5339   1.270   0.054   2.275
 1274SOL    MW4 5340   1.332   0.106   2.243
 1275SOL     OW 5341   1.340   0.355   2.365
 1275SOL    HW2 5342   1.352   0.350   2.460
 1275SOL    HW3 5343   1.418   0.401   2.334
 1275SOL    MW4 5344   1.352   0.360   2.374
 1276SOL     OW 5345   1.547   0.533   2.291
 1276SOL    HW2 5346   1.626   0.480   2.295
 1276SOL    HW3 5347   1.533   0.549   2.197
 1276SOL    MW4 5348   1.555   0.528   2.279
 1277SOL     OW 5349   1.569   0.807   2.370
 1277SOL    HW2 5350   1.644   0.833   2.316
 1277SOL    HW3 5351   1.559   0.713   2.354
 1277SOL    MW4 5352   1.577   0.798   2.361
 1278SOL     OW 5353   1.349   0.912   2.229
 1278SOL    HW2 5354   1.427   0.881   2.276
 1278SOL    HW3 5355   1.276   0.872   2.275
 1278SOL    MW4 5356   1.350   0.903   2.241
 1279SOL     OW 5357   1.349   1.145   2.368
 1279SOL    HW2 5358   1.341   1.119   2.460
 1279SOL    HW3 5359   1.344   1.064   2.319
 1279SOL    MW4 5360   1.348   1.131   2.374
 1280SOL     OW 5361   1.560   1.301   2.303
 1280SOL    HW2 5362   1.494   1.237   2.329
 1280SOL    HW3 5363   1.562   1.295   2.207
 1280SOL    MW4 5364   1.552   1.292   2.294
 1281SOL     OW 5365   1.554   1.549   2.419
 1281SOL    HW2 5366   1.617   1.591   2.360
 1281SOL    HW3 5367   1.536   1.464   2.378
 1281SOL    MW4 5368   1.560   1.543   2.406
 1282SOL     OW 5369   1.360   1.698   2.272
 1282SOL    HW2 5370   1.434   1.667   2.324
 1282SOL    HW3 5371   1.286   1.645   2.302
 1282SOL    MW4 5372   1.360   1.687   2.283
 1283SOL     OW 5373   1.353   1.972   2.369
 1283SOL    HW2 5374   1.442   2.003   2.352
 1283SOL    HW3 5375   1.344   1.894   2.314
 1283SOL    MW4 5376   1.364   1.966   2.360
 1284SOL     OW 5377   1.580   2.063   2.261
 1284SOL    HW2 5378   1.655   2.008   2.286
 1284SOL    HW3 5379   1.573   2.051   2.166
 1284SOL    MW4 5380   1.589   2.054   2.252
 1285SOL     OW 5381   1.565   2.344   2.380
 1285SOL    HW2 5382   1.558   2.333   2.475
 1285SOL    HW3 5383   1.576   2.255   2.346
 1285SOL    MW4 5384   1.565   2.330   2.388
 1286SOL     OW 5385   1.337   2.470   2.254
 1286SOL    HW2 5386   1.411   2.434   2.303
 1286SOL    HW3 5387   1.335   2.419   2.173
 1286SOL    MW4 5388   1.346   2.458   2.250
 1287SOL     OW 5389   1.350   2.726   2.352
 1287SOL    HW2 5390   1.434   2.765   2.327
 1287SOL    HW3 5391   1.348   2.643   2.305
 1287SOL    MW4 5392   1.361   2.720   2.342
 1288SOL     OW 5393   1.580   2.838   2.261
 1288SOL    HW2 5394   1.579   2.932   2.276
 1288SOL    HW3 5395   1.578   2.829   2.165
 1288SOL    MW4 5396   1.580   2.849   2.250
 1289SOL     OW 5397   1.580   3.108   2.336
 1289SOL    HW2 5398   1.564   3.089   2.429
 1289SOL    HW3 5399   1.504   3.160   2.309
 1289SOL    MW4 5400   1.568   3.113   2.345
 1290SOL     OW 5401   1.369   3.266   2.262
 1290SOL    HW2 5402   1.314   3.198   2.300
 1290SOL    HW3 5403   1.362   3.252   2.167
 1290SOL    MW4 5404   1.361   3.256   2.254
 1291SOL     OW 5405   1.302   3.534   2.349
 1291SOL    HW2 5406   1.290   3.524   2.444
 1291SOL    HW3 5407   1.315   3.445   2.317
 1291SOL    MW4 5408   1.302   3.521   2.357
 1292SOL     OW 5409   1.555   3.602   2.268
 1292SOL    HW2 5410   1.567   3.683   2.318
 1292SOL    HW3 5411   1.471   3.568   2.297
 1292SOL    MW4 5412   1.546   3.608   2.278
 1293SOL     OW 5413   1.583   3.863   2.372
 1293SOL    HW2 5414   1.578   3.867   2.467
 1293SOL    HW3 5415   1.649   3.927   2.348
 1293SOL    MW4 5416   1.591   3.872   2.381
 1294SOL     OW 5417   1.340   3.964   2.274
 1294SOL    HW2 5418   1.416   3.919   2.312
 1294SOL    HW3 5419   1.353   3.957   2.180
 1294SOL    MW4 5420   1.352   3.957   2.267
 1295SOL     OW 5421   1.344   4.240   2.359
 1295SOL    HW2 5422   1.341   4.153   2.319
 1295SOL    HW3 5423   1.268   4.285   2.324
 1295SOL    MW4 5424   1.334   4.235   2.349
 1296SOL     OW 5425   1.553   4.375   2.252
 1296SOL    HW2 5426   1.480   4.332   2.296
 1296SOL    HW3 5427   1.558   4.461   2.293
 1296SOL    MW4 5428   1.544   4.381   2.263
 1297SOL     OW 5429   2.025   0.003   2.368
 1297SOL    HW2 5430   2.097   0.056   2.333
 1297SOL    HW3 5431   2.034  -0.082   2.324
 1297SOL    MW4 5432   2.036  -0.001   2.357
 1298SOL     OW 5433   1.777   0.084   2.241
 1298SOL    HW2 5434   1.781   0.177   2.264
 1298SOL    HW3 5435   1.856   0.046   2.281
 1298SOL    MW4 5436   1.788   0.091   2.250
 1299SOL     OW 5437   1.773   0.349   2.324
 1299SOL    HW2 5438   1.767   0.349   2.420
 1299SOL    HW3 5439   1.861   0.382   2.306
 1299SOL    MW4 5440   1.784   0.353   2.334
 1300SOL     OW 5441   2.011   0.502   2.256
 1300SOL    HW2 5442   2.021   0.595   2.276
 1300SOL    HW3 5443   2.013   0.497   2.160
 1300SOL    MW4 5444   2.013   0.513   2.246
 1301SOL     OW 5445   2.025   0.757   2.357
 1301SOL    HW2 5446   2.100   0.804   2.321
 1301SOL    HW3 5447   1.949   0.793   2.311
 1301SOL    MW4 5448   2.025   0.768   2.346
 1302SOL     OW 5449   1.813   0.898   2.252
 1302SOL    HW2 5450   1.809   0.986   2.292
 1302SOL    HW3 5451   1.808   0.914   2.158
 1302SOL    MW4 5452   1.812   0.912   2.245
 1303SOL     OW 5453   1.797   1.158   2.354
 1303SOL    HW2 5454   1.874   1.190   2.306
 1303SOL    HW3 5455   1.726   1.215   2.325
 1303SOL    MW4 5456   1.798   1.170   2.344
 1304SOL     OW 5457   2.018   1.286   2.235
 1304SOL    HW2 5458   1.999   1.367   2.281
 1304SOL    HW3 5459   2.014   1.309   2.142
 1304SOL    MW4 5460   2.015   1.300   2.229
 1305SOL     OW 5461   1.971   1.539   2.333
 1305SOL    HW2 5462   1.984   1.549   2.427
 1305SOL    HW3 5463   1.886   1.580   2.315
 1305SOL    MW4 5464   1.962   1.546   2.343
 1306SOL     OW 5465   1.727   1.668   2.242
 1306SOL    HW2 5466   1.764   1.751   2.272
 1306SOL    HW3 5467   1.736   1.671   2.147
 1306SOL    MW4 5468   1.733   1.680   2.234
 1307SOL     OW 5469   1.809   1.924   2.328
 1307SOL    HW2 5470   1.804   1.942   2.422
 1307SOL    HW3 5471   1.881   1.978   2.297
 1307SOL    MW4 5472   1.817   1.933   2.336
 1308SOL     OW 5473   2.014   2.091   2.231
 1308SOL    HW2 5474   2.094   2.047   2.261
 1308SOL    HW3 5475   2.011   2.074   2.137
 1308SOL    MW4 5476   2.024   2.083   2.222
 1309SOL     OW 5477   2.003   2.355   2.321
 1309SOL    HW2 5478   2.066   2.407   2.271
 1309SOL    HW3 5479   2.019   2.265   2.293
 1309SOL    MW4 5480   2.014   2.350   2.311
 1310SOL     OW 5481   1.766   2.466   2.206
 1310SOL    HW2 5482   1.844   2.415   2.227
 1310SOL    HW3 5483   1.695   2.420   2.251
 1310SOL    MW4 5484   1.767   2.453   2.214
 1311SOL     OW 5485   1.832   2.719   2.320
 1311SOL    HW2 5486   1.805   2.641   2.271
 1311SOL    HW3 5487   1.756   2.776   2.319
 1311SOL    MW4 5488   1.819   2.716   2.314
 1312SOL     OW 5489   2.070   2.861   2.259
 1312SOL    HW2 5490   2.129   2.817   2.320
 1312SOL    HW3 5491   1.984   2.821   2.275
 1312SOL    MW4 5492   2.066   2.850   2.269
 1313SOL     OW 5493   2.020   3.105   2.365
 1313SOL    HW2 5494   2.092   3.159   2.334
 1313SOL    HW3 5495   2.034   3.020   2.325
 1313SOL    MW4 5496   2.031   3.101   2.356
 1314SOL     OW 5497   1.807   3.231   2.245
 1314SOL    HW2 5498   1.874   3.176   2.286
 1314SOL    HW3 5499   1.724   3.194   2.273
 1314SOL    MW4 5500   1.805   3.219   2.254
 1315SOL     OW 5501   1.796   3.492   2.345
 1315SOL    HW2 5502   1.792   3.399   2.321
 1315SOL    HW3 5503   1.707   3.524   2.333
 1315SOL    MW4 5504   1.784   3.484   2.340
 1316SOL     OW 5505   2.029   3.611   2.223
 1316SOL    HW2 5506   1.952   3.575   2.266
 1316SOL    HW3 5507   2.009   3.606   2.129
 1316SOL    MW4 5508   2.016   3.605   2.216
 1317SOL     OW 5509   2.001   3.865   2.345
 1317SOL    HW2 5510   2.045   3.867   2.430
 1317SOL    HW3 5511   2.023   3.780   2.308
 1317SOL    MW4 5512   2.010   3.854   2.352
 1318SOL     OW 5513   1.792   4.021   2.278
 1318SOL    HW2 5514   1.862   3.958   2.295
 1318SOL    HW3 5515   1.790   4.031   2.183
 1318SOL    MW4 5516   1.801   4.014   2.268
 1319SOL     OW 5517   1.797   4.290   2.331
 1319SOL    HW2 5518   1.800   4.195   2.317
 1319SOL    HW3 5519   1.707   4.315   2.310
 1319SOL    MW4 5520   1.786   4.281   2.327
 1320SOL     OW 5521   2.032   4.416   2.246
 1320SOL    HW2 5522   1.951   4.380   2.281
 1320SOL    HW3 5523   2.017   4.424   2.152
 1320SOL    MW4 5524   2.020   4.412   2.239
 1321SOL     OW 5525   2.495   4.649   2.373
 1321SOL    HW2 5526   2.562   4.697   2.325
 1321SOL    HW3 5527   2.494   4.562   2.333
 1321SOL    MW4 5528   2.504   4.644   2.362
 1322SOL     OW 5529   2.272   0.120   2.253
 1322SOL    HW2 5530   2.287   0.209   2.284
 1322SOL    HW3 5531   2.343   0.069   2.292
 1322SOL    MW4 5532   2.284   0.125   2.262
 1323SOL     OW 5533   2.261   0.383   2.340
 1323SOL    HW2 5534   2.333   0.436   2.306
 1323SOL    HW3 5535   2.182   0.423   2.303
 1323SOL    MW4 5536   2.260   0.396   2.331
 1324SOL     OW 5537   2.469   0.530   2.206
 1324SOL    HW2 5538   2.547   0.481   2.231
 1324SOL    HW3 5539   2.464   0.522   2.111
 1324SOL    MW4 5540   2.479   0.523   2.197
 1325SOL     OW 5541   2.470   0.773   2.356
 1325SOL    HW2 5542   2.545   0.826   2.327
 1325SOL    HW3 5543   2.480   0.690   2.310
 1325SOL    MW4 5544   2.481   0.769   2.346
 1326SOL     OW 5545   2.243   0.866   2.231
 1326SOL    HW2 5546   2.233   0.960   2.244
 1326SOL    HW3 5547   2.314   0.841   2.289
 1326SOL    MW4 5548   2.251   0.875   2.240
 1327SOL     OW 5549   2.240   1.131   2.296
 1327SOL    HW2 5550   2.320   1.180   2.279
 1327SOL    HW3 5551   2.170   1.187   2.260
 1327SOL    MW4 5552   2.241   1.145   2.289
 1328SOL     OW 5553   2.456   1.294   2.248
 1328SOL    HW2 5554   2.537   1.251   2.277
 1328SOL    HW3 5555   2.460   1.381   2.288
 1328SOL    MW4 5556   2.467   1.300   2.257
 1329SOL     OW 5557   2.429   1.552   2.382
 1329SOL    HW2 5558   2.455   1.546   2.474
 1329SOL    HW3 5559   2.504   1.594   2.339
 1329SOL    MW4 5560   2.442   1.557   2.389
 1330SOL     OW 5561   2.209   1.698   2.272
 1330SOL    HW2 5562   2.271   1.637   2.312
 1330SOL    HW3 5563   2.123   1.663   2.297
 1330SOL    MW4 5564   2.206   1.685   2.281
 1331SOL     OW 5565   2.226   1.967   2.318
 1331SOL    HW2 5566   2.301   2.002   2.270
 1331SOL    HW3 5567   2.230   1.873   2.303
 1331SOL    MW4 5568   2.237   1.959   2.310
 1332SOL     OW 5569   2.452   2.087   2.201
 1332SOL    HW2 5570   2.523   2.036   2.238
 1332SOL    HW3 5571   2.461   2.075   2.106
 1332SOL    MW4 5572   2.462   2.079   2.193
 1333SOL     OW 5573   2.462   2.318   2.358
 1333SOL    HW2 5574   2.528   2.378   2.321
 1333SOL    HW3 5575   2.459   2.245   2.296
 1333SOL    MW4 5576   2.471   2.317   2.345
 1334SOL     OW 5577   2.233   2.460   2.209
 1334SOL    HW2 5578   2.248   2.533   2.270
 1334SOL    HW3 5579   2.294   2.392   2.237
 1334SOL    MW4 5580   2.243   2.461   2.221
 1335SOL     OW 5581   2.256   2.693   2.366
 1335SOL    HW2 5582   2.238   2.712   2.458
 1335SOL    HW3 5583   2.314   2.764   2.337
 1335SOL    MW4 5584   2.262   2.705   2.374
 1336SOL     OW 5585   2.445   2.870   2.266
 1336SOL    HW2 5586   2.520   2.817   2.293
 1336SOL    HW3 5587   2.458   2.884   2.172
 1336SOL    MW4 5588   2.456   2.865   2.257
 1337SOL     OW 5589   2.470   3.136   2.362
 1337SOL    HW2 5590   2.547   3.182   2.329
 1337SOL    HW3 5591   2.478   3.047   2.328
 1337SOL    MW4 5592   2.481   3.130   2.353
 1338SOL     OW 5593   2.235   3.252   2.258
 1338SOL    HW2 5594   2.250   3.346   2.264
 1338SOL    HW3 5595   2.316   3.213   2.290
 1338SOL    MW4 5596   2.248   3.259   2.263
 1339SOL     OW 5597   2.264   3.523   2.314
 1339SOL    HW2 5598   2.251   3.499   2.406
 1339SOL    HW3 5599   2.178   3.555   2.285
 1339SOL    MW4 5600   2.251   3.524   2.322
 1340SOL     OW 5601   2.505   3.647   2.233
 1340SOL    HW2 5602   2.489   3.736   2.266
 1340SOL    HW3 5603   2.429   3.597   2.261
 1340SOL    MW4 5604   2.493   3.652   2.241
 1341SOL     OW 5605   2.459   3.904   2.342
 1341SOL    HW2 5606   2.461   3.903   2.437
 1341SOL    HW3 5607   2.378   3.951   2.319
 1341SOL    MW4 5608   2.448   3.910   2.351
 1342SOL     OW 5609   2.213   3.997   2.241
 1342SOL    HW2 5610   2.204   4.090   2.262
 1342SOL    HW3 5611   2.144   3.954   2.292
 1342SOL    MW4 5612   2.203   4.004   2.251
 1343SOL     OW 5613   2.235   4.271   2.332
 1343SOL    HW2 5614   2.245   4.280   2.427
 1343SOL    HW3 5615   2.173   4.340   2.308
 1343SOL    MW4 5616   2.228   4.282   2.341
 1344SOL     OW 5617   2.506   4.392   2.251
 1344SOL    HW2 5618   2.578   4.348   2.297
 1344SOL    HW3 5619   2.428   4.345   2.280
 1344SOL    MW4 5620   2.505   4.380   2.261
 1345SOL     OW 5621   2.928   0.006   2.323
 1345SOL    HW2 5622   3.000   0.054   2.282
 1345SOL    HW3 5623   2.933  -0.081   2.284
 1345SOL    MW4 5624   2.938   0.001   2.312
 1346SOL     OW 5625   2.688   0.113   2.228
 1346SOL    HW2 5626   2.679   0.206   2.246
 1346SOL    HW3 5627   2.770   0.088   2.270
 1346SOL    MW4 5628   2.698   0.122   2.236
 1347SOL     OW 5629   2.674   0.376   2.283
 1347SOL    HW2 5630   2.655   0.393   2.375
 1347SOL    HW3 5631   2.765   0.405   2.272
 1347SOL    MW4 5632   2.684   0.382   2.294
 1348SOL     OW 5633   2.926   0.502   2.213
 1348SOL    HW2 5634   2.932   0.590   2.251
 1348SOL    HW3 5635   2.930   0.516   2.119
 1348SOL    MW4 5636   2.927   0.516   2.206
 1349SOL     OW 5637   2.928   0.747   2.359
 1349SOL    HW2 5638   2.930   0.756   2.454
 1349SOL    HW3 5639   2.846   0.789   2.333
 1349SOL    MW4 5640   2.917   0.754   2.368
 1350SOL     OW 5641   2.710   0.881   2.262
 1350SOL    HW2 5642   2.700   0.974   2.286
 1350SOL    HW3 5643   2.724   0.883   2.167
 1350SOL    MW4 5644   2.710   0.894   2.252
 1351SOL     OW 5645   2.684   1.149   2.327
 1351SOL    HW2 5646   2.684   1.148   2.423
 1351SOL    HW3 5647   2.764   1.195   2.303
 1351SOL    MW4 5648   2.695   1.155   2.336
 1352SOL     OW 5649   2.911   1.274   2.222
 1352SOL    HW2 5650   2.989   1.234   2.260
 1352SOL    HW3 5651   2.928   1.276   2.128
 1352SOL    MW4 5652   2.923   1.269   2.215
 1353SOL     OW 5653   2.883   1.530   2.336
 1353SOL    HW2 5654   2.897   1.516   2.429
 1353SOL    HW3 5655   2.877   1.442   2.299
 1353SOL    MW4 5656   2.884   1.517   2.343
 1354SOL     OW 5657   2.642   1.652   2.235
 1354SOL    HW2 5658   2.716   1.593   2.243
 1354SOL    HW3 5659   2.636   1.671   2.142
 1354SOL    MW4 5660   2.651   1.647   2.224
 1355SOL     OW 5661   2.659   1.925   2.308
 1355SOL    HW2 5662   2.681   1.932   2.401
 1355SOL    HW3 5663   2.652   1.831   2.292
 1355SOL    MW4 5664   2.661   1.914   2.318
 1356SOL     OW 5665   2.881   2.078   2.233
 1356SOL    HW2 5666   2.963   2.037   2.262
 1356SOL    HW3 5667   2.812   2.022   2.267
 1356SOL    MW4 5668   2.883   2.065   2.241
 1357SOL     OW 5669   2.900   2.340   2.335
 1357SOL    HW2 5670   2.907   2.309   2.425
 1357SOL    HW3 5671   2.896   2.260   2.283
 1357SOL    MW4 5672   2.900   2.325   2.340
 1358SOL     OW 5673   2.654   2.481   2.259
 1358SOL    HW2 5674   2.736   2.438   2.284
 1358SOL    HW3 5675   2.651   2.473   2.164
 1358SOL    MW4 5676   2.664   2.474   2.250
 1359SOL     OW 5677   2.679   2.742   2.355
 1359SOL    HW2 5678   2.750   2.788   2.310
 1359SOL    HW3 5679   2.686   2.651   2.325
 1359SOL    MW4 5680   2.689   2.736   2.345
 1360SOL     OW 5681   2.901   2.857   2.252
 1360SOL    HW2 5682   2.907   2.943   2.294
 1360SOL    HW3 5683   2.910   2.875   2.159
 1360SOL    MW4 5684   2.903   2.871   2.246
 1361SOL     OW 5685   2.936   3.108   2.363
 1361SOL    HW2 5686   2.996   3.175   2.331
 1361SOL    HW3 5687   2.852   3.128   2.320
 1361SOL    MW4 5688   2.933   3.119   2.353
 1362SOL     OW 5689   2.712   3.232   2.270
 1362SOL    HW2 5690   2.720   3.324   2.296
 1362SOL    HW3 5691   2.703   3.235   2.174
 1362SOL    MW4 5692   2.712   3.245   2.261
 1363SOL     OW 5693   2.715   3.503   2.346
 1363SOL    HW2 5694   2.784   3.547   2.296
 1363SOL    HW3 5695   2.634   3.547   2.317
 1363SOL    MW4 5696   2.713   3.515   2.336
 1364SOL     OW 5697   2.917   3.652   2.214
 1364SOL    HW2 5698   2.981   3.602   2.265
 1364SOL    HW3 5699   2.897   3.727   2.268
 1364SOL    MW4 5700   2.923   3.655   2.228
 1365SOL     OW 5701   2.904   3.923   2.328
 1365SOL    HW2 5702   2.907   3.907   2.422
 1365SOL    HW3 5703   2.815   3.955   2.313
 1365SOL    MW4 5704   2.892   3.925   2.339
 1366SOL     OW 5705   2.671   4.074   2.259
 1366SOL    HW2 5706   2.589   4.039   2.294
 1366SOL    HW3 5707   2.669   4.051   2.166
 1366SOL    MW4 5708   2.660   4.066   2.251
 1367SOL     OW 5709   2.742   4.318   2.390
 1367SOL    HW2 5710   2.704   4.302   2.476
 1367SOL    HW3 5711   2.733   4.235   2.344
 1367SOL    MW4 5712   2.736   4.305   2.396
 1368SOL     OW 5713   2.948   4.405   2.226
 1368SOL    HW2 5714   3.026   4.361   2.259
 1368SOL    HW3 5715   2.878   4.377   2.285
 1368SOL    MW4 5716   2.949   4.396   2.238
 1369SOL     OW 5717   3.360   4.637   2.309
 1369SOL    HW2 5718   3.361   4.672   2.398
 1369SOL    HW3 5719   3.444   4.665   2.272
 1369SOL    MW4 5720   3.372   4.646   2.316
 1370SOL     OW 5721   3.168   0.113   2.200
 1370SOL    HW2 5722   3.173   0.202   2.236
 1370SOL    HW3 5723   3.243   0.067   2.239
 1370SOL    MW4 5724   3.178   0.119   2.210
 1371SOL     OW 5725   3.133   0.380   2.343
 1371SOL    HW2 5726   3.211   0.432   2.323
 1371SOL    HW3 5727   3.064   0.419   2.290
 1371SOL    MW4 5728   3.134   0.392   2.333
 1372SOL     OW 5729   3.351   0.530   2.241
 1372SOL    HW2 5730   3.426   0.483   2.276
 1372SOL    HW3 5731   3.358   0.521   2.146
 1372SOL    MW4 5732   3.362   0.522   2.233
 1373SOL     OW 5733   3.361   0.762   2.379
 1373SOL    HW2 5734   3.448   0.787   2.348
 1373SOL    HW3 5735   3.348   0.674   2.342
 1373SOL    MW4 5736   3.371   0.753   2.370
 1374SOL     OW 5737   3.158   0.876   2.242
 1374SOL    HW2 5738   3.237   0.845   2.287
 1374SOL    HW3 5739   3.087   0.823   2.278
 1374SOL    MW4 5740   3.159   0.865   2.252
 1375SOL     OW 5741   3.139   1.145   2.329
 1375SOL    HW2 5742   3.217   1.187   2.293
 1375SOL    HW3 5743   3.136   1.059   2.286
 1375SOL    MW4 5744   3.149   1.139   2.318
 1376SOL     OW 5745   3.375   1.273   2.238
 1376SOL    HW2 5746   3.452   1.230   2.276
 1376SOL    HW3 5747   3.372   1.359   2.281
 1376SOL    MW4 5748   3.385   1.279   2.249
 1377SOL     OW 5749   3.352   1.523   2.325
 1377SOL    HW2 5750   3.376   1.536   2.417
 1377SOL    HW3 5751   3.279   1.583   2.311
 1377SOL    MW4 5752   3.345   1.533   2.336
 1378SOL     OW 5753   3.132   1.678   2.275
 1378SOL    HW2 5754   3.125   1.772   2.294
 1378SOL    HW3 5755   3.049   1.641   2.307
 1378SOL    MW4 5756   3.120   1.685   2.282
 1379SOL     OW 5757   3.117   1.968   2.342
 1379SOL    HW2 5758   3.120   1.955   2.437
 1379SOL    HW3 5759   3.207   1.992   2.318
 1379SOL    MW4 5760   3.129   1.970   2.351
 1380SOL     OW 5761   3.363   2.050   2.243
 1380SOL    HW2 5762   3.436   2.006   2.286
 1380SOL    HW3 5763   3.385   2.049   2.150
 1380SOL    MW4 5764   3.375   2.044   2.236
 1381SOL     OW 5765   3.364   2.313   2.352
 1381SOL    HW2 5766   3.296   2.353   2.299
 1381SOL    HW3 5767   3.377   2.226   2.312
 1381SOL    MW4 5768   3.357   2.307   2.340
 1382SOL     OW 5769   3.140   2.448   2.237
 1382SOL    HW2 5770   3.142   2.537   2.272
 1382SOL    HW3 5771   3.056   2.412   2.266
 1382SOL    MW4 5772   3.129   2.455   2.245
 1383SOL     OW 5773   3.127   2.717   2.333
 1383SOL    HW2 5774   3.146   2.703   2.426
 1383SOL    HW3 5775   3.040   2.755   2.332
 1383SOL    MW4 5776   3.118   2.720   2.345
 1384SOL     OW 5777   3.358   2.872   2.273
 1384SOL    HW2 5778   3.361   2.955   2.320
 1384SOL    HW3 5779   3.272   2.835   2.296
 1384SOL    MW4 5780   3.347   2.878   2.282
 1385SOL     OW 5781   3.393   3.110   2.387
 1385SOL    HW2 5782   3.467   3.161   2.354
 1385SOL    HW3 5783   3.316   3.158   2.359
 1385SOL    MW4 5784   3.393   3.123   2.379
 1386SOL     OW 5785   3.159   3.263   2.292
 1386SOL    HW2 5786   3.158   3.358   2.308
 1386SOL    HW3 5787   3.152   3.255   2.197
 1386SOL    MW4 5788   3.158   3.275   2.282
 1387SOL     OW 5789   3.112   3.538   2.357
 1387SOL    HW2 5790   3.121   3.533   2.453
 1387SOL    HW3 5791   3.194   3.578   2.328
 1387SOL    MW4 5792   3.124   3.543   2.366
 1388SOL     OW 5793   3.335   3.668   2.255
 1388SOL    HW2 5794   3.415   3.624   2.283
 1388SOL    HW3 5795   3.330   3.651   2.161
 1388SOL    MW4 5796   3.345   3.660   2.246
 1389SOL     OW 5797   3.358   3.905   2.394
 1389SOL    HW2 5798   3.416   3.954   2.336
 1389SOL    HW3 5799   3.350   3.819   2.353
 1389SOL    MW4 5800   3.365   3.900   2.381
 1390SOL     OW 5801   3.153   3.985   2.237
 1390SOL    HW2 5802   3.217   3.953   2.301
 1390SOL    HW3 5803   3.069   3.952   2.268
 1390SOL    MW4 5804   3.151   3.976   2.250
 1391SOL     OW 5805   3.133   4.240   2.327
 1391SOL    HW2 5806   3.215   4.276   2.292
 1391SOL    HW3 5807   3.134   4.148   2.302
 1391SOL    MW4 5808   3.144   4.233   2.319
 1392SOL     OW 5809   3.366   4.375   2.256
 1392SOL    HW2 5810   3.378   4.465   2.285
 1392SOL    HW3 5811   3.369   4.379   2.160
 1392SOL    MW4 5812   3.368   4.387   2.247
 1393SOL     OW 5813   3.786   4.644   2.384
 1393SOL    HW2 5814   3.814   4.649   2.476
 1393SOL    HW3 5815   3.857   4.686   2.335
 1393SOL    MW4 5816   3.799   4.650   2.390
 1394SOL     OW 5817   3.581   0.142   2.268
 1394SOL    HW2 5818   3.576   0.221   2.323
 1394SOL    HW3 5819   3.650   0.090   2.309
 1394SOL    MW4 5820   3.589   0.146   2.281
 1395SOL     OW 5821   3.552   0.401   2.379
 1395SOL    HW2 5822   3.556   0.388   2.474
 1395SOL    HW3 5823   3.628   0.456   2.359
 1395SOL    MW4 5824   3.563   0.407   2.389
 1396SOL     OW 5825   3.782   0.518   2.294
 1396SOL    HW2 5826   3.793   0.610   2.317
 1396SOL    HW3 5827   3.799   0.515   2.199
 1396SOL    MW4 5828   3.785   0.530   2.284
 1397SOL     OW 5829   3.825   0.783   2.358
 1397SOL    HW2 5830   3.814   0.801   2.451
 1397SOL    HW3 5831   3.913   0.815   2.337
 1397SOL    MW4 5832   3.835   0.789   2.367
 1398SOL     OW 5833   3.586   0.870   2.247
 1398SOL    HW2 5834   3.675   0.844   2.274
 1398SOL    HW3 5835   3.595   0.890   2.154
 1398SOL    MW4 5836   3.599   0.869   2.238
 1399SOL     OW 5837   3.602   1.135   2.335
 1399SOL    HW2 5838   3.602   1.143   2.431
 1399SOL    HW3 5839   3.602   1.040   2.319
 1399SOL    MW4 5840   3.602   1.123   2.346
 1400SOL     OW 5841   3.830   1.255   2.248
 1400SOL    HW2 5842   3.815   1.344   2.279
 1400SOL    HW3 5843   3.761   1.203   2.289
 1400SOL    MW4 5844   3.819   1.260   2.257
 1401SOL     OW 5845   3.796   1.507   2.347
 1401SOL    HW2 5846   3.809   1.537   2.437
 1401SOL    HW3 5847   3.729   1.566   2.313
 1401SOL    MW4 5848   3.789   1.519   2.355
 1402SOL     OW 5849   3.542   1.697   2.226
 1402SOL    HW2 5850   3.477   1.630   2.247
 1402SOL    HW3 5851   3.554   1.690   2.131
 1402SOL    MW4 5852   3.535   1.687   2.216
 1403SOL     OW 5853   3.586   1.936   2.361
 1403SOL    HW2 5854   3.649   1.978   2.303
 1403SOL    HW3 5855   3.570   1.851   2.322
 1403SOL    MW4 5856   3.592   1.931   2.348
 1404SOL     OW 5857   3.788   2.068   2.229
 1404SOL    HW2 5858   3.871   2.027   2.254
 1404SOL    HW3 5859   3.790   2.068   2.133
 1404SOL    MW4 5860   3.799   2.062   2.219
 1405SOL     OW 5861   3.793   2.328   2.359
 1405SOL    HW2 5862   3.715   2.380   2.342
 1405SOL    HW3 5863   3.783   2.250   2.304
 1405SOL    MW4 5864   3.782   2.324   2.349
 1406SOL     OW 5865   3.557   2.494   2.280
 1406SOL    HW2 5866   3.497   2.422   2.298
 1406SOL    HW3 5867   3.567   2.494   2.185
 1406SOL    MW4 5868   3.550   2.484   2.270
 1407SOL     OW 5869   3.590   2.763   2.357
 1407SOL    HW2 5870   3.569   2.674   2.332
 1407SOL    HW3 5871   3.518   2.816   2.324
 1407SOL    MW4 5872   3.578   2.758   2.349
 1408SOL     OW 5873   3.866   2.890   2.287
 1408SOL    HW2 5874   3.849   2.974   2.329
 1408SOL    HW3 5875   3.793   2.834   2.316
 1408SOL    MW4 5876   3.854   2.894   2.297
 1409SOL     OW 5877   3.797   3.148   2.388
 1409SOL    HW2 5878   3.809   3.126   2.481
 1409SOL    HW3 5879   3.884   3.174   2.359
 1409SOL    MW4 5880   3.810   3.149   2.397
 1410SOL     OW 5881   3.579   3.278   2.259
 1410SOL    HW2 5882   3.572   3.365   2.298
 1410SOL    HW3 5883   3.666   3.247   2.285
 1410SOL    MW4 5884   3.590   3.286   2.267
 1411SOL     OW 5885   3.596   3.544   2.342
 1411SOL    HW2 5886   3.606   3.569   2.434
 1411SOL    HW3 5887   3.685   3.549   2.306
 1411SOL    MW4 5888   3.609   3.548   2.350
 1412SOL     OW 5889   3.853   3.596   2.265
 1412SOL    HW2 5890   3.846   3.689   2.289
 1412SOL    HW3 5891   3.854   3.596   2.170
 1412SOL    MW4 5892   3.852   3.609   2.256
 1413SOL     OW 5893   3.758   3.864   2.358
 1413SOL    HW2 5894   3.763   3.865   2.454
 1413SOL    HW3 5895   3.830   3.920   2.329
 1413SOL    MW4 5896   3.768   3.871   2.367
 1414SOL     OW 5897   3.560   4.023   2.243
 1414SOL    HW2 5898   3.560   4.092   2.309
 1414SOL    HW3 5899   3.631   3.964   2.269
 1414SOL    MW4 5900   3.569   4.024   2.255
 1415SOL     OW 5901   3.583   4.262   2.374
 1415SOL    HW2 5902   3.653   4.309   2.330
 1415SOL    HW3 5903   3.502   4.301   2.340
 1415SOL    MW4 5904   3.581   4.273   2.364
 1416SOL     OW 5905   3.806   4.374   2.262
 1416SOL    HW2 5906   3.875   4.323   2.304
 1416SOL    HW3 5907   3.806   4.458   2.308
 1416SOL    MW4 5908   3.815   4.378   2.274
 1417SOL     OW 5909   4.265   4.652   2.399
 1417SOL    HW2 5910   4.291   4.653   2.491
 1417SOL    HW3 5911   4.323   4.715   2.356
 1417SOL    MW4 5912   4.276   4.661   2.405
 1418SOL     OW 5913   4.022   0.102   2.279
 1418SOL    HW2 5914   3.994   0.184   2.319
 1418SOL    HW3 5915   4.094   0.072   2.335
 1418SOL    MW4 5916   4.028   0.109   2.291
 1419SOL     OW 5917   4.006   0.356   2.369
 1419SOL    HW2 5918   4.080   0.401   2.327
 1419SOL    HW3 5919   3.931   0.411   2.349
 1419SOL    MW4 5920   4.006   0.369   2.361
 1420SOL     OW 5921   4.225   0.520   2.278
 1420SOL    HW2 5922   4.214   0.603   2.325
 1420SOL    HW3 5923   4.315   0.493   2.296
 1420SOL    MW4 5924   4.236   0.527   2.286
 1421SOL     OW 5925   4.294   0.770   2.389
 1421SOL    HW2 5926   4.223   0.826   2.359
 1421SOL    HW3 5927   4.374   0.819   2.368
 1421SOL    MW4 5928   4.295   0.784   2.382
 1422SOL     OW 5929   4.081   0.891   2.302
 1422SOL    HW2 5930   4.090   0.984   2.323
 1422SOL    HW3 5931   4.095   0.887   2.207
 1422SOL    MW4 5932   4.084   0.903   2.292
 1423SOL     OW 5933   4.059   1.182   2.366
 1423SOL    HW2 5934   4.042   1.173   2.460
 1423SOL    HW3 5935   3.975   1.208   2.329
 1423SOL    MW4 5936   4.046   1.184   2.374
 1424SOL     OW 5937   4.252   1.326   2.255
 1424SOL    HW2 5938   4.197   1.266   2.305
 1424SOL    HW3 5939   4.342   1.304   2.281
 1424SOL    MW4 5940   4.257   1.316   2.265
 1425SOL     OW 5941   4.266   1.570   2.387
 1425SOL    HW2 5942   4.255   1.476   2.374
 1425SOL    HW3 5943   4.340   1.593   2.331
 1425SOL    MW4 5944   4.274   1.561   2.378
 1426SOL     OW 5945   4.028   1.649   2.274
 1426SOL    HW2 5946   4.099   1.603   2.318
 1426SOL    HW3 5947   3.951   1.593   2.285
 1426SOL    MW4 5948   4.027   1.636   2.281
 1427SOL     OW 5949   4.013   1.915   2.319
 1427SOL    HW2 5950   4.026   1.918   2.414
 1427SOL    HW3 5951   4.028   1.823   2.296
 1427SOL    MW4 5952   4.017   1.903   2.328
 1428SOL     OW 5953   4.252   2.036   2.273
 1428SOL    HW2 5954   4.247   2.125   2.309
 1428SOL    HW3 5955   4.166   1.998   2.291
 1428SOL    MW4 5956   4.240   2.043   2.280
 1429SOL     OW 5957   4.244   2.277   2.403
 1429SOL    HW2 5958   4.178   2.327   2.355
 1429SOL    HW3 5959   4.327   2.302   2.362
 1429SOL    MW4 5960   4.247   2.287   2.391
 1430SOL     OW 5961   4.027   2.447   2.264
 1430SOL    HW2 5962   4.026   2.537   2.296
 1430SOL    HW3 5963   3.948   2.408   2.301
 1430SOL    MW4 5964   4.016   2.454   2.273
 1431SOL     OW 5965   4.056   2.703   2.338
 1431SOL    HW2 5966   4.057   2.713   2.434
 1431SOL    HW3 5967   4.008   2.780   2.307
 1431SOL    MW4 5968   4.050   2.714   2.347
 1432SOL     OW 5969   4.307   2.781   2.223
 1432SOL    HW2 5970   4.234   2.735   2.263
 1432SOL    HW3 5971   4.385   2.741   2.261
 1432SOL    MW4 5972   4.308   2.770   2.233
 1433SOL     OW 5973   4.258   3.046   2.319
 1433SOL    HW2 5974   4.246   2.954   2.294
 1433SOL    HW3 5975   4.327   3.077   2.261
 1433SOL    MW4 5976   4.265   3.038   2.308
 1434SOL     OW 5977   4.035   3.211   2.259
 1434SOL    HW2 5978   4.045   3.291   2.310
 1434SOL    HW3 5979   4.113   3.159   2.281
 1434SOL    MW4 5980   4.047   3.214   2.269
 1435SOL     OW 5981   4.097   3.466   2.369
 1435SOL    HW2 5982   4.170   3.509   2.325
 1435SOL    HW3 5983   4.019   3.502   2.327
 1435SOL    MW4 5984   4.096   3.476   2.358
 1436SOL     OW 5985   4.295   3.625   2.248
 1436SOL    HW2 5986   4.261   3.713   2.263
 1436SOL    HW3 5987   4.297   3.616   2.153
 1436SOL    MW4 5988   4.291   3.635   2.238
 1437SOL     OW 5989   4.233   3.891   2.365
 1437SOL    HW2 5990   4.246   3.887   2.459
 1437SOL    HW3 5991   4.318   3.920   2.330
 1437SOL    MW4 5992   4.246   3.894   2.373
 1438SOL     OW 5993   4.019   4.003   2.244
 1438SOL    HW2 5994   4.086   3.952   2.288
 1438SOL    HW3 5995   4.037   3.991   2.151
 1438SOL    MW4 5996   4.030   3.995   2.237
 1439SOL     OW 5997   4.039   4.255   2.359
 1439SOL    HW2 5998   4.104   4.305   2.310
 1439SOL    HW3 5999   4.045   4.166   2.324
 1439SOL    MW4 6000   4.048   4.250   2.348
 1440SOL     OW 6001   4.250   4.415   2.257
 1440SOL    HW2 6002   4.257   4.498   2.303
 1440SOL    HW3 6003   4.320   4.361   2.294
 1440SOL    MW4 6004   4.260   4.419   2.268
 1441SOL     OW 6005   0.231   4.657   2.642
 1441SOL    HW2 6006   0.222   4.565   2.668
 1441SOL    HW3 6007   0.159   4.701   2.687
 1441SOL    MW4 6008   0.220   4.651   2.651
 1442SOL     OW 6009   0.026   0.142   2.761
 1442SOL    HW2 6010   0.026   0.153   2.856
 1442SOL    HW3 6011   0.015   0.231   2.727
 1442SOL    MW4 6012   0.025   0.155   2.769
 1443SOL     OW 6013   0.017   0.405   2.641
 1443SOL    HW2 6014   0.094   0.458   2.662
 1443SOL    HW3 6015   0.010   0.410   2.545
 1443SOL    MW4 6016   0.026   0.413   2.631
 1444SOL     OW 6017   0.257   0.526   2.748
 1444SOL    HW2 6018   0.271   0.522   2.842
 1444SOL    HW3 6019   0.316   0.459   2.712
 1444SOL    MW4 6020   0.267   0.517   2.755
 1445SOL     OW 6021   0.215   0.764   2.650
 1445SOL    HW2 6022   0.297   0.800   2.685
 1445SOL    HW3 6023   0.217   0.672   2.676
 1445SOL    MW4 6024   0.226   0.757   2.658
 1446SOL     OW 6025   0.006   0.902   2.760
 1446SOL    HW2 6026  -0.064   0.838   2.741
 1446SOL    HW3 6027   0.085   0.862   2.723
 1446SOL    MW4 6028   0.007   0.888   2.752
 1447SOL     OW 6029   4.484   1.160   2.644
 1447SOL    HW2 6030   4.562   1.201   2.681
 1447SOL    HW3 6031   4.486   1.070   2.678
 1447SOL    MW4 6032   4.495   1.153   2.653
 1448SOL     OW 6033   0.214   1.275   2.752
 1448SOL    HW2 6034   0.280   1.225   2.705
 1448SOL    HW3 6035   0.221   1.364   2.717
 1448SOL    MW4 6036   0.223   1.280   2.741
 1449SOL     OW 6037   0.219   1.521   2.629
 1449SOL    HW2 6038   0.303   1.559   2.654
 1449SOL    HW3 6039   0.153   1.576   2.670
 1449SOL    MW4 6040   0.222   1.533   2.638
 1450SOL     OW 6041   0.043   1.694   2.764
 1450SOL    HW2 6042   0.018   1.698   2.856
 1450SOL    HW3 6043   0.018   1.779   2.728
 1450SOL    MW4 6044   0.036   1.706   2.771
 1451SOL     OW 6045   4.463   1.942   2.662
 1451SOL    HW2 6046   4.546   1.983   2.685
 1451SOL    HW3 6047   4.462   1.940   2.567
 1451SOL    MW4 6048   4.474   1.947   2.653
 1452SOL     OW 6049   0.223   2.053   2.714
 1452SOL    HW2 6050   0.298   2.001   2.683
 1452SOL    HW3 6051   0.244   2.142   2.688
 1452SOL    MW4 6052   0.236   2.058   2.707
 1453SOL     OW 6053   0.246   2.328   2.661
 1453SOL    HW2 6054   0.321   2.375   2.698
 1453SOL    HW3 6055   0.171   2.362   2.710
 1453SOL    MW4 6056   0.246   2.339   2.672
 1454SOL     OW 6057   0.020   2.425   2.764
 1454SOL    HW2 6058   0.018   2.425   2.860
 1454SOL    HW3 6059  -0.061   2.380   2.739
 1454SOL    MW4 6060   0.009   2.419   2.774
 1455SOL     OW 6061   0.002   2.668   2.593
 1455SOL    HW2 6062  -0.056   2.735   2.629
 1455SOL    HW3 6063  -0.009   2.593   2.652
 1455SOL    MW4 6064  -0.007   2.667   2.605
 1456SOL     OW 6065   0.238   2.825   2.699
 1456SOL    HW2 6066   0.219   2.916   2.675
 1456SOL    HW3 6067   0.158   2.777   2.675
 1456SOL    MW4 6068   0.225   2.831   2.693
 1457SOL     OW 6069   0.212   3.081   2.623
 1457SOL    HW2 6070   0.291   3.118   2.662
 1457SOL    HW3 6071   0.223   3.095   2.529
 1457SOL    MW4 6072   0.224   3.088   2.616
 1458SOL     OW 6073   4.484   3.212   2.740
 1458SOL    HW2 6074   4.415   3.161   2.697
 1458SOL    HW3 6075   4.564   3.188   2.693
 1458SOL    MW4 6076   4.485   3.202   2.728
 1459SOL     OW 6077   4.451   3.494   2.689
 1459SOL    HW2 6078   4.544   3.511   2.705
 1459SOL    HW3 6079   4.436   3.406   2.723
 1459SOL    MW4 6080   4.461   3.485   2.696
 1460SOL     OW 6081   0.211   3.582   2.746
 1460SOL    HW2 6082   0.208   3.582   2.842
 1460SOL    HW3 6083   0.295   3.542   2.724
 1460SOL    MW4 6084   0.221   3.577   2.756
 1461SOL     OW 6085   0.212   3.859   2.667
 1461SOL    HW2 6086   0.205   3.766   2.692
 1461SOL    HW3 6087   0.228   3.857   2.572
 1461SOL    MW4 6088   0.213   3.846   2.658
 1462SOL     OW 6089   4.488   4.021   2.747
 1462SOL    HW2 6090   4.479   4.102   2.696
 1462SOL    HW3 6091   4.561   3.975   2.706
 1462SOL    MW4 6092   4.496   4.026   2.735
 1463SOL     OW 6093   0.008   4.268   2.606
 1463SOL    HW2 6094  -0.062   4.314   2.652
 1463SOL    HW3 6095   0.088   4.291   2.654
 1463SOL    MW4 6096   0.009   4.277   2.618
 1464SOL     OW 6097   0.223   4.394   2.743
 1464SOL    HW2 6098   0.239   4.379   2.836
 1464SOL    HW3 6099   0.301   4.360   2.699
 1464SOL    MW4 6100   0.235   4.388   2.749
 1465SOL     OW 6101   0.664   4.639   2.645
 1465SOL    HW2 6102   0.734   4.700   2.668
 1465SOL    HW3 6103   0.583   4.683   2.673
 1465SOL    MW4 6104   0.662   4.653   2.651
 1466SOL     OW 6105   0.459   0.100   2.742
 1466SOL    HW2 6106   0.461   0.086   2.836
 1466SOL    HW3 6107   0.377   0.060   2.713
 1466SOL    MW4 6108   0.448   0.093   2.750
 1467SOL     OW 6109   0.470   0.379   2.632
 1467SOL    HW2 6110   0.531   0.432   2.683
 1467SOL    HW3 6111   0.479   0.291   2.670
 1467SOL    MW4 6112   0.479   0.374   2.644
 1468SOL     OW 6113   0.658   0.506   2.775
 1468SOL    HW2 6114   0.656   0.509   2.870
 1468SOL    HW3 6115   0.743   0.468   2.754
 1468SOL    MW4 6116   0.669   0.501   2.785
 1469SOL     OW 6117   0.697   0.731   2.628
 1469SOL    HW2 6118   0.778   0.772   2.660
 1469SOL    HW3 6119   0.687   0.653   2.683
 1469SOL    MW4 6120   0.707   0.726   2.640
 1470SOL     OW 6121   0.468   0.858   2.742
 1470SOL    HW2 6122   0.465   0.939   2.692
 1470SOL    HW3 6123   0.542   0.809   2.705
 1470SOL    MW4 6124   0.477   0.862   2.731
 1471SOL     OW 6125   0.412   1.122   2.656
 1471SOL    HW2 6126   0.486   1.164   2.700
 1471SOL    HW3 6127   0.424   1.142   2.564
 1471SOL    MW4 6128   0.423   1.130   2.650
 1472SOL     OW 6129   0.640   1.241   2.769
 1472SOL    HW2 6130   0.643   1.249   2.864
 1472SOL    HW3 6131   0.721   1.196   2.745
 1472SOL    MW4 6132   0.651   1.236   2.778
 1473SOL     OW 6133   0.666   1.494   2.633
 1473SOL    HW2 6134   0.597   1.551   2.666
 1473SOL    HW3 6135   0.644   1.407   2.668
 1473SOL    MW4 6136   0.654   1.490   2.642
 1474SOL     OW 6137   0.446   1.650   2.714
 1474SOL    HW2 6138   0.447   1.664   2.809
 1474SOL    HW3 6139   0.455   1.737   2.677
 1474SOL    MW4 6140   0.447   1.663   2.722
 1475SOL     OW 6141   0.447   1.908   2.622
 1475SOL    HW2 6142   0.521   1.963   2.646
 1475SOL    HW3 6143   0.445   1.911   2.526
 1475SOL    MW4 6144   0.456   1.915   2.612
 1476SOL     OW 6145   0.660   2.062   2.701
 1476SOL    HW2 6146   0.658   2.071   2.796
 1476SOL    HW3 6147   0.744   2.020   2.682
 1476SOL    MW4 6148   0.671   2.058   2.711
 1477SOL     OW 6149   0.664   2.320   2.626
 1477SOL    HW2 6150   0.748   2.355   2.657
 1477SOL    HW3 6151   0.668   2.227   2.648
 1477SOL    MW4 6152   0.676   2.312   2.633
 1478SOL     OW 6153   0.473   2.457   2.766
 1478SOL    HW2 6154   0.466   2.537   2.713
 1478SOL    HW3 6155   0.537   2.403   2.720
 1478SOL    MW4 6156   0.481   2.460   2.753
 1479SOL     OW 6157   0.471   2.698   2.616
 1479SOL    HW2 6158   0.545   2.746   2.652
 1479SOL    HW3 6159   0.394   2.742   2.653
 1479SOL    MW4 6160   0.471   2.710   2.625
 1480SOL     OW 6161   0.674   2.818   2.748
 1480SOL    HW2 6162   0.652   2.840   2.839
 1480SOL    HW3 6163   0.673   2.902   2.703
 1480SOL    MW4 6164   0.671   2.832   2.754
 1481SOL     OW 6165   0.678   3.094   2.676
 1481SOL    HW2 6166   0.761   3.121   2.715
 1481SOL    HW3 6167   0.691   3.104   2.582
 1481SOL    MW4 6168   0.691   3.099   2.669
 1482SOL     OW 6169   0.433   3.176   2.782
 1482SOL    HW2 6170   0.429   3.190   2.876
 1482SOL    HW3 6171   0.517   3.132   2.768
 1482SOL    MW4 6172   0.444   3.172   2.792
 1483SOL     OW 6173   0.458   3.461   2.680
 1483SOL    HW2 6174   0.448   3.368   2.701
 1483SOL    HW3 6175   0.463   3.463   2.584
 1483SOL    MW4 6176   0.458   3.449   2.670
 1484SOL     OW 6177   0.673   3.619   2.718
 1484SOL    HW2 6178   0.667   3.641   2.811
 1484SOL    HW3 6179   0.596   3.566   2.700
 1484SOL    MW4 6180   0.662   3.615   2.727
 1485SOL     OW 6181   0.641   3.885   2.622
 1485SOL    HW2 6182   0.577   3.918   2.684
 1485SOL    HW3 6183   0.657   3.795   2.649
 1485SOL    MW4 6184   0.635   3.878   2.634
 1486SOL     OW 6185   0.442   4.020   2.759
 1486SOL    HW2 6186   0.438   4.100   2.707
 1486SOL    HW3 6187   0.361   3.973   2.737
 1486SOL    MW4 6188   0.431   4.025   2.749
 1487SOL     OW 6189   0.457   4.285   2.652
 1487SOL    HW2 6190   0.523   4.332   2.702
 1487SOL    HW3 6191   0.484   4.294   2.561
 1487SOL    MW4 6192   0.469   4.292   2.647
 1488SOL     OW 6193   0.661   4.396   2.788
 1488SOL    HW2 6194   0.738   4.347   2.758
 1488SOL    HW3 6195   0.663   4.477   2.737
 1488SOL    MW4 6196   0.671   4.400   2.777
 1489SOL     OW 6197   1.130   4.617   2.634
 1489SOL    HW2 6198   1.209   4.651   2.675
 1489SOL    HW3 6199   1.126   4.525   2.662
 1489SOL    MW4 6200   1.140   4.609   2.644
 1490SOL     OW 6201   0.903   0.110   2.723
 1490SOL    HW2 6202   0.907   0.111   2.818
 1490SOL    HW3 6203   0.986   0.070   2.696
 1490SOL    MW4 6204   0.914   0.105   2.732
 1491SOL     OW 6205   0.889   0.391   2.673
 1491SOL    HW2 6206   0.885   0.295   2.679
 1491SOL    HW3 6207   0.901   0.408   2.579
 1491SOL    MW4 6208   0.890   0.380   2.661
 1492SOL     OW 6209   1.133   0.486   2.737
 1492SOL    HW2 6210   1.128   0.577   2.708
 1492SOL    HW3 6211   1.052   0.446   2.705
 1492SOL    MW4 6212   1.122   0.492   2.729
 1493SOL     OW 6213   1.124   0.754   2.656
 1493SOL    HW2 6214   1.195   0.805   2.696
 1493SOL    HW3 6215   1.143   0.758   2.562
 1493SOL    MW4 6216   1.136   0.761   2.649
 1494SOL     OW 6217   0.901   0.872   2.755
 1494SOL    HW2 6218   0.916   0.893   2.847
 1494SOL    HW3 6219   0.980   0.825   2.727
 1494SOL    MW4 6220   0.913   0.868   2.763
 1495SOL     OW 6221   0.881   1.136   2.690
 1495SOL    HW2 6222   0.894   1.042   2.696
 1495SOL    HW3 6223   0.909   1.158   2.601
 1495SOL    MW4 6224   0.886   1.127   2.679
 1496SOL     OW 6225   1.109   1.240   2.804
 1496SOL    HW2 6226   1.118   1.310   2.739
 1496SOL    HW3 6227   1.023   1.201   2.785
 1496SOL    MW4 6228   1.099   1.244   2.793
 1497SOL     OW 6229   1.122   1.478   2.641
 1497SOL    HW2 6230   1.047   1.535   2.656
 1497SOL    HW3 6231   1.134   1.478   2.546
 1497SOL    MW4 6232   1.113   1.486   2.630
 1498SOL     OW 6233   0.899   1.634   2.709
 1498SOL    HW2 6234   0.895   1.639   2.805
 1498SOL    HW3 6235   0.836   1.567   2.686
 1498SOL    MW4 6236   0.890   1.626   2.719
 1499SOL     OW 6237   0.884   1.908   2.609
 1499SOL    HW2 6238   0.954   1.960   2.648
 1499SOL    HW3 6239   0.910   1.817   2.625
 1499SOL    MW4 6240   0.897   1.903   2.616
 1500SOL     OW 6241   1.101   2.062   2.716
 1500SOL    HW2 6242   1.184   2.023   2.692
 1500SOL    HW3 6243   1.102   2.149   2.674
 1500SOL    MW4 6244   1.112   2.069   2.707
 1501SOL     OW 6245   1.124   2.318   2.619
 1501SOL    HW2 6246   1.202   2.363   2.651
 1501SOL    HW3 6247   1.118   2.343   2.527
 1501SOL    MW4 6248   1.133   2.327   2.611
 1502SOL     OW 6249   0.904   2.409   2.743
 1502SOL    HW2 6250   0.902   2.499   2.712
 1502SOL    HW3 6251   0.979   2.370   2.698
 1502SOL    MW4 6252   0.914   2.416   2.733
 1503SOL     OW 6253   0.874   2.673   2.635
 1503SOL    HW2 6254   0.947   2.714   2.680
 1503SOL    HW3 6255   0.796   2.710   2.676
 1503SOL    MW4 6256   0.873   2.683   2.646
 1504SOL     OW 6257   1.083   2.832   2.735
 1504SOL    HW2 6258   1.106   2.825   2.828
 1504SOL    HW3 6259   1.159   2.795   2.689
 1504SOL    MW4 6260   1.096   2.826   2.741
 1505SOL     OW 6261   1.148   3.096   2.655
 1505SOL    HW2 6262   1.122   3.007   2.677
 1505SOL    HW3 6263   1.136   3.101   2.560
 1505SOL    MW4 6264   1.143   3.085   2.645
 1506SOL     OW 6265   0.919   3.208   2.767
 1506SOL    HW2 6266   0.903   3.287   2.715
 1506SOL    HW3 6267   1.006   3.179   2.741
 1506SOL    MW4 6268   0.929   3.215   2.757
 1507SOL     OW 6269   0.887   3.462   2.637
 1507SOL    HW2 6270   0.960   3.509   2.676
 1507SOL    HW3 6271   0.810   3.512   2.664
 1507SOL    MW4 6272   0.886   3.475   2.646
 1508SOL     OW 6273   1.102   3.599   2.774
 1508SOL    HW2 6274   1.101   3.626   2.866
 1508SOL    HW3 6275   1.100   3.682   2.725
 1508SOL    MW4 6276   1.102   3.614   2.780
 1509SOL     OW 6277   1.098   3.851   2.622
 1509SOL    HW2 6278   1.178   3.889   2.659
 1509SOL    HW3 6279   1.111   3.859   2.527
 1509SOL    MW4 6280   1.110   3.857   2.614
 1510SOL     OW 6281   0.893   4.008   2.729
 1510SOL    HW2 6282   0.957   3.963   2.674
 1510SOL    HW3 6283   0.809   3.968   2.704
 1510SOL    MW4 6284   0.890   3.997   2.718
 1511SOL     OW 6285   0.888   4.266   2.665
 1511SOL    HW2 6286   0.892   4.173   2.689
 1511SOL    HW3 6287   0.884   4.265   2.569
 1511SOL    MW4 6288   0.888   4.253   2.655
 1512SOL     OW 6289   1.144   4.351   2.722
 1512SOL    HW2 6290   1.137   4.378   2.813
 1512SOL    HW3 6291   1.055   4.327   2.697
 1512SOL    MW4 6292   1.131   4.351   2.731
 1513SOL     OW 6293   1.593   4.643   2.655
 1513SOL    HW2 6294   1.588   4.549   2.671
 1513SOL    HW3 6295   1.581   4.652   2.561
 1513SOL    MW4 6296   1.591   4.632   2.645
 1514SOL     OW 6297   1.351   0.086   2.746
 1514SOL    HW2 6298   1.350   0.171   2.702
 1514SOL    HW3 6299   1.436   0.049   2.726
 1514SOL    MW4 6300   1.362   0.093   2.737
 1515SOL     OW 6301   1.360   0.344   2.646
 1515SOL    HW2 6302   1.437   0.387   2.682
 1515SOL    HW3 6303   1.286   0.396   2.678
 1515SOL    MW4 6304   1.360   0.356   2.655
 1516SOL     OW 6305   1.566   0.501   2.735
 1516SOL    HW2 6306   1.641   0.458   2.694
 1516SOL    HW3 6307   1.565   0.589   2.695
 1516SOL    MW4 6308   1.576   0.507   2.724
 1517SOL     OW 6309   1.571   0.749   2.637
 1517SOL    HW2 6310   1.490   0.778   2.680
 1517SOL    HW3 6311   1.566   0.787   2.549
 1517SOL    MW4 6312   1.559   0.758   2.631
 1518SOL     OW 6313   1.337   0.859   2.764
 1518SOL    HW2 6314   1.328   0.833   2.856
 1518SOL    HW3 6315   1.331   0.955   2.766
 1518SOL    MW4 6316   1.335   0.869   2.776
 1519SOL     OW 6317   1.335   1.125   2.679
 1519SOL    HW2 6318   1.413   1.167   2.716
 1519SOL    HW3 6319   1.262   1.163   2.728
 1519SOL    MW4 6320   1.335   1.135   2.691
 1520SOL     OW 6321   1.558   1.260   2.777
 1520SOL    HW2 6322   1.578   1.271   2.870
 1520SOL    HW3 6323   1.639   1.228   2.738
 1520SOL    MW4 6324   1.571   1.257   2.784
 1521SOL     OW 6325   1.515   1.539   2.694
 1521SOL    HW2 6326   1.527   1.446   2.716
 1521SOL    HW3 6327   1.510   1.540   2.598
 1521SOL    MW4 6328   1.516   1.526   2.684
 1522SOL     OW 6329   1.300   1.665   2.776
 1522SOL    HW2 6330   1.380   1.625   2.743
 1522SOL    HW3 6331   1.230   1.605   2.749
 1522SOL    MW4 6332   1.301   1.652   2.768
 1523SOL     OW 6333   1.342   1.924   2.641
 1523SOL    HW2 6334   1.316   1.841   2.679
 1523SOL    HW3 6335   1.337   1.911   2.547
 1523SOL    MW4 6336   1.338   1.911   2.634
 1524SOL     OW 6337   1.584   2.067   2.742
 1524SOL    HW2 6338   1.662   2.038   2.695
 1524SOL    HW3 6339   1.515   2.006   2.713
 1524SOL    MW4 6340   1.585   2.055   2.732
 1525SOL     OW 6341   1.562   2.317   2.654
 1525SOL    HW2 6342   1.644   2.356   2.682
 1525SOL    HW3 6343   1.565   2.227   2.688
 1525SOL    MW4 6344   1.573   2.310   2.662
 1526SOL     OW 6345   1.332   2.452   2.719
 1526SOL    HW2 6346   1.338   2.539   2.679
 1526SOL    HW3 6347   1.416   2.411   2.698
 1526SOL    MW4 6348   1.344   2.458   2.711
 1527SOL     OW 6349   1.329   2.709   2.634
 1527SOL    HW2 6350   1.409   2.736   2.678
 1527SOL    HW3 6351   1.351   2.707   2.541
 1527SOL    MW4 6352   1.342   2.712   2.628
 1528SOL     OW 6353   1.573   2.787   2.713
 1528SOL    HW2 6354   1.569   2.818   2.803
 1528SOL    HW3 6355   1.663   2.757   2.702
 1528SOL    MW4 6356   1.584   2.787   2.723
 1529SOL     OW 6357   1.597   3.047   2.609
 1529SOL    HW2 6358   1.667   3.093   2.655
 1529SOL    HW3 6359   1.593   2.961   2.651
 1529SOL    MW4 6360   1.606   3.042   2.621
 1530SOL     OW 6361   1.387   3.208   2.711
 1530SOL    HW2 6362   1.448   3.151   2.664
 1530SOL    HW3 6363   1.303   3.163   2.704
 1530SOL    MW4 6364   1.384   3.194   2.704
 1531SOL     OW 6365   1.302   3.459   2.618
 1531SOL    HW2 6366   1.319   3.370   2.647
 1531SOL    HW3 6367   1.230   3.490   2.672
 1531SOL    MW4 6368   1.295   3.452   2.629
 1532SOL     OW 6369   1.556   3.601   2.701
 1532SOL    HW2 6370   1.633   3.551   2.674
 1532SOL    HW3 6371   1.482   3.544   2.680
 1532SOL    MW4 6372   1.556   3.587   2.695
 1533SOL     OW 6373   1.581   3.904   2.648
 1533SOL    HW2 6374   1.495   3.930   2.679
 1533SOL    HW3 6375   1.587   3.811   2.667
 1533SOL    MW4 6376   1.571   3.895   2.655
 1534SOL     OW 6377   1.337   3.976   2.743
 1534SOL    HW2 6378   1.345   3.982   2.838
 1534SOL    HW3 6379   1.341   4.066   2.712
 1534SOL    MW4 6380   1.339   3.988   2.751
 1535SOL     OW 6381   1.379   4.239   2.641
 1535SOL    HW2 6382   1.294   4.278   2.664
 1535SOL    HW3 6383   1.382   4.243   2.545
 1535SOL    MW4 6384   1.368   4.245   2.631
 1536SOL     OW 6385   1.571   4.383   2.737
 1536SOL    HW2 6386   1.552   4.406   2.828
 1536SOL    HW3 6387   1.493   4.335   2.708
 1536SOL    MW4 6388   1.558   4.379   2.746
 1537SOL     OW 6389   2.016   0.050   2.649
 1537SOL    HW2 6390   2.102   0.072   2.685
 1537SOL    HW3 6391   2.031   0.038   2.555
 1537SOL    MW4 6392   2.029   0.051   2.641
 1538SOL     OW 6393   1.789   0.149   2.771
 1538SOL    HW2 6394   1.873   0.112   2.744
 1538SOL    HW3 6395   1.724   0.099   2.722
 1538SOL    MW4 6396   1.791   0.137   2.761
 1539SOL     OW 6397   1.769   0.374   2.615
 1539SOL    HW2 6398   1.854   0.408   2.643
 1539SOL    HW3 6399   1.753   0.298   2.672
 1539SOL    MW4 6400   1.778   0.368   2.626
 1540SOL     OW 6401   1.984   0.492   2.745
 1540SOL    HW2 6402   2.064   0.448   2.715
 1540SOL    HW3 6403   1.998   0.584   2.720
 1540SOL    MW4 6404   1.996   0.499   2.738
 1541SOL     OW 6405   2.029   0.754   2.647
 1541SOL    HW2 6406   1.949   0.800   2.671
 1541SOL    HW3 6407   2.029   0.755   2.551
 1541SOL    MW4 6408   2.019   0.760   2.637
 1542SOL     OW 6409   1.807   0.875   2.734
 1542SOL    HW2 6410   1.806   0.961   2.693
 1542SOL    HW3 6411   1.742   0.824   2.685
 1542SOL    MW4 6412   1.799   0.880   2.722
 1543SOL     OW 6413   1.780   1.168   2.642
 1543SOL    HW2 6414   1.863   1.209   2.665
 1543SOL    HW3 6415   1.776   1.175   2.546
 1543SOL    MW4 6416   1.790   1.174   2.632
 1544SOL     OW 6417   2.011   1.304   2.718
 1544SOL    HW2 6418   2.021   1.309   2.813
 1544SOL    HW3 6419   2.097   1.274   2.687
 1544SOL    MW4 6420   2.024   1.301   2.727
 1545SOL     OW 6421   2.000   1.556   2.603
 1545SOL    HW2 6422   1.926   1.601   2.642
 1545SOL    HW3 6423   1.996   1.467   2.639
 1545SOL    MW4 6424   1.990   1.550   2.613
 1546SOL     OW 6425   1.774   1.708   2.719
 1546SOL    HW2 6426   1.772   1.700   2.815
 1546SOL    HW3 6427   1.696   1.663   2.690
 1546SOL    MW4 6428   1.764   1.701   2.728
 1547SOL     OW 6429   1.794   1.958   2.612
 1547SOL    HW2 6430   1.878   1.994   2.640
 1547SOL    HW3 6431   1.783   1.878   2.663
 1547SOL    MW4 6432   1.804   1.952   2.622
 1548SOL     OW 6433   2.041   2.066   2.691
 1548SOL    HW2 6434   2.045   2.088   2.785
 1548SOL    HW3 6435   2.035   2.151   2.647
 1548SOL    MW4 6436   2.041   2.080   2.698
 1549SOL     OW 6437   2.046   2.326   2.577
 1549SOL    HW2 6438   2.126   2.374   2.600
 1549SOL    HW3 6439   2.042   2.333   2.481
 1549SOL    MW4 6440   2.056   2.333   2.567
 1550SOL     OW 6441   1.823   2.409   2.713
 1550SOL    HW2 6442   1.833   2.391   2.806
 1550SOL    HW3 6443   1.911   2.396   2.677
 1550SOL    MW4 6444   1.836   2.405   2.720
 1551SOL     OW 6445   1.832   2.682   2.643
 1551SOL    HW2 6446   1.826   2.589   2.663
 1551SOL    HW3 6447   1.845   2.686   2.549
 1551SOL    MW4 6448   1.833   2.670   2.634
 1552SOL     OW 6449   2.025   2.851   2.751
 1552SOL    HW2 6450   2.105   2.807   2.721
 1552SOL    HW3 6451   1.954   2.798   2.716
 1552SOL    MW4 6452   2.026   2.838   2.742
 1553SOL     OW 6453   2.045   3.121   2.641
 1553SOL    HW2 6454   2.049   3.034   2.679
 1553SOL    HW3 6455   2.054   3.107   2.547
 1553SOL    MW4 6456   2.046   3.108   2.633
 1554SOL     OW 6457   1.788   3.219   2.702
 1554SOL    HW2 6458   1.804   3.311   2.681
 1554SOL    HW3 6459   1.873   3.176   2.689
 1554SOL    MW4 6460   1.801   3.226   2.698
 1555SOL     OW 6461   1.803   3.479   2.622
 1555SOL    HW2 6462   1.882   3.528   2.646
 1555SOL    HW3 6463   1.799   3.483   2.527
 1555SOL    MW4 6464   1.813   3.486   2.613
 1556SOL     OW 6465   2.017   3.630   2.708
 1556SOL    HW2 6466   2.029   3.615   2.802
 1556SOL    HW3 6467   2.079   3.571   2.666
 1556SOL    MW4 6468   2.027   3.620   2.715
 1557SOL     OW 6469   2.012   3.900   2.640
 1557SOL    HW2 6470   1.943   3.947   2.687
 1557SOL    HW3 6471   2.004   3.809   2.670
 1557SOL    MW4 6472   2.002   3.894   2.650
 1558SOL     OW 6473   1.796   4.017   2.798
 1558SOL    HW2 6474   1.824   4.097   2.753
 1558SOL    HW3 6475   1.730   3.979   2.740
 1558SOL    MW4 6476   1.791   4.023   2.785
 1559SOL     OW 6477   1.841   4.273   2.648
 1559SOL    HW2 6478   1.749   4.293   2.665
 1559SOL    HW3 6479   1.847   4.265   2.553
 1559SOL    MW4 6480   1.830   4.275   2.638
 1560SOL     OW 6481   2.041   4.447   2.744
 1560SOL    HW2 6482   1.967   4.402   2.702
 1560SOL    HW3 6483   2.037   4.536   2.710
 1560SOL    MW4 6484   2.031   4.452   2.734
 1561SOL     OW 6485   2.492   4.641   2.646
 1561SOL    HW2 6486   2.555   4.700   2.687
 1561SOL    HW3 6487   2.503   4.656   2.552
 1561SOL    MW4 6488   2.501   4.651   2.639
 1562SOL     OW 6489   2.271   0.121   2.744
 1562SOL    HW2 6490   2.267   0.097   2.837
 1562SOL    HW3 6491   2.334   0.060   2.706
 1562SOL    MW4 6492   2.279   0.110   2.751
 1563SOL     OW 6493   2.221   0.358   2.633
 1563SOL    HW2 6494   2.266   0.278   2.659
 1563SOL    HW3 6495   2.212   0.351   2.538
 1563SOL    MW4 6496   2.226   0.346   2.623
 1564SOL     OW 6497   2.457   0.502   2.722
 1564SOL    HW2 6498   2.458   0.593   2.695
 1564SOL    HW3 6499   2.374   0.468   2.688
 1564SOL    MW4 6500   2.446   0.509   2.714
 1565SOL     OW 6501   2.466   0.759   2.629
 1565SOL    HW2 6502   2.404   0.829   2.648
 1565SOL    HW3 6503   2.465   0.752   2.534
 1565SOL    MW4 6504   2.458   0.767   2.619
 1566SOL     OW 6505   2.259   0.925   2.703
 1566SOL    HW2 6506   2.274   0.928   2.797
 1566SOL    HW3 6507   2.180   0.872   2.693
 1566SOL    MW4 6508   2.250   0.918   2.714
 1567SOL     OW 6509   2.245   1.176   2.575
 1567SOL    HW2 6510   2.265   1.086   2.600
 1567SOL    HW3 6511   2.232   1.172   2.480
 1567SOL    MW4 6512   2.246   1.163   2.566
 1568SOL     OW 6513   2.486   1.264   2.709
 1568SOL    HW2 6514   2.563   1.224   2.668
 1568SOL    HW3 6515   2.411   1.227   2.661
 1568SOL    MW4 6516   2.486   1.254   2.697
 1569SOL     OW 6517   2.478   1.569   2.658
 1569SOL    HW2 6518   2.397   1.599   2.700
 1569SOL    HW3 6519   2.476   1.474   2.669
 1569SOL    MW4 6520   2.467   1.560   2.665
 1570SOL     OW 6521   2.215   1.683   2.736
 1570SOL    HW2 6522   2.233   1.767   2.693
 1570SOL    HW3 6523   2.143   1.645   2.685
 1570SOL    MW4 6524   2.208   1.689   2.724
 1571SOL     OW 6525   2.257   1.917   2.599
 1571SOL    HW2 6526   2.183   1.960   2.641
 1571SOL    HW3 6527   2.248   1.939   2.506
 1571SOL    MW4 6528   2.246   1.926   2.592
 1572SOL     OW 6529   2.482   2.035   2.715
 1572SOL    HW2 6530   2.478   2.115   2.662
 1572SOL    HW3 6531   2.402   1.988   2.693
 1572SOL    MW4 6532   2.471   2.039   2.705
 1573SOL     OW 6533   2.510   2.300   2.619
 1573SOL    HW2 6534   2.578   2.363   2.638
 1573SOL    HW3 6535   2.498   2.305   2.524
 1573SOL    MW4 6536   2.517   2.309   2.609
 1574SOL     OW 6537   2.283   2.439   2.679
 1574SOL    HW2 6538   2.282   2.456   2.774
 1574SOL    HW3 6539   2.369   2.401   2.663
 1574SOL    MW4 6540   2.294   2.436   2.690
 1575SOL     OW 6541   2.252   2.732   2.644
 1575SOL    HW2 6542   2.334   2.772   2.675
 1575SOL    HW3 6543   2.273   2.639   2.637
 1575SOL    MW4 6544   2.266   2.725   2.647
 1576SOL     OW 6545   2.484   2.843   2.754
 1576SOL    HW2 6546   2.567   2.800   2.736
 1576SOL    HW3 6547   2.493   2.930   2.715
 1576SOL    MW4 6548   2.496   2.849   2.747
 1577SOL     OW 6549   2.477   3.115   2.642
 1577SOL    HW2 6550   2.402   3.150   2.691
 1577SOL    HW3 6551   2.455   3.131   2.551
 1577SOL    MW4 6552   2.464   3.122   2.637
 1578SOL     OW 6553   2.247   3.248   2.762
 1578SOL    HW2 6554   2.257   3.222   2.854
 1578SOL    HW3 6555   2.174   3.196   2.730
 1578SOL    MW4 6556   2.238   3.238   2.770
 1579SOL     OW 6557   2.255   3.480   2.600
 1579SOL    HW2 6558   2.336   3.527   2.621
 1579SOL    HW3 6559   2.253   3.408   2.663
 1579SOL    MW4 6560   2.265   3.477   2.611
 1580SOL     OW 6561   2.468   3.622   2.685
 1580SOL    HW2 6562   2.451   3.624   2.779
 1580SOL    HW3 6563   2.461   3.714   2.658
 1580SOL    MW4 6564   2.465   3.635   2.693
 1581SOL     OW 6565   2.443   3.898   2.628
 1581SOL    HW2 6566   2.520   3.943   2.663
 1581SOL    HW3 6567   2.371   3.932   2.680
 1581SOL    MW4 6568   2.444   3.908   2.640
 1582SOL     OW 6569   2.229   4.032   2.750
 1582SOL    HW2 6570   2.214   4.023   2.845
 1582SOL    HW3 6571   2.151   3.995   2.710
 1582SOL    MW4 6572   2.217   4.026   2.757
 1583SOL     OW 6573   2.235   4.285   2.621
 1583SOL    HW2 6574   2.237   4.205   2.674
 1583SOL    HW3 6575   2.170   4.340   2.664
 1583SOL    MW4 6576   2.227   4.282   2.634
 1584SOL     OW 6577   2.420   4.404   2.775
 1584SOL    HW2 6578   2.348   4.370   2.722
 1584SOL    HW3 6579   2.446   4.485   2.731
 1584SOL    MW4 6580   2.414   4.411   2.762
 1585SOL     OW 6581   2.926   0.002   2.612
 1585SOL    HW2 6582   3.007   0.042   2.644
 1585SOL    HW3 6583   2.934   0.005   2.517
 1585SOL    MW4 6584   2.938   0.007   2.604
 1586SOL     OW 6585   2.688   0.144   2.738
 1586SOL    HW2 6586   2.691   0.129   2.832
 1586SOL    HW3 6587   2.766   0.099   2.704
 1586SOL    MW4 6588   2.699   0.136   2.746
 1587SOL     OW 6589   2.639   0.380   2.579
 1587SOL    HW2 6590   2.642   0.298   2.627
 1587SOL    HW3 6591   2.576   0.434   2.627
 1587SOL    MW4 6592   2.631   0.377   2.592
 1588SOL     OW 6593   2.897   0.474   2.697
 1588SOL    HW2 6594   2.892   0.569   2.695
 1588SOL    HW3 6595   2.830   0.444   2.636
 1588SOL    MW4 6596   2.888   0.482   2.689
 1589SOL     OW 6597   2.888   0.756   2.632
 1589SOL    HW2 6598   2.965   0.811   2.648
 1589SOL    HW3 6599   2.814   0.812   2.658
 1589SOL    MW4 6600   2.888   0.771   2.638
 1590SOL     OW 6601   2.674   0.915   2.724
 1590SOL    HW2 6602   2.676   0.889   2.816
 1590SOL    HW3 6603   2.615   0.853   2.682
 1590SOL    MW4 6604   2.667   0.904   2.730
 1591SOL     OW 6605   2.698   1.152   2.594
 1591SOL    HW2 6606   2.772   1.192   2.640
 1591SOL    HW3 6607   2.687   1.067   2.636
 1591SOL    MW4 6608   2.706   1.146   2.606
 1592SOL     OW 6609   2.900   1.295   2.718
 1592SOL    HW2 6610   2.896   1.295   2.814
 1592SOL    HW3 6611   2.984   1.254   2.698
 1592SOL    MW4 6612   2.910   1.289   2.728
 1593SOL     OW 6613   2.940   1.548   2.622
 1593SOL    HW2 6614   2.862   1.600   2.640
 1593SOL    HW3 6615   2.924   1.464   2.664
 1593SOL    MW4 6616   2.928   1.544   2.630
 1594SOL     OW 6617   2.725   1.694   2.724
 1594SOL    HW2 6618   2.715   1.721   2.815
 1594SOL    HW3 6619   2.653   1.632   2.710
 1594SOL    MW4 6620   2.714   1.689   2.734
 1595SOL     OW 6621   2.702   1.925   2.586
 1595SOL    HW2 6622   2.719   1.840   2.627
 1595SOL    HW3 6623   2.638   1.967   2.644
 1595SOL    MW4 6624   2.696   1.919   2.599
 1596SOL     OW 6625   2.910   2.054   2.734
 1596SOL    HW2 6626   2.917   2.141   2.696
 1596SOL    HW3 6627   2.842   2.010   2.682
 1596SOL    MW4 6628   2.902   2.060   2.722
 1597SOL     OW 6629   2.934   2.292   2.608
 1597SOL    HW2 6630   3.016   2.337   2.629
 1597SOL    HW3 6631   2.866   2.350   2.643
 1597SOL    MW4 6632   2.936   2.306   2.615
 1598SOL     OW 6633   2.719   2.451   2.684
 1598SOL    HW2 6634   2.714   2.454   2.780
 1598SOL    HW3 6635   2.722   2.543   2.658
 1598SOL    MW4 6636   2.719   2.463   2.693
 1599SOL     OW 6637   2.723   2.735   2.649
 1599SOL    HW2 6638   2.801   2.789   2.661
 1599SOL    HW3 6639   2.707   2.738   2.554
 1599SOL    MW4 6640   2.731   2.743   2.638
 1600SOL     OW 6641   2.961   2.851   2.693
 1600SOL    HW2 6642   2.948   2.849   2.788
 1600SOL    HW3 6643   2.968   2.944   2.672
 1600SOL    MW4 6644   2.960   2.863   2.703
 1601SOL     OW 6645   2.968   3.110   2.637
 1601SOL    HW2 6646   2.894   3.164   2.665
 1601SOL    HW3 6647   2.965   3.114   2.541
 1601SOL    MW4 6648   2.958   3.118   2.628
 1602SOL     OW 6649   2.727   3.236   2.703
 1602SOL    HW2 6650   2.723   3.327   2.673
 1602SOL    HW3 6651   2.643   3.198   2.677
 1602SOL    MW4 6652   2.716   3.243   2.695
 1603SOL     OW 6653   2.697   3.497   2.614
 1603SOL    HW2 6654   2.614   3.541   2.633
 1603SOL    HW3 6655   2.703   3.497   2.519
 1603SOL    MW4 6656   2.687   3.503   2.604
 1604SOL     OW 6657   2.918   3.634   2.713
 1604SOL    HW2 6658   2.924   3.611   2.806
 1604SOL    HW3 6659   2.843   3.584   2.681
 1604SOL    MW4 6660   2.909   3.624   2.721
 1605SOL     OW 6661   2.918   3.889   2.606
 1605SOL    HW2 6662   2.989   3.936   2.650
 1605SOL    HW3 6663   2.912   3.805   2.652
 1605SOL    MW4 6664   2.927   3.884   2.618
 1606SOL     OW 6665   2.685   3.982   2.722
 1606SOL    HW2 6666   2.675   4.077   2.718
 1606SOL    HW3 6667   2.765   3.965   2.673
 1606SOL    MW4 6668   2.694   3.992   2.715
 1607SOL     OW 6669   2.650   4.255   2.676
 1607SOL    HW2 6670   2.723   4.309   2.704
 1607SOL    HW3 6671   2.572   4.301   2.708
 1607SOL    MW4 6672   2.649   4.268   2.684
 1608SOL     OW 6673   2.875   4.427   2.741
 1608SOL    HW2 6674   2.850   4.441   2.833
 1608SOL    HW3 6675   2.893   4.514   2.708
 1608SOL    MW4 6676   2.874   4.440   2.749
 1609SOL     OW 6677   3.380   4.659   2.584
 1609SOL    HW2 6678   3.368   4.574   2.626
 1609SOL    HW3 6679   3.315   4.716   2.625
 1609SOL    MW4 6680   3.370   4.656   2.595
 1610SOL     OW 6681   3.137   0.141   2.700
 1610SOL    HW2 6682   3.130   0.125   2.794
 1610SOL    HW3 6683   3.139   0.237   2.691
 1610SOL    MW4 6684   3.136   0.152   2.711
 1611SOL     OW 6685   3.160   0.408   2.619
 1611SOL    HW2 6686   3.074   0.444   2.642
 1611SOL    HW3 6687   3.153   0.385   2.527
 1611SOL    MW4 6688   3.148   0.410   2.610
 1612SOL     OW 6689   3.377   0.530   2.751
 1612SOL    HW2 6690   3.378   0.623   2.727
 1612SOL    HW3 6691   3.310   0.492   2.696
 1612SOL    MW4 6692   3.368   0.537   2.741
 1613SOL     OW 6693   3.359   0.788   2.655
 1613SOL    HW2 6694   3.434   0.842   2.680
 1613SOL    HW3 6695   3.374   0.767   2.562
 1613SOL    MW4 6696   3.371   0.792   2.646
 1614SOL     OW 6697   3.109   0.893   2.692
 1614SOL    HW2 6698   3.111   0.903   2.787
 1614SOL    HW3 6699   3.183   0.836   2.672
 1614SOL    MW4 6700   3.119   0.887   2.701
 1615SOL     OW 6701   3.125   1.171   2.620
 1615SOL    HW2 6702   3.127   1.077   2.633
 1615SOL    HW3 6703   3.129   1.183   2.525
 1615SOL    MW4 6704   3.126   1.161   2.609
 1616SOL     OW 6705   3.355   1.330   2.690
 1616SOL    HW2 6706   3.384   1.316   2.780
 1616SOL    HW3 6707   3.284   1.267   2.677
 1616SOL    MW4 6708   3.350   1.320   2.700
 1617SOL     OW 6709   3.382   1.593   2.626
 1617SOL    HW2 6710   3.306   1.639   2.662
 1617SOL    HW3 6711   3.372   1.503   2.658
 1617SOL    MW4 6712   3.370   1.587   2.635
 1618SOL     OW 6713   3.151   1.680   2.728
 1618SOL    HW2 6714   3.143   1.762   2.679
 1618SOL    HW3 6715   3.087   1.621   2.687
 1618SOL    MW4 6716   3.141   1.683   2.716
 1619SOL     OW 6717   3.133   1.941   2.613
 1619SOL    HW2 6718   3.201   1.976   2.671
 1619SOL    HW3 6719   3.051   1.960   2.658
 1619SOL    MW4 6720   3.131   1.948   2.626
 1620SOL     OW 6721   3.369   2.049   2.730
 1620SOL    HW2 6722   3.366   2.059   2.825
 1620SOL    HW3 6723   3.383   2.138   2.697
 1620SOL    MW4 6724   3.370   2.062   2.738
 1621SOL     OW 6725   3.386   2.306   2.618
 1621SOL    HW2 6726   3.454   2.365   2.650
 1621SOL    HW3 6727   3.386   2.317   2.523
 1621SOL    MW4 6728   3.395   2.315   2.610
 1622SOL     OW 6729   3.158   2.427   2.708
 1622SOL    HW2 6730   3.153   2.511   2.663
 1622SOL    HW3 6731   3.237   2.385   2.674
 1622SOL    MW4 6732   3.167   2.432   2.698
 1623SOL     OW 6733   3.163   2.687   2.595
 1623SOL    HW2 6734   3.228   2.748   2.632
 1623SOL    HW3 6735   3.079   2.726   2.618
 1623SOL    MW4 6736   3.161   2.700   2.603
 1624SOL     OW 6737   3.392   2.854   2.724
 1624SOL    HW2 6738   3.386   2.845   2.819
 1624SOL    HW3 6739   3.466   2.799   2.699
 1624SOL    MW4 6740   3.401   2.846   2.733
 1625SOL     OW 6741   3.390   3.135   2.653
 1625SOL    HW2 6742   3.406   3.048   2.690
 1625SOL    HW3 6743   3.388   3.121   2.559
 1625SOL    MW4 6744   3.392   3.122   2.646
 1626SOL     OW 6745   3.168   3.254   2.766
 1626SOL    HW2 6746   3.248   3.236   2.715
 1626SOL    HW3 6747   3.101   3.201   2.724
 1626SOL    MW4 6748   3.170   3.244   2.754
 1627SOL     OW 6749   3.130   3.509   2.613
 1627SOL    HW2 6750   3.121   3.440   2.679
 1627SOL    HW3 6751   3.051   3.562   2.623
 1627SOL    MW4 6752   3.118   3.507   2.623
 1628SOL     OW 6753   3.349   3.630   2.732
 1628SOL    HW2 6754   3.353   3.587   2.817
 1628SOL    HW3 6755   3.269   3.596   2.692
 1628SOL    MW4 6756   3.339   3.620   2.738
 1629SOL     OW 6757   3.343   3.911   2.669
 1629SOL    HW2 6758   3.354   3.822   2.702
 1629SOL    HW3 6759   3.359   3.904   2.575
 1629SOL    MW4 6760   3.346   3.898   2.661
 1630SOL     OW 6761   3.118   4.035   2.743
 1630SOL    HW2 6762   3.125   4.123   2.705
 1630SOL    HW3 6763   3.200   3.993   2.719
 1630SOL    MW4 6764   3.130   4.041   2.735
 1631SOL     OW 6765   3.110   4.277   2.619
 1631SOL    HW2 6766   3.031   4.324   2.645
 1631SOL    HW3 6767   3.096   4.256   2.527
 1631SOL    MW4 6768   3.097   4.280   2.610
 1632SOL     OW 6769   3.349   4.414   2.719
 1632SOL    HW2 6770   3.333   4.420   2.813
 1632SOL    HW3 6771   3.266   4.381   2.683
 1632SOL    MW4 6772   3.336   4.411   2.726
 1633SOL     OW 6773   3.829   4.655   2.658
 1633SOL    HW2 6774   3.831   4.572   2.705
 1633SOL    HW3 6775   3.747   4.697   2.685
 1633SOL    MW4 6776   3.819   4.650   2.668
 1634SOL     OW 6777   3.584   0.111   2.728
 1634SOL    HW2 6778   3.571   0.203   2.706
 1634SOL    HW3 6779   3.525   0.063   2.670
 1634SOL    MW4 6780   3.575   0.117   2.718
 1635SOL     OW 6781   3.578   0.382   2.651
 1635SOL    HW2 6782   3.664   0.421   2.669
 1635SOL    HW3 6783   3.515   0.443   2.689
 1635SOL    MW4 6784   3.581   0.395   2.658
 1636SOL     OW 6785   3.810   0.519   2.718
 1636SOL    HW2 6786   3.816   0.514   2.814
 1636SOL    HW3 6787   3.885   0.467   2.688
 1636SOL    MW4 6788   3.821   0.511   2.727
 1637SOL     OW 6789   3.807   0.781   2.630
 1637SOL    HW2 6790   3.730   0.809   2.680
 1637SOL    HW3 6791   3.814   0.687   2.649
 1637SOL    MW4 6792   3.798   0.772   2.639
 1638SOL     OW 6793   3.589   0.913   2.727
 1638SOL    HW2 6794   3.605   0.921   2.821
 1638SOL    HW3 6795   3.590   1.003   2.695
 1638SOL    MW4 6796   3.591   0.926   2.735
 1639SOL     OW 6797   3.587   1.173   2.620
 1639SOL    HW2 6798   3.659   1.212   2.670
 1639SOL    HW3 6799   3.510   1.222   2.647
 1639SOL    MW4 6800   3.587   1.185   2.630
 1640SOL     OW 6801   3.825   1.269   2.731
 1640SOL    HW2 6802   3.912   1.240   2.704
 1640SOL    HW3 6803   3.809   1.347   2.679
 1640SOL    MW4 6804   3.835   1.275   2.721
 1641SOL     OW 6805   3.814   1.518   2.622
 1641SOL    HW2 6806   3.893   1.565   2.652
 1641SOL    HW3 6807   3.742   1.574   2.649
 1641SOL    MW4 6808   3.815   1.532   2.630
 1642SOL     OW 6809   3.637   1.715   2.688
 1642SOL    HW2 6810   3.654   1.803   2.655
 1642SOL    HW3 6811   3.565   1.683   2.635
 1642SOL    MW4 6812   3.630   1.722   2.677
 1643SOL     OW 6813   3.624   1.992   2.622
 1643SOL    HW2 6814   3.539   2.013   2.661
 1643SOL    HW3 6815   3.607   1.989   2.528
 1643SOL    MW4 6816   3.611   1.995   2.615
 1644SOL     OW 6817   3.846   2.072   2.744
 1644SOL    HW2 6818   3.912   2.013   2.707
 1644SOL    HW3 6819   3.763   2.042   2.706
 1644SOL    MW4 6820   3.844   2.060   2.734
 1645SOL     OW 6821   3.808   2.325   2.627
 1645SOL    HW2 6822   3.817   2.234   2.656
 1645SOL    HW3 6823   3.788   2.318   2.534
 1645SOL    MW4 6824   3.806   2.312   2.618
 1646SOL     OW 6825   3.600   2.467   2.730
 1646SOL    HW2 6826   3.602   2.470   2.825
 1646SOL    HW3 6827   3.683   2.426   2.705
 1646SOL    MW4 6828   3.611   2.462   2.739
 1647SOL     OW 6829   3.627   2.725   2.635
 1647SOL    HW2 6830   3.619   2.633   2.660
 1647SOL    HW3 6831   3.612   2.726   2.540
 1647SOL    MW4 6832   3.624   2.713   2.626
 1648SOL     OW 6833   3.823   2.875   2.785
 1648SOL    HW2 6834   3.907   2.853   2.746
 1648SOL    HW3 6835   3.759   2.824   2.736
 1648SOL    MW4 6836   3.826   2.866   2.774
 1649SOL     OW 6837   3.844   3.125   2.668
 1649SOL    HW2 6838   3.776   3.178   2.710
 1649SOL    HW3 6839   3.836   3.039   2.709
 1649SOL    MW4 6840   3.834   3.121   2.679
 1650SOL     OW 6841   3.614   3.308   2.728
 1650SOL    HW2 6842   3.611   3.389   2.676
 1650SOL    HW3 6843   3.547   3.252   2.688
 1650SOL    MW4 6844   3.605   3.312   2.716
 1651SOL     OW 6845   3.612   3.581   2.598
 1651SOL    HW2 6846   3.681   3.610   2.658
 1651SOL    HW3 6847   3.531   3.604   2.642
 1651SOL    MW4 6848   3.611   3.588   2.611
 1652SOL     OW 6849   3.809   3.635   2.768
 1652SOL    HW2 6850   3.878   3.589   2.720
 1652SOL    HW3 6851   3.805   3.721   2.728
 1652SOL    MW4 6852   3.818   3.640   2.756
 1653SOL     OW 6853   3.799   3.876   2.636
 1653SOL    HW2 6854   3.882   3.916   2.664
 1653SOL    HW3 6855   3.731   3.931   2.674
 1653SOL    MW4 6856   3.801   3.888   2.644
 1654SOL     OW 6857   3.589   4.015   2.749
 1654SOL    HW2 6858   3.592   4.099   2.704
 1654SOL    HW3 6859   3.500   3.983   2.733
 1654SOL    MW4 6860   3.577   4.022   2.741
 1655SOL     OW 6861   3.590   4.268   2.654
 1655SOL    HW2 6862   3.522   4.327   2.685
 1655SOL    HW3 6863   3.591   4.278   2.559
 1655SOL    MW4 6864   3.581   4.277   2.645
 1656SOL     OW 6865   3.817   4.410   2.777
 1656SOL    HW2 6866   3.893   4.362   2.745
 1656SOL    HW3 6867   3.742   4.363   2.741
 1656SOL    MW4 6868   3.817   4.398   2.768
 1657SOL     OW 6869   4.305   4.650   2.684
 1657SOL    HW2 6870   4.237   4.700   2.729
 1657SOL    HW3 6871   4.386   4.697   2.705
 1657SOL    MW4 6872   4.307   4.663   2.693
 1658SOL     OW 6873   4.070   0.117   2.746
 1658SOL    HW2 6874   4.055   0.124   2.841
 1658SOL    HW3 6875   3.994   0.068   2.713
 1658SOL    MW4 6876   4.058   0.111   2.754
 1659SOL     OW 6877   4.036   0.369   2.637
 1659SOL    HW2 6878   4.048   0.281   2.672
 1659SOL    HW3 6879   4.025   0.356   2.543
 1659SOL    MW4 6880   4.036   0.356   2.629
 1660SOL     OW 6881   4.254   0.496   2.746
 1660SOL    HW2 6882   4.185   0.447   2.701
 1660SOL    HW3 6883   4.335   0.467   2.703
 1660SOL    MW4 6884   4.255   0.485   2.734
 1661SOL     OW 6885   4.257   0.767   2.671
 1661SOL    HW2 6886   4.263   0.675   2.695
 1661SOL    HW3 6887   4.266   0.768   2.576
 1661SOL    MW4 6888   4.259   0.755   2.662
 1662SOL     OW 6889   4.040   0.896   2.778
 1662SOL    HW2 6890   4.108   0.840   2.742
 1662SOL    HW3 6891   3.958   0.861   2.742
 1662SOL    MW4 6892   4.038   0.884   2.768
 1663SOL     OW 6893   4.065   1.156   2.642
 1663SOL    HW2 6894   4.136   1.205   2.684
 1663SOL    HW3 6895   4.066   1.071   2.685
 1663SOL    MW4 6896   4.075   1.151   2.653
 1664SOL     OW 6897   4.272   1.323   2.782
 1664SOL    HW2 6898   4.294   1.414   2.758
 1664SOL    HW3 6899   4.324   1.270   2.722
 1664SOL    MW4 6900   4.282   1.328   2.771
 1665SOL     OW 6901   4.304   1.577   2.667
 1665SOL    HW2 6902   4.395   1.597   2.691
 1665SOL    HW3 6903   4.303   1.578   2.572
 1665SOL    MW4 6904   4.316   1.580   2.658
 1666SOL     OW 6905   4.045   1.675   2.711
 1666SOL    HW2 6906   4.046   1.684   2.806
 1666SOL    HW3 6907   4.129   1.633   2.690
 1666SOL    MW4 6908   4.056   1.670   2.721
 1667SOL     OW 6909   4.084   1.930   2.629
 1667SOL    HW2 6910   4.147   1.967   2.690
 1667SOL    HW3 6911   4.077   1.838   2.655
 1667SOL    MW4 6912   4.091   1.922   2.641
 1668SOL     OW 6913   4.255   2.055   2.804
 1668SOL    HW2 6914   4.239   2.139   2.761
 1668SOL    HW3 6915   4.330   2.018   2.757
 1668SOL    MW4 6916   4.263   2.061   2.792
 1669SOL     OW 6917   4.248   2.322   2.686
 1669SOL    HW2 6918   4.173   2.381   2.677
 1669SOL    HW3 6919   4.262   2.288   2.597
 1669SOL    MW4 6920   4.240   2.325   2.673
 1670SOL     OW 6921   4.016   2.473   2.718
 1670SOL    HW2 6922   4.021   2.448   2.810
 1670SOL    HW3 6923   3.955   2.411   2.679
 1670SOL    MW4 6924   4.009   2.462   2.725
 1671SOL     OW 6925   4.049   2.743   2.611
 1671SOL    HW2 6926   4.132   2.772   2.648
 1671SOL    HW3 6927   4.037   2.654   2.647
 1671SOL    MW4 6928   4.058   2.735   2.621
 1672SOL     OW 6929   4.312   2.838   2.702
 1672SOL    HW2 6930   4.298   2.839   2.796
 1672SOL    HW3 6931   4.305   2.930   2.676
 1672SOL    MW4 6932   4.309   2.851   2.711
 1673SOL     OW 6933   4.276   3.092   2.621
 1673SOL    HW2 6934   4.201   3.144   2.651
 1673SOL    HW3 6935   4.262   3.083   2.527
 1673SOL    MW4 6936   4.264   3.098   2.613
 1674SOL     OW 6937   4.087   3.254   2.743
 1674SOL    HW2 6938   4.066   3.346   2.726
 1674SOL    HW3 6939   4.004   3.208   2.733
 1674SOL    MW4 6940   4.073   3.260   2.740
 1675SOL     OW 6941   4.047   3.520   2.637
 1675SOL    HW2 6942   4.118   3.570   2.678
 1675SOL    HW3 6943   4.077   3.508   2.546
 1675SOL    MW4 6944   4.061   3.525   2.630
 1676SOL     OW 6945   4.249   3.656   2.741
 1676SOL    HW2 6946   4.252   3.674   2.835
 1676SOL    HW3 6947   4.323   3.598   2.726
 1676SOL    MW4 6948   4.259   3.651   2.751
 1677SOL     OW 6949   4.252   3.917   2.641
 1677SOL    HW2 6950   4.243   3.823   2.656
 1677SOL    HW3 6951   4.340   3.938   2.673
 1677SOL    MW4 6952   4.262   3.908   2.647
 1678SOL     OW 6953   4.011   4.028   2.748
 1678SOL    HW2 6954   4.022   4.025   2.843
 1678SOL    HW3 6955   4.093   3.992   2.714
 1678SOL    MW4 6956   4.023   4.023   2.756
 1679SOL     OW 6957   4.018   4.283   2.664
 1679SOL    HW2 6958   4.004   4.194   2.697
 1679SOL    HW3 6959   4.036   4.271   2.571
 1679SOL    MW4 6960   4.018   4.270   2.656
 1680SOL     OW 6961   4.289   4.384   2.753
 1680SOL    HW2 6962   4.197   4.356   2.751
 1680SOL    HW3 6963   4.287   4.476   2.726
 1680SOL    MW4 6964   4.277   4.392   2.749
 1681SOL     OW 6965   0.184   4.624   3.124
 1681SOL    HW2 6966   0.191   4.644   3.217
 1681SOL    HW3 6967   0.114   4.681   3.092
 1681SOL    MW4 6968   0.176   4.634   3.132
 1682SOL     OW 6969   0.016   0.148   3.028
 1682SOL    HW2 6970  -0.068   0.107   3.049
 1682SOL    HW3 6971   0.014   0.233   3.070
 1682SOL    MW4 6972   0.005   0.153   3.036
 1683SOL     OW 6973   4.483   0.389   3.131
 1683SOL    HW2 6974   4.474   0.379   3.226
 1683SOL    HW3 6975   4.403   0.432   3.104
 1683SOL    MW4 6976   4.471   0.393   3.140
 1684SOL     OW 6977   0.237   0.495   3.025
 1684SOL    HW2 6978   0.311   0.436   3.038
 1684SOL    HW3 6979   0.161   0.444   3.052
 1684SOL    MW4 6980   0.237   0.481   3.030
 1685SOL     OW 6981   0.233   0.753   3.124
 1685SOL    HW2 6982   0.217   0.761   3.218
 1685SOL    HW3 6983   0.222   0.659   3.106
 1685SOL    MW4 6984   0.229   0.742   3.134
 1686SOL     OW 6985   4.485   0.910   3.033
 1686SOL    HW2 6986   4.559   0.853   3.052
 1686SOL    HW3 6987   4.492   0.929   2.939
 1686SOL    MW4 6988   4.496   0.905   3.023
 1687SOL     OW 6989   0.004   1.151   3.164
 1687SOL    HW2 6990  -0.066   1.201   3.122
 1687SOL    HW3 6991   0.001   1.065   3.121
 1687SOL    MW4 6992  -0.006   1.146   3.153
 1688SOL     OW 6993   0.246   1.283   3.034
 1688SOL    HW2 6994   0.167   1.239   3.067
 1688SOL    HW3 6995   0.236   1.280   2.939
 1688SOL    MW4 6996   0.234   1.277   3.026
 1689SOL     OW 6997   0.240   1.542   3.105
 1689SOL    HW2 6998   0.162   1.591   3.080
 1689SOL    HW3 6999   0.227   1.456   3.066
 1689SOL    MW4 7000   0.228   1.537   3.096
 1690SOL     OW 7001   0.005   1.682   3.032
 1690SOL    HW2 7002  -0.065   1.640   3.081
 1690SOL    HW3 7003   0.007   1.772   3.065
 1690SOL    MW4 7004  -0.004   1.689   3.043
 1691SOL     OW 7005   4.477   1.914   3.167
 1691SOL    HW2 7006   4.392   1.947   3.137
 1691SOL    HW3 7007   4.541   1.977   3.131
 1691SOL    MW4 7008   4.475   1.927   3.158
 1692SOL     OW 7009   0.170   2.058   2.989
 1692SOL    HW2 7010   0.193   2.142   3.028
 1692SOL    HW3 7011   0.176   2.073   2.894
 1692SOL    MW4 7012   0.174   2.071   2.981
 1693SOL     OW 7013   0.250   2.311   3.130
 1693SOL    HW2 7014   0.259   2.318   3.225
 1693SOL    HW3 7015   0.323   2.363   3.096
 1693SOL    MW4 7016   0.261   2.319   3.138
 1694SOL     OW 7017   0.008   2.424   3.034
 1694SOL    HW2 7018   0.003   2.513   3.069
 1694SOL    HW3 7019   0.088   2.388   3.072
 1694SOL    MW4 7020   0.018   2.431   3.044
 1695SOL     OW 7021   0.003   2.686   3.115
 1695SOL    HW2 7022   0.003   2.694   3.210
 1695SOL    HW3 7023   0.069   2.749   3.086
 1695SOL    MW4 7024   0.012   2.696   3.124
 1696SOL     OW 7025   0.199   2.862   3.002
 1696SOL    HW2 7026   0.281   2.832   3.040
 1696SOL    HW3 7027   0.214   2.860   2.907
 1696SOL    MW4 7028   0.212   2.858   2.994
 1697SOL     OW 7029   0.164   3.097   3.143
 1697SOL    HW2 7030   0.096   3.137   3.088
 1697SOL    HW3 7031   0.190   3.019   3.096
 1697SOL    MW4 7032   0.158   3.092   3.130
 1698SOL     OW 7033   4.463   3.238   3.010
 1698SOL    HW2 7034   4.390   3.181   3.031
 1698SOL    HW3 7035   4.471   3.234   2.915
 1698SOL    MW4 7036   4.455   3.230   3.001
 1699SOL     OW 7037   4.471   3.497   3.129
 1699SOL    HW2 7038   4.395   3.553   3.112
 1699SOL    HW3 7039   4.454   3.418   3.077
 1699SOL    MW4 7040   4.459   3.494   3.120
 1700SOL     OW 7041   0.204   3.611   3.020
 1700SOL    HW2 7042   0.201   3.704   3.041
 1700SOL    HW3 7043   0.123   3.575   3.058
 1700SOL    MW4 7044   0.193   3.618   3.028
 1701SOL     OW 7045   0.203   3.872   3.124
 1701SOL    HW2 7046   0.190   3.884   3.218
 1701SOL    HW3 7047   0.271   3.935   3.100
 1701SOL    MW4 7048   0.210   3.882   3.133
 1702SOL     OW 7049   4.484   4.027   3.023
 1702SOL    HW2 7050   4.561   3.976   3.049
 1702SOL    HW3 7051   4.489   4.030   2.927
 1702SOL    MW4 7052   4.495   4.020   3.014
 1703SOL     OW 7053   4.484   4.271   3.154
 1703SOL    HW2 7054   4.477   4.257   3.249
 1703SOL    HW3 7055   4.472   4.185   3.116
 1703SOL    MW4 7056   4.482   4.258   3.162
 1704SOL     OW 7057   0.221   4.368   3.030
 1704SOL    HW2 7058   0.139   4.322   3.049
 1704SOL    HW3 7059   0.206   4.458   3.059
 1704SOL    MW4 7060   0.208   4.373   3.036
 1705SOL     OW 7061   0.652   4.651   3.161
 1705SOL    HW2 7062   0.650   4.557   3.141
 1705SOL    HW3 7063   0.582   4.688   3.108
 1705SOL    MW4 7064   0.642   4.643   3.152
 1706SOL     OW 7065   0.429   0.087   3.037
 1706SOL    HW2 7066   0.445   0.176   3.068
 1706SOL    HW3 7067   0.338   0.069   3.060
 1706SOL    MW4 7068   0.419   0.096   3.044
 1707SOL     OW 7069   0.471   0.347   3.105
 1707SOL    HW2 7070   0.467   0.358   3.200
 1707SOL    HW3 7071   0.547   0.399   3.079
 1707SOL    MW4 7072   0.481   0.355   3.114
 1708SOL     OW 7073   0.687   0.529   3.055
 1708SOL    HW2 7074   0.772   0.484   3.057
 1708SOL    HW3 7075   0.706   0.616   3.088
 1708SOL    MW4 7076   0.701   0.534   3.059
 1709SOL     OW 7077   0.727   0.793   3.152
 1709SOL    HW2 7078   0.712   0.775   3.245
 1709SOL    HW3 7079   0.640   0.808   3.116
 1709SOL    MW4 7080   0.714   0.793   3.159
 1710SOL     OW 7081   0.473   0.855   3.023
 1710SOL    HW2 7082   0.393   0.818   3.061
 1710SOL    HW3 7083   0.455   0.862   2.929
 1710SOL    MW4 7084   0.460   0.851   3.016
 1711SOL     OW 7085   0.455   1.109   3.152
 1711SOL    HW2 7086   0.477   1.030   3.103
 1711SOL    HW3 7087   0.381   1.147   3.105
 1711SOL    MW4 7088   0.448   1.104   3.139
 1712SOL     OW 7089   0.673   1.257   3.048
 1712SOL    HW2 7090   0.756   1.232   3.089
 1712SOL    HW3 7091   0.608   1.205   3.094
 1712SOL    MW4 7092   0.676   1.247   3.060
 1713SOL     OW 7093   0.670   1.529   3.115
 1713SOL    HW2 7094   0.699   1.535   3.206
 1713SOL    HW3 7095   0.674   1.435   3.096
 1713SOL    MW4 7096   0.675   1.517   3.125
 1714SOL     OW 7097   0.456   1.666   3.001
 1714SOL    HW2 7098   0.529   1.635   3.054
 1714SOL    HW3 7099   0.386   1.604   3.018
 1714SOL    MW4 7100   0.457   1.653   3.010
 1715SOL     OW 7101   0.408   1.920   3.073
 1715SOL    HW2 7102   0.417   1.829   3.045
 1715SOL    HW3 7103   0.329   1.952   3.028
 1715SOL    MW4 7104   0.399   1.913   3.064
 1716SOL     OW 7105   0.637   2.082   2.975
 1716SOL    HW2 7106   0.700   2.035   3.029
 1716SOL    HW3 7107   0.557   2.029   2.979
 1716SOL    MW4 7108   0.635   2.069   2.983
 1717SOL     OW 7109   0.662   2.343   3.092
 1717SOL    HW2 7110   0.646   2.337   3.186
 1717SOL    HW3 7111   0.650   2.253   3.061
 1717SOL    MW4 7112   0.658   2.330   3.101
 1718SOL     OW 7113   0.437   2.475   3.025
 1718SOL    HW2 7114   0.511   2.419   3.050
 1718SOL    HW3 7115   0.436   2.473   2.930
 1718SOL    MW4 7116   0.447   2.467   3.016
 1719SOL     OW 7117   0.434   2.739   3.128
 1719SOL    HW2 7118   0.506   2.781   3.081
 1719SOL    HW3 7119   0.437   2.647   3.101
 1719SOL    MW4 7120   0.444   2.733   3.118
 1720SOL     OW 7121   0.660   2.857   3.021
 1720SOL    HW2 7122   0.740   2.814   3.048
 1720SOL    HW3 7123   0.669   2.947   3.052
 1720SOL    MW4 7124   0.672   2.864   3.028
 1721SOL     OW 7125   0.683   3.120   3.147
 1721SOL    HW2 7126   0.668   3.117   3.242
 1721SOL    HW3 7127   0.602   3.156   3.111
 1721SOL    MW4 7128   0.670   3.124   3.155
 1722SOL     OW 7129   0.428   3.185   3.055
 1722SOL    HW2 7130   0.426   3.281   3.060
 1722SOL    HW3 7131   0.342   3.157   3.086
 1722SOL    MW4 7132   0.416   3.194   3.059
 1723SOL     OW 7133   0.423   3.465   3.084
 1723SOL    HW2 7134   0.419   3.477   3.179
 1723SOL    HW3 7135   0.345   3.509   3.051
 1723SOL    MW4 7136   0.412   3.472   3.092
 1724SOL     OW 7137   0.626   3.625   2.987
 1724SOL    HW2 7138   0.714   3.605   3.019
 1724SOL    HW3 7139   0.570   3.558   3.029
 1724SOL    MW4 7140   0.630   3.613   2.997
 1725SOL     OW 7141   0.663   3.874   3.087
 1725SOL    HW2 7142   0.696   3.871   3.177
 1725SOL    HW3 7143   0.641   3.784   3.066
 1725SOL    MW4 7144   0.665   3.862   3.096
 1726SOL     OW 7145   0.450   4.044   3.034
 1726SOL    HW2 7146   0.530   3.994   3.049
 1726SOL    HW3 7147   0.438   4.043   2.939
 1726SOL    MW4 7148   0.459   4.038   3.024
 1727SOL     OW 7149   0.451   4.286   3.162
 1727SOL    HW2 7150   0.458   4.202   3.119
 1727SOL    HW3 7151   0.372   4.326   3.126
 1727SOL    MW4 7152   0.442   4.280   3.152
 1728SOL     OW 7153   0.693   4.387   3.060
 1728SOL    HW2 7154   0.604   4.354   3.072
 1728SOL    HW3 7155   0.704   4.391   2.965
 1728SOL    MW4 7156   0.683   4.383   3.049
 1729SOL     OW 7157   1.077   4.635   3.125
 1729SOL    HW2 7158   1.149   4.694   3.102
 1729SOL    HW3 7159   1.006   4.660   3.065
 1729SOL    MW4 7160   1.077   4.646   3.114
 1730SOL     OW 7161   0.875   0.098   2.993
 1730SOL    HW2 7162   0.903   0.182   3.028
 1730SOL    HW3 7163   0.804   0.070   3.050
 1730SOL    MW4 7164   0.869   0.105   3.005
 1731SOL     OW 7165   0.898   0.346   3.125
 1731SOL    HW2 7166   0.895   0.351   3.220
 1731SOL    HW3 7167   0.977   0.395   3.100
 1731SOL    MW4 7168   0.908   0.353   3.134
 1732SOL     OW 7169   1.112   0.475   3.013
 1732SOL    HW2 7170   1.198   0.436   3.031
 1732SOL    HW3 7171   1.100   0.463   2.919
 1732SOL    MW4 7172   1.122   0.468   3.003
 1733SOL     OW 7173   1.113   0.759   3.122
 1733SOL    HW2 7174   1.113   0.740   3.216
 1733SOL    HW3 7175   1.107   0.674   3.080
 1733SOL    MW4 7176   1.112   0.745   3.129
 1734SOL     OW 7177   0.927   0.931   3.013
 1734SOL    HW2 7178   0.981   0.869   3.062
 1734SOL    HW3 7179   0.838   0.898   3.025
 1734SOL    MW4 7180   0.922   0.918   3.021
 1735SOL     OW 7181   0.912   1.183   3.143
 1735SOL    HW2 7182   1.000   1.218   3.130
 1735SOL    HW3 7183   0.917   1.093   3.112
 1735SOL    MW4 7184   0.924   1.176   3.137
 1736SOL     OW 7185   1.169   1.280   3.087
 1736SOL    HW2 7186   1.260   1.252   3.096
 1736SOL    HW3 7187   1.159   1.297   2.993
 1736SOL    MW4 7188   1.180   1.278   3.076
 1737SOL     OW 7189   1.111   1.570   3.117
 1737SOL    HW2 7190   1.198   1.604   3.096
 1737SOL    HW3 7191   1.121   1.475   3.109
 1737SOL    MW4 7192   1.124   1.562   3.113
 1738SOL     OW 7193   0.878   1.669   2.992
 1738SOL    HW2 7194   0.950   1.638   3.047
 1738SOL    HW3 7195   0.802   1.621   3.024
 1738SOL    MW4 7196   0.878   1.658   3.004
 1739SOL     OW 7197   0.829   1.930   3.082
 1739SOL    HW2 7198   0.831   1.899   3.173
 1739SOL    HW3 7199   0.845   1.851   3.030
 1739SOL    MW4 7200   0.831   1.915   3.087
 1740SOL     OW 7201   1.076   2.043   3.005
 1740SOL    HW2 7202   0.991   2.011   3.037
 1740SOL    HW3 7203   1.066   2.047   2.910
 1740SOL    MW4 7204   1.063   2.039   2.997
 1741SOL     OW 7205   1.128   2.297   3.105
 1741SOL    HW2 7206   1.050   2.345   3.076
 1741SOL    HW3 7207   1.117   2.209   3.069
 1741SOL    MW4 7208   1.116   2.292   3.096
 1742SOL     OW 7209   0.909   2.444   3.033
 1742SOL    HW2 7210   0.822   2.405   3.037
 1742SOL    HW3 7211   0.934   2.439   2.941
 1742SOL    MW4 7212   0.901   2.438   3.021
 1743SOL     OW 7213   0.896   2.724   3.114
 1743SOL    HW2 7214   0.901   2.723   3.209
 1743SOL    HW3 7215   0.898   2.632   3.088
 1743SOL    MW4 7216   0.897   2.712   3.123
 1744SOL     OW 7217   1.131   2.821   2.994
 1744SOL    HW2 7218   1.144   2.910   3.027
 1744SOL    HW3 7219   1.051   2.791   3.037
 1744SOL    MW4 7220   1.122   2.829   3.004
 1745SOL     OW 7221   1.148   3.096   3.105
 1745SOL    HW2 7222   1.218   3.147   3.066
 1745SOL    HW3 7223   1.067   3.141   3.078
 1745SOL    MW4 7224   1.146   3.109   3.097
 1746SOL     OW 7225   0.913   3.216   3.044
 1746SOL    HW2 7226   0.831   3.178   3.074
 1746SOL    HW3 7227   0.903   3.225   2.949
 1746SOL    MW4 7228   0.901   3.212   3.035
 1747SOL     OW 7229   0.862   3.499   3.097
 1747SOL    HW2 7230   0.940   3.548   3.072
 1747SOL    HW3 7231   0.885   3.408   3.083
 1747SOL    MW4 7232   0.876   3.494   3.092
 1748SOL     OW 7233   1.097   3.623   3.051
 1748SOL    HW2 7234   1.185   3.591   3.069
 1748SOL    HW3 7235   1.095   3.710   3.091
 1748SOL    MW4 7236   1.108   3.630   3.059
 1749SOL     OW 7237   1.113   3.882   3.144
 1749SOL    HW2 7238   1.094   3.890   3.238
 1749SOL    HW3 7239   1.039   3.925   3.101
 1749SOL    MW4 7240   1.101   3.889   3.151
 1750SOL     OW 7241   0.893   4.003   3.014
 1750SOL    HW2 7242   0.806   3.975   3.042
 1750SOL    HW3 7243   0.890   3.999   2.919
 1750SOL    MW4 7244   0.881   3.999   3.005
 1751SOL     OW 7245   0.927   4.260   3.155
 1751SOL    HW2 7246   0.933   4.175   3.111
 1751SOL    HW3 7247   0.841   4.293   3.131
 1751SOL    MW4 7248   0.916   4.253   3.146
 1752SOL     OW 7249   1.107   4.415   2.980
 1752SOL    HW2 7250   1.029   4.370   3.012
 1752SOL    HW3 7251   1.112   4.494   3.033
 1752SOL    MW4 7252   1.097   4.419   2.991
 1753SOL     OW 7253   1.536   4.646   3.123
 1753SOL    HW2 7254   1.545   4.648   3.219
 1753SOL    HW3 7255   1.451   4.687   3.107
 1753SOL    MW4 7256   1.526   4.652   3.134
 1754SOL     OW 7257   1.295   0.103   3.014
 1754SOL    HW2 7258   1.326   0.192   3.030
 1754SOL    HW3 7259   1.314   0.087   2.922
 1754SOL    MW4 7260   1.302   0.113   3.004
 1755SOL     OW 7261   1.371   0.373   3.100
 1755SOL    HW2 7262   1.355   0.384   3.194
 1755SOL    HW3 7263   1.445   0.430   3.081
 1755SOL    MW4 7264   1.379   0.382   3.110
 1756SOL     OW 7265   1.599   0.512   3.018
 1756SOL    HW2 7266   1.604   0.604   3.045
 1756SOL    HW3 7267   1.589   0.515   2.923
 1756SOL    MW4 7268   1.599   0.525   3.009
 1757SOL     OW 7269   1.642   0.770   3.118
 1757SOL    HW2 7270   1.640   0.758   3.213
 1757SOL    HW3 7271   1.553   0.795   3.095
 1757SOL    MW4 7272   1.630   0.772   3.127
 1758SOL     OW 7273   1.360   0.857   3.050
 1758SOL    HW2 7274   1.368   0.950   3.068
 1758SOL    HW3 7275   1.277   0.831   3.090
 1758SOL    MW4 7276   1.350   0.866   3.058
 1759SOL     OW 7277   1.389   1.118   3.119
 1759SOL    HW2 7278   1.381   1.125   3.214
 1759SOL    HW3 7279   1.473   1.158   3.099
 1759SOL    MW4 7280   1.399   1.125   3.129
 1760SOL     OW 7281   1.594   1.297   3.037
 1760SOL    HW2 7282   1.677   1.261   3.066
 1760SOL    HW3 7283   1.596   1.389   3.065
 1760SOL    MW4 7284   1.605   1.305   3.044
 1761SOL     OW 7285   1.590   1.553   3.119
 1761SOL    HW2 7286   1.668   1.596   3.084
 1761SOL    HW3 7287   1.518   1.613   3.095
 1761SOL    MW4 7288   1.591   1.567   3.111
 1762SOL     OW 7289   1.346   1.695   3.041
 1762SOL    HW2 7290   1.342   1.790   3.055
 1762SOL    HW3 7291   1.333   1.684   2.947
 1762SOL    MW4 7292   1.344   1.706   3.031
 1763SOL     OW 7293   1.336   1.974   3.089
 1763SOL    HW2 7294   1.333   1.973   3.185
 1763SOL    HW3 7295   1.249   2.002   3.062
 1763SOL    MW4 7296   1.325   1.977   3.098
 1764SOL     OW 7297   1.608   2.051   3.010
 1764SOL    HW2 7298   1.524   2.018   3.041
 1764SOL    HW3 7299   1.599   2.052   2.915
 1764SOL    MW4 7300   1.595   2.047   3.002
 1765SOL     OW 7301   1.570   2.329   3.072
 1765SOL    HW2 7302   1.497   2.356   3.016
 1765SOL    HW3 7303   1.581   2.236   3.053
 1765SOL    MW4 7304   1.562   2.320   3.062
 1766SOL     OW 7305   1.360   2.484   2.989
 1766SOL    HW2 7306   1.286   2.436   3.028
 1766SOL    HW3 7307   1.343   2.481   2.895
 1766SOL    MW4 7308   1.348   2.477   2.982
 1767SOL     OW 7309   1.372   2.741   3.110
 1767SOL    HW2 7310   1.362   2.649   3.086
 1767SOL    HW3 7311   1.289   2.782   3.086
 1767SOL    MW4 7312   1.360   2.734   3.104
 1768SOL     OW 7313   1.578   2.862   2.983
 1768SOL    HW2 7314   1.647   2.808   3.020
 1768SOL    HW3 7315   1.497   2.828   3.021
 1768SOL    MW4 7316   1.577   2.851   2.993
 1769SOL     OW 7317   1.602   3.117   3.107
 1769SOL    HW2 7318   1.618   3.114   3.201
 1769SOL    HW3 7319   1.601   3.025   3.080
 1769SOL    MW4 7320   1.604   3.104   3.116
 1770SOL     OW 7321   1.361   3.215   2.994
 1770SOL    HW2 7322   1.435   3.183   3.046
 1770SOL    HW3 7323   1.391   3.212   2.904
 1770SOL    MW4 7324   1.374   3.211   2.989
 1771SOL     OW 7325   1.336   3.490   3.105
 1771SOL    HW2 7326   1.347   3.468   3.198
 1771SOL    HW3 7327   1.339   3.406   3.060
 1771SOL    MW4 7328   1.338   3.476   3.111
 1772SOL     OW 7329   1.551   3.643   2.993
 1772SOL    HW2 7330   1.486   3.582   3.028
 1772SOL    HW3 7331   1.544   3.633   2.898
 1772SOL    MW4 7332   1.542   3.634   2.985
 1773SOL     OW 7333   1.566   3.893   3.163
 1773SOL    HW2 7334   1.650   3.932   3.141
 1773SOL    HW3 7335   1.562   3.812   3.112
 1773SOL    MW4 7336   1.576   3.888   3.153
 1774SOL     OW 7337   1.342   3.986   3.013
 1774SOL    HW2 7338   1.421   3.976   3.066
 1774SOL    HW3 7339   1.277   3.930   3.057
 1774SOL    MW4 7340   1.344   3.977   3.026
 1775SOL     OW 7341   1.290   4.255   3.111
 1775SOL    HW2 7342   1.299   4.166   3.076
 1775SOL    HW3 7343   1.227   4.297   3.052
 1775SOL    MW4 7344   1.283   4.249   3.098
 1776SOL     OW 7345   1.498   4.399   3.006
 1776SOL    HW2 7346   1.423   4.356   3.047
 1776SOL    HW3 7347   1.495   4.489   3.039
 1776SOL    MW4 7348   1.488   4.405   3.016
 1777SOL     OW 7349   2.020   4.658   3.124
 1777SOL    HW2 7350   2.016   4.646   3.218
 1777SOL    HW3 7351   1.943   4.711   3.103
 1777SOL    MW4 7352   2.010   4.664   3.133
 1778SOL     OW 7353   1.773   0.111   3.065
 1778SOL    HW2 7354   1.694   0.060   3.079
 1778SOL    HW3 7355   1.777   0.123   2.970
 1778SOL    MW4 7356   1.763   0.106   3.054
 1779SOL     OW 7357   1.786   0.372   3.146
 1779SOL    HW2 7358   1.767   0.280   3.127
 1779SOL    HW3 7359   1.708   0.419   3.117
 1779SOL    MW4 7360   1.773   0.366   3.139
 1780SOL     OW 7361   1.974   0.521   3.016
 1780SOL    HW2 7362   1.916   0.468   3.071
 1780SOL    HW3 7363   1.950   0.498   2.926
 1780SOL    MW4 7364   1.963   0.511   3.011
 1781SOL     OW 7365   2.045   0.781   3.056
 1781SOL    HW2 7366   1.963   0.819   3.024
 1781SOL    HW3 7367   2.031   0.687   3.054
 1781SOL    MW4 7368   2.033   0.774   3.051
 1782SOL     OW 7369   1.830   0.925   2.994
 1782SOL    HW2 7370   1.764   0.868   3.034
 1782SOL    HW3 7371   1.811   0.922   2.901
 1782SOL    MW4 7372   1.819   0.917   2.987
 1783SOL     OW 7373   1.831   1.169   3.119
 1783SOL    HW2 7374   1.818   1.158   3.214
 1783SOL    HW3 7375   1.844   1.079   3.087
 1783SOL    MW4 7376   1.831   1.155   3.127
 1784SOL     OW 7377   2.049   1.280   2.978
 1784SOL    HW2 7378   2.122   1.236   3.023
 1784SOL    HW3 7379   1.971   1.249   3.024
 1784SOL    MW4 7380   2.048   1.270   2.990
 1785SOL     OW 7381   2.047   1.548   3.103
 1785SOL    HW2 7382   2.040   1.528   3.197
 1785SOL    HW3 7383   2.053   1.462   3.061
 1785SOL    MW4 7384   2.047   1.534   3.110
 1786SOL     OW 7385   1.803   1.687   3.007
 1786SOL    HW2 7386   1.835   1.771   3.039
 1786SOL    HW3 7387   1.879   1.629   3.013
 1786SOL    MW4 7388   1.817   1.690   3.012
 1787SOL     OW 7389   1.862   1.950   3.086
 1787SOL    HW2 7390   1.929   1.998   3.038
 1787SOL    HW3 7391   1.780   1.992   3.061
 1787SOL    MW4 7392   1.860   1.962   3.077
 1788SOL     OW 7393   2.054   2.129   2.981
 1788SOL    HW2 7394   2.130   2.082   3.016
 1788SOL    HW3 7395   2.057   2.215   3.023
 1788SOL    MW4 7396   2.064   2.134   2.991
 1789SOL     OW 7397   2.080   2.356   3.118
 1789SOL    HW2 7398   2.161   2.386   3.076
 1789SOL    HW3 7399   2.011   2.405   3.075
 1789SOL    MW4 7400   2.082   2.366   3.107
 1790SOL     OW 7401   1.824   2.438   2.994
 1790SOL    HW2 7402   1.809   2.532   3.007
 1790SOL    HW3 7403   1.737   2.399   3.008
 1790SOL    MW4 7404   1.810   2.446   2.997
 1791SOL     OW 7405   1.788   2.711   3.072
 1791SOL    HW2 7406   1.786   2.709   3.168
 1791SOL    HW3 7407   1.875   2.745   3.050
 1791SOL    MW4 7408   1.799   2.715   3.082
 1792SOL     OW 7409   2.028   2.844   3.041
 1792SOL    HW2 7410   2.033   2.936   3.066
 1792SOL    HW3 7411   2.036   2.845   2.945
 1792SOL    MW4 7412   2.030   2.857   3.031
 1793SOL     OW 7413   2.038   3.095   3.103
 1793SOL    HW2 7414   2.038   3.122   3.195
 1793SOL    HW3 7415   1.958   3.132   3.067
 1793SOL    MW4 7416   2.028   3.103   3.110
 1794SOL     OW 7417   1.830   3.240   2.983
 1794SOL    HW2 7418   1.748   3.200   3.014
 1794SOL    HW3 7419   1.826   3.230   2.888
 1794SOL    MW4 7420   1.818   3.233   2.975
 1795SOL     OW 7421   1.789   3.530   3.077
 1795SOL    HW2 7422   1.775   3.444   3.037
 1795SOL    HW3 7423   1.716   3.583   3.045
 1795SOL    MW4 7424   1.777   3.525   3.067
 1796SOL     OW 7425   2.038   3.630   2.981
 1796SOL    HW2 7426   2.042   3.710   3.033
 1796SOL    HW3 7427   1.955   3.590   3.004
 1796SOL    MW4 7428   2.028   3.635   2.991
 1797SOL     OW 7429   2.019   3.871   3.115
 1797SOL    HW2 7430   2.039   3.871   3.208
 1797SOL    HW3 7431   1.943   3.929   3.107
 1797SOL    MW4 7432   2.011   3.879   3.126
 1798SOL     OW 7433   1.793   4.035   3.075
 1798SOL    HW2 7434   1.772   4.126   3.095
 1798SOL    HW3 7435   1.790   4.030   2.980
 1798SOL    MW4 7436   1.790   4.046   3.065
 1799SOL     OW 7437   1.726   4.300   3.133
 1799SOL    HW2 7438   1.789   4.358   3.091
 1799SOL    HW3 7439   1.640   4.334   3.107
 1799SOL    MW4 7440   1.723   4.312   3.124
 1800SOL     OW 7441   1.958   4.409   3.026
 1800SOL    HW2 7442   1.960   4.493   3.070
 1800SOL    HW3 7443   1.997   4.426   2.940
 1800SOL    MW4 7444   1.963   4.422   3.020
 1801SOL     OW 7445   2.453   4.627   3.164
 1801SOL    HW2 7446   2.463   4.547   3.113
 1801SOL    HW3 7447   2.377   4.670   3.126
 1801SOL    MW4 7448   2.444   4.622   3.152
 1802SOL     OW 7449   2.271   0.102   3.018
 1802SOL    HW2 7450   2.255   0.196   3.029
 1802SOL    HW3 7451   2.193   0.061   3.056
 1802SOL    MW4 7452   2.259   0.109   3.025
 1803SOL     OW 7453   2.188   0.357   3.073
 1803SOL    HW2 7454   2.190   0.381   3.165
 1803SOL    HW3 7455   2.106   0.394   3.041
 1803SOL    MW4 7456   2.177   0.365   3.081
 1804SOL     OW 7457   2.401   0.517   3.004
 1804SOL    HW2 7458   2.315   0.477   3.009
 1804SOL    HW3 7459   2.417   0.529   2.910
 1804SOL    MW4 7460   2.392   0.513   2.992
 1805SOL     OW 7461   2.458   0.752   3.108
 1805SOL    HW2 7462   2.541   0.770   3.063
 1805SOL    HW3 7463   2.432   0.665   3.076
 1805SOL    MW4 7464   2.466   0.743   3.098
 1806SOL     OW 7465   2.285   0.919   2.978
 1806SOL    HW2 7466   2.347   0.873   3.035
 1806SOL    HW3 7467   2.201   0.877   2.994
 1806SOL    MW4 7468   2.282   0.907   2.987
 1807SOL     OW 7469   2.298   1.176   3.100
 1807SOL    HW2 7470   2.294   1.161   3.195
 1807SOL    HW3 7471   2.309   1.089   3.063
 1807SOL    MW4 7472   2.299   1.163   3.108
 1808SOL     OW 7473   2.515   1.321   2.985
 1808SOL    HW2 7474   2.437   1.281   3.024
 1808SOL    HW3 7475   2.499   1.317   2.891
 1808SOL    MW4 7476   2.502   1.315   2.978
 1809SOL     OW 7477   2.480   1.566   3.094
 1809SOL    HW2 7478   2.392   1.593   3.068
 1809SOL    HW3 7479   2.494   1.483   3.049
 1809SOL    MW4 7480   2.470   1.559   3.084
 1810SOL     OW 7481   2.249   1.700   3.010
 1810SOL    HW2 7482   2.181   1.654   3.060
 1810SOL    HW3 7483   2.214   1.705   2.921
 1810SOL    MW4 7484   2.235   1.695   3.005
 1811SOL     OW 7485   2.243   1.959   3.098
 1811SOL    HW2 7486   2.319   2.006   3.064
 1811SOL    HW3 7487   2.251   1.870   3.063
 1811SOL    MW4 7488   2.254   1.953   3.089
 1812SOL     OW 7489   2.470   2.110   2.997
 1812SOL    HW2 7490   2.548   2.070   3.036
 1812SOL    HW3 7491   2.475   2.087   2.904
 1812SOL    MW4 7492   2.481   2.101   2.990
 1813SOL     OW 7493   2.488   2.359   3.110
 1813SOL    HW2 7494   2.481   2.344   3.204
 1813SOL    HW3 7495   2.484   2.272   3.071
 1813SOL    MW4 7496   2.487   2.346   3.117
 1814SOL     OW 7497   2.285   2.469   2.965
 1814SOL    HW2 7498   2.281   2.552   3.013
 1814SOL    HW3 7499   2.355   2.420   3.009
 1814SOL    MW4 7500   2.294   2.473   2.977
 1815SOL     OW 7501   2.256   2.694   3.113
 1815SOL    HW2 7502   2.321   2.753   3.076
 1815SOL    HW3 7503   2.175   2.745   3.114
 1815SOL    MW4 7504   2.254   2.709   3.109
 1816SOL     OW 7505   2.484   2.835   3.034
 1816SOL    HW2 7506   2.506   2.922   3.067
 1816SOL    HW3 7507   2.487   2.844   2.939
 1816SOL    MW4 7508   2.488   2.848   3.026
 1817SOL     OW 7509   2.530   3.106   3.106
 1817SOL    HW2 7510   2.610   3.153   3.083
 1817SOL    HW3 7511   2.460   3.158   3.066
 1817SOL    MW4 7512   2.531   3.119   3.098
 1818SOL     OW 7513   2.282   3.215   3.030
 1818SOL    HW2 7514   2.264   3.307   3.048
 1818SOL    HW3 7515   2.204   3.169   3.062
 1818SOL    MW4 7516   2.269   3.221   3.037
 1819SOL     OW 7517   2.229   3.475   3.102
 1819SOL    HW2 7518   2.302   3.514   3.055
 1819SOL    HW3 7519   2.151   3.509   3.058
 1819SOL    MW4 7520   2.228   3.484   3.090
 1820SOL     OW 7521   2.430   3.617   2.967
 1820SOL    HW2 7522   2.509   3.570   2.994
 1820SOL    HW3 7523   2.431   3.698   3.018
 1820SOL    MW4 7524   2.440   3.621   2.977
 1821SOL     OW 7525   2.472   3.872   3.105
 1821SOL    HW2 7526   2.477   3.869   3.200
 1821SOL    HW3 7527   2.556   3.910   3.078
 1821SOL    MW4 7528   2.484   3.877   3.114
 1822SOL     OW 7529   2.234   4.020   3.023
 1822SOL    HW2 7530   2.308   3.965   3.052
 1822SOL    HW3 7531   2.156   3.972   3.053
 1822SOL    MW4 7532   2.234   4.006   3.031
 1823SOL     OW 7533   2.194   4.268   3.154
 1823SOL    HW2 7534   2.215   4.179   3.125
 1823SOL    HW3 7535   2.103   4.281   3.127
 1823SOL    MW4 7536   2.185   4.258   3.146
 1824SOL     OW 7537   2.444   4.374   3.057
 1824SOL    HW2 7538   2.361   4.333   3.083
 1824SOL    HW3 7539   2.437   4.381   2.962
 1824SOL    MW4 7540   2.432   4.369   3.048
 1825SOL     OW 7541   2.885   0.037   3.107
 1825SOL    HW2 7542   2.970   0.064   3.073
 1825SOL    HW3 7543   2.882  -0.058   3.091
 1825SOL    MW4 7544   2.896   0.028   3.100
 1826SOL     OW 7545   2.640   0.127   3.002
 1826SOL    HW2 7546   2.721   0.091   3.039
 1826SOL    HW3 7547   2.571   0.073   3.039
 1826SOL    MW4 7548   2.642   0.115   3.012
 1827SOL     OW 7549   2.630   0.388   3.084
 1827SOL    HW2 7550   2.637   0.298   3.050
 1827SOL    HW3 7551   2.544   0.418   3.055
 1827SOL    MW4 7552   2.620   0.380   3.076
 1828SOL     OW 7553   2.875   0.466   2.984
 1828SOL    HW2 7554   2.799   0.418   3.016
 1828SOL    HW3 7555   2.872   0.456   2.889
 1828SOL    MW4 7556   2.865   0.458   2.976
 1829SOL     OW 7557   2.930   0.741   3.051
 1829SOL    HW2 7558   2.924   0.736   3.146
 1829SOL    HW3 7559   2.922   0.650   3.021
 1829SOL    MW4 7560   2.928   0.728   3.059
 1830SOL     OW 7561   2.683   0.868   2.998
 1830SOL    HW2 7562   2.692   0.961   3.018
 1830SOL    HW3 7563   2.772   0.833   3.007
 1830SOL    MW4 7564   2.696   0.876   3.002
 1831SOL     OW 7565   2.719   1.127   3.069
 1831SOL    HW2 7566   2.802   1.173   3.052
 1831SOL    HW3 7567   2.652   1.195   3.062
 1831SOL    MW4 7568   2.721   1.142   3.066
 1832SOL     OW 7569   2.933   1.289   3.006
 1832SOL    HW2 7570   3.019   1.250   3.021
 1832SOL    HW3 7571   2.937   1.373   3.052
 1832SOL    MW4 7572   2.945   1.295   3.014
 1833SOL     OW 7573   2.923   1.569   3.110
 1833SOL    HW2 7574   2.928   1.594   3.202
 1833SOL    HW3 7575   3.003   1.604   3.071
 1833SOL    MW4 7576   2.934   1.577   3.117
 1834SOL     OW 7577   2.712   1.730   3.020
 1834SOL    HW2 7578   2.785   1.677   3.051
 1834SOL    HW3 7579   2.636   1.673   3.027
 1834SOL    MW4 7580   2.711   1.716   3.025
 1835SOL     OW 7581   2.704   2.001   3.095
 1835SOL    HW2 7582   2.790   2.028   3.064
 1835SOL    HW3 7583   2.698   1.908   3.071
 1835SOL    MW4 7584   2.714   1.992   3.088
 1836SOL     OW 7585   2.957   2.059   3.011
 1836SOL    HW2 7586   2.936   2.151   3.028
 1836SOL    HW3 7587   2.950   2.050   2.916
 1836SOL    MW4 7588   2.954   2.070   3.001
 1837SOL     OW 7589   2.898   2.324   3.068
 1837SOL    HW2 7590   2.981   2.367   3.047
 1837SOL    HW3 7591   2.831   2.385   3.036
 1837SOL    MW4 7592   2.900   2.337   3.061
 1838SOL     OW 7593   2.700   2.491   2.971
 1838SOL    HW2 7594   2.722   2.568   3.023
 1838SOL    HW3 7595   2.634   2.445   3.022
 1838SOL    MW4 7596   2.694   2.495   2.984
 1839SOL     OW 7597   2.726   2.718   3.131
 1839SOL    HW2 7598   2.737   2.715   3.226
 1839SOL    HW3 7599   2.636   2.746   3.118
 1839SOL    MW4 7600   2.716   2.721   3.142
 1840SOL     OW 7601   2.921   2.859   2.966
 1840SOL    HW2 7602   3.004   2.823   2.995
 1840SOL    HW3 7603   2.855   2.799   3.003
 1840SOL    MW4 7604   2.923   2.846   2.975
 1841SOL     OW 7605   2.923   3.092   3.118
 1841SOL    HW2 7606   2.873   3.155   3.066
 1841SOL    HW3 7607   2.906   3.007   3.078
 1841SOL    MW4 7608   2.914   3.089   3.106
 1842SOL     OW 7609   2.735   3.252   2.985
 1842SOL    HW2 7610   2.704   3.338   3.013
 1842SOL    HW3 7611   2.736   3.257   2.889
 1842SOL    MW4 7612   2.731   3.264   2.976
 1843SOL     OW 7613   2.658   3.489   3.082
 1843SOL    HW2 7614   2.672   3.472   3.175
 1843SOL    HW3 7615   2.737   3.535   3.054
 1843SOL    MW4 7616   2.670   3.493   3.091
 1844SOL     OW 7617   2.918   3.599   2.977
 1844SOL    HW2 7618   2.993   3.566   3.026
 1844SOL    HW3 7619   2.917   3.693   2.994
 1844SOL    MW4 7620   2.928   3.607   2.986
 1845SOL     OW 7621   2.926   3.859   3.083
 1845SOL    HW2 7622   2.935   3.860   3.179
 1845SOL    HW3 7623   2.843   3.903   3.067
 1845SOL    MW4 7624   2.916   3.865   3.094
 1846SOL     OW 7625   2.693   3.966   2.996
 1846SOL    HW2 7626   2.688   4.055   3.032
 1846SOL    HW3 7627   2.690   3.978   2.901
 1846SOL    MW4 7628   2.692   3.979   2.989
 1847SOL     OW 7629   2.667   4.218   3.128
 1847SOL    HW2 7630   2.688   4.243   3.218
 1847SOL    HW3 7631   2.588   4.268   3.107
 1847SOL    MW4 7632   2.659   4.228   3.137
 1848SOL     OW 7633   2.854   4.428   3.033
 1848SOL    HW2 7634   2.939   4.393   3.060
 1848SOL    HW3 7635   2.790   4.365   3.066
 1848SOL    MW4 7636   2.857   4.415   3.041
 1849SOL     OW 7637   3.362   4.657   3.145
 1849SOL    HW2 7638   3.427   4.705   3.094
 1849SOL    HW3 7639   3.354   4.573   3.100
 1849SOL    MW4 7640   3.370   4.652   3.132
 1850SOL     OW 7641   3.139   0.075   2.993
 1850SOL    HW2 7642   3.131   0.164   3.029
 1850SOL    HW3 7643   3.221   0.042   3.031
 1850SOL    MW4 7644   3.149   0.082   3.003
 1851SOL     OW 7645   3.086   0.334   3.098
 1851SOL    HW2 7646   3.162   0.384   3.069
 1851SOL    HW3 7647   3.012   0.373   3.050
 1851SOL    MW4 7648   3.086   0.346   3.088
 1852SOL     OW 7649   3.331   0.440   3.021
 1852SOL    HW2 7650   3.419   0.418   3.052
 1852SOL    HW3 7651   3.344   0.469   2.931
 1852SOL    MW4 7652   3.345   0.441   3.013
 1853SOL     OW 7653   3.362   0.745   3.090
 1853SOL    HW2 7654   3.357   0.746   3.186
 1853SOL    HW3 7655   3.336   0.656   3.066
 1853SOL    MW4 7656   3.358   0.733   3.100
 1854SOL     OW 7657   3.140   0.889   2.961
 1854SOL    HW2 7658   3.211   0.853   3.014
 1854SOL    HW3 7659   3.062   0.842   2.990
 1854SOL    MW4 7660   3.139   0.878   2.972
 1855SOL     OW 7661   3.168   1.164   3.058
 1855SOL    HW2 7662   3.256   1.198   3.040
 1855SOL    HW3 7663   3.160   1.087   3.003
 1855SOL    MW4 7664   3.179   1.159   3.048
 1856SOL     OW 7665   3.421   1.271   2.954
 1856SOL    HW2 7666   3.484   1.231   3.015
 1856SOL    HW3 7667   3.404   1.358   2.991
 1856SOL    MW4 7668   3.427   1.277   2.967
 1857SOL     OW 7669   3.392   1.525   3.050
 1857SOL    HW2 7670   3.416   1.518   3.142
 1857SOL    HW3 7671   3.454   1.588   3.013
 1857SOL    MW4 7672   3.403   1.532   3.057
 1858SOL     OW 7673   3.181   1.678   3.013
 1858SOL    HW2 7674   3.255   1.622   3.037
 1858SOL    HW3 7675   3.174   1.670   2.918
 1858SOL    MW4 7676   3.190   1.669   3.004
 1859SOL     OW 7677   3.192   1.926   3.106
 1859SOL    HW2 7678   3.199   1.840   3.065
 1859SOL    HW3 7679   3.119   1.968   3.061
 1859SOL    MW4 7680   3.183   1.920   3.094
 1860SOL     OW 7681   3.377   2.107   3.004
 1860SOL    HW2 7682   3.462   2.063   3.008
 1860SOL    HW3 7683   3.316   2.046   3.046
 1860SOL    MW4 7684   3.380   2.094   3.010
 1861SOL     OW 7685   3.360   2.375   3.080
 1861SOL    HW2 7686   3.366   2.355   3.173
 1861SOL    HW3 7687   3.375   2.291   3.037
 1861SOL    MW4 7688   3.363   2.361   3.087
 1862SOL     OW 7689   3.123   2.468   2.982
 1862SOL    HW2 7690   3.191   2.414   3.023
 1862SOL    HW3 7691   3.134   2.452   2.888
 1862SOL    MW4 7692   3.134   2.459   2.975
 1863SOL     OW 7693   3.145   2.734   3.083
 1863SOL    HW2 7694   3.165   2.720   3.176
 1863SOL    HW3 7695   3.133   2.646   3.048
 1863SOL    MW4 7696   3.146   2.720   3.091
 1864SOL     OW 7697   3.393   2.840   3.027
 1864SOL    HW2 7698   3.400   2.934   3.045
 1864SOL    HW3 7699   3.301   2.819   3.046
 1864SOL    MW4 7700   3.381   2.850   3.032
 1865SOL     OW 7701   3.427   3.111   3.120
 1865SOL    HW2 7702   3.429   3.113   3.216
 1865SOL    HW3 7703   3.343   3.149   3.097
 1865SOL    MW4 7704   3.416   3.116   3.130
 1866SOL     OW 7705   3.162   3.201   3.038
 1866SOL    HW2 7706   3.084   3.155   3.068
 1866SOL    HW3 7707   3.150   3.208   2.943
 1866SOL    MW4 7708   3.150   3.196   3.029
 1867SOL     OW 7709   3.141   3.485   3.110
 1867SOL    HW2 7710   3.222   3.524   3.075
 1867SOL    HW3 7711   3.136   3.399   3.068
 1867SOL    MW4 7712   3.151   3.479   3.100
 1868SOL     OW 7713   3.372   3.602   3.017
 1868SOL    HW2 7714   3.459   3.579   3.049
 1868SOL    HW3 7715   3.366   3.697   3.029
 1868SOL    MW4 7716   3.383   3.612   3.023
 1869SOL     OW 7717   3.331   3.872   3.047
 1869SOL    HW2 7718   3.327   3.864   3.142
 1869SOL    HW3 7719   3.252   3.920   3.023
 1869SOL    MW4 7720   3.320   3.877   3.056
 1870SOL     OW 7721   3.116   4.063   3.003
 1870SOL    HW2 7722   3.040   4.016   3.036
 1870SOL    HW3 7723   3.114   4.051   2.909
 1870SOL    MW4 7724   3.106   4.055   2.995
 1871SOL     OW 7725   3.097   4.317   3.107
 1871SOL    HW2 7726   3.106   4.307   3.202
 1871SOL    HW3 7727   3.129   4.234   3.071
 1871SOL    MW4 7728   3.103   4.305   3.115
 1872SOL     OW 7729   3.326   4.431   2.993
 1872SOL    HW2 7730   3.398   4.377   3.026
 1872SOL    HW3 7731   3.249   4.400   3.040
 1872SOL    MW4 7732   3.326   4.420   3.004
 1873SOL     OW 7733   3.812   4.652   3.146
 1873SOL    HW2 7734   3.817   4.558   3.126
 1873SOL    HW3 7735   3.726   4.678   3.114
 1873SOL    MW4 7736   3.801   4.643   3.139
 1874SOL     OW 7737   3.605   0.105   3.007
 1874SOL    HW2 7738   3.620   0.194   3.037
 1874SOL    HW3 7739   3.610   0.111   2.912
 1874SOL    MW4 7740   3.608   0.117   2.998
 1875SOL     OW 7741   3.591   0.373   3.112
 1875SOL    HW2 7742   3.587   0.390   3.206
 1875SOL    HW3 7743   3.649   0.440   3.078
 1875SOL    MW4 7744   3.598   0.384   3.120
 1876SOL     OW 7745   3.795   0.527   2.996
 1876SOL    HW2 7746   3.866   0.485   3.045
 1876SOL    HW3 7747   3.791   0.616   3.032
 1876SOL    MW4 7748   3.804   0.533   3.007
 1877SOL     OW 7749   3.800   0.765   3.136
 1877SOL    HW2 7750   3.815   0.739   3.227
 1877SOL    HW3 7751   3.883   0.803   3.107
 1877SOL    MW4 7752   3.813   0.767   3.144
 1878SOL     OW 7753   3.600   0.911   3.015
 1878SOL    HW2 7754   3.669   0.857   3.053
 1878SOL    HW3 7755   3.519   0.862   3.032
 1878SOL    MW4 7756   3.598   0.898   3.022
 1879SOL     OW 7757   3.608   1.177   3.128
 1879SOL    HW2 7758   3.689   1.223   3.104
 1879SOL    HW3 7759   3.628   1.085   3.110
 1879SOL    MW4 7760   3.622   1.171   3.122
 1880SOL     OW 7761   3.836   1.286   3.014
 1880SOL    HW2 7762   3.827   1.380   3.028
 1880SOL    HW3 7763   3.829   1.275   2.919
 1880SOL    MW4 7764   3.834   1.297   3.003
 1881SOL     OW 7765   3.819   1.543   3.078
 1881SOL    HW2 7766   3.814   1.536   3.174
 1881SOL    HW3 7767   3.736   1.583   3.052
 1881SOL    MW4 7768   3.807   1.547   3.087
 1882SOL     OW 7769   3.602   1.677   2.964
 1882SOL    HW2 7770   3.588   1.764   3.001
 1882SOL    HW3 7771   3.636   1.695   2.876
 1882SOL    MW4 7772   3.605   1.691   2.957
 1883SOL     OW 7773   3.573   1.912   3.073
 1883SOL    HW2 7774   3.566   1.894   3.167
 1883SOL    HW3 7775   3.661   1.948   3.061
 1883SOL    MW4 7776   3.583   1.914   3.084
 1884SOL     OW 7777   3.825   2.062   3.027
 1884SOL    HW2 7778   3.817   2.150   3.065
 1884SOL    HW3 7779   3.853   2.078   2.936
 1884SOL    MW4 7780   3.828   2.076   3.020
 1885SOL     OW 7781   3.797   2.329   3.129
 1885SOL    HW2 7782   3.775   2.335   3.222
 1885SOL    HW3 7783   3.724   2.372   3.084
 1885SOL    MW4 7784   3.784   2.336   3.135
 1886SOL     OW 7785   3.605   2.472   3.004
 1886SOL    HW2 7786   3.603   2.559   3.045
 1886SOL    HW3 7787   3.515   2.440   3.012
 1886SOL    MW4 7788   3.593   2.479   3.011
 1887SOL     OW 7789   3.590   2.697   3.151
 1887SOL    HW2 7790   3.671   2.742   3.125
 1887SOL    HW3 7791   3.520   2.755   3.121
 1887SOL    MW4 7792   3.591   2.710   3.143
 1888SOL     OW 7793   3.822   2.851   3.058
 1888SOL    HW2 7794   3.806   2.943   3.077
 1888SOL    HW3 7795   3.822   2.846   2.963
 1888SOL    MW4 7796   3.820   2.862   3.048
 1889SOL     OW 7797   3.839   3.129   3.091
 1889SOL    HW2 7798   3.922   3.176   3.092
 1889SOL    HW3 7799   3.775   3.194   3.062
 1889SOL    MW4 7800   3.841   3.144   3.087
 1890SOL     OW 7801   3.624   3.266   3.009
 1890SOL    HW2 7802   3.548   3.220   3.043
 1890SOL    HW3 7803   3.611   3.269   2.914
 1890SOL    MW4 7804   3.612   3.261   3.001
 1891SOL     OW 7805   3.622   3.516   3.127
 1891SOL    HW2 7806   3.705   3.558   3.104
 1891SOL    HW3 7807   3.628   3.429   3.088
 1891SOL    MW4 7808   3.634   3.510   3.119
 1892SOL     OW 7809   3.859   3.619   3.037
 1892SOL    HW2 7810   3.845   3.712   3.056
 1892SOL    HW3 7811   3.848   3.612   2.942
 1892SOL    MW4 7812   3.856   3.630   3.027
 1893SOL     OW 7813   3.796   3.904   3.133
 1893SOL    HW2 7814   3.798   3.918   3.227
 1893SOL    HW3 7815   3.712   3.941   3.105
 1893SOL    MW4 7816   3.785   3.911   3.141
 1894SOL     OW 7817   3.562   4.012   3.011
 1894SOL    HW2 7818   3.486   3.957   3.031
 1894SOL    HW3 7819   3.568   4.010   2.915
 1894SOL    MW4 7820   3.553   4.004   3.001
 1895SOL     OW 7821   3.535   4.275   3.129
 1895SOL    HW2 7822   3.611   4.318   3.089
 1895SOL    HW3 7823   3.533   4.188   3.090
 1895SOL    MW4 7824   3.544   4.269   3.119
 1896SOL     OW 7825   3.781   4.395   3.045
 1896SOL    HW2 7826   3.868   4.369   3.076
 1896SOL    HW3 7827   3.793   4.409   2.951
 1896SOL    MW4 7828   3.794   4.393   3.036
 1897SOL     OW 7829   4.268   0.023   3.099
 1897SOL    HW2 7830   4.281   0.021   3.194
 1897SOL    HW3 7831   4.260  -0.069   3.075
 1897SOL    MW4 7832   4.268   0.011   3.109
 1898SOL     OW 7833   4.028   0.157   3.041
 1898SOL    HW2 7834   4.106   0.123   3.084
 1898SOL    HW3 7835   3.956   0.109   3.080
 1898SOL    MW4 7836   4.029   0.146   3.052
 1899SOL     OW 7837   4.015   0.421   3.120
 1899SOL    HW2 7838   4.100   0.452   3.089
 1899SOL    HW3 7839   4.012   0.329   3.096
 1899SOL    MW4 7840   4.026   0.413   3.113
 1900SOL     OW 7841   4.262   0.515   3.024
 1900SOL    HW2 7842   4.270   0.602   3.063
 1900SOL    HW3 7843   4.271   0.530   2.930
 1900SOL    MW4 7844   4.264   0.528   3.017
 1901SOL     OW 7845   4.276   0.747   3.146
 1901SOL    HW2 7846   4.199   0.783   3.104
 1901SOL    HW3 7847   4.348   0.802   3.116
 1901SOL    MW4 7848   4.276   0.759   3.137
 1902SOL     OW 7849   4.046   0.876   3.061
 1902SOL    HW2 7850   4.053   0.966   3.093
 1902SOL    HW3 7851   4.033   0.885   2.967
 1902SOL    MW4 7852   4.045   0.889   3.053
 1903SOL     OW 7853   4.061   1.164   3.091
 1903SOL    HW2 7854   4.054   1.155   3.186
 1903SOL    HW3 7855   3.982   1.210   3.065
 1903SOL    MW4 7856   4.050   1.169   3.100
 1904SOL     OW 7857   4.297   1.298   3.050
 1904SOL    HW2 7858   4.214   1.256   3.070
 1904SOL    HW3 7859   4.294   1.312   2.955
 1904SOL    MW4 7860   4.286   1.295   3.040
 1905SOL     OW 7861   4.275   1.545   3.142
 1905SOL    HW2 7862   4.197   1.575   3.096
 1905SOL    HW3 7863   4.289   1.456   3.109
 1905SOL    MW4 7864   4.267   1.537   3.132
 1906SOL     OW 7865   4.072   1.644   3.009
 1906SOL    HW2 7866   4.064   1.731   3.049
 1906SOL    HW3 7867   3.991   1.599   3.033
 1906SOL    MW4 7868   4.060   1.650   3.017
 1907SOL     OW 7869   4.037   1.909   3.087
 1907SOL    HW2 7870   4.113   1.966   3.092
 1907SOL    HW3 7871   3.963   1.969   3.070
 1907SOL    MW4 7872   4.037   1.925   3.085
 1908SOL     OW 7873   4.277   2.048   3.080
 1908SOL    HW2 7874   4.271   2.142   3.095
 1908SOL    HW3 7875   4.269   2.039   2.985
 1908SOL    MW4 7876   4.275   2.059   3.069
 1909SOL     OW 7877   4.246   2.307   3.104
 1909SOL    HW2 7878   4.179   2.364   3.067
 1909SOL    HW3 7879   4.329   2.347   3.079
 1909SOL    MW4 7880   4.248   2.320   3.096
 1910SOL     OW 7881   4.018   2.459   3.016
 1910SOL    HW2 7882   4.012   2.551   3.040
 1910SOL    HW3 7883   3.941   2.418   3.056
 1910SOL    MW4 7884   4.007   2.466   3.025
 1911SOL     OW 7885   4.069   2.737   3.104
 1911SOL    HW2 7886   4.067   2.728   3.200
 1911SOL    HW3 7887   3.983   2.773   3.083
 1911SOL    MW4 7888   4.057   2.740   3.114
 1912SOL     OW 7889   4.277   2.845   2.974
 1912SOL    HW2 7890   4.203   2.796   3.008
 1912SOL    HW3 7891   4.354   2.805   3.015
 1912SOL    MW4 7892   4.277   2.833   2.984
 1913SOL     OW 7893   4.250   3.092   3.115
 1913SOL    HW2 7894   4.179   3.134   3.066
 1913SOL    HW3 7895   4.254   3.003   3.079
 1913SOL    MW4 7896   4.241   3.086   3.104
 1914SOL     OW 7897   4.063   3.270   3.025
 1914SOL    HW2 7898   4.077   3.363   3.045
 1914SOL    HW3 7899   4.080   3.263   2.931
 1914SOL    MW4 7900   4.067   3.281   3.015
 1915SOL     OW 7901   4.077   3.514   3.167
 1915SOL    HW2 7902   4.066   3.512   3.262
 1915SOL    HW3 7903   4.003   3.567   3.135
 1915SOL    MW4 7904   4.066   3.521   3.175
 1916SOL     OW 7905   4.266   3.686   3.025
 1916SOL    HW2 7906   4.272   3.770   3.070
 1916SOL    HW3 7907   4.200   3.637   3.074
 1916SOL    MW4 7908   4.258   3.691   3.037
 1917SOL     OW 7909   4.254   3.933   3.148
 1917SOL    HW2 7910   4.172   3.953   3.103
 1917SOL    HW3 7911   4.321   3.977   3.097
 1917SOL    MW4 7912   4.252   3.941   3.135
 1918SOL     OW 7913   4.029   4.020   3.036
 1918SOL    HW2 7914   4.026   4.111   3.067
 1918SOL    HW3 7915   3.948   3.981   3.070
 1918SOL    MW4 7916   4.018   4.027   3.044
 1919SOL     OW 7917   4.043   4.288   3.125
 1919SOL    HW2 7918   4.033   4.275   3.219
 1919SOL    HW3 7919   4.132   4.323   3.115
 1919SOL    MW4 7920   4.054   4.291   3.136
 1920SOL     OW 7921   4.282   4.418   3.033
 1920SOL    HW2 7922   4.353   4.363   3.067
 1920SOL    HW3 7923   4.280   4.399   2.939
 1920SOL    MW4 7924   4.291   4.408   3.025
 1921SOL     OW 7925   0.233   0.010   3.386
 1921SOL    HW2 7926   0.307   0.058   3.422
 1921SOL    HW3 7927   0.250  -0.082   3.407
 1921SOL    MW4 7928   0.245   0.004   3.394
 1922SOL     OW 7929   0.019   0.116   3.515
 1922SOL    HW2 7930   0.032   0.208   3.491
 1922SOL    HW3 7931   0.094   0.071   3.477
 1922SOL    MW4 7932   0.031   0.122   3.507
 1923SOL     OW 7933   0.041   0.376   3.421
 1923SOL    HW2 7934  -0.034   0.421   3.460
 1923SOL    HW3 7935   0.117   0.410   3.468
 1923SOL    MW4 7936   0.041   0.386   3.432
 1924SOL     OW 7937   0.267   0.510   3.541
 1924SOL    HW2 7938   0.335   0.471   3.486
 1924SOL    HW3 7939   0.246   0.593   3.498
 1924SOL    MW4 7940   0.273   0.516   3.528
 1925SOL     OW 7941   0.219   0.759   3.438
 1925SOL    HW2 7942   0.294   0.815   3.460
 1925SOL    HW3 7943   0.142   0.814   3.452
 1925SOL    MW4 7944   0.219   0.773   3.443
 1926SOL     OW 7945   4.490   0.895   3.505
 1926SOL    HW2 7946   4.517   0.894   3.597
 1926SOL    HW3 7947   4.493   0.987   3.481
 1926SOL    MW4 7948   4.494   0.907   3.514
 1927SOL     OW 7949   4.464   1.158   3.433
 1927SOL    HW2 7950   4.544   1.198   3.465
 1927SOL    HW3 7951   4.463   1.176   3.339
 1927SOL    MW4 7952   4.474   1.166   3.425
 1928SOL     OW 7953   0.213   1.290   3.507
 1928SOL    HW2 7954   0.281   1.227   3.483
 1928SOL    HW3 7955   0.229   1.366   3.450
 1928SOL    MW4 7956   0.224   1.292   3.496
 1929SOL     OW 7957   0.255   1.538   3.390
 1929SOL    HW2 7958   0.339   1.577   3.415
 1929SOL    HW3 7959   0.261   1.528   3.295
 1929SOL    MW4 7960   0.267   1.542   3.381
 1930SOL     OW 7961   0.024   1.664   3.484
 1930SOL    HW2 7962  -0.053   1.621   3.448
 1930SOL    HW3 7963   0.098   1.611   3.453
 1930SOL    MW4 7964   0.023   1.652   3.475
 1931SOL     OW 7965   4.454   1.937   3.435
 1931SOL    HW2 7966   4.469   1.843   3.448
 1931SOL    HW3 7967   4.454   1.949   3.340
 1931SOL    MW4 7968   4.456   1.926   3.424
 1932SOL     OW 7969   0.222   2.047   3.469
 1932SOL    HW2 7970   0.261   2.020   3.552
 1932SOL    HW3 7971   0.140   1.998   3.464
 1932SOL    MW4 7972   0.216   2.037   3.480
 1933SOL     OW 7973   0.249   2.313   3.412
 1933SOL    HW2 7974   0.167   2.356   3.437
 1933SOL    HW3 7975   0.231   2.220   3.423
 1933SOL    MW4 7976   0.235   2.306   3.417
 1934SOL     OW 7977   0.023   2.448   3.462
 1934SOL    HW2 7978   0.015   2.442   3.557
 1934SOL    HW3 7979  -0.057   2.408   3.428
 1934SOL    MW4 7980   0.011   2.442   3.470
 1935SOL     OW 7981   0.001   2.712   3.391
 1935SOL    HW2 7982   0.078   2.747   3.435
 1935SOL    HW3 7983  -0.001   2.620   3.418
 1935SOL    MW4 7984   0.011   2.704   3.401
 1936SOL     OW 7985   0.214   2.818   3.505
 1936SOL    HW2 7986   0.290   2.779   3.461
 1936SOL    HW3 7987   0.211   2.908   3.472
 1936SOL    MW4 7988   0.224   2.825   3.495
 1937SOL     OW 7989   0.208   3.064   3.421
 1937SOL    HW2 7990   0.129   3.099   3.463
 1937SOL    HW3 7991   0.188   3.065   3.328
 1937SOL    MW4 7992   0.195   3.069   3.414
 1938SOL     OW 7993   4.480   3.182   3.529
 1938SOL    HW2 7994   4.401   3.148   3.488
 1938SOL    HW3 7995   4.491   3.270   3.493
 1938SOL    MW4 7996   4.471   3.189   3.519
 1939SOL     OW 7997   4.486   3.426   3.402
 1939SOL    HW2 7998   4.417   3.479   3.442
 1939SOL    HW3 7999   4.484   3.450   3.309
 1939SOL    MW4 8000   4.477   3.436   3.395
 1940SOL     OW 8001   0.204   3.590   3.475
 1940SOL    HW2 8002   0.192   3.577   3.569
 1940SOL    HW3 8003   0.137   3.535   3.434
 1940SOL    MW4 8004   0.193   3.581   3.482
 1941SOL     OW 8005   0.227   3.848   3.391
 1941SOL    HW2 8006   0.154   3.887   3.438
 1941SOL    HW3 8007   0.216   3.754   3.404
 1941SOL    MW4 8008   0.216   3.841   3.399
 1942SOL     OW 8009   0.012   3.994   3.503
 1942SOL    HW2 8010   0.037   3.984   3.595
 1942SOL    HW3 8011   0.027   4.086   3.483
 1942SOL    MW4 8012   0.017   4.005   3.512
 1943SOL     OW 8013   0.030   4.275   3.422
 1943SOL    HW2 8014  -0.053   4.318   3.445
 1943SOL    HW3 8015   0.097   4.328   3.465
 1943SOL    MW4 8016   0.028   4.288   3.431
 1944SOL     OW 8017   0.231   4.418   3.526
 1944SOL    HW2 8018   0.226   4.411   3.622
 1944SOL    HW3 8019   0.306   4.363   3.503
 1944SOL    MW4 8020   0.241   4.410   3.536
 1945SOL     OW 8021   0.623   4.594   3.437
 1945SOL    HW2 8022   0.696   4.645   3.472
 1945SOL    HW3 8023   0.622   4.615   3.343
 1945SOL    MW4 8024   0.632   4.604   3.429
 1946SOL     OW 8025   0.459   0.141   3.501
 1946SOL    HW2 8026   0.468   0.160   3.594
 1946SOL    HW3 8027   0.513   0.063   3.486
 1946SOL    MW4 8028   0.467   0.133   3.511
 1947SOL     OW 8029   0.449   0.393   3.380
 1947SOL    HW2 8030   0.533   0.429   3.410
 1947SOL    HW3 8031   0.442   0.308   3.422
 1947SOL    MW4 8032   0.459   0.387   3.389
 1948SOL     OW 8033   0.670   0.494   3.500
 1948SOL    HW2 8034   0.692   0.504   3.592
 1948SOL    HW3 8035   0.738   0.436   3.465
 1948SOL    MW4 8036   0.682   0.488   3.507
 1949SOL     OW 8037   0.698   0.748   3.420
 1949SOL    HW2 8038   0.613   0.784   3.444
 1949SOL    HW3 8039   0.692   0.654   3.441
 1949SOL    MW4 8040   0.686   0.740   3.426
 1950SOL     OW 8041   0.464   0.884   3.514
 1950SOL    HW2 8042   0.472   0.885   3.610
 1950SOL    HW3 8043   0.446   0.976   3.491
 1950SOL    MW4 8044   0.463   0.896   3.524
 1951SOL     OW 8045   0.435   1.140   3.425
 1951SOL    HW2 8046   0.518   1.186   3.441
 1951SOL    HW3 8047   0.436   1.119   3.332
 1951SOL    MW4 8048   0.446   1.143   3.415
 1952SOL     OW 8049   0.682   1.267   3.485
 1952SOL    HW2 8050   0.768   1.226   3.476
 1952SOL    HW3 8051   0.697   1.359   3.462
 1952SOL    MW4 8052   0.695   1.274   3.481
 1953SOL     OW 8053   0.744   1.544   3.396
 1953SOL    HW2 8054   0.807   1.603   3.439
 1953SOL    HW3 8055   0.659   1.581   3.419
 1953SOL    MW4 8056   0.741   1.557   3.405
 1954SOL     OW 8057   0.484   1.669   3.447
 1954SOL    HW2 8058   0.474   1.666   3.542
 1954SOL    HW3 8059   0.449   1.755   3.422
 1954SOL    MW4 8060   0.478   1.680   3.456
 1955SOL     OW 8061   0.439   1.919   3.366
 1955SOL    HW2 8062   0.368   1.968   3.407
 1955SOL    HW3 8063   0.413   1.908   3.275
 1955SOL    MW4 8064   0.427   1.924   3.359
 1956SOL     OW 8065   0.688   1.998   3.469
 1956SOL    HW2 8066   0.666   1.993   3.562
 1956SOL    HW3 8067   0.607   1.973   3.424
 1956SOL    MW4 8068   0.674   1.994   3.476
 1957SOL     OW 8069   0.671   2.288   3.375
 1957SOL    HW2 8070   0.754   2.327   3.399
 1957SOL    HW3 8071   0.679   2.196   3.399
 1957SOL    MW4 8072   0.683   2.281   3.381
 1958SOL     OW 8073   0.476   2.457   3.475
 1958SOL    HW2 8074   0.547   2.401   3.444
 1958SOL    HW3 8075   0.396   2.410   3.450
 1958SOL    MW4 8076   0.475   2.443   3.468
 1959SOL     OW 8077   0.442   2.737   3.399
 1959SOL    HW2 8078   0.473   2.652   3.432
 1959SOL    HW3 8079   0.433   2.724   3.304
 1959SOL    MW4 8080   0.445   2.724   3.391
 1960SOL     OW 8081   0.683   2.846   3.493
 1960SOL    HW2 8082   0.740   2.783   3.449
 1960SOL    HW3 8083   0.595   2.813   3.480
 1960SOL    MW4 8084   0.679   2.834   3.485
 1961SOL     OW 8085   0.686   3.130   3.424
 1961SOL    HW2 8086   0.595   3.149   3.444
 1961SOL    HW3 8087   0.695   3.035   3.439
 1961SOL    MW4 8088   0.676   3.120   3.428
 1962SOL     OW 8089   0.437   3.213   3.473
 1962SOL    HW2 8090   0.440   3.219   3.568
 1962SOL    HW3 8091   0.363   3.155   3.454
 1962SOL    MW4 8092   0.428   3.206   3.483
 1963SOL     OW 8093   0.430   3.460   3.366
 1963SOL    HW2 8094   0.420   3.375   3.408
 1963SOL    HW3 8095   0.359   3.513   3.401
 1963SOL    MW4 8096   0.419   3.456   3.376
 1964SOL     OW 8097   0.658   3.591   3.489
 1964SOL    HW2 8098   0.743   3.560   3.456
 1964SOL    HW3 8099   0.594   3.536   3.444
 1964SOL    MW4 8100   0.661   3.579   3.478
 1965SOL     OW 8101   0.688   3.838   3.361
 1965SOL    HW2 8102   0.604   3.878   3.385
 1965SOL    HW3 8103   0.687   3.753   3.404
 1965SOL    MW4 8104   0.677   3.832   3.370
 1966SOL     OW 8105   0.430   3.988   3.509
 1966SOL    HW2 8106   0.406   4.078   3.488
 1966SOL    HW3 8107   0.366   3.934   3.462
 1966SOL    MW4 8108   0.419   3.992   3.500
 1967SOL     OW 8109   0.425   4.254   3.429
 1967SOL    HW2 8110   0.507   4.295   3.456
 1967SOL    HW3 8111   0.425   4.264   3.333
 1967SOL    MW4 8112   0.436   4.261   3.420
 1968SOL     OW 8113   0.661   4.343   3.555
 1968SOL    HW2 8114   0.738   4.294   3.524
 1968SOL    HW3 8115   0.667   4.427   3.510
 1968SOL    MW4 8116   0.672   4.348   3.545
 1969SOL     OW 8117   1.102   4.667   3.410
 1969SOL    HW2 8118   1.191   4.700   3.423
 1969SOL    HW3 8119   1.089   4.669   3.315
 1969SOL    MW4 8120   1.112   4.671   3.399
 1970SOL     OW 8121   0.849   0.071   3.505
 1970SOL    HW2 8122   0.857   0.069   3.601
 1970SOL    HW3 8123   0.930   0.031   3.474
 1970SOL    MW4 8124   0.861   0.065   3.514
 1971SOL     OW 8125   0.899   0.328   3.422
 1971SOL    HW2 8126   0.988   0.351   3.448
 1971SOL    HW3 8127   0.884   0.241   3.461
 1971SOL    MW4 8128   0.909   0.319   3.430
 1972SOL     OW 8129   1.149   0.478   3.502
 1972SOL    HW2 8130   1.155   0.492   3.597
 1972SOL    HW3 8131   1.133   0.566   3.467
 1972SOL    MW4 8132   1.147   0.491   3.510
 1973SOL     OW 8133   1.119   0.731   3.408
 1973SOL    HW2 8134   1.203   0.770   3.434
 1973SOL    HW3 8135   1.054   0.777   3.461
 1973SOL    MW4 8136   1.122   0.742   3.418
 1974SOL     OW 8137   0.918   0.883   3.525
 1974SOL    HW2 8138   0.918   0.971   3.487
 1974SOL    HW3 8139   0.844   0.839   3.483
 1974SOL    MW4 8140   0.908   0.889   3.514
 1975SOL     OW 8141   0.944   1.154   3.442
 1975SOL    HW2 8142   1.016   1.210   3.470
 1975SOL    HW3 8143   0.949   1.156   3.346
 1975SOL    MW4 8144   0.954   1.162   3.433
 1976SOL     OW 8145   1.166   1.304   3.506
 1976SOL    HW2 8146   1.194   1.322   3.596
 1976SOL    HW3 8147   1.158   1.391   3.466
 1976SOL    MW4 8148   1.169   1.318   3.513
 1977SOL     OW 8149   1.170   1.555   3.404
 1977SOL    HW2 8150   1.249   1.607   3.421
 1977SOL    HW3 8151   1.144   1.579   3.315
 1977SOL    MW4 8152   1.177   1.565   3.394
 1978SOL     OW 8153   0.947   1.691   3.521
 1978SOL    HW2 8154   0.951   1.766   3.462
 1978SOL    HW3 8155   1.024   1.639   3.500
 1978SOL    MW4 8156   0.958   1.694   3.511
 1979SOL     OW 8157   0.905   1.909   3.351
 1979SOL    HW2 8158   0.979   1.949   3.396
 1979SOL    HW3 8159   0.830   1.929   3.407
 1979SOL    MW4 8160   0.905   1.917   3.364
 1980SOL     OW 8161   1.130   2.038   3.470
 1980SOL    HW2 8162   1.216   2.000   3.453
 1980SOL    HW3 8163   1.130   2.122   3.424
 1980SOL    MW4 8164   1.141   2.044   3.462
 1981SOL     OW 8165   1.145   2.315   3.404
 1981SOL    HW2 8166   1.207   2.382   3.432
 1981SOL    HW3 8167   1.145   2.319   3.309
 1981SOL    MW4 8168   1.153   2.324   3.396
 1982SOL     OW 8169   0.892   2.396   3.494
 1982SOL    HW2 8170   0.890   2.409   3.589
 1982SOL    HW3 8171   0.970   2.342   3.480
 1982SOL    MW4 8172   0.902   2.391   3.505
 1983SOL     OW 8173   0.874   2.675   3.409
 1983SOL    HW2 8174   0.945   2.728   3.445
 1983SOL    HW3 8175   0.900   2.585   3.426
 1983SOL    MW4 8176   0.887   2.670   3.416
 1984SOL     OW 8177   1.104   2.814   3.488
 1984SOL    HW2 8178   1.125   2.831   3.580
 1984SOL    HW3 8179   1.185   2.782   3.450
 1984SOL    MW4 8180   1.117   2.812   3.495
 1985SOL     OW 8181   1.108   3.097   3.402
 1985SOL    HW2 8182   1.088   3.004   3.418
 1985SOL    HW3 8183   1.138   3.100   3.311
 1985SOL    MW4 8184   1.109   3.085   3.392
 1986SOL     OW 8185   0.910   3.262   3.518
 1986SOL    HW2 8186   0.983   3.211   3.484
 1986SOL    HW3 8187   0.833   3.226   3.474
 1986SOL    MW4 8188   0.909   3.251   3.507
 1987SOL     OW 8189   0.895   3.490   3.368
 1987SOL    HW2 8190   0.912   3.401   3.399
 1987SOL    HW3 8191   0.888   3.481   3.273
 1987SOL    MW4 8192   0.896   3.477   3.359
 1988SOL     OW 8193   1.126   3.611   3.466
 1988SOL    HW2 8194   1.124   3.601   3.561
 1988SOL    HW3 8195   1.044   3.572   3.435
 1988SOL    MW4 8196   1.115   3.605   3.474
 1989SOL     OW 8197   1.122   3.871   3.430
 1989SOL    HW2 8198   1.202   3.922   3.441
 1989SOL    HW3 8199   1.148   3.781   3.451
 1989SOL    MW4 8200   1.136   3.866   3.434
 1990SOL     OW 8201   0.874   3.984   3.513
 1990SOL    HW2 8202   0.949   3.954   3.461
 1990SOL    HW3 8203   0.798   3.940   3.475
 1990SOL    MW4 8204   0.874   3.974   3.501
 1991SOL     OW 8205   0.890   4.258   3.429
 1991SOL    HW2 8206   0.920   4.169   3.445
 1991SOL    HW3 8207   0.913   4.276   3.338
 1991SOL    MW4 8208   0.897   4.249   3.419
 1992SOL     OW 8209   1.109   4.419   3.536
 1992SOL    HW2 8210   1.033   4.363   3.523
 1992SOL    HW3 8211   1.089   4.497   3.484
 1992SOL    MW4 8212   1.096   4.422   3.527
 1993SOL     OW 8213   1.598   4.636   3.416
 1993SOL    HW2 8214   1.587   4.551   3.458
 1993SOL    HW3 8215   1.516   4.682   3.435
 1993SOL    MW4 8216   1.586   4.631   3.424
 1994SOL     OW 8217   1.345   0.099   3.468
 1994SOL    HW2 8218   1.350   0.109   3.563
 1994SOL    HW3 8219   1.359   0.187   3.434
 1994SOL    MW4 8220   1.348   0.112   3.476
 1995SOL     OW 8221   1.357   0.374   3.386
 1995SOL    HW2 8222   1.424   0.415   3.442
 1995SOL    HW3 8223   1.275   0.409   3.420
 1995SOL    MW4 8224   1.355   0.384   3.398
 1996SOL     OW 8225   1.563   0.489   3.514
 1996SOL    HW2 8226   1.573   0.508   3.608
 1996SOL    HW3 8227   1.649   0.457   3.487
 1996SOL    MW4 8228   1.576   0.488   3.523
 1997SOL     OW 8229   1.579   0.734   3.388
 1997SOL    HW2 8230   1.506   0.785   3.424
 1997SOL    HW3 8231   1.571   0.648   3.428
 1997SOL    MW4 8232   1.568   0.730   3.398
 1998SOL     OW 8233   1.367   0.862   3.491
 1998SOL    HW2 8234   1.377   0.870   3.586
 1998SOL    HW3 8235   1.371   0.952   3.459
 1998SOL    MW4 8236   1.369   0.875   3.499
 1999SOL     OW 8237   1.365   1.121   3.402
 1999SOL    HW2 8238   1.440   1.171   3.436
 1999SOL    HW3 8239   1.289   1.164   3.440
 1999SOL    MW4 8240   1.365   1.134   3.411
 2000SOL     OW 8241   1.587   1.272   3.493
 2000SOL    HW2 8242   1.588   1.263   3.588
 2000SOL    HW3 8243   1.667   1.227   3.464
 2000SOL    MW4 8244   1.598   1.265   3.502
 2001SOL     OW 8245   1.618   1.529   3.385
 2001SOL    HW2 8246   1.597   1.437   3.402
 2001SOL    HW3 8247   1.600   1.541   3.292
 2001SOL    MW4 8248   1.613   1.518   3.375
 2002SOL     OW 8249   1.406   1.690   3.449
 2002SOL    HW2 8250   1.396   1.681   3.544
 2002SOL    HW3 8251   1.477   1.630   3.426
 2002SOL    MW4 8252   1.414   1.681   3.458
 2003SOL     OW 8253   1.363   1.939   3.365
 2003SOL    HW2 8254   1.441   1.987   3.395
 2003SOL    HW3 8255   1.381   1.848   3.389
 2003SOL    MW4 8256   1.376   1.933   3.372
 2004SOL     OW 8257   1.586   2.092   3.469
 2004SOL    HW2 8258   1.662   2.057   3.422
 2004SOL    HW3 8259   1.572   2.178   3.431
 2004SOL    MW4 8260   1.594   2.098   3.457
 2005SOL     OW 8261   1.585   2.348   3.360
 2005SOL    HW2 8262   1.513   2.389   3.409
 2005SOL    HW3 8263   1.565   2.366   3.269
 2005SOL    MW4 8264   1.573   2.356   3.355
 2006SOL     OW 8265   1.375   2.482   3.491
 2006SOL    HW2 8266   1.369   2.473   3.586
 2006SOL    HW3 8267   1.387   2.576   3.476
 2006SOL    MW4 8268   1.376   2.493   3.502
 2007SOL     OW 8269   1.338   2.748   3.376
 2007SOL    HW2 8270   1.424   2.781   3.400
 2007SOL    HW3 8271   1.339   2.742   3.281
 2007SOL    MW4 8272   1.349   2.752   3.367
 2008SOL     OW 8273   1.589   2.819   3.473
 2008SOL    HW2 8274   1.654   2.760   3.437
 2008SOL    HW3 8275   1.614   2.906   3.441
 2008SOL    MW4 8276   1.601   2.823   3.464
 2009SOL     OW 8277   1.622   3.082   3.379
 2009SOL    HW2 8278   1.678   3.158   3.393
 2009SOL    HW3 8279   1.533   3.114   3.394
 2009SOL    MW4 8280   1.617   3.096   3.383
 2010SOL     OW 8281   1.361   3.201   3.483
 2010SOL    HW2 8282   1.362   3.205   3.579
 2010SOL    HW3 8283   1.276   3.163   3.462
 2010SOL    MW4 8284   1.350   3.197   3.493
 2011SOL     OW 8285   1.380   3.464   3.382
 2011SOL    HW2 8286   1.381   3.373   3.410
 2011SOL    HW3 8287   1.293   3.496   3.407
 2011SOL    MW4 8288   1.368   3.456   3.389
 2012SOL     OW 8289   1.576   3.627   3.488
 2012SOL    HW2 8290   1.573   3.615   3.583
 2012SOL    HW3 8291   1.507   3.570   3.455
 2012SOL    MW4 8292   1.566   3.618   3.496
 2013SOL     OW 8293   1.551   3.912   3.445
 2013SOL    HW2 8294   1.560   3.818   3.465
 2013SOL    HW3 8295   1.561   3.918   3.350
 2013SOL    MW4 8296   1.553   3.900   3.435
 2014SOL     OW 8297   1.329   4.058   3.506
 2014SOL    HW2 8298   1.326   4.141   3.459
 2014SOL    HW3 8299   1.405   4.013   3.469
 2014SOL    MW4 8300   1.338   4.063   3.495
 2015SOL     OW 8301   1.330   4.298   3.375
 2015SOL    HW2 8302   1.245   4.331   3.404
 2015SOL    HW3 8303   1.328   4.308   3.280
 2015SOL    MW4 8304   1.319   4.304   3.366
 2016SOL     OW 8305   1.558   4.385   3.526
 2016SOL    HW2 8306   1.632   4.331   3.498
 2016SOL    HW3 8307   1.482   4.346   3.484
 2016SOL    MW4 8308   1.558   4.373   3.517
 2017SOL     OW 8309   1.997   0.014   3.404
 2017SOL    HW2 8310   2.068   0.074   3.428
 2017SOL    HW3 8311   1.919   0.054   3.443
 2017SOL    MW4 8312   1.996   0.027   3.413
 2018SOL     OW 8313   1.787   0.135   3.522
 2018SOL    HW2 8314   1.791   0.119   3.617
 2018SOL    HW3 8315   1.726   0.069   3.489
 2018SOL    MW4 8316   1.780   0.124   3.531
 2019SOL     OW 8317   1.815   0.394   3.439
 2019SOL    HW2 8318   1.801   0.305   3.472
 2019SOL    HW3 8319   1.822   0.385   3.345
 2019SOL    MW4 8320   1.814   0.381   3.431
 2020SOL     OW 8321   2.011   0.573   3.522
 2020SOL    HW2 8322   2.004   0.646   3.460
 2020SOL    HW3 8323   1.937   0.517   3.500
 2020SOL    MW4 8324   2.000   0.576   3.511
 2021SOL     OW 8325   2.022   0.812   3.357
 2021SOL    HW2 8326   2.107   0.849   3.382
 2021SOL    HW3 8327   2.026   0.809   3.261
 2021SOL    MW4 8328   2.034   0.817   3.347
 2022SOL     OW 8329   1.782   0.891   3.498
 2022SOL    HW2 8330   1.865   0.860   3.462
 2022SOL    HW3 8331   1.716   0.838   3.455
 2022SOL    MW4 8332   1.784   0.880   3.488
 2023SOL     OW 8333   1.809   1.159   3.389
 2023SOL    HW2 8334   1.894   1.198   3.409
 2023SOL    HW3 8335   1.804   1.081   3.444
 2023SOL    MW4 8336   1.819   1.154   3.399
 2024SOL     OW 8337   2.065   1.254   3.485
 2024SOL    HW2 8338   2.068   1.253   3.580
 2024SOL    HW3 8339   2.062   1.347   3.461
 2024SOL    MW4 8340   2.065   1.266   3.494
 2025SOL     OW 8341   2.050   1.507   3.367
 2025SOL    HW2 8342   2.127   1.556   3.396
 2025SOL    HW3 8343   1.975   1.556   3.401
 2025SOL    MW4 8344   2.050   1.520   3.375
 2026SOL     OW 8345   1.841   1.666   3.462
 2026SOL    HW2 8346   1.823   1.746   3.413
 2026SOL    HW3 8347   1.764   1.611   3.448
 2026SOL    MW4 8348   1.828   1.669   3.454
 2027SOL     OW 8349   1.815   1.945   3.372
 2027SOL    HW2 8350   1.885   1.970   3.432
 2027SOL    HW3 8351   1.852   1.957   3.285
 2027SOL    MW4 8352   1.829   1.950   3.369
 2028SOL     OW 8353   2.035   2.083   3.478
 2028SOL    HW2 8354   2.121   2.056   3.445
 2028SOL    HW3 8355   2.028   2.176   3.453
 2028SOL    MW4 8356   2.046   2.092   3.470
 2029SOL     OW 8357   2.036   2.363   3.381
 2029SOL    HW2 8358   2.108   2.415   3.417
 2029SOL    HW3 8359   2.048   2.369   3.286
 2029SOL    MW4 8360   2.047   2.371   3.373
 2030SOL     OW 8361   1.812   2.467   3.493
 2030SOL    HW2 8362   1.898   2.447   3.457
 2030SOL    HW3 8363   1.754   2.401   3.456
 2030SOL    MW4 8364   1.816   2.456   3.483
 2031SOL     OW 8365   1.808   2.710   3.352
 2031SOL    HW2 8366   1.889   2.760   3.363
 2031SOL    HW3 8367   1.829   2.623   3.385
 2031SOL    MW4 8368   1.822   2.705   3.358
 2032SOL     OW 8369   2.022   2.852   3.433
 2032SOL    HW2 8370   2.028   2.843   3.528
 2032SOL    HW3 8371   2.002   2.944   3.418
 2032SOL    MW4 8372   2.021   2.863   3.443
 2033SOL     OW 8373   1.995   3.120   3.385
 2033SOL    HW2 8374   2.077   3.158   3.417
 2033SOL    HW3 8375   1.930   3.189   3.399
 2033SOL    MW4 8376   1.997   3.134   3.391
 2034SOL     OW 8377   1.789   3.295   3.460
 2034SOL    HW2 8378   1.757   3.304   3.550
 2034SOL    HW3 8379   1.793   3.385   3.427
 2034SOL    MW4 8380   1.785   3.308   3.468
 2035SOL     OW 8381   1.812   3.555   3.356
 2035SOL    HW2 8382   1.727   3.577   3.396
 2035SOL    HW3 8383   1.792   3.547   3.262
 2035SOL    MW4 8384   1.798   3.557   3.349
 2036SOL     OW 8385   2.020   3.647   3.506
 2036SOL    HW2 8386   2.093   3.611   3.456
 2036SOL    HW3 8387   1.942   3.611   3.464
 2036SOL    MW4 8388   2.020   3.638   3.494
 2037SOL     OW 8389   2.051   3.908   3.399
 2037SOL    HW2 8390   1.979   3.959   3.435
 2037SOL    HW3 8391   2.045   3.823   3.443
 2037SOL    MW4 8392   2.041   3.903   3.409
 2038SOL     OW 8393   1.803   4.006   3.500
 2038SOL    HW2 8394   1.808   3.993   3.595
 2038SOL    HW3 8395   1.724   3.959   3.474
 2038SOL    MW4 8396   1.793   3.998   3.509
 2039SOL     OW 8397   1.808   4.306   3.407
 2039SOL    HW2 8398   1.807   4.212   3.423
 2039SOL    HW3 8399   1.780   4.316   3.316
 2039SOL    MW4 8400   1.804   4.295   3.398
 2040SOL     OW 8401   2.003   4.449   3.535
 2040SOL    HW2 8402   1.929   4.402   3.498
 2040SOL    HW3 8403   1.999   4.536   3.495
 2040SOL    MW4 8404   1.993   4.455   3.525
 2041SOL     OW 8405   2.417   0.007   3.426
 2041SOL    HW2 8406   2.417  -0.071   3.481
 2041SOL    HW3 8407   2.429  -0.025   3.337
 2041SOL    MW4 8408   2.419  -0.007   3.421
 2042SOL     OW 8409   2.199   0.175   3.502
 2042SOL    HW2 8410   2.200   0.254   3.447
 2042SOL    HW3 8411   2.276   0.125   3.474
 2042SOL    MW4 8412   2.209   0.179   3.491
 2043SOL     OW 8413   2.167   0.414   3.352
 2043SOL    HW2 8414   2.257   0.426   3.384
 2043SOL    HW3 8415   2.114   0.468   3.410
 2043SOL    MW4 8416   2.172   0.422   3.364
 2044SOL     OW 8417   2.414   0.474   3.466
 2044SOL    HW2 8418   2.491   0.439   3.421
 2044SOL    HW3 8419   2.411   0.566   3.440
 2044SOL    MW4 8420   2.424   0.482   3.457
 2045SOL     OW 8421   2.457   0.737   3.393
 2045SOL    HW2 8422   2.534   0.788   3.422
 2045SOL    HW3 8423   2.466   0.733   3.298
 2045SOL    MW4 8424   2.469   0.743   3.384
 2046SOL     OW 8425   2.245   0.904   3.483
 2046SOL    HW2 8426   2.271   0.991   3.454
 2046SOL    HW3 8427   2.317   0.847   3.456
 2046SOL    MW4 8428   2.258   0.908   3.476
 2047SOL     OW 8429   2.293   1.151   3.370
 2047SOL    HW2 8430   2.357   1.205   3.416
 2047SOL    HW3 8431   2.208   1.187   3.397
 2047SOL    MW4 8432   2.290   1.163   3.380
 2048SOL     OW 8433   2.526   1.278   3.451
 2048SOL    HW2 8434   2.529   1.268   3.546
 2048SOL    HW3 8435   2.599   1.226   3.418
 2048SOL    MW4 8436   2.536   1.270   3.459
 2049SOL     OW 8437   2.518   1.547   3.372
 2049SOL    HW2 8438   2.535   1.455   3.391
 2049SOL    HW3 8439   2.513   1.551   3.276
 2049SOL    MW4 8440   2.520   1.536   3.361
 2050SOL     OW 8441   2.273   1.659   3.453
 2050SOL    HW2 8442   2.272   1.660   3.549
 2050SOL    HW3 8443   2.356   1.617   3.430
 2050SOL    MW4 8444   2.284   1.654   3.463
 2051SOL     OW 8445   2.270   1.949   3.388
 2051SOL    HW2 8446   2.258   1.861   3.422
 2051SOL    HW3 8447   2.239   1.944   3.297
 2051SOL    MW4 8448   2.264   1.937   3.380
 2052SOL     OW 8449   2.488   2.062   3.504
 2052SOL    HW2 8450   2.478   2.058   3.599
 2052SOL    HW3 8451   2.418   2.007   3.470
 2052SOL    MW4 8452   2.478   2.054   3.512
 2053SOL     OW 8453   2.475   2.320   3.381
 2053SOL    HW2 8454   2.558   2.353   3.417
 2053SOL    HW3 8455   2.473   2.228   3.405
 2053SOL    MW4 8456   2.486   2.312   3.389
 2054SOL     OW 8457   2.253   2.486   3.481
 2054SOL    HW2 8458   2.260   2.575   3.447
 2054SOL    HW3 8459   2.330   2.441   3.445
 2054SOL    MW4 8460   2.264   2.492   3.471
 2055SOL     OW 8461   2.266   2.729   3.374
 2055SOL    HW2 8462   2.186   2.778   3.393
 2055SOL    HW3 8463   2.260   2.709   3.280
 2055SOL    MW4 8464   2.254   2.733   3.364
 2056SOL     OW 8465   2.474   2.835   3.522
 2056SOL    HW2 8466   2.486   2.927   3.498
 2056SOL    HW3 8467   2.407   2.803   3.462
 2056SOL    MW4 8468   2.467   2.843   3.511
 2057SOL     OW 8469   2.457   3.080   3.394
 2057SOL    HW2 8470   2.520   3.133   3.442
 2057SOL    HW3 8471   2.480   3.092   3.302
 2057SOL    MW4 8472   2.468   3.089   3.388
 2058SOL     OW 8473   2.213   3.251   3.492
 2058SOL    HW2 8474   2.219   3.241   3.587
 2058SOL    HW3 8475   2.284   3.197   3.458
 2058SOL    MW4 8476   2.223   3.243   3.500
 2059SOL     OW 8477   2.247   3.523   3.390
 2059SOL    HW2 8478   2.246   3.437   3.433
 2059SOL    HW3 8479   2.234   3.503   3.297
 2059SOL    MW4 8480   2.245   3.509   3.383
 2060SOL     OW 8481   2.479   3.635   3.480
 2060SOL    HW2 8482   2.489   3.718   3.433
 2060SOL    HW3 8483   2.400   3.596   3.442
 2060SOL    MW4 8484   2.470   3.641   3.469
 2061SOL     OW 8485   2.496   3.895   3.385
 2061SOL    HW2 8486   2.567   3.948   3.421
 2061SOL    HW3 8487   2.418   3.925   3.430
 2061SOL    MW4 8488   2.495   3.906   3.396
 2062SOL     OW 8489   2.273   4.021   3.509
 2062SOL    HW2 8490   2.271   4.111   3.475
 2062SOL    HW3 8491   2.204   3.976   3.460
 2062SOL    MW4 8492   2.263   4.027   3.498
 2063SOL     OW 8493   2.205   4.304   3.427
 2063SOL    HW2 8494   2.129   4.350   3.463
 2063SOL    HW3 8495   2.186   4.294   3.334
 2063SOL    MW4 8496   2.193   4.309   3.420
 2064SOL     OW 8497   2.470   4.408   3.528
 2064SOL    HW2 8498   2.476   4.410   3.623
 2064SOL    HW3 8499   2.378   4.386   3.511
 2064SOL    MW4 8500   2.458   4.405   3.538
 2065SOL     OW 8501   2.865   4.661   3.386
 2065SOL    HW2 8502   2.788   4.711   3.412
 2065SOL    HW3 8503   2.872   4.676   3.292
 2065SOL    MW4 8504   2.856   4.670   3.377
 2066SOL     OW 8505   2.658   0.121   3.507
 2066SOL    HW2 8506   2.664   0.205   3.463
 2066SOL    HW3 8507   2.570   0.088   3.486
 2066SOL    MW4 8508   2.647   0.127   3.498
 2067SOL     OW 8509   2.661   0.354   3.386
 2067SOL    HW2 8510   2.735   0.396   3.429
 2067SOL    HW3 8511   2.674   0.371   3.293
 2067SOL    MW4 8512   2.672   0.361   3.379
 2068SOL     OW 8513   2.909   0.521   3.465
 2068SOL    HW2 8514   2.928   0.537   3.557
 2068SOL    HW3 8515   2.910   0.608   3.424
 2068SOL    MW4 8516   2.911   0.535   3.472
 2069SOL     OW 8517   2.905   0.777   3.332
 2069SOL    HW2 8518   2.985   0.808   3.375
 2069SOL    HW3 8519   2.836   0.795   3.395
 2069SOL    MW4 8520   2.907   0.784   3.346
 2070SOL     OW 8521   2.702   0.889   3.489
 2070SOL    HW2 8522   2.714   0.916   3.580
 2070SOL    HW3 8523   2.721   0.968   3.438
 2070SOL    MW4 8524   2.706   0.903   3.494
 2071SOL     OW 8525   2.739   1.126   3.352
 2071SOL    HW2 8526   2.779   1.209   3.379
 2071SOL    HW3 8527   2.770   1.113   3.263
 2071SOL    MW4 8528   2.749   1.135   3.344
 2072SOL     OW 8529   2.897   1.329   3.431
 2072SOL    HW2 8530   2.897   1.328   3.526
 2072SOL    HW3 8531   2.969   1.272   3.405
 2072SOL    MW4 8532   2.906   1.321   3.440
 2073SOL     OW 8533   2.923   1.595   3.379
 2073SOL    HW2 8534   2.845   1.637   3.416
 2073SOL    HW3 8535   2.912   1.502   3.399
 2073SOL    MW4 8536   2.912   1.588   3.387
 2074SOL     OW 8537   2.714   1.725   3.493
 2074SOL    HW2 8538   2.727   1.805   3.443
 2074SOL    HW3 8539   2.647   1.677   3.444
 2074SOL    MW4 8540   2.707   1.729   3.480
 2075SOL     OW 8541   2.731   1.966   3.377
 2075SOL    HW2 8542   2.655   2.000   3.423
 2075SOL    HW3 8543   2.712   1.982   3.284
 2075SOL    MW4 8544   2.718   1.972   3.371
 2076SOL     OW 8545   2.955   2.089   3.470
 2076SOL    HW2 8546   2.949   2.108   3.564
 2076SOL    HW3 8547   2.877   2.038   3.450
 2076SOL    MW4 8548   2.944   2.085   3.480
 2077SOL     OW 8549   2.891   2.343   3.344
 2077SOL    HW2 8550   2.891   2.251   3.371
 2077SOL    HW3 8551   2.875   2.340   3.250
 2077SOL    MW4 8552   2.889   2.330   3.335
 2078SOL     OW 8553   2.702   2.453   3.483
 2078SOL    HW2 8554   2.706   2.422   3.573
 2078SOL    HW3 8555   2.779   2.415   3.441
 2078SOL    MW4 8556   2.713   2.444   3.490
 2079SOL     OW 8557   2.723   2.708   3.425
 2079SOL    HW2 8558   2.702   2.616   3.444
 2079SOL    HW3 8559   2.641   2.755   3.441
 2079SOL    MW4 8560   2.709   2.702   3.429
 2080SOL     OW 8561   2.963   2.835   3.485
 2080SOL    HW2 8562   2.976   2.856   3.578
 2080SOL    HW3 8563   2.879   2.789   3.483
 2080SOL    MW4 8564   2.953   2.832   3.497
 2081SOL     OW 8565   2.936   3.114   3.410
 2081SOL    HW2 8566   2.955   3.023   3.433
 2081SOL    HW3 8567   2.924   3.113   3.316
 2081SOL    MW4 8568   2.937   3.102   3.401
 2082SOL     OW 8569   2.681   3.237   3.476
 2082SOL    HW2 8570   2.677   3.221   3.571
 2082SOL    HW3 8571   2.767   3.204   3.450
 2082SOL    MW4 8572   2.692   3.230   3.485
 2083SOL     OW 8573   2.685   3.485   3.372
 2083SOL    HW2 8574   2.680   3.397   3.410
 2083SOL    HW3 8575   2.615   3.533   3.414
 2083SOL    MW4 8576   2.675   3.480   3.382
 2084SOL     OW 8577   2.906   3.608   3.501
 2084SOL    HW2 8578   2.906   3.693   3.457
 2084SOL    HW3 8579   2.834   3.560   3.460
 2084SOL    MW4 8580   2.896   3.613   3.490
 2085SOL     OW 8581   2.912   3.879   3.349
 2085SOL    HW2 8582   2.990   3.917   3.390
 2085SOL    HW3 8583   2.839   3.925   3.390
 2085SOL    MW4 8584   2.913   3.890   3.359
 2086SOL     OW 8585   2.709   4.019   3.486
 2086SOL    HW2 8586   2.681   4.015   3.577
 2086SOL    HW3 8587   2.703   4.112   3.463
 2086SOL    MW4 8588   2.705   4.031   3.495
 2087SOL     OW 8589   2.674   4.279   3.423
 2087SOL    HW2 8590   2.754   4.319   3.455
 2087SOL    HW3 8591   2.604   4.330   3.463
 2087SOL    MW4 8592   2.675   4.291   3.432
 2088SOL     OW 8593   2.933   4.390   3.486
 2088SOL    HW2 8594   2.939   4.402   3.581
 2088SOL    HW3 8595   2.908   4.476   3.453
 2088SOL    MW4 8596   2.931   4.403   3.494
 2089SOL     OW 8597   3.347   0.014   3.411
 2089SOL    HW2 8598   3.264   0.045   3.447
 2089SOL    HW3 8599   3.336   0.018   3.316
 2089SOL    MW4 8600   3.335   0.019   3.403
 2090SOL     OW 8601   3.095   0.095   3.527
 2090SOL    HW2 8602   3.105   0.187   3.503
 2090SOL    HW3 8603   3.020   0.065   3.475
 2090SOL    MW4 8604   3.087   0.103   3.517
 2091SOL     OW 8605   3.110   0.337   3.394
 2091SOL    HW2 8606   3.035   0.393   3.415
 2091SOL    HW3 8607   3.109   0.332   3.298
 2091SOL    MW4 8608   3.100   0.344   3.384
 2092SOL     OW 8609   3.350   0.493   3.461
 2092SOL    HW2 8610   3.355   0.522   3.552
 2092SOL    HW3 8611   3.264   0.452   3.453
 2092SOL    MW4 8612   3.339   0.492   3.472
 2093SOL     OW 8613   3.369   0.762   3.368
 2093SOL    HW2 8614   3.446   0.810   3.400
 2093SOL    HW3 8615   3.371   0.679   3.415
 2093SOL    MW4 8616   3.380   0.757   3.378
 2094SOL     OW 8617   3.141   0.911   3.443
 2094SOL    HW2 8618   3.133   0.998   3.405
 2094SOL    HW3 8619   3.223   0.876   3.406
 2094SOL    MW4 8620   3.151   0.918   3.433
 2095SOL     OW 8621   3.122   1.162   3.338
 2095SOL    HW2 8622   3.202   1.211   3.357
 2095SOL    HW3 8623   3.126   1.146   3.243
 2095SOL    MW4 8624   3.133   1.167   3.328
 2096SOL     OW 8625   3.339   1.295   3.458
 2096SOL    HW2 8626   3.413   1.239   3.436
 2096SOL    HW3 8627   3.363   1.381   3.422
 2096SOL    MW4 8628   3.352   1.299   3.450
 2097SOL     OW 8629   3.379   1.535   3.341
 2097SOL    HW2 8630   3.450   1.575   3.391
 2097SOL    HW3 8631   3.299   1.570   3.380
 2097SOL    MW4 8632   3.377   1.545   3.353
 2098SOL     OW 8633   3.162   1.645   3.476
 2098SOL    HW2 8634   3.167   1.736   3.446
 2098SOL    HW3 8635   3.074   1.617   3.453
 2098SOL    MW4 8636   3.151   1.653   3.469
 2099SOL     OW 8637   3.167   1.915   3.384
 2099SOL    HW2 8638   3.091   1.964   3.417
 2099SOL    HW3 8639   3.163   1.924   3.289
 2099SOL    MW4 8640   3.157   1.923   3.376
 2100SOL     OW 8641   3.398   2.085   3.503
 2100SOL    HW2 8642   3.405   2.162   3.447
 2100SOL    HW3 8643   3.312   2.048   3.482
 2100SOL    MW4 8644   3.387   2.090   3.493
 2101SOL     OW 8645   3.384   2.332   3.358
 2101SOL    HW2 8646   3.455   2.371   3.409
 2101SOL    HW3 8647   3.307   2.385   3.381
 2101SOL    MW4 8648   3.383   2.344   3.368
 2102SOL     OW 8649   3.139   2.456   3.478
 2102SOL    HW2 8650   3.141   2.540   3.433
 2102SOL    HW3 8651   3.072   2.406   3.433
 2102SOL    MW4 8652   3.131   2.461   3.466
 2103SOL     OW 8653   3.179   2.716   3.360
 2103SOL    HW2 8654   3.247   2.753   3.418
 2103SOL    HW3 8655   3.097   2.743   3.400
 2103SOL    MW4 8656   3.177   2.724   3.373
 2104SOL     OW 8657   3.363   2.824   3.526
 2104SOL    HW2 8658   3.429   2.769   3.484
 2104SOL    HW3 8659   3.365   2.906   3.477
 2104SOL    MW4 8660   3.372   2.828   3.514
 2105SOL     OW 8661   3.383   3.084   3.398
 2105SOL    HW2 8662   3.457   3.132   3.436
 2105SOL    HW3 8663   3.306   3.124   3.438
 2105SOL    MW4 8664   3.383   3.095   3.409
 2106SOL     OW 8665   3.162   3.261   3.510
 2106SOL    HW2 8666   3.174   3.342   3.460
 2106SOL    HW3 8667   3.088   3.218   3.467
 2106SOL    MW4 8668   3.154   3.266   3.498
 2107SOL     OW 8669   3.149   3.507   3.395
 2107SOL    HW2 8670   3.071   3.552   3.428
 2107SOL    HW3 8671   3.140   3.509   3.300
 2107SOL    MW4 8672   3.138   3.513   3.387
 2108SOL     OW 8673   3.375   3.629   3.503
 2108SOL    HW2 8674   3.367   3.705   3.447
 2108SOL    HW3 8675   3.304   3.571   3.475
 2108SOL    MW4 8676   3.365   3.631   3.492
 2109SOL     OW 8677   3.351   3.854   3.331
 2109SOL    HW2 8678   3.419   3.905   3.375
 2109SOL    HW3 8679   3.269   3.894   3.360
 2109SOL    MW4 8680   3.349   3.866   3.340
 2110SOL     OW 8681   3.142   3.995   3.470
 2110SOL    HW2 8682   3.136   4.014   3.564
 2110SOL    HW3 8683   3.137   4.081   3.428
 2110SOL    MW4 8684   3.140   4.009   3.477
 2111SOL     OW 8685   3.147   4.253   3.370
 2111SOL    HW2 8686   3.220   4.300   3.409
 2111SOL    HW3 8687   3.069   4.292   3.410
 2111SOL    MW4 8688   3.146   4.265   3.380
 2112SOL     OW 8689   3.364   4.408   3.483
 2112SOL    HW2 8690   3.351   4.393   3.576
 2112SOL    HW3 8691   3.358   4.503   3.473
 2112SOL    MW4 8692   3.362   4.419   3.494
 2113SOL     OW 8693   3.837   4.636   3.402
 2113SOL    HW2 8694   3.760   4.680   3.438
 2113SOL    HW3 8695   3.828   4.644   3.308
 2113SOL    MW4 8696   3.826   4.643   3.395
 2114SOL     OW 8697   3.612   0.119   3.511
 2114SOL    HW2 8698   3.597   0.195   3.455
 2114SOL    HW3 8699   3.530   0.071   3.509
 2114SOL    MW4 8700   3.599   0.123   3.503
 2115SOL     OW 8701   3.590   0.371   3.401
 2115SOL    HW2 8702   3.661   0.424   3.438
 2115SOL    HW3 8703   3.510   0.411   3.436
 2115SOL    MW4 8704   3.589   0.383   3.411
 2116SOL     OW 8705   3.798   0.486   3.550
 2116SOL    HW2 8706   3.821   0.484   3.643
 2116SOL    HW3 8707   3.879   0.462   3.505
 2116SOL    MW4 8708   3.812   0.483   3.556
 2117SOL     OW 8709   3.807   0.740   3.433
 2117SOL    HW2 8710   3.890   0.778   3.463
 2117SOL    HW3 8711   3.803   0.656   3.477
 2117SOL    MW4 8712   3.818   0.734   3.443
 2118SOL     OW 8713   3.589   0.892   3.501
 2118SOL    HW2 8714   3.583   0.905   3.595
 2118SOL    HW3 8715   3.661   0.831   3.489
 2118SOL    MW4 8716   3.598   0.886   3.511
 2119SOL     OW 8717   3.564   1.147   3.401
 2119SOL    HW2 8718   3.578   1.056   3.428
 2119SOL    HW3 8719   3.569   1.145   3.305
 2119SOL    MW4 8720   3.566   1.135   3.392
 2120SOL     OW 8721   3.797   1.282   3.449
 2120SOL    HW2 8722   3.809   1.283   3.544
 2120SOL    HW3 8723   3.719   1.228   3.435
 2120SOL    MW4 8724   3.788   1.275   3.460
 2121SOL     OW 8725   3.803   1.560   3.371
 2121SOL    HW2 8726   3.886   1.593   3.405
 2121SOL    HW3 8727   3.794   1.473   3.407
 2121SOL    MW4 8728   3.813   1.553   3.380
 2122SOL     OW 8729   3.584   1.685   3.468
 2122SOL    HW2 8730   3.586   1.777   3.442
 2122SOL    HW3 8731   3.657   1.645   3.420
 2122SOL    MW4 8732   3.594   1.692   3.458
 2123SOL     OW 8733   3.597   1.928   3.364
 2123SOL    HW2 8734   3.681   1.969   3.382
 2123SOL    HW3 8735   3.533   1.984   3.407
 2123SOL    MW4 8736   3.600   1.941   3.372
 2124SOL     OW 8737   3.811   2.060   3.460
 2124SOL    HW2 8738   3.809   2.051   3.555
 2124SOL    HW3 8739   3.884   2.005   3.432
 2124SOL    MW4 8740   3.820   2.052   3.468
 2125SOL     OW 8741   3.789   2.322   3.405
 2125SOL    HW2 8742   3.876   2.357   3.420
 2125SOL    HW3 8743   3.802   2.227   3.401
 2125SOL    MW4 8744   3.802   2.314   3.406
 2126SOL     OW 8745   3.573   2.427   3.532
 2126SOL    HW2 8746   3.588   2.518   3.507
 2126SOL    HW3 8747   3.650   2.380   3.499
 2126SOL    MW4 8748   3.586   2.433   3.524
 2127SOL     OW 8749   3.580   2.685   3.415
 2127SOL    HW2 8750   3.666   2.716   3.445
 2127SOL    HW3 8751   3.582   2.697   3.320
 2127SOL    MW4 8752   3.591   2.691   3.406
 2128SOL     OW 8753   3.818   2.822   3.504
 2128SOL    HW2 8754   3.832   2.831   3.598
 2128SOL    HW3 8755   3.800   2.911   3.473
 2128SOL    MW4 8756   3.817   2.835   3.512
 2129SOL     OW 8757   3.795   3.085   3.375
 2129SOL    HW2 8758   3.869   3.126   3.420
 2129SOL    HW3 8759   3.811   3.101   3.282
 2129SOL    MW4 8760   3.807   3.093   3.369
 2130SOL     OW 8761   3.592   3.240   3.479
 2130SOL    HW2 8762   3.613   3.329   3.449
 2130SOL    HW3 8763   3.659   3.185   3.439
 2130SOL    MW4 8764   3.603   3.245   3.470
 2131SOL     OW 8765   3.629   3.493   3.421
 2131SOL    HW2 8766   3.553   3.544   3.450
 2131SOL    HW3 8767   3.637   3.513   3.328
 2131SOL    MW4 8768   3.620   3.502   3.412
 2132SOL     OW 8769   3.834   3.656   3.494
 2132SOL    HW2 8770   3.830   3.653   3.590
 2132SOL    HW3 8771   3.756   3.607   3.466
 2132SOL    MW4 8772   3.823   3.649   3.503
 2133SOL     OW 8773   3.838   3.917   3.399
 2133SOL    HW2 8774   3.754   3.948   3.434
 2133SOL    HW3 8775   3.842   3.825   3.425
 2133SOL    MW4 8776   3.827   3.909   3.407
 2134SOL     OW 8777   3.586   3.984   3.473
 2134SOL    HW2 8778   3.594   4.006   3.566
 2134SOL    HW3 8779   3.579   4.069   3.429
 2134SOL    MW4 8780   3.586   3.998   3.480
 2135SOL     OW 8781   3.581   4.246   3.387
 2135SOL    HW2 8782   3.514   4.304   3.422
 2135SOL    HW3 8783   3.577   4.257   3.292
 2135SOL    MW4 8784   3.572   4.255   3.379
 2136SOL     OW 8785   3.807   4.360   3.505
 2136SOL    HW2 8786   3.732   4.315   3.467
 2136SOL    HW3 8787   3.806   4.447   3.465
 2136SOL    MW4 8788   3.797   4.366   3.495
 2137SOL     OW 8789   4.276   0.017   3.372
 2137SOL    HW2 8790   4.270  -0.077   3.391
 2137SOL    HW3 8791   4.361   0.043   3.409
 2137SOL    MW4 8792   4.287   0.008   3.380
 2138SOL     OW 8793   4.055   0.125   3.503
 2138SOL    HW2 8794   4.140   0.092   3.474
 2138SOL    HW3 8795   3.992   0.060   3.473
 2138SOL    MW4 8796   4.058   0.112   3.495
 2139SOL     OW 8797   4.030   0.403   3.402
 2139SOL    HW2 8798   4.039   0.309   3.418
 2139SOL    HW3 8799   4.028   0.411   3.306
 2139SOL    MW4 8800   4.031   0.392   3.391
 2140SOL     OW 8801   4.277   0.509   3.488
 2140SOL    HW2 8802   4.265   0.604   3.476
 2140SOL    HW3 8803   4.194   0.471   3.460
 2140SOL    MW4 8804   4.265   0.517   3.483
 2141SOL     OW 8805   4.245   0.771   3.424
 2141SOL    HW2 8806   4.324   0.810   3.460
 2141SOL    HW3 8807   4.260   0.766   3.330
 2141SOL    MW4 8808   4.257   0.776   3.416
 2142SOL     OW 8809   4.031   0.893   3.493
 2142SOL    HW2 8810   4.024   0.970   3.437
 2142SOL    HW3 8811   4.110   0.849   3.463
 2142SOL    MW4 8812   4.041   0.898   3.482
 2143SOL     OW 8813   4.024   1.151   3.362
 2143SOL    HW2 8814   4.106   1.178   3.404
 2143SOL    HW3 8815   3.958   1.209   3.399
 2143SOL    MW4 8816   4.026   1.162   3.372
 2144SOL     OW 8817   4.223   1.273   3.515
 2144SOL    HW2 8818   4.214   1.362   3.482
 2144SOL    HW3 8819   4.315   1.251   3.501
 2144SOL    MW4 8820   4.234   1.282   3.509
 2145SOL     OW 8821   4.264   1.538   3.411
 2145SOL    HW2 8822   4.187   1.586   3.441
 2145SOL    HW3 8823   4.255   1.534   3.316
 2145SOL    MW4 8824   4.253   1.543   3.402
 2146SOL     OW 8825   4.021   1.656   3.505
 2146SOL    HW2 8826   4.021   1.672   3.599
 2146SOL    HW3 8827   4.035   1.742   3.466
 2146SOL    MW4 8828   4.023   1.669   3.512
 2147SOL     OW 8829   4.021   1.908   3.378
 2147SOL    HW2 8830   4.095   1.959   3.412
 2147SOL    HW3 8831   4.026   1.919   3.283
 2147SOL    MW4 8832   4.032   1.916   3.370
 2148SOL     OW 8833   4.216   2.063   3.490
 2148SOL    HW2 8834   4.234   2.148   3.450
 2148SOL    HW3 8835   4.300   2.017   3.490
 2148SOL    MW4 8836   4.229   2.068   3.485
 2149SOL     OW 8837   4.269   2.319   3.388
 2149SOL    HW2 8838   4.181   2.343   3.415
 2149SOL    HW3 8839   4.265   2.317   3.292
 2149SOL    MW4 8840   4.257   2.322   3.379
 2150SOL     OW 8841   4.029   2.433   3.455
 2150SOL    HW2 8842   4.014   2.454   3.547
 2150SOL    HW3 8843   4.038   2.519   3.412
 2150SOL    MW4 8844   4.028   2.447   3.461
 2151SOL     OW 8845   4.033   2.691   3.378
 2151SOL    HW2 8846   4.105   2.732   3.426
 2151SOL    HW3 8847   3.955   2.738   3.408
 2151SOL    MW4 8848   4.032   2.703   3.388
 2152SOL     OW 8849   4.242   2.810   3.484
 2152SOL    HW2 8850   4.249   2.806   3.579
 2152SOL    HW3 8851   4.329   2.786   3.453
 2152SOL    MW4 8852   4.254   2.806   3.492
 2153SOL     OW 8853   4.251   3.074   3.407
 2153SOL    HW2 8854   4.255   2.982   3.433
 2153SOL    HW3 8855   4.258   3.073   3.312
 2153SOL    MW4 8856   4.253   3.062   3.398
 2154SOL     OW 8857   4.011   3.202   3.509
 2154SOL    HW2 8858   4.006   3.297   3.501
 2154SOL    HW3 8859   4.090   3.178   3.461
 2154SOL    MW4 8860   4.021   3.211   3.502
 2155SOL     OW 8861   4.056   3.492   3.451
 2155SOL    HW2 8862   4.133   3.519   3.500
 2155SOL    HW3 8863   3.996   3.567   3.456
 2155SOL    MW4 8864   4.058   3.506   3.458
 2156SOL     OW 8865   4.294   3.614   3.504
 2156SOL    HW2 8866   4.294   3.633   3.597
 2156SOL    HW3 8867   4.281   3.699   3.462
 2156SOL    MW4 8868   4.293   3.627   3.511
 2157SOL     OW 8869   4.285   3.870   3.407
 2157SOL    HW2 8870   4.362   3.915   3.442
 2157SOL    HW3 8871   4.276   3.904   3.318
 2157SOL    MW4 8872   4.294   3.881   3.400
 2158SOL     OW 8873   4.072   3.989   3.533
 2158SOL    HW2 8874   4.145   3.942   3.495
 2158SOL    HW3 8875   3.994   3.953   3.490
 2158SOL    MW4 8876   4.071   3.978   3.522
 2159SOL     OW 8877   4.062   4.255   3.409
 2159SOL    HW2 8878   4.053   4.168   3.447
 2159SOL    HW3 8879   3.985   4.303   3.440
 2159SOL    MW4 8880   4.051   4.250   3.418
 2160SOL     OW 8881   4.281   4.417   3.492
 2160SOL    HW2 8882   4.295   4.421   3.586
 2160SOL    HW3 8883   4.202   4.365   3.481
 2160SOL    MW4 8884   4.273   4.411   3.503
 2161SOL     OW 8885   0.270   0.010   3.883
 2161SOL    HW2 8886   0.269   0.014   3.978
 2161SOL    HW3 8887   0.199   0.068   3.856
 2161SOL    MW4 8888   0.260   0.018   3.892
 2162SOL     OW 8889   0.057   0.145   3.777
 2162SOL    HW2 8890   0.035   0.233   3.807
 2162SOL    HW3 8891   0.041   0.146   3.683
 2162SOL    MW4 8892   0.052   0.157   3.769
 2163SOL     OW 8893   0.020   0.393   3.891
 2163SOL    HW2 8894  -0.050   0.437   3.842
 2163SOL    HW3 8895   0.099   0.444   3.871
 2163SOL    MW4 8896   0.021   0.405   3.882
 2164SOL     OW 8897   0.262   0.535   3.828
 2164SOL    HW2 8898   0.241   0.627   3.848
 2164SOL    HW3 8899   0.288   0.536   3.736
 2164SOL    MW4 8900   0.263   0.548   3.818
 2165SOL     OW 8901   0.247   0.803   3.907
 2165SOL    HW2 8902   0.244   0.792   4.002
 2165SOL    HW3 8903   0.164   0.846   3.885
 2165SOL    MW4 8904   0.235   0.808   3.917
 2166SOL     OW 8905   0.034   0.906   3.787
 2166SOL    HW2 8906  -0.042   0.863   3.827
 2166SOL    HW3 8907   0.036   0.993   3.827
 2166SOL    MW4 8908   0.024   0.912   3.797
 2167SOL     OW 8909   0.032   1.162   3.909
 2167SOL    HW2 8910  -0.044   1.187   3.856
 2167SOL    HW3 8911   0.102   1.220   3.880
 2167SOL    MW4 8912   0.031   1.173   3.898
 2168SOL     OW 8913   0.253   1.275   3.784
 2168SOL    HW2 8914   0.262   1.365   3.814
 2168SOL    HW3 8915   0.251   1.282   3.688
 2168SOL    MW4 8916   0.254   1.288   3.775
 2169SOL     OW 8917   0.225   1.555   3.857
 2169SOL    HW2 8918   0.218   1.568   3.951
 2169SOL    HW3 8919   0.136   1.567   3.824
 2169SOL    MW4 8920   0.212   1.559   3.865
 2170SOL     OW 8921   4.475   1.654   3.757
 2170SOL    HW2 8922   4.468   1.742   3.794
 2170SOL    HW3 8923   4.510   1.667   3.669
 2170SOL    MW4 8924   4.479   1.667   3.750
 2171SOL     OW 8925   4.474   1.924   3.837
 2171SOL    HW2 8926   4.471   1.935   3.932
 2171SOL    HW3 8927   4.417   1.993   3.803
 2171SOL    MW4 8928   4.466   1.935   3.845
 2172SOL     OW 8929   0.245   2.013   3.733
 2172SOL    HW2 8930   0.224   2.099   3.767
 2172SOL    HW3 8931   0.170   1.958   3.757
 2172SOL    MW4 8932   0.233   2.017   3.741
 2173SOL     OW 8933   0.213   2.258   3.827
 2173SOL    HW2 8934   0.217   2.264   3.923
 2173SOL    HW3 8935   0.134   2.306   3.803
 2173SOL    MW4 8936   0.203   2.265   3.837
 2174SOL     OW 8937   4.487   2.440   3.744
 2174SOL    HW2 8938   4.401   2.421   3.781
 2174SOL    HW3 8939   4.512   2.524   3.783
 2174SOL    MW4 8940   4.479   2.449   3.754
 2175SOL     OW 8941   0.016   2.677   3.876
 2175SOL    HW2 8942   0.011   2.688   3.971
 2175SOL    HW3 8943   0.092   2.729   3.849
 2175SOL    MW4 8944   0.025   2.686   3.885
 2176SOL     OW 8945   0.231   2.831   3.802
 2176SOL    HW2 8946   0.300   2.769   3.828
 2176SOL    HW3 8947   0.239   2.836   3.707
 2176SOL    MW4 8948   0.241   2.823   3.793
 2177SOL     OW 8949   0.267   3.102   3.851
 2177SOL    HW2 8950   0.275   3.103   3.947
 2177SOL    HW3 8951   0.258   3.010   3.829
 2177SOL    MW4 8952   0.267   3.090   3.861
 2178SOL     OW 8953   0.012   3.185   3.804
 2178SOL    HW2 8954   0.104   3.158   3.811
 2178SOL    HW3 8955  -0.011   3.167   3.713
 2178SOL    MW4 8956   0.021   3.179   3.793
 2179SOL     OW 8957   4.480   3.446   3.860
 2179SOL    HW2 8958   4.553   3.493   3.819
 2179SOL    HW3 8959   4.496   3.354   3.840
 2179SOL    MW4 8960   4.492   3.440   3.852
 2180SOL     OW 8961   0.205   3.609   3.772
 2180SOL    HW2 8962   0.294   3.576   3.766
 2180SOL    HW3 8963   0.213   3.694   3.816
 2180SOL    MW4 8964   0.218   3.616   3.777
 2181SOL     OW 8965   0.231   3.849   3.899
 2181SOL    HW2 8966   0.243   3.820   3.990
 2181SOL    HW3 8967   0.304   3.908   3.882
 2181SOL    MW4 8968   0.242   3.853   3.909
 2182SOL     OW 8969   0.041   4.000   3.779
 2182SOL    HW2 8970  -0.029   3.964   3.833
 2182SOL    HW3 8971   0.120   3.955   3.808
 2182SOL    MW4 8972   0.042   3.990   3.790
 2183SOL     OW 8973   0.007   4.271   3.867
 2183SOL    HW2 8974   0.084   4.323   3.843
 2183SOL    HW3 8975   0.026   4.183   3.834
 2183SOL    MW4 8976   0.020   4.266   3.859
 2184SOL     OW 8977   0.241   4.406   3.799
 2184SOL    HW2 8978   0.310   4.356   3.842
 2184SOL    HW3 8979   0.254   4.496   3.828
 2184SOL    MW4 8980   0.252   4.411   3.808
 2185SOL     OW 8981   0.684   0.013   3.957
 2185SOL    HW2 8982   0.674  -0.071   3.913
 2185SOL    HW3 8983   0.615   0.069   3.921
 2185SOL    MW4 8984   0.674   0.010   3.947
 2186SOL     OW 8985   0.496   0.135   3.773
 2186SOL    HW2 8986   0.475   0.214   3.824
 2186SOL    HW3 8987   0.428   0.072   3.797
 2186SOL    MW4 8988   0.484   0.137   3.783
 2187SOL     OW 8989   0.478   0.372   3.909
 2187SOL    HW2 8990   0.551   0.428   3.883
 2187SOL    HW3 8991   0.399   0.421   3.886
 2187SOL    MW4 8992   0.477   0.386   3.903
 2188SOL     OW 8993   0.709   0.495   3.791
 2188SOL    HW2 8994   0.781   0.444   3.827
 2188SOL    HW3 8995   0.720   0.582   3.830
 2188SOL    MW4 8996   0.720   0.500   3.801
 2189SOL     OW 8997   0.682   0.745   3.909
 2189SOL    HW2 8998   0.761   0.782   3.870
 2189SOL    HW3 8999   0.611   0.801   3.878
 2189SOL    MW4 9000   0.683   0.757   3.899
 2190SOL     OW 9001   0.487   0.898   3.806
 2190SOL    HW2 9002   0.493   0.986   3.842
 2190SOL    HW3 9003   0.410   0.861   3.849
 2190SOL    MW4 9004   0.477   0.905   3.816
 2191SOL     OW 9005   0.501   1.156   3.879
 2191SOL    HW2 9006   0.569   1.212   3.841
 2191SOL    HW3 9007   0.419   1.191   3.847
 2191SOL    MW4 9008   0.499   1.168   3.870
 2192SOL     OW 9009   0.687   1.321   3.756
 2192SOL    HW2 9010   0.767   1.278   3.785
 2192SOL    HW3 9011   0.676   1.292   3.665
 2192SOL    MW4 9012   0.696   1.311   3.748
 2193SOL     OW 9013   0.667   1.570   3.882
 2193SOL    HW2 9014   0.740   1.623   3.850
 2193SOL    HW3 9015   0.671   1.490   3.831
 2193SOL    MW4 9016   0.677   1.567   3.871
 2194SOL     OW 9017   0.444   1.654   3.706
 2194SOL    HW2 9018   0.523   1.617   3.746
 2194SOL    HW3 9019   0.372   1.618   3.756
 2194SOL    MW4 9020   0.445   1.645   3.718
 2195SOL     OW 9021   0.441   1.890   3.874
 2195SOL    HW2 9022   0.441   1.808   3.826
 2195SOL    HW3 9023   0.358   1.932   3.851
 2195SOL    MW4 9024   0.430   1.885   3.865
 2196SOL     OW 9025   0.624   2.031   3.730
 2196SOL    HW2 9026   0.616   2.116   3.774
 2196SOL    HW3 9027   0.546   1.983   3.757
 2196SOL    MW4 9028   0.612   2.036   3.739
 2197SOL     OW 9029   0.658   2.268   3.865
 2197SOL    HW2 9030   0.732   2.317   3.828
 2197SOL    HW3 9031   0.581   2.306   3.823
 2197SOL    MW4 9032   0.658   2.280   3.854
 2198SOL     OW 9033   0.446   2.390   3.743
 2198SOL    HW2 9034   0.368   2.334   3.752
 2198SOL    HW3 9035   0.448   2.413   3.650
 2198SOL    MW4 9036   0.436   2.386   3.732
 2199SOL     OW 9037   0.458   2.647   3.879
 2199SOL    HW2 9038   0.520   2.689   3.819
 2199SOL    HW3 9039   0.445   2.560   3.842
 2199SOL    MW4 9040   0.464   2.641   3.866
 2200SOL     OW 9041   0.688   2.822   3.777
 2200SOL    HW2 9042   0.767   2.778   3.807
 2200SOL    HW3 9043   0.697   2.826   3.682
 2200SOL    MW4 9044   0.699   2.817   3.769
 2201SOL     OW 9045   0.684   3.082   3.859
 2201SOL    HW2 9046   0.681   3.075   3.954
 2201SOL    HW3 9047   0.692   2.992   3.829
 2201SOL    MW4 9048   0.685   3.069   3.868
 2202SOL     OW 9049   0.470   3.230   3.731
 2202SOL    HW2 9050   0.549   3.196   3.773
 2202SOL    HW3 9051   0.399   3.183   3.773
 2202SOL    MW4 9052   0.471   3.220   3.742
 2203SOL     OW 9053   0.461   3.498   3.826
 2203SOL    HW2 9054   0.543   3.543   3.803
 2203SOL    HW3 9055   0.470   3.411   3.788
 2203SOL    MW4 9056   0.473   3.493   3.818
 2204SOL     OW 9057   0.714   3.602   3.766
 2204SOL    HW2 9058   0.708   3.696   3.777
 2204SOL    HW3 9059   0.718   3.589   3.671
 2204SOL    MW4 9060   0.714   3.612   3.755
 2205SOL     OW 9061   0.709   3.868   3.834
 2205SOL    HW2 9062   0.720   3.863   3.929
 2205SOL    HW3 9063   0.779   3.926   3.805
 2205SOL    MW4 9064   0.720   3.875   3.843
 2206SOL     OW 9065   0.452   4.000   3.787
 2206SOL    HW2 9066   0.536   3.968   3.820
 2206SOL    HW3 9067   0.458   3.991   3.692
 2206SOL    MW4 9068   0.464   3.995   3.779
 2207SOL     OW 9069   0.442   4.260   3.916
 2207SOL    HW2 9070   0.514   4.320   3.901
 2207SOL    HW3 9071   0.463   4.183   3.862
 2207SOL    MW4 9072   0.454   4.258   3.907
 2208SOL     OW 9073   0.658   4.435   3.821
 2208SOL    HW2 9074   0.743   4.398   3.844
 2208SOL    HW3 9075   0.646   4.412   3.729
 2208SOL    MW4 9076   0.667   4.427   3.812
 2209SOL     OW 9077   1.136   0.024   3.865
 2209SOL    HW2 9078   1.217   0.064   3.833
 2209SOL    HW3 9079   1.148  -0.070   3.849
 2209SOL    MW4 9080   1.149   0.017   3.859
 2210SOL     OW 9081   0.881   0.095   3.786
 2210SOL    HW2 9082   0.971   0.079   3.815
 2210SOL    HW3 9083   0.826   0.056   3.854
 2210SOL    MW4 9084   0.886   0.088   3.799
 2211SOL     OW 9085   0.923   0.349   3.888
 2211SOL    HW2 9086   0.928   0.359   3.983
 2211SOL    HW3 9087   0.894   0.259   3.875
 2211SOL    MW4 9088   0.920   0.339   3.899
 2212SOL     OW 9089   1.144   0.499   3.779
 2212SOL    HW2 9090   1.223   0.458   3.814
 2212SOL    HW3 9091   1.073   0.442   3.808
 2212SOL    MW4 9092   1.145   0.486   3.787
 2213SOL     OW 9093   1.127   0.771   3.871
 2213SOL    HW2 9094   1.125   0.765   3.966
 2213SOL    HW3 9095   1.126   0.679   3.842
 2213SOL    MW4 9096   1.127   0.758   3.879
 2214SOL     OW 9097   0.900   0.891   3.811
 2214SOL    HW2 9098   0.983   0.847   3.828
 2214SOL    HW3 9099   0.883   0.876   3.718
 2214SOL    MW4 9100   0.909   0.883   3.801
 2215SOL     OW 9101   0.920   1.156   3.861
 2215SOL    HW2 9102   0.915   1.161   3.956
 2215SOL    HW3 9103   0.907   1.063   3.841
 2215SOL    MW4 9104   0.917   1.144   3.871
 2216SOL     OW 9105   1.152   1.307   3.789
 2216SOL    HW2 9106   1.152   1.388   3.840
 2216SOL    HW3 9107   1.080   1.256   3.827
 2216SOL    MW4 9108   1.142   1.311   3.801
 2217SOL     OW 9109   1.145   1.582   3.906
 2217SOL    HW2 9110   1.168   1.579   3.999
 2217SOL    HW3 9111   1.225   1.610   3.862
 2217SOL    MW4 9112   1.158   1.585   3.913
 2218SOL     OW 9113   0.899   1.690   3.799
 2218SOL    HW2 9114   0.981   1.670   3.844
 2218SOL    HW3 9115   0.923   1.702   3.708
 2218SOL    MW4 9116   0.913   1.689   3.793
 2219SOL     OW 9117   0.859   1.959   3.869
 2219SOL    HW2 9118   0.863   1.864   3.858
 2219SOL    HW3 9119   0.779   1.984   3.822
 2219SOL    MW4 9120   0.849   1.950   3.861
 2220SOL     OW 9121   1.104   2.052   3.753
 2220SOL    HW2 9122   1.051   1.990   3.803
 2220SOL    HW3 9123   1.083   2.034   3.662
 2220SOL    MW4 9124   1.094   2.042   3.748
 2221SOL     OW 9125   1.116   2.312   3.861
 2221SOL    HW2 9126   1.113   2.312   3.956
 2221SOL    HW3 9127   1.113   2.220   3.837
 2221SOL    MW4 9128   1.115   2.300   3.870
 2222SOL     OW 9129   0.869   2.429   3.765
 2222SOL    HW2 9130   0.897   2.519   3.786
 2222SOL    HW3 9131   0.948   2.377   3.777
 2222SOL    MW4 9132   0.883   2.434   3.770
 2223SOL     OW 9133   0.933   2.693   3.824
 2223SOL    HW2 9134   0.937   2.679   3.919
 2223SOL    HW3 9135   1.014   2.740   3.804
 2223SOL    MW4 9136   0.945   2.698   3.834
 2224SOL     OW 9137   1.157   2.854   3.755
 2224SOL    HW2 9138   1.224   2.802   3.798
 2224SOL    HW3 9139   1.158   2.938   3.801
 2224SOL    MW4 9140   1.166   2.858   3.766
 2225SOL     OW 9141   1.161   3.088   3.892
 2225SOL    HW2 9142   1.228   3.134   3.841
 2225SOL    HW3 9143   1.078   3.121   3.857
 2225SOL    MW4 9144   1.159   3.099   3.880
 2226SOL     OW 9145   0.922   3.181   3.798
 2226SOL    HW2 9146   0.840   3.133   3.816
 2226SOL    HW3 9147   0.908   3.221   3.712
 2226SOL    MW4 9148   0.909   3.180   3.789
 2227SOL     OW 9149   0.895   3.451   3.908
 2227SOL    HW2 9150   0.893   3.359   3.882
 2227SOL    HW3 9151   0.834   3.495   3.849
 2227SOL    MW4 9152   0.887   3.445   3.897
 2228SOL     OW 9153   1.122   3.580   3.759
 2228SOL    HW2 9154   1.135   3.667   3.798
 2228SOL    HW3 9155   1.051   3.541   3.810
 2228SOL    MW4 9156   1.115   3.586   3.771
 2229SOL     OW 9157   1.141   3.834   3.874
 2229SOL    HW2 9158   1.146   3.845   3.969
 2229SOL    HW3 9159   1.210   3.891   3.840
 2229SOL    MW4 9160   1.151   3.843   3.882
 2230SOL     OW 9161   0.932   4.025   3.794
 2230SOL    HW2 9162   1.008   3.974   3.822
 2230SOL    HW3 9163   0.932   4.017   3.699
 2230SOL    MW4 9164   0.942   4.017   3.786
 2231SOL     OW 9165   0.902   4.312   3.866
 2231SOL    HW2 9166   0.904   4.310   3.962
 2231SOL    HW3 9167   0.904   4.220   3.839
 2231SOL    MW4 9168   0.902   4.300   3.875
 2232SOL     OW 9169   1.156   4.422   3.817
 2232SOL    HW2 9170   1.081   4.368   3.842
 2232SOL    HW3 9171   1.144   4.436   3.723
 2232SOL    MW4 9172   1.145   4.417   3.808
 2233SOL     OW 9173   1.584   4.650   3.885
 2233SOL    HW2 9174   1.580   4.655   3.980
 2233SOL    HW3 9175   1.582   4.557   3.865
 2233SOL    MW4 9176   1.583   4.639   3.895
 2234SOL     OW 9177   1.380   0.107   3.730
 2234SOL    HW2 9178   1.374   0.201   3.749
 2234SOL    HW3 9179   1.458   0.078   3.778
 2234SOL    MW4 9180   1.390   0.116   3.739
 2235SOL     OW 9181   1.378   0.369   3.849
 2235SOL    HW2 9182   1.384   0.361   3.944
 2235SOL    HW3 9183   1.452   0.424   3.825
 2235SOL    MW4 9184   1.388   0.375   3.859
 2236SOL     OW 9185   1.593   0.530   3.798
 2236SOL    HW2 9186   1.666   0.482   3.837
 2236SOL    HW3 9187   1.602   0.619   3.832
 2236SOL    MW4 9188   1.604   0.536   3.807
 2237SOL     OW 9189   1.593   0.795   3.903
 2237SOL    HW2 9190   1.661   0.839   3.851
 2237SOL    HW3 9191   1.511   0.822   3.861
 2237SOL    MW4 9192   1.591   0.805   3.891
 2238SOL     OW 9193   1.362   0.910   3.787
 2238SOL    HW2 9194   1.386   0.984   3.842
 2238SOL    HW3 9195   1.280   0.878   3.823
 2238SOL    MW4 9196   1.355   0.915   3.799
 2239SOL     OW 9197   1.369   1.169   3.914
 2239SOL    HW2 9198   1.448   1.214   3.883
 2239SOL    HW3 9199   1.297   1.212   3.868
 2239SOL    MW4 9200   1.370   1.180   3.904
 2240SOL     OW 9201   1.626   1.256   3.781
 2240SOL    HW2 9202   1.710   1.233   3.821
 2240SOL    HW3 9203   1.622   1.352   3.786
 2240SOL    MW4 9204   1.636   1.266   3.787
 2241SOL     OW 9205   1.604   1.544   3.824
 2241SOL    HW2 9206   1.601   1.549   3.919
 2241SOL    HW3 9207   1.686   1.586   3.800
 2241SOL    MW4 9208   1.614   1.550   3.833
 2242SOL     OW 9209   1.343   1.643   3.722
 2242SOL    HW2 9210   1.336   1.736   3.742
 2242SOL    HW3 9211   1.426   1.616   3.762
 2242SOL    MW4 9212   1.353   1.652   3.730
 2243SOL     OW 9213   1.322   1.895   3.809
 2243SOL    HW2 9214   1.345   1.918   3.900
 2243SOL    HW3 9215   1.248   1.952   3.788
 2243SOL    MW4 9216   1.315   1.906   3.818
 2244SOL     OW 9217   1.600   2.047   3.756
 2244SOL    HW2 9218   1.516   2.002   3.765
 2244SOL    HW3 9219   1.605   2.070   3.663
 2244SOL    MW4 9220   1.589   2.044   3.745
 2245SOL     OW 9221   1.570   2.301   3.863
 2245SOL    HW2 9222   1.651   2.349   3.842
 2245SOL    HW3 9223   1.583   2.215   3.824
 2245SOL    MW4 9224   1.583   2.296   3.855
 2246SOL     OW 9225   1.366   2.456   3.766
 2246SOL    HW2 9226   1.436   2.404   3.804
 2246SOL    HW3 9227   1.285   2.415   3.798
 2246SOL    MW4 9228   1.364   2.444   3.775
 2247SOL     OW 9229   1.366   2.714   3.865
 2247SOL    HW2 9230   1.352   2.716   3.960
 2247SOL    HW3 9231   1.364   2.622   3.842
 2247SOL    MW4 9232   1.364   2.702   3.875
 2248SOL     OW 9233   1.587   2.851   3.755
 2248SOL    HW2 9234   1.512   2.801   3.786
 2248SOL    HW3 9235   1.581   2.847   3.659
 2248SOL    MW4 9236   1.576   2.844   3.746
 2249SOL     OW 9237   1.579   3.115   3.855
 2249SOL    HW2 9238   1.590   3.103   3.950
 2249SOL    HW3 9239   1.594   3.028   3.818
 2249SOL    MW4 9240   1.582   3.102   3.863
 2250SOL     OW 9241   1.359   3.212   3.757
 2250SOL    HW2 9242   1.368   3.305   3.781
 2250SOL    HW3 9243   1.437   3.171   3.793
 2250SOL    MW4 9244   1.371   3.219   3.765
 2251SOL     OW 9245   1.346   3.463   3.853
 2251SOL    HW2 9246   1.421   3.516   3.827
 2251SOL    HW3 9247   1.272   3.504   3.807
 2251SOL    MW4 9248   1.346   3.475   3.843
 2252SOL     OW 9249   1.594   3.587   3.784
 2252SOL    HW2 9250   1.681   3.562   3.813
 2252SOL    HW3 9251   1.579   3.674   3.822
 2252SOL    MW4 9252   1.603   3.595   3.792
 2253SOL     OW 9253   1.570   3.866   3.844
 2253SOL    HW2 9254   1.579   3.880   3.938
 2253SOL    HW3 9255   1.492   3.916   3.820
 2253SOL    MW4 9256   1.561   3.874   3.853
 2254SOL     OW 9257   1.330   4.009   3.775
 2254SOL    HW2 9258   1.352   4.097   3.807
 2254SOL    HW3 9259   1.304   4.023   3.684
 2254SOL    MW4 9260   1.330   4.023   3.767
 2255SOL     OW 9261   1.364   4.263   3.892
 2255SOL    HW2 9262   1.448   4.305   3.872
 2255SOL    HW3 9263   1.298   4.325   3.863
 2255SOL    MW4 9264   1.366   4.277   3.885
 2256SOL     OW 9265   1.609   4.378   3.828
 2256SOL    HW2 9266   1.677   4.321   3.865
 2256SOL    HW3 9267   1.621   4.371   3.733
 2256SOL    MW4 9268   1.620   4.370   3.820
 2257SOL     OW 9269   2.005   4.650   3.920
 2257SOL    HW2 9270   2.081   4.692   3.879
 2257SOL    HW3 9271   1.990   4.572   3.867
 2257SOL    MW4 9272   2.013   4.646   3.907
 2258SOL     OW 9273   1.793   0.134   3.820
 2258SOL    HW2 9274   1.862   0.072   3.847
 2258SOL    HW3 9275   1.712   0.092   3.847
 2258SOL    MW4 9276   1.792   0.120   3.827
 2259SOL     OW 9277   1.812   0.419   3.916
 2259SOL    HW2 9278   1.823   0.427   4.011
 2259SOL    HW3 9279   1.800   0.325   3.901
 2259SOL    MW4 9280   1.812   0.408   3.927
 2260SOL     OW 9281   2.044   0.490   3.792
 2260SOL    HW2 9282   1.959   0.483   3.835
 2260SOL    HW3 9283   2.024   0.500   3.699
 2260SOL    MW4 9284   2.030   0.491   3.786
 2261SOL     OW 9285   2.055   0.752   3.870
 2261SOL    HW2 9286   2.027   0.753   3.961
 2261SOL    HW3 9287   2.080   0.661   3.853
 2261SOL    MW4 9288   2.055   0.740   3.880
 2262SOL     OW 9289   1.823   0.888   3.782
 2262SOL    HW2 9290   1.909   0.846   3.784
 2262SOL    HW3 9291   1.800   0.891   3.689
 2262SOL    MW4 9292   1.832   0.883   3.770
 2263SOL     OW 9293   1.845   1.150   3.935
 2263SOL    HW2 9294   1.824   1.146   4.028
 2263SOL    HW3 9295   1.838   1.059   3.905
 2263SOL    MW4 9296   1.841   1.138   3.943
 2264SOL     OW 9297   2.073   1.236   3.769
 2264SOL    HW2 9298   2.151   1.198   3.810
 2264SOL    HW3 9299   2.000   1.201   3.820
 2264SOL    MW4 9300   2.074   1.227   3.781
 2265SOL     OW 9301   2.035   1.510   3.882
 2265SOL    HW2 9302   1.964   1.557   3.839
 2265SOL    HW3 9303   2.043   1.428   3.834
 2265SOL    MW4 9304   2.027   1.506   3.870
 2266SOL     OW 9305   1.843   1.662   3.758
 2266SOL    HW2 9306   1.861   1.752   3.784
 2266SOL    HW3 9307   1.852   1.663   3.663
 2266SOL    MW4 9308   1.847   1.674   3.749
 2267SOL     OW 9309   1.833   1.908   3.857
 2267SOL    HW2 9310   1.833   1.903   3.953
 2267SOL    HW3 9311   1.745   1.938   3.835
 2267SOL    MW4 9312   1.821   1.911   3.867
 2268SOL     OW 9313   2.018   2.073   3.765
 2268SOL    HW2 9314   1.945   2.016   3.788
 2268SOL    HW3 9315   2.019   2.073   3.669
 2268SOL    MW4 9316   2.009   2.065   3.755
 2269SOL     OW 9317   2.013   2.317   3.918
 2269SOL    HW2 9318   1.944   2.355   3.864
 2269SOL    HW3 9319   2.034   2.233   3.875
 2269SOL    MW4 9320   2.007   2.311   3.905
 2270SOL     OW 9321   1.810   2.436   3.753
 2270SOL    HW2 9322   1.834   2.526   3.775
 2270SOL    HW3 9323   1.805   2.434   3.658
 2270SOL    MW4 9324   1.813   2.448   3.744
 2271SOL     OW 9325   1.826   2.696   3.864
 2271SOL    HW2 9326   1.836   2.705   3.959
 2271SOL    HW3 9327   1.745   2.742   3.843
 2271SOL    MW4 9328   1.817   2.703   3.874
 2272SOL     OW 9329   2.023   2.829   3.706
 2272SOL    HW2 9330   2.104   2.804   3.751
 2272SOL    HW3 9331   1.954   2.784   3.755
 2272SOL    MW4 9332   2.024   2.820   3.718
 2273SOL     OW 9333   1.989   3.079   3.814
 2273SOL    HW2 9334   2.076   3.118   3.801
 2273SOL    HW3 9335   1.993   2.995   3.769
 2273SOL    MW4 9336   2.001   3.073   3.806
 2274SOL     OW 9337   1.800   3.243   3.737
 2274SOL    HW2 9338   1.883   3.198   3.748
 2274SOL    HW3 9339   1.738   3.195   3.791
 2274SOL    MW4 9340   1.803   3.231   3.745
 2275SOL     OW 9341   1.838   3.485   3.863
 2275SOL    HW2 9342   1.906   3.538   3.820
 2275SOL    HW3 9343   1.840   3.401   3.816
 2275SOL    MW4 9344   1.847   3.481   3.851
 2276SOL     OW 9345   2.039   3.664   3.768
 2276SOL    HW2 9346   2.123   3.623   3.787
 2276SOL    HW3 9347   2.034   3.665   3.672
 2276SOL    MW4 9348   2.049   3.659   3.758
 2277SOL     OW 9349   2.036   3.894   3.925
 2277SOL    HW2 9350   2.112   3.931   3.879
 2277SOL    HW3 9351   2.021   3.809   3.882
 2277SOL    MW4 9352   2.044   3.888   3.913
 2278SOL     OW 9353   1.809   3.991   3.780
 2278SOL    HW2 9354   1.885   3.951   3.822
 2278SOL    HW3 9355   1.738   3.930   3.796
 2278SOL    MW4 9356   1.810   3.978   3.788
 2279SOL     OW 9357   1.812   4.217   3.916
 2279SOL    HW2 9358   1.874   4.276   3.873
 2279SOL    HW3 9359   1.812   4.138   3.861
 2279SOL    MW4 9360   1.820   4.214   3.903
 2280SOL     OW 9361   1.988   4.391   3.809
 2280SOL    HW2 9362   2.068   4.347   3.838
 2280SOL    HW3 9363   2.002   4.408   3.716
 2280SOL    MW4 9364   2.001   4.387   3.801
 2281SOL     OW 9365   2.459   0.012   3.861
 2281SOL    HW2 9366   2.458   0.021   3.957
 2281SOL    HW3 9367   2.529   0.071   3.833
 2281SOL    MW4 9368   2.468   0.021   3.870
 2282SOL     OW 9369   2.215   0.115   3.781
 2282SOL    HW2 9370   2.297   0.066   3.786
 2282SOL    HW3 9371   2.198   0.125   3.688
 2282SOL    MW4 9372   2.223   0.110   3.770
 2283SOL     OW 9373   2.277   0.376   3.890
 2283SOL    HW2 9374   2.263   0.284   3.868
 2283SOL    HW3 9375   2.196   0.419   3.864
 2283SOL    MW4 9376   2.265   0.369   3.884
 2284SOL     OW 9377   2.470   0.504   3.744
 2284SOL    HW2 9378   2.407   0.450   3.792
 2284SOL    HW3 9379   2.456   0.481   3.652
 2284SOL    MW4 9380   2.459   0.494   3.739
 2285SOL     OW 9381   2.504   0.776   3.851
 2285SOL    HW2 9382   2.424   0.822   3.826
 2285SOL    HW3 9383   2.491   0.686   3.823
 2285SOL    MW4 9384   2.492   0.770   3.844
 2286SOL     OW 9385   2.278   0.897   3.744
 2286SOL    HW2 9386   2.198   0.859   3.780
 2286SOL    HW3 9387   2.269   0.886   3.649
 2286SOL    MW4 9388   2.266   0.890   3.736
 2287SOL     OW 9389   2.314   1.137   3.849
 2287SOL    HW2 9390   2.288   1.141   3.941
 2287SOL    HW3 9391   2.293   1.048   3.822
 2287SOL    MW4 9392   2.308   1.126   3.858
 2288SOL     OW 9393   2.521   1.274   3.730
 2288SOL    HW2 9394   2.498   1.360   3.764
 2288SOL    HW3 9395   2.445   1.219   3.752
 2288SOL    MW4 9396   2.508   1.278   3.737
 2289SOL     OW 9397   2.472   1.510   3.856
 2289SOL    HW2 9398   2.548   1.561   3.828
 2289SOL    HW3 9399   2.397   1.562   3.827
 2289SOL    MW4 9400   2.472   1.524   3.849
 2290SOL     OW 9401   2.240   1.647   3.746
 2290SOL    HW2 9402   2.221   1.737   3.773
 2290SOL    HW3 9403   2.176   1.594   3.794
 2290SOL    MW4 9404   2.229   1.651   3.756
 2291SOL     OW 9405   2.242   1.919   3.841
 2291SOL    HW2 9406   2.256   1.909   3.935
 2291SOL    HW3 9407   2.154   1.955   3.834
 2291SOL    MW4 9408   2.232   1.922   3.852
 2292SOL     OW 9409   2.470   2.057   3.780
 2292SOL    HW2 9410   2.444   2.141   3.816
 2292SOL    HW3 9411   2.396   1.999   3.801
 2292SOL    MW4 9412   2.457   2.060   3.787
 2293SOL     OW 9413   2.456   2.312   3.878
 2293SOL    HW2 9414   2.528   2.351   3.828
 2293SOL    HW3 9415   2.378   2.356   3.845
 2293SOL    MW4 9416   2.455   2.323   3.867
 2294SOL     OW 9417   2.238   2.424   3.752
 2294SOL    HW2 9418   2.157   2.375   3.764
 2294SOL    HW3 9419   2.242   2.441   3.658
 2294SOL    MW4 9420   2.228   2.420   3.741
 2295SOL     OW 9421   2.216   2.712   3.862
 2295SOL    HW2 9422   2.224   2.723   3.957
 2295SOL    HW3 9423   2.224   2.618   3.848
 2295SOL    MW4 9424   2.218   2.701   3.873
 2296SOL     OW 9425   2.463   2.803   3.787
 2296SOL    HW2 9426   2.377   2.764   3.801
 2296SOL    HW3 9427   2.471   2.812   3.692
 2296SOL    MW4 9428   2.453   2.799   3.777
 2297SOL     OW 9429   2.481   3.072   3.837
 2297SOL    HW2 9430   2.498   3.077   3.931
 2297SOL    HW3 9431   2.449   2.983   3.824
 2297SOL    MW4 9432   2.479   3.061   3.848
 2298SOL     OW 9433   2.220   3.220   3.779
 2298SOL    HW2 9434   2.236   3.314   3.778
 2298SOL    HW3 9435   2.306   3.182   3.798
 2298SOL    MW4 9436   2.234   3.227   3.782
 2299SOL     OW 9437   2.284   3.494   3.813
 2299SOL    HW2 9438   2.296   3.492   3.908
 2299SOL    HW3 9439   2.363   3.536   3.780
 2299SOL    MW4 9440   2.296   3.499   3.821
 2300SOL     OW 9441   2.535   3.651   3.751
 2300SOL    HW2 9442   2.601   3.585   3.772
 2300SOL    HW3 9443   2.516   3.636   3.659
 2300SOL    MW4 9444   2.541   3.640   3.742
 2301SOL     OW 9445   2.483   3.896   3.855
 2301SOL    HW2 9446   2.553   3.948   3.817
 2301SOL    HW3 9447   2.493   3.809   3.817
 2301SOL    MW4 9448   2.494   3.892   3.845
 2302SOL     OW 9449   2.243   4.014   3.783
 2302SOL    HW2 9450   2.324   3.967   3.800
 2302SOL    HW3 9451   2.240   4.024   3.688
 2302SOL    MW4 9452   2.253   4.009   3.773
 2303SOL     OW 9453   2.250   4.278   3.860
 2303SOL    HW2 9454   2.260   4.260   3.953
 2303SOL    HW3 9455   2.245   4.192   3.819
 2303SOL    MW4 9456   2.250   4.264   3.867
 2304SOL     OW 9457   2.490   4.418   3.803
 2304SOL    HW2 9458   2.407   4.380   3.834
 2304SOL    HW3 9459   2.484   4.511   3.826
 2304SOL    MW4 9460   2.478   4.425   3.810
 2305SOL     OW 9461   2.918   4.662   3.877
 2305SOL    HW2 9462   2.920   4.679   3.972
 2305SOL    HW3 9463   3.000   4.698   3.844
 2305SOL    MW4 9464   2.929   4.669   3.885
 2306SOL     OW 9465   2.701   0.146   3.777
 2306SOL    HW2 9466   2.780   0.101   3.809
 2306SOL    HW3 9467   2.700   0.127   3.683
 2306SOL    MW4 9468   2.712   0.138   3.769
 2307SOL     OW 9469   2.721   0.431   3.820
 2307SOL    HW2 9470   2.718   0.336   3.807
 2307SOL    HW3 9471   2.632   0.460   3.802
 2307SOL    MW4 9472   2.709   0.422   3.816
 2308SOL     OW 9473   2.954   0.555   3.728
 2308SOL    HW2 9474   3.013   0.483   3.751
 2308SOL    HW3 9475   2.867   0.523   3.751
 2308SOL    MW4 9476   2.950   0.541   3.734
 2309SOL     OW 9477   2.949   0.809   3.876
 2309SOL    HW2 9478   3.004   0.866   3.823
 2309SOL    HW3 9479   2.955   0.723   3.834
 2309SOL    MW4 9480   2.957   0.805   3.864
 2310SOL     OW 9481   2.737   0.915   3.755
 2310SOL    HW2 9482   2.814   0.880   3.799
 2310SOL    HW3 9483   2.664   0.864   3.791
 2310SOL    MW4 9484   2.737   0.903   3.765
 2311SOL     OW 9485   2.707   1.174   3.892
 2311SOL    HW2 9486   2.726   1.089   3.853
 2311SOL    HW3 9487   2.636   1.210   3.839
 2311SOL    MW4 9488   2.700   1.168   3.880
 2312SOL     OW 9489   2.919   1.296   3.731
 2312SOL    HW2 9490   2.931   1.378   3.779
 2312SOL    HW3 9491   2.840   1.257   3.770
 2312SOL    MW4 9492   2.910   1.302   3.743
 2313SOL     OW 9493   2.943   1.556   3.835
 2313SOL    HW2 9494   2.947   1.564   3.930
 2313SOL    HW3 9495   3.027   1.590   3.804
 2313SOL    MW4 9496   2.955   1.561   3.843
 2314SOL     OW 9497   2.697   1.678   3.766
 2314SOL    HW2 9498   2.778   1.633   3.788
 2314SOL    HW3 9499   2.706   1.700   3.673
 2314SOL    MW4 9500   2.709   1.675   3.757
 2315SOL     OW 9501   2.706   1.940   3.847
 2315SOL    HW2 9502   2.697   1.851   3.812
 2315SOL    HW3 9503   2.620   1.979   3.837
 2315SOL    MW4 9504   2.694   1.933   3.841
 2316SOL     OW 9505   2.942   2.064   3.742
 2316SOL    HW2 9506   2.942   2.152   3.781
 2316SOL    HW3 9507   2.873   2.017   3.788
 2316SOL    MW4 9508   2.933   2.070   3.753
 2317SOL     OW 9509   2.955   2.310   3.848
 2317SOL    HW2 9510   2.963   2.315   3.944
 2317SOL    HW3 9511   3.025   2.368   3.816
 2317SOL    MW4 9512   2.965   2.318   3.857
 2318SOL     OW 9513   2.704   2.412   3.758
 2318SOL    HW2 9514   2.702   2.506   3.775
 2318SOL    HW3 9515   2.785   2.382   3.798
 2318SOL    MW4 9516   2.715   2.421   3.766
 2319SOL     OW 9517   2.698   2.687   3.815
 2319SOL    HW2 9518   2.705   2.681   3.910
 2319SOL    HW3 9519   2.617   2.736   3.800
 2319SOL    MW4 9520   2.688   2.692   3.826
 2320SOL     OW 9521   2.945   2.869   3.760
 2320SOL    HW2 9522   2.948   2.958   3.795
 2320SOL    HW3 9523   2.855   2.839   3.777
 2320SOL    MW4 9524   2.933   2.877   3.767
 2321SOL     OW 9525   2.949   3.105   3.869
 2321SOL    HW2 9526   3.023   3.158   3.840
 2321SOL    HW3 9527   2.872   3.147   3.830
 2321SOL    MW4 9528   2.949   3.117   3.860
 2322SOL     OW 9529   2.708   3.199   3.751
 2322SOL    HW2 9530   2.700   3.284   3.794
 2322SOL    HW3 9531   2.641   3.145   3.793
 2322SOL    MW4 9532   2.698   3.203   3.762
 2323SOL     OW 9533   2.702   3.463   3.846
 2323SOL    HW2 9534   2.687   3.472   3.940
 2323SOL    HW3 9535   2.776   3.521   3.828
 2323SOL    MW4 9536   2.710   3.472   3.856
 2324SOL     OW 9537   2.911   3.634   3.784
 2324SOL    HW2 9538   2.988   3.593   3.823
 2324SOL    HW3 9539   2.928   3.634   3.689
 2324SOL    MW4 9540   2.923   3.629   3.776
 2325SOL     OW 9541   2.937   3.899   3.843
 2325SOL    HW2 9542   2.941   3.891   3.938
 2325SOL    HW3 9543   2.929   3.808   3.812
 2325SOL    MW4 9544   2.937   3.886   3.852
 2326SOL     OW 9545   2.709   4.008   3.766
 2326SOL    HW2 9546   2.709   4.087   3.820
 2326SOL    HW3 9547   2.790   3.963   3.789
 2326SOL    MW4 9548   2.719   4.013   3.776
 2327SOL     OW 9549   2.715   4.278   3.902
 2327SOL    HW2 9550   2.792   4.329   3.877
 2327SOL    HW3 9551   2.641   4.334   3.880
 2327SOL    MW4 9552   2.716   4.292   3.896
 2328SOL     OW 9553   2.931   4.421   3.756
 2328SOL    HW2 9554   3.004   4.381   3.804
 2328SOL    HW3 9555   2.921   4.507   3.795
 2328SOL    MW4 9556   2.939   4.427   3.767
 2329SOL     OW 9557   3.385   0.024   3.906
 2329SOL    HW2 9558   3.393   0.049   3.998
 2329SOL    HW3 9559   3.459   0.066   3.863
 2329SOL    MW4 9560   3.396   0.033   3.913
 2330SOL     OW 9561   3.135   0.134   3.801
 2330SOL    HW2 9562   3.221   0.112   3.838
 2330SOL    HW3 9563   3.138   0.101   3.712
 2330SOL    MW4 9564   3.147   0.127   3.794
 2331SOL     OW 9565   3.151   0.403   3.850
 2331SOL    HW2 9566   3.157   0.408   3.946
 2331SOL    HW3 9567   3.147   0.310   3.831
 2331SOL    MW4 9568   3.151   0.392   3.860
 2332SOL     OW 9569   3.370   0.529   3.733
 2332SOL    HW2 9570   3.446   0.498   3.783
 2332SOL    HW3 9571   3.294   0.491   3.778
 2332SOL    MW4 9572   3.370   0.520   3.746
 2333SOL     OW 9573   3.355   0.804   3.795
 2333SOL    HW2 9574   3.373   0.814   3.888
 2333SOL    HW3 9575   3.348   0.709   3.781
 2333SOL    MW4 9576   3.356   0.793   3.805
 2334SOL     OW 9577   3.127   0.937   3.718
 2334SOL    HW2 9578   3.210   0.899   3.746
 2334SOL    HW3 9579   3.130   0.935   3.622
 2334SOL    MW4 9580   3.138   0.932   3.709
 2335SOL     OW 9581   3.145   1.177   3.819
 2335SOL    HW2 9582   3.145   1.089   3.782
 2335SOL    HW3 9583   3.063   1.216   3.788
 2335SOL    MW4 9584   3.134   1.170   3.810
 2336SOL     OW 9585   3.389   1.308   3.742
 2336SOL    HW2 9586   3.304   1.276   3.771
 2336SOL    HW3 9587   3.383   1.309   3.647
 2336SOL    MW4 9588   3.377   1.304   3.733
 2337SOL     OW 9589   3.418   1.548   3.862
 2337SOL    HW2 9590   3.338   1.596   3.840
 2337SOL    HW3 9591   3.407   1.463   3.821
 2337SOL    MW4 9592   3.406   1.543   3.854
 2338SOL     OW 9593   3.199   1.646   3.747
 2338SOL    HW2 9594   3.192   1.740   3.765
 2338SOL    HW3 9595   3.210   1.641   3.652
 2338SOL    MW4 9596   3.199   1.658   3.736
 2339SOL     OW 9597   3.152   1.905   3.818
 2339SOL    HW2 9598   3.129   1.914   3.910
 2339SOL    HW3 9599   3.085   1.956   3.771
 2339SOL    MW4 9600   3.140   1.913   3.824
 2340SOL     OW 9601   3.387   2.051   3.768
 2340SOL    HW2 9602   3.313   1.991   3.782
 2340SOL    HW3 9603   3.401   2.050   3.673
 2340SOL    MW4 9604   3.379   2.043   3.757
 2341SOL     OW 9605   3.356   2.283   3.903
 2341SOL    HW2 9606   3.283   2.321   3.854
 2341SOL    HW3 9607   3.371   2.198   3.863
 2341SOL    MW4 9608   3.348   2.277   3.891
 2342SOL     OW 9609   3.182   2.441   3.754
 2342SOL    HW2 9610   3.184   2.534   3.778
 2342SOL    HW3 9611   3.177   2.441   3.659
 2342SOL    MW4 9612   3.181   2.453   3.745
 2343SOL     OW 9613   3.137   2.699   3.855
 2343SOL    HW2 9614   3.134   2.717   3.949
 2343SOL    HW3 9615   3.066   2.752   3.819
 2343SOL    MW4 9616   3.127   2.709   3.863
 2344SOL     OW 9617   3.364   2.853   3.809
 2344SOL    HW2 9618   3.276   2.827   3.836
 2344SOL    HW3 9619   3.363   2.849   3.713
 2344SOL    MW4 9620   3.353   2.849   3.800
 2345SOL     OW 9621   3.375   3.119   3.864
 2345SOL    HW2 9622   3.452   3.155   3.822
 2345SOL    HW3 9623   3.373   3.028   3.838
 2345SOL    MW4 9624   3.385   3.112   3.855
 2346SOL     OW 9625   3.148   3.275   3.784
 2346SOL    HW2 9626   3.229   3.232   3.811
 2346SOL    HW3 9627   3.154   3.278   3.688
 2346SOL    MW4 9628   3.159   3.270   3.775
 2347SOL     OW 9629   3.150   3.536   3.894
 2347SOL    HW2 9630   3.231   3.574   3.860
 2347SOL    HW3 9631   3.146   3.450   3.853
 2347SOL    MW4 9632   3.160   3.530   3.884
 2348SOL     OW 9633   3.379   3.658   3.773
 2348SOL    HW2 9634   3.390   3.749   3.799
 2348SOL    HW3 9635   3.373   3.662   3.677
 2348SOL    MW4 9636   3.380   3.671   3.764
 2349SOL     OW 9637   3.400   3.904   3.873
 2349SOL    HW2 9638   3.477   3.945   3.833
 2349SOL    HW3 9639   3.326   3.938   3.823
 2349SOL    MW4 9640   3.401   3.914   3.861
 2350SOL     OW 9641   3.164   4.021   3.742
 2350SOL    HW2 9642   3.157   4.112   3.770
 2350SOL    HW3 9643   3.086   3.978   3.776
 2350SOL    MW4 9644   3.153   4.027   3.750
 2351SOL     OW 9645   3.159   4.292   3.866
 2351SOL    HW2 9646   3.164   4.261   3.957
 2351SOL    HW3 9647   3.246   4.327   3.847
 2351SOL    MW4 9648   3.171   4.292   3.876
 2352SOL     OW 9649   3.382   4.449   3.786
 2352SOL    HW2 9650   3.459   4.403   3.819
 2352SOL    HW3 9651   3.389   4.537   3.823
 2352SOL    MW4 9652   3.393   4.454   3.795
 2353SOL     OW 9653   3.840   0.063   3.868
 2353SOL    HW2 9654   3.931   0.085   3.849
 2353SOL    HW3 9655   3.830  -0.028   3.839
 2353SOL    MW4 9656   3.850   0.054   3.862
 2354SOL     OW 9657   3.595   0.165   3.784
 2354SOL    HW2 9658   3.675   0.134   3.825
 2354SOL    HW3 9659   3.612   0.157   3.690
 2354SOL    MW4 9660   3.608   0.160   3.777
 2355SOL     OW 9661   3.574   0.440   3.885
 2355SOL    HW2 9662   3.656   0.479   3.853
 2355SOL    HW3 9663   3.579   0.348   3.858
 2355SOL    MW4 9664   3.586   0.433   3.877
 2356SOL     OW 9665   3.842   0.497   3.821
 2356SOL    HW2 9666   3.922   0.456   3.855
 2356SOL    HW3 9667   3.862   0.591   3.823
 2356SOL    MW4 9668   3.855   0.504   3.826
 2357SOL     OW 9669   3.797   0.779   3.865
 2357SOL    HW2 9670   3.887   0.812   3.865
 2357SOL    HW3 9671   3.747   0.846   3.818
 2357SOL    MW4 9672   3.802   0.792   3.859
 2358SOL     OW 9673   3.599   0.950   3.766
 2358SOL    HW2 9674   3.608   1.036   3.808
 2358SOL    HW3 9675   3.507   0.926   3.780
 2358SOL    MW4 9676   3.588   0.958   3.774
 2359SOL     OW 9677   3.604   1.202   3.893
 2359SOL    HW2 9678   3.673   1.236   3.835
 2359SOL    HW3 9679   3.523   1.214   3.843
 2359SOL    MW4 9680   3.602   1.208   3.878
 2360SOL     OW 9681   3.836   1.267   3.716
 2360SOL    HW2 9682   3.911   1.226   3.758
 2360SOL    HW3 9683   3.828   1.353   3.759
 2360SOL    MW4 9684   3.845   1.273   3.727
 2361SOL     OW 9685   3.813   1.501   3.852
 2361SOL    HW2 9686   3.819   1.512   3.947
 2361SOL    HW3 9687   3.752   1.569   3.824
 2361SOL    MW4 9688   3.806   1.511   3.861
 2362SOL     OW 9689   3.652   1.687   3.749
 2362SOL    HW2 9690   3.576   1.645   3.789
 2362SOL    HW3 9691   3.640   1.674   3.655
 2362SOL    MW4 9692   3.640   1.680   3.742
 2363SOL     OW 9693   3.628   1.946   3.882
 2363SOL    HW2 9694   3.641   1.863   3.835
 2363SOL    HW3 9695   3.542   1.977   3.852
 2363SOL    MW4 9696   3.618   1.939   3.872
 2364SOL     OW 9697   3.826   2.102   3.750
 2364SOL    HW2 9698   3.910   2.066   3.779
 2364SOL    HW3 9699   3.761   2.055   3.803
 2364SOL    MW4 9700   3.829   2.091   3.761
 2365SOL     OW 9701   3.819   2.323   3.901
 2365SOL    HW2 9702   3.748   2.383   3.878
 2365SOL    HW3 9703   3.817   2.256   3.833
 2365SOL    MW4 9704   3.810   2.322   3.889
 2366SOL     OW 9705   3.593   2.455   3.816
 2366SOL    HW2 9706   3.517   2.408   3.851
 2366SOL    HW3 9707   3.583   2.448   3.721
 2366SOL    MW4 9708   3.581   2.448   3.808
 2367SOL     OW 9709   3.603   2.724   3.842
 2367SOL    HW2 9710   3.587   2.630   3.853
 2367SOL    HW3 9711   3.516   2.762   3.828
 2367SOL    MW4 9712   3.590   2.716   3.842
 2368SOL     OW 9713   3.851   2.830   3.776
 2368SOL    HW2 9714   3.910   2.782   3.833
 2368SOL    HW3 9715   3.764   2.794   3.796
 2368SOL    MW4 9716   3.847   2.819   3.786
 2369SOL     OW 9717   3.827   3.113   3.890
 2369SOL    HW2 9718   3.748   3.151   3.851
 2369SOL    HW3 9719   3.833   3.026   3.850
 2369SOL    MW4 9720   3.817   3.106   3.879
 2370SOL     OW 9721   3.607   3.250   3.756
 2370SOL    HW2 9722   3.608   3.341   3.785
 2370SOL    HW3 9723   3.604   3.255   3.660
 2370SOL    MW4 9724   3.607   3.262   3.747
 2371SOL     OW 9725   3.601   3.502   3.883
 2371SOL    HW2 9726   3.598   3.506   3.979
 2371SOL    HW3 9727   3.516   3.534   3.854
 2371SOL    MW4 9728   3.590   3.507   3.892
 2372SOL     OW 9729   3.821   3.648   3.771
 2372SOL    HW2 9730   3.824   3.736   3.808
 2372SOL    HW3 9731   3.753   3.603   3.822
 2372SOL    MW4 9732   3.812   3.653   3.782
 2373SOL     OW 9733   3.847   3.902   3.875
 2373SOL    HW2 9734   3.859   3.908   3.969
 2373SOL    HW3 9735   3.925   3.944   3.838
 2373SOL    MW4 9736   3.859   3.909   3.882
 2374SOL     OW 9737   3.593   4.044   3.757
 2374SOL    HW2 9738   3.596   4.137   3.781
 2374SOL    HW3 9739   3.681   4.012   3.775
 2374SOL    MW4 9740   3.605   4.052   3.763
 2375SOL     OW 9741   3.602   4.306   3.866
 2375SOL    HW2 9742   3.617   4.294   3.960
 2375SOL    HW3 9743   3.677   4.357   3.836
 2375SOL    MW4 9744   3.614   4.311   3.875
 2376SOL     OW 9745   3.814   4.449   3.772
 2376SOL    HW2 9746   3.888   4.406   3.815
 2376SOL    HW3 9747   3.818   4.417   3.681
 2376SOL    MW4 9748   3.824   4.439   3.765
 2377SOL     OW 9749   4.318   4.665   3.887
 2377SOL    HW2 9750   4.325   4.693   3.979
 2377SOL    HW3 9751   4.399   4.697   3.846
 2377SOL    MW4 9752   4.330   4.673   3.894
 2378SOL     OW 9753   4.091   0.124   3.793
 2378SOL    HW2 9754   4.171   0.080   3.820
 2378SOL    HW3 9755   4.082   0.103   3.700
 2378SOL    MW4 9756   4.100   0.116   3.784
 2379SOL     OW 9757   4.083   0.389   3.900
 2379SOL    HW2 9758   4.075   0.383   3.995
 2379SOL    HW3 9759   4.080   0.298   3.870
 2379SOL    MW4 9760   4.082   0.376   3.908
 2380SOL     OW 9761   4.293   0.521   3.771
 2380SOL    HW2 9762   4.229   0.466   3.815
 2380SOL    HW3 9763   4.274   0.509   3.678
 2380SOL    MW4 9764   4.282   0.512   3.764
 2381SOL     OW 9765   4.289   0.776   3.868
 2381SOL    HW2 9766   4.213   0.828   3.842
 2381SOL    HW3 9767   4.279   0.693   3.821
 2381SOL    MW4 9768   4.278   0.772   3.858
 2382SOL     OW 9769   4.061   0.894   3.782
 2382SOL    HW2 9770   4.065   0.983   3.818
 2382SOL    HW3 9771   4.057   0.908   3.687
 2382SOL    MW4 9772   4.061   0.908   3.774
 2383SOL     OW 9773   4.040   1.157   3.868
 2383SOL    HW2 9774   4.030   1.156   3.964
 2383SOL    HW3 9775   4.129   1.188   3.854
 2383SOL    MW4 9776   4.051   1.161   3.879
 2384SOL     OW 9777   4.279   1.252   3.785
 2384SOL    HW2 9778   4.266   1.342   3.814
 2384SOL    HW3 9779   4.253   1.252   3.693
 2384SOL    MW4 9780   4.274   1.264   3.777
 2385SOL     OW 9781   4.234   1.515   3.868
 2385SOL    HW2 9782   4.157   1.557   3.829
 2385SOL    HW3 9783   4.309   1.564   3.833
 2385SOL    MW4 9784   4.234   1.527   3.858
 2386SOL     OW 9785   4.027   1.675   3.780
 2386SOL    HW2 9786   4.042   1.766   3.807
 2386SOL    HW3 9787   3.938   1.656   3.811
 2386SOL    MW4 9788   4.017   1.685   3.788
 2387SOL     OW 9789   4.049   1.957   3.863
 2387SOL    HW2 9790   4.035   1.976   3.956
 2387SOL    HW3 9791   4.126   2.008   3.839
 2387SOL    MW4 9792   4.057   1.966   3.872
 2388SOL     OW 9793   4.271   2.104   3.753
 2388SOL    HW2 9794   4.268   2.193   3.787
 2388SOL    HW3 9795   4.250   2.113   3.661
 2388SOL    MW4 9796   4.268   2.117   3.746
 2389SOL     OW 9797   4.235   2.368   3.836
 2389SOL    HW2 9798   4.210   2.365   3.928
 2389SOL    HW3 9799   4.156   2.397   3.790
 2389SOL    MW4 9800   4.222   2.372   3.842
 2390SOL     OW 9801   3.980   2.485   3.730
 2390SOL    HW2 9802   3.997   2.565   3.779
 2390SOL    HW3 9803   3.924   2.433   3.787
 2390SOL    MW4 9804   3.975   2.488   3.744
 2391SOL     OW 9805   4.050   2.688   3.909
 2391SOL    HW2 9806   4.062   2.699   4.004
 2391SOL    HW3 9807   4.133   2.717   3.871
 2391SOL    MW4 9808   4.062   2.694   3.917
 2392SOL     OW 9809   4.267   2.788   3.769
 2392SOL    HW2 9810   4.258   2.877   3.805
 2392SOL    HW3 9811   4.350   2.756   3.806
 2392SOL    MW4 9812   4.277   2.796   3.779
 2393SOL     OW 9813   4.259   3.102   3.898
 2393SOL    HW2 9814   4.197   3.164   3.860
 2393SOL    HW3 9815   4.345   3.134   3.871
 2393SOL    MW4 9816   4.262   3.115   3.890
 2394SOL     OW 9817   4.063   3.252   3.764
 2394SOL    HW2 9818   4.000   3.202   3.817
 2394SOL    HW3 9819   4.034   3.238   3.674
 2394SOL    MW4 9820   4.051   3.244   3.759
 2395SOL     OW 9821   4.049   3.530   3.893
 2395SOL    HW2 9822   4.038   3.445   3.850
 2395SOL    HW3 9823   3.973   3.581   3.865
 2395SOL    MW4 9824   4.038   3.525   3.884
 2396SOL     OW 9825   4.291   3.627   3.778
 2396SOL    HW2 9826   4.211   3.590   3.816
 2396SOL    HW3 9827   4.361   3.570   3.809
 2396SOL    MW4 9828   4.290   3.615   3.787
 2397SOL     OW 9829   4.316   3.884   3.906
 2397SOL    HW2 9830   4.252   3.935   3.856
 2397SOL    HW3 9831   4.312   3.797   3.867
 2397SOL    MW4 9832   4.307   3.879   3.894
 2398SOL     OW 9833   4.103   4.027   3.799
 2398SOL    HW2 9834   4.089   4.120   3.819
 2398SOL    HW3 9835   4.086   4.020   3.705
 2398SOL    MW4 9836   4.099   4.038   3.789
 2399SOL     OW 9837   4.017   4.288   3.857
 2399SOL    HW2 9838   4.018   4.287   3.952
 2399SOL    HW3 9839   4.100   4.329   3.832
 2399SOL    MW4 9840   4.028   4.294   3.866
 2400SOL     OW 9841   4.298   4.404   3.763
 2400SOL    HW2 9842   4.310   4.484   3.813
 2400SOL    HW3 9843   4.364   4.344   3.798
 2400SOL    MW4 9844   4.309   4.406   3.774
 2401SOL     OW 9845   0.260   4.665   4.144
 2401SOL    HW2 9846   0.335   4.702   4.191
 2401SOL    HW3 9847   0.247   4.579   4.184
 2401SOL    MW4 9848   0.268   4.659   4.156
 2402SOL     OW 9849   0.062   0.158   4.249
 2402SOL    HW2 9850   0.097   0.171   4.337
 2402SOL    HW3 9851   0.129   0.108   4.203
 2402SOL    MW4 9852   0.075   0.153   4.255
 2403SOL     OW 9853   4.479   0.394   4.156
 2403SOL    HW2 9854   4.492   0.304   4.187
 2403SOL    HW3 9855   4.485   0.389   4.061
 2403SOL    MW4 9856   4.481   0.382   4.148
 2404SOL     OW 9857   0.215   0.503   4.294
 2404SOL    HW2 9858   0.296   0.461   4.263
 2404SOL    HW3 9859   0.146   0.462   4.241
 2404SOL    MW4 9860   0.217   0.492   4.283
 2405SOL     OW 9861   0.228   0.758   4.188
 2405SOL    HW2 9862   0.161   0.809   4.235
 2405SOL    HW3 9863   0.224   0.672   4.229
 2405SOL    MW4 9864   0.219   0.754   4.200
 2406SOL     OW 9865   0.010   0.881   4.330
 2406SOL    HW2 9866  -0.052   0.852   4.264
 2406SOL    HW3 9867   0.020   0.975   4.316
 2406SOL    MW4 9868   0.003   0.889   4.320
 2407SOL     OW 9869   0.032   1.132   4.197
 2407SOL    HW2 9870   0.087   1.202   4.231
 2407SOL    HW3 9871   0.029   1.147   4.102
 2407SOL    MW4 9872   0.039   1.143   4.189
 2408SOL     OW 9873   0.246   1.294   4.255
 2408SOL    HW2 9874   0.283   1.283   4.342
 2408SOL    HW3 9875   0.289   1.227   4.201
 2408SOL    MW4 9876   0.257   1.284   4.259
 2409SOL     OW 9877   0.085   1.506   4.610
 2409SOL    HW2 9878   0.172   1.536   4.635
 2409SOL    HW3 9879   0.044   1.582   4.569
 2409SOL    MW4 9880   0.091   1.520   4.608
 2410SOL     OW 9881   0.006   1.694   4.213
 2410SOL    HW2 9882  -0.064   1.637   4.180
 2410SOL    HW3 9883  -0.025   1.783   4.196
 2410SOL    MW4 9884  -0.007   1.698   4.206
 2411SOL     OW 9885   0.224   2.001   4.225
 2411SOL    HW2 9886   0.217   1.999   4.321
 2411SOL    HW3 9887   0.297   1.942   4.206
 2411SOL    MW4 9888   0.233   1.993   4.235
 2412SOL     OW 9889   0.450   1.828   4.567
 2412SOL    HW2 9890   0.361   1.858   4.546
 2412SOL    HW3 9891   0.479   1.783   4.488
 2412SOL    MW4 9892   0.442   1.826   4.554
 2413SOL     OW 9893   0.224   2.254   4.106
 2413SOL    HW2 9894   0.298   2.312   4.124
 2413SOL    HW3 9895   0.239   2.178   4.162
 2413SOL    MW4 9896   0.236   2.252   4.116
 2414SOL     OW 9897   0.047   2.439   4.213
 2414SOL    HW2 9898  -0.041   2.416   4.183
 2414SOL    HW3 9899   0.103   2.368   4.182
 2414SOL    MW4 9900   0.042   2.426   4.205
 2415SOL     OW 9901   0.018   2.703   4.162
 2415SOL    HW2 9902   0.082   2.754   4.211
 2415SOL    HW3 9903   0.023   2.615   4.200
 2415SOL    MW4 9904   0.027   2.698   4.173
 2416SOL     OW 9905   0.234   2.853   4.299
 2416SOL    HW2 9906   0.293   2.801   4.244
 2416SOL    HW3 9907   0.219   2.932   4.248
 2416SOL    MW4 9908   0.240   2.856   4.285
 2417SOL     OW 9909   0.226   3.097   4.126
 2417SOL    HW2 9910   0.308   3.138   4.153
 2417SOL    HW3 9911   0.158   3.151   4.166
 2417SOL    MW4 9912   0.228   3.110   4.135
 2418SOL     OW 9913   4.474   3.237   4.249
 2418SOL    HW2 9914   4.395   3.206   4.206
 2418SOL    HW3 9915   4.483   3.328   4.221
 2418SOL    MW4 9916   4.465   3.245   4.240
 2419SOL     OW 9917   0.007   3.495   4.136
 2419SOL    HW2 9918  -0.066   3.548   4.169
 2419SOL    HW3 9919  -0.007   3.491   4.042
 2419SOL    MW4 9920  -0.005   3.501   4.128
 2420SOL     OW 9921   0.245   3.576   4.229
 2420SOL    HW2 9922   0.313   3.517   4.195
 2420SOL    HW3 9923   0.164   3.544   4.188
 2420SOL    MW4 9924   0.243   3.564   4.219
 2421SOL     OW 9925   0.292   3.852   4.172
 2421SOL    HW2 9926   0.215   3.898   4.206
 2421SOL    HW3 9927   0.278   3.760   4.196
 2421SOL    MW4 9928   0.280   3.846   4.180
 2422SOL     OW 9929   0.066   3.972   4.272
 2422SOL    HW2 9930   0.065   3.988   4.366
 2422SOL    HW3 9931  -0.022   3.939   4.252
 2422SOL    MW4 9932   0.054   3.970   4.282
 2423SOL     OW 9933   0.030   4.224   4.148
 2423SOL    HW2 9934   0.041   4.134   4.179
 2423SOL    HW3 9935   0.015   4.216   4.054
 2423SOL    MW4 9936   0.029   4.211   4.140
 2424SOL     OW 9937   0.199   4.415   4.252
 2424SOL    HW2 9938   0.167   4.423   4.342
 2424SOL    HW3 9939   0.139   4.353   4.211
 2424SOL    MW4 9940   0.186   4.408   4.259
 2425SOL     OW 9941   0.703   4.650   4.260
 2425SOL    HW2 9942   0.613   4.681   4.270
 2425SOL    HW3 9943   0.722   4.660   4.167
 2425SOL    MW4 9944   0.694   4.656   4.249
 2426SOL     OW 9945   0.458   0.098   4.291
 2426SOL    HW2 9946   0.419   0.091   4.378
 2426SOL    HW3 9947   0.471   0.192   4.278
 2426SOL    MW4 9948   0.455   0.110   4.301
 2427SOL     OW 9949   0.456   0.357   4.207
 2427SOL    HW2 9950   0.522   0.414   4.246
 2427SOL    HW3 9951   0.480   0.352   4.114
 2427SOL    MW4 9952   0.468   0.364   4.200
 2428SOL     OW 9953   0.680   0.500   4.289
 2428SOL    HW2 9954   0.753   0.469   4.236
 2428SOL    HW3 9955   0.672   0.593   4.267
 2428SOL    MW4 9956   0.689   0.508   4.279
 2429SOL     OW 9957   0.701   0.774   4.217
 2429SOL    HW2 9958   0.633   0.835   4.247
 2429SOL    HW3 9959   0.699   0.782   4.122
 2429SOL    MW4 9960   0.691   0.783   4.208
 2430SOL     OW 9961   0.462   0.904   4.265
 2430SOL    HW2 9962   0.451   0.993   4.230
 2430SOL    HW3 9963   0.391   0.854   4.225
 2430SOL    MW4 9964   0.451   0.909   4.255
 2431SOL     OW 9965   0.469   1.152   4.151
 2431SOL    HW2 9966   0.534   1.204   4.199
 2431SOL    HW3 9967   0.500   1.153   4.060
 2431SOL    MW4 9968   0.482   1.159   4.145
 2432SOL     OW 9969   0.691   1.283   4.277
 2432SOL    HW2 9970   0.697   1.299   4.371
 2432SOL    HW3 9971   0.692   1.370   4.238
 2432SOL    MW4 9972   0.692   1.297   4.284
 2433SOL     OW 9973   0.696   1.529   4.164
 2433SOL    HW2 9974   0.789   1.552   4.171
 2433SOL    HW3 9975   0.679   1.525   4.069
 2433SOL    MW4 9976   0.706   1.531   4.152
 2434SOL     OW 9977   0.259   1.579   4.156
 2434SOL    HW2 9978   0.272   1.501   4.209
 2434SOL    HW3 9979   0.178   1.618   4.189
 2434SOL    MW4 9980   0.250   1.574   4.168
 2435SOL     OW 9981   0.425   1.819   4.177
 2435SOL    HW2 9982   0.387   1.731   4.172
 2435SOL    HW3 9983   0.455   1.837   4.088
 2435SOL    MW4 9984   0.424   1.810   4.165
 2436SOL     OW 9985   0.715   2.023   4.289
 2436SOL    HW2 9986   0.711   2.046   4.382
 2436SOL    HW3 9987   0.643   1.962   4.277
 2436SOL    MW4 9988   0.705   2.018   4.299
 2437SOL     OW 9989   0.686   2.274   4.141
 2437SOL    HW2 9990   0.711   2.187   4.171
 2437SOL    HW3 9991   0.702   2.273   4.046
 2437SOL    MW4 9992   0.691   2.263   4.132
 2438SOL     OW 9993   0.464   2.415   4.167
 2438SOL    HW2 9994   0.476   2.503   4.131
 2438SOL    HW3 9995   0.549   2.372   4.153
 2438SOL    MW4 9996   0.477   2.421   4.161
 2439SOL     OW 9997   0.426   2.709   4.144
 2439SOL    HW2 9998   0.514   2.731   4.171
 2439SOL    HW3 9999   0.429   2.708   4.048
 2439SOL    MW410000   0.438   2.712   4.135
 2440SOL     OW10001   0.655   2.799   4.260
 2440SOL    HW210002   0.684   2.801   4.351
 2440SOL    HW310003   0.648   2.891   4.235
 2440SOL    MW410004   0.658   2.811   4.269
 2441SOL     OW10005   0.663   3.052   4.144
 2441SOL    HW210006   0.740   3.096   4.180
 2441SOL    HW310007   0.589   3.108   4.168
 2441SOL    MW410008   0.663   3.065   4.152
 2442SOL     OW10009   0.471   3.224   4.245
 2442SOL    HW210010   0.490   3.260   4.331
 2442SOL    HW310011   0.468   3.300   4.187
 2442SOL    MW410012   0.473   3.238   4.249
 2443SOL     OW10013   0.450   3.458   4.111
 2443SOL    HW210014   0.521   3.502   4.159
 2443SOL    HW310015   0.461   3.488   4.021
 2443SOL    MW410016   0.461   3.468   4.105
 2444SOL     OW10017   0.682   3.628   4.260
 2444SOL    HW210018   0.677   3.618   4.355
 2444SOL    HW310019   0.764   3.585   4.236
 2444SOL    MW410020   0.692   3.621   4.269
 2445SOL     OW10021   0.714   3.884   4.113
 2445SOL    HW210022   0.640   3.934   4.150
 2445SOL    HW310023   0.712   3.801   4.160
 2445SOL    MW410024   0.704   3.880   4.124
 2446SOL     OW10025   0.510   3.998   4.250
 2446SOL    HW210026   0.487   4.090   4.236
 2446SOL    HW310027   0.432   3.950   4.222
 2446SOL    MW410028   0.497   4.004   4.245
 2447SOL     OW10029   0.415   4.257   4.200
 2447SOL    HW210030   0.338   4.309   4.223
 2447SOL    HW310031   0.419   4.262   4.104
 2447SOL    MW410032   0.406   4.264   4.190
 2448SOL     OW10033   0.670   4.356   4.279
 2448SOL    HW210034   0.586   4.312   4.269
 2448SOL    HW310035   0.653   4.447   4.256
 2448SOL    MW410036   0.657   4.362   4.275
 2449SOL     OW10037   1.125   0.028   4.144
 2449SOL    HW210038   1.111  -0.066   4.156
 2449SOL    HW310039   1.152   0.036   4.052
 2449SOL    MW410040   1.127   0.016   4.133
 2450SOL     OW10041   0.924   0.130   4.299
 2450SOL    HW210042   0.982   0.089   4.235
 2450SOL    HW310043   0.846   0.075   4.299
 2450SOL    MW410044   0.921   0.117   4.290
 2451SOL     OW10045   0.904   0.382   4.176
 2451SOL    HW210046   0.989   0.424   4.188
 2451SOL    HW310047   0.912   0.298   4.221
 2451SOL    MW410048   0.916   0.376   4.183
 2452SOL     OW10049   1.157   0.502   4.225
 2452SOL    HW210050   1.177   0.509   4.318
 2452SOL    HW310051   1.226   0.446   4.190
 2452SOL    MW410052   1.169   0.496   4.233
 2453SOL     OW10053   1.129   0.753   4.131
 2453SOL    HW210054   1.191   0.804   4.183
 2453SOL    HW310055   1.140   0.663   4.162
 2453SOL    MW410056   1.138   0.748   4.142
 2454SOL     OW10057   0.942   0.890   4.287
 2454SOL    HW210058   1.006   0.841   4.236
 2454SOL    HW310059   0.859   0.846   4.270
 2454SOL    MW410060   0.939   0.878   4.278
 2455SOL     OW10061   0.901   1.136   4.154
 2455SOL    HW210062   0.913   1.046   4.184
 2455SOL    HW310063   0.828   1.169   4.205
 2455SOL    MW410064   0.893   1.129   4.164
 2456SOL     OW10065   1.125   1.259   4.290
 2456SOL    HW210066   1.100   1.261   4.382
 2456SOL    HW310067   1.042   1.252   4.243
 2456SOL    MW410068   1.111   1.259   4.296
 2457SOL     OW10069   1.189   1.548   4.186
 2457SOL    HW210070   1.098   1.565   4.210
 2457SOL    HW310071   1.202   1.455   4.204
 2457SOL    MW410072   1.179   1.538   4.192
 2458SOL     OW10073   0.936   1.622   4.268
 2458SOL    HW210074   0.918   1.619   4.362
 2458SOL    HW310075   0.934   1.715   4.245
 2458SOL    MW410076   0.933   1.633   4.277
 2459SOL     OW10077   0.910   1.877   4.173
 2459SOL    HW210078   0.843   1.920   4.226
 2459SOL    HW310079   0.898   1.913   4.085
 2459SOL    MW410080   0.900   1.887   4.168
 2460SOL     OW10081   1.158   2.047   4.229
 2460SOL    HW210082   1.149   2.060   4.323
 2460SOL    HW310083   1.083   1.992   4.205
 2460SOL    MW410084   1.147   2.042   4.238
 2461SOL     OW10085   1.103   2.309   4.147
 2461SOL    HW210086   1.186   2.345   4.181
 2461SOL    HW310087   1.097   2.222   4.186
 2461SOL    MW410088   1.113   2.302   4.156
 2462SOL     OW10089   0.886   2.458   4.234
 2462SOL    HW210090   0.968   2.413   4.212
 2462SOL    HW310091   0.818   2.392   4.219
 2462SOL    MW410092   0.888   2.443   4.229
 2463SOL     OW10093   0.862   2.684   4.112
 2463SOL    HW210094   0.864   2.600   4.158
 2463SOL    HW310095   0.786   2.729   4.149
 2463SOL    MW410096   0.853   2.679   4.123
 2464SOL     OW10097   1.087   2.810   4.246
 2464SOL    HW210098   1.094   2.894   4.202
 2464SOL    HW310099   1.006   2.771   4.213
 2464SOL    MW410100   1.077   2.816   4.236
 2465SOL     OW10101   1.136   3.065   4.160
 2465SOL    HW210102   1.205   3.115   4.204
 2465SOL    HW310103   1.153   3.078   4.067
 2465SOL    MW410104   1.147   3.073   4.154
 2466SOL     OW10105   0.893   3.169   4.243
 2466SOL    HW210106   0.886   3.122   4.327
 2466SOL    HW310107   0.969   3.130   4.201
 2466SOL    MW410108   0.902   3.157   4.249
 2467SOL     OW10109   0.900   3.463   4.208
 2467SOL    HW210110   0.905   3.369   4.224
 2467SOL    HW310111   0.886   3.471   4.114
 2467SOL    MW410112   0.899   3.452   4.198
 2468SOL     OW10113   1.152   3.604   4.269
 2468SOL    HW210114   1.132   3.691   4.234
 2468SOL    HW310115   1.068   3.559   4.272
 2468SOL    MW410116   1.138   3.609   4.265
 2469SOL     OW10117   1.118   3.861   4.161
 2469SOL    HW210118   1.199   3.898   4.195
 2469SOL    HW310119   1.050   3.924   4.186
 2469SOL    MW410120   1.119   3.874   4.169
 2470SOL     OW10121   0.896   4.029   4.246
 2470SOL    HW210122   0.900   4.111   4.197
 2470SOL    HW310123   0.824   3.980   4.205
 2470SOL    MW410124   0.887   4.033   4.234
 2471SOL     OW10125   0.875   4.294   4.131
 2471SOL    HW210126   0.946   4.343   4.171
 2471SOL    HW310127   0.797   4.318   4.183
 2471SOL    MW410128   0.874   4.304   4.143
 2472SOL     OW10129   1.098   4.428   4.260
 2472SOL    HW210130   1.094   4.403   4.352
 2472SOL    HW310131   1.182   4.393   4.229
 2472SOL    MW410132   1.109   4.420   4.268
 2473SOL     OW10133   1.598   4.634   4.162
 2473SOL    HW210134   1.681   4.663   4.201
 2473SOL    HW310135   1.531   4.670   4.219
 2473SOL    MW410136   1.600   4.642   4.175
 2474SOL     OW10137   1.377   0.081   4.264
 2474SOL    HW210138   1.372   0.074   4.359
 2474SOL    HW310139   1.288   0.063   4.233
 2474SOL    MW410140   1.365   0.078   4.272
 2475SOL     OW10141   1.371   0.350   4.133
 2475SOL    HW210142   1.454   0.392   4.154
 2475SOL    HW310143   1.377   0.264   4.174
 2475SOL    MW410144   1.383   0.344   4.141
 2476SOL     OW10145   1.576   0.495   4.261
 2476SOL    HW210146   1.584   0.505   4.356
 2476SOL    HW310147   1.580   0.584   4.227
 2476SOL    MW410148   1.577   0.508   4.269
 2477SOL     OW10149   1.572   0.757   4.167
 2477SOL    HW210150   1.649   0.801   4.204
 2477SOL    HW310151   1.583   0.766   4.072
 2477SOL    MW410152   1.584   0.764   4.159
 2478SOL     OW10153   1.337   0.870   4.273
 2478SOL    HW210154   1.363   0.962   4.267
 2478SOL    HW310155   1.413   0.821   4.241
 2478SOL    MW410156   1.351   0.875   4.268
 2479SOL     OW10157   1.360   1.142   4.192
 2479SOL    HW210158   1.276   1.176   4.221
 2479SOL    HW310159   1.360   1.154   4.098
 2479SOL    MW410160   1.349   1.148   4.184
 2480SOL     OW10161   1.558   1.312   4.253
 2480SOL    HW210162   1.546   1.337   4.345
 2480SOL    HW310163   1.486   1.251   4.235
 2480SOL    MW410164   1.547   1.307   4.263
 2481SOL     OW10165   1.573   1.582   4.120
 2481SOL    HW210166   1.501   1.621   4.170
 2481SOL    HW310167   1.590   1.499   4.164
 2481SOL    MW410168   1.566   1.576   4.132
 2482SOL     OW10169   1.383   1.736   4.257
 2482SOL    HW210170   1.381   1.807   4.193
 2482SOL    HW310171   1.305   1.684   4.238
 2482SOL    MW410172   1.372   1.738   4.246
 2483SOL     OW10173   1.374   1.962   4.076
 2483SOL    HW210174   1.448   2.014   4.106
 2483SOL    HW310175   1.299   1.996   4.125
 2483SOL    MW410176   1.373   1.973   4.086
 2484SOL     OW10177   1.599   2.071   4.182
 2484SOL    HW210178   1.561   2.053   4.268
 2484SOL    HW310179   1.586   2.165   4.168
 2484SOL    MW410180   1.592   2.081   4.191
 2485SOL     OW10181   1.526   2.333   4.132
 2485SOL    HW210182   1.600   2.389   4.155
 2485SOL    HW310183   1.530   2.327   4.036
 2485SOL    MW410184   1.536   2.340   4.122
 2486SOL     OW10185   1.319   2.446   4.254
 2486SOL    HW210186   1.320   2.538   4.228
 2486SOL    HW310187   1.392   2.407   4.207
 2486SOL    MW410188   1.328   2.453   4.244
 2487SOL     OW10189   1.329   2.702   4.159
 2487SOL    HW210190   1.404   2.748   4.196
 2487SOL    HW310191   1.253   2.743   4.201
 2487SOL    MW410192   1.329   2.713   4.170
 2488SOL     OW10193   1.572   2.832   4.236
 2488SOL    HW210194   1.573   2.848   4.330
 2488SOL    HW310195   1.587   2.918   4.197
 2488SOL    MW410196   1.574   2.845   4.243
 2489SOL     OW10197   1.593   3.092   4.124
 2489SOL    HW210198   1.663   3.141   4.168
 2489SOL    HW310199   1.512   3.133   4.155
 2489SOL    MW410200   1.591   3.104   4.134
 2490SOL     OW10201   1.361   3.215   4.245
 2490SOL    HW210202   1.388   3.224   4.336
 2490SOL    HW310203   1.358   3.304   4.211
 2490SOL    MW410204   1.364   3.228   4.253
 2491SOL     OW10205   1.354   3.469   4.125
 2491SOL    HW210206   1.285   3.523   4.164
 2491SOL    HW310207   1.337   3.473   4.030
 2491SOL    MW410208   1.343   3.477   4.117
 2492SOL     OW10209   1.587   3.576   4.239
 2492SOL    HW210210   1.556   3.562   4.329
 2492SOL    HW310211   1.516   3.545   4.184
 2492SOL    MW410212   1.574   3.570   4.244
 2493SOL     OW10213   1.630   3.835   4.134
 2493SOL    HW210214   1.560   3.899   4.148
 2493SOL    HW310215   1.599   3.756   4.177
 2493SOL    MW410216   1.617   3.833   4.141
 2494SOL     OW10217   1.375   4.010   4.189
 2494SOL    HW210218   1.365   4.026   4.283
 2494SOL    HW310219   1.347   4.092   4.148
 2494SOL    MW410220   1.370   4.023   4.196
 2495SOL     OW10221   1.331   4.300   4.164
 2495SOL    HW210222   1.407   4.341   4.204
 2495SOL    HW310223   1.343   4.316   4.070
 2495SOL    MW410224   1.343   4.307   4.157
 2496SOL     OW10225   1.574   4.367   4.267
 2496SOL    HW210226   1.608   4.446   4.226
 2496SOL    HW310227   1.639   4.300   4.246
 2496SOL    MW410228   1.587   4.369   4.259
 2497SOL     OW10229   2.028   4.643   4.189
 2497SOL    HW210230   1.943   4.671   4.224
 2497SOL    HW310231   2.023   4.661   4.095
 2497SOL    MW410232   2.016   4.649   4.182
 2498SOL     OW10233   1.801   0.085   4.280
 2498SOL    HW210234   1.772   0.091   4.371
 2498SOL    HW310235   1.808   0.176   4.251
 2498SOL    MW410236   1.798   0.097   4.289
 2499SOL     OW10237   1.829   0.337   4.194
 2499SOL    HW210238   1.903   0.391   4.224
 2499SOL    HW310239   1.752   0.381   4.229
 2499SOL    MW410240   1.829   0.350   4.202
 2500SOL     OW10241   2.037   0.500   4.259
 2500SOL    HW210242   2.045   0.499   4.355
 2500SOL    HW310243   2.121   0.465   4.228
 2500SOL    MW410244   2.049   0.495   4.268
 2501SOL     OW10245   1.992   0.746   4.135
 2501SOL    HW210246   2.078   0.762   4.175
 2501SOL    HW310247   1.973   0.654   4.154
 2501SOL    MW410248   2.001   0.736   4.143
 2502SOL     OW10249   1.796   0.881   4.283
 2502SOL    HW210250   1.805   0.976   4.276
 2502SOL    HW310251   1.860   0.847   4.221
 2502SOL    MW410252   1.805   0.889   4.274
 2503SOL     OW10253   1.799   1.161   4.233
 2503SOL    HW210254   1.873   1.216   4.259
 2503SOL    HW310255   1.724   1.221   4.231
 2503SOL    MW410256   1.799   1.176   4.236
 2504SOL     OW10257   2.025   1.293   4.276
 2504SOL    HW210258   2.090   1.255   4.217
 2504SOL    HW310259   2.023   1.386   4.254
 2504SOL    MW410260   2.033   1.300   4.265
 2505SOL     OW10261   2.013   1.562   4.170
 2505SOL    HW210262   2.090   1.606   4.204
 2505SOL    HW310263   2.038   1.533   4.082
 2505SOL    MW410264   2.026   1.564   4.163
 2506SOL     OW10265   1.790   1.668   4.273
 2506SOL    HW210266   1.870   1.637   4.230
 2506SOL    HW310267   1.720   1.638   4.216
 2506SOL    MW410268   1.791   1.660   4.260
 2507SOL     OW10269   1.825   1.904   4.143
 2507SOL    HW210270   1.809   1.825   4.195
 2507SOL    HW310271   1.750   1.961   4.161
 2507SOL    MW410272   1.813   1.901   4.152
 2508SOL     OW10273   2.050   2.041   4.245
 2508SOL    HW210274   2.125   2.016   4.192
 2508SOL    HW310275   1.976   1.996   4.206
 2508SOL    MW410276   2.050   2.032   4.233
 2509SOL     OW10277   2.003   2.317   4.188
 2509SOL    HW210278   2.027   2.227   4.210
 2509SOL    HW310279   1.996   2.318   4.093
 2509SOL    MW410280   2.005   2.305   4.178
 2510SOL     OW10281   1.767   2.445   4.230
 2510SOL    HW210282   1.738   2.448   4.321
 2510SOL    HW310283   1.845   2.391   4.231
 2510SOL    MW410284   1.773   2.438   4.242
 2511SOL     OW10285   1.800   2.712   4.142
 2511SOL    HW210286   1.794   2.620   4.169
 2511SOL    HW310287   1.718   2.752   4.174
 2511SOL    MW410288   1.788   2.705   4.150
 2512SOL     OW10289   1.983   2.891   4.246
 2512SOL    HW210290   1.996   2.889   4.341
 2512SOL    HW310291   1.916   2.824   4.229
 2512SOL    MW410292   1.976   2.882   4.256
 2513SOL     OW10293   2.036   3.115   4.090
 2513SOL    HW210294   2.000   3.040   4.137
 2513SOL    HW310295   2.033   3.088   3.998
 2513SOL    MW410296   2.031   3.101   4.084
 2514SOL     OW10297   1.803   3.233   4.205
 2514SOL    HW210298   1.810   3.320   4.167
 2514SOL    HW310299   1.875   3.183   4.165
 2514SOL    MW410300   1.813   3.238   4.195
 2515SOL     OW10301   1.837   3.489   4.134
 2515SOL    HW210302   1.751   3.522   4.163
 2515SOL    HW310303   1.830   3.486   4.039
 2515SOL    MW410304   1.824   3.493   4.125
 2516SOL     OW10305   2.101   3.615   4.181
 2516SOL    HW210306   2.078   3.706   4.199
 2516SOL    HW310307   2.017   3.573   4.161
 2516SOL    MW410308   2.087   3.621   4.181
 2517SOL     OW10309   2.106   3.892   4.224
 2517SOL    HW210310   2.018   3.901   4.262
 2517SOL    HW310311   2.092   3.903   4.130
 2517SOL    MW410312   2.092   3.895   4.217
 2518SOL     OW10313   1.844   3.928   4.285
 2518SOL    HW210314   1.799   4.003   4.247
 2518SOL    HW310315   1.809   3.853   4.237
 2518SOL    MW410316   1.834   3.928   4.274
 2519SOL     OW10317   1.794   4.222   4.194
 2519SOL    HW210318   1.881   4.256   4.216
 2519SOL    HW310319   1.796   4.209   4.099
 2519SOL    MW410320   1.806   4.225   4.184
 2520SOL     OW10321   2.043   4.367   4.242
 2520SOL    HW210322   2.041   4.388   4.336
 2520SOL    HW310323   2.060   4.450   4.199
 2520SOL    MW410324   2.045   4.380   4.249
 2521SOL     OW10325   2.425   0.005   4.137
 2521SOL    HW210326   2.501   0.048   4.177
 2521SOL    HW310327   2.430  -0.085   4.169
 2521SOL    MW410328   2.436  -0.001   4.147
 2522SOL     OW10329   2.255   0.151   4.262
 2522SOL    HW210330   2.316   0.094   4.215
 2522SOL    HW310331   2.169   0.110   4.248
 2522SOL    MW410332   2.252   0.138   4.254
 2523SOL     OW10333   2.285   0.415   4.172
 2523SOL    HW210334   2.281   0.325   4.205
 2523SOL    HW310335   2.274   0.406   4.077
 2523SOL    MW410336   2.283   0.402   4.164
 2524SOL     OW10337   2.527   0.532   4.237
 2524SOL    HW210338   2.565   0.492   4.315
 2524SOL    HW310339   2.438   0.497   4.232
 2524SOL    MW410340   2.520   0.522   4.246
 2525SOL     OW10341   2.510   0.811   4.126
 2525SOL    HW210342   2.507   0.719   4.154
 2525SOL    HW310343   2.493   0.808   4.032
 2525SOL    MW410344   2.507   0.798   4.117
 2526SOL     OW10345   2.243   0.877   4.208
 2526SOL    HW210346   2.237   0.888   4.303
 2526SOL    HW310347   2.335   0.861   4.191
 2526SOL    MW410348   2.254   0.877   4.218
 2527SOL     OW10349   2.205   1.148   4.115
 2527SOL    HW210350   2.272   1.204   4.152
 2527SOL    HW310351   2.225   1.060   4.147
 2527SOL    MW410352   2.216   1.144   4.124
 2528SOL     OW10353   2.428   1.292   4.248
 2528SOL    HW210354   2.451   1.307   4.340
 2528SOL    HW310355   2.509   1.263   4.207
 2528SOL    MW410356   2.442   1.290   4.255
 2529SOL     OW10357   2.446   1.567   4.169
 2529SOL    HW210358   2.444   1.472   4.182
 2529SOL    HW310359   2.440   1.578   4.074
 2529SOL    MW410360   2.445   1.556   4.158
 2530SOL     OW10361   2.233   1.677   4.281
 2530SOL    HW210362   2.244   1.702   4.373
 2530SOL    HW310363   2.320   1.650   4.253
 2530SOL    MW410364   2.246   1.677   4.290
 2531SOL     OW10365   2.258   1.910   4.116
 2531SOL    HW210366   2.332   1.961   4.149
 2531SOL    HW310367   2.253   1.835   4.176
 2531SOL    MW410368   2.267   1.907   4.128
 2532SOL     OW10369   2.445   2.076   4.251
 2532SOL    HW210370   2.455   2.065   4.345
 2532SOL    HW310371   2.530   2.053   4.215
 2532SOL    MW410372   2.457   2.072   4.258
 2533SOL     OW10373   2.441   2.335   4.164
 2533SOL    HW210374   2.430   2.242   4.186
 2533SOL    HW310375   2.449   2.336   4.068
 2533SOL    MW410376   2.441   2.323   4.154
 2534SOL     OW10377   2.222   2.486   4.250
 2534SOL    HW210378   2.298   2.430   4.233
 2534SOL    HW310379   2.149   2.441   4.208
 2534SOL    MW410380   2.222   2.473   4.242
 2535SOL     OW10381   2.233   2.741   4.152
 2535SOL    HW210382   2.225   2.649   4.177
 2535SOL    HW310383   2.162   2.785   4.198
 2535SOL    MW410384   2.223   2.734   4.161
 2536SOL     OW10385   2.488   2.845   4.213
 2536SOL    HW210386   2.487   2.858   4.308
 2536SOL    HW310387   2.400   2.816   4.191
 2536SOL    MW410388   2.476   2.843   4.222
 2537SOL     OW10389   2.537   3.092   4.108
 2537SOL    HW210390   2.452   3.125   4.138
 2537SOL    HW310391   2.539   3.001   4.136
 2537SOL    MW410392   2.526   3.085   4.116
 2538SOL     OW10393   2.286   3.184   4.168
 2538SOL    HW210394   2.285   3.268   4.123
 2538SOL    HW310395   2.208   3.138   4.137
 2538SOL    MW410396   2.276   3.189   4.158
 2539SOL     OW10397   2.307   3.471   4.073
 2539SOL    HW210398   2.383   3.515   4.112
 2539SOL    HW310399   2.233   3.526   4.096
 2539SOL    MW410400   2.308   3.484   4.081
 2540SOL     OW10401   2.507   3.600   4.215
 2540SOL    HW210402   2.482   3.593   4.307
 2540SOL    HW310403   2.500   3.693   4.195
 2540SOL    MW410404   2.503   3.611   4.225
 2541SOL     OW10405   2.503   3.866   4.132
 2541SOL    HW210406   2.570   3.924   4.167
 2541SOL    HW310407   2.496   3.890   4.040
 2541SOL    MW410408   2.511   3.877   4.125
 2542SOL     OW10409   2.341   4.032   4.284
 2542SOL    HW210410   2.406   3.982   4.235
 2542SOL    HW310411   2.262   3.978   4.281
 2542SOL    MW410412   2.339   4.018   4.278
 2543SOL     OW10413   2.271   4.256   4.143
 2543SOL    HW210414   2.303   4.182   4.193
 2543SOL    HW310415   2.178   4.262   4.165
 2543SOL    MW410416   2.263   4.247   4.152
 2544SOL     OW10417   2.450   4.429   4.272
 2544SOL    HW210418   2.538   4.399   4.249
 2544SOL    HW310419   2.392   4.368   4.226
 2544SOL    MW410420   2.454   4.417   4.263
 2545SOL     OW10421   2.914   0.038   4.144
 2545SOL    HW210422   2.983   0.090   4.183
 2545SOL    HW310423   2.937  -0.053   4.166
 2545SOL    MW410424   2.926   0.033   4.152
 2546SOL     OW10425   2.667   0.172   4.222
 2546SOL    HW210426   2.672   0.263   4.192
 2546SOL    HW310427   2.754   0.135   4.205
 2546SOL    MW410428   2.679   0.179   4.216
 2547SOL     OW10429   2.718   0.416   4.094
 2547SOL    HW210430   2.648   0.459   4.143
 2547SOL    HW310431   2.691   0.422   4.002
 2547SOL    MW410432   2.705   0.423   4.088
 2548SOL     OW10433   2.955   0.528   4.201
 2548SOL    HW210434   2.957   0.621   4.176
 2548SOL    HW310435   2.884   0.491   4.149
 2548SOL    MW410436   2.946   0.536   4.191
 2549SOL     OW10437   2.936   0.789   4.146
 2549SOL    HW210438   3.025   0.821   4.161
 2549SOL    HW310439   2.928   0.783   4.051
 2549SOL    MW410440   2.947   0.793   4.136
 2550SOL     OW10441   2.713   0.954   4.231
 2550SOL    HW210442   2.795   0.907   4.219
 2550SOL    HW310443   2.645   0.894   4.201
 2550SOL    MW410444   2.715   0.940   4.226
 2551SOL     OW10445   2.670   1.214   4.152
 2551SOL    HW210446   2.653   1.125   4.180
 2551SOL    HW310447   2.681   1.207   4.057
 2551SOL    MW410448   2.670   1.201   4.143
 2552SOL     OW10449   2.931   1.328   4.196
 2552SOL    HW210450   2.994   1.260   4.176
 2552SOL    HW310451   2.846   1.286   4.185
 2552SOL    MW410452   2.928   1.314   4.192
 2553SOL     OW10453   2.932   1.596   4.138
 2553SOL    HW210454   3.012   1.642   4.162
 2553SOL    HW310455   2.949   1.505   4.161
 2553SOL    MW410456   2.945   1.590   4.144
 2554SOL     OW10457   2.690   1.695   4.227
 2554SOL    HW210458   2.758   1.633   4.200
 2554SOL    HW310459   2.608   1.646   4.219
 2554SOL    MW410460   2.688   1.680   4.223
 2555SOL     OW10461   2.693   1.968   4.131
 2555SOL    HW210462   2.684   1.884   4.176
 2555SOL    HW310463   2.691   1.946   4.038
 2555SOL    MW410464   2.691   1.954   4.125
 2556SOL     OW10465   2.928   2.076   4.249
 2556SOL    HW210466   2.944   2.158   4.202
 2556SOL    HW310467   2.852   2.038   4.204
 2556SOL    MW410468   2.920   2.082   4.237
 2557SOL     OW10469   2.945   2.318   4.134
 2557SOL    HW210470   2.996   2.383   4.182
 2557SOL    HW310471   2.854   2.342   4.150
 2557SOL    MW410472   2.939   2.330   4.143
 2558SOL     OW10473   2.697   2.445   4.201
 2558SOL    HW210474   2.724   2.455   4.293
 2558SOL    HW310475   2.609   2.408   4.206
 2558SOL    MW410476   2.689   2.441   4.214
 2559SOL     OW10477   2.693   2.703   4.088
 2559SOL    HW210478   2.699   2.619   4.134
 2559SOL    HW310479   2.623   2.750   4.134
 2559SOL    MW410480   2.685   2.698   4.100
 2560SOL     OW10481   2.876   2.847   4.231
 2560SOL    HW210482   2.863   2.825   4.323
 2560SOL    HW310483   2.809   2.796   4.184
 2560SOL    MW410484   2.865   2.837   4.237
 2561SOL     OW10485   2.936   3.107   4.148
 2561SOL    HW210486   2.904   3.018   4.165
 2561SOL    HW310487   2.944   3.112   4.053
 2561SOL    MW410488   2.933   3.096   4.137
 2562SOL     OW10489   2.726   3.211   4.296
 2562SOL    HW210490   2.807   3.179   4.255
 2562SOL    HW310491   2.657   3.186   4.235
 2562SOL    MW410492   2.728   3.203   4.282
 2563SOL     OW10493   2.766   3.470   4.147
 2563SOL    HW210494   2.767   3.394   4.205
 2563SOL    HW310495   2.684   3.516   4.168
 2563SOL    MW410496   2.755   3.466   4.157
 2564SOL     OW10497   2.939   3.666   4.235
 2564SOL    HW210498   2.921   3.675   4.329
 2564SOL    HW310499   2.880   3.596   4.206
 2564SOL    MW410500   2.929   3.658   4.244
 2565SOL     OW10501   2.949   3.917   4.114
 2565SOL    HW210502   3.029   3.946   4.157
 2565SOL    HW310503   2.938   3.827   4.143
 2565SOL    MW410504   2.958   3.909   4.124
 2566SOL     OW10505   2.728   4.027   4.233
 2566SOL    HW210506   2.735   4.123   4.238
 2566SOL    HW310507   2.814   3.998   4.203
 2566SOL    MW410508   2.740   4.036   4.230
 2567SOL     OW10509   2.696   4.298   4.196
 2567SOL    HW210510   2.787   4.324   4.208
 2567SOL    HW310511   2.689   4.277   4.103
 2567SOL    MW410512   2.707   4.299   4.185
 2568SOL     OW10513   2.957   4.431   4.249
 2568SOL    HW210514   2.950   4.436   4.344
 2568SOL    HW310515   3.030   4.372   4.233
 2568SOL    MW410516   2.966   4.424   4.259
 2569SOL     OW10517   3.387   0.032   4.212
 2569SOL    HW210518   3.471   0.061   4.246
 2569SOL    HW310519   3.393  -0.064   4.213
 2569SOL    MW410520   3.399   0.023   4.216
 2570SOL     OW10521   3.142   0.167   4.235
 2570SOL    HW210522   3.131   0.179   4.330
 2570SOL    HW310523   3.228   0.125   4.227
 2570SOL    MW410524   3.152   0.163   4.247
 2571SOL     OW10525   3.193   0.416   4.122
 2571SOL    HW210526   3.178   0.333   4.167
 2571SOL    HW310527   3.114   0.468   4.140
 2571SOL    MW410528   3.180   0.412   4.130
 2572SOL     OW10529   3.419   0.587   4.192
 2572SOL    HW210530   3.495   0.530   4.180
 2572SOL    HW310531   3.345   0.533   4.165
 2572SOL    MW410532   3.420   0.572   4.187
 2573SOL     OW10533   3.400   0.842   4.066
 2573SOL    HW210534   3.323   0.877   4.112
 2573SOL    HW310535   3.416   0.757   4.107
 2573SOL    MW410536   3.392   0.836   4.078
 2574SOL     OW10537   3.185   0.916   4.213
 2574SOL    HW210538   3.179   0.916   4.309
 2574SOL    HW310539   3.149   1.000   4.186
 2574SOL    MW410540   3.179   0.927   4.222
 2575SOL     OW10541   3.139   1.156   4.098
 2575SOL    HW210542   3.216   1.196   4.137
 2575SOL    HW310543   3.154   1.163   4.004
 2575SOL    MW410544   3.151   1.162   4.091
 2576SOL     OW10545   3.388   1.271   4.239
 2576SOL    HW210546   3.399   1.280   4.334
 2576SOL    HW310547   3.382   1.361   4.207
 2576SOL    MW410548   3.389   1.284   4.248
 2577SOL     OW10549   3.402   1.544   4.141
 2577SOL    HW210550   3.325   1.602   4.146
 2577SOL    HW310551   3.421   1.539   4.047
 2577SOL    MW410552   3.394   1.551   4.129
 2578SOL     OW10553   3.178   1.695   4.203
 2578SOL    HW210554   3.192   1.709   4.297
 2578SOL    HW310555   3.144   1.779   4.171
 2578SOL    MW410556   3.175   1.708   4.212
 2579SOL     OW10557   3.125   1.946   4.094
 2579SOL    HW210558   3.204   1.989   4.129
 2579SOL    HW310559   3.054   1.979   4.148
 2579SOL    MW410560   3.126   1.956   4.106
 2580SOL     OW10561   3.328   2.036   4.259
 2580SOL    HW210562   3.400   1.995   4.211
 2580SOL    HW310563   3.325   2.126   4.227
 2580SOL    MW410564   3.337   2.042   4.248
 2581SOL     OW10565   3.362   2.313   4.177
 2581SOL    HW210566   3.446   2.352   4.198
 2581SOL    HW310567   3.360   2.310   4.082
 2581SOL    MW410568   3.373   2.318   4.167
 2582SOL     OW10569   3.158   2.487   4.254
 2582SOL    HW210570   3.143   2.575   4.219
 2582SOL    HW310571   3.234   2.454   4.206
 2582SOL    MW410572   3.166   2.495   4.243
 2583SOL     OW10573   3.110   2.731   4.125
 2583SOL    HW210574   3.182   2.770   4.174
 2583SOL    HW310575   3.033   2.781   4.154
 2583SOL    MW410576   3.109   2.743   4.136
 2584SOL     OW10577   3.349   2.840   4.211
 2584SOL    HW210578   3.429   2.800   4.178
 2584SOL    HW310579   3.359   2.934   4.192
 2584SOL    MW410580   3.361   2.847   4.204
 2585SOL     OW10581   3.382   3.106   4.145
 2585SOL    HW210582   3.311   3.157   4.186
 2585SOL    HW310583   3.364   3.112   4.051
 2585SOL    MW410584   3.370   3.114   4.138
 2586SOL     OW10585   3.159   3.229   4.270
 2586SOL    HW210586   3.141   3.321   4.251
 2586SOL    HW310587   3.089   3.181   4.225
 2586SOL    MW410588   3.147   3.235   4.262
 2587SOL     OW10589   3.152   3.511   4.184
 2587SOL    HW210590   3.080   3.567   4.214
 2587SOL    HW310591   3.156   3.526   4.090
 2587SOL    MW410592   3.143   3.521   4.176
 2588SOL     OW10593   3.376   3.677   4.262
 2588SOL    HW210594   3.381   3.691   4.357
 2588SOL    HW310595   3.295   3.626   4.250
 2588SOL    MW410596   3.366   3.672   4.273
 2589SOL     OW10597   3.403   3.923   4.137
 2589SOL    HW210598   3.389   3.833   4.166
 2589SOL    HW310599   3.419   3.916   4.043
 2589SOL    MW410600   3.403   3.910   4.128
 2590SOL     OW10601   3.160   4.021   4.249
 2590SOL    HW210602   3.142   3.982   4.335
 2590SOL    HW310603   3.242   3.982   4.221
 2590SOL    MW410604   3.168   4.011   4.257
 2591SOL     OW10605   3.141   4.273   4.142
 2591SOL    HW210606   3.217   4.329   4.155
 2591SOL    HW310607   3.167   4.188   4.178
 2591SOL    MW410608   3.154   4.269   4.148
 2592SOL     OW10609   3.378   4.415   4.215
 2592SOL    HW210610   3.391   4.392   4.308
 2592SOL    HW310611   3.446   4.365   4.169
 2592SOL    MW410612   3.389   4.405   4.221
 2593SOL     OW10613   3.850   0.004   4.156
 2593SOL    HW210614   3.929   0.053   4.177
 2593SOL    HW310615   3.834   0.023   4.063
 2593SOL    MW410616   3.858   0.013   4.146
 2594SOL     OW10617   3.641   0.136   4.258
 2594SOL    HW210618   3.649   0.227   4.227
 2594SOL    HW310619   3.712   0.089   4.213
 2594SOL    MW410620   3.651   0.142   4.248
 2595SOL     OW10621   3.625   0.415   4.155
 2595SOL    HW210622   3.704   0.455   4.191
 2595SOL    HW310623   3.629   0.434   4.061
 2595SOL    MW410624   3.636   0.423   4.147
 2596SOL     OW10625   3.855   0.488   4.270
 2596SOL    HW210626   3.851   0.494   4.365
 2596SOL    HW310627   3.835   0.576   4.239
 2596SOL    MW410628   3.852   0.500   4.279
 2597SOL     OW10629   3.796   0.725   4.142
 2597SOL    HW210630   3.730   0.791   4.165
 2597SOL    HW310631   3.799   0.726   4.046
 2597SOL    MW410632   3.788   0.734   4.132
 2598SOL     OW10633   3.624   0.940   4.216
 2598SOL    HW210634   3.625   1.031   4.188
 2598SOL    HW310635   3.547   0.902   4.174
 2598SOL    MW410636   3.614   0.947   4.207
 2599SOL     OW10637   3.648   1.210   4.163
 2599SOL    HW210638   3.559   1.232   4.191
 2599SOL    HW310639   3.644   1.212   4.068
 2599SOL    MW410640   3.636   1.213   4.154
 2600SOL     OW10641   3.876   1.346   4.239
 2600SOL    HW210642   3.789   1.315   4.214
 2600SOL    HW310643   3.888   1.426   4.189
 2600SOL    MW410644   3.866   1.352   4.229
 2601SOL     OW10645   3.892   1.587   4.106
 2601SOL    HW210646   3.961   1.640   4.146
 2601SOL    HW310647   3.812   1.614   4.151
 2601SOL    MW410648   3.890   1.597   4.118
 2602SOL     OW10649   3.631   1.665   4.228
 2602SOL    HW210650   3.552   1.620   4.198
 2602SOL    HW310651   3.637   1.644   4.321
 2602SOL    MW410652   3.622   1.656   4.236
 2603SOL     OW10653   3.564   1.932   4.163
 2603SOL    HW210654   3.572   1.840   4.189
 2603SOL    HW310655   3.591   1.934   4.072
 2603SOL    MW410656   3.569   1.920   4.155
 2604SOL     OW10657   3.684   2.106   4.323
 2604SOL    HW210658   3.757   2.059   4.363
 2604SOL    HW310659   3.647   2.044   4.260
 2604SOL    MW410660   3.689   2.092   4.320
 2605SOL     OW10661   3.802   2.325   4.176
 2605SOL    HW210662   3.779   2.239   4.212
 2605SOL    HW310663   3.805   2.311   4.081
 2605SOL    MW410664   3.799   2.312   4.168
 2606SOL     OW10665   3.569   2.474   4.216
 2606SOL    HW210666   3.571   2.508   4.305
 2606SOL    HW310667   3.659   2.443   4.200
 2606SOL    MW410668   3.581   2.474   4.225
 2607SOL     OW10669   3.582   2.731   4.122
 2607SOL    HW210670   3.568   2.637   4.128
 2607SOL    HW310671   3.587   2.750   4.029
 2607SOL    MW410672   3.581   2.721   4.111
 2608SOL     OW10673   3.814   2.845   4.236
 2608SOL    HW210674   3.799   2.891   4.318
 2608SOL    HW310675   3.726   2.823   4.204
 2608SOL    MW410676   3.801   2.848   4.243
 2609SOL     OW10677   3.811   3.112   4.154
 2609SOL    HW210678   3.831   3.021   4.178
 2609SOL    HW310679   3.812   3.112   4.059
 2609SOL    MW410680   3.814   3.100   4.145
 2610SOL     OW10681   3.586   3.257   4.260
 2610SOL    HW210682   3.660   3.206   4.227
 2610SOL    HW310683   3.509   3.214   4.223
 2610SOL    MW410684   3.586   3.245   4.251
 2611SOL     OW10685   3.596   3.525   4.156
 2611SOL    HW210686   3.593   3.438   4.195
 2611SOL    HW310687   3.535   3.578   4.208
 2611SOL    MW410688   3.588   3.521   4.168
 2612SOL     OW10689   3.824   3.645   4.257
 2612SOL    HW210690   3.896   3.588   4.232
 2612SOL    HW310691   3.750   3.614   4.206
 2612SOL    MW410692   3.824   3.633   4.247
 2613SOL     OW10693   3.866   3.901   4.157
 2613SOL    HW210694   3.786   3.947   4.181
 2613SOL    HW310695   3.849   3.809   4.179
 2613SOL    MW410696   3.853   3.895   4.163
 2614SOL     OW10697   3.648   4.030   4.243
 2614SOL    HW210698   3.618   4.040   4.333
 2614SOL    HW310699   3.568   4.007   4.194
 2614SOL    MW410700   3.633   4.028   4.248
 2615SOL     OW10701   3.608   4.285   4.142
 2615SOL    HW210702   3.672   4.341   4.187
 2615SOL    HW310703   3.631   4.196   4.169
 2615SOL    MW410704   3.619   4.281   4.151
 2616SOL     OW10705   3.848   4.417   4.252
 2616SOL    HW210706   3.923   4.361   4.228
 2616SOL    HW310707   3.868   4.502   4.213
 2616SOL    MW410708   3.861   4.420   4.244
 2617SOL     OW10709   4.317   0.015   4.172
 2617SOL    HW210710   4.330  -0.078   4.193
 2617SOL    HW310711   4.390   0.059   4.216
 2617SOL    MW410712   4.329   0.009   4.181
 2618SOL     OW10713   4.090   0.109   4.285
 2618SOL    HW210714   4.097   0.199   4.256
 2618SOL    HW310715   4.161   0.063   4.240
 2618SOL    MW410716   4.100   0.115   4.276
 2619SOL     OW10717   4.085   0.375   4.176
 2619SOL    HW210718   4.150   0.431   4.219
 2619SOL    HW310719   4.001   0.412   4.202
 2619SOL    MW410720   4.083   0.388   4.185
 2620SOL     OW10721   4.286   0.535   4.298
 2620SOL    HW210722   4.297   0.619   4.254
 2620SOL    HW310723   4.362   0.483   4.271
 2620SOL    MW410724   4.298   0.539   4.289
 2621SOL     OW10725   4.290   0.788   4.168
 2621SOL    HW210726   4.200   0.801   4.198
 2621SOL    HW310727   4.281   0.761   4.077
 2621SOL    MW410728   4.277   0.786   4.160
 2622SOL     OW10729   4.022   0.860   4.226
 2622SOL    HW210730   4.004   0.950   4.198
 2622SOL    HW310731   3.950   0.809   4.189
 2622SOL    MW410732   4.010   0.865   4.217
 2623SOL     OW10733   4.014   1.126   4.155
 2623SOL    HW210734   4.094   1.174   4.176
 2623SOL    HW310735   3.943   1.182   4.187
 2623SOL    MW410736   4.015   1.140   4.162
 2624SOL     OW10737   4.283   1.261   4.192
 2624SOL    HW210738   4.269   1.249   4.286
 2624SOL    HW310739   4.366   1.216   4.175
 2624SOL    MW410740   4.292   1.254   4.202
 2625SOL     OW10741   4.285   1.536   4.131
 2625SOL    HW210742   4.282   1.445   4.158
 2625SOL    HW310743   4.266   1.534   4.038
 2625SOL    MW410744   4.282   1.524   4.123
 2626SOL     OW10745   4.112   1.726   4.227
 2626SOL    HW210746   4.126   1.718   4.321
 2626SOL    HW310747   4.176   1.667   4.187
 2626SOL    MW410748   4.122   1.717   4.234
 2627SOL     OW10749   4.024   1.974   4.141
 2627SOL    HW210750   4.052   1.883   4.152
 2627SOL    HW310751   3.973   1.993   4.220
 2627SOL    MW410752   4.021   1.965   4.153
 2628SOL     OW10753   4.465   1.954   4.106
 2628SOL    HW210754   4.551   1.987   4.134
 2628SOL    HW310755   4.402   2.011   4.149
 2628SOL    MW410756   4.468   1.966   4.115
 2629SOL     OW10757   4.238   2.353   4.130
 2629SOL    HW210758   4.160   2.391   4.170
 2629SOL    HW310759   4.241   2.263   4.162
 2629SOL    MW410760   4.228   2.346   4.139
 2630SOL     OW10761   4.023   2.449   4.285
 2630SOL    HW210762   4.038   2.399   4.365
 2630SOL    HW310763   3.944   2.409   4.247
 2630SOL    MW410764   4.014   2.437   4.290
 2631SOL     OW10765   4.061   2.723   4.177
 2631SOL    HW210766   4.050   2.638   4.220
 2631SOL    HW310767   3.979   2.770   4.195
 2631SOL    MW410768   4.049   2.718   4.185
 2632SOL     OW10769   4.277   2.856   4.251
 2632SOL    HW210770   4.197   2.816   4.218
 2632SOL    HW310771   4.347   2.802   4.215
 2632SOL    MW410772   4.276   2.844   4.242
 2633SOL     OW10773   4.246   3.125   4.164
 2633SOL    HW210774   4.262   3.036   4.195
 2633SOL    HW310775   4.254   3.119   4.068
 2633SOL    MW410776   4.249   3.112   4.155
 2634SOL     OW10777   4.016   3.233   4.271
 2634SOL    HW210778   4.092   3.196   4.226
 2634SOL    HW310779   3.940   3.191   4.230
 2634SOL    MW410780   4.016   3.222   4.260
 2635SOL     OW10781   4.063   3.520   4.169
 2635SOL    HW210782   4.043   3.435   4.209
 2635SOL    HW310783   4.057   3.504   4.075
 2635SOL    MW410784   4.060   3.506   4.162
 2636SOL     OW10785   4.300   3.614   4.284
 2636SOL    HW210786   4.290   3.707   4.264
 2636SOL    HW310787   4.224   3.572   4.244
 2636SOL    MW410788   4.289   3.620   4.276
 2637SOL     OW10789   4.312   3.887   4.197
 2637SOL    HW210790   4.242   3.943   4.230
 2637SOL    HW310791   4.299   3.884   4.103
 2637SOL    MW410792   4.301   3.894   4.189
 2638SOL     OW10793   4.097   4.041   4.259
 2638SOL    HW210794   4.089   4.042   4.354
 2638SOL    HW310795   4.027   3.983   4.229
 2638SOL    MW410796   4.087   4.033   4.268
 2639SOL     OW10797   4.077   4.296   4.132
 2639SOL    HW210798   4.156   4.334   4.171
 2639SOL    HW310799   4.078   4.204   4.161
 2639SOL    MW410800   4.088   4.289   4.141
 2640SOL     OW10801   4.232   4.627   4.655
 2640SOL    HW210802   4.283   4.702   4.625
 2640SOL    HW310803   4.141   4.654   4.643
 2640SOL    MW410804   4.226   4.640   4.649
 2641SOL     OW10805   0.077   0.207   4.531
 2641SOL    HW210806   0.095   0.295   4.564
 2641SOL    HW310807  -0.018   0.201   4.529
 2641SOL    MW410808   0.067   0.217   4.535
 2642SOL     OW10809   4.302   4.401   4.520
 2642SOL    HW210810   4.242   4.337   4.559
 2642SOL    HW310811   4.278   4.484   4.561
 2642SOL    MW410812   4.291   4.403   4.531
 2643SOL     OW10813   3.981   0.105   4.564
 2643SOL    HW210814   3.980   0.087   4.470
 2643SOL    HW310815   3.889   0.101   4.589
 2643SOL    MW410816   3.969   0.102   4.555
 2644SOL     OW10817   4.186   1.195   4.784
 2644SOL    HW210818   4.272   1.167   4.814
 2644SOL    HW310819   4.185   1.290   4.799
 2644SOL    MW410820   4.197   1.204   4.790
 2645SOL     OW10821   0.324   0.010   4.517
 2645SOL    HW210822   0.239   0.043   4.546
 2645SOL    HW310823   0.312  -0.084   4.511
 2645SOL    MW410824   0.311   0.002   4.520
 2646SOL     OW10825   0.644   0.821   4.616
 2646SOL    HW210826   0.652   0.727   4.597
 2646SOL    HW310827   0.551   0.840   4.601
 2646SOL    MW410828   0.633   0.811   4.612
 2647SOL     OW10829   4.361   0.853   4.586
 2647SOL    HW210830   4.345   0.758   4.589
 2647SOL    HW310831   4.412   0.866   4.507
 2647SOL    MW410832   4.365   0.842   4.576
 2648SOL     OW10833   0.457   1.394   4.522
 2648SOL    HW210834   0.417   1.309   4.540
 2648SOL    HW310835   0.418   1.453   4.588
 2648SOL    MW410836   0.447   1.391   4.533
 2649SOL     OW10837   0.656   2.032   4.565
 2649SOL    HW210838   0.724   1.969   4.590
 2649SOL    HW310839   0.574   1.987   4.582
 2649SOL    MW410840   0.654   2.018   4.571
 2650SOL     OW10841   4.259   1.242   4.466
 2650SOL    HW210842   4.230   1.152   4.482
 2650SOL    HW310843   4.352   1.242   4.490
 2650SOL    MW410844   4.267   1.230   4.471
 2651SOL     OW10845   0.187   1.943   4.497
 2651SOL    HW210846   0.118   1.880   4.517
 2651SOL    HW310847   0.154   2.026   4.531
 2651SOL    MW410848   0.174   1.946   4.504
 2652SOL     OW10849   0.539   1.626   4.384
 2652SOL    HW210850   0.501   1.544   4.417
 2652SOL    HW310851   0.595   1.599   4.312
 2652SOL    MW410852   0.541   1.612   4.379
 2653SOL     OW10853   0.069   2.187   4.612
 2653SOL    HW210854   0.103   2.174   4.701
 2653SOL    HW310855   0.098   2.275   4.588
 2653SOL    MW410856   0.077   2.197   4.621
 2654SOL     OW10857   4.132   2.318   4.765
 2654SOL    HW210858   4.154   2.410   4.779
 2654SOL    HW310859   4.199   2.286   4.705
 2654SOL    MW410860   4.143   2.326   4.759
 2655SOL     OW10861   0.484   2.702   4.528
 2655SOL    HW210862   0.447   2.731   4.445
 2655SOL    HW310863   0.492   2.607   4.518
 2655SOL    MW410864   0.480   2.693   4.516
 2656SOL     OW10865   0.390   2.925   4.667
 2656SOL    HW210866   0.435   2.850   4.629
 2656SOL    HW310867   0.299   2.914   4.640
 2656SOL    MW410868   0.384   2.914   4.658
 2657SOL     OW10869   4.279   2.459   4.472
 2657SOL    HW210870   4.348   2.514   4.510
 2657SOL    HW310871   4.198   2.491   4.512
 2657SOL    MW410872   4.277   2.470   4.482
 2658SOL     OW10873   4.339   3.351   4.658
 2658SOL    HW210874   4.401   3.286   4.626
 2658SOL    HW310875   4.254   3.322   4.623
 2658SOL    MW410876   4.336   3.338   4.649
 2659SOL     OW10877   0.069   3.179   4.522
 2659SOL    HW210878   0.040   3.154   4.434
 2659SOL    HW310879   0.130   3.252   4.508
 2659SOL    MW410880   0.073   3.185   4.509
 2660SOL     OW10881   4.335   3.850   4.608
 2660SOL    HW210882   4.251   3.877   4.571
 2660SOL    HW310883   4.339   3.755   4.593
 2660SOL    MW410884   4.324   3.841   4.601
 2661SOL     OW10885   4.302   0.194   4.522
 2661SOL    HW210886   4.255   0.244   4.589
 2661SOL    HW310887   4.237   0.177   4.454
 2661SOL    MW410888   4.287   0.199   4.521
 2662SOL     OW10889   3.850   0.506   4.557
 2662SOL    HW210890   3.759   0.475   4.564
 2662SOL    HW310891   3.844   0.601   4.573
 2662SOL    MW410892   3.837   0.515   4.560
 2663SOL     OW10893   4.021   3.553   4.779
 2663SOL    HW210894   4.109   3.590   4.791
 2663SOL    HW310895   3.997   3.520   4.865
 2663SOL    MW410896   4.029   3.554   4.792
 2664SOL     OW10897   3.863   4.252   4.628
 2664SOL    HW210898   3.801   4.322   4.608
 2664SOL    HW310899   3.809   4.181   4.664
 2664SOL    MW410900   3.848   4.252   4.630
 2665SOL     OW10901   0.543   0.021   4.671
 2665SOL    HW210902   0.466   0.016   4.615
 2665SOL    HW310903   0.537  -0.054   4.729
 2665SOL    MW410904   0.532   0.011   4.671
 2666SOL     OW10905   4.463   1.066   4.786
 2666SOL    HW210906   4.414   0.996   4.743
 2666SOL    HW310907   4.538   1.022   4.826
 2666SOL    MW410908   4.466   1.051   4.786
 2667SOL     OW10909   1.427   1.099   4.785
 2667SOL    HW210910   1.424   1.072   4.877
 2667SOL    HW310911   1.360   1.046   4.742
 2667SOL    MW410912   1.418   1.088   4.791
 2668SOL     OW10913   0.715   0.282   4.697
 2668SOL    HW210914   0.788   0.238   4.654
 2668SOL    HW310915   0.643   0.219   4.694
 2668SOL    MW410916   0.715   0.268   4.691
 2669SOL     OW10917   1.217   0.969   4.658
 2669SOL    HW210918   1.275   0.916   4.604
 2669SOL    HW310919   1.130   0.931   4.645
 2669SOL    MW410920   1.213   0.957   4.649
 2670SOL     OW10921   0.374   0.918   4.544
 2670SOL    HW210922   0.336   0.832   4.563
 2670SOL    HW310923   0.411   0.909   4.456
 2670SOL    MW410924   0.374   0.905   4.535
 2671SOL     OW10925   2.107   1.172   4.523
 2671SOL    HW210926   2.091   1.206   4.435
 2671SOL    HW310927   2.175   1.230   4.558
 2671SOL    MW410928   2.114   1.184   4.516
 2672SOL     OW10929   0.783   1.641   4.515
 2672SOL    HW210930   0.797   1.718   4.570
 2672SOL    HW310931   0.690   1.643   4.493
 2672SOL    MW410932   0.773   1.652   4.519
 2673SOL     OW10933   1.282   1.328   4.637
 2673SOL    HW210934   1.322   1.257   4.687
 2673SOL    HW310935   1.188   1.310   4.641
 2673SOL    MW410936   1.275   1.316   4.644
 2674SOL     OW10937   0.894   1.862   4.662
 2674SOL    HW210938   0.955   1.909   4.605
 2674SOL    HW310939   0.951   1.816   4.724
 2674SOL    MW410940   0.910   1.862   4.662
 2675SOL     OW10941   0.694   2.323   4.513
 2675SOL    HW210942   0.778   2.363   4.535
 2675SOL    HW310943   0.703   2.232   4.541
 2675SOL    MW410944   0.707   2.316   4.519
 2676SOL     OW10945   1.095   1.693   4.823
 2676SOL    HW210946   1.095   1.661   4.913
 2676SOL    HW310947   1.181   1.667   4.788
 2676SOL    MW410948   1.106   1.685   4.830
 2677SOL     OW10949   0.149   2.417   4.490
 2677SOL    HW210950   0.116   2.428   4.401
 2677SOL    HW310951   0.244   2.419   4.481
 2677SOL    MW410952   0.157   2.419   4.477
 2678SOL     OW10953   1.080   2.686   4.561
 2678SOL    HW210954   1.087   2.777   4.532
 2678SOL    HW310955   1.149   2.676   4.627
 2678SOL    MW410956   1.090   2.696   4.566
 2679SOL     OW10957   0.430   2.420   4.452
 2679SOL    HW210958   0.514   2.383   4.480
 2679SOL    HW310959   0.441   2.433   4.358
 2679SOL    MW410960   0.443   2.417   4.443
 2680SOL     OW10961   1.376   2.938   4.603
 2680SOL    HW210962   1.295   2.943   4.552
 2680SOL    HW310963   1.364   2.863   4.660
 2680SOL    MW410964   1.363   2.929   4.604
 2681SOL     OW10965   0.626   3.133   4.615
 2681SOL    HW210966   0.584   3.213   4.582
 2681SOL    HW310967   0.553   3.078   4.644
 2681SOL    MW410968   0.611   3.137   4.614
 2682SOL     OW10969   1.303   4.484   4.634
 2682SOL    HW210970   1.231   4.434   4.596
 2682SOL    HW310971   1.382   4.435   4.609
 2682SOL    MW410972   1.304   4.471   4.626
 2683SOL     OW10973   4.474   2.643   4.580
 2683SOL    HW210974   4.547   2.584   4.563
 2683SOL    HW310975   4.511   2.731   4.575
 2683SOL    MW410976   4.488   2.647   4.577
 2684SOL     OW10977   4.440   3.589   4.537
 2684SOL    HW210978   4.400   3.517   4.585
 2684SOL    HW310979   4.409   3.579   4.447
 2684SOL    MW410980   4.431   3.578   4.531
 2685SOL     OW10981   0.775   4.352   4.532
 2685SOL    HW210982   0.774   4.436   4.579
 2685SOL    HW310983   0.715   4.365   4.459
 2685SOL    MW410984   0.767   4.365   4.529
 2686SOL     OW10985   0.060   4.300   4.520
 2686SOL    HW210986   0.048   4.205   4.528
 2686SOL    HW310987  -0.029   4.335   4.526
 2686SOL    MW410988   0.046   4.292   4.522
 2687SOL     OW10989   0.067   4.013   4.534
 2687SOL    HW210990   0.135   3.946   4.543
 2687SOL    HW310991  -0.013   3.971   4.566
 2687SOL    MW410992   0.066   3.999   4.540
 2688SOL     OW10993   0.313   4.412   4.541
 2688SOL    HW210994   0.375   4.339   4.546
 2688SOL    HW310995   0.227   4.371   4.548
 2688SOL    MW410996   0.310   4.397   4.542
 2689SOL     OW10997   1.209   0.253   4.616
 2689SOL    HW210998   1.207   0.273   4.710
 2689SOL    HW310999   1.124   0.213   4.598
 2689SOL    MW411000   1.197   0.250   4.626
 2690SOL     OW11001   0.961   0.159   4.573
 2690SOL    HW211002   0.968   0.164   4.478
 2690SOL    HW311003   0.909   0.080   4.589
 2690SOL    MW411004   0.955   0.149   4.563
 2691SOL     OW11005   0.681   0.537   4.579
 2691SOL    HW211006   0.680   0.503   4.489
 2691SOL    HW311007   0.695   0.459   4.633
 2691SOL    MW411008   0.683   0.522   4.574
 2692SOL     OW11009   1.646   1.122   4.611
 2692SOL    HW211010   1.587   1.101   4.684
 2692SOL    HW311011   1.725   1.156   4.653
 2692SOL    MW411012   1.649   1.124   4.626
 2693SOL     OW11013   1.766   0.860   4.568
 2693SOL    HW211014   1.716   0.941   4.575
 2693SOL    HW311015   1.802   0.861   4.479
 2693SOL    MW411016   1.764   0.871   4.558
 2694SOL     OW11017   0.293   1.173   4.544
 2694SOL    HW211018   0.313   1.079   4.537
 2694SOL    HW311019   0.200   1.179   4.525
 2694SOL    MW411020   0.284   1.161   4.541
 2695SOL     OW11021   0.754   1.361   4.546
 2695SOL    HW211022   0.771   1.455   4.532
 2695SOL    HW311023   0.662   1.357   4.570
 2695SOL    MW411024   0.744   1.373   4.547
 2696SOL     OW11025   0.919   0.894   4.583
 2696SOL    HW211026   0.824   0.895   4.593
 2696SOL    HW311027   0.934   0.903   4.489
 2696SOL    MW411028   0.909   0.895   4.572
 2697SOL     OW11029   1.904   1.207   4.717
 2697SOL    HW211030   1.935   1.141   4.780
 2697SOL    HW311031   1.957   1.193   4.639
 2697SOL    MW411032   1.915   1.196   4.715
 2698SOL     OW11033   1.015   1.241   4.554
 2698SOL    HW211034   1.010   1.163   4.609
 2698SOL    HW311035   0.924   1.270   4.546
 2698SOL    MW411036   1.002   1.235   4.560
 2699SOL     OW11037   1.206   2.292   4.539
 2699SOL    HW211038   1.139   2.353   4.507
 2699SOL    HW311039   1.289   2.337   4.522
 2699SOL    MW411040   1.208   2.306   4.532
 2700SOL     OW11041   1.307   2.670   4.703
 2700SOL    HW211042   1.321   2.596   4.645
 2700SOL    HW311043   1.350   2.645   4.785
 2700SOL    MW411044   1.314   2.657   4.707
 2701SOL     OW11045   1.637   2.874   4.510
 2701SOL    HW211046   1.561   2.911   4.554
 2701SOL    HW311047   1.690   2.950   4.484
 2701SOL    MW411048   1.634   2.888   4.512
 2702SOL     OW11049   1.495   3.483   4.484
 2702SOL    HW211050   1.579   3.506   4.521
 2702SOL    HW311051   1.483   3.391   4.507
 2702SOL    MW411052   1.504   3.474   4.492
 2703SOL     OW11053   0.756   2.784   4.507
 2703SOL    HW211054   0.818   2.720   4.541
 2703SOL    HW311055   0.676   2.770   4.557
 2703SOL    MW411056   0.753   2.774   4.518
 2704SOL     OW11057   0.583   3.941   4.516
 2704SOL    HW211058   0.673   3.975   4.506
 2704SOL    HW311059   0.543   3.955   4.430
 2704SOL    MW411060   0.590   3.948   4.503
 2705SOL     OW11061   1.133   2.951   4.478
 2705SOL    HW211062   1.126   2.922   4.387
 2705SOL    HW311063   1.049   2.991   4.498
 2705SOL    MW411064   1.121   2.952   4.469
 2706SOL     OW11065   0.859   3.049   4.493
 2706SOL    HW211066   0.785   3.105   4.517
 2706SOL    HW311067   0.821   2.961   4.486
 2706SOL    MW411068   0.844   3.044   4.495
 2707SOL     OW11069   1.746   3.584   4.568
 2707SOL    HW211070   1.758   3.678   4.582
 2707SOL    HW311071   1.833   3.551   4.544
 2707SOL    MW411072   1.759   3.592   4.567
 2708SOL     OW11073   0.497   3.353   4.506
 2708SOL    HW211074   0.539   3.432   4.539
 2708SOL    HW311075   0.404   3.372   4.509
 2708SOL    MW411076   0.491   3.366   4.511
 2709SOL     OW11077   0.509   4.213   4.583
 2709SOL    HW211078   0.597   4.249   4.590
 2709SOL    HW311079   0.521   4.119   4.585
 2709SOL    MW411080   0.522   4.206   4.584
 2710SOL     OW11081   0.841   4.082   4.529
 2710SOL    HW211082   0.834   4.178   4.531
 2710SOL    HW311083   0.866   4.062   4.439
 2710SOL    MW411084   0.844   4.092   4.517
 2711SOL     OW11085   0.773   4.622   4.537
 2711SOL    HW211086   0.694   4.654   4.580
 2711SOL    HW311087   0.758   4.636   4.444
 2711SOL    MW411088   0.761   4.628   4.530
 2712SOL     OW11089   1.590   4.163   4.878
 2712SOL    HW211090   1.575   4.103   4.951
 2712SOL    HW311091   1.514   4.221   4.879
 2712SOL    MW411092   1.578   4.163   4.887
 2713SOL     OW11093   1.554   4.390   4.549
 2713SOL    HW211094   1.638   4.431   4.566
 2713SOL    HW311095   1.542   4.398   4.454
 2713SOL    MW411096   1.563   4.396   4.539
 2714SOL     OW11097   1.067   4.354   4.539
 2714SOL    HW211098   1.094   4.269   4.574
 2714SOL    HW311099   0.972   4.354   4.549
 2714SOL    MW411100   1.058   4.342   4.545
 2715SOL     OW11101   1.200   0.509   4.483
 2715SOL    HW211102   1.120   0.545   4.520
 2715SOL    HW311103   1.207   0.421   4.522
 2715SOL    MW411104   1.191   0.502   4.493
 2716SOL     OW11105   1.680   0.111   4.536
 2716SOL    HW211106   1.588   0.083   4.541
 2716SOL    HW311107   1.727   0.046   4.589
 2716SOL    MW411108   1.674   0.099   4.544
 2717SOL     OW11109   1.343   0.764   4.520
 2717SOL    HW211110   1.288   0.686   4.517
 2717SOL    HW311111   1.340   0.800   4.432
 2717SOL    MW411112   1.336   0.758   4.508
 2718SOL     OW11113   1.851   1.515   4.769
 2718SOL    HW211114   1.870   1.422   4.759
 2718SOL    HW311115   1.859   1.532   4.863
 2718SOL    MW411116   1.855   1.505   4.780
 2719SOL     OW11117   0.956   0.623   4.572
 2719SOL    HW211118   0.946   0.718   4.580
 2719SOL    HW311119   0.868   0.588   4.586
 2719SOL    MW411120   0.943   0.631   4.575
 2720SOL     OW11121   2.066   0.504   4.532
 2720SOL    HW211122   2.125   0.431   4.551
 2720SOL    HW311123   1.979   0.468   4.546
 2720SOL    MW411124   2.063   0.489   4.536
 2721SOL     OW11125   1.520   1.369   4.522
 2721SOL    HW211126   1.428   1.369   4.550
 2721SOL    HW311127   1.553   1.283   4.547
 2721SOL    MW411128   1.512   1.358   4.529
 2722SOL     OW11129   1.315   1.834   4.519
 2722SOL    HW211130   1.311   1.759   4.578
 2722SOL    HW311131   1.333   1.796   4.433
 2722SOL    MW411132   1.317   1.819   4.516
 2723SOL     OW11133   1.683   2.455   4.501
 2723SOL    HW211134   1.737   2.521   4.543
 2723SOL    HW311135   1.731   2.373   4.512
 2723SOL    MW411136   1.696   2.453   4.508
 2724SOL     OW11137   1.978   2.363   4.619
 2724SOL    HW211138   1.918   2.289   4.609
 2724SOL    HW311139   1.927   2.430   4.665
 2724SOL    MW411140   1.964   2.362   4.624
 2725SOL     OW11141   0.972   2.445   4.496
 2725SOL    HW211142   0.998   2.533   4.523
 2725SOL    HW311143   0.936   2.457   4.407
 2725SOL    MW411144   0.970   2.458   4.487
 2726SOL     OW11145   1.349   3.997   4.470
 2726SOL    HW211146   1.356   3.901   4.464
 2726SOL    HW311147   1.430   4.024   4.513
 2726SOL    MW411148   1.361   3.988   4.475
 2727SOL     OW11149   1.403   2.475   4.517
 2727SOL    HW211150   1.363   2.471   4.430
 2727SOL    HW311151   1.494   2.451   4.503
 2727SOL    MW411152   1.410   2.471   4.504
 2728SOL     OW11153   1.834   2.686   4.558
 2728SOL    HW211154   1.766   2.752   4.546
 2728SOL    HW311155   1.916   2.735   4.552
 2728SOL    MW411156   1.836   2.701   4.556
 2729SOL     OW11157   1.454   3.190   4.496
 2729SOL    HW211158   1.537   3.143   4.489
 2729SOL    HW311159   1.391   3.125   4.527
 2729SOL    MW411160   1.456   3.175   4.499
 2730SOL     OW11161   1.357   3.729   4.469
 2730SOL    HW211162   1.412   3.660   4.505
 2730SOL    HW311163   1.295   3.683   4.412
 2730SOL    MW411164   1.356   3.714   4.466
 2731SOL     OW11165   0.622   3.623   4.535
 2731SOL    HW211166   0.571   3.704   4.535
 2731SOL    HW311167   0.687   3.635   4.605
 2731SOL    MW411168   0.624   3.635   4.545
 2732SOL     OW11169   2.063   3.527   4.464
 2732SOL    HW211170   2.076   3.557   4.374
 2732SOL    HW311171   2.079   3.433   4.460
 2732SOL    MW411172   2.067   3.518   4.451
 2733SOL     OW11173   1.751   3.118   4.472
 2733SOL    HW211174   1.828   3.136   4.526
 2733SOL    HW311175   1.765   3.171   4.393
 2733SOL    MW411176   1.763   3.127   4.468
 2734SOL     OW11177   2.247   3.616   4.682
 2734SOL    HW211178   2.218   3.707   4.689
 2734SOL    HW311179   2.199   3.581   4.608
 2734SOL    MW411180   2.237   3.623   4.673
 2735SOL     OW11181   1.149   4.111   4.627
 2735SOL    HW211182   1.076   4.054   4.602
 2735SOL    HW311183   1.227   4.067   4.592
 2735SOL    MW411184   1.150   4.097   4.620
 2736SOL     OW11185   1.799   4.367   4.853
 2736SOL    HW211186   1.883   4.322   4.861
 2736SOL    HW311187   1.737   4.297   4.831
 2736SOL    MW411188   1.802   4.352   4.851
 2737SOL     OW11189   2.267   0.370   4.658
 2737SOL    HW211190   2.322   0.444   4.634
 2737SOL    HW311191   2.266   0.371   4.754
 2737SOL    MW411192   2.274   0.380   4.667
 2738SOL     OW11193   1.399   0.065   4.538
 2738SOL    HW211194   1.360   0.141   4.581
 2738SOL    HW311195   1.359  -0.011   4.582
 2738SOL    MW411196   1.388   0.065   4.549
 2739SOL     OW11197   1.803   0.406   4.559
 2739SOL    HW211198   1.763   0.320   4.556
 2739SOL    HW311199   1.729   0.467   4.560
 2739SOL    MW411200   1.788   0.403   4.559
 2740SOL     OW11201   2.337   0.127   4.527
 2740SOL    HW211202   2.307   0.140   4.437
 2740SOL    HW311203   2.289   0.192   4.578
 2740SOL    MW411204   2.326   0.137   4.522
 2741SOL     OW11205   2.031   0.779   4.662
 2741SOL    HW211206   2.046   0.685   4.654
 2741SOL    HW311207   1.942   0.792   4.629
 2741SOL    MW411208   2.021   0.769   4.657
 2742SOL     OW11209   1.596   0.613   4.548
 2742SOL    HW211210   1.646   0.688   4.579
 2742SOL    HW311211   1.506   0.645   4.540
 2742SOL    MW411212   1.591   0.627   4.551
 2743SOL     OW11213   2.129   1.530   4.664
 2743SOL    HW211214   2.182   1.468   4.714
 2743SOL    HW311215   2.042   1.526   4.705
 2743SOL    MW411216   2.124   1.521   4.676
 2744SOL     OW11217   1.093   2.016   4.498
 2744SOL    HW211218   1.172   1.966   4.520
 2744SOL    HW311219   1.103   2.098   4.546
 2744SOL    MW411220   1.105   2.020   4.507
 2745SOL     OW11221   1.607   1.598   4.660
 2745SOL    HW211222   1.576   1.518   4.617
 2745SOL    HW311223   1.692   1.574   4.696
 2745SOL    MW411224   1.614   1.584   4.659
 2746SOL     OW11225   1.574   1.956   4.449
 2746SOL    HW211226   1.486   1.928   4.474
 2746SOL    HW311227   1.631   1.884   4.476
 2746SOL    MW411228   1.570   1.943   4.456
 2747SOL     OW11229   1.781   1.782   4.530
 2747SOL    HW211230   1.725   1.725   4.583
 2747SOL    HW311231   1.795   1.733   4.449
 2747SOL    MW411232   1.775   1.768   4.526
 2748SOL     OW11233   1.983   1.993   4.505
 2748SOL    HW211234   1.927   1.916   4.499
 2748SOL    HW311235   2.010   2.010   4.414
 2748SOL    MW411236   1.980   1.985   4.492
 2749SOL     OW11237   1.778   2.177   4.530
 2749SOL    HW211238   1.706   2.121   4.504
 2749SOL    HW311239   1.857   2.128   4.505
 2749SOL    MW411240   1.779   2.163   4.523
 2750SOL     OW11241   2.219   2.454   4.526
 2750SOL    HW211242   2.139   2.412   4.558
 2750SOL    HW311243   2.208   2.456   4.431
 2750SOL    MW411244   2.207   2.449   4.518
 2751SOL     OW11245   2.271   2.712   4.624
 2751SOL    HW211246   2.336   2.686   4.689
 2751SOL    HW311247   2.234   2.629   4.592
 2751SOL    MW411248   2.274   2.698   4.628
 2752SOL     OW11249   1.576   4.112   4.589
 2752SOL    HW211250   1.564   4.200   4.553
 2752SOL    HW311251   1.592   4.127   4.683
 2752SOL    MW411252   1.577   4.126   4.597
 2753SOL     OW11253   2.156   3.269   4.415
 2753SOL    HW211254   2.183   3.262   4.323
 2753SOL    HW311255   2.229   3.233   4.465
 2753SOL    MW411256   2.169   3.263   4.409
 2754SOL     OW11257   1.994   3.173   4.608
 2754SOL    HW211258   2.011   3.226   4.686
 2754SOL    HW311259   2.049   3.212   4.540
 2754SOL    MW411260   2.003   3.185   4.609
 2755SOL     OW11261   2.479   3.694   4.516
 2755SOL    HW211262   2.402   3.689   4.572
 2755SOL    HW311263   2.509   3.785   4.524
 2755SOL    MW411264   2.473   3.706   4.524
 2756SOL     OW11265   1.954   4.057   4.597
 2756SOL    HW211266   1.884   3.991   4.602
 2756SOL    HW311267   1.937   4.102   4.514
 2756SOL    MW411268   1.942   4.054   4.587
 2757SOL     OW11269   2.206   3.914   4.642
 2757SOL    HW211270   2.127   3.957   4.609
 2757SOL    HW311271   2.278   3.953   4.593
 2757SOL    MW411272   2.205   3.925   4.631
 2758SOL     OW11273   1.743   3.870   4.547
 2758SOL    HW211274   1.671   3.930   4.566
 2758SOL    HW311275   1.751   3.870   4.452
 2758SOL    MW411276   1.735   3.878   4.537
 2759SOL     OW11277   2.049   4.257   4.803
 2759SOL    HW211278   2.143   4.269   4.792
 2759SOL    HW311279   2.031   4.170   4.766
 2759SOL    MW411280   2.059   4.247   4.797
 2760SOL     OW11281   1.793   4.532   4.617
 2760SOL    HW211282   1.862   4.477   4.580
 2760SOL    HW311283   1.795   4.512   4.711
 2760SOL    MW411284   1.803   4.522   4.625
 2761SOL     OW11285   2.031   4.385   4.551
 2761SOL    HW211286   2.043   4.338   4.633
 2761SOL    HW311287   2.111   4.436   4.540
 2761SOL    MW411288   2.043   4.386   4.561
 2762SOL     OW11289   2.277   4.492   4.495
 2762SOL    HW211290   2.337   4.477   4.422
 2762SOL    HW311291   2.263   4.587   4.494
 2762SOL    MW411292   2.283   4.503   4.485
 2763SOL     OW11293   1.318   1.602   4.679
 2763SOL    HW211294   1.412   1.597   4.696
 2763SOL    HW311295   1.297   1.517   4.640
 2763SOL    MW411296   1.327   1.590   4.676
 2764SOL     OW11297   2.649   0.138   4.504
 2764SOL    HW211298   2.560   0.153   4.537
 2764SOL    HW311299   2.640   0.144   4.409
 2764SOL    MW411300   2.636   0.141   4.496
 2765SOL     OW11301   2.474   0.861   4.635
 2765SOL    HW211302   2.399   0.884   4.579
 2765SOL    HW311303   2.551   0.886   4.583
 2765SOL    MW411304   2.474   0.868   4.621
 2766SOL     OW11305   2.937   0.766   4.548
 2766SOL    HW211306   3.004   0.832   4.530
 2766SOL    HW311307   2.972   0.685   4.512
 2766SOL    MW411308   2.950   0.764   4.541
 2767SOL     OW11309   2.276   1.295   4.695
 2767SOL    HW211310   2.293   1.210   4.735
 2767SOL    HW311311   2.355   1.315   4.645
 2767SOL    MW411312   2.288   1.286   4.693
 2768SOL     OW11313   2.479   1.328   4.514
 2768SOL    HW211314   2.552   1.268   4.529
 2768SOL    HW311315   2.512   1.413   4.540
 2768SOL    MW411316   2.493   1.331   4.519
 2769SOL     OW11317   2.563   1.578   4.579
 2769SOL    HW211318   2.629   1.645   4.558
 2769SOL    HW311319   2.482   1.627   4.589
 2769SOL    MW411320   2.561   1.594   4.577
 2770SOL     OW11321   2.307   1.727   4.559
 2770SOL    HW211322   2.278   1.815   4.583
 2770SOL    HW311323   2.242   1.668   4.598
 2770SOL    MW411324   2.295   1.731   4.568
 2771SOL     OW11325   2.233   1.984   4.636
 2771SOL    HW211326   2.143   1.971   4.608
 2771SOL    HW311327   2.231   1.976   4.731
 2771SOL    MW411328   2.221   1.981   4.645
 2772SOL     OW11329   2.466   2.134   4.524
 2772SOL    HW211330   2.382   2.101   4.555
 2772SOL    HW311331   2.531   2.077   4.565
 2772SOL    MW411332   2.464   2.123   4.534
 2773SOL     OW11333   2.760   2.465   4.464
 2773SOL    HW211334   2.666   2.460   4.478
 2773SOL    HW311335   2.782   2.557   4.476
 2773SOL    MW411336   2.751   2.476   4.467
 2774SOL     OW11337   2.447   2.625   4.806
 2774SOL    HW211338   2.513   2.693   4.794
 2774SOL    HW311339   2.475   2.554   4.749
 2774SOL    MW411340   2.459   2.625   4.797
 2775SOL     OW11341   2.038   2.901   4.537
 2775SOL    HW211342   2.008   2.975   4.590
 2775SOL    HW311343   2.116   2.869   4.582
 2775SOL    MW411344   2.044   2.907   4.550
 2776SOL     OW11345   2.449   2.879   4.493
 2776SOL    HW211346   2.382   2.819   4.524
 2776SOL    HW311347   2.419   2.966   4.520
 2776SOL    MW411348   2.436   2.883   4.501
 2777SOL     OW11349   2.358   3.152   4.596
 2777SOL    HW211350   2.432   3.199   4.557
 2777SOL    HW311351   2.339   3.199   4.677
 2777SOL    MW411352   2.365   3.164   4.601
 2778SOL     OW11353   1.335   4.288   4.826
 2778SOL    HW211354   1.331   4.368   4.773
 2778SOL    HW311355   1.267   4.232   4.789
 2778SOL    MW411356   1.326   4.291   4.814
 2779SOL     OW11357   2.685   3.941   4.505
 2779SOL    HW211358   2.597   3.976   4.518
 2779SOL    HW311359   2.714   3.979   4.422
 2779SOL    MW411360   2.677   3.951   4.496
 2780SOL     OW11361   2.173   3.355   4.843
 2780SOL    HW211362   2.136   3.351   4.931
 2780SOL    HW311363   2.211   3.443   4.836
 2780SOL    MW411364   2.173   3.366   4.853
 2781SOL     OW11365   3.348   3.966   4.866
 2781SOL    HW211366   3.313   4.055   4.877
 2781SOL    HW311367   3.307   3.916   4.937
 2781SOL    MW411368   3.338   3.971   4.877
 2782SOL     OW11369   3.077   3.963   4.505
 2782SOL    HW211370   3.013   3.891   4.507
 2782SOL    HW311371   3.154   3.927   4.548
 2782SOL    MW411372   3.078   3.949   4.511
 2783SOL     OW11373   2.415   4.064   4.545
 2783SOL    HW211374   2.378   4.132   4.601
 2783SOL    HW311375   2.373   4.077   4.460
 2783SOL    MW411376   2.405   4.074   4.541
 2784SOL     OW11377   2.328   4.299   4.693
 2784SOL    HW211378   2.316   4.352   4.615
 2784SOL    HW311379   2.393   4.346   4.745
 2784SOL    MW411380   2.335   4.312   4.690
 2785SOL     OW11381   3.057   0.489   4.455
 2785SOL    HW211382   3.040   0.496   4.361
 2785SOL    HW311383   3.149   0.511   4.464
 2785SOL    MW411384   3.067   0.493   4.443
 2786SOL     OW11385   2.899   0.018   4.577
 2786SOL    HW211386   2.964   0.079   4.541
 2786SOL    HW311387   2.816   0.067   4.572
 2786SOL    MW411388   2.896   0.033   4.571
 2787SOL     OW11389   3.058   0.216   4.490
 2787SOL    HW211390   3.058   0.312   4.490
 2787SOL    HW311391   3.128   0.192   4.551
 2787SOL    MW411392   3.067   0.225   4.498
 2788SOL     OW11393   2.708   0.948   4.507
 2788SOL    HW211394   2.772   0.882   4.534
 2788SOL    HW311395   2.703   0.939   4.412
 2788SOL    MW411396   2.715   0.938   4.498
 2789SOL     OW11397   3.577   0.675   4.772
 2789SOL    HW211398   3.659   0.709   4.738
 2789SOL    HW311399   3.578   0.582   4.750
 2789SOL    MW411400   3.588   0.667   4.765
 2790SOL     OW11401   2.226   0.913   4.479
 2790SOL    HW211402   2.187   0.996   4.505
 2790SOL    HW311403   2.175   0.847   4.526
 2790SOL    MW411404   2.214   0.915   4.489
 2791SOL     OW11405   2.767   1.207   4.557
 2791SOL    HW211406   2.843   1.238   4.508
 2791SOL    HW311407   2.757   1.116   4.529
 2791SOL    MW411408   2.776   1.199   4.547
 2792SOL     OW11409   3.005   1.339   4.455
 2792SOL    HW211410   3.000   1.429   4.488
 2792SOL    HW311411   2.986   1.347   4.362
 2792SOL    MW411412   3.002   1.352   4.447
 2793SOL     OW11413   2.968   1.586   4.574
 2793SOL    HW211414   2.908   1.654   4.545
 2793SOL    HW311415   2.917   1.533   4.636
 2793SOL    MW411416   2.954   1.588   4.578
 2794SOL     OW11417   2.763   1.778   4.517
 2794SOL    HW211418   2.735   1.853   4.569
 2794SOL    HW311419   2.744   1.802   4.427
 2794SOL    MW411420   2.757   1.791   4.512
 2795SOL     OW11421   2.719   2.030   4.652
 2795SOL    HW211422   2.721   2.046   4.747
 2795SOL    HW311423   2.792   2.082   4.618
 2795SOL    MW411424   2.729   2.039   4.660
 2796SOL     OW11425   2.897   2.195   4.503
 2796SOL    HW211426   2.858   2.279   4.480
 2796SOL    HW311427   2.910   2.151   4.418
 2796SOL    MW411428   2.894   2.200   4.488
 2797SOL     OW11429   3.148   2.219   4.615
 2797SOL    HW211430   3.132   2.242   4.706
 2797SOL    HW311431   3.062   2.223   4.574
 2797SOL    MW411432   3.134   2.223   4.622
 2798SOL     OW11433   2.492   2.432   4.586
 2798SOL    HW211434   2.500   2.338   4.571
 2798SOL    HW311435   2.400   2.452   4.564
 2798SOL    MW411436   2.481   2.423   4.581
 2799SOL     OW11437   3.009   2.981   4.661
 2799SOL    HW211438   3.078   3.040   4.630
 2799SOL    HW311439   3.041   2.893   4.641
 2799SOL    MW411440   3.022   2.977   4.654
 2800SOL     OW11441   2.647   2.821   4.663
 2800SOL    HW211442   2.680   2.903   4.699
 2800SOL    HW311443   2.578   2.847   4.601
 2800SOL    MW411444   2.642   2.835   4.660
 2801SOL     OW11445   2.602   3.256   4.550
 2801SOL    HW211446   2.644   3.190   4.605
 2801SOL    HW311447   2.640   3.244   4.463
 2801SOL    MW411448   2.612   3.246   4.546
 2802SOL     OW11449   2.756   3.070   4.730
 2802SOL    HW211450   2.845   3.060   4.694
 2802SOL    HW311451   2.769   3.122   4.810
 2802SOL    MW411452   2.770   3.076   4.736
 2803SOL     OW11453   2.867   3.738   4.513
 2803SOL    HW211454   2.790   3.795   4.508
 2803SOL    HW311455   2.838   3.663   4.566
 2803SOL    MW411456   2.853   3.735   4.519
 2804SOL     OW11457   3.320   3.894   4.604
 2804SOL    HW211458   3.371   3.814   4.593
 2804SOL    HW311459   3.336   3.922   4.694
 2804SOL    MW411460   3.329   3.887   4.615
 2805SOL     OW11461   3.896   3.839   4.672
 2805SOL    HW211462   3.904   3.778   4.745
 2805SOL    HW311463   3.857   3.787   4.602
 2805SOL    MW411464   3.892   3.824   4.673
 2806SOL     OW11465   2.708   3.515   4.614
 2806SOL    HW211466   2.631   3.568   4.596
 2806SOL    HW311467   2.677   3.425   4.605
 2806SOL    MW411468   2.694   3.510   4.611
 2807SOL     OW11469   2.911   4.148   4.644
 2807SOL    HW211470   2.837   4.090   4.662
 2807SOL    HW311471   2.981   4.090   4.614
 2807SOL    MW411472   2.910   4.133   4.642
 2808SOL     OW11473   2.974   4.417   4.523
 2808SOL    HW211474   2.925   4.347   4.566
 2808SOL    HW311475   2.929   4.497   4.550
 2808SOL    MW411476   2.962   4.419   4.532
 2809SOL     OW11477   3.345   0.527   4.461
 2809SOL    HW211478   3.381   0.541   4.374
 2809SOL    HW311479   3.347   0.614   4.501
 2809SOL    MW411480   3.350   0.541   4.455
 2810SOL     OW11481   2.452   0.582   4.595
 2810SOL    HW211482   2.539   0.549   4.575
 2810SOL    HW311483   2.465   0.676   4.608
 2810SOL    MW411484   2.465   0.590   4.594
 2811SOL     OW11485   2.338   1.044   4.798
 2811SOL    HW211486   2.385   0.989   4.735
 2811SOL    HW311487   2.275   0.986   4.839
 2811SOL    MW411488   2.336   1.029   4.795
 2812SOL     OW11489   2.684   0.425   4.460
 2812SOL    HW211490   2.692   0.329   4.468
 2812SOL    HW311491   2.772   0.457   4.480
 2812SOL    MW411492   2.697   0.416   4.464
 2813SOL     OW11493   3.395   0.777   4.590
 2813SOL    HW211494   3.467   0.813   4.539
 2813SOL    HW311495   3.437   0.734   4.665
 2813SOL    MW411496   3.410   0.776   4.593
 2814SOL     OW11497   3.447   1.283   4.508
 2814SOL    HW211498   3.372   1.265   4.566
 2814SOL    HW311499   3.519   1.233   4.546
 2814SOL    MW411500   3.446   1.274   4.521
 2815SOL     OW11501   2.773   1.435   4.721
 2815SOL    HW211502   2.697   1.473   4.676
 2815SOL    HW311503   2.795   1.357   4.669
 2815SOL    MW411504   2.766   1.430   4.708
 2816SOL     OW11505   3.960   1.030   4.682
 2816SOL    HW211506   4.000   1.081   4.752
 2816SOL    HW311507   4.032   1.013   4.621
 2816SOL    MW411508   3.975   1.035   4.683
 2817SOL     OW11509   3.465   1.556   4.632
 2817SOL    HW211510   3.394   1.600   4.586
 2817SOL    HW311511   3.468   1.468   4.593
 2817SOL    MW411512   3.456   1.550   4.621
 2818SOL     OW11513   3.244   1.676   4.497
 2818SOL    HW211514   3.252   1.769   4.517
 2818SOL    HW311515   3.169   1.646   4.549
 2818SOL    MW411516   3.235   1.684   4.507
 2819SOL     OW11517   3.271   1.965   4.520
 2819SOL    HW211518   3.226   2.044   4.550
 2819SOL    HW311519   3.286   1.980   4.427
 2819SOL    MW411520   3.267   1.977   4.512
 2820SOL     OW11521   3.708   1.852   4.682
 2820SOL    HW211522   3.670   1.916   4.622
 2820SOL    HW311523   3.639   1.835   4.746
 2820SOL    MW411524   3.694   1.858   4.683
 2821SOL     OW11525   2.828   2.738   4.483
 2821SOL    HW211526   2.774   2.784   4.547
 2821SOL    HW311527   2.918   2.747   4.517
 2821SOL    MW411528   2.833   2.745   4.496
 2822SOL     OW11529   3.519   2.530   4.475
 2822SOL    HW211530   3.432   2.510   4.511
 2822SOL    HW311531   3.536   2.620   4.503
 2822SOL    MW411532   3.509   2.539   4.483
 2823SOL     OW11533   3.249   2.472   4.507
 2823SOL    HW211534   3.204   2.461   4.423
 2823SOL    HW311535   3.249   2.384   4.545
 2823SOL    MW411536   3.243   2.459   4.501
 2824SOL     OW11537   3.620   2.803   4.541
 2824SOL    HW211538   3.660   2.888   4.523
 2824SOL    HW311539   3.693   2.748   4.569
 2824SOL    MW411540   3.635   2.807   4.542
 2825SOL     OW11541   3.220   3.127   4.533
 2825SOL    HW211542   3.270   3.048   4.512
 2825SOL    HW311543   3.193   3.161   4.448
 2825SOL    MW411544   3.223   3.121   4.519
 2826SOL     OW11545   3.363   2.894   4.478
 2826SOL    HW211546   3.355   2.875   4.384
 2826SOL    HW311547   3.449   2.862   4.502
 2826SOL    MW411548   3.373   2.887   4.469
 2827SOL     OW11549   4.052   2.594   4.543
 2827SOL    HW211550   4.030   2.592   4.450
 2827SOL    HW311551   4.095   2.678   4.556
 2827SOL    MW411552   4.055   2.604   4.533
 2828SOL     OW11553   3.654   3.249   4.532
 2828SOL    HW211554   3.705   3.327   4.553
 2828SOL    HW311555   3.621   3.265   4.443
 2828SOL    MW411556   3.656   3.261   4.523
 2829SOL     OW11557   3.510   4.082   4.469
 2829SOL    HW211558   3.575   4.078   4.539
 2829SOL    HW311559   3.437   4.028   4.500
 2829SOL    MW411560   3.509   4.075   4.483
 2830SOL     OW11561   3.219   4.215   4.766
 2830SOL    HW211562   3.232   4.309   4.763
 2830SOL    HW311563   3.125   4.204   4.778
 2830SOL    MW411564   3.209   4.226   4.767
 2831SOL     OW11565   3.234   4.457   4.629
 2831SOL    HW211566   3.300   4.415   4.573
 2831SOL    HW311567   3.151   4.442   4.584
 2831SOL    MW411568   3.232   4.450   4.616
 2832SOL     OW11569   3.436   4.353   4.476
 2832SOL    HW211570   3.453   4.259   4.473
 2832SOL    HW311571   3.523   4.393   4.477
 2832SOL    MW411572   3.450   4.346   4.476
 2833SOL     OW11573   3.690   4.034   4.681
 2833SOL    HW211574   3.759   3.969   4.670
 2833SOL    HW311575   3.628   3.994   4.742
 2833SOL    MW411576   3.691   4.020   4.688
 2834SOL     OW11577   3.499   0.141   4.719
 2834SOL    HW211578   3.534   0.128   4.808
 2834SOL    HW311579   3.406   0.117   4.727
 2834SOL    MW411580   3.491   0.136   4.732
 2835SOL     OW11581   3.176   0.909   4.491
 2835SOL    HW211582   3.188   0.993   4.537
 2835SOL    HW311583   3.236   0.849   4.535
 2835SOL    MW411584   3.186   0.913   4.503
 2836SOL     OW11585   3.206   1.160   4.619
 2836SOL    HW211586   3.212   1.161   4.715
 2836SOL    HW311587   3.144   1.230   4.598
 2836SOL    MW411588   3.199   1.169   4.629
 2837SOL     OW11589   4.113   1.440   4.602
 2837SOL    HW211590   4.159   1.373   4.552
 2837SOL    HW311591   4.020   1.424   4.583
 2837SOL    MW411592   4.107   1.429   4.593
 2838SOL     OW11593   3.728   1.164   4.576
 2838SOL    HW211594   3.767   1.251   4.579
 2838SOL    HW311595   3.800   1.105   4.600
 2838SOL    MW411596   3.743   1.167   4.579
 2839SOL     OW11597   4.126   0.962   4.486
 2839SOL    HW211598   4.197   0.914   4.529
 2839SOL    HW311599   4.104   0.908   4.409
 2839SOL    MW411600   4.133   0.948   4.481
 2840SOL     OW11601   4.292   0.563   4.577
 2840SOL    HW211602   4.223   0.511   4.619
 2840SOL    HW311603   4.282   0.545   4.484
 2840SOL    MW411604   4.282   0.554   4.570
 2841SOL     OW11605   3.669   1.651   4.494
 2841SOL    HW211606   3.712   1.713   4.553
 2841SOL    HW311607   3.589   1.626   4.541
 2841SOL    MW411608   3.664   1.656   4.508
 2842SOL     OW11609   3.978   1.854   4.631
 2842SOL    HW211610   3.889   1.851   4.667
 2842SOL    HW311611   4.027   1.910   4.692
 2842SOL    MW411612   3.973   1.861   4.644
 2843SOL     OW11613   3.541   2.038   4.556
 2843SOL    HW211614   3.577   2.063   4.471
 2843SOL    HW311615   3.462   1.988   4.535
 2843SOL    MW411616   3.535   2.035   4.542
 2844SOL     OW11617   4.164   2.041   4.750
 2844SOL    HW211618   4.146   2.132   4.774
 2844SOL    HW311619   4.224   2.048   4.675
 2844SOL    MW411620   4.170   2.054   4.743
 2845SOL     OW11621   4.452   1.727   4.491
 2845SOL    HW211622   4.478   1.714   4.400
 2845SOL    HW311623   4.357   1.717   4.490
 2845SOL    MW411624   4.443   1.724   4.479
 2846SOL     OW11625   3.967   2.292   4.517
 2846SOL    HW211626   4.008   2.320   4.598
 2846SOL    HW311627   3.873   2.303   4.532
 2846SOL    MW411628   3.960   2.297   4.530
 2847SOL     OW11629   3.789   2.609   4.640
 2847SOL    HW211630   3.756   2.520   4.631
 2847SOL    HW311631   3.879   2.605   4.605
 2847SOL    MW411632   3.797   2.597   4.634
 2848SOL     OW11633   3.775   3.013   4.469
 2848SOL    HW211634   3.855   3.013   4.522
 2848SOL    HW311635   3.738   3.100   4.480
 2848SOL    MW411636   3.781   3.024   4.478
 2849SOL     OW11637   4.010   2.993   4.622
 2849SOL    HW211638   3.988   2.964   4.711
 2849SOL    HW311639   4.082   2.937   4.596
 2849SOL    MW411640   4.016   2.982   4.631
 2850SOL     OW11641   3.371   3.392   4.598
 2850SOL    HW211642   3.301   3.327   4.589
 2850SOL    HW311643   3.451   3.340   4.606
 2850SOL    MW411644   3.372   3.377   4.598
 2851SOL     OW11645   3.882   3.424   4.576
 2851SOL    HW211646   3.932   3.463   4.647
 2851SOL    HW311647   3.945   3.369   4.530
 2851SOL    MW411648   3.897   3.422   4.579
 2852SOL     OW11649   3.470   3.668   4.547
 2852SOL    HW211650   3.437   3.586   4.583
 2852SOL    HW311651   3.565   3.659   4.550
 2852SOL    MW411652   3.478   3.656   4.552
 2853SOL     OW11653   3.745   3.663   4.527
 2853SOL    HW211654   3.751   3.682   4.434
 2853SOL    HW311655   3.797   3.584   4.540
 2853SOL    MW411656   3.753   3.655   4.517
 2854SOL     OW11657   0.101   2.895   4.550
 2854SOL    HW211658   0.082   2.988   4.546
 2854SOL    HW311659   0.136   2.873   4.464
 2854SOL    MW411660   0.103   2.904   4.538
 2855SOL     OW11661   4.104   3.971   4.533
 2855SOL    HW211662   4.123   4.046   4.590
 2855SOL    HW311663   4.034   3.924   4.579
 2855SOL    MW411664   4.097   3.975   4.547
 2856SOL     OW11665   3.714   4.446   4.500
 2856SOL    HW211666   3.786   4.444   4.437
 2856SOL    HW311667   3.702   4.538   4.521
 2856SOL    MW411668   3.722   4.458   4.494
 2857SOL     OW11669   3.229   0.056   4.683
 2857SOL    HW211670   3.236  -0.035   4.655
 2857SOL    HW311671   3.155   0.058   4.743
 2857SOL    MW411672   3.220   0.044   4.687
 2858SOL     OW11673   3.608   0.928   4.488
 2858SOL    HW211674   3.644   1.013   4.513
 2858SOL    HW311675   3.623   0.923   4.393
 2858SOL    MW411676   3.615   0.939   4.479
 2859SOL     OW11677   3.801   0.784   4.612
 2859SOL    HW211678   3.871   0.846   4.631
 2859SOL    HW311679   3.731   0.836   4.572
 2859SOL    MW411680   3.801   0.799   4.609
 2860SOL     OW11681   0.099   0.496   4.585
 2860SOL    HW211682   0.006   0.517   4.592
 2860SOL    HW311683   0.118   0.501   4.491
 2860SOL    MW411684   0.089   0.500   4.573
 2861SOL     OW11685   0.325   0.652   4.616
 2861SOL    HW211686   0.394   0.613   4.670
 2861SOL    HW311687   0.254   0.588   4.618
 2861SOL    MW411688   0.325   0.638   4.624
 2862SOL     OW11689   4.092   0.360   4.622
 2862SOL    HW211690   4.053   0.276   4.597
 2862SOL    HW311691   4.022   0.424   4.609
 2862SOL    MW411692   4.078   0.357   4.617
 2863SOL     OW11693   3.847   1.409   4.534
 2863SOL    HW211694   3.850   1.397   4.439
 2863SOL    HW311695   3.790   1.485   4.547
 2863SOL    MW411696   3.840   1.417   4.523
 2864SOL     OW11697   0.027   1.239   4.534
 2864SOL    HW211698   0.029   1.334   4.546
 2864SOL    HW311699   0.011   1.205   4.622
 2864SOL    MW411700   0.025   1.247   4.547
 2865SOL     OW11701   0.336   1.598   4.699
 2865SOL    HW211702   0.319   1.617   4.791
 2865SOL    HW311703   0.387   1.673   4.667
 2865SOL    MW411704   0.341   1.610   4.707
 2866SOL     OW11705   4.176   1.687   4.507
 2866SOL    HW211706   4.156   1.598   4.538
 2866SOL    HW311707   4.114   1.743   4.553
 2866SOL    MW411708   4.166   1.682   4.517
 2867SOL     OW11709   3.123   2.751   4.525
 2867SOL    HW211710   3.202   2.804   4.519
 2867SOL    HW311711   3.155   2.661   4.539
 2867SOL    MW411712   3.138   2.746   4.526
 2868SOL     OW11713   4.254   2.097   4.237
 2868SOL    HW211714   4.168   2.061   4.219
 2868SOL    HW311715   4.267   2.083   4.331
 2868SOL    MW411716   4.245   2.090   4.247
 2869SOL     OW11717   4.296   2.201   4.541
 2869SOL    HW211718   4.377   2.199   4.592
 2869SOL    HW311719   4.295   2.288   4.500
 2869SOL    MW411720   4.307   2.212   4.542
 2870SOL     OW11721   3.939   2.024   4.413
 2870SOL    HW211722   3.958   1.976   4.493
 2870SOL    HW311723   3.957   2.116   4.435
 2870SOL    MW411724   3.944   2.030   4.426
 2871SOL     OW11725   3.691   2.322   4.560
 2871SOL    HW211726   3.628   2.377   4.513
 2871SOL    HW311727   3.642   2.242   4.580
 2871SOL    MW411728   3.676   2.319   4.556
 2872SOL     OW11729   4.320   2.544   4.797
 2872SOL    HW211730   4.380   2.576   4.730
 2872SOL    HW311731   4.376   2.528   4.874
 2872SOL    MW411732   4.336   2.546   4.799
 2873SOL     OW11733   4.231   2.847   4.521
 2873SOL    HW211734   4.313   2.840   4.570
 2873SOL    HW311735   4.258   2.855   4.430
 2873SOL    MW411736   4.245   2.847   4.516
 2874SOL     OW11737   4.093   3.250   4.540
 2874SOL    HW211738   4.080   3.244   4.445
 2874SOL    HW311739   4.043   3.176   4.575
 2874SOL    MW411740   4.085   3.239   4.532
 2875SOL     OW11741   0.211   3.439   4.471
 2875SOL    HW211742   0.217   3.489   4.390
 2875SOL    HW311743   0.128   3.466   4.510
 2875SOL    MW411744   0.201   3.449   4.466
 2876SOL     OW11745   4.127   4.223   4.653
 2876SOL    HW211746   4.151   4.240   4.744
 2876SOL    HW311747   4.036   4.254   4.645
 2876SOL    MW411748   4.118   4.230   4.664
 2877SOL     OW11749   3.680   0.064   4.531
 2877SOL    HW211750   3.608   0.099   4.584
 2877SOL    HW311751   3.667   0.104   4.445
 2877SOL    MW411752   3.669   0.074   4.527
 2878SOL     OW11753   4.288   3.601   4.855
 2878SOL    HW211754   4.330   3.686   4.864
 2878SOL    HW311755   4.361   3.538   4.857
 2878SOL    MW411756   4.303   3.604   4.857
 2879SOL     OW11757   3.555   0.422   4.639
 2879SOL    HW211758   3.478   0.437   4.584
 2879SOL    HW311759   3.546   0.332   4.669
 2879SOL    MW411760   3.544   0.412   4.636
 2880SOL     OW11761   4.322   4.416   4.238
 2880SOL    HW211762   4.395   4.363   4.207
 2880SOL    HW311763   4.323   4.406   4.333
 2880SOL    MW411764   4.332   4.408   4.246
   4.49070   4.66690  10.00000
