#include "amber_na_desres.ff/forcefield.itp"
#include "/home/chemistry/MD/DMSO_on_ice/dmso_atomtypes.itp"
#include "amber_na_desres.ff/tip4pd.itp"
#include "/home/chemistry/MD/DMSO_on_ice/dmso.itp"

[ system ]
Gromacs Runs On Most of All Computer Systems in water

[ molecules ]
DMSO               61
SOL              2880
