[ moleculetype ]
; name  nrexcl
DMSO	3

[ atoms ]
;   nr    type   resnr  residu  atom    cgnr    charge
    1     SD     1	DMSO	SD	1	 0.139
    2     CD     1	DMSO	CD1	1	 0.160
    3     OD     1	DMSO	OD	1	-0.459
    4     CD     1	DMSO	CD2	1	 0.160

[ bonds ]
; ai  aj  funct   b0      kb
1 2 1 0.180 300000
1 3 1 0.153 300000
1 4 1 0.180 300000
2 3 1 0.2677365318 300000
3 4 1 0.2677365318 300000
2 4 1 0.2704550881 300000