Gromacs Runs On Most of All Computer Systems in water
11524
    1DMSO    SD    1   4.012   2.259   4.454  0.1342 -0.2143 -0.3789
    1DMSO   CD1    2   3.854   2.173   4.448  0.0749 -0.4422 -0.1574
    1DMSO    OD    3   3.989   2.400   4.412 -0.5451  0.7981 -0.1818
    1DMSO   CD2    4   4.033   2.253   4.635  0.7813 -0.0929 -0.6181
    2SOL     OW    5   3.901   2.162   1.797 -0.1752 -0.2058 -0.1168
    2SOL    HW2    6   3.899   2.255   1.823  2.6288 -0.7394  2.2608
    2SOL    HW3    7   3.840   2.119   1.857  0.4021 -0.2674  0.4273
    2SOL    MW4    8   3.893   2.169   1.808  0.2709 -0.2843  0.2687
    3SOL     OW    9   3.522   0.510   0.606  0.3337  0.6600  0.3893
    3SOL    HW2   10   3.589   0.514   0.674  0.6055 -0.4030  0.1901
    3SOL    HW3   11   3.571   0.512   0.524  0.0578  0.9278  0.2289
    3SOL    MW4   12   3.537   0.511   0.604  0.3332  0.5551  0.3418
    4SOL     OW   13   0.698   0.439   1.278  0.4473  0.0922 -0.1282
    4SOL    HW2   14   0.622   0.426   1.335  0.1106 -0.2216 -0.6477
    4SOL    HW3   15   0.668   0.500   1.211  0.4231 -0.5943 -0.7573
    4SOL    MW4   16   0.684   0.445   1.277  0.3997 -0.0398 -0.2797
    5SOL     OW   17   2.472   1.616   1.462 -0.0239  0.0286 -0.1006
    5SOL    HW2   18   2.502   1.706   1.466  1.0867 -0.3619  0.5812
    5SOL    HW3   19   2.546   1.564   1.495 -0.9953 -1.0497  0.4387
    5SOL    MW4   20   2.485   1.621   1.467 -0.0055 -0.1652  0.0605
    6SOL     OW   21   3.165   2.684   1.750  0.1811  0.2123 -1.1095
    6SOL    HW2   22   3.243   2.716   1.794 -0.7299  1.3817 -0.3189
    6SOL    HW3   23   3.190   2.678   1.657  1.2560  0.3622 -0.8320
    6SOL    MW4   24   3.178   2.687   1.743  0.2027  0.3864 -0.9686
    7SOL     OW   25   0.998   4.027   1.302  0.2965 -0.1647  0.3153
    7SOL    HW2   26   1.044   4.109   1.282 -1.1583  0.2911 -1.2105
    7SOL    HW3   27   0.972   4.037   1.394 -0.4470  1.3879 -0.0438
    7SOL    MW4   28   1.001   4.039   1.312  0.0065  0.1003  0.0666
    8SOL     OW   29   0.767   1.248   1.458  0.6742  0.1235  0.1821
    8SOL    HW2   30   0.820   1.326   1.476 -0.8200  1.4584 -0.9599
    8SOL    HW3   31   0.678   1.275   1.480  0.2158 -1.4739  0.3145
    8SOL    MW4   32   0.762   1.262   1.463  0.4166  0.0889  0.0489
    9SOL     OW   33   4.312   4.470   2.048 -0.3133 -0.2906  0.2842
    9SOL    HW2   34   4.295   4.516   2.130  0.0803 -0.0457  0.2284
    9SOL    HW3   35   4.227   4.431   2.025 -0.6104  0.2647  0.4181
    9SOL    MW4   36   4.298   4.471   2.056 -0.3006 -0.1850  0.2945
   10SOL     OW   37   0.165   3.204   0.966  0.0215 -0.4298 -0.0713
   10SOL    HW2   38   0.073   3.226   0.978  0.3413  1.1465 -0.4379
   10SOL    HW3   39   0.166   3.109   0.955 -1.4839 -0.5360  0.6049
   10SOL    MW4   40   0.153   3.194   0.966 -0.1349 -0.2358 -0.0305
   11SOL     OW   41   2.161   1.151   1.335 -0.0552  0.1003 -0.8784
   11SOL    HW2   42   2.066   1.159   1.320 -0.3177  1.0685  1.0887
   11SOL    HW3   43   2.199   1.224   1.287 -0.4325  0.4200 -0.6930
   11SOL    MW4   44   2.153   1.162   1.327 -0.1396  0.2703 -0.5944
   12SOL     OW   45   2.707   1.459   1.544 -0.8294 -0.0768 -0.1014
   12SOL    HW2   46   2.738   1.432   1.630 -2.1740 -0.9945  0.1105
   12SOL    HW3   47   2.753   1.401   1.483 -0.2580  0.2300  0.0422
   12SOL    MW4   48   2.717   1.448   1.547 -0.9314 -0.1574 -0.0545
   13SOL     OW   49   0.250   0.858   1.490  0.2542  0.0195 -0.4678
   13SOL    HW2   50   0.337   0.819   1.486  0.1774 -0.3372  1.0771
   13SOL    HW3   51   0.265   0.951   1.474  0.7434 -0.2446 -1.5824
   13SOL    MW4   52   0.264   0.865   1.487  0.3086 -0.0624 -0.4110
   14SOL     OW   53   0.280   2.759   2.314  0.3366  0.4930 -0.6574
   14SOL    HW2   54   0.324   2.715   2.387  1.1557  1.3904 -0.5870
   14SOL    HW3   55   0.339   2.745   2.240  0.0020  0.4323 -0.9083
   14SOL    MW4   56   0.294   2.752   2.314  0.4005  0.6034 -0.6812
   15SOL     OW   57   0.844   0.392   0.840  0.2010  0.1805  0.1174
   15SOL    HW2   58   0.851   0.369   0.933 -0.1083  1.6826  0.5110
   15SOL    HW3   59   0.789   0.322   0.803 -1.2223  0.5567  1.4359
   15SOL    MW4   60   0.837   0.379   0.848 -0.0276  0.4283  0.3433
   16SOL     OW   61   2.191   3.110   1.942 -0.2169  0.0236 -0.1913
   16SOL    HW2   62   2.272   3.067   1.913 -0.0581  0.4525 -0.3828
   16SOL    HW3   63   2.214   3.150   2.026 -0.3906 -0.3455  0.0322
   16SOL    MW4   64   2.205   3.110   1.949 -0.2189  0.0315 -0.1871
   17SOL     OW   65   0.100   4.051   1.450  0.5021  0.2291 -0.2160
   17SOL    HW2   66   0.184   4.083   1.485  0.1490 -0.4798  1.3124
   17SOL    HW3   67   0.036   4.115   1.479  0.1229 -0.6599  0.9304
   17SOL    MW4   68   0.103   4.064   1.459  0.4055  0.0183  0.1369
   18SOL     OW   69   2.843   2.049   1.936  0.4109 -0.3115  0.5935
   18SOL    HW2   70   2.896   2.124   1.909  0.0114 -0.3027 -0.1613
   18SOL    HW3   71   2.899   1.973   1.919  0.8709 -0.1843  1.4935
   18SOL    MW4   72   2.857   2.049   1.930  0.4189 -0.2935  0.6127
   19SOL     OW   73   4.134   2.244   0.703 -0.1041 -0.6218 -0.1521
   19SOL    HW2   74   4.128   2.322   0.647  0.1662  0.3319  1.1088
   19SOL    HW3   75   4.046   2.207   0.702 -0.8559  1.0398  1.0864
   19SOL    MW4   76   4.122   2.250   0.695 -0.1676 -0.2768  0.1777
   20SOL     OW   77   2.867   2.525   0.935 -0.2518  0.3216 -0.0610
   20SOL    HW2   78   2.861   2.493   1.025 -1.0658  0.1815 -0.1615
   20SOL    HW3   79   2.820   2.460   0.883 -0.3859  0.7604 -0.4954
   20SOL    MW4   80   2.860   2.512   0.940 -0.3769  0.3610 -0.1316
   21SOL     OW   81   2.530   3.874   1.967 -0.1948  0.1600 -0.2135
   21SOL    HW2   82   2.570   3.896   2.052 -2.1753 -0.7743  0.9803
   21SOL    HW3   83   2.492   3.956   1.936  0.8891  0.5978 -0.4151
   21SOL    MW4   84   2.531   3.887   1.974 -0.3131  0.0945 -0.0826
   22SOL     OW   85   1.891   1.057   1.276  0.1176  0.1846  0.3348
   22SOL    HW2   86   1.816   0.998   1.284 -0.5924  1.0232 -0.0459
   22SOL    HW3   87   1.900   1.070   1.181  2.1187 -1.6517  0.2454
   22SOL    MW4   88   1.882   1.051   1.264  0.2879  0.0530  0.2728
   23SOL     OW   89   3.146   2.153   1.308  0.3139 -0.1520  0.4412
   23SOL    HW2   90   3.201   2.074   1.312  0.0577 -0.3566 -0.0673
   23SOL    HW3   91   3.116   2.156   1.217 -0.6954 -0.1559  0.7738
   23SOL    MW4   92   3.150   2.143   1.296  0.1470 -0.1795  0.4180
   24SOL     OW   93   3.172   1.114   2.334  0.3580 -0.4684  0.1022
   24SOL    HW2   94   3.263   1.139   2.317 -0.5536  1.2294 -2.4856
   24SOL    HW3   95   3.160   1.031   2.287  0.1612  0.0578 -0.7824
   24SOL    MW4   96   3.182   1.106   2.326  0.2117 -0.1750 -0.3559
   25SOL     OW   97   4.353   2.599   0.574  0.3817  0.1109 -0.0215
   25SOL    HW2   98   4.292   2.526   0.563  1.1077 -0.2574 -1.8907
   25SOL    HW3   99   4.437   2.557   0.593  0.7647  0.4503 -0.9265
   25SOL    MW4  100   4.356   2.584   0.575  0.5280  0.1071 -0.3875
   26SOL     OW  101   2.098   0.211   1.850 -0.1796 -0.0891  0.1175
   26SOL    HW2  102   2.105   0.189   1.757 -1.8299 -0.2794  0.0201
   26SOL    HW3  103   2.083   0.306   1.850 -0.2089 -0.0938  0.1811
   26SOL    MW4  104   2.097   0.221   1.837 -0.4012 -0.1148  0.1131
   27SOL     OW  105   4.456   2.501   1.941 -0.3088 -0.2207 -0.2531
   27SOL    HW2  106   4.429   2.592   1.932  1.4629  0.3632  0.0999
   27SOL    HW3  107   4.382   2.451   1.908 -1.6682  1.3152  0.3961
   27SOL    MW4  108   4.443   2.506   1.936 -0.2544  0.0590 -0.1209
   28SOL     OW  109   0.641   2.771   1.017  0.3463  0.5016 -0.1381
   28SOL    HW2  110   0.725   2.812   1.039  0.6702  1.1190 -2.3836
   28SOL    HW3  111   0.585   2.844   0.991 -0.8533  0.0670  1.1901
   28SOL    MW4  112   0.645   2.786   1.016  0.2308  0.5257 -0.2591
   29SOL     OW  113   2.437   4.359   1.891 -0.2714  0.1795 -0.2543
   29SOL    HW2  114   2.395   4.436   1.851 -1.9116 -1.5105 -1.9077
   29SOL    HW3  115   2.525   4.358   1.854 -0.4989  0.8203 -0.8359
   29SOL    MW4  116   2.443   4.369   1.881 -0.5178  0.0410 -0.5492
   30SOL     OW  117   3.582   2.651   1.682  0.2922 -0.7189  0.0163
   30SOL    HW2  118   3.528   2.702   1.743 -1.6172 -2.3542 -0.2562
   30SOL    HW3  119   3.633   2.717   1.636 -0.1728  0.7527  1.5202
   30SOL    MW4  120   3.581   2.667   1.684 -0.0210 -0.7405  0.1788
   31SOL     OW  121   4.490   3.292   0.449  0.0897 -0.0519  0.1914
   31SOL    HW2  122   4.506   3.297   0.543  2.2021  0.6171 -0.1810
   31SOL    HW3  123   4.509   3.380   0.416 -2.2513  0.1757 -0.6469
   31SOL    MW4  124   4.495   3.304   0.457  0.0595  0.0664  0.0317
   32SOL     OW  125   0.726   2.108   1.547  0.0781  0.1204  0.0033
   32SOL    HW2  126   0.811   2.089   1.587  0.2715  1.4395  0.2363
   32SOL    HW3  127   0.716   2.041   1.480  1.2132 -0.1771  0.1185
   32SOL    MW4  128   0.736   2.097   1.544  0.2534  0.2552  0.0493
   33SOL     OW  129   4.021   2.432   1.390  0.2574  0.4442  0.2406
   33SOL    HW2  130   3.937   2.468   1.420  0.2094  0.2686  0.3211
   33SOL    HW3  131   4.035   2.356   1.446 -0.2073 -0.3454 -0.6991
   33SOL    MW4  132   4.012   2.427   1.402  0.1897  0.3168  0.1272
   34SOL     OW  133   3.950   4.142   1.901  0.0104 -0.0111 -0.0595
   34SOL    HW2  134   4.020   4.152   1.837 -0.6595  0.8714 -0.6658
   34SOL    HW3  135   3.899   4.067   1.869 -0.4892  0.6024 -0.7370
   34SOL    MW4  136   3.952   4.133   1.888 -0.1439  0.1863 -0.2289
   35SOL     OW  137   3.167   2.678   1.228  0.6159  0.2019  0.4276
   35SOL    HW2  138   3.222   2.757   1.235 -0.3639  0.8558  0.8555
   35SOL    HW3  139   3.220   2.617   1.177  1.7939  0.7810  0.9162
   35SOL    MW4  140   3.181   2.680   1.222  0.6421  0.3645  0.5485
   36SOL     OW  141   3.928   4.431   0.288  0.0819  0.3504 -0.3773
   36SOL    HW2  142   3.847   4.480   0.275 -0.5435  0.2016  2.6762
   36SOL    HW3  143   3.997   4.497   0.284 -0.3476  0.7600 -1.1182
   36SOL    MW4  144   3.927   4.446   0.286 -0.0573  0.3848 -0.0722
   37SOL     OW  145   3.657   2.374   1.925  0.5466 -0.5288  0.0239
   37SOL    HW2  146   3.659   2.278   1.924 -0.4778 -0.5591 -0.7292
   37SOL    HW3  147   3.748   2.400   1.938  1.0767 -1.5914 -1.4010
   37SOL    MW4  148   3.669   2.365   1.927  0.4814 -0.6730 -0.2635
   38SOL     OW  149   2.458   3.846   2.599 -0.4467  0.2203 -0.7899
   38SOL    HW2  150   2.388   3.889   2.648  1.1801 -1.6121  3.3598
   38SOL    HW3  151   2.533   3.905   2.608  0.1661 -0.6541 -0.1245
   38SOL    MW4  152   2.459   3.859   2.607 -0.1512 -0.1368 -0.1546
   39SOL     OW  153   1.806   3.298   2.218 -0.0753 -0.4212  0.2196
   39SOL    HW2  154   1.812   3.270   2.127 -0.8816  0.3508 -0.0816
   39SOL    HW3  155   1.731   3.250   2.252 -0.0762 -0.3331  0.3392
   39SOL    MW4  156   1.797   3.288   2.210 -0.1818 -0.3077  0.1956
   40SOL     OW  157   0.610   1.216   0.960 -0.4723  0.1678  0.2667
   40SOL    HW2  158   0.591   1.243   0.870  0.5874  0.0532 -0.0011
   40SOL    HW3  159   0.574   1.285   1.015 -1.4964  0.0321 -0.2258
   40SOL    MW4  160   0.603   1.229   0.955 -0.4676  0.1348  0.1664
   41SOL     OW  161   3.550   0.717   1.241  0.2461 -0.0039 -0.3511
   41SOL    HW2  162   3.503   0.649   1.290  0.7366  0.8066  1.2862
   41SOL    HW3  163   3.522   0.799   1.281  2.8696  0.5123  0.5571
   41SOL    MW4  164   3.540   0.719   1.253  0.6569  0.1711 -0.0153
   42SOL     OW  165   0.176   3.840   2.306  0.0431  0.3402  0.3641
   42SOL    HW2  166   0.214   3.753   2.293  0.1675  0.4225  0.1741
   42SOL    HW3  167   0.089   3.835   2.266  0.0554  0.3064  0.3419
   42SOL    MW4  168   0.170   3.828   2.299  0.0611  0.3466  0.3361
   43SOL     OW  169   0.688   1.793   0.854  0.0217 -0.4492 -0.2046
   43SOL    HW2  170   0.593   1.780   0.849  0.0290 -0.9521  1.0158
   43SOL    HW3  171   0.699   1.868   0.912  0.4216 -1.1414  0.6233
   43SOL    MW4  172   0.677   1.801   0.861  0.0754 -0.6069  0.0657
   44SOL     OW  173   1.999   1.436   1.324 -0.3344 -0.5528 -0.6044
   44SOL    HW2  174   2.033   1.495   1.257  0.4925 -1.1491 -0.7276
   44SOL    HW3  175   2.037   1.469   1.406 -1.0420 -0.0491 -0.4751
   44SOL    MW4  176   2.009   1.448   1.326 -0.3187 -0.5650 -0.6036
   45SOL     OW  177   0.099   2.492   0.659 -0.1150  0.1142 -0.0893
   45SOL    HW2  178   0.176   2.446   0.626  0.3402  0.7345  0.1089
   45SOL    HW3  179   0.078   2.447   0.741 -0.9000 -1.0479 -0.8918
   45SOL    MW4  180   0.106   2.480   0.666 -0.1585  0.0427 -0.1690
   46SOL     OW  181   0.768   2.091   0.227 -0.2954 -0.1107 -0.3267
   46SOL    HW2  182   0.770   1.998   0.251 -0.9784 -0.3231 -1.0688
   46SOL    HW3  183   0.753   2.091   0.133 -0.8292  0.7627 -0.2499
   46SOL    MW4  184   0.766   2.079   0.218 -0.4560 -0.0235 -0.4144
   47SOL     OW  185   2.356   1.438   1.653 -0.3138 -0.2801 -0.3995
   47SOL    HW2  186   2.396   1.507   1.600  1.8365 -0.7101  0.5954
   47SOL    HW3  187   2.377   1.357   1.607 -0.0687 -0.4971  0.0803
   47SOL    MW4  188   2.364   1.437   1.640  0.0022 -0.3654 -0.2050
   48SOL     OW  189   0.127   0.374   1.752 -0.2416  0.0440  0.2238
   48SOL    HW2  190   0.185   0.435   1.797  0.1589  0.4102 -0.7739
   48SOL    HW3  191   0.086   0.427   1.684  0.5729 -0.9382 -1.0526
   48SOL    MW4  192   0.129   0.389   1.749 -0.0813 -0.0373 -0.0762
   49SOL     OW  193   1.883   0.701   1.812 -0.1722 -0.2004  0.2841
   49SOL    HW2  194   1.866   0.698   1.718 -1.0545  3.0411  0.2707
   49SOL    HW3  195   1.813   0.649   1.851 -0.3063 -0.8290 -0.7915
   49SOL    MW4  196   1.872   0.694   1.805 -0.3063  0.1443  0.1404
   50SOL     OW  197   2.210   1.665   1.366  0.7097  0.3407  0.4142
   50SOL    HW2  198   2.200   1.754   1.401  0.5223  0.6327 -0.3697
   50SOL    HW3  199   2.283   1.629   1.415  0.4928  0.7656  1.0663
   50SOL    MW4  200   2.218   1.672   1.377  0.6564  0.4353  0.3969
   51SOL     OW  201   1.608   2.353   2.312  0.1246 -0.2807 -0.3880
   51SOL    HW2  202   1.697   2.354   2.275  1.4584 -0.3002  2.7078
   51SOL    HW3  203   1.621   2.369   2.405 -3.0743 -1.3464  0.2688
   51SOL    MW4  204   1.622   2.356   2.319 -0.1215 -0.4239  0.1071
   52SOL     OW  205   2.326   3.497   0.451  0.4422  0.7272 -0.6917
   52SOL    HW2  206   2.266   3.571   0.436 -1.0905 -0.3567 -0.0629
   52SOL    HW3  207   2.341   3.497   0.546 -0.0830 -0.1479 -0.6025
   52SOL    MW4  208   2.320   3.507   0.462  0.1707  0.4687 -0.5970
   53SOL     OW  209   1.486   3.114   0.780  0.1490  0.2669  0.4070
   53SOL    HW2  210   1.448   3.068   0.705  0.7823  0.7689 -0.2263
   53SOL    HW3  211   1.493   3.205   0.751  0.2710  0.4911  1.1306
   53SOL    MW4  212   1.482   3.120   0.766  0.2487  0.3627  0.4189
   54SOL     OW  213   1.832   1.211   0.564  0.0293 -0.3127 -0.2116
   54SOL    HW2  214   1.893   1.182   0.496  0.0271  1.9945 -1.2471
   54SOL    HW3  215   1.765   1.143   0.566  1.7117 -2.0253 -0.2458
   54SOL    MW4  216   1.831   1.198   0.555  0.2510 -0.2342 -0.3527
   55SOL     OW  217   2.290   0.595   0.279 -0.3974 -0.0813 -0.4331
   55SOL    HW2  218   2.196   0.594   0.261 -0.2164 -0.4103 -1.3906
   55SOL    HW3  219   2.316   0.503   0.273  0.0902  0.0790 -0.7382
   55SOL    MW4  220   2.281   0.583   0.276 -0.3092 -0.1036 -0.5997
   56SOL     OW  221   1.010   4.499   0.606 -0.3686 -0.0154 -0.2984
   56SOL    HW2  222   1.014   4.505   0.510  1.3247 -0.0239 -0.2315
   56SOL    HW3  223   1.060   4.421   0.627 -1.0878 -0.2469  0.5817
   56SOL    MW4  224   1.017   4.490   0.596 -0.2401 -0.0470 -0.1735
   57SOL     OW  225   2.334   1.176   0.534  0.0425 -0.5798 -0.4881
   57SOL    HW2  226   2.297   1.231   0.603 -2.2918 -1.0713 -1.2916
   57SOL    HW3  227   2.309   1.087   0.559 -1.6544 -0.6775 -2.4055
   57SOL    MW4  228   2.326   1.172   0.546 -0.4894 -0.6576 -0.8471
   58SOL     OW  229   1.789   4.391   1.954  0.0957  0.1438 -0.0374
   58SOL    HW2  230   1.734   4.439   2.016 -1.8512 -0.6887 -1.0575
   58SOL    HW3  231   1.732   4.320   1.922  1.2391  0.2070 -2.3198
   58SOL    MW4  232   1.774   4.388   1.958 -0.0103  0.0423 -0.4731
   59SOL     OW  233   0.954   3.129   0.439 -0.0571 -0.1101  0.2109
   59SOL    HW2  234   0.890   3.075   0.485 -0.6380  0.0317 -0.4244
   59SOL    HW3  235   0.902   3.193   0.391  0.5629 -0.0386 -0.3746
   59SOL    MW4  236   0.939   3.131   0.439 -0.0519 -0.0820  0.0499
   60SOL     OW  237   1.877   4.109   1.211  0.2410  0.2994  0.1347
   60SOL    HW2  238   1.886   4.050   1.137  2.1958 -2.8586  2.7784
   60SOL    HW3  239   1.788   4.142   1.205  0.3729  0.1571 -3.5934
   60SOL    MW4  240   1.867   4.106   1.201  0.5163 -0.1361 -0.0084
   61SOL     OW  241   1.408   3.450   0.312  0.1432  0.1722 -0.4619
   61SOL    HW2  242   1.388   3.457   0.219  1.1796  1.4816 -0.6139
   61SOL    HW3  243   1.378   3.533   0.349 -0.3959 -0.3965  0.3997
   61SOL    MW4  244   1.402   3.462   0.304  0.2088  0.2700 -0.3683
   62SOL     OW  245   1.776   1.409   0.344  0.4734 -0.0625  0.0896
   62SOL    HW2  246   1.804   1.351   0.415 -0.6169 -1.3830 -0.5475
   62SOL    HW3  247   1.831   1.385   0.270 -0.7008 -1.0304 -0.4804
   62SOL    MW4  248   1.787   1.398   0.344  0.1746 -0.3644 -0.0697
   63SOL     OW  249   2.564   2.302   1.618 -0.1341 -0.3052  0.7982
   63SOL    HW2  250   2.511   2.277   1.543 -0.7810  0.3708  1.0254
   63SOL    HW3  251   2.548   2.235   1.683 -1.1611  0.2044  1.0754
   63SOL    MW4  252   2.555   2.290   1.617 -0.3550 -0.1487  0.8648
   64SOL     OW  253   1.125   4.334   1.606 -0.3798  0.0394 -0.1852
   64SOL    HW2  254   1.211   4.315   1.645  0.5186  2.5732 -0.8767
   64SOL    HW3  255   1.134   4.308   1.514 -0.2254  0.6599 -0.3470
   64SOL    MW4  256   1.138   4.328   1.599 -0.2409  0.4555 -0.2978
   65SOL     OW  257   3.446   3.960   1.924 -0.4720 -0.1082 -0.1183
   65SOL    HW2  258   3.519   3.900   1.905 -0.1996  0.7953 -2.0148
   65SOL    HW3  259   3.368   3.905   1.919 -0.2628 -0.2395 -2.2841
   65SOL    MW4  260   3.445   3.944   1.921 -0.4085 -0.0063 -0.6542
   66SOL     OW  261   4.390   3.267   1.007 -0.7264 -0.5832  0.0066
   66SOL    HW2  262   4.329   3.292   1.077 -1.1122  1.8368 -1.1407
   66SOL    HW3  263   4.333   3.251   0.932  0.0089  1.9828 -1.1560
   66SOL    MW4  264   4.374   3.268   1.006 -0.6803  0.0746 -0.2981
   67SOL     OW  265   3.564   1.517   1.722 -0.1430 -0.4184  0.0703
   67SOL    HW2  266   3.539   1.553   1.807  0.9870  3.2200 -1.0597
   67SOL    HW3  267   3.658   1.502   1.730 -0.0075  0.0884 -0.5809
   67SOL    MW4  268   3.573   1.520   1.735  0.0239  0.1285 -0.1647
   68SOL     OW  269   1.668   0.704   0.905  0.2120 -0.3137  0.2238
   68SOL    HW2  270   1.748   0.720   0.954  0.0647 -0.7076  0.6035
   68SOL    HW3  271   1.613   0.654   0.965 -0.4044  0.1424  0.0505
   68SOL    MW4  272   1.671   0.700   0.919  0.1113 -0.3055  0.2510
   69SOL     OW  273   2.068   1.442   1.603  0.1028  0.3779  0.0050
   69SOL    HW2  274   2.035   1.353   1.591 -1.4960  1.0265 -0.5930
   69SOL    HW3  275   2.162   1.432   1.612  0.0850 -1.2476 -1.4514
   69SOL    MW4  276   2.076   1.429   1.603 -0.1105  0.2490 -0.2661
   70SOL     OW  277   3.288   4.211   0.469  0.2217  0.1079  0.2589
   70SOL    HW2  278   3.353   4.258   0.417 -1.3669  2.6995  0.5358
   70SOL    HW3  279   3.245   4.152   0.407 -0.2563  1.6837 -0.9354
   70SOL    MW4  280   3.291   4.209   0.454 -0.0509  0.6578  0.1379
   71SOL     OW  281   2.540   1.353   1.127 -0.7887 -0.0841 -0.1419
   71SOL    HW2  282   2.531   1.349   1.031  1.5255 -2.0762 -0.3153
   71SOL    HW3  283   2.570   1.442   1.144 -1.1857  0.2738 -1.2585
   71SOL    MW4  284   2.542   1.365   1.116 -0.5358 -0.2997 -0.3121
   72SOL     OW  285   2.767   3.167   1.493 -0.6426 -0.0333  0.4639
   72SOL    HW2  286   2.797   3.170   1.584  2.0497 -0.3617 -0.3670
   72SOL    HW3  287   2.798   3.249   1.455 -1.3355 -0.1218 -0.2985
   72SOL    MW4  288   2.775   3.178   1.500 -0.3788 -0.0883  0.2537
   73SOL     OW  289   2.470   3.579   2.240 -0.5891  0.0017 -0.2193
   73SOL    HW2  290   2.439   3.663   2.272 -1.2041 -0.8495  1.5286
   73SOL    HW3  291   2.446   3.577   2.148 -2.4392  0.8756  0.2216
   73SOL    MW4  292   2.463   3.590   2.232 -0.9144  0.0047  0.0695
   74SOL     OW  293   0.640   4.582   0.715  0.2842 -0.5743  0.4237
   74SOL    HW2  294   0.590   4.575   0.797 -1.0969  1.8732 -0.1657
   74SOL    HW3  295   0.715   4.637   0.737 -0.6428  0.9530 -0.1811
   74SOL    MW4  296   0.643   4.588   0.729 -0.0203 -0.0499  0.2662
   75SOL     OW  297   3.490   0.807   1.942  0.2437 -0.3633  0.4155
   75SOL    HW2  298   3.410   0.857   1.921  0.2829 -0.3535  0.2881
   75SOL    HW3  299   3.561   0.860   1.906  0.3869  0.1090  1.3798
   75SOL    MW4  300   3.489   0.821   1.934  0.2677 -0.2997  0.5260
   76SOL     OW  301   2.880   0.538   0.248 -0.2323  0.2960  0.6065
   76SOL    HW2  302   2.819   0.601   0.288  2.1509  1.9905  1.7037
   76SOL    HW3  303   2.883   0.564   0.156 -1.8724 -0.3980  0.3441
   76SOL    MW4  304   2.872   0.550   0.241 -0.1343  0.4280  0.7166
   77SOL     OW  305   2.313   3.145   1.193  0.0111 -0.3114  0.2983
   77SOL    HW2  306   2.405   3.161   1.171  0.1349  0.3480  1.2840
   77SOL    HW3  307   2.312   3.056   1.226  0.0092 -0.9231 -1.2870
   77SOL    MW4  308   2.325   3.136   1.194  0.0272 -0.3051  0.2192
   78SOL     OW  309   0.924   2.436   2.188 -0.1036  0.2554  0.3115
   78SOL    HW2  310   0.841   2.388   2.196 -0.4084  0.5196 -1.1037
   78SOL    HW3  311   0.947   2.428   2.095  1.8048 -0.3896  0.8180
   78SOL    MW4  312   0.916   2.428   2.177  0.1080  0.2052  0.1916
   79SOL     OW  313   1.754   2.827   0.812  0.2633 -0.3735 -0.0220
   79SOL    HW2  314   1.780   2.918   0.829 -1.3455  0.0104  0.5160
   79SOL    HW3  315   1.715   2.798   0.895 -0.0754 -1.2485 -0.4852
   79SOL    MW4  316   1.752   2.836   0.825  0.0064 -0.4383 -0.0122
   80SOL     OW  317   0.166   1.372   0.374  0.1294 -0.1874  0.0064
   80SOL    HW2  318   0.080   1.400   0.403  0.0290 -1.1925  0.7087
   80SOL    HW3  319   0.213   1.351   0.455  1.6620  2.0903 -0.2424
   80SOL    MW4  320   0.161   1.373   0.388  0.3183 -0.0195  0.0662
   81SOL     OW  321   3.710   0.548   0.409 -0.3982 -0.3009  0.6883
   81SOL    HW2  322   3.744   0.623   0.457  1.8133 -1.3361  0.8173
   81SOL    HW3  323   3.788   0.500   0.380 -1.7149 -0.8129 -2.1947
   81SOL    MW4  324   3.725   0.551   0.412 -0.2801 -0.5051  0.3249
   82SOL     OW  325   2.826   1.578   0.800  0.0658 -0.0772 -0.4389
   82SOL    HW2  326   2.890   1.628   0.851 -0.8166  0.1425  0.4544
   82SOL    HW3  327   2.868   1.567   0.714  1.3811 -0.1000  0.1950
   82SOL    MW4  328   2.840   1.583   0.795  0.1230 -0.0512 -0.2374
   83SOL     OW  329   1.323   1.819   1.957 -0.5034 -0.1919  0.1167
   83SOL    HW2  330   1.248   1.872   1.933 -0.9820 -1.2982 -0.9001
   83SOL    HW3  331   1.313   1.739   1.906  0.6280 -0.9256  1.0080
   83SOL    MW4  332   1.312   1.815   1.947 -0.4173 -0.4347  0.1001
   84SOL     OW  333   0.079   0.792   0.857  0.3196  0.1264 -0.4506
   84SOL    HW2  334   0.030   0.749   0.927  1.3377 -0.2771  0.0194
   84SOL    HW3  335   0.064   0.886   0.872 -1.1041 -0.0215 -0.9023
   84SOL    MW4  336   0.071   0.799   0.868  0.2661  0.0536 -0.4482
   85SOL     OW  337   0.140   4.363   2.185  0.5087  0.1422 -0.2286
   85SOL    HW2  338   0.065   4.313   2.217  0.3004  0.1918 -0.6374
   85SOL    HW3  339   0.138   4.445   2.235  1.1661 -0.4745  0.8370
   85SOL    MW4  340   0.130   4.367   2.196  0.5679  0.0674 -0.1419
   86SOL     OW  341   3.775   3.295   0.559 -0.4313  0.4023 -0.2963
   86SOL    HW2  342   3.851   3.261   0.512 -0.2287  1.8088 -1.0110
   86SOL    HW3  343   3.771   3.243   0.639  0.2391 -0.8707 -1.0704
   86SOL    MW4  344   3.784   3.284   0.563 -0.3161  0.4199 -0.4927
   87SOL     OW  345   1.630   0.542   2.183  0.1138 -0.2891 -1.0590
   87SOL    HW2  346   1.639   0.546   2.088  1.5234  0.0829 -0.9165
   87SOL    HW3  347   1.628   0.633   2.211 -1.2916 -0.3817 -0.8052
   87SOL    MW4  348   1.631   0.555   2.174  0.1144 -0.2522 -1.0067
   88SOL     OW  349   4.396   0.240   1.891  0.3678 -0.1502  0.1107
   88SOL    HW2  350   4.417   0.234   1.984  0.6203  2.2686  0.2496
   88SOL    HW3  351   4.465   0.295   1.854 -0.3419 -0.1754 -1.2846
   88SOL    MW4  352   4.408   0.246   1.898  0.3074  0.1656 -0.0550
   89SOL     OW  353   1.219   0.080   1.757  0.0528 -0.4995 -0.1265
   89SOL    HW2  354   1.170   0.156   1.788  0.5617  0.2115 -1.0455
   89SOL    HW3  355   1.151   0.018   1.729 -0.3388  0.2738 -0.9156
   89SOL    MW4  356   1.203   0.082   1.757  0.0683 -0.3037 -0.3518
   90SOL     OW  357   3.736   4.347   1.846  0.0939 -0.0609  0.2725
   90SOL    HW2  358   3.768   4.423   1.799  2.8517 -0.6762  1.0974
   90SOL    HW3  359   3.808   4.285   1.844 -2.2867 -2.9192 -0.8506
   90SOL    MW4  360   3.750   4.349   1.840  0.1437 -0.5192  0.2332
   91SOL     OW  361   0.802   0.555   1.799 -0.2668  0.2737 -0.2447
   91SOL    HW2  362   0.880   0.576   1.852 -0.7457 -0.5707  0.8289
   91SOL    HW3  363   0.835   0.550   1.709  0.7538  0.7967  0.0877
   91SOL    MW4  364   0.817   0.557   1.794 -0.1954  0.2313 -0.0592
   92SOL     OW  365   1.634   2.713   1.029 -0.0513 -0.3378 -0.2214
   92SOL    HW2  366   1.680   2.752   1.102  0.4919  0.2469 -0.8697
   92SOL    HW3  367   1.554   2.677   1.067  0.2208 -0.0196  0.6497
   92SOL    MW4  368   1.629   2.714   1.043  0.0562 -0.2187 -0.1920
   93SOL     OW  369   2.503   0.332   1.420 -0.2121 -0.1898 -0.1466
   93SOL    HW2  370   2.520   0.252   1.469 -1.0876  0.3316  1.0601
   93SOL    HW3  371   2.556   0.325   1.341  1.6395 -0.8315  1.1264
   93SOL    MW4  372   2.512   0.321   1.416 -0.0833 -0.2057  0.1806
   94SOL     OW  373   4.294   4.356   0.587  0.4368 -0.2679  0.2304
   94SOL    HW2  374   4.208   4.328   0.556  0.0177  1.1710  0.0365
   94SOL    HW3  375   4.315   4.296   0.658 -0.4603 -1.0139 -0.1286
   94SOL    MW4  376   4.285   4.345   0.592  0.2631 -0.1765  0.1574
   95SOL     OW  377   2.746   1.096   2.307  0.0108 -0.1589  0.0533
   95SOL    HW2  378   2.736   1.137   2.393 -0.9509  2.0338 -1.0574
   95SOL    HW3  379   2.817   1.144   2.265 -0.7588  0.0045 -1.0767
   95SOL    MW4  380   2.754   1.107   2.313 -0.2176  0.1520 -0.2423
   96SOL     OW  381   0.189   2.249   1.219  0.3315  0.2494  0.0716
   96SOL    HW2  382   0.282   2.269   1.211  0.5028 -0.2157  0.8725
   96SOL    HW3  383   0.183   2.190   1.294 -0.6375  0.4810  0.1865
   96SOL    MW4  384   0.201   2.244   1.228  0.2262  0.2186  0.1924
   97SOL     OW  385   1.566   1.577   2.260  0.5120  0.4087  0.3132
   97SOL    HW2  386   1.578   1.603   2.169 -1.6680  0.7243  0.1122
   97SOL    HW3  387   1.472   1.575   2.273  0.7592 -1.2515  2.1123
   97SOL    MW4  388   1.555   1.580   2.250  0.2570  0.2313  0.5240
   98SOL     OW  389   2.368   4.193   1.556 -0.3541  0.3796  0.7038
   98SOL    HW2  390   2.337   4.276   1.520  1.8740  0.0789 -2.0913
   98SOL    HW3  391   2.296   4.131   1.541 -0.4931  0.9008 -0.8380
   98SOL    MW4  392   2.355   4.196   1.549 -0.0785  0.4087  0.1316
   99SOL     OW  393   0.792   3.326   0.317 -0.4439  0.1633 -0.4127
   99SOL    HW2  394   0.806   3.314   0.223 -0.6859  0.5776 -0.5024
   99SOL    HW3  395   0.808   3.419   0.332 -2.2470  0.4783 -0.3768
   99SOL    MW4  396   0.796   3.336   0.306 -0.7137  0.2595 -0.4198
  100SOL     OW  397   4.094   2.816   1.836 -0.0117  0.0491  1.3818
  100SOL    HW2  398   4.137   2.901   1.845 -1.1307  0.6202  1.4160
  100SOL    HW3  399   4.044   2.824   1.754 -0.4868 -0.4080  1.6299
  100SOL    MW4  400   4.093   2.829   1.826 -0.2220  0.0641  1.4191
  101SOL     OW  401   2.335   0.315   0.413  0.4170  0.0172  0.2244
  101SOL    HW2  402   2.424   0.350   0.416  0.2740  0.4030 -0.0939
  101SOL    HW3  403   2.346   0.221   0.429  0.8322  0.1401  0.6877
  101SOL    MW4  404   2.348   0.307   0.416  0.4529  0.0843  0.2436
  102SOL     OW  405   2.454   0.818   2.277  0.0468 -0.5572  0.5457
  102SOL    HW2  406   2.418   0.729   2.269  0.6691 -0.6156 -1.9889
  102SOL    HW3  407   2.384   0.875   2.247  0.7433 -0.4136 -0.8255
  102SOL    MW4  408   2.440   0.814   2.272  0.2208 -0.5459  0.0304
  103SOL     OW  409   0.260   3.532   1.690 -0.3214 -0.0549 -0.3063
  103SOL    HW2  410   0.201   3.497   1.624  0.5755  1.7875 -2.1328
  103SOL    HW3  411   0.209   3.600   1.734  0.2439  1.1686 -1.5229
  103SOL    MW4  412   0.245   3.536   1.687 -0.1285  0.3496 -0.7078
  104SOL     OW  413   0.955   0.053   1.448 -0.1612 -0.3570 -0.6571
  104SOL    HW2  414   1.002   0.026   1.527 -0.8543 -2.0854 -0.8194
  104SOL    HW3  415   0.868   0.078   1.480 -1.0824 -2.8940 -1.0728
  104SOL    MW4  416   0.950   0.053   1.463 -0.3742 -0.9197 -0.7333
  105SOL     OW  417   0.003   3.642   1.272 -0.2772 -0.3684 -0.0116
  105SOL    HW2  418   0.050   3.688   1.341 -0.4259 -0.4805  0.1644
  105SOL    HW3  419  -0.056   3.708   1.235  0.7685  0.0592 -0.9398
  105SOL    MW4  420   0.002   3.657   1.276 -0.1589 -0.3268 -0.1109
  106SOL     OW  421   0.015   0.883   2.135 -0.2438  0.1497 -0.1716
  106SOL    HW2  422   0.062   0.905   2.054 -0.3786  0.9779 -0.0324
  106SOL    HW3  423  -0.074   0.863   2.105 -0.6123  1.6558 -0.1031
  106SOL    MW4  424   0.009   0.883   2.120 -0.3102  0.4577 -0.1442
  107SOL     OW  425   2.729   1.660   1.924 -0.0151  0.7934  0.5407
  107SOL    HW2  426   2.807   1.715   1.928  0.7125 -0.2161  0.5142
  107SOL    HW3  427   2.711   1.637   2.015  0.3081  0.2194  0.4629
  107SOL    MW4  428   2.737   1.664   1.937  0.1235  0.5844  0.5270
  108SOL     OW  429   2.933   3.561   1.621 -0.5531 -0.1997 -0.1189
  108SOL    HW2  430   2.891   3.644   1.600  0.5480  0.0658 -1.3145
  108SOL    HW3  431   2.896   3.499   1.559 -0.5042 -0.3509  0.0023
  108SOL    MW4  432   2.923   3.564   1.610 -0.4013 -0.1846 -0.2607
  109SOL     OW  433   2.116   2.481   1.559  0.5723  0.4262 -0.2212
  109SOL    HW2  434   2.145   2.389   1.556  2.3869  0.9607  0.5251
  109SOL    HW3  435   2.197   2.531   1.564 -0.4442  2.0607  0.0215
  109SOL    MW4  436   2.130   2.475   1.559  0.6776  0.7124 -0.0907
  110SOL     OW  437   1.681   4.469   1.018  0.1380  0.0633  0.3352
  110SOL    HW2  438   1.724   4.510   1.093 -1.1139 -0.6544  1.4567
  110SOL    HW3  439   1.590   4.496   1.024 -0.3550 -1.5041  0.1245
  110SOL    MW4  440   1.675   4.478   1.029 -0.0922 -0.2382  0.4554
  111SOL     OW  441   3.879   3.264   1.624  0.1493 -0.4122 -0.2950
  111SOL    HW2  442   3.821   3.203   1.668  0.7647 -1.2427 -0.6344
  111SOL    HW3  443   3.846   3.267   1.534 -0.2052  0.1644 -0.1497
  111SOL    MW4  444   3.867   3.257   1.618  0.1837 -0.4457 -0.3206
  112SOL     OW  445   3.510   3.997   2.190  0.4284 -0.3169 -0.5643
  112SOL    HW2  446   3.595   3.956   2.209  1.0932  0.9050 -0.8738
  112SOL    HW3  447   3.492   3.975   2.099  0.4005 -0.6026 -0.4893
  112SOL    MW4  448   3.519   3.989   2.181  0.5125 -0.1933 -0.5952
  113SOL     OW  449   2.286   0.009   0.725  0.0580 -0.4454 -0.5742
  113SOL    HW2  450   2.207  -0.039   0.752 -0.6544 -0.4016 -2.5007
  113SOL    HW3  451   2.265   0.100   0.744  0.5375 -0.6439  0.9967
  113SOL    MW4  452   2.273   0.014   0.731  0.0273 -0.4658 -0.6211
  114SOL     OW  453   0.606   4.398   2.132 -0.1309 -0.2860 -0.2921
  114SOL    HW2  454   0.538   4.347   2.176 -0.6965  0.2517 -0.5450
  114SOL    HW3  455   0.603   4.483   2.175  0.3784 -0.2612 -0.3077
  114SOL    MW4  456   0.597   4.402   2.144 -0.1383 -0.2118 -0.3275
  115SOL     OW  457   3.187   0.175   1.931 -0.3243 -0.1799  0.4521
  115SOL    HW2  458   3.173   0.270   1.927  0.8183 -0.0205  0.1708
  115SOL    HW3  459   3.144   0.148   2.012 -3.1025  0.1395 -0.8444
  115SOL    MW4  460   3.180   0.184   1.941 -0.5401 -0.1167  0.2440
  116SOL     OW  461   1.365   3.191   1.440  0.0921 -0.2364 -0.0004
  116SOL    HW2  462   1.406   3.277   1.441  1.5810 -0.9082 -1.2059
  116SOL    HW3  463   1.407   3.144   1.512  2.3907 -1.3187 -1.9752
  116SOL    MW4  464   1.376   3.196   1.450  0.5918 -0.4678 -0.4200
  117SOL     OW  465   0.314   3.893   1.928  0.5922  0.2465 -0.1483
  117SOL    HW2  466   0.331   3.932   2.014  2.4076  0.7080 -0.7063
  117SOL    HW3  467   0.277   3.965   1.876  0.3404  0.2006 -0.0355
  117SOL    MW4  468   0.311   3.908   1.932  0.7985  0.3013 -0.2070
  118SOL     OW  469   4.487   3.130   1.611  0.2537 -0.1287  0.1022
  118SOL    HW2  470   4.579   3.106   1.603  0.2703 -0.0033 -0.0860
  118SOL    HW3  471   4.484   3.189   1.686  0.6160  1.3408 -1.0065
  118SOL    MW4  472   4.498   3.135   1.620  0.3037  0.0817 -0.0689
  119SOL     OW  473   2.248   1.943   1.525 -0.4338  0.2592 -0.0630
  119SOL    HW2  474   2.185   1.921   1.594 -0.7692 -0.9665 -0.7572
  119SOL    HW3  475   2.316   1.992   1.570 -0.5435 -0.7147  1.1838
  119SOL    MW4  476   2.249   1.947   1.540 -0.4925 -0.0310  0.0099
  120SOL     OW  477   0.694   4.060   1.200  0.2243  0.1214  0.7091
  120SOL    HW2  478   0.784   4.063   1.234 -0.0328 -1.5402  1.6030
  120SOL    HW3  479   0.641   4.039   1.276 -0.8839  0.6477  0.0871
  120SOL    MW4  480   0.699   4.058   1.215  0.0442 -0.0284  0.7449
  121SOL     OW  481   2.024   0.515   0.926 -0.1427 -0.5490  0.7788
  121SOL    HW2  482   2.118   0.532   0.932 -0.2292  0.3678 -0.2543
  121SOL    HW3  483   2.012   0.473   0.840 -0.5604 -1.4908  1.2896
  121SOL    MW4  484   2.034   0.512   0.915 -0.2093 -0.5523  0.7099
  122SOL     OW  485   3.747   4.503   1.479  0.4154  0.1491 -0.3044
  122SOL    HW2  486   3.666   4.553   1.490  1.0449  0.9175  0.9581
  122SOL    HW3  487   3.718   4.414   1.459 -0.7379  0.4572 -0.0351
  122SOL    MW4  488   3.733   4.498   1.478  0.3463  0.2912 -0.1023
  123SOL     OW  489   2.557   1.597   0.717  0.1728 -0.2919  0.0781
  123SOL    HW2  490   2.647   1.605   0.749  0.1191  0.3615  0.0791
  123SOL    HW3  491   2.557   1.517   0.665  0.9107  0.0440 -0.4433
  123SOL    MW4  492   2.569   1.588   0.715  0.2631 -0.1613  0.0095
  124SOL     OW  493   2.129   3.400   0.840 -0.0926 -0.2659 -0.1395
  124SOL    HW2  494   2.136   3.389   0.745 -2.1774 -0.1687 -0.3344
  124SOL    HW3  495   2.164   3.319   0.877 -0.0129 -0.6331 -1.0162
  124SOL    MW4  496   2.135   3.388   0.832 -0.3572 -0.3015 -0.2809
  125SOL     OW  497   3.566   3.123   0.155 -0.3598 -0.0351 -0.2612
  125SOL    HW2  498   3.571   3.191   0.222  1.3407 -0.6203  0.2350
  125SOL    HW3  499   3.593   3.043   0.200  0.0828 -0.5642 -1.4541
  125SOL    MW4  500   3.570   3.121   0.170 -0.0770 -0.1821 -0.3531
  126SOL     OW  501   2.892   4.383   2.147  0.1587 -0.2712  0.2304
  126SOL    HW2  502   2.819   4.329   2.179  0.3710 -0.2995  0.6658
  126SOL    HW3  503   2.866   4.472   2.170  1.5379 -0.5223  2.8935
  126SOL    MW4  504   2.879   4.388   2.154  0.3687 -0.3080  0.6392
  127SOL     OW  505   1.652   3.449   0.421  0.1958 -0.1784 -0.1040
  127SOL    HW2  506   1.559   3.453   0.397 -0.3518  1.7147  2.0903
  127SOL    HW3  507   1.652   3.440   0.516  2.2693 -0.0052 -0.0622
  127SOL    MW4  508   1.640   3.449   0.430  0.3971  0.0942  0.1910
  128SOL     OW  509   4.361   2.089   1.089 -0.1191 -0.2370 -0.3041
  128SOL    HW2  510   4.363   2.088   1.184 -1.9392  2.3215 -0.1872
  128SOL    HW3  511   4.448   2.119   1.063  0.5803 -1.5285  0.5079
  128SOL    MW4  512   4.373   2.092   1.098 -0.2669 -0.0699 -0.1815
  129SOL     OW  513   1.181   2.824   2.131 -0.3287  0.0803 -0.3600
  129SOL    HW2  514   1.191   2.810   2.036 -0.0865  0.2860 -0.3633
  129SOL    HW3  515   1.091   2.798   2.149 -0.2563 -0.3358 -0.5807
  129SOL    MW4  516   1.171   2.818   2.121 -0.2872  0.0525 -0.3896
  130SOL     OW  517   0.792   2.978   0.582 -0.2125  0.6988 -0.2279
  130SOL    HW2  518   0.826   2.953   0.667  1.7826  0.4551 -1.0799
  130SOL    HW3  519   0.702   3.008   0.600  1.3476  4.0921  2.4900
  130SOL    MW4  520   0.784   2.979   0.595  0.2565  1.1143  0.0183
  131SOL     OW  521   4.029   4.370   2.047 -0.1784  0.0732  0.2430
  131SOL    HW2  522   4.012   4.287   2.003 -0.6839 -0.2328  1.0019
  131SOL    HW3  523   3.943   4.401   2.074 -0.0550  1.1414 -0.5497
  131SOL    MW4  524   4.016   4.363   2.045 -0.2288  0.1738  0.2386
  132SOL     OW  525   1.752   1.777   0.776  0.2552 -0.0389  0.3980
  132SOL    HW2  526   1.805   1.763   0.697  0.3208 -1.5253  0.6818
  132SOL    HW3  527   1.676   1.826   0.745  0.8981  0.4964 -0.3526
  132SOL    MW4  528   1.749   1.782   0.761  0.3487 -0.1644  0.3364
  133SOL     OW  529   3.239   3.766   1.907 -0.1859  0.5516 -0.3124
  133SOL    HW2  530   3.154   3.809   1.913 -0.4112  0.1686 -0.7612
  133SOL    HW3  531   3.246   3.716   1.988  0.3340  1.8817  0.4932
  133SOL    MW4  532   3.229   3.765   1.919 -0.1470  0.6766 -0.2653
  134SOL     OW  533   3.348   1.357   1.318 -0.2187  0.2259  0.2277
  134SOL    HW2  534   3.342   1.279   1.262  2.0858 -0.5971  1.0704
  134SOL    HW3  535   3.306   1.331   1.400 -0.1191  0.1169  0.2446
  134SOL    MW4  536   3.342   1.343   1.321  0.0985  0.1030  0.3411
  135SOL     OW  537   2.941   0.493   1.586  0.3649  0.3400  0.1312
  135SOL    HW2  538   2.953   0.429   1.516 -0.7798  0.5022 -0.2247
  135SOL    HW3  539   2.846   0.496   1.600  0.7102 -1.2679  3.1796
  135SOL    MW4  540   2.930   0.485   1.578  0.2594  0.1493  0.4865
  136SOL     OW  541   0.080   2.500   1.138 -0.1365 -0.3948  0.7782
  136SOL    HW2  542   0.106   2.419   1.183 -1.1766 -0.1545  1.8331
  136SOL    HW3  543   0.069   2.474   1.047 -0.6691 -1.4900  1.1451
  136SOL    MW4  544   0.082   2.486   1.132 -0.3440 -0.5076  0.9657
  137SOL     OW  545   0.689   0.452   2.113  0.4090 -0.3530  0.1649
  137SOL    HW2  546   0.615   0.408   2.155 -0.3912  0.5237 -0.3003
  137SOL    HW3  547   0.694   0.412   2.026  1.7478 -1.8122  0.8883
  137SOL    MW4  548   0.680   0.441   2.107  0.4800 -0.4298  0.1990
  138SOL     OW  549   3.190   0.081   0.971 -0.4907  0.1896  0.2257
  138SOL    HW2  550   3.103   0.043   0.970 -0.1045 -0.7007  0.1837
  138SOL    HW3  551   3.222   0.068   0.881 -0.5819  1.1457  0.0457
  138SOL    MW4  552   3.183   0.074   0.959 -0.4518  0.1983  0.1964
  139SOL     OW  553   0.247   4.612   0.448  0.4377 -0.2001  0.2260
  139SOL    HW2  554   0.216   4.572   0.367 -1.2053  1.9412 -0.2380
  139SOL    HW3  555   0.214   4.554   0.517 -0.9852 -0.2639 -0.4849
  139SOL    MW4  556   0.238   4.599   0.446  0.0332  0.0740  0.0710
  140SOL     OW  557   2.250   4.307   2.299  0.1804 -0.0798  0.2051
  140SOL    HW2  558   2.337   4.325   2.262  0.3862  0.6566  1.0295
  140SOL    HW3  559   2.267   4.287   2.391 -0.5799  0.7292  0.5300
  140SOL    MW4  560   2.264   4.307   2.306  0.1072  0.1241  0.3568
  141SOL     OW  561   0.024   4.289   0.416 -0.1482  0.6705  0.2188
  141SOL    HW2  562   0.081   4.298   0.493 -0.5581  2.0587  0.3738
  141SOL    HW3  563  -0.064   4.306   0.450 -0.4655  0.0932 -0.3259
  141SOL    MW4  564   0.020   4.293   0.431 -0.2441  0.7775  0.1674
  142SOL     OW  565   0.451   3.899   0.496  0.3466  0.1970  0.0252
  142SOL    HW2  566   0.469   3.993   0.499  1.2180  0.0306  0.1594
  142SOL    HW3  567   0.377   3.891   0.436  0.3915  0.9530 -0.1394
  142SOL    MW4  568   0.444   3.910   0.488  0.4675  0.2748  0.0212
  143SOL     OW  569   0.251   1.872   1.050 -0.1606  0.4096  0.0491
  143SOL    HW2  570   0.172   1.819   1.046 -0.4804  0.9517 -0.7568
  143SOL    HW3  571   0.301   1.848   0.972  0.4106  0.1713  0.4801
  143SOL    MW4  572   0.247   1.862   1.039 -0.1274  0.4496 -0.0004
  144SOL     OW  573   3.761   3.035   1.092  0.2936  0.0131 -0.6589
  144SOL    HW2  574   3.766   2.942   1.071  0.9654 -0.0571 -0.2036
  144SOL    HW3  575   3.852   3.063   1.095  0.1368  0.3795  0.5721
  144SOL    MW4  576   3.774   3.026   1.089  0.3615  0.0522 -0.4364
  145SOL     OW  577   3.121   3.798   0.422 -0.2174  0.0350 -0.2494
  145SOL    HW2  578   3.214   3.787   0.442 -0.1757  0.4329 -0.2238
  145SOL    HW3  579   3.087   3.708   0.418  0.0603 -0.0968  0.2382
  145SOL    MW4  580   3.129   3.784   0.424 -0.1752  0.0701 -0.1817
  146SOL     OW  581   0.141   2.795   0.698  0.1132  0.4859 -0.6973
  146SOL    HW2  582   0.147   2.701   0.683  1.5508  0.1871  1.4926
  146SOL    HW3  583   0.050   2.817   0.680 -0.6201 -1.6358  0.3328
  146SOL    MW4  584   0.130   2.786   0.694  0.2061  0.1665 -0.2724
  147SOL     OW  585   1.959   0.644   0.558 -0.5527 -0.1256 -0.7100
  147SOL    HW2  586   1.970   0.613   0.468  0.1350 -0.8054 -0.3905
  147SOL    HW3  587   2.003   0.579   0.612  0.6181  1.1966 -0.0083
  147SOL    MW4  588   1.967   0.632   0.553 -0.3075 -0.0409 -0.5753
  148SOL     OW  589   1.857   2.378   2.163 -0.4826 -0.1438  0.3984
  148SOL    HW2  590   1.854   2.325   2.084 -0.5045  0.9129 -0.3142
  148SOL    HW3  591   1.934   2.347   2.210 -0.3446 -0.6145 -0.1408
  148SOL    MW4  592   1.867   2.367   2.159 -0.4673 -0.0665  0.2333
  149SOL     OW  593   3.354   3.620   1.201 -0.8013  0.0602 -0.3538
  149SOL    HW2  594   3.290   3.668   1.148  0.5238  1.4327 -0.7472
  149SOL    HW3  595   3.308   3.604   1.284 -2.5243 -1.2101 -1.5197
  149SOL    MW4  596   3.339   3.624   1.205 -0.8538  0.0737 -0.5595
  150SOL     OW  597   0.464   1.639   2.165  0.3698  0.3964 -0.0529
  150SOL    HW2  598   0.451   1.633   2.070  1.0853 -0.0664 -0.1211
  150SOL    HW3  599   0.543   1.589   2.182 -0.3192 -0.3825  0.9282
  150SOL    MW4  600   0.473   1.632   2.155  0.3733  0.2326  0.0676
  151SOL     OW  601   0.280   1.564   0.731 -0.0322 -0.3223 -0.1584
  151SOL    HW2  602   0.352   1.542   0.671  0.2758 -0.6972  0.3423
  151SOL    HW3  603   0.256   1.481   0.771 -0.6550 -0.1717 -0.2169
  151SOL    MW4  604   0.287   1.551   0.728 -0.0738 -0.3519 -0.1001
  152SOL     OW  605   3.225   3.305   1.553 -0.2564 -0.1631  0.0044
  152SOL    HW2  606   3.319   3.312   1.569 -0.4987  0.6071  1.1714
  152SOL    HW3  607   3.184   3.333   1.635 -1.5605  1.9301 -1.3212
  152SOL    MW4  608   3.232   3.309   1.566 -0.4605  0.2147 -0.0165
  153SOL     OW  609   2.929   3.655   1.276 -0.0318  0.1631 -0.3287
  153SOL    HW2  610   2.940   3.743   1.312 -0.1458 -0.4916  1.3821
  153SOL    HW3  611   3.005   3.607   1.309  0.0941 -0.3529 -1.3573
  153SOL    MW4  612   2.941   3.660   1.285 -0.0302  0.0086 -0.2387
  154SOL     OW  613   1.377   2.465   0.812 -0.3470  0.0757 -0.0766
  154SOL    HW2  614   1.359   2.518   0.735  0.4372 -1.2484 -1.2085
  154SOL    HW3  615   1.304   2.403   0.816 -1.3019  1.2597  1.2854
  154SOL    MW4  616   1.365   2.464   0.802 -0.3695  0.0572 -0.0462
  155SOL     OW  617   1.698   0.301   1.733 -0.0374 -0.3395  0.1127
  155SOL    HW2  618   1.616   0.293   1.684  0.2527 -1.1299 -0.2595
  155SOL    HW3  619   1.766   0.294   1.666  0.3279  0.7969  0.3630
  155SOL    MW4  620   1.696   0.299   1.718  0.0490 -0.2939  0.0966
  156SOL     OW  621   1.637   1.594   1.986 -0.0985 -0.0060 -0.2999
  156SOL    HW2  622   1.679   1.600   1.900  0.1928  0.9442 -0.1052
  156SOL    HW3  623   1.547   1.567   1.967  0.3024 -1.0000 -0.8054
  156SOL    MW4  624   1.631   1.591   1.972 -0.0072 -0.0118 -0.3409
  157SOL     OW  625   3.327   2.173   0.418  0.2392  0.1203  0.2758
  157SOL    HW2  626   3.350   2.087   0.453 -0.3027 -0.2186 -0.1947
  157SOL    HW3  627   3.233   2.166   0.398  0.5988  0.1893 -1.5601
  157SOL    MW4  628   3.317   2.161   0.420  0.2151  0.0847 -0.0285
  158SOL     OW  629   0.876   0.773   1.213  0.0339  0.2436  0.2442
  158SOL    HW2  630   0.899   0.857   1.174  0.6372 -0.0583 -0.0562
  158SOL    HW3  631   0.915   0.708   1.154 -1.8162 -0.2905 -0.4287
  158SOL    MW4  632   0.885   0.775   1.200 -0.1306  0.1333  0.1158
  159SOL     OW  633   3.112   2.567   0.821  0.2078 -0.2886  0.4776
  159SOL    HW2  634   3.030   2.550   0.867  0.0959  0.6124  0.6295
  159SOL    HW3  635   3.085   2.588   0.732  0.4575 -2.5105 -0.1497
  159SOL    MW4  636   3.097   2.568   0.816  0.2260 -0.4629  0.4149
  160SOL     OW  637   4.217   3.504   1.657  0.0382  0.2135  0.2579
  160SOL    HW2  638   4.177   3.422   1.686  1.3433  0.0279  1.6151
  160SOL    HW3  639   4.277   3.478   1.586  0.3329  0.0139  0.5795
  160SOL    MW4  640   4.220   3.490   1.651  0.2492  0.1627  0.4794
  161SOL     OW  641   3.415   4.128   1.117  0.1575  0.4813 -0.0551
  161SOL    HW2  642   3.451   4.074   1.045  1.0799  0.9031  0.0810
  161SOL    HW3  643   3.458   4.094   1.196 -1.1858 -0.2689  0.3546
  161SOL    MW4  644   3.426   4.116   1.118  0.1020  0.4379  0.0169
  162SOL     OW  645   1.465   0.242   1.197  0.1301 -0.0850 -0.1488
  162SOL    HW2  646   1.461   0.206   1.108  0.5001  0.7482 -0.5054
  162SOL    HW3  647   1.553   0.220   1.228 -0.2047 -0.9013  0.2420
  162SOL    MW4  648   1.476   0.235   1.189  0.1347 -0.0828 -0.1443
  163SOL     OW  649   3.287   2.906   0.335 -0.1010 -0.3380  0.5209
  163SOL    HW2  650   3.365   2.919   0.388 -0.2705  0.0688  0.6698
  163SOL    HW3  651   3.284   2.983   0.277  0.5620 -1.1945 -0.6701
  163SOL    MW4  652   3.297   2.918   0.334 -0.0359 -0.3973  0.3834
  164SOL     OW  653   1.564   0.559   1.477  0.4916  0.0280 -0.3831
  164SOL    HW2  654   1.516   0.641   1.466 -1.0279 -0.7264  0.4541
  164SOL    HW3  655   1.649   0.584   1.512  0.5472  1.3515 -1.4405
  164SOL    MW4  656   1.568   0.573   1.480  0.2984  0.1031 -0.4122
  165SOL     OW  657   0.634   0.797   1.775  0.5389  0.1323 -0.0677
  165SOL    HW2  658   0.652   0.703   1.776 -0.5851 -0.1292 -2.6624
  165SOL    HW3  659   0.553   0.806   1.826  0.4768 -0.3247 -0.0836
  165SOL    MW4  660   0.626   0.785   1.782  0.3824  0.0375 -0.4122
  166SOL     OW  661   1.905   2.720   0.591 -0.4619 -0.0356  0.1641
  166SOL    HW2  662   1.929   2.628   0.600 -0.0857 -0.0419 -0.9108
  166SOL    HW3  663   1.861   2.741   0.674 -1.3774 -1.4240  0.0505
  166SOL    MW4  664   1.902   2.711   0.603 -0.5331 -0.2196  0.0073
  167SOL     OW  665   2.077   2.175   1.548 -0.4705  0.3347 -0.3201
  167SOL    HW2  666   2.018   2.166   1.473  1.1573 -0.4614 -1.5092
  167SOL    HW3  667   2.148   2.114   1.531  1.3117  2.1308  0.5404
  167SOL    MW4  668   2.078   2.166   1.536 -0.0206  0.4667 -0.3635
  168SOL     OW  669   2.195   1.841   0.985  0.1300  0.0414 -0.1717
  168SOL    HW2  670   2.164   1.752   1.000  1.7597 -0.7596 -1.3913
  168SOL    HW3  671   2.182   1.856   0.892 -0.4892  1.2438  0.0914
  168SOL    MW4  672   2.189   1.832   0.975  0.2633  0.0944 -0.2979
  169SOL     OW  673   2.272   2.534   0.922  0.2191 -0.2091  0.1400
  169SOL    HW2  674   2.180   2.546   0.946  0.3675 -0.2555  0.7427
  169SOL    HW3  675   2.299   2.618   0.887  0.0863 -0.0421  0.4371
  169SOL    MW4  676   2.264   2.546   0.920  0.2212 -0.1932  0.2587
  170SOL     OW  677   3.667   4.140   0.445 -0.1027  0.4754 -0.0807
  170SOL    HW2  678   3.681   4.109   0.534  1.3654  0.5214 -0.2782
  170SOL    HW3  679   3.629   4.066   0.398  1.1424 -0.2440  0.0447
  170SOL    MW4  680   3.664   4.126   0.451  0.2553  0.3866 -0.0902
  171SOL     OW  681   0.242   1.365   1.082  0.2327  0.6289  0.2865
  171SOL    HW2  682   0.186   1.410   1.145 -2.0633  0.1848 -1.3682
  171SOL    HW3  683   0.194   1.371   0.999  1.1248 -2.5047 -0.5239
  171SOL    MW4  684   0.228   1.372   1.079  0.0475  0.1569 -0.0388
  172SOL     OW  685   3.378   3.730   0.505  0.3320  0.2200  0.6187
  172SOL    HW2  686   3.360   3.757   0.595 -2.2503  1.5045 -0.2359
  172SOL    HW3  687   3.439   3.795   0.472  0.0646  0.6438  0.9603
  172SOL    MW4  688   3.383   3.742   0.513 -0.0440  0.4454  0.5510
  173SOL     OW  689   2.802   3.433   1.405 -0.5897 -0.5065  0.0453
  173SOL    HW2  690   2.723   3.468   1.446 -0.1558  0.3103  0.1803
  173SOL    HW3  691   2.837   3.505   1.354 -0.4781 -1.1774 -0.8286
  173SOL    MW4  692   2.796   3.447   1.404 -0.5177 -0.4873 -0.0522
  174SOL     OW  693   1.023   2.088   1.564  0.0774  0.4290  0.2055
  174SOL    HW2  694   1.044   2.125   1.478  3.8226  1.3957  1.4226
  174SOL    HW3  695   1.076   2.008   1.568 -1.4371 -0.5414  0.9445
  174SOL    MW4  696   1.033   2.082   1.553  0.3717  0.4285  0.4636
  175SOL     OW  697   3.169   1.443   1.141  0.4068 -0.6072 -0.2736
  175SOL    HW2  698   3.219   1.428   1.060  1.3192  0.4021  0.0885
  175SOL    HW3  699   3.234   1.437   1.211 -0.1255 -0.1039  0.2746
  175SOL    MW4  700   3.184   1.440   1.140  0.4570 -0.4076 -0.1535
  176SOL     OW  701   2.563   3.178   1.127  0.0705  0.6894 -0.0817
  176SOL    HW2  702   2.600   3.106   1.178 -1.1280  0.1362  0.0024
  176SOL    HW3  703   2.556   3.143   1.038 -1.1675  0.4633  0.0994
  176SOL    MW4  704   2.567   3.164   1.122 -0.2510  0.5866 -0.0467
  177SOL     OW  705   0.843   2.369   0.703  0.1346  0.3917  0.3280
  177SOL    HW2  706   0.829   2.342   0.612  1.9908 -0.1433  0.1813
  177SOL    HW3  707   0.911   2.435   0.698  1.1024 -0.4988  1.4355
  177SOL    MW4  708   0.850   2.374   0.690  0.5072  0.2036  0.4548
  178SOL     OW  709   0.117   2.453   1.540  0.3935 -0.4717 -0.5045
  178SOL    HW2  710   0.202   2.418   1.512  1.1666  0.8883  0.1169
  178SOL    HW3  711   0.122   2.546   1.520 -0.2647 -0.0650  1.1903
  178SOL    MW4  712   0.129   2.460   1.533  0.4086 -0.2386 -0.1989
  179SOL     OW  713   1.624   0.260   0.377  0.1139  0.3879  0.2585
  179SOL    HW2  714   1.606   0.334   0.434 -0.4300 -0.7572  1.5983
  179SOL    HW3  715   1.540   0.217   0.366  0.4682 -0.1601 -0.3318
  179SOL    MW4  716   1.611   0.264   0.383  0.0889  0.1645  0.3574
  180SOL     OW  717   0.381   4.255   2.227  0.0285 -0.1560  0.4355
  180SOL    HW2  718   0.291   4.288   2.225 -0.2974 -1.1000 -1.6624
  180SOL    HW3  719   0.373   4.163   2.202  1.6650 -0.0223 -0.6468
  180SOL    MW4  720   0.368   4.247   2.224  0.2015 -0.2629  0.0159
  181SOL     OW  721   0.896   4.469   1.357  0.4816 -0.0526  0.4442
  181SOL    HW2  722   0.895   4.562   1.377 -1.1833  0.0095  0.1012
  181SOL    HW3  723   0.870   4.426   1.439  0.4931 -0.1701  0.3867
  181SOL    MW4  724   0.893   4.475   1.371  0.2635 -0.0599  0.3914
  182SOL     OW  725   0.875   0.527   1.513  0.1939  0.1167  0.6139
  182SOL    HW2  726   0.811   0.484   1.456 -0.8092  0.4398  1.4840
  182SOL    HW3  727   0.958   0.517   1.467 -0.3201 -1.1602 -0.0681
  182SOL    MW4  728   0.878   0.520   1.499 -0.0062 -0.0091  0.6387
  183SOL     OW  729   0.133   0.924   1.876  0.6886 -0.2311  0.4379
  183SOL    HW2  730   0.228   0.927   1.883  0.6247 -0.6103  1.4210
  183SOL    HW3  731   0.111   1.001   1.822  1.5338 -0.0731  0.3133
  183SOL    MW4  732   0.143   0.935   1.870  0.7917 -0.2603  0.5512
  184SOL     OW  733   1.041   4.552   0.304 -0.1132 -0.2117  0.1913
  184SOL    HW2  734   0.992   4.470   0.299 -0.3537 -0.1430  1.2900
  184SOL    HW3  735   1.131   4.526   0.287 -0.0649 -0.8398  1.3192
  184SOL    MW4  736   1.046   4.537   0.301 -0.1385 -0.2855  0.4851
  185SOL     OW  737   4.169   1.108   0.834 -0.2426 -0.1176 -0.3169
  185SOL    HW2  738   4.216   1.184   0.801 -0.7888  1.0948  1.6288
  185SOL    HW3  739   4.202   1.095   0.923 -1.5372 -0.9837  0.0592
  185SOL    MW4  740   4.179   1.116   0.841 -0.4855 -0.0720 -0.0106
  186SOL     OW  741   0.919   2.730   2.235 -0.1646  0.1191 -0.1816
  186SOL    HW2  742   0.898   2.638   2.221 -1.9280  0.5246 -0.2683
  186SOL    HW3  743   0.951   2.735   2.325 -1.6776 -0.2923  0.3752
  186SOL    MW4  744   0.921   2.719   2.245 -0.5969  0.1183 -0.1196
  187SOL     OW  745   4.242   2.699   1.539 -0.5401  0.5370  0.5329
  187SOL    HW2  746   4.278   2.658   1.460 -0.3965  1.4826  0.1041
  187SOL    HW3  747   4.314   2.751   1.574 -1.1303  1.4902  0.3390
  187SOL    MW4  748   4.256   2.700   1.533 -0.5990  0.7875  0.4507
  188SOL     OW  749   3.473   0.780   0.586 -0.1895 -0.5494  0.1380
  188SOL    HW2  750   3.505   0.690   0.592 -0.0883 -0.3929  2.4004
  188SOL    HW3  751   3.544   0.833   0.623 -0.1659  0.4808 -1.3540
  188SOL    MW4  752   3.487   0.775   0.592 -0.1730 -0.3929  0.2397
  189SOL     OW  753   3.088   3.367   1.818  0.1652  0.1106  0.2557
  189SOL    HW2  754   3.139   3.432   1.770 -0.0334 -0.4822 -0.7759
  189SOL    HW3  755   3.151   3.326   1.877  0.5846  0.3196 -0.0405
  189SOL    MW4  756   3.103   3.370   1.819  0.1944  0.0600  0.0806
  190SOL     OW  757   1.453   4.068   1.564 -0.0355  0.2845 -0.0325
  190SOL    HW2  758   1.362   4.062   1.590 -0.1886 -2.1313 -0.9708
  190SOL    HW3  759   1.501   4.085   1.645 -1.0478 -1.2951  0.9127
  190SOL    MW4  760   1.447   4.070   1.578 -0.1893 -0.2427 -0.0316
  191SOL     OW  761   1.819   3.995   1.679 -0.3547  0.2612 -0.4495
  191SOL    HW2  762   1.841   3.996   1.586 -0.1046 -2.5424 -0.4389
  191SOL    HW3  763   1.897   3.961   1.722  0.5139  3.9938  1.1159
  191SOL    MW4  764   1.832   3.991   1.673 -0.2071  0.3838 -0.2416
  192SOL     OW  765   1.718   0.585   1.220 -0.2222 -0.0107 -0.0918
  192SOL    HW2  766   1.658   0.549   1.155  0.3276 -3.3934  1.1587
  192SOL    HW3  767   1.686   0.552   1.304  1.8414  0.2976  0.8660
  192SOL    MW4  768   1.706   0.576   1.223  0.1226 -0.4163  0.1995
  193SOL     OW  769   4.158   1.328   1.984  0.3298  0.1490  0.2612
  193SOL    HW2  770   4.102   1.404   2.001  1.6287  1.0887  0.4828
  193SOL    HW3  771   4.201   1.311   2.068  0.0339 -0.8594  0.2181
  193SOL    MW4  772   4.156   1.336   1.997  0.4621  0.1399  0.2848
  194SOL     OW  773   1.412   0.040   1.964 -0.2772  0.4400 -0.1067
  194SOL    HW2  774   1.349   0.060   1.894 -0.4619 -1.5019 -0.5382
  194SOL    HW3  775   1.488   0.004   1.918  0.4177  1.0276  0.5605
  194SOL    MW4  776   1.414   0.038   1.949 -0.2099  0.2613 -0.0756
  195SOL     OW  777   3.671   1.754   1.159 -0.1459  0.1723  0.2990
  195SOL    HW2  778   3.650   1.685   1.222 -1.5463  0.3770  0.0700
  195SOL    HW3  779   3.647   1.835   1.203 -2.0469  0.2566 -0.8424
  195SOL    MW4  780   3.665   1.755   1.173 -0.5815  0.2104  0.1182
  196SOL     OW  781   0.130   4.333   1.082  0.0009 -0.1019 -0.3627
  196SOL    HW2  782   0.096   4.244   1.093  1.1984 -0.4951  0.3213
  196SOL    HW3  783   0.187   4.327   1.004  0.1857  0.0299 -0.2387
  196SOL    MW4  784   0.133   4.320   1.073  0.1833 -0.1364 -0.2561
  197SOL     OW  785   3.765   0.933   0.937 -0.2177  0.1287  0.2310
  197SOL    HW2  786   3.743   0.961   0.848  0.6804  0.1988  0.0295
  197SOL    HW3  787   3.731   1.004   0.993 -0.9047  0.0180 -0.0388
  197SOL    MW4  788   3.758   0.946   0.933 -0.1899  0.1234  0.1688
  198SOL     OW  789   1.839   3.455   1.143 -0.8039 -0.1198  0.3563
  198SOL    HW2  790   1.910   3.497   1.191 -0.9024 -0.1024  0.4889
  198SOL    HW3  791   1.759   3.497   1.178 -0.8826 -0.1991  0.2699
  198SOL    MW4  792   1.838   3.466   1.154 -0.8273 -0.1280  0.3624
  199SOL     OW  793   0.189   1.522   1.555  0.6753 -0.1567 -0.3838
  199SOL    HW2  794   0.284   1.521   1.570  0.6013 -1.7981  0.0891
  199SOL    HW3  795   0.168   1.614   1.541  2.4970  0.1138 -1.5376
  199SOL    MW4  796   0.199   1.534   1.555  0.9059 -0.3376 -0.4736
  200SOL     OW  797   3.580   1.999   1.569 -0.4000 -0.2965 -0.2295
  200SOL    HW2  798   3.508   1.987   1.631  0.4049 -1.1680  0.5634
  200SOL    HW3  799   3.601   2.092   1.575  1.9733 -0.9424  3.5007
  200SOL    MW4  800   3.574   2.010   1.578  0.0193 -0.4967  0.3673
  201SOL     OW  801   3.738   0.439   1.055  0.4496 -0.2298  0.1531
  201SOL    HW2  802   3.762   0.521   1.098  0.5159 -0.3633  0.3713
  201SOL    HW3  803   3.644   0.444   1.042  0.4320 -0.1828  0.3023
  201SOL    MW4  804   3.729   0.450   1.059  0.4560 -0.2412  0.2015
  202SOL     OW  805   1.722   1.108   1.794 -0.2757  0.0190  0.3675
  202SOL    HW2  806   1.772   1.061   1.861  1.9658  1.0489 -0.5138
  202SOL    HW3  807   1.690   1.186   1.839  0.8824  0.5081  0.3541
  202SOL    MW4  808   1.724   1.112   1.809  0.1728  0.2194  0.2495
  203SOL     OW  809   0.081   1.786   1.579  0.0929  0.3997  0.0304
  203SOL    HW2  810   0.081   1.847   1.652 -0.3154 -0.0874  0.4431
  203SOL    HW3  811   0.063   1.840   1.502  1.2491  1.0259  0.1851
  203SOL    MW4  812   0.079   1.801   1.578  0.1916  0.4181  0.1053
  204SOL     OW  813   4.167   2.882   1.080  0.1709 -0.1473 -0.0431
  204SOL    HW2  814   4.243   2.865   1.025 -0.2390  0.3081 -0.7572
  204SOL    HW3  815   4.109   2.807   1.064  0.6498 -0.7137  0.8309
  204SOL    MW4  816   4.169   2.870   1.070  0.1800 -0.1620 -0.0220
  205SOL     OW  817   2.865   1.792   1.185 -0.3240 -0.2404 -0.0793
  205SOL    HW2  818   2.849   1.881   1.217  0.1367 -0.2613  0.2179
  205SOL    HW3  819   2.783   1.745   1.200 -0.4553  0.0390  0.0816
  205SOL    MW4  820   2.852   1.798   1.191 -0.2806 -0.2063 -0.0189
  206SOL     OW  821   0.076   2.067   1.677 -0.0369  0.5255 -0.0330
  206SOL    HW2  822   0.032   2.152   1.675  1.8560  1.5133 -1.3839
  206SOL    HW3  823   0.138   2.074   1.749 -1.4284 -0.5735  1.3321
  206SOL    MW4  824   0.078   2.079   1.687  0.0293  0.5108 -0.0311
  207SOL     OW  825   0.032   1.134   1.730  0.0961  0.6949  0.0831
  207SOL    HW2  826  -0.055   1.141   1.769  0.0941 -1.8440  0.6260
  207SOL    HW3  827   0.015   1.116   1.637  0.0690  1.4615 -0.0663
  207SOL    MW4  828   0.018   1.133   1.723  0.0922  0.4611  0.1350
  208SOL     OW  829   0.680   0.236   1.896  0.6610  0.0222 -0.2867
  208SOL    HW2  830   0.679   0.142   1.879  0.7259 -0.0838  0.2853
  208SOL    HW3  831   0.616   0.272   1.834  2.4773 -0.0766 -2.2685
  208SOL    MW4  832   0.671   0.228   1.886  0.9092 -0.0048 -0.4727
  209SOL     OW  833   1.536   4.250   0.104 -0.1163 -0.3521 -0.1300
  209SOL    HW2  834   1.590   4.259   0.183 -0.9377 -1.2504  0.5508
  209SOL    HW3  835   1.583   4.300   0.037 -0.0132  1.4117  1.2228
  209SOL    MW4  836   1.549   4.258   0.106 -0.2111 -0.2379  0.1383
  210SOL     OW  837   0.911   1.479   1.476  0.4900  0.3841 -0.1630
  210SOL    HW2  838   0.980   1.489   1.542  0.5338  0.6286 -0.2474
  210SOL    HW3  839   0.864   1.562   1.476 -0.0621  0.0765  0.1806
  210SOL    MW4  840   0.914   1.491   1.485  0.4229  0.3758 -0.1288
  211SOL     OW  841   1.303   4.491   1.343 -0.1599  0.0712  0.4485
  211SOL    HW2  842   1.312   4.544   1.423 -0.0778  0.2735  0.3053
  211SOL    HW3  843   1.316   4.553   1.272 -0.1784 -0.1210  0.2774
  211SOL    MW4  844   1.306   4.506   1.344 -0.1515  0.0726  0.4071
  212SOL     OW  845   3.725   1.840   1.770 -0.5012 -0.7494  0.2367
  212SOL    HW2  846   3.665   1.768   1.791 -0.8731  0.0645  1.9701
  212SOL    HW3  847   3.673   1.898   1.713 -1.2908 -0.1706  1.5328
  212SOL    MW4  848   3.710   1.838   1.765 -0.6544 -0.5657  0.6364
  213SOL     OW  849   1.166   2.351   2.256  0.6463  0.1725 -0.0783
  213SOL    HW2  850   1.236   2.404   2.218  0.5092  0.9545  0.7507
  213SOL    HW3  851   1.085   2.395   2.229  0.4858 -0.4457 -0.6149
  213SOL    MW4  852   1.164   2.363   2.247  0.6070  0.1941 -0.0397
  214SOL     OW  853   3.188   3.600   1.680 -0.1440  0.2184 -0.1330
  214SOL    HW2  854   3.194   3.660   1.755  1.2747  0.3594 -0.3507
  214SOL    HW3  855   3.098   3.608   1.650 -0.7881  0.0282  1.6808
  214SOL    MW4  856   3.177   3.609   1.686 -0.0418  0.2119  0.0776
  215SOL     OW  857   3.299   3.156   0.185 -0.3173  0.5335  0.2596
  215SOL    HW2  858   3.389   3.141   0.158 -0.6753  0.3942 -0.9014
  215SOL    HW3  859   3.252   3.173   0.103 -0.8476  3.1608  1.0444
  215SOL    MW4  860   3.305   3.156   0.171 -0.4345  0.8618  0.2099
  216SOL     OW  861   3.463   0.539   1.863  0.8391  0.1292  0.2959
  216SOL    HW2  862   3.491   0.488   1.939 -2.4533 -0.5008  1.1589
  216SOL    HW3  863   3.474   0.631   1.891  1.6354 -0.0942  0.7423
  216SOL    MW4  864   3.468   0.545   1.877  0.5097  0.0166  0.4686
  217SOL     OW  865   4.053   3.044   0.887  0.2377 -0.1486  0.1797
  217SOL    HW2  866   4.101   3.011   0.963  1.5737 -0.1543 -0.6390
  217SOL    HW3  867   4.108   3.114   0.852 -1.0837  0.8578  0.0748
  217SOL    MW4  868   4.067   3.049   0.892  0.2396 -0.0165  0.0579
  218SOL     OW  869   0.837   1.759   1.465  0.1770 -0.3528  0.0656
  218SOL    HW2  870   0.840   1.788   1.556 -2.5010 -1.7047  0.6480
  218SOL    HW3  871   0.779   1.821   1.421 -0.5034 -1.1168 -0.1330
  218SOL    MW4  872   0.830   1.771   1.471 -0.2661 -0.6320  0.1162
  219SOL     OW  873   3.997   1.814   1.858 -0.6152  0.1543  0.1883
  219SOL    HW2  874   4.059   1.826   1.787 -1.3915  1.6252 -0.2537
  219SOL    HW3  875   3.911   1.814   1.816 -0.9911 -0.7487  0.9256
  219SOL    MW4  876   3.994   1.815   1.843 -0.7672  0.2292  0.2272
  220SOL     OW  877   1.318   3.780   1.727  0.3259 -0.0142 -0.2987
  220SOL    HW2  878   1.260   3.848   1.692  0.6766  0.0397 -0.7828
  220SOL    HW3  879   1.265   3.701   1.728  0.1245  0.1205 -0.3778
  220SOL    MW4  880   1.303   3.779   1.723  0.3456  0.0107 -0.3730
  221SOL     OW  881   3.611   1.791   0.706  0.1681 -0.0120  0.3137
  221SOL    HW2  882   3.571   1.771   0.791  0.7365 -2.1504  0.1086
  221SOL    HW3  883   3.701   1.816   0.728  0.3843 -0.7953  0.3344
  221SOL    MW4  884   3.618   1.791   0.720  0.2716 -0.3975  0.2893
  222SOL     OW  885   3.377   3.048   1.784 -0.0214  0.0697  0.2571
  222SOL    HW2  886   3.331   3.109   1.842  3.2758  2.9817 -0.0058
  222SOL    HW3  887   3.325   3.046   1.704 -1.3723  0.7749  1.1041
  222SOL    MW4  888   3.364   3.056   1.781  0.2353  0.5469  0.3342
  223SOL     OW  889   0.460   3.877   0.782  0.2201  0.3666 -0.3550
  223SOL    HW2  890   0.445   3.886   0.687  1.9653 -0.7996 -0.7609
  223SOL    HW3  891   0.552   3.855   0.789  0.1431  0.6614  1.6551
  223SOL    MW4  892   0.470   3.875   0.770  0.4402  0.2517 -0.1434
  224SOL     OW  893   0.405   2.784   1.561 -0.2161 -0.1347  0.5382
  224SOL    HW2  894   0.413   2.776   1.657  0.8382 -0.6430  0.4157
  224SOL    HW3  895   0.489   2.752   1.528  0.0262  1.5298 -0.4959
  224SOL    MW4  896   0.418   2.779   1.570 -0.0450  0.0178  0.3856
  225SOL     OW  897   2.645   4.282   0.553  0.2182  0.1502 -0.0195
  225SOL    HW2  898   2.641   4.250   0.463  0.9814 -0.7356  0.2626
  225SOL    HW3  899   2.693   4.215   0.601 -0.0922  0.6655  1.0323
  225SOL    MW4  900   2.651   4.269   0.548  0.2779  0.1013  0.1565
  226SOL     OW  901   2.932   4.414   1.876  0.0720  0.1942  0.4415
  226SOL    HW2  902   2.980   4.336   1.847  0.7440 -0.0287  2.0645
  226SOL    HW3  903   2.919   4.399   1.970  0.9884  2.4497  0.9429
  226SOL    MW4  904   2.936   4.401   1.885  0.2816  0.4624  0.7218
  227SOL     OW  905   2.704   0.767   1.398 -0.0622 -0.5422  0.2155
  227SOL    HW2  906   2.786   0.720   1.381  0.2634  0.1669 -0.2258
  227SOL    HW3  907   2.721   0.815   1.479 -0.1489 -0.6389  0.2907
  227SOL    MW4  908   2.717   0.767   1.407 -0.0306 -0.4614  0.1672
  228SOL     OW  909   1.443   4.091   0.997 -0.0216 -0.8212 -0.0125
  228SOL    HW2  910   1.499   4.145   1.052 -0.9185 -0.9288  1.0191
  228SOL    HW3  911   1.490   4.084   0.914  0.1370  1.5090 -0.1635
  228SOL    MW4  912   1.456   4.097   0.993 -0.1190 -0.5280  0.1037
  229SOL     OW  913   3.775   4.396   2.121 -0.3591 -0.1593 -0.2499
  229SOL    HW2  914   3.767   4.484   2.158 -0.2207 -0.3516  0.2427
  229SOL    HW3  915   3.749   4.406   2.030 -0.6499  0.3327 -0.1148
  229SOL    MW4  916   3.770   4.409   2.114 -0.3792 -0.1197 -0.1671
  230SOL     OW  917   4.114   4.492   1.736 -0.0504 -0.1976 -0.2035
  230SOL    HW2  918   4.195   4.541   1.751 -0.6596  0.5367  0.7459
  230SOL    HW3  919   4.090   4.511   1.646  0.2338  0.4859 -0.1356
  230SOL    MW4  920   4.121   4.501   1.726 -0.0932 -0.0105 -0.0693
  231SOL     OW  921   0.705   1.954   1.305 -0.1235 -0.0115  0.0115
  231SOL    HW2  922   0.619   1.982   1.275  0.7980  1.2678 -1.4649
  231SOL    HW3  923   0.760   1.953   1.227  1.9125  1.8575  1.3455
  231SOL    MW4  924   0.701   1.958   1.291  0.2667  0.4039 -0.0073
  232SOL     OW  925   3.729   0.529   0.773  0.0168  0.2490 -0.4864
  232SOL    HW2  926   3.702   0.508   0.863  1.7090  1.0666  0.2249
  232SOL    HW3  927   3.773   0.451   0.742  2.9904  1.3359  0.8397
  232SOL    MW4  928   3.731   0.516   0.781  0.6324  0.5003 -0.2176
  233SOL     OW  929   2.817   1.227   1.394 -0.0122 -0.0567  0.3947
  233SOL    HW2  930   2.886   1.188   1.448 -0.0415 -0.1749  0.3452
  233SOL    HW3  931   2.861   1.250   1.312 -0.0454 -0.1811  0.3432
  233SOL    MW4  932   2.832   1.225   1.390 -0.0204 -0.0887  0.3814
  234SOL     OW  933   4.180   4.255   1.227  0.7915  0.4042  0.3418
  234SOL    HW2  934   4.106   4.227   1.173  1.2583  1.0382 -0.6464
  234SOL    HW3  935   4.172   4.203   1.307  0.7041 -1.3461 -0.7704
  234SOL    MW4  936   4.169   4.244   1.230  0.8416  0.2569  0.0647
  235SOL     OW  937   0.538   3.043   0.668 -0.1117  1.0066 -0.3034
  235SOL    HW2  938   0.472   2.988   0.625  0.3583  0.5404 -0.4432
  235SOL    HW3  939   0.524   3.028   0.761 -0.5064  1.2670 -0.3222
  235SOL    MW4  940   0.527   3.034   0.675 -0.1017  0.9794 -0.3243
  236SOL     OW  941   2.668   0.904   2.118 -0.2846 -0.1527  0.6928
  236SOL    HW2  942   2.682   0.995   2.144 -1.1485  0.2419 -0.1909
  236SOL    HW3  943   2.599   0.872   2.176  0.0189 -0.2407  1.0028
  236SOL    MW4  944   2.661   0.911   2.129 -0.3586 -0.1123  0.6171
  237SOL     OW  945   1.035   3.534   1.921  0.5472  0.0139 -0.5390
  237SOL    HW2  946   1.091   3.575   1.987  0.1849 -2.1842  1.2242
  237SOL    HW3  947   0.974   3.602   1.895  0.9637  1.0540  1.1263
  237SOL    MW4  948   1.034   3.548   1.926  0.5543 -0.1389 -0.0866
  238SOL     OW  949   1.962   1.687   1.543 -0.3537  0.1646 -0.0036
  238SOL    HW2  950   2.021   1.611   1.538  0.4641  0.7356  0.7042
  238SOL    HW3  951   1.947   1.712   1.452 -0.0771 -0.4293 -0.2157
  238SOL    MW4  952   1.968   1.680   1.531 -0.2093  0.1616  0.0618
  239SOL     OW  953   0.049   1.671   2.165 -0.3454 -0.0558 -0.1988
  239SOL    HW2  954   0.122   1.612   2.184  0.7986  0.9663 -1.3527
  239SOL    HW3  955   0.068   1.749   2.218  0.1291  0.7427 -1.5226
  239SOL    MW4  956   0.061   1.673   2.175 -0.1319  0.1844 -0.5257
  240SOL     OW  957   0.947   3.719   1.229 -0.0465 -0.2891  0.1374
  240SOL    HW2  958   0.983   3.634   1.203  0.7034  0.2347 -0.5820
  240SOL    HW3  959   0.859   3.720   1.191 -0.2567 -0.9601  0.5997
  240SOL    MW4  960   0.941   3.708   1.220  0.0247 -0.3085  0.1035
  241SOL     OW  961   1.277   0.564   0.985 -0.4070 -0.3035  0.3024
  241SOL    HW2  962   1.306   0.650   1.016 -1.6845  0.1893  0.1530
  241SOL    HW3  963   1.289   0.568   0.890  0.4518 -0.6500  0.3904
  241SOL    MW4  964   1.283   0.576   0.976 -0.4622 -0.2842  0.2943
  242SOL     OW  965   3.764   4.375   1.157  0.5338 -0.0404  0.0693
  242SOL    HW2  966   3.697   4.436   1.126  0.3838  0.1907  0.8522
  242SOL    HW3  967   3.724   4.332   1.233  1.8598  1.2396  1.5133
  242SOL    MW4  968   3.750   4.377   1.163  0.6889  0.1590  0.3631
  243SOL     OW  969   1.540   0.461   1.045  0.1341  0.0301 -0.3976
  243SOL    HW2  970   1.519   0.381   1.093  0.0785 -1.1649 -2.3896
  243SOL    HW3  971   1.455   0.501   1.025  0.0488 -0.8502 -1.8098
  243SOL    MW4  972   1.526   0.456   1.049  0.1155 -0.2437 -0.8467
  244SOL     OW  973   1.308   1.868   0.547 -0.0884 -0.7325  0.4431
  244SOL    HW2  974   1.275   1.958   0.542 -2.4564 -1.4665  1.9652
  244SOL    HW3  975   1.392   1.875   0.592  0.0937  0.7864 -0.1018
  244SOL    MW4  976   1.315   1.881   0.552 -0.3768 -0.6289  0.5721
  245SOL     OW  977   2.643   1.829   1.526  0.1283  0.3728 -0.3221
  245SOL    HW2  978   2.610   1.823   1.615 -0.1216  0.7800 -0.3829
  245SOL    HW3  979   2.738   1.822   1.535  0.0200 -1.0194 -0.1709
  245SOL    MW4  980   2.651   1.828   1.539  0.0811  0.2429 -0.3102
  246SOL     OW  981   1.297   2.951   0.924  0.3504  0.4981 -0.5804
  246SOL    HW2  982   1.355   3.018   0.887  0.3005  1.4067  0.9661
  246SOL    HW3  983   1.336   2.929   1.009  0.3799 -1.4555 -1.0759
  246SOL    MW4  984   1.310   2.957   0.930  0.3477  0.3602 -0.4417
  247SOL     OW  985   4.052   1.524   0.838  0.1454 -0.2461  0.1862
  247SOL    HW2  986   4.021   1.503   0.926 -0.7036 -1.4792 -0.3828
  247SOL    HW3  987   3.981   1.495   0.781  0.9195  0.0574 -0.9366
  247SOL    MW4  988   4.038   1.517   0.842  0.1356 -0.3687 -0.0370
  248SOL     OW  989   1.778   0.072   0.729 -0.3349 -0.3259  0.3223
  248SOL    HW2  990   1.801   0.138   0.664 -1.3647  0.5284  0.8184
  248SOL    HW3  991   1.813  -0.010   0.694  0.9565  0.4743 -0.2911
  248SOL    MW4  992   1.786   0.070   0.716 -0.3004 -0.1076  0.3068
  249SOL     OW  993   2.348   0.015   0.466 -0.2541 -0.1694  0.2488
  249SOL    HW2  994   2.326   0.004   0.558  0.5205 -0.5430  0.3923
  249SOL    HW3  995   2.433  -0.027   0.456 -0.2860 -0.0451 -0.6164
  249SOL    MW4  996   2.356   0.008   0.477 -0.1561 -0.2023  0.1536
  250SOL     OW  997   4.285   2.564   0.862 -0.2284  0.0485  0.0795
  250SOL    HW2  998   4.301   2.570   0.768  1.1498 -1.3374  0.1979
  250SOL    HW3  999   4.331   2.639   0.900  1.0222 -0.5791 -0.1651
  250SOL    MW4 1000   4.293   2.574   0.855  0.1184 -0.2171  0.0629
  251SOL     OW 1001   2.831   1.960   0.825 -0.4789 -0.3926  0.0831
  251SOL    HW2 1002   2.863   1.873   0.847 -0.0205 -0.4180 -0.6763
  251SOL    HW3 1003   2.736   1.952   0.828 -0.4457 -0.4641  1.7674
  251SOL    MW4 1004   2.823   1.948   0.828 -0.4140 -0.4054  0.2051
  252SOL     OW 1005   1.069   0.504   1.874  0.6367 -0.4092  0.1847
  252SOL    HW2 1006   1.105   0.496   1.963  0.5928  0.8625  0.3336
  252SOL    HW3 1007   1.024   0.421   1.858  1.7765 -1.1697  0.8422
  252SOL    MW4 1008   1.068   0.492   1.884  0.7813 -0.3417  0.2911
  253SOL     OW 1009   3.816   1.448   1.798  0.1484  0.0832 -0.0122
  253SOL    HW2 1010   3.868   1.494   1.865  0.2452  1.4092 -0.9971
  253SOL    HW3 1011   3.782   1.371   1.844  2.2044 -0.3097  0.9164
  253SOL    MW4 1012   3.819   1.444   1.813  0.4325  0.2063 -0.0197
  254SOL     OW 1013   4.045   2.874   0.672 -0.4277 -0.5724 -0.0321
  254SOL    HW2 1014   3.988   2.917   0.608  2.0195 -0.3633 -2.1158
  254SOL    HW3 1015   4.038   2.930   0.750 -1.6337  0.4843 -0.8686
  254SOL    MW4 1016   4.037   2.887   0.674 -0.2640 -0.4054 -0.4174
  255SOL     OW 1017   1.420   0.853   2.096  0.2688 -0.0428  0.1057
  255SOL    HW2 1018   1.415   0.946   2.072 -1.8164 -0.4625 -1.1825
  255SOL    HW3 1019   1.438   0.808   2.013  1.3810 -0.7981  0.7448
  255SOL    MW4 1020   1.422   0.860   2.082  0.1404 -0.1978  0.0201
  256SOL     OW 1021   3.897   3.902   1.117 -0.4673 -0.1763 -0.2117
  256SOL    HW2 1022   3.988   3.883   1.095 -0.2534  0.2357  0.3092
  256SOL    HW3 1023   3.849   3.824   1.089 -0.0776 -0.0502 -1.2596
  256SOL    MW4 1024   3.902   3.889   1.111 -0.3876 -0.1053 -0.2812
  257SOL     OW 1025   3.400   1.118   1.144 -0.4208 -0.0931 -0.2241
  257SOL    HW2 1026   3.363   1.075   1.067  0.9996 -1.4367 -0.1701
  257SOL    HW3 1027   3.493   1.125   1.126 -0.2485  0.6551  0.8815
  257SOL    MW4 1028   3.407   1.113   1.131 -0.2106 -0.1717 -0.0711
  258SOL     OW 1029   4.466   1.125   2.262  0.0062  0.2619  0.5349
  258SOL    HW2 1030   4.469   1.037   2.226 -3.0495  0.3192  0.0297
  258SOL    HW3 1031   4.469   1.112   2.357  1.4930 -0.2450  0.4372
  258SOL    MW4 1032   4.467   1.112   2.270 -0.2008  0.2026  0.4554
  259SOL     OW 1033   2.332   2.886   1.675  0.1353 -0.2487  0.1082
  259SOL    HW2 1034   2.387   2.957   1.706  0.2354  0.5509 -1.8286
  259SOL    HW3 1035   2.311   2.835   1.754  1.1321  1.1634  1.3040
  259SOL    MW4 1036   2.336   2.888   1.690  0.2800  0.0431  0.0105
  260SOL     OW 1037   2.849   3.894   0.366  0.4395 -0.0368 -0.1940
  260SOL    HW2 1038   2.924   3.834   0.373 -0.1143 -0.7339 -0.0998
  260SOL    HW3 1039   2.785   3.859   0.428 -0.4360 -0.1666 -1.1420
  260SOL    MW4 1040   2.850   3.881   0.375  0.2509 -0.1459 -0.3066
  261SOL     OW 1041   3.800   2.668   1.306 -0.3940 -0.4987 -0.0295
  261SOL    HW2 1042   3.854   2.676   1.228  1.2507 -2.5025  0.8641
  261SOL    HW3 1043   3.847   2.719   1.373 -2.0589  1.6473 -0.4344
  261SOL    MW4 1044   3.814   2.676   1.305 -0.3966 -0.4799  0.0350
  262SOL     OW 1045   0.886   0.011   0.779 -0.0550  0.4910  0.3141
  262SOL    HW2 1046   0.877   0.097   0.739 -0.7877  0.8968  1.3235
  262SOL    HW3 1047   0.928  -0.043   0.712  0.5063  1.6568 -0.2813
  262SOL    MW4 1048   0.891   0.015   0.765 -0.0776  0.6983  0.3687
  263SOL     OW 1049   0.493   0.269   0.808 -0.5681 -0.1107 -0.2825
  263SOL    HW2 1050   0.436   0.344   0.793 -0.5154 -0.0140 -0.0181
  263SOL    HW3 1051   0.434   0.195   0.820 -0.6216 -0.1048 -0.5182
  263SOL    MW4 1052   0.478   0.270   0.808 -0.5682 -0.0971 -0.2787
  264SOL     OW 1053   0.274   3.508   1.254 -0.0470 -0.1121 -0.0128
  264SOL    HW2 1054   0.293   3.426   1.209 -0.3593 -0.4558  0.4703
  264SOL    HW3 1055   0.189   3.535   1.220  0.3533  0.3604 -0.6593
  264SOL    MW4 1056   0.265   3.501   1.244 -0.0354 -0.0951 -0.0344
  265SOL     OW 1057   1.610   3.109   1.283 -0.0003  0.1494  0.1701
  265SOL    HW2 1058   1.518   3.090   1.302 -0.4217  0.7732 -1.1734
  265SOL    HW3 1059   1.609   3.150   1.196  1.5220  0.3817  0.2399
  265SOL    MW4 1060   1.598   3.112   1.274  0.1449  0.2624  0.0020
  266SOL     OW 1061   1.573   4.067   0.736  0.1180 -0.4350  0.2869
  266SOL    HW2 1062   1.630   4.012   0.682 -1.2517  0.4056 -2.0696
  266SOL    HW3 1063   1.614   4.153   0.736  0.0846 -0.4178  0.5423
  266SOL    MW4 1064   1.586   4.071   0.729 -0.0672 -0.3218  0.0097
  267SOL     OW 1065   1.374   1.301   1.025  0.4007  0.0263  0.1743
  267SOL    HW2 1066   1.336   1.288   0.938  0.4131 -0.6635  0.2696
  267SOL    HW3 1067   1.321   1.247   1.084  1.6261 -1.1116  0.2750
  267SOL    MW4 1068   1.362   1.292   1.021  0.5640 -0.2148  0.2001
  268SOL     OW 1069   2.182   1.114   0.951 -0.5111 -0.3498 -0.5277
  268SOL    HW2 1070   2.198   1.029   0.910 -1.3023 -1.2847  1.0353
  268SOL    HW3 1071   2.087   1.117   0.963 -0.5253  0.9337 -0.9375
  268SOL    MW4 1072   2.172   1.103   0.948 -0.6174 -0.3038 -0.3756
  269SOL     OW 1073   0.953   3.872   0.602 -0.4919  0.2921  0.0994
  269SOL    HW2 1074   0.870   3.827   0.587  0.6768 -1.3983 -1.5198
  269SOL    HW3 1075   0.939   3.959   0.566 -1.5163 -0.0297 -0.3121
  269SOL    MW4 1076   0.940   3.877   0.595 -0.4729  0.0266 -0.1686
  270SOL     OW 1077   2.456   4.037   0.518  0.0933 -0.2943  0.4222
  270SOL    HW2 1078   2.398   4.016   0.445 -0.8645  0.0211  1.0891
  270SOL    HW3 1079   2.505   4.113   0.488  0.2498 -0.6345 -0.1894
  270SOL    MW4 1080   2.455   4.044   0.504 -0.0124 -0.2976  0.4295
  271SOL     OW 1081   0.640   4.622   1.854 -0.1349  0.0590 -0.4095
  271SOL    HW2 1082   0.549   4.625   1.885  0.0547  1.4419  0.0580
  271SOL    HW3 1083   0.634   4.583   1.766 -0.9496 -1.6732  0.3827
  271SOL    MW4 1084   0.627   4.617   1.846 -0.2174  0.0129 -0.2433
  272SOL     OW 1085   2.865   2.991   0.553  0.4095 -0.0158 -0.0624
  272SOL    HW2 1086   2.802   2.921   0.572  1.2666 -0.2247  2.0988
  272SOL    HW3 1087   2.950   2.947   0.552  0.8678  0.8521  0.4399
  272SOL    MW4 1088   2.868   2.976   0.555  0.5830  0.0712  0.2890
  273SOL     OW 1089   1.256   3.441   0.629 -0.0096  0.1856 -0.4619
  273SOL    HW2 1090   1.216   3.479   0.707 -1.2028 -0.7670 -0.5938
  273SOL    HW3 1091   1.236   3.347   0.634  0.9871 -0.0848 -1.2663
  273SOL    MW4 1092   1.248   3.433   0.640 -0.0355  0.0242 -0.5854
  274SOL     OW 1093   4.303   3.585   1.921  0.6071  0.0472 -0.0861
  274SOL    HW2 1094   4.273   3.554   1.835 -0.7807  0.5755  0.1939
  274SOL    HW3 1095   4.331   3.675   1.906  0.5445  0.0760 -0.0339
  274SOL    MW4 1096   4.303   3.592   1.908  0.4157  0.1207 -0.0423
  275SOL     OW 1097   4.304   4.445   1.384  0.0447 -0.6593 -0.1823
  275SOL    HW2 1098   4.262   4.380   1.328  0.2998  0.5855 -1.8664
  275SOL    HW3 1099   4.233   4.504   1.410  0.0210 -0.9346  0.3947
  275SOL    MW4 1100   4.289   4.444   1.380  0.0753 -0.5314 -0.3284
  276SOL     OW 1101   3.485   1.316   2.045 -0.0209  0.2210 -0.0021
  276SOL    HW2 1102   3.399   1.286   2.014  0.0882  1.0397 -1.1638
  276SOL    HW3 1103   3.469   1.348   2.133 -1.0675  0.9774 -0.4476
  276SOL    MW4 1104   3.471   1.316   2.052 -0.1446  0.4288 -0.2142
  277SOL     OW 1105   2.368   3.561   1.287  0.4843 -0.6426  0.1903
  277SOL    HW2 1106   2.279   3.555   1.251 -0.2076  0.7114  1.6445
  277SOL    HW3 1107   2.381   3.476   1.330 -0.4875 -0.4824  0.8247
  277SOL    MW4 1108   2.358   3.549   1.288  0.2648 -0.4428  0.4659
  278SOL     OW 1109   3.671   2.914   1.956  0.2299  0.3079 -0.4045
  278SOL    HW2 1110   3.607   2.843   1.945  1.1893 -0.3920 -1.4912
  278SOL    HW3 1111   3.755   2.869   1.966  0.6975  1.2678  0.0087
  278SOL    MW4 1112   3.674   2.899   1.956  0.4182  0.3422 -0.4934
  279SOL     OW 1113   3.215   2.831   0.829  0.1837 -0.0817 -0.0072
  279SOL    HW2 1114   3.138   2.871   0.870  0.3026 -1.0935  1.2637
  279SOL    HW3 1115   3.193   2.738   0.824  0.7918 -0.1787 -0.8648
  279SOL    MW4 1116   3.202   2.824   0.834  0.2796 -0.2280  0.0473
  280SOL     OW 1117   0.618   4.067   1.497 -0.0513  0.0061 -0.2844
  280SOL    HW2 1118   0.527   4.082   1.523 -0.1742 -0.7712 -0.2406
  280SOL    HW3 1119   0.645   3.991   1.549  0.9573  0.8680  0.4838
  280SOL    MW4 1120   0.610   4.059   1.507  0.0656  0.0173 -0.1772
  281SOL     OW 1121   0.766   2.001   1.028 -0.5670  0.0957  0.1999
  281SOL    HW2 1122   0.857   1.981   1.046 -0.5363  0.7250  0.7432
  281SOL    HW3 1123   0.760   2.096   1.033 -1.2962  0.0467  0.3817
  281SOL    MW4 1124   0.777   2.011   1.031 -0.6591  0.1723  0.2955
  282SOL     OW 1125   4.357   3.886   1.209  0.4412  0.2390  0.0475
  282SOL    HW2 1126   4.428   3.945   1.183  1.8465 -1.6973 -0.5704
  282SOL    HW3 1127   4.313   3.864   1.127  1.0958 -1.0534  0.0325
  282SOL    MW4 1128   4.361   3.891   1.195  0.7130 -0.1870 -0.0360
  283SOL     OW 1129   2.711   3.807   0.579 -0.1229  0.1479  0.0225
  283SOL    HW2 1130   2.628   3.834   0.619  0.1438  1.2026 -0.1209
  283SOL    HW3 1131   2.705   3.712   0.572 -1.3979  0.2388 -0.1491
  283SOL    MW4 1132   2.699   3.798   0.583 -0.2560  0.2991 -0.0190
  284SOL     OW 1133   2.524   1.795   1.805  0.4243 -0.3277 -0.2848
  284SOL    HW2 1134   2.438   1.757   1.821 -0.1662  0.8723 -0.5320
  284SOL    HW3 1135   2.586   1.725   1.825 -0.6415 -1.4647 -0.9593
  284SOL    MW4 1136   2.521   1.781   1.810  0.2057 -0.3194 -0.4064
  285SOL     OW 1137   2.028   1.456   2.230  0.2006 -0.1085  0.2579
  285SOL    HW2 1138   2.008   1.465   2.323 -0.3564  1.3200  0.0101
  285SOL    HW3 1139   1.989   1.533   2.190  1.0619 -0.3512 -1.0622
  285SOL    MW4 1140   2.020   1.468   2.237  0.2407  0.0480  0.0510
  286SOL     OW 1141   1.090   1.773   0.696 -0.1310 -0.7467  0.0030
  286SOL    HW2 1142   1.140   1.712   0.750 -1.1283 -0.5703  1.1710
  286SOL    HW3 1143   1.156   1.822   0.647  0.8468 -0.6360  1.3763
  286SOL    MW4 1144   1.105   1.772   0.697 -0.1336 -0.7088  0.3383
  287SOL     OW 1145   2.775   1.380   1.789  0.3726  0.0421 -0.0649
  287SOL    HW2 1146   2.783   1.466   1.829  0.0187  0.5651 -1.1038
  287SOL    HW3 1147   2.719   1.331   1.850  0.8891  0.4103  0.7201
  287SOL    MW4 1148   2.769   1.385   1.803  0.3941  0.1597 -0.0984
  288SOL     OW 1149   3.843   4.570   1.752  0.3083  0.1827 -0.7126
  288SOL    HW2 1150   3.843   4.560   1.657  1.6207  0.9213 -0.8056
  288SOL    HW3 1151   3.933   4.550   1.778 -0.2948 -1.0424  0.4891
  288SOL    MW4 1152   3.855   4.566   1.743  0.4019  0.1185 -0.5663
  289SOL     OW 1153   3.899   2.978   0.459  0.1606  0.0805  0.0900
  289SOL    HW2 1154   3.850   2.941   0.386  1.4150 -1.1089 -0.1767
  289SOL    HW3 1155   3.939   3.057   0.424 -0.6632  0.4632  0.0007
  289SOL    MW4 1156   3.898   2.983   0.445  0.2174 -0.0260  0.0430
  290SOL     OW 1157   1.235   3.509   1.747  0.5365  0.1205  0.4121
  290SOL    HW2 1158   1.290   3.450   1.798 -1.4014 -1.8135  0.3684
  290SOL    HW3 1159   1.158   3.523   1.803 -0.9506 -0.8513 -1.3408
  290SOL    MW4 1160   1.232   3.503   1.761  0.0846 -0.2629  0.1751
  291SOL     OW 1161   2.286   0.474   1.534 -0.5691  0.0447  0.1661
  291SOL    HW2 1162   2.370   0.444   1.499 -0.4556  0.0866  0.4049
  291SOL    HW3 1163   2.308   0.517   1.616 -0.7791  0.4248  0.0217
  291SOL    MW4 1164   2.300   0.476   1.540 -0.5818  0.1004  0.1786
  292SOL     OW 1165   4.437   4.269   1.561 -0.4795  0.1134 -0.0206
  292SOL    HW2 1166   4.381   4.309   1.495  0.0499  0.2121 -0.4128
  292SOL    HW3 1167   4.474   4.342   1.609  0.0977  0.0897 -0.4161
  292SOL    MW4 1168   4.434   4.284   1.558 -0.3335  0.1233 -0.1245
  293SOL     OW 1169   2.124   1.840   0.707  0.0221 -0.1118 -0.1270
  293SOL    HW2 1170   2.063   1.914   0.714  0.9005  0.5128  1.0561
  293SOL    HW3 1171   2.086   1.784   0.640 -1.3634  0.7449 -0.0696
  293SOL    MW4 1172   2.111   1.843   0.699 -0.0448  0.0837  0.0367
  294SOL     OW 1173   4.429   0.504   0.789  0.3096 -0.6477 -0.3264
  294SOL    HW2 1174   4.502   0.467   0.839  0.0008 -0.0338  0.5910
  294SOL    HW3 1175   4.374   0.547   0.855  0.3955  1.0047 -1.3206
  294SOL    MW4 1176   4.431   0.505   0.805  0.2802 -0.3487 -0.3365
  295SOL     OW 1177   2.591   4.435   1.169 -0.1948  0.1154 -0.0348
  295SOL    HW2 1178   2.557   4.371   1.231 -0.5269  0.6112  0.3010
  295SOL    HW3 1179   2.526   4.438   1.099 -0.1904  0.0963 -0.0395
  295SOL    MW4 1180   2.578   4.427   1.168 -0.2381  0.1783  0.0089
  296SOL     OW 1181   3.824   1.146   1.377 -0.0200 -0.1081  0.2033
  296SOL    HW2 1182   3.913   1.110   1.381 -0.0692 -0.2158  0.3344
  296SOL    HW3 1183   3.777   1.099   1.446 -0.4174 -0.6985 -0.4670
  296SOL    MW4 1184   3.830   1.135   1.387 -0.0789 -0.2002  0.1322
  297SOL     OW 1185   3.111   0.092   2.197  0.2658 -0.9023 -0.2855
  297SOL    HW2 1186   3.106   0.174   2.245  1.0355 -0.4356 -0.9770
  297SOL    HW3 1187   3.188   0.048   2.234 -0.2538 -1.4010  0.2119
  297SOL    MW4 1188   3.121   0.097   2.208  0.2988 -0.9065 -0.3111
  298SOL     OW 1189   0.057   3.215   2.233  0.5372  0.2826 -0.0230
  298SOL    HW2 1190   0.037   3.198   2.141 -0.3640  0.5114  0.1332
  298SOL    HW3 1191   0.013   3.297   2.253  2.6326  1.4347 -0.0228
  298SOL    MW4 1192   0.049   3.223   2.224  0.6948  0.4648 -0.0023
  299SOL     OW 1193   1.202   3.569   1.316  0.3117  0.2334  0.2080
  299SOL    HW2 1194   1.227   3.536   1.229 -0.5000  0.5861 -0.1724
  299SOL    HW3 1195   1.280   3.557   1.370  0.9264  0.2870 -0.6527
  299SOL    MW4 1196   1.216   3.563   1.311  0.2857  0.2870  0.0442
  300SOL     OW 1197   1.835   0.680   1.539 -0.2314 -0.1439  0.0834
  300SOL    HW2 1198   1.871   0.768   1.527  0.1825  0.0393  2.5339
  300SOL    HW3 1199   1.893   0.623   1.490  0.6385  0.7161  0.1034
  300SOL    MW4 1200   1.847   0.684   1.531 -0.0620 -0.0062  0.4094
  301SOL     OW 1201   0.499   4.124   0.935  0.3107  0.0918 -0.3238
  301SOL    HW2 1202   0.487   4.061   0.864  1.0646  1.5570 -1.7840
  301SOL    HW3 1203   0.593   4.138   0.939  0.4249 -1.0571  1.9647
  301SOL    MW4 1204   0.510   4.118   0.926  0.4253  0.1336 -0.2145
  302SOL     OW 1205   1.348   1.313   1.561  0.3925  0.1441  0.2552
  302SOL    HW2 1206   1.272   1.370   1.567  0.4554  0.3812 -1.1856
  302SOL    HW3 1207   1.423   1.369   1.582  0.3913  0.4316 -0.5190
  302SOL    MW4 1208   1.348   1.328   1.565  0.4006  0.2133 -0.0370
  303SOL     OW 1209   2.358   0.156   1.945  0.8841 -0.0268  0.1780
  303SOL    HW2 1210   2.352   0.169   2.040  1.8626  1.0329  0.1128
  303SOL    HW3 1211   2.281   0.200   1.910  0.6558 -0.1934  0.4738
  303SOL    MW4 1212   2.347   0.164   1.953  0.9831  0.0911  0.2084
  304SOL     OW 1213   2.778   3.829   1.848 -0.2306  0.1279  0.5234
  304SOL    HW2 1214   2.696   3.860   1.888 -0.4436  0.2484 -0.0037
  304SOL    HW3 1215   2.784   3.737   1.873 -1.0084 -0.1326 -0.2237
  304SOL    MW4 1216   2.768   3.821   1.857 -0.3613  0.1094  0.3553
  305SOL     OW 1217   0.951   4.065   1.566  0.2993 -0.0013 -0.4654
  305SOL    HW2 1218   0.899   4.013   1.626 -1.2605  0.0642 -1.7075
  305SOL    HW3 1219   0.929   4.156   1.588  2.5113  0.1411  1.2608
  305SOL    MW4 1220   0.941   4.070   1.577  0.3853  0.0261 -0.4015
  306SOL     OW 1221   0.730   3.267   0.839  0.0821  0.1836  0.2213
  306SOL    HW2 1222   0.820   3.239   0.851 -0.6284 -1.4444  1.8949
  306SOL    HW3 1223   0.710   3.248   0.747  1.0137 -0.6500  0.1973
  306SOL    MW4 1224   0.739   3.261   0.828  0.1113 -0.1412  0.4390
  307SOL     OW 1225   3.181   0.656   1.020 -0.4147  0.2284  0.2615
  307SOL    HW2 1226   3.158   0.563   1.020 -1.6839  0.5382 -0.8863
  307SOL    HW3 1227   3.224   0.670   0.936 -1.0336  0.8760  0.0503
  307SOL    MW4 1228   3.184   0.646   1.009 -0.6638  0.3547  0.0822
  308SOL     OW 1229   0.206   2.996   1.855 -0.1429  0.0282 -0.1189
  308SOL    HW2 1230   0.267   3.037   1.916  0.9505  0.6550 -1.5946
  308SOL    HW3 1231   0.213   3.049   1.775 -1.3785 -0.8967 -0.8637
  308SOL    MW4 1232   0.215   3.009   1.852 -0.1617 -0.0111 -0.4119
  309SOL     OW 1233   3.358   2.014   2.194  0.4134 -0.1633 -0.4445
  309SOL    HW2 1234   3.283   1.960   2.218  1.5780 -1.8394 -0.4818
  309SOL    HW3 1235   3.381   1.985   2.106 -0.3173  1.9839 -1.3853
  309SOL    MW4 1236   3.351   2.003   2.186  0.4707 -0.1012 -0.5735
  310SOL     OW 1237   3.830   3.667   0.963 -0.1373 -0.6156  0.3265
  310SOL    HW2 1238   3.825   3.715   0.880  0.7081 -2.0620 -0.5796
  310SOL    HW3 1239   3.747   3.621   0.970 -0.3040 -0.3035  0.4000
  310SOL    MW4 1240   3.818   3.667   0.953 -0.0478 -0.7653  0.2166
  311SOL     OW 1241   2.786   0.046   0.543  0.0610  0.1664  0.5427
  311SOL    HW2 1242   2.818   0.126   0.502  0.3788  0.1523  0.7636
  311SOL    HW3 1243   2.865  -0.008   0.554 -0.3629 -0.8794 -1.1738
  311SOL    MW4 1244   2.801   0.049   0.539  0.0470  0.0265  0.3454
  312SOL     OW 1245   3.359   1.495   0.480  0.3385  0.4288  0.1526
  312SOL    HW2 1246   3.350   1.406   0.514 -0.3299 -0.2078 -1.6201
  312SOL    HW3 1247   3.304   1.496   0.402 -0.4017  2.6776  0.6648
  312SOL    MW4 1248   3.350   1.483   0.474  0.1526  0.6415 -0.0137
  313SOL     OW 1249   0.897   0.717   0.473 -0.1000  0.3312 -0.4865
  313SOL    HW2 1250   0.893   0.812   0.463 -1.0298  0.2367 -1.0370
  313SOL    HW3 1251   0.939   0.686   0.392  0.9714  0.3273  0.0505
  313SOL    MW4 1252   0.902   0.725   0.461 -0.0813  0.3182 -0.4882
  314SOL     OW 1253   0.320   3.373   1.930  0.1362 -0.5180 -0.1799
  314SOL    HW2 1254   0.305   3.399   1.839 -0.3522 -0.5647 -0.1146
  314SOL    HW3 1255   0.366   3.289   1.924  0.9431 -0.0637 -0.3865
  314SOL    MW4 1256   0.324   3.365   1.917  0.1782 -0.4643 -0.1986
  315SOL     OW 1257   1.107   0.509   1.366 -0.1459 -0.9087 -0.1781
  315SOL    HW2 1258   1.089   0.525   1.273 -1.6049  0.1712  0.2736
  315SOL    HW3 1259   1.153   0.425   1.367 -0.7555 -1.2893 -1.8153
  315SOL    MW4 1260   1.110   0.500   1.354 -0.4188 -0.8164 -0.3345
  316SOL     OW 1261   2.934   2.292   1.846  0.1341 -0.1106  0.4699
  316SOL    HW2 1262   3.022   2.329   1.847  0.2225 -0.3153  1.5425
  316SOL    HW3 1263   2.908   2.293   1.754  1.9275 -1.5931 -0.0846
  316SOL    MW4 1264   2.943   2.297   1.834  0.3824 -0.3332  0.5382
  317SOL     OW 1265   0.437   2.416   1.488  0.2349  0.2009 -0.8108
  317SOL    HW2 1266   0.397   2.481   1.431  0.9043  1.3451 -0.0128
  317SOL    HW3 1267   0.515   2.459   1.523  0.9691 -1.2095 -0.6504
  317SOL    MW4 1268   0.442   2.430   1.485  0.4201  0.1658 -0.6844
  318SOL     OW 1269   2.085   1.149   1.844  0.4451 -0.1944 -0.0231
  318SOL    HW2 1270   2.109   1.209   1.915  0.6761 -0.8005  0.4154
  318SOL    HW3 1271   2.045   1.074   1.889  0.6671 -0.6137 -0.5316
  318SOL    MW4 1272   2.083   1.147   1.859  0.5048 -0.3297 -0.0323
  319SOL     OW 1273   4.332   0.238   0.757 -0.0493 -0.2450  0.5828
  319SOL    HW2 1274   4.421   0.219   0.728  0.3574 -0.8863  2.2108
  319SOL    HW3 1275   4.338   0.324   0.798  0.1186 -0.8805  1.9178
  319SOL    MW4 1276   4.344   0.247   0.759  0.0265 -0.4134  0.9737
  320SOL     OW 1277   0.053   3.998   0.494  0.0089  0.2120  0.3181
  320SOL    HW2 1278   0.072   4.085   0.460 -0.0176  0.6819  1.4662
  320SOL    HW3 1279   0.051   4.010   0.589  2.8730 -1.5992  0.6575
  320SOL    MW4 1280   0.056   4.011   0.502  0.3833  0.0350  0.5143
  321SOL     OW 1281   4.094   3.091   1.484 -0.2232  0.4558 -0.3158
  321SOL    HW2 1282   4.120   3.138   1.564  0.8636  1.5432 -1.2837
  321SOL    HW3 1283   4.177   3.067   1.443 -0.7812 -0.7294 -0.7564
  321SOL    MW4 1284   4.108   3.094   1.489 -0.1534  0.4429 -0.5016
  322SOL     OW 1285   1.999   0.919   1.500  0.1500 -0.1649 -0.2411
  322SOL    HW2 1286   1.990   0.910   1.405 -1.6900  1.4740 -0.2619
  322SOL    HW3 1287   1.975   1.010   1.517 -0.3530 -0.6827  1.8954
  322SOL    MW4 1288   1.995   0.930   1.490 -0.1592 -0.0170  0.0381
  323SOL     OW 1289   3.298   0.927   0.424  0.2699 -0.4174  0.1394
  323SOL    HW2 1290   3.283   0.865   0.353  1.7740 -0.8976  0.2133
  323SOL    HW3 1291   3.359   0.881   0.483  0.0443  0.4703  1.0738
  323SOL    MW4 1292   3.304   0.913   0.423  0.4386 -0.3636  0.2724
  324SOL     OW 1293   3.912   2.122   1.130  0.0295  0.0430  0.5291
  324SOL    HW2 1294   3.921   2.035   1.092  0.0525  0.3944 -0.2850
  324SOL    HW3 1295   3.965   2.179   1.074  0.2832  0.5252  1.2464
  324SOL    MW4 1296   3.920   2.118   1.118  0.0660  0.1530  0.5163
  325SOL     OW 1297   4.310   2.871   0.617 -0.1777 -0.5644 -0.0902
  325SOL    HW2 1298   4.217   2.879   0.637 -0.1383 -1.8609  0.6186
  325SOL    HW3 1299   4.320   2.783   0.580  0.7413 -0.3647 -0.3421
  325SOL    MW4 1300   4.299   2.860   0.615 -0.0513 -0.7091 -0.0299
  326SOL     OW 1301   1.675   1.907   1.407 -0.4641 -0.1012 -0.0784
  326SOL    HW2 1302   1.609   1.921   1.339  1.1371 -1.0263 -1.8897
  326SOL    HW3 1303   1.745   1.860   1.362 -0.4154 -2.9560  2.7972
  326SOL    MW4 1304   1.675   1.902   1.392 -0.2464 -0.5999  0.0620
  327SOL     OW 1305   2.174   3.931   0.975  0.5609 -0.6981 -0.0065
  327SOL    HW2 1306   2.210   3.847   0.947  1.9557 -0.1023 -0.0477
  327SOL    HW3 1307   2.080   3.924   0.957  0.7906 -1.9225 -0.8041
  327SOL    MW4 1308   2.166   3.919   0.969  0.7752 -0.7811 -0.1171
  328SOL     OW 1309   2.630   2.080   0.526 -0.2856  0.4953 -0.2204
  328SOL    HW2 1310   2.576   2.155   0.553  0.6225  0.5615  1.4853
  328SOL    HW3 1311   2.579   2.004   0.554 -0.6786  0.4954 -0.9259
  328SOL    MW4 1312   2.616   2.080   0.533 -0.2176  0.5040 -0.0885
  329SOL     OW 1313   4.078   0.769   0.619 -0.2750  0.5778  0.0938
  329SOL    HW2 1314   4.133   0.845   0.600  0.5935  0.1108  0.7013
  329SOL    HW3 1315   4.119   0.697   0.571 -1.5178  0.6305 -1.0782
  329SOL    MW4 1316   4.091   0.770   0.610 -0.3244  0.5232  0.0194
  330SOL     OW 1317   3.318   0.524   1.635 -0.6638 -0.4432 -0.3326
  330SOL    HW2 1318   3.367   0.487   1.562 -0.1580  0.5642 -0.5110
  330SOL    HW3 1319   3.382   0.529   1.706 -0.9405 -0.6525 -0.0667
  330SOL    MW4 1320   3.333   0.520   1.635 -0.6335 -0.3379 -0.3211
  331SOL     OW 1321   1.855   2.345   1.176  0.3856  0.3081 -0.3257
  331SOL    HW2 1322   1.851   2.269   1.233 -0.5720  1.4645  1.2183
  331SOL    HW3 1323   1.925   2.399   1.212  0.2291  0.7283 -0.6406
  331SOL    MW4 1324   1.864   2.342   1.188  0.2386  0.5161 -0.1635
  332SOL     OW 1325   1.916   0.783   0.985  0.6382 -0.1943 -0.6305
  332SOL    HW2 1326   1.901   0.830   0.903  1.0372 -0.6027 -0.9368
  332SOL    HW3 1327   1.959   0.701   0.959 -0.2242 -0.8153 -0.1143
  332SOL    MW4 1328   1.920   0.778   0.971  0.5771 -0.3301 -0.6028
  333SOL     OW 1329   0.126   0.165   1.060  0.3301 -0.3154 -0.5206
  333SOL    HW2 1330   0.133   0.254   1.026  0.7057 -0.7734 -1.6462
  333SOL    HW3 1331   0.171   0.168   1.145  0.0475  0.6416 -0.3986
  333SOL    MW4 1332   0.133   0.177   1.067  0.3424 -0.2495 -0.6530
  334SOL     OW 1333   0.008   2.385   0.898 -0.0965 -0.4674  0.2349
  334SOL    HW2 1334  -0.069   2.442   0.901  1.0174  1.1278 -0.8802
  334SOL    HW3 1335  -0.028   2.296   0.903 -1.9098  0.2910  1.0876
  334SOL    MW4 1336  -0.007   2.381   0.899 -0.1888 -0.1569  0.2003
  335SOL     OW 1337   1.191   2.257   0.819  0.2613 -0.1051  0.0315
  335SOL    HW2 1338   1.146   2.284   0.899  0.3112  1.0573 -0.3252
  335SOL    HW3 1339   1.185   2.161   0.819 -0.5709 -0.0576  0.9403
  335SOL    MW4 1340   1.184   2.248   0.830  0.1581  0.0545  0.1043
  336SOL     OW 1341   1.029   2.729   0.245  0.4622 -0.3209 -0.6920
  336SOL    HW2 1342   1.059   2.819   0.236 -0.6143 -0.1011 -2.3106
  336SOL    HW3 1343   0.943   2.736   0.287  0.9930 -0.6981  0.4826
  336SOL    MW4 1344   1.022   2.742   0.250  0.3902 -0.3416 -0.7506
  337SOL     OW 1345   3.624   3.121   2.177  0.1978  0.0962  0.2350
  337SOL    HW2 1346   3.539   3.100   2.216  0.8771  0.4040  1.9301
  337SOL    HW3 1347   3.638   3.053   2.111 -2.3223  1.2730 -1.5568
  337SOL    MW4 1348   3.615   3.109   2.173 -0.0450  0.2921  0.2223
  338SOL     OW 1349   1.723   2.872   1.236  0.0799  0.1939  0.1152
  338SOL    HW2 1350   1.678   2.956   1.247  0.4579  0.6446 -1.5550
  338SOL    HW3 1351   1.746   2.845   1.324 -0.0639  1.8537  0.6801
  338SOL    MW4 1352   1.720   2.879   1.249  0.1108  0.4723 -0.0306
  339SOL     OW 1353   1.808   4.581   1.242  0.2451 -0.2197  0.4266
  339SOL    HW2 1354   1.879   4.612   1.186 -0.1961 -0.3473 -0.2087
  339SOL    HW3 1355   1.849   4.514   1.297  0.8592  0.4518  0.8016
  339SOL    MW4 1356   1.823   4.576   1.242  0.2679 -0.1480  0.3923
  340SOL     OW 1357   4.384   0.860   1.200  0.2094 -0.3591  0.2736
  340SOL    HW2 1358   4.343   0.811   1.271 -0.3797 -0.0366  0.1574
  340SOL    HW3 1359   4.476   0.834   1.203 -0.0428 -1.2369  0.4112
  340SOL    MW4 1360   4.390   0.850   1.210  0.0984 -0.4323  0.2765
  341SOL     OW 1361   1.208   1.140   1.158 -0.1252 -0.1114 -0.3870
  341SOL    HW2 1362   1.158   1.218   1.182  0.3297  0.1820 -0.3947
  341SOL    HW3 1363   1.218   1.093   1.241  2.0219  1.2349  0.1492
  341SOL    MW4 1364   1.203   1.144   1.172  0.2181  0.1049 -0.3173
  342SOL     OW 1365   3.606   3.021   1.332  0.4614  0.3472  0.3574
  342SOL    HW2 1366   3.648   2.949   1.380 -1.5572 -2.4153 -1.8561
  342SOL    HW3 1367   3.658   3.030   1.252  0.9616  1.6942  0.8196
  342SOL    MW4 1368   3.619   3.013   1.328  0.2611  0.1605  0.1264
  343SOL     OW 1369   3.497   4.341   0.367  0.0822 -0.0612 -0.5009
  343SOL    HW2 1370   3.542   4.257   0.376  1.7879  0.8354 -0.5148
  343SOL    HW3 1371   3.567   4.405   0.352 -1.1782  1.3946 -0.3404
  343SOL    MW4 1372   3.512   4.338   0.366  0.1410  0.2492 -0.4816
  344SOL     OW 1373   0.490   1.841   1.632 -0.2362 -0.0116  0.5182
  344SOL    HW2 1374   0.475   1.935   1.620  0.4507  0.2076  1.2859
  344SOL    HW3 1375   0.413   1.810   1.679 -0.5649  0.1295  0.0653
  344SOL    MW4 1376   0.478   1.849   1.637 -0.1889  0.0359  0.5597
  345SOL     OW 1377   1.920   0.945   1.956  0.0423 -0.1178 -0.1284
  345SOL    HW2 1378   1.924   0.862   1.908  0.3531  0.5022 -1.2027
  345SOL    HW3 1379   1.881   0.922   2.040 -1.3417 -1.0925 -1.0032
  345SOL    MW4 1380   1.915   0.931   1.961 -0.0993 -0.1646 -0.3856
  346SOL     OW 1381   0.269   0.120   1.746 -0.3019 -0.1874  0.5343
  346SOL    HW2 1382   0.217   0.199   1.760 -1.2885 -0.8967  0.9312
  346SOL    HW3 1383   0.241   0.087   1.661 -2.4154 -1.9786  1.8601
  346SOL    MW4 1384   0.258   0.126   1.737 -0.7110 -0.5173  0.7616
  347SOL     OW 1385   2.951   4.354   0.813 -0.4159  0.4303 -0.1611
  347SOL    HW2 1386   2.902   4.366   0.894 -1.8556  1.3465 -1.1405
  347SOL    HW3 1387   2.911   4.276   0.773  0.2832 -0.0174  0.0197
  347SOL    MW4 1388   2.939   4.345   0.818 -0.5136  0.4921 -0.2664
  348SOL     OW 1389   0.081   2.868   1.271  0.1654 -0.5029 -0.0672
  348SOL    HW2 1390   0.153   2.930   1.287 -0.3341  0.4253 -1.3420
  348SOL    HW3 1391   0.004   2.923   1.260 -0.3684 -1.3765 -0.7916
  348SOL    MW4 1392   0.080   2.883   1.272  0.0291 -0.4957 -0.3310
  349SOL     OW 1393   2.406   4.082   1.869 -0.8525 -0.3678  0.0426
  349SOL    HW2 1394   2.413   4.079   1.773  1.5902  0.5671  0.1425
  349SOL    HW3 1395   2.421   4.174   1.891 -2.3297 -0.4031  1.2842
  349SOL    MW4 1396   2.409   4.094   1.859 -0.7251 -0.2491  0.2196
  350SOL     OW 1397   0.687   3.757   0.548  0.3248  0.2287  0.7479
  350SOL    HW2 1398   0.648   3.703   0.617  0.2137 -1.3943 -0.5463
  350SOL    HW3 1399   0.615   3.812   0.517  0.1900  0.4342  1.4178
  350SOL    MW4 1400   0.672   3.757   0.553  0.2923  0.0417  0.6656
  351SOL     OW 1401   1.329   3.049   1.223  0.2040  0.0193  0.1120
  351SOL    HW2 1402   1.306   2.961   1.255 -2.4480  1.1819  1.6337
  351SOL    HW3 1403   1.332   3.103   1.302 -0.3160  1.7359 -1.0109
  351SOL    MW4 1404   1.326   3.044   1.238 -0.2145  0.3991  0.1646
  352SOL     OW 1405   2.310   0.897   0.638  0.2160 -0.2331  0.0668
  352SOL    HW2 1406   2.362   0.837   0.586  0.7786  0.1575  0.1692
  352SOL    HW3 1407   2.321   0.867   0.728  0.4180 -0.0433  0.1076
  352SOL    MW4 1408   2.318   0.885   0.643  0.3169 -0.1565  0.0857
  353SOL     OW 1409   3.128   4.083   1.106 -0.5804 -0.2420  0.2572
  353SOL    HW2 1410   3.079   4.146   1.158 -0.1195  1.4880 -1.3576
  353SOL    HW3 1411   3.220   4.098   1.130 -0.5068 -0.6721  0.2558
  353SOL    MW4 1412   3.134   4.093   1.116 -0.5099 -0.0705  0.0440
  354SOL     OW 1413   4.099   0.410   0.799 -0.4918 -0.3066  0.0214
  354SOL    HW2 1414   4.123   0.346   0.867 -1.4653 -0.4321  0.2628
  354SOL    HW3 1415   4.074   0.488   0.848  1.1702  0.4397 -0.2935
  354SOL    MW4 1416   4.099   0.412   0.815 -0.4010 -0.2247  0.0117
  355SOL     OW 1417   2.144   4.203   1.135 -0.1342 -0.2647 -0.2445
  355SOL    HW2 1418   2.050   4.190   1.129 -0.2977  0.6418  0.2804
  355SOL    HW3 1419   2.179   4.117   1.158 -0.6327 -1.0643 -2.3326
  355SOL    MW4 1420   2.136   4.190   1.137 -0.2215 -0.2506 -0.4507
  356SOL     OW 1421   3.277   1.845   0.976 -0.3671  0.2603 -0.3568
  356SOL    HW2 1422   3.261   1.858   1.069 -2.2395  1.5059 -0.8213
  356SOL    HW3 1423   3.325   1.923   0.949 -0.6666  0.3508 -0.6274
  356SOL    MW4 1424   3.281   1.857   0.985 -0.6537  0.4366 -0.4538
  357SOL     OW 1425   2.199   4.022   2.270 -0.5773  0.1465 -0.2084
  357SOL    HW2 1426   2.109   4.012   2.302 -0.5296 -0.2299 -0.1823
  357SOL    HW3 1427   2.227   4.107   2.303 -1.3877  0.8632 -1.3309
  357SOL    MW4 1428   2.191   4.032   2.279 -0.6779  0.1914 -0.3530
  358SOL     OW 1429   2.468   2.818   2.259  0.1437  0.0464 -0.3535
  358SOL    HW2 1430   2.373   2.808   2.268  0.1254  0.8996  0.4461
  358SOL    HW3 1431   2.483   2.823   2.164 -0.5079 -0.9821 -0.5237
  358SOL    MW4 1432   2.457   2.817   2.247  0.0553  0.0233 -0.2704
  359SOL     OW 1433   3.929   4.154   0.356  0.6306 -0.0529 -0.0253
  359SOL    HW2 1434   3.936   4.242   0.319  1.0964 -0.0760  0.0119
  359SOL    HW3 1435   3.837   4.147   0.383  1.1902  1.4163  2.4168
  359SOL    MW4 1436   3.917   4.165   0.355  0.7659  0.1379  0.3018
  360SOL     OW 1437   3.003   2.183   1.071  0.4873 -0.3503  0.4566
  360SOL    HW2 1438   2.970   2.260   1.118  0.7252 -0.1197  0.2518
  360SOL    HW3 1439   2.995   2.207   0.979  0.0632 -0.7836  0.3807
  360SOL    MW4 1440   2.998   2.197   1.065  0.4628 -0.3771  0.4195
  361SOL     OW 1441   0.939   0.816   1.561 -0.5121 -0.4915 -0.2950
  361SOL    HW2 1442   0.902   0.734   1.530 -0.8451 -0.3880 -0.1634
  361SOL    HW3 1443   1.034   0.802   1.558 -0.5948 -1.3444  0.9993
  361SOL    MW4 1444   0.947   0.804   1.556 -0.5670 -0.5904 -0.1069
  362SOL     OW 1445   1.310   2.584   1.557  0.4599 -0.7222 -0.0401
  362SOL    HW2 1446   1.289   2.676   1.538  2.6019  0.2530  1.9949
  362SOL    HW3 1447   1.225   2.540   1.558 -0.7166  1.4449 -0.0109
  362SOL    MW4 1448   1.296   2.591   1.555  0.5873 -0.3076  0.2322
  363SOL     OW 1449   3.722   4.616   0.265 -0.0816  0.2384 -0.3693
  363SOL    HW2 1450   3.748   4.692   0.317  0.7733 -0.1107 -0.2691
  363SOL    HW3 1451   3.631   4.632   0.242 -0.4768  0.3908  1.2507
  363SOL    MW4 1452   3.713   4.628   0.269 -0.0209  0.2124 -0.1423
  364SOL     OW 1453   2.843   0.878   1.894  0.0333  0.3705 -0.3265
  364SOL    HW2 1454   2.794   0.893   1.974 -0.5383 -0.1587 -0.5684
  364SOL    HW3 1455   2.898   0.802   1.914 -1.5423 -0.9819 -1.0567
  364SOL    MW4 1456   2.844   0.870   1.907 -0.2500  0.1223 -0.4548
  365SOL     OW 1457   2.602   0.425   0.405  0.0451 -0.3044  0.2819
  365SOL    HW2 1458   2.641   0.512   0.393 -0.1139 -0.2824 -0.0611
  365SOL    HW3 1459   2.675   0.369   0.430  0.0524  0.0581  1.0967
  365SOL    MW4 1460   2.617   0.429   0.407  0.0251 -0.2537  0.3441
  366SOL     OW 1461   0.888   3.703   1.758 -0.3989  0.3262 -0.1358
  366SOL    HW2 1462   0.904   3.671   1.670 -2.0430 -0.7721 -0.0626
  366SOL    HW3 1463   0.839   3.784   1.746  0.4108  0.8131 -0.2351
  366SOL    MW4 1464   0.884   3.710   1.745 -0.5090  0.2455 -0.1392
  367SOL     OW 1465   0.653   0.242   0.379  0.0933 -0.5602  0.4200
  367SOL    HW2 1466   0.731   0.221   0.327  0.3480  1.4325 -0.0444
  367SOL    HW3 1467   0.621   0.157   0.409  1.4408 -1.5470 -0.8365
  367SOL    MW4 1468   0.659   0.228   0.376  0.3047 -0.4275  0.1929
  368SOL     OW 1469   1.293   0.549   1.712  0.1033  0.3563 -0.0060
  368SOL    HW2 1470   1.220   0.528   1.770  0.0662  1.0151  0.1922
  368SOL    HW3 1471   1.260   0.619   1.656  0.0435 -0.4841 -1.0247
  368SOL    MW4 1472   1.279   0.555   1.712  0.0905  0.3324 -0.1142
  369SOL     OW 1473   3.023   0.877   0.904  0.5385 -0.2265 -0.0053
  369SOL    HW2 1474   2.998   0.916   0.988  2.5544  2.3539 -0.5534
  369SOL    HW3 1475   3.057   0.791   0.927  0.2707  0.1156  1.7454
  369SOL    MW4 1476   3.024   0.871   0.918  0.7692  0.1591  0.1534
  370SOL     OW 1477   2.568   4.280   0.275 -0.5367  0.5787 -0.2857
  370SOL    HW2 1478   2.587   4.373   0.287  0.1215  0.5235 -0.8827
  370SOL    HW3 1479   2.621   4.253   0.200 -0.9561 -0.2077 -0.3126
  370SOL    MW4 1480   2.577   4.288   0.267 -0.5052  0.4676 -0.3680
  371SOL     OW 1481   2.008   0.526   0.280 -0.0696 -0.1429 -0.0533
  371SOL    HW2 1482   2.052   0.440   0.280  0.9251  0.3320 -2.0799
  371SOL    HW3 1483   1.921   0.507   0.246  0.1472 -0.3699 -0.5010
  371SOL    MW4 1484   2.003   0.512   0.275  0.0902 -0.1102 -0.3797
  372SOL     OW 1485   3.316   2.908   1.312  0.1285 -0.1712  0.5976
  372SOL    HW2 1486   3.275   2.954   1.386 -0.5516 -1.1672  0.8369
  372SOL    HW3 1487   3.410   2.917   1.329 -0.0091  0.4091  1.0947
  372SOL    MW4 1488   3.323   2.916   1.324  0.0206 -0.2260  0.6948
  373SOL     OW 1489   2.439   2.850   0.627 -0.4301 -0.1477 -0.1243
  373SOL    HW2 1490   2.403   2.823   0.711  0.2298 -1.3391 -0.2149
  373SOL    HW3 1491   2.529   2.816   0.626 -0.1573  0.5449 -0.9791
  373SOL    MW4 1492   2.446   2.842   0.638 -0.3070 -0.2135 -0.2490
  374SOL     OW 1493   2.816   2.753   1.927 -0.2473 -0.3406 -0.3971
  374SOL    HW2 1494   2.868   2.794   1.857 -1.3650  0.0027 -1.0599
  374SOL    HW3 1495   2.819   2.660   1.908  1.4602 -0.4874  0.5174
  374SOL    MW4 1496   2.823   2.746   1.915 -0.1695 -0.3147 -0.3639
  375SOL     OW 1497   0.507   0.146   1.282  0.2700 -0.6405 -0.1663
  375SOL    HW2 1498   0.513   0.198   1.202  0.8396  0.8060  0.8048
  375SOL    HW3 1499   0.525   0.056   1.254 -1.0757 -0.3856 -1.9139
  375SOL    MW4 1500   0.510   0.141   1.268  0.1676 -0.4160 -0.2688
  376SOL     OW 1501   1.825   2.269   1.918  0.5719  0.3109 -0.3445
  376SOL    HW2 1502   1.732   2.245   1.917  0.7409 -0.5817  1.9971
  376SOL    HW3 1503   1.826   2.359   1.885 -1.2449  0.6577  0.4504
  376SOL    MW4 1504   1.813   2.278   1.914  0.3545  0.2389  0.0693
  377SOL     OW 1505   4.287   0.654   1.391 -0.4955 -0.4054 -0.5316
  377SOL    HW2 1506   4.348   0.613   1.452 -0.0873  0.6387 -0.2273
  377SOL    HW3 1507   4.237   0.582   1.355 -0.4958 -1.0717  0.7792
  377SOL    MW4 1508   4.288   0.639   1.394 -0.4417 -0.3556 -0.3185
  378SOL     OW 1509   2.157   2.256   0.688  0.3055  0.1372 -0.0237
  378SOL    HW2 1510   2.086   2.319   0.696 -0.4473 -0.8646  1.2885
  378SOL    HW3 1511   2.184   2.238   0.778  1.2002 -0.6548 -0.4391
  378SOL    MW4 1512   2.151   2.262   0.701  0.3242 -0.0995  0.0946
  379SOL     OW 1513   4.198   0.530   0.531  0.5682 -0.1237 -0.2902
  379SOL    HW2 1514   4.178   0.462   0.594  0.1828  0.9175  0.7291
  379SOL    HW3 1515   4.293   0.527   0.521  0.8218  0.8273  1.6488
  379SOL    MW4 1516   4.208   0.521   0.538  0.5508  0.1391  0.1001
  380SOL     OW 1517   1.919   1.124   1.002  0.1636  0.0026 -0.7233
  380SOL    HW2 1518   1.882   1.213   0.996  0.6439  0.1490 -1.6768
  380SOL    HW3 1519   1.860   1.070   0.949  0.5092 -0.0297 -1.0776
  380SOL    MW4 1520   1.906   1.129   0.994  0.2726  0.0176 -0.8959
  381SOL     OW 1521   1.401   2.483   2.178 -0.3794  0.2194  0.0675
  381SOL    HW2 1522   1.482   2.454   2.220 -0.3779  0.3822  0.1774
  381SOL    HW3 1523   1.397   2.433   2.096 -0.3373 -0.0342  0.2178
  381SOL    MW4 1524   1.411   2.472   2.173 -0.3737  0.2074  0.1019
  382SOL     OW 1525   3.819   4.502   0.563  0.2097 -0.1804 -0.0994
  382SOL    HW2 1526   3.876   4.504   0.487  0.4940 -1.1622  0.0810
  382SOL    HW3 1527   3.784   4.413   0.565  1.0648 -0.5107  1.5305
  382SOL    MW4 1528   3.822   4.491   0.553  0.3601 -0.3535  0.1395
  383SOL     OW 1529   0.465   0.431   0.483 -0.0777  0.2017 -0.7156
  383SOL    HW2 1530   0.500   0.350   0.447 -1.8913 -0.2902 -1.4609
  383SOL    HW3 1531   0.542   0.482   0.509  1.0744 -2.0161  0.3600
  383SOL    MW4 1532   0.479   0.427   0.482 -0.1650 -0.1558 -0.6720
  384SOL     OW 1533   1.911   1.173   2.291  0.3280 -0.0360  0.3896
  384SOL    HW2 1534   1.994   1.210   2.261  0.6629 -1.1160 -0.0365
  384SOL    HW3 1535   1.845   1.232   2.255  0.9158  1.1952  1.2571
  384SOL    MW4 1536   1.914   1.186   2.282  0.4497 -0.0160  0.4479
  385SOL     OW 1537   0.259   2.288   2.250  0.2919  0.0984  0.0420
  385SOL    HW2 1538   0.170   2.320   2.237  1.2309  2.1985 -1.5549
  385SOL    HW3 1539   0.282   2.315   2.339 -0.2139  0.6624  0.0053
  385SOL    MW4 1540   0.251   2.295   2.260  0.3490  0.4499 -0.1736
  386SOL     OW 1541   2.094   4.063   0.657 -0.3623  0.6838  0.3158
  386SOL    HW2 1542   2.105   4.135   0.718 -2.0101  1.1330  0.1144
  386SOL    HW3 1543   2.117   3.985   0.707 -0.3573  1.1750  1.0849
  386SOL    MW4 1544   2.098   4.062   0.671 -0.5791  0.8079  0.3907
  387SOL     OW 1545   3.313   3.853   0.749 -0.6435  0.2575 -0.0816
  387SOL    HW2 1546   3.237   3.898   0.714 -1.4635 -1.2466 -0.3059
  387SOL    HW3 1547   3.276   3.784   0.804  0.5817  0.3627  0.8825
  387SOL    MW4 1548   3.298   3.850   0.751 -0.5901  0.0729  0.0160
  388SOL     OW 1549   1.221   0.111   0.750 -0.1732  0.0450  0.4608
  388SOL    HW2 1550   1.174   0.028   0.744 -0.3831  0.1739  0.3325
  388SOL    HW3 1551   1.310   0.091   0.721 -0.8284  0.3801 -1.8028
  388SOL    MW4 1552   1.226   0.098   0.746 -0.2873  0.1062  0.1452
  389SOL     OW 1553   3.737   1.223   1.946 -0.0724 -0.2993 -0.2764
  389SOL    HW2 1554   3.709   1.151   1.890  0.0671  0.0709 -0.8285
  389SOL    HW3 1555   3.656   1.262   1.978 -0.1547 -2.1468  1.9314
  389SOL    MW4 1556   3.723   1.219   1.943 -0.0649 -0.4942 -0.0579
  390SOL     OW 1557   3.991   2.826   1.545 -0.6583 -0.3214  0.3764
  390SOL    HW2 1558   4.023   2.913   1.523  0.0443 -1.0752 -1.7802
  390SOL    HW3 1559   4.069   2.770   1.541 -1.4526 -1.4021 -0.3845
  390SOL    MW4 1560   4.006   2.830   1.542 -0.6704 -0.5635 -0.0086
  391SOL     OW 1561   3.576   0.066   1.871 -0.3793  0.1662 -0.0241
  391SOL    HW2 1562   3.492   0.038   1.835 -0.6572  1.5046 -0.4109
  391SOL    HW3 1563   3.633  -0.010   1.857 -1.8044 -1.1852  1.2978
  391SOL    MW4 1564   3.573   0.052   1.864 -0.6040  0.1645  0.0993
  392SOL     OW 1565   2.840   2.703   1.526  0.3379  0.1016 -0.4355
  392SOL    HW2 1566   2.864   2.782   1.477  1.4474  0.5288  0.7742
  392SOL    HW3 1567   2.744   2.699   1.518  0.3533  1.0760 -1.2484
  392SOL    MW4 1568   2.830   2.713   1.519  0.4863  0.2865 -0.3831
  393SOL     OW 1569   2.217   3.957   1.244  0.8854  0.0562 -0.1342
  393SOL    HW2 1570   2.310   3.978   1.254  0.7610  0.0689  1.1909
  393SOL    HW3 1571   2.207   3.929   1.153  1.7719  2.1854 -0.9093
  393SOL    MW4 1572   2.228   3.956   1.234  0.9859  0.3388 -0.0617
  394SOL     OW 1573   1.325   2.195   1.344  0.3493  0.0448  0.5993
  394SOL    HW2 1574   1.346   2.206   1.437 -0.5512 -0.3969  0.8672
  394SOL    HW3 1575   1.229   2.192   1.342  0.3991 -2.7576  0.0045
  394SOL    MW4 1576   1.315   2.196   1.356  0.2370 -0.3832  0.5562
  395SOL     OW 1577   0.834   0.852   0.865  0.1817 -0.0227 -0.2386
  395SOL    HW2 1578   0.859   0.923   0.924 -0.2286  0.2930 -0.4409
  395SOL    HW3 1579   0.793   0.897   0.791  1.1602 -0.3752 -1.0100
  395SOL    MW4 1580   0.832   0.868   0.863  0.2567 -0.0276 -0.3670
  396SOL     OW 1581   1.867   3.634   0.399 -0.3111  0.2394 -0.0387
  396SOL    HW2 1582   1.878   3.641   0.494  2.7762 -0.6450 -0.2768
  396SOL    HW3 1583   1.794   3.573   0.387  1.1735 -1.9839  1.7829
  396SOL    MW4 1584   1.859   3.627   0.410  0.2921 -0.1706  0.1702
  397SOL     OW 1585   1.897   1.689   1.001  0.0900  0.8332  0.2409
  397SOL    HW2 1586   1.872   1.749   0.931 -0.3397 -0.7213 -0.9886
  397SOL    HW3 1587   1.865   1.604   0.972  1.1678 -0.0990  1.6740
  397SOL    MW4 1588   1.890   1.685   0.988  0.1755  0.5051  0.2678
  398SOL     OW 1589   3.417   4.171   0.703 -0.7828 -0.0539 -0.2736
  398SOL    HW2 1590   3.366   4.179   0.622 -0.3254 -0.8497 -0.6466
  398SOL    HW3 1591   3.351   4.159   0.771 -1.1190 -0.7659 -0.7160
  398SOL    MW4 1592   3.401   4.171   0.701 -0.7668 -0.2528 -0.3812
  399SOL     OW 1593   2.079   3.528   1.627 -0.0620 -0.0762 -0.1168
  399SOL    HW2 1594   2.063   3.435   1.641 -0.7402 -0.0281 -0.5639
  399SOL    HW3 1595   2.010   3.556   1.566 -0.8742  1.0852  1.2928
  399SOL    MW4 1596   2.068   3.519   1.621 -0.2587  0.0834  0.0102
  400SOL     OW 1597   0.646   2.963   1.540  0.0513 -0.1848  0.5198
  400SOL    HW2 1598   0.654   2.904   1.616 -0.0310 -1.8835 -0.7551
  400SOL    HW3 1599   0.616   2.906   1.469 -1.1845  1.6595 -0.4555
  400SOL    MW4 1600   0.643   2.948   1.541 -0.1226 -0.1656  0.2229
  401SOL     OW 1601   1.555   3.467   0.968  0.1908  0.1803 -0.3790
  401SOL    HW2 1602   1.601   3.549   0.955  0.8214  0.1360  1.4293
  401SOL    HW3 1603   1.462   3.491   0.970  0.4182  0.9785  1.0072
  401SOL    MW4 1604   1.549   3.481   0.967  0.3040  0.2798  0.0425
  402SOL     OW 1605   3.644   0.082   0.855  0.2523 -0.0378  0.2922
  402SOL    HW2 1606   3.586   0.151   0.823 -1.6693 -0.5731  2.5366
  402SOL    HW3 1607   3.684   0.047   0.775 -0.8764  1.7505 -1.1205
  402SOL    MW4 1608   3.642   0.087   0.840 -0.1501  0.1275  0.4019
  403SOL     OW 1609   3.306   0.968   0.903 -0.2354 -0.3321 -0.0021
  403SOL    HW2 1610   3.220   0.927   0.910  0.2159 -1.4141 -0.6360
  403SOL    HW3 1611   3.368   0.895   0.910  0.6232  0.3816  0.0074
  403SOL    MW4 1612   3.303   0.953   0.905 -0.0626 -0.3807 -0.0845
  404SOL     OW 1613   4.092   0.684   0.886  0.2616  0.3213 -0.0443
  404SOL    HW2 1614   4.047   0.735   0.953  1.2209  1.5162 -0.2803
  404SOL    HW3 1615   4.077   0.733   0.805  1.4950  0.4343 -0.2162
  404SOL    MW4 1616   4.084   0.697   0.884  0.5509  0.4938 -0.0981
  405SOL     OW 1617   1.148   3.178   0.643  0.4210  0.0866 -0.7982
  405SOL    HW2 1618   1.207   3.103   0.638  0.1693 -0.1691  0.0578
  405SOL    HW3 1619   1.095   3.171   0.564 -0.2316 -1.1648 -0.2621
  405SOL    MW4 1620   1.149   3.167   0.632  0.3017 -0.1122 -0.6145
  406SOL     OW 1621   2.572   2.680   1.402 -0.4729 -0.3450  0.0292
  406SOL    HW2 1622   2.500   2.672   1.464  0.7580 -0.5295  1.4500
  406SOL    HW3 1623   2.585   2.591   1.368  0.1017 -0.6133  0.9393
  406SOL    MW4 1624   2.564   2.667   1.406 -0.2347 -0.4047  0.3368
  407SOL     OW 1625   0.461   4.562   0.930 -0.2274 -0.1513  0.0983
  407SOL    HW2 1626   0.393   4.624   0.903  0.2195  0.5652  0.5943
  407SOL    HW3 1627   0.465   4.573   1.026  0.0456 -0.7410  0.1516
  407SOL    MW4 1628   0.452   4.572   0.939 -0.1324 -0.1346  0.1708
  408SOL     OW 1629   0.604   0.811   1.260 -0.0682  0.2389 -0.4801
  408SOL    HW2 1630   0.582   0.795   1.352 -0.3887 -0.3033 -0.6496
  408SOL    HW3 1631   0.699   0.803   1.256 -0.0014  0.8355 -0.0828
  408SOL    MW4 1632   0.613   0.808   1.271 -0.1017  0.2460 -0.4500
  409SOL     OW 1633   3.153   1.862   2.259 -0.8000 -0.5895  0.4671
  409SOL    HW2 1634   3.149   1.884   2.352 -1.9015 -1.2257  0.5754
  409SOL    HW3 1635   3.082   1.912   2.219 -0.4029 -0.4081 -0.0125
  409SOL    MW4 1636   3.143   1.871   2.266 -0.8929 -0.6495  0.4181
  410SOL     OW 1637   0.835   1.705   0.658 -0.4666  0.0567  0.3205
  410SOL    HW2 1638   0.921   1.740   0.684 -0.3107 -1.3823  1.8127
  410SOL    HW3 1639   0.774   1.743   0.720 -0.8323  0.5886 -0.3601
  410SOL    MW4 1640   0.838   1.714   0.669 -0.4943 -0.0630  0.4276
  411SOL     OW 1641   0.619   1.622   1.266  0.1256 -1.1334 -0.1937
  411SOL    HW2 1642   0.678   1.635   1.192  0.6114 -1.0674  0.2034
  411SOL    HW3 1643   0.565   1.701   1.269  1.2602 -0.3777  0.5707
  411SOL    MW4 1644   0.620   1.634   1.256  0.3394 -1.0250 -0.0405
  412SOL     OW 1645   1.432   2.546   1.101 -0.0387 -0.5052  0.2140
  412SOL    HW2 1646   1.410   2.506   1.018  0.8165  0.5317 -0.5237
  412SOL    HW3 1647   1.470   2.475   1.153  2.6460 -0.4177 -1.5246
  412SOL    MW4 1648   1.434   2.531   1.097  0.4284 -0.3568 -0.1127
  413SOL     OW 1649   1.661   4.235   1.720 -0.1007  0.1014  0.5692
  413SOL    HW2 1650   1.714   4.155   1.715 -1.1148 -0.5416  0.0045
  413SOL    HW3 1651   1.687   4.286   1.644 -0.2991 -0.2195  0.2869
  413SOL    MW4 1652   1.672   4.231   1.710 -0.2606 -0.0258  0.4575
  414SOL     OW 1653   2.656   3.204   1.902  0.1002  0.2211  0.2216
  414SOL    HW2 1654   2.636   3.293   1.873  1.6726  0.3693 -0.4486
  414SOL    HW3 1655   2.735   3.180   1.854 -0.2817 -1.5287  0.4324
  414SOL    MW4 1656   2.664   3.213   1.892  0.2573  0.0098  0.1610
  415SOL     OW 1657   1.019   4.580   1.692 -0.3247  0.2571  0.2996
  415SOL    HW2 1658   1.065   4.497   1.683  0.4381  0.7335 -0.2813
  415SOL    HW3 1659   0.981   4.577   1.779 -0.0717 -0.5859  0.3884
  415SOL    MW4 1660   1.020   4.569   1.702 -0.1907  0.2087  0.2347
  416SOL     OW 1661   2.955   1.252   2.224  0.4671 -0.3341  0.3117
  416SOL    HW2 1662   3.027   1.215   2.274  0.8017 -0.0857  0.0098
  416SOL    HW3 1663   2.988   1.262   2.135 -0.0191 -0.4590  0.1121
  416SOL    MW4 1664   2.969   1.249   2.219  0.4471 -0.3178  0.2455
  417SOL     OW 1665   2.334   2.787   0.854  0.3573  0.3202 -0.0213
  417SOL    HW2 1666   2.258   2.845   0.851  0.6195  0.6142 -1.0023
  417SOL    HW3 1667   2.377   2.809   0.937 -1.5000 -0.9810  1.3301
  417SOL    MW4 1668   2.330   2.798   0.865  0.1468  0.1873  0.0276
  418SOL     OW 1669   3.963   0.120   2.145 -0.2186  0.0259 -0.2058
  418SOL    HW2 1670   3.985   0.209   2.173 -0.2723  0.6769 -2.2108
  418SOL    HW3 1671   3.953   0.126   2.050  2.2461 -2.6442 -0.6948
  418SOL    MW4 1672   3.964   0.133   2.136  0.0995 -0.2405 -0.5348
  419SOL     OW 1673   1.863   0.220   0.502  0.4900 -0.3059  0.3818
  419SOL    HW2 1674   1.927   0.225   0.430  1.3251 -1.5727  1.0125
  419SOL    HW3 1675   1.781   0.250   0.463  1.6338  2.1140 -0.2299
  419SOL    MW4 1676   1.861   0.224   0.487  0.7511 -0.1538  0.3843
  420SOL     OW 1677   1.522   3.371   0.702  0.7340  0.1802 -0.0449
  420SOL    HW2 1678   1.441   3.409   0.669  0.6467 -0.3362 -0.4341
  420SOL    HW3 1679   1.530   3.406   0.791 -1.7075 -2.3619  1.2934
  420SOL    MW4 1680   1.512   3.380   0.709  0.4004 -0.2233  0.0803
  421SOL     OW 1681   3.565   1.449   0.841  0.5537  0.1491  0.1771
  421SOL    HW2 1682   3.567   1.535   0.883  1.7594  0.3055 -0.1649
  421SOL    HW3 1683   3.584   1.467   0.749  2.0071 -0.5942  0.3194
  421SOL    MW4 1684   3.568   1.463   0.834  0.9045  0.0716  0.1507
  422SOL     OW 1685   1.006   1.482   0.575 -0.4366 -1.2910  0.2007
  422SOL    HW2 1686   1.078   1.520   0.524 -0.8834 -1.1052 -0.3016
  422SOL    HW3 1687   0.957   1.558   0.608 -0.2344 -1.4123  0.7931
  422SOL    MW4 1688   1.009   1.497   0.573 -0.4689 -1.2825  0.2126
  423SOL     OW 1689   2.987   1.755   0.932 -0.3115  0.0940  0.2834
  423SOL    HW2 1690   2.952   1.779   1.018 -0.6560  0.3211  0.0810
  423SOL    HW3 1691   3.080   1.775   0.938 -0.7100  2.3068 -0.1434
  423SOL    MW4 1692   2.995   1.761   0.944 -0.4095  0.4159  0.2004
  424SOL     OW 1693   1.765   2.004   0.515  0.7912 -0.1142  0.2252
  424SOL    HW2 1694   1.835   2.007   0.579  0.9537  0.6282  0.0098
  424SOL    HW3 1695   1.781   1.923   0.466  1.2275 -0.1766  0.4692
  424SOL    MW4 1696   1.776   1.993   0.517  0.8702 -0.0244  0.2289
  425SOL     OW 1697   3.580   2.461   0.591 -0.0995  0.0272  0.1129
  425SOL    HW2 1698   3.486   2.462   0.607  0.0588  1.3048  1.0550
  425SOL    HW3 1699   3.597   2.375   0.551 -1.4601 -0.7433  1.1357
  425SOL    MW4 1700   3.570   2.449   0.588 -0.2581  0.0941  0.3721
  426SOL     OW 1701   3.014   3.940   1.913  0.0780  0.1696  0.1826
  426SOL    HW2 1702   2.920   3.925   1.910  0.0191 -0.1851  2.8978
  426SOL    HW3 1703   3.027   4.025   1.869 -1.3901 -0.1082 -0.8180
  426SOL    MW4 1704   3.004   3.949   1.907 -0.1234  0.0861  0.4088
  427SOL     OW 1705   3.278   1.914   1.257 -0.0424 -0.2185 -0.4608
  427SOL    HW2 1706   3.255   1.859   1.332 -0.8579  1.8176  0.8271
  427SOL    HW3 1707   3.371   1.931   1.266 -0.1394  0.0166  0.1105
  427SOL    MW4 1708   3.287   1.909   1.268 -0.1628  0.0811 -0.2155
  428SOL     OW 1709   2.988   2.176   0.766 -0.5625 -0.5035  0.1810
  428SOL    HW2 1710   2.953   2.087   0.772 -1.1816 -0.3094 -0.4624
  428SOL    HW3 1711   3.082   2.164   0.754 -0.6473 -1.0727  0.0613
  428SOL    MW4 1712   2.996   2.163   0.765 -0.6554 -0.5530  0.0803
  429SOL     OW 1713   0.046   1.066   0.909 -0.6986 -0.1657  0.4879
  429SOL    HW2 1714  -0.045   1.071   0.939 -0.0816  0.0388  2.3657
  429SOL    HW3 1715   0.098   1.082   0.987  0.9681 -0.5061 -0.5327
  429SOL    MW4 1716   0.041   1.069   0.923 -0.3973 -0.1836  0.6010
  430SOL     OW 1717   2.320   3.672   1.527  0.0355  0.1856  0.4520
  430SOL    HW2 1718   2.247   3.617   1.555  1.4632 -1.8233  0.3134
  430SOL    HW3 1719   2.328   3.656   1.433  1.1243 -0.1721  0.6027
  430SOL    MW4 1720   2.312   3.663   1.518  0.3676 -0.1266  0.4536
  431SOL     OW 1721   0.451   0.381   2.245 -0.3356  0.1238  0.4199
  431SOL    HW2 1722   0.373   0.417   2.201 -0.5997 -1.6035 -0.5733
  431SOL    HW3 1723   0.424   0.367   2.335 -0.3812  1.8981  0.7092
  431SOL    MW4 1724   0.437   0.384   2.251 -0.3764  0.1300  0.3270
  432SOL     OW 1725   3.376   0.436   2.313  0.3108  0.0598  0.1413
  432SOL    HW2 1726   3.424   0.421   2.394 -0.4650 -0.7080  0.4718
  432SOL    HW3 1727   3.436   0.409   2.243 -0.4329 -3.1279  0.6412
  432SOL    MW4 1728   3.390   0.430   2.314  0.1104 -0.4621  0.2509
  433SOL     OW 1729   4.215   3.351   1.210  0.0596 -0.0494 -0.3722
  433SOL    HW2 1730   4.163   3.272   1.202  1.1189 -0.8765  0.6221
  433SOL    HW3 1731   4.155   3.423   1.192 -1.0831 -1.0499 -0.5383
  433SOL    MW4 1732   4.200   3.350   1.206  0.0486 -0.2905 -0.2629
  434SOL     OW 1733   0.678   1.499   2.245  0.0727 -0.1090 -0.2278
  434SOL    HW2 1734   0.681   1.491   2.341 -0.5246  0.1195 -0.1896
  434SOL    HW3 1735   0.690   1.410   2.213 -0.5169 -0.2968  0.0732
  434SOL    MW4 1736   0.680   1.486   2.254 -0.0839 -0.1036 -0.1830
  435SOL     OW 1737   4.287   3.598   0.548 -0.1103  0.8898  0.0097
  435SOL    HW2 1738   4.215   3.569   0.493 -1.0841 -0.2198  1.8243
  435SOL    HW3 1739   4.366   3.579   0.497 -0.8878 -1.7982 -0.2533
  435SOL    MW4 1740   4.288   3.592   0.534 -0.3414  0.3887  0.2144
  436SOL     OW 1741   4.060   1.651   2.248 -0.7818 -0.0878  0.4984
  436SOL    HW2 1742   4.042   1.745   2.244  0.0718  0.1177  1.2545
  436SOL    HW3 1743   3.984   1.614   2.292 -1.2670  0.2061 -0.0861
  436SOL    MW4 1744   4.048   1.659   2.253 -0.7332 -0.0219  0.5210
  437SOL     OW 1745   2.509   3.947   1.251  0.0259 -0.4977  0.0621
  437SOL    HW2 1746   2.542   3.912   1.334 -1.5053 -0.3016  0.7564
  437SOL    HW3 1747   2.499   3.870   1.195 -0.7261 -0.8519  0.6811
  437SOL    MW4 1748   2.512   3.932   1.254 -0.2753 -0.5186  0.2354
  438SOL     OW 1749   2.836   3.256   0.424  0.0987  0.8093 -0.4201
  438SOL    HW2 1750   2.743   3.263   0.405 -0.0494  1.4385  0.5354
  438SOL    HW3 1751   2.846   3.170   0.466 -0.3145  1.4387  0.9920
  438SOL    MW4 1752   2.825   3.245   0.427  0.0247  0.9753 -0.1077
  439SOL     OW 1753   2.689   2.725   0.877  0.1279 -0.0652  0.2909
  439SOL    HW2 1754   2.770   2.680   0.903 -0.7925 -0.7118  2.1600
  439SOL    HW3 1755   2.620   2.680   0.926 -1.3069  0.8423 -0.8462
  439SOL    MW4 1756   2.691   2.713   0.887 -0.1829 -0.0308  0.3875
  440SOL     OW 1757   2.305   0.610   1.769 -0.2560 -0.3674  0.3851
  440SOL    HW2 1758   2.372   0.636   1.832 -0.5955 -0.7971  0.9389
  440SOL    HW3 1759   2.280   0.691   1.725 -1.0876  0.2033  1.8767
  440SOL    MW4 1760   2.310   0.624   1.772 -0.4105 -0.3488  0.6550
  441SOL     OW 1761   1.656   4.353   0.756  0.1368  0.2028 -0.2652
  441SOL    HW2 1762   1.681   4.387   0.842 -0.1504 -1.5462  0.5253
  441SOL    HW3 1763   1.563   4.376   0.748 -0.8816 -2.8922  1.5733
  441SOL    MW4 1764   1.647   4.361   0.766 -0.0354 -0.4363  0.0817
  442SOL     OW 1765   3.875   2.737   2.009 -0.4016  0.0251 -0.1783
  442SOL    HW2 1766   3.884   2.644   1.985 -1.9575  0.0507 -0.9545
  442SOL    HW3 1767   3.942   2.781   1.956  1.0342 -0.7496  0.9439
  442SOL    MW4 1768   3.885   2.730   1.999 -0.4174 -0.0738 -0.1326
  443SOL     OW 1769   3.019   4.283   1.273 -0.0778  0.0167  0.1782
  443SOL    HW2 1770   2.966   4.264   1.350 -0.2285 -0.1607  0.0318
  443SOL    HW3 1771   3.066   4.362   1.296  0.9443 -0.8100  0.9922
  443SOL    MW4 1772   3.018   4.291   1.286  0.0372 -0.1158  0.2663
  444SOL     OW 1773   3.548   1.609   2.214  0.5377 -0.6390 -0.7919
  444SOL    HW2 1774   3.631   1.583   2.254  0.6042 -1.0232 -1.1752
  444SOL    HW3 1775   3.486   1.542   2.242  0.3783 -0.4082 -0.5900
  444SOL    MW4 1776   3.551   1.597   2.223  0.5255 -0.6592 -0.8158
  445SOL     OW 1777   1.167   1.666   1.786 -0.1162 -0.0061 -0.4013
  445SOL    HW2 1778   1.162   1.736   1.721 -1.2467  0.4790  0.1906
  445SOL    HW3 1779   1.076   1.641   1.802  0.2079 -0.7807  0.2910
  445SOL    MW4 1780   1.154   1.672   1.779 -0.2226 -0.0443 -0.2318
  446SOL     OW 1781   3.129   0.821   1.253  0.0997  0.1419  0.1577
  446SOL    HW2 1782   3.175   0.771   1.186  0.7788 -0.5632  1.1283
  446SOL    HW3 1783   3.058   0.865   1.206  1.2851  0.6031 -1.2107
  446SOL    MW4 1784   3.125   0.820   1.238  0.3457  0.1097  0.1053
  447SOL     OW 1785   4.368   3.455   1.430 -0.1460 -0.1268 -0.4330
  447SOL    HW2 1786   4.383   3.533   1.377 -0.0677 -0.3204 -0.6980
  447SOL    HW3 1787   4.323   3.394   1.371 -1.2999  0.1646  0.1277
  447SOL    MW4 1788   4.364   3.457   1.415 -0.2879 -0.1139 -0.3940
  448SOL     OW 1789   4.256   3.137   0.525  0.0003 -0.1833  0.0439
  448SOL    HW2 1790   4.334   3.192   0.516 -0.8188  0.6727 -2.2340
  448SOL    HW3 1791   4.290   3.048   0.538  1.3698  0.1027 -1.4166
  448SOL    MW4 1792   4.271   3.132   0.526  0.0729 -0.0326 -0.4494
  449SOL     OW 1793   4.104   1.584   0.505 -0.3907  0.2111  0.1716
  449SOL    HW2 1794   4.124   1.657   0.563  0.8550 -0.2194  0.3181
  449SOL    HW3 1795   4.027   1.543   0.543  0.4750 -0.1305  1.6223
  449SOL    MW4 1796   4.097   1.588   0.518 -0.1121  0.1092  0.3824
  450SOL     OW 1797   2.466   1.484   2.250  0.9200  0.0417  0.9238
  450SOL    HW2 1798   2.497   1.396   2.229 -0.6142 -0.5409  0.9970
  450SOL    HW3 1799   2.492   1.499   2.341  1.2270 -0.3243  0.8925
  450SOL    MW4 1800   2.473   1.475   2.259  0.7581 -0.0835  0.9293
  451SOL     OW 1801   1.960   3.963   1.432  0.2916 -0.2666  0.4972
  451SOL    HW2 1802   2.054   3.952   1.447  0.3711  0.5349  0.6210
  451SOL    HW3 1803   1.954   4.021   1.356 -0.0845  1.2515  1.6552
  451SOL    MW4 1804   1.972   3.969   1.424  0.2525  0.0395  0.6663
  452SOL     OW 1805   1.938   1.191   1.604 -0.0452  0.1933  0.3045
  452SOL    HW2 1806   1.992   1.169   1.680  0.8001  1.2993  0.0323
  452SOL    HW3 1807   1.850   1.203   1.640  0.3795  0.8507  1.1408
  452SOL    MW4 1808   1.934   1.190   1.619  0.1224  0.4259  0.3789
  453SOL     OW 1809   3.124   0.425   0.732 -0.5215 -0.2323 -0.0193
  453SOL    HW2 1810   3.180   0.367   0.681  0.4767  0.2700  0.4759
  453SOL    HW3 1811   3.168   0.510   0.727 -1.3902  0.2290  0.1551
  453SOL    MW4 1812   3.137   0.429   0.724 -0.5044 -0.1051  0.0690
  454SOL     OW 1813   2.070   4.520   0.796 -0.2923  0.3235  0.1551
  454SOL    HW2 1814   2.000   4.518   0.730  1.3336  0.3929 -1.6357
  454SOL    HW3 1815   2.084   4.429   0.819 -2.3075  0.4496  2.0272
  454SOL    MW4 1816   2.063   4.508   0.790 -0.3437  0.3493  0.1658
  455SOL     OW 1817   3.951   4.174   1.088  0.2135 -0.0270 -0.0702
  455SOL    HW2 1818   3.906   4.090   1.078 -0.2137 -0.0560  1.8804
  455SOL    HW3 1819   3.883   4.235   1.116  0.5825  0.9000 -1.1814
  455SOL    MW4 1820   3.936   4.171   1.091  0.2058  0.0915  0.0405
  456SOL     OW 1821   1.357   1.793   1.013  1.0534  0.2430 -0.6308
  456SOL    HW2 1822   1.433   1.747   0.977 -0.5634 -1.7795 -1.5183
  456SOL    HW3 1823   1.313   1.728   1.068 -1.0774  0.8229 -1.6143
  456SOL    MW4 1824   1.361   1.779   1.016  0.5589  0.0526 -0.8776
  457SOL     OW 1825   3.458   1.695   1.494 -0.0195 -0.0426  0.2778
  457SOL    HW2 1826   3.524   1.764   1.484 -0.3818  0.4058  0.9289
  457SOL    HW3 1827   3.501   1.628   1.548 -0.0772  0.2206  0.6494
  457SOL    MW4 1828   3.472   1.695   1.500 -0.0749  0.0513  0.4127
  458SOL     OW 1829   0.476   2.393   2.120  0.0881 -0.3127  0.5459
  458SOL    HW2 1830   0.453   2.481   2.090  0.7207 -0.8976 -1.7822
  458SOL    HW3 1831   0.393   2.352   2.142 -0.2754  0.6136  0.8880
  458SOL    MW4 1832   0.462   2.399   2.119  0.1236 -0.2677  0.2839
  459SOL     OW 1833   0.512   1.379   1.147 -0.1736  0.0247  0.3212
  459SOL    HW2 1834   0.417   1.387   1.142 -0.1724  0.3412  0.7806
  459SOL    HW3 1835   0.540   1.451   1.203  0.3159 -0.2061  0.3821
  459SOL    MW4 1836   0.503   1.389   1.154 -0.1088  0.0360  0.3898
  460SOL     OW 1837   0.838   2.108   1.900 -0.5919  0.1036  0.5583
  460SOL    HW2 1838   0.797   2.078   1.981  0.7798 -0.8770  0.9022
  460SOL    HW3 1839   0.812   2.044   1.834 -1.8221  0.9779  0.1835
  460SOL    MW4 1840   0.829   2.096   1.902 -0.5732  0.0896  0.5543
  461SOL     OW 1841   2.455   3.034   1.909  0.1586  0.0906 -0.4096
  461SOL    HW2 1842   2.496   2.948   1.902 -0.2976 -0.1229 -0.4783
  461SOL    HW3 1843   2.528   3.095   1.906  0.6506 -0.3726  1.4732
  461SOL    MW4 1844   2.470   3.030   1.908  0.1633  0.0013 -0.1703
  462SOL     OW 1845   1.060   1.256   1.868 -0.1899 -0.3192  0.1131
  462SOL    HW2 1846   1.083   1.261   1.961  1.0159  0.8784 -0.2213
  462SOL    HW3 1847   0.971   1.221   1.866  0.1509 -1.2910  1.6645
  462SOL    MW4 1848   1.052   1.252   1.880  0.0142 -0.2894  0.2736
  463SOL     OW 1849   3.009   1.816   1.899 -0.0103 -0.3430 -0.5376
  463SOL    HW2 1850   3.029   1.859   1.816 -2.3644  0.8980 -0.5011
  463SOL    HW3 1851   3.082   1.755   1.913  1.2823  0.6755 -2.6359
  463SOL    MW4 1852   3.021   1.814   1.890 -0.1503 -0.0449 -0.8096
  464SOL     OW 1853   3.841   2.333   2.295  0.5246 -0.1048 -0.2321
  464SOL    HW2 1854   3.837   2.238   2.300  0.9948 -0.0703  1.1067
  464SOL    HW3 1855   3.757   2.359   2.256  0.7027 -1.0926 -1.2897
  464SOL    MW4 1856   3.829   2.324   2.291  0.6101 -0.2305 -0.1950
  465SOL     OW 1857   1.781   2.911   0.228 -0.3143  0.0392 -0.6338
  465SOL    HW2 1858   1.737   2.988   0.263 -0.3860 -1.1525  1.9535
  465SOL    HW3 1859   1.745   2.838   0.277  1.7649 -1.3583 -1.1189
  465SOL    MW4 1860   1.771   2.912   0.239 -0.0494 -0.3024 -0.3564
  466SOL     OW 1861   2.037   4.659   1.035  0.0964  0.1426  0.3886
  466SOL    HW2 1862   2.034   4.610   0.953  1.2728  0.9089 -0.1303
  466SOL    HW3 1863   1.962   4.718   1.031 -0.3508 -0.4283  0.2625
  466SOL    MW4 1864   2.027   4.660   1.024  0.1926  0.1684  0.3035
  467SOL     OW 1865   0.676   0.702   2.226 -0.1074 -0.3535  0.6405
  467SOL    HW2 1866   0.667   0.616   2.185  0.3559 -0.3310  0.4933
  467SOL    HW3 1867   0.664   0.685   2.319 -0.2850 -0.5357  0.5863
  467SOL    MW4 1868   0.673   0.689   2.232 -0.0697 -0.3746  0.6139
  468SOL     OW 1869   0.156   4.623   1.535 -0.1835 -0.6715 -0.1462
  468SOL    HW2 1870   0.108   4.581   1.606 -1.4019  3.0754  1.3895
  468SOL    HW3 1871   0.089   4.664   1.481  1.0026  0.2399 -0.9637
  468SOL    MW4 1872   0.141   4.623   1.537 -0.1878 -0.0569 -0.0514
  469SOL     OW 1873   1.149   0.845   1.250 -0.0041  0.4709  0.4716
  469SOL    HW2 1874   1.063   0.808   1.269  0.9051 -1.8833  0.1145
  469SOL    HW3 1875   1.166   0.903   1.324 -1.4063  0.1176  1.0983
  469SOL    MW4 1876   1.140   0.848   1.262 -0.0691  0.1137  0.5072
  470SOL     OW 1877   3.458   3.434   2.039 -0.2151  0.0445 -0.0681
  470SOL    HW2 1878   3.411   3.513   2.066 -2.9834 -1.2155 -0.9948
  470SOL    HW3 1879   3.515   3.413   2.113 -0.7934  1.8656  0.9233
  470SOL    MW4 1880   3.459   3.442   2.053 -0.6566  0.1185 -0.0596
  471SOL     OW 1881   0.653   3.588   2.185 -0.0515  0.1025  0.0395
  471SOL    HW2 1882   0.634   3.682   2.194  2.2280  0.6736 -0.5551
  471SOL    HW3 1883   0.641   3.570   2.092  0.5513  0.0686 -0.0355
  471SOL    MW4 1884   0.649   3.598   2.174  0.3288  0.1734 -0.0489
  472SOL     OW 1885   0.351   1.356   1.939  0.1391 -0.0787  0.8552
  472SOL    HW2 1886   0.322   1.331   2.026 -0.2861 -0.9627  0.4632
  472SOL    HW3 1887   0.270   1.364   1.888  0.4051  0.1120  0.4601
  472SOL    MW4 1888   0.336   1.354   1.944  0.1181 -0.1702  0.7513
  473SOL     OW 1889   1.157   2.803   0.756  0.5454  0.0432 -0.2610
  473SOL    HW2 1890   1.185   2.818   0.666 -0.9214  2.1542 -0.4085
  473SOL    HW3 1891   1.212   2.862   0.808  0.0406  0.2969 -0.0078
  473SOL    MW4 1892   1.168   2.813   0.751  0.2853  0.3552 -0.2471
  474SOL     OW 1893   4.132   1.769   0.723 -0.3274 -0.0356  0.9282
  474SOL    HW2 1894   4.127   1.695   0.783 -0.9611 -0.4891  0.3205
  474SOL    HW3 1895   4.047   1.812   0.729 -0.2472  0.1668  0.6728
  474SOL    MW4 1896   4.120   1.765   0.732 -0.4005 -0.0687  0.8143
  475SOL     OW 1897   1.287   2.838   1.501 -0.0450  0.6044  0.8322
  475SOL    HW2 1898   1.192   2.850   1.508  0.2063  2.9959  0.8319
  475SOL    HW3 1899   1.323   2.907   1.557  1.6871  0.5409 -0.1801
  475SOL    MW4 1900   1.279   2.849   1.509  0.2167  0.9115  0.6986
  476SOL     OW 1901   3.607   3.307   1.387 -0.1350 -0.1963  0.2368
  476SOL    HW2 1902   3.655   3.338   1.310 -0.4308 -1.0048 -0.2762
  476SOL    HW3 1903   3.595   3.213   1.372  1.4382 -0.7470  2.1257
  476SOL    MW4 1904   3.612   3.299   1.375  0.0336 -0.3756  0.4183
  477SOL     OW 1905   2.571   3.530   1.559 -0.7699 -0.0192  0.3262
  477SOL    HW2 1906   2.496   3.587   1.544 -0.0246  0.9023  0.0108
  477SOL    HW3 1907   2.575   3.521   1.655 -0.4493  1.0999  0.4330
  477SOL    MW4 1908   2.562   3.536   1.570 -0.6292  0.2500  0.2987
  478SOL     OW 1909   4.027   2.681   0.393  0.6393 -0.3280 -0.1197
  478SOL    HW2 1910   4.029   2.774   0.416 -0.8866 -0.2690 -0.1697
  478SOL    HW3 1911   3.937   2.654   0.410  0.9103 -1.6522 -0.7196
  478SOL    MW4 1912   4.016   2.690   0.398  0.4737 -0.4949 -0.2054
  479SOL     OW 1913   1.712   3.623   1.752 -0.1274 -0.7972 -0.7096
  479SOL    HW2 1914   1.668   3.671   1.682 -0.4294 -0.4827 -0.3123
  479SOL    HW3 1915   1.722   3.687   1.823  1.2139 -0.7987 -0.8871
  479SOL    MW4 1916   1.707   3.638   1.752  0.0097 -0.7559 -0.6806
  480SOL     OW 1917   2.643   0.518   1.579 -0.1377 -0.0912  0.3459
  480SOL    HW2 1918   2.594   0.450   1.532 -0.6082  0.1232  0.5318
  480SOL    HW3 1919   2.620   0.599   1.534  0.9943 -0.1310 -0.3530
  480SOL    MW4 1920   2.634   0.519   1.567 -0.0504 -0.0682  0.2782
  481SOL     OW 1921   2.863   2.261   0.533  0.0458  0.8174 -0.0857
  481SOL    HW2 1922   2.915   2.240   0.611  1.2891 -0.8357 -1.2921
  481SOL    HW3 1923   2.808   2.184   0.520  1.8980 -0.1908 -2.4180
  481SOL    MW4 1924   2.863   2.248   0.542  0.4542  0.4663 -0.5526
  482SOL     OW 1925   3.741   1.254   2.226  0.1640  0.0247 -0.1013
  482SOL    HW2 1926   3.820   1.232   2.276  1.0391  1.8770 -0.6438
  482SOL    HW3 1927   3.758   1.219   2.138  0.6264  0.9319 -0.3738
  482SOL    MW4 1928   3.754   1.246   2.221  0.3405  0.3888 -0.2088
  483SOL     OW 1929   2.980   2.483   1.441 -0.1668 -0.1648  0.5272
  483SOL    HW2 1930   3.067   2.522   1.447 -0.8351  1.4724 -0.1409
  483SOL    HW3 1931   2.921   2.553   1.468 -1.3535 -0.8957 -0.1463
  483SOL    MW4 1932   2.984   2.497   1.445 -0.4116 -0.0452  0.3502
  484SOL     OW 1933   3.676   2.893   0.288 -0.0341 -0.2944  0.2660
  484SOL    HW2 1934   3.630   2.914   0.368  0.5339  0.0624  0.5041
  484SOL    HW3 1935   3.693   2.799   0.293 -1.9922 -0.7205 -0.4936
  484SOL    MW4 1936   3.672   2.884   0.299 -0.2175 -0.3036  0.1972
  485SOL     OW 1937   3.164   3.178   1.103  0.0644 -0.1309 -0.0558
  485SOL    HW2 1938   3.095   3.243   1.113  1.0777  0.9374  0.1246
  485SOL    HW3 1939   3.243   3.222   1.135  1.2160 -0.6123 -2.0972
  485SOL    MW4 1940   3.166   3.192   1.108  0.3500 -0.0534 -0.3013
  486SOL     OW 1941   3.175   4.188   0.856  0.3843  0.4199 -0.1491
  486SOL    HW2 1942   3.167   4.129   0.931  0.8291  0.8660  0.2544
  486SOL    HW3 1943   3.099   4.246   0.863  0.1377  0.1224 -0.3468
  486SOL    MW4 1944   3.164   4.188   0.867  0.4104  0.4395 -0.1219
  487SOL     OW 1945   1.418   1.159   0.582 -0.0654 -0.0358  0.0792
  487SOL    HW2 1946   1.330   1.125   0.563 -0.5090  0.6887  0.7918
  487SOL    HW3 1947   1.423   1.240   0.531  0.5540 -0.5658 -0.7106
  487SOL    MW4 1948   1.407   1.165   0.572 -0.0422 -0.0102  0.0690
  488SOL     OW 1949   1.203   4.026   1.652  0.1038  0.3922  0.2633
  488SOL    HW2 1950   1.124   4.044   1.601  0.8599 -1.1431 -1.5314
  488SOL    HW3 1951   1.193   4.078   1.732 -3.3206 -0.7067  0.6542
  488SOL    MW4 1952   1.191   4.035   1.656 -0.2482  0.0446  0.0780
  489SOL     OW 1953   3.185   1.779   1.487  0.0295 -0.0473 -0.0671
  489SOL    HW2 1954   3.127   1.714   1.446  0.9126  1.5698 -4.1145
  489SOL    HW3 1955   3.267   1.733   1.500 -0.4134 -0.7259  0.3702
  489SOL    MW4 1956   3.188   1.764   1.484  0.0875  0.0765 -0.5434
  490SOL     OW 1957   3.507   0.776   0.970  0.1581  0.0648 -0.6037
  490SOL    HW2 1958   3.590   0.823   0.962  1.4085 -2.2012 -1.6072
  490SOL    HW3 1959   3.508   0.740   1.059 -0.7462  1.7978  0.1236
  490SOL    MW4 1960   3.518   0.777   0.981  0.2038 -0.0056 -0.6401
  491SOL     OW 1961   1.008   2.918   1.525 -0.6375  0.5099 -0.4162
  491SOL    HW2 1962   0.987   2.986   1.589  0.2143  0.4978 -0.1170
  491SOL    HW3 1963   0.983   2.956   1.441  0.5067  1.5057 -0.3348
  491SOL    MW4 1964   1.002   2.932   1.522 -0.3742  0.6397 -0.3660
  492SOL     OW 1965   1.623   2.833   2.195  0.0784  0.4679  0.3701
  492SOL    HW2 1966   1.631   2.810   2.102  0.0446  1.1398  0.1991
  492SOL    HW3 1967   1.534   2.806   2.219  1.0109 -2.3149  0.9536
  492SOL    MW4 1968   1.613   2.826   2.186  0.1969  0.1894  0.4245
  493SOL     OW 1969   2.295   0.938   1.875 -0.5647  0.2098  0.0521
  493SOL    HW2 1970   2.281   0.875   1.804  0.4653  0.3374 -0.2689
  493SOL    HW3 1971   2.238   1.012   1.854  1.0257  0.9926 -1.5586
  493SOL    MW4 1972   2.285   0.939   1.863 -0.2190  0.3299 -0.2027
  494SOL     OW 1973   2.717   2.714   2.333 -0.1637  0.7010 -0.3757
  494SOL    HW2 1974   2.635   2.747   2.296 -0.1162 -0.2537 -1.3594
  494SOL    HW3 1975   2.785   2.766   2.290 -0.1274 -0.1786 -1.4016
  494SOL    MW4 1976   2.715   2.725   2.322 -0.1527  0.4590 -0.6409
  495SOL     OW 1977   2.883   3.157   1.764 -0.3446  0.1769  0.1262
  495SOL    HW2 1978   2.934   3.077   1.755  0.5466  1.0417 -2.9286
  495SOL    HW3 1979   2.947   3.224   1.790 -0.5892  0.4804 -0.0438
  495SOL    MW4 1980   2.898   3.155   1.767 -0.2593  0.3311 -0.2993
  496SOL     OW 1981   4.366   0.119   1.124  0.1434 -0.0952 -0.3007
  496SOL    HW2 1982   4.446   0.158   1.091  0.0799  0.0368 -0.2971
  496SOL    HW3 1983   4.346   0.049   1.062  0.0856  0.0810 -0.4828
  496SOL    MW4 1984   4.374   0.115   1.111  0.1274 -0.0546 -0.3243
  497SOL     OW 1985   2.002   2.909   1.959 -0.2579  0.0351 -0.7605
  497SOL    HW2 1986   2.062   2.983   1.948 -1.1445  0.9205  0.3238
  497SOL    HW3 1987   1.917   2.943   1.932 -0.6748 -0.5805 -0.2323
  497SOL    MW4 1988   1.999   2.923   1.954 -0.4299  0.0707 -0.5478
  498SOL     OW 1989   0.751   3.964   1.747  0.3174 -0.2885 -0.1181
  498SOL    HW2 1990   0.787   3.990   1.832  0.4002 -0.3888 -0.1229
  498SOL    HW3 1991   0.664   3.928   1.768 -0.0232  0.4928 -0.1690
  498SOL    MW4 1992   0.744   3.963   1.761  0.2834 -0.1986 -0.1254
  499SOL     OW 1993   1.698   4.307   0.334 -0.2009  0.1006 -0.0526
  499SOL    HW2 1994   1.751   4.386   0.333  0.3425 -0.2307  1.2612
  499SOL    HW3 1995   1.759   4.237   0.310  0.1509 -0.3750  2.1345
  499SOL    MW4 1996   1.713   4.308   0.331 -0.0828 -0.0059  0.4093
  500SOL     OW 1997   4.188   0.191   1.490 -0.4367 -0.1243  0.0063
  500SOL    HW2 1998   4.279   0.163   1.483 -0.8644 -1.5614  0.1142
  500SOL    HW3 1999   4.176   0.211   1.583 -1.0668 -2.9169  0.5702
  500SOL    MW4 2000   4.198   0.190   1.502 -0.5763 -0.6824  0.0949
  501SOL     OW 2001   1.113   0.621   0.309 -0.0513 -0.1960 -0.2325
  501SOL    HW2 2002   1.089   0.602   0.219  0.7537  0.5352 -0.6024
  501SOL    HW3 2003   1.141   0.536   0.345  0.1508 -0.3784 -0.8235
  501SOL    MW4 2004   1.113   0.607   0.302  0.0816 -0.1236 -0.3593
  502SOL     OW 2005   3.734   0.313   1.766  0.1445  0.1055 -0.2050
  502SOL    HW2 2006   3.723   0.325   1.672  0.0578 -0.3221 -0.2537
  502SOL    HW3 2007   3.658   0.261   1.793 -0.1039  0.6713  0.1946
  502SOL    MW4 2008   3.723   0.307   1.757  0.1003  0.1238 -0.1587
  503SOL     OW 2009   1.000   1.242   0.705 -0.2736  0.0646 -0.2343
  503SOL    HW2 2010   1.013   1.308   0.637  0.3318 -0.2156 -0.3941
  503SOL    HW3 2011   0.946   1.175   0.663 -0.3449  0.1467 -0.2736
  503SOL    MW4 2012   0.994   1.242   0.690 -0.2031  0.0385 -0.2605
  504SOL     OW 2013   2.862   3.111   0.797 -0.1686 -0.6522 -0.1776
  504SOL    HW2 2014   2.844   3.084   0.707  3.1178 -2.3352 -0.4170
  504SOL    HW3 2015   2.888   3.203   0.789  1.1642 -1.0936 -1.1255
  504SOL    MW4 2016   2.863   3.120   0.784  0.4409 -0.9325 -0.3343
  505SOL     OW 2017   2.937   3.558   0.418  0.6774 -0.4497 -0.4469
  505SOL    HW2 2018   2.878   3.560   0.494  1.9670  0.0113  0.5487
  505SOL    HW3 2019   2.965   3.467   0.411  0.2264 -0.5776 -0.6444
  505SOL    MW4 2020   2.933   3.546   0.427  0.7881 -0.4058 -0.3416
  506SOL     OW 2021   4.430   3.792   1.708  0.1150  0.1696 -0.2830
  506SOL    HW2 2022   4.498   3.783   1.641 -0.5614  0.2410 -0.9863
  506SOL    HW3 2023   4.348   3.800   1.658 -0.2945  1.1414  0.5244
  506SOL    MW4 2024   4.428   3.792   1.692 -0.0283  0.3072 -0.2693
  507SOL     OW 2025   1.392   3.044   1.697 -0.1462 -0.1122 -0.3407
  507SOL    HW2 2026   1.479   3.005   1.691 -0.4221 -0.4531 -2.8603
  507SOL    HW3 2027   1.405   3.122   1.751  0.8572 -2.3427  2.7888
  507SOL    MW4 2028   1.405   3.049   1.703 -0.0502 -0.4515 -0.2602
  508SOL     OW 2029   1.923   1.693   0.577 -0.0248 -0.0010 -0.1828
  508SOL    HW2 2030   1.847   1.673   0.523 -1.1912  0.8709  1.1063
  508SOL    HW3 2031   1.953   1.608   0.610  1.4031 -0.6866 -3.0668
  508SOL    MW4 2032   1.917   1.679   0.574  0.0097  0.0236 -0.3932
  509SOL     OW 2033   0.625   2.609   1.534 -0.3508 -0.4200 -0.0121
  509SOL    HW2 2034   0.642   2.593   1.627  0.1362 -2.0307 -0.3531
  509SOL    HW3 2035   0.712   2.610   1.494 -0.5758 -0.0162 -0.4906
  509SOL    MW4 2036   0.638   2.607   1.541 -0.3163 -0.5792 -0.1202
  510SOL     OW 2037   3.349   2.009   1.726  0.2586 -0.9932  0.0755
  510SOL    HW2 2038   3.256   1.995   1.710  0.0948  0.4898 -0.3458
  510SOL    HW3 2039   3.360   2.104   1.721  2.0928 -1.2605 -1.4693
  510SOL    MW4 2040   3.338   2.020   1.724  0.4790 -0.8328 -0.1839
  511SOL     OW 2041   2.259   0.288   0.778  0.2366  0.5795  0.5469
  511SOL    HW2 2042   2.270   0.268   0.871  0.9462  1.5525  0.6814
  511SOL    HW3 2043   2.324   0.356   0.761  1.2886 -0.7968 -1.0669
  511SOL    MW4 2044   2.269   0.294   0.788  0.4690  0.5263  0.3518
  512SOL     OW 2045   1.702   0.675   0.632 -0.1980 -0.1862  0.0776
  512SOL    HW2 2046   1.695   0.687   0.726  1.3123  0.3367  0.1433
  512SOL    HW3 2047   1.796   0.664   0.616 -0.4103 -0.0048 -1.3919
  512SOL    MW4 2048   1.714   0.675   0.642 -0.0267 -0.0933 -0.1076
  513SOL     OW 2049   3.691   4.106   0.723 -0.0703 -0.5668 -0.0496
  513SOL    HW2 2050   3.743   4.185   0.737 -0.3092 -0.6970  1.6403
  513SOL    HW3 2051   3.602   4.138   0.711 -0.1942 -0.5905  0.8048
  513SOL    MW4 2052   3.686   4.120   0.723 -0.1182 -0.5871  0.2861
  514SOL     OW 2053   2.817   0.930   0.548 -0.2690 -0.7987 -0.0147
  514SOL    HW2 2054   2.847   1.017   0.575 -2.9404  0.6326 -1.3723
  514SOL    HW3 2055   2.782   0.890   0.627  3.1014 -1.6288  1.1142
  514SOL    MW4 2056   2.816   0.936   0.562 -0.1768 -0.7194 -0.0449
  515SOL     OW 2057   3.288   1.408   0.881 -0.1030  0.0469 -0.0735
  515SOL    HW2 2058   3.270   1.323   0.842  0.7959 -0.3988  0.4615
  515SOL    HW3 2059   3.383   1.417   0.875 -0.1844  0.9506 -0.0009
  515SOL    MW4 2060   3.298   1.398   0.875  0.0048  0.1073  0.0066
  516SOL     OW 2061   0.462   0.321   1.068 -0.0324  0.3283 -0.2969
  516SOL    HW2 2062   0.470   0.296   0.976 -0.0616  1.2232 -0.5476
  516SOL    HW3 2063   0.489   0.413   1.070  0.8575  0.0461  0.7386
  516SOL    MW4 2064   0.466   0.330   1.056  0.0812  0.4092 -0.1934
  517SOL     OW 2065   2.394   3.586   0.720  0.3739  0.1606  0.0103
  517SOL    HW2 2066   2.426   3.675   0.734  0.3554  0.0811  0.5856
  517SOL    HW3 2067   2.463   3.530   0.756 -0.5841 -0.0057  1.6619
  517SOL    MW4 2068   2.407   3.591   0.727  0.2451  0.1281  0.3041
  518SOL     OW 2069   0.426   3.450   2.277  0.0248  0.5905  0.5530
  518SOL    HW2 2070   0.506   3.494   2.249 -0.7821  0.6961 -1.6323
  518SOL    HW3 2071   0.357   3.488   2.224 -1.1521 -1.1089  0.8052
  518SOL    MW4 2072   0.427   3.460   2.266 -0.2369  0.3802  0.2980
  519SOL     OW 2073   2.479   4.289   0.794  0.1771 -0.4438  0.9326
  519SOL    HW2 2074   2.511   4.207   0.832 -2.5164 -1.6475  0.6868
  519SOL    HW3 2075   2.520   4.293   0.708  0.3341 -1.5095  0.9511
  519SOL    MW4 2076   2.489   4.279   0.788 -0.1575 -0.7432  0.9026
  520SOL     OW 2077   2.754   3.721   1.030 -0.4422  0.3120  0.0164
  520SOL    HW2 2078   2.780   3.639   0.988  1.5811 -0.2226  2.2018
  520SOL    HW3 2079   2.794   3.717   1.117 -1.4186  3.0409  0.6355
  520SOL    MW4 2080   2.762   3.710   1.036 -0.3041  0.6015  0.3864
  521SOL     OW 2081   1.614   0.799   2.290  0.0762  0.4084  0.0086
  521SOL    HW2 2082   1.556   0.837   2.224  0.3154  1.2889  0.2976
  521SOL    HW3 2083   1.700   0.835   2.270  0.2541  0.2214  0.4404
  521SOL    MW4 2084   1.617   0.809   2.279  0.1312  0.4999  0.1037
  522SOL     OW 2085   4.039   3.691   1.450 -0.0767  0.1735  0.1113
  522SOL    HW2 2086   4.056   3.661   1.360  0.8169  0.5235  0.1615
  522SOL    HW3 2087   4.081   3.625   1.505 -0.2148  0.2162  0.2680
  522SOL    MW4 2088   4.047   3.678   1.445  0.0230  0.2253  0.1386
  523SOL     OW 2089   0.256   1.079   1.105 -0.5841  0.3870  0.4623
  523SOL    HW2 2090   0.334   1.049   1.058  0.1934  0.8876  1.4205
  523SOL    HW3 2091   0.262   1.175   1.102 -0.9761  0.4231  0.8543
  523SOL    MW4 2092   0.267   1.088   1.098 -0.5332  0.4578  0.6405
  524SOL     OW 2093   3.291   2.443   1.004 -0.0446  0.3234 -0.2082
  524SOL    HW2 2094   3.376   2.486   0.999  0.0122  0.3511  0.9518
  524SOL    HW3 2095   3.234   2.497   0.950  0.3564  1.0671  0.1017
  524SOL    MW4 2096   3.295   2.456   0.996  0.0158  0.4251 -0.0142
  525SOL     OW 2097   2.240   1.635   2.139 -0.0555  0.1908 -0.1597
  525SOL    HW2 2098   2.324   1.600   2.167  0.3255  0.1673 -1.3040
  525SOL    HW3 2099   2.176   1.569   2.168  0.2479  0.5002  1.2349
  525SOL    MW4 2100   2.243   1.621   2.147  0.0348  0.2285 -0.1267
  526SOL     OW 2101   0.020   0.555   0.537 -0.0934  0.1905  0.0694
  526SOL    HW2 2102   0.033   0.650   0.543  0.9669  0.0204  0.4616
  526SOL    HW3 2103  -0.005   0.529   0.626 -0.4453  0.1086 -0.0531
  526SOL    MW4 2104   0.018   0.564   0.549  0.0001  0.1573  0.1050
  527SOL     OW 2105   4.256   3.867   1.476 -0.3565  0.1510  0.0749
  527SOL    HW2 2106   4.177   3.815   1.463  0.1604 -0.4406 -0.7683
  527SOL    HW3 2107   4.294   3.875   1.389 -0.1881  1.5742  0.2618
  527SOL    MW4 2108   4.250   3.861   1.463 -0.2661  0.2607 -0.0117
  528SOL     OW 2109   3.782   0.138   1.287 -0.3093  0.3695 -0.3293
  528SOL    HW2 2110   3.689   0.128   1.268  0.2058 -1.3075 -2.0572
  528SOL    HW3 2111   3.820   0.171   1.205  0.5678  1.4632  0.4904
  528SOL    MW4 2112   3.775   0.141   1.274 -0.1256  0.2926 -0.4491
  529SOL     OW 2113   0.260   3.141   0.363  0.1579  0.1217  0.2200
  529SOL    HW2 2114   0.177   3.184   0.385  0.2080  0.5269 -0.3551
  529SOL    HW3 2115   0.326   3.186   0.416  0.0376 -0.0526  0.5146
  529SOL    MW4 2116   0.258   3.152   0.373  0.1486  0.1522  0.1830
  530SOL     OW 2117   3.497   4.028   1.357 -0.5450  0.1412  0.5105
  530SOL    HW2 2118   3.514   3.950   1.304 -1.3917 -0.2881  0.8712
  530SOL    HW3 2119   3.424   4.004   1.414 -0.6646  1.1230  0.7855
  530SOL    MW4 2120   3.490   4.015   1.358 -0.6725  0.2141  0.5944
  531SOL     OW 2121   4.126   1.928   1.402 -0.7065 -0.3322  0.4599
  531SOL    HW2 2122   4.041   1.972   1.396 -1.7815 -2.2797  0.9737
  531SOL    HW3 2123   4.134   1.904   1.495 -0.0166 -0.9812  0.2411
  531SOL    MW4 2124   4.116   1.930   1.413 -0.7573 -0.6748  0.4988
  532SOL     OW 2125   2.187   1.211   2.272  0.3644 -0.0350 -0.2566
  532SOL    HW2 2126   2.213   1.130   2.227  0.2178  0.1337 -0.6464
  532SOL    HW3 2127   2.270   1.255   2.292  0.4117  0.1463 -0.8421
  532SOL    MW4 2128   2.201   1.206   2.269  0.3513  0.0112 -0.3853
  533SOL     OW 2129   4.408   4.191   2.297  0.1705  0.0089 -0.2605
  533SOL    HW2 2130   4.416   4.193   2.393 -0.0912  0.5630 -0.2487
  533SOL    HW3 2131   4.313   4.194   2.281  0.1635 -1.1815 -0.5171
  533SOL    MW4 2132   4.396   4.192   2.308  0.1351 -0.0750 -0.2928
  534SOL     OW 2133   2.560   1.339   0.591  0.0128  0.1247  0.7433
  534SOL    HW2 2134   2.483   1.296   0.554 -0.9378  0.5095  2.2234
  534SOL    HW3 2135   2.633   1.308   0.538 -1.0238 -1.0849 -0.0021
  534SOL    MW4 2136   2.560   1.329   0.579 -0.2494  0.0159  0.8403
  535SOL     OW 2137   3.994   1.549   1.977  0.2733 -0.6562  0.2961
  535SOL    HW2 2138   4.024   1.629   1.932 -0.8878 -0.8113 -0.8072
  535SOL    HW3 2139   3.987   1.574   2.069  1.3260  0.0873  0.1863
  535SOL    MW4 2140   3.997   1.563   1.983  0.2590 -0.5786  0.1360
  536SOL     OW 2141   0.854   2.322   0.404  0.4785  0.6543 -0.7782
  536SOL    HW2 2142   0.923   2.374   0.363  0.3749  1.5029  0.1092
  536SOL    HW3 2143   0.828   2.260   0.336  1.1107  1.2743 -1.6048
  536SOL    MW4 2144   0.860   2.321   0.389  0.5483  0.8480 -0.7701
  537SOL     OW 2145   0.232   0.156   1.311  0.2217  0.2804  0.3367
  537SOL    HW2 2146   0.221   0.080   1.369 -0.4708  0.1675  0.0650
  537SOL    HW3 2147   0.326   0.167   1.304  0.3109  0.2107  1.3789
  537SOL    MW4 2148   0.243   0.147   1.318  0.1421  0.2563  0.4384
  538SOL     OW 2149   0.557   3.467   0.935 -0.0754 -0.1119 -0.0380
  538SOL    HW2 2150   0.601   3.494   1.016  0.2725  1.1380 -0.6150
  538SOL    HW3 2151   0.619   3.408   0.893  0.7057  0.9494 -0.4180
  538SOL    MW4 2152   0.571   3.463   0.940  0.0735  0.1931 -0.1643
  539SOL     OW 2153   1.624   0.967   0.622 -0.6875  0.0038  0.2371
  539SOL    HW2 2154   1.542   1.008   0.592 -1.0861 -0.9376  0.0240
  539SOL    HW3 2155   1.620   0.878   0.587  0.5365  0.0194  0.0373
  539SOL    MW4 2156   1.612   0.961   0.613 -0.5786 -0.1184  0.1827
  540SOL     OW 2157   0.799   1.925   0.505  0.1905  0.2500 -0.4942
  540SOL    HW2 2158   0.826   1.842   0.546 -0.5945  1.3709  2.4193
  540SOL    HW3 2159   0.879   1.975   0.496  0.1608  0.6499  1.2786
  540SOL    MW4 2160   0.813   1.920   0.509  0.0830  0.4506  0.1241
  541SOL     OW 2161   2.112   3.337   0.558 -0.0201  0.0092  0.2274
  541SOL    HW2 2162   2.163   3.257   0.572 -0.1166 -0.0319  0.3535
  541SOL    HW3 2163   2.166   3.391   0.501 -0.6648 -0.8540 -1.2606
  541SOL    MW4 2164   2.126   3.333   0.552 -0.1179 -0.1101  0.0477
  542SOL     OW 2165   0.644   2.601   0.764 -0.5114 -0.1555  0.6433
  542SOL    HW2 2166   0.656   2.642   0.849 -0.9716  0.7359  0.2924
  542SOL    HW3 2167   0.724   2.552   0.749  1.0036  2.3729  0.1289
  542SOL    MW4 2168   0.656   2.600   0.773 -0.3723  0.2957  0.5291
  543SOL     OW 2169   0.630   2.413   1.106  0.7562 -0.1900  0.3733
  543SOL    HW2 2170   0.540   2.380   1.097  0.3626  0.8555  0.3823
  543SOL    HW3 2171   0.620   2.496   1.153  1.7488 -0.1526  0.5245
  543SOL    MW4 2172   0.617   2.419   1.111  0.8352 -0.0471  0.3944
  544SOL     OW 2173   0.765   1.172   1.887  0.0411 -0.0638  0.5561
  544SOL    HW2 2174   0.678   1.178   1.848 -0.3731  0.2458  1.5042
  544SOL    HW3 2175   0.800   1.088   1.857 -0.7891 -0.4192  0.5838
  544SOL    MW4 2176   0.759   1.162   1.878 -0.1231 -0.0698  0.6849
  545SOL     OW 2177   0.275   3.488   0.885 -0.2539 -0.0029  0.0375
  545SOL    HW2 2178   0.211   3.463   0.952  1.3215  1.2029  2.0707
  545SOL    HW3 2179   0.354   3.440   0.909  0.8228  1.7628  0.0432
  545SOL    MW4 2180   0.277   3.478   0.897  0.0960  0.3891  0.3065
  546SOL     OW 2181   3.772   3.373   1.183  0.2434  0.7506 -0.0682
  546SOL    HW2 2182   3.718   3.382   1.105  0.3824 -1.2038 -0.4225
  546SOL    HW3 2183   3.774   3.461   1.221 -1.2231  1.3603 -1.3273
  546SOL    MW4 2184   3.765   3.386   1.178  0.0683  0.5732 -0.2810
  547SOL     OW 2185   3.806   3.457   0.202 -0.1860 -0.0728  0.2800
  547SOL    HW2 2186   3.827   3.391   0.135  1.8596 -1.2464  2.0078
  547SOL    HW3 2187   3.728   3.422   0.246 -0.2284 -0.3960 -0.0479
  547SOL    MW4 2188   3.798   3.443   0.199  0.0783 -0.2703  0.4647
  548SOL     OW 2189   2.182   1.593   1.110  0.0540 -0.3499  0.0620
  548SOL    HW2 2190   2.201   1.622   1.199  0.6568 -0.5200 -0.0110
  548SOL    HW3 2191   2.204   1.500   1.110 -0.6265 -0.5121 -0.0697
  548SOL    MW4 2192   2.188   1.585   1.122  0.0438 -0.3937  0.0350
  549SOL     OW 2193   1.091   3.512   0.833 -0.0982  0.0047  0.0826
  549SOL    HW2 2194   1.070   3.604   0.851 -1.1847 -0.7691  3.0674
  549SOL    HW3 2195   1.026   3.484   0.769 -0.2138  1.0970 -0.2899
  549SOL    MW4 2196   1.080   3.521   0.827 -0.2568  0.0467  0.4273
  550SOL     OW 2197   2.546   1.964   1.291 -0.1228 -0.3516 -0.0797
  550SOL    HW2 2198   2.588   1.940   1.374 -2.2622 -0.6000  0.9882
  550SOL    HW3 2199   2.618   1.988   1.233  1.6346 -3.0921  0.8843
  550SOL    MW4 2200   2.561   1.964   1.295 -0.1732 -0.7460  0.1884
  551SOL     OW 2201   0.266   0.578   1.144 -0.3570 -0.2023 -0.8939
  551SOL    HW2 2202   0.359   0.582   1.123 -0.2220 -0.4899 -0.3615
  551SOL    HW3 2203   0.238   0.670   1.150 -0.0537 -0.1174 -0.7999
  551SOL    MW4 2204   0.275   0.591   1.142 -0.2992 -0.2291 -0.8112
  552SOL     OW 2205   0.217   0.453   1.392  0.1311 -0.2831 -0.7064
  552SOL    HW2 2206   0.200   0.361   1.372  1.7739 -0.7767  0.0959
  552SOL    HW3 2207   0.214   0.497   1.308 -0.5576 -1.0930 -1.1092
  552SOL    MW4 2208   0.215   0.447   1.379  0.2570 -0.4551 -0.6536
  553SOL     OW 2209   1.656   4.619   1.849 -0.2545 -0.0346 -0.3232
  553SOL    HW2 2210   1.718   4.675   1.895 -0.4523  1.3001 -1.6390
  553SOL    HW3 2211   1.697   4.533   1.849  1.1670  0.6211 -0.3613
  553SOL    MW4 2212   1.669   4.615   1.855 -0.0931  0.2280 -0.5019
  554SOL     OW 2213   0.994   3.193   0.873  0.4350  0.4156  0.0122
  554SOL    HW2 2214   1.044   3.211   0.794  0.1596  0.0839 -0.2395
  554SOL    HW3 2215   1.056   3.206   0.945  0.6599  0.8088 -0.2488
  554SOL    MW4 2216   1.009   3.197   0.872  0.4283  0.4237 -0.0554
  555SOL     OW 2217   2.277   0.142   1.027 -0.2534 -0.1254  0.1655
  555SOL    HW2 2218   2.207   0.078   1.038 -1.4253  0.9910 -0.6277
  555SOL    HW3 2219   2.271   0.198   1.105 -0.0802 -0.1735  0.2149
  555SOL    MW4 2220   2.267   0.141   1.039 -0.3851  0.0155  0.0674
  556SOL     OW 2221   0.990   2.722   1.727  0.0014  0.5008  0.7591
  556SOL    HW2 2222   1.062   2.747   1.785  1.1410 -0.7006 -0.0957
  556SOL    HW3 2223   0.986   2.792   1.662  1.4048 -0.1673 -0.0669
  556SOL    MW4 2224   0.999   2.734   1.726  0.3369  0.2542  0.5373
  557SOL     OW 2225   2.519   1.224   2.217 -0.3398  0.8234  0.6225
  557SOL    HW2 2226   2.541   1.204   2.126 -1.0882 -0.3316  0.6881
  557SOL    HW3 2227   2.577   1.168   2.269 -3.0612 -1.9589  0.8008
  557SOL    MW4 2228   2.529   1.214   2.212 -0.7976  0.3039  0.6547
  558SOL     OW 2229   2.195   4.020   0.393  0.2986 -0.0653  0.0596
  558SOL    HW2 2230   2.173   4.042   0.483 -0.2007 -1.1245  0.2065
  558SOL    HW3 2231   2.186   3.925   0.388 -1.1128  0.1222 -1.4871
  558SOL    MW4 2232   2.191   4.010   0.404  0.0465 -0.1803 -0.1251
  559SOL     OW 2233   2.542   2.779   1.964 -0.0288  0.1721  0.2286
  559SOL    HW2 2234   2.495   2.707   1.920 -0.3933  0.4029  0.2388
  559SOL    HW3 2235   2.631   2.773   1.930 -0.2787  0.2720 -0.4497
  559SOL    MW4 2236   2.547   2.769   1.954 -0.1099  0.2158  0.1404
  560SOL     OW 2237   1.966   2.887   2.238 -0.3526 -0.6390  0.0100
  560SOL    HW2 2238   1.987   2.897   2.145  1.8116 -3.2081  0.1618
  560SOL    HW3 2239   1.907   2.812   2.241 -1.6484  0.3838  0.5896
  560SOL    MW4 2240   1.961   2.878   2.226 -0.2380 -0.8430  0.1065
  561SOL     OW 2241   3.767   2.673   0.497 -0.3393 -0.0707  0.0357
  561SOL    HW2 2242   3.746   2.740   0.562 -0.5690 -0.3526  0.2566
  561SOL    HW3 2243   3.697   2.608   0.507 -0.5681  0.0496 -0.7242
  561SOL    MW4 2244   3.755   2.673   0.507 -0.3998 -0.0920 -0.0354
  562SOL     OW 2245   1.791   0.361   0.137  0.0921 -0.6729  0.2711
  562SOL    HW2 2246   1.749   0.385   0.054  0.9494 -0.5550 -0.1322
  562SOL    HW3 2247   1.719   0.333   0.193 -0.5447 -0.3172 -0.3645
  562SOL    MW4 2248   1.776   0.361   0.133  0.1212 -0.6104  0.1340
  563SOL     OW 2249   2.265   0.921   1.227 -0.0041  0.2619  0.2045
  563SOL    HW2 2250   2.236   1.009   1.251 -1.3657 -0.1186 -0.0456
  563SOL    HW3 2251   2.280   0.927   1.132  0.5292  0.3894  0.2925
  563SOL    MW4 2252   2.263   0.934   1.217 -0.1134  0.2285  0.1831
  564SOL     OW 2253   0.848   1.301   0.413  0.3337  0.3452  0.1909
  564SOL    HW2 2254   0.764   1.335   0.443 -0.2633 -2.5215  1.9630
  564SOL    HW3 2255   0.913   1.364   0.445 -0.8727  0.9412  1.4943
  564SOL    MW4 2256   0.846   1.314   0.421  0.0958  0.0456  0.5967
  565SOL     OW 2257   3.563   3.803   1.217 -0.6243  0.3206  0.0614
  565SOL    HW2 2258   3.499   3.732   1.226  0.2400 -0.6289 -1.1105
  565SOL    HW3 2259   3.553   3.833   1.126 -0.1556  0.9010  0.1967
  565SOL    MW4 2260   3.553   3.798   1.206 -0.4484  0.2719 -0.0754
  566SOL     OW 2261   0.809   2.752   0.399 -0.3190 -0.1492 -0.4674
  566SOL    HW2 2262   0.734   2.702   0.432  0.5961 -1.2233  0.0063
  566SOL    HW3 2263   0.799   2.839   0.438 -1.2838 -0.3050 -0.3556
  566SOL    MW4 2264   0.797   2.757   0.408 -0.3255 -0.3115 -0.3901
  567SOL     OW 2265   3.143   0.847   2.202 -0.0970 -0.1303  0.0804
  567SOL    HW2 2266   3.207   0.799   2.255  1.1638  1.4583  0.0409
  567SOL    HW3 2267   3.061   0.840   2.250  0.3773 -1.1413  0.7638
  567SOL    MW4 2268   3.141   0.840   2.215  0.1319 -0.0541  0.1654
  568SOL     OW 2269   1.352   2.590   0.568 -0.3192 -0.0990  0.0427
  568SOL    HW2 2270   1.425   2.649   0.587 -0.4734  0.0011  0.3259
  568SOL    HW3 2271   1.285   2.646   0.529 -0.1672 -0.2288 -0.4179
  568SOL    MW4 2272   1.353   2.605   0.565 -0.3195 -0.1029  0.0193
  569SOL     OW 2273   4.355   1.936   1.818  0.2954 -0.1189 -0.1430
  569SOL    HW2 2274   4.399   1.853   1.836  0.5661 -0.0340 -0.4092
  569SOL    HW3 2275   4.425   1.994   1.789 -0.3120 -0.5780 -2.5954
  569SOL    MW4 2276   4.370   1.933   1.817  0.2510 -0.1682 -0.5017
  570SOL     OW 2277   1.667   0.873   1.260 -0.3939 -0.0573  0.0328
  570SOL    HW2 2278   1.702   0.785   1.247  0.5601  0.2545  0.4133
  570SOL    HW3 2279   1.637   0.900   1.174  0.1588 -0.4058 -0.2714
  570SOL    MW4 2280   1.668   0.865   1.247 -0.1951 -0.0621  0.0428
  571SOL     OW 2281   3.966   2.679   1.069 -0.4526  0.6436  0.0963
  571SOL    HW2 2282   4.025   2.606   1.088 -0.8488  0.5131  0.8490
  571SOL    HW3 2283   3.959   2.681   0.974 -0.9169 -0.6661  0.0998
  571SOL    MW4 2284   3.973   2.670   1.059 -0.5662  0.4536  0.1961
  572SOL     OW 2285   1.612   1.435   1.569  0.1671 -0.6943 -0.6954
  572SOL    HW2 2286   1.571   1.510   1.526  0.2097 -1.1319 -1.5146
  572SOL    HW3 2287   1.658   1.389   1.499 -0.1645 -1.6941 -0.2739
  572SOL    MW4 2288   1.613   1.439   1.554  0.1289 -0.8839 -0.7479
  573SOL     OW 2289   1.814   0.379   2.296  0.3765  0.2771 -0.1600
  573SOL    HW2 2290   1.757   0.451   2.268  0.9825  0.9039  0.1778
  573SOL    HW3 2291   1.895   0.393   2.246  0.3495 -0.4152 -0.3959
  573SOL    MW4 2292   1.818   0.390   2.286  0.4529  0.2685 -0.1466
  574SOL     OW 2293   0.086   1.486   1.280  0.1260 -0.2428  0.1850
  574SOL    HW2 2294   0.054   1.567   1.241  1.5129  0.6464  0.8685
  574SOL    HW3 2295   0.104   1.509   1.371  0.4131 -1.3523  0.4168
  574SOL    MW4 2296   0.084   1.500   1.287  0.3469 -0.2718  0.3058
  575SOL     OW 2297   4.327   1.842   0.984  0.0191  0.2327  0.1173
  575SOL    HW2 2298   4.335   1.933   1.014 -0.3815  0.3789 -0.2031
  575SOL    HW3 2299   4.354   1.845   0.892 -1.1070  0.2455 -0.2197
  575SOL    MW4 2300   4.331   1.855   0.975 -0.1823  0.2537  0.0306
  576SOL     OW 2301   4.476   4.076   1.778  0.2098  0.2861 -0.1855
  576SOL    HW2 2302   4.431   4.125   1.709  1.3336 -0.8009 -1.7235
  576SOL    HW3 2303   4.457   3.984   1.758  2.3436 -0.1400 -0.3140
  576SOL    MW4 2304   4.468   4.070   1.766  0.6396  0.0865 -0.4054
  577SOL     OW 2305   1.437   4.349   0.420  0.3798  0.0975  0.3716
  577SOL    HW2 2306   1.531   4.339   0.409  0.1769 -1.5656 -0.0595
  577SOL    HW3 2307   1.413   4.420   0.360  1.4022  0.7739  0.7596
  577SOL    MW4 2308   1.446   4.357   0.411  0.4879 -0.0327  0.3659
  578SOL     OW 2309   3.201   3.018   1.546 -0.8588  0.2272 -0.3955
  578SOL    HW2 2310   3.201   3.113   1.532  0.0993  0.0985 -1.3381
  578SOL    HW3 2311   3.111   2.998   1.572 -1.2373  1.3113 -0.8331
  578SOL    MW4 2312   3.189   3.028   1.547 -0.7823  0.3533 -0.5776
  579SOL     OW 2313   3.725   0.326   1.478  0.0827 -0.2192 -0.2616
  579SOL    HW2 2314   3.744   0.252   1.420  0.3854  2.4673 -3.7041
  579SOL    HW3 2315   3.784   0.395   1.450  0.4330  1.1577  3.4743
  579SOL    MW4 2316   3.735   0.325   1.467  0.1689  0.3169 -0.2229
  580SOL     OW 2317   0.370   4.425   1.492 -0.1241 -0.3295 -0.2441
  580SOL    HW2 2318   0.294   4.483   1.500 -0.4276 -0.7728  0.1412
  580SOL    HW3 2319   0.361   4.387   1.405  0.6977  1.0619 -0.9419
  580SOL    MW4 2320   0.358   4.427   1.482 -0.0557 -0.2044 -0.2853
  581SOL     OW 2321   2.958   0.627   1.948  0.5714 -0.3241 -0.1719
  581SOL    HW2 2322   3.030   0.578   1.908  0.2351  0.1312 -1.3532
  581SOL    HW3 2323   2.879   0.586   1.914  0.2740 -0.5673  0.8106
  581SOL    MW4 2324   2.957   0.615   1.938  0.4878 -0.2962 -0.1981
  582SOL     OW 2325   0.356   0.750   0.828 -0.1465  0.6208 -0.3597
  582SOL    HW2 2326   0.265   0.762   0.856 -0.5793  0.2992 -1.5857
  582SOL    HW3 2327   0.406   0.810   0.884 -1.1194  0.8980  0.2372
  582SOL    MW4 2328   0.350   0.760   0.839 -0.3320  0.6149 -0.4427
  583SOL     OW 2329   0.236   2.096   1.448 -0.4610 -0.5329 -0.5559
  583SOL    HW2 2330   0.173   2.084   1.519 -0.2749  0.1988 -0.2616
  583SOL    HW3 2331   0.319   2.110   1.492 -0.4857  0.7257 -0.8951
  583SOL    MW4 2332   0.238   2.096   1.463 -0.4397 -0.2703 -0.5618
  584SOL     OW 2333   1.084   0.349   0.693 -0.4448 -0.3539 -0.1529
  584SOL    HW2 2334   1.002   0.373   0.737  1.1831  1.2524  2.1432
  584SOL    HW3 2335   1.114   0.271   0.740 -0.5772 -0.8571 -0.9007
  584SOL    MW4 2336   1.077   0.342   0.705 -0.2475 -0.2084  0.0514
  585SOL     OW 2337   4.124   1.743   1.169 -0.0192 -0.7860  0.2350
  585SOL    HW2 2338   4.199   1.785   1.126 -0.5513 -0.4593 -0.3957
  585SOL    HW3 2339   4.142   1.752   1.262 -0.0940  0.8048  0.1120
  585SOL    MW4 2340   4.137   1.750   1.176 -0.0993 -0.5330  0.1355
  586SOL     OW 2341   1.638   3.700   0.873  0.1333  0.1770  0.4597
  586SOL    HW2 2342   1.632   3.748   0.955  0.3780  1.7932 -0.4292
  586SOL    HW3 2343   1.547   3.695   0.842  0.0117 -0.6441  0.9334
  586SOL    MW4 2344   1.625   3.706   0.879  0.1496  0.2819  0.4049
  587SOL     OW 2345   2.095   3.583   1.202 -0.1251  0.0028  0.1963
  587SOL    HW2 2346   2.123   3.587   1.111  0.8943 -0.1405  0.4946
  587SOL    HW3 2347   2.053   3.668   1.218  2.0771  1.1007  0.3324
  587SOL    MW4 2348   2.093   3.595   1.192  0.2999  0.1288  0.2536
  588SOL     OW 2349   1.192   4.187   0.952 -0.4682 -0.2595  0.1307
  588SOL    HW2 2350   1.127   4.123   0.982  0.1092 -0.3473  1.2284
  588SOL    HW3 2351   1.277   4.144   0.966 -0.0842  0.6572  0.6749
  588SOL    MW4 2352   1.195   4.173   0.958 -0.3413 -0.1501  0.3473
  589SOL     OW 2353   0.893   1.049   0.527 -0.0708  0.2151 -0.1808
  589SOL    HW2 2354   0.864   1.123   0.475  0.7358  0.4739 -0.2705
  589SOL    HW3 2355   0.820   1.029   0.585 -0.2927  1.0712 -0.1719
  589SOL    MW4 2356   0.880   1.056   0.528  0.0063  0.3622 -0.1915
  590SOL     OW 2357   2.678   2.462   0.593  0.1549 -0.0727  0.2573
  590SOL    HW2 2358   2.597   2.411   0.592  0.0314  0.0093  2.7988
  590SOL    HW3 2359   2.742   2.405   0.552 -0.8929 -0.6617 -0.5921
  590SOL    MW4 2360   2.676   2.448   0.588  0.0004 -0.1396  0.4805
  591SOL     OW 2361   1.686   3.155   0.358  0.0067  0.5023  0.4594
  591SOL    HW2 2362   1.687   3.251   0.348 -0.3681  0.5080  0.4635
  591SOL    HW3 2363   1.727   3.140   0.443  0.5387  0.6292  0.2279
  591SOL    MW4 2364   1.691   3.166   0.368  0.0274  0.5198  0.4294
  592SOL     OW 2365   3.971   0.942   1.856 -0.0223 -0.6178 -0.1684
  592SOL    HW2 2366   3.984   0.935   1.950  1.2377  2.9307 -0.0142
  592SOL    HW3 2367   4.054   0.911   1.818 -0.4402 -1.8073 -0.1543
  592SOL    MW4 2368   3.984   0.937   1.863  0.0888 -0.3066 -0.1462
  593SOL     OW 2369   4.462   3.123   1.987  0.2448  0.0354 -0.1544
  593SOL    HW2 2370   4.478   3.206   1.942  2.7896 -0.0365  0.5216
  593SOL    HW3 2371   4.515   3.059   1.940 -0.4633 -0.8855  0.2907
  593SOL    MW4 2372   4.471   3.126   1.975  0.4871 -0.0956 -0.0065
  594SOL     OW 2373   3.425   4.441   0.797  0.2167  0.2632  0.1683
  594SOL    HW2 2374   3.437   4.354   0.759  0.1127  0.3113  0.0208
  594SOL    HW3 2375   3.376   4.425   0.878 -2.8657  0.4747 -1.5739
  594SOL    MW4 2376   3.420   4.427   0.803 -0.2037  0.2974 -0.0810
  595SOL     OW 2377   3.691   0.970   1.817  0.2177  0.4123  0.0632
  595SOL    HW2 2378   3.786   0.978   1.829  0.1974 -0.2472  0.7554
  595SOL    HW3 2379   3.675   1.003   1.729  1.1333  0.2406 -0.1793
  595SOL    MW4 2380   3.702   0.975   1.807  0.3359  0.3026  0.1225
  596SOL     OW 2381   0.697   3.081   1.933  0.1251 -0.1059  0.2640
  596SOL    HW2 2382   0.765   3.147   1.945  1.7836 -2.1063  2.2820
  596SOL    HW3 2383   0.728   3.028   1.859 -1.4643  1.5921 -1.7080
  596SOL    MW4 2384   0.710   3.083   1.925  0.1342 -0.1458  0.2701
  597SOL     OW 2385   1.529   2.214   0.789 -0.2864 -0.2089 -0.0471
  597SOL    HW2 2386   1.471   2.290   0.799 -0.2741 -0.2627  0.4567
  597SOL    HW3 2387   1.556   2.193   0.878 -0.3809 -0.8755 -0.1732
  597SOL    MW4 2388   1.525   2.221   0.802 -0.2972 -0.3040  0.0027
  598SOL     OW 2389   2.689   3.184   2.184 -0.2530  0.0685  0.4269
  598SOL    HW2 2390   2.610   3.163   2.233 -0.0929 -1.1627  0.1654
  598SOL    HW3 2391   2.661   3.186   2.092 -0.0599 -0.0178  0.3644
  598SOL    MW4 2392   2.675   3.182   2.178 -0.2064 -0.1053  0.3842
  599SOL     OW 2393   1.841   2.546   1.572  0.0317 -0.1647  0.0582
  599SOL    HW2 2394   1.793   2.465   1.554 -0.6978 -0.2612  2.2982
  599SOL    HW3 2395   1.933   2.522   1.561 -0.2312 -0.9822 -0.4186
  599SOL    MW4 2396   1.847   2.532   1.568 -0.0993 -0.2853  0.2908
  600SOL     OW 2397   2.540   4.052   0.939  0.3148 -0.0778 -0.0048
  600SOL    HW2 2398   2.478   4.065   1.010  0.6748 -0.3186  0.3533
  600SOL    HW3 2399   2.623   4.037   0.982  0.7987  1.1173 -0.5018
  600SOL    MW4 2400   2.542   4.052   0.954  0.4262  0.0481 -0.0231
  601SOL     OW 2401   3.688   2.793   0.976 -0.0287  0.0521 -0.0510
  601SOL    HW2 2402   3.646   2.709   0.998  0.0510 -0.5624 -2.1670
  601SOL    HW3 2403   3.618   2.858   0.989 -1.1372 -0.7542 -1.7130
  601SOL    MW4 2404   3.673   2.790   0.981 -0.1644 -0.1354 -0.5494
  602SOL     OW 2405   1.278   0.572   0.692  0.0066 -0.4876 -0.8302
  602SOL    HW2 2406   1.219   0.499   0.670 -1.0281  0.1325 -0.1404
  602SOL    HW3 2407   1.221   0.647   0.702  0.7444 -0.1436  1.1624
  602SOL    MW4 2408   1.263   0.572   0.691 -0.0326 -0.3604 -0.4763
  603SOL     OW 2409   1.274   3.483   1.066  0.1858 -0.0182 -0.0268
  603SOL    HW2 2410   1.269   3.388   1.077  0.3200 -0.1426 -0.9887
  603SOL    HW3 2411   1.214   3.503   0.995  3.6246  0.0025 -3.0878
  603SOL    MW4 2412   1.266   3.473   1.058  0.6572 -0.0319 -0.5575
  604SOL     OW 2413   0.138   3.296   0.680  0.5247 -0.0831 -0.0431
  604SOL    HW2 2414   0.143   3.392   0.688 -1.5499  0.0442  0.0479
  604SOL    HW3 2415   0.125   3.265   0.770  0.4139 -0.3752 -0.1584
  604SOL    MW4 2416   0.137   3.305   0.693  0.2363 -0.1048 -0.0463
  605SOL     OW 2417   2.708   0.363   2.596 -0.6098 -0.1392 -0.4865
  605SOL    HW2 2418   2.631   0.405   2.633  0.0634  0.4019  0.3466
  605SOL    HW3 2419   2.704   0.273   2.628 -0.4108  0.1393  0.3549
  605SOL    MW4 2420   2.697   0.357   2.605 -0.4947 -0.0311 -0.2656
  606SOL     OW 2421   3.580   3.329   0.356 -0.0005 -0.3701 -0.0350
  606SOL    HW2 2422   3.494   3.371   0.358  0.4431  0.5166  1.1926
  606SOL    HW3 2423   3.598   3.307   0.448  1.7352  0.8269 -0.0696
  606SOL    MW4 2424   3.571   3.332   0.369  0.2871 -0.0951  0.1224
  607SOL     OW 2425   4.421   0.045   1.390 -0.1274  0.1261  0.9237
  607SOL    HW2 2426   4.413   0.086   1.304  2.6541  0.1757  0.6594
  607SOL    HW3 2427   4.400  -0.047   1.375 -2.6028  0.6637  0.7995
  607SOL    MW4 2428   4.417   0.038   1.377 -0.0870  0.2035  0.8724
  608SOL     OW 2429   2.443   0.505   0.710 -0.3907  0.1945 -0.3599
  608SOL    HW2 2430   2.419   0.547   0.627 -0.9369 -0.5362 -0.5835
  608SOL    HW3 2431   2.517   0.450   0.687  1.1013  1.9396  0.1889
  608SOL    MW4 2432   2.449   0.503   0.696 -0.2659  0.3283 -0.3170
  609SOL     OW 2433   1.139   4.270   0.682 -0.0744  0.2621  0.1296
  609SOL    HW2 2434   1.195   4.196   0.657  0.9322  1.1952 -0.3941
  609SOL    HW3 2435   1.151   4.277   0.777  1.0509  0.7375 -0.0389
  609SOL    MW4 2436   1.148   4.261   0.691  0.2068  0.4480  0.0382
  610SOL     OW 2437   2.420   1.406   1.935  0.1347  0.0453 -0.7196
  610SOL    HW2 2438   2.336   1.403   1.981  0.4639  1.2739 -0.0229
  610SOL    HW3 2439   2.398   1.424   1.844 -0.3519  0.2935 -0.5501
  610SOL    MW4 2440   2.406   1.408   1.929  0.1139  0.2401 -0.6053
  611SOL     OW 2441   0.923   1.089   2.240 -0.0526 -0.6712  0.4287
  611SOL    HW2 2442   0.846   1.137   2.212  0.5011 -0.4637 -0.7767
  611SOL    HW3 2443   0.910   1.000   2.208  1.0574 -0.1842 -1.4291
  611SOL    MW4 2444   0.911   1.083   2.232  0.1669 -0.5796  0.0246
  612SOL     OW 2445   0.456   0.838   0.569 -0.1455  0.2095 -0.2436
  612SOL    HW2 2446   0.502   0.754   0.558  1.5362  0.9066  1.1943
  612SOL    HW3 2447   0.410   0.828   0.653 -0.8577  0.3126 -0.6235
  612SOL    MW4 2448   0.456   0.825   0.579 -0.0175  0.3150 -0.1040
  613SOL     OW 2449   4.134   2.227   0.979  0.0804  0.4298  0.1429
  613SOL    HW2 2450   4.137   2.221   0.883 -1.8163 -1.1137  0.1261
  613SOL    HW3 2451   4.207   2.173   1.009 -0.0769 -0.1020 -0.4249
  613SOL    MW4 2452   4.144   2.219   0.970 -0.1906  0.1560  0.0658
  614SOL     OW 2453   2.617   3.431   0.854 -0.1883 -0.3140 -0.1895
  614SOL    HW2 2454   2.641   3.409   0.944 -0.5059 -1.6568 -0.4124
  614SOL    HW3 2455   2.578   3.350   0.820 -0.2166  0.2337 -1.4790
  614SOL    MW4 2456   2.615   3.417   0.861 -0.2339 -0.4189 -0.3890
  615SOL     OW 2457   0.836   2.291   0.975 -0.6108  0.3728  0.2789
  615SOL    HW2 2458   0.753   2.329   1.004 -1.0048 -0.9202  0.8735
  615SOL    HW3 2459   0.838   2.309   0.881 -2.4205 -1.1197 -0.0868
  615SOL    MW4 2460   0.825   2.299   0.966 -0.9016  0.0053  0.3091
  616SOL     OW 2461   3.481   3.267   0.653 -0.1766 -0.0054 -0.4330
  616SOL    HW2 2462   3.386   3.252   0.648 -0.3349  0.3112  1.1363
  616SOL    HW3 2463   3.499   3.269   0.747  1.3322  0.3422 -0.7203
  616SOL    MW4 2464   3.471   3.265   0.665  0.0016  0.0822 -0.2638
  617SOL     OW 2465   2.815   0.601   1.027 -0.2498 -0.2288  0.1657
  617SOL    HW2 2466   2.734   0.550   1.019 -1.2360  1.2135  0.7085
  617SOL    HW3 2467   2.844   0.586   1.117 -0.3571 -0.1129  0.2204
  617SOL    MW4 2468   2.808   0.593   1.038 -0.3941 -0.0232  0.2445
  618SOL     OW 2469   2.446   2.857   1.102 -0.2918  0.4269 -0.4970
  618SOL    HW2 2470   2.525   2.864   1.156 -0.6412  0.9485 -0.0394
  618SOL    HW3 2471   2.374   2.871   1.163 -0.8075 -1.3557 -0.6714
  618SOL    MW4 2472   2.447   2.860   1.117 -0.4059  0.2606 -0.4597
  619SOL     OW 2473   3.179   0.460   1.871  0.4471  0.0194 -0.3291
  619SOL    HW2 2474   3.176   0.451   1.776 -0.2962  1.6879 -0.4828
  619SOL    HW3 2475   3.272   0.473   1.891  0.6463 -0.6939 -0.7849
  619SOL    MW4 2476   3.191   0.461   1.861  0.3753  0.1454 -0.4095
  620SOL     OW 2477   3.944   0.406   0.426 -0.3367  0.0028 -0.3992
  620SOL    HW2 2478   3.917   0.386   0.516  0.5776 -0.5672 -0.2379
  620SOL    HW3 2479   4.021   0.462   0.437 -0.2839  0.0116 -0.8310
  620SOL    MW4 2480   3.951   0.411   0.440 -0.2091 -0.0713 -0.4349
  621SOL     OW 2481   1.034   2.213   1.320 -0.1734  0.1236  0.7154
  621SOL    HW2 2482   0.951   2.259   1.329 -0.5794 -0.9847  2.7636
  621SOL    HW3 2483   1.011   2.131   1.276 -0.0689  0.0492  0.8012
  621SOL    MW4 2484   1.020   2.208   1.315 -0.2132 -0.0324  0.9970
  622SOL     OW 2485   2.206   4.382   1.405 -0.4349  0.1075  0.4172
  622SOL    HW2 2486   2.213   4.463   1.455  2.3069 -0.3673  0.9342
  622SOL    HW3 2487   2.251   4.400   1.323 -1.1028 -0.4301 -0.0678
  622SOL    MW4 2488   2.213   4.395   1.401 -0.1613 -0.0261  0.4214
  623SOL     OW 2489   3.561   4.265   2.242  0.3394  0.6024  0.2916
  623SOL    HW2 2490   3.646   4.290   2.206  0.1172  1.2576  0.2215
  623SOL    HW3 2491   3.551   4.172   2.218 -0.5103  1.4074 -2.7097
  623SOL    MW4 2492   3.571   4.256   2.234  0.1979  0.7950 -0.1137
  624SOL     OW 2493   2.486   2.198   0.912  0.2707  0.0630 -0.4889
  624SOL    HW2 2494   2.565   2.251   0.926 -0.1481  0.2364  1.3653
  624SOL    HW3 2495   2.519   2.108   0.903  0.6734  0.0975  0.5451
  624SOL    MW4 2496   2.501   2.193   0.913  0.2685  0.0904 -0.1079
  625SOL     OW 2497   1.181   2.236   1.793  0.2273 -0.0817  0.0646
  625SOL    HW2 2498   1.156   2.149   1.826 -2.0462  0.5685  0.1803
  625SOL    HW3 2499   1.137   2.243   1.708 -2.3204  2.1444  1.4646
  625SOL    MW4 2500   1.172   2.225   1.786 -0.4088  0.2978  0.2646
  626SOL     OW 2501   1.350   4.138   0.277  0.1090  0.1222 -0.4099
  626SOL    HW2 2502   1.380   4.167   0.191 -3.3470  2.4777 -0.9347
  626SOL    HW3 2503   1.379   4.206   0.337 -0.4748  0.2287 -0.2484
  626SOL    MW4 2504   1.358   4.151   0.274 -0.4240  0.4471 -0.4578
  627SOL     OW 2505   3.875   1.893   0.787  0.1315 -0.0179 -0.6309
  627SOL    HW2 2506   3.875   1.986   0.763  0.7867  0.2253  0.3343
  627SOL    HW3 2507   3.900   1.891   0.879 -1.3693 -1.0454 -0.2279
  627SOL    MW4 2508   3.878   1.905   0.796  0.0200 -0.1214 -0.4504
  628SOL     OW 2509   3.640   3.409   2.253 -0.3365  0.1517  0.5869
  628SOL    HW2 2510   3.654   3.319   2.225 -0.5806  0.5831 -0.9251
  628SOL    HW3 2511   3.608   3.401   2.343 -0.0704 -1.2491  0.5652
  628SOL    MW4 2512   3.638   3.396   2.261 -0.3336  0.0238  0.3845
  629SOL     OW 2513   0.543   4.397   0.328  0.2279  0.3552 -0.4441
  629SOL    HW2 2514   0.536   4.487   0.358 -1.8467  0.1853 -0.3886
  629SOL    HW3 2515   0.484   4.392   0.252 -0.3373 -1.1647  0.0722
  629SOL    MW4 2516   0.534   4.408   0.322 -0.1204  0.1322 -0.3687
  630SOL     OW 2517   2.228   3.653   0.946  0.1280 -0.1002 -0.3808
  630SOL    HW2 2518   2.319   3.666   0.973  0.5894 -2.0067 -0.9612
  630SOL    HW3 2519   2.229   3.569   0.899 -1.7347  0.3782 -1.2859
  630SOL    MW4 2520   2.240   3.643   0.944 -0.0569 -0.2887 -0.5768
  631SOL     OW 2521   3.680   1.109   1.130  0.2724  0.1659  0.0155
  631SOL    HW2 2522   3.732   1.092   1.209  0.9561 -2.0397 -0.8603
  631SOL    HW3 2523   3.719   1.188   1.093  1.5046 -0.1341  0.6273
  631SOL    MW4 2524   3.692   1.117   1.136  0.5252 -0.1647 -0.0193
  632SOL     OW 2525   0.913   2.946   0.823 -0.0011  0.3181  0.2865
  632SOL    HW2 2526   0.963   3.027   0.818 -0.6085  0.6013 -1.6119
  632SOL    HW3 2527   0.973   2.878   0.792  0.2995  0.1371  1.2598
  632SOL    MW4 2528   0.927   2.948   0.818 -0.0416  0.3316  0.1645
  633SOL     OW 2529   1.374   2.348   1.941  0.5464 -0.2890 -0.5502
  633SOL    HW2 2530   1.292   2.306   1.913  1.2264 -1.0321 -1.4549
  633SOL    HW3 2531   1.435   2.276   1.954  1.0638  0.2619  0.1393
  633SOL    MW4 2532   1.371   2.333   1.939  0.7044 -0.3144 -0.5786
  634SOL     OW 2533   0.247   3.054   2.345  0.4950 -0.0858  0.3241
  634SOL    HW2 2534   0.171   3.091   2.300  0.7785 -0.1119 -0.1797
  634SOL    HW3 2535   0.243   2.960   2.327  0.9118 -0.0257 -0.1174
  634SOL    MW4 2536   0.237   3.046   2.337  0.5874 -0.0813  0.1993
  635SOL     OW 2537   0.898   4.574   1.941  0.0512  0.0023 -0.3501
  635SOL    HW2 2538   0.805   4.595   1.925 -0.0395 -1.0734 -1.2759
  635SOL    HW3 2539   0.932   4.652   1.985 -1.5451  0.0159  0.9425
  635SOL    MW4 2540   0.890   4.587   1.945 -0.1714 -0.1378 -0.3017
  636SOL     OW 2541   1.694   4.417   1.489 -0.0720  0.2254  0.3942
  636SOL    HW2 2542   1.627   4.372   1.439  0.2379  2.0464 -1.7182
  636SOL    HW3 2543   1.777   4.390   1.450  0.1626  1.8361 -0.2594
  636SOL    MW4 2544   1.697   4.408   1.477 -0.0002  0.6782  0.0292
  637SOL     OW 2545   1.379   0.160   0.425 -0.4002  0.0490  0.4889
  637SOL    HW2 2546   1.305   0.218   0.408 -0.5183 -0.5413 -1.0445
  637SOL    HW3 2547   1.384   0.155   0.521 -1.5544  1.0806  0.6102
  637SOL    MW4 2548   1.370   0.167   0.435 -0.5680  0.1072  0.3026
  638SOL     OW 2549   1.499   1.389   0.450 -0.5476 -0.5024 -0.1844
  638SOL    HW2 2550   1.586   1.394   0.412 -0.6735  1.7831 -0.2828
  638SOL    HW3 2551   1.508   1.432   0.536 -1.8045  0.8924 -0.7120
  638SOL    MW4 2552   1.512   1.396   0.457 -0.7301 -0.0169 -0.2670
  639SOL     OW 2553   0.123   1.330   0.813 -0.1941  0.3694  0.2635
  639SOL    HW2 2554   0.107   1.236   0.824 -2.2929  0.6483 -0.0542
  639SOL    HW3 2555   0.037   1.370   0.825  0.1512  2.0029 -2.2738
  639SOL    MW4 2556   0.109   1.323   0.816 -0.4254  0.6217 -0.1132
  640SOL     OW 2557   1.793   0.137   1.006 -0.1061 -0.3442 -0.3030
  640SOL    HW2 2558   1.798   0.232   1.019  1.2393 -0.5317  0.7079
  640SOL    HW3 2559   1.782   0.126   0.911 -0.0032  0.8121 -0.4535
  640SOL    MW4 2560   1.792   0.148   0.995  0.0850 -0.2164 -0.1895
  641SOL     OW 2561   3.039   4.177   1.762 -0.5939 -0.0722 -0.1281
  641SOL    HW2 2562   2.998   4.127   1.691 -0.6824 -0.3429  0.1120
  641SOL    HW3 2563   3.128   4.195   1.731 -0.4477 -0.6892 -0.0613
  641SOL    MW4 2564   3.045   4.173   1.749 -0.5863 -0.1893 -0.0876
  642SOL     OW 2565   0.158   3.369   1.462  0.0454  0.0986  0.4865
  642SOL    HW2 2566   0.197   3.421   1.391  1.2034  0.0663  1.0844
  642SOL    HW3 2567   0.064   3.371   1.445  0.2786  0.4923 -0.7830
  642SOL    MW4 2568   0.151   3.377   1.450  0.2290  0.1463  0.3979
  643SOL     OW 2569   2.928   2.082   1.486 -0.2632 -0.2538  0.1211
  643SOL    HW2 2570   3.007   2.102   1.436  0.9686  0.1916  2.2189
  643SOL    HW3 2571   2.895   2.168   1.513 -1.1733 -0.4728 -0.2815
  643SOL    MW4 2572   2.934   2.096   1.483 -0.2208 -0.2240  0.3448
  644SOL     OW 2573   0.514   3.672   1.303  0.5130 -0.1590 -0.1092
  644SOL    HW2 2574   0.585   3.627   1.349  0.3552 -0.1791  0.1164
  644SOL    HW3 2575   0.462   3.601   1.265  0.5296 -0.1490 -0.1507
  644SOL    MW4 2576   0.516   3.656   1.304  0.4944 -0.1603 -0.0849
  645SOL     OW 2577   4.484   3.759   0.867  0.0370 -0.0383  0.6206
  645SOL    HW2 2578   4.513   3.844   0.834  0.8668 -0.9452 -1.0852
  645SOL    HW3 2579   4.545   3.737   0.937  0.7503  0.1030  0.0507
  645SOL    MW4 2580   4.496   3.767   0.872  0.2406 -0.1393  0.3204
  646SOL     OW 2581   2.495   4.218   1.318 -0.0419 -0.3404  0.1409
  646SOL    HW2 2582   2.519   4.132   1.283 -2.8138 -0.3570 -1.8863
  646SOL    HW3 2583   2.441   4.198   1.395  0.2399 -0.4068  0.3207
  646SOL    MW4 2584   2.491   4.204   1.323 -0.3705 -0.3513 -0.1028
  647SOL     OW 2585   4.413   2.786   0.995 -0.4510  0.4002 -0.4015
  647SOL    HW2 2586   4.430   2.753   1.083 -0.8515  0.8902 -0.1338
  647SOL    HW3 2587   4.490   2.841   0.975 -0.8048  1.0651  0.0347
  647SOL    MW4 2588   4.426   2.789   1.004 -0.5505  0.5526 -0.3086
  648SOL     OW 2589   3.884   1.178   0.762 -0.1577 -0.0809 -0.0355
  648SOL    HW2 2590   3.974   1.159   0.788 -0.7831 -0.7310  1.6804
  648SOL    HW3 2591   3.851   1.237   0.829 -1.1727 -0.2146 -0.4079
  648SOL    MW4 2592   3.891   1.183   0.774 -0.3741 -0.1843  0.1417
  649SOL     OW 2593   2.577   0.965   0.903  0.3010 -0.4856  0.2375
  649SOL    HW2 2594   2.612   0.960   0.991  0.4140  0.9152  0.2818
  649SOL    HW3 2595   2.648   0.933   0.847  0.1623 -1.5520  0.6579
  649SOL    MW4 2596   2.591   0.960   0.907  0.2976 -0.4415  0.2988
  650SOL     OW 2597   3.295   0.368   0.507  0.0391  0.2470 -0.4099
  650SOL    HW2 2598   3.229   0.415   0.457  0.9414  1.7011 -0.2399
  650SOL    HW3 2599   3.362   0.433   0.527  1.6624 -1.2483 -0.7894
  650SOL    MW4 2600   3.295   0.383   0.503  0.3723  0.2415 -0.4375
  651SOL     OW 2601   0.483   1.139   2.222  0.4720 -0.1834  0.5199
  651SOL    HW2 2602   0.393   1.167   2.206  0.3449  0.2941  1.9623
  651SOL    HW3 2603   0.483   1.045   2.207  0.1319  0.0871 -1.1719
  651SOL    MW4 2604   0.471   1.130   2.218  0.4104 -0.0847  0.4870
  652SOL     OW 2605   3.957   1.553   1.592 -0.2586 -0.4265  0.1578
  652SOL    HW2 2606   3.930   1.507   1.513 -1.5589  0.9881 -0.2291
  652SOL    HW3 2607   3.906   1.513   1.662  0.2078 -1.0447  0.1458
  652SOL    MW4 2608   3.947   1.542   1.591 -0.3686 -0.3214  0.1051
  653SOL     OW 2609   1.100   4.277   1.303  0.2777 -0.3447 -0.2855
  653SOL    HW2 2610   1.027   4.338   1.310 -0.9984 -2.0255  1.8702
  653SOL    HW3 2611   1.171   4.328   1.265 -1.4456  1.8343 -0.6572
  653SOL    MW4 2612   1.100   4.291   1.299 -0.1181 -0.2790 -0.0501
  654SOL     OW 2613   4.170   1.809   1.646  0.0440  0.2121 -0.2427
  654SOL    HW2 2614   4.205   1.727   1.612 -0.8678 -0.4163  0.3107
  654SOL    HW3 2615   4.246   1.857   1.679  0.5753 -0.4072 -0.5755
  654SOL    MW4 2616   4.185   1.805   1.646 -0.0062  0.0475 -0.2136
  655SOL     OW 2617   0.126   3.769   1.475  0.2257 -0.1862 -0.3382
  655SOL    HW2 2618   0.221   3.782   1.472  0.0250  0.9679 -2.0640
  655SOL    HW3 2619   0.089   3.855   1.455 -1.2142 -0.4309  1.1153
  655SOL    MW4 2620   0.133   3.782   1.472  0.0092 -0.0662 -0.3742
  656SOL     OW 2621   4.236   3.214   0.791  0.3001 -0.4645 -0.2979
  656SOL    HW2 2622   4.193   3.299   0.777  1.0127 -0.0557 -0.0210
  656SOL    HW3 2623   4.236   3.173   0.705 -0.6772 -0.4843 -0.2962
  656SOL    MW4 2624   4.230   3.220   0.778  0.2652 -0.4132 -0.2611
  657SOL     OW 2625   0.979   2.616   0.915 -0.2069 -0.1744 -0.4706
  657SOL    HW2 2626   1.030   2.684   0.871  0.7031 -0.9960 -0.7270
  657SOL    HW3 2627   1.039   2.541   0.920 -0.3609 -0.1684  2.0252
  657SOL    MW4 2628   0.994   2.615   0.910 -0.1071 -0.2820 -0.1751
  658SOL     OW 2629   4.357   1.369   1.370 -0.2847  0.1816 -0.1552
  658SOL    HW2 2630   4.439   1.402   1.331 -0.1254  0.0682  0.0816
  658SOL    HW3 2631   4.327   1.441   1.425 -0.5871  0.3976 -0.5978
  658SOL    MW4 2632   4.364   1.383   1.372 -0.3036  0.1951 -0.1823
  659SOL     OW 2633   3.536   0.114   2.135 -0.2381 -0.2785 -0.0312
  659SOL    HW2 2634   3.613   0.072   2.173  0.5515  1.1326 -0.0369
  659SOL    HW3 2635   3.531   0.077   2.046 -0.0046 -0.9219  0.2174
  659SOL    MW4 2636   3.546   0.103   2.128 -0.1031 -0.1772  0.0008
  660SOL     OW 2637   2.031   0.501   1.380  0.1679 -0.0717  0.2376
  660SOL    HW2 2638   2.112   0.505   1.430  1.6008  1.3749 -2.1280
  660SOL    HW3 2639   2.035   0.575   1.320 -1.9965 -1.1088 -1.2815
  660SOL    MW4 2640   2.042   0.511   1.379  0.0714 -0.0177 -0.2750
  661SOL     OW 2641   3.460   0.464   1.371  0.1820 -0.0540 -0.5217
  661SOL    HW2 2642   3.530   0.408   1.404  1.1325  1.5374  0.2200
  661SOL    HW3 2643   3.383   0.407   1.371  1.2001 -1.4826 -0.1919
  661SOL    MW4 2644   3.459   0.449   1.376  0.4418 -0.0325 -0.3803
  662SOL     OW 2645   0.212   4.406   1.930 -0.3834 -0.4366 -0.3206
  662SOL    HW2 2646   0.289   4.459   1.951 -0.2327 -0.3929 -0.9572
  662SOL    HW3 2647   0.166   4.395   2.013  0.6208 -0.9555  0.1706
  662SOL    MW4 2648   0.216   4.411   1.944 -0.2310 -0.4993 -0.3398
  663SOL     OW 2649   2.781   0.787   0.778  0.5389 -0.0269 -0.4927
  663SOL    HW2 2650   2.765   0.711   0.834 -0.2495 -0.5173 -1.3857
  663SOL    HW3 2651   2.863   0.824   0.812  1.4857 -1.8568 -0.6948
  663SOL    MW4 2652   2.790   0.782   0.790  0.5598 -0.3330 -0.6372
  664SOL     OW 2653   4.142   0.390   1.306 -0.2814 -0.2654 -0.9258
  664SOL    HW2 2654   4.164   0.313   1.359  2.1049  0.0288 -1.4542
  664SOL    HW3 2655   4.136   0.356   1.217 -0.2539 -0.0190 -1.0208
  664SOL    MW4 2656   4.144   0.375   1.302  0.0371 -0.1941 -1.0081
  665SOL     OW 2657   3.397   2.923   1.022  0.4698 -0.0490  0.0482
  665SOL    HW2 2658   3.316   2.891   0.981  0.9125 -0.9112 -0.1822
  665SOL    HW3 2659   3.370   2.951   1.109 -0.2074  0.3538 -0.2806
  665SOL    MW4 2660   3.383   2.922   1.028  0.4388 -0.1096 -0.0256
  666SOL     OW 2661   2.847   1.337   0.445  0.6488  0.3524  0.0216
  666SOL    HW2 2662   2.865   1.329   0.351 -1.9371  2.4765 -0.7285
  666SOL    HW3 2663   2.886   1.421   0.470  0.4341  0.2887  0.5861
  666SOL    MW4 2664   2.854   1.347   0.436  0.2793  0.6242 -0.0029
  667SOL     OW 2665   3.632   1.060   1.553 -0.2712 -0.0670  0.2348
  667SOL    HW2 2666   3.577   1.129   1.591 -0.2996 -0.3649  0.7479
  667SOL    HW3 2667   3.571   1.005   1.504 -0.3201  0.0139  0.2041
  667SOL    MW4 2668   3.616   1.062   1.552 -0.2814 -0.0956  0.2984
  668SOL     OW 2669   0.748   1.878   1.749 -0.2591 -0.6777 -0.6110
  668SOL    HW2 2670   0.804   1.803   1.769 -0.2853 -0.8151 -1.0491
  668SOL    HW3 2671   0.665   1.840   1.722 -0.2549 -0.4918 -0.8840
  668SOL    MW4 2672   0.745   1.863   1.748 -0.2620 -0.6713 -0.7049
  669SOL     OW 2673   1.164   2.776   0.478 -0.0350  0.2563 -0.8003
  669SOL    HW2 2674   1.111   2.745   0.404 -0.1690  1.4581 -1.2315
  669SOL    HW3 2675   1.207   2.854   0.444 -1.1185  1.5802  0.7988
  669SOL    MW4 2676   1.162   2.782   0.464 -0.1956  0.5895 -0.6462
  670SOL     OW 2677   2.100   2.944   0.817  0.1707 -0.6120 -0.4222
  670SOL    HW2 2678   2.015   2.987   0.823  0.7877  1.0568 -2.8494
  670SOL    HW3 2679   2.136   2.973   0.733  2.5076 -2.4550 -0.1222
  670SOL    MW4 2680   2.093   2.953   0.807  0.5604 -0.6350 -0.7029
  671SOL     OW 2681   3.256   2.239   0.806 -0.1743  0.1109 -0.3633
  671SOL    HW2 2682   3.246   2.297   0.881 -0.1045 -0.6015  0.1995
  671SOL    HW3 2683   3.300   2.293   0.740  2.8919 -0.2498  1.2973
  671SOL    MW4 2684   3.260   2.254   0.807  0.2395 -0.0307 -0.0699
  672SOL     OW 2685   0.279   0.069   0.853  0.1972 -0.4135 -0.0862
  672SOL    HW2 2686   0.239   0.111   0.930 -1.1233 -2.4264  0.3617
  672SOL    HW3 2687   0.231   0.106   0.779 -0.4891 -0.6129  0.2528
  672SOL    MW4 2688   0.267   0.080   0.854 -0.0676 -0.7054  0.0176
  673SOL     OW 2689   1.093   2.386   1.060  0.6930 -0.2597 -0.2231
  673SOL    HW2 2690   1.125   2.335   1.134  0.1284 -0.2135  0.0557
  673SOL    HW3 2691   0.998   2.372   1.060  0.6640 -0.0994 -0.8134
  673SOL    MW4 2692   1.084   2.377   1.070  0.6147 -0.2324 -0.2642
  674SOL     OW 2693   3.928   0.048   0.743  0.0791  0.2802  0.6742
  674SOL    HW2 2694   3.952   0.002   0.823  0.6838  0.1798  0.4435
  674SOL    HW3 2695   3.886  -0.018   0.688  2.8074 -0.5467 -0.4944
  674SOL    MW4 2696   3.926   0.033   0.746  0.5189  0.1579  0.4896
  675SOL     OW 2697   0.909   3.455   0.640  0.3253 -0.4598  1.3666
  675SOL    HW2 2698   0.820   3.419   0.635  0.2043 -0.0515  0.2913
  675SOL    HW3 2699   0.911   3.522   0.571  2.4562 -2.6254 -0.7771
  675SOL    MW4 2700   0.897   3.459   0.630  0.5905 -0.6916  0.9419
  676SOL     OW 2701   0.670   1.501   0.552  0.1428  0.1504 -0.0141
  676SOL    HW2 2702   0.597   1.553   0.520 -1.1316 -1.1118  0.8046
  676SOL    HW3 2703   0.733   1.565   0.584 -0.8476  1.2287 -0.2080
  676SOL    MW4 2704   0.669   1.516   0.552 -0.1560  0.1261  0.0684
  677SOL     OW 2705   4.022   4.563   0.952 -0.1425 -0.0833 -0.4234
  677SOL    HW2 2706   4.117   4.572   0.945 -0.3137  1.7461 -0.6790
  677SOL    HW3 2707   4.004   4.576   1.045 -0.1973  0.1375 -0.4652
  677SOL    MW4 2708   4.033   4.566   0.964 -0.1723  0.1872 -0.4627
  678SOL     OW 2709   0.245   1.015   0.525  0.4059  0.1094  0.0484
  678SOL    HW2 2710   0.218   1.037   0.435  2.5637  1.6173 -0.2640
  678SOL    HW3 2711   0.315   0.951   0.514 -1.4729 -2.1389  0.7914
  678SOL    MW4 2712   0.251   1.010   0.511  0.4427  0.0117  0.1052
  679SOL     OW 2713   3.629   2.194   1.112  0.7442 -0.1154  0.1860
  679SOL    HW2 2714   3.722   2.177   1.094  0.8533  0.6201  0.0600
  679SOL    HW3 2715   3.630   2.264   1.177  0.2789 -0.4058  0.5105
  679SOL    MW4 2716   3.641   2.201   1.118  0.6972 -0.0567  0.2122
  680SOL     OW 2717   2.033   2.641   1.047  0.2187 -0.0460 -0.0227
  680SOL    HW2 2718   1.951   2.608   1.009 -0.2503 -1.3576  2.0829
  680SOL    HW3 2719   2.020   2.736   1.053 -1.2180 -0.2659  0.5001
  680SOL    MW4 2720   2.020   2.649   1.043 -0.0327 -0.2481  0.3241
  681SOL     OW 2721   3.103   0.749   1.672 -0.3596  0.0832 -0.2747
  681SOL    HW2 2722   3.018   0.712   1.647 -0.4227  1.5083 -2.2786
  681SOL    HW3 2723   3.165   0.678   1.655 -0.9884 -0.5585  0.0524
  681SOL    MW4 2724   3.100   0.735   1.667 -0.4509  0.1865 -0.4959
  682SOL     OW 2725   2.309   0.876   0.924  0.4479  0.4246 -0.3955
  682SOL    HW2 2726   2.404   0.890   0.928  0.6514 -0.7277 -0.9087
  682SOL    HW3 2727   2.299   0.780   0.924 -0.7068  0.5386 -0.5257
  682SOL    MW4 2728   2.320   0.865   0.924  0.3224  0.2876 -0.4804
  683SOL     OW 2729   2.951   3.799   0.764 -0.6586 -0.6090  0.0773
  683SOL    HW2 2730   2.875   3.775   0.711 -0.6708  0.3434 -0.3488
  683SOL    HW3 2731   2.998   3.864   0.710 -0.7196  0.4402  1.2659
  683SOL    MW4 2732   2.947   3.805   0.750 -0.6682 -0.3449  0.1779
  684SOL     OW 2733   1.031   1.677   1.213 -0.0142 -0.4208  0.4792
  684SOL    HW2 2734   0.965   1.653   1.149 -0.7627  1.5428  0.4876
  684SOL    HW3 2735   0.987   1.669   1.298 -0.3014  0.9674  0.4807
  684SOL    MW4 2736   1.017   1.673   1.216 -0.1509  0.0214  0.4805
  685SOL     OW 2737   3.457   2.020   0.637 -0.2545  0.1411 -0.1971
  685SOL    HW2 2738   3.475   2.065   0.720  0.7946 -0.6039 -0.0078
  685SOL    HW3 2739   3.501   1.936   0.646 -1.9661 -0.8126 -0.6675
  685SOL    MW4 2740   3.465   2.015   0.649 -0.3419 -0.0830 -0.2342
  686SOL     OW 2741   0.501   1.587   1.516 -0.0615 -0.1433 -0.2427
  686SOL    HW2 2742   0.509   1.678   1.544 -2.4696  0.5357 -1.6378
  686SOL    HW3 2743   0.533   1.587   1.426 -0.0063 -0.6989 -0.2219
  686SOL    MW4 2744   0.506   1.599   1.508 -0.3720 -0.1270 -0.4240
  687SOL     OW 2745   2.139   0.072   0.121  0.3145  0.5093  0.6415
  687SOL    HW2 2746   2.121   0.006   0.188 -0.8323  1.1944  1.0173
  687SOL    HW3 2747   2.234   0.069   0.109  0.2924 -1.0635  0.8080
  687SOL    MW4 2748   2.149   0.063   0.128  0.1603  0.3921  0.7131
  688SOL     OW 2749   3.105   4.023   0.638 -0.2764  0.4661  0.2654
  688SOL    HW2 2750   3.125   4.092   0.701  0.9511  1.3820 -1.0894
  688SOL    HW3 2751   3.158   4.044   0.562 -0.1091 -1.8235 -0.2877
  688SOL    MW4 2752   3.114   4.035   0.636 -0.0924  0.2848  0.0137
  689SOL     OW 2753   2.480   3.865   0.751 -0.1851 -0.0446  0.1933
  689SOL    HW2 2754   2.444   3.920   0.682  1.4748  0.7298 -0.0894
  689SOL    HW3 2755   2.491   3.924   0.825 -3.0424 -1.1253  1.5396
  689SOL    MW4 2756   2.477   3.880   0.751 -0.3431 -0.0850  0.3336
  690SOL     OW 2757   4.341   4.162   0.787  0.2547  0.0048  0.1480
  690SOL    HW2 2758   4.258   4.115   0.781  0.3209 -0.2146  0.9003
  690SOL    HW3 2759   4.332   4.216   0.865  0.8918 -0.1612  0.3368
  690SOL    MW4 2760   4.329   4.163   0.796  0.3475 -0.0461  0.2722
  691SOL     OW 2761   0.996   3.300   1.319 -0.1948  0.2703 -0.4394
  691SOL    HW2 2762   0.941   3.232   1.357  2.0440 -1.4226 -0.1338
  691SOL    HW3 2763   1.059   3.321   1.387 -0.1690  1.8747 -0.9394
  691SOL    MW4 2764   0.997   3.294   1.333  0.1040  0.2586 -0.4651
  692SOL     OW 2765   0.681   3.420   1.718 -0.1482  0.2201 -0.2955
  692SOL    HW2 2766   0.657   3.481   1.787  0.9933  0.8664 -0.4545
  692SOL    HW3 2767   0.758   3.375   1.751 -1.3804 -1.6569  0.1049
  692SOL    MW4 2768   0.688   3.422   1.731 -0.1602  0.0577 -0.2636
  693SOL     OW 2769   1.519   1.575   0.656 -0.1241  0.0669 -0.2495
  693SOL    HW2 2770   1.425   1.589   0.670  0.2279  2.9696 -0.5695
  693SOL    HW3 2771   1.556   1.573   0.744 -0.4121 -0.5770 -0.1401
  693SOL    MW4 2772   1.511   1.576   0.670 -0.1156  0.3649 -0.2773
  694SOL     OW 2773   1.763   3.246   1.473 -0.5914 -0.2281 -0.2757
  694SOL    HW2 2774   1.729   3.215   1.389 -1.1566  0.0315 -0.1497
  694SOL    HW3 2775   1.853   3.216   1.475 -0.5426 -0.1518 -1.0248
  694SOL    MW4 2776   1.770   3.238   1.462 -0.6595 -0.1838 -0.3579
  695SOL     OW 2777   2.157   3.747   0.405 -0.0301  0.3738 -0.1554
  695SOL    HW2 2778   2.074   3.711   0.375  0.7626 -0.2666 -1.6199
  695SOL    HW3 2779   2.148   3.752   0.500 -1.3217 -0.7358 -0.2020
  695SOL    MW4 2780   2.145   3.743   0.413 -0.0959  0.1429 -0.3548
  696SOL     OW 2781   3.244   0.275   1.363  0.3394  0.2446 -0.1529
  696SOL    HW2 2782   3.255   0.267   1.268  0.0260 -2.6936  0.0029
  696SOL    HW3 2783   3.151   0.293   1.375  0.1932 -0.3464 -0.3738
  696SOL    MW4 2784   3.233   0.276   1.352  0.2788 -0.2210 -0.1615
  697SOL     OW 2785   1.682   3.827   1.147 -0.1036  0.1333  0.3207
  697SOL    HW2 2786   1.756   3.805   1.204 -0.3106  0.2263  0.6279
  697SOL    HW3 2787   1.625   3.881   1.202 -0.3856  0.0847  0.0766
  697SOL    MW4 2788   1.684   3.831   1.162 -0.1681  0.1392  0.3290
  698SOL     OW 2789   1.403   4.354   1.697  0.1887  0.2407  0.1385
  698SOL    HW2 2790   1.493   4.326   1.712 -0.3795 -1.6368  0.0908
  698SOL    HW3 2791   1.411   4.436   1.648  1.8643  0.4197  0.6949
  698SOL    MW4 2792   1.416   4.361   1.693  0.3348  0.0166  0.2056
  699SOL     OW 2793   1.607   1.475   1.179  0.0538 -0.1853 -0.7981
  699SOL    HW2 2794   1.666   1.432   1.241 -1.0074 -0.5930 -0.0665
  699SOL    HW3 2795   1.532   1.416   1.172 -1.6646  1.8108  0.6400
  699SOL    MW4 2796   1.605   1.461   1.186 -0.3130  0.0243 -0.5118
  700SOL     OW 2797   3.652   2.270   1.529  0.2253 -0.4953 -0.1487
  700SOL    HW2 2798   3.696   2.283   1.445 -0.6404 -1.3587 -0.7446
  700SOL    HW3 2799   3.574   2.326   1.524  1.5104  1.4854  1.1355
  700SOL    MW4 2800   3.647   2.279   1.517  0.2807 -0.3478 -0.0579
  701SOL     OW 2801   0.462   0.447   1.452 -0.0687 -0.4841  0.1463
  701SOL    HW2 2802   0.369   0.453   1.430 -0.0521  0.8928  0.4450
  701SOL    HW3 2803   0.468   0.373   1.513 -0.9818 -0.4839  0.2318
  701SOL    MW4 2804   0.451   0.438   1.457 -0.1869 -0.3024  0.1970
  702SOL     OW 2805   2.031   3.288   1.758  0.0486  0.0467 -0.1615
  702SOL    HW2 2806   1.939   3.294   1.784  0.8171  1.2657  2.4008
  702SOL    HW3 2807   2.072   3.236   1.827  1.4016 -0.0445 -1.0185
  702SOL    MW4 2808   2.024   3.282   1.770  0.3285  0.1955  0.0635
  703SOL     OW 2809   0.414   2.348   1.851  0.0137  0.1201  0.1463
  703SOL    HW2 2810   0.446   2.348   1.941 -1.9102  0.3817  0.8637
  703SOL    HW3 2811   0.336   2.403   1.854  0.5558  1.0273 -1.9271
  703SOL    MW4 2812   0.408   2.355   1.863 -0.1686  0.2743 -0.0326
  704SOL     OW 2813   0.775   4.296   1.903  0.2736  0.1205 -0.3790
  704SOL    HW2 2814   0.846   4.361   1.912  0.5943 -0.3359  0.4604
  704SOL    HW3 2815   0.700   4.338   1.944  0.0557  0.5979 -1.2530
  704SOL    MW4 2816   0.775   4.310   1.910  0.2872  0.1232 -0.3836
  705SOL     OW 2817   0.674   0.993   0.680  0.5778 -0.1584 -0.1176
  705SOL    HW2 2818   0.636   1.080   0.690  0.0472 -0.3822 -0.1795
  705SOL    HW3 2819   0.606   0.942   0.636  0.8045 -0.6627  0.1154
  705SOL    MW4 2820   0.660   0.998   0.675  0.5377 -0.2545 -0.0950
  706SOL     OW 2821   0.889   3.290   1.949 -0.1587  0.1604  0.5937
  706SOL    HW2 2822   0.937   3.372   1.940  1.5392 -0.9420 -0.7315
  706SOL    HW3 2823   0.903   3.262   2.039  0.9140  0.3331  0.4805
  706SOL    MW4 2824   0.897   3.297   1.959  0.2069  0.0377  0.4039
  707SOL     OW 2825   2.045   0.748   1.242 -0.1227 -0.8865  0.1564
  707SOL    HW2 2826   1.988   0.794   1.181 -0.1361  1.0025  1.5391
  707SOL    HW3 2827   2.123   0.803   1.248 -0.0529 -1.1340  1.6978
  707SOL    MW4 2828   2.048   0.762   1.235 -0.1153 -0.6699  0.5422
  708SOL     OW 2829   3.357   2.336   1.256 -0.6657 -0.1815 -0.1042
  708SOL    HW2 2830   3.322   2.354   1.169  0.8173 -0.8991 -0.8645
  708SOL    HW3 2831   3.298   2.269   1.291 -0.6616 -0.6445 -0.9654
  708SOL    MW4 2832   3.345   2.329   1.249 -0.4695 -0.3373 -0.3182
  709SOL     OW 2833   2.895   0.073   1.552  0.1542  0.2632  0.1431
  709SOL    HW2 2834   2.911   0.074   1.647  0.2419  1.1168  0.1238
  709SOL    HW3 2835   2.978   0.045   1.514  0.3859  0.7849  0.2676
  709SOL    MW4 2836   2.908   0.069   1.560  0.1964  0.4447  0.1570
  710SOL     OW 2837   4.279   0.944   1.485  0.0228 -0.1068  0.4145
  710SOL    HW2 2838   4.194   0.967   1.448  0.1716  1.7850  1.2034
  710SOL    HW3 2839   4.288   0.851   1.467 -2.5955 -0.5271  1.1013
  710SOL    MW4 2840   4.269   0.935   1.478 -0.3030  0.0874  0.6092
  711SOL     OW 2841   2.434   0.702   0.510  0.3406  0.3102 -0.3866
  711SOL    HW2 2842   2.395   0.662   0.432  0.4418  0.9013 -0.7381
  711SOL    HW3 2843   2.528   0.699   0.494  0.3683  0.3135 -0.2273
  711SOL    MW4 2844   2.441   0.696   0.498  0.3576  0.3886 -0.4119
  712SOL     OW 2845   0.082   1.706   0.574  0.4967 -0.2234 -0.2574
  712SOL    HW2 2846   0.121   1.726   0.489  1.8816 -2.1574 -0.1101
  712SOL    HW3 2847   0.152   1.661   0.622 -1.0813 -1.4118  0.9759
  712SOL    MW4 2848   0.097   1.703   0.569  0.4712 -0.6354 -0.0753
  713SOL     OW 2849   0.276   1.113   1.387  0.3423  0.2818 -0.3464
  713SOL    HW2 2850   0.182   1.123   1.403  0.0572 -0.3318 -1.6017
  713SOL    HW3 2851   0.282   1.090   1.295  1.6502 -0.9162  0.0290
  713SOL    MW4 2852   0.264   1.111   1.377  0.4772  0.0428 -0.4625
  714SOL     OW 2853   3.476   4.214   1.804  0.8011  0.0168  0.1539
  714SOL    HW2 2854   3.465   4.133   1.855 -0.2480  0.3816  0.5217
  714SOL    HW3 2855   3.563   4.246   1.828  0.2793  0.2408  1.8089
  714SOL    MW4 2856   3.486   4.207   1.814  0.5938  0.0945  0.4208
  715SOL     OW 2857   3.943   0.162   1.862  0.1614 -0.0501  0.1098
  715SOL    HW2 2858   3.865   0.214   1.846 -0.5818 -1.0071  0.5767
  715SOL    HW3 2859   3.927   0.080   1.817  1.4013  0.1792 -0.7612
  715SOL    MW4 2860   3.931   0.158   1.854  0.2269 -0.1461  0.0565
  716SOL     OW 2861   3.519   2.989   0.491 -0.1492 -0.2520  0.2340
  716SOL    HW2 2862   3.579   2.966   0.562  2.1488 -0.9591 -1.8600
  716SOL    HW3 2863   3.518   3.085   0.490  3.0773 -0.1823 -1.3721
  716SOL    MW4 2864   3.527   2.999   0.500  0.5797 -0.3361 -0.2542
  717SOL     OW 2865   2.834   3.559   1.934 -0.2153  0.1486 -0.0679
  717SOL    HW2 2866   2.870   3.573   2.021 -0.4753 -1.9316  0.4027
  717SOL    HW3 2867   2.907   3.524   1.883 -0.8100 -1.4800  0.1527
  717SOL    MW4 2868   2.848   3.556   1.939 -0.3281 -0.3408  0.0233
  718SOL     OW 2869   1.391   4.636   1.569  0.2196 -0.1328  0.1752
  718SOL    HW2 2870   1.339   4.690   1.629 -0.0233  0.6140 -0.6887
  718SOL    HW3 2871   1.479   4.674   1.574  0.0921  0.2237 -0.2903
  718SOL    MW4 2872   1.395   4.648   1.578  0.1707  0.0128 -0.0002
  719SOL     OW 2873   3.819   0.647   1.224  0.0258 -0.6981 -0.5119
  719SOL    HW2 2874   3.846   0.612   1.309  0.0458 -1.2684 -0.7514
  719SOL    HW3 2875   3.731   0.681   1.238  0.0858 -0.6579 -0.2293
  719SOL    MW4 2876   3.811   0.647   1.237  0.0363 -0.7680 -0.5062
  720SOL     OW 2877   0.943   3.482   1.097  0.5157 -0.0894 -0.1643
  720SOL    HW2 2878   0.981   3.454   1.013  1.0920 -2.1187  0.7321
  720SOL    HW3 2879   0.982   3.423   1.161 -1.1031  0.4340  1.3300
  720SOL    MW4 2880   0.953   3.470   1.094  0.3782 -0.2881  0.1511
  721SOL     OW 2881   0.869   3.601   0.381  0.5026 -0.3471  0.2054
  721SOL    HW2 2882   0.802   3.660   0.414 -0.1899 -0.4074 -1.0591
  721SOL    HW3 2883   0.920   3.654   0.320 -0.3828 -1.1358 -1.2620
  721SOL    MW4 2884   0.867   3.615   0.377  0.2944 -0.4591 -0.1550
  722SOL     OW 2885   0.143   2.112   0.981 -0.1512 -0.3488 -0.4232
  722SOL    HW2 2886   0.194   2.037   1.011  0.0068  0.0855  0.4007
  722SOL    HW3 2887   0.187   2.188   1.018 -0.2755  0.1605 -1.3051
  722SOL    MW4 2888   0.156   2.112   0.990 -0.1468 -0.2243 -0.4309
  723SOL     OW 2889   1.553   2.801   0.624 -0.4232 -0.6481  0.1768
  723SOL    HW2 2890   1.611   2.782   0.550 -0.3189  2.1015 -0.5305
  723SOL    HW3 2891   1.611   2.838   0.691 -1.0122  0.1622  0.2557
  723SOL    MW4 2892   1.569   2.804   0.623 -0.4871 -0.1784  0.0939
  724SOL     OW 2893   2.934   3.348   0.678  0.3345 -0.1361 -0.8128
  724SOL    HW2 2894   3.022   3.316   0.657  0.0073 -0.9370 -0.9762
  724SOL    HW3 2895   2.890   3.354   0.594  0.6132  1.4692 -0.8752
  724SOL    MW4 2896   2.940   3.345   0.664  0.3281 -0.0300 -0.8426
  725SOL     OW 2897   3.904   3.567   1.819 -0.1259  0.5454 -0.1393
  725SOL    HW2 2898   3.923   3.530   1.733 -0.6499 -0.7858  0.3054
  725SOL    HW3 2899   3.811   3.549   1.833 -0.1703  1.2378  0.4689
  725SOL    MW4 2900   3.894   3.559   1.810 -0.2009  0.4611 -0.0004
  726SOL     OW 2901   0.485   0.956   1.015 -0.2870  0.0881  0.1586
  726SOL    HW2 2902   0.543   1.026   0.985 -0.0351 -0.4879 -0.7318
  726SOL    HW3 2903   0.538   0.907   1.079 -0.1278  0.1309  0.0597
  726SOL    MW4 2904   0.500   0.958   1.020 -0.2328  0.0177  0.0280
  727SOL     OW 2905   0.187   3.591   2.191  0.2005 -0.0449 -0.3054
  727SOL    HW2 2906   0.170   3.625   2.103 -0.2332 -0.0580 -0.2281
  727SOL    HW3 2907   0.113   3.533   2.208  0.0392  0.3287  0.2570
  727SOL    MW4 2908   0.175   3.588   2.181  0.1220  0.0027 -0.2210
  728SOL     OW 2909   0.430   3.113   1.966 -0.3913  0.0210 -0.0597
  728SOL    HW2 2910   0.444   3.131   2.059  1.6641 -0.1914 -0.2880
  728SOL    HW3 2911   0.519   3.098   1.932 -1.1458 -0.0890 -2.0077
  728SOL    MW4 2912   0.444   3.113   1.974 -0.2197 -0.0215 -0.3468
  729SOL     OW 2913   1.525   1.633   1.394 -0.1613  0.5040  0.2173
  729SOL    HW2 2914   1.530   1.574   1.320 -1.4336  0.3632  0.2407
  729SOL    HW3 2915   1.531   1.721   1.356 -0.8583  0.4326 -0.0492
  729SOL    MW4 2916   1.527   1.637   1.379 -0.4211  0.4760  0.1852
  730SOL     OW 2917   3.107   0.346   2.311 -0.3657  0.2558  0.1084
  730SOL    HW2 2918   3.062   0.423   2.276 -1.9538 -0.9699 -0.6163
  730SOL    HW3 2919   3.200   0.366   2.303 -0.7722  1.9878 -0.3176
  730SOL    MW4 2920   3.113   0.358   2.305 -0.6288  0.3226 -0.0434
  731SOL     OW 2921   2.486   0.026   1.214 -0.4848 -0.5457 -0.1926
  731SOL    HW2 2922   2.519  -0.058   1.182  0.6105 -0.4695  0.6982
  731SOL    HW3 2923   2.420   0.051   1.150  0.4525 -1.2094 -1.4637
  731SOL    MW4 2924   2.482   0.018   1.201 -0.2166 -0.6232 -0.2428
  732SOL     OW 2925   1.668   0.011   1.567  0.8797 -0.1877  0.0621
  732SOL    HW2 2926   1.684  -0.077   1.532 -0.1391  0.3447 -1.7661
  732SOL    HW3 2927   1.682   0.001   1.662  1.0639 -2.2497 -0.1518
  732SOL    MW4 2928   1.672  -0.002   1.575  0.7696 -0.3895 -0.2073
  733SOL     OW 2929   3.177   0.033   1.509 -0.3004 -0.3881  0.1523
  733SOL    HW2 2930   3.223   0.038   1.593 -2.9035 -0.4499  1.6454
  733SOL    HW3 2931   3.211   0.107   1.459  1.6618 -0.6468  1.0519
  733SOL    MW4 2932   3.187   0.044   1.514 -0.3850 -0.4304  0.4680
  734SOL     OW 2933   3.171   1.899   0.675  0.4643 -0.1008 -0.1126
  734SOL    HW2 2934   3.258   1.934   0.654  0.3776 -0.0456 -0.3786
  734SOL    HW3 2935   3.189   1.815   0.718  0.6293 -0.4900 -0.9275
  734SOL    MW4 2936   3.185   1.892   0.678  0.4747 -0.1449 -0.2552
  735SOL     OW 2937   3.081   1.942   1.669 -0.0491  0.0435 -0.3728
  735SOL    HW2 2938   3.117   1.873   1.614  1.5876  0.5282  0.0679
  735SOL    HW3 2939   3.028   1.995   1.609 -0.6842 -1.1264 -0.8642
  735SOL    MW4 2940   3.079   1.940   1.653  0.0830 -0.0469 -0.3795
  736SOL     OW 2941   3.352   4.393   1.072 -0.3284 -0.3711 -0.0781
  736SOL    HW2 2942   3.361   4.303   1.101 -1.4265 -0.5118 -0.1392
  736SOL    HW3 2943   3.297   4.434   1.139  2.3197  0.9478  1.3569
  736SOL    MW4 2944   3.346   4.387   1.085 -0.1239 -0.2157  0.1032
  737SOL     OW 2945   2.156   4.098   1.996  0.3219  0.5167 -0.0446
  737SOL    HW2 2946   2.232   4.073   1.945 -0.4201 -0.1707 -0.8344
  737SOL    HW3 2947   2.175   4.067   2.085  1.6551  1.8137  0.1327
  737SOL    MW4 2948   2.168   4.090   2.001  0.3999  0.5971 -0.1254
  738SOL     OW 2949   1.330   4.072   0.571  0.1597  0.5924 -0.0061
  738SOL    HW2 2950   1.409   4.071   0.625  0.7831 -0.1361 -0.9290
  738SOL    HW3 2951   1.360   4.095   0.483 -0.8860  2.0255 -0.0150
  738SOL    MW4 2952   1.344   4.075   0.567  0.1040  0.6854 -0.1291
  739SOL     OW 2953   0.672   3.331   0.561 -1.1360  0.4126  0.0007
  739SOL    HW2 2954   0.720   3.300   0.484 -1.1774  0.0701  0.1093
  739SOL    HW3 2955   0.580   3.322   0.538 -1.1891 -1.7723  0.8690
  739SOL    MW4 2956   0.666   3.326   0.548 -1.1485  0.0792  0.1296
  740SOL     OW 2957   1.840   3.385   0.855 -0.0704  0.6973  0.7003
  740SOL    HW2 2958   1.934   3.383   0.841 -0.2163 -0.3006 -0.2370
  740SOL    HW3 2959   1.829   3.408   0.947  1.0935  0.0258  1.0046
  740SOL    MW4 2960   1.851   3.388   0.865  0.0639  0.4770  0.6168
  741SOL     OW 2961   3.731   2.875   1.537  0.3418 -0.1066  0.2969
  741SOL    HW2 2962   3.702   2.944   1.597  0.8919  0.9274 -0.5944
  741SOL    HW3 2963   3.825   2.866   1.556  0.6638  0.6901 -0.8287
  741SOL    MW4 2964   3.740   2.883   1.547  0.4569  0.1350  0.0308
  742SOL     OW 2965   1.845   2.135   1.365  0.1478 -0.6506  0.0982
  742SOL    HW2 2966   1.811   2.179   1.443  0.2972  0.2356 -0.3371
  742SOL    HW3 2967   1.791   2.056   1.358 -0.2829 -0.4235  0.7444
  742SOL    MW4 2968   1.833   2.130   1.375  0.1107 -0.5037  0.1260
  743SOL     OW 2969   3.759   3.143   0.816  0.4870 -0.7996  0.1515
  743SOL    HW2 2970   3.820   3.093   0.869 -1.0808 -2.6762  0.2387
  743SOL    HW3 2971   3.688   3.167   0.876  1.2870  1.6881  0.1463
  743SOL    MW4 2972   3.757   3.139   0.831  0.3857 -0.7190  0.1623
  744SOL     OW 2973   2.237   2.886   1.279  0.3729  0.1905 -0.7654
  744SOL    HW2 2974   2.157   2.892   1.227 -0.2121 -0.5153  0.0475
  744SOL    HW3 2975   2.207   2.879   1.369  1.3182 -1.3349 -0.5479
  744SOL    MW4 2976   2.223   2.886   1.284  0.4205 -0.1039 -0.6294
  745SOL     OW 2977   4.345   4.345   1.009 -0.4246  0.0292  0.0510
  745SOL    HW2 2978   4.296   4.311   1.084  1.8363 -1.2209  1.0259
  745SOL    HW3 2979   4.435   4.354   1.042  0.1587  1.5546 -1.8794
  745SOL    MW4 2980   4.350   4.342   1.023 -0.0493  0.0655 -0.0750
  746SOL     OW 2981   0.507   0.760   1.525 -0.2077  0.6995  0.2680
  746SOL    HW2 2982   0.540   0.785   1.611 -0.4635  0.7032  0.3647
  746SOL    HW3 2983   0.487   0.666   1.533  0.4044  0.5433  0.0130
  746SOL    MW4 2984   0.509   0.751   1.537 -0.1607  0.6794  0.2471
  747SOL     OW 2985   1.975   2.961   0.454 -0.2431 -0.6331 -0.0775
  747SOL    HW2 2986   1.953   2.886   0.510 -0.4810 -1.0910 -0.7752
  747SOL    HW3 2987   1.937   2.939   0.369 -1.0104  0.6481 -0.0740
  747SOL    MW4 2988   1.967   2.948   0.450 -0.3758 -0.5245 -0.1691
  748SOL     OW 2989   2.757   0.253   1.913  0.0385  0.1080 -0.1726
  748SOL    HW2 2990   2.833   0.207   1.878 -0.6563 -0.1119 -1.4149
  748SOL    HW3 2991   2.685   0.229   1.854 -1.0244  0.2001  1.0767
  748SOL    MW4 2992   2.757   0.244   1.900 -0.1934  0.0911 -0.1717
  749SOL     OW 2993   1.279   1.651   2.304 -0.0611 -0.0494 -0.2594
  749SOL    HW2 2994   1.290   1.744   2.285 -2.4948  0.2255 -0.5018
  749SOL    HW3 2995   1.228   1.617   2.230 -1.8468 -0.9010  1.3218
  749SOL    MW4 2996   1.273   1.659   2.292 -0.6178 -0.1255 -0.0828
  750SOL     OW 2997   3.950   4.587   1.232 -0.1416 -0.2999  1.0239
  750SOL    HW2 2998   3.897   4.509   1.215 -0.3803 -0.0393  0.5445
  750SOL    HW3 2999   3.886   4.654   1.255 -0.2168  0.5267 -1.4262
  750SOL    MW4 3000   3.935   4.585   1.232 -0.1830 -0.1565  0.6374
  751SOL     OW 3001   3.240   3.651   0.926 -0.1412  0.0247  0.5164
  751SOL    HW2 3002   3.296   3.593   0.873  0.3466  0.7500  0.2267
  751SOL    HW3 3003   3.155   3.608   0.925  0.0498 -0.3638 -0.2452
  751SOL    MW4 3004   3.236   3.637   0.919 -0.0516  0.0691  0.3777
  752SOL     OW 3005   2.210   0.293   1.246  0.4555  0.0606  0.0723
  752SOL    HW2 3006   2.128   0.338   1.228  0.5002  1.3088  2.6789
  752SOL    HW3 3007   2.192   0.239   1.323  1.6644 -0.8635 -0.2648
  752SOL    MW4 3008   2.197   0.292   1.254  0.6209  0.1033  0.3718
  753SOL     OW 3009   3.823   0.490   2.112  0.4469 -0.2771 -0.1309
  753SOL    HW2 3010   3.841   0.510   2.020  1.0586 -1.6289 -0.3101
  753SOL    HW3 3011   3.828   0.575   2.156  1.6319  0.1752 -1.1024
  753SOL    MW4 3012   3.826   0.504   2.106  0.6839 -0.3958 -0.2827
  754SOL     OW 3013   3.487   3.328   1.656 -0.3532  0.4780 -0.3862
  754SOL    HW2 3014   3.540   3.384   1.713  1.5469 -1.5777 -0.0675
  754SOL    HW3 3015   3.540   3.319   1.577 -0.3153 -1.4368 -0.1453
  754SOL    MW4 3016   3.501   3.335   1.653 -0.0975 -0.0459 -0.3123
  755SOL     OW 3017   3.421   0.257   0.767  0.2389  0.2880  0.1332
  755SOL    HW2 3018   3.455   0.255   0.678 -0.3218  0.2869 -0.0821
  755SOL    HW3 3019   3.428   0.349   0.793 -1.1725  0.5856 -0.5249
  755SOL    MW4 3020   3.427   0.269   0.759 -0.0213  0.3272  0.0179
  756SOL     OW 3021   3.628   2.201   0.513  0.7326 -0.3660 -0.2826
  756SOL    HW2 3022   3.590   2.130   0.565  1.0033 -1.6477 -1.8110
  756SOL    HW3 3023   3.565   2.214   0.441  1.0471  0.4572 -0.4142
  756SOL    MW4 3024   3.614   2.193   0.510  0.8098 -0.4265 -0.5016
  757SOL     OW 3025   1.197   0.719   1.525  0.5705  0.3832  0.3681
  757SOL    HW2 3026   1.183   0.640   1.473 -0.4128  1.4888 -1.0767
  757SOL    HW3 3027   1.266   0.767   1.479 -0.1974  1.2935  0.1478
  757SOL    MW4 3028   1.204   0.715   1.512  0.3395  0.6491  0.1484
  758SOL     OW 3029   4.033   3.584   1.149  0.8797  0.8393  0.0296
  758SOL    HW2 3030   3.959   3.599   1.090 -0.1683 -1.7566  0.5987
  758SOL    HW3 3031   4.109   3.578   1.091  0.3614  1.6423 -0.7442
  758SOL    MW4 3032   4.034   3.585   1.133  0.6730  0.6028  0.0026
  759SOL     OW 3033   0.864   4.055   1.964 -0.6368 -0.2046  0.2581
  759SOL    HW2 3034   0.851   4.027   2.054 -1.8757  0.7113  0.3828
  759SOL    HW3 3035   0.836   4.147   1.964 -0.6355 -0.2013 -1.0516
  759SOL    MW4 3036   0.858   4.064   1.976 -0.8001 -0.0833  0.1018
  760SOL     OW 3037   4.219   0.613   2.211  0.4213  0.0166  0.2001
  760SOL    HW2 3038   4.300   0.572   2.180 -0.1743  0.0766 -1.5173
  760SOL    HW3 3039   4.187   0.663   2.135 -0.6510  0.8693  1.1958
  760SOL    MW4 3040   4.225   0.614   2.197  0.2012  0.1370  0.1048
  761SOL     OW 3041   4.150   0.114   0.586  0.0055 -0.5430  0.8703
  761SOL    HW2 3042   4.202   0.169   0.645  0.0474 -0.5567  0.8463
  761SOL    HW3 3043   4.075   0.087   0.638  0.4393 -1.2025  1.1709
  761SOL    MW4 3044   4.147   0.118   0.601  0.0683 -0.6319  0.9068
  762SOL     OW 3045   2.743   2.478   1.934 -0.0562 -0.2624  0.0391
  762SOL    HW2 3046   2.737   2.468   2.029  1.7876 -0.3282  0.1698
  762SOL    HW3 3047   2.810   2.414   1.907  2.0824  2.2396 -0.8084
  762SOL    MW4 3048   2.751   2.468   1.943  0.4692  0.0591 -0.0555
  763SOL     OW 3049   2.280   0.135   2.226  0.2826 -0.0731 -0.3195
  763SOL    HW2 3050   2.348   0.077   2.259 -0.1465 -1.2522 -1.4563
  763SOL    HW3 3051   2.198   0.097   2.257  0.0829  1.0208  0.5558
  763SOL    MW4 3052   2.279   0.123   2.234  0.1996 -0.0844 -0.3540
  764SOL     OW 3053   1.501   3.906   0.313  0.1213 -0.3677 -0.1258
  764SOL    HW2 3054   1.450   3.825   0.313  1.2274 -1.0800  0.2659
  764SOL    HW3 3055   1.437   3.975   0.297 -0.9732 -1.2345  0.4827
  764SOL    MW4 3056   1.486   3.904   0.311  0.1228 -0.5760  0.0061
  765SOL     OW 3057   2.110   3.667   1.879 -0.0697  0.6479  0.2047
  765SOL    HW2 3058   2.101   3.598   1.813  1.1488  0.8273 -0.1685
  765SOL    HW3 3059   2.062   3.634   1.955 -1.5058  0.4457 -0.7702
  765SOL    MW4 3060   2.103   3.653   1.880 -0.0984  0.6449  0.0269
  766SOL     OW 3061   3.212   1.175   0.750 -0.0665  0.0660 -0.1677
  766SOL    HW2 3062   3.249   1.100   0.797 -0.2531  0.2320  0.2532
  766SOL    HW3 3063   3.118   1.156   0.744 -0.1440  0.3475  0.1059
  766SOL    MW4 3064   3.204   1.163   0.756 -0.1013  0.1250 -0.0761
  767SOL     OW 3065   2.676   4.363   1.771  0.1203  0.2184  0.0743
  767SOL    HW2 3066   2.691   4.420   1.695  0.9105 -0.1759 -0.0714
  767SOL    HW3 3067   2.755   4.374   1.824 -0.2380  0.1447  0.6152
  767SOL    MW4 3068   2.689   4.372   1.768  0.1773  0.1567  0.1265
  768SOL     OW 3069   2.695   0.324   0.783 -0.0687 -0.0182  0.3501
  768SOL    HW2 3070   2.703   0.229   0.794 -0.1908  0.0196  0.7671
  768SOL    HW3 3071   2.649   0.353   0.862  1.7552  0.6483  1.1868
  768SOL    MW4 3072   2.690   0.315   0.795  0.1558  0.0748  0.5155
  769SOL     OW 3073   3.665   0.077   0.566 -0.1752 -0.3017  0.0753
  769SOL    HW2 3074   3.722   0.145   0.531 -0.0422  0.5302  1.8385
  769SOL    HW3 3075   3.712  -0.004   0.552 -0.1471  0.0148 -1.6784
  769SOL    MW4 3076   3.679   0.075   0.560 -0.1539 -0.1502  0.0765
  770SOL     OW 3077   3.022   4.294   0.493 -0.3377  0.4346 -0.1900
  770SOL    HW2 3078   3.018   4.388   0.508  0.2020  0.2861  0.9097
  770SOL    HW3 3079   3.115   4.272   0.501 -0.5007 -0.2462 -0.0677
  770SOL    MW4 3080   3.034   4.303   0.496 -0.2880  0.3252 -0.0288
  771SOL     OW 3081   1.145   3.229   1.105 -0.1153 -0.5190 -0.6227
  771SOL    HW2 3082   1.093   3.241   1.184  0.3908  0.2490 -0.4029
  771SOL    HW3 3083   1.208   3.160   1.128  0.6865  0.4084 -0.0242
  771SOL    MW4 3084   1.147   3.221   1.118  0.0573 -0.2953 -0.5147
  772SOL     OW 3085   1.647   2.430   0.359  0.2863  0.3927 -0.2380
  772SOL    HW2 3086   1.667   2.381   0.439 -0.1595 -0.1181 -0.4336
  772SOL    HW3 3087   1.717   2.405   0.298  1.5732  2.0714  0.5233
  772SOL    MW4 3088   1.659   2.420   0.361  0.3973  0.5468 -0.1634
  773SOL     OW 3089   1.385   4.449   0.679 -0.1130  0.0353 -0.0853
  773SOL    HW2 3090   1.385   4.412   0.591  0.0428 -0.0490 -0.0484
  773SOL    HW3 3091   1.301   4.422   0.716  0.4328 -1.1532  0.3131
  773SOL    MW4 3092   1.374   4.440   0.673 -0.0204 -0.1326 -0.0279
  774SOL     OW 3093   2.967   3.354   1.130 -0.0482  0.3065  0.2116
  774SOL    HW2 3094   2.877   3.375   1.156  0.8528  3.8041  0.8428
  774SOL    HW3 3095   2.979   3.402   1.048  0.8857 -1.0748 -0.4598
  774SOL    MW4 3096   2.957   3.363   1.123  0.1939  0.5858  0.2063
  775SOL     OW 3097   0.138   3.687   1.925  0.0369  0.2016  0.0719
  775SOL    HW2 3098   0.061   3.733   1.892  0.6764  1.4119  0.2177
  775SOL    HW3 3099   0.209   3.752   1.919  1.5160 -1.5276 -2.0722
  775SOL    MW4 3100   0.137   3.702   1.920  0.3165  0.1331 -0.1917
  776SOL     OW 3101   2.921   0.963   1.137 -0.3016  0.2506 -0.5520
  776SOL    HW2 3102   2.827   0.952   1.148 -0.3190 -1.5960 -2.1433
  776SOL    HW3 3103   2.937   1.057   1.148 -2.1037  0.3855  1.1204
  776SOL    MW4 3104   2.911   0.974   1.140 -0.5417  0.0248 -0.5413
  777SOL     OW 3105   4.298   4.599   0.948 -0.0404 -0.0002 -0.0345
  777SOL    HW2 3106   4.322   4.508   0.962  0.3236  0.0509 -0.3336
  777SOL    HW3 3107   4.316   4.615   0.855  0.2658  0.4891  0.1093
  777SOL    MW4 3108   4.304   4.589   0.938  0.0480  0.0711 -0.0550
  778SOL     OW 3109   3.311   4.435   1.878  0.6724  0.2875  0.0187
  778SOL    HW2 3110   3.376   4.369   1.856 -0.3016 -0.8679  0.5453
  778SOL    HW3 3111   3.307   4.434   1.974  1.6493  2.1022  0.0909
  778SOL    MW4 3112   3.319   4.426   1.888  0.6728  0.3745  0.0977
  779SOL     OW 3113   1.377   1.253   2.327  0.0595  0.0422  0.4027
  779SOL    HW2 3114   1.366   1.233   2.420  0.9187  0.2081  0.5413
  779SOL    HW3 3115   1.470   1.242   2.310 -0.1250 -0.2084 -0.4986
  779SOL    MW4 3116   1.388   1.249   2.337  0.1485  0.0311  0.3021
  780SOL     OW 3117   3.140   3.468   1.318  0.0256 -0.2534 -0.4239
  780SOL    HW2 3118   3.097   3.406   1.260 -1.1948 -0.6703  0.9006
  780SOL    HW3 3119   3.162   3.417   1.396 -0.4830  0.8228  0.4496
  780SOL    MW4 3120   3.137   3.453   1.320 -0.2025 -0.1664 -0.1339
  781SOL     OW 3121   0.475   0.867   2.166 -0.3258 -0.2401 -0.0995
  781SOL    HW2 3122   0.539   0.799   2.185  0.5427  1.1706  2.1798
  781SOL    HW3 3123   0.393   0.835   2.204 -0.4754 -1.0565 -1.0969
  781SOL    MW4 3124   0.472   0.854   2.173 -0.2309 -0.1617  0.0696
  782SOL     OW 3125   0.683   3.514   1.437  0.0629 -0.0131  0.0144
  782SOL    HW2 3126   0.656   3.485   1.524 -0.1974  1.0731  0.3099
  782SOL    HW3 3127   0.777   3.526   1.443  0.0969 -0.2966  0.0405
  782SOL    MW4 3128   0.692   3.512   1.449  0.0330  0.0928  0.0568
  783SOL     OW 3129   3.018   3.914   1.321 -0.1038 -0.2764  0.5265
  783SOL    HW2 3130   3.060   3.957   1.247  0.0810 -1.0743  0.1537
  783SOL    HW3 3131   2.990   3.985   1.378 -2.3747  0.4815 -1.4364
  783SOL    MW4 3132   3.020   3.929   1.318 -0.3790 -0.2817  0.2183
  784SOL     OW 3133   2.723   0.393   2.304  0.1380 -0.2086 -0.1406
  784SOL    HW2 3134   2.785   0.457   2.270 -0.0856  0.3531  0.4974
  784SOL    HW3 3135   2.746   0.383   2.396  1.2271 -2.2969 -0.6187
  784SOL    MW4 3136   2.734   0.400   2.312  0.2522 -0.4100 -0.1195
  785SOL     OW 3137   2.129   2.467   1.932 -0.4265 -0.5443  0.1445
  785SOL    HW2 3138   2.172   2.451   2.016 -1.6892 -0.9261  0.7336
  785SOL    HW3 3139   2.117   2.381   1.893  0.4271 -0.3445 -0.5715
  785SOL    MW4 3140   2.133   2.454   1.938 -0.4805 -0.5683  0.1278
  786SOL     OW 3141   3.591   3.488   0.999 -0.3610  0.0287  0.0606
  786SOL    HW2 3142   3.563   3.493   0.907  0.9170 -0.4612 -0.3721
  786SOL    HW3 3143   3.510   3.496   1.049 -1.4167 -2.3519 -1.1512
  786SOL    MW4 3144   3.577   3.490   0.993 -0.3316 -0.3501 -0.1564
  787SOL     OW 3145   0.177   1.115   0.272  0.4100  0.1579 -0.5919
  787SOL    HW2 3146   0.096   1.100   0.224  0.5834  0.6206 -1.0209
  787SOL    HW3 3147   0.176   1.208   0.294  0.7342  0.1268 -0.4382
  787SOL    MW4 3148   0.166   1.125   0.269  0.4757  0.2149 -0.6282
  788SOL     OW 3149   1.707   0.177   1.332 -0.1901 -0.3372  0.3392
  788SOL    HW2 3150   1.755   0.117   1.274 -0.4627 -0.3526  0.1341
  788SOL    HW3 3151   1.683   0.122   1.407 -2.1718 -0.9775 -0.7539
  788SOL    MW4 3152   1.710   0.162   1.334 -0.4876 -0.4237  0.1679
  789SOL     OW 3153   2.679   1.638   2.189 -0.1393 -0.1518 -0.0156
  789SOL    HW2 3154   2.611   1.574   2.211 -0.7904  0.2391 -0.8095
  789SOL    HW3 3155   2.759   1.604   2.229 -0.8381 -0.5345  1.0792
  789SOL    MW4 3156   2.680   1.625   2.197 -0.3174 -0.1507  0.0241
  790SOL     OW 3157   3.875   3.905   0.771  0.5411 -0.2993 -0.0241
  790SOL    HW2 3158   3.820   3.969   0.727  1.1463 -0.9660 -1.7836
  790SOL    HW3 3159   3.956   3.952   0.790  0.6163 -0.2544 -0.4464
  790SOL    MW4 3160   3.879   3.919   0.768  0.6309 -0.3814 -0.3120
  791SOL     OW 3161   1.149   3.319   1.554  0.3264 -0.5569 -0.2086
  791SOL    HW2 3162   1.225   3.267   1.527  1.9018  2.0567 -0.9991
  791SOL    HW3 3163   1.187   3.393   1.600 -1.8236  0.3422  0.1525
  791SOL    MW4 3164   1.164   3.322   1.556  0.2506 -0.0934 -0.2652
  792SOL     OW 3165   0.844   3.075   1.359 -0.0168  0.5070 -0.2147
  792SOL    HW2 3166   0.846   3.026   1.277  0.9344 -0.4562  0.3837
  792SOL    HW3 3167   0.780   3.029   1.413  0.0474  0.5902 -0.0669
  792SOL    MW4 3168   0.835   3.063   1.355  0.1172  0.3909 -0.1162
  793SOL     OW 3169   2.406   0.725   1.373  0.1292  0.4827  0.0321
  793SOL    HW2 3170   2.500   0.737   1.381  0.2683  0.7831 -1.7629
  793SOL    HW3 3171   2.376   0.802   1.323 -0.8471 -0.2913 -0.6038
  793SOL    MW4 3172   2.414   0.737   1.367  0.0188  0.4202 -0.2886
  794SOL     OW 3173   0.737   2.814   1.800  0.0070 -0.2062  0.9767
  794SOL    HW2 3174   0.822   2.773   1.810  0.1992 -0.8287 -2.6096
  794SOL    HW3 3175   0.676   2.741   1.786 -0.3170  0.4368 -1.1847
  794SOL    MW4 3176   0.740   2.799   1.800 -0.0104 -0.2035  0.2183
  795SOL     OW 3177   1.624   2.159   1.041  0.3223 -0.2873 -0.3901
  795SOL    HW2 3178   1.710   2.124   1.016  0.1159 -1.4015  0.3946
  795SOL    HW3 3179   1.582   2.086   1.087 -0.2847  0.8815  0.9373
  795SOL    MW4 3180   1.630   2.144   1.044  0.2150 -0.2801 -0.1114
  796SOL     OW 3181   0.016   0.548   1.548 -0.2564  0.1797 -0.6838
  796SOL    HW2 3182   0.051   0.618   1.603 -1.1427 -0.5378  0.8129
  796SOL    HW3 3183   0.089   0.523   1.491  0.3196  1.7301 -0.6398
  796SOL    MW4 3184   0.030   0.554   1.548 -0.2974  0.2896 -0.4805
  797SOL     OW 3185   2.033   0.504   2.130  0.1794 -0.3507  0.2850
  797SOL    HW2 3186   2.120   0.488   2.166  0.2481 -0.8416 -0.0910
  797SOL    HW3 3187   2.045   0.497   2.035  0.2254  1.9955  0.0866
  797SOL    MW4 3188   2.046   0.501   2.122  0.1946 -0.1059  0.2092
  798SOL     OW 3189   2.011   3.213   1.073 -0.0240 -0.1413 -0.0214
  798SOL    HW2 3190   1.954   3.185   1.002 -1.1563  0.3366  0.6831
  798SOL    HW3 3191   1.982   3.302   1.093  0.6309 -0.0834  0.7026
  798SOL    MW4 3192   2.000   3.221   1.066 -0.0870 -0.0706  0.1671
  799SOL     OW 3193   1.002   2.090   0.465  0.1591 -0.3663  0.5649
  799SOL    HW2 3194   1.094   2.111   0.481  0.5016 -1.0940 -0.4068
  799SOL    HW3 3195   0.959   2.175   0.456  0.4019  0.0301  2.7300
  799SOL    MW4 3196   1.008   2.104   0.466  0.2363 -0.4100  0.7223
  800SOL     OW 3197   4.373   2.763   1.915  0.4350  0.3189  0.3076
  800SOL    HW2 3198   4.278   2.771   1.909  0.5037  0.4757 -0.5473
  800SOL    HW3 3199   4.406   2.792   1.830  1.2734  0.6986  0.7471
  800SOL    MW4 3200   4.365   2.768   1.903  0.5547  0.3897  0.2528
  801SOL     OW 3201   2.702   4.538   1.541 -0.8539  0.8881 -0.2534
  801SOL    HW2 3202   2.618   4.584   1.531 -0.6052  1.0054 -1.8862
  801SOL    HW3 3203   2.768   4.607   1.540 -0.4864  0.5652 -2.6299
  801SOL    MW4 3204   2.699   4.553   1.539 -0.7726  0.8610 -0.7824
  802SOL     OW 3205   0.946   0.175   0.292  0.0739  0.2182 -0.3087
  802SOL    HW2 3206   0.972   0.186   0.200  1.0114  2.0232  0.1323
  802SOL    HW3 3207   0.979   0.089   0.316  0.2449 -0.0694 -1.5269
  802SOL    MW4 3208   0.954   0.165   0.283  0.2201  0.4184 -0.4112
  803SOL     OW 3209   1.452   0.326   1.606 -0.7757  0.1459 -0.3898
  803SOL    HW2 3210   1.490   0.381   1.538 -0.0671  0.1051 -0.0348
  803SOL    HW3 3211   1.389   0.383   1.651  1.0353  1.1599  0.9476
  803SOL    MW4 3212   1.448   0.341   1.603 -0.4433  0.2743 -0.1665
  804SOL     OW 3213   0.064   1.899   1.318 -0.4295  0.1661 -0.0528
  804SOL    HW2 3214  -0.021   1.938   1.338 -0.7335 -0.3382 -0.3560
  804SOL    HW3 3215   0.127   1.969   1.336 -0.8189  0.2372  1.1140
  804SOL    MW4 3216   0.061   1.914   1.323 -0.5210  0.1090  0.0611
  805SOL     OW 3217   3.342   4.656   2.306  0.2623  0.3613 -0.3281
  805SOL    HW2 3218   3.358   4.683   2.396  2.2514 -1.4821 -0.1130
  805SOL    HW3 3219   3.413   4.696   2.256  0.3224 -0.2973 -0.7730
  805SOL    MW4 3220   3.353   4.665   2.311  0.5326  0.0312 -0.3584
  806SOL     OW 3221   2.518   1.040   1.701 -0.3654 -0.5953  0.5970
  806SOL    HW2 3222   2.454   1.094   1.656 -0.0702 -0.6211  0.1392
  806SOL    HW3 3223   2.467   0.969   1.741 -0.5749 -0.8161 -0.0672
  806SOL    MW4 3224   2.503   1.037   1.701 -0.3541 -0.6278  0.4489
  807SOL     OW 3225   2.568   1.942   0.866  0.1508  0.0711 -0.0848
  807SOL    HW2 3226   2.572   1.891   0.947 -0.8225  0.7633  0.4026
  807SOL    HW3 3227   2.506   1.894   0.811 -0.7946  0.7456  0.3885
  807SOL    MW4 3228   2.561   1.929   0.869 -0.1023  0.2514  0.0420
  808SOL     OW 3229   3.607   1.525   0.590 -0.3382  0.0671 -0.2540
  808SOL    HW2 3230   3.538   1.502   0.528 -0.7179  1.2021 -0.2660
  808SOL    HW3 3231   3.601   1.620   0.598  1.2649  0.1822 -0.3002
  808SOL    MW4 3232   3.597   1.534   0.583 -0.1768  0.2321 -0.2617
  809SOL     OW 3233   3.591   0.848   2.231 -0.5350  0.1460  0.1213
  809SOL    HW2 3234   3.564   0.829   2.142 -0.9570  1.7551 -0.1051
  809SOL    HW3 3235   3.549   0.931   2.252 -1.0554 -0.5915  2.0905
  809SOL    MW4 3236   3.582   0.856   2.222 -0.6594  0.2610  0.3512
  810SOL     OW 3237   1.289   1.567   0.791 -0.1204 -0.5028 -0.2056
  810SOL    HW2 3238   1.275   1.472   0.790 -0.5522 -0.4729  1.2626
  810SOL    HW3 3239   1.288   1.590   0.884 -2.1715  1.2402 -0.5992
  810SOL    MW4 3240   1.287   1.557   0.803 -0.4480 -0.2689 -0.0638
  811SOL     OW 3241   3.702   3.552   0.553  0.0380 -0.0607 -0.1641
  811SOL    HW2 3242   3.716   3.582   0.464  1.7063  1.5863  0.6242
  811SOL    HW3 3243   3.738   3.463   0.555  0.0769 -0.0677 -1.0981
  811SOL    MW4 3244   3.708   3.544   0.542  0.2632  0.1557 -0.1833
  812SOL     OW 3245   4.333   2.799   2.196 -0.0059 -0.0774  0.4664
  812SOL    HW2 3246   4.381   2.735   2.249  3.0020  0.9627 -0.8797
  812SOL    HW3 3247   4.353   2.774   2.106  0.2161  2.0290 -0.0884
  812SOL    MW4 3248   4.342   2.787   2.191  0.4202  0.3377  0.2156
  813SOL     OW 3249   1.882   3.938   0.973 -0.2643 -0.2951  0.1506
  813SOL    HW2 3250   1.828   3.943   0.894  0.2925 -0.2002 -0.2224
  813SOL    HW3 3251   1.828   3.890   1.036 -0.5712 -0.6723 -0.3990
  813SOL    MW4 3252   1.868   3.932   0.971 -0.2314 -0.3324  0.0289
  814SOL     OW 3253   2.046   3.187   1.511 -0.3650  0.7063  0.1243
  814SOL    HW2 3254   2.125   3.226   1.472  0.0789 -0.6459 -0.3851
  814SOL    HW3 3255   2.046   3.218   1.601  0.1597  1.6004 -0.1743
  814SOL    MW4 3256   2.057   3.196   1.518 -0.2372  0.6459  0.0177
  815SOL     OW 3257   1.749   2.995   1.844  0.3455 -0.5873 -0.0775
  815SOL    HW2 3258   1.702   2.914   1.862 -1.4392  0.7690  1.5656
  815SOL    HW3 3259   1.714   3.025   1.760 -1.5956  0.2784  1.0131
  815SOL    MW4 3260   1.738   2.989   1.835 -0.1461 -0.2942  0.2832
  816SOL     OW 3261   2.912   0.207   1.109  0.1063  0.0041 -0.2430
  816SOL    HW2 3262   2.925   0.120   1.071 -0.4654 -0.2219  0.0765
  816SOL    HW3 3263   2.971   0.264   1.059 -0.4411 -0.3362 -1.2877
  816SOL    MW4 3264   2.922   0.203   1.098 -0.0413 -0.0706 -0.3387
  817SOL     OW 3265   1.843   0.141   1.920  0.5276 -0.0849 -0.1062
  817SOL    HW2 3266   1.937   0.156   1.908  0.3580  0.9838 -0.1172
  817SOL    HW3 3267   1.801   0.198   1.856 -0.1924  1.0695  1.3720
  817SOL    MW4 3268   1.850   0.151   1.910  0.4102  0.2084  0.0874
  818SOL     OW 3269   2.000   3.128   2.341 -0.2896 -0.3930  0.1796
  818SOL    HW2 3270   1.967   3.048   2.301 -0.7870 -0.3652  0.5286
  818SOL    HW3 3271   1.939   3.196   2.313 -0.6397 -0.3712  0.9660
  818SOL    MW4 3272   1.987   3.127   2.332 -0.4014 -0.3865  0.3294
  819SOL     OW 3273   3.390   2.822   2.178  0.2113  0.1103 -0.4048
  819SOL    HW2 3274   3.473   2.794   2.217  1.0849  2.8104 -0.2799
  819SOL    HW3 3275   3.362   2.896   2.231 -2.2204 -0.6451 -0.5794
  819SOL    MW4 3276   3.398   2.828   2.190  0.0057  0.3669 -0.4114
  820SOL     OW 3277   2.076   2.907   1.526  0.1420  0.2449 -0.0665
  820SOL    HW2 3278   2.149   2.905   1.588  1.1410 -0.7807 -1.2612
  820SOL    HW3 3279   2.049   2.999   1.525 -0.0392  0.2417  2.0425
  820SOL    MW4 3280   2.082   2.919   1.534  0.2499  0.1091  0.0541
  821SOL     OW 3281   1.852   0.949   0.790 -0.3251 -0.3521  0.5744
  821SOL    HW2 3282   1.766   0.956   0.748 -0.2867 -1.5402  0.2916
  821SOL    HW3 3283   1.915   0.954   0.718 -0.0870  1.5992  0.8736
  821SOL    MW4 3284   1.849   0.951   0.775 -0.2886 -0.2514  0.5766
  822SOL     OW 3285   3.608   1.533   1.315 -0.5681 -0.0600  0.4893
  822SOL    HW2 3286   3.530   1.478   1.307 -0.5161  0.1408 -2.0976
  822SOL    HW3 3287   3.587   1.595   1.385 -1.2699 -2.2857  2.3163
  822SOL    MW4 3288   3.595   1.534   1.323 -0.6538 -0.3272  0.3891
  823SOL     OW 3289   2.030   4.446   2.221 -0.4432  0.2543 -0.2213
  823SOL    HW2 3290   2.040   4.423   2.129 -0.4169 -0.4451 -0.0478
  823SOL    HW3 3291   2.095   4.393   2.267 -1.0657 -0.0831  0.2908
  823SOL    MW4 3292   2.040   4.436   2.215 -0.5218  0.1175 -0.1308
  824SOL     OW 3293   1.843   3.174   0.599  0.0556  0.4334  0.2589
  824SOL    HW2 3294   1.913   3.119   0.563  0.5454  0.9087  0.4808
  824SOL    HW3 3295   1.876   3.264   0.589 -0.1440  0.6137  1.1693
  824SOL    MW4 3296   1.857   3.179   0.593  0.0939  0.5199  0.4083
  825SOL     OW 3297   0.656   2.831   2.137  0.3520  0.7229 -0.0063
  825SOL    HW2 3298   0.732   2.778   2.163  0.5851  1.1215  0.1258
  825SOL    HW3 3299   0.686   2.881   2.062  0.6436  1.8807  0.8606
  825SOL    MW4 3300   0.670   2.830   2.131  0.4212  0.9283  0.1255
  826SOL     OW 3301   0.181   0.341   0.449  0.1408 -0.6806  0.0836
  826SOL    HW2 3302   0.122   0.417   0.454  1.7020  0.6102 -0.8738
  826SOL    HW3 3303   0.269   0.378   0.444  0.7983 -2.4821 -3.0715
  826SOL    MW4 3304   0.185   0.356   0.449  0.4335 -0.7480 -0.4590
  827SOL     OW 3305   2.381   2.130   1.724  0.1007  0.5850 -0.3822
  827SOL    HW2 3306   2.448   2.109   1.789 -1.5662 -0.3457  1.0804
  827SOL    HW3 3307   2.313   2.175   1.774 -0.0222  2.2498 -1.9959
  827SOL    MW4 3308   2.381   2.133   1.740 -0.1355  0.6819 -0.4022
  828SOL     OW 3309   3.133   4.257   2.265  0.0501  0.0317 -0.2902
  828SOL    HW2 3310   3.059   4.315   2.246  0.6205  1.1721  0.9313
  828SOL    HW3 3311   3.210   4.304   2.233  0.7059  0.7557  2.2500
  828SOL    MW4 3312   3.133   4.271   2.258  0.2119  0.2777  0.2061
  829SOL     OW 3313   0.461   4.206   0.542 -0.0832 -0.1951 -0.8722
  829SOL    HW2 3314   0.526   4.234   0.607 -0.3704 -0.9173 -0.2699
  829SOL    HW3 3315   0.484   4.255   0.462 -0.5246  1.6985  0.1216
  829SOL    MW4 3316   0.473   4.216   0.540 -0.1793 -0.0405 -0.6616
  830SOL     OW 3317   2.078   0.262   0.338 -0.0927 -0.2464  0.0943
  830SOL    HW2 3318   2.163   0.283   0.377 -0.1538 -2.3595  1.3733
  830SOL    HW3 3319   2.098   0.197   0.271 -0.5293  0.3884 -0.6711
  830SOL    MW4 3320   2.092   0.256   0.334 -0.1583 -0.4415  0.1621
  831SOL     OW 3321   0.546   4.656   0.471 -0.2929  0.2574  0.2441
  831SOL    HW2 3322   0.453   4.634   0.468 -0.1736 -0.0754 -1.8545
  831SOL    HW3 3323   0.571   4.642   0.562 -2.3368  0.5251  0.8605
  831SOL    MW4 3324   0.537   4.651   0.483 -0.5468  0.2488  0.0485
  832SOL     OW 3325   4.200   0.835   1.743  0.4971 -0.0255 -0.0298
  832SOL    HW2 3326   4.167   0.747   1.724  1.4609 -0.6096  0.9203
  832SOL    HW3 3327   4.231   0.868   1.659 -1.1381 -0.0477 -0.6528
  832SOL    MW4 3328   4.200   0.827   1.730  0.4085 -0.1055  0.0133
  833SOL     OW 3329   3.341   3.462   0.403  0.1168  0.6372 -0.1880
  833SOL    HW2 3330   3.253   3.426   0.398  0.0098  0.5861  1.8428
  833SOL    HW3 3331   3.332   3.540   0.457  1.6567 -0.4916  1.7412
  833SOL    MW4 3332   3.328   3.468   0.409  0.3059  0.4816  0.3345
  834SOL     OW 3333   2.126   3.749   0.692 -0.4979 -0.3012  0.3681
  834SOL    HW2 3334   2.188   3.718   0.759 -3.0544 -1.6223  2.2114
  834SOL    HW3 3335   2.044   3.704   0.713 -2.1624  1.5706 -1.8818
  834SOL    MW4 3336   2.123   3.739   0.704 -1.0548 -0.2285  0.3145
  835SOL     OW 3337   2.215   2.723   1.875  0.1372 -0.2251  0.1219
  835SOL    HW2 3338   2.136   2.766   1.909  0.0378  0.9863 -1.5956
  835SOL    HW3 3339   2.189   2.631   1.866 -1.6498  0.4124 -1.9328
  835SOL    MW4 3340   2.201   2.717   1.878 -0.1117  0.0188 -0.3758
  836SOL     OW 3341   4.325   3.046   2.322 -0.1580  0.6632 -0.1570
  836SOL    HW2 3342   4.324   2.964   2.272 -0.2762  0.8605 -0.4826
  836SOL    HW3 3343   4.398   3.095   2.285  1.1011 -0.0695  1.3157
  836SOL    MW4 3344   4.334   3.042   2.310 -0.0075  0.5926 -0.0057
  837SOL     OW 3345   1.487   0.045   0.684  0.4001 -0.3413 -0.1048
  837SOL    HW2 3346   1.470  -0.049   0.690  0.2561 -0.3062  0.0492
  837SOL    HW3 3347   1.577   0.055   0.715  0.2499 -0.3701  0.3436
  837SOL    MW4 3348   1.496   0.034   0.689  0.3613 -0.3405 -0.0253
  838SOL     OW 3349   1.976   1.426   0.673  0.6972 -0.4391  0.1973
  838SOL    HW2 3350   2.066   1.399   0.691 -0.2866 -2.9835  1.5661
  838SOL    HW3 3351   1.932   1.346   0.646 -1.3984  0.5631  0.5339
  838SOL    MW4 3352   1.982   1.412   0.672  0.2909 -0.6426  0.4223
  839SOL     OW 3353   3.810   1.759   1.465 -0.9413 -0.6756 -0.2092
  839SOL    HW2 3354   3.868   1.689   1.494  0.7953  0.5978 -0.5176
  839SOL    HW3 3355   3.811   1.822   1.538 -1.3994 -0.3338 -0.4984
  839SOL    MW4 3356   3.818   1.758   1.479 -0.7726 -0.4625 -0.2880
  840SOL     OW 3357   2.846   3.830   1.567 -0.2737  0.0896  0.6875
  840SOL    HW2 3358   2.763   3.818   1.520 -0.2634 -1.4544  1.0319
  840SOL    HW3 3359   2.820   3.845   1.658 -0.2271  1.3557  0.5036
  840SOL    MW4 3360   2.832   3.831   1.573 -0.2662  0.0529  0.7087
  841SOL     OW 3361   1.890   3.736   1.295  0.4520  0.0259  0.2009
  841SOL    HW2 3362   1.851   3.674   1.357  2.4977 -1.8876 -0.3501
  841SOL    HW3 3363   1.922   3.807   1.350 -0.8596  0.0361  0.9707
  841SOL    MW4 3364   1.889   3.737   1.311  0.5488 -0.2252  0.2298
  842SOL     OW 3365   4.346   4.638   1.820  0.2776  0.1582  0.6175
  842SOL    HW2 3366   4.362   4.730   1.840  1.3748  0.2335 -0.5491
  842SOL    HW3 3367   4.354   4.594   1.905  0.0467  1.0895  1.1376
  842SOL    MW4 3368   4.349   4.644   1.834  0.3919  0.2910  0.5322
  843SOL     OW 3369   0.552   3.123   1.187 -0.1444  0.1098  0.1660
  843SOL    HW2 3370   0.466   3.165   1.181 -0.2715 -0.1509  0.1295
  843SOL    HW3 3371   0.615   3.195   1.184 -0.3743  0.3280  0.5668
  843SOL    MW4 3372   0.549   3.138   1.186 -0.1915  0.1042  0.2141
  844SOL     OW 3373   1.640   3.019   1.580  0.2233  0.4928 -0.2437
  844SOL    HW2 3374   1.678   3.095   1.536  0.7308  0.1363 -0.4203
  844SOL    HW3 3375   1.690   2.945   1.548  0.7611  0.2533  1.1223
  844SOL    MW4 3376   1.652   3.019   1.570  0.3612  0.4142 -0.0868
  845SOL     OW 3377   4.447   2.848   1.670  0.2982  0.1157 -0.3788
  845SOL    HW2 3378   4.445   2.939   1.638  0.0352  0.4538  0.5753
  845SOL    HW3 3379   4.528   2.812   1.633  1.0965  1.1549  0.3118
  845SOL    MW4 3380   4.457   2.856   1.661  0.3688  0.2975 -0.1618
  846SOL     OW 3381   0.803   1.235   1.173 -0.4874 -0.3020  0.2684
  846SOL    HW2 3382   0.733   1.224   1.108 -1.2664 -2.2688  1.4024
  846SOL    HW3 3383   0.758   1.236   1.257  0.6647  0.7250  0.8824
  846SOL    MW4 3384   0.788   1.233   1.175 -0.4382 -0.4260  0.4990
  847SOL     OW 3385   3.434   2.453   1.538  0.7009 -0.2395  0.0821
  847SOL    HW2 3386   3.409   2.428   1.627 -0.6615 -0.5902 -0.3873
  847SOL    HW3 3387   3.485   2.533   1.550  1.0964 -0.6556  1.2307
  847SOL    MW4 3388   3.437   2.461   1.552  0.5733 -0.3406  0.1717
  848SOL     OW 3389   0.275   0.561   1.905  0.1352 -0.5391  0.1129
  848SOL    HW2 3390   0.243   0.627   1.843  0.5134 -0.1271  0.3546
  848SOL    HW3 3391   0.370   0.562   1.893  0.3687  0.8125  1.9713
  848SOL    MW4 3392   0.283   0.570   1.895  0.2159 -0.3064  0.3900
  849SOL     OW 3393   1.511   0.949   1.679  0.1368  0.1111 -0.6741
  849SOL    HW2 3394   1.587   0.986   1.725 -1.0913 -0.4697  1.9005
  849SOL    HW3 3395   1.437   1.001   1.710 -0.9154 -1.1941 -0.9712
  849SOL    MW4 3396   1.512   0.961   1.689 -0.1640 -0.1377 -0.3736
  850SOL     OW 3397   4.282   2.353   1.789 -0.2011 -0.3397  0.0142
  850SOL    HW2 3398   4.243   2.276   1.829  0.3338 -0.2285  0.7674
  850SOL    HW3 3399   4.207   2.407   1.762 -0.5697 -0.8398  0.0328
  850SOL    MW4 3400   4.267   2.350   1.790 -0.1792 -0.3910  0.1160
  851SOL     OW 3401   1.190   1.013   0.547 -0.2890  0.6251  0.0539
  851SOL    HW2 3402   1.121   0.999   0.482  0.8707 -0.7539 -0.9138
  851SOL    HW3 3403   1.170   0.951   0.617 -0.5613  0.8923  0.2141
  851SOL    MW4 3404   1.178   1.003   0.548 -0.1719  0.4784 -0.0526
  852SOL     OW 3405   3.215   0.922   1.480  0.2400  0.1213 -0.1589
  852SOL    HW2 3406   3.185   0.858   1.545  0.5273  0.3556  0.2025
  852SOL    HW3 3407   3.177   0.891   1.397  0.4184 -0.5435  0.0066
  852SOL    MW4 3408   3.206   0.909   1.477  0.3014  0.0645 -0.0894
  853SOL     OW 3409   1.130   0.346   0.414 -0.1696 -0.0133 -0.3745
  853SOL    HW2 3410   1.117   0.345   0.509 -0.2946  1.0889 -0.3790
  853SOL    HW3 3411   1.063   0.287   0.380 -0.8664  0.4875  0.1315
  853SOL    MW4 3412   1.119   0.338   0.422 -0.2780  0.1982 -0.3083
  854SOL     OW 3413   1.616   0.337   0.812  0.5908 -0.0227 -0.1802
  854SOL    HW2 3414   1.556   0.376   0.747  0.2432 -0.3524 -0.0589
  854SOL    HW3 3415   1.601   0.388   0.892  0.5796 -0.0074 -0.1920
  854SOL    MW4 3416   1.606   0.349   0.814  0.5435 -0.0642 -0.1658
  855SOL     OW 3417   1.926   2.425   0.687  0.0646  0.8983 -0.0835
  855SOL    HW2 3418   1.858   2.383   0.635 -0.2504  1.0786  0.1726
  855SOL    HW3 3419   1.881   2.450   0.768  0.6906  0.0483  0.5449
  855SOL    MW4 3420   1.911   2.423   0.691  0.1057  0.8100  0.0332
  856SOL     OW 3421   3.173   2.447   2.170  0.2821 -0.2812  0.2951
  856SOL    HW2 3422   3.158   2.536   2.203 -1.4886 -0.2239 -0.5890
  856SOL    HW3 3423   3.088   2.404   2.179  1.1124 -1.8738  0.6349
  856SOL    MW4 3424   3.160   2.453   2.176  0.1580 -0.4838  0.2233
  857SOL     OW 3425   3.932   0.514   1.434  0.3600  0.4492 -0.3104
  857SOL    HW2 3426   3.969   0.547   1.515  0.0667  0.0493 -0.0139
  857SOL    HW3 3427   4.003   0.462   1.395  1.0928  2.0347 -1.1625
  857SOL    MW4 3428   3.946   0.511   1.439  0.4179  0.6056 -0.3837
  858SOL     OW 3429   0.581   2.846   1.295 -0.1832 -0.3725 -0.2114
  858SOL    HW2 3430   0.552   2.932   1.265  1.5563  0.3603  0.1123
  858SOL    HW3 3431   0.642   2.817   1.227  0.5848 -0.5514  0.5475
  858SOL    MW4 3432   0.586   2.853   1.282  0.1476 -0.2994 -0.0685
  859SOL     OW 3433   2.968   2.869   1.741 -0.2449 -0.1612  0.2029
  859SOL    HW2 3434   3.046   2.815   1.754 -0.3397 -0.1013  1.0921
  859SOL    HW3 3435   2.927   2.834   1.662  1.8294  1.1983 -1.5056
  859SOL    MW4 3436   2.973   2.857   1.732  0.0163  0.0261  0.0948
  860SOL     OW 3437   1.410   2.595   1.808  0.1829  0.1750  0.0337
  860SOL    HW2 3438   1.370   2.523   1.857  1.4903 -0.6215 -0.0309
  860SOL    HW3 3439   1.383   2.581   1.718 -0.5019  0.4339  0.1939
  860SOL    MW4 3440   1.401   2.584   1.803  0.2650  0.1040  0.0463
  861SOL     OW 3441   1.889   2.096   1.001 -0.2778  0.0928  0.1123
  861SOL    HW2 3442   1.943   2.047   1.063 -0.4819  0.9591  0.9844
  861SOL    HW3 3443   1.892   2.186   1.033 -1.5682  0.2897 -0.3036
  861SOL    MW4 3444   1.896   2.101   1.013 -0.4749  0.2331  0.1725
  862SOL     OW 3445   3.861   0.606   1.858  0.1529 -0.1870 -0.5833
  862SOL    HW2 3446   3.803   0.682   1.863 -0.0303 -0.3624  0.0944
  862SOL    HW3 3447   3.824   0.551   1.789  0.2223  0.2818 -0.9955
  862SOL    MW4 3448   3.849   0.609   1.850  0.1379 -0.1483 -0.5483
  863SOL     OW 3449   0.718   0.218   0.651  0.4535  0.2381 -0.0803
  863SOL    HW2 3450   0.712   0.221   0.555  1.2546 -0.3380 -0.1558
  863SOL    HW3 3451   0.632   0.246   0.681 -0.1175 -0.5013 -0.9847
  863SOL    MW4 3452   0.706   0.222   0.642  0.4838  0.0645 -0.2096
  864SOL     OW 3453   3.341   0.273   1.103  0.5432 -0.0878  0.1265
  864SOL    HW2 3454   3.411   0.219   1.139 -1.2961 -1.0856  2.3039
  864SOL    HW3 3455   3.291   0.213   1.048 -0.0627 -0.0042  0.5820
  864SOL    MW4 3456   3.344   0.258   1.100  0.2205 -0.2084  0.4739
  865SOL     OW 3457   3.622   3.531   1.818  0.1401 -0.3084  0.1427
  865SOL    HW2 3458   3.620   3.619   1.856 -0.2161  0.0138 -0.6109
  865SOL    HW3 3459   3.559   3.481   1.871  1.6611 -0.5896  1.7079
  865SOL    MW4 3460   3.613   3.536   1.830  0.2938 -0.3030  0.2498
  866SOL     OW 3461   0.317   4.004   1.114 -0.4790 -0.2059  0.1034
  866SOL    HW2 3462   0.385   4.042   1.059 -0.6873  0.0494  0.0246
  866SOL    HW3 3463   0.324   3.909   1.098 -2.4052  0.0536 -2.5359
  866SOL    MW4 3464   0.327   3.996   1.104 -0.7606 -0.1380 -0.2552
  867SOL     OW 3465   0.506   1.187   1.793 -0.6636  0.1698  0.3965
  867SOL    HW2 3466   0.495   1.235   1.711  0.2974 -0.0763  0.1214
  867SOL    HW3 3467   0.450   1.233   1.855  0.3438  1.7215  0.1702
  867SOL    MW4 3468   0.497   1.199   1.790 -0.4039  0.3420  0.3303
  868SOL     OW 3469   0.286   1.777   1.814 -0.5958 -0.1565 -0.1432
  868SOL    HW2 3470   0.196   1.759   1.842 -0.9264  0.8253 -0.5574
  868SOL    HW3 3471   0.302   1.867   1.842  0.3156 -0.3745  0.0525
  868SOL    MW4 3472   0.276   1.787   1.822 -0.5192 -0.0557 -0.1720
  869SOL     OW 3473   1.423   4.553   1.071  0.3862 -0.4843  0.1284
  869SOL    HW2 3474   1.342   4.519   1.034 -0.2626  0.9244  0.2020
  869SOL    HW3 3475   1.435   4.638   1.027  1.3495 -0.2861  0.7601
  869SOL    MW4 3476   1.414   4.560   1.060  0.4277 -0.2723  0.2214
  870SOL     OW 3477   2.897   2.400   1.186 -0.2267 -0.0935  0.0305
  870SOL    HW2 3478   2.807   2.386   1.215 -0.5680 -0.5979 -1.2058
  870SOL    HW3 3479   2.941   2.439   1.261 -1.5458  0.3973  0.5688
  870SOL    MW4 3480   2.891   2.403   1.199 -0.4457 -0.0953 -0.0616
  871SOL     OW 3481   0.689   3.709   0.844  0.2316  0.1960  0.0010
  871SOL    HW2 3482   0.656   3.621   0.865 -1.3300  0.8872  0.4839
  871SOL    HW3 3483   0.709   3.748   0.929  1.6497  0.0621 -0.2449
  871SOL    MW4 3484   0.688   3.702   0.858  0.2127  0.2695  0.0323
  872SOL     OW 3485   1.167   2.987   0.287 -0.0094  0.1765  0.1902
  872SOL    HW2 3486   1.112   3.052   0.332 -1.4862 -0.5688 -0.5022
  872SOL    HW3 3487   1.249   3.033   0.270  0.0294  0.9445  2.2890
  872SOL    MW4 3488   1.171   3.002   0.291 -0.1991  0.1795  0.3758
  873SOL     OW 3489   0.081   4.034   0.773 -0.8334  0.0562  0.3907
  873SOL    HW2 3490   0.145   4.105   0.770 -2.0545  1.1072 -1.3645
  873SOL    HW3 3491  -0.004   4.078   0.776 -1.5185 -1.3318  2.2644
  873SOL    MW4 3492   0.079   4.049   0.773 -1.0849  0.0117  0.4063
  874SOL     OW 3493   3.522   3.940   0.940 -0.3460 -0.2170 -0.8418
  874SOL    HW2 3494   3.583   4.006   0.907  0.1756 -0.6911 -0.8324
  874SOL    HW3 3495   3.476   3.909   0.862  0.5176 -0.9609 -1.0782
  874SOL    MW4 3496   3.524   3.944   0.925 -0.1632 -0.3777 -0.8718
  875SOL     OW 3497   0.240   2.698   1.057  0.4569  0.3811  0.5522
  875SOL    HW2 3498   0.181   2.638   1.101 -0.0101  0.4724  0.0583
  875SOL    HW3 3499   0.300   2.642   1.008 -1.3491  0.3191 -1.6918
  875SOL    MW4 3500   0.240   2.683   1.056  0.1570  0.3850  0.1910
  876SOL     OW 3501   2.081   1.869   1.719  0.0323  0.2139  0.6976
  876SOL    HW2 3502   2.018   1.930   1.757 -0.6452  0.2976 -0.5253
  876SOL    HW3 3503   2.027   1.805   1.672  0.7971 -0.4845  0.7572
  876SOL    MW4 3504   2.066   1.868   1.718  0.0438  0.1328  0.5441
  877SOL     OW 3505   2.437   1.854   0.613 -0.0670  0.1703 -0.6737
  877SOL    HW2 3506   2.458   1.760   0.608  0.6080  0.2579  0.2610
  877SOL    HW3 3507   2.344   1.856   0.635  0.0187 -0.2975 -0.2336
  877SOL    MW4 3508   2.428   1.842   0.615  0.0334  0.1201 -0.4923
  878SOL     OW 3509   1.585   1.213   0.840  0.2022  0.7757 -0.1695
  878SOL    HW2 3510   1.524   1.196   0.768  1.5196  0.8706 -1.3217
  878SOL    HW3 3511   1.530   1.249   0.910 -1.4284 -1.2095 -0.3688
  878SOL    MW4 3512   1.569   1.216   0.840  0.1609  0.5263 -0.3478
  879SOL     OW 3513   1.829   2.541   1.839 -0.2600  0.1114 -0.1961
  879SOL    HW2 3514   1.828   2.540   1.743 -1.0448 -0.0152 -0.1918
  879SOL    HW3 3515   1.922   2.543   1.862 -0.0627 -0.0570 -0.9582
  879SOL    MW4 3516   1.841   2.541   1.829 -0.3375  0.0725 -0.2961
  880SOL     OW 3517   1.415   3.147   0.331 -0.7061 -0.2370  0.4523
  880SOL    HW2 3518   1.509   3.159   0.322 -0.6308 -1.7436 -0.9273
  880SOL    HW3 3519   1.382   3.235   0.351  1.2565 -0.1741  3.8162
  880SOL    MW4 3520   1.423   3.160   0.332 -0.4372 -0.4275  0.7141
  881SOL     OW 3521   4.411   2.150   0.718  0.0836  0.1193  0.0638
  881SOL    HW2 3522   4.407   2.055   0.713  0.4690  0.1767 -1.4098
  881SOL    HW3 3523   4.325   2.180   0.688  0.9665  0.3238 -2.3241
  881SOL    MW4 3524   4.399   2.142   0.713  0.2510  0.1538 -0.4457
  882SOL     OW 3525   0.281   2.054   1.874 -0.6290 -0.0143  0.0995
  882SOL    HW2 3526   0.349   2.119   1.859 -0.0208 -0.7204 -0.2168
  882SOL    HW3 3527   0.279   2.044   1.969 -0.6988  0.4317  0.1492
  882SOL    MW4 3528   0.289   2.061   1.884 -0.5580 -0.0486  0.0643
  883SOL     OW 3529   2.255   3.176   0.913 -0.3560  0.1365 -0.0152
  883SOL    HW2 3530   2.240   3.177   1.008  0.1933 -0.6824  0.0844
  883SOL    HW3 3531   2.199   3.106   0.881 -0.0310 -0.0328 -0.2100
  883SOL    MW4 3532   2.246   3.167   0.921 -0.2406  0.0062 -0.0278
  884SOL     OW 3533   0.432   1.846   1.287  0.2444 -0.1120  0.6912
  884SOL    HW2 3534   0.373   1.840   1.211  0.6497 -1.3727  0.4744
  884SOL    HW3 3535   0.373   1.851   1.362 -0.1573 -1.5205  0.4875
  884SOL    MW4 3536   0.416   1.846   1.287  0.2449 -0.4641  0.6357
  885SOL     OW 3537   1.175   4.126   1.923 -0.0512 -0.8409  0.6304
  885SOL    HW2 3538   1.084   4.110   1.948 -0.2189  0.9761  1.2118
  885SOL    HW3 3539   1.226   4.076   1.986 -0.6014 -0.2394  1.5606
  885SOL    MW4 3540   1.170   4.117   1.935 -0.1459 -0.5218  0.8299
  886SOL     OW 3541   2.926   0.563   2.214 -0.0065  0.6008  0.2741
  886SOL    HW2 3542   2.897   0.646   2.252  0.8396  1.1496 -0.2811
  886SOL    HW3 3543   2.958   0.586   2.127  2.1138  0.0029  0.8744
  886SOL    MW4 3544   2.926   0.577   2.208  0.3849  0.5943  0.2800
  887SOL     OW 3545   1.488   4.292   1.387 -0.0998 -0.4917  0.0299
  887SOL    HW2 3546   1.453   4.218   1.438 -0.6040 -1.1579 -1.2696
  887SOL    HW3 3547   1.416   4.355   1.385  0.1947 -0.1252  0.8068
  887SOL    MW4 3548   1.474   4.290   1.394 -0.1275 -0.5312 -0.0391
  888SOL     OW 3549   1.071   2.464   0.329  0.0791  0.0420 -0.0982
  888SOL    HW2 3550   1.167   2.460   0.323  0.0488  0.1143 -0.7087
  888SOL    HW3 3551   1.047   2.537   0.272 -0.4651 -1.1518 -1.4572
  888SOL    MW4 3552   1.081   2.473   0.320  0.0033 -0.1060 -0.3580
  889SOL     OW 3553   1.702   2.711   0.391 -0.3182 -0.1526 -0.2699
  889SOL    HW2 3554   1.780   2.697   0.445  1.8272 -0.7088 -3.3605
  889SOL    HW3 3555   1.670   2.622   0.373 -0.5640 -0.0045 -0.5576
  889SOL    MW4 3556   1.708   2.697   0.396 -0.0676 -0.2065 -0.7156
  890SOL     OW 3557   2.565   3.346   0.442 -0.2355  0.1520  0.7226
  890SOL    HW2 3558   2.528   3.284   0.505  0.1895 -0.3246  0.5056
  890SOL    HW3 3559   2.495   3.410   0.428 -0.7258 -0.3535  0.8444
  890SOL    MW4 3560   2.551   3.347   0.449 -0.2441  0.0224  0.7100
  891SOL     OW 3561   2.507   0.056   1.499  0.0324 -0.3549  0.2298
  891SOL    HW2 3562   2.521   0.051   1.404 -0.3203 -0.3181  0.1752
  891SOL    HW3 3563   2.414   0.036   1.510 -0.4730  1.9307  0.3649
  891SOL    MW4 3564   2.496   0.053   1.488 -0.0808 -0.0485  0.2404
  892SOL     OW 3565   2.811   4.024   0.980 -0.2352 -0.0550  0.2476
  892SOL    HW2 3566   2.890   4.062   1.019 -0.6184 -0.9143  1.9210
  892SOL    HW3 3567   2.820   3.930   0.995 -1.8059 -0.1128  0.9033
  892SOL    MW4 3568   2.823   4.016   0.987 -0.4930 -0.1760  0.5549
  893SOL     OW 3569   3.201   3.240   0.640 -0.7341 -0.0056 -0.3219
  893SOL    HW2 3570   3.194   3.145   0.648 -0.6753 -0.0673 -1.0363
  893SOL    HW3 3571   3.187   3.258   0.547 -0.1796  0.6349 -0.2862
  893SOL    MW4 3572   3.199   3.230   0.629 -0.6532  0.0708 -0.4114
  894SOL     OW 3573   4.396   1.471   0.508  0.8089 -0.1544 -0.0944
  894SOL    HW2 3574   4.311   1.493   0.470  0.8887 -0.4012 -0.4155
  894SOL    HW3 3575   4.435   1.556   0.528  0.1601 -0.0567  0.7852
  894SOL    MW4 3576   4.390   1.485   0.506  0.7338 -0.1741 -0.0207
  895SOL     OW 3577   0.258   4.144   1.814  0.2637  0.1100 -0.0406
  895SOL    HW2 3578   0.275   4.222   1.867  1.7718  1.7716 -2.8701
  895SOL    HW3 3579   0.165   4.152   1.790  0.4890  1.2411 -0.5910
  895SOL    MW4 3580   0.248   4.156   1.818  0.4924  0.4785 -0.4865
  896SOL     OW 3581   1.831   3.232   1.958  0.0251  0.0751 -0.5317
  896SOL    HW2 3582   1.764   3.297   1.936  0.0375  0.3140  0.1179
  896SOL    HW3 3583   1.792   3.148   1.936 -0.5475  0.2038 -0.0017
  896SOL    MW4 3584   1.817   3.230   1.952 -0.0488  0.1236 -0.3761
  897SOL     OW 3585   3.506   4.638   1.528  0.1321  0.6191 -0.4359
  897SOL    HW2 3586   3.453   4.559   1.520  0.8548  0.2407 -1.4817
  897SOL    HW3 3587   3.466   4.686   1.602 -1.0989 -0.0901 -0.6291
  897SOL    MW4 3588   3.494   4.634   1.537  0.0650  0.4756 -0.5994
  898SOL     OW 3589   3.645   2.428   1.267  0.2386  0.2803  0.2436
  898SOL    HW2 3590   3.553   2.427   1.292 -0.5943 -0.4663 -2.6534
  898SOL    HW3 3591   3.677   2.514   1.296 -1.2944  0.4889  1.4021
  898SOL    MW4 3592   3.637   2.439   1.274 -0.0736  0.2093  0.0142
  899SOL     OW 3593   3.473   0.490   0.942 -0.1460 -0.3709 -0.2900
  899SOL    HW2 3594   3.402   0.436   0.977 -0.4215  0.3390  0.2584
  899SOL    HW3 3595   3.436   0.578   0.937  0.5397 -0.0905 -0.4846
  899SOL    MW4 3596   3.459   0.495   0.946 -0.0919 -0.2403 -0.2433
  900SOL     OW 3597   1.045   4.101   0.298  0.7059 -0.2842  0.5575
  900SOL    HW2 3598   1.134   4.137   0.288  0.5367  0.2360  0.9078
  900SOL    HW3 3599   0.991   4.178   0.316  0.0001 -0.4515 -0.7466
  900SOL    MW4 3600   1.050   4.116   0.299  0.5904 -0.2376  0.4316
  901SOL     OW 3601   2.073   4.369   1.934 -0.3471  0.1002  0.0341
  901SOL    HW2 3602   2.086   4.282   1.973 -1.4997 -1.3715 -2.7716
  901SOL    HW3 3603   1.978   4.380   1.930 -0.2341  1.9995  1.3129
  901SOL    MW4 3604   2.062   4.359   1.939 -0.4842  0.1566 -0.1674
  902SOL     OW 3605   4.282   2.910   1.325 -0.6687  0.0065 -0.1540
  902SOL    HW2 3606   4.237   2.902   1.241 -1.1798  0.7435  0.0415
  902SOL    HW3 3607   4.300   2.820   1.352 -0.3802 -0.2241 -1.1216
  902SOL    MW4 3608   4.278   2.897   1.318 -0.6980  0.0733 -0.2559
  903SOL     OW 3609   3.876   0.151   0.356  0.0333 -0.1575  0.3983
  903SOL    HW2 3610   3.957   0.102   0.351  0.4981  0.6633 -0.1731
  903SOL    HW3 3611   3.902   0.243   0.350 -0.8577  0.1594  1.0421
  903SOL    MW4 3612   3.890   0.157   0.355 -0.0230 -0.0074  0.4079
  904SOL     OW 3613   3.277   3.226   1.972 -0.2614  0.0061  0.0076
  904SOL    HW2 3614   3.330   3.299   2.005  0.6380 -0.8944  0.5927
  904SOL    HW3 3615   3.231   3.193   2.049  0.7702 -1.2127  0.1215
  904SOL    MW4 3616   3.278   3.232   1.987 -0.0066 -0.2735  0.0998
  905SOL     OW 3617   3.169   1.584   2.233  0.0660  0.0861 -0.2672
  905SOL    HW2 3618   3.176   1.675   2.261  0.0688 -0.6678  2.3313
  905SOL    HW3 3619   3.075   1.566   2.236 -0.0055  0.2172 -1.5419
  905SOL    MW4 3620   3.157   1.594   2.237  0.0569  0.0039 -0.0925
  906SOL     OW 3621   0.875   4.321   0.352  0.5063 -0.3330  0.7943
  906SOL    HW2 3622   0.781   4.329   0.333  0.5084 -2.3413 -0.3111
  906SOL    HW3 3623   0.879   4.275   0.436  0.4684 -1.7236  0.0569
  906SOL    MW4 3624   0.863   4.316   0.360  0.5015 -0.7814  0.5512
  907SOL     OW 3625   3.678   4.251   1.391  0.4793  0.2075  0.9154
  907SOL    HW2 3626   3.610   4.186   1.376  1.1504 -0.5788  1.2349
  907SOL    HW3 3627   3.760   4.201   1.392  1.0788  1.1604  0.3614
  907SOL    MW4 3628   3.680   4.236   1.390  0.6469  0.2295  0.8844
  908SOL     OW 3629   1.495   3.891   1.363 -0.2313  0.6203  0.8050
  908SOL    HW2 3630   1.477   3.956   1.430 -0.3291  0.0361  1.3554
  908SOL    HW3 3631   1.409   3.867   1.328 -0.3229 -0.3282  1.6720
  908SOL    MW4 3632   1.482   3.896   1.367 -0.2563  0.4181  0.9920
  909SOL     OW 3633   0.265   3.145   1.618 -0.8345  0.1018  0.2194
  909SOL    HW2 3634   0.250   3.228   1.573 -1.7244  1.2143  2.4934
  909SOL    HW3 3635   0.360   3.141   1.629 -0.7502  0.6021 -0.3082
  909SOL    MW4 3636   0.276   3.155   1.614 -0.9408  0.3146  0.4498
  910SOL     OW 3637   2.259   1.322   1.135  0.4130  0.3886 -0.3605
  910SOL    HW2 3638   2.354   1.334   1.139  0.8866 -2.8303 -0.8036
  910SOL    HW3 3639   2.245   1.265   1.060 -1.6539 -0.9527  0.9822
  910SOL    MW4 3640   2.270   1.316   1.126  0.2028 -0.2131 -0.2418
  911SOL     OW 3641   4.058   1.006   1.331 -0.3653  0.1181 -0.0406
  911SOL    HW2 3642   4.091   1.084   1.287 -2.7795 -0.0656 -2.3192
  911SOL    HW3 3643   4.036   0.946   1.260 -1.6774 -1.3365  1.5500
  911SOL    MW4 3644   4.059   1.008   1.316 -0.8570 -0.0981 -0.1314
  912SOL     OW 3645   4.317   3.055   2.593 -0.3324 -0.3920 -0.0980
  912SOL    HW2 3646   4.330   3.071   2.499  1.3231  1.0873  0.3606
  912SOL    HW3 3647   4.235   3.100   2.614 -0.7816 -0.8388 -0.8417
  912SOL    MW4 3648   4.308   3.063   2.583 -0.1733 -0.2558 -0.1356
  913SOL     OW 3649   1.410   2.197   1.603  0.0567  0.1195 -0.2372
  913SOL    HW2 3650   1.371   2.251   1.672  1.6221  0.5553  0.3058
  913SOL    HW3 3651   1.420   2.111   1.643  2.4607  0.7743  0.6336
  913SOL    MW4 3652   1.406   2.193   1.617  0.5804  0.2634 -0.0506
  914SOL     OW 3653   2.927   1.162   0.663  0.0540 -0.3835  0.4485
  914SOL    HW2 3654   2.888   1.206   0.739 -1.1581  0.2416 -0.5115
  914SOL    HW3 3655   2.914   1.223   0.591 -0.1478 -1.5915 -0.5570
  914SOL    MW4 3656   2.920   1.176   0.664 -0.1325 -0.4604  0.1892
  915SOL     OW 3657   0.009   1.716   1.900  0.6732  0.3010  0.0645
  915SOL    HW2 3658  -0.039   1.639   1.870  2.1748 -0.7912  0.4065
  915SOL    HW3 3659   0.022   1.701   1.994 -0.0384  1.5390  0.3748
  915SOL    MW4 3660   0.004   1.704   1.908  0.7774  0.3202  0.1505
  916SOL     OW 3661   0.329   0.479   0.720  0.1092  0.0173  0.5913
  916SOL    HW2 3662   0.330   0.573   0.739 -1.5835 -0.0641  1.1531
  916SOL    HW3 3663   0.362   0.472   0.630 -1.8793  1.3604 -0.2791
  916SOL    MW4 3664   0.334   0.491   0.711 -0.3765  0.1838  0.5506
  917SOL     OW 3665   1.550   2.331   1.256 -0.7301  0.4339  0.5311
  917SOL    HW2 3666   1.467   2.285   1.269 -0.6343 -0.3013 -1.3932
  917SOL    HW3 3667   1.597   2.280   1.191  1.4502  0.6074  1.9153
  917SOL    MW4 3668   1.545   2.318   1.249 -0.4298  0.3598  0.4599
  918SOL     OW 3669   3.154   4.059   0.271 -0.0708 -0.0990 -0.1681
  918SOL    HW2 3670   3.073   4.105   0.249 -0.6036 -0.0363  1.8665
  918SOL    HW3 3671   3.127   3.968   0.285 -0.1688  0.3115  2.5462
  918SOL    MW4 3672   3.139   4.053   0.270 -0.1541 -0.0366  0.4585
  919SOL     OW 3673   4.242   1.287   2.256  0.3118  0.9654  0.2838
  919SOL    HW2 3674   4.319   1.230   2.257 -1.6046 -1.8088 -1.9222
  919SOL    HW3 3675   4.278   1.375   2.258  3.5320 -0.2565  0.0312
  919SOL    MW4 3676   4.257   1.291   2.256  0.4838  0.4381 -0.0406
  920SOL     OW 3677   0.877   0.909   1.830  0.5011  0.2018  0.3807
  920SOL    HW2 3678   0.934   0.859   1.771  1.4520  1.0092  0.6088
  920SOL    HW3 3679   0.790   0.874   1.814  1.0647 -1.0608  0.0430
  920SOL    MW4 3680   0.873   0.898   1.820  0.7009  0.1418  0.3662
  921SOL     OW 3681   2.918   4.628   1.010  0.2866 -0.2519 -0.1240
  921SOL    HW2 3682   2.902   4.535   1.025 -1.4567  0.2789  1.4073
  921SOL    HW3 3683   2.850   4.654   0.947  2.0086 -0.4285 -2.1335
  921SOL    MW4 3684   2.907   4.619   1.004  0.2838 -0.2051 -0.1871
  922SOL     OW 3685   3.047   1.143   1.574  0.0633 -0.1499 -0.0548
  922SOL    HW2 3686   3.086   1.058   1.554 -0.1901 -0.2317 -0.2050
  922SOL    HW3 3687   2.991   1.126   1.650 -0.4357 -0.2427 -0.4380
  922SOL    MW4 3688   3.045   1.129   1.581 -0.0360 -0.1729 -0.1252
  923SOL     OW 3689   2.510   4.552   0.864  0.0043 -0.5240  0.0485
  923SOL    HW2 3690   2.495   4.462   0.836 -1.3994 -1.4483  3.5176
  923SOL    HW3 3691   2.432   4.600   0.836 -0.1996 -0.8429  0.0736
  923SOL    MW4 3692   2.498   4.546   0.857 -0.2078 -0.6881  0.5095
  924SOL     OW 3693   1.411   0.125   0.951  0.7032 -0.1882 -0.3224
  924SOL    HW2 3694   1.329   0.116   0.904  1.0952  1.5833 -1.3922
  924SOL    HW3 3695   1.477   0.137   0.883  1.6677 -0.2087  0.5779
  924SOL    MW4 3696   1.409   0.125   0.936  0.8822  0.0429 -0.3448
  925SOL     OW 3697   2.835   4.111   0.698  0.0733  0.4758  0.2836
  925SOL    HW2 3698   2.818   4.062   0.778  1.8417  0.0268  0.3980
  925SOL    HW3 3699   2.910   4.067   0.658 -0.6227  0.8539 -1.4886
  925SOL    MW4 3700   2.843   4.099   0.703  0.2148  0.4664  0.0649
  926SOL     OW 3701   3.335   0.014   1.746  0.1698 -0.1578  0.1388
  926SOL    HW2 3702   3.312  -0.070   1.787  1.0184 -0.3204  0.2997
  926SOL    HW3 3703   3.283   0.079   1.793 -0.7790 -0.6297 -0.2295
  926SOL    MW4 3704   3.325   0.011   1.758  0.1566 -0.2415  0.1114
  927SOL     OW 3705   2.458   1.808   1.092  0.2757  0.7923 -0.1802
  927SOL    HW2 3706   2.470   1.866   1.168  0.6322  2.2122 -1.2936
  927SOL    HW3 3707   2.370   1.828   1.060 -0.0055 -0.0512  0.0571
  927SOL    MW4 3708   2.448   1.819   1.098  0.2856  0.8684 -0.2958
  928SOL     OW 3709   0.954   0.252   1.895 -0.2033 -0.3517  0.3862
  928SOL    HW2 3710   0.861   0.260   1.874 -0.5045  0.0978  1.8406
  928SOL    HW3 3711   0.956   0.211   1.982  1.0250 -3.2200 -0.9288
  928SOL    MW4 3712   0.942   0.248   1.904 -0.0810 -0.6708  0.4046
  929SOL     OW 3713   1.627   3.412   1.911 -0.1259 -0.1544 -0.0302
  929SOL    HW2 3714   1.591   3.470   1.978  0.2472  0.5011 -0.3941
  929SOL    HW3 3715   1.674   3.470   1.851 -0.9793 -0.6565 -1.2034
  929SOL    MW4 3716   1.628   3.427   1.912 -0.1893 -0.1342 -0.2330
  930SOL     OW 3717   1.827   1.388   0.926  0.5951  0.3714 -0.0856
  930SOL    HW2 3718   1.876   1.396   0.844 -1.0456 -0.2187 -1.1679
  930SOL    HW3 3719   1.737   1.368   0.898  0.3041 -1.2804  1.8815
  930SOL    MW4 3720   1.821   1.386   0.911  0.3402  0.0756  0.0311
  931SOL     OW 3721   2.904   1.528   2.302  0.1577 -0.7875  0.3150
  931SOL    HW2 3722   2.915   1.435   2.284 -0.3736 -0.7734 -0.0920
  931SOL    HW3 3723   2.902   1.534   2.398  0.3186 -1.1790  0.3431
  931SOL    MW4 3724   2.905   1.517   2.312  0.1088 -0.8373  0.2650
  932SOL     OW 3725   0.008   1.701   1.125  0.1625 -0.2168 -0.2111
  932SOL    HW2 3726   0.026   1.758   1.200  0.9964 -2.1147  1.0963
  932SOL    HW3 3727  -0.059   1.747   1.075  0.7681  1.8551  0.8394
  932SOL    MW4 3728   0.001   1.715   1.129  0.3525 -0.1938  0.1000
  933SOL     OW 3729   4.266   0.969   0.590  0.3900 -0.0848  0.0074
  933SOL    HW2 3730   4.346   0.917   0.590  0.8348  0.5824 -0.3038
  933SOL    HW3 3731   4.261   1.006   0.678  0.1161 -0.5938  0.2040
  933SOL    MW4 3732   4.276   0.967   0.601  0.4126 -0.0640 -0.0077
  934SOL     OW 3733   0.563   2.675   0.513 -0.1824 -0.4028 -0.1599
  934SOL    HW2 3734   0.492   2.740   0.509  1.6185  1.6651  0.5691
  934SOL    HW3 3735   0.592   2.677   0.604  1.3170 -0.6812 -0.6214
  934SOL    MW4 3736   0.557   2.684   0.524  0.2530 -0.1667 -0.1246
  935SOL     OW 3737   1.353   2.423   0.359  0.6914  0.2657  0.3907
  935SOL    HW2 3738   1.445   2.411   0.336  0.3439  1.1550 -1.5363
  935SOL    HW3 3739   1.354   2.488   0.429  1.6708 -1.4138  1.9869
  935SOL    MW4 3740   1.365   2.430   0.365  0.7748  0.1614  0.3471
  936SOL     OW 3741   2.685   3.417   1.121 -0.0748 -0.1098  0.1131
  936SOL    HW2 3742   2.640   3.333   1.135 -0.4916  0.4318  2.1274
  936SOL    HW3 3743   2.684   3.459   1.207  1.0760  1.5052 -0.6539
  936SOL    MW4 3744   2.679   3.411   1.134  0.0221  0.1747  0.2777
  937SOL     OW 3745   0.186   2.935   0.941  0.0273  0.3466  0.1340
  937SOL    HW2 3746   0.182   2.900   0.852 -0.4180  2.2170 -0.6024
  937SOL    HW3 3747   0.204   2.859   0.996  0.1295 -0.8570 -1.5337
  937SOL    MW4 3748   0.188   2.921   0.937 -0.0180  0.4346 -0.1832
  938SOL     OW 3749   1.891   4.092   0.266  0.4093  0.3179  0.2380
  938SOL    HW2 3750   1.836   4.016   0.288  1.3697 -0.6220 -0.5475
  938SOL    HW3 3751   1.980   4.059   0.273  0.7943  0.6996 -2.4733
  938SOL    MW4 3752   1.895   4.077   0.270  0.5868  0.2442 -0.2234
  939SOL     OW 3753   3.062   2.534   0.560  0.2133 -0.1286  0.4485
  939SOL    HW2 3754   3.056   2.600   0.491  0.6062  0.3611  0.8736
  939SOL    HW3 3755   3.002   2.465   0.533  0.2828  0.1080 -0.3257
  939SOL    MW4 3756   3.053   2.533   0.548  0.2743 -0.0327  0.4024
  940SOL     OW 3757   1.695   3.860   1.879  0.0530  0.0956 -0.2709
  940SOL    HW2 3758   1.726   3.901   1.798  0.1943 -0.0790 -0.3029
  940SOL    HW3 3759   1.739   3.909   1.949  0.2878 -0.0602 -0.3117
  940SOL    MW4 3760   1.705   3.872   1.878  0.1026  0.0520 -0.2805
  941SOL     OW 3761   3.491   1.931   1.976 -0.1395  0.2996 -0.2799
  941SOL    HW2 3762   3.496   1.835   1.978  0.9422  0.3573  2.1606
  941SOL    HW3 3763   3.446   1.951   1.894  0.3107 -2.2594 -1.2045
  941SOL    MW4 3764   3.486   1.921   1.966  0.0626 -0.0304 -0.0799
  942SOL     OW 3765   2.962   1.236   1.145  0.2153 -0.1507  0.2995
  942SOL    HW2 3766   2.914   1.270   1.069 -0.4169  0.2594  0.8769
  942SOL    HW3 3767   3.038   1.293   1.153 -0.8491  1.1481  1.2754
  942SOL    MW4 3768   2.965   1.248   1.136 -0.0085  0.0748  0.5045
  943SOL     OW 3769   2.721   2.730   0.593  0.4099 -0.3325  0.1925
  943SOL    HW2 3770   2.718   2.721   0.688  0.7756 -1.1066  0.1294
  943SOL    HW3 3771   2.714   2.641   0.560 -0.9259  0.0255 -0.5419
  943SOL    MW4 3772   2.720   2.717   0.601  0.2819 -0.3874  0.0873
  944SOL     OW 3773   2.209   3.948   1.581  0.1195  0.0120 -0.3383
  944SOL    HW2 3774   2.144   3.955   1.651 -0.7596 -0.8053 -1.0400
  944SOL    HW3 3775   2.214   3.854   1.562  0.7470  0.1671 -0.9923
  944SOL    MW4 3776   2.201   3.937   1.587  0.0863 -0.0754 -0.5172
  945SOL     OW 3777   1.047   3.838   0.350 -0.4270 -0.0828 -0.2335
  945SOL    HW2 3778   1.054   3.926   0.312  2.5077  1.0815  2.8421
  945SOL    HW3 3779   1.001   3.851   0.433  0.7913 -1.3235  0.6525
  945SOL    MW4 3780   1.042   3.851   0.356  0.1209 -0.0929  0.2892
  946SOL     OW 3781   1.848   4.500   0.628 -0.2317 -0.7212 -0.0053
  946SOL    HW2 3782   1.849   4.497   0.532 -0.3057 -0.2689 -0.0228
  946SOL    HW3 3783   1.780   4.437   0.653 -1.3237  0.3021 -0.3070
  946SOL    MW4 3784   1.839   4.491   0.619 -0.3856 -0.5265 -0.0474
  947SOL     OW 3785   0.562   2.134   0.835  0.2955 -0.0404 -0.4406
  947SOL    HW2 3786   0.646   2.174   0.855  0.5910 -1.2510  0.8266
  947SOL    HW3 3787   0.568   2.109   0.742  1.2987 -0.0308 -0.3768
  947SOL    MW4 3788   0.574   2.136   0.825  0.4669 -0.1988 -0.2650
  948SOL     OW 3789   0.943   1.019   1.060  0.6003 -0.4105 -0.0529
  948SOL    HW2 3790   1.037   1.034   1.066  0.5154 -0.1485  0.6158
  948SOL    HW3 3791   0.904   1.089   1.112  0.0609 -0.9342  0.2499
  948SOL    MW4 3792   0.950   1.030   1.068  0.5179 -0.4450  0.0753
  949SOL     OW 3793   0.169   0.411   0.940 -0.6822  0.3053 -0.0645
  949SOL    HW2 3794   0.197   0.475   1.005 -1.4259 -0.9769  1.5768
  949SOL    HW3 3795   0.211   0.438   0.858  1.2369  1.2701  1.2136
  949SOL    MW4 3796   0.178   0.423   0.938 -0.5271  0.2635  0.3207
  950SOL     OW 3797   3.881   0.304   0.683 -0.1216 -0.0842 -0.1520
  950SOL    HW2 3798   3.889   0.215   0.719 -0.1207 -0.4705 -1.1040
  950SOL    HW3 3799   3.950   0.354   0.727 -0.4619 -0.4196  0.7813
  950SOL    MW4 3800   3.891   0.299   0.694 -0.1664 -0.1794 -0.1545
  951SOL     OW 3801   2.708   3.518   0.608  0.4104 -0.3339  0.3175
  951SOL    HW2 3802   2.657   3.460   0.551  0.5415 -0.2948  0.1609
  951SOL    HW3 3803   2.701   3.478   0.695 -0.6245  0.1561  0.4660
  951SOL    MW4 3804   2.700   3.505   0.612  0.2911 -0.2641  0.3165
  952SOL     OW 3805   1.425   3.822   1.987  0.1375  0.6386 -0.1125
  952SOL    HW2 3806   1.399   3.789   1.901  1.4963 -2.1769  0.4962
  952SOL    HW3 3807   1.519   3.835   1.980  0.6153 -1.6940  1.5671
  952SOL    MW4 3808   1.434   3.820   1.974  0.3798 -0.0406  0.1894
  953SOL     OW 3809   2.635   2.423   1.279  0.2854  0.0941  0.0157
  953SOL    HW2 3810   2.584   2.468   1.212  0.7773 -1.7271 -1.6298
  953SOL    HW3 3811   2.574   2.359   1.316  0.9772 -1.2412 -1.1016
  953SOL    MW4 3812   2.620   2.421   1.275  0.4416 -0.3224 -0.3488
  954SOL     OW 3813   2.852   0.309   0.434 -0.0261 -0.7368 -0.2937
  954SOL    HW2 3814   2.866   0.370   0.361  0.1930 -0.8790 -0.3685
  954SOL    HW3 3815   2.859   0.364   0.512  0.1879 -0.6687 -0.3609
  954SOL    MW4 3816   2.854   0.324   0.435  0.0310 -0.7465 -0.3124
  955SOL     OW 3817   3.424   2.793   1.870  0.6078  0.2503 -0.3007
  955SOL    HW2 3818   3.415   2.885   1.845  1.5904  0.8214  1.3706
  955SOL    HW3 3819   3.404   2.791   1.963 -0.4461 -1.4236 -0.5350
  955SOL    MW4 3820   3.420   2.805   1.879  0.5984  0.1048 -0.1111
  956SOL     OW 3821   2.556   3.861   1.514 -0.1132  0.1393 -0.2968
  956SOL    HW2 3822   2.481   3.806   1.536  1.7082 -3.1469 -1.9388
  956SOL    HW3 3823   2.563   3.923   1.587 -1.9963 -2.0604  1.8102
  956SOL    MW4 3824   2.547   3.862   1.526 -0.1214 -0.5845 -0.2355
  957SOL     OW 3825   0.075   3.493   1.060  0.1407 -0.6159 -0.0532
  957SOL    HW2 3826   0.013   3.427   1.030 -0.5636 -0.2688  0.6325
  957SOL    HW3 3827   0.029   3.540   1.129  1.2798 -0.5526  0.6738
  957SOL    MW4 3828   0.061   3.490   1.065  0.1980 -0.5617  0.1332
  958SOL     OW 3829   0.933   3.609   1.491 -0.6889 -0.0875  0.0625
  958SOL    HW2 3830   0.921   3.675   1.423 -0.2920  1.5162  1.4768
  958SOL    HW3 3831   1.017   3.568   1.470 -0.8639 -0.0312 -0.7559
  958SOL    MW4 3832   0.943   3.613   1.480 -0.6596  0.1316  0.1411
  959SOL     OW 3833   1.231   1.624   1.413  0.5903 -0.2183  0.0361
  959SOL    HW2 3834   1.210   1.627   1.320 -0.7412  1.1066  0.3662
  959SOL    HW3 3835   1.327   1.617   1.416  0.6110 -0.6617 -1.4237
  959SOL    MW4 3836   1.241   1.623   1.401  0.4174 -0.1020 -0.1129
  960SOL     OW 3837   3.778   3.652   2.147  0.0677  0.5376 -0.0768
  960SOL    HW2 3838   3.745   3.573   2.189 -0.4115  1.1326  0.6845
  960SOL    HW3 3839   3.870   3.633   2.127  0.0585 -0.0652  0.4600
  960SOL    MW4 3840   3.786   3.639   2.150  0.0032  0.5366  0.0945
  961SOL     OW 3841   1.692   1.704   0.430  0.5609  0.0143  0.0091
  961SOL    HW2 3842   1.686   1.653   0.349 -0.5778  0.6143 -0.3079
  961SOL    HW3 3843   1.637   1.658   0.492  1.3819 -0.4079  0.4286
  961SOL    MW4 3844   1.684   1.691   0.427  0.5190  0.0377  0.0226
  962SOL     OW 3845   2.954   0.060   1.822 -0.2135  0.1535 -0.1328
  962SOL    HW2 3846   3.035   0.096   1.859  0.1598 -0.3121 -0.4876
  962SOL    HW3 3847   2.954  -0.032   1.849 -1.1683  0.4130  0.7780
  962SOL    MW4 3848   2.965   0.052   1.831 -0.2902  0.1263 -0.0594
  963SOL     OW 3849   0.409   0.119   2.224 -0.6401  0.1445  0.4242
  963SOL    HW2 3850   0.428   0.213   2.225 -0.9477  0.2154 -0.3293
  963SOL    HW3 3851   0.493   0.078   2.244 -0.5264  0.5826  0.8641
  963SOL    MW4 3852   0.422   0.126   2.227 -0.6657  0.2117  0.3828
  964SOL     OW 3853   3.451   2.071   0.917 -0.9456  0.2036 -0.0473
  964SOL    HW2 3854   3.402   2.150   0.897 -0.0747  0.8052  0.2069
  964SOL    HW3 3855   3.514   2.097   0.984 -0.0291 -0.4907 -0.6270
  964SOL    MW4 3856   3.453   2.085   0.923 -0.7098  0.1914 -0.0903
  965SOL     OW 3857   0.220   3.832   0.318 -0.0741  0.4605 -0.2792
  965SOL    HW2 3858   0.223   3.893   0.244 -0.1016  0.7980  0.0008
  965SOL    HW3 3859   0.158   3.872   0.379  0.9611  0.8308  0.5245
  965SOL    MW4 3860   0.212   3.845   0.316  0.0589  0.5539 -0.1362
  966SOL     OW 3861   3.795   3.705   0.339  0.4845 -0.1114 -0.3894
  966SOL    HW2 3862   3.871   3.763   0.330  0.5044 -0.0674  0.0713
  966SOL    HW3 3863   3.805   3.641   0.268  0.8996 -0.0491 -0.3873
  966SOL    MW4 3864   3.806   3.704   0.328  0.5419 -0.0973 -0.3283
  967SOL     OW 3865   0.581   2.088   0.558  0.2372  0.3648  0.3097
  967SOL    HW2 3866   0.648   2.032   0.519  1.2485  1.3963  0.5640
  967SOL    HW3 3867   0.586   2.170   0.510  0.1548  0.9545  1.2937
  967SOL    MW4 3868   0.591   2.091   0.547  0.3597  0.5787  0.4731
  968SOL     OW 3869   3.441   4.647   0.202 -0.3784 -0.4031  0.1901
  968SOL    HW2 3870   3.385   4.582   0.246 -1.8170  1.0241  0.5435
  968SOL    HW3 3871   3.425   4.728   0.251  1.3024  0.2428 -0.3134
  968SOL    MW4 3872   3.431   4.649   0.214 -0.3464 -0.1296  0.1703
  969SOL     OW 3873   0.352   2.763   1.833  0.6756 -0.3031  0.1165
  969SOL    HW2 3874   0.305   2.841   1.864  1.5001 -0.2324  1.2239
  969SOL    HW3 3875   0.283   2.697   1.822  0.0620  0.3836 -0.1695
  969SOL    MW4 3876   0.336   2.765   1.836  0.7034 -0.2032  0.2249
  970SOL     OW 3877   2.146   4.544   0.329  0.5113 -0.0439 -0.2943
  970SOL    HW2 3878   2.191   4.459   0.326  0.3234 -0.1790  0.5748
  970SOL    HW3 3879   2.204   4.601   0.378 -0.1112 -0.1275  0.5471
  970SOL    MW4 3880   2.160   4.540   0.335  0.4044 -0.0728 -0.0686
  971SOL     OW 3881   4.396   3.894   2.272  0.4216 -0.0030  0.8368
  971SOL    HW2 3882   4.382   3.989   2.264 -1.2245 -0.3763 -1.4160
  971SOL    HW3 3883   4.343   3.868   2.347 -1.0809  0.5483  0.0102
  971SOL    MW4 3884   4.387   3.903   2.281  0.0062  0.0205  0.4305
  972SOL     OW 3885   2.742   0.682   0.442 -0.1244 -0.2838  0.4485
  972SOL    HW2 3886   2.771   0.646   0.526  2.5452  0.6558  0.0032
  972SOL    HW3 3887   2.770   0.774   0.445  0.4246 -0.3635 -1.6471
  972SOL    MW4 3888   2.750   0.689   0.453  0.3003 -0.1704  0.1133
  973SOL     OW 3889   2.373   0.535   1.175 -0.3363  0.2434  0.6757
  973SOL    HW2 3890   2.390   0.603   1.240 -1.8901  0.8069  0.5163
  973SOL    HW3 3891   2.322   0.469   1.222  1.1272 -0.8184  0.8193
  973SOL    MW4 3892   2.369   0.535   1.190 -0.3482  0.1777  0.6736
  974SOL     OW 3893   2.741   0.035   0.809 -0.7388  0.2616  0.0710
  974SOL    HW2 3894   2.674  -0.030   0.831  1.8169 -2.2314  0.7892
  974SOL    HW3 3895   2.752   0.028   0.715  0.1912 -1.0549  0.2679
  974SOL    MW4 3896   2.734   0.026   0.800 -0.2789 -0.2410  0.1917
  975SOL     OW 3897   3.357   3.636   1.485 -0.5627  0.2648 -0.2349
  975SOL    HW2 3898   3.289   3.624   1.551 -1.1812 -1.1822 -1.1240
  975SOL    HW3 3899   3.436   3.600   1.525 -1.1490 -1.5050 -0.6490
  975SOL    MW4 3900   3.358   3.630   1.499 -0.7217 -0.1596 -0.4069
  976SOL     OW 3901   1.669   0.535   1.910 -0.0403 -0.3038 -0.5059
  976SOL    HW2 3902   1.666   0.448   1.871 -0.1395 -0.1451 -0.8506
  976SOL    HW3 3903   1.591   0.579   1.878 -0.5482 -0.4418  0.5150
  976SOL    MW4 3904   1.658   0.529   1.901 -0.1204 -0.3011 -0.4167
  977SOL     OW 3905   1.353   2.989   0.576 -0.2418 -0.0251  0.1744
  977SOL    HW2 3906   1.414   2.915   0.576  0.8235  0.8402 -0.0130
  977SOL    HW3 3907   1.391   3.051   0.514 -0.5690  1.1355  1.1231
  977SOL    MW4 3908   1.366   2.987   0.567 -0.1444  0.2422  0.2748
  978SOL     OW 3909   0.344   4.449   0.121 -0.0343  0.6116 -0.1675
  978SOL    HW2 3910   0.361   4.516   0.055 -0.4604  1.4435  0.5595
  978SOL    HW3 3911   0.253   4.462   0.146 -0.4855 -1.0388 -0.9100
  978SOL    MW4 3912   0.334   4.460   0.116 -0.1500  0.5037 -0.1695
  979SOL     OW 3913   1.255   0.272   1.406  0.0393  0.3931 -0.3276
  979SOL    HW2 3914   1.290   0.248   1.492  0.8534  1.6146 -0.3022
  979SOL    HW3 3915   1.329   0.265   1.346  0.3282  2.7488 -0.3142
  979SOL    MW4 3916   1.269   0.268   1.410  0.1848  0.8651 -0.3225
  980SOL     OW 3917   4.003   1.138   2.277  0.1015  0.1714 -0.0939
  980SOL    HW2 3918   4.071   1.204   2.265 -0.2681  0.5709 -0.0149
  980SOL    HW3 3919   4.005   1.118   2.370 -0.2774  0.6033  0.0056
  980SOL    MW4 3920   4.012   1.144   2.288  0.0027  0.2811 -0.0704
  981SOL     OW 3921   2.731   2.315   0.827  0.1870  0.1103 -0.0956
  981SOL    HW2 3922   2.800   2.250   0.812  1.1075  0.8711  0.7252
  981SOL    HW3 3923   2.728   2.366   0.746 -0.5209 -0.9256 -0.7309
  981SOL    MW4 3924   2.740   2.313   0.815  0.2150  0.0740 -0.0711
  982SOL     OW 3925   2.534   2.546   1.781 -0.4532  0.5383 -0.3315
  982SOL    HW2 3926   2.525   2.462   1.736 -2.1886 -1.3967  3.4453
  982SOL    HW3 3927   2.612   2.536   1.835 -0.7960  1.2509  0.3033
  982SOL    MW4 3928   2.543   2.534   1.782 -0.7274  0.3770  0.2505
  983SOL     OW 3929   4.307   1.105   1.080  0.2888 -0.1218 -0.0671
  983SOL    HW2 3930   4.250   1.156   1.138 -1.2629 -0.2383 -1.4359
  983SOL    HW3 3931   4.322   1.023   1.127 -0.7607 -0.1180  0.2888
  983SOL    MW4 3932   4.301   1.101   1.094 -0.0544 -0.1366 -0.2008
  984SOL     OW 3933   1.899   1.794   1.277 -0.6026 -0.1259 -0.2274
  984SOL    HW2 3934   1.892   1.738   1.199 -1.8046  0.8369 -0.8152
  984SOL    HW3 3935   1.960   1.863   1.251 -0.4252 -0.2237 -0.0680
  984SOL    MW4 3936   1.906   1.795   1.263 -0.7378 -0.0118 -0.2839
  985SOL     OW 3937   4.216   3.823   2.066  0.3107  0.2210 -0.0987
  985SOL    HW2 3938   4.153   3.873   2.117  1.5436  1.7900 -0.0870
  985SOL    HW3 3939   4.292   3.815   2.123  0.2645 -1.3982 -0.2248
  985SOL    MW4 3940   4.218   3.828   2.080  0.4673  0.2144 -0.1138
  986SOL     OW 3941   2.809   2.062   1.234 -0.3320  0.0673 -0.1218
  986SOL    HW2 3942   2.856   2.061   1.318  0.5526 -1.8217 -0.6076
  986SOL    HW3 3943   2.875   2.091   1.170 -0.1622 -1.3570 -0.6074
  986SOL    MW4 3944   2.824   2.066   1.237 -0.1929 -0.3699 -0.2500
  987SOL     OW 3945   4.479   1.147   1.437 -0.0017 -0.0048 -0.2669
  987SOL    HW2 3946   4.409   1.082   1.434 -0.6465  0.7087 -0.5755
  987SOL    HW3 3947   4.435   1.231   1.428  0.7009  0.5592  1.3852
  987SOL    MW4 3948   4.464   1.149   1.436  0.0059  0.1637 -0.0896
  988SOL     OW 3949   4.252   0.830   2.020  0.0853 -0.1453  0.2494
  988SOL    HW2 3950   4.236   0.814   1.927  0.3909 -0.8121  0.3034
  988SOL    HW3 3951   4.174   0.874   2.052  0.3382  0.8807 -0.5202
  988SOL    MW4 3952   4.240   0.834   2.012  0.1590 -0.0979  0.1550
  989SOL     OW 3953   0.523   3.808   1.788 -0.4292  0.1429  0.1916
  989SOL    HW2 3954   0.450   3.847   1.836  0.3691  1.7844  0.0746
  989SOL    HW3 3955   0.488   3.791   1.700 -0.2608  2.2621 -0.3030
  989SOL    MW4 3956   0.509   3.811   1.783 -0.3016  0.6391  0.1109
  990SOL     OW 3957   3.315   2.385   0.586 -0.0731  0.2057  0.5938
  990SOL    HW2 3958   3.315   2.319   0.517  2.5530  0.2807  0.4768
  990SOL    HW3 3959   3.235   2.436   0.570 -0.2764 -0.7052 -1.4930
  990SOL    MW4 3960   3.304   2.383   0.575  0.2466  0.0954  0.3031
  991SOL     OW 3961   4.258   3.600   0.964 -0.0551  0.1841  0.0009
  991SOL    HW2 3962   4.219   3.556   0.889  2.1958 -2.6269  0.4041
  991SOL    HW3 3963   4.338   3.640   0.930  0.8540 -0.9020  0.8473
  991SOL    MW4 3964   4.263   3.600   0.950  0.3618 -0.3301  0.1657
  992SOL     OW 3965   4.167   2.124   1.901  0.3993 -0.1982  0.2526
  992SOL    HW2 3966   4.081   2.103   1.865  0.2838  1.1446 -0.2762
  992SOL    HW3 3967   4.224   2.053   1.870  0.2873  0.8722 -2.5073
  992SOL    MW4 3968   4.163   2.112   1.892  0.3693  0.1202 -0.1813
  993SOL     OW 3969   2.506   0.649   1.977 -0.2116  0.6207 -0.0779
  993SOL    HW2 3970   2.569   0.577   1.966 -0.5017  0.3742 -0.1622
  993SOL    HW3 3971   2.559   0.726   1.992  0.0912  0.2734  0.6448
  993SOL    MW4 3972   2.521   0.649   1.978 -0.2099  0.5424  0.0063
  994SOL     OW 3973   0.690   1.516   1.711  0.3741  0.2040  0.1276
  994SOL    HW2 3974   0.643   1.518   1.627  0.3835  0.7894  0.1314
  994SOL    HW3 3975   0.621   1.517   1.777  0.3345 -1.4329  0.1330
  994SOL    MW4 3976   0.674   1.517   1.708  0.3701  0.0653  0.1288
  995SOL     OW 3977   1.507   0.471   0.579  0.1896  0.3378  0.3282
  995SOL    HW2 3978   1.423   0.511   0.600 -0.1367  0.3477 -0.9697
  995SOL    HW3 3979   1.571   0.543   0.586 -0.2582  0.8908 -1.0409
  995SOL    MW4 3980   1.505   0.486   0.582  0.0875  0.4120 -0.0237
  996SOL     OW 3981   4.337   1.515   1.831 -0.2173  0.1354  0.0280
  996SOL    HW2 3982   4.294   1.453   1.890 -1.1211 -0.7926 -1.5788
  996SOL    HW3 3983   4.417   1.470   1.803  0.8413  1.0691  1.4679
  996SOL    MW4 3984   4.342   1.501   1.835 -0.1968  0.1362  0.0060
  997SOL     OW 3985   0.979   4.608   1.039  0.1946  0.0904  0.4249
  997SOL    HW2 3986   1.012   4.686   1.081  3.2573 -0.0499 -1.5599
  997SOL    HW3 3987   0.945   4.638   0.955 -0.8252 -0.3956  0.6492
  997SOL    MW4 3988   0.979   4.622   1.033  0.4642  0.0078  0.1926
  998SOL     OW 3989   0.787   4.191   0.919 -0.2515 -0.0341 -0.1265
  998SOL    HW2 3990   0.768   4.269   0.972 -1.5280 -0.2285 -0.2689
  998SOL    HW3 3991   0.850   4.142   0.971 -1.0057  0.0886  0.9350
  998SOL    MW4 3992   0.793   4.195   0.933 -0.5194 -0.0436 -0.0052
  999SOL     OW 3993   0.963   3.780   0.869 -0.0833  0.2167  0.4260
  999SOL    HW2 3994   0.972   3.821   0.782  0.9206  1.4517  1.0801
  999SOL    HW3 3995   0.896   3.713   0.858 -0.0372  0.4325 -1.2844
  999SOL    MW4 3996   0.955   3.777   0.856  0.0552  0.4081  0.2866
 1000SOL     OW 3997   4.347   2.075   1.381  0.2796  0.2904 -0.3544
 1000SOL    HW2 3998   4.349   2.138   1.453  0.2002 -0.4272  0.2724
 1000SOL    HW3 3999   4.259   2.036   1.385 -0.0723  0.9510 -1.4430
 1000SOL    MW4 4000   4.336   2.078   1.391  0.2227  0.2829 -0.4153
 1001SOL     OW 4001   2.195   2.248   1.234  0.0245  0.1763 -0.1937
 1001SOL    HW2 4002   2.215   2.256   1.141 -0.4474  0.7493 -0.2439
 1001SOL    HW3 4003   2.157   2.332   1.258  0.3459  0.1089  0.5671
 1001SOL    MW4 4004   2.193   2.260   1.225  0.0047  0.2430 -0.0999
 1002SOL     OW 4005   3.875   2.792   2.276 -0.1982  0.1865 -0.1189
 1002SOL    HW2 4006   3.872   2.780   2.181 -0.0781  0.5744 -0.1726
 1002SOL    HW3 4007   3.959   2.754   2.302 -0.5826 -0.6320 -0.0625
 1002SOL    MW4 4008   3.886   2.786   2.267 -0.2330  0.1297 -0.1186
 1003SOL     OW 4009   1.197   1.065   1.433  0.2439  0.1708 -0.4492
 1003SOL    HW2 4010   1.126   1.094   1.490  0.8943  3.4048 -1.2155
 1003SOL    HW3 4011   1.274   1.113   1.463  1.2650 -0.3620 -2.1138
 1003SOL    MW4 4012   1.198   1.075   1.445  0.4644  0.5272 -0.7699
 1004SOL     OW 4013   1.229   3.838   1.295 -0.1869 -0.1267 -0.9827
 1004SOL    HW2 4014   1.145   3.884   1.293  0.3567  0.8405 -1.6045
 1004SOL    HW3 4015   1.204   3.745   1.295 -1.2806  0.1488  0.3718
 1004SOL    MW4 4016   1.214   3.832   1.295 -0.2595  0.0373 -0.8860
 1005SOL     OW 4017   4.151   0.302   1.758 -0.3749 -0.9654  0.4070
 1005SOL    HW2 4018   4.076   0.257   1.798 -0.4014  0.1648  1.6521
 1005SOL    HW3 4019   4.224   0.284   1.818 -0.3883  0.6345  0.9291
 1005SOL    MW4 4020   4.151   0.293   1.772 -0.3802 -0.6052  0.6402
 1006SOL     OW 4021   1.006   2.565   0.582 -0.1946 -0.0074  0.2048
 1006SOL    HW2 4022   1.022   2.539   0.491 -1.1658  0.4162 -0.0920
 1006SOL    HW3 4023   1.028   2.658   0.584  1.4092 -0.3753  0.8076
 1006SOL    MW4 4024   1.011   2.574   0.570 -0.1112 -0.0001  0.2452
 1007SOL     OW 4025   3.259   0.696   0.746  0.4110  0.5998  0.1273
 1007SOL    HW2 4026   3.197   0.740   0.689 -0.2331  0.3965  0.6595
 1007SOL    HW3 4027   3.345   0.728   0.719  0.1426  0.2196 -1.1961
 1007SOL    MW4 4028   3.262   0.706   0.735  0.2906  0.5228  0.0229
 1008SOL     OW 4029   0.398   2.508   0.891 -0.2225 -0.6224  0.1455
 1008SOL    HW2 4030   0.479   2.534   0.846 -0.2761  1.2409  1.1055
 1008SOL    HW3 4031   0.344   2.469   0.822  0.1301  1.2270 -1.2121
 1008SOL    MW4 4032   0.402   2.506   0.876 -0.1830 -0.1325  0.0931
 1009SOL     OW 4033   2.747   0.889   1.637  0.2370  0.2064 -0.2131
 1009SOL    HW2 4034   2.670   0.938   1.666 -0.8498 -1.7308  0.3020
 1009SOL    HW3 4035   2.788   0.859   1.718 -0.8364 -2.2564 -0.5236
 1009SOL    MW4 4036   2.742   0.891   1.651 -0.0480 -0.3741 -0.1861
 1010SOL     OW 4037   1.307   1.124   1.768 -0.1226 -0.0148 -0.3158
 1010SOL    HW2 4038   1.327   1.185   1.698 -0.5855  1.9147  1.1799
 1010SOL    HW3 4039   1.213   1.133   1.782 -0.1867 -1.0439 -0.0562
 1010SOL    MW4 4040   1.298   1.133   1.761 -0.1921  0.1040 -0.0842
 1011SOL     OW 4041   0.522   3.185   1.650 -0.0830  0.0621  0.2498
 1011SOL    HW2 4042   0.564   3.119   1.595  0.0258 -0.4571  0.9494
 1011SOL    HW3 4043   0.591   3.249   1.667 -0.4060  0.7962 -1.0985
 1011SOL    MW4 4044   0.536   3.185   1.645 -0.1112  0.0904  0.1642
 1012SOL     OW 4045   4.131   3.470   0.727  0.4629 -0.0452  0.2132
 1012SOL    HW2 4046   4.200   3.490   0.664 -0.3184 -0.5947 -0.8369
 1012SOL    HW3 4047   4.062   3.532   0.708  0.4667  0.1921  0.9499
 1012SOL    MW4 4048   4.131   3.481   0.717  0.3603 -0.0864  0.1718
 1013SOL     OW 4049   1.750   1.312   1.363 -0.2105  0.5286  0.2833
 1013SOL    HW2 4050   1.833   1.355   1.342  0.1895  0.0068  0.7572
 1013SOL    HW3 4051   1.759   1.224   1.328 -0.0860  0.0935  1.3705
 1013SOL    MW4 4052   1.762   1.306   1.356 -0.1413  0.4023  0.4892
 1014SOL     OW 4053   2.848   2.303   1.591  0.4881  0.2555  0.0083
 1014SOL    HW2 4054   2.874   2.375   1.533  0.8640  0.9201  0.9761
 1014SOL    HW3 4055   2.752   2.309   1.595  0.5866  1.4259  0.9704
 1014SOL    MW4 4056   2.838   2.313   1.584  0.5507  0.4976  0.2629
 1015SOL     OW 4057   2.056   1.164   0.407  0.2047 -0.5333  0.0352
 1015SOL    HW2 4058   2.053   1.074   0.440  0.0443 -0.7801 -0.6546
 1015SOL    HW3 4059   2.149   1.187   0.410  0.0332 -0.0412  2.0382
 1015SOL    MW4 4060   2.068   1.155   0.412  0.1609 -0.5009  0.2085
 1016SOL     OW 4061   1.162   4.470   0.904  0.0814 -0.4360 -0.3596
 1016SOL    HW2 4062   1.097   4.513   0.959  1.1395  0.6075  0.0923
 1016SOL    HW3 4063   1.179   4.386   0.947  0.5763  0.1850  0.6587
 1016SOL    MW4 4064   1.156   4.464   0.917  0.2863 -0.2164 -0.1656
 1017SOL     OW 4065   3.910   1.861   1.052  0.0322  0.1214  0.0578
 1017SOL    HW2 4066   3.838   1.801   1.071 -1.0746  0.7236 -2.1150
 1017SOL    HW3 4067   3.988   1.817   1.087 -1.1578 -1.2370  1.0590
 1017SOL    MW4 4068   3.911   1.847   1.059 -0.2708  0.0216 -0.0968
 1018SOL     OW 4069   2.570   3.467   1.822  0.4504  0.2784 -0.3711
 1018SOL    HW2 4070   2.505   3.519   1.870  0.3244  1.1438 -1.4569
 1018SOL    HW3 4071   2.654   3.502   1.852  0.3621  1.9974 -1.9924
 1018SOL    MW4 4072   2.573   3.479   1.832  0.4221  0.6194 -0.7283
 1019SOL     OW 4073   1.761   3.884   0.388 -0.0707  0.2507  0.1423
 1019SOL    HW2 4074   1.671   3.900   0.358  0.4127  1.8833 -0.4895
 1019SOL    HW3 4075   1.772   3.789   0.381 -1.8096  0.0109  0.4040
 1019SOL    MW4 4076   1.750   3.874   0.383 -0.2363  0.4345  0.0934
 1020SOL     OW 4077   4.407   1.881   0.715 -0.1575  0.7235 -0.2643
 1020SOL    HW2 4078   4.463   1.818   0.669 -0.0777  1.4656 -1.1740
 1020SOL    HW3 4079   4.320   1.841   0.714  0.0905  0.1693  0.0288
 1020SOL    MW4 4080   4.403   1.867   0.709 -0.1143  0.7483 -0.3457
 1021SOL     OW 4081   3.268   1.189   1.899  0.1901  0.2861  0.0801
 1021SOL    HW2 4082   3.192   1.247   1.899  0.1567  0.3500 -3.2781
 1021SOL    HW3 4083   3.232   1.102   1.915 -0.4476  0.4927 -0.2169
 1021SOL    MW4 4084   3.254   1.185   1.901  0.1016  0.3218 -0.4022
 1022SOL     OW 4085   2.299   3.308   1.417 -0.5334  0.3405 -0.3258
 1022SOL    HW2 4086   2.297   3.248   1.342  0.0341  0.4587 -0.4353
 1022SOL    HW3 4087   2.351   3.262   1.483 -1.1963  0.1533  0.0682
 1022SOL    MW4 4088   2.305   3.294   1.415 -0.5460  0.3314 -0.2883
 1023SOL     OW 4089   3.485   3.176   0.936  0.1244  0.2132 -0.0377
 1023SOL    HW2 4090   3.448   3.236   1.001  0.2272  0.8730 -0.5849
 1023SOL    HW3 4091   3.462   3.089   0.968 -0.1401  0.5483  0.6933
 1023SOL    MW4 4092   3.477   3.172   0.949  0.1031  0.3445 -0.0134
 1024SOL     OW 4093   2.851   0.496   0.636 -0.0430  0.0215  0.4266
 1024SOL    HW2 4094   2.800   0.433   0.687  0.7991 -0.9655  0.0654
 1024SOL    HW3 4095   2.932   0.507   0.687  0.2978 -0.0570 -0.1030
 1024SOL    MW4 4096   2.855   0.489   0.650  0.1130 -0.1191  0.3090
 1025SOL     OW 4097   1.270   2.764   1.216 -0.1469  0.1451 -0.0769
 1025SOL    HW2 4098   1.306   2.777   1.304  0.0820  0.7662 -0.2515
 1025SOL    HW3 4099   1.304   2.679   1.188 -0.9490 -0.4583  0.7799
 1025SOL    MW4 4100   1.279   2.755   1.224 -0.2226  0.1474  0.0131
 1026SOL     OW 4101   2.927   0.614   1.289 -0.2818  0.4976 -0.1431
 1026SOL    HW2 4102   3.006   0.664   1.273  0.4378 -0.5556  0.0738
 1026SOL    HW3 4103   2.954   0.545   1.350 -1.1697 -0.3729 -0.7201
 1026SOL    MW4 4104   2.941   0.612   1.295 -0.3040  0.2438 -0.1906
 1027SOL     OW 4105   0.308   3.018   1.370  0.1090 -0.1955  0.0551
 1027SOL    HW2 4106   0.297   3.053   1.459 -0.4952 -1.8083  0.6348
 1027SOL    HW3 4107   0.367   2.944   1.381 -1.2939 -1.4310 -0.6248
 1027SOL    MW4 4108   0.314   3.013   1.383 -0.1558 -0.5713  0.0419
 1028SOL     OW 4109   3.399   0.079   0.495  0.1777 -0.5718 -0.3856
 1028SOL    HW2 4110   3.492   0.074   0.518 -0.4035 -0.9900  1.9374
 1028SOL    HW3 4111   3.380   0.172   0.490  0.8469 -0.4814 -1.4658
 1028SOL    MW4 4112   3.409   0.090   0.497  0.1893 -0.6151 -0.2216
 1029SOL     OW 4113   2.888   1.669   1.553  0.6593 -0.3764  0.0611
 1029SOL    HW2 4114   2.822   1.601   1.545  0.0051  0.3157 -0.5109
 1029SOL    HW3 4115   2.946   1.656   1.478  0.0938  0.1588 -0.4750
 1029SOL    MW4 4116   2.887   1.658   1.542  0.4984 -0.2145 -0.0851
 1030SOL     OW 4117   0.984   3.143   1.689 -0.2722  0.4513  0.2637
 1030SOL    HW2 4118   1.043   3.202   1.643  1.1410 -0.7792  0.4603
 1030SOL    HW3 4119   0.967   3.186   1.773 -0.8518  1.5002 -0.3768
 1030SOL    MW4 4120   0.989   3.156   1.694 -0.1622  0.4274  0.2051
 1031SOL     OW 4121   4.136   1.254   1.245 -0.4254  0.2645 -0.0504
 1031SOL    HW2 4122   4.210   1.280   1.300 -0.0876 -0.0895 -0.3327
 1031SOL    HW3 4123   4.118   1.330   1.190 -0.6615  0.5652  0.4362
 1031SOL    MW4 4124   4.143   1.267   1.245 -0.4120  0.2575 -0.0235
 1032SOL     OW 4125   3.477   0.959   1.360  0.2302 -0.2393  0.1796
 1032SOL    HW2 4126   3.456   1.018   1.288  0.7364  1.3428  1.3010
 1032SOL    HW3 4127   3.396   0.954   1.411  0.3396 -0.1394  0.3598
 1032SOL    MW4 4128   3.463   0.966   1.357  0.3114 -0.0174  0.3513
 1033SOL     OW 4129   0.605   4.498   1.611  0.0988  0.1936 -0.0078
 1033SOL    HW2 4130   0.659   4.419   1.620  0.0135  0.2617  1.2670
 1033SOL    HW3 4131   0.521   4.465   1.579  0.2214 -0.1729  0.0364
 1033SOL    MW4 4132   0.601   4.483   1.608  0.1038  0.1542  0.1663
 1034SOL     OW 4133   3.266   3.914   1.478  0.5912 -0.1803  0.0787
 1034SOL    HW2 4134   3.300   3.825   1.486 -0.5525 -0.5055  1.3406
 1034SOL    HW3 4135   3.183   3.904   1.432 -0.0236  0.1290  1.1213
 1034SOL    MW4 4136   3.260   3.901   1.473  0.3592 -0.1824  0.3827
 1035SOL     OW 4137   1.873   1.670   2.125 -0.2409 -0.0785 -0.0182
 1035SOL    HW2 4138   1.800   1.620   2.089 -0.0912  0.5160 -1.1491
 1035SOL    HW3 4139   1.934   1.679   2.052  0.6734 -0.0159  0.7448
 1035SOL    MW4 4140   1.872   1.664   2.111 -0.1005  0.0082 -0.0667
 1036SOL     OW 4141   3.414   2.284   1.788  0.2219  0.1409  0.7077
 1036SOL    HW2 4142   3.481   2.340   1.828 -0.2016  1.7424 -0.7560
 1036SOL    HW3 4143   3.331   2.318   1.821 -0.0793  0.8873 -0.7919
 1036SOL    MW4 4144   3.412   2.296   1.798  0.1263  0.4507  0.3168
 1037SOL     OW 4145   3.361   3.065   2.286 -0.1780 -0.5042 -0.5438
 1037SOL    HW2 4146   3.282   3.105   2.251  0.3755  1.5141  0.4469
 1037SOL    HW3 4147   3.357   3.082   2.380  1.9503  0.5726 -0.6258
 1037SOL    MW4 4148   3.350   3.073   2.294  0.1758 -0.0958 -0.4239
 1038SOL     OW 4149   4.136   0.273   1.055 -1.1368 -0.2248 -0.0320
 1038SOL    HW2 4150   4.213   0.218   1.068 -0.9294  0.1570  0.3261
 1038SOL    HW3 4151   4.063   0.210   1.054 -0.7686 -0.6604 -1.0658
 1038SOL    MW4 4152   4.136   0.257   1.057 -1.0608 -0.2319 -0.1212
 1039SOL     OW 4153   3.037   2.674   0.336 -0.0780 -0.3251 -0.1992
 1039SOL    HW2 4154   3.109   2.676   0.273 -0.2219 -1.1891 -0.3968
 1039SOL    HW3 4155   3.038   2.761   0.376  0.4436  0.0043 -0.9105
 1039SOL    MW4 4156   3.046   2.686   0.333 -0.0282 -0.3957 -0.3191
 1040SOL     OW 4157   2.249   4.619   1.555 -0.7564 -0.1154 -0.2425
 1040SOL    HW2 4158   2.234   4.596   1.647 -1.1110 -0.4672 -0.3867
 1040SOL    HW3 4159   2.218   4.710   1.549 -0.2182  0.0947  0.1105
 1040SOL    MW4 4160   2.243   4.628   1.567 -0.7322 -0.1341 -0.2150
 1041SOL     OW 4161   3.870   0.191   1.030  0.3686 -0.1728  0.1669
 1041SOL    HW2 4162   3.802   0.146   0.979  0.2573 -1.5297  1.4737
 1041SOL    HW3 4163   3.847   0.283   1.024  0.6003 -0.2582 -2.5647
 1041SOL    MW4 4164   3.858   0.197   1.022  0.3844 -0.3631 -0.0211
 1042SOL     OW 4165   2.658   0.922   1.171 -0.4479 -0.0728  0.1439
 1042SOL    HW2 4166   2.633   0.999   1.222  2.0254  0.5710  0.4656
 1042SOL    HW3 4167   2.666   0.852   1.236 -1.2773 -0.2628  0.0497
 1042SOL    MW4 4168   2.656   0.923   1.186 -0.2310 -0.0129  0.1739
 1043SOL     OW 4169   0.153   2.724   1.514 -0.1232  0.1682  0.3724
 1043SOL    HW2 4170   0.116   2.772   1.440 -1.2067  2.0973  2.1012
 1043SOL    HW3 4171   0.247   2.743   1.510 -0.2137  0.4733 -0.3540
 1043SOL    MW4 4172   0.161   2.733   1.503 -0.2781  0.4630  0.5047
 1044SOL     OW 4173   3.895   1.431   0.635  0.6056 -0.0006 -0.2369
 1044SOL    HW2 4174   3.803   1.451   0.619  0.2655  0.1087  1.6647
 1044SOL    HW3 4175   3.896   1.339   0.662  1.0578 -0.0240 -0.3238
 1044SOL    MW4 4176   3.883   1.422   0.636  0.6204  0.0108  0.0025
 1045SOL     OW 4177   4.139   3.210   1.732 -0.0296  0.1562 -0.0306
 1045SOL    HW2 4178   4.045   3.226   1.718 -0.2402 -0.8218  0.1659
 1045SOL    HW3 4179   4.141   3.150   1.807  0.7103 -0.4487 -0.5243
 1045SOL    MW4 4180   4.127   3.204   1.740  0.0402 -0.0527 -0.0698
 1046SOL     OW 4181   1.366   3.191   2.116 -0.2485  0.0231  0.1808
 1046SOL    HW2 4182   1.453   3.168   2.151 -0.2647 -1.4183 -0.6721
 1046SOL    HW3 4183   1.305   3.139   2.169 -0.5387  0.5317  0.3417
 1046SOL    MW4 4184   1.370   3.181   2.128 -0.2889 -0.1000  0.0895
 1047SOL     OW 4185   2.817   1.304   0.922 -0.1466 -0.5891  0.0591
 1047SOL    HW2 4186   2.725   1.282   0.910 -1.3538  3.2776  1.6409
 1047SOL    HW3 4187   2.829   1.387   0.875  1.6914  0.6099  2.4929
 1047SOL    MW4 4188   2.807   1.312   0.914 -0.0633  0.0792  0.5889
 1048SOL     OW 4189   3.118   0.555   0.388 -0.0853  0.1221 -0.4529
 1048SOL    HW2 4190   3.087   0.621   0.450 -0.1835  0.5548 -0.9735
 1048SOL    HW3 4191   3.043   0.537   0.332  0.5058  0.9369 -1.5103
 1048SOL    MW4 4192   3.104   0.561   0.389 -0.0203  0.2867 -0.6611
 1049SOL     OW 4193   3.249   4.633   0.704 -0.7042  0.1526 -0.1632
 1049SOL    HW2 4194   3.296   4.680   0.635 -0.8831 -0.5088 -0.7458
 1049SOL    HW3 4195   3.316   4.576   0.742 -0.6832  0.2839 -0.0051
 1049SOL    MW4 4196   3.264   4.632   0.700 -0.7250  0.0827 -0.2192
 1050SOL     OW 4197   3.691   2.896   0.693  0.6201  0.6008  0.1466
 1050SOL    HW2 4198   3.714   2.986   0.716  2.2626  0.0417  0.8250
 1050SOL    HW3 4199   3.677   2.852   0.777  0.3206  0.0972 -0.1584
 1050SOL    MW4 4200   3.692   2.902   0.707  0.7973  0.4606  0.1958
 1051SOL     OW 4201   3.572   2.538   1.009  0.0656 -0.6687  0.0037
 1051SOL    HW2 4202   3.614   2.497   0.934 -0.0939 -1.2344  0.2213
 1051SOL    HW3 4203   3.603   2.489   1.085  0.3632  0.0109  0.3297
 1051SOL    MW4 4204   3.582   2.526   1.009  0.0838 -0.6537  0.0754
 1052SOL     OW 4205   1.261   2.161   0.565  0.4977  0.2610 -0.5247
 1052SOL    HW2 4206   1.295   2.230   0.508 -1.0944  0.5678 -1.1388
 1052SOL    HW3 4207   1.224   2.208   0.640 -1.4223  0.1593 -1.3815
 1052SOL    MW4 4208   1.261   2.176   0.568  0.0343  0.2881 -0.7187
 1053SOL     OW 4209   0.799   1.625   1.051 -0.0067  0.5535  0.2220
 1053SOL    HW2 4210   0.779   1.686   0.979  0.5334  1.8859  1.1876
 1053SOL    HW3 4211   0.835   1.549   1.007  0.9813  1.6420 -0.9009
 1053SOL    MW4 4212   0.801   1.623   1.035  0.1950  0.8729  0.2012
 1054SOL     OW 4213   1.114   1.437   1.653  0.4815 -0.1030  0.2250
 1054SOL    HW2 4214   1.136   1.517   1.700 -1.8796  0.6314  0.1638
 1054SOL    HW3 4215   1.072   1.381   1.718 -1.7367  0.4466 -0.6838
 1054SOL    MW4 4216   1.111   1.440   1.668 -0.1227  0.0664  0.0970
 1055SOL     OW 4217   1.445   3.480   1.436 -0.5366  0.2936 -0.0325
 1055SOL    HW2 4218   1.507   3.500   1.366 -1.8103 -0.8646 -1.5284
 1055SOL    HW3 4219   1.469   3.539   1.508  0.6775  1.6189 -1.5077
 1055SOL    MW4 4220   1.456   3.491   1.437 -0.5445  0.3157 -0.4245
 1056SOL     OW 4221   3.981   3.165   1.209 -0.0705  0.4052 -0.0400
 1056SOL    HW2 4222   3.928   3.244   1.201 -0.0955  0.5202  1.0927
 1056SOL    HW3 4223   3.996   3.156   1.304 -0.6745 -1.3385 -0.0989
 1056SOL    MW4 4224   3.976   3.174   1.221 -0.1535  0.1903  0.1017
 1057SOL     OW 4225   1.092   0.784   0.702  0.2043 -0.1145 -0.1270
 1057SOL    HW2 4226   1.019   0.807   0.760 -0.5582 -0.9211 -0.7587
 1057SOL    HW3 4227   1.050   0.743   0.627  1.4019 -1.5452 -0.0144
 1057SOL    MW4 4228   1.077   0.782   0.700  0.2617 -0.4097 -0.1955
 1058SOL     OW 4229   0.406   3.739   1.546 -0.3391  0.1670 -0.0141
 1058SOL    HW2 4230   0.350   3.665   1.570 -1.1288  0.7225 -0.1172
 1058SOL    HW3 4231   0.448   3.712   1.464  0.4517 -0.7258  0.6730
 1058SOL    MW4 4232   0.404   3.726   1.538 -0.3389  0.1225  0.0629
 1059SOL     OW 4233   1.637   1.314   2.239  0.2027  0.0418  0.2240
 1059SOL    HW2 4234   1.616   1.406   2.256 -1.5731 -0.3553  0.2786
 1059SOL    HW3 4235   1.613   1.300   2.148 -0.0855 -0.5228  0.3840
 1059SOL    MW4 4236   1.631   1.324   2.229 -0.0696 -0.0851  0.2523
 1060SOL     OW 4237   0.172   0.824   1.209  0.2990 -0.2037 -0.0369
 1060SOL    HW2 4238   0.193   0.906   1.165  0.0401 -0.1020  0.0284
 1060SOL    HW3 4239   0.193   0.840   1.301 -1.4554  0.3993  0.2846
 1060SOL    MW4 4240   0.177   0.837   1.216  0.0334 -0.1107  0.0141
 1061SOL     OW 4241   3.048   0.417   0.989  0.0851 -0.0115 -0.0592
 1061SOL    HW2 4242   3.060   0.389   0.898  1.8191  1.2057 -0.2313
 1061SOL    HW3 4243   2.973   0.476   0.986  0.7430  0.7979 -0.8831
 1061SOL    MW4 4244   3.040   0.421   0.976  0.4007  0.2559 -0.1906
 1062SOL     OW 4245   1.295   3.700   0.374 -0.5571 -0.1406 -0.0920
 1062SOL    HW2 4246   1.295   3.688   0.469  1.3201 -1.3722 -0.2228
 1062SOL    HW3 4247   1.218   3.755   0.357  1.4156  3.6527  2.5662
 1062SOL    MW4 4248   1.285   3.705   0.385 -0.0491  0.1973  0.2414
 1063SOL     OW 4249   3.082   0.784   0.547 -0.6429  0.3889  0.3703
 1063SOL    HW2 4250   3.007   0.840   0.569  0.7956  2.3158  0.5122
 1063SOL    HW3 4251   3.143   0.843   0.503  0.7335 -1.1908  0.1333
 1063SOL    MW4 4252   3.080   0.799   0.544 -0.2715  0.4347  0.3577
 1064SOL     OW 4253   2.200   3.050   0.584 -0.4565 -0.6541 -0.8385
 1064SOL    HW2 4254   2.142   3.005   0.523 -0.1313 -0.8840 -0.9789
 1064SOL    HW3 4255   2.283   3.004   0.577 -0.6586 -1.2283  0.4076
 1064SOL    MW4 4256   2.204   3.038   0.575 -0.4403 -0.7602 -0.6926
 1065SOL     OW 4257   3.826   2.460   1.628 -0.0775  0.3922  0.0882
 1065SOL    HW2 4258   3.786   2.375   1.609  0.1805 -0.2506  2.3014
 1065SOL    HW3 4259   3.755   2.511   1.666 -0.4130  1.4490 -1.8627
 1065SOL    MW4 4260   3.811   2.455   1.630 -0.0877  0.4468  0.1228
 1066SOL     OW 4261   4.149   2.492   1.137  0.0685 -0.0198 -0.3991
 1066SOL    HW2 4262   4.157   2.410   1.088 -0.5464 -0.8101  0.8308
 1066SOL    HW3 4263   4.117   2.466   1.223  2.0351  1.2689  0.7558
 1066SOL    MW4 4264   4.146   2.478   1.142  0.2469  0.0460 -0.0844
 1067SOL     OW 4265   3.804   0.749   0.622 -0.6827  0.2334 -0.3601
 1067SOL    HW2 4266   3.898   0.756   0.609 -0.6092 -0.3163 -0.1010
 1067SOL    HW3 4267   3.793   0.680   0.687 -1.2593  0.3478 -0.3334
 1067SOL    MW4 4268   3.815   0.741   0.629 -0.7491  0.1759 -0.3224
 1068SOL     OW 4269   4.342   2.622   1.297  0.3544  0.1165 -0.4265
 1068SOL    HW2 4270   4.427   2.578   1.290  0.8784  1.0847 -0.1988
 1068SOL    HW3 4271   4.287   2.579   1.232  0.6919 -1.2677  0.1929
 1068SOL    MW4 4272   4.346   2.610   1.287  0.4680  0.0616 -0.3148
 1069SOL     OW 4273   0.903   1.415   0.927 -0.6284  0.5134  0.3254
 1069SOL    HW2 4274   0.853   1.349   0.975 -0.3191  0.4179  0.5177
 1069SOL    HW3 4275   0.954   1.365   0.863 -0.7499  0.6064  0.1580
 1069SOL    MW4 4276   0.903   1.400   0.925 -0.6036  0.5130  0.3287
 1070SOL     OW 4277   3.745   3.606   1.304  0.0556  0.4694  0.2999
 1070SOL    HW2 4278   3.703   3.690   1.284  0.2177  0.6012  0.5109
 1070SOL    HW3 4279   3.709   3.581   1.389 -1.4116 -0.5910 -0.6166
 1070SOL    MW4 4280   3.735   3.614   1.313 -0.1166  0.3469  0.2068
 1071SOL     OW 4281   0.791   2.297   1.337 -0.1557 -0.1378  0.8868
 1071SOL    HW2 4282   0.759   2.231   1.399 -1.4444 -0.6210 -0.2796
 1071SOL    HW3 4283   0.717   2.314   1.279  1.3919 -0.6077 -1.2996
 1071SOL    MW4 4284   0.777   2.291   1.338 -0.1216 -0.2635  0.4444
 1072SOL     OW 4285   2.497   3.126   1.610  0.0784 -0.3551 -0.8167
 1072SOL    HW2 4286   2.500   3.167   1.696 -0.4114  1.1994 -1.5166
 1072SOL    HW3 4287   2.578   3.154   1.567 -0.7246  0.7241 -1.6595
 1072SOL    MW4 4288   2.508   3.135   1.615 -0.0922 -0.0077 -1.0203
 1073SOL     OW 4289   1.852   3.085   0.873  0.0698 -0.1267 -0.1016
 1073SOL    HW2 4290   1.849   3.143   0.798  0.1442 -0.2229 -0.1799
 1073SOL    HW3 4291   1.786   3.119   0.933 -1.4336 -1.2569 -1.0935
 1073SOL    MW4 4292   1.843   3.097   0.871 -0.1188 -0.2885 -0.2428
 1074SOL     OW 4293   0.081   4.496   0.229 -0.1850  0.2971 -0.4345
 1074SOL    HW2 4294  -0.003   4.536   0.206 -0.0836 -0.9860 -3.3033
 1074SOL    HW3 4295   0.058   4.423   0.286 -0.7592  1.4572  0.8653
 1074SOL    MW4 4296   0.067   4.492   0.234 -0.2474  0.2809 -0.6415
 1075SOL     OW 4297   0.459   3.180   2.222  0.5865  0.0550  0.3881
 1075SOL    HW2 4298   0.385   3.139   2.266  0.6504 -0.0328  0.4143
 1075SOL    HW3 4299   0.448   3.274   2.239  1.7014 -0.1200  2.3245
 1075SOL    MW4 4300   0.448   3.187   2.230  0.7420  0.0203  0.6471
 1076SOL     OW 4301   2.143   2.208   1.828  0.3692 -0.2029 -0.2432
 1076SOL    HW2 4302   2.088   2.160   1.890 -0.8234  1.7696  0.2481
 1076SOL    HW3 4303   2.104   2.192   1.742 -0.5001  0.5423  0.0134
 1076SOL    MW4 4304   2.131   2.200   1.825  0.0972  0.1556 -0.1445
 1077SOL     OW 4305   1.482   1.966   1.219 -0.3357 -0.5712  0.2796
 1077SOL    HW2 4306   1.432   1.930   1.147 -1.6630 -0.3914  1.0985
 1077SOL    HW3 4307   1.429   2.038   1.252 -0.9135 -2.1558  2.9669
 1077SOL    MW4 4308   1.469   1.971   1.214 -0.5870 -0.7565  0.7422
 1078SOL     OW 4309   1.637   3.189   1.021  0.5502 -0.0206  0.2698
 1078SOL    HW2 4310   1.583   3.146   0.955  1.3240 -1.8968  0.8506
 1078SOL    HW3 4311   1.631   3.282   0.999 -0.8016 -0.4440 -1.2384
 1078SOL    MW4 4312   1.629   3.196   1.009  0.4740 -0.3240  0.1475
 1079SOL     OW 4313   3.641   3.604   1.565  0.4129 -0.2350 -0.1681
 1079SOL    HW2 4314   3.686   3.688   1.566 -0.1108  0.0474  0.3372
 1079SOL    HW3 4315   3.633   3.579   1.657 -0.3248 -0.3429 -0.2523
 1079SOL    MW4 4316   3.646   3.612   1.577  0.2465 -0.2120 -0.1126
 1080SOL     OW 4317   1.594   3.567   1.231  0.3903 -0.6282 -0.5678
 1080SOL    HW2 4318   1.555   3.513   1.162 -0.3920  0.9696 -1.4083
 1080SOL    HW3 4319   1.596   3.655   1.193  0.8729  0.0740  1.0857
 1080SOL    MW4 4320   1.589   3.571   1.217  0.3508 -0.3248 -0.4605
 1081SOL     OW 4321   1.442   0.722   1.844 -0.4546 -0.0621  0.2786
 1081SOL    HW2 4322   1.477   0.782   1.778 -0.6273  0.8247  0.9877
 1081SOL    HW3 4323   1.387   0.662   1.793 -1.1702  1.0624 -0.3123
 1081SOL    MW4 4324   1.439   0.722   1.828 -0.5718  0.2033  0.2942
 1082SOL     OW 4325   3.088   3.968   2.182  0.4224 -0.4587  0.2282
 1082SOL    HW2 4326   3.065   3.968   2.089  0.7678 -0.0349  0.1405
 1082SOL    HW3 4327   3.121   4.056   2.199 -0.6471 -0.2046  1.0045
 1082SOL    MW4 4328   3.089   3.979   2.172  0.3269 -0.3693  0.3191
 1083SOL     OW 4329   0.378   1.922   0.601 -0.2633  0.1667 -0.7800
 1083SOL    HW2 4330   0.309   1.976   0.639 -1.0718  0.1336 -2.1707
 1083SOL    HW3 4331   0.450   1.983   0.584  0.4694  0.0226  1.6212
 1083SOL    MW4 4332   0.378   1.937   0.604 -0.2733  0.1433 -0.6466
 1084SOL     OW 4333   2.483   2.031   2.194  0.3833  0.7446  0.3061
 1084SOL    HW2 4334   2.556   1.983   2.232  1.8526  2.6168 -0.0601
 1084SOL    HW3 4335   2.494   2.021   2.099 -1.2388 -0.9754  0.2784
 1084SOL    MW4 4336   2.494   2.024   2.186  0.3632  0.7647  0.2542
 1085SOL     OW 4337   3.772   1.321   0.992  0.4253  0.2363  0.2339
 1085SOL    HW2 4338   3.698   1.368   0.954  0.5226 -0.0583 -0.3087
 1085SOL    HW3 4339   3.808   1.383   1.056  0.6928  0.9962 -0.6433
 1085SOL    MW4 4340   3.767   1.336   0.996  0.4734  0.2977  0.0466
 1086SOL     OW 4341   0.401   3.284   0.559 -0.1843  0.2237  0.0335
 1086SOL    HW2 4342   0.443   3.223   0.620  0.5899  0.9284  0.2066
 1086SOL    HW3 4343   0.317   3.304   0.600 -0.4948 -0.8133 -0.0829
 1086SOL    MW4 4344   0.395   3.279   0.573 -0.1231  0.1798  0.0410
 1087SOL     OW 4345   3.348   0.714   2.321 -0.2055  0.0285  0.4445
 1087SOL    HW2 4346   3.359   0.619   2.321  1.8978  0.2104 -1.8960
 1087SOL    HW3 4347   3.435   0.748   2.303 -1.2302  2.3321 -0.3815
 1087SOL    MW4 4348   3.361   0.706   2.319 -0.0632  0.3565  0.0267
 1088SOL     OW 4349   3.869   1.445   1.355  0.0384  0.5653 -0.0878
 1088SOL    HW2 4350   3.778   1.470   1.338 -0.0014  0.4467 -0.0512
 1088SOL    HW3 4351   3.866   1.349   1.362 -0.0658  0.6474  1.2672
 1088SOL    MW4 4352   3.857   1.436   1.354  0.0194  0.5605  0.0958
 1089SOL     OW 4353   4.349   0.687   0.993 -0.0988 -1.0865 -0.1870
 1089SOL    HW2 4354   4.353   0.743   1.071 -1.5671 -1.4076  0.1282
 1089SOL    HW3 4355   4.259   0.696   0.961  0.6364 -0.4993 -2.1924
 1089SOL    MW4 4356   4.338   0.696   0.999 -0.1955 -1.0514 -0.4100
 1090SOL     OW 4357   2.041   0.409   0.664 -0.0779  0.3029  0.0460
 1090SOL    HW2 4358   1.983   0.352   0.614  0.3372 -0.6138  0.6102
 1090SOL    HW3 4359   2.117   0.355   0.685 -0.0883  0.7802  1.3714
 1090SOL    MW4 4360   2.043   0.395   0.660 -0.0245  0.2449  0.2953
 1091SOL     OW 4361   2.242   0.966   2.168 -0.0145  0.0943 -0.2942
 1091SOL    HW2 4362   2.249   0.952   2.073 -2.2453  1.7246 -0.7354
 1091SOL    HW3 4363   2.189   0.892   2.198 -0.5737  0.3815 -0.5608
 1091SOL    MW4 4364   2.236   0.954   2.159 -0.3826  0.3473 -0.3876
 1092SOL     OW 4365   1.847   3.626   0.687 -0.0439  0.4057  0.6194
 1092SOL    HW2 4366   1.790   3.685   0.736 -1.2204 -1.0888  1.1145
 1092SOL    HW3 4367   1.844   3.544   0.737  1.6940 -0.0201  0.0597
 1092SOL    MW4 4368   1.839   3.623   0.700  0.0302  0.1524  0.6109
 1093SOL     OW 4369   1.928   0.355   1.136 -0.1004  0.4386  0.3060
 1093SOL    HW2 4370   1.885   0.424   1.186 -0.4951 -0.2540  0.9385
 1093SOL    HW3 4371   1.951   0.396   1.053 -0.8382  1.1766  0.4556
 1093SOL    MW4 4372   1.925   0.369   1.132 -0.2498  0.4446  0.4092
 1094SOL     OW 4373   0.032   4.467   1.723  0.2828 -0.2477 -0.3267
 1094SOL    HW2 4374   0.077   4.448   1.805  0.3348  0.1134 -0.2705
 1094SOL    HW3 4375  -0.029   4.537   1.745  0.2022 -0.2412 -0.5664
 1094SOL    MW4 4376   0.030   4.474   1.737  0.2790 -0.1992 -0.3509
 1095SOL     OW 4377   4.057   3.526   0.377 -0.0254  0.3154 -0.4446
 1095SOL    HW2 4378   3.995   3.512   0.306 -0.3597 -0.6557  0.0330
 1095SOL    HW3 4379   4.003   3.559   0.449  0.2951  1.1937 -0.5973
 1095SOL    MW4 4380   4.041   3.529   0.377 -0.0272  0.3032 -0.4018
 1096SOL     OW 4381   1.401   3.815   1.080  0.0109 -0.1428  0.1451
 1096SOL    HW2 4382   1.440   3.901   1.064 -0.5024 -0.1131 -0.9741
 1096SOL    HW3 4383   1.338   3.830   1.151 -0.0182  0.3881  0.0090
 1096SOL    MW4 4384   1.398   3.828   1.087 -0.0607 -0.0689 -0.0205
 1097SOL     OW 4385   1.099   2.002   1.922  0.2319 -0.1446 -0.6560
 1097SOL    HW2 4386   1.006   2.019   1.908  0.4645  1.0139 -0.8527
 1097SOL    HW3 4387   1.113   2.018   2.015  0.3168  0.0784 -0.7072
 1097SOL    MW4 4388   1.089   2.006   1.932  0.2738  0.0377 -0.6887
 1098SOL     OW 4389   3.998   3.888   0.325  0.4541 -0.2162  0.2615
 1098SOL    HW2 4390   3.993   3.984   0.328  2.3573  0.0171 -2.3928
 1098SOL    HW3 4391   4.084   3.868   0.362  0.2505 -0.8768  0.3749
 1098SOL    MW4 4392   4.008   3.898   0.331  0.6784 -0.2726 -0.0737
 1099SOL     OW 4393   2.686   4.217   2.249 -0.2514 -0.3759  0.1587
 1099SOL    HW2 4394   2.676   4.125   2.224 -0.4388 -0.4903  0.6602
 1099SOL    HW3 4395   2.686   4.217   2.344 -0.2700  0.1469  0.1616
 1099SOL    MW4 4396   2.685   4.205   2.258 -0.2786 -0.3220  0.2252
 1100SOL     OW 4397   2.573   1.138   1.324  0.6299 -0.4054  0.2143
 1100SOL    HW2 4398   2.559   1.197   1.250  1.2624 -1.9580 -1.1634
 1100SOL    HW3 4399   2.649   1.176   1.370  1.5283 -0.5740 -1.1114
 1100SOL    MW4 4400   2.582   1.151   1.320  0.8319 -0.6325 -0.1424
 1101SOL     OW 4401   0.521   4.532   1.196  0.3676  0.5788 -0.3034
 1101SOL    HW2 4402   0.460   4.459   1.208  0.4604  0.1670 -2.2554
 1101SOL    HW3 4403   0.604   4.490   1.172  0.8270  1.2516  0.1151
 1101SOL    MW4 4404   0.524   4.517   1.194  0.4405  0.6132 -0.5057
 1102SOL     OW 4405   2.279   4.284   0.293 -0.0377  0.1214  0.4296
 1102SOL    HW2 4406   2.367   4.262   0.262  0.2160  1.2053  0.3540
 1102SOL    HW3 4407   2.247   4.203   0.333  0.7594 -0.4560 -0.0773
 1102SOL    MW4 4408   2.287   4.271   0.294  0.1009  0.1883  0.3528
 1103SOL     OW 4409   1.237   2.803   1.857  0.2755  0.2905  0.0456
 1103SOL    HW2 4410   1.291   2.876   1.828  0.9796  0.5435  1.9260
 1103SOL    HW3 4411   1.294   2.726   1.847 -0.3372  0.0218 -1.5730
 1103SOL    MW4 4412   1.252   2.802   1.852  0.2875  0.2884  0.0801
 1104SOL     OW 4413   1.452   0.820   1.432  0.0895  0.4999  0.3441
 1104SOL    HW2 4414   1.476   0.875   1.506 -0.2809  0.9711  0.1172
 1104SOL    HW3 4415   1.509   0.849   1.361 -0.3766  0.8667  0.1143
 1104SOL    MW4 4416   1.463   0.831   1.432 -0.0209  0.6105  0.2838
 1105SOL     OW 4417   0.992   1.105   1.601  0.1881  0.1668  0.4542
 1105SOL    HW2 4418   0.916   1.152   1.565  1.2223  0.5539 -1.2855
 1105SOL    HW3 4419   0.961   1.015   1.612 -1.2495  0.8209  2.0595
 1105SOL    MW4 4420   0.978   1.100   1.598  0.1349  0.3042  0.4365
 1106SOL     OW 4421   1.478   1.917   1.643 -0.5308  0.2102 -0.7484
 1106SOL    HW2 4422   1.515   1.911   1.731  0.6823 -1.5412 -1.3574
 1106SOL    HW3 4423   1.555   1.921   1.585 -1.3058  1.6725 -1.7252
 1106SOL    MW4 4424   1.493   1.917   1.647 -0.4730  0.1721 -0.9576
 1107SOL     OW 4425   3.388   1.416   2.313 -0.8484 -0.3587  0.1551
 1107SOL    HW2 4426   3.306   1.458   2.287 -0.1330  0.7689 -0.3161
 1107SOL    HW3 4427   3.406   1.450   2.400 -0.6482 -0.2395  0.0685
 1107SOL    MW4 4428   3.380   1.426   2.321 -0.7276 -0.1942  0.0815
 1108SOL     OW 4429   3.343   4.412   2.172 -0.2089  0.1628  0.5001
 1108SOL    HW2 4430   3.432   4.381   2.190 -1.0066 -1.8427  1.0984
 1108SOL    HW3 4431   3.332   4.487   2.231  1.0640  0.4139  0.4419
 1108SOL    MW4 4432   3.354   4.418   2.182 -0.1462 -0.0686  0.5714
 1109SOL     OW 4433   2.940   1.893   0.501 -0.3304 -0.2284  0.0966
 1109SOL    HW2 4434   3.016   1.881   0.558  0.5629  0.7358 -0.8739
 1109SOL    HW3 4435   2.874   1.933   0.558  0.6078  0.8630  0.4328
 1109SOL    MW4 4436   2.941   1.897   0.516 -0.0888  0.0428  0.0129
 1110SOL     OW 4437   2.382   3.632   1.970 -0.1379  0.1486 -0.0043
 1110SOL    HW2 4438   2.290   3.652   1.955  0.3229  1.8612 -0.6619
 1110SOL    HW3 4439   2.425   3.718   1.971  1.4575 -0.6421  0.2336
 1110SOL    MW4 4440   2.376   3.646   1.968  0.1334  0.2702 -0.0597
 1111SOL     OW 4441   1.400   0.790   1.088 -0.3470  0.2584 -0.2019
 1111SOL    HW2 4442   1.444   0.868   1.053  0.2043  0.4337  0.8698
 1111SOL    HW3 4443   1.329   0.826   1.143 -0.2332  0.0051  0.1109
 1111SOL    MW4 4444   1.396   0.805   1.091 -0.2592  0.2481 -0.0192
 1112SOL     OW 4445   4.412   2.265   1.567  0.0205  0.1066 -0.9019
 1112SOL    HW2 4446   4.356   2.299   1.637  0.5199 -3.2887  1.2283
 1112SOL    HW3 4447   4.475   2.335   1.551 -1.8611  2.0893 -0.0241
 1112SOL    MW4 4448   4.413   2.279   1.574 -0.1619 -0.0798 -0.5050
 1113SOL     OW 4449   3.691   3.083   1.722 -0.2467  0.4098  0.5052
 1113SOL    HW2 4450   3.691   3.026   1.799  1.7235  0.1850  0.3633
 1113SOL    HW3 4451   3.600   3.111   1.713 -1.0834 -2.0278  1.0807
 1113SOL    MW4 4452   3.679   3.079   1.731 -0.0972  0.0586  0.5624
 1114SOL     OW 4453   3.061   2.144   0.362 -0.0538 -0.1469  0.3376
 1114SOL    HW2 4454   2.992   2.190   0.409  0.5267  0.5259  0.5543
 1114SOL    HW3 4455   3.038   2.051   0.369 -0.0663 -0.0409  1.8141
 1114SOL    MW4 4456   3.049   2.138   0.369  0.0211 -0.0441  0.5610
 1115SOL     OW 4457   0.748   4.409   1.109  0.0646 -0.1755  0.0975
 1115SOL    HW2 4458   0.779   4.409   1.200 -2.5978 -0.4249  1.0563
 1115SOL    HW3 4459   0.792   4.484   1.068 -0.1080  1.0538  2.0998
 1115SOL    MW4 4460   0.758   4.419   1.116 -0.3095 -0.0462  0.4881
 1116SOL     OW 4461   0.408   1.792   0.831 -0.0051 -0.0105 -0.3432
 1116SOL    HW2 4462   0.362   1.709   0.818  1.2197 -0.5190 -1.4935
 1116SOL    HW3 4463   0.386   1.844   0.753  1.6485 -0.3943 -1.0781
 1116SOL    MW4 4464   0.399   1.788   0.819  0.3747 -0.1282 -0.5919
 1117SOL     OW 4465   1.255   1.552   1.109 -0.0570  0.0271  0.1677
 1117SOL    HW2 4466   1.317   1.482   1.088  1.4619  0.8972  1.7235
 1117SOL    HW3 4467   1.171   1.506   1.120 -0.0342 -1.0141 -3.1652
 1117SOL    MW4 4468   1.252   1.536   1.107  0.1464  0.0045 -0.0667
 1118SOL     OW 4469   4.140   3.426   2.249  0.0968 -0.5487 -0.5740
 1118SOL    HW2 4470   4.138   3.334   2.224 -0.0060 -0.2182 -1.8267
 1118SOL    HW3 4471   4.106   3.472   2.173 -1.4936  0.4081  0.6599
 1118SOL    MW4 4472   4.135   3.420   2.236 -0.1266 -0.3788 -0.5765
 1119SOL     OW 4473   1.195   1.866   1.563 -0.1967 -0.0953 -0.4171
 1119SOL    HW2 4474   1.286   1.892   1.579 -0.1822  0.2730 -1.1006
 1119SOL    HW3 4475   1.201   1.796   1.498 -0.2992 -1.1744  0.7204
 1119SOL    MW4 4476   1.208   1.860   1.557 -0.2083 -0.1891 -0.3572
 1120SOL     OW 4477   3.566   0.388   2.096  0.0862 -0.0103 -0.2626
 1120SOL    HW2 4478   3.576   0.294   2.110  0.4777 -0.0881 -1.0791
 1120SOL    HW3 4479   3.656   0.422   2.099 -0.0804  0.3835  0.3612
 1120SOL    MW4 4480   3.579   0.380   2.099  0.1159  0.0314 -0.2880
 1121SOL     OW 4481   0.053   1.933   2.304  0.2902  0.8137  0.1136
 1121SOL    HW2 4482   0.121   1.983   2.260 -0.6948  2.0343 -0.0517
 1121SOL    HW3 4483  -0.028   1.959   2.261 -0.6590  1.7282  2.3704
 1121SOL    MW4 4484   0.051   1.943   2.293  0.0350  1.0954  0.3895
 1122SOL     OW 4485   4.291   4.180   1.972 -0.0062  0.1487  0.0264
 1122SOL    HW2 4486   4.365   4.148   1.921 -0.3806  0.4431 -0.7133
 1122SOL    HW3 4487   4.328   4.245   2.031  0.5648 -0.7722  0.6910
 1122SOL    MW4 4488   4.305   4.184   1.973  0.0198  0.0661  0.0165
 1123SOL     OW 4489   1.570   1.273   1.974 -0.1969 -0.0934 -0.5721
 1123SOL    HW2 4490   1.491   1.221   1.984 -0.3793 -0.0319 -1.6416
 1123SOL    HW3 4491   1.539   1.358   1.942  0.2620  0.0486 -0.6446
 1123SOL    MW4 4492   1.556   1.278   1.971 -0.1605 -0.0665 -0.7228
 1124SOL     OW 4493   0.021   3.371   1.870 -0.3749  0.2425  0.4524
 1124SOL    HW2 4494   0.109   3.380   1.907 -0.6552 -1.1206  1.4920
 1124SOL    HW3 4495  -0.026   3.447   1.904  0.5825  1.3531 -0.6695
 1124SOL    MW4 4496   0.027   3.382   1.880 -0.2856  0.2092  0.4416
 1125SOL     OW 4497   3.604   2.680   2.313 -0.1155  0.3916 -0.0186
 1125SOL    HW2 4498   3.603   2.602   2.257  0.4421  0.4202 -0.0740
 1125SOL    HW3 4499   3.697   2.705   2.317 -0.0451 -0.0235  1.4725
 1125SOL    MW4 4500   3.616   2.673   2.306 -0.0327  0.3406  0.1709
 1126SOL     OW 4501   3.272   1.212   0.481 -0.4144  0.3654  0.0804
 1126SOL    HW2 4502   3.311   1.132   0.445 -1.4619 -0.0955 -0.0614
 1126SOL    HW3 4503   3.248   1.189   0.570 -1.2862  0.3147 -0.1590
 1126SOL    MW4 4504   3.274   1.198   0.488 -0.6676  0.2979  0.0301
 1127SOL     OW 4505   2.968   0.310   1.387 -0.3321 -0.0822  0.5456
 1127SOL    HW2 4506   2.940   0.287   1.298 -0.6974 -1.8638  1.1009
 1127SOL    HW3 4507   2.950   0.232   1.439  0.1173  0.8510  2.1489
 1127SOL    MW4 4508   2.961   0.297   1.382 -0.3210 -0.1941  0.8304
 1128SOL     OW 4509   0.459   2.138   1.629 -0.0430  0.5067  0.0129
 1128SOL    HW2 4510   0.554   2.136   1.616 -0.0122 -0.2885  0.3291
 1128SOL    HW3 4511   0.442   2.221   1.673  0.5505  0.4678  0.3158
 1128SOL    MW4 4512   0.469   2.149   1.633  0.0394  0.3967  0.0946
 1129SOL     OW 4513   0.634   0.618   0.581  0.7274  0.4866  0.0465
 1129SOL    HW2 4514   0.713   0.656   0.543 -0.3097  1.0834 -1.5457
 1129SOL    HW3 4515   0.653   0.614   0.675  1.7736  2.7666 -0.0339
 1129SOL    MW4 4516   0.647   0.623   0.589  0.7286  0.8662 -0.1742
 1130SOL     OW 4517   3.972   0.829   1.091  0.7515  0.1676 -0.3677
 1130SOL    HW2 4518   3.905   0.867   1.035  0.8225 -0.9250 -1.2109
 1130SOL    HW3 4519   3.926   0.763   1.143  0.9526  0.1983 -0.1469
 1130SOL    MW4 4520   3.957   0.825   1.091  0.7874  0.0275 -0.4498
 1131SOL     OW 4521   3.989   1.474   1.118 -0.2968  0.0410  0.1256
 1131SOL    HW2 4522   3.949   1.462   1.204 -1.1884 -0.4094 -0.3341
 1131SOL    HW3 4523   4.049   1.548   1.128  2.2089 -2.1545  2.0064
 1131SOL    MW4 4524   3.991   1.482   1.130 -0.0838 -0.3081  0.3131
 1132SOL     OW 4525   0.445   1.647   0.505  0.0952  0.6713  0.2399
 1132SOL    HW2 4526   0.437   1.733   0.546  0.4319  0.8794 -0.1204
 1132SOL    HW3 4527   0.389   1.653   0.428  0.6619  0.8091 -0.1659
 1132SOL    MW4 4528   0.436   1.659   0.500  0.2144  0.7170  0.1388
 1133SOL     OW 4529   2.368   1.193   1.520  0.0904 -0.3820  0.3394
 1133SOL    HW2 4530   2.438   1.171   1.459 -0.1304 -1.0696  0.3220
 1133SOL    HW3 4531   2.289   1.157   1.479 -0.6344  2.3794 -0.7506
 1133SOL    MW4 4532   2.367   1.185   1.507 -0.0343 -0.1084  0.1933
 1134SOL     OW 4533   0.684   0.623   0.869  0.3228  0.3234  0.3593
 1134SOL    HW2 4534   0.752   0.556   0.859 -0.4307 -0.4468  0.3817
 1134SOL    HW3 4535   0.733   0.705   0.882  1.2576 -0.0680 -0.6096
 1134SOL    MW4 4536   0.700   0.625   0.869  0.3467  0.1701  0.2344
 1135SOL     OW 4537   0.542   0.589   1.102 -0.0570  0.1636 -0.1265
 1135SOL    HW2 4538   0.566   0.671   1.146  0.6523 -0.4965  0.7299
 1135SOL    HW3 4539   0.578   0.598   1.014  1.0964  0.2694  0.3480
 1135SOL    MW4 4540   0.550   0.601   1.096  0.1887  0.0904  0.0491
 1136SOL     OW 4541   4.201   3.054   1.955  0.4285  0.3035 -0.1917
 1136SOL    HW2 4542   4.162   3.075   2.040  1.3613  1.4857 -0.0347
 1136SOL    HW3 4543   4.295   3.062   1.969  0.6973 -1.5454 -0.8200
 1136SOL    MW4 4544   4.208   3.058   1.968  0.5870  0.2155 -0.2539
 1137SOL     OW 4545   1.583   1.623   0.931  0.1695 -0.0662  0.1987
 1137SOL    HW2 4546   1.630   1.580   1.002 -0.0819 -0.5659  0.0631
 1137SOL    HW3 4547   1.648   1.684   0.893  0.4383 -0.1248  0.5614
 1137SOL    MW4 4548   1.598   1.626   0.935  0.1718 -0.1399  0.2287
 1138SOL     OW 4549   1.799   2.491   0.947 -0.4170  0.0508 -0.5779
 1138SOL    HW2 4550   1.727   2.554   0.957  0.1749  0.9101 -1.6145
 1138SOL    HW3 4551   1.801   2.443   1.029 -2.2270 -0.0202 -0.5638
 1138SOL    MW4 4552   1.790   2.493   0.959 -0.5777  0.1548 -0.7128
 1139SOL     OW 4553   2.239   0.404   2.296  0.3452 -0.3210  0.5667
 1139SOL    HW2 4554   2.319   0.440   2.260 -0.4940  0.4868 -0.5297
 1139SOL    HW3 4555   2.243   0.310   2.276  1.4205 -0.4487  1.3237
 1139SOL    MW4 4556   2.250   0.396   2.289  0.3763 -0.2313  0.5219
 1140SOL     OW 4557   1.075   0.161   1.187 -0.5015  0.2964  0.3212
 1140SOL    HW2 4558   1.157   0.209   1.204  1.1676 -2.0118 -0.9003
 1140SOL    HW3 4559   1.045   0.133   1.273  0.5689  0.2700  0.6910
 1140SOL    MW4 4560   1.082   0.164   1.200 -0.1401 -0.0116  0.2089
 1141SOL     OW 4561   2.026   0.911   0.567  0.9484 -0.1311  0.2613
 1141SOL    HW2 4562   2.121   0.907   0.578  0.8646 -0.8609  0.7752
 1141SOL    HW3 4563   2.000   0.819   0.553  0.2984  0.0385  0.3330
 1141SOL    MW4 4564   2.035   0.898   0.566  0.8516 -0.2050  0.3386
 1142SOL     OW 4565   3.065   1.519   1.728 -0.1050  0.0648  0.1493
 1142SOL    HW2 4566   3.113   1.459   1.671  0.0103 -0.2019  0.5238
 1142SOL    HW3 4567   3.020   1.578   1.668  1.8248  1.2384 -0.2031
 1142SOL    MW4 4568   3.065   1.519   1.712  0.1648  0.1844  0.1522
 1143SOL     OW 4569   1.624   2.756   1.927  0.2066  0.0835  0.2138
 1143SOL    HW2 4570   1.697   2.697   1.908 -0.8447 -1.5060  1.0496
 1143SOL    HW3 4571   1.548   2.714   1.886 -0.6918  0.4737  1.4567
 1143SOL    MW4 4572   1.623   2.743   1.919 -0.0506 -0.0747  0.4880
 1144SOL     OW 4573   2.171   4.266   0.825 -0.3414  0.3171 -0.5101
 1144SOL    HW2 4574   2.167   4.232   0.914 -1.6700 -0.4254 -0.8318
 1144SOL    HW3 4575   2.264   4.273   0.806 -0.0426  0.9588  1.1066
 1144SOL    MW4 4576   2.182   4.262   0.834 -0.4773  0.3038 -0.3392
 1145SOL     OW 4577   0.200   4.254   0.623  0.3165  0.3415  0.1709
 1145SOL    HW2 4578   0.295   4.244   0.613  0.1371 -0.6107 -0.7515
 1145SOL    HW3 4579   0.189   4.332   0.677  1.6247  0.5136  0.2036
 1145SOL    MW4 4580   0.211   4.263   0.629  0.4654  0.2386  0.0535
 1146SOL     OW 4581   3.240   1.325   1.585 -0.1139  0.2672 -0.0895
 1146SOL    HW2 4582   3.162   1.270   1.585 -0.7379  1.1210  0.9584
 1146SOL    HW3 4583   3.306   1.273   1.630 -0.1125 -0.4046 -0.8538
 1146SOL    MW4 4584   3.238   1.311   1.591 -0.1961  0.2912 -0.0521
 1147SOL     OW 4585   2.939   2.022   2.201  0.2667 -0.0376 -0.3635
 1147SOL    HW2 4586   2.859   1.989   2.243 -0.6028  0.6162 -1.4557
 1147SOL    HW3 4587   2.920   2.019   2.108  1.1464  1.0542 -0.5975
 1147SOL    MW4 4588   2.926   2.018   2.194  0.2680  0.1927 -0.5385
 1148SOL     OW 4589   1.746   1.622   1.737  0.3111 -0.5602  0.3418
 1148SOL    HW2 4590   1.697   1.561   1.682 -0.2088 -0.4052  0.6283
 1148SOL    HW3 4591   1.820   1.649   1.682 -0.2547 -0.3342 -0.3178
 1148SOL    MW4 4592   1.749   1.618   1.722  0.1678 -0.5099  0.2926
 1149SOL     OW 4593   1.271   4.455   1.958 -0.2976  0.2084  0.3502
 1149SOL    HW2 4594   1.328   4.531   1.958  0.0574 -0.0573  0.5396
 1149SOL    HW3 4595   1.300   4.403   1.883 -0.6371  0.3353  0.1317
 1149SOL    MW4 4596   1.282   4.458   1.948 -0.2955  0.1901  0.3463
 1150SOL     OW 4597   3.572   4.555   1.080 -0.2635  0.0095  0.3461
 1150SOL    HW2 4598   3.580   4.594   0.994  0.6882 -0.0082  0.4177
 1150SOL    HW3 4599   3.495   4.498   1.074 -1.1594  1.2269 -0.0012
 1150SOL    MW4 4600   3.563   4.552   1.068 -0.2561  0.1678  0.3097
 1151SOL     OW 4601   3.114   3.295   0.374  0.2458 -0.6547 -0.0030
 1151SOL    HW2 4602   3.025   3.259   0.373  0.3880 -0.9786 -1.6231
 1151SOL    HW3 4603   3.159   3.250   0.303  1.2448  0.6895 -0.2447
 1151SOL    MW4 4604   3.108   3.284   0.365  0.3964 -0.5201 -0.2487
 1152SOL     OW 4605   0.883   2.561   1.415 -0.2757  0.1425  0.3592
 1152SOL    HW2 4606   0.930   2.601   1.342  2.1366  0.5446  2.0411
 1152SOL    HW3 4607   0.851   2.478   1.381  1.9567 -0.2855 -0.8232
 1152SOL    MW4 4608   0.885   2.555   1.401  0.3371  0.1391  0.4251
 1153SOL     OW 4609   0.652   0.104   1.514 -0.0503 -0.3500  0.4132
 1153SOL    HW2 4610   0.598   0.114   1.436  0.6493 -3.2831 -0.5286
 1153SOL    HW3 4611   0.624   0.020   1.552  0.9570  0.1022  2.2185
 1153SOL    MW4 4612   0.641   0.094   1.509  0.1749 -0.6773  0.5271
 1154SOL     OW 4613   3.560   3.888   0.355  0.8924  0.5371 -0.4089
 1154SOL    HW2 4614   3.525   3.896   0.266 -0.7716  0.2558  0.2006
 1154SOL    HW3 4615   3.631   3.825   0.347  0.5851  0.3147 -1.4912
 1154SOL    MW4 4616   3.564   3.881   0.342  0.6323  0.4706 -0.4713
 1155SOL     OW 4617   0.224   1.663   0.323 -0.3563  0.1775 -0.2534
 1155SOL    HW2 4618   0.266   1.682   0.239 -2.3644 -0.0560 -1.3592
 1155SOL    HW3 4619   0.220   1.568   0.327 -2.3628  0.2070 -1.0137
 1155SOL    MW4 4620   0.229   1.653   0.312 -0.8859  0.1506 -0.4996
 1156SOL     OW 4621   2.510   2.578   1.082  0.0837 -0.3929 -0.0365
 1156SOL    HW2 4622   2.436   2.531   1.043  0.3695 -2.1286  1.4171
 1156SOL    HW3 4623   2.472   2.659   1.117 -1.1747 -1.3478  0.8478
 1156SOL    MW4 4624   2.495   2.582   1.082 -0.0446 -0.7479  0.2720
 1157SOL     OW 4625   4.031   4.262   0.589 -0.2642 -0.4142 -0.2766
 1157SOL    HW2 4626   3.973   4.302   0.654 -1.0599 -2.1841  0.1323
 1157SOL    HW3 4627   3.973   4.241   0.516  0.2439 -0.3720 -0.6916
 1157SOL    MW4 4628   4.015   4.265   0.588 -0.3021 -0.6422 -0.2774
 1158SOL     OW 4629   1.905   2.008   1.895 -0.4003 -0.2072  0.2029
 1158SOL    HW2 4630   1.888   2.102   1.887  0.5720 -0.0293  0.1700
 1158SOL    HW3 4631   1.953   2.000   1.977 -0.9832 -0.7473  0.4926
 1158SOL    MW4 4632   1.909   2.019   1.905 -0.3489 -0.2550  0.2368
 1159SOL     OW 4633   2.993   4.551   0.625  0.2757  0.5757 -0.1902
 1159SOL    HW2 4634   3.084   4.579   0.635  0.4080 -0.1320  0.6072
 1159SOL    HW3 4635   2.977   4.493   0.700 -0.3442 -0.5621 -1.1926
 1159SOL    MW4 4636   3.003   4.547   0.636  0.2114  0.3322 -0.2172
 1160SOL     OW 4637   2.833   4.357   1.071 -0.1463  0.6407  0.9240
 1160SOL    HW2 4638   2.752   4.388   1.111 -0.3438  2.7994 -1.0661
 1160SOL    HW3 4639   2.893   4.345   1.144 -1.7814  0.4638  2.2602
 1160SOL    MW4 4640   2.830   4.359   1.086 -0.3881  0.9022  0.8377
 1161SOL     OW 4641   2.005   2.922   1.138 -0.2019  0.0068 -0.1886
 1161SOL    HW2 4642   2.013   3.017   1.130 -1.4283  0.2325  1.0693
 1161SOL    HW3 4643   1.914   2.908   1.164  0.4475 -1.3709  1.4423
 1161SOL    MW4 4644   1.994   2.933   1.140 -0.2780 -0.1452  0.1926
 1162SOL     OW 4645   1.345   3.658   0.841  1.1310 -0.4421 -0.5308
 1162SOL    HW2 4646   1.327   3.704   0.923 -0.8153  0.3000 -1.3126
 1162SOL    HW3 4647   1.293   3.706   0.776  0.4863 -2.6664 -1.7037
 1162SOL    MW4 4648   1.336   3.671   0.843  0.7891 -0.6377 -0.7887
 1163SOL     OW 4649   1.822   3.527   1.494  0.1776 -0.6255 -0.0641
 1163SOL    HW2 4650   1.769   3.548   1.571 -1.0315 -0.8048 -0.8373
 1163SOL    HW3 4651   1.800   3.436   1.473  0.1351 -0.4256 -0.9150
 1163SOL    MW4 4652   1.812   3.518   1.502  0.0125 -0.6228 -0.2784
 1164SOL     OW 4653   3.882   4.304   0.830 -0.5654  0.1247 -0.5619
 1164SOL    HW2 4654   3.929   4.381   0.862 -0.7325 -0.1969  0.4963
 1164SOL    HW3 4655   3.887   4.242   0.902 -1.4655 -0.4056 -0.9462
 1164SOL    MW4 4656   3.889   4.306   0.844 -0.7062  0.0123 -0.4729
 1165SOL     OW 4657   0.517   0.523   1.776 -0.5234 -0.5913  0.5100
 1165SOL    HW2 4658   0.608   0.508   1.802  0.6778  3.1587 -1.1308
 1165SOL    HW3 4659   0.496   0.448   1.720  1.6543 -1.3733  0.6849
 1165SOL    MW4 4660   0.526   0.511   1.772 -0.0776 -0.1997  0.3166
 1166SOL     OW 4661   1.240   1.580   0.470 -0.1363  0.3014  0.0089
 1166SOL    HW2 4662   1.266   1.672   0.482  1.5997 -0.2224  0.4187
 1166SOL    HW3 4663   1.321   1.535   0.447 -0.7672 -1.3281  0.8960
 1166SOL    MW4 4664   1.254   1.586   0.469  0.0095  0.0173  0.1800
 1167SOL     OW 4665   0.395   2.260   1.030 -0.4717 -0.4519  0.5510
 1167SOL    HW2 4666   0.388   2.347   0.991  0.5360  0.0394  1.4425
 1167SOL    HW3 4667   0.433   2.206   0.960  0.1012  0.1171  0.4158
 1167SOL    MW4 4668   0.399   2.264   1.015 -0.2632 -0.3120  0.6508
 1168SOL     OW 4669   4.068   2.530   1.730 -0.3247 -0.2102 -0.2994
 1168SOL    HW2 4670   4.123   2.572   1.664 -0.1899 -0.4681 -0.3480
 1168SOL    HW3 4671   3.990   2.501   1.682 -0.7641  0.6620 -0.1280
 1168SOL    MW4 4672   4.065   2.532   1.715 -0.3649 -0.1292 -0.2832
 1169SOL     OW 4673   1.139   1.540   2.093 -0.3220  0.0198 -0.1955
 1169SOL    HW2 4674   1.120   1.450   2.121  0.6951 -0.7050 -1.7366
 1169SOL    HW3 4675   1.054   1.582   2.086 -0.8661 -1.0558 -0.1748
 1169SOL    MW4 4676   1.125   1.534   2.096 -0.2596 -0.2178 -0.3961
 1170SOL     OW 4677   0.353   4.305   1.235 -0.3265 -0.3572 -0.1784
 1170SOL    HW2 4678   0.272   4.320   1.186 -0.5635  1.1879  0.6709
 1170SOL    HW3 4679   0.383   4.219   1.204 -0.1338  0.8286 -3.5142
 1170SOL    MW4 4680   0.346   4.296   1.224 -0.3324  0.0031 -0.5064
 1171SOL     OW 4681   4.073   2.413   2.179  0.1282  0.2593 -0.2031
 1171SOL    HW2 4682   4.006   2.372   2.234 -0.0036 -0.6758 -1.0404
 1171SOL    HW3 4683   4.097   2.493   2.225 -0.7753  0.0394  0.6561
 1171SOL    MW4 4684   4.068   2.418   2.192 -0.0084  0.1069 -0.2002
 1172SOL     OW 4685   3.499   1.662   1.964 -0.4256  0.1600 -0.3119
 1172SOL    HW2 4686   3.403   1.666   1.964 -0.4660 -0.3893 -1.5259
 1172SOL    HW3 4687   3.522   1.637   2.053 -1.4915 -1.0081 -0.3429
 1172SOL    MW4 4688   3.489   1.659   1.976 -0.5716 -0.0666 -0.4762
 1173SOL     OW 4689   1.231   3.821   0.653  0.3280 -0.2488 -0.1844
 1173SOL    HW2 4690   1.276   3.901   0.626  1.4881 -1.2770 -1.3362
 1173SOL    HW3 4691   1.145   3.828   0.613  0.7009  0.0483 -0.9478
 1173SOL    MW4 4692   1.226   3.833   0.644  0.5302 -0.3453 -0.4371
 1174SOL     OW 4693   4.068   4.586   1.474 -0.5480 -0.5466  0.1244
 1174SOL    HW2 4694   4.027   4.582   1.388 -2.4840  0.8706  0.9566
 1174SOL    HW3 4695   4.105   4.674   1.479  0.4609 -0.9674  0.3697
 1174SOL    MW4 4696   4.068   4.597   1.464 -0.6703 -0.4152  0.2665
 1175SOL     OW 4697   2.918   1.118   1.827  0.1721  0.0562  0.6182
 1175SOL    HW2 4698   2.904   1.025   1.843 -0.9409 -0.1077 -1.1397
 1175SOL    HW3 4699   2.834   1.160   1.846 -0.0726  0.3404 -0.9433
 1175SOL    MW4 4700   2.905   1.111   1.831 -0.0070  0.0721  0.1802
 1176SOL     OW 4701   2.628   3.017   0.892 -0.2788 -0.1898  0.0547
 1176SOL    HW2 4702   2.716   3.054   0.884 -0.1491 -0.5331 -0.1091
 1176SOL    HW3 4703   2.641   2.923   0.887 -0.6019 -0.2602  0.5583
 1176SOL    MW4 4704   2.641   3.010   0.890 -0.3043 -0.2444  0.0995
 1177SOL     OW 4705   2.539   1.235   0.854 -0.0771  0.2053 -0.0890
 1177SOL    HW2 4706   2.542   1.140   0.848 -1.6899  0.0971  0.6843
 1177SOL    HW3 4707   2.529   1.264   0.763  1.0317 -0.3151 -0.3929
 1177SOL    MW4 4708   2.538   1.227   0.841 -0.1436  0.1224 -0.0271
 1178SOL     OW 4709   3.858   3.075   2.311 -0.2097 -0.4022  0.5028
 1178SOL    HW2 4710   3.774   3.098   2.271 -0.7602 -0.3414  1.6937
 1178SOL    HW3 4711   3.863   2.980   2.302  0.7546 -0.1614 -1.8245
 1178SOL    MW4 4712   3.847   3.065   2.304 -0.1551 -0.3624  0.3529
 1179SOL     OW 4713   2.178   0.220   1.569  0.2418  0.2078  0.3001
 1179SOL    HW2 4714   2.091   0.235   1.532  0.2216 -0.1059  0.2205
 1179SOL    HW3 4715   2.220   0.306   1.568  0.1586  0.2399 -0.2336
 1179SOL    MW4 4716   2.172   0.233   1.564  0.2281  0.1707  0.2192
 1180SOL     OW 4717   2.468   3.727   1.092 -0.1382  0.1695  0.4960
 1180SOL    HW2 4718   2.556   3.702   1.063 -0.2887 -0.0392  0.2111
 1180SOL    HW3 4719   2.441   3.656   1.151 -0.5520 -0.3431 -0.2869
 1180SOL    MW4 4720   2.476   3.714   1.096 -0.2127  0.0743  0.3551
 1181SOL     OW 4721   0.848   2.904   1.139 -0.1914 -0.1803  0.1693
 1181SOL    HW2 4722   0.883   2.940   1.058  0.4273 -0.7378  0.1826
 1181SOL    HW3 4723   0.912   2.837   1.165 -0.2584  0.1602  1.2414
 1181SOL    MW4 4724   0.861   2.900   1.132 -0.1186 -0.2089  0.3125
 1182SOL     OW 4725   4.242   1.546   1.591 -0.0329 -0.3898  0.2284
 1182SOL    HW2 4726   4.148   1.528   1.596 -0.4753  1.6292 -0.6119
 1182SOL    HW3 4727   4.272   1.541   1.682 -0.9103 -1.1682  0.4886
 1182SOL    MW4 4728   4.233   1.543   1.604 -0.2071 -0.2261  0.1518
 1183SOL     OW 4729   0.099   0.176   0.677 -0.0795  0.1258  0.0829
 1183SOL    HW2 4730   0.137   0.230   0.608 -0.5841  0.0312 -0.2771
 1183SOL    HW3 4731   0.035   0.121   0.631 -1.3339  0.9589  0.8219
 1183SOL    MW4 4732   0.095   0.176   0.661 -0.3116  0.2233  0.1329
 1184SOL     OW 4733   1.678   2.306   1.506 -0.3562  0.5799  0.0000
 1184SOL    HW2 4734   1.625   2.335   1.432 -0.1232  1.5774  0.2157
 1184SOL    HW3 4735   1.617   2.258   1.563 -0.3669 -0.8577 -1.2086
 1184SOL    MW4 4736   1.663   2.304   1.504 -0.3269  0.5219 -0.1310
 1185SOL     OW 4737   3.518   1.699   0.942  0.4259 -0.2839 -0.0385
 1185SOL    HW2 4738   3.433   1.744   0.949  1.2991  1.6987 -1.8690
 1185SOL    HW3 4739   3.564   1.724   1.022 -0.1482 -0.1584  0.2611
 1185SOL    MW4 4740   3.513   1.708   0.954  0.4654 -0.0058 -0.2405
 1186SOL     OW 4741   3.909   2.473   1.966  0.3719 -0.4498  0.3328
 1186SOL    HW2 4742   3.968   2.500   1.895 -0.2538  2.5141  0.8898
 1186SOL    HW3 4743   3.968   2.435   2.032  1.5772  1.4547  0.4072
 1186SOL    MW4 4744   3.925   2.471   1.965  0.4484  0.1926  0.4161
 1187SOL     OW 4745   0.386   4.640   1.948  0.2470  0.2561  0.1764
 1187SOL    HW2 4746   0.339   4.698   1.889 -2.0986 -0.3981  1.3588
 1187SOL    HW3 4747   0.363   4.670   2.036  0.3484 -1.3925  0.7994
 1187SOL    MW4 4748   0.377   4.651   1.952 -0.0491 -0.0477  0.4146
 1188SOL     OW 4749   0.349   2.352   0.640  0.2405 -0.1383  0.2150
 1188SOL    HW2 4750   0.433   2.362   0.596  0.9348 -0.5468  1.4375
 1188SOL    HW3 4751   0.332   2.258   0.639 -0.3415 -0.0346 -0.2661
 1188SOL    MW4 4752   0.357   2.341   0.634  0.2553 -0.1785  0.3128
 1189SOL     OW 4753   2.935   1.570   0.549  0.0887  0.4742  0.1316
 1189SOL    HW2 4754   2.911   1.658   0.518  0.2263  0.3500 -0.3316
 1189SOL    HW3 4755   3.011   1.584   0.605 -0.6720  0.7993  1.1015
 1189SOL    MW4 4756   2.942   1.583   0.552  0.0065  0.5007  0.1985
 1190SOL     OW 4757   2.216   1.314   0.749 -0.3558  0.0714  0.4673
 1190SOL    HW2 4758   2.270   1.377   0.797 -0.6865  0.2315  0.6312
 1190SOL    HW3 4759   2.214   1.237   0.805  0.2519 -0.1780  0.1543
 1190SOL    MW4 4760   2.223   1.312   0.763 -0.3192  0.0596  0.4476
 1191SOL     OW 4761   3.275   0.717   0.225  0.1465  0.8730 -0.0918
 1191SOL    HW2 4762   3.366   0.687   0.226 -0.0349  0.2359 -1.3716
 1191SOL    HW3 4763   3.224   0.643   0.260  0.0461  0.9431 -0.0886
 1191SOL    MW4 4764   3.280   0.703   0.230  0.1093  0.7982 -0.2603
 1192SOL     OW 4765   0.469   1.590   1.890  0.1314  0.2351  0.1407
 1192SOL    HW2 4766   0.426   1.507   1.913 -0.1735  0.4024  0.1772
 1192SOL    HW3 4767   0.397   1.647   1.864  0.1524  1.1290  2.0165
 1192SOL    MW4 4768   0.453   1.586   1.890  0.0940  0.3751  0.3930
 1193SOL     OW 4769   3.281   4.184   1.615 -0.5088  0.3617 -0.3895
 1193SOL    HW2 4770   3.279   4.092   1.587 -1.1196  0.4151 -0.5515
 1193SOL    HW3 4771   3.351   4.189   1.679  0.6944  0.1515 -1.6656
 1193SOL    MW4 4772   3.290   4.172   1.620 -0.4306  0.3410 -0.5792
 1194SOL     OW 4773   4.226   3.871   0.523 -0.3334  0.1252  0.9676
 1194SOL    HW2 4774   4.314   3.904   0.507 -1.4476  1.3800 -3.0995
 1194SOL    HW3 4775   4.238   3.778   0.541  1.6343 -0.2524 -1.9888
 1194SOL    MW4 4776   4.239   3.863   0.523 -0.2208  0.2409  0.0409
 1195SOL     OW 4777   3.041   1.616   1.307 -0.3752 -0.2022 -0.1033
 1195SOL    HW2 4778   2.985   1.673   1.255 -0.2800 -1.7596 -1.9409
 1195SOL    HW3 4779   3.079   1.555   1.244  0.5655 -1.4551  1.6421
 1195SOL    MW4 4780   3.039   1.616   1.292 -0.2385 -0.5730 -0.1155
 1196SOL     OW 4781   1.910   0.282   1.524  0.1228 -0.0762  0.1584
 1196SOL    HW2 4782   1.935   0.358   1.472  1.5980 -1.4456 -1.2016
 1196SOL    HW3 4783   1.853   0.231   1.466  1.1567 -1.2226  0.1076
 1196SOL    MW4 4784   1.906   0.285   1.509  0.4539 -0.4081 -0.0277
 1197SOL     OW 4785   0.504   1.294   1.516 -0.4944  0.2206 -0.1682
 1197SOL    HW2 4786   0.432   1.244   1.476 -1.0706  0.1839  0.8772
 1197SOL    HW3 4787   0.488   1.384   1.490 -1.1226  0.2598  0.3460
 1197SOL    MW4 4788   0.492   1.299   1.507 -0.6533  0.2209  0.0376
 1198SOL     OW 4789   3.396   3.341   1.189 -0.6802 -0.1406  0.0076
 1198SOL    HW2 4790   3.379   3.435   1.202  1.5724  0.2998 -0.0004
 1198SOL    HW3 4791   3.457   3.318   1.259 -1.6095 -1.7352  0.3068
 1198SOL    MW4 4792   3.402   3.351   1.200 -0.5056 -0.2929  0.0461
 1199SOL     OW 4793   2.358   1.509   0.891  0.4897 -0.1311 -0.4398
 1199SOL    HW2 4794   2.437   1.545   0.853  0.6168 -0.8157 -0.8350
 1199SOL    HW3 4795   2.321   1.580   0.942  0.7488  0.5406 -1.1865
 1199SOL    MW4 4796   2.363   1.523   0.893  0.5407 -0.1328 -0.5905
 1200SOL     OW 4797   4.099   2.478   0.572 -0.5527  0.1951  0.6398
 1200SOL    HW2 4798   4.090   2.516   0.484  0.6350 -0.9285  0.0076
 1200SOL    HW3 4799   4.059   2.542   0.630 -1.2494  1.0174 -0.7141
 1200SOL    MW4 4800   4.092   2.491   0.568 -0.4879  0.1554  0.3777
 1201SOL     OW 4801   0.399   2.618   1.276  0.2524 -0.0417 -0.1362
 1201SOL    HW2 4802   0.478   2.672   1.288  1.0349 -1.0410 -0.7002
 1201SOL    HW3 4803   0.349   2.665   1.209  1.1837 -0.2770 -1.0198
 1201SOL    MW4 4804   0.403   2.632   1.269  0.4785 -0.2046 -0.3272
 1202SOL     OW 4805   0.182   4.628   2.570  0.6741  0.1821 -0.2346
 1202SOL    HW2 4806   0.165   4.536   2.591  1.3433  0.1187  0.0465
 1202SOL    HW3 4807   0.100   4.673   2.592  0.2876 -0.3702 -0.5276
 1202SOL    MW4 4808   0.169   4.622   2.576  0.7114  0.1009 -0.2362
 1203SOL     OW 4809   2.635   3.943   2.212 -0.4445  0.4324 -0.2498
 1203SOL    HW2 4810   2.553   3.911   2.249  0.2535  1.0187  1.9019
 1203SOL    HW3 4811   2.703   3.900   2.264  0.6002  0.2778 -1.7266
 1203SOL    MW4 4812   2.633   3.933   2.224 -0.2146  0.4893 -0.1608
 1204SOL     OW 4813   4.439   0.151   2.166 -0.5109 -0.3073 -0.0021
 1204SOL    HW2 4814   4.359   0.102   2.186 -0.2043 -0.4298  0.9628
 1204SOL    HW3 4815   4.507   0.107   2.216  0.1268 -0.0660 -0.6467
 1204SOL    MW4 4816   4.437   0.139   2.175 -0.3863 -0.2916  0.0401
 1205SOL     OW 4817   4.450   0.421   2.219  0.0480  0.3219 -0.3585
 1205SOL    HW2 4818   4.541   0.445   2.199 -0.1665  0.6928 -0.9014
 1205SOL    HW3 4819   4.445   0.328   2.199  0.8629 -0.1838  1.6886
 1205SOL    MW4 4820   4.461   0.412   2.214  0.1272  0.3041 -0.1600
 1206SOL     OW 4821   0.937   3.207   2.234  0.1626 -0.0420  0.2508
 1206SOL    HW2 4822   0.848   3.178   2.250 -0.1146 -0.2136 -1.4501
 1206SOL    HW3 4823   0.935   3.302   2.247 -0.7894  0.2556 -1.7729
 1206SOL    MW4 4824   0.925   3.215   2.238  0.0004 -0.0254 -0.2406
 1207SOL     OW 4825   2.641   0.245   1.195  0.2349  0.0531  0.0659
 1207SOL    HW2 4826   2.574   0.177   1.186  0.9299 -0.9230  1.8069
 1207SOL    HW3 4827   2.723   0.200   1.173  0.3357  1.2113 -1.9495
 1207SOL    MW4 4828   2.643   0.230   1.191  0.3399  0.0771  0.0297
 1208SOL     OW 4829   1.034   0.558   1.112 -0.2941 -0.3630  0.0081
 1208SOL    HW2 4830   0.986   0.480   1.082  1.3174 -1.5385  0.4563
 1208SOL    HW3 4831   1.112   0.561   1.057 -1.2589  2.0205 -1.2768
 1208SOL    MW4 4832   1.038   0.548   1.101 -0.2088 -0.2036 -0.1023
 1209SOL     OW 4833   4.260   1.108   1.813 -0.3536  0.1561  0.2142
 1209SOL    HW2 4834   4.200   1.175   1.847 -0.3417  0.0491  0.4459
 1209SOL    HW3 4835   4.233   1.028   1.857  0.4066  0.2388  0.8355
 1209SOL    MW4 4836   4.248   1.107   1.824 -0.2518  0.1529  0.3267
 1210SOL     OW 4837   0.246   2.045   2.141  0.4484  0.5639 -0.5176
 1210SOL    HW2 4838   0.247   2.135   2.174  0.3775  0.0861  0.8487
 1210SOL    HW3 4839   0.329   2.008   2.173  0.2508  0.0096 -0.6537
 1210SOL    MW4 4840   0.257   2.052   2.150  0.4130  0.4277 -0.3553
 1211SOL     OW 4841   0.314   3.242   1.184  0.5256  0.0818  0.0095
 1211SOL    HW2 4842   0.301   3.170   1.245  2.1551 -1.0750 -0.9527
 1211SOL    HW3 4843   0.262   3.219   1.107 -0.5632  0.9440  0.4733
 1211SOL    MW4 4844   0.306   3.230   1.182  0.5970  0.0430 -0.0563
 1212SOL     OW 4845   4.230   2.011   2.270  0.3347  0.1716  0.0189
 1212SOL    HW2 4846   4.176   1.996   2.348 -0.2472  0.1734 -0.3779
 1212SOL    HW3 4847   4.255   2.103   2.276  0.8050  0.0103  0.5237
 1212SOL    MW4 4848   4.226   2.021   2.281  0.3199  0.1506  0.0331
 1213SOL     OW 4849   0.198   2.111   0.712  0.3598  0.2595 -0.1287
 1213SOL    HW2 4850   0.187   2.120   0.807  0.0451  1.4577 -0.2786
 1213SOL    HW3 4851   0.114   2.137   0.675  0.6111  0.1793 -0.7652
 1213SOL    MW4 4852   0.186   2.115   0.720  0.3514  0.4070 -0.2325
 1214SOL     OW 4853   0.314   2.302   2.541 -0.2418  0.5168 -0.0042
 1214SOL    HW2 4854   0.228   2.335   2.565 -0.8600 -0.6024 -0.6426
 1214SOL    HW3 4855   0.376   2.355   2.592 -1.2574  1.9730 -0.2781
 1214SOL    MW4 4856   0.311   2.313   2.551 -0.4574  0.5612 -0.1246
 1215SOL     OW 4857   0.017   2.384   2.195 -0.3033 -0.2467 -0.0815
 1215SOL    HW2 4858  -0.001   2.384   2.101  3.0030  0.2547 -0.7633
 1215SOL    HW3 4859   0.009   2.476   2.220 -1.8875 -0.4710  0.3174
 1215SOL    MW4 4860   0.013   2.396   2.186 -0.0761 -0.2101 -0.1188
 1216SOL     OW 4861   4.086   4.644   0.365 -0.0316  0.0058  0.0776
 1216SOL    HW2 4862   4.107   4.694   0.444  0.2141  1.7694 -1.0621
 1216SOL    HW3 4863   4.158   4.665   0.304  0.4212 -2.2677 -0.2108
 1216SOL    MW4 4864   4.099   4.654   0.367  0.0606 -0.0615 -0.1108
 1217SOL     OW 4865   3.221   1.647   1.971 -0.2026 -0.0869  0.3346
 1217SOL    HW2 4866   3.177   1.631   2.054  0.1055  1.5488  0.8424
 1217SOL    HW3 4867   3.180   1.587   1.909 -0.4499 -1.3031  1.6613
 1217SOL    MW4 4868   3.210   1.637   1.974 -0.1946 -0.0315  0.5766
 1218SOL     OW 4869   2.667   2.899   1.259 -0.4159 -0.1286  0.5537
 1218SOL    HW2 4870   2.643   2.824   1.314 -1.6762 -2.7034 -3.3166
 1218SOL    HW3 4871   2.735   2.866   1.201 -0.5255  1.9186 -0.7813
 1218SOL    MW4 4872   2.673   2.885   1.259 -0.5966 -0.1982 -0.1331
 1219SOL     OW 4873   4.111   4.023   0.722 -0.2153  0.3403  0.0002
 1219SOL    HW2 4874   4.075   4.102   0.681  0.7807  0.5744 -0.4531
 1219SOL    HW3 4875   4.151   3.975   0.650  0.4180  0.1174  0.4993
 1219SOL    MW4 4876   4.112   4.027   0.707 -0.0003  0.3418  0.0063
 1220SOL     OW 4877   0.343   2.896   0.525 -0.4810  0.1713  0.4406
 1220SOL    HW2 4878   0.303   2.946   0.453 -0.3281 -0.6091 -0.1896
 1220SOL    HW3 4879   0.269   2.856   0.570 -0.4818 -0.4616 -0.1205
 1220SOL    MW4 4880   0.328   2.897   0.521 -0.4609 -0.0151  0.2834
 1221SOL     OW 4881   0.636   3.849   2.281 -0.0053  0.0035 -0.7034
 1221SOL    HW2 4882   0.708   3.910   2.263 -0.2013  0.3616 -0.2761
 1221SOL    HW3 4883   0.646   3.826   2.373 -1.6448  1.6577 -0.0911
 1221SOL    MW4 4884   0.647   3.854   2.290 -0.2474  0.2690 -0.5662
 1222SOL     OW 4885   4.137   4.127   1.461  0.0464 -0.1555  0.0622
 1222SOL    HW2 4886   4.177   4.040   1.472 -1.9245 -1.1100 -0.0582
 1222SOL    HW3 4887   4.135   4.163   1.550 -0.4897 -0.8714  0.3529
 1222SOL    MW4 4888   4.142   4.120   1.474 -0.2844 -0.3759  0.0847
 1223SOL     OW 4889   0.493   0.281   1.675  0.4034  0.2345  0.9268
 1223SOL    HW2 4890   0.554   0.227   1.624  0.1692 -0.4000  1.3119
 1223SOL    HW3 4891   0.423   0.220   1.699  1.0640  0.2546  2.9623
 1223SOL    MW4 4892   0.492   0.266   1.671  0.4596  0.1534  1.2462
 1224SOL     OW 4893   4.350   0.011   0.197  0.5502 -0.2851  0.4601
 1224SOL    HW2 4894   4.395   0.069   0.259 -0.5126  0.7974  0.2410
 1224SOL    HW3 4895   4.377   0.043   0.111  1.3246 -1.2222  0.3521
 1224SOL    MW4 4896   4.359   0.023   0.194  0.5121 -0.2660  0.4169
 1225SOL     OW 4897   0.160   4.638   2.291 -0.3858  0.2875  0.6725
 1225SOL    HW2 4898   0.244   4.681   2.275  1.1082 -2.9657 -0.5838
 1225SOL    HW3 4899   0.146   4.649   2.385  0.5659  2.3586  0.6082
 1225SOL    MW4 4900   0.170   4.645   2.301 -0.0631  0.1315  0.4982
 1226SOL     OW 4901   0.663   0.020   2.242  0.0015  0.0656  0.0066
 1226SOL    HW2 4902   0.695  -0.009   2.328  0.0873 -2.3341 -0.8123
 1226SOL    HW3 4903   0.742   0.041   2.193 -0.0037  0.4833  0.1727
 1226SOL    MW4 4904   0.678   0.019   2.247  0.0121 -0.1959 -0.0796
 1227SOL     OW 4905   1.551   1.945   0.688 -0.5133  0.1785 -0.0044
 1227SOL    HW2 4906   1.624   1.968   0.631  1.4487 -3.2367  1.0437
 1227SOL    HW3 4907   1.513   2.030   0.714  1.1848  1.8933 -2.9124
 1227SOL    MW4 4908   1.555   1.959   0.684 -0.0304 -0.0458 -0.2498
 1228SOL     OW 4909   1.331   4.554   0.263  0.4997  0.4208 -0.1073
 1228SOL    HW2 4910   1.361   4.560   0.173  1.6737 -1.6753  0.0988
 1228SOL    HW3 4911   1.344   4.642   0.300  2.7893  0.5435 -1.1404
 1228SOL    MW4 4912   1.336   4.566   0.256  0.9567  0.1605 -0.2164
 1229SOL     OW 4913   0.220   0.492   2.163  0.6546 -0.1442 -0.2089
 1229SOL    HW2 4914   0.217   0.510   2.069 -2.3370  0.6040 -0.0294
 1229SOL    HW3 4915   0.230   0.577   2.204 -0.6125 -0.1792  0.2086
 1229SOL    MW4 4916   0.221   0.505   2.156  0.0927 -0.0501 -0.1302
 1230SOL     OW 4917   0.243   0.772   2.264  0.1839  0.1244 -0.0175
 1230SOL    HW2 4918   0.216   0.783   2.355 -0.9550 -1.2087 -0.1767
 1230SOL    HW3 4919   0.165   0.795   2.213 -0.1112 -1.9136 -0.5494
 1230SOL    MW4 4920   0.229   0.777   2.269 -0.0053 -0.3204 -0.1087
 1231SOL     OW 4921   2.276   0.608   0.928 -0.9432  0.3716  0.2564
 1231SOL    HW2 4922   2.346   0.577   0.870 -1.0647  0.5240  0.0287
 1231SOL    HW3 4923   2.306   0.584   1.016 -0.2333  1.1233  0.2380
 1231SOL    MW4 4924   2.289   0.601   0.932 -0.8655  0.4909  0.2240
 1232SOL     OW 4925   0.234   1.226   2.182 -0.0256 -0.7170  1.0153
 1232SOL    HW2 4926   0.233   1.317   2.212  1.3448 -0.7667  1.2472
 1232SOL    HW3 4927   0.142   1.199   2.183 -0.4905  0.7976  0.5527
 1232SOL    MW4 4928   0.222   1.235   2.186  0.0939 -0.5237  0.9848
 1233SOL     OW 4929   2.018   1.575   1.899 -0.2491 -0.3104  0.2603
 1233SOL    HW2 4930   2.093   1.584   1.841  0.9764 -1.8100  1.5532
 1233SOL    HW3 4931   1.942   1.565   1.841  0.8509 -1.0139 -1.0762
 1233SOL    MW4 4932   2.018   1.575   1.884  0.0577 -0.6011  0.2545
 1234SOL     OW 4933   0.718   1.245   2.146  0.4643 -0.7379 -0.6433
 1234SOL    HW2 4934   0.735   1.224   2.054  1.1844 -0.3517 -0.6021
 1234SOL    HW3 4935   0.630   1.212   2.162  1.0666 -2.5684 -0.9446
 1234SOL    MW4 4936   0.709   1.238   2.136  0.6388 -0.9285 -0.6776
 1235SOL     OW 4937   0.402   0.935   1.887 -0.3278 -0.6670 -0.1815
 1235SOL    HW2 4938   0.446   1.007   1.841 -0.2632 -0.7298 -0.2163
 1235SOL    HW3 4939   0.431   0.943   1.978 -1.7737  0.5183  0.2189
 1235SOL    MW4 4940   0.411   0.946   1.893 -0.5101 -0.5189 -0.1332
 1236SOL     OW 4941   0.476   1.934   2.242  0.2245  0.1889 -0.1651
 1236SOL    HW2 4942   0.485   1.844   2.211 -1.9275  0.1950 -0.8640
 1236SOL    HW3 4943   0.554   1.978   2.208 -0.0577 -0.7749 -2.1585
 1236SOL    MW4 4944   0.488   1.928   2.233 -0.0966  0.0625 -0.5203
 1237SOL     OW 4945   0.894   1.652   1.827  0.4472 -0.2426 -0.0155
 1237SOL    HW2 4946   0.880   1.665   1.920 -1.1298 -0.0352 -0.2595
 1237SOL    HW3 4947   0.835   1.581   1.803  0.9532 -0.4003 -0.8282
 1237SOL    MW4 4948   0.884   1.644   1.836  0.3059 -0.2360 -0.1549
 1238SOL     OW 4949   0.888   2.397   1.909 -0.0859 -0.4392  0.4085
 1238SOL    HW2 4950   0.866   2.304   1.911 -0.5453 -0.3220  0.8083
 1238SOL    HW3 4951   0.957   2.404   1.843 -1.0045 -0.8549 -0.5970
 1238SOL    MW4 4952   0.895   2.386   1.901 -0.2677 -0.4786  0.3286
 1239SOL     OW 4953   1.046   2.472   1.632 -0.1558 -0.5938  0.0249
 1239SOL    HW2 4954   1.004   2.476   1.546  1.0735 -0.3406 -0.5692
 1239SOL    HW3 4955   1.036   2.561   1.667  0.8101 -0.2587 -0.5565
 1239SOL    MW4 4956   1.039   2.484   1.625  0.1338 -0.5162 -0.1302
 1240SOL     OW 4957   0.237   1.492   2.250  0.0357  0.0301  0.4344
 1240SOL    HW2 4958   0.318   1.535   2.225  0.1583 -0.1930  0.4463
 1240SOL    HW3 4959   0.228   1.509   2.344 -0.4424  0.8986  0.2329
 1240SOL    MW4 4960   0.246   1.500   2.259 -0.0112  0.1153  0.4094
 1241SOL     OW 4961   3.768   3.893   2.269  0.5221 -0.6278 -0.5928
 1241SOL    HW2 4962   3.775   3.809   2.224  1.1924 -1.2548  0.6638
 1241SOL    HW3 4963   3.801   3.876   2.357  1.0183  1.0426 -0.4424
 1241SOL    MW4 4964   3.773   3.880   2.275  0.6760 -0.4901 -0.4072
 1242SOL     OW 4965   0.704   3.059   2.285 -0.4264 -0.2697  0.0223
 1242SOL    HW2 4966   0.700   2.973   2.242 -1.5115 -1.5041  2.4583
 1242SOL    HW3 4967   0.616   3.096   2.273 -0.8317 -0.7567  1.3851
 1242SOL    MW4 4968   0.691   3.052   2.278 -0.6230 -0.4968  0.5235
 1243SOL     OW 4969   3.864   3.883   1.815 -0.4410 -0.0756  0.1335
 1243SOL    HW2 4970   3.828   3.898   1.727 -0.0566 -0.2260 -0.0521
 1243SOL    HW3 4971   3.949   3.843   1.799 -0.4425 -0.2603  0.5811
 1243SOL    MW4 4972   3.870   3.880   1.801 -0.3905 -0.1198  0.1681
 1244SOL     OW 4973   3.291   3.636   2.143  0.1579 -0.2544 -0.3775
 1244SOL    HW2 4974   3.223   3.572   2.165 -0.9190  0.6096 -1.1197
 1244SOL    HW3 4975   3.287   3.701   2.213  0.1725 -0.1652 -0.4596
 1244SOL    MW4 4976   3.281   3.636   2.155  0.0177 -0.1286 -0.4862
 1245SOL     OW 4977   4.423   3.461   2.260  0.4290  0.7772 -0.4940
 1245SOL    HW2 4978   4.328   3.453   2.255  0.4979 -0.5828  0.0176
 1245SOL    HW3 4979   4.443   3.455   2.353  1.0391  0.7021 -0.6295
 1245SOL    MW4 4980   4.413   3.459   2.271  0.5186  0.5879 -0.4444
 1246SOL     OW 4981   0.389   3.982   2.172 -0.0955  0.2763 -0.2852
 1246SOL    HW2 4982   0.467   3.935   2.202  1.0552  2.2361 -0.1053
 1246SOL    HW3 4983   0.317   3.943   2.221  0.6610 -1.9584 -0.8653
 1246SOL    MW4 4984   0.390   3.971   2.182  0.1561  0.2400 -0.3380
 1247SOL     OW 4985   1.257   1.301   0.783  0.8114 -0.1730 -0.4769
 1247SOL    HW2 4986   1.323   1.250   0.737  0.4683 -1.2048  0.1609
 1247SOL    HW3 4987   1.173   1.267   0.751  0.5778  0.8481 -0.9782
 1247SOL    MW4 4988   1.255   1.290   0.773  0.7353 -0.1744 -0.4589
 1248SOL     OW 4989   2.069   2.485   1.275 -0.5795  0.3534  0.1204
 1248SOL    HW2 4990   2.051   2.560   1.219  1.4948  1.5067  0.9409
 1248SOL    HW3 4991   2.061   2.518   1.364 -1.4980 -0.8673  0.4973
 1248SOL    MW4 4992   2.066   2.499   1.279 -0.4270  0.3445  0.2784
 1249SOL     OW 4993   1.076   4.415   2.150  0.1914  0.2376 -0.4552
 1249SOL    HW2 4994   1.133   4.433   2.075  0.6070  0.9036  0.0085
 1249SOL    HW3 4995   1.080   4.496   2.202 -1.7487  0.5573 -0.7785
 1249SOL    MW4 4996   1.084   4.428   2.147 -0.0098  0.3676 -0.4367
 1250SOL     OW 4997   0.914   0.122   2.135  0.2562 -0.1398 -0.0984
 1250SOL    HW2 4998   0.979   0.082   2.193 -0.7332  0.6565  1.5934
 1250SOL    HW3 4999   0.899   0.209   2.171 -2.6627 -0.7409  0.2976
 1250SOL    MW4 5000   0.920   0.128   2.147 -0.2594 -0.1141  0.1771
 1251SOL     OW 5001   3.942   3.660   0.636 -0.1966  0.3095 -0.3077
 1251SOL    HW2 5002   3.921   3.746   0.672 -0.1377  0.8792 -1.6336
 1251SOL    HW3 5003   3.858   3.623   0.611  0.0055  1.0506 -2.1327
 1251SOL    MW4 5004   3.928   3.667   0.638 -0.1621  0.4825 -0.7234
 1252SOL     OW 5005   0.915   0.376   2.263 -0.3093 -0.0388 -0.5294
 1252SOL    HW2 5006   0.994   0.419   2.230  0.6913 -1.9890 -0.6964
 1252SOL    HW3 5007   0.843   0.430   2.229  0.9578  2.4159  0.5916
 1252SOL    MW4 5008   0.916   0.389   2.254 -0.0101  0.0278 -0.4035
 1253SOL     OW 5009   3.523   0.088   1.268  0.3629 -0.1301  0.3066
 1253SOL    HW2 5010   3.499   0.040   1.347  0.5540 -0.5750  0.0939
 1253SOL    HW3 5011   3.533   0.021   1.201 -1.0430  0.3511 -0.4148
 1253SOL    MW4 5012   3.521   0.073   1.269  0.2026 -0.1253  0.1834
 1254SOL     OW 5013   1.137   0.514   2.147  0.0433  0.5731 -0.5956
 1254SOL    HW2 5014   1.117   0.600   2.186 -1.4129 -0.1192  0.2152
 1254SOL    HW3 5015   1.225   0.494   2.179  0.3726  1.7420 -0.7468
 1254SOL    MW4 5016   1.146   0.523   2.157 -0.1054  0.6360 -0.5086
 1255SOL     OW 5017   0.901   0.848   2.106  0.1817 -0.3578 -0.3339
 1255SOL    HW2 5018   0.837   0.785   2.140  0.5906 -0.2070  0.7355
 1255SOL    HW3 5019   0.881   0.854   2.013 -0.7666 -1.0144 -0.1849
 1255SOL    MW4 5020   0.890   0.841   2.098  0.1106 -0.4246 -0.1732
 1256SOL     OW 5021   2.060   1.989   1.190  0.1098  0.6277 -0.5668
 1256SOL    HW2 5022   2.114   1.941   1.128 -0.3421  1.4537 -1.6218
 1256SOL    HW3 5023   2.112   2.067   1.211  0.7934 -0.2412  1.0489
 1256SOL    MW4 5024   2.074   1.993   1.185  0.1404  0.6220 -0.4928
 1257SOL     OW 5025   1.155   1.273   2.154  0.3949 -0.4250  0.4674
 1257SOL    HW2 5026   1.228   1.262   2.216 -0.6760 -0.8371  1.6842
 1257SOL    HW3 5027   1.088   1.212   2.185  0.1436 -1.2589 -1.6045
 1257SOL    MW4 5028   1.156   1.263   2.166  0.2204 -0.5894  0.3546
 1258SOL     OW 5029   0.905   1.904   2.249 -0.2950 -0.5558  0.2391
 1258SOL    HW2 5030   0.901   1.901   2.345 -0.8799  1.1110  0.2800
 1258SOL    HW3 5031   0.984   1.954   2.230 -0.9798  0.3756 -0.1339
 1258SOL    MW4 5032   0.915   1.910   2.259 -0.4625 -0.2130  0.1952
 1259SOL     OW 5033   1.039   1.355   1.224  0.1792 -0.0522  0.1876
 1259SOL    HW2 5034   0.957   1.320   1.190  0.6996 -1.4349  0.3194
 1259SOL    HW3 5035   1.014   1.399   1.306 -0.5855  0.5099 -0.3413
 1259SOL    MW4 5036   1.025   1.356   1.231  0.1469 -0.1605  0.1352
 1260SOL     OW 5037   0.684   2.285   2.267  0.1868  0.1395  0.6704
 1260SOL    HW2 5038   0.695   2.331   2.350  1.3354  1.1315 -0.0255
 1260SOL    HW3 5039   0.610   2.329   2.225  0.6072  0.6548  0.4739
 1260SOL    MW4 5040   0.675   2.297   2.272  0.3938  0.3384  0.5527
 1261SOL     OW 5041   3.886   4.063   1.360  0.1687  0.0503 -0.3530
 1261SOL    HW2 5042   3.885   4.012   1.280  2.0460 -0.1261 -0.2708
 1261SOL    HW3 5043   3.978   4.076   1.380 -0.2794 -0.0298  1.8674
 1261SOL    MW4 5044   3.898   4.058   1.352  0.3572  0.0165 -0.0492
 1262SOL     OW 5045   1.129   2.063   2.210  0.1204  0.6420  0.6618
 1262SOL    HW2 5046   1.210   2.021   2.239  1.4795  1.4316 -1.8451
 1262SOL    HW3 5047   1.140   2.156   2.232  0.1682  0.8517 -0.2160
 1262SOL    MW4 5048   1.141   2.070   2.216  0.3060  0.7739  0.2152
 1263SOL     OW 5049   1.381   2.733   2.282  0.3407  0.1972 -0.6126
 1263SOL    HW2 5050   1.389   2.642   2.255 -1.5078 -0.1009 -0.2019
 1263SOL    HW3 5051   1.310   2.768   2.228  0.3910  1.1370 -0.0858
 1263SOL    MW4 5052   1.373   2.726   2.271  0.1035  0.2819 -0.4889
 1264SOL     OW 5053   0.996   2.681   1.194  0.2102  0.0474 -0.2371
 1264SOL    HW2 5054   1.091   2.693   1.192  0.5509 -2.2052  0.8012
 1264SOL    HW3 5055   0.972   2.664   1.103  0.8041  0.4647 -0.4790
 1264SOL    MW4 5056   1.006   2.681   1.182  0.3335 -0.1948 -0.1320
 1265SOL     OW 5057   1.639   4.226   1.150  0.1640 -0.2379 -0.2694
 1265SOL    HW2 5058   1.653   4.307   1.101 -0.2946  0.3500  0.5680
 1265SOL    HW3 5059   1.586   4.252   1.225 -0.0289 -1.3257 -0.0240
 1265SOL    MW4 5060   1.634   4.240   1.154  0.0780 -0.3038 -0.1265
 1266SOL     OW 5061   1.167   3.052   2.280  0.0784  0.0506 -0.6086
 1266SOL    HW2 5062   1.089   3.098   2.250  0.6116  1.4226  0.0349
 1266SOL    HW3 5063   1.168   2.970   2.231 -1.7144  0.0637 -0.6706
 1266SOL    MW4 5064   1.157   3.047   2.270 -0.0878  0.2333 -0.5319
 1267SOL     OW 5065   4.282   1.359   0.765 -0.3544 -0.1474  0.3218
 1267SOL    HW2 5066   4.231   1.431   0.803  2.1751  1.8780  0.0040
 1267SOL    HW3 5067   4.297   1.386   0.674  2.2791 -0.0831  0.7375
 1267SOL    MW4 5068   4.277   1.372   0.758  0.3268  0.1283  0.3347
 1268SOL     OW 5069   0.892   3.478   2.253 -0.4484  0.2152  0.3800
 1268SOL    HW2 5070   0.880   3.494   2.347 -1.8250 -0.2090  0.2794
 1268SOL    HW3 5071   0.815   3.517   2.212  1.8059  3.5279 -0.9342
 1268SOL    MW4 5072   0.880   3.486   2.260 -0.3326  0.5963  0.1934
 1269SOL     OW 5073   1.122   3.639   2.147 -0.2179 -0.1062  0.1923
 1269SOL    HW2 5074   1.186   3.573   2.174 -0.5470 -0.0805  1.0231
 1269SOL    HW3 5075   1.037   3.604   2.175 -0.5521 -0.0203 -0.6765
 1269SOL    MW4 5076   1.119   3.625   2.154 -0.3054 -0.0915  0.1873
 1270SOL     OW 5077   1.137   3.912   2.236  0.7037 -0.1868 -0.3247
 1270SOL    HW2 5078   1.218   3.960   2.216  0.1923  0.7392 -0.2329
 1270SOL    HW3 5079   1.145   3.830   2.187  1.3341  0.2459 -0.9706
 1270SOL    MW4 5080   1.149   3.908   2.227  0.7194 -0.0075 -0.3978
 1271SOL     OW 5081   0.864   4.010   2.243  0.1962 -0.2480 -0.0181
 1271SOL    HW2 5082   0.955   3.985   2.229  0.5461  1.2022 -0.3629
 1271SOL    HW3 5083   0.865   4.106   2.249 -1.4786 -0.1213 -1.3316
 1271SOL    MW4 5084   0.876   4.019   2.242  0.0214 -0.0400 -0.2369
 1272SOL     OW 5085   0.853   4.287   2.261  0.3576 -0.1257 -0.5323
 1272SOL    HW2 5086   0.932   4.319   2.218  0.7100 -1.6460 -1.0334
 1272SOL    HW3 5087   0.782   4.339   2.222  0.8008 -0.6873 -2.1174
 1272SOL    MW4 5088   0.854   4.298   2.250  0.4626 -0.4004 -0.8075
 1273SOL     OW 5089   1.110   0.004   2.267  0.2341  0.3612  0.0955
 1273SOL    HW2 5090   1.195   0.048   2.264  0.0229  0.7734  0.0838
 1273SOL    HW3 5091   1.098  -0.018   2.359  0.1469  0.7114  0.1670
 1273SOL    MW4 5092   1.120   0.007   2.279  0.1947  0.4618  0.1034
 1274SOL     OW 5093   1.575   4.647   2.319  0.0944  0.7618 -0.2549
 1274SOL    HW2 5094   1.641   4.686   2.260  1.5563  1.9279  2.0846
 1274SOL    HW3 5095   1.493   4.689   2.293  0.7278  1.3097 -1.4427
 1274SOL    MW4 5096   1.573   4.658   2.308  0.3708  0.9880 -0.1029
 1275SOL     OW 5097   1.351   0.118   2.242 -0.2152 -0.0377  0.1340
 1275SOL    HW2 5098   1.390   0.205   2.232 -0.3874  0.0698  0.3820
 1275SOL    HW3 5099   1.359   0.077   2.156 -1.3012  0.7072 -0.3260
 1275SOL    MW4 5100   1.357   0.124   2.229 -0.3812  0.0747  0.1060
 1276SOL     OW 5101   1.397   0.393   2.242 -0.0935 -0.0678  0.5311
 1276SOL    HW2 5102   1.386   0.395   2.337  0.6413  1.2030  0.5953
 1276SOL    HW3 5103   1.477   0.442   2.226 -1.1092  1.1670 -0.8900
 1276SOL    MW4 5104   1.406   0.400   2.252 -0.1306  0.2628  0.3521
 1277SOL     OW 5105   0.691   3.369   1.192  0.2070  0.5931 -0.1053
 1277SOL    HW2 5106   0.778   3.393   1.159  0.5250 -0.3952  0.0047
 1277SOL    HW3 5107   0.687   3.408   1.279  0.3556  1.0518 -0.3044
 1277SOL    MW4 5108   0.702   3.377   1.200  0.2685  0.5232 -0.1171
 1278SOL     OW 5109   0.557   1.251   0.677 -0.1335 -0.2749 -0.0425
 1278SOL    HW2 5110   0.599   1.316   0.621 -0.0563  0.8268  1.2780
 1278SOL    HW3 5111   0.464   1.260   0.659 -0.0199 -0.8152 -0.9342
 1278SOL    MW4 5112   0.551   1.261   0.668 -0.1083 -0.2008  0.0141
 1279SOL     OW 5113   1.169   0.783   2.245  0.3429  0.3769 -1.0513
 1279SOL    HW2 5114   1.094   0.837   2.220  0.2999  0.0322 -1.6817
 1279SOL    HW3 5115   1.240   0.811   2.187  0.1051 -0.7663 -1.9115
 1279SOL    MW4 5116   1.168   0.794   2.234  0.3058  0.1806 -1.2479
 1280SOL     OW 5117   1.346   1.469   1.911 -0.4205  0.1677 -0.4140
 1280SOL    HW2 5118   1.298   1.502   1.835 -1.2111  0.5427  0.2402
 1280SOL    HW3 5119   1.287   1.483   1.985  0.3903 -0.0801  0.2932
 1280SOL    MW4 5120   1.332   1.475   1.911 -0.4178  0.1845 -0.2344
 1281SOL     OW 5121   2.598   4.095   1.659  0.0731  0.1451 -0.0430
 1281SOL    HW2 5122   2.648   4.173   1.681 -0.7092  0.5650  0.2702
 1281SOL    HW3 5123   2.512   4.128   1.634  0.6033 -0.4000 -2.7309
 1281SOL    MW4 5124   2.593   4.109   1.659  0.0399  0.1286 -0.3563
 1282SOL     OW 5125   2.232   2.252   0.969 -0.1539 -0.3772  0.4380
 1282SOL    HW2 5126   2.319   2.211   0.960 -0.7447 -1.3743 -0.8119
 1282SOL    HW3 5127   2.244   2.340   0.934  0.5606 -0.2161  1.0566
 1282SOL    MW4 5128   2.245   2.258   0.963 -0.1376 -0.4875  0.3547
 1283SOL     OW 5129   1.364   1.104   2.027 -0.0587 -0.2657 -0.1549
 1283SOL    HW2 5130   1.311   1.166   2.078  0.4724 -0.3555  0.5149
 1283SOL    HW3 5131   1.330   1.111   1.938  0.6503  1.7497 -0.3045
 1283SOL    MW4 5132   1.352   1.113   2.022  0.1049 -0.0116 -0.0863
 1284SOL     OW 5133   1.931   4.358   1.355 -0.1389  0.0488 -0.1869
 1284SOL    HW2 5134   1.926   4.276   1.306 -0.8950  0.7832 -1.3547
 1284SOL    HW3 5135   2.024   4.366   1.378 -0.2897 -1.8570  1.2215
 1284SOL    MW4 5136   1.942   4.348   1.352 -0.2585 -0.1057 -0.1551
 1285SOL     OW 5137   1.872   0.064   0.171 -0.3860 -0.1314 -0.2802
 1285SOL    HW2 5138   1.946   0.055   0.111 -1.2685 -0.8490 -1.2801
 1285SOL    HW3 5139   1.851   0.157   0.171 -0.4118 -0.1354 -1.1351
 1285SOL    MW4 5140   1.879   0.075   0.163 -0.5058 -0.2266 -0.5249
 1286SOL     OW 5141   1.599   2.073   2.254 -0.6488 -0.1508  0.0307
 1286SOL    HW2 5142   1.612   2.149   2.311 -1.0379  1.1628 -1.5945
 1286SOL    HW3 5143   1.672   2.015   2.274  0.1877  1.0832  0.6082
 1286SOL    MW4 5144   1.610   2.075   2.264 -0.5898  0.1853 -0.1075
 1287SOL     OW 5145   2.050   3.935   1.809 -0.5887  0.3394  0.1104
 1287SOL    HW2 5146   2.076   3.855   1.854 -2.3045 -0.5947 -0.5013
 1287SOL    HW3 5147   2.063   4.004   1.874  0.4901 -0.4951  0.7865
 1287SOL    MW4 5148   2.055   3.934   1.824 -0.6728  0.1060  0.1189
 1288SOL     OW 5149   3.189   4.487   1.309  0.0740 -0.4018 -0.6836
 1288SOL    HW2 5150   3.245   4.445   1.374 -0.4455 -0.4163 -0.2385
 1288SOL    HW3 5151   3.166   4.571   1.349 -0.8471 -0.7221 -0.5248
 1288SOL    MW4 5152   3.193   4.493   1.323 -0.1160 -0.4460 -0.6039
 1289SOL     OW 5153   1.187   2.300   2.551 -0.0175  0.0918  0.0471
 1289SOL    HW2 5154   1.261   2.342   2.595 -2.1053  3.2249  0.8093
 1289SOL    HW3 5155   1.198   2.322   2.459  0.9424 -0.9773 -0.0962
 1289SOL    MW4 5156   1.198   2.308   2.545 -0.1663  0.3641  0.1288
 1290SOL     OW 5157   2.453   2.246   1.356  0.1851 -0.3110 -0.3028
 1290SOL    HW2 5158   2.364   2.268   1.329  1.2760  1.1032 -2.8367
 1290SOL    HW3 5159   2.470   2.160   1.317  0.2792 -0.1559 -0.5996
 1290SOL    MW4 5160   2.444   2.237   1.348  0.3415 -0.1039 -0.6763
 1291SOL     OW 5161   1.607   3.111   2.232 -0.1096 -0.1027  0.0708
 1291SOL    HW2 5162   1.593   3.106   2.326 -1.6973  1.5704 -0.0416
 1291SOL    HW3 5163   1.622   3.021   2.205 -0.4559 -0.6981  1.7967
 1291SOL    MW4 5164   1.607   3.099   2.241 -0.3648  0.0395  0.2837
 1292SOL     OW 5165   1.316   3.447   2.218  0.2527 -0.0793 -0.0206
 1292SOL    HW2 5166   1.308   3.444   2.313 -1.0429 -0.3856 -0.1273
 1292SOL    HW3 5167   1.333   3.356   2.193 -0.4607 -0.1801 -0.1574
 1292SOL    MW4 5168   1.317   3.435   2.227 -0.0124 -0.1330 -0.0527
 1293SOL     OW 5169   1.535   3.580   2.105  0.2438  0.1712  0.2659
 1293SOL    HW2 5170   1.466   3.542   2.160 -0.1498  0.9919  0.3463
 1293SOL    HW3 5171   1.496   3.660   2.070  1.2716  0.7977  0.5510
 1293SOL    MW4 5172   1.521   3.586   2.107  0.3275  0.3622  0.3141
 1294SOL     OW 5173   1.553   3.876   2.318 -0.0233  0.2452  0.0084
 1294SOL    HW2 5174   1.587   3.865   2.407  0.0142 -0.5494 -0.0981
 1294SOL    HW3 5175   1.628   3.901   2.266  0.0458  0.2574  0.1137
 1294SOL    MW4 5176   1.567   3.877   2.323 -0.0093  0.1420  0.0083
 1295SOL     OW 5177   1.353   4.030   2.173 -0.1682 -0.2763  0.0841
 1295SOL    HW2 5178   1.404   4.002   2.250  0.4507  0.4641 -0.0478
 1295SOL    HW3 5179   1.385   3.975   2.102 -1.8682 -2.0825  0.6626
 1295SOL    MW4 5180   1.364   4.019   2.174 -0.3108 -0.4169  0.1430
 1296SOL     OW 5181   1.335   4.296   2.258 -0.2249  0.6355 -0.1151
 1296SOL    HW2 5182   1.328   4.209   2.220  0.2132  0.8188 -0.6243
 1296SOL    HW3 5183   1.268   4.347   2.212  1.1456  1.1814 -1.5844
 1296SOL    MW4 5184   1.325   4.291   2.247  0.0138  0.7317 -0.3762
 1297SOL     OW 5185   1.591   4.387   2.167 -0.2152  0.9360 -0.1488
 1297SOL    HW2 5186   1.502   4.354   2.180  0.5139 -0.4659  1.3597
 1297SOL    HW3 5187   1.594   4.468   2.218 -0.1566  0.1545  1.1210
 1297SOL    MW4 5188   1.579   4.394   2.175 -0.1113  0.6479  0.2178
 1298SOL     OW 5189   2.474   4.645   2.300  0.1467 -0.3018 -0.4482
 1298SOL    HW2 5190   2.492   4.569   2.244  0.0274  1.0489 -2.3560
 1298SOL    HW3 5191   2.556   4.695   2.299  0.0058 -0.0561  0.2496
 1298SOL    MW4 5192   2.487   4.641   2.292  0.1123 -0.0912 -0.6079
 1299SOL     OW 5193   3.130   2.899   0.558 -0.8802  0.3321  0.2318
 1299SOL    HW2 5194   3.180   2.885   0.639 -0.7806  2.4177  0.5503
 1299SOL    HW3 5195   3.195   2.897   0.488 -1.0034 -1.7794  0.1278
 1299SOL    MW4 5196   3.145   2.897   0.560 -0.8833  0.3287  0.2601
 1300SOL     OW 5197   1.778   0.129   2.189  0.3617 -0.0732 -0.3245
 1300SOL    HW2 5198   1.772   0.217   2.227  0.8357 -0.2255  0.1124
 1300SOL    HW3 5199   1.799   0.144   2.097  0.6870  0.2611 -0.1952
 1300SOL    MW4 5200   1.780   0.143   2.182  0.4672 -0.0492 -0.2498
 1301SOL     OW 5201   2.601   1.608   1.217 -0.0685  0.6988  0.2877
 1301SOL    HW2 5202   2.566   1.599   1.306  0.1863 -1.1022  0.2172
 1301SOL    HW3 5203   2.537   1.661   1.171 -0.9657  0.3607  1.1303
 1301SOL    MW4 5204   2.588   1.614   1.223 -0.1532  0.4166  0.3895
 1302SOL     OW 5205   1.016   1.949   1.138 -0.1832 -0.5893  0.6327
 1302SOL    HW2 5206   1.013   1.874   1.197 -2.3648 -1.5806 -0.6864
 1302SOL    HW3 5207   1.088   1.929   1.077 -1.8655 -2.4964 -0.8002
 1302SOL    MW4 5208   1.025   1.937   1.137 -0.6930 -0.9717  0.2696
 1303SOL     OW 5209   2.027   0.039   2.270 -0.0429  0.2529  0.4317
 1303SOL    HW2 5210   2.023  -0.049   2.233 -0.5276  0.3135  0.3441
 1303SOL    HW3 5211   1.943   0.079   2.248 -0.0423  0.5463  0.9494
 1303SOL    MW4 5212   2.016   0.033   2.263 -0.1068  0.2996  0.4885
 1304SOL     OW 5213   2.150   1.353   2.010  0.3870  0.5309 -0.1317
 1304SOL    HW2 5214   2.121   1.352   2.101  1.0944  1.9742  0.1278
 1304SOL    HW3 5215   2.100   1.425   1.970  1.9182  1.5428 -0.2465
 1304SOL    MW4 5216   2.139   1.362   2.016  0.6823  0.8548 -0.1126
 1305SOL     OW 5217   2.881   4.167   0.291 -0.0291  0.2439  0.4137
 1305SOL    HW2 5218   2.856   4.078   0.316 -0.1965  0.0841 -0.3056
 1305SOL    HW3 5219   2.929   4.201   0.366  0.2461 -0.5467  0.5968
 1305SOL    MW4 5220   2.884   4.160   0.304 -0.0149  0.1185  0.3430
 1306SOL     OW 5221   2.045   2.037   2.143 -0.2761 -0.0155 -0.6198
 1306SOL    HW2 5222   2.119   1.982   2.167  0.1528  0.2858 -1.2658
 1306SOL    HW3 5223   1.969   1.994   2.184  0.4170  0.4393  1.2261
 1306SOL    MW4 5224   2.045   2.024   2.152 -0.1280  0.0842 -0.4615
 1307SOL     OW 5225   1.826   1.926   2.263  0.3762 -0.0806 -0.1937
 1307SOL    HW2 5226   1.850   1.906   2.353 -0.4203  1.3438  0.3302
 1307SOL    HW3 5227   1.832   1.841   2.218 -0.2262 -0.9901  1.4081
 1307SOL    MW4 5228   1.830   1.912   2.269  0.1916 -0.0127  0.0868
 1308SOL     OW 5229   1.371   1.909   2.231 -0.3841  0.0907 -0.3417
 1308SOL    HW2 5230   1.447   1.966   2.239 -1.0328  1.0280 -0.7849
 1308SOL    HW3 5231   1.359   1.897   2.136 -0.5242 -0.4085 -0.2649
 1308SOL    MW4 5232   1.379   1.915   2.219 -0.4881  0.1485 -0.3900
 1309SOL     OW 5233   2.925   2.813   1.161 -0.1037  0.5280 -0.2338
 1309SOL    HW2 5234   2.957   2.876   1.097  0.3678 -0.1343 -0.6541
 1309SOL    HW3 5235   3.000   2.755   1.177 -0.4704  0.1996  0.2962
 1309SOL    MW4 5236   2.939   2.814   1.155 -0.0899  0.3972 -0.2193
 1310SOL     OW 5237   2.260   2.437   2.183 -0.6829 -0.3919  0.0870
 1310SOL    HW2 5238   2.344   2.398   2.208 -0.3952 -1.2524 -2.1602
 1310SOL    HW3 5239   2.269   2.529   2.207  0.8300 -0.5140  0.0449
 1310SOL    MW4 5240   2.272   2.444   2.190 -0.4454 -0.5215 -0.2150
 1311SOL     OW 5241   0.148   4.513   0.693 -0.0876  0.5387  0.1037
 1311SOL    HW2 5242   0.191   4.569   0.758 -1.9784 -0.3693  2.2446
 1311SOL    HW3 5243   0.058   4.547   0.689 -0.5542 -0.7333 -0.4576
 1311SOL    MW4 5244   0.142   4.525   0.701 -0.3987  0.2511  0.3121
 1312SOL     OW 5245   1.831   2.641   2.283  0.3576  0.0685  0.0171
 1312SOL    HW2 5246   1.839   2.555   2.240  0.1438  0.4531 -0.8102
 1312SOL    HW3 5247   1.751   2.679   2.246  0.3885  0.5765  0.4643
 1312SOL    MW4 5248   1.821   2.635   2.272  0.3334  0.1862 -0.0330
 1313SOL     OW 5249   1.699   2.269   0.572 -0.1025  0.0912  0.3372
 1313SOL    HW2 5250   1.713   2.181   0.538 -0.8658 -0.3634  1.1558
 1313SOL    HW3 5251   1.643   2.256   0.649 -0.3638  1.3051  0.3634
 1313SOL    MW4 5252   1.693   2.256   0.578 -0.2377  0.1914  0.4486
 1314SOL     OW 5253   2.222   3.206   2.196 -0.4180  0.6275 -0.1960
 1314SOL    HW2 5254   2.234   3.296   2.225 -2.1844  0.6125  0.6066
 1314SOL    HW3 5255   2.155   3.170   2.254  0.2018 -1.1904 -0.5553
 1314SOL    MW4 5256   2.215   3.213   2.208 -0.5693  0.3857 -0.1375
 1315SOL     OW 5257   4.129   3.818   1.770  0.1183 -0.2042 -0.0784
 1315SOL    HW2 5258   4.158   3.837   1.859  1.1457 -0.3942 -0.3667
 1315SOL    HW3 5259   4.148   3.725   1.759  1.0443  0.0697 -0.8773
 1315SOL    MW4 5260   4.135   3.808   1.780  0.3760 -0.1931 -0.2218
 1316SOL     OW 5261   1.742   3.560   2.281  0.0379  0.6537 -0.2810
 1316SOL    HW2 5262   1.671   3.592   2.226 -0.8398  1.9889  1.5648
 1316SOL    HW3 5263   1.752   3.468   2.256 -1.8517  0.6347 -1.0791
 1316SOL    MW4 5264   1.734   3.552   2.270 -0.3272  0.8274 -0.1428
 1317SOL     OW 5265   2.922   2.941   1.426  0.5084  0.0444 -0.1795
 1317SOL    HW2 5266   2.923   2.924   1.331 -0.7843 -0.0329 -0.1920
 1317SOL    HW3 5267   2.850   3.003   1.438 -0.8454 -1.7216  1.0377
 1317SOL    MW4 5268   2.913   2.947   1.415  0.1592 -0.1988 -0.0206
 1318SOL     OW 5269   1.952   3.869   2.310 -0.0831 -0.3989  0.5393
 1318SOL    HW2 5270   1.971   3.782   2.274  0.0324 -0.2814  0.3189
 1318SOL    HW3 5271   1.978   3.863   2.402 -0.2735 -0.6645  0.5762
 1318SOL    MW4 5272   1.958   3.857   2.318 -0.0930 -0.4184  0.5151
 1319SOL     OW 5273   1.753   3.968   2.147 -0.2997  0.0398 -0.4158
 1319SOL    HW2 5274   1.757   4.057   2.181  0.4551  0.4724 -1.6263
 1319SOL    HW3 5275   1.817   3.919   2.198 -1.5296 -0.0892  1.0354
 1319SOL    MW4 5276   1.762   3.973   2.158 -0.3623  0.0798 -0.3840
 1320SOL     OW 5277   1.823   4.245   2.268 -0.1340 -0.3258  0.3878
 1320SOL    HW2 5278   1.896   4.303   2.246 -0.0833 -0.6051 -0.1912
 1320SOL    HW3 5279   1.745   4.289   2.233 -0.2916  0.1544  1.3386
 1320SOL    MW4 5280   1.822   4.258   2.260 -0.1481 -0.2993  0.4369
 1321SOL     OW 5281   2.464   0.524   2.223 -0.1309  0.1866 -0.2975
 1321SOL    HW2 5282   2.546   0.480   2.247  1.2414  3.0743  0.4738
 1321SOL    HW3 5283   2.486   0.574   2.144 -0.8790  1.6610  0.4099
 1321SOL    MW4 5284   2.478   0.525   2.216 -0.0486  0.7621 -0.1024
 1322SOL     OW 5285   2.988   3.545   0.892 -0.0798  0.1101 -0.0882
 1322SOL    HW2 5286   2.979   3.636   0.865 -0.5208  0.2196  0.4330
 1322SOL    HW3 5287   2.973   3.494   0.812 -0.8468  0.4500 -0.1586
 1322SOL    MW4 5288   2.985   3.550   0.878 -0.2392  0.1694 -0.0287
 1323SOL     OW 5289   1.176   1.963   0.877 -0.3335  0.0307  0.0111
 1323SOL    HW2 5290   1.113   1.910   0.828 -1.8684  0.9214  0.9621
 1323SOL    HW3 5291   1.247   1.903   0.898 -1.5646 -1.4042  0.1768
 1323SOL    MW4 5292   1.177   1.948   0.873 -0.6984 -0.0411  0.1584
 1324SOL     OW 5293   3.852   2.189   0.725  0.3320 -0.1682  0.8663
 1324SOL    HW2 5294   3.828   2.265   0.778 -0.0326 -0.5607  1.2676
 1324SOL    HW3 5295   3.797   2.196   0.647  3.2250  2.2547 -1.0818
 1324SOL    MW4 5296   3.841   2.200   0.722  0.6656  0.0997  0.6622
 1325SOL     OW 5297   0.128   3.582   0.683 -0.1485 -0.0811  0.2553
 1325SOL    HW2 5298   0.083   3.652   0.730 -0.9925  0.2268 -0.9778
 1325SOL    HW3 5299   0.200   3.556   0.741  0.0268  1.6298  0.8448
 1325SOL    MW4 5300   0.132   3.588   0.697 -0.2367  0.1853  0.1704
 1326SOL     OW 5301   2.070   0.489   1.833  0.3700 -0.3551  0.5367
 1326SOL    HW2 5302   2.152   0.534   1.814  0.6235 -0.4171  1.4430
 1326SOL    HW3 5303   2.003   0.557   1.823  0.6970  0.0991  1.3677
 1326SOL    MW4 5304   2.072   0.504   1.830  0.4466 -0.3034  0.7659
 1327SOL     OW 5305   2.743   4.279   1.427 -0.2561 -0.0413 -0.1754
 1327SOL    HW2 5306   2.735   4.368   1.463 -0.2778  0.5526 -1.5882
 1327SOL    HW3 5307   2.655   4.257   1.397 -0.2320 -0.5154  0.1032
 1327SOL    MW4 5308   2.731   4.288   1.428 -0.2558 -0.0255 -0.3251
 1328SOL     OW 5309   2.072   0.751   2.240  1.2536 -0.2194 -0.3976
 1328SOL    HW2 5310   2.057   0.662   2.206  0.1484 -0.8600  1.6500
 1328SOL    HW3 5311   2.078   0.739   2.335 -0.4692  2.1066  0.0366
 1328SOL    MW4 5312   2.071   0.737   2.248  0.8805  0.0030 -0.0702
 1329SOL     OW 5313   2.542   0.199   1.743  0.1585 -0.0498 -0.5839
 1329SOL    HW2 5314   2.487   0.185   1.820  2.7709 -0.5525  1.2622
 1329SOL    HW3 5315   2.525   0.123   1.688  0.1095 -0.9544  0.6445
 1329SOL    MW4 5316   2.532   0.187   1.746  0.4967 -0.2355 -0.1783
 1330SOL     OW 5317   1.567   2.164   1.992 -0.2765  0.4057  0.1521
 1330SOL    HW2 5318   1.590   2.158   2.084 -0.3717 -0.4144  0.1263
 1330SOL    HW3 5319   1.595   2.080   1.955 -0.4847  0.6243 -0.5071
 1330SOL    MW4 5320   1.573   2.152   1.999 -0.3166  0.3263  0.0617
 1331SOL     OW 5321   2.703   1.894   2.297 -0.2425  0.1232  0.1766
 1331SOL    HW2 5322   2.702   1.896   2.393 -0.9960 -1.1590  0.2007
 1331SOL    HW3 5323   2.684   1.803   2.275  3.5452 -0.4501 -1.1245
 1331SOL    MW4 5324   2.701   1.883   2.307  0.1578 -0.1216  0.0081
 1332SOL     OW 5325   2.252   1.894   2.247 -0.1489  0.1898  0.1636
 1332SOL    HW2 5326   2.258   1.805   2.214 -0.9234  0.2659 -0.1887
 1332SOL    HW3 5327   2.340   1.931   2.233  0.9329 -1.3115  2.6624
 1332SOL    MW4 5328   2.264   1.887   2.241 -0.1083  0.0017  0.4468
 1333SOL     OW 5329   2.944   2.296   2.297  0.2773 -0.0119 -0.9069
 1333SOL    HW2 5330   2.955   2.294   2.392  0.1403 -0.0252 -0.8910
 1333SOL    HW3 5331   2.934   2.204   2.272  0.9479 -0.0570 -1.0101
 1333SOL    MW4 5332   2.944   2.283   2.306  0.3477 -0.0196 -0.9185
 1334SOL     OW 5333   2.523   2.286   2.264  0.0989 -0.2446 -0.2097
 1334SOL    HW2 5334   2.613   2.307   2.242 -0.2106  0.2375 -1.0273
 1334SOL    HW3 5335   2.510   2.197   2.232  0.0811 -0.0691 -0.6875
 1334SOL    MW4 5336   2.533   2.277   2.257  0.0557 -0.1578 -0.3806
 1335SOL     OW 5337   2.067   2.273   2.305 -0.2893 -0.2865 -0.5244
 1335SOL    HW2 5338   2.135   2.338   2.287  0.0810 -0.2218  0.9582
 1335SOL    HW3 5339   2.076   2.208   2.235  1.9083 -0.7297  0.1005
 1335SOL    MW4 5340   2.077   2.273   2.294  0.0495 -0.3364 -0.2463
 1336SOL     OW 5341   2.200   2.710   2.325  0.4238  0.6019 -0.5135
 1336SOL    HW2 5342   2.117   2.755   2.310 -1.2226 -1.2231  2.7044
 1336SOL    HW3 5343   2.217   2.720   2.418  2.1013 -1.8690 -0.4873
 1336SOL    MW4 5344   2.191   2.717   2.335  0.4279  0.0351 -0.0855
 1337SOL     OW 5345   2.930   2.851   2.182  0.6465  0.1445  0.2337
 1337SOL    HW2 5346   3.000   2.795   2.216  1.1757 -0.2695 -1.5267
 1337SOL    HW3 5347   2.904   2.811   2.099 -1.0530  0.8210  0.4089
 1337SOL    MW4 5348   2.936   2.839   2.176  0.4921  0.1791  0.0246
 1338SOL     OW 5349   2.463   3.083   2.281  0.4208 -0.3392  0.2467
 1338SOL    HW2 5350   2.378   3.103   2.242  0.1024  0.6438  1.4056
 1338SOL    HW3 5351   2.470   2.987   2.277 -1.2620 -0.5134  1.2229
 1338SOL    MW4 5352   2.453   3.073   2.275  0.1567 -0.2325  0.5284
 1339SOL     OW 5353   2.360   2.630   1.570  0.3003  0.0225  0.2121
 1339SOL    HW2 5354   2.338   2.722   1.585  0.2100  0.0583 -0.1254
 1339SOL    HW3 5355   2.394   2.599   1.654 -0.0282  0.2612  0.4360
 1339SOL    MW4 5356   2.361   2.638   1.583  0.2451  0.0587  0.1971
 1340SOL     OW 5357   1.996   3.644   2.183 -0.0789  0.3054  0.0949
 1340SOL    HW2 5358   2.062   3.598   2.235 -0.3975 -1.4239 -0.9810
 1340SOL    HW3 5359   1.912   3.616   2.220 -0.2467  1.3346  0.5035
 1340SOL    MW4 5360   1.993   3.634   2.195 -0.1431  0.2130  0.0068
 1341SOL     OW 5361   0.364   4.151   1.569 -0.1547  0.2150 -0.2901
 1341SOL    HW2 5362   0.365   4.241   1.538  0.0278  0.3067 -0.0278
 1341SOL    HW3 5363   0.338   4.158   1.661 -0.2134 -0.0049 -0.2901
 1341SOL    MW4 5364   0.361   4.164   1.577 -0.1384  0.1981 -0.2555
 1342SOL     OW 5365   2.221   3.468   2.283  0.2605 -0.1590  0.0555
 1342SOL    HW2 5366   2.209   3.449   2.376  1.6359 -0.4277  0.1873
 1342SOL    HW3 5367   2.310   3.504   2.277  0.0681  0.1461 -1.1091
 1342SOL    MW4 5368   2.231   3.470   2.295  0.4166 -0.1542 -0.0808
 1343SOL     OW 5369   2.262   0.829   1.607 -0.0095 -0.0345  0.3567
 1343SOL    HW2 5370   2.310   0.795   1.532  0.4022 -0.0595  0.6258
 1343SOL    HW3 5371   2.174   0.848   1.574  0.0792 -0.3409 -0.0492
 1343SOL    MW4 5372   2.257   0.827   1.593  0.0565 -0.0782  0.3387
 1344SOL     OW 5373   2.478   4.396   2.170 -0.1399 -0.1940  0.2414
 1344SOL    HW2 5374   2.457   4.379   2.078 -1.2954  0.9399  0.2855
 1344SOL    HW3 5375   2.552   4.337   2.189  0.2152 -0.3110 -1.4456
 1344SOL    MW4 5376   2.485   4.386   2.160 -0.2455 -0.0598  0.0247
 1345SOL     OW 5377   2.880   4.629   2.290  0.2804  0.4102  0.5623
 1345SOL    HW2 5378   2.819   4.699   2.269  1.3471  0.7752 -1.4493
 1345SOL    HW3 5379   2.966   4.666   2.271  0.9911 -0.7848  1.3883
 1345SOL    MW4 5380   2.883   4.643   2.285  0.5149  0.3007  0.4059
 1346SOL     OW 5381   2.699   0.149   2.188  0.5601  0.4658 -0.4553
 1346SOL    HW2 5382   2.707   0.231   2.236 -1.1682 -0.2574  1.1646
 1346SOL    HW3 5383   2.727   0.170   2.099  1.3354  2.4845  0.2334
 1346SOL    MW4 5384   2.704   0.162   2.183  0.4344  0.6368 -0.1507
 1347SOL     OW 5385   0.200   2.498   1.802 -0.3085  0.6191  0.1594
 1347SOL    HW2 5386   0.175   2.470   1.714  2.0294 -1.9541  0.2429
 1347SOL    HW3 5387   0.118   2.498   1.852 -1.5049  1.1707 -1.7382
 1347SOL    MW4 5388   0.186   2.494   1.797 -0.1579  0.3524 -0.0799
 1348SOL     OW 5389   0.879   0.330   1.101  0.0339  0.1812 -0.0852
 1348SOL    HW2 5390   0.823   0.342   1.178  1.2272  0.8883  0.6848
 1348SOL    HW3 5391   0.941   0.262   1.127  1.2763  1.3533  0.0575
 1348SOL    MW4 5392   0.880   0.322   1.115  0.3552  0.4292  0.0352
 1349SOL     OW 5393   4.027   3.239   0.404 -0.0862 -0.2447 -0.1815
 1349SOL    HW2 5394   4.109   3.205   0.439 -1.1192 -0.7258  1.8685
 1349SOL    HW3 5395   4.041   3.334   0.399  0.9531 -0.4240 -0.8870
 1349SOL    MW4 5396   4.039   3.247   0.408 -0.0853 -0.3318 -0.0041
 1350SOL     OW 5397   0.289   1.270   0.598 -0.1663  0.2456 -0.6393
 1350SOL    HW2 5398   0.264   1.184   0.565 -1.6228  0.5879 -0.4863
 1350SOL    HW3 5399   0.234   1.283   0.675  1.0774  0.7075  0.1902
 1350SOL    MW4 5400   0.278   1.260   0.604 -0.1944  0.3517 -0.5097
 1351SOL     OW 5401   2.921   4.088   1.518  0.4374 -0.2900  0.8368
 1351SOL    HW2 5402   2.884   4.002   1.539  0.9484 -0.6042  0.4717
 1351SOL    HW3 5403   2.846   4.146   1.510  0.1047 -0.6589  1.3184
 1351SOL    MW4 5404   2.907   4.084   1.519  0.4609 -0.3801  0.8521
 1352SOL     OW 5405   1.529   3.714   1.559 -0.2403 -0.1137  0.1672
 1352SOL    HW2 5406   1.457   3.742   1.617 -0.5131 -1.2566  0.4017
 1352SOL    HW3 5407   1.515   3.763   1.478 -0.8624  0.2172  0.4686
 1352SOL    MW4 5408   1.517   3.724   1.556 -0.3584 -0.2208  0.2379
 1353SOL     OW 5409   3.215   2.608   1.484 -0.3024 -0.6806  0.0895
 1353SOL    HW2 5410   3.297   2.558   1.488  1.9489  2.8793  0.2958
 1353SOL    HW3 5411   3.206   2.631   1.391 -0.6687 -0.3722  0.1993
 1353SOL    MW4 5412   3.225   2.604   1.472 -0.0537 -0.1702  0.1312
 1354SOL     OW 5413   1.652   1.913   1.879 -0.0590 -0.3796  0.1737
 1354SOL    HW2 5414   1.644   1.828   1.920  0.1911 -0.8621 -0.7625
 1354SOL    HW3 5415   1.744   1.938   1.891  0.1102 -0.7036 -0.4471
 1354SOL    MW4 5416   1.663   1.905   1.886 -0.0037 -0.4860 -0.0317
 1355SOL     OW 5417   1.841   0.907   2.213  0.2792  0.4936 -0.0460
 1355SOL    HW2 5418   1.868   0.993   2.244  2.3456  0.0776 -0.6543
 1355SOL    HW3 5419   1.918   0.851   2.226 -1.3741 -1.5344  1.3747
 1355SOL    MW4 5420   1.855   0.911   2.219  0.3337  0.1711  0.0612
 1356SOL     OW 5421   3.550   1.973   1.287 -0.3410  0.5947 -0.1541
 1356SOL    HW2 5422   3.576   2.047   1.233 -1.0008  0.8508 -0.1271
 1356SOL    HW3 5423   3.568   2.001   1.377 -0.1007  0.5194 -0.1783
 1356SOL    MW4 5424   3.556   1.987   1.292 -0.3963  0.6185 -0.1537
 1357SOL     OW 5425   0.899   4.164   0.576  0.3600 -0.5870 -0.0399
 1357SOL    HW2 5426   0.843   4.227   0.619  0.6299 -0.9494  0.8504
 1357SOL    HW3 5427   0.980   4.163   0.627  1.0580 -0.3207 -1.1051
 1357SOL    MW4 5428   0.903   4.172   0.588  0.4877 -0.5997 -0.0630
 1358SOL     OW 5429   4.379   4.608   0.652 -0.1485  1.2965  0.1977
 1358SOL    HW2 5430   4.313   4.674   0.630 -0.5067  0.7502 -0.3869
 1358SOL    HW3 5431   4.342   4.526   0.619  0.5782  0.9036  0.3626
 1358SOL    MW4 5432   4.365   4.606   0.645 -0.0999  1.1726  0.1423
 1359SOL     OW 5433   2.894   3.084   2.327  0.4087  0.1498 -0.1165
 1359SOL    HW2 5434   2.911   3.000   2.285 -0.7941 -0.3577  0.3832
 1359SOL    HW3 5435   2.813   3.115   2.286  0.4036  0.6740  0.2789
 1359SOL    MW4 5436   2.885   3.077   2.316  0.2493  0.1520  0.0016
 1360SOL     OW 5437   2.746   2.454   2.206  0.3101  0.0669 -0.2225
 1360SOL    HW2 5438   2.822   2.414   2.248  0.1390  0.6548  0.6842
 1360SOL    HW3 5439   2.737   2.539   2.249 -0.5122  0.2441 -0.7213
 1360SOL    MW4 5440   2.755   2.460   2.218  0.1790  0.1678 -0.1687
 1361SOL     OW 5441   3.704   2.109   1.984 -0.0443 -0.2714  0.0820
 1361SOL    HW2 5442   3.642   2.038   1.973 -0.7407  0.0692  1.6802
 1361SOL    HW3 5443   3.742   2.096   2.071 -0.0884  1.2139  0.3500
 1361SOL    MW4 5444   3.701   2.098   1.994 -0.1420 -0.0305  0.3282
 1362SOL     OW 5445   2.707   3.445   2.309 -0.0921 -0.0859  0.3338
 1362SOL    HW2 5446   2.622   3.483   2.290 -0.0485 -0.2064 -0.1051
 1362SOL    HW3 5447   2.708   3.362   2.263  0.3432  0.0094  0.1640
 1362SOL    MW4 5448   2.696   3.439   2.301 -0.0289 -0.0892  0.2535
 1363SOL     OW 5449   2.583   0.429   1.008 -0.2774  0.3416 -0.2841
 1363SOL    HW2 5450   2.509   0.457   1.062 -0.1735  1.0021 -0.4786
 1363SOL    HW3 5451   2.633   0.370   1.064 -0.4638  0.6045  0.1605
 1363SOL    MW4 5452   2.580   0.425   1.022 -0.2883  0.4635 -0.2511
 1364SOL     OW 5453   3.707   0.989   0.677 -0.0554  0.3195  0.0624
 1364SOL    HW2 5454   3.773   1.058   0.678  1.2935 -0.9253 -0.7621
 1364SOL    HW3 5455   3.754   0.911   0.647 -1.8705 -0.6213 -0.4293
 1364SOL    MW4 5456   3.722   0.988   0.673 -0.1169  0.0311 -0.1113
 1365SOL     OW 5457   2.470   3.202   0.744  0.8011 -0.0655 -0.4267
 1365SOL    HW2 5458   2.520   3.124   0.771  1.1887  0.2589 -0.2061
 1365SOL    HW3 5459   2.388   3.194   0.791  1.7452  0.8537  1.4053
 1365SOL    MW4 5460   2.466   3.190   0.754  0.9768  0.0986 -0.1559
 1366SOL     OW 5461   2.882   3.855   2.336 -0.0438  0.4460  0.1241
 1366SOL    HW2 5462   2.953   3.898   2.288 -0.6306  0.9787 -0.2698
 1366SOL    HW3 5463   2.899   3.879   2.428  0.4246  0.3667  0.0615
 1366SOL    MW4 5464   2.894   3.864   2.342 -0.0594  0.5058  0.0638
 1367SOL     OW 5465   2.617   4.534   0.430 -0.0070  0.3970 -0.5283
 1367SOL    HW2 5466   2.617   4.456   0.485 -3.1672  1.5489  1.2354
 1367SOL    HW3 5467   2.691   4.586   0.462  1.0207 -1.0474 -0.5173
 1367SOL    MW4 5468   2.626   4.531   0.442 -0.2883  0.3584 -0.2942
 1368SOL     OW 5469   2.716   0.517   1.864  0.0124  0.0206  0.6064
 1368SOL    HW2 5470   2.687   0.531   1.774  0.1579 -1.5443  0.3040
 1368SOL    HW3 5471   2.730   0.423   1.870  2.0995  0.3804  1.6356
 1368SOL    MW4 5472   2.714   0.506   1.853  0.3069 -0.1384  0.7023
 1369SOL     OW 5473   1.874   4.518   0.328  0.0392 -0.2077 -0.1836
 1369SOL    HW2 5474   1.966   4.500   0.344  0.0990  1.4839  1.6621
 1369SOL    HW3 5475   1.873   4.601   0.280 -0.5054 -0.2519 -0.2603
 1369SOL    MW4 5476   1.886   4.527   0.324 -0.0248  0.0097  0.0498
 1370SOL     OW 5477   3.196   0.911   1.921 -0.1652  0.1569  0.2344
 1370SOL    HW2 5478   3.159   0.849   1.858 -1.6959 -0.0298  1.3038
 1370SOL    HW3 5479   3.190   0.866   2.005  2.3971  0.1686  0.4626
 1370SOL    MW4 5480   3.190   0.897   1.924 -0.0291  0.1338  0.4056
 1371SOL     OW 5481   4.003   0.899   2.122  0.1460 -0.2994  0.2346
 1371SOL    HW2 5482   3.968   0.828   2.176 -0.3483 -0.2333  0.0034
 1371SOL    HW3 5483   3.995   0.977   2.177 -2.0572  0.0968 -0.5785
 1371SOL    MW4 5484   3.997   0.900   2.136 -0.2099 -0.2384  0.0968
 1372SOL     OW 5485   3.142   0.376   2.602  0.0762  0.5145  0.0172
 1372SOL    HW2 5486   3.136   0.392   2.507  1.1381  1.9982  0.1760
 1372SOL    HW3 5487   3.074   0.431   2.640  0.1883  0.5464  0.1738
 1372SOL    MW4 5488   3.132   0.385   2.594  0.2311  0.7145  0.0588
 1373SOL     OW 5489   2.927   3.586   2.205 -0.0230 -0.1759 -0.1419
 1373SOL    HW2 5490   2.923   3.671   2.250 -1.3172 -0.7079  0.7859
 1373SOL    HW3 5491   2.851   3.538   2.238  0.5879 -1.6293 -0.8114
 1373SOL    MW4 5492   2.916   3.591   2.215 -0.1131 -0.4379 -0.1078
 1374SOL     OW 5493   4.020   2.627   0.799  0.3817 -0.3207 -0.1255
 1374SOL    HW2 5494   4.107   2.602   0.831  0.6835 -0.8503 -1.3321
 1374SOL    HW3 5495   4.034   2.713   0.759  0.6127 -0.9401 -1.3999
 1374SOL    MW4 5496   4.034   2.635   0.798  0.4520 -0.4723 -0.4528
 1375SOL     OW 5497   3.864   2.050   1.393 -0.0244 -0.3002 -0.2148
 1375SOL    HW2 5498   3.889   2.086   1.308  0.0815  1.5730  0.5840
 1375SOL    HW3 5499   3.844   1.958   1.375  0.0769  0.0469 -2.2395
 1375SOL    MW4 5500   3.865   2.043   1.379  0.0029 -0.0073 -0.3766
 1376SOL     OW 5501   4.021   2.215   1.554 -0.1734 -0.5092 -0.2504
 1376SOL    HW2 5502   3.980   2.195   1.639  1.0951  1.2855  0.8405
 1376SOL    HW3 5503   3.991   2.146   1.496 -4.8429  0.7208  0.4516
 1376SOL    MW4 5504   4.011   2.203   1.558 -0.6221 -0.1101 -0.0139
 1377SOL     OW 5505   3.034   2.973   0.961 -0.0234 -0.0382 -0.3462
 1377SOL    HW2 5506   2.977   3.033   0.913 -1.9368 -0.5908  1.1661
 1377SOL    HW3 5507   3.092   3.030   1.012  0.3515  0.5168 -1.3660
 1377SOL    MW4 5508   3.034   2.989   0.961 -0.2264 -0.0379 -0.2812
 1378SOL     OW 5509   2.258   4.453   1.123  0.1738 -0.4882 -0.2503
 1378SOL    HW2 5510   2.225   4.364   1.113 -1.4586 -0.0447  0.8942
 1378SOL    HW3 5511   2.184   4.509   1.103  1.1377  0.6210 -0.7950
 1378SOL    MW4 5512   2.244   4.449   1.119  0.0856 -0.2834 -0.1712
 1379SOL     OW 5513   3.743   2.432   0.825  0.5537 -0.1403 -0.1244
 1379SOL    HW2 5514   3.793   2.513   0.832  0.9196 -0.3324 -0.4840
 1379SOL    HW3 5515   3.697   2.439   0.741  1.0632 -0.5609 -0.4519
 1379SOL    MW4 5516   3.744   2.443   0.815  0.6692 -0.2212 -0.2151
 1380SOL     OW 5517   0.108   1.402   1.799 -0.2139  0.1760  0.4856
 1380SOL    HW2 5518   0.084   1.312   1.777 -1.4351  0.6676 -0.2010
 1380SOL    HW3 5519   0.151   1.435   1.720 -0.2070  0.3519  0.5637
 1380SOL    MW4 5520   0.111   1.394   1.786 -0.3741  0.2640  0.4053
 1381SOL     OW 5521   3.569   1.877   2.304 -0.3437  0.0567  0.2480
 1381SOL    HW2 5522   3.558   1.784   2.282  0.4785 -0.2971  1.3192
 1381SOL    HW3 5523   3.489   1.919   2.271 -1.7357 -1.3704  1.7171
 1381SOL    MW4 5524   3.557   1.870   2.297 -0.4189 -0.1782  0.5832
 1382SOL     OW 5525   3.365   2.287   2.276  0.7148 -0.3900 -0.1369
 1382SOL    HW2 5526   3.345   2.196   2.253  0.1804 -0.4090  0.3877
 1382SOL    HW3 5527   3.297   2.338   2.231  0.1559 -0.3668  0.7150
 1382SOL    MW4 5528   3.353   2.281   2.267  0.5705 -0.3895  0.0447
 1383SOL     OW 5529   3.138   2.717   2.292 -0.3585 -0.0312  0.1029
 1383SOL    HW2 5530   3.216   2.762   2.258 -1.5359  0.8135 -1.5269
 1383SOL    HW3 5531   3.161   2.696   2.383  1.6704  0.4433 -0.2656
 1383SOL    MW4 5532   3.152   2.721   2.300 -0.2461  0.1429 -0.1607
 1384SOL     OW 5533   1.809   2.817   1.510 -0.1506  0.1553  0.4773
 1384SOL    HW2 5534   1.801   2.726   1.540 -0.6614 -0.6142 -1.8884
 1384SOL    HW3 5535   1.903   2.833   1.509  0.0103 -0.7588 -0.2129
 1384SOL    MW4 5536   1.820   2.807   1.514 -0.1968 -0.0668  0.0742
 1385SOL     OW 5537   3.114   3.189   2.200 -0.3129  0.2082  0.2367
 1385SOL    HW2 5538   3.122   3.273   2.247 -0.8689  0.4096 -0.0239
 1385SOL    HW3 5539   3.043   3.144   2.245 -0.0627 -0.0955  0.3273
 1385SOL    MW4 5540   3.106   3.194   2.212 -0.3533  0.1947  0.2143
 1386SOL     OW 5541   0.784   4.284   1.625  0.2220 -0.9821 -0.1043
 1386SOL    HW2 5542   0.769   4.280   1.719 -2.1307 -1.4386 -0.4592
 1386SOL    HW3 5543   0.744   4.204   1.591  0.2547 -0.3954 -1.5857
 1386SOL    MW4 5544   0.777   4.273   1.633 -0.0841 -0.9650 -0.3466
 1387SOL     OW 5545   3.647   3.783   1.948  0.1480 -0.2516 -0.1166
 1387SOL    HW2 5546   3.727   3.810   1.903 -0.7602  0.7323 -1.1697
 1387SOL    HW3 5547   3.678   3.737   2.026  1.7335  3.1217  1.3233
 1387SOL    MW4 5548   3.662   3.780   1.952  0.2373  0.3233 -0.0656
 1388SOL     OW 5549   3.142   3.444   2.293  0.5922 -0.1188 -0.7577
 1388SOL    HW2 5550   3.065   3.496   2.267 -1.1898 -2.0691  0.4398
 1388SOL    HW3 5551   3.141   3.449   2.389  2.9115  1.1242 -0.7696
 1388SOL    MW4 5552   3.132   3.452   2.303  0.6631 -0.2121 -0.6013
 1389SOL     OW 5553   0.138   0.715   1.708  0.1778 -0.1144  0.1408
 1389SOL    HW2 5554   0.121   0.785   1.771 -0.7518 -0.9136  0.7884
 1389SOL    HW3 5555   0.193   0.756   1.641 -0.2527  1.1984  0.5768
 1389SOL    MW4 5556   0.143   0.730   1.707 -0.0017 -0.0466  0.2838
 1390SOL     OW 5557   3.306   3.846   2.317  0.3520 -0.2193 -0.2619
 1390SOL    HW2 5558   3.226   3.873   2.272  0.0781 -1.2612 -0.4063
 1390SOL    HW3 5559   3.373   3.904   2.282 -0.2248  0.2604 -0.5897
 1390SOL    MW4 5560   3.304   3.857   2.306  0.2398 -0.2935 -0.3242
 1391SOL     OW 5561   0.295   3.758   0.986 -0.1922 -0.0651 -0.0829
 1391SOL    HW2 5562   0.342   3.801   0.915  2.3984 -0.1063  1.5097
 1391SOL    HW3 5563   0.308   3.664   0.971  1.8799 -0.0504  1.3375
 1391SOL    MW4 5564   0.303   3.751   0.975  0.4230 -0.0686  0.3147
 1392SOL     OW 5565   0.971   4.021   1.026  0.2965  0.5409  0.8664
 1392SOL    HW2 5566   0.981   3.931   0.996 -2.3603  0.2127  0.9154
 1392SOL    HW3 5567   0.967   4.014   1.122  1.1798  0.8529  0.9391
 1392SOL    MW4 5568   0.972   4.008   1.035  0.0625  0.5388  0.8824
 1393SOL     OW 5569   0.323   4.323   0.894  0.3196 -0.0520  0.0338
 1393SOL    HW2 5570   0.387   4.391   0.916  0.8117 -0.7642  0.8071
 1393SOL    HW3 5571   0.374   4.242   0.890 -0.4599 -0.5557  0.2243
 1393SOL    MW4 5572   0.338   4.321   0.896  0.2817 -0.2124  0.1610
 1394SOL     OW 5573   3.749   4.648   2.257 -0.0789 -0.2347 -0.2561
 1394SOL    HW2 5574   3.836   4.687   2.248 -1.0298  1.7443 -1.1269
 1394SOL    HW3 5575   3.741   4.629   2.351  1.1808 -0.2223 -0.1348
 1394SOL    MW4 5576   3.759   4.651   2.268 -0.0381  0.0281 -0.3550
 1395SOL     OW 5577   4.089   0.581   1.695 -0.0428 -0.2550  0.2066
 1395SOL    HW2 5578   4.116   0.490   1.705  0.9028  0.0170  0.1835
 1395SOL    HW3 5579   4.020   0.593   1.760 -0.6037 -1.1542 -0.2058
 1395SOL    MW4 5580   4.083   0.570   1.705  0.0079 -0.3377  0.1491
 1396SOL     OW 5581   1.945   2.063   0.713  0.1440  0.7443 -0.5504
 1396SOL    HW2 5582   1.917   2.089   0.800 -0.2201 -0.2586 -0.3645
 1396SOL    HW3 5583   2.007   2.131   0.686 -2.4970  3.0666 -1.0164
 1396SOL    MW4 5584   1.950   2.075   0.721 -0.2525  0.9184 -0.5874
 1397SOL     OW 5585   4.048   0.384   2.237  0.1421 -0.3993 -0.0368
 1397SOL    HW2 5586   4.106   0.460   2.232 -1.0936  0.4899 -1.1628
 1397SOL    HW3 5587   3.972   0.408   2.185 -0.4553 -2.2597 -0.0697
 1397SOL    MW4 5588   4.046   0.397   2.230 -0.0997 -0.5274 -0.1897
 1398SOL     OW 5589   2.617   1.218   1.938  0.5904  0.1017 -0.4328
 1398SOL    HW2 5590   2.560   1.294   1.952  0.0918 -0.1938 -0.8609
 1398SOL    HW3 5591   2.575   1.170   1.867  1.4718 -0.0232 -0.8648
 1398SOL    MW4 5592   2.604   1.222   1.931  0.6409  0.0462 -0.5463
 1399SOL     OW 5593   0.483   2.978   0.923  0.0330 -0.4939 -0.7127
 1399SOL    HW2 5594   0.389   2.970   0.938  0.0067 -0.4400 -0.8515
 1399SOL    HW3 5595   0.510   3.049   0.980 -0.1544  0.0490 -1.2937
 1399SOL    MW4 5596   0.474   2.986   0.933  0.0048 -0.4151 -0.8077
 1400SOL     OW 5597   1.835   3.950   0.646 -0.0590  0.1808 -0.1607
 1400SOL    HW2 5598   1.818   3.911   0.560 -0.5278 -0.4040  0.1898
 1400SOL    HW3 5599   1.913   4.003   0.633 -0.9558  1.2672 -1.3067
 1400SOL    MW4 5600   1.843   3.951   0.633 -0.2391  0.2470 -0.2656
 1401SOL     OW 5601   3.479   1.087   2.292  0.1469 -0.0009 -0.2250
 1401SOL    HW2 5602   3.514   1.106   2.379 -0.6253 -0.1696  0.1244
 1401SOL    HW3 5603   3.523   1.151   2.235  0.6385  0.1259  0.2854
 1401SOL    MW4 5604   3.490   1.098   2.296  0.1099 -0.0064 -0.1116
 1402SOL     OW 5605   3.788   1.527   2.301  0.1657  0.0065  0.7034
 1402SOL    HW2 5606   3.768   1.436   2.281 -2.0978  0.3326  1.2826
 1402SOL    HW3 5607   3.807   1.527   2.395 -0.0862  0.1621  0.7553
 1402SOL    MW4 5608   3.788   1.515   2.311 -0.1661  0.0701  0.7867
 1403SOL     OW 5609   3.791   2.042   2.252 -0.4309 -0.0134 -0.6601
 1403SOL    HW2 5610   3.857   1.982   2.218  0.5461 -1.3282  3.3292
 1403SOL    HW3 5611   3.718   1.986   2.277 -1.2549  0.9599 -0.8412
 1403SOL    MW4 5612   3.790   2.027   2.251 -0.4107 -0.0584 -0.1577
 1404SOL     OW 5613   3.592   1.958   2.571  0.1770 -0.1264 -0.5606
 1404SOL    HW2 5614   3.571   1.930   2.482 -0.5183 -0.1485 -0.3937
 1404SOL    HW3 5615   3.507   1.977   2.611  0.1444 -3.5832  1.2448
 1404SOL    MW4 5616   3.578   1.957   2.565  0.0810 -0.5854 -0.3003
 1405SOL     OW 5617   3.481   1.232   1.702 -0.3504  0.1622 -0.1675
 1405SOL    HW2 5618   3.434   1.199   1.779  1.4489 -0.0621  0.8521
 1405SOL    HW3 5619   3.495   1.325   1.720  0.4043  0.0266 -0.0567
 1405SOL    MW4 5620   3.476   1.240   1.714 -0.0134  0.1147 -0.0184
 1406SOL     OW 5621   0.695   4.320   0.681 -0.2557 -0.2989  0.3017
 1406SOL    HW2 5622   0.677   4.412   0.697  1.3825  0.3962 -1.5480
 1406SOL    HW3 5623   0.721   4.285   0.766 -2.2525  0.5852  1.3073
 1406SOL    MW4 5624   0.696   4.327   0.694 -0.3030 -0.0905  0.1903
 1407SOL     OW 5625   3.182   1.604   0.684 -0.3156  0.7257 -0.6427
 1407SOL    HW2 5626   3.257   1.598   0.625  0.1334 -0.4604  0.0152
 1407SOL    HW3 5627   3.210   1.556   0.762 -1.3420  1.2494  0.0574
 1407SOL    MW4 5628   3.196   1.597   0.687 -0.3918  0.6383 -0.4635
 1408SOL     OW 5629   3.813   3.846   1.541  0.0088  0.3939 -0.0211
 1408SOL    HW2 5630   3.889   3.794   1.514  1.1745  1.4907  1.0599
 1408SOL    HW3 5631   3.807   3.915   1.476 -0.6211 -0.2097 -0.6110
 1408SOL    MW4 5632   3.823   3.848   1.529  0.0795  0.4590  0.0437
 1409SOL     OW 5633   0.890   1.659   2.118  0.0002  0.5598  0.1331
 1409SOL    HW2 5634   0.821   1.605   2.155  0.4206  1.2077  1.9079
 1409SOL    HW3 5635   0.882   1.743   2.163  1.1971  1.0239 -0.4886
 1409SOL    MW4 5636   0.880   1.663   2.129  0.2136  0.7065  0.2852
 1410SOL     OW 5637   4.038   3.600   2.076 -0.8248  0.0548 -0.0412
 1410SOL    HW2 5638   4.011   3.564   1.992 -1.4272  0.8420 -0.1932
 1410SOL    HW3 5639   4.116   3.652   2.055  1.0975 -2.5180  0.4577
 1410SOL    MW4 5640   4.045   3.602   2.062 -0.6507 -0.1808  0.0045
 1411SOL     OW 5641   1.389   3.294   1.867  0.0977  0.8140  0.2180
 1411SOL    HW2 5642   1.471   3.339   1.887  1.0792 -1.3262  1.1492
 1411SOL    HW3 5643   1.360   3.257   1.950 -1.1231  0.4178 -0.3666
 1411SOL    MW4 5644   1.396   3.295   1.881  0.0661  0.4793  0.2637
 1412SOL     OW 5645   3.608   3.443   2.547 -0.9597 -0.3310  0.1673
 1412SOL    HW2 5646   3.540   3.508   2.564  0.9060  1.4710  0.8912
 1412SOL    HW3 5647   3.690   3.486   2.571  0.4141 -2.6440 -0.1705
 1412SOL    MW4 5648   3.610   3.457   2.553 -0.5323 -0.3984  0.2182
 1413SOL     OW 5649   0.633   2.548   1.801 -0.3761  0.0332 -0.0012
 1413SOL    HW2 5650   0.718   2.516   1.831 -0.0067  0.7538 -0.2712
 1413SOL    HW3 5651   0.573   2.474   1.815  0.6083 -1.0287 -1.2923
 1413SOL    MW4 5652   0.636   2.534   1.807 -0.1974 -0.0118 -0.2071
 1414SOL     OW 5653   0.012   2.634   2.337 -0.0745  0.0523 -0.1063
 1414SOL    HW2 5654   0.020   2.616   2.430 -0.2482  2.0202  0.3140
 1414SOL    HW3 5655   0.098   2.665   2.310 -0.2564  0.3084 -0.4059
 1414SOL    MW4 5656   0.024   2.635   2.346 -0.1215  0.3457 -0.0904
 1415SOL     OW 5657   4.135   4.207   2.268  0.7253  0.2644  0.2652
 1415SOL    HW2 5658   4.091   4.127   2.238  1.6080 -0.5899  1.2265
 1415SOL    HW3 5659   4.108   4.274   2.205  0.4928 -0.9309 -0.9202
 1415SOL    MW4 5660   4.126   4.206   2.256  0.8111 -0.0061  0.2357
 1416SOL     OW 5661   0.595   2.381   0.500  0.1640  0.3865 -0.7517
 1416SOL    HW2 5662   0.569   2.473   0.508  2.2543  0.8830  0.5779
 1416SOL    HW3 5663   0.677   2.383   0.450  0.5800 -0.7128 -0.1326
 1416SOL    MW4 5664   0.603   2.393   0.494  0.4947  0.3070 -0.4946
 1417SOL     OW 5665   4.170   4.228   1.739  0.2098 -0.0303  0.4237
 1417SOL    HW2 5666   4.218   4.216   1.820  0.6424  1.5728  0.4251
 1417SOL    HW3 5667   4.146   4.321   1.738 -1.0935 -0.3551 -0.5591
 1417SOL    MW4 5668   4.173   4.239   1.749  0.0949  0.1383  0.2942
 1418SOL     OW 5669   2.283   1.702   1.860 -0.4469  0.0560 -0.0879
 1418SOL    HW2 5670   2.212   1.764   1.844  0.9425  1.3986 -1.2646
 1418SOL    HW3 5671   2.277   1.681   1.953 -1.2156  1.5914  0.2182
 1418SOL    MW4 5672   2.273   1.707   1.870 -0.3650  0.4357 -0.2028
 1419SOL     OW 5673   4.208   0.005   2.212  0.0237 -0.0813 -0.2161
 1419SOL    HW2 5674   4.175  -0.004   2.301  0.0310 -1.3561 -0.3288
 1419SOL    HW3 5675   4.133   0.037   2.161  0.2897  1.6098  0.4159
 1419SOL    MW4 5676   4.193   0.008   2.217  0.0598 -0.0263 -0.1476
 1420SOL     OW 5677   0.686   3.794   1.109  0.2124 -0.1319 -0.2769
 1420SOL    HW2 5678   0.639   3.754   1.181 -0.1525  1.2012  0.2396
 1420SOL    HW3 5679   0.684   3.888   1.127  3.4649 -0.0514  0.0060
 1420SOL    MW4 5680   0.680   3.801   1.121  0.5933  0.0546 -0.1714
 1421SOL     OW 5681   0.060   4.094   1.175 -0.2907 -0.4685 -0.2874
 1421SOL    HW2 5682   0.132   4.045   1.135 -0.0348 -0.6546  0.3924
 1421SOL    HW3 5683   0.080   4.094   1.269 -1.5631 -1.1721  0.0038
 1421SOL    MW4 5684   0.072   4.088   1.182 -0.4248 -0.5859 -0.1593
 1422SOL     OW 5685   4.229   0.717   2.489  0.1384  0.1514  0.4271
 1422SOL    HW2 5686   4.248   0.638   2.540 -0.4223 -0.4623 -0.2966
 1422SOL    HW3 5687   4.236   0.688   2.398 -0.1708  0.9162  0.1628
 1422SOL    MW4 5688   4.233   0.702   2.484  0.0236  0.1713  0.2967
 1423SOL     OW 5689   3.045   1.337   1.950 -0.2226  0.5779 -0.2696
 1423SOL    HW2 5690   3.026   1.404   1.884 -2.3151 -0.1939 -0.4944
 1423SOL    HW3 5691   3.007   1.257   1.913  0.1014 -0.2221  1.1183
 1423SOL    MW4 5692   3.038   1.335   1.936 -0.4559  0.3705 -0.1161
 1424SOL     OW 5693   3.442   3.525   0.746 -0.0731 -0.1027  0.2418
 1424SOL    HW2 5694   3.479   3.594   0.691  0.1946  1.0896  1.8952
 1424SOL    HW3 5695   3.462   3.444   0.699 -0.0155  0.8966 -1.5047
 1424SOL    MW4 5696   3.449   3.523   0.732 -0.0302  0.1864  0.2295
 1425SOL     OW 5697   3.850   0.710   2.265 -0.1615 -0.1181 -0.0297
 1425SOL    HW2 5698   3.781   0.776   2.254 -0.7793 -0.9196 -1.0682
 1425SOL    HW3 5699   3.848   0.690   2.358 -0.7263  0.5133  0.1051
 1425SOL    MW4 5700   3.840   0.716   2.275 -0.3175 -0.1406 -0.1489
 1426SOL     OW 5701   4.322   1.550   2.281 -0.1247  0.4199 -0.4347
 1426SOL    HW2 5702   4.395   1.597   2.241  0.5915  0.1767  0.5733
 1426SOL    HW3 5703   4.244   1.593   2.246  0.5089  1.4642 -0.5864
 1426SOL    MW4 5704   4.322   1.562   2.271  0.0534  0.5256 -0.3217
 1427SOL     OW 5705   4.000   1.907   2.128 -0.3480  0.3358  0.4705
 1427SOL    HW2 5706   4.086   1.945   2.142 -0.4089  0.4373  0.5669
 1427SOL    HW3 5707   4.003   1.873   2.038  0.2083 -0.7484  0.8918
 1427SOL    MW4 5708   4.011   1.907   2.118 -0.2826  0.2061  0.5388
 1428SOL     OW 5709   2.266   4.579   1.834 -0.2956 -0.2260 -0.1251
 1428SOL    HW2 5710   2.202   4.520   1.872 -0.5889  0.4318  0.4075
 1428SOL    HW3 5711   2.273   4.651   1.896  1.1790 -0.4297 -0.0310
 1428SOL    MW4 5712   2.259   4.581   1.847 -0.1397 -0.1661 -0.0424
 1429SOL     OW 5713   1.596   0.984   0.986 -0.0393  0.3606 -0.2575
 1429SOL    HW2 5714   1.638   0.915   0.934  0.2430  1.1878 -1.1227
 1429SOL    HW3 5715   1.588   1.058   0.927  0.6192  1.4425  0.9741
 1429SOL    MW4 5716   1.600   0.984   0.972  0.0848  0.6124 -0.2092
 1430SOL     OW 5717   4.275   2.275   2.293 -0.0466  0.1049 -0.1822
 1430SOL    HW2 5718   4.202   2.311   2.244  0.1759 -0.6753 -1.0940
 1430SOL    HW3 5719   4.352   2.322   2.260 -0.0607  0.5590  0.4104
 1430SOL    MW4 5720   4.276   2.286   2.282 -0.0191  0.0619 -0.2243
 1431SOL     OW 5721   4.105   3.146   2.198 -0.1864  0.4525  0.4125
 1431SOL    HW2 5722   4.167   3.108   2.260 -0.5887  0.9316  1.1035
 1431SOL    HW3 5723   4.019   3.125   2.234 -0.4826 -1.6508 -1.3887
 1431SOL    MW4 5724   4.102   3.138   2.211 -0.2786  0.2382  0.2661
 1432SOL     OW 5725   4.133   2.654   2.296  0.3116  0.0045  0.0409
 1432SOL    HW2 5726   4.153   2.675   2.387  2.1925 -2.0234  0.1265
 1432SOL    HW3 5727   4.185   2.717   2.245 -0.9447  1.3160  0.3258
 1432SOL    MW4 5728   4.143   2.665   2.301  0.3940 -0.0900  0.0898
 1433SOL     OW 5729   0.568   3.565   1.924 -0.1804  0.2908  0.0808
 1433SOL    HW2 5730   0.565   3.656   1.895 -0.7571 -0.0760 -1.0341
 1433SOL    HW3 5731   0.482   3.530   1.903 -0.2830 -0.2564  1.3839
 1433SOL    MW4 5732   0.557   3.573   1.918 -0.2700  0.1702  0.1056
 1434SOL     OW 5733   2.560   2.035   1.909 -0.0676  0.4506  0.3539
 1434SOL    HW2 5734   2.540   1.948   1.874 -0.0273  0.5515  0.0810
 1434SOL    HW3 5735   2.652   2.029   1.936  0.7305  1.2114 -2.1153
 1434SOL    MW4 5736   2.570   2.023   1.908  0.0430  0.5643 -0.0079
 1435SOL     OW 5737   4.004   3.986   2.138 -0.2393  0.4897 -0.1852
 1435SOL    HW2 5738   3.983   4.033   2.057 -0.5714  2.0994  0.8077
 1435SOL    HW3 5739   3.919   3.955   2.170  0.0921 -1.7471 -1.3792
 1435SOL    MW4 5740   3.990   3.988   2.132 -0.2394  0.4070 -0.2118
 1436SOL     OW 5741   0.043   0.836   0.578  0.3133  0.0523  0.0884
 1436SOL    HW2 5742   0.108   0.902   0.553 -0.4850  0.6176 -0.5071
 1436SOL    HW3 5743   0.062   0.817   0.670 -0.2395  2.0380  0.6300
 1436SOL    MW4 5744   0.054   0.842   0.587  0.1351  0.3889  0.0813
 1437SOL     OW 5745   0.051   3.577   0.392 -0.0303  0.4537  0.1872
 1437SOL    HW2 5746   0.091   3.589   0.478 -0.7998  1.4483  0.4168
 1437SOL    HW3 5747   0.110   3.623   0.332 -0.5385  1.4531  0.4512
 1437SOL    MW4 5748   0.064   3.585   0.396 -0.1988  0.7168  0.2523
 1438SOL     OW 5749   3.188   2.426   1.870 -0.1137 -0.1710 -0.3733
 1438SOL    HW2 5750   3.168   2.515   1.843  0.5395  0.1304  0.1241
 1438SOL    HW3 5751   3.191   2.429   1.966 -0.3123 -0.7711 -0.3422
 1438SOL    MW4 5752   3.186   2.438   1.880 -0.0537 -0.2104 -0.3035
 1439SOL     OW 5753   4.172   3.877   1.006 -0.5060  0.3521 -0.0547
 1439SOL    HW2 5754   4.162   3.933   0.929 -0.7885  0.0725 -0.2223
 1439SOL    HW3 5755   4.169   3.787   0.972 -0.6065  0.2268  0.2746
 1439SOL    MW4 5756   4.170   3.872   0.991 -0.5565  0.2987 -0.0334
 1440SOL     OW 5757   2.448   2.269   0.643 -0.0400 -0.5059 -0.3990
 1440SOL    HW2 5758   2.353   2.268   0.630  0.1605  0.4436 -1.9373
 1440SOL    HW3 5759   2.458   2.270   0.739 -1.5827 -0.0489 -0.2202
 1440SOL    MW4 5760   2.437   2.269   0.654 -0.2171 -0.3203 -0.5784
 1441SOL     OW 5761   3.398   4.384   1.456 -0.1971  0.0367  0.0192
 1441SOL    HW2 5762   3.354   4.319   1.512  0.0849 -0.2371 -0.0783
 1441SOL    HW3 5763   3.485   4.347   1.441  0.6259  1.2961  1.4864
 1441SOL    MW4 5764   3.404   4.370   1.462 -0.0513  0.1668  0.1999
 1442SOL     OW 5765   4.422   0.114   2.601  0.0161 -0.3959  0.2778
 1442SOL    HW2 5766   4.422   0.203   2.566  0.4445 -0.7620 -0.6637
 1442SOL    HW3 5767   4.440   0.126   2.695  1.7501  0.4105 -0.1357
 1442SOL    MW4 5768   4.425   0.127   2.609  0.3014 -0.3379  0.0990
 1443SOL     OW 5769   0.013   0.154   2.876  0.4939 -0.3896 -0.1068
 1443SOL    HW2 5770   0.008   0.240   2.919  0.0693 -1.0506  1.1802
 1443SOL    HW3 5771  -0.070   0.112   2.898 -0.0341 -0.4883 -2.1584
 1443SOL    MW4 5772   0.001   0.160   2.885  0.3682 -0.4898 -0.2077
 1444SOL     OW 5773   4.445   0.364   2.493  0.1725  0.4578 -0.3366
 1444SOL    HW2 5774   4.522   0.406   2.531  0.7137 -0.2575 -0.6276
 1444SOL    HW3 5775   4.443   0.394   2.402 -0.4759  1.2747 -0.0582
 1444SOL    MW4 5776   4.455   0.373   2.486  0.1583  0.4712 -0.3383
 1445SOL     OW 5777   0.179   0.496   2.600  0.2835  0.2848  0.2640
 1445SOL    HW2 5778   0.187   0.497   2.695  1.4829  0.2446  0.1776
 1445SOL    HW3 5779   0.257   0.449   2.570 -0.6455 -0.6863 -0.6917
 1445SOL    MW4 5780   0.190   0.490   2.609  0.3192  0.1514  0.1265
 1446SOL     OW 5781   0.182   0.753   2.525  0.3657  0.0896  0.0034
 1446SOL    HW2 5782   0.251   0.779   2.585  1.6687 -0.7738 -1.0957
 1446SOL    HW3 5783   0.181   0.657   2.530  0.3301  0.0185 -1.1609
 1446SOL    MW4 5784   0.191   0.744   2.534  0.5329 -0.0337 -0.2952
 1447SOL     OW 5785   4.436   0.848   2.619  0.0930  0.0711 -0.1786
 1447SOL    HW2 5786   4.363   0.813   2.567 -0.4781  0.1225  0.5798
 1447SOL    HW3 5787   4.514   0.829   2.567 -0.3868 -0.7287 -0.6130
 1447SOL    MW4 5788   4.436   0.841   2.606 -0.0457 -0.0277 -0.1359
 1448SOL     OW 5789   4.464   1.132   2.545 -0.1983  0.0192 -0.0204
 1448SOL    HW2 5790   4.551   1.155   2.577  0.1953 -0.7906 -0.4830
 1448SOL    HW3 5791   4.455   1.038   2.564 -0.8493  0.0360 -0.2268
 1448SOL    MW4 5792   4.474   1.122   2.552 -0.2323 -0.0854 -0.1087
 1449SOL     OW 5793   0.220   1.263   2.628 -0.1569 -0.2176 -0.1848
 1449SOL    HW2 5794   0.303   1.223   2.605  0.2174  0.4487  0.0054
 1449SOL    HW3 5795   0.215   1.342   2.574  0.2798  0.8397  1.2874
 1449SOL    MW4 5796   0.230   1.268   2.618 -0.0499  0.0098  0.0345
 1450SOL     OW 5797   0.210   1.517   2.522  0.6331 -0.1816 -0.0666
 1450SOL    HW2 5798   0.288   1.558   2.560  0.6207  1.2566 -1.5564
 1450SOL    HW3 5799   0.137   1.563   2.562  0.5678 -0.6914  0.4012
 1450SOL    MW4 5800   0.211   1.529   2.532  0.6228 -0.0591 -0.2015
 1451SOL     OW 5801   0.005   1.660   2.652  0.1050  0.0006 -0.0543
 1451SOL    HW2 5802   0.009   1.653   2.747 -0.2353 -2.1202 -0.1715
 1451SOL    HW3 5803   0.003   1.754   2.635  0.3998  0.4053  2.0176
 1451SOL    MW4 5804   0.005   1.672   2.662  0.0990 -0.2258  0.2036
 1452SOL     OW 5805   0.057   1.926   2.587 -0.2664 -0.2373 -0.3728
 1452SOL    HW2 5806   0.136   1.974   2.615  0.8733 -2.1305 -0.2587
 1452SOL    HW3 5807   0.063   1.924   2.492 -0.9816  0.9256 -0.4535
 1452SOL    MW4 5808   0.068   1.932   2.578 -0.2104 -0.3337 -0.3684
 1453SOL     OW 5809   0.300   2.049   2.659 -0.5245 -0.1853 -0.0644
 1453SOL    HW2 5810   0.363   1.989   2.618 -1.0897 -0.3246 -0.7504
 1453SOL    HW3 5811   0.320   2.134   2.620  1.1201  0.3420  1.8621
 1453SOL    MW4 5812   0.311   2.052   2.648 -0.3821 -0.1341  0.0992
 1454SOL     OW 5813   0.485   2.448   2.693 -0.1794 -0.2726  0.0833
 1454SOL    HW2 5814   0.475   2.534   2.652 -0.1389 -0.5251 -0.4668
 1454SOL    HW3 5815   0.563   2.411   2.651  1.1633  0.3432  1.9589
 1454SOL    MW4 5816   0.494   2.455   2.682  0.0031 -0.2246  0.2582
 1455SOL     OW 5817   0.079   2.359   2.668 -0.2635  0.1327 -0.4640
 1455SOL    HW2 5818   0.050   2.359   2.759 -1.5028 -0.6673 -0.8436
 1455SOL    HW3 5819   0.006   2.322   2.619 -0.5212  2.6915 -2.1021
 1455SOL    MW4 5820   0.066   2.354   2.673 -0.4610  0.3648 -0.7302
 1456SOL     OW 5821   0.044   2.639   2.625 -0.0221 -0.0617  0.2004
 1456SOL    HW2 5822  -0.041   2.679   2.641  0.3580  0.6362  0.4718
 1456SOL    HW3 5823   0.042   2.558   2.676 -0.3341  0.1954  0.5923
 1456SOL    MW4 5824   0.033   2.633   2.634 -0.0131  0.0643  0.2879
 1457SOL     OW 5825   0.244   2.838   2.701 -0.0234 -0.3337  0.1117
 1457SOL    HW2 5826   0.249   2.927   2.664 -1.0685 -0.6134 -0.7115
 1457SOL    HW3 5827   0.167   2.799   2.660  1.0842 -2.0312 -0.4204
 1457SOL    MW4 5828   0.235   2.845   2.691 -0.0151 -0.5946 -0.0671
 1458SOL     OW 5829   0.241   3.119   2.617 -0.3121  0.1918 -0.3364
 1458SOL    HW2 5830   0.328   3.144   2.648 -0.2662  0.9003 -1.0329
 1458SOL    HW3 5831   0.251   3.108   2.522 -0.7489 -0.7305 -0.2887
 1458SOL    MW4 5832   0.254   3.121   2.608 -0.3637  0.1636 -0.4220
 1459SOL     OW 5833   4.473   3.475   2.579 -0.5618 -0.7074 -0.3695
 1459SOL    HW2 5834   4.466   3.383   2.606 -1.0026 -0.4750  0.3283
 1459SOL    HW3 5835   4.544   3.510   2.632 -0.7888 -0.4921 -0.2097
 1459SOL    MW4 5836   4.481   3.467   2.589 -0.6499 -0.6483 -0.2563
 1460SOL     OW 5837   0.199   3.613   2.719  0.3272 -0.5847 -0.1259
 1460SOL    HW2 5838   0.275   3.570   2.680 -0.4323 -2.8510  0.8102
 1460SOL    HW3 5839   0.209   3.599   2.813 -0.8551 -0.2513  0.0603
 1460SOL    MW4 5840   0.211   3.606   2.727  0.0710 -0.8398  0.0221
 1461SOL     OW 5841   0.241   3.582   3.004 -0.1247  0.0731 -0.0900
 1461SOL    HW2 5842   0.155   3.547   3.030 -0.3573  0.1893 -0.6905
 1461SOL    HW3 5843   0.234   3.676   3.022 -0.6809  0.3292 -1.6139
 1461SOL    MW4 5844   0.229   3.590   3.010 -0.2288  0.1222 -0.3703
 1462SOL     OW 5845   0.411   3.471   2.582  0.2793 -0.5509  0.0758
 1462SOL    HW2 5846   0.440   3.383   2.608 -0.1839 -0.2083  1.8287
 1462SOL    HW3 5847   0.412   3.469   2.486  1.0234 -2.2185  0.0963
 1462SOL    MW4 5848   0.415   3.459   2.573  0.3164 -0.7257  0.3098
 1463SOL     OW 5849   0.158   3.860   2.576 -0.1577 -0.4684  0.0238
 1463SOL    HW2 5850   0.177   3.771   2.605  0.5481 -0.9152 -1.7265
 1463SOL    HW3 5851   0.149   3.853   2.481 -1.5825  1.0788  0.0218
 1463SOL    MW4 5852   0.159   3.847   2.567 -0.2525 -0.3232 -0.2074
 1464SOL     OW 5853   4.441   4.239   2.579  0.3440 -0.3072  0.1319
 1464SOL    HW2 5854   4.517   4.291   2.606  0.5626 -0.3468 -0.4009
 1464SOL    HW3 5855   4.366   4.295   2.596  0.5237 -0.1130  0.2813
 1464SOL    MW4 5856   4.441   4.253   2.584  0.3966 -0.2868  0.0813
 1465SOL     OW 5857   0.189   4.359   2.635 -0.2973 -0.0110 -0.1601
 1465SOL    HW2 5858   0.218   4.372   2.725  1.2702  2.7583 -1.0086
 1465SOL    HW3 5859   0.263   4.318   2.591 -0.0180  1.1796 -0.8207
 1465SOL    MW4 5860   0.202   4.355   2.641 -0.0536  0.5114 -0.3592
 1466SOL     OW 5861   0.703   4.641   2.520 -0.1221 -0.1004  0.0309
 1466SOL    HW2 5862   0.775   4.667   2.578  0.7631 -1.0299 -0.6606
 1466SOL    HW3 5863   0.627   4.687   2.556  0.9202  1.3878  0.3901
 1466SOL    MW4 5864   0.702   4.651   2.533  0.1322 -0.0267 -0.0129
 1467SOL     OW 5865   0.446   0.067   2.610 -0.1501  0.3169 -0.0540
 1467SOL    HW2 5866   0.444   0.079   2.705  1.3317 -3.2386  0.5162
 1467SOL    HW3 5867   0.363   0.024   2.590  0.7102 -1.4769  0.0975
 1467SOL    MW4 5868   0.435   0.063   2.620  0.1589 -0.3889  0.0412
 1468SOL     OW 5869   0.406   0.351   2.540 -0.5300  0.1581 -0.1103
 1468SOL    HW2 5870   0.413   0.255   2.544 -1.0208  0.1071 -0.3782
 1468SOL    HW3 5871   0.496   0.382   2.548 -0.3879 -0.3212  0.1912
 1468SOL    MW4 5872   0.419   0.342   2.542 -0.5760  0.0881 -0.1058
 1469SOL     OW 5873   0.643   0.467   2.602  0.1352  0.1955  0.0284
 1469SOL    HW2 5874   0.626   0.473   2.696 -1.1989 -0.5224 -0.1476
 1469SOL    HW3 5875   0.722   0.413   2.595  0.4625  0.5728  0.7435
 1469SOL    MW4 5876   0.651   0.461   2.614  0.0023  0.1505  0.0995
 1470SOL     OW 5877   0.650   0.733   2.497 -0.3975  0.3746 -0.3998
 1470SOL    HW2 5878   0.734   0.772   2.521  0.5533 -0.5199 -2.1191
 1470SOL    HW3 5879   0.659   0.640   2.520 -1.7651  0.6792  1.4711
 1470SOL    MW4 5880   0.662   0.726   2.503 -0.4525  0.2967 -0.3798
 1471SOL     OW 5881   0.438   0.892   2.596 -0.1187  0.3109 -0.2596
 1471SOL    HW2 5882   0.439   0.970   2.541 -0.3632 -0.9677 -2.1108
 1471SOL    HW3 5883   0.522   0.848   2.578  0.3584  0.5224  1.3436
 1471SOL    MW4 5884   0.449   0.896   2.587 -0.0880  0.1701 -0.2923
 1472SOL     OW 5885   0.463   1.193   2.496  0.0758  0.4701 -0.5377
 1472SOL    HW2 5886   0.541   1.221   2.543 -0.5135 -0.3571  0.9847
 1472SOL    HW3 5887   0.496   1.164   2.411  1.3254  0.8575 -0.2048
 1472SOL    MW4 5888   0.478   1.193   2.491  0.1629  0.4121 -0.2929
 1473SOL     OW 5889   0.699   1.286   2.600  0.0584  0.1556  0.1925
 1473SOL    HW2 5890   0.710   1.275   2.694  0.9487  1.9568  0.3195
 1473SOL    HW3 5891   0.770   1.233   2.562 -1.4172 -2.0818  0.4274
 1473SOL    MW4 5892   0.710   1.277   2.607 -0.0188  0.0981  0.2402
 1474SOL     OW 5893   0.676   1.550   2.538  0.5388  0.0495  0.0412
 1474SOL    HW2 5894   0.601   1.596   2.577 -0.7606 -0.6695 -1.5379
 1474SOL    HW3 5895   0.659   1.457   2.556  1.4394 -0.0698  0.3110
 1474SOL    MW4 5896   0.664   1.544   2.546  0.4862 -0.0611 -0.1316
 1475SOL     OW 5897   0.432   1.646   2.642  0.1524  0.0550 -0.2618
 1475SOL    HW2 5898   0.423   1.665   2.736 -0.0808 -0.5999 -0.1535
 1475SOL    HW3 5899   0.457   1.730   2.604 -0.0652  0.4015  0.3433
 1475SOL    MW4 5900   0.434   1.660   2.649  0.0929  0.0143 -0.1677
 1476SOL     OW 5901   0.472   1.893   2.518  0.4254  0.0696  0.0205
 1476SOL    HW2 5902   0.549   1.942   2.546  1.0893 -0.8662 -0.1371
 1476SOL    HW3 5903   0.471   1.903   2.423 -1.1362  2.2333  0.2324
 1476SOL    MW4 5904   0.482   1.901   2.510  0.3069  0.2316  0.0276
 1477SOL     OW 5905   0.714   2.031   2.922  0.0155  0.1382  0.3972
 1477SOL    HW2 5906   0.791   1.981   2.950 -1.2563 -2.8271 -1.1777
 1477SOL    HW3 5907   0.639   1.982   2.957 -1.2356  2.0798  0.5223
 1477SOL    MW4 5908   0.714   2.018   2.930 -0.3173  0.0031  0.2059
 1478SOL     OW 5909   0.700   2.056   2.639  0.0459  0.1850  0.5083
 1478SOL    HW2 5910   0.780   2.018   2.602  0.5836  0.3992  1.4346
 1478SOL    HW3 5911   0.710   2.045   2.733 -0.2442  1.7599  0.7263
 1478SOL    MW4 5912   0.712   2.049   2.646  0.0786  0.4210  0.6593
 1479SOL     OW 5913   0.473   2.451   2.968  0.1801  0.0936 -0.1736
 1479SOL    HW2 5914   0.457   2.453   2.874  0.7399 -0.8704 -0.3011
 1479SOL    HW3 5915   0.553   2.398   2.978  0.3011  0.4438  0.8148
 1479SOL    MW4 5916   0.482   2.444   2.957  0.2699  0.0127 -0.0600
 1480SOL     OW 5917   0.448   2.666   2.072 -0.0788  0.2452 -0.0737
 1480SOL    HW2 5918   0.412   2.703   1.992  1.4626  1.8633 -0.0360
 1480SOL    HW3 5919   0.517   2.726   2.098 -1.0387  0.1498  2.9002
 1480SOL    MW4 5920   0.452   2.679   2.065 -0.0021  0.4461  0.3236
 1481SOL     OW 5921   0.443   2.694   2.585 -0.2730 -0.2379  0.7139
 1481SOL    HW2 5922   0.529   2.732   2.605 -0.1280 -0.0172 -0.3356
 1481SOL    HW3 5923   0.382   2.745   2.638 -0.0002  0.9916 -0.1222
 1481SOL    MW4 5924   0.447   2.706   2.595 -0.2179 -0.0466  0.4651
 1482SOL     OW 5925   0.702   2.781   2.650 -0.2286  0.5768 -0.0348
 1482SOL    HW2 5926   0.718   2.789   2.745  2.5902 -0.7550 -0.3397
 1482SOL    HW3 5927   0.691   2.871   2.620  2.3117  1.3062  1.0630
 1482SOL    MW4 5928   0.703   2.794   2.659  0.4785  0.4973  0.0698
 1483SOL     OW 5929   0.671   3.043   2.565  0.0698  0.1272 -0.5353
 1483SOL    HW2 5930   0.745   3.094   2.598  0.1722 -0.7744  0.6676
 1483SOL    HW3 5931   0.683   3.042   2.470  0.3224  1.9193 -0.5396
 1483SOL    MW4 5932   0.683   3.049   2.557  0.1166  0.2447 -0.3772
 1484SOL     OW 5933   0.495   3.235   2.691 -0.1870  0.0306 -0.1715
 1484SOL    HW2 5934   0.506   3.232   2.786  0.6400 -0.4623 -0.2757
 1484SOL    HW3 5935   0.554   3.167   2.658  0.7576  1.2922 -1.1417
 1484SOL    MW4 5936   0.504   3.225   2.699  0.0467  0.1320 -0.3133
 1485SOL     OW 5937   0.676   3.594   2.626  0.1873 -0.1490 -0.2272
 1485SOL    HW2 5938   0.693   3.573   2.718  1.1825  0.2638 -0.3130
 1485SOL    HW3 5939   0.587   3.563   2.610 -1.1410  2.4980  1.6952
 1485SOL    MW4 5940   0.667   3.587   2.636  0.1434  0.2547  0.0152
 1486SOL     OW 5941   0.666   3.876   2.551  0.2803 -0.1753 -0.0508
 1486SOL    HW2 5942   0.587   3.922   2.581  0.2625 -0.5643  0.4922
 1486SOL    HW3 5943   0.663   3.791   2.594  1.4110  0.1015  0.6043
 1486SOL    MW4 5944   0.655   3.871   2.561  0.4271 -0.1901  0.1073
 1487SOL     OW 5945   0.405   3.984   2.625 -0.0965  0.0271 -0.1390
 1487SOL    HW2 5946   0.369   4.069   2.600  0.1296 -0.0282 -0.6653
 1487SOL    HW3 5947   0.335   3.921   2.607  0.0829 -0.0192 -0.6965
 1487SOL    MW4 5948   0.391   3.987   2.619 -0.0430  0.0136 -0.2820
 1488SOL     OW 5949   0.392   4.249   2.511  0.5502 -0.1691  0.4825
 1488SOL    HW2 5950   0.467   4.306   2.527  0.5055  0.5118 -1.6027
 1488SOL    HW3 5951   0.385   4.245   2.416 -0.8073 -1.8846  0.6351
 1488SOL    MW4 5952   0.401   4.256   2.501  0.3652 -0.3056  0.2275
 1489SOL     OW 5953   0.628   4.385   2.601 -0.0948  0.3337 -0.2103
 1489SOL    HW2 5954   0.709   4.337   2.584 -0.0346  0.3942 -0.0980
 1489SOL    HW3 5955   0.641   4.470   2.558  0.4271  0.8291  0.9017
 1489SOL    MW4 5956   0.641   4.390   2.593 -0.0180  0.4070 -0.0487
 1490SOL     OW 5957   1.127   4.611   2.532  0.1972 -0.1504 -0.1913
 1490SOL    HW2 5958   1.208   4.626   2.580  0.3304 -0.2000 -0.4019
 1490SOL    HW3 5959   1.106   4.519   2.547  0.1008 -0.0993 -0.0146
 1490SOL    MW4 5960   1.135   4.601   2.540  0.2021 -0.1502 -0.1958
 1491SOL     OW 5961   0.915   0.067   2.653 -0.0188 -0.0501  0.1316
 1491SOL    HW2 5962   0.911   0.052   2.748 -0.8375  1.9332  0.4406
 1491SOL    HW3 5963   0.998   0.028   2.626  0.1031 -0.8717  1.6330
 1491SOL    MW4 5964   0.925   0.060   2.662 -0.1108  0.1032  0.3705
 1492SOL     OW 5965   0.881   0.321   2.542 -0.0345 -0.6135 -0.3886
 1492SOL    HW2 5966   0.891   0.228   2.561 -1.4569 -0.8976 -0.9880
 1492SOL    HW3 5967   0.909   0.330   2.451  0.8217 -0.3235 -0.0982
 1492SOL    MW4 5968   0.886   0.310   2.532 -0.1092 -0.6127 -0.4294
 1493SOL     OW 5969   1.118   0.438   2.634 -0.2712 -0.3357 -0.4769
 1493SOL    HW2 5970   1.120   0.530   2.608 -1.4452  0.3723  1.7869
 1493SOL    HW3 5971   1.043   0.401   2.588 -0.1978  0.0052 -0.8661
 1493SOL    MW4 5972   1.108   0.445   2.625 -0.4164 -0.1973 -0.2296
 1494SOL     OW 5973   1.141   0.698   2.515 -0.0708  0.0818  0.1304
 1494SOL    HW2 5974   1.213   0.746   2.557 -0.1445  0.3711 -0.0757
 1494SOL    HW3 5975   1.149   0.720   2.422  0.3756 -0.9204 -0.0812
 1494SOL    MW4 5976   1.152   0.707   2.508 -0.0216 -0.0123  0.0753
 1495SOL     OW 5977   0.925   0.840   2.607  0.2809  0.0886 -0.2020
 1495SOL    HW2 5978   0.919   0.837   2.702  1.5236 -1.5168 -0.1528
 1495SOL    HW3 5979   1.010   0.801   2.587 -0.0416  0.2560 -1.9785
 1495SOL    MW4 5980   0.935   0.834   2.617  0.4023 -0.1011 -0.4299
 1496SOL     OW 5981   0.942   1.094   2.528  0.0372 -0.5384  0.0718
 1496SOL    HW2 5982   0.929   1.004   2.558 -1.5783 -0.5746 -0.6601
 1496SOL    HW3 5983   0.939   1.088   2.432 -1.5419  0.4742  0.0436
 1496SOL    MW4 5984   0.940   1.081   2.519 -0.3843 -0.4096 -0.0285
 1497SOL     OW 5985   1.135   1.261   2.690 -0.0959 -0.6927 -0.2396
 1497SOL    HW2 5986   1.126   1.330   2.624  1.6245 -1.1971 -1.0190
 1497SOL    HW3 5987   1.093   1.185   2.651 -0.3045 -0.6208 -0.1601
 1497SOL    MW4 5988   1.128   1.260   2.676  0.1036 -0.7498 -0.3319
 1498SOL     OW 5989   1.167   1.516   2.533  0.4945 -0.0439 -0.0023
 1498SOL    HW2 5990   1.083   1.556   2.553  0.0870 -1.4212  1.1649
 1498SOL    HW3 5991   1.197   1.560   2.453 -0.8638  1.1322  0.1250
 1498SOL    MW4 5992   1.160   1.527   2.525  0.2615 -0.0704  0.1685
 1499SOL     OW 5993   0.931   1.636   2.647  0.0557  0.2980 -0.3085
 1499SOL    HW2 5994   0.906   1.638   2.740  0.3296  0.2953 -0.2349
 1499SOL    HW3 5995   0.862   1.584   2.606  0.5640 -0.7012  0.0848
 1499SOL    MW4 5996   0.918   1.629   2.654  0.1589  0.1658 -0.2469
 1500SOL     OW 5997   0.705   2.057   2.126  0.1087  0.3866 -0.3516
 1500SOL    HW2 5998   0.773   2.016   2.178 -1.2643  0.0487  1.2254
 1500SOL    HW3 5999   0.695   2.144   2.163  1.1011  1.1720 -1.9065
 1500SOL    MW4 6000   0.712   2.063   2.137  0.0585  0.4457 -0.3487
 1501SOL     OW 6001   0.941   1.895   2.521 -0.3307  0.1594  0.8345
 1501SOL    HW2 6002   0.923   1.810   2.560  1.1059 -0.4632  0.2033
 1501SOL    HW3 6003   1.019   1.927   2.568 -0.1295  0.5690  0.2347
 1501SOL    MW4 6004   0.949   1.888   2.533 -0.1146  0.1313  0.6721
 1502SOL     OW 6005   1.167   2.036   2.640 -0.0843 -0.1228 -0.0731
 1502SOL    HW2 6006   1.257   2.013   2.618 -0.7908 -1.5849 -1.5409
 1502SOL    HW3 6007   1.157   2.126   2.610  1.2699  0.5324  1.3329
 1502SOL    MW4 6008   1.178   2.045   2.633  0.0012 -0.2293 -0.0813
 1503SOL     OW 6009   0.951   2.418   2.621  0.1678  0.0769  0.4441
 1503SOL    HW2 6010   1.026   2.363   2.599  0.8628  0.7671  1.0433
 1503SOL    HW3 6011   0.965   2.499   2.572 -1.0096 -0.3853 -0.6764
 1503SOL    MW4 6012   0.963   2.422   2.612  0.1041  0.1070  0.3753
 1504SOL     OW 6013   0.931   2.689   2.512 -0.1407  0.7548 -0.2944
 1504SOL    HW2 6014   1.000   2.743   2.552  1.5829 -1.8580  0.3410
 1504SOL    HW3 6015   0.850   2.722   2.551  1.0150  1.8180  1.2831
 1504SOL    MW4 6016   0.930   2.701   2.522  0.2392  0.5504 -0.0024
 1505SOL     OW 6017   1.138   2.833   2.632 -0.2741 -0.4669  0.3711
 1505SOL    HW2 6018   1.121   2.798   2.720 -0.8476 -0.2765  0.3388
 1505SOL    HW3 6019   1.223   2.796   2.607 -0.7058 -1.5595  0.4874
 1505SOL    MW4 6020   1.147   2.823   2.640 -0.4067 -0.5859  0.3822
 1506SOL     OW 6021   1.139   3.096   2.561 -0.2779 -0.0644  0.4023
 1506SOL    HW2 6022   1.143   3.005   2.589 -0.9749 -0.3630 -0.4351
 1506SOL    HW3 6023   1.155   3.093   2.467  0.1656  0.7276  0.4483
 1506SOL    MW4 6024   1.142   3.084   2.553 -0.3113  0.0007  0.2979
 1507SOL     OW 6025   0.885   3.191   2.656 -0.1406  0.7108  0.2329
 1507SOL    HW2 6026   0.957   3.152   2.606 -0.9813 -0.4064 -0.1292
 1507SOL    HW3 6027   0.880   3.280   2.623 -1.0031 -0.1427 -2.0954
 1507SOL    MW4 6028   0.894   3.197   2.645 -0.3653  0.4508 -0.1220
 1508SOL     OW 6029   0.887   3.462   2.521  0.0000  0.0000  0.2137
 1508SOL    HW2 6030   0.961   3.509   2.561  0.0000  0.0000  0.2046
 1508SOL    HW3 6031   0.810   3.512   2.549  0.0000  0.0000  0.2020
 1508SOL    MW4 6032   0.887   3.475   2.530  0.0000  0.0000  0.2110
 1509SOL     OW 6033   1.102   3.599   2.639  0.0000  0.0000 -0.3723
 1509SOL    HW2 6034   1.101   3.626   2.731  0.0000  0.0000 -0.3743
 1509SOL    HW3 6035   1.100   3.681   2.590  0.0000  0.0000 -0.3784
 1509SOL    MW4 6036   1.102   3.613   2.645  0.0000  0.0000 -0.3734
 1510SOL     OW 6037   1.098   3.851   2.513  0.0000  0.0000 -0.6950
 1510SOL    HW2 6038   1.178   3.889   2.551  0.0000  0.0000 -0.7015
 1510SOL    HW3 6039   1.110   3.859   2.419  0.0000  0.0000 -0.6961
 1510SOL    MW4 6040   1.110   3.857   2.506  0.0000  0.0000 -0.6960
 1511SOL     OW 6041   0.893   4.008   2.626  0.0000  0.0000 -0.0543
 1511SOL    HW2 6042   0.957   3.963   2.571  0.0000  0.0000 -0.0583
 1511SOL    HW3 6043   0.809   3.969   2.600  0.0000  0.0000 -0.0609
 1511SOL    MW4 6044   0.890   3.997   2.615  0.0000  0.0000 -0.0557
 1512SOL     OW 6045   0.888   4.266   2.534  0.0000  0.0000 -0.7173
 1512SOL    HW2 6046   0.892   4.173   2.559  0.0000  0.0000 -0.7132
 1512SOL    HW3 6047   0.884   4.265   2.438  0.0000  0.0000 -0.7172
 1512SOL    MW4 6048   0.888   4.254   2.525  0.0000  0.0000 -0.7167
 1513SOL     OW 6049   1.144   4.351   2.651  0.0000  0.0000 -0.1507
 1513SOL    HW2 6050   1.137   4.378   2.743  0.0000  0.0000 -0.1509
 1513SOL    HW3 6051   1.055   4.327   2.626  0.0000  0.0000 -0.1487
 1513SOL    MW4 6052   1.131   4.351   2.660  0.0000  0.0000 -0.1504
 1514SOL     OW 6053   1.593   4.643   2.593  0.0000  0.0000 -0.2016
 1514SOL    HW2 6054   1.588   4.549   2.610  0.0000  0.0000 -0.2102
 1514SOL    HW3 6055   1.581   4.652   2.499  0.0000  0.0000 -0.2012
 1514SOL    MW4 6056   1.591   4.632   2.583  0.0000  0.0000 -0.2027
 1515SOL     OW 6057   1.351   0.086   2.652  0.0000  0.0000  0.5406
 1515SOL    HW2 6058   1.350   0.171   2.606  0.0000  0.0000  0.5858
 1515SOL    HW3 6059   1.437   0.049   2.631  0.0000  0.0000  0.4223
 1515SOL    MW4 6060   1.362   0.092   2.643  0.0000  0.0000  0.5310
 1516SOL     OW 6061   1.360   0.344   2.510  0.0000  0.0000  0.1283
 1516SOL    HW2 6062   1.437   0.387   2.548  0.0000  0.0000  0.1051
 1516SOL    HW3 6063   1.286   0.396   2.542  0.0000  0.0000  0.1170
 1516SOL    MW4 6064   1.360   0.357   2.519  0.0000  0.0000  0.1238
 1517SOL     OW 6065   1.561   0.493   2.618  0.8668 -0.3486  0.2963
 1517SOL    HW2 6066   1.646   0.474   2.577  0.7785  1.7845 -0.9504
 1517SOL    HW3 6067   1.539   0.581   2.588 -0.9451 -0.1606  2.0724
 1517SOL    MW4 6068   1.569   0.502   2.609  0.6161 -0.0424  0.3662
 1518SOL     OW 6069   1.542   0.755   2.547 -0.2051  0.3842 -0.0230
 1518SOL    HW2 6070   1.478   0.816   2.584  0.5811  1.3602 -0.2697
 1518SOL    HW3 6071   1.541   0.773   2.453 -0.8388 -0.8163 -0.2694
 1518SOL    MW4 6072   1.533   0.765   2.539 -0.1850  0.3546 -0.0881
 1519SOL     OW 6073   1.329   0.899   2.636  0.6931  0.0438 -0.2734
 1519SOL    HW2 6074   1.314   0.885   2.729 -0.6267 -1.3396 -0.6677
 1519SOL    HW3 6075   1.349   0.992   2.629  1.9031 -0.0660  1.5120
 1519SOL    MW4 6076   1.329   0.910   2.647  0.6786 -0.1532 -0.0899
 1520SOL     OW 6077   1.605   1.306   2.682  0.4816  0.0450 -0.3883
 1520SOL    HW2 6078   1.658   1.235   2.644  0.4037 -0.5373  0.5806
 1520SOL    HW3 6079   1.600   1.285   2.775  0.2996  1.2331 -0.1221
 1520SOL    MW4 6080   1.611   1.294   2.689  0.4473  0.1249 -0.2253
 1521SOL     OW 6081   1.394   1.172   2.595 -0.1097  0.1130  0.2608
 1521SOL    HW2 6082   1.464   1.221   2.638 -0.4747  0.8513  0.0241
 1521SOL    HW3 6083   1.316   1.193   2.645 -0.4109  0.4060 -0.3244
 1521SOL    MW4 6084   1.393   1.181   2.607 -0.1976  0.2491  0.1524
 1522SOL     OW 6085   1.609   1.573   2.575 -0.3798 -0.2418 -0.5159
 1522SOL    HW2 6086   1.605   1.488   2.617  0.2128 -0.3659 -0.7057
 1522SOL    HW3 6087   1.606   1.553   2.481 -0.2306 -0.0580 -0.5603
 1522SOL    MW4 6088   1.608   1.559   2.568 -0.2820 -0.2339 -0.5468
 1523SOL     OW 6089   1.371   1.644   2.688 -0.1630 -0.4088 -0.1759
 1523SOL    HW2 6090   1.449   1.620   2.638  0.3395 -0.0259  0.4100
 1523SOL    HW3 6091   1.299   1.600   2.643  0.4718 -1.2973 -0.3563
 1523SOL    MW4 6092   1.372   1.635   2.675 -0.0129 -0.4755 -0.1224
 1524SOL     OW 6093   1.418   1.879   2.536 -0.2123 -0.1819 -0.4499
 1524SOL    HW2 6094   1.371   1.813   2.586 -1.6577  0.4892 -0.8873
 1524SOL    HW3 6095   1.405   1.855   2.444 -0.0449  0.2352 -0.5881
 1524SOL    MW4 6096   1.410   1.867   2.530 -0.3809 -0.0383 -0.5258
 1525SOL     OW 6097   1.618   2.022   2.638  0.2032  0.2138  0.4139
 1525SOL    HW2 6098   1.694   1.989   2.591  1.1101  0.9730  1.3139
 1525SOL    HW3 6099   1.543   1.976   2.599  1.1865 -1.0514 -0.0164
 1525SOL    MW4 6100   1.618   2.011   2.627  0.4526  0.1471  0.4759
 1526SOL     OW 6101   1.613   2.295   2.582  0.2490  0.5566 -0.3900
 1526SOL    HW2 6102   1.698   2.332   2.608 -0.6964  1.6355  1.2618
 1526SOL    HW3 6103   1.619   2.203   2.607  0.8835  0.6492 -0.1800
 1526SOL    MW4 6104   1.625   2.288   2.589  0.2080  0.7112 -0.1443
 1527SOL     OW 6105   1.386   2.710   2.554  0.8003 -0.1319  0.0641
 1527SOL    HW2 6106   1.459   2.764   2.585 -0.3180  1.6730 -0.3745
 1527SOL    HW3 6107   1.381   2.728   2.460 -0.5920  0.2358  0.1967
 1527SOL    MW4 6108   1.395   2.719   2.545  0.4691  0.1547  0.0237
 1528SOL     OW 6109   1.588   2.854   2.650  0.1919  0.1611 -0.2148
 1528SOL    HW2 6110   1.585   2.841   2.745 -2.7475  1.8004 -0.0335
 1528SOL    HW3 6111   1.655   2.793   2.620  1.3970 -0.1679  2.9466
 1528SOL    MW4 6112   1.597   2.844   2.658 -0.0369  0.3340  0.2262
 1529SOL     OW 6113   1.590   2.795   2.929 -0.3477 -0.0691  0.3786
 1529SOL    HW2 6114   1.513   2.775   2.981  0.4145 -1.8017  0.8512
 1529SOL    HW3 6115   1.659   2.738   2.963  0.7052  0.2400 -1.1536
 1529SOL    MW4 6116   1.589   2.785   2.940 -0.1083 -0.2569  0.2388
 1530SOL     OW 6117   1.626   3.105   2.517 -0.7627  0.3238  0.7078
 1530SOL    HW2 6118   1.677   3.171   2.564  0.9951 -0.8117  0.4257
 1530SOL    HW3 6119   1.615   3.034   2.580 -0.8102 -0.0261  0.3040
 1530SOL    MW4 6120   1.631   3.105   2.531 -0.5370  0.1278  0.6173
 1531SOL     OW 6121   1.394   3.184   2.627  0.4965 -0.1883 -0.2835
 1531SOL    HW2 6122   1.456   3.154   2.560 -0.3028  2.1536 -2.1070
 1531SOL    HW3 6123   1.311   3.144   2.602  0.0194  1.3498 -1.1643
 1531SOL    MW4 6124   1.391   3.175   2.615  0.3281  0.3236 -0.6403
 1532SOL     OW 6125   1.339   3.434   2.497 -0.5375 -0.2182 -0.3808
 1532SOL    HW2 6126   1.355   3.351   2.541  0.9530 -0.7528 -1.8476
 1532SOL    HW3 6127   1.257   3.466   2.533 -0.7629 -1.9928  0.7096
 1532SOL    MW4 6128   1.330   3.427   2.507 -0.3706 -0.5228 -0.4305
 1533SOL     OW 6129   1.545   3.593   2.639 -0.2615  0.1079  0.1843
 1533SOL    HW2 6130   1.626   3.544   2.625 -1.1058 -1.1212 -0.4817
 1533SOL    HW3 6131   1.482   3.551   2.581 -1.4358  0.9186  0.8682
 1533SOL    MW4 6132   1.548   3.581   2.630 -0.5278  0.0527  0.1867
 1534SOL     OW 6133   1.624   3.863   2.614  0.0968 -0.6679  0.1174
 1534SOL    HW2 6134   1.541   3.911   2.617  0.0678 -0.6784 -0.5484
 1534SOL    HW3 6135   1.599   3.771   2.608  0.1583 -0.6288 -0.7418
 1534SOL    MW4 6136   1.610   3.858   2.614  0.1011 -0.6641 -0.0838
 1535SOL     OW 6137   1.329   3.984   2.590  0.0098  0.4089  0.0221
 1535SOL    HW2 6138   1.350   3.977   2.684 -0.9360 -0.5306  0.1783
 1535SOL    HW3 6139   1.326   4.078   2.573  0.3031  0.5902  0.9139
 1535SOL    MW4 6140   1.331   3.995   2.600 -0.0763  0.3089  0.1603
 1536SOL     OW 6141   1.375   4.281   2.537 -0.4253 -0.1045 -0.1819
 1536SOL    HW2 6142   1.292   4.303   2.579 -0.6779  1.0791 -1.2665
 1536SOL    HW3 6143   1.355   4.285   2.443  0.8830  0.2799 -0.4462
 1536SOL    MW4 6144   1.361   4.284   2.530 -0.2860  0.1024 -0.3599
 1537SOL     OW 6145   1.587   4.385   2.681  0.0471 -0.6417 -0.3048
 1537SOL    HW2 6146   1.588   4.359   2.773  0.1595  0.7950  0.1165
 1537SOL    HW3 6147   1.503   4.354   2.648  0.8223 -2.9040 -0.2545
 1537SOL    MW4 6148   1.576   4.377   2.689  0.1642 -0.7506 -0.2426
 1538SOL     OW 6149   2.008   4.664   2.531 -0.0081  0.4829  0.0941
 1538SOL    HW2 6150   2.093   4.701   2.555 -0.8169  2.9568 -0.7140
 1538SOL    HW3 6151   2.005   4.670   2.436  0.1038 -2.3628 -0.1294
 1538SOL    MW4 6152   2.019   4.670   2.522 -0.1001  0.4339 -0.0420
 1539SOL     OW 6153   1.812   0.149   2.672 -0.0815  0.1220 -0.0253
 1539SOL    HW2 6154   1.878   0.106   2.618  0.1442  1.1363 -0.5827
 1539SOL    HW3 6155   1.729   0.108   2.647  0.2220 -0.4892 -0.0219
 1539SOL    MW4 6156   1.809   0.138   2.661 -0.0117  0.1752 -0.0984
 1540SOL     OW 6157   1.814   0.392   2.558  0.0675 -0.3759 -0.0358
 1540SOL    HW2 6158   1.808   0.364   2.467 -0.1089 -0.2661 -0.0574
 1540SOL    HW3 6159   1.809   0.310   2.608 -0.9934 -0.3356 -0.0766
 1540SOL    MW4 6160   1.813   0.377   2.553 -0.0958 -0.3561 -0.0440
 1541SOL     OW 6161   2.030   0.533   2.646  0.2718  0.3399  0.4307
 1541SOL    HW2 6162   1.952   0.505   2.599 -0.8419  0.4508  2.1734
 1541SOL    HW3 6163   2.100   0.479   2.611 -0.4588  0.7061 -1.6366
 1541SOL    MW4 6164   2.029   0.522   2.635  0.0284  0.4029  0.3879
 1542SOL     OW 6165   2.036   0.760   2.531 -0.3826  0.3877 -0.2246
 1542SOL    HW2 6166   1.947   0.789   2.553 -0.5855 -0.2407 -0.2006
 1542SOL    HW3 6167   2.042   0.672   2.567 -0.2580 -0.1353 -1.5065
 1542SOL    MW4 6168   2.025   0.752   2.539 -0.3930  0.2358 -0.3906
 1543SOL     OW 6169   1.792   0.844   2.626 -0.0938 -0.0180 -0.0113
 1543SOL    HW2 6170   1.784   0.937   2.605 -0.7509  0.0076  0.3508
 1543SOL    HW3 6171   1.709   0.805   2.600 -0.2885 -0.2811  0.9816
 1543SOL    MW4 6172   1.780   0.851   2.620 -0.2062 -0.0493  0.1675
 1544SOL     OW 6173   1.811   1.102   2.549  0.0080 -0.3806 -0.0564
 1544SOL    HW2 6174   1.863   1.147   2.616 -0.5067  0.2902 -0.0962
 1544SOL    HW3 6175   1.850   1.129   2.466  1.4288 -2.1920 -0.0078
 1544SOL    MW4 6176   1.823   1.112   2.547  0.1275 -0.5311 -0.0553
 1545SOL     OW 6177   2.027   1.273   2.669  0.1982 -0.2257 -0.2620
 1545SOL    HW2 6178   2.030   1.243   2.760  0.9019  1.9866  0.4620
 1545SOL    HW3 6179   2.106   1.236   2.629  0.4573 -0.2762  0.2995
 1545SOL    MW4 6180   2.038   1.264   2.676  0.3253  0.0595 -0.0924
 1546SOL     OW 6181   2.031   1.525   2.517 -0.2906 -0.2546 -0.0194
 1546SOL    HW2 6182   1.969   1.580   2.565 -1.8000 -0.1323 -2.0243
 1546SOL    HW3 6183   2.027   1.440   2.562 -0.0277  0.4596  1.3856
 1546SOL    MW4 6184   2.022   1.521   2.530 -0.4551 -0.1443 -0.0985
 1547SOL     OW 6185   1.844   1.654   2.668  0.8189 -0.3395  0.6598
 1547SOL    HW2 6186   1.836   1.641   2.762  0.3745 -1.9665  0.4067
 1547SOL    HW3 6187   1.759   1.629   2.632  0.8321  0.7159 -0.1379
 1547SOL    MW4 6188   1.832   1.649   2.676  0.7620 -0.4149  0.5212
 1548SOL     OW 6189   1.867   1.901   2.548 -0.1117 -0.3524 -0.5870
 1548SOL    HW2 6190   1.951   1.938   2.575 -1.0423  0.8943  0.6794
 1548SOL    HW3 6191   1.868   1.812   2.582 -0.0357  0.2340  0.9640
 1548SOL    MW4 6192   1.878   1.894   2.556 -0.2244 -0.1105 -0.2153
 1549SOL     OW 6193   2.082   2.036   2.671 -0.0064  0.2744  0.3688
 1549SOL    HW2 6194   2.076   2.023   2.765  0.1831 -0.7849  0.2390
 1549SOL    HW3 6195   2.085   2.131   2.660 -0.2142  0.4051  1.4144
 1549SOL    MW4 6196   2.082   2.047   2.682 -0.0088  0.1519  0.4896
 1550SOL     OW 6197   2.089   2.306   2.585 -0.1820  0.1920 -0.0206
 1550SOL    HW2 6198   2.157   2.372   2.597  1.7057 -1.6065 -0.4388
 1550SOL    HW3 6199   2.088   2.290   2.490  0.6057 -1.5757  0.2423
 1550SOL    MW4 6200   2.098   2.313   2.574  0.1710 -0.2785 -0.0411
 1551SOL     OW 6201   1.839   2.416   2.664 -0.0920  0.4033  0.1719
 1551SOL    HW2 6202   1.838   2.427   2.759 -0.5801  1.7024  0.0276
 1551SOL    HW3 6203   1.930   2.393   2.643  0.1274  0.6035  0.9052
 1551SOL    MW4 6204   1.851   2.414   2.674 -0.1274  0.6011  0.2496
 1552SOL     OW 6205   1.797   2.682   2.556  0.3093  0.1218 -0.2918
 1552SOL    HW2 6206   1.815   2.596   2.595  0.6683  0.7177  0.8691
 1552SOL    HW3 6207   1.803   2.667   2.462  1.4127 -0.9084 -0.0709
 1552SOL    MW4 6208   1.801   2.668   2.549  0.5023  0.0645 -0.1095
 1553SOL     OW 6209   1.998   2.859   2.709  0.5450  0.2056 -0.2331
 1553SOL    HW2 6210   1.938   2.807   2.655  1.7198  0.1071 -1.4732
 1553SOL    HW3 6211   2.084   2.818   2.695  0.9387  0.4502  1.3779
 1553SOL    MW4 6212   2.002   2.846   2.700  0.7520  0.2249 -0.1841
 1554SOL     OW 6213   2.028   3.122   2.600  0.4545 -0.3746 -0.1513
 1554SOL    HW2 6214   2.008   3.035   2.635  0.0269  0.0480  0.6876
 1554SOL    HW3 6215   2.028   3.111   2.505 -1.0267 -0.9953 -0.0933
 1554SOL    MW4 6216   2.025   3.109   2.592  0.2027 -0.4007 -0.0329
 1555SOL     OW 6217   1.804   3.250   2.672  0.8013 -0.9377  0.1548
 1555SOL    HW2 6218   1.795   3.340   2.640 -1.5074 -0.9432  0.6478
 1555SOL    HW3 6219   1.887   3.219   2.636  0.4711  0.5804 -1.9916
 1555SOL    MW4 6220   1.814   3.258   2.663  0.4532 -0.7381 -0.0634
 1556SOL     OW 6221   1.788   3.499   2.551 -0.0220  0.4043 -0.4452
 1556SOL    HW2 6222   1.857   3.555   2.585  1.5785 -0.4945 -2.1117
 1556SOL    HW3 6223   1.764   3.539   2.467  0.1737 -0.6217 -0.9983
 1556SOL    MW4 6224   1.794   3.511   2.544  0.2150  0.1503 -0.7381
 1557SOL     OW 6225   2.013   3.598   2.670  0.0154 -0.3252 -0.1293
 1557SOL    HW2 6226   2.012   3.577   2.763  0.2527 -0.8766 -0.2482
 1557SOL    HW3 6227   2.089   3.551   2.635  2.5364  3.3376  0.1803
 1557SOL    MW4 6228   2.023   3.589   2.678  0.3793  0.0853 -0.1041
 1558SOL     OW 6229   2.028   3.866   2.575  0.3160 -0.1227  0.0069
 1558SOL    HW2 6230   1.963   3.918   2.622  0.6564  0.6137 -0.3301
 1558SOL    HW3 6231   2.024   3.779   2.616 -1.1441 -0.1946 -0.2785
 1558SOL    MW4 6232   2.019   3.861   2.587  0.1682 -0.0350 -0.0752
 1559SOL     OW 6233   1.841   4.006   2.709 -0.1412  0.1384 -0.1440
 1559SOL    HW2 6234   1.850   4.086   2.657 -0.9341 -0.1319 -0.7106
 1559SOL    HW3 6235   1.765   3.962   2.671  1.0749 -1.5270 -0.7131
 1559SOL    MW4 6236   1.832   4.011   2.697 -0.0854 -0.1170 -0.2939
 1560SOL     OW 6237   1.830   4.267   2.563 -0.3034  0.3453  0.0160
 1560SOL    HW2 6238   1.752   4.312   2.596 -1.2388 -0.5822 -0.8355
 1560SOL    HW3 6239   1.812   4.255   2.469  0.5861 -0.4478 -0.0616
 1560SOL    MW4 6240   1.817   4.271   2.555 -0.3095  0.1183 -0.1065
 1561SOL     OW 6241   2.067   4.403   2.596 -0.3565 -0.1377 -0.3826
 1561SOL    HW2 6242   1.990   4.348   2.583 -0.9214  0.0040  2.0112
 1561SOL    HW3 6243   2.035   4.492   2.582 -1.4301  0.1722  3.5199
 1561SOL    MW4 6244   2.053   4.408   2.592 -0.5727 -0.0781  0.4481
 1562SOL     OW 6245   2.461   4.612   2.576  0.6853  0.6898  0.1772
 1562SOL    HW2 6246   2.519   4.669   2.628  0.7414  1.0956 -0.3287
 1562SOL    HW3 6247   2.496   4.617   2.487  1.2945 -0.9376  0.3223
 1562SOL    MW4 6248   2.473   4.620   2.571  0.7730  0.5286  0.1296
 1563SOL     OW 6249   2.248   0.094   2.628 -0.4156 -0.0695  0.1296
 1563SOL    HW2 6250   2.238   0.069   2.719 -0.7161 -0.9356 -0.1309
 1563SOL    HW3 6251   2.322   0.041   2.597 -2.6552 -2.6180 -1.1128
 1563SOL    MW4 6252   2.257   0.083   2.636 -0.7508 -0.5200 -0.0687
 1564SOL     OW 6253   2.261   0.366   2.568  0.5109 -0.5784  0.4304
 1564SOL    HW2 6254   2.264   0.374   2.473  1.5233  0.2014  0.5085
 1564SOL    HW3 6255   2.247   0.273   2.584  2.3994 -1.0645 -0.4928
 1564SOL    MW4 6256   2.260   0.355   2.557  0.8936 -0.5396  0.3189
 1565SOL     OW 6257   2.474   0.507   2.677 -0.3423  0.0823  0.5437
 1565SOL    HW2 6258   2.481   0.592   2.632 -0.0397  0.4767  1.3251
 1565SOL    HW3 6259   2.388   0.474   2.651 -0.7372  0.9311  0.7328
 1565SOL    MW4 6260   2.463   0.514   2.668 -0.3544  0.2463  0.6717
 1566SOL     OW 6261   2.467   0.774   2.552  0.0695  0.0601  0.3342
 1566SOL    HW2 6262   2.388   0.820   2.582 -0.4235 -0.5766  0.0351
 1566SOL    HW3 6263   2.468   0.788   2.457  1.3503  1.6515  0.5804
 1566SOL    MW4 6264   2.456   0.782   2.543  0.1735  0.1860  0.3272
 1567SOL     OW 6265   2.241   0.891   2.639 -0.1134 -0.2470 -0.3219
 1567SOL    HW2 6266   2.232   0.878   2.733  1.1681 -1.0097 -0.2905
 1567SOL    HW3 6267   2.168   0.842   2.601 -0.5769 -0.0108  0.2711
 1567SOL    MW4 6268   2.230   0.883   2.646 -0.0054 -0.3165 -0.2395
 1568SOL     OW 6269   2.228   1.144   2.525 -0.8229 -0.1209  0.0913
 1568SOL    HW2 6270   2.221   1.049   2.534  0.0639 -0.1819  0.1705
 1568SOL    HW3 6271   2.195   1.162   2.437 -0.6305 -0.5520 -0.0741
 1568SOL    MW4 6272   2.223   1.133   2.515 -0.6805 -0.1858  0.0799
 1569SOL     OW 6273   2.449   1.317   2.620  0.3021  0.0056  0.0279
 1569SOL    HW2 6274   2.526   1.272   2.586 -0.8689 -1.8875 -0.1977
 1569SOL    HW3 6275   2.376   1.280   2.571 -1.0477 -0.2250  2.1377
 1569SOL    MW4 6276   2.450   1.307   2.609 -0.0305 -0.2746  0.2765
 1570SOL     OW 6277   2.484   1.575   2.521 -0.1177 -0.0820 -0.4435
 1570SOL    HW2 6278   2.412   1.622   2.563  0.1987  0.2390 -0.2686
 1570SOL    HW3 6279   2.471   1.484   2.548  0.1832  0.1448  0.4861
 1570SOL    MW4 6280   2.473   1.569   2.530 -0.0363 -0.0097 -0.2978
 1571SOL     OW 6281   2.235   1.679   2.619  0.0652  0.1939  0.3632
 1571SOL    HW2 6282   2.233   1.766   2.579  0.8269  0.9782  1.9923
 1571SOL    HW3 6283   2.156   1.636   2.586 -0.2919  1.4656 -0.5059
 1571SOL    MW4 6284   2.224   1.685   2.609  0.1186  0.4652  0.4635
 1572SOL     OW 6285   2.283   1.934   2.523  0.6467  0.4099 -0.3300
 1572SOL    HW2 6286   2.207   1.982   2.557  0.9079  1.2510 -0.9337
 1572SOL    HW3 6287   2.263   1.922   2.431  0.2214 -1.3447 -0.0250
 1572SOL    MW4 6288   2.270   1.939   2.516  0.6251  0.2893 -0.3694
 1573SOL     OW 6289   2.502   2.011   2.651  0.1096  0.5214  0.6208
 1573SOL    HW2 6290   2.516   2.103   2.629 -1.8406  1.2424  2.2005
 1573SOL    HW3 6291   2.421   1.988   2.606  1.8500 -1.1527 -1.7298
 1573SOL    MW4 6292   2.493   2.020   2.642  0.0819  0.3957  0.5191
 1574SOL     OW 6293   2.513   2.272   2.556 -0.0063  0.0971 -0.2646
 1574SOL    HW2 6294   2.587   2.330   2.577  1.6960 -2.0782  0.0143
 1574SOL    HW3 6295   2.506   2.275   2.461  1.4113 -0.7798 -0.4145
 1574SOL    MW4 6296   2.522   2.280   2.547  0.4053 -0.3056 -0.2476
 1575SOL     OW 6297   2.329   2.456   2.650  0.3318  0.3365  0.0132
 1575SOL    HW2 6298   2.323   2.457   2.746  0.2835  0.6878  0.0083
 1575SOL    HW3 6299   2.412   2.412   2.632 -0.3622 -1.0349  0.1759
 1575SOL    MW4 6300   2.339   2.451   2.660  0.2339  0.2019  0.0340
 1576SOL     OW 6301   2.252   2.723   2.613 -0.4189  0.0162 -0.3588
 1576SOL    HW2 6302   2.322   2.777   2.648  0.4084 -0.5032 -1.1784
 1576SOL    HW3 6303   2.289   2.635   2.608 -1.6601 -0.5868  0.7088
 1576SOL    MW4 6304   2.266   2.718   2.617 -0.4735 -0.1319 -0.3261
 1577SOL     OW 6305   2.465   2.858   2.741 -0.5098  0.2127  0.5520
 1577SOL    HW2 6306   2.547   2.816   2.715  0.2833  0.2053  2.9609
 1577SOL    HW3 6307   2.469   2.945   2.702 -0.3707 -0.5494 -1.1775
 1577SOL    MW4 6308   2.476   2.864   2.733 -0.3868  0.1112  0.6416
 1578SOL     OW 6309   2.462   3.071   2.558  0.2468  0.1491 -0.3105
 1578SOL    HW2 6310   2.406   3.135   2.602 -0.3922 -0.6209  0.0108
 1578SOL    HW3 6311   2.434   3.073   2.467  1.0962  1.2449 -0.5582
 1578SOL    MW4 6312   2.451   3.080   2.552  0.2746  0.1921 -0.3008
 1579SOL     OW 6313   2.271   3.223   2.693 -0.0275  0.4133  0.5028
 1579SOL    HW2 6314   2.300   3.215   2.784  1.2164 -1.2197 -0.0180
 1579SOL    HW3 6315   2.197   3.164   2.687 -0.1199  0.5338  0.4511
 1579SOL    MW4 6316   2.265   3.214   2.704  0.1244  0.2137  0.4273
 1580SOL     OW 6317   2.221   3.471   2.561 -0.3964  0.3635 -0.1689
 1580SOL    HW2 6318   2.296   3.526   2.583 -0.5424  0.5204 -0.0662
 1580SOL    HW3 6319   2.237   3.389   2.608 -0.5429  0.5779  0.2539
 1580SOL    MW4 6320   2.233   3.467   2.570 -0.4350  0.4125 -0.0996
 1581SOL     OW 6321   2.462   3.577   2.648 -0.8942 -0.1735  0.0188
 1581SOL    HW2 6322   2.461   3.574   2.743  2.1313  0.9594  0.1245
 1581SOL    HW3 6323   2.462   3.671   2.627 -2.1161 -0.4017 -1.1431
 1581SOL    MW4 6324   2.462   3.589   2.658 -0.6562 -0.0541 -0.1206
 1582SOL     OW 6325   2.399   3.835   2.323  0.3931 -0.0144 -0.0302
 1582SOL    HW2 6326   2.413   3.840   2.417  0.1760  0.1768 -0.0058
 1582SOL    HW3 6327   2.328   3.897   2.306  1.0059  0.5877 -0.4338
 1582SOL    MW4 6328   2.392   3.844   2.333  0.4453  0.0903 -0.0803
 1583SOL     OW 6329   2.242   3.991   2.690  0.1743 -0.0036 -0.3121
 1583SOL    HW2 6330   2.238   3.973   2.784 -0.5998  0.9262 -0.1609
 1583SOL    HW3 6331   2.160   3.956   2.655  0.6901 -0.8181 -0.7323
 1583SOL    MW4 6332   2.231   3.984   2.698  0.1402  0.0116 -0.3476
 1584SOL     OW 6333   2.289   4.231   2.587  0.2812  0.1674 -0.2077
 1584SOL    HW2 6334   2.267   4.150   2.633  0.2590  0.5571  0.4704
 1584SOL    HW3 6335   2.212   4.286   2.598  0.5604  0.5330 -0.0986
 1584SOL    MW4 6336   2.276   4.227   2.595  0.3151  0.2671 -0.1038
 1585SOL     OW 6337   2.492   4.366   2.730  0.4589  0.1784  0.2759
 1585SOL    HW2 6338   2.437   4.307   2.679 -2.4583  1.2870  2.0212
 1585SOL    HW3 6339   2.480   4.452   2.690  0.0099  0.6346  1.3635
 1585SOL    MW4 6340   2.483   4.370   2.718  0.0148  0.3849  0.6497
 1586SOL     OW 6341   2.882   4.648   2.578  0.3261  0.1748  0.0187
 1586SOL    HW2 6342   2.955   4.706   2.599  1.6368 -1.0554 -1.0758
 1586SOL    HW3 6343   2.889   4.635   2.483 -1.2805 -0.0096 -0.0873
 1586SOL    MW4 6344   2.892   4.654   2.568  0.2870 -0.0118 -0.1397
 1587SOL     OW 6345   2.649   0.104   2.673  1.0143 -0.2185 -0.2993
 1587SOL    HW2 6346   2.673   0.093   2.765 -2.7133 -1.1528  0.6240
 1587SOL    HW3 6347   2.719   0.059   2.625  2.5052 -0.5313  2.0784
 1587SOL    MW4 6348   2.661   0.096   2.678  0.7192 -0.3831  0.1362
 1588SOL     OW 6349   2.926   0.517   2.680  0.0120 -0.3461  0.5585
 1588SOL    HW2 6350   2.854   0.457   2.661 -0.3811  0.8639 -2.0546
 1588SOL    HW3 6351   2.889   0.604   2.661  1.5132  0.4515  1.2510
 1588SOL    MW4 6352   2.911   0.521   2.675  0.1582 -0.0812  0.3051
 1589SOL     OW 6353   2.828   0.769   2.606 -0.1319 -0.2259  0.0064
 1589SOL    HW2 6354   2.769   0.839   2.635 -0.3744 -0.4733  0.1129
 1589SOL    HW3 6355   2.915   0.809   2.610 -0.2713  0.0816  0.0350
 1589SOL    MW4 6356   2.831   0.784   2.611 -0.1823 -0.2180  0.0242
 1590SOL     OW 6357   2.866   0.809   2.307  0.0520  0.1410  0.0620
 1590SOL    HW2 6358   2.838   0.827   2.397 -0.9905  0.0735 -0.2465
 1590SOL    HW3 6359   2.797   0.847   2.252  1.4351  1.5298 -0.7542
 1590SOL    MW4 6360   2.853   0.817   2.312  0.0969  0.3153 -0.0864
 1591SOL     OW 6361   2.634   0.951   2.691  0.3222  0.1112 -0.2197
 1591SOL    HW2 6362   2.625   0.909   2.776  0.9794  0.9687  0.2854
 1591SOL    HW3 6363   2.568   0.909   2.636 -0.3150 -0.2337  0.7970
 1591SOL    MW4 6364   2.624   0.940   2.695  0.3248  0.1789 -0.0189
 1592SOL     OW 6365   2.684   1.186   2.551  0.1115  0.0498 -0.1954
 1592SOL    HW2 6366   2.761   1.221   2.596 -1.2318  1.2738  1.2224
 1592SOL    HW3 6367   2.661   1.107   2.599 -0.7066  0.7916  0.6507
 1592SOL    MW4 6368   2.691   1.180   2.563 -0.1736  0.3092  0.1033
 1593SOL     OW 6369   2.928   1.229   2.663 -0.1824  0.3338  0.0031
 1593SOL    HW2 6370   2.916   1.216   2.757 -0.2402 -1.1561 -0.2010
 1593SOL    HW3 6371   3.017   1.197   2.646 -0.2291  0.4565 -0.4716
 1593SOL    MW4 6372   2.938   1.223   2.673 -0.1962  0.1534 -0.0865
 1594SOL     OW 6373   2.972   1.499   2.586  0.0108  0.5946  0.6392
 1594SOL    HW2 6374   2.894   1.549   2.612  0.6713  0.5037  2.8706
 1594SOL    HW3 6375   2.951   1.409   2.609 -0.2158  0.1692 -1.1549
 1594SOL    MW4 6376   2.959   1.494   2.592  0.0680  0.5265  0.6969
 1595SOL     OW 6377   2.739   1.653   2.608  0.0893 -0.3505 -0.0986
 1595SOL    HW2 6378   2.717   1.652   2.701  0.1634  1.0628 -0.0586
 1595SOL    HW3 6379   2.657   1.630   2.564 -0.2147 -0.0050  0.2785
 1595SOL    MW4 6380   2.725   1.650   2.614  0.0589 -0.1184 -0.0436
 1596SOL     OW 6381   2.744   1.916   2.561  0.4451  0.2995  0.3886
 1596SOL    HW2 6382   2.752   1.825   2.589  0.0719  0.0180 -0.3895
 1596SOL    HW3 6383   2.662   1.946   2.600 -0.0961 -0.1055 -0.4096
 1596SOL    MW4 6384   2.734   1.908   2.570  0.3245  0.2089  0.1807
 1597SOL     OW 6385   2.957   2.037   2.670 -0.4581 -0.2093  0.4126
 1597SOL    HW2 6386   2.945   2.125   2.634  0.4712 -0.2760 -0.0569
 1597SOL    HW3 6387   2.888   1.985   2.627 -0.3735  0.0669 -0.0632
 1597SOL    MW4 6388   2.946   2.042   2.660 -0.3243 -0.1817  0.2879
 1598SOL     OW 6389   2.930   2.285   2.570  0.2128  0.2644  0.0080
 1598SOL    HW2 6390   3.006   2.331   2.604  0.7944 -0.2319 -0.5960
 1598SOL    HW3 6391   2.857   2.345   2.583  1.0111  1.5011 -1.0561
 1598SOL    MW4 6392   2.930   2.299   2.576  0.3948  0.3621 -0.2121
 1599SOL     OW 6393   2.725   2.442   2.664  0.2099 -0.5796  0.1532
 1599SOL    HW2 6394   2.689   2.433   2.752  1.2279 -1.2790  0.5081
 1599SOL    HW3 6395   2.714   2.535   2.643 -0.9521 -0.5953  0.6043
 1599SOL    MW4 6396   2.718   2.453   2.673  0.1909 -0.6740  0.2595
 1600SOL     OW 6397   2.681   2.718   2.607  0.0172 -0.1782  0.0415
 1600SOL    HW2 6398   2.769   2.745   2.634  0.6414 -1.2011 -0.9415
 1600SOL    HW3 6399   2.683   2.720   2.511 -0.3810 -2.2198 -0.0334
 1600SOL    MW4 6400   2.693   2.722   2.598  0.0470 -0.5825 -0.0981
 1601SOL     OW 6401   2.943   2.770   2.679  0.4586 -0.1717 -0.4194
 1601SOL    HW2 6402   2.939   2.751   2.773 -0.2986 -0.5584 -0.5364
 1601SOL    HW3 6403   2.943   2.866   2.675 -0.0018 -0.1538 -0.0472
 1601SOL    MW4 6404   2.943   2.780   2.691  0.2980 -0.2203 -0.3857
 1602SOL     OW 6405   2.948   3.053   2.596 -0.6846  0.2027 -0.3725
 1602SOL    HW2 6406   2.873   3.085   2.646  0.1219 -0.0287  1.0147
 1602SOL    HW3 6407   2.921   3.060   2.505 -2.8979 -1.1215  0.1418
 1602SOL    MW4 6408   2.935   3.058   2.591 -0.8702 -0.0025 -0.1216
 1603SOL     OW 6409   2.712   3.169   2.690 -0.7192 -0.5910  0.0290
 1603SOL    HW2 6410   2.722   3.258   2.658  0.1565 -0.4948  0.5676
 1603SOL    HW3 6411   2.630   3.138   2.650 -0.1553 -0.1324 -1.4845
 1603SOL    MW4 6412   2.702   3.176   2.681 -0.5293 -0.5178 -0.0996
 1604SOL     OW 6413   2.723   3.444   2.592 -0.0042  0.1252  0.2626
 1604SOL    HW2 6414   2.643   3.492   2.611 -0.4114 -0.2833 -0.4299
 1604SOL    HW3 6415   2.720   3.428   2.498 -0.0496 -1.5618  0.5376
 1604SOL    MW4 6416   2.712   3.448   2.582 -0.0639 -0.1513  0.2075
 1605SOL     OW 6417   2.937   3.603   2.673  0.7357 -0.4181  0.5237
 1605SOL    HW2 6418   2.914   3.579   2.763 -0.9286 -1.2220 -0.0862
 1605SOL    HW3 6419   2.875   3.553   2.619 -0.3604  2.4310 -0.9528
 1605SOL    MW4 6420   2.926   3.593   2.677  0.3715 -0.1483  0.2484
 1606SOL     OW 6421   2.938   3.890   2.604 -0.5151  0.3448 -0.0044
 1606SOL    HW2 6422   3.018   3.929   2.639 -1.6641  0.9355  1.9872
 1606SOL    HW3 6423   2.944   3.797   2.628  1.0128 -0.2975 -2.5732
 1606SOL    MW4 6424   2.950   3.883   2.612 -0.4651  0.3380 -0.0806
 1607SOL     OW 6425   2.680   4.000   2.640  0.0517 -0.1833  0.2948
 1607SOL    HW2 6426   2.690   4.085   2.597  0.1238  0.7204  2.0659
 1607SOL    HW3 6427   2.768   3.964   2.643  0.2264  0.2744  0.7336
 1607SOL    MW4 6428   2.693   4.007   2.635  0.0843 -0.0037  0.5863
 1608SOL     OW 6429   2.660   4.272   2.533 -0.6275  0.3054 -0.0974
 1608SOL    HW2 6430   2.600   4.298   2.604 -1.7849  0.6336 -1.1680
 1608SOL    HW3 6431   2.742   4.316   2.554 -0.5343 -0.6922  1.7669
 1608SOL    MW4 6432   2.663   4.281   2.545 -0.7679  0.2171  0.0073
 1609SOL     OW 6433   2.943   4.380   2.635 -0.2904 -0.2910  0.0328
 1609SOL    HW2 6434   2.930   4.359   2.727  0.2465  0.7148  0.3414
 1609SOL    HW3 6435   2.949   4.476   2.632  0.1869 -0.3417 -0.9796
 1609SOL    MW4 6436   2.942   4.390   2.646 -0.1566 -0.1650 -0.0601
 1610SOL     OW 6437   3.344   0.034   2.578  0.7568  0.0078  0.0913
 1610SOL    HW2 6438   3.253   0.058   2.594  0.7384  0.3113 -0.4351
 1610SOL    HW3 6439   3.350  -0.057   2.605  0.6123  0.3504  1.2975
 1610SOL    MW4 6440   3.333   0.025   2.583  0.7353  0.0931  0.1810
 1611SOL     OW 6441   3.093   0.114   2.652  0.0034 -0.5269  0.1318
 1611SOL    HW2 6442   3.091   0.116   2.747 -0.7239  2.4779  0.0887
 1611SOL    HW3 6443   3.117   0.203   2.626 -0.9904 -0.9851 -2.5026
 1611SOL    MW4 6444   3.096   0.126   2.661 -0.2237 -0.1909 -0.2215
 1612SOL     OW 6445   3.354   0.502   2.744 -0.8734  0.3437  0.5062
 1612SOL    HW2 6446   3.275   0.472   2.698 -2.9145  1.4780  3.1284
 1612SOL    HW3 6447   3.363   0.594   2.717 -0.2778  0.1405  0.0038
 1612SOL    MW4 6448   3.345   0.510   2.734 -1.0641  0.4665  0.7859
 1613SOL     OW 6449   3.551   0.390   2.577  0.2166 -0.0907 -0.2482
 1613SOL    HW2 6450   3.630   0.427   2.615 -0.0488  0.8034 -0.5668
 1613SOL    HW3 6451   3.480   0.423   2.633 -0.0295 -0.0187 -0.6038
 1613SOL    MW4 6452   3.552   0.399   2.589  0.1491  0.0367 -0.3372
 1614SOL     OW 6453   3.348   0.756   2.595 -0.1906  0.2172  0.2064
 1614SOL    HW2 6454   3.417   0.817   2.621 -0.3327  0.5321 -0.1402
 1614SOL    HW3 6455   3.363   0.743   2.501 -0.7353  0.4609  0.0825
 1614SOL    MW4 6456   3.359   0.762   2.586 -0.2812  0.2909  0.1443
 1615SOL     OW 6457   3.088   0.860   2.677 -0.3042 -0.1215 -0.4822
 1615SOL    HW2 6458   3.113   0.848   2.769 -1.7810 -1.1144 -0.1863
 1615SOL    HW3 6459   3.156   0.814   2.628 -0.5837 -1.3064  0.2190
 1615SOL    MW4 6460   3.101   0.852   2.683 -0.5359 -0.4088 -0.3506
 1616SOL     OW 6461   3.177   1.122   2.615  0.4160 -0.4980 -0.2123
 1616SOL    HW2 6462   3.155   1.035   2.647 -0.4799 -0.2850 -0.2500
 1616SOL    HW3 6463   3.168   1.117   2.520 -1.3618  0.1117 -0.0874
 1616SOL    MW4 6464   3.173   1.110   2.607  0.0633 -0.3894 -0.2008
 1617SOL     OW 6465   3.364   1.319   2.684  0.1027  0.0004 -0.1474
 1617SOL    HW2 6466   3.377   1.302   2.778 -0.8327  2.5646  0.4807
 1617SOL    HW3 6467   3.305   1.250   2.655 -0.2904 -0.3121  1.3570
 1617SOL    MW4 6468   3.358   1.308   2.693 -0.0726  0.2975  0.1340
 1618SOL     OW 6469   3.363   1.581   2.578  0.2539 -0.4925 -0.4860
 1618SOL    HW2 6470   3.280   1.623   2.600  0.4257  0.8802 -2.3769
 1618SOL    HW3 6471   3.364   1.501   2.631 -2.0142 -0.2411 -0.0173
 1618SOL    MW4 6472   3.352   1.576   2.588 -0.0227 -0.2783 -0.6737
 1619SOL     OW 6473   3.136   1.692   2.677 -0.0666  0.3081  0.2691
 1619SOL    HW2 6474   3.126   1.773   2.626  0.9695  0.1292 -0.2338
 1619SOL    HW3 6475   3.083   1.628   2.630 -1.3501  0.8268  0.9880
 1619SOL    MW4 6476   3.128   1.694   2.664 -0.0992  0.3530  0.2976
 1620SOL     OW 6477   3.150   1.921   2.523  0.5036  0.0884  0.6886
 1620SOL    HW2 6478   3.225   1.960   2.568 -0.1702  1.1324  0.9129
 1620SOL    HW3 6479   3.073   1.963   2.562 -0.1250  0.4341 -0.8764
 1620SOL    MW4 6480   3.150   1.932   2.534  0.3317  0.2717  0.5117
 1621SOL     OW 6481   3.353   2.015   2.677 -0.4859 -0.0712  0.6604
 1621SOL    HW2 6482   3.335   2.028   2.770 -1.8974 -0.3532  0.4363
 1621SOL    HW3 6483   3.354   2.103   2.640  1.2376  0.1347  1.1237
 1621SOL    MW4 6484   3.351   2.028   2.684 -0.4447 -0.0812  0.6920
 1622SOL     OW 6485   3.394   2.260   2.565  0.2181 -0.0643 -0.1499
 1622SOL    HW2 6486   3.476   2.300   2.595 -0.2189  0.0691  0.8839
 1622SOL    HW3 6487   3.400   2.261   2.470  1.9168 -1.0742 -0.0704
 1622SOL    MW4 6488   3.406   2.265   2.557  0.3846 -0.1800 -0.0030
 1623SOL     OW 6489   3.174   2.374   2.688  0.3641  0.4570  0.2566
 1623SOL    HW2 6490   3.175   2.459   2.645  1.1626  0.2873 -0.0659
 1623SOL    HW3 6491   3.247   2.326   2.649 -0.5970 -0.6763 -0.1528
 1623SOL    MW4 6492   3.184   2.379   2.677  0.3426  0.2851  0.1601
 1624SOL     OW 6493   3.136   2.619   2.558 -0.1861  0.2810  0.5180
 1624SOL    HW2 6494   3.217   2.660   2.587  0.9881 -0.2571 -1.9343
 1624SOL    HW3 6495   3.067   2.669   2.603  1.4408  1.2644  1.9720
 1624SOL    MW4 6496   3.137   2.631   2.568  0.1835  0.3398  0.3863
 1625SOL     OW 6497   3.607   2.700   2.594 -0.0064 -0.2491  0.1547
 1625SOL    HW2 6498   3.604   2.696   2.499  1.8897  0.5162  0.0567
 1625SOL    HW3 6499   3.596   2.609   2.622  0.4542 -0.6067 -0.8105
 1625SOL    MW4 6500   3.605   2.688   2.585  0.3046 -0.1953  0.0144
 1626SOL     OW 6501   3.361   2.800   2.631  0.1997  0.3817 -0.2685
 1626SOL    HW2 6502   3.355   2.804   2.727  0.8421 -0.2554 -0.1992
 1626SOL    HW3 6503   3.451   2.775   2.614  0.0580  0.4000 -1.0452
 1626SOL    MW4 6504   3.372   2.797   2.642  0.2658  0.3001 -0.3618
 1627SOL     OW 6505   3.167   3.201   2.665  0.3753 -0.2799 -0.0618
 1627SOL    HW2 6506   3.241   3.153   2.628 -1.0121  0.5097 -4.1247
 1627SOL    HW3 6507   3.090   3.148   2.641 -0.6721  0.8549  0.7186
 1627SOL    MW4 6508   3.167   3.188   2.657  0.0541 -0.0260 -0.4949
 1628SOL     OW 6509   3.152   3.470   2.575  0.3962  0.0656  0.8883
 1628SOL    HW2 6510   3.149   3.385   2.619 -0.7650 -1.0562 -1.2491
 1628SOL    HW3 6511   3.069   3.511   2.597  0.4173  0.0942  0.9130
 1628SOL    MW4 6512   3.141   3.464   2.583  0.2457 -0.0786  0.6096
 1629SOL     OW 6513   3.399   3.586   2.682 -0.1386  0.0596 -0.0345
 1629SOL    HW2 6514   3.411   3.544   2.767  0.1992 -0.6984 -0.4439
 1629SOL    HW3 6515   3.317   3.548   2.648 -0.2586  0.3401 -0.0561
 1629SOL    MW4 6516   3.390   3.575   2.689 -0.1098 -0.0034 -0.0914
 1630SOL     OW 6517   3.414   3.849   2.582 -0.2657 -0.0612 -0.3004
 1630SOL    HW2 6518   3.413   3.759   2.615 -0.6805  0.6262  1.6400
 1630SOL    HW3 6519   3.358   3.848   2.505 -1.5686 -1.1462  0.6381
 1630SOL    MW4 6520   3.407   3.837   2.576 -0.4923 -0.1137  0.0794
 1631SOL     OW 6521   3.190   4.003   2.642  0.5228 -0.1917 -0.1022
 1631SOL    HW2 6522   3.198   4.092   2.609 -1.5957 -0.3865 -1.2629
 1631SOL    HW3 6523   3.280   3.969   2.642  1.4494  2.1646  1.1042
 1631SOL    MW4 6524   3.203   4.010   2.638  0.3655  0.0935 -0.0962
 1632SOL     OW 6525   3.159   4.246   2.534 -0.2240 -0.3855 -0.3155
 1632SOL    HW2 6526   3.083   4.294   2.567 -1.2006 -2.3033  0.3201
 1632SOL    HW3 6527   3.150   4.247   2.439 -0.3794  0.4371 -0.2914
 1632SOL    MW4 6528   3.148   4.252   2.526 -0.3734 -0.5300 -0.2284
 1633SOL     OW 6529   3.384   4.404   2.612  0.5284  0.0820  0.4417
 1633SOL    HW2 6530   3.309   4.356   2.580 -0.4478  2.1137 -0.4010
 1633SOL    HW3 6531   3.380   4.395   2.707  0.0220 -0.9674  0.3213
 1633SOL    MW4 6532   3.374   4.397   2.621  0.3328  0.2116  0.3146
 1634SOL     OW 6533   3.565   0.133   2.655 -0.4190 -0.1058  0.2850
 1634SOL    HW2 6534   3.480   0.104   2.623 -0.1029 -0.9583  0.1883
 1634SOL    HW3 6535   3.570   0.226   2.632 -0.8217 -0.3427 -0.7914
 1634SOL    MW4 6536   3.555   0.141   2.648 -0.4304 -0.2495  0.1302
 1635SOL     OW 6537   3.621   0.074   2.959  0.3596 -0.2107  0.0945
 1635SOL    HW2 6538   3.601   0.150   3.014 -1.1113 -2.3347  2.6723
 1635SOL    HW3 6539   3.615   0.106   2.869  0.3237  2.8120  1.1203
 1635SOL    MW4 6540   3.618   0.088   2.955  0.1608 -0.0922  0.5700
 1636SOL     OW 6541   3.791   0.485   2.674 -0.5853 -0.0809 -0.0772
 1636SOL    HW2 6542   3.868   0.441   2.638 -0.9636 -0.6948 -0.1518
 1636SOL    HW3 6543   3.787   0.457   2.765 -0.8875 -0.2956 -0.1532
 1636SOL    MW4 6544   3.800   0.476   2.681 -0.6751 -0.1902 -0.0971
 1637SOL     OW 6545   3.981   0.124   2.578  0.8595 -0.1573  0.0733
 1637SOL    HW2 6546   4.005   0.122   2.671  0.1272 -0.0063  0.2718
 1637SOL    HW3 6547   3.893   0.086   2.575  0.7938  0.0298 -0.5332
 1637SOL    MW4 6548   3.972   0.119   2.590  0.7542 -0.1127  0.0194
 1638SOL     OW 6549   3.807   0.728   2.547  0.2111  0.5488  0.3190
 1638SOL    HW2 6550   3.730   0.778   2.572 -2.4099 -1.2385 -3.6789
 1638SOL    HW3 6551   3.806   0.651   2.605  0.0659  1.4422  1.5113
 1638SOL    MW4 6552   3.797   0.724   2.558 -0.1539  0.4309 -0.0512
 1639SOL     OW 6553   3.590   0.879   2.652  0.0075 -0.0610  0.0572
 1639SOL    HW2 6554   3.577   0.880   2.747 -0.5910 -1.5995  0.0031
 1639SOL    HW3 6555   3.597   0.972   2.628 -0.7413  0.3736  1.4713
 1639SOL    MW4 6556   3.590   0.892   2.662 -0.1702 -0.2067  0.2367
 1640SOL     OW 6557   3.565   1.156   2.555 -0.2306 -0.0127  0.6513
 1640SOL    HW2 6558   3.640   1.202   2.593 -0.0488 -0.9227  1.3972
 1640SOL    HW3 6559   3.490   1.211   2.577  0.3803  1.8307 -1.5992
 1640SOL    MW4 6560   3.565   1.169   2.563 -0.1260  0.1105  0.4528
 1641SOL     OW 6561   3.788   1.257   2.681  0.6902  0.2571  0.1719
 1641SOL    HW2 6562   3.858   1.216   2.631  1.3563 -0.2427  1.4727
 1641SOL    HW3 6563   3.786   1.348   2.650  0.6315 -0.2147 -1.2200
 1641SOL    MW4 6564   3.797   1.264   2.670  0.7703  0.1289  0.1599
 1642SOL     OW 6565   0.016   0.124   0.403  0.0725 -0.1924 -0.1393
 1642SOL    HW2 6566   0.088   0.064   0.383 -1.0449 -1.7102  0.2933
 1642SOL    HW3 6567   0.055   0.211   0.395  2.0931 -0.9836  0.5724
 1642SOL    MW4 6568   0.031   0.128   0.399  0.1917 -0.4970  0.0117
 1643SOL     OW 6569   3.583   1.686   2.692  0.0020  0.0394 -0.4256
 1643SOL    HW2 6570   3.584   1.780   2.673  1.5284 -0.4179 -2.7792
 1643SOL    HW3 6571   3.504   1.653   2.649  0.9602 -0.2053 -2.0274
 1643SOL    MW4 6572   3.573   1.694   2.684  0.3298 -0.0532 -0.9474
 1644SOL     OW 6573   3.796   1.533   2.575 -0.1172  0.6547  0.1793
 1644SOL    HW2 6574   3.731   1.600   2.593 -0.3574  1.4010 -3.2033
 1644SOL    HW3 6575   3.880   1.577   2.590 -0.2825  1.5997 -1.5878
 1644SOL    MW4 6576   3.799   1.548   2.579 -0.1707  0.8778 -0.5001
 1645SOL     OW 6577   4.072   1.939   2.543  0.2112 -0.3278  0.2045
 1645SOL    HW2 6578   4.149   1.978   2.584  0.6392 -0.8484 -0.1093
 1645SOL    HW3 6579   4.065   1.852   2.582 -1.2148  0.3336  1.5062
 1645SOL    MW4 6580   4.081   1.933   2.554  0.0795 -0.3092  0.3349
 1646SOL     OW 6581   3.861   2.334   2.578  0.3360  0.0058 -0.5599
 1646SOL    HW2 6582   3.847   2.241   2.595  1.2717  0.0587  0.5151
 1646SOL    HW3 6583   3.849   2.343   2.483 -1.7191 -0.8479 -0.4000
 1646SOL    MW4 6584   3.857   2.323   2.567  0.1883 -0.0999 -0.3970
 1647SOL     OW 6585   3.610   2.441   2.661 -0.3342 -0.1146 -0.8812
 1647SOL    HW2 6586   3.609   2.433   2.756 -0.0985  1.9941 -0.6792
 1647SOL    HW3 6587   3.691   2.398   2.634  0.5311  0.9233  0.0418
 1647SOL    MW4 6588   3.620   2.434   2.670 -0.1889  0.3006 -0.7328
 1648SOL     OW 6589   3.590   2.415   2.190  0.4167 -0.5806  0.1858
 1648SOL    HW2 6590   3.515   2.363   2.218  0.8064 -1.0844  0.2965
 1648SOL    HW3 6591   3.601   2.392   2.097 -0.5333  0.6706 -0.2381
 1648SOL    MW4 6592   3.582   2.405   2.181  0.3428 -0.4820  0.1445
 1649SOL     OW 6593   3.857   2.810   2.730  0.1558 -0.3083 -0.1634
 1649SOL    HW2 6594   3.928   2.767   2.682 -0.6850 -0.7086 -1.0638
 1649SOL    HW3 6595   3.777   2.767   2.699 -0.4929  0.1744  0.7981
 1649SOL    MW4 6596   3.856   2.799   2.719 -0.0407 -0.2974 -0.1554
 1650SOL     OW 6597   3.842   3.066   2.609 -0.0149  0.0867 -0.2871
 1650SOL    HW2 6598   3.822   3.062   2.516 -0.2307 -0.7182 -0.2066
 1650SOL    HW3 6599   3.831   2.977   2.641  0.2319  0.3181  0.4763
 1650SOL    MW4 6600   3.838   3.054   2.601 -0.0108  0.0110 -0.1758
 1651SOL     OW 6601   3.374   3.079   2.575  0.0677  0.5709 -0.1758
 1651SOL    HW2 6602   3.462   3.112   2.590  0.4628 -0.6892  0.3501
 1651SOL    HW3 6603   3.377   2.988   2.605 -0.5633 -0.4403 -2.9457
 1651SOL    MW4 6604   3.386   3.071   2.581  0.0366  0.2712 -0.4719
 1652SOL     OW 6605   3.610   3.192   2.655  0.0940  0.2305  0.1264
 1652SOL    HW2 6606   3.699   3.156   2.649 -0.3161 -0.6321 -0.9612
 1652SOL    HW3 6607   3.616   3.279   2.617  0.5711  0.3540  0.4840
 1652SOL    MW4 6608   3.622   3.198   2.649  0.1028  0.1330  0.0301
 1653SOL     OW 6609   3.830   3.574   2.652  0.0785 -0.2326 -0.2309
 1653SOL    HW2 6610   3.894   3.533   2.595 -0.0581  0.1664 -0.6766
 1653SOL    HW3 6611   3.835   3.667   2.631 -0.5400 -0.1809 -0.1697
 1653SOL    MW4 6612   3.839   3.581   2.642 -0.0211 -0.1731 -0.2816
 1654SOL     OW 6613   3.836   3.825   2.524  0.0825  0.4431 -0.1312
 1654SOL    HW2 6614   3.920   3.871   2.527  1.0879 -1.4449  0.9372
 1654SOL    HW3 6615   3.776   3.882   2.572  1.0915  1.0885  0.3794
 1654SOL    MW4 6616   3.839   3.839   2.530  0.3483  0.2791  0.0771
 1655SOL     OW 6617   3.655   3.975   2.661 -0.0972 -0.0401  0.2478
 1655SOL    HW2 6618   3.652   4.048   2.598 -1.4024 -1.0842 -0.9201
 1655SOL    HW3 6619   3.575   3.927   2.645  1.7238 -2.9618 -0.4232
 1655SOL    MW4 6620   3.644   3.979   2.651 -0.0291 -0.5634  0.0051
 1656SOL     OW 6621   3.569   4.231   2.540  0.1487  0.3746  0.0767
 1656SOL    HW2 6622   3.508   4.294   2.580  0.5519 -0.1941  1.6550
 1656SOL    HW3 6623   3.556   4.240   2.446 -0.6323  1.9926  0.3271
 1656SOL    MW4 6624   3.559   4.241   2.533  0.0989  0.5130  0.3180
 1657SOL     OW 6625   3.787   4.366   2.633 -0.2442  0.0774 -0.3257
 1657SOL    HW2 6626   3.868   4.322   2.604 -0.9400 -0.3148 -1.6990
 1657SOL    HW3 6627   3.718   4.323   2.584 -1.1673  1.2981 -0.1088
 1657SOL    MW4 6628   3.789   4.354   2.623 -0.4578  0.1867 -0.4783
 1658SOL     OW 6629   4.198   4.655   2.484 -0.0570  0.1224 -0.0674
 1658SOL    HW2 6630   4.131   4.700   2.536 -0.5994  0.9598 -1.4640
 1658SOL    HW3 6631   4.280   4.699   2.507 -0.4209  1.0779 -0.5623
 1658SOL    MW4 6632   4.200   4.667   2.494 -0.1766  0.3590 -0.3169
 1659SOL     OW 6633   0.015   0.395   3.055 -0.2514 -0.1637  0.4327
 1659SOL    HW2 6634   0.059   0.432   3.132  2.5200  0.4012 -1.3720
 1659SOL    HW3 6635  -0.054   0.458   3.034  1.9401  2.0872 -0.2794
 1659SOL    MW4 6636   0.012   0.408   3.063  0.4034  0.2078  0.1007
 1660SOL     OW 6637   3.711   4.613   2.533 -0.1454  0.2983 -0.2693
 1660SOL    HW2 6638   3.719   4.537   2.590 -0.1055  0.7710  0.3733
 1660SOL    HW3 6639   3.650   4.671   2.580 -1.3297  0.0264 -1.4500
 1660SOL    MW4 6640   3.704   4.611   2.547 -0.2964  0.3248 -0.3403
 1661SOL     OW 6641   4.023   0.391   2.507  0.2226 -0.7718  0.1126
 1661SOL    HW2 6642   4.008   0.400   2.413 -2.1873 -0.5536  0.4811
 1661SOL    HW3 6643   4.014   0.297   2.524  0.6142 -0.8058  0.1501
 1661SOL    MW4 6644   4.020   0.380   2.497 -0.0437 -0.7475  0.1662
 1662SOL     OW 6645   4.255   0.487   2.639  0.0239  0.1179  0.3182
 1662SOL    HW2 6646   4.324   0.437   2.596  0.1638  0.6092 -0.0310
 1662SOL    HW3 6647   4.174   0.444   2.612  0.2169 -0.8205  1.1961
 1662SOL    MW4 6648   4.254   0.475   2.630  0.0678  0.0589  0.3879
 1663SOL     OW 6649   4.038   0.864   2.653 -0.1806 -0.2318  0.0469
 1663SOL    HW2 6650   4.116   0.844   2.601 -0.6174  2.6486 -1.8253
 1663SOL    HW3 6651   3.971   0.805   2.618  0.2634 -0.3138 -0.6890
 1663SOL    MW4 6652   4.040   0.853   2.642 -0.1796  0.1374 -0.2972
 1664SOL     OW 6653   4.000   1.125   2.554 -0.3991  0.1955 -0.2323
 1664SOL    HW2 6654   4.080   1.171   2.581 -1.1641  1.7461 -0.5499
 1664SOL    HW3 6655   4.011   1.037   2.589  1.4643  0.3785 -0.2926
 1664SOL    MW4 6656   4.012   1.120   2.562 -0.2542  0.4242 -0.2821
 1665SOL     OW 6657   4.234   1.264   2.620 -0.0059 -0.3709  0.1702
 1665SOL    HW2 6658   4.230   1.352   2.582  1.3200 -0.9241 -1.2902
 1665SOL    HW3 6659   4.314   1.226   2.584  0.5494 -1.4461  2.4217
 1665SOL    MW4 6660   4.244   1.271   2.611  0.2423 -0.5857  0.2746
 1666SOL     OW 6661   4.253   1.542   2.558  0.1657  0.5525 -0.5933
 1666SOL    HW2 6662   4.330   1.565   2.610  0.0368  1.9011 -0.9986
 1666SOL    HW3 6663   4.286   1.539   2.468 -0.3086  1.3211 -0.7867
 1666SOL    MW4 6664   4.268   1.545   2.553  0.0861  0.8318 -0.6723
 1667SOL     OW 6665   4.035   1.673   2.635  0.4023 -0.4080 -0.1130
 1667SOL    HW2 6666   4.041   1.648   2.727  0.2587 -0.2973 -0.0727
 1667SOL    HW3 6667   4.117   1.644   2.596  0.6937  0.0348  0.1690
 1667SOL    MW4 6668   4.046   1.666   2.642  0.4218 -0.3350 -0.0705
 1668SOL     OW 6669   3.829   2.066   2.671  0.4117  0.0429  0.3048
 1668SOL    HW2 6670   3.757   2.022   2.625  0.7628  0.3859 -0.5809
 1668SOL    HW3 6671   3.908   2.023   2.638  0.5301 -1.9424  3.0062
 1668SOL    MW4 6672   3.830   2.054   2.660  0.4736 -0.1738  0.5444
 1669SOL     OW 6673   4.303   2.043   2.651 -0.5005  0.3902  0.4010
 1669SOL    HW2 6674   4.312   2.134   2.621 -0.5066  0.1385 -0.3727
 1669SOL    HW3 6675   4.389   2.005   2.638 -0.9921 -0.2408 -1.0504
 1669SOL    MW4 6676   4.315   2.050   2.645 -0.5661  0.2738  0.1074
 1670SOL     OW 6677   4.323   2.302   2.555  0.0912  0.5308  0.2202
 1670SOL    HW2 6678   4.259   2.364   2.591 -1.5010 -0.5275 -0.7206
 1670SOL    HW3 6679   4.296   2.289   2.465 -0.7967 -3.0193  0.9142
 1670SOL    MW4 6680   4.311   2.308   2.548 -0.2360 -0.0772  0.1877
 1671SOL     OW 6681   4.098   2.454   2.663 -0.2344  0.1814 -0.3355
 1671SOL    HW2 6682   4.078   2.442   2.756 -2.1582 -0.8552 -0.8551
 1671SOL    HW3 6683   4.024   2.414   2.618  1.2683 -0.3841 -2.3336
 1671SOL    MW4 6684   4.086   2.447   2.670 -0.2899 -0.0300 -0.6677
 1672SOL     OW 6685   4.078   2.713   2.570  0.0073  0.4758  0.0775
 1672SOL    HW2 6686   4.165   2.753   2.578  1.0355 -1.3946 -1.4180
 1672SOL    HW3 6687   4.088   2.626   2.610 -1.2342  0.3136  0.0573
 1672SOL    MW4 6688   4.091   2.707   2.576 -0.0209  0.2076 -0.1225
 1673SOL     OW 6689   4.318   2.811   2.684  0.5728  0.0833  0.3261
 1673SOL    HW2 6690   4.320   2.814   2.780 -0.3676 -0.3828  0.3717
 1673SOL    HW3 6691   4.333   2.901   2.657 -1.2299  0.5961  0.9737
 1673SOL    MW4 6692   4.320   2.823   2.693  0.2109  0.0894  0.4176
 1674SOL     OW 6693   0.003   3.224   2.704 -0.6757  0.2434  0.3773
 1674SOL    HW2 6694   0.090   3.197   2.673 -0.3969  1.4673  0.0412
 1674SOL    HW3 6695  -0.057   3.161   2.664 -0.2281  1.2502 -1.9894
 1674SOL    MW4 6696   0.007   3.212   2.694 -0.5799  0.5377  0.0207
 1675SOL     OW 6697   4.078   3.207   2.614 -0.0133 -0.1599 -0.6880
 1675SOL    HW2 6698   4.001   3.152   2.598 -0.8660  0.5856  0.6609
 1675SOL    HW3 6699   4.050   3.295   2.588  0.1141  0.2478  0.5236
 1675SOL    MW4 6700   4.064   3.212   2.609 -0.1090 -0.0077 -0.3502
 1676SOL     OW 6701   4.023   3.459   2.498 -0.2295  0.3134 -0.3050
 1676SOL    HW2 6702   4.094   3.501   2.545 -0.1984  1.0414 -0.9842
 1676SOL    HW3 6703   4.049   3.462   2.406 -0.4620 -0.7415 -0.4145
 1676SOL    MW4 6704   4.036   3.465   2.492 -0.2560  0.2703 -0.4090
 1677SOL     OW 6705   4.230   3.593   2.642 -0.4034 -0.0953  0.1044
 1677SOL    HW2 6706   4.240   3.618   2.734 -0.7712 -1.7253  0.5997
 1677SOL    HW3 6707   4.313   3.552   2.619 -0.4939 -0.1420 -0.1444
 1677SOL    MW4 6708   4.242   3.591   2.651 -0.4638 -0.3165  0.1369
 1678SOL     OW 6709   4.287   3.847   2.519 -0.1082  0.0512  0.2040
 1678SOL    HW2 6710   4.278   3.755   2.544  1.0617 -0.0881  0.1180
 1678SOL    HW3 6711   4.346   3.884   2.585  1.7212  0.0586 -1.3898
 1678SOL    MW4 6712   4.294   3.840   2.531  0.2875  0.0338 -0.0176
 1679SOL     OW 6713   4.065   3.980   2.587  0.1289 -0.6177  0.1818
 1679SOL    HW2 6714   4.059   3.972   2.682 -0.2002 -1.2965  0.1095
 1679SOL    HW3 6715   4.142   3.927   2.564  1.1080  0.7623  0.2142
 1679SOL    MW4 6716   4.075   3.972   2.596  0.2146 -0.5252  0.1765
 1680SOL     OW 6717   4.032   4.248   2.554 -0.1256 -0.2910 -0.0714
 1680SOL    HW2 6718   4.034   4.158   2.587  0.8217  0.0546  0.8302
 1680SOL    HW3 6719   4.054   4.239   2.461  1.7796 -0.8458  0.3941
 1680SOL    MW4 6720   4.035   4.235   2.546  0.2507 -0.3186  0.1090
 1681SOL     OW 6721   4.235   4.421   2.616 -0.1098  0.2231 -0.2603
 1681SOL    HW2 6722   4.157   4.370   2.596 -0.0319  0.4102 -1.0558
 1681SOL    HW3 6723   4.231   4.496   2.557  1.2171 -0.3197 -1.0784
 1681SOL    MW4 6724   4.224   4.424   2.605  0.0755  0.1762 -0.4732
 1682SOL     OW 6725   0.220   4.641   2.990 -0.5340 -0.3153  0.5052
 1682SOL    HW2 6726   0.231   4.677   3.078  3.4188  0.9800 -0.4261
 1682SOL    HW3 6727   0.145   4.689   2.953 -0.6994  0.8271  2.2877
 1682SOL    MW4 6728   0.211   4.652   2.996 -0.0343  0.0063  0.6175
 1683SOL     OW 6729   4.272   0.034   2.983 -0.0981  0.2990 -0.1134
 1683SOL    HW2 6730   4.241   0.051   3.072  0.2729  1.8933 -0.2747
 1683SOL    HW3 6731   4.272  -0.061   2.976 -1.0890  0.1729  1.2524
 1683SOL    MW4 6732   4.268   0.024   2.994 -0.1799  0.4927  0.0455
 1684SOL     OW 6733   0.220   0.770   3.253 -0.4102 -0.0724 -0.4111
 1684SOL    HW2 6734   0.136   0.807   3.282  0.1059  0.0774  0.9482
 1684SOL    HW3 6735   0.282   0.797   3.321  0.5209 -1.1129 -0.8459
 1684SOL    MW4 6736   0.217   0.779   3.266 -0.2192 -0.1899 -0.2892
 1685SOL     OW 6737   0.198   0.528   2.886 -0.1479 -0.6329 -0.3086
 1685SOL    HW2 6738   0.275   0.477   2.911  0.7068  1.6036  1.7755
 1685SOL    HW3 6739   0.125   0.483   2.930  0.4377 -0.7243  0.5737
 1685SOL    MW4 6740   0.198   0.515   2.895  0.0421 -0.3499  0.0828
 1686SOL     OW 6741   0.209   0.784   2.966  0.0128 -0.0412  0.3258
 1686SOL    HW2 6742   0.223   0.775   3.060  0.2615 -0.4620  0.2493
 1686SOL    HW3 6743   0.218   0.696   2.932  4.0195  0.6078 -0.6280
 1686SOL    MW4 6744   0.212   0.771   2.974  0.5743 -0.0111  0.1898
 1687SOL     OW 6745   4.488   0.918   2.889  0.1734 -0.2880 -0.2466
 1687SOL    HW2 6746   4.573   0.878   2.909 -1.1737 -3.1135 -0.0226
 1687SOL    HW3 6747   4.467   0.886   2.801 -1.4541 -0.9412  0.3853
 1687SOL    MW4 6748   4.497   0.909   2.880 -0.2191 -0.7470 -0.1337
 1688SOL     OW 6749   1.472   2.061   4.043 -0.1958  0.5104 -0.0597
 1688SOL    HW2 6750   1.404   2.124   4.068 -1.4981 -0.7044 -0.4788
 1688SOL    HW3 6751   1.434   2.013   3.969  0.7307 -0.8460  0.3328
 1688SOL    MW4 6752   1.458   2.063   4.036 -0.2454  0.1712 -0.0632
 1689SOL     OW 6753   4.474   1.172   3.018  0.3954  0.1180  0.4340
 1689SOL    HW2 6754   4.391   1.210   2.991  0.5091  0.0813  0.0313
 1689SOL    HW3 6755   4.485   1.094   2.964  2.1614  1.8222 -1.7597
 1689SOL    MW4 6756   4.465   1.167   3.008  0.6434  0.3380  0.0914
 1690SOL     OW 6757   0.221   1.281   2.889 -0.3903 -0.0726 -0.4469
 1690SOL    HW2 6758   0.138   1.245   2.921 -0.5133  0.5803 -0.0314
 1690SOL    HW3 6759   0.215   1.275   2.794 -0.7014 -0.4910 -0.4042
 1690SOL    MW4 6760   0.209   1.275   2.881 -0.4476 -0.0417 -0.3865
 1691SOL     OW 6761   0.000   1.663   2.947 -0.3189  0.4517 -0.1485
 1691SOL    HW2 6762  -0.078   1.627   2.989  0.5431 -1.0795  0.1923
 1691SOL    HW3 6763  -0.001   1.756   2.968 -1.3023  0.1763  1.0278
 1691SOL    MW4 6764  -0.010   1.671   2.955 -0.3349  0.2133  0.0516
 1692SOL     OW 6765   0.032   1.938   3.000 -0.3267 -0.2244 -0.2863
 1692SOL    HW2 6766  -0.043   1.995   2.981  0.3186  1.4732  1.9821
 1692SOL    HW3 6767   0.107   1.983   2.960 -0.1156 -0.5221 -0.2282
 1692SOL    MW4 6768   0.032   1.952   2.992 -0.2137 -0.0397  0.0207
 1693SOL     OW 6769   0.269   2.039   2.938  0.0774 -0.2963  0.0422
 1693SOL    HW2 6770   0.290   2.129   2.964 -3.5299  0.2826  1.1457
 1693SOL    HW3 6771   0.275   2.040   2.842 -0.6612  1.3145 -0.0014
 1693SOL    MW4 6772   0.273   2.051   2.929 -0.4960 -0.0074  0.1821
 1694SOL     OW 6773   0.281   2.284   3.057 -0.0163  0.1703 -0.0497
 1694SOL    HW2 6774   0.264   2.281   3.151 -0.7294  2.2139 -0.0894
 1694SOL    HW3 6775   0.353   2.346   3.048  0.1303 -0.1108 -0.8401
 1694SOL    MW4 6776   0.288   2.291   3.068 -0.0910  0.4028 -0.1592
 1695SOL     OW 6777   0.040   2.413   2.942 -0.2074 -0.1630 -0.2096
 1695SOL    HW2 6778   0.037   2.505   2.971 -0.5033 -0.2457  0.0292
 1695SOL    HW3 6779   0.114   2.375   2.989 -1.9242 -0.8355  2.0804
 1695SOL    MW4 6780   0.049   2.421   2.952 -0.4729 -0.2627  0.1241
 1696SOL     OW 6781   0.037   2.680   3.048 -0.0278  0.4724  0.0854
 1696SOL    HW2 6782   0.039   2.676   3.143  1.0713  1.3418  0.1224
 1696SOL    HW3 6783   0.108   2.741   3.026  0.1984 -0.2765 -1.3150
 1696SOL    MW4 6784   0.047   2.688   3.058  0.1471  0.4883 -0.0945
 1697SOL     OW 6785   0.240   2.831   2.974  0.0318 -0.5424 -0.3469
 1697SOL    HW2 6786   0.330   2.799   2.974  0.1198 -0.3018  0.5928
 1697SOL    HW3 6787   0.216   2.835   2.881  1.2355  0.1129 -0.6378
 1697SOL    MW4 6788   0.248   2.827   2.962  0.2022 -0.4242 -0.2613
 1698SOL     OW 6789   0.291   3.097   3.050  0.0384 -0.5635  0.1012
 1698SOL    HW2 6790   0.218   3.153   3.022  1.4084 -0.0645 -2.6271
 1698SOL    HW3 6791   0.271   3.011   3.015 -0.1918 -0.9173  1.0687
 1698SOL    MW4 6792   0.279   3.093   3.042  0.1888 -0.5443 -0.1311
 1699SOL     OW 6793   0.065   3.234   2.964  0.2636  0.4512 -0.1367
 1699SOL    HW2 6794  -0.003   3.174   2.995  2.1789 -1.8287 -0.2284
 1699SOL    HW3 6795   0.066   3.221   2.869  0.8202  0.4805 -0.1361
 1699SOL    MW4 6796   0.056   3.224   2.955  0.5898  0.1543 -0.1487
 1700SOL     OW 6797   4.477   3.477   3.335 -0.2354 -0.6196  0.3783
 1700SOL    HW2 6798   4.478   3.384   3.357 -3.5353 -0.7658  0.1132
 1700SOL    HW3 6799   4.479   3.479   3.240 -0.0843 -0.3994  0.3857
 1700SOL    MW4 6800   4.477   3.465   3.326 -0.6508 -0.6098  0.3443
 1701SOL     OW 6801   4.478   3.501   3.049 -0.4265  0.2747  0.3362
 1701SOL    HW2 6802   4.479   3.421   2.997  0.1908 -0.1540  1.0021
 1701SOL    HW3 6803   4.424   3.562   2.999 -0.3854 -0.3557 -0.4743
 1701SOL    MW4 6804   4.471   3.498   3.036 -0.3396  0.1350  0.3171
 1702SOL     OW 6805   0.235   3.845   3.041 -0.1144  0.3370 -0.0054
 1702SOL    HW2 6806   0.245   3.865   3.134  0.3923  4.5321 -0.8944
 1702SOL    HW3 6807   0.314   3.881   3.000 -0.7511 -0.6800 -2.2193
 1702SOL    MW4 6808   0.247   3.852   3.048 -0.1315  0.7563 -0.4148
 1703SOL     OW 6809   4.440   3.995   2.697  0.0105 -0.2439 -0.7051
 1703SOL    HW2 6810   4.516   3.949   2.660  0.0763 -0.4926 -0.2708
 1703SOL    HW3 6811   4.445   4.083   2.661  1.5010  0.2646  0.7009
 1703SOL    MW4 6812   4.451   4.000   2.687  0.2158 -0.2096 -0.4623
 1704SOL     OW 6813   0.005   3.983   2.964 -0.1913  0.0564 -0.5940
 1704SOL    HW2 6814   0.085   3.931   2.974 -0.6762 -1.1260 -2.5113
 1704SOL    HW3 6815  -0.017   3.974   2.871 -2.5628  0.3524 -0.0727
 1704SOL    MW4 6816   0.013   3.975   2.953 -0.5682 -0.0606 -0.7782
 1705SOL     OW 6817   4.480   4.279   3.000 -0.2596  0.0727 -0.2204
 1705SOL    HW2 6818   4.484   4.185   2.981 -1.7785  0.2025 -1.3058
 1705SOL    HW3 6819   4.487   4.284   3.095 -0.2946 -1.1502 -0.1354
 1705SOL    MW4 6820   4.482   4.267   3.010 -0.4646 -0.0715 -0.3524
 1706SOL     OW 6821   0.638   4.599   3.017 -0.2265  0.1827  0.5128
 1706SOL    HW2 6822   0.617   4.521   2.965  0.8414 -0.1680  0.5758
 1706SOL    HW3 6823   0.569   4.661   2.997 -0.8282 -0.6143  0.0816
 1706SOL    MW4 6824   0.626   4.597   3.008 -0.1650  0.0313  0.4642
 1707SOL     OW 6825   0.446   0.106   2.905 -0.3115 -0.6138 -0.2424
 1707SOL    HW2 6826   0.423   0.199   2.913  1.2157 -0.2341 -0.0446
 1707SOL    HW3 6827   0.369   0.059   2.938 -0.8463  0.5981  0.2690
 1707SOL    MW4 6828   0.433   0.112   2.911 -0.1806 -0.4038 -0.1488
 1708SOL     OW 6829   0.411   0.374   2.963 -0.3995  0.4871 -0.5470
 1708SOL    HW2 6830   0.495   0.412   2.937  0.1943 -1.0810 -0.9886
 1708SOL    HW3 6831   0.417   0.364   3.058 -0.3154  0.9243 -0.5063
 1708SOL    MW4 6832   0.423   0.378   2.972 -0.3100  0.3379 -0.5999
 1709SOL     OW 6833   0.645   0.514   2.906  0.5162 -0.4863 -0.3702
 1709SOL    HW2 6834   0.722   0.485   2.955 -0.3983  0.6364  1.8219
 1709SOL    HW3 6835   0.632   0.605   2.933 -0.7070 -0.2062 -1.8411
 1709SOL    MW4 6836   0.654   0.522   2.916  0.2341 -0.3012 -0.2750
 1710SOL     OW 6837   0.648   0.783   3.004 -0.2663  0.3775 -0.2113
 1710SOL    HW2 6838   0.633   0.793   3.099  1.2039  2.1082 -0.1280
 1710SOL    HW3 6839   0.576   0.833   2.964  0.8909  2.3329  0.0692
 1710SOL    MW4 6840   0.636   0.791   3.011  0.0803  0.8638 -0.1633
 1711SOL     OW 6841   0.448   0.921   2.880 -0.4434  0.3079  0.0233
 1711SOL    HW2 6842   0.374   0.866   2.908  0.0408 -0.2897  0.1606
 1711SOL    HW3 6843   0.433   0.937   2.787 -1.6460  1.6323  0.4339
 1711SOL    MW4 6844   0.436   0.916   2.872 -0.5382  0.4038  0.0956
 1712SOL     OW 6845   0.438   1.167   3.045  0.4174  0.0750  0.3439
 1712SOL    HW2 6846   0.370   1.209   2.992 -1.9941 -0.9249  2.5411
 1712SOL    HW3 6847   0.443   1.077   3.012  1.5947  0.4750 -0.6242
 1712SOL    MW4 6848   0.430   1.161   3.034  0.2546 -0.0042  0.5061
 1713SOL     OW 6849   0.654   1.249   2.899 -0.6355  0.7308 -0.6899
 1713SOL    HW2 6850   0.728   1.195   2.927  0.5574  2.9829  0.5976
 1713SOL    HW3 6851   0.579   1.215   2.948  0.3103  0.9330  0.9213
 1713SOL    MW4 6852   0.654   1.238   2.909 -0.3533  1.0546 -0.3075
 1714SOL     OW 6853   0.690   1.510   3.000  0.2218 -0.3617  0.6845
 1714SOL    HW2 6854   0.702   1.508   3.095  0.8326  0.0950  0.6223
 1714SOL    HW3 6855   0.677   1.419   2.975 -0.9680 -0.3770  1.3305
 1714SOL    MW4 6856   0.690   1.498   3.009  0.1454 -0.3035  0.7615
 1715SOL     OW 6857   0.446   1.658   2.925  0.0547 -0.0051  0.0327
 1715SOL    HW2 6858   0.529   1.612   2.932 -0.6542 -1.2276  0.4775
 1715SOL    HW3 6859   0.380   1.594   2.951 -0.8745  1.5533  1.6859
 1715SOL    MW4 6860   0.448   1.644   2.929 -0.1614  0.0392  0.3095
 1716SOL     OW 6861   1.679   1.669   3.716 -0.5958 -0.3243  0.4046
 1716SOL    HW2 6862   1.759   1.649   3.764 -1.2237 -0.9040  1.2220
 1716SOL    HW3 6863   1.696   1.639   3.627 -0.1252 -1.0087  0.7249
 1716SOL    MW4 6864   1.692   1.662   3.711 -0.6166 -0.4911  0.5547
 1717SOL     OW 6865   0.847   1.221   3.371 -0.5569  0.5704 -0.1695
 1717SOL    HW2 6866   0.774   1.205   3.431  1.8512 -2.2852  2.2262
 1717SOL    HW3 6867   0.867   1.134   3.336  2.6372  0.9989  0.4742
 1717SOL    MW4 6868   0.840   1.207   3.374  0.1822  0.2502  0.2315
 1718SOL     OW 6869   1.130   2.299   3.042 -0.3892 -0.1948 -0.1889
 1718SOL    HW2 6870   1.132   2.215   2.995 -0.6913 -0.2703 -0.0684
 1718SOL    HW3 6871   1.134   2.275   3.134  1.1340 -0.0095 -0.1894
 1718SOL    MW4 6872   1.131   2.285   3.048 -0.2281 -0.1803 -0.1731
 1719SOL     OW 6873   0.705   2.318   2.554 -0.0987 -0.1229 -0.6915
 1719SOL    HW2 6874   0.704   2.224   2.574 -0.8904  0.1325  0.4828
 1719SOL    HW3 6875   0.793   2.346   2.578  0.3857 -0.6995 -1.7359
 1719SOL    MW4 6876   0.717   2.309   2.560 -0.1392 -0.1653 -0.6744
 1720SOL     OW 6877   0.492   2.717   3.058 -0.4094 -0.2332 -0.3687
 1720SOL    HW2 6878   0.567   2.761   3.019 -1.0510 -0.3263 -1.7544
 1720SOL    HW3 6879   0.501   2.626   3.032 -1.4082 -0.1048 -1.1980
 1720SOL    MW4 6880   0.503   2.711   3.050 -0.6258 -0.2285 -0.6610
 1721SOL     OW 6881   0.715   2.811   2.935 -0.3046  0.5077 -0.8667
 1721SOL    HW2 6882   0.783   2.756   2.974 -1.6190 -0.2282  0.4195
 1721SOL    HW3 6883   0.728   2.897   2.975 -1.6231 -0.2340  1.2290
 1721SOL    MW4 6884   0.726   2.815   2.945 -0.6520  0.3128 -0.4205
 1722SOL     OW 6885   0.729   3.068   3.067  0.3647 -0.4860 -0.2572
 1722SOL    HW2 6886   0.720   3.066   3.162 -0.5246 -1.6087 -0.3463
 1722SOL    HW3 6887   0.651   3.116   3.037  0.7685  0.0778 -0.4030
 1722SOL    MW4 6888   0.717   3.074   3.075  0.3006 -0.5598 -0.2882
 1723SOL     OW 6889   0.520   3.204   2.963 -0.7957 -0.2776 -0.3354
 1723SOL    HW2 6890   0.505   3.294   2.993 -1.5886 -0.2404 -0.8151
 1723SOL    HW3 6891   0.452   3.152   3.007 -0.7455 -0.5302 -0.5558
 1723SOL    MW4 6892   0.509   3.209   2.973 -0.8937 -0.3060 -0.4278
 1724SOL     OW 6893   0.482   3.463   3.050  0.1725 -0.1365 -0.1159
 1724SOL    HW2 6894   0.504   3.496   3.137  1.7157 -1.0069 -0.1463
 1724SOL    HW3 6895   0.406   3.514   3.023  0.9049  1.5468  0.8999
 1724SOL    MW4 6896   0.475   3.474   3.058  0.4727 -0.0292  0.0141
 1725SOL     OW 6897   0.704   3.584   2.907  0.0518 -0.7674 -0.1811
 1725SOL    HW2 6898   0.778   3.551   2.959 -0.1325 -2.0281 -0.7063
 1725SOL    HW3 6899   0.627   3.540   2.944 -0.5657  1.2705  0.9899
 1725SOL    MW4 6900   0.704   3.574   2.919 -0.0540 -0.6648 -0.0959
 1726SOL     OW 6901   0.678   3.853   2.964  0.0922  0.7438  0.1162
 1726SOL    HW2 6902   0.688   3.860   3.059 -1.3700  0.0832  0.3318
 1726SOL    HW3 6903   0.693   3.760   2.945  0.6728  0.9283 -0.3375
 1726SOL    MW4 6904   0.681   3.841   2.974 -0.0241  0.6810  0.0848
 1727SOL     OW 6905   0.439   3.996   2.911 -0.0994  0.1821  0.0688
 1727SOL    HW2 6906   0.525   3.955   2.925 -0.3948 -0.4071  0.1517
 1727SOL    HW3 6907   0.428   3.995   2.816 -0.1708 -0.0586  0.0798
 1727SOL    MW4 6908   0.449   3.991   2.900 -0.1478  0.0726  0.0812
 1728SOL     OW 6909   0.226   4.381   2.908 -0.6791  0.0622 -0.9623
 1728SOL    HW2 6910   0.140   4.342   2.925 -0.8851  0.2248 -1.6029
 1728SOL    HW3 6911   0.216   4.472   2.934 -0.6013  0.0001 -0.7196
 1728SOL    MW4 6912   0.213   4.388   2.914 -0.6960  0.0755 -1.0148
 1729SOL     OW 6913   0.591   4.375   2.884  0.0784  0.5427 -1.0055
 1729SOL    HW2 6914   0.522   4.326   2.928  0.9615  1.0255  0.9788
 1729SOL    HW3 6915   0.564   4.379   2.792 -2.4424  0.5990 -0.2814
 1729SOL    MW4 6916   0.579   4.369   2.877 -0.1377  0.6139 -0.6481
 1730SOL     OW 6917   1.138   4.629   3.048 -0.1114  0.2640 -0.0651
 1730SOL    HW2 6918   1.212   4.685   3.022  0.3762  0.2897  1.3244
 1730SOL    HW3 6919   1.063   4.666   3.002  0.3165  1.6852  0.3323
 1730SOL    MW4 6920   1.138   4.641   3.039  0.0094  0.4549  0.1706
 1731SOL     OW 6921   0.892   0.054   2.954  0.4284  0.1674  0.0123
 1731SOL    HW2 6922   0.852   0.141   2.964  0.1905 -0.1038  1.4221
 1731SOL    HW3 6923   0.822  -0.007   2.976  0.9582 -0.3536  0.2473
 1731SOL    MW4 6924   0.877   0.058   2.958  0.4669  0.0629  0.2293
 1732SOL     OW 6925   0.866   0.352   2.981 -0.1043 -0.0838  0.3251
 1732SOL    HW2 6926   0.851   0.356   3.075  0.5293 -0.5384  0.4497
 1732SOL    HW3 6927   0.954   0.390   2.969 -0.3067  0.2621 -0.1177
 1732SOL    MW4 6928   0.876   0.358   2.992 -0.0474 -0.0982  0.2831
 1733SOL     OW 6929   1.130   0.477   2.939 -0.3347 -0.0642 -0.2205
 1733SOL    HW2 6930   1.214   0.448   2.974 -0.3647  2.5529  2.2618
 1733SOL    HW3 6931   1.128   0.446   2.849  3.3911  0.0395 -0.3832
 1733SOL    MW4 6932   1.141   0.469   2.932  0.1529  0.2948  0.0856
 1734SOL     OW 6933   1.088   0.739   3.034 -0.2361  0.5663 -0.4211
 1734SOL    HW2 6934   1.060   0.721   3.124 -1.3672  2.0186 -0.4627
 1734SOL    HW3 6935   1.087   0.653   2.991 -1.4540  0.1137  0.4684
 1734SOL    MW4 6936   1.084   0.725   3.040 -0.5460  0.6982 -0.3093
 1735SOL     OW 6937   0.892   0.855   2.878 -0.0761  0.0005  0.4826
 1735SOL    HW2 6938   0.956   0.821   2.941  0.6307  0.0803 -0.1948
 1735SOL    HW3 6939   0.807   0.842   2.921  0.4640  0.9327  1.8629
 1735SOL    MW4 6940   0.889   0.849   2.892  0.0884  0.1340  0.5753
 1736SOL     OW 6941   0.899   1.116   2.967  0.2772 -0.1992 -0.2370
 1736SOL    HW2 6942   0.985   1.157   2.965  0.2678 -0.1880 -0.4920
 1736SOL    HW3 6943   0.912   1.031   2.924  0.0367  0.0462 -0.7966
 1736SOL    MW4 6944   0.912   1.110   2.961  0.2443 -0.1654 -0.3444
 1737SOL     OW 6945   1.145   1.237   2.956  0.1500  0.5762 -0.2397
 1737SOL    HW2 6946   1.226   1.188   2.973 -0.8336 -0.9653  0.1958
 1737SOL    HW3 6947   1.147   1.255   2.862  0.9560  0.4491 -0.2474
 1737SOL    MW4 6948   1.156   1.233   2.946  0.1266  0.3561 -0.1832
 1738SOL     OW 6949   0.915   1.652   2.920  0.2529 -0.3392  0.1617
 1738SOL    HW2 6950   0.988   1.607   2.962 -0.8525 -2.3243  0.0231
 1738SOL    HW3 6951   0.838   1.600   2.943 -0.8243  0.4761 -1.4675
 1738SOL    MW4 6952   0.915   1.639   2.929 -0.0350 -0.4935 -0.0715
 1739SOL     OW 6953   0.942   1.902   3.043  0.0619 -0.4787  0.3346
 1739SOL    HW2 6954   0.947   1.811   3.014 -1.5840 -0.3220 -0.4800
 1739SOL    HW3 6955   0.946   1.897   3.139 -0.3414 -1.4216  0.3045
 1739SOL    MW4 6956   0.943   1.890   3.052 -0.2085 -0.5824  0.2231
 1740SOL     OW 6957   0.500   2.708   3.327  0.2835  0.3706 -0.1490
 1740SOL    HW2 6958   0.504   2.713   3.231 -0.0259 -0.7271 -0.2328
 1740SOL    HW3 6959   0.418   2.749   3.350 -0.4441 -0.8485 -0.4983
 1740SOL    MW4 6960   0.490   2.714   3.317  0.1466  0.0649 -0.2062
 1741SOL     OW 6961   1.144   2.051   2.934 -0.0799  0.0024  0.2162
 1741SOL    HW2 6962   1.070   1.994   2.956 -1.1575  0.9610 -0.7999
 1741SOL    HW3 6963   1.158   2.035   2.840  0.3941  0.5314  0.1984
 1741SOL    MW4 6964   1.136   2.041   2.924 -0.1596  0.1987  0.0798
 1742SOL     OW 6965   1.363   2.424   2.954 -0.1028  0.2327  0.2759
 1742SOL    HW2 6966   1.358   2.447   2.861  1.1034  1.0704  0.4009
 1742SOL    HW3 6967   1.280   2.380   2.973  0.3539 -1.5705 -1.6319
 1742SOL    MW4 6968   1.351   2.421   2.944  0.1166  0.1053  0.0407
 1743SOL     OW 6969   0.930   2.451   2.884 -0.1656 -0.9355  0.1417
 1743SOL    HW2 6970   0.940   2.449   2.789 -0.4711  0.2028  0.0816
 1743SOL    HW3 6971   1.008   2.406   2.917  0.7627  0.0834 -0.6067
 1743SOL    MW4 6972   0.942   2.445   2.876 -0.0835 -0.6509  0.0350
 1744SOL     OW 6973   0.707   2.320   3.013  0.2982 -0.0402  0.2609
 1744SOL    HW2 6974   0.711   2.232   2.974  0.7220  0.4187 -0.7456
 1744SOL    HW3 6975   0.778   2.368   2.971 -0.2369  0.9269  0.4566
 1744SOL    MW4 6976   0.717   2.314   3.002  0.2835  0.1479  0.1539
 1745SOL     OW 6977   1.137   2.831   2.918  0.3827  0.1490  0.3070
 1745SOL    HW2 6978   1.129   2.922   2.947  0.0684  0.4721 -0.7585
 1745SOL    HW3 6979   1.059   2.788   2.952 -1.1833  1.0658 -1.9494
 1745SOL    MW4 6980   1.126   2.838   2.926  0.1346  0.3126 -0.1313
 1746SOL     OW 6981   1.141   3.098   2.984  0.0963 -0.2269  0.2716
 1746SOL    HW2 6982   1.223   3.144   2.966 -0.6167  0.8364 -0.3088
 1746SOL    HW3 6983   1.073   3.155   2.948 -0.7854 -1.9336 -0.8303
 1746SOL    MW4 6984   1.143   3.112   2.977 -0.1141 -0.3118  0.0497
 1747SOL     OW 6985   0.919   3.242   2.930 -0.2498 -0.3740  0.4195
 1747SOL    HW2 6986   0.840   3.198   2.961 -1.5633  1.9276  0.4343
 1747SOL    HW3 6987   0.925   3.216   2.838 -0.0814 -1.8876  0.8479
 1747SOL    MW4 6988   0.909   3.233   2.922 -0.4009 -0.2700  0.4780
 1748SOL     OW 6989   1.103   3.623   2.928  0.3469 -0.0245  0.4170
 1748SOL    HW2 6990   1.175   3.561   2.943  1.4007  1.0469 -0.0835
 1748SOL    HW3 6991   1.027   3.582   2.968  0.6139 -2.4869 -1.4623
 1748SOL    MW4 6992   1.103   3.610   2.935  0.5211 -0.2080  0.1031
 1749SOL     OW 6993   0.867   3.457   3.344  0.3067 -0.3903  0.0034
 1749SOL    HW2 6994   0.811   3.488   3.415 -0.1034  0.0243 -0.5037
 1749SOL    HW3 6995   0.956   3.477   3.373  0.0206  1.7652 -0.5492
 1749SOL    MW4 6996   0.871   3.463   3.357  0.2149 -0.0512 -0.1364
 1750SOL     OW 6997   0.889   2.559   3.757 -0.0252 -0.4821 -0.0789
 1750SOL    HW2 6998   0.966   2.502   3.768  0.5860  0.4377  0.5281
 1750SOL    HW3 6999   0.885   2.610   3.838 -1.6964 -1.0020  0.1833
 1750SOL    MW4 7000   0.899   2.558   3.769 -0.1650 -0.4293  0.0358
 1751SOL     OW 7001   0.906   4.003   2.916 -0.2749  0.4115 -0.2214
 1751SOL    HW2 7002   0.836   3.945   2.947 -1.2391  2.8685  2.3977
 1751SOL    HW3 7003   0.883   4.022   2.825 -0.7744 -2.0340 -0.6476
 1751SOL    MW4 7004   0.894   3.998   2.908 -0.4680  0.4130  0.0679
 1752SOL     OW 7005   0.846   4.301   2.999  0.0084 -0.1956 -0.6616
 1752SOL    HW2 7006   0.845   4.213   2.963 -0.6933 -0.7160  0.5731
 1752SOL    HW3 7007   0.765   4.342   2.967 -1.6816 -1.3593  1.9202
 1752SOL    MW4 7008   0.835   4.295   2.990 -0.3071 -0.4178 -0.1581
 1753SOL     OW 7009   1.103   4.385   2.932 -0.1474 -0.0309  0.2762
 1753SOL    HW2 7010   1.017   4.354   2.957  0.0043 -0.6098  0.0822
 1753SOL    HW3 7011   1.112   4.469   2.976  0.1008 -1.0102  2.1427
 1753SOL    MW4 7012   1.093   4.392   2.941 -0.0946 -0.2365  0.4968
 1754SOL     OW 7013   1.561   4.620   3.000  0.0948  0.4758 -0.1802
 1754SOL    HW2 7014   1.562   4.601   3.094 -0.1232  1.4237  0.0224
 1754SOL    HW3 7015   1.484   4.675   2.988  0.1649  0.4176 -0.9046
 1754SOL    MW4 7016   1.551   4.625   3.011  0.0753  0.5932 -0.2491
 1755SOL     OW 7017   1.336   0.103   2.930 -0.3926 -0.4563  0.0775
 1755SOL    HW2 7018   1.346   0.194   2.957  0.1368  0.2196 -2.2600
 1755SOL    HW3 7019   1.346   0.105   2.834  1.3578 -3.1871  0.1314
 1755SOL    MW4 7020   1.339   0.115   2.921 -0.0918 -0.7274 -0.2238
 1756SOL     OW 7021   1.367   0.367   3.015 -0.1690 -0.2589  0.7953
 1756SOL    HW2 7022   1.367   0.354   3.110  0.9514 -2.0906  0.5634
 1756SOL    HW3 7023   1.455   0.401   2.996 -0.8055  1.2875  0.5510
 1756SOL    MW4 7024   1.379   0.370   3.025 -0.1052 -0.2965  0.7325
 1757SOL     OW 7025   1.579   0.486   2.906  0.2282  0.5840  0.4953
 1757SOL    HW2 7026   1.549   0.566   2.950 -1.4948 -0.1985  0.8008
 1757SOL    HW3 7027   1.577   0.508   2.813 -2.6218  0.1645  0.4185
 1757SOL    MW4 7028   1.575   0.500   2.899 -0.3752  0.4254  0.5254
 1758SOL     OW 7029   1.558   0.739   3.004 -0.2713  0.0929  0.0953
 1758SOL    HW2 7030   1.562   0.737   3.100  0.3503  1.9788  0.1339
 1758SOL    HW3 7031   1.477   0.786   2.984  0.2699  0.8846 -0.2779
 1758SOL    MW4 7032   1.547   0.745   3.014 -0.1179  0.4462  0.0512
 1759SOL     OW 7033   1.309   0.881   2.922 -0.0402  0.1898 -0.2475
 1759SOL    HW2 7034   1.339   0.953   2.977 -0.5868  0.6209 -0.5104
 1759SOL    HW3 7035   1.237   0.841   2.972  1.1376 -1.0346  0.5255
 1759SOL    MW4 7036   1.303   0.885   2.936  0.0430  0.0851 -0.1802
 1760SOL     OW 7037   1.364   1.105   3.076  0.3065  0.1882 -0.4111
 1760SOL    HW2 7038   1.373   1.141   3.164 -0.2110  0.5823 -0.5191
 1760SOL    HW3 7039   1.446   1.129   3.032  0.8063 -0.5054  0.1379
 1760SOL    MW4 7040   1.376   1.113   3.082  0.3041  0.1487 -0.3530
 1761SOL     OW 7041   1.587   1.220   2.949 -0.1953 -0.6573 -0.8686
 1761SOL    HW2 7042   1.668   1.185   2.986  0.4869  0.8842 -0.8626
 1761SOL    HW3 7043   1.586   1.311   2.977 -1.3027 -0.3287 -1.9571
 1761SOL    MW4 7044   1.597   1.227   2.958 -0.2514 -0.4105 -1.0114
 1762SOL     OW 7045   1.565   1.474   3.033 -0.2957  0.4112  0.3168
 1762SOL    HW2 7046   1.643   1.512   2.993 -0.5632 -0.5232 -1.1030
 1762SOL    HW3 7047   1.498   1.542   3.024  0.1102  0.8716  0.7473
 1762SOL    MW4 7048   1.566   1.488   3.027 -0.2774  0.3486  0.1863
 1763SOL     OW 7049   1.360   1.648   2.976 -0.5917 -0.3505 -0.3261
 1763SOL    HW2 7050   1.387   1.737   2.998  0.7792 -0.7425 -0.3784
 1763SOL    HW3 7051   1.381   1.639   2.883  0.0266 -1.0068 -0.1215
 1763SOL    MW4 7052   1.366   1.659   2.967 -0.3293 -0.4888 -0.3060
 1764SOL     OW 7053   1.373   1.921   3.053  0.1029 -0.0575 -0.5288
 1764SOL    HW2 7054   1.367   1.922   3.148 -0.4952 -1.0601 -0.5543
 1764SOL    HW3 7055   1.286   1.946   3.023  0.3527  0.4871 -0.8161
 1764SOL    MW4 7056   1.361   1.925   3.062  0.0569 -0.1179 -0.5701
 1765SOL     OW 7057   1.598   2.027   2.932  0.6346  0.0272  0.4280
 1765SOL    HW2 7058   1.519   1.994   2.975  0.3471  1.9095  1.3904
 1765SOL    HW3 7059   1.583   2.011   2.839 -1.3094  1.2321  0.5108
 1765SOL    MW4 7060   1.585   2.020   2.926  0.3402  0.4345  0.5659
 1766SOL     OW 7061   1.600   2.296   3.041  0.0198  0.1894  0.5208
 1766SOL    HW2 7062   1.515   2.337   3.026  0.0649  0.0524 -0.1436
 1766SOL    HW3 7063   1.590   2.208   3.004  0.8851  0.6362 -0.8167
 1766SOL    MW4 7064   1.587   2.290   3.034  0.1399  0.2303  0.2567
 1767SOL     OW 7065   1.387   2.443   2.668  0.2478  0.1592 -0.3846
 1767SOL    HW2 7066   1.452   2.390   2.622 -0.6374  0.5157 -2.0878
 1767SOL    HW3 7067   1.386   2.527   2.622 -0.0394  0.8388  0.8296
 1767SOL    MW4 7068   1.395   2.447   2.656  0.0931  0.2959 -0.4491
 1768SOL     OW 7069   1.360   2.733   3.070 -0.7157 -0.3385  0.2216
 1768SOL    HW2 7070   1.357   2.640   3.046 -1.7873 -0.4359  0.6850
 1768SOL    HW3 7071   1.298   2.775   3.011  0.0443  0.1433 -0.2307
 1768SOL    MW4 7072   1.351   2.726   3.059 -0.7568 -0.2878  0.2231
 1769SOL     OW 7073   1.792   2.683   3.078 -0.1680 -0.0984  0.1370
 1769SOL    HW2 7074   1.866   2.742   3.062 -2.1675  2.1337 -1.1586
 1769SOL    HW3 7075   1.781   2.683   3.173  0.2750  1.0489  0.1880
 1769SOL    MW4 7076   1.800   2.690   3.088 -0.3733  0.3475 -0.0272
 1770SOL     OW 7077   1.607   3.039   3.046 -0.4568 -0.4666 -0.0398
 1770SOL    HW2 7078   1.637   3.041   3.137 -0.5682 -0.7169  0.0025
 1770SOL    HW3 7079   1.614   2.947   3.020  1.2549 -0.1183 -0.8530
 1770SOL    MW4 7080   1.612   3.027   3.055 -0.2457 -0.4537 -0.1415
 1771SOL     OW 7081   1.394   3.197   2.902  0.0223 -0.3018  0.1089
 1771SOL    HW2 7082   1.466   3.154   2.947  0.3998 -0.9441 -1.1232
 1771SOL    HW3 7083   1.416   3.193   2.809 -0.3858  1.7126 -0.1001
 1771SOL    MW4 7084   1.406   3.191   2.896  0.0182 -0.1207 -0.0812
 1772SOL     OW 7085   1.329   3.450   3.005 -0.5600 -0.3563  0.1745
 1772SOL    HW2 7086   1.342   3.439   3.099  1.6621  0.3782 -0.0118
 1772SOL    HW3 7087   1.359   3.367   2.967  1.1141  0.3237 -0.0535
 1772SOL    MW4 7088   1.335   3.437   3.012 -0.0459 -0.1697  0.1199
 1773SOL     OW 7089   1.551   3.591   2.916  0.9017  0.1808  0.2153
 1773SOL    HW2 7090   1.467   3.555   2.946  1.1215 -0.2281  0.3503
 1773SOL    HW3 7091   1.544   3.589   2.820  0.5351  0.6866  0.2265
 1773SOL    MW4 7092   1.539   3.586   2.907  0.8824  0.1936  0.2346
 1774SOL     OW 7093   1.380   4.011   2.855  0.0822 -0.1258  0.1019
 1774SOL    HW2 7094   1.442   3.960   2.906  0.4324 -1.2437 -1.4043
 1774SOL    HW3 7095   1.295   3.968   2.869  0.2767 -0.7897 -0.6904
 1774SOL    MW4 7096   1.377   3.999   2.863  0.1541 -0.3609 -0.2013
 1775SOL     OW 7097   1.154   3.898   2.968  0.0724  0.2077  0.2673
 1775SOL    HW2 7098   1.070   3.940   2.952  0.3527  0.3802 -0.7710
 1775SOL    HW3 7099   1.133   3.805   2.976 -0.2298  0.2656  0.1624
 1775SOL    MW4 7100   1.140   3.891   2.967  0.0695  0.2381  0.1165
 1776SOL     OW 7101   1.374   4.261   2.994  0.3182 -0.7517  0.5896
 1776SOL    HW2 7102   1.368   4.169   2.968 -0.2980  0.1020 -2.5094
 1776SOL    HW3 7103   1.302   4.304   2.948 -0.0437  1.1308  2.8203
 1776SOL    MW4 7104   1.363   4.255   2.985  0.1891 -0.3907  0.4750
 1777SOL     OW 7105   1.631   4.353   2.965 -0.5590  0.1422  0.0389
 1777SOL    HW2 7106   1.544   4.314   2.972 -0.2786 -0.3902  0.6599
 1777SOL    HW3 7107   1.615   4.447   2.969 -0.8969  0.0094  3.1026
 1777SOL    MW4 7108   1.617   4.360   2.967 -0.5666  0.0544  0.5251
 1778SOL     OW 7109   1.967   4.586   3.047  0.0687 -0.1372 -0.4030
 1778SOL    HW2 7110   1.954   4.586   3.142 -0.2575 -0.7258 -0.4494
 1778SOL    HW3 7111   1.904   4.651   3.014 -1.0706 -1.2156 -0.3884
 1778SOL    MW4 7112   1.957   4.595   3.055 -0.1247 -0.3571 -0.4072
 1779SOL     OW 7113   1.786   0.087   2.945  0.3470 -0.2834  0.1656
 1779SOL    HW2 7114   1.698   0.053   2.958  0.6951 -1.4519 -0.4384
 1779SOL    HW3 7115   1.804   0.075   2.852  0.6128  1.2636  0.0080
 1779SOL    MW4 7116   1.777   0.081   2.935  0.4280 -0.2334  0.0651
 1780SOL     OW 7117   1.801   0.344   3.017  0.1536  0.0613  0.0807
 1780SOL    HW2 7118   1.781   0.254   2.992 -0.0429  0.1593 -0.1221
 1780SOL    HW3 7119   1.738   0.397   2.967  0.2881  0.3109  0.1753
 1780SOL    MW4 7120   1.790   0.339   3.007  0.1454  0.1072  0.0664
 1781SOL     OW 7121   2.032   0.465   2.938  0.3472 -0.1635 -0.0210
 1781SOL    HW2 7122   1.952   0.416   2.957  1.6921 -3.0249 -1.3386
 1781SOL    HW3 7123   2.025   0.487   2.845  0.8233  0.1000  0.0054
 1781SOL    MW4 7124   2.020   0.461   2.928  0.5874 -0.5063 -0.1914
 1782SOL     OW 7125   1.993   0.716   3.050 -0.6586 -0.3673  0.2617
 1782SOL    HW2 7126   1.916   0.752   3.005 -0.4633 -0.5590 -0.2248
 1782SOL    HW3 7127   1.993   0.623   3.028  1.3861  0.1689 -2.1939
 1782SOL    MW4 7128   1.983   0.709   3.041 -0.3631 -0.3219 -0.1265
 1783SOL     OW 7129   1.795   0.848   2.907  0.2003 -0.2116  0.1665
 1783SOL    HW2 7130   1.714   0.812   2.944  0.4624 -0.5567  0.4039
 1783SOL    HW3 7131   1.780   0.848   2.812 -0.3003  0.2605  0.2372
 1783SOL    MW4 7132   1.782   0.844   2.899  0.1688 -0.1948  0.2072
 1784SOL     OW 7133   1.827   1.083   3.043 -0.2374 -0.3657  0.3398
 1784SOL    HW2 7134   1.802   1.078   3.135 -1.4139  0.9370  0.1043
 1784SOL    HW3 7135   1.822   0.993   3.011 -1.0792 -0.6347  1.2203
 1784SOL    MW4 7136   1.823   1.070   3.051 -0.5037 -0.2293  0.4249
 1785SOL     OW 7137   2.031   1.249   2.984 -0.3791 -0.0841 -0.4752
 1785SOL    HW2 7138   2.116   1.205   2.984  0.3409  1.2746 -0.2213
 1785SOL    HW3 7139   1.968   1.180   3.002  0.8349 -0.8427  0.9897
 1785SOL    MW4 7140   2.034   1.234   2.986 -0.1239 -0.0049 -0.2484
 1786SOL     OW 7141   2.043   1.523   3.022  0.0239  0.3399  0.4469
 1786SOL    HW2 7142   2.097   1.545   3.098  1.3610 -1.7098  0.1350
 1786SOL    HW3 7143   2.038   1.428   3.023 -1.8021  0.3989 -0.7930
 1786SOL    MW4 7144   2.049   1.513   3.032 -0.0406  0.0772  0.2421
 1787SOL     OW 7145   1.789   1.622   2.947  0.1030  0.2344 -0.4034
 1787SOL    HW2 7146   1.773   1.705   2.993 -1.2177 -0.4504  0.4197
 1787SOL    HW3 7147   1.866   1.585   2.990 -0.1176  0.3945  0.1330
 1787SOL    MW4 7148   1.797   1.628   2.959 -0.1003  0.1652 -0.2241
 1788SOL     OW 7149   1.817   1.883   3.040  0.8420 -0.3217 -0.1323
 1788SOL    HW2 7150   1.895   1.929   3.009  0.2244  1.2471  0.6228
 1788SOL    HW3 7151   1.744   1.928   2.998  0.2645 -0.9987  0.1372
 1788SOL    MW4 7152   1.818   1.895   3.030  0.6843 -0.2041  0.0029
 1789SOL     OW 7153   2.041   2.006   2.961 -0.5938  0.3430 -0.2371
 1789SOL    HW2 7154   2.111   1.959   3.007 -1.4466 -0.4790  0.2548
 1789SOL    HW3 7155   2.046   2.095   2.996  0.3120  0.3350 -0.3305
 1789SOL    MW4 7156   2.051   2.012   2.972 -0.5869  0.2335 -0.1845
 1790SOL     OW 7157   2.052   2.290   3.028 -0.2049  0.3516 -0.0676
 1790SOL    HW2 7158   2.130   2.338   2.998 -0.6009  1.7261  1.0632
 1790SOL    HW3 7159   1.980   2.351   3.016 -0.6975  0.1099  1.5596
 1790SOL    MW4 7160   2.053   2.304   3.023 -0.3222  0.5011  0.2963
 1791SOL     OW 7161   1.831   2.436   2.957 -0.2021 -0.1266  0.3695
 1791SOL    HW2 7162   1.822   2.519   3.005 -0.8961  0.2822 -0.4409
 1791SOL    HW3 7163   1.756   2.384   2.986  1.2700 -1.2445  2.3273
 1791SOL    MW4 7164   1.820   2.440   2.968 -0.0995 -0.2202  0.5209
 1792SOL     OW 7165   2.190   3.484   3.817  0.3223  0.3452 -0.9173
 1792SOL    HW2 7166   2.258   3.429   3.778 -0.4541 -1.0424 -0.3754
 1792SOL    HW3 7167   2.198   3.469   3.911 -0.3280  0.6483 -0.8097
 1792SOL    MW4 7168   2.200   3.475   3.824  0.1340  0.2021 -0.8316
 1793SOL     OW 7169   2.008   2.826   2.980  0.6550  0.0602 -0.3775
 1793SOL    HW2 7170   2.007   2.909   3.026  1.8831  0.2230 -0.6108
 1793SOL    HW3 7171   1.995   2.850   2.888  1.4705  0.0583 -0.5041
 1793SOL    MW4 7172   2.006   2.840   2.974  0.9246  0.0815 -0.4250
 1794SOL     OW 7173   2.032   3.096   3.077  0.3470 -0.4018  0.0191
 1794SOL    HW2 7174   2.018   3.113   3.170 -0.0344 -0.6884  0.0130
 1794SOL    HW3 7175   1.962   3.144   3.033  0.5324 -0.2593 -0.1198
 1794SOL    MW4 7176   2.021   3.104   3.084  0.3211 -0.4208 -0.0000
 1795SOL     OW 7177   1.781   3.234   2.965 -0.1889 -0.1448  0.1717
 1795SOL    HW2 7178   1.721   3.160   2.975 -0.6574  0.2978  0.6651
 1795SOL    HW3 7179   1.783   3.250   2.870 -0.7682 -0.2289  0.1420
 1795SOL    MW4 7180   1.773   3.226   2.954 -0.3272 -0.0975  0.2329
 1796SOL     OW 7181   1.732   3.472   3.109  0.3960 -0.0767  0.1533
 1796SOL    HW2 7182   1.738   3.382   3.079 -1.9349 -0.2447  0.0844
 1796SOL    HW3 7183   1.671   3.514   3.048  3.0453  2.1068 -1.0662
 1796SOL    MW4 7184   1.724   3.466   3.097  0.4380  0.1892 -0.0167
 1797SOL     OW 7185   1.982   3.544   2.963 -0.5543 -0.3487  0.8356
 1797SOL    HW2 7186   1.997   3.632   2.999 -0.1179 -0.0808  0.0002
 1797SOL    HW3 7187   1.903   3.513   3.008 -0.5699  0.3654  1.3171
 1797SOL    MW4 7188   1.974   3.551   2.974 -0.4988 -0.2192  0.7889
 1798SOL     OW 7189   2.024   3.794   3.050 -0.1454 -0.0396  0.3992
 1798SOL    HW2 7190   2.045   3.794   3.144 -0.4573  2.9444  0.5109
 1798SOL    HW3 7191   1.945   3.848   3.043  0.3141  0.3912 -1.6586
 1798SOL    MW4 7192   2.017   3.801   3.062 -0.1259  0.4110  0.1424
 1799SOL     OW 7193   1.799   3.962   2.989  0.0720 -0.0405 -0.4747
 1799SOL    HW2 7194   1.810   3.948   2.895 -2.7560  1.4985 -1.0809
 1799SOL    HW3 7195   1.832   4.050   3.004 -1.3132  0.4739 -0.3978
 1799SOL    MW4 7196   1.805   3.971   2.979 -0.4839  0.2304 -0.5445
 1800SOL     OW 7197   1.806   4.091   3.314  0.3956  0.2449  0.1165
 1800SOL    HW2 7198   1.778   4.153   3.381 -1.5539 -1.2862  0.7827
 1800SOL    HW3 7199   1.831   4.145   3.239  1.0523  1.9162  1.5133
 1800SOL    MW4 7200   1.805   4.106   3.313  0.2251  0.2634  0.3887
 1801SOL     OW 7201   1.851   4.226   3.056 -0.2521 -0.0345 -0.2309
 1801SOL    HW2 7202   1.771   4.273   3.032  0.0877  0.3903 -0.5355
 1801SOL    HW3 7203   1.920   4.269   3.006  0.0561 -0.8929 -0.5480
 1801SOL    MW4 7204   1.849   4.238   3.046 -0.1666 -0.0917 -0.3129
 1802SOL     OW 7205   4.240   4.121   4.179  0.0022 -0.0235 -0.0753
 1802SOL    HW2 7206   4.174   4.052   4.173 -1.6426  1.5628 -0.5522
 1802SOL    HW3 7207   4.243   4.143   4.273 -0.1374 -0.1060 -0.0522
 1802SOL    MW4 7208   4.232   4.115   4.191 -0.2332  0.1749 -0.1352
 1803SOL     OW 7209   2.199   0.043   2.921  0.3502 -0.0026  0.3003
 1803SOL    HW2 7210   2.200   0.130   2.961 -0.4687  1.0839 -1.9483
 1803SOL    HW3 7211   2.122   0.000   2.959 -1.6205  1.7637 -1.5915
 1803SOL    MW4 7212   2.189   0.049   2.931 -0.0179  0.3738 -0.2460
 1804SOL     OW 7213   2.250   0.316   3.016 -0.3236 -0.0041 -0.2467
 1804SOL    HW2 7214   2.253   0.323   3.111 -0.7915  1.0149 -0.3048
 1804SOL    HW3 7215   2.174   0.368   2.990 -0.0754 -0.1011 -1.1931
 1804SOL    MW4 7216   2.241   0.324   3.025 -0.3526  0.1175 -0.3793
 1805SOL     OW 7217   2.490   0.459   2.958 -0.0649 -0.2547  0.2599
 1805SOL    HW2 7218   2.415   0.403   2.978 -0.5378  0.7852  1.4581
 1805SOL    HW3 7219   2.488   0.468   2.862 -1.2698 -0.5224  0.2476
 1805SOL    MW4 7220   2.480   0.453   2.948 -0.2863 -0.1528  0.4163
 1806SOL     OW 7221   2.443   0.711   3.035  0.3600 -0.4160  0.4736
 1806SOL    HW2 7222   2.516   0.763   3.001  0.4696 -0.6784  0.3008
 1806SOL    HW3 7223   2.466   0.620   3.012 -0.2069 -0.4607  0.0824
 1806SOL    MW4 7224   2.456   0.706   3.027  0.2997 -0.4566  0.3992
 1807SOL     OW 7225   2.231   0.851   2.912 -0.6048 -0.7409  0.2868
 1807SOL    HW2 7226   2.306   0.800   2.943  0.0932 -0.0203 -0.2001
 1807SOL    HW3 7227   2.155   0.801   2.942  0.0542 -0.7710  1.9756
 1807SOL    MW4 7228   2.231   0.837   2.920 -0.4258 -0.6498  0.4454
 1808SOL     OW 7229   2.497   0.689   3.301  0.0161  0.4027  0.5356
 1808SOL    HW2 7230   2.579   0.737   3.314  0.4583 -0.3298  0.5124
 1808SOL    HW3 7231   2.481   0.695   3.207  0.5806 -0.2990  0.3888
 1808SOL    MW4 7232   2.506   0.696   3.290  0.1490  0.2135  0.5131
 1809SOL     OW 7233   2.482   1.293   2.911  0.5246  0.0426 -0.1930
 1809SOL    HW2 7234   2.407   1.249   2.952  0.4261  0.8894  0.5540
 1809SOL    HW3 7235   2.474   1.272   2.818 -0.4998 -0.0738 -0.0840
 1809SOL    MW4 7236   2.471   1.284   2.904  0.3765  0.1390 -0.0800
 1810SOL     OW 7237   2.507   1.542   2.978  0.1062  0.2271  0.3741
 1810SOL    HW2 7238   2.431   1.585   2.940  0.1429 -0.8221 -0.9446
 1810SOL    HW3 7239   2.497   1.450   2.953  0.5228 -0.3578  2.3175
 1810SOL    MW4 7240   2.496   1.535   2.970  0.1660  0.0115  0.4565
 1811SOL     OW 7241   2.270   1.658   2.884  0.6723  0.3719 -0.4296
 1811SOL    HW2 7242   2.186   1.621   2.912  1.6478 -0.8595  0.8732
 1811SOL    HW3 7243   2.257   1.676   2.791 -0.9988  0.0415 -0.2781
 1811SOL    MW4 7244   2.257   1.655   2.875  0.5806  0.1658 -0.2378
 1812SOL     OW 7245   2.287   1.873   3.056 -0.3909 -0.8044 -0.6930
 1812SOL    HW2 7246   2.359   1.923   3.018 -0.7301 -1.1284 -1.7754
 1812SOL    HW3 7247   2.278   1.797   2.999 -1.1175 -1.1386 -0.1457
 1812SOL    MW4 7248   2.295   1.869   3.044 -0.5315 -0.8912 -0.7636
 1813SOL     OW 7249   2.491   2.006   2.946 -0.0744 -0.5216  0.0007
 1813SOL    HW2 7250   2.570   1.959   2.974  0.0157 -1.0962 -1.1541
 1813SOL    HW3 7251   2.491   1.997   2.851  0.3580  2.5103 -0.3465
 1813SOL    MW4 7252   2.502   1.998   2.937 -0.0055 -0.1974 -0.1974
 1814SOL     OW 7253   2.458   2.260   3.043  0.2335 -0.3159 -0.1456
 1814SOL    HW2 7254   2.457   2.258   3.139 -1.0935  0.6120 -0.1275
 1814SOL    HW3 7255   2.456   2.168   3.018  0.4703 -0.5675  0.7194
 1814SOL    MW4 7256   2.458   2.248   3.053  0.0896 -0.2267 -0.0291
 1815SOL     OW 7257   2.274   2.454   2.927  0.6595 -0.4447 -0.1738
 1815SOL    HW2 7258   2.249   2.523   2.988  0.5936  0.3244 -1.0542
 1815SOL    HW3 7259   2.340   2.403   2.973 -0.8114 -1.0663  1.2938
 1815SOL    MW4 7260   2.279   2.456   2.941  0.4567 -0.4253 -0.0963
 1816SOL     OW 7261   2.209   2.668   3.126 -0.2070  0.0549  0.4811
 1816SOL    HW2 7262   2.282   2.720   3.091  0.2376 -0.5288  0.5161
 1816SOL    HW3 7263   2.131   2.705   3.086  0.1114  0.7088  0.4653
 1816SOL    MW4 7264   2.209   2.679   3.116 -0.1063  0.0642  0.4837
 1817SOL     OW 7265   2.436   2.809   3.014  0.5117  0.1467 -0.7482
 1817SOL    HW2 7266   2.470   2.893   3.045  1.2487 -0.4337  0.0437
 1817SOL    HW3 7267   2.442   2.815   2.919 -0.4281  1.3877 -0.7515
 1817SOL    MW4 7268   2.441   2.821   3.006  0.4849  0.2338 -0.6442
 1818SOL     OW 7269   2.533   3.056   3.108 -0.2622 -0.1477  0.1272
 1818SOL    HW2 7270   2.461   3.100   3.064 -0.6352  0.1834  1.0455
 1818SOL    HW3 7271   2.612   3.088   3.064 -0.6752 -0.5771 -0.9328
 1818SOL    MW4 7272   2.534   3.066   3.097 -0.3659 -0.1606  0.1085
 1819SOL     OW 7273   2.283   3.160   2.973  0.5716  0.4297  0.0892
 1819SOL    HW2 7274   2.270   3.250   3.001 -1.5063  0.4678 -0.8952
 1819SOL    HW3 7275   2.205   3.114   3.003  1.3470 -0.9129  0.0739
 1819SOL    MW4 7276   2.271   3.166   2.980  0.3997  0.2576 -0.0427
 1820SOL     OW 7277   2.215   3.437   3.052 -0.0820  0.4439 -0.0496
 1820SOL    HW2 7278   2.280   3.481   2.998 -0.6618  0.9641 -0.3350
 1820SOL    HW3 7279   2.131   3.460   3.012 -0.5824  1.7002  1.6709
 1820SOL    MW4 7280   2.212   3.446   3.040 -0.2245  0.6783  0.1397
 1821SOL     OW 7281   2.433   3.564   2.917 -0.0283  0.6030 -0.0075
 1821SOL    HW2 7282   2.506   3.514   2.952  1.5269  2.4115 -0.6189
 1821SOL    HW3 7283   2.437   3.648   2.962 -1.3863  0.9209 -0.4520
 1821SOL    MW4 7284   2.443   3.569   2.927 -0.0023  0.8835 -0.1468
 1822SOL     OW 7285   2.445   3.809   3.015  0.1733  0.0834  0.1924
 1822SOL    HW2 7286   2.446   3.819   3.110  0.1769  0.3549  0.1634
 1822SOL    HW3 7287   2.529   3.844   2.986 -0.1745  0.7854  0.0111
 1822SOL    MW4 7288   2.456   3.815   3.023  0.1279  0.2118  0.1647
 1823SOL     OW 7289   2.231   3.974   2.962 -0.1281 -0.0155  0.4545
 1823SOL    HW2 7290   2.305   3.917   2.983  0.3783 -0.6263 -2.6575
 1823SOL    HW3 7291   2.153   3.921   2.983  0.3409 -0.6813  0.5412
 1823SOL    MW4 7292   2.230   3.959   2.967  0.0006 -0.1839  0.0553
 1824SOL     OW 7293   2.045   4.360   2.882 -0.2645 -0.7978  0.4495
 1824SOL    HW2 7294   2.056   4.386   2.791 -2.2727 -0.4277  0.2825
 1824SOL    HW3 7295   2.024   4.442   2.928 -5.2102 -1.7175  0.1612
 1824SOL    MW4 7296   2.043   4.374   2.876 -1.1820 -0.8703  0.3895
 1825SOL     OW 7297   2.431   4.624   3.041 -0.2846  0.5271  0.1121
 1825SOL    HW2 7298   2.350   4.645   2.994 -1.3609 -2.0993  0.7063
 1825SOL    HW3 7299   2.447   4.531   3.022  1.1304  0.3159  2.1275
 1825SOL    MW4 7300   2.422   4.614   3.033 -0.2399  0.1527  0.4564
 1826SOL     OW 7301   2.922   4.598   2.980 -0.4353 -0.2442 -0.4047
 1826SOL    HW2 7302   2.989   4.655   2.942 -1.4804  0.6416 -0.9374
 1826SOL    HW3 7303   2.936   4.513   2.938  0.0623  0.0589 -0.8615
 1826SOL    MW4 7304   2.932   4.594   2.969 -0.5075 -0.0873 -0.5353
 1827SOL     OW 7305   2.669   0.083   2.954 -0.3724  0.0023  0.5457
 1827SOL    HW2 7306   2.739   0.018   2.965 -0.8823 -0.9149 -1.4428
 1827SOL    HW3 7307   2.590   0.037   2.980 -0.6084  0.1272  0.0504
 1827SOL    MW4 7308   2.668   0.069   2.959 -0.4708 -0.1022  0.2180
 1828SOL     OW 7309   2.727   0.332   3.046 -0.3715 -0.0121 -0.3660
 1828SOL    HW2 7310   2.724   0.246   3.005 -0.2853 -1.2975  2.1852
 1828SOL    HW3 7311   2.639   0.368   3.032 -0.5677 -0.7312 -1.0197
 1828SOL    MW4 7312   2.715   0.325   3.039 -0.3860 -0.2766 -0.1156
 1829SOL     OW 7313   2.943   0.496   2.980  0.6666 -0.8723 -0.7743
 1829SOL    HW2 7314   2.859   0.450   2.989  1.3092 -2.4889 -2.6609
 1829SOL    HW3 7315   2.963   0.491   2.887  1.1868  2.5497 -0.8983
 1829SOL    MW4 7316   2.934   0.489   2.969  0.8200 -0.6341 -1.0396
 1830SOL     OW 7317   2.909   0.744   3.062  0.1157 -0.2321 -0.1382
 1830SOL    HW2 7318   2.940   0.732   3.152  0.9499 -0.4864 -0.4566
 1830SOL    HW3 7319   2.914   0.657   3.022 -0.0505 -0.0801 -0.4945
 1830SOL    MW4 7320   2.914   0.731   3.069  0.2038 -0.2456 -0.2272
 1831SOL     OW 7321   2.643   0.870   2.970 -0.3743  0.0030 -0.4183
 1831SOL    HW2 7322   2.630   0.955   3.012  1.3766  1.0731 -1.9737
 1831SOL    HW3 7323   2.727   0.839   3.002 -1.1533 -1.3300  0.4059
 1831SOL    MW4 7324   2.652   0.877   2.979 -0.2461 -0.0317 -0.5147
 1832SOL     OW 7325   2.675   1.154   3.037 -0.1663 -0.4469  0.2293
 1832SOL    HW2 7326   2.752   1.185   2.988 -0.1822  0.9641  1.0715
 1832SOL    HW3 7327   2.602   1.204   3.000 -0.5628 -1.1917 -0.0043
 1832SOL    MW4 7328   2.675   1.165   3.025 -0.2207 -0.3590  0.3096
 1833SOL     OW 7329   2.905   1.251   2.942 -0.0414  0.1642  0.2309
 1833SOL    HW2 7330   2.983   1.206   2.976  1.2938  1.2739 -1.3305
 1833SOL    HW3 7331   2.905   1.336   2.986  0.3157  0.6407 -0.6821
 1833SOL    MW4 7332   2.915   1.256   2.953  0.1819  0.3735 -0.0956
 1834SOL     OW 7333   2.918   1.492   3.076  0.3019  0.6271 -0.3258
 1834SOL    HW2 7334   2.946   1.507   3.166 -0.2397 -0.5207  0.0403
 1834SOL    HW3 7335   2.990   1.527   3.023  1.0987  0.3723  0.5674
 1834SOL    MW4 7336   2.931   1.498   3.081  0.3355  0.4420 -0.1596
 1835SOL     OW 7337   2.748   1.624   2.895  0.4631 -0.5603 -0.1414
 1835SOL    HW2 7338   2.811   1.573   2.947 -0.5729 -0.7929  0.9175
 1835SOL    HW3 7339   2.663   1.585   2.917 -0.1905  0.6998 -0.4298
 1835SOL    MW4 7340   2.745   1.612   2.905  0.2402 -0.4247 -0.0398
 1836SOL     OW 7341   2.719   1.877   3.011  0.1011  0.0587  0.0870
 1836SOL    HW2 7342   2.798   1.921   2.980 -0.6943 -0.1135 -2.2953
 1836SOL    HW3 7343   2.742   1.784   3.015  0.1248  0.0474 -0.2980
 1836SOL    MW4 7344   2.732   1.871   3.007 -0.0007  0.0345 -0.2781
 1837SOL     OW 7345   2.938   2.034   2.942 -0.4213 -0.5201  0.0253
 1837SOL    HW2 7346   2.902   2.116   2.975 -0.4541 -0.2955 -0.5708
 1837SOL    HW3 7347   2.953   2.049   2.849  1.0964 -0.6619  0.2360
 1837SOL    MW4 7348   2.935   2.047   2.934 -0.2254 -0.5092 -0.0255
 1838SOL     OW 7349   2.873   2.308   3.024  0.2728  0.4008  0.0237
 1838SOL    HW2 7350   2.950   2.356   2.993 -0.4919  0.0478 -2.5889
 1838SOL    HW3 7351   2.799   2.359   2.991 -0.6206  0.3059  1.8378
 1838SOL    MW4 7352   2.874   2.321   3.015  0.0541  0.3417 -0.0817
 1839SOL     OW 7353   2.654   2.449   2.944 -0.0700  0.0195 -0.1903
 1839SOL    HW2 7354   2.660   2.531   2.993  0.7448 -0.3687  0.3805
 1839SOL    HW3 7355   2.595   2.394   2.995  0.0803 -0.0635 -0.1039
 1839SOL    MW4 7356   2.647   2.452   2.957  0.0573 -0.0427 -0.1036
 1840SOL     OW 7357   2.663   2.680   3.095  0.1542  0.3015  0.2857
 1840SOL    HW2 7358   2.586   2.729   3.066  0.1214  0.1423  0.1032
 1840SOL    HW3 7359   2.670   2.698   3.188 -0.7865 -0.6215  0.5399
 1840SOL    MW4 7360   2.654   2.689   3.103  0.0257  0.1587  0.2952
 1841SOL     OW 7361   2.924   2.746   2.961  0.2997 -0.3511 -0.3149
 1841SOL    HW2 7362   3.007   2.718   2.999 -0.0732 -1.9597 -0.6686
 1841SOL    HW3 7363   2.857   2.715   3.022 -0.1961 -1.4087 -1.3780
 1841SOL    MW4 7364   2.926   2.738   2.974  0.1851 -0.7029 -0.5018
 1842SOL     OW 7365   0.064   3.651   4.009 -0.0264 -0.0884 -0.3718
 1842SOL    HW2 7366   0.155   3.681   4.015 -0.6738  1.4063  3.5109
 1842SOL    HW3 7367   0.060   3.573   4.064 -0.9616 -0.6300 -1.1735
 1842SOL    MW4 7368   0.076   3.645   4.017 -0.2352  0.0373  0.0347
 1843SOL     OW 7369   2.758   3.165   2.994 -0.0306  1.1167  0.4104
 1843SOL    HW2 7370   2.739   3.256   3.015 -0.6925  1.2902 -0.8849
 1843SOL    HW3 7371   2.744   3.158   2.899  2.3567  0.2498  0.0684
 1843SOL    MW4 7372   2.754   3.176   2.984  0.1970  1.0252  0.1944
 1844SOL     OW 7373   2.652   3.428   3.015 -0.7818  0.0459 -0.5029
 1844SOL    HW2 7374   2.657   3.418   3.110 -0.7072  0.3677 -0.4739
 1844SOL    HW3 7375   2.729   3.480   2.991  0.2137 -1.5842 -0.9611
 1844SOL    MW4 7376   2.663   3.434   3.024 -0.6406 -0.1267 -0.5595
 1845SOL     OW 7377   2.882   3.578   2.948 -0.0523 -0.4063  0.2128
 1845SOL    HW2 7378   2.965   3.543   2.982 -0.2906 -0.6455  0.5533
 1845SOL    HW3 7379   2.886   3.672   2.964 -0.0573 -0.4863  0.6786
 1845SOL    MW4 7380   2.893   3.586   2.954 -0.0844 -0.4485  0.3192
 1846SOL     OW 7381   2.908   3.858   2.966 -0.0267  0.8520 -0.2054
 1846SOL    HW2 7382   2.913   3.848   3.061 -1.2938 -1.6709 -0.3514
 1846SOL    HW3 7383   2.825   3.903   2.951 -0.2316  0.5078 -0.1290
 1846SOL    MW4 7384   2.897   3.862   2.977 -0.2209  0.4738 -0.2146
 1847SOL     OW 7385   2.659   3.990   2.920  0.1020 -0.2936 -0.1547
 1847SOL    HW2 7386   2.663   4.079   2.954 -1.6209 -0.3571  0.2675
 1847SOL    HW3 7387   2.642   4.000   2.826 -0.3434 -0.1642 -0.0635
 1847SOL    MW4 7388   2.657   4.003   2.912 -0.1841 -0.2849 -0.0869
 1848SOL     OW 7389   2.465   4.353   3.005 -0.2615 -0.1555 -0.0106
 1848SOL    HW2 7390   2.378   4.317   3.025  0.4030 -1.5540  0.4287
 1848SOL    HW3 7391   2.471   4.348   2.909 -0.8357  0.3328 -0.0718
 1848SOL    MW4 7392   2.454   4.347   2.995 -0.2496 -0.2756  0.0393
 1849SOL     OW 7393   2.939   4.312   2.904 -0.4821  0.0001  0.1957
 1849SOL    HW2 7394   3.015   4.273   2.948 -0.1589  0.6120  0.1841
 1849SOL    HW3 7395   2.865   4.286   2.959 -0.0284  1.1530  1.3959
 1849SOL    MW4 7396   2.939   4.303   2.917 -0.3796  0.2329  0.3525
 1850SOL     OW 7397   3.380   4.630   3.306 -0.1333  0.3350 -0.1155
 1850SOL    HW2 7398   3.288   4.644   3.328 -0.1361 -1.7297  1.3565
 1850SOL    HW3 7399   3.382   4.628   3.210 -2.1472 -2.6881 -0.1471
 1850SOL    MW4 7400   3.368   4.632   3.296 -0.3994 -0.3363  0.0745
 1851SOL     OW 7401   3.146   0.095   2.935  0.3452  0.1995  0.2569
 1851SOL    HW2 7402   3.141   0.173   2.990  1.3641 -0.9921  2.0669
 1851SOL    HW3 7403   3.227   0.052   2.960  1.0271 -0.1814 -2.4718
 1851SOL    MW4 7404   3.156   0.100   2.946  0.5696 -0.0080  0.1357
 1852SOL     OW 7405   3.146   0.341   3.075 -0.7515 -0.0991 -0.7395
 1852SOL    HW2 7406   3.228   0.387   3.057 -0.3429 -0.4425  0.2165
 1852SOL    HW3 7407   3.078   0.402   3.046 -0.1978  0.7875 -0.1924
 1852SOL    MW4 7408   3.148   0.355   3.068 -0.6245 -0.0275 -0.5412
 1853SOL     OW 7409   3.361   0.489   3.027 -0.0078 -0.0716 -0.3683
 1853SOL    HW2 7410   3.419   0.417   3.052  0.4431  0.2699 -0.4394
 1853SOL    HW3 7411   3.361   0.488   2.932 -0.1700 -0.1093 -0.3685
 1853SOL    MW4 7412   3.368   0.479   3.018  0.0303 -0.0315 -0.3777
 1854SOL     OW 7413   3.355   0.766   3.100  0.4117 -0.5617  0.0149
 1854SOL    HW2 7414   3.367   0.759   3.194  0.5102 -1.8614 -0.0891
 1854SOL    HW3 7415   3.370   0.678   3.067 -1.0073 -0.4232 -1.0645
 1854SOL    MW4 7416   3.358   0.754   3.108  0.2375 -0.7149 -0.1413
 1855SOL     OW 7417   3.131   0.882   2.960 -0.2221  0.1905 -0.1846
 1855SOL    HW2 7418   3.197   0.832   3.008 -0.7558 -1.3486 -1.0350
 1855SOL    HW3 7419   3.050   0.833   2.972 -0.7828  0.9254 -0.9084
 1855SOL    MW4 7420   3.129   0.869   2.968 -0.3665  0.0844 -0.3923
 1856SOL     OW 7421   3.134   1.150   3.048  0.0445  0.3848  0.2926
 1856SOL    HW2 7422   3.132   1.060   3.017 -0.9119  1.0397 -1.6357
 1856SOL    HW3 7423   3.215   1.186   3.012 -0.5016  0.8097 -0.5541
 1856SOL    MW4 7424   3.144   1.143   3.039 -0.1538  0.5273 -0.0735
 1857SOL     OW 7425   3.378   1.255   2.948  0.2904  0.0351 -0.3729
 1857SOL    HW2 7426   3.447   1.200   2.986  0.5464  0.5173 -0.1407
 1857SOL    HW3 7427   3.391   1.341   2.988  1.6560  1.0241 -2.8552
 1857SOL    MW4 7428   3.389   1.259   2.959  0.5043  0.2292 -0.6698
 1858SOL     OW 7429   4.040   1.646   3.702  0.1237  0.3388 -0.0231
 1858SOL    HW2 7430   3.990   1.685   3.774  0.8646 -0.1134  0.7449
 1858SOL    HW3 7431   4.006   1.557   3.695  1.5565 -0.3323  1.2329
 1858SOL    MW4 7432   4.029   1.640   3.710  0.4105  0.1906  0.2440
 1859SOL     OW 7433   3.120   1.631   2.946  0.1188 -0.3492  0.3556
 1859SOL    HW2 7434   3.206   1.593   2.963  0.4669  0.7780  1.0872
 1859SOL    HW3 7435   3.114   1.633   2.850  0.9466 -0.3134  0.3008
 1859SOL    MW4 7436   3.131   1.626   2.935  0.2739 -0.1957  0.4449
 1860SOL     OW 7437   3.160   1.898   3.078  0.6553  0.1398  0.0750
 1860SOL    HW2 7438   3.152   1.810   3.041  0.7607  0.0060  0.3733
 1860SOL    HW3 7439   3.084   1.945   3.042  0.9397  0.1088 -0.5806
 1860SOL    MW4 7440   3.149   1.893   3.068  0.7067  0.1181  0.0278
 1861SOL     OW 7441   3.361   2.036   2.956 -0.2483 -0.3772 -0.2190
 1861SOL    HW2 7442   3.435   1.976   2.965 -1.3415 -2.0218 -1.7010
 1861SOL    HW3 7443   3.286   1.986   2.989 -0.8140  1.0251  0.6668
 1861SOL    MW4 7444   3.361   2.021   2.962 -0.4672 -0.4092 -0.2976
 1862SOL     OW 7445   3.397   2.307   3.025  0.1132  0.4198  0.0254
 1862SOL    HW2 7446   3.390   2.299   3.120  1.5830  0.5817  0.1640
 1862SOL    HW3 7447   3.392   2.216   2.993  0.1293  0.3242  0.2953
 1862SOL    MW4 7448   3.396   2.294   3.033  0.3092  0.4285  0.0793
 1863SOL     OW 7449   3.141   2.409   2.965  0.2836  0.1532 -0.2984
 1863SOL    HW2 7450   3.213   2.364   3.010 -0.5164 -0.1938  0.6446
 1863SOL    HW3 7451   3.158   2.394   2.872 -0.4537 -2.8438  0.0108
 1863SOL    MW4 7452   3.153   2.401   2.959  0.0807 -0.2880 -0.1332
 1864SOL     OW 7453   3.157   2.675   3.053 -0.4952 -0.3738  0.1605
 1864SOL    HW2 7454   3.159   2.677   3.149  0.2551  0.2813  0.1372
 1864SOL    HW3 7455   3.151   2.582   3.030 -0.4352 -0.5437  0.8338
 1864SOL    MW4 7456   3.156   2.663   3.063 -0.3883 -0.3098  0.2463
 1865SOL     OW 7457   3.358   2.824   2.926 -0.5380  0.3556 -0.3588
 1865SOL    HW2 7458   3.370   2.911   2.964  1.9008 -0.6665  1.3043
 1865SOL    HW3 7459   3.286   2.786   2.977 -0.6327  0.8581 -0.1146
 1865SOL    MW4 7460   3.350   2.830   2.938 -0.2287  0.2870 -0.1072
 1866SOL     OW 7461   3.412   3.076   3.074 -0.0935  0.0324 -0.0356
 1866SOL    HW2 7462   3.410   3.068   3.169  0.2560 -3.2618 -0.2356
 1866SOL    HW3 7463   3.338   3.133   3.053 -0.6303  0.1924  2.1637
 1866SOL    MW4 7464   3.402   3.083   3.083 -0.1182 -0.3811  0.2282
 1867SOL     OW 7465   3.179   3.216   2.954  0.1231 -0.0742 -0.0451
 1867SOL    HW2 7466   3.112   3.152   2.979 -0.1808  0.2554 -0.0058
 1867SOL    HW3 7467   3.182   3.210   2.858  0.1248 -0.1758 -0.0394
 1867SOL    MW4 7468   3.171   3.207   2.944  0.0832 -0.0441 -0.0391
 1868SOL     OW 7469   3.120   3.474   3.024  0.2705 -0.0702  0.3897
 1868SOL    HW2 7470   3.207   3.509   3.005 -0.6066  0.8563 -2.1306
 1868SOL    HW3 7471   3.126   3.381   3.000  0.1743  0.3126 -1.1690
 1868SOL    MW4 7472   3.133   3.466   3.018  0.1421  0.1025 -0.1485
 1869SOL     OW 7473   3.370   3.568   2.968  0.5158  0.1553  0.4697
 1869SOL    HW2 7474   3.448   3.516   2.991 -0.0754 -0.5304  0.9491
 1869SOL    HW3 7475   3.396   3.658   2.984  1.4469 -0.0090 -0.0352
 1869SOL    MW4 7476   3.384   3.573   2.973  0.5606  0.0432  0.4663
 1870SOL     OW 7477   3.422   3.853   2.973 -0.4398 -0.4861 -0.0661
 1870SOL    HW2 7478   3.401   3.840   3.065 -0.5792 -1.2401 -0.2012
 1870SOL    HW3 7479   3.337   3.865   2.930 -0.3524  0.2425 -0.0426
 1870SOL    MW4 7480   3.408   3.853   2.980 -0.4466 -0.4894 -0.0808
 1871SOL     OW 7481   3.163   3.943   2.896  0.3244  0.4089  0.9266
 1871SOL    HW2 7482   3.074   3.913   2.912  0.3522 -0.6617 -0.8159
 1871SOL    HW3 7483   3.161   3.978   2.807  1.7606 -0.1451  0.6590
 1871SOL    MW4 7484   3.151   3.943   2.887  0.5175  0.1946  0.6614
 1872SOL     OW 7485   3.177   4.194   2.993 -0.3827 -0.0975 -0.0312
 1872SOL    HW2 7486   3.188   4.217   3.085  0.5949  1.8825 -0.6157
 1872SOL    HW3 7487   3.186   4.099   2.991  0.6173 -0.0691  1.7939
 1872SOL    MW4 7488   3.180   4.184   3.005 -0.1218  0.1675  0.1325
 1873SOL     OW 7489   3.370   4.362   2.880  0.0436 -0.3539  0.7786
 1873SOL    HW2 7490   3.433   4.328   2.944 -1.0809  1.6724  3.0372
 1873SOL    HW3 7491   3.287   4.320   2.904 -0.5027  0.8612  1.0608
 1873SOL    MW4 7492   3.367   4.352   2.892 -0.1768  0.0737  1.1139
 1874SOL     OW 7493   3.864   4.645   3.018 -0.4447  0.0897  0.7284
 1874SOL    HW2 7494   3.860   4.553   2.994 -0.6075  0.1683  0.4588
 1874SOL    HW3 7495   3.775   4.678   3.004 -0.0345  0.6525 -0.6148
 1874SOL    MW4 7496   3.852   4.637   3.013 -0.4120  0.1743  0.5156
 1875SOL     OW 7497   3.375   4.640   3.018 -0.0822  0.4665 -0.3422
 1875SOL    HW2 7498   3.462   4.671   2.993  0.4692 -0.6610  0.1055
 1875SOL    HW3 7499   3.381   4.545   3.009 -0.6073  0.2224  1.7148
 1875SOL    MW4 7500   3.387   4.631   3.014 -0.0787  0.2856 -0.0118
 1876SOL     OW 7501   3.589   0.323   3.102 -0.4791  0.4622  0.5390
 1876SOL    HW2 7502   3.586   0.331   3.198 -0.7100  0.2158  0.5547
 1876SOL    HW3 7503   3.657   0.383   3.075  0.1545 -0.0717  0.9352
 1876SOL    MW4 7504   3.597   0.332   3.111 -0.4260  0.3593  0.5933
 1877SOL     OW 7505   3.770   0.494   2.963 -0.0858 -0.2553 -0.4324
 1877SOL    HW2 7506   3.862   0.471   2.976  0.1118  0.9313  0.3115
 1877SOL    HW3 7507   3.760   0.580   3.005 -1.5029 -0.3230 -0.5998
 1877SOL    MW4 7508   3.781   0.502   2.971 -0.2467 -0.1077 -0.3563
 1878SOL     OW 7509   3.776   0.752   3.045  0.5914  0.1282 -0.3164
 1878SOL    HW2 7510   3.794   0.740   3.138  0.0069  2.1728  0.0955
 1878SOL    HW3 7511   3.855   0.793   3.010  0.8703 -0.7779 -0.7681
 1878SOL    MW4 7512   3.788   0.756   3.053  0.5511  0.2784 -0.3216
 1879SOL     OW 7513   3.566   0.875   2.937  0.4811  0.7938 -0.1445
 1879SOL    HW2 7514   3.640   0.825   2.972  0.6813  1.2890  0.1597
 1879SOL    HW3 7515   3.491   0.848   2.990  0.5463  0.6467 -0.1290
 1879SOL    MW4 7516   3.566   0.865   2.949  0.5161  0.8397 -0.1023
 1880SOL     OW 7517   3.849   1.246   2.971 -0.0656  0.5264 -0.5854
 1880SOL    HW2 7518   3.809   1.235   2.884  0.3627  0.8772 -0.8292
 1880SOL    HW3 7519   3.863   1.340   2.979  0.7690  0.4004 -0.5318
 1880SOL    MW4 7520   3.846   1.257   2.960  0.1010  0.5560 -0.6105
 1881SOL     OW 7521   4.080   1.136   3.057 -0.1251 -0.9963  0.1992
 1881SOL    HW2 7522   3.999   1.187   3.053  0.2241 -0.3892  0.6682
 1881SOL    HW3 7523   4.107   1.142   3.149 -0.0145 -1.9282  0.2243
 1881SOL    MW4 7524   4.073   1.144   3.069 -0.0644 -1.0391  0.2644
 1882SOL     OW 7525   3.871   1.531   3.032  0.1135 -0.0173 -0.3481
 1882SOL    HW2 7526   3.875   1.510   3.125 -0.2847  1.9568  0.1316
 1882SOL    HW3 7527   3.785   1.573   3.020  0.3381  0.1395 -1.5166
 1882SOL    MW4 7528   3.860   1.534   3.043  0.0906  0.2639 -0.4390
 1883SOL     OW 7529   3.377   1.513   3.052  0.0672  0.4699 -0.1344
 1883SOL    HW2 7530   3.378   1.514   3.147 -0.0288 -0.8010 -0.1133
 1883SOL    HW3 7531   3.460   1.555   3.027 -0.3769  1.7533  0.4795
 1883SOL    MW4 7532   3.388   1.519   3.061 -0.0041  0.4715 -0.0506
 1884SOL     OW 7533   3.635   1.647   2.977  0.0249 -0.3327 -0.1535
 1884SOL    HW2 7534   3.609   1.736   3.002  0.1621 -0.1120 -0.8092
 1884SOL    HW3 7535   3.656   1.652   2.884  1.0168 -0.8338  0.0338
 1884SOL    MW4 7536   3.634   1.659   2.968  0.1739 -0.3697 -0.2153
 1885SOL     OW 7537   3.797   2.058   2.946  0.1908  0.3096  0.3635
 1885SOL    HW2 7538   3.787   2.146   2.983  2.5247  0.9329 -0.3894
 1885SOL    HW3 7539   3.807   2.072   2.852  0.8993 -0.7240  0.2752
 1885SOL    MW4 7540   3.797   2.072   2.939  0.5922  0.2555  0.2525
 1886SOL     OW 7541   3.837   2.310   3.075 -0.1300 -0.2358 -0.2941
 1886SOL    HW2 7542   3.823   2.315   3.170  0.8378 -2.1432 -0.0328
 1886SOL    HW3 7543   3.754   2.340   3.037 -0.8300 -0.2868  1.1611
 1886SOL    MW4 7544   3.824   2.314   3.083 -0.0946 -0.4942 -0.0677
 1887SOL     OW 7545   3.633   2.426   2.930 -0.5749 -0.1537  0.3326
 1887SOL    HW2 7546   3.636   2.518   2.956  0.9625 -0.6619  1.9967
 1887SOL    HW3 7547   3.547   2.395   2.959 -0.7439  0.5141  0.5479
 1887SOL    MW4 7548   3.622   2.434   2.937 -0.3944 -0.1326  0.5805
 1888SOL     OW 7549   3.618   2.696   2.999  0.1697  1.0119 -0.0916
 1888SOL    HW2 7550   3.538   2.740   2.971  0.6622  0.2764 -2.8295
 1888SOL    HW3 7551   3.689   2.752   2.967  0.7452  0.0963 -0.4595
 1888SOL    MW4 7552   3.617   2.709   2.991  0.3106  0.7941 -0.5014
 1889SOL     OW 7553   3.865   2.845   2.989  0.5550  0.8889 -0.2636
 1889SOL    HW2 7554   3.871   2.937   3.013  1.9300  0.6740  0.2407
 1889SOL    HW3 7555   3.871   2.844   2.894  1.2409  1.2553 -0.2221
 1889SOL    MW4 7556   3.866   2.857   2.980  0.8269  0.9089 -0.1916
 1890SOL     OW 7557   3.838   3.021   3.351 -0.5615 -0.4289 -0.2582
 1890SOL    HW2 7558   3.853   3.068   3.269  0.2902 -1.1623 -0.5314
 1890SOL    HW3 7559   3.760   3.062   3.389 -0.5408  0.3807 -1.0877
 1890SOL    MW4 7560   3.830   3.032   3.346 -0.4464 -0.4188 -0.4037
 1891SOL     OW 7561   3.645   3.179   2.942 -0.2227  0.3216 -0.0471
 1891SOL    HW2 7562   3.582   3.130   2.996 -0.3709  0.8488  0.2621
 1891SOL    HW3 7563   3.609   3.174   2.853 -0.2934 -0.0422  0.0016
 1891SOL    MW4 7564   3.632   3.172   2.937 -0.2516  0.3431  0.0001
 1892SOL     OW 7565   3.603   3.449   3.043 -0.2341  0.4033 -0.0733
 1892SOL    HW2 7566   3.673   3.495   2.997 -0.3033  0.8883  0.3037
 1892SOL    HW3 7567   3.614   3.357   3.018  1.4116  0.2691  1.0953
 1892SOL    MW4 7568   3.614   3.443   3.033 -0.0261  0.4496  0.1306
 1893SOL     OW 7569   3.846   3.574   2.933 -0.0156  0.3648  0.5015
 1893SOL    HW2 7570   3.831   3.669   2.938 -0.1675  0.3891 -0.3141
 1893SOL    HW3 7571   3.836   3.554   2.840 -1.6420 -0.7384  0.8989
 1893SOL    MW4 7572   3.843   3.584   2.921 -0.2502  0.2225  0.4463
 1894SOL     OW 7573   3.848   3.834   3.014 -0.1964 -0.1052  0.3801
 1894SOL    HW2 7574   3.871   3.835   3.107 -0.4705  0.1747  0.4437
 1894SOL    HW3 7575   3.778   3.899   3.005  0.9086  1.0060 -0.3067
 1894SOL    MW4 7576   3.842   3.842   3.025 -0.0868  0.0783  0.2979
 1895SOL     OW 7577   3.642   3.994   2.935  0.4398 -0.3007  0.1811
 1895SOL    HW2 7578   3.568   3.936   2.947  0.1648 -0.1902 -0.9160
 1895SOL    HW3 7579   3.650   4.004   2.840  1.8635 -0.3218  0.2835
 1895SOL    MW4 7580   3.633   3.988   2.924  0.5913 -0.2889  0.0499
 1896SOL     OW 7581   3.578   4.263   3.021 -0.3253  0.5405  0.5155
 1896SOL    HW2 7582   3.654   4.309   2.986 -0.1506  1.8368  2.5071
 1896SOL    HW3 7583   3.588   4.173   2.990  1.6611  0.8557  0.1689
 1896SOL    MW4 7584   3.589   4.257   3.013 -0.0401  0.7531  0.7326
 1897SOL     OW 7585   3.794   4.384   2.926  0.4569  0.4494  0.2411
 1897SOL    HW2 7586   3.878   4.342   2.947  0.5924  0.5858 -0.0151
 1897SOL    HW3 7587   3.792   4.386   2.830 -0.3881 -0.6352  0.2251
 1897SOL    MW4 7588   3.805   4.379   2.916  0.3633  0.3243  0.2052
 1898SOL     OW 7589   4.427   0.225   4.705 -0.2426 -0.1385 -0.3238
 1898SOL    HW2 7590   4.414   0.214   4.610  0.5296 -0.2297 -0.4245
 1898SOL    HW3 7591   4.355   0.176   4.745 -0.0313 -0.8903 -0.8518
 1898SOL    MW4 7592   4.416   0.217   4.697 -0.1128 -0.2497 -0.4067
 1899SOL     OW 7593   4.052   0.106   2.843 -0.1351  0.2159  0.2395
 1899SOL    HW2 7594   4.126   0.083   2.900 -0.0779 -0.2132 -0.0107
 1899SOL    HW3 7595   3.976   0.067   2.886 -0.3151  1.2286  0.8545
 1899SOL    MW4 7596   4.052   0.098   2.856 -0.1513  0.2929  0.2876
 1900SOL     OW 7597   4.353   0.507   3.311 -0.0673 -0.7939  0.4319
 1900SOL    HW2 7598   4.449   0.505   3.316 -0.0853  0.7894  2.0489
 1900SOL    HW3 7599   4.332   0.599   3.296 -1.4058 -0.5792  3.3180
 1900SOL    MW4 7600   4.363   0.519   3.310 -0.2463 -0.5567  1.0261
 1901SOL     OW 7601   4.312   0.533   2.922  0.2354  0.1790  0.3035
 1901SOL    HW2 7602   4.290   0.623   2.946 -2.1723  0.0166 -1.1461
 1901SOL    HW3 7603   4.318   0.534   2.826  1.4021 -0.9687  0.3356
 1901SOL    MW4 7604   4.310   0.545   2.912  0.0717  0.0062  0.1165
 1902SOL     OW 7605   4.257   0.802   3.003 -0.1449 -0.3205  0.1770
 1902SOL    HW2 7606   4.172   0.837   2.976 -0.2669 -1.1526 -0.5204
 1902SOL    HW3 7607   4.320   0.865   2.968 -0.4981  0.8088  1.4911
 1902SOL    MW4 7608   4.254   0.815   2.995 -0.2076 -0.2813  0.2584
 1903SOL     OW 7609   3.979   0.889   2.932  0.2184 -0.1118 -0.0151
 1903SOL    HW2 7610   3.992   0.972   2.976  2.0940 -0.0352 -0.6649
 1903SOL    HW3 7611   3.996   0.908   2.839  1.2127 -1.2981 -0.0986
 1903SOL    MW4 7612   3.983   0.902   2.925  0.5971 -0.2582 -0.1119
 1904SOL     OW 7613   4.225   1.311   2.907 -0.3160  0.4083  0.4655
 1904SOL    HW2 7614   4.237   1.306   2.812 -0.2883 -0.4129  0.5046
 1904SOL    HW3 7615   4.175   1.232   2.928  1.6860 -0.6195  1.4314
 1904SOL    MW4 7616   4.220   1.300   2.897 -0.0482  0.1644  0.5981
 1905SOL     OW 7617   4.393   2.307   4.429 -0.1158 -0.1038 -0.3784
 1905SOL    HW2 7618   4.368   2.233   4.485  0.2732 -0.9297 -1.2772
 1905SOL    HW3 7619   4.475   2.279   4.388 -0.0706  0.7503 -0.8723
 1905SOL    MW4 7620   4.401   2.293   4.431 -0.0585 -0.1001 -0.5621
 1906SOL     OW 7621   4.253   1.552   3.048  0.1591  0.3082  0.4582
 1906SOL    HW2 7622   4.244   1.467   3.005 -2.0646 -0.5588  2.5044
 1906SOL    HW3 7623   4.187   1.607   3.007  1.5030  1.0545 -0.7678
 1906SOL    MW4 7624   4.243   1.548   3.037  0.0430  0.2922  0.5665
 1907SOL     OW 7625   4.060   1.684   2.912 -0.7144  0.3234  0.3089
 1907SOL    HW2 7626   4.046   1.772   2.949 -1.8038  0.2609  0.0433
 1907SOL    HW3 7627   4.005   1.627   2.965  1.4787 -0.5165  1.7522
 1907SOL    MW4 7628   4.051   1.688   2.924 -0.5688  0.2044  0.4642
 1908SOL     OW 7629   4.033   1.941   3.029  0.1852 -0.2995  0.4170
 1908SOL    HW2 7630   4.107   1.993   2.995  0.9537 -0.4260  1.8637
 1908SOL    HW3 7631   3.956   1.994   3.010  0.4731 -0.7645 -2.3436
 1908SOL    MW4 7632   4.033   1.955   3.022  0.3245 -0.3775  0.2436
 1909SOL     OW 7633   4.274   2.046   2.936  0.3684 -0.4076  0.1368
 1909SOL    HW2 7634   4.284   2.139   2.956 -0.8040  0.0012 -1.0518
 1909SOL    HW3 7635   4.262   2.044   2.841 -1.4282 -1.6015  0.3667
 1909SOL    MW4 7636   4.274   2.058   2.926 -0.0233 -0.5112  0.0103
 1910SOL     OW 7637   4.292   2.305   3.024 -0.2186  0.2191 -0.1941
 1910SOL    HW2 7638   4.216   2.341   2.978  0.1737  1.2106 -0.0853
 1910SOL    HW3 7639   4.368   2.338   2.974  0.2159  1.4719  1.2672
 1910SOL    MW4 7640   4.292   2.314   3.011 -0.1095  0.5152  0.0130
 1911SOL     OW 7641   4.050   2.422   2.924  0.3239  0.1990 -0.2256
 1911SOL    HW2 7642   4.060   2.505   2.970  2.9506 -0.2317  0.0798
 1911SOL    HW3 7643   3.979   2.377   2.969 -0.1979  1.7049  0.4681
 1911SOL    MW4 7644   4.042   2.427   2.936  0.6016  0.3409 -0.0938
 1912SOL     OW 7645   4.069   2.673   3.055  0.1230  0.0611  0.0623
 1912SOL    HW2 7646   4.063   2.661   3.150 -0.5592 -0.7129 -0.0787
 1912SOL    HW3 7647   4.004   2.740   3.035  0.3525  0.3136  0.1518
 1912SOL    MW4 7648   4.060   2.681   3.065  0.0633 -0.0077  0.0555
 1913SOL     OW 7649   4.303   2.818   2.985  0.4923  0.1307  0.8382
 1913SOL    HW2 7650   4.225   2.768   3.011  0.7833 -1.2495 -0.8907
 1913SOL    HW3 7651   4.376   2.757   2.998  1.0103  0.5958  0.1420
 1913SOL    MW4 7652   4.302   2.803   2.990  0.5990  0.0100  0.5182
 1914SOL     OW 7653   4.090   3.209   2.903 -0.2773 -0.2215  0.5415
 1914SOL    HW2 7654   4.060   3.292   2.939 -1.0171 -0.8053  1.2970
 1914SOL    HW3 7655   4.074   3.216   2.809 -0.2454  0.5217  0.5867
 1914SOL    MW4 7656   4.084   3.221   2.895 -0.3707 -0.2004  0.6472
 1915SOL     OW 7657   3.888   3.111   3.078 -0.3490 -0.0341  0.6786
 1915SOL    HW2 7658   3.968   3.153   3.046 -0.9107 -0.2576 -1.0758
 1915SOL    HW3 7659   3.821   3.139   3.016 -0.8936 -2.8673 -0.0728
 1915SOL    MW4 7660   3.890   3.120   3.066 -0.4950 -0.4374  0.3480
 1916SOL     OW 7661   4.081   3.488   3.029 -0.4131  0.2616  0.4292
 1916SOL    HW2 7662   4.090   3.488   3.124 -0.5835 -1.0179  0.4530
 1916SOL    HW3 7663   4.004   3.542   3.012  0.2931  1.4693  0.9297
 1916SOL    MW4 7664   4.072   3.495   3.039 -0.3424  0.2521  0.4984
 1917SOL     OW 7665   4.287   3.647   2.908  0.0370 -0.1722 -0.6750
 1917SOL    HW2 7666   4.288   3.728   2.958  2.2529 -0.3847 -0.3354
 1917SOL    HW3 7667   4.222   3.592   2.952 -1.6868  1.4906 -1.0739
 1917SOL    MW4 7668   4.279   3.651   2.920  0.1019  0.0192 -0.6828
 1918SOL     OW 7669   4.238   3.895   3.026 -0.2562  0.2540  0.1662
 1918SOL    HW2 7670   4.187   3.940   2.959  0.0036 -0.5096 -0.5526
 1918SOL    HW3 7671   4.328   3.924   3.012 -0.2816  0.5066  0.5272
 1918SOL    MW4 7672   4.243   3.905   3.015 -0.2253  0.1866  0.1190
 1919SOL     OW 7673   4.029   4.020   2.844 -0.0201 -0.4608 -0.5717
 1919SOL    HW2 7674   4.003   4.103   2.883  2.2617  0.3684 -0.7557
 1919SOL    HW3 7675   3.977   3.954   2.891  2.0899  0.5556  3.4535
 1919SOL    MW4 7676   4.019   4.022   2.855  0.5594 -0.2173 -0.0649
 1920SOL     OW 7677   4.029   4.267   3.007  0.1489 -0.7390 -0.1402
 1920SOL    HW2 7678   4.017   4.269   3.102  0.7104 -2.1798 -0.0242
 1920SOL    HW3 7679   4.113   4.311   2.993  1.1955 -2.5593  0.2567
 1920SOL    MW4 7680   4.039   4.273   3.018  0.3611 -1.1693 -0.0725
 1921SOL     OW 7681   4.261   4.412   2.922 -0.5453  0.3000 -0.1712
 1921SOL    HW2 7682   4.340   4.366   2.950 -1.1654  0.3653  1.7653
 1921SOL    HW3 7683   4.263   4.407   2.827  1.1861 -0.7133 -0.1072
 1921SOL    MW4 7684   4.272   4.405   2.913 -0.3987  0.1750  0.0928
 1922SOL     OW 7685   0.239   4.231   3.600 -0.2042  0.2736 -0.1274
 1922SOL    HW2 7686   0.307   4.249   3.664  0.3367 -1.0601 -0.2902
 1922SOL    HW3 7687   0.284   4.231   3.516 -0.9294  2.1328 -0.5378
 1922SOL    MW4 7688   0.254   4.233   3.597 -0.2285  0.3429 -0.2030
 1923SOL     OW 7689   1.800   0.611   4.466 -0.2300  0.1441  0.1253
 1923SOL    HW2 7690   1.747   0.541   4.429 -0.3908  0.8944 -1.0878
 1923SOL    HW3 7691   1.737   0.665   4.515 -0.1104 -0.5300  1.0340
 1923SOL    MW4 7692   1.785   0.609   4.468 -0.2354  0.1542  0.0851
 1924SOL     OW 7693   0.396   0.315   3.248  0.2463 -0.0814  0.0739
 1924SOL    HW2 7694   0.467   0.306   3.312 -1.4185 -1.7953  1.7268
 1924SOL    HW3 7695   0.349   0.232   3.253 -0.1426 -0.0945 -3.1396
 1924SOL    MW4 7696   0.400   0.303   3.257 -0.0246 -0.3093 -0.1320
 1925SOL     OW 7697   3.580   0.095   3.426 -0.0147 -0.6306  0.1271
 1925SOL    HW2 7698   3.505   0.053   3.384  0.7999 -2.5482  0.5489
 1925SOL    HW3 7699   3.655   0.065   3.376  0.4452  1.9000 -0.7785
 1925SOL    MW4 7700   3.580   0.086   3.414  0.1535 -0.5497  0.0633
 1926SOL     OW 7701   1.110   4.359   4.407  0.0686 -0.3936  0.3951
 1926SOL    HW2 7702   1.079   4.367   4.316  0.4563  1.7259  0.4103
 1926SOL    HW3 7703   1.104   4.448   4.441  3.7295 -0.3937  1.1976
 1926SOL    MW4 7704   1.105   4.372   4.399  0.6027 -0.1140  0.5030
 1927SOL     OW 7705   0.625   4.241   4.219  0.1265 -0.0297  0.1682
 1927SOL    HW2 7706   0.640   4.273   4.307 -1.0472  0.1783  0.2933
 1927SOL    HW3 7707   0.584   4.155   4.231 -1.9290  0.8769 -0.1557
 1927SOL    MW4 7708   0.622   4.234   4.232 -0.2995  0.1174  0.1420
 1928SOL     OW 7709   4.070   0.858   3.422  0.2033 -0.1326 -0.0446
 1928SOL    HW2 7710   4.064   0.839   3.516  0.7546 -0.5902 -0.0950
 1928SOL    HW3 7711   3.996   0.812   3.383  0.0498 -0.0495  0.1499
 1928SOL    MW4 7712   4.060   0.849   3.429  0.2558 -0.1820 -0.0256
 1929SOL     OW 7713   2.009   4.518   3.910 -0.2280 -0.0048  0.5294
 1929SOL    HW2 7714   1.948   4.458   3.867 -0.4870  0.2269  0.5706
 1929SOL    HW3 7715   1.960   4.600   3.919  0.0156  0.1168  0.7588
 1929SOL    MW4 7716   1.994   4.521   3.905 -0.2300  0.0418  0.5651
 1930SOL     OW 7717   4.035   0.469   4.071  0.1239  0.1570 -0.2065
 1930SOL    HW2 7718   3.960   0.411   4.066 -0.7594  1.2114  0.5882
 1930SOL    HW3 7719   4.079   0.459   3.987 -1.4456  0.2429 -1.0523
 1930SOL    MW4 7720   4.031   0.460   4.059 -0.1997  0.3074 -0.2132
 1931SOL     OW 7721   0.164   1.314   3.462 -0.0649 -0.0914 -0.2302
 1931SOL    HW2 7722   0.185   1.402   3.430  1.4194  0.1567  1.2797
 1931SOL    HW3 7723   0.237   1.260   3.431  0.4314 -0.2112  1.1069
 1931SOL    MW4 7724   0.177   1.319   3.454  0.1964 -0.0744  0.1454
 1932SOL     OW 7725   1.768   2.639   4.186  0.6028  0.0350 -0.3736
 1932SOL    HW2 7726   1.739   2.665   4.099 -0.1080  0.6983  0.0516
 1932SOL    HW3 7727   1.862   2.623   4.177  0.5142  0.0027 -1.2792
 1932SOL    MW4 7728   1.776   2.640   4.173  0.4973  0.1182 -0.4370
 1933SOL     OW 7729   0.709   3.058   4.555  0.0362 -0.0441  0.6445
 1933SOL    HW2 7730   0.628   3.094   4.518 -0.1588 -1.1584 -0.0534
 1933SOL    HW3 7731   0.714   2.970   4.519  0.0797 -1.0181  2.9804
 1933SOL    MW4 7732   0.699   3.051   4.545  0.0162 -0.3196  0.8607
 1934SOL     OW 7733   0.233   4.479   4.425  0.7265 -0.3552  0.2482
 1934SOL    HW2 7734   0.204   4.428   4.349  0.4454  0.5765 -0.2775
 1934SOL    HW3 7735   0.155   4.488   4.479  0.2394  1.3642 -0.7184
 1934SOL    MW4 7736   0.219   4.473   4.422  0.6251 -0.0054  0.0513
 1935SOL     OW 7737   0.882   1.240   4.464 -0.4306  0.2931 -0.2105
 1935SOL    HW2 7738   0.970   1.278   4.458 -1.0247  1.8019  0.4391
 1935SOL    HW3 7739   0.884   1.188   4.545 -0.6621  1.7736  0.7711
 1935SOL    MW4 7740   0.894   1.238   4.474 -0.5395  0.6875  0.0047
 1936SOL     OW 7741   4.243   2.834   3.426 -0.9572  0.6031  0.0863
 1936SOL    HW2 7742   4.187   2.765   3.390  0.0460  0.5747 -1.4750
 1936SOL    HW3 7743   4.222   2.912   3.374 -0.6791  0.9844  0.5366
 1936SOL    MW4 7744   4.233   2.835   3.414 -0.7881  0.6497 -0.0603
 1937SOL     OW 7745   1.927   3.362   3.773 -0.4540  0.2671 -0.3111
 1937SOL    HW2 7746   2.007   3.410   3.793 -0.5838 -0.2820  1.6207
 1937SOL    HW3 7747   1.858   3.428   3.775 -0.2188  0.5360 -0.8405
 1937SOL    MW4 7748   1.929   3.377   3.776 -0.4401  0.2301 -0.1261
 1938SOL     OW 7749   0.207   3.062   3.310  0.1250 -0.4582  0.1393
 1938SOL    HW2 7750   0.219   2.968   3.324  2.7046  0.1233  2.1979
 1938SOL    HW3 7751   0.242   3.077   3.222  1.4397 -1.1496  0.5285
 1938SOL    MW4 7752   0.213   3.051   3.300  0.6388 -0.4727  0.4623
 1939SOL     OW 7753   4.007   4.483   3.596  0.1226 -0.1311  0.0098
 1939SOL    HW2 7754   3.924   4.462   3.553  0.1521 -0.9437  0.3322
 1939SOL    HW3 7755   3.983   4.533   3.673 -0.1364 -1.1506  0.5941
 1939SOL    MW4 7756   3.993   4.486   3.600  0.0923 -0.3728  0.1294
 1940SOL     OW 7757   1.272   1.556   3.634 -0.7390  0.1173 -0.2917
 1940SOL    HW2 7758   1.255   1.462   3.632  0.0359 -0.0115 -1.0374
 1940SOL    HW3 7759   1.321   1.570   3.714 -1.1710 -0.0535  0.0057
 1940SOL    MW4 7760   1.276   1.545   3.644 -0.6938  0.0778 -0.3509
 1941SOL     OW 7761   2.748   3.572   4.122  0.2164  0.3851 -0.4829
 1941SOL    HW2 7762   2.836   3.596   4.149  0.1274 -0.1134  0.2742
 1941SOL    HW3 7763   2.692   3.603   4.193 -0.3124  1.4175 -1.3325
 1941SOL    MW4 7764   2.752   3.579   4.135  0.1349  0.4556 -0.4951
 1942SOL     OW 7765   0.059   4.332   3.834 -0.2424  0.2274 -0.2975
 1942SOL    HW2 7766   0.089   4.250   3.873  0.7998  0.3207 -0.8820
 1942SOL    HW3 7767   0.054   4.393   3.907  0.2735 -0.0016 -0.0708
 1942SOL    MW4 7768   0.062   4.329   3.849 -0.0368  0.2095 -0.3447
 1943SOL     OW 7769   1.032   2.358   4.031 -0.1612  0.1667 -0.2891
 1943SOL    HW2 7770   0.991   2.408   4.102  0.8798 -1.5720  1.6114
 1943SOL    HW3 7771   0.963   2.301   3.999  0.1412 -1.2901  1.5201
 1943SOL    MW4 7772   1.018   2.357   4.036  0.0160 -0.2549  0.2004
 1944SOL     OW 7773   4.044   0.387   2.922  0.2323 -0.6441 -0.1500
 1944SOL    HW2 7774   4.044   0.301   2.882  0.0875 -0.5008 -0.4628
 1944SOL    HW3 7775   4.116   0.434   2.881  0.0777 -0.4935 -0.2555
 1944SOL    MW4 7776   4.053   0.382   2.911  0.1928 -0.6053 -0.2052
 1945SOL     OW 7777   3.268   4.429   3.744 -0.1132  0.5470 -0.1421
 1945SOL    HW2 7778   3.228   4.398   3.826  0.6143  0.5036  0.2034
 1945SOL    HW3 7779   3.299   4.349   3.702  0.7090  0.6830  0.1857
 1945SOL    MW4 7780   3.267   4.414   3.749  0.0912  0.5592 -0.0533
 1946SOL     OW 7781   3.337   0.601   3.890  0.0923 -0.6036 -0.2572
 1946SOL    HW2 7782   3.312   0.660   3.819 -1.8706 -0.5098  0.4923
 1946SOL    HW3 7783   3.419   0.637   3.924 -0.0072  0.4780 -1.1573
 1946SOL    MW4 7784   3.345   0.613   3.885 -0.1798 -0.4485 -0.2771
 1947SOL     OW 7785   1.414   0.080   3.346  0.1491 -0.4701  0.0085
 1947SOL    HW2 7786   1.462   0.109   3.424 -1.3561 -1.4031  1.3073
 1947SOL    HW3 7787   1.348   0.020   3.380 -2.0694  0.9047 -1.7164
 1947SOL    MW4 7788   1.412   0.076   3.361 -0.3422 -0.4118 -0.0477
 1948SOL     OW 7789   0.028   0.633   3.718 -0.3292  0.0997  0.4050
 1948SOL    HW2 7790  -0.026   0.632   3.797 -1.2884 -0.0471 -0.2430
 1948SOL    HW3 7791   0.062   0.722   3.712  1.5264 -0.4627  2.1666
 1948SOL    MW4 7792   0.026   0.645   3.727 -0.2109  0.0062  0.5519
 1949SOL     OW 7793   1.391   2.495   3.640 -0.3040  0.3963  0.1479
 1949SOL    HW2 7794   1.307   2.501   3.686  0.2191 -1.9158  1.5178
 1949SOL    HW3 7795   1.369   2.453   3.557 -0.7348  1.3032 -0.2027
 1949SOL    MW4 7796   1.377   2.490   3.635 -0.2918  0.2109  0.2824
 1950SOL     OW 7797   4.447   1.498   4.078  0.0361  0.3001 -0.6435
 1950SOL    HW2 7798   4.504   1.422   4.068  0.8500  0.7329  0.5954
 1950SOL    HW3 7799   4.434   1.506   4.173 -1.1399  0.9098 -0.8377
 1950SOL    MW4 7800   4.453   1.489   4.089 -0.0117  0.4377 -0.5057
 1951SOL     OW 7801   1.955   1.096   4.378  0.2748 -0.6439  0.3323
 1951SOL    HW2 7802   1.938   1.002   4.364  0.6608 -0.9856  2.0025
 1951SOL    HW3 7803   1.887   1.140   4.328 -2.0671 -1.8867  2.3222
 1951SOL    MW4 7804   1.944   1.089   4.370  0.0167 -0.8529  0.8152
 1952SOL     OW 7805   2.203   1.800   3.786  0.2552  0.0298  0.1772
 1952SOL    HW2 7806   2.208   1.715   3.740 -0.8775  0.3895 -0.6436
 1952SOL    HW3 7807   2.275   1.851   3.749  0.9488 -0.5789  0.6806
 1952SOL    MW4 7808   2.213   1.795   3.775  0.1973 -0.0031  0.1353
 1953SOL     OW 7809   0.200   0.413   3.645 -0.2961 -0.0829  0.2713
 1953SOL    HW2 7810   0.209   0.367   3.729 -3.0268 -0.3592  0.4579
 1953SOL    HW3 7811   0.142   0.487   3.665 -0.3938  0.2529 -1.2239
 1953SOL    MW4 7812   0.194   0.417   3.659 -0.6693 -0.0750  0.0987
 1954SOL     OW 7813   3.516   0.760   4.324 -0.1711  0.4069  0.8002
 1954SOL    HW2 7814   3.572   0.835   4.344  0.5581  0.2377 -0.5264
 1954SOL    HW3 7815   3.529   0.745   4.230  0.0376 -1.6555  1.1296
 1954SOL    MW4 7816   3.525   0.768   4.314 -0.0473  0.1124  0.6686
 1955SOL     OW 7817   0.229   1.510   3.025 -0.1620  0.1083  0.0798
 1955SOL    HW2 7818   0.215   1.426   2.981 -0.2094 -0.2543  0.7925
 1955SOL    HW3 7819   0.153   1.562   3.001  0.5781  0.4611 -1.5683
 1955SOL    MW4 7820   0.217   1.506   3.016 -0.0706  0.1070 -0.0436
 1956SOL     OW 7821   3.166   2.052   4.239 -0.2304  0.3800  0.0575
 1956SOL    HW2 7822   3.163   2.130   4.295  0.0639  0.6325 -0.2812
 1956SOL    HW3 7823   3.076   2.018   4.241  0.0818 -0.4334  1.8321
 1956SOL    MW4 7824   3.154   2.058   4.247 -0.1504  0.3060  0.2469
 1957SOL     OW 7825   3.101   0.208   4.070  0.1401 -0.4303 -0.0945
 1957SOL    HW2 7826   3.069   0.215   3.981 -0.9186  0.8244  0.3677
 1957SOL    HW3 7827   3.032   0.161   4.117 -0.0031  0.2579  0.3968
 1957SOL    MW4 7828   3.088   0.203   4.065 -0.0185 -0.1739  0.0313
 1958SOL     OW 7829   0.249   2.281   3.330 -0.0620 -0.5232  0.8257
 1958SOL    HW2 7830   0.325   2.323   3.370 -1.1870  1.5272  0.8558
 1958SOL    HW3 7831   0.253   2.190   3.361  1.9892 -0.2824  1.3536
 1958SOL    MW4 7832   0.260   2.274   3.339  0.0602 -0.2209  0.8993
 1959SOL     OW 7833   2.877   1.379   4.466 -0.2573 -0.0699 -0.0552
 1959SOL    HW2 7834   2.817   1.423   4.526 -0.7316  0.2192 -0.7373
 1959SOL    HW3 7835   2.869   1.427   4.384 -0.8587 -1.4819 -0.8508
 1959SOL    MW4 7836   2.868   1.391   4.463 -0.3992 -0.2180 -0.2502
 1960SOL     OW 7837   0.011   2.427   3.402 -0.1446 -0.4668  0.2545
 1960SOL    HW2 7838  -0.061   2.374   3.367 -0.0896  1.1296 -2.4162
 1960SOL    HW3 7839   0.088   2.371   3.391 -0.5482 -1.0489  0.3635
 1960SOL    MW4 7840   0.012   2.412   3.396 -0.1906 -0.3330 -0.0835
 1961SOL     OW 7841   4.315   1.755   4.312  0.2558 -0.2635 -0.3281
 1961SOL    HW2 7842   4.299   1.769   4.218 -0.5304 -1.2505 -0.3483
 1961SOL    HW3 7843   4.238   1.790   4.355  1.1817  1.3583  0.0541
 1961SOL    MW4 7844   4.303   1.761   4.305  0.2742 -0.1797 -0.2803
 1962SOL     OW 7845   1.912   1.669   4.285  0.2335  0.3116  0.0457
 1962SOL    HW2 7846   1.907   1.764   4.279 -1.2547  0.2174 -0.3874
 1962SOL    HW3 7847   1.925   1.651   4.378  0.2855  0.9200  0.1551
 1962SOL    MW4 7848   1.913   1.679   4.296  0.0440  0.3795  0.0030
 1963SOL     OW 7849   0.523   3.610   3.319 -0.1708 -0.3613 -0.2926
 1963SOL    HW2 7850   0.586   3.578   3.384  0.4343 -1.7544 -1.5226
 1963SOL    HW3 7851   0.438   3.581   3.352 -0.0040  0.1032  0.5516
 1963SOL    MW4 7852   0.520   3.602   3.332 -0.0690 -0.4839 -0.3435
 1964SOL     OW 7853   0.506   3.889   3.410 -0.1583  0.4845  0.3656
 1964SOL    HW2 7854   0.504   3.794   3.404 -0.3874  0.5543 -0.8538
 1964SOL    HW3 7855   0.553   3.907   3.492  1.8741 -0.6729 -0.4920
 1964SOL    MW4 7856   0.512   3.879   3.420  0.0797  0.3410  0.0916
 1965SOL     OW 7857   1.535   0.468   3.852 -0.0548  0.3961  0.4094
 1965SOL    HW2 7858   1.601   0.465   3.782  0.0499  2.0362  0.4091
 1965SOL    HW3 7859   1.583   0.503   3.928 -0.1945 -1.2549  1.2763
 1965SOL    MW4 7860   1.550   0.473   3.853 -0.0595  0.3946  0.5238
 1966SOL     OW 7861   0.723   3.916   3.245  0.3540 -0.2873 -0.2144
 1966SOL    HW2 7862   0.792   3.906   3.311  0.3183 -1.8835 -0.3972
 1966SOL    HW3 7863   0.642   3.908   3.294  0.2717  2.0148  0.0650
 1966SOL    MW4 7864   0.722   3.914   3.260  0.3384 -0.1942 -0.2017
 1967SOL     OW 7865   0.513   3.982   4.253 -0.3419 -0.1101 -0.1539
 1967SOL    HW2 7866   0.500   3.954   4.343  0.2920 -0.3829 -0.1379
 1967SOL    HW3 7867   0.425   3.997   4.218 -0.5344  1.1327  0.8623
 1967SOL    MW4 7868   0.500   3.980   4.260 -0.2837  0.0179 -0.0177
 1968SOL     OW 7869   0.421   4.249   3.086  0.4826  0.0160 -0.0509
 1968SOL    HW2 7870   0.431   4.166   3.040  0.7558 -0.3148  0.5996
 1968SOL    HW3 7871   0.349   4.293   3.040  0.0909 -0.7351 -0.1666
 1968SOL    MW4 7872   0.413   4.244   3.074  0.4670 -0.1267  0.0197
 1969SOL     OW 7873   4.086   4.332   3.819 -0.0713 -0.4428  0.0653
 1969SOL    HW2 7874   4.153   4.264   3.822  0.9249  0.5604  0.7693
 1969SOL    HW3 7875   4.092   4.367   3.731  1.3825  0.6691  0.5811
 1969SOL    MW4 7876   4.096   4.327   3.808  0.2520 -0.1637  0.2262
 1970SOL     OW 7877   3.824   1.468   3.900  0.2828  0.2051 -0.3733
 1970SOL    HW2 7878   3.869   1.433   3.823  0.9962  0.6808 -0.1739
 1970SOL    HW3 7879   3.733   1.440   3.889  0.4917 -0.2010 -1.1091
 1970SOL    MW4 7880   3.818   1.459   3.889  0.4045  0.2142 -0.4441
 1971SOL     OW 7881   3.489   1.677   4.483 -0.2893  0.3601 -0.4437
 1971SOL    HW2 7882   3.428   1.744   4.512 -0.8079 -0.0387 -0.6043
 1971SOL    HW3 7883   3.438   1.596   4.482  0.9593 -0.5229  2.1530
 1971SOL    MW4 7884   3.474   1.675   4.486 -0.1930  0.1910 -0.1223
 1972SOL     OW 7885   0.368   0.069   3.605 -0.1205  0.0199  0.4523
 1972SOL    HW2 7886   0.325   0.010   3.668 -0.5931  0.4965  0.5761
 1972SOL    HW3 7887   0.296   0.108   3.556  0.2656 -0.4920 -0.5155
 1972SOL    MW4 7888   0.353   0.066   3.607 -0.1319  0.0153  0.3409
 1973SOL     OW 7889   1.129   4.636   4.117 -0.1958  0.2212 -0.1737
 1973SOL    HW2 7890   1.221   4.620   4.138 -0.2539  0.0904 -0.0221
 1973SOL    HW3 7891   1.122   4.616   4.024  0.0960  0.9438 -0.3598
 1973SOL    MW4 7892   1.140   4.631   4.108 -0.1650  0.2993 -0.1783
 1974SOL     OW 7893   2.597   0.872   4.166  0.1353  0.0063 -0.2623
 1974SOL    HW2 7894   2.679   0.834   4.135 -0.5725 -0.9518 -0.9758
 1974SOL    HW3 7895   2.556   0.908   4.088 -0.3329  0.0976  0.0220
 1974SOL    MW4 7896   2.602   0.872   4.152 -0.0198 -0.1080 -0.3189
 1975SOL     OW 7897   3.773   2.635   4.103  0.2477 -0.1130 -0.3990
 1975SOL    HW2 7898   3.749   2.624   4.194  1.6870  0.7048  0.1046
 1975SOL    HW3 7899   3.736   2.720   4.078  1.8118  0.7386  0.1191
 1975SOL    MW4 7900   3.765   2.645   4.111  0.6440  0.1072 -0.2642
 1976SOL     OW 7901   0.949   1.251   3.642 -0.1136  0.1585  0.3589
 1976SOL    HW2 7902   0.909   1.225   3.559  1.1757  0.5064 -0.3769
 1976SOL    HW3 7903   0.925   1.344   3.652  0.2625  0.2893  0.0588
 1976SOL    MW4 7904   0.941   1.260   3.633  0.1061  0.2216  0.2222
 1977SOL     OW 7905   0.909   1.617   4.188 -0.8040  0.1622  0.3716
 1977SOL    HW2 7906   0.962   1.611   4.268 -1.0682  0.9970  0.6154
 1977SOL    HW3 7907   0.866   1.531   4.182 -0.8881  0.1372  1.2027
 1977SOL    MW4 7908   0.910   1.605   4.198 -0.8499  0.2690  0.5134
 1978SOL     OW 7909   0.877   1.204   4.073 -0.6469 -0.2520 -0.2152
 1978SOL    HW2 7910   0.825   1.126   4.089 -1.1671  0.1170 -0.0768
 1978SOL    HW3 7911   0.927   1.184   3.994 -0.0518 -1.0831  0.3709
 1978SOL    MW4 7912   0.877   1.191   4.064 -0.6370 -0.3130 -0.1196
 1979SOL     OW 7913   1.587   1.457   3.317  0.2707  0.0800  0.3003
 1979SOL    HW2 7914   1.593   1.371   3.358  1.5057 -0.9849 -2.0378
 1979SOL    HW3 7915   1.585   1.439   3.223 -2.1214  2.4738 -0.1798
 1979SOL    MW4 7916   1.588   1.444   3.310  0.1180  0.2553 -0.0715
 1980SOL     OW 7917   1.130   4.527   3.857  0.0446 -0.1957  0.2564
 1980SOL    HW2 7918   1.052   4.491   3.815 -0.3770  0.3475  0.5737
 1980SOL    HW3 7919   1.202   4.475   3.820 -0.2568  0.6232 -1.5699
 1980SOL    MW4 7920   1.129   4.515   3.846 -0.0508 -0.0160  0.0573
 1981SOL     OW 7921   1.421   2.140   4.557  0.0179 -0.7135 -0.1249
 1981SOL    HW2 7922   1.429   2.101   4.470 -2.2014 -0.1839 -0.5855
 1981SOL    HW3 7923   1.332   2.118   4.586  0.0995  0.6507  1.2567
 1981SOL    MW4 7924   1.410   2.132   4.550 -0.2641 -0.4637 -0.0034
 1982SOL     OW 7925   0.489   1.574   3.397  1.0180  0.0099  0.1229
 1982SOL    HW2 7926   0.564   1.533   3.354  0.5664  0.5641 -1.2052
 1982SOL    HW3 7927   0.413   1.547   3.345  0.5525  1.2943  0.1316
 1982SOL    MW4 7928   0.489   1.565   3.385  0.8970  0.2525 -0.0512
 1983SOL     OW 7929   0.274   2.020   3.417  0.4275  0.2265  0.3439
 1983SOL    HW2 7930   0.343   1.957   3.395 -0.0167 -0.0066 -0.4002
 1983SOL    HW3 7931   0.265   2.014   3.512  0.4785 -0.7317  0.2895
 1983SOL    MW4 7932   0.282   2.011   3.427  0.3756  0.0693  0.2386
 1984SOL     OW 7933   1.831   2.358   3.700  0.3519 -0.1849 -0.1672
 1984SOL    HW2 7934   1.752   2.396   3.740  1.2237 -1.1487  2.5947
 1984SOL    HW3 7935   1.837   2.270   3.737  3.9914  0.6922  1.5878
 1984SOL    MW4 7936   1.822   2.352   3.710  0.9471 -0.1963  0.4287
 1985SOL     OW 7937   0.919   2.978   3.654  0.0466  0.7694  0.1338
 1985SOL    HW2 7938   0.850   2.942   3.599  3.0756 -1.9999 -2.0581
 1985SOL    HW3 7939   0.951   3.055   3.606  1.7815 -0.8586 -1.3641
 1985SOL    MW4 7940   0.914   2.984   3.640  0.6751  0.1892 -0.3530
 1986SOL     OW 7941   0.254   3.159   3.691  0.7606 -0.1694 -0.2871
 1986SOL    HW2 7942   0.301   3.180   3.609 -0.0392 -1.1428 -1.0095
 1986SOL    HW3 7943   0.175   3.115   3.662 -0.1335  0.5817  0.9843
 1986SOL    MW4 7944   0.250   3.156   3.676  0.5371 -0.1987 -0.2147
 1987SOL     OW 7945   4.079   3.316   3.650  0.4563 -0.1726 -0.0518
 1987SOL    HW2 7946   4.080   3.261   3.572 -0.0026 -0.3343  0.0576
 1987SOL    HW3 7947   4.171   3.323   3.675  0.6580  0.3432 -0.9307
 1987SOL    MW4 7948   4.091   3.310   3.643  0.4223 -0.1259 -0.1533
 1988SOL     OW 7949   4.311   3.844   4.313  0.1144  0.0785 -0.0136
 1988SOL    HW2 7950   4.253   3.795   4.255  0.3343 -0.8570  0.5412
 1988SOL    HW3 7951   4.323   3.928   4.269 -1.0221 -0.0142 -0.5174
 1988SOL    MW4 7952   4.305   3.848   4.299 -0.0066 -0.0572 -0.0069
 1989SOL     OW 7953   2.885   0.044   4.186 -0.3396 -0.1344  0.1512
 1989SOL    HW2 7954   2.832   0.048   4.106 -0.0208  0.3387 -0.0385
 1989SOL    HW3 7955   2.821   0.047   4.257 -0.5810  0.2507 -0.0818
 1989SOL    MW4 7956   2.869   0.045   4.185 -0.3294 -0.0212  0.0954
 1990SOL     OW 7957   0.060   4.560   3.596  0.4943  0.2897  0.0435
 1990SOL    HW2 7958   0.131   4.534   3.654  0.0907 -0.1569  0.3388
 1990SOL    HW3 7959   0.072   4.655   3.585  2.1461 -0.0624 -1.2892
 1990SOL    MW4 7960   0.071   4.569   3.602  0.6590  0.1843 -0.0934
 1991SOL     OW 7961   0.913   2.340   3.450  0.5570  0.1319  0.2799
 1991SOL    HW2 7962   0.846   2.329   3.383  1.5952  1.7909 -1.0860
 1991SOL    HW3 7963   0.913   2.434   3.469 -0.1063 -0.3817  3.0509
 1991SOL    MW4 7964   0.904   2.351   3.444  0.6065  0.2830  0.4653
 1992SOL     OW 7965   0.647   0.259   3.388  0.5186  0.0387  0.4433
 1992SOL    HW2 7966   0.704   0.260   3.464  0.7429 -1.2163  0.2959
 1992SOL    HW3 7967   0.653   0.170   3.354 -0.7914  0.1489 -0.1213
 1992SOL    MW4 7968   0.655   0.247   3.393  0.3753 -0.1123  0.3494
 1993SOL     OW 7969   4.074   3.199   3.401  0.3829 -0.3028  0.3400
 1993SOL    HW2 7970   3.993   3.149   3.400  0.2087 -0.0225 -1.2685
 1993SOL    HW3 7971   4.140   3.140   3.364  0.7769 -0.2988  1.0219
 1993SOL    MW4 7972   4.072   3.185   3.396  0.4119 -0.2653  0.2177
 1994SOL     OW 7973   1.442   4.273   4.086  0.5571 -0.2645  0.1394
 1994SOL    HW2 7974   1.477   4.264   4.174  1.1031  0.9693  0.0545
 1994SOL    HW3 7975   1.511   4.236   4.029  0.6810 -0.0430  0.1467
 1994SOL    MW4 7976   1.456   4.267   4.090  0.6455 -0.0725  0.1292
 1995SOL     OW 7977   1.227   0.721   3.778 -0.1359 -0.0650 -0.2999
 1995SOL    HW2 7978   1.219   0.688   3.867 -0.3077  0.7880  0.0091
 1995SOL    HW3 7979   1.284   0.658   3.734  1.4941  0.5251  0.9308
 1995SOL    MW4 7980   1.233   0.708   3.784  0.0565  0.1254 -0.0968
 1996SOL     OW 7981   1.545   0.474   3.380 -0.2231 -0.6985  0.5728
 1996SOL    HW2 7982   1.483   0.426   3.326 -1.8824  0.2858  1.5874
 1996SOL    HW3 7983   1.631   0.450   3.344 -1.2714 -0.0457 -2.5249
 1996SOL    MW4 7984   1.548   0.465   3.368 -0.5804 -0.4825  0.2980
 1997SOL     OW 7985   1.119   1.128   4.243  0.1288  0.0703 -0.1711
 1997SOL    HW2 7986   1.050   1.173   4.195 -0.2517 -1.3174 -0.9723
 1997SOL    HW3 7987   1.072   1.069   4.302  0.6121  0.3441  0.4877
 1997SOL    MW4 7988   1.104   1.126   4.244  0.1424 -0.0767 -0.1899
 1998SOL     OW 7989   2.139   1.040   4.172 -0.3018  0.0148 -0.3987
 1998SOL    HW2 7990   2.183   0.957   4.192  0.0711  0.4317  0.5717
 1998SOL    HW3 7991   2.112   1.073   4.258  0.8955  1.6383 -0.6281
 1998SOL    MW4 7992   2.141   1.033   4.186 -0.0946  0.2840 -0.3009
 1999SOL     OW 7993   2.240   1.621   4.448  0.0501 -0.1860 -0.2614
 1999SOL    HW2 7994   2.246   1.627   4.353  1.3083  0.7631 -0.1243
 1999SOL    HW3 7995   2.268   1.706   4.481 -1.9623  0.0634  0.9163
 1999SOL    MW4 7996   2.244   1.633   4.440 -0.0494 -0.0279 -0.0879
 2000SOL     OW 7997   1.061   0.776   3.327  0.0708  0.0053 -0.5715
 2000SOL    HW2 7998   1.145   0.818   3.344 -0.0017 -0.7290  1.7033
 2000SOL    HW3 7999   0.998   0.847   3.322  0.7585  0.5388 -2.0429
 2000SOL    MW4 8000   1.064   0.791   3.329  0.1520 -0.0212 -0.4655
 2001SOL     OW 8001   1.517   3.267   3.455  0.1906 -0.1236 -0.3814
 2001SOL    HW2 8002   1.454   3.198   3.433  0.6750 -0.3347 -1.1172
 2001SOL    HW3 8003   1.602   3.227   3.440  0.4502  1.3181 -2.9307
 2001SOL    MW4 8004   1.520   3.252   3.450  0.2887  0.0388 -0.8148
 2002SOL     OW 8005   1.117   1.500   3.040 -0.4053 -0.1633 -0.1007
 2002SOL    HW2 8006   1.102   1.407   3.023 -0.5255 -0.1963  0.1854
 2002SOL    HW3 8007   1.207   1.516   3.012 -0.5166 -0.2764 -0.5223
 2002SOL    MW4 8008   1.127   1.490   3.034 -0.4359 -0.1826 -0.1186
 2003SOL     OW 8009   0.305   2.130   3.820  0.1615 -0.3438  0.1887
 2003SOL    HW2 8010   0.353   2.091   3.894 -1.3436 -1.6850  0.4744
 2003SOL    HW3 8011   0.249   2.196   3.861 -1.1433 -1.5307  0.3318
 2003SOL    MW4 8012   0.304   2.134   3.835 -0.2092 -0.6773  0.2453
 2004SOL     OW 8013   0.325   2.573   3.730 -0.3847  0.2342  0.0585
 2004SOL    HW2 8014   0.254   2.603   3.673 -0.5573 -1.2082 -0.5283
 2004SOL    HW3 8015   0.328   2.478   3.715  0.6060  0.0619  1.2880
 2004SOL    MW4 8016   0.316   2.564   3.721 -0.2768  0.0212  0.1433
 2005SOL     OW 8017   2.269   2.688   3.389  0.5758 -0.0875 -0.0516
 2005SOL    HW2 8018   2.249   2.682   3.296 -0.9109 -0.5963  0.2865
 2005SOL    HW3 8019   2.274   2.597   3.419  0.2474  0.0771  0.5250
 2005SOL    MW4 8020   2.267   2.675   3.381  0.3363 -0.1329  0.0691
 2006SOL     OW 8021   2.351   0.110   3.715  0.0223  0.3719  0.3897
 2006SOL    HW2 8022   2.368   0.201   3.692 -0.9342  0.2510 -0.8324
 2006SOL    HW3 8023   2.287   0.080   3.651  0.5429 -1.2551  0.5962
 2006SOL    MW4 8024   2.345   0.118   3.704 -0.0352  0.1413  0.2557
 2007SOL     OW 8025   3.774   4.272   4.444 -0.1213  0.6856 -0.0802
 2007SOL    HW2 8026   3.860   4.306   4.470 -0.5136  1.0028  0.8537
 2007SOL    HW3 8027   3.711   4.330   4.489 -0.8079 -1.6152  2.0115
 2007SOL    MW4 8028   3.777   4.284   4.454 -0.2637  0.4239  0.3190
 2008SOL     OW 8029   2.489   3.446   4.052 -0.2287  0.4797 -0.3539
 2008SOL    HW2 8030   2.572   3.487   4.073  0.2691  0.4472 -2.1353
 2008SOL    HW3 8031   2.430   3.519   4.033 -0.2080  0.4699 -0.4605
 2008SOL    MW4 8032   2.492   3.461   4.052 -0.1603  0.4741 -0.6030
 2009SOL     OW 8033   0.264   3.497   3.413  0.9557 -0.4029  0.1681
 2009SOL    HW2 8034   0.250   3.568   3.475 -0.0879  0.1330 -0.6848
 2009SOL    HW3 8035   0.178   3.479   3.376  1.7008 -0.1776 -1.7221
 2009SOL    MW4 8036   0.251   3.504   3.416  0.9163 -0.3025 -0.1938
 2010SOL     OW 8037   0.105   4.065   3.942  0.2045  0.3918 -0.2100
 2010SOL    HW2 8038   0.023   4.022   3.965  0.9486 -0.4512  0.9058
 2010SOL    HW3 8039   0.129   4.027   3.858  1.8510 -2.8870  1.6626
 2010SOL    MW4 8040   0.097   4.054   3.934  0.5199 -0.1520  0.1843
 2011SOL     OW 8041   1.127   1.990   3.422  0.3704  0.0462 -0.2033
 2011SOL    HW2 8042   1.045   1.951   3.393 -0.0688 -0.2721  1.3951
 2011SOL    HW3 8043   1.124   1.983   3.518  0.9793  2.6134  0.0434
 2011SOL    MW4 8044   1.116   1.984   3.431  0.3928  0.3429  0.0401
 2012SOL     OW 8045   1.262   3.917   3.228  0.2614 -0.3540 -0.4873
 2012SOL    HW2 8046   1.356   3.928   3.242  0.0632  1.0646 -0.1933
 2012SOL    HW3 8047   1.251   3.921   3.133  0.5131 -0.6653 -0.5306
 2012SOL    MW4 8048   1.273   3.919   3.218  0.2684 -0.2079 -0.4542
 2013SOL     OW 8049   1.555   3.950   3.271 -0.4985 -0.0191  0.0483
 2013SOL    HW2 8050   1.637   3.997   3.286  0.2889 -1.2366 -0.3389
 2013SOL    HW3 8051   1.564   3.912   3.183 -0.9232 -1.2360  0.5106
 2013SOL    MW4 8052   1.567   3.951   3.261 -0.4506 -0.3403  0.0582
 2014SOL     OW 8053   1.546   3.858   3.005 -0.4670 -0.2313 -0.1930
 2014SOL    HW2 8054   1.551   3.764   2.990  0.2235 -0.7841  3.0886
 2014SOL    HW3 8055   1.629   3.892   2.972 -0.5729 -0.8103 -1.0739
 2014SOL    MW4 8056   1.558   3.850   2.999 -0.3898 -0.3806  0.1237
 2015SOL     OW 8057   0.777   4.212   3.255  0.0922  0.1296 -0.0865
 2015SOL    HW2 8058   0.762   4.119   3.264 -1.1055  0.2296 -0.9542
 2015SOL    HW3 8059   0.814   4.222   3.167 -1.3255  0.6364 -0.6439
 2015SOL    MW4 8060   0.780   4.201   3.244 -0.2529  0.2096 -0.2745
 2016SOL     OW 8061   1.267   4.216   3.275 -0.3343  0.2199 -0.2997
 2016SOL    HW2 8062   1.299   4.253   3.192  1.5132 -0.2264  0.1919
 2016SOL    HW3 8063   1.242   4.126   3.252 -3.1204  1.1176 -1.0924
 2016SOL    MW4 8064   1.268   4.209   3.261 -0.4581  0.2794 -0.3394
 2017SOL     OW 8065   4.282   2.675   4.464  0.2596 -0.2377  0.2713
 2017SOL    HW2 8066   4.259   2.626   4.384 -1.5177 -1.5924  1.5640
 2017SOL    HW3 8067   4.200   2.679   4.513  1.1829  1.1693  1.7311
 2017SOL    MW4 8068   4.268   2.669   4.460  0.1469 -0.2308  0.6345
 2018SOL     OW 8069   0.074   0.175   3.537  0.0997 -0.1057  0.0949
 2018SOL    HW2 8070   0.044   0.183   3.447  1.5419 -0.1773 -0.3976
 2018SOL    HW3 8071   0.105   0.263   3.559  0.2528 -0.2233  0.3461
 2018SOL    MW4 8072   0.074   0.188   3.528  0.3102 -0.1307  0.0630
 2019SOL     OW 8073   3.620   4.479   4.541  0.1128 -0.1172 -0.1661
 2019SOL    HW2 8074   3.545   4.480   4.600  0.4558  2.9036  0.2952
 2019SOL    HW3 8075   3.615   4.562   4.494  2.1167 -0.7094 -1.4927
 2019SOL    MW4 8076   3.610   4.490   4.543  0.4224  0.2032 -0.2803
 2020SOL     OW 8077   2.053   0.452   3.429  0.2859  0.3233  0.0202
 2020SOL    HW2 8078   2.053   0.541   3.395 -0.3597  0.5303  0.5679
 2020SOL    HW3 8079   2.114   0.405   3.372  0.6075  1.1054 -0.2849
 2020SOL    MW4 8080   2.061   0.457   3.417  0.2431  0.4538  0.0522
 2021SOL     OW 8081   3.334   2.420   4.282  0.2934 -0.1122 -0.0199
 2021SOL    HW2 8082   3.305   2.510   4.294  0.7517  0.0202  0.0779
 2021SOL    HW3 8083   3.282   2.369   4.344  1.7935  0.4015  1.6802
 2021SOL    MW4 8084   3.323   2.425   4.292  0.5518 -0.0270  0.2173
 2022SOL     OW 8085   2.369   3.050   4.283 -0.1329 -0.1103 -0.0348
 2022SOL    HW2 8086   2.283   3.017   4.255 -0.9932  0.7287  1.5634
 2022SOL    HW3 8087   2.384   3.007   4.367  0.6021  0.4764  0.1297
 2022SOL    MW4 8088   2.359   3.040   4.290 -0.1494  0.0778  0.1978
 2023SOL     OW 8089   2.882   1.987   4.246  0.0349 -0.5732 -0.6953
 2023SOL    HW2 8090   2.844   1.993   4.158 -0.7767 -3.2299 -0.5814
 2023SOL    HW3 8091   2.867   2.073   4.285 -1.3394  0.0172 -2.4563
 2023SOL    MW4 8092   2.875   1.999   4.239 -0.2535 -0.8458 -0.9126
 2024SOL     OW 8093   2.061   0.714   3.356  0.0633  0.1507  0.0856
 2024SOL    HW2 8094   2.063   0.731   3.262 -1.6687  1.1451  0.2146
 2024SOL    HW3 8095   2.139   0.757   3.390  0.3082  0.4131 -0.7886
 2024SOL    MW4 8096   2.071   0.722   3.348 -0.1329  0.3165 -0.0127
 2025SOL     OW 8097   1.802   0.372   3.320 -0.0827 -0.0307 -0.0438
 2025SOL    HW2 8098   1.887   0.402   3.352 -0.1939 -0.8584  1.0340
 2025SOL    HW3 8099   1.809   0.378   3.225  0.6929  1.2148  0.0789
 2025SOL    MW4 8100   1.814   0.377   3.312  0.0049  0.0244  0.1146
 2026SOL     OW 8101   1.623   0.972   3.758  0.3233 -0.0059  0.1905
 2026SOL    HW2 8102   1.613   0.990   3.852  0.3220 -1.4193  0.4683
 2026SOL    HW3 8103   1.535   0.944   3.730 -0.0626  1.9040 -0.5768
 2026SOL    MW4 8104   1.610   0.971   3.767  0.2722  0.0596  0.1259
 2027SOL     OW 8105   1.161   0.365   4.001 -0.3036  0.0144  0.1911
 2027SOL    HW2 8106   1.150   0.340   3.909  2.3513 -2.3282  0.4257
 2027SOL    HW3 8107   1.113   0.298   4.050  1.7355 -1.1711  0.6177
 2027SOL    MW4 8108   1.153   0.353   3.995  0.3157 -0.4511  0.2783
 2028SOL     OW 8109   1.911   1.601   3.878 -0.0950  0.2744 -0.2758
 2028SOL    HW2 8110   1.940   1.680   3.924  0.7060 -0.2489  0.1247
 2028SOL    HW3 8111   1.924   1.531   3.941  0.0833 -0.3164 -0.9689
 2028SOL    MW4 8112   1.917   1.602   3.893  0.0342  0.1274 -0.3144
 2029SOL     OW 8113   1.019   4.662   3.285 -0.0574 -0.5931  0.2583
 2029SOL    HW2 8114   1.056   4.661   3.197  0.0805  0.5288  0.2962
 2029SOL    HW3 8115   1.072   4.599   3.334  0.0597 -0.9975 -0.3824
 2029SOL    MW4 8116   1.031   4.654   3.280 -0.0237 -0.4984  0.1788
 2030SOL     OW 8117   1.801   4.446   4.367 -0.0325  0.4717  0.1933
 2030SOL    HW2 8118   1.876   4.440   4.307  1.3684 -1.1989  2.0095
 2030SOL    HW3 8119   1.760   4.360   4.361 -1.2242  1.0449 -0.0105
 2030SOL    MW4 8120   1.806   4.434   4.358 -0.0049  0.3269  0.4060
 2031SOL     OW 8121   0.995   2.205   3.697  0.4846 -0.2592  0.6551
 2031SOL    HW2 8122   1.042   2.123   3.680 -0.6242 -0.5914 -0.9975
 2031SOL    HW3 8123   0.942   2.218   3.618 -0.2984  1.4003  1.4412
 2031SOL    MW4 8124   0.994   2.196   3.684  0.2350 -0.0840  0.5408
 2032SOL     OW 8125   0.904   3.495   3.061 -0.7179  0.6987 -0.1681
 2032SOL    HW2 8126   0.899   3.474   3.155  1.5082  0.6546 -0.0109
 2032SOL    HW3 8127   0.898   3.410   3.018 -1.3713  0.6807 -0.0400
 2032SOL    MW4 8128   0.903   3.481   3.068 -0.5104  0.6905 -0.1304
 2033SOL     OW 8129   1.900   1.954   4.311 -0.3990 -0.1723 -0.2131
 2033SOL    HW2 8130   1.853   1.990   4.236  1.0240  1.7105 -0.2276
 2033SOL    HW3 8131   1.840   1.965   4.384 -0.9424 -0.0287 -0.6789
 2033SOL    MW4 8132   1.886   1.960   4.311 -0.2830  0.0950 -0.2764
 2034SOL     OW 8133   1.127   1.473   3.316  0.4241  0.0504 -0.6416
 2034SOL    HW2 8134   1.206   1.524   3.332  0.4454 -0.0806 -0.3276
 2034SOL    HW3 8135   1.116   1.474   3.221  0.9580 -0.1579 -0.7054
 2034SOL    MW4 8136   1.136   1.480   3.305  0.4973  0.0057 -0.6086
 2035SOL     OW 8137   1.780   0.136   4.168 -0.0228  0.0929 -0.4505
 2035SOL    HW2 8138   1.730   0.080   4.227 -1.3121  1.4815 -0.1977
 2035SOL    HW3 8139   1.866   0.143   4.208  0.1507 -1.7132 -0.4916
 2035SOL    MW4 8140   1.784   0.130   4.181 -0.1700  0.0378 -0.4226
 2036SOL     OW 8141   0.906   4.357   3.775 -0.2347  0.0872  0.4042
 2036SOL    HW2 8142   0.933   4.273   3.739 -1.4308 -0.3446  0.4879
 2036SOL    HW3 8143   0.874   4.407   3.699  0.6741  0.5560  0.3197
 2036SOL    MW4 8144   0.905   4.353   3.760 -0.2726  0.0920  0.4041
 2037SOL     OW 8145   1.739   3.552   3.385 -0.0055  0.3730  0.3271
 2037SOL    HW2 8146   1.733   3.534   3.292 -1.9531 -1.4192  0.7494
 2037SOL    HW3 8147   1.780   3.474   3.422  0.4666  0.9368  0.9909
 2037SOL    MW4 8148   1.743   3.539   3.378 -0.2002  0.2109  0.4704
 2038SOL     OW 8149   0.489   3.982   3.912  0.4960  0.1416 -0.2245
 2038SOL    HW2 8150   0.543   4.060   3.919  0.7001 -0.0705  0.5395
 2038SOL    HW3 8151   0.403   4.014   3.886  0.5899  0.6135  0.0548
 2038SOL    MW4 8152   0.485   3.996   3.909  0.5353  0.1759 -0.0868
 2039SOL     OW 8153   2.987   0.952   4.372  0.3557  0.2252  0.1430
 2039SOL    HW2 8154   2.949   0.869   4.401  1.3873 -0.7530 -1.2550
 2039SOL    HW3 8155   3.081   0.937   4.372  0.5997  1.6761  0.6858
 2039SOL    MW4 8156   2.994   0.939   4.376  0.5240  0.2876  0.0302
 2040SOL     OW 8157   1.456   4.352   3.410  0.1818  0.1245  0.7520
 2040SOL    HW2 8158   1.508   4.307   3.476 -0.2167  0.1703  1.1021
 2040SOL    HW3 8159   1.406   4.283   3.367 -0.1307  0.1846  1.0175
 2040SOL    MW4 8160   1.456   4.337   3.413  0.0880  0.1384  0.8332
 2041SOL     OW 8161   1.867   4.584   3.305 -0.0438 -0.2727 -0.4101
 2041SOL    HW2 8162   1.864   4.669   3.349  0.1051 -0.3325 -0.2858
 2041SOL    HW3 8163   1.776   4.567   3.279  0.0134  0.1738 -0.9089
 2041SOL    MW4 8164   1.855   4.593   3.307 -0.0166 -0.2217 -0.4595
 2042SOL     OW 8165   2.728   0.846   3.361  0.1248 -0.1574  0.3153
 2042SOL    HW2 8166   2.726   0.940   3.343 -0.9028 -0.0003  1.1909
 2042SOL    HW3 8167   2.728   0.839   3.456 -1.8557 -1.0614  0.2842
 2042SOL    MW4 8168   2.727   0.857   3.371 -0.2721 -0.2559  0.4267
 2043SOL     OW 8169   1.283   2.250   4.143 -0.0828  0.1125  0.5116
 2043SOL    HW2 8170   1.204   2.282   4.100  0.6897  1.2393 -0.0719
 2043SOL    HW3 8171   1.323   2.328   4.182  1.1347 -0.3327  0.1800
 2043SOL    MW4 8172   1.278   2.264   4.143  0.1798  0.2024  0.3909
 2044SOL     OW 8173   1.525   4.049   3.699  0.1880  0.3370 -0.1188
 2044SOL    HW2 8174   1.445   4.090   3.666  0.4603  0.1799 -0.9908
 2044SOL    HW3 8175   1.506   3.955   3.699  0.1902  0.3347  0.1875
 2044SOL    MW4 8176   1.512   4.042   3.695  0.2242  0.3160 -0.1934
 2045SOL     OW 8177   0.484   3.614   4.558 -0.1979 -0.8865  0.0080
 2045SOL    HW2 8178   0.572   3.590   4.532 -0.5371 -4.7690  2.0734
 2045SOL    HW3 8179   0.430   3.598   4.480  0.4609 -1.3965 -0.3419
 2045SOL    MW4 8180   0.488   3.609   4.544 -0.1558 -1.4661  0.2343
 2046SOL     OW 8181   0.928   4.161   4.477 -0.3542 -0.0927 -0.6958
 2046SOL    HW2 8182   1.004   4.215   4.459  1.0252 -1.6742  0.1835
 2046SOL    HW3 8183   0.896   4.133   4.391  0.1483  0.4606 -1.0578
 2046SOL    MW4 8184   0.934   4.164   4.463 -0.1059 -0.2283 -0.6276
 2047SOL     OW 8185   2.390   1.981   3.693  0.0139  0.1078  0.3325
 2047SOL    HW2 8186   2.367   2.035   3.768  0.9051  0.1026  0.6109
 2047SOL    HW3 8187   2.483   1.964   3.703  0.1964  0.3308 -0.9202
 2047SOL    MW4 8188   2.399   1.986   3.704  0.1556  0.1365  0.2039
 2048SOL     OW 8189   1.733   1.974   4.532  0.3490  0.1168  0.2418
 2048SOL    HW2 8190   1.737   2.067   4.552  0.8067  0.6129 -1.9819
 2048SOL    HW3 8191   1.648   1.962   4.490  0.7143 -0.2599 -0.4053
 2048SOL    MW4 8192   1.722   1.984   4.529  0.4576  0.1326 -0.1370
 2049SOL     OW 8193   3.749   1.851   4.490  0.4526 -0.4406  0.3820
 2049SOL    HW2 8194   3.682   1.804   4.539  0.4605 -0.0228  0.8032
 2049SOL    HW3 8195   3.700   1.898   4.422  0.4794 -1.2998 -0.2377
 2049SOL    MW4 8196   3.734   1.851   4.488  0.4572 -0.4988  0.3558
 2050SOL     OW 8197   2.910   2.054   3.421  0.3135 -0.2143  0.5332
 2050SOL    HW2 8198   2.902   2.023   3.511  0.5767 -1.8916 -0.0033
 2050SOL    HW3 8199   2.854   1.996   3.370 -0.3964  1.1670 -0.2982
 2050SOL    MW4 8200   2.902   2.042   3.426  0.2546 -0.2534  0.3527
 2051SOL     OW 8201   1.304   1.015   4.045  0.6630  0.3359 -0.5245
 2051SOL    HW2 8202   1.230   1.035   4.102 -0.5307 -2.6726 -0.8919
 2051SOL    HW3 8203   1.289   1.069   3.967  1.0849  2.7761  1.0445
 2051SOL    MW4 8204   1.292   1.025   4.042  0.5611  0.2609 -0.3660
 2052SOL     OW 8205   0.742   0.966   4.108  0.0446 -0.0019 -0.1842
 2052SOL    HW2 8206   0.734   0.943   4.201  0.6327 -1.1126 -0.3980
 2052SOL    HW3 8207   0.764   0.883   4.065  0.3771  0.6225 -1.2310
 2052SOL    MW4 8208   0.744   0.952   4.115  0.1661 -0.0660 -0.3505
 2053SOL     OW 8209   2.190   1.591   3.248 -0.2196 -0.0224  0.0979
 2053SOL    HW2 8210   2.284   1.576   3.238 -0.3725 -1.8243  1.1781
 2053SOL    HW3 8211   2.183   1.684   3.268  1.3132  0.1957 -0.2907
 2053SOL    MW4 8212   2.202   1.601   3.249 -0.0376 -0.2314  0.1891
 2054SOL     OW 8213   4.047   1.833   4.435 -0.3664  0.0964 -0.1089
 2054SOL    HW2 8214   3.961   1.857   4.471  0.1629 -0.3111  1.4919
 2054SOL    HW3 8215   4.040   1.739   4.418 -0.8379  0.4137 -1.7634
 2054SOL    MW4 8216   4.034   1.824   4.438 -0.3588  0.0845 -0.1160
 2055SOL     OW 8217   1.832   3.319   3.513 -0.3783  0.0583  0.2054
 2055SOL    HW2 8218   1.873   3.329   3.599  1.5252  2.8713 -0.9391
 2055SOL    HW3 8219   1.884   3.251   3.470 -0.5861 -0.5092  0.8412
 2055SOL    MW4 8220   1.844   3.311   3.519 -0.1546  0.3546  0.1383
 2056SOL     OW 8221   1.595   4.565   3.259 -0.8895  0.6505 -0.0164
 2056SOL    HW2 8222   1.555   4.486   3.296 -0.2126 -0.6273 -1.9604
 2056SOL    HW3 8223   1.543   4.636   3.295 -3.1296 -0.8260 -0.2177
 2056SOL    MW4 8224   1.583   4.564   3.268 -1.0958  0.2871 -0.2994
 2057SOL     OW 8225   2.490   2.207   3.335  0.2754  0.0741 -0.1646
 2057SOL    HW2 8226   2.482   2.119   3.373  0.1244  0.2377  0.1860
 2057SOL    HW3 8227   2.555   2.251   3.389 -0.2397  0.4422  0.1674
 2057SOL    MW4 8228   2.497   2.201   3.347  0.1875  0.1443 -0.0746
 2058SOL     OW 8229   3.385   1.226   3.452  0.0330 -0.5745  0.0115
 2058SOL    HW2 8230   3.343   1.248   3.535 -0.5998  1.7273 -0.8844
 2058SOL    HW3 8231   3.393   1.310   3.406  3.3721 -1.3030 -0.8850
 2058SOL    MW4 8232   3.381   1.240   3.457  0.3900 -0.3669 -0.2250
 2059SOL     OW 8233   2.949   3.045   4.496 -0.2811 -0.0146 -0.4938
 2059SOL    HW2 8234   2.987   3.112   4.439 -1.3614  1.5222  0.5722
 2059SOL    HW3 8235   2.936   3.089   4.579 -0.1173 -1.8335  0.5145
 2059SOL    MW4 8236   2.952   3.060   4.499 -0.4020 -0.0518 -0.2201
 2060SOL     OW 8237   2.199   3.461   3.349  0.0190 -0.2872 -0.0607
 2060SOL    HW2 8238   2.134   3.521   3.387 -0.2322 -1.0260  0.7031
 2060SOL    HW3 8239   2.182   3.463   3.255  0.3930  1.2862 -0.1083
 2060SOL    MW4 8240   2.188   3.469   3.342  0.0352 -0.1771  0.0338
 2061SOL     OW 8241   1.167   0.302   3.717  0.3604 -0.4369 -0.1204
 2061SOL    HW2 8242   1.211   0.218   3.703  0.8536 -0.5000  1.6199
 2061SOL    HW3 8243   1.230   0.368   3.691  0.9308 -0.5612  0.9241
 2061SOL    MW4 8244   1.181   0.300   3.712  0.5008 -0.4616  0.2470
 2062SOL     OW 8245   2.129   3.820   3.303 -0.0716  0.0132  0.1694
 2062SOL    HW2 8246   2.109   3.897   3.356  0.9547 -0.2628  0.9605
 2062SOL    HW3 8247   2.084   3.748   3.346  0.1720 -0.0899  0.2477
 2062SOL    MW4 8248   2.121   3.821   3.315  0.0959 -0.0368  0.2841
 2063SOL     OW 8249   3.273   4.489   4.454 -0.1673 -0.1322 -0.0050
 2063SOL    HW2 8250   3.323   4.436   4.392 -0.9978 -0.4931 -0.3785
 2063SOL    HW3 8251   3.310   4.577   4.445  0.9931 -0.5694  0.3726
 2063SOL    MW4 8252   3.284   4.493   4.445 -0.1238 -0.2375 -0.0044
 2064SOL     OW 8253   1.381   3.021   4.445 -0.4348 -0.3819 -0.0840
 2064SOL    HW2 8254   1.368   3.114   4.463  0.6056 -0.4822  1.2758
 2064SOL    HW3 8255   1.304   2.995   4.394 -1.2825  0.9439  0.5001
 2064SOL    MW4 8256   1.369   3.030   4.440 -0.4094 -0.2202  0.1725
 2065SOL     OW 8257   2.706   4.231   3.039 -0.1517 -0.3761 -0.6377
 2065SOL    HW2 8258   2.708   4.195   3.128  0.3793 -0.5284 -0.7119
 2065SOL    HW3 8259   2.623   4.279   3.035 -0.7446 -1.3859 -0.4592
 2065SOL    MW4 8260   2.695   4.233   3.050 -0.1599 -0.5294 -0.6240
 2066SOL     OW 8261   2.023   0.756   3.839  0.0497  0.0433 -0.5777
 2066SOL    HW2 8262   2.066   0.842   3.838 -0.4315  0.2805 -1.0549
 2066SOL    HW3 8263   1.987   0.748   3.927  1.4578 -0.3529 -0.0235
 2066SOL    MW4 8264   2.024   0.766   3.850  0.1720  0.0223 -0.5676
 2067SOL     OW 8265   2.252   4.610   3.509  0.0012  0.4321 -0.6385
 2067SOL    HW2 8266   2.176   4.565   3.473  0.2426 -1.2907  0.8990
 2067SOL    HW3 8267   2.293   4.653   3.434 -1.9280  0.5751 -1.6370
 2067SOL    MW4 8268   2.247   4.610   3.494 -0.2215  0.2236 -0.5674
 2068SOL     OW 8269   3.202   0.780   3.735 -0.5478  0.1178 -0.1702
 2068SOL    HW2 8270   3.114   0.806   3.760 -0.5904 -0.3317  0.1511
 2068SOL    HW3 8271   3.209   0.805   3.643  0.1717  3.2753  0.6746
 2068SOL    MW4 8272   3.191   0.787   3.726 -0.4585  0.4750 -0.0163
 2069SOL     OW 8273   0.237   1.649   4.381  0.0467  0.4717 -0.1117
 2069SOL    HW2 8274   0.150   1.688   4.384  0.6686  1.9441 -0.7366
 2069SOL    HW3 8275   0.270   1.656   4.471 -0.3545  0.1798  0.0601
 2069SOL    MW4 8276   0.230   1.655   4.393  0.0758  0.6275 -0.1715
 2070SOL     OW 8277   2.654   2.376   4.175 -0.1760  0.6363  0.0442
 2070SOL    HW2 8278   2.649   2.415   4.262  0.2886  0.8687 -0.0293
 2070SOL    HW3 8279   2.661   2.451   4.116  3.0738  0.4459  0.0526
 2070SOL    MW4 8280   2.655   2.391   4.178  0.3141  0.6419  0.0356
 2071SOL     OW 8281   2.960   0.704   3.319  0.0623 -0.1589 -0.1196
 2071SOL    HW2 8282   2.884   0.759   3.337  0.1823  0.0490 -0.2497
 2071SOL    HW3 8283   3.032   0.745   3.368  0.3816  0.3855 -1.0343
 2071SOL    MW4 8284   2.960   0.717   3.328  0.1203 -0.0597 -0.2574
 2072SOL     OW 8285   0.602   3.532   3.911  0.2517 -0.3261 -0.7082
 2072SOL    HW2 8286   0.543   3.537   3.986  1.8696 -1.1766  0.6524
 2072SOL    HW3 8287   0.544   3.519   3.836 -1.3017 -1.1716  0.6016
 2072SOL    MW4 8288   0.587   3.531   3.911  0.2602 -0.5499 -0.3559
 2073SOL     OW 8289   0.241   3.945   4.162  0.6433  0.5142 -0.0578
 2073SOL    HW2 8290   0.288   3.877   4.114  0.9711 -0.8499  2.1405
 2073SOL    HW3 8291   0.215   4.008   4.095  1.1627 -1.2930 -2.0030
 2073SOL    MW4 8292   0.244   3.945   4.147  0.7551  0.0958 -0.0244
 2074SOL     OW 8293   0.914   1.609   3.419 -0.2916 -0.1963 -0.1878
 2074SOL    HW2 8294   0.914   1.564   3.504  0.4175  0.1772  0.0152
 2074SOL    HW3 8295   0.983   1.565   3.370 -0.0394  0.2352 -0.2213
 2074SOL    MW4 8296   0.924   1.597   3.424 -0.1648 -0.0901 -0.1655
 2075SOL     OW 8297   4.039   1.591   4.074  0.2578 -0.1878  0.3553
 2075SOL    HW2 8298   3.961   1.593   4.019  0.2422  2.5051  0.4121
 2075SOL    HW3 8299   4.097   1.528   4.031 -0.7388  0.0423 -1.3633
 2075SOL    MW4 8300   4.036   1.583   4.061  0.1242  0.1978  0.1360
 2076SOL     OW 8301   2.309   1.098   3.272 -0.0774 -0.0035  0.0423
 2076SOL    HW2 8302   2.380   1.137   3.323  1.5067 -0.2684 -1.9200
 2076SOL    HW3 8303   2.310   1.006   3.296 -0.1936  0.1060  0.4846
 2076SOL    MW4 8304   2.319   1.091   3.282  0.1163 -0.0240 -0.1583
 2077SOL     OW 8305   2.458   1.507   3.235  0.5697 -0.3388 -0.1719
 2077SOL    HW2 8306   2.475   1.515   3.141  0.4572  0.9808 -0.0790
 2077SOL    HW3 8307   2.536   1.543   3.277 -0.1061  0.6529  0.2433
 2077SOL    MW4 8308   2.470   1.513   3.228  0.4657 -0.0338 -0.1049
 2078SOL     OW 8309   0.688   0.863   4.372  0.1280  0.1029 -0.1058
 2078SOL    HW2 8310   0.624   0.805   4.331 -1.0175  1.3550 -0.1320
 2078SOL    HW3 8311   0.637   0.937   4.404  1.1314 -0.3682  2.7386
 2078SOL    MW4 8312   0.673   0.865   4.371  0.1093  0.2060  0.2660
 2079SOL     OW 8313   1.370   1.175   3.350  0.6219 -0.7854  0.1891
 2079SOL    HW2 8314   1.302   1.221   3.399 -1.0673 -1.3943 -1.5213
 2079SOL    HW3 8315   1.451   1.194   3.398 -0.5310  1.1243  1.4674
 2079SOL    MW4 8316   1.372   1.184   3.362  0.2469 -0.6137  0.1321
 2080SOL     OW 8317   0.081   1.855   3.278 -0.2535  0.0828  0.3436
 2080SOL    HW2 8318   0.156   1.907   3.308 -0.0540 -0.3815  0.6508
 2080SOL    HW3 8319   0.076   1.872   3.184  1.0614 -0.9425  0.0834
 2080SOL    MW4 8320   0.090   1.864   3.269 -0.0537 -0.1137  0.3498
 2081SOL     OW 8321   3.199   2.197   3.900  0.5468 -0.1549 -0.1033
 2081SOL    HW2 8322   3.235   2.272   3.948  0.9008  0.1051 -0.7723
 2081SOL    HW3 8323   3.204   2.222   3.808 -0.3094 -0.5783 -0.2722
 2081SOL    MW4 8324   3.205   2.210   3.894  0.4806 -0.1765 -0.2139
 2082SOL     OW 8325   3.007   3.010   3.041 -0.5266 -0.1573 -0.1035
 2082SOL    HW2 8326   2.982   2.921   3.017  0.3067  0.1316 -2.1632
 2082SOL    HW3 8327   2.925   3.060   3.036 -0.6089 -0.3805 -1.1004
 2082SOL    MW4 8328   2.993   3.005   3.037 -0.4275 -0.1486 -0.5068
 2083SOL     OW 8329   1.697   4.236   3.551  0.0220 -0.2796  0.3714
 2083SOL    HW2 8330   1.759   4.297   3.591 -0.9602  0.4928  0.7241
 2083SOL    HW3 8331   1.663   4.185   3.624  0.0817 -0.5550  0.2065
 2083SOL    MW4 8332   1.701   4.237   3.566 -0.0997 -0.2140  0.3962
 2084SOL     OW 8333   4.025   2.726   4.585  0.1328 -0.1655  0.0281
 2084SOL    HW2 8334   4.021   2.807   4.636  0.2521  1.2290 -2.1390
 2084SOL    HW3 8335   3.937   2.689   4.591 -0.1118  0.4791  0.4627
 2084SOL    MW4 8336   4.013   2.732   4.593  0.1163  0.1035 -0.2005
 2085SOL     OW 8337   0.214   3.382   3.868 -0.4335 -0.0824 -0.1415
 2085SOL    HW2 8338   0.131   3.345   3.896  0.0934 -0.6224  0.7305
 2085SOL    HW3 8339   0.251   3.316   3.808  0.0049 -0.4906  0.5670
 2085SOL    MW4 8340   0.208   3.368   3.864 -0.3061 -0.2075  0.0670
 2086SOL     OW 8341   0.575   0.201   3.741 -0.0202 -0.0735 -0.0772
 2086SOL    HW2 8342   0.521   0.136   3.696  0.2563  0.0960 -0.6610
 2086SOL    HW3 8343   0.662   0.162   3.745 -0.5063 -0.9878  2.2090
 2086SOL    MW4 8344   0.580   0.187   3.736 -0.0478 -0.1718  0.1474
 2087SOL     OW 8345   3.845   4.653   3.286 -0.5722  0.3236  0.0141
 2087SOL    HW2 8346   3.892   4.727   3.323  0.0671  0.1010 -0.3367
 2087SOL    HW3 8347   3.865   4.656   3.192 -1.4450  0.3615 -0.1721
 2087SOL    MW4 8348   3.854   4.663   3.278 -0.6030  0.2992 -0.0567
 2088SOL     OW 8349   2.935   2.966   3.812 -0.1607 -0.2459 -0.4147
 2088SOL    HW2 8350   2.956   2.885   3.766 -0.8357 -0.4522 -0.3595
 2088SOL    HW3 8351   2.840   2.970   3.813 -0.1506  0.0386  0.4676
 2088SOL    MW4 8352   2.926   2.956   3.806 -0.2484 -0.2355 -0.2910
 2089SOL     OW 8353   0.429   4.653   4.336  0.1263  0.1404 -0.1403
 2089SOL    HW2 8354   0.380   4.735   4.338 -0.4940 -0.2177 -0.4181
 2089SOL    HW3 8355   0.368   4.588   4.373  0.4055 -0.3043 -0.4612
 2089SOL    MW4 8356   0.414   4.655   4.341  0.0813  0.0345 -0.2193
 2090SOL     OW 8357   3.063   4.605   3.675 -0.0817  0.2282 -0.5320
 2090SOL    HW2 8358   3.133   4.551   3.711  0.5545  0.5248 -1.2828
 2090SOL    HW3 8359   2.982   4.560   3.698  0.3682 -0.1922  0.2275
 2090SOL    MW4 8360   3.062   4.592   3.683  0.0616  0.2119 -0.5309
 2091SOL     OW 8361   4.175   4.366   4.089  0.0785  0.4838 -0.1330
 2091SOL    HW2 8362   4.187   4.279   4.126 -1.0502  0.4126  0.0718
 2091SOL    HW3 8363   4.137   4.352   4.003  0.9938  0.7285 -0.5816
 2091SOL    MW4 8364   4.171   4.353   4.083  0.0503  0.5067 -0.1652
 2092SOL     OW 8365   3.991   4.537   4.244 -0.0028  0.0972 -0.0504
 2092SOL    HW2 8366   4.049   4.528   4.169 -1.9970 -0.9785 -1.4991
 2092SOL    HW3 8367   3.920   4.593   4.213 -1.3245 -1.1136  0.7325
 2092SOL    MW4 8368   3.989   4.543   4.230 -0.4403 -0.2045 -0.1382
 2093SOL     OW 8369   3.366   0.403   3.718 -0.3119  0.1037 -0.5535
 2093SOL    HW2 8370   3.362   0.465   3.792 -0.5205  1.7787 -1.9383
 2093SOL    HW3 8371   3.287   0.350   3.727 -0.8625  0.9810 -0.1614
 2093SOL    MW4 8372   3.355   0.404   3.729 -0.4121  0.4404 -0.6845
 2094SOL     OW 8373   0.492   0.456   3.638 -0.7483 -0.2264  0.3685
 2094SOL    HW2 8374   0.520   0.365   3.641  0.7566  0.2474  1.3147
 2094SOL    HW3 8375   0.397   0.452   3.625 -0.4769 -1.8905 -1.3065
 2094SOL    MW4 8376   0.483   0.444   3.637 -0.5139 -0.3835  0.2724
 2095SOL     OW 8377   3.822   0.444   4.478  0.4156  0.0189  0.0839
 2095SOL    HW2 8378   3.841   0.354   4.506  1.6535  0.4357  0.5801
 2095SOL    HW3 8379   3.907   0.482   4.457  0.0748  1.6135  1.4963
 2095SOL    MW4 8380   3.835   0.437   4.479  0.5340  0.2843  0.3357
 2096SOL     OW 8381   3.162   1.095   3.317 -0.1132 -0.3431  0.0180
 2096SOL    HW2 8382   3.148   1.137   3.232 -0.3813 -1.1557 -0.3384
 2096SOL    HW3 8383   3.243   1.134   3.350  0.4685 -0.6660 -1.0046
 2096SOL    MW4 8384   3.171   1.106   3.310 -0.0718 -0.4929 -0.1639
 2097SOL     OW 8385   3.591   1.114   3.099 -0.2581 -0.1242 -0.2722
 2097SOL    HW2 8386   3.678   1.153   3.093  0.0862 -0.8187  0.1941
 2097SOL    HW3 8387   3.596   1.034   3.047 -0.7733  0.1015 -0.6802
 2097SOL    MW4 8388   3.603   1.109   3.092 -0.2806 -0.1861 -0.2645
 2098SOL     OW 8389   3.166   1.649   3.465 -0.1297 -0.0388 -0.0137
 2098SOL    HW2 8390   3.164   1.742   3.441 -0.9411 -0.0071  0.1521
 2098SOL    HW3 8391   3.179   1.650   3.560  0.7723 -0.1195 -0.1282
 2098SOL    MW4 8392   3.168   1.661   3.475 -0.1177 -0.0452 -0.0070
 2099SOL     OW 8393   0.354   0.939   3.687 -0.5161 -0.0603  0.3581
 2099SOL    HW2 8394   0.407   1.015   3.712 -3.0853  1.2639  1.9393
 2099SOL    HW3 8395   0.395   0.866   3.733  2.2620  0.1826 -1.5384
 2099SOL    MW4 8396   0.367   0.939   3.696 -0.4886  0.1464  0.3165
 2100SOL     OW 8397   2.106   0.412   3.694  0.1280  0.4290  0.2501
 2100SOL    HW2 8398   2.197   0.437   3.711  0.8398 -1.5486 -0.4685
 2100SOL    HW3 8399   2.089   0.444   3.605 -0.2176  1.6820  0.7598
 2100SOL    MW4 8400   2.116   0.419   3.684  0.1763  0.3334  0.2226
 2101SOL     OW 8401   0.173   1.705   4.051  0.1022  0.6260  0.0383
 2101SOL    HW2 8402   0.097   1.647   4.060 -0.2513  0.8778 -1.2338
 2101SOL    HW3 8403   0.245   1.656   4.091 -0.5103 -0.0489  0.3334
 2101SOL    MW4 8404   0.172   1.691   4.058 -0.0253  0.5702 -0.0906
 2102SOL     OW 8405   0.631   0.832   3.277 -0.6011  0.1112 -0.1625
 2102SOL    HW2 8406   0.563   0.866   3.335  0.4657  1.0143  0.5707
 2102SOL    HW3 8407   0.655   0.748   3.315  0.3686  0.8785  0.9237
 2102SOL    MW4 8408   0.625   0.825   3.290 -0.3324  0.3316  0.0775
 2103SOL     OW 8409   3.804   1.281   4.121 -0.1182 -0.1631 -0.0790
 2103SOL    HW2 8410   3.819   1.330   4.040 -1.8310  0.3437 -0.1125
 2103SOL    HW3 8411   3.789   1.348   4.187 -1.9592 -0.5858 -0.0201
 2103SOL    MW4 8412   3.804   1.296   4.119 -0.5871 -0.1520 -0.0756
 2104SOL     OW 8413   3.128   2.657   3.327 -0.1163 -0.7941  0.7167
 2104SOL    HW2 8414   3.130   2.571   3.367 -0.0059  0.4782  3.5420
 2104SOL    HW3 8415   3.062   2.706   3.376 -0.1433  0.7486 -0.7917
 2104SOL    MW4 8416   3.120   2.652   3.338 -0.1053 -0.4227  0.8904
 2105SOL     OW 8417   2.944   3.385   3.602  0.1212 -0.0440  0.2186
 2105SOL    HW2 8418   2.861   3.357   3.642  0.2248 -0.8175 -0.1047
 2105SOL    HW3 8419   2.919   3.451   3.538 -0.0129  1.5377  1.8634
 2105SOL    MW4 8420   2.929   3.390   3.599  0.1172  0.0626  0.3930
 2106SOL     OW 8421   2.941   2.793   3.473 -0.1827  0.1042  0.3214
 2106SOL    HW2 8422   2.858   2.763   3.436 -0.5822  0.7125  0.7143
 2106SOL    HW3 8423   2.955   2.879   3.433 -0.4045  0.5771  1.2593
 2106SOL    MW4 8424   2.932   2.801   3.463 -0.2647  0.2469  0.4970
 2107SOL     OW 8425   2.331   4.560   3.923  0.5049 -0.3502 -0.3243
 2107SOL    HW2 8426   2.236   4.564   3.908  0.4936  0.0710 -0.1317
 2107SOL    HW3 8427   2.368   4.612   3.852  0.5838 -0.3875 -0.3100
 2107SOL    MW4 8428   2.323   4.567   3.911  0.5138 -0.2996 -0.2970
 2108SOL     OW 8429   2.293   0.583   4.092  0.0418 -0.5051  0.4313
 2108SOL    HW2 8430   2.273   0.667   4.133  1.5543 -0.2769  0.7511
 2108SOL    HW3 8431   2.211   0.533   4.098 -0.7907  0.8435  0.4651
 2108SOL    MW4 8432   2.280   0.587   4.098  0.1315 -0.2970  0.4779
 2109SOL     OW 8433   0.880   2.557   4.205 -0.4329  0.3724 -0.0755
 2109SOL    HW2 8434   0.854   2.479   4.255  1.0748 -1.1049 -1.5285
 2109SOL    HW3 8435   0.933   2.608   4.267  0.2796 -0.7711  0.2854
 2109SOL    MW4 8436   0.884   2.553   4.220 -0.1400  0.0266 -0.2196
 2110SOL     OW 8437   3.371   0.183   4.145  0.3751 -0.0845  0.4300
 2110SOL    HW2 8438   3.369   0.160   4.238  0.4479 -0.5051  0.3317
 2110SOL    HW3 8439   3.280   0.178   4.117  0.5080 -1.2489  0.1787
 2110SOL    MW4 8440   3.359   0.179   4.154  0.4022 -0.2936  0.3839
 2111SOL     OW 8441   4.131   3.973   3.700 -0.3732  0.3416  0.0550
 2111SOL    HW2 8442   4.053   4.000   3.748 -0.2604  2.0291 -0.6418
 2111SOL    HW3 8443   4.113   4.000   3.609  0.5660 -0.2318 -0.3096
 2111SOL    MW4 8444   4.118   3.980   3.694 -0.2344  0.4886 -0.0850
 2112SOL     OW 8445   2.873   4.564   3.288 -0.0047 -0.4614  0.5557
 2112SOL    HW2 8446   2.887   4.552   3.194  1.9340 -1.8892  0.9863
 2112SOL    HW3 8447   2.955   4.602   3.320 -0.2475 -0.9670  1.8371
 2112SOL    MW4 8448   2.886   4.567   3.280  0.2191 -0.7165  0.7816
 2113SOL     OW 8449   1.778   1.846   3.322 -0.2594 -0.2974  0.2062
 2113SOL    HW2 8450   1.696   1.883   3.355 -0.9716 -0.2947 -1.5176
 2113SOL    HW3 8451   1.775   1.862   3.227  1.4556 -0.8393  0.0464
 2113SOL    MW4 8452   1.766   1.853   3.314 -0.1271 -0.3686 -0.0423
 2114SOL     OW 8453   0.038   0.080   4.210 -0.1450  0.6681  0.3086
 2114SOL    HW2 8454  -0.009   0.109   4.288 -0.8359  1.0627 -0.2349
 2114SOL    HW3 8455  -0.001   0.132   4.139 -2.2315 -2.3872 -0.8930
 2114SOL    MW4 8456   0.026   0.091   4.211 -0.5115  0.3171  0.0784
 2115SOL     OW 8457   2.362   1.913   4.142 -0.1227 -0.1642 -0.0743
 2115SOL    HW2 8458   2.362   1.964   4.223 -0.8538 -1.6339  0.8752
 2115SOL    HW3 8459   2.326   1.972   4.076 -0.1434  0.8221  0.8134
 2115SOL    MW4 8460   2.357   1.928   4.144 -0.2219 -0.2280  0.1681
 2116SOL     OW 8461   0.277   0.205   4.295  0.2279 -0.0947 -0.3995
 2116SOL    HW2 8462   0.194   0.173   4.260 -0.9879  0.1705  2.1602
 2116SOL    HW3 8463   0.254   0.283   4.344  2.0241  0.0707  0.1999
 2116SOL    MW4 8464   0.263   0.211   4.297  0.3045 -0.0379  0.0173
 2117SOL     OW 8465   2.735   3.918   3.378  0.0519  0.1919 -0.5672
 2117SOL    HW2 8466   2.796   3.879   3.315  1.7101  0.2400  0.9607
 2117SOL    HW3 8467   2.729   3.854   3.449 -1.2392  0.4466 -0.4395
 2117SOL    MW4 8468   2.742   3.904   3.379  0.1003  0.2318 -0.3488
 2118SOL     OW 8469   4.294   0.799   3.276 -0.2890 -0.2870  0.3839
 2118SOL    HW2 8470   4.216   0.832   3.321 -0.6105  0.3702 -0.6379
 2118SOL    HW3 8471   4.274   0.809   3.183  1.4668  0.9542  0.1222
 2118SOL    MW4 8472   4.281   0.805   3.270 -0.0997 -0.0365  0.2146
 2119SOL     OW 8473   1.661   2.253   4.045  0.4226  0.1237 -0.1339
 2119SOL    HW2 8474   1.593   2.185   4.044  1.1519 -0.6353  0.7984
 2119SOL    HW3 8475   1.742   2.205   4.064  1.1471  1.0853 -0.7709
 2119SOL    MW4 8476   1.663   2.238   4.047  0.6144  0.1504 -0.0949
 2120SOL     OW 8477   3.605   1.060   3.397  0.2267  0.0922 -0.1513
 2120SOL    HW2 8478   3.528   1.111   3.423 -0.0749  0.0607 -0.9545
 2120SOL    HW3 8479   3.599   1.055   3.302  1.3871  0.3257 -0.2424
 2120SOL    MW4 8480   3.594   1.066   3.388  0.3400  0.1188 -0.2693
 2121SOL     OW 8481   3.862   0.718   3.333 -0.0907  0.4367  0.1617
 2121SOL    HW2 8482   3.878   0.624   3.344  1.5989  0.3068 -2.9107
 2121SOL    HW3 8483   3.789   0.736   3.391  1.1590 -2.2576  2.7485
 2121SOL    MW4 8484   3.855   0.708   3.342  0.2971  0.0641  0.0977
 2122SOL     OW 8485   0.498   1.878   3.324  0.2520 -0.3920 -0.0506
 2122SOL    HW2 8486   0.496   1.885   3.229 -0.0573 -0.6287 -0.0632
 2122SOL    HW3 8487   0.510   1.784   3.341  3.1379 -0.0235  0.1193
 2122SOL    MW4 8488   0.499   1.866   3.314  0.5919 -0.3746 -0.0299
 2123SOL     OW 8489   0.349   2.940   3.855 -0.3369  0.2198 -0.4321
 2123SOL    HW2 8490   0.347   3.015   3.795  1.8770  0.6316 -0.0438
 2123SOL    HW3 8491   0.289   2.965   3.926 -0.4613  1.1524 -0.8590
 2123SOL    MW4 8492   0.340   2.954   3.857 -0.0612  0.3971 -0.4372
 2124SOL     OW 8493   3.591   1.913   3.032 -0.2262 -0.0186 -0.2303
 2124SOL    HW2 8494   3.666   1.971   3.019 -0.2656  0.2170  0.5526
 2124SOL    HW3 8495   3.571   1.921   3.126 -2.1377  1.0486 -0.7047
 2124SOL    MW4 8496   3.598   1.922   3.043 -0.4836  0.1533 -0.1896
 2125SOL     OW 8497   2.292   0.825   4.206  0.0221  0.1772  0.2570
 2125SOL    HW2 8498   2.272   0.789   4.292 -0.6636  1.3205  0.5854
 2125SOL    HW3 8499   2.386   0.845   4.209 -0.2248  1.2531  1.1444
 2125SOL    MW4 8500   2.302   0.823   4.218 -0.1010  0.4700  0.4174
 2126SOL     OW 8501   1.312   1.542   4.371  0.4974 -0.0120  0.0065
 2126SOL    HW2 8502   1.391   1.561   4.421  0.3518  0.6902 -0.0273
 2126SOL    HW3 8503   1.334   1.464   4.320  1.1018  0.0802  0.1257
 2126SOL    MW4 8504   1.325   1.534   4.371  0.5579  0.0928  0.0178
 2127SOL     OW 8505   0.674   2.286   3.295 -0.2332 -0.1852 -0.1251
 2127SOL    HW2 8506   0.681   2.308   3.203  1.2928  1.1705  0.2923
 2127SOL    HW3 8507   0.594   2.329   3.325  0.8021  1.8034 -0.1628
 2127SOL    MW4 8508   0.664   2.295   3.287  0.1047  0.2561 -0.0750
 2128SOL     OW 8509   0.466   3.180   4.158 -0.5311 -0.0619  0.1743
 2128SOL    HW2 8510   0.438   3.270   4.138  1.3683  0.7599  1.0903
 2128SOL    HW3 8511   0.469   3.177   4.253  0.1758 -0.8623  0.1293
 2128SOL    MW4 8512   0.462   3.192   4.168 -0.1872 -0.0590  0.2892
 2129SOL     OW 8513   2.169   0.976   3.889  0.9082  0.4251 -0.0858
 2129SOL    HW2 8514   2.124   1.036   3.830  0.4560  0.5637  0.4017
 2129SOL    HW3 8515   2.138   1.000   3.976  0.8276 -0.4376  0.1206
 2129SOL    MW4 8516   2.159   0.987   3.892  0.8379  0.3295  0.0058
 2130SOL     OW 8517   0.012   4.311   3.266 -0.2889 -0.1124 -0.3173
 2130SOL    HW2 8518   0.080   4.376   3.284 -0.9816  0.4990  0.1175
 2130SOL    HW3 8519   0.041   4.232   3.311  1.4769 -0.6663 -2.3646
 2130SOL    MW4 8520   0.025   4.309   3.274 -0.1473 -0.1048 -0.5301
 2131SOL     OW 8521   3.507   3.318   3.748 -0.0211  0.3014  0.4436
 2131SOL    HW2 8522   3.528   3.245   3.690  2.0553 -0.1234  1.6765
 2131SOL    HW3 8523   3.445   3.280   3.811 -0.5457  0.1572 -0.1588
 2131SOL    MW4 8524   3.501   3.303   3.749  0.1836  0.2263  0.5268
 2132SOL     OW 8525   1.118   2.631   3.422  0.4059  0.0010  0.4773
 2132SOL    HW2 8526   1.208   2.607   3.401  0.8149  2.5584 -0.9521
 2132SOL    HW3 8527   1.122   2.663   3.512  1.0508  0.6571  0.2200
 2132SOL    MW4 8528   1.131   2.632   3.431  0.5449  0.4250  0.2548
 2133SOL     OW 8529   2.692   2.757   4.473  0.3171 -0.1653 -0.1009
 2133SOL    HW2 8530   2.617   2.800   4.515 -0.1332 -0.9785 -0.0772
 2133SOL    HW3 8531   2.708   2.810   4.395 -0.4532 -0.1431 -0.2475
 2133SOL    MW4 8532   2.684   2.770   4.468  0.1561 -0.2697 -0.1172
 2134SOL     OW 8533   4.291   3.937   3.303  0.2988  0.3648  0.1970
 2134SOL    HW2 8534   4.297   3.849   3.338  1.0791  0.4639  0.3206
 2134SOL    HW3 8535   4.270   3.925   3.210  0.4059  0.0559  0.2133
 2134SOL    MW4 8536   4.289   3.924   3.296  0.4159  0.3371  0.2154
 2135SOL     OW 8537   3.609   4.222   3.312 -0.2732 -0.4408  0.6655
 2135SOL    HW2 8538   3.604   4.242   3.219  0.9271 -1.0892  0.4516
 2135SOL    HW3 8539   3.673   4.285   3.347  1.1480 -1.7854  0.5693
 2135SOL    MW4 8540   3.617   4.233   3.305  0.0727 -0.7037  0.6246
 2136SOL     OW 8541   3.990   1.672   3.420  0.3954 -0.0514 -0.3628
 2136SOL    HW2 8542   4.022   1.757   3.391  0.2794  0.3660  0.7134
 2136SOL    HW3 8543   3.977   1.682   3.514 -2.1089 -0.4628 -0.6394
 2136SOL    MW4 8544   3.993   1.684   3.428  0.0497 -0.0506 -0.2573
 2137SOL     OW 8545   0.287   4.538   3.779 -0.7144  0.6361 -0.1500
 2137SOL    HW2 8546   0.333   4.455   3.788  0.8757  1.5697  0.5928
 2137SOL    HW3 8547   0.235   4.547   3.859  0.6134  1.2516  0.6476
 2137SOL    MW4 8548   0.286   4.528   3.791 -0.3294  0.8405  0.0532
 2138SOL     OW 8549   0.854   2.751   3.981  0.1176  0.1427  0.5717
 2138SOL    HW2 8550   0.768   2.771   3.944  0.2532 -0.8952 -0.3197
 2138SOL    HW3 8551   0.835   2.696   4.057 -0.0202 -0.0186  0.4226
 2138SOL    MW4 8552   0.840   2.746   3.986  0.1173 -0.0155  0.4344
 2139SOL     OW 8553   0.099   4.581   3.978 -0.1289  0.0333 -0.0415
 2139SOL    HW2 8554   0.121   4.631   4.056 -1.3493 -1.9251  1.6367
 2139SOL    HW3 8555   0.027   4.630   3.938 -0.4114  0.3380  0.8241
 2139SOL    MW4 8556   0.092   4.594   3.983 -0.3272 -0.1849  0.2941
 2140SOL     OW 8557   2.377   2.627   4.373 -0.0582 -0.4647 -0.0874
 2140SOL    HW2 8558   2.316   2.565   4.415 -0.4815 -1.6594 -2.3666
 2140SOL    HW3 8559   2.462   2.583   4.377 -0.2219 -0.8820 -1.0405
 2140SOL    MW4 8560   2.380   2.613   4.379 -0.1356 -0.6774 -0.5139
 2141SOL     OW 8561   0.904   0.150   4.436 -0.0459 -0.3748  0.3654
 2141SOL    HW2 8562   0.837   0.102   4.388  0.1788 -0.3599  0.0331
 2141SOL    HW3 8563   0.953   0.197   4.368 -0.9194  1.1690  0.7717
 2141SOL    MW4 8564   0.902   0.150   4.420 -0.1315 -0.1692  0.3751
 2142SOL     OW 8565   0.655   0.661   3.605  0.2937 -0.2140  0.2836
 2142SOL    HW2 8566   0.709   0.636   3.530  0.8149 -0.5736  0.7684
 2142SOL    HW3 8567   0.581   0.601   3.603  1.2681 -1.4723  1.1341
 2142SOL    MW4 8568   0.652   0.650   3.595  0.4910 -0.4275  0.4598
 2143SOL     OW 8569   2.629   4.112   3.696 -0.1538  0.3032 -0.4668
 2143SOL    HW2 8570   2.660   4.035   3.743 -0.0610  0.8532  0.3680
 2143SOL    HW3 8571   2.706   4.144   3.648 -0.4241 -0.6806 -1.5992
 2143SOL    MW4 8572   2.643   4.106   3.696 -0.1772  0.2459 -0.5061
 2144SOL     OW 8573   1.050   3.893   4.439  0.0106  0.1914 -0.0404
 2144SOL    HW2 8574   1.141   3.900   4.408 -0.4884  1.5743 -1.2123
 2144SOL    HW3 8575   1.038   3.968   4.497 -0.5876  0.4065 -0.4339
 2144SOL    MW4 8576   1.061   3.904   4.443 -0.1342  0.4022 -0.2469
 2145SOL     OW 8577   2.253   4.000   3.737 -0.0159  0.1755  0.1024
 2145SOL    HW2 8578   2.241   3.906   3.752  2.1361 -0.2169 -0.3619
 2145SOL    HW3 8579   2.295   4.031   3.817  1.6968  0.1931 -0.7770
 2145SOL    MW4 8580   2.257   3.992   3.750  0.4940  0.1261 -0.0749
 2146SOL     OW 8581   0.231   1.531   3.293  0.1338  0.1956 -1.0670
 2146SOL    HW2 8582   0.231   1.526   3.197 -1.3562 -1.3677 -1.0068
 2146SOL    HW3 8583   0.144   1.562   3.316  0.4937  0.5881 -0.2007
 2146SOL    MW4 8584   0.220   1.534   3.283 -0.0153  0.0411 -0.9447
 2147SOL     OW 8585   1.956   1.313   4.615 -0.4802  0.0421 -0.5381
 2147SOL    HW2 8586   1.969   1.250   4.544  2.0870  1.4050 -1.3419
 2147SOL    HW3 8587   2.033   1.302   4.671 -0.5103  1.7674 -0.1521
 2147SOL    MW4 8588   1.968   1.303   4.613 -0.1455  0.4495 -0.5933
 2148SOL     OW 8589   4.232   1.556   3.328  0.2669  0.1855 -0.6757
 2148SOL    HW2 8590   4.227   1.550   3.232 -0.3218 -1.0599 -0.5723
 2148SOL    HW3 8591   4.147   1.592   3.354  0.1229 -0.2498 -0.5532
 2148SOL    MW4 8592   4.220   1.560   3.319  0.1702 -0.0362 -0.6459
 2149SOL     OW 8593   0.196   3.089   4.063 -0.1219  0.4584  0.0162
 2149SOL    HW2 8594   0.160   3.055   4.145  0.0035  0.9360  0.2734
 2149SOL    HW3 8595   0.281   3.124   4.088  1.4904 -2.6034 -0.9852
 2149SOL    MW4 8596   0.202   3.089   4.077  0.1074  0.1175 -0.0820
 2150SOL     OW 8597   4.292   2.301   3.299 -0.1303  0.4500  0.4090
 2150SOL    HW2 8598   4.281   2.310   3.205  0.2029  0.8852  0.4104
 2150SOL    HW3 8599   4.207   2.327   3.336 -0.1849  0.5067  0.2408
 2150SOL    MW4 8600   4.279   2.305   3.292 -0.0936  0.5149  0.3870
 2151SOL     OW 8601   3.863   0.457   3.403 -0.6368  0.2362  0.3041
 2151SOL    HW2 8602   3.878   0.441   3.496  1.7642 -1.6361 -0.3649
 2151SOL    HW3 8603   3.769   0.445   3.391 -1.1607  1.7073  2.7001
 2151SOL    MW4 8604   3.853   0.454   3.413 -0.3892  0.1833  0.5320
 2152SOL     OW 8605   1.917   3.763   3.697  0.5319  0.1439 -0.5904
 2152SOL    HW2 8606   1.850   3.696   3.708 -0.4943  1.0687 -1.0056
 2152SOL    HW3 8607   1.874   3.844   3.727  2.4878  0.2581  2.0751
 2152SOL    MW4 8608   1.902   3.765   3.703  0.6545  0.2810 -0.2935
 2153SOL     OW 8609   1.351   1.607   3.359  0.0180 -0.4504 -0.0230
 2153SOL    HW2 8610   1.321   1.597   3.450  1.5632  0.0440  0.5491
 2153SOL    HW3 8611   1.420   1.542   3.350 -0.4406 -0.8134 -1.0020
 2153SOL    MW4 8612   1.356   1.597   3.370  0.1614 -0.4331 -0.0767
 2154SOL     OW 8613   4.316   3.090   3.025 -0.3379 -0.3186 -0.2113
 2154SOL    HW2 8614   4.294   2.999   3.008 -0.3564 -0.1419 -1.1666
 2154SOL    HW3 8615   4.256   3.141   2.970 -0.2252  0.2658  0.1947
 2154SOL    MW4 8616   4.305   3.085   3.015 -0.3254 -0.2182 -0.2837
 2155SOL     OW 8617   0.994   4.160   3.595 -0.5520  0.4911  0.0202
 2155SOL    HW2 8618   0.943   4.093   3.550 -0.8963  0.6791  0.1274
 2155SOL    HW3 8619   0.992   4.235   3.536  0.1458  0.2887 -0.2689
 2155SOL    MW4 8620   0.987   4.161   3.581 -0.5054  0.4892 -0.0038
 2156SOL     OW 8621   4.321   3.687   3.401 -0.1952  0.5406  0.2411
 2156SOL    HW2 8622   4.373   3.608   3.386  0.2135  0.8864 -0.1584
 2156SOL    HW3 8623   4.313   3.692   3.496  0.4304  0.4411  0.2991
 2156SOL    MW4 8624   4.327   3.677   3.412 -0.0588  0.5731  0.1961
 2157SOL     OW 8625   0.141   1.284   4.030  0.1190 -0.3565 -0.2036
 2157SOL    HW2 8626   0.175   1.305   3.943  0.7210  0.8981  0.3244
 2157SOL    HW3 8627   0.214   1.303   4.089 -1.4786  2.4874  0.9642
 2157SOL    MW4 8628   0.155   1.290   4.026 -0.0124  0.1842  0.0201
 2158SOL     OW 8629   2.290   3.561   4.395  0.3681  0.3913  0.2314
 2158SOL    HW2 8630   2.321   3.483   4.351  1.9754 -0.0387  2.0318
 2158SOL    HW3 8631   2.214   3.532   4.445 -0.1340  0.3990 -0.5190
 2158SOL    MW4 8632   2.284   3.547   4.396  0.5139  0.3356  0.3699
 2159SOL     OW 8633   3.902   3.855   3.352  0.1620 -0.0747  0.7400
 2159SOL    HW2 8634   3.809   3.880   3.351  0.1616 -0.0440  1.1864
 2159SOL    HW3 8635   3.900   3.759   3.354  0.1361 -0.0691  0.9897
 2159SOL    MW4 8636   3.889   3.845   3.352  0.1585 -0.0699  0.8318
 2160SOL     OW 8637   0.912   0.119   3.995 -0.4413  0.0136 -0.2131
 2160SOL    HW2 8638   0.847   0.185   4.018 -0.8250 -0.2647 -0.4870
 2160SOL    HW3 8639   0.872   0.036   4.022 -0.4462 -0.2149 -0.9178
 2160SOL    MW4 8640   0.898   0.117   4.002 -0.4926 -0.0533 -0.3422
 2161SOL     OW 8641   3.419   2.046   4.147 -0.1371  0.6855 -1.0097
 2161SOL    HW2 8642   3.432   2.034   4.053  0.2595 -1.8721 -0.6620
 2161SOL    HW3 8643   3.325   2.029   4.160 -0.0871  0.5160 -0.8703
 2161SOL    MW4 8644   3.408   2.042   4.136 -0.0782  0.3257 -0.9455
 2162SOL     OW 8645   4.000   1.114   3.875 -0.1084 -0.3632  0.0593
 2162SOL    HW2 8646   4.086   1.075   3.889 -0.3793 -0.9048  0.2506
 2162SOL    HW3 8647   3.941   1.039   3.870 -0.3550 -0.0846 -1.6201
 2162SOL    MW4 8648   4.003   1.099   3.876 -0.1767 -0.3979 -0.1371
 2163SOL     OW 8649   2.725   1.875   3.295  0.1497 -0.1145  0.1336
 2163SOL    HW2 8650   2.723   1.875   3.199 -1.1488  1.3318  0.1395
 2163SOL    HW3 8651   2.641   1.911   3.321  0.7427  0.1085  1.8215
 2163SOL    MW4 8652   2.714   1.880   3.286  0.0566  0.1057  0.3571
 2164SOL     OW 8653   0.481   1.897   3.051  0.0643 -0.5205  0.1325
 2164SOL    HW2 8654   0.476   1.808   3.016 -2.0194 -1.5331  2.8336
 2164SOL    HW3 8655   0.401   1.939   3.019 -0.1799 -0.4094  0.8773
 2164SOL    MW4 8656   0.470   1.891   3.042 -0.2429 -0.6394  0.5872
 2165SOL     OW 8657   1.073   3.352   4.391 -0.2307 -0.3890  0.4954
 2165SOL    HW2 8658   1.126   3.363   4.312 -0.8512 -1.9335 -0.1381
 2165SOL    HW3 8659   1.059   3.442   4.422  0.1944  0.2258 -1.0222
 2165SOL    MW4 8660   1.078   3.365   4.385 -0.2565 -0.5116  0.2116
 2166SOL     OW 8661   1.908   3.565   4.190  0.3001  0.2976 -0.2400
 2166SOL    HW2 8662   1.866   3.540   4.272 -0.5039  1.0701 -0.4091
 2166SOL    HW3 8663   1.837   3.601   4.136  1.1733  1.7136 -0.4899
 2166SOL    MW4 8664   1.893   3.567   4.194  0.3092  0.5864 -0.2953
 2167SOL     OW 8665   4.447   4.248   4.584 -0.2577  0.1939  0.4732
 2167SOL    HW2 8666   4.452   4.343   4.579 -1.8005  0.2167 -1.1960
 2167SOL    HW3 8667   4.518   4.216   4.529  1.3309  0.3383  2.3725
 2167SOL    MW4 8668   4.457   4.256   4.576 -0.2516  0.2159  0.5036
 2168SOL     OW 8669   2.691   1.837   4.402 -0.1109 -0.4792 -0.4987
 2168SOL    HW2 8670   2.674   1.792   4.319  0.4895  0.4230 -1.1166
 2168SOL    HW3 8671   2.774   1.883   4.388 -2.0155  2.9737 -0.7989
 2168SOL    MW4 8672   2.700   1.837   4.390 -0.2830  0.0954 -0.6198
 2169SOL     OW 8673   3.662   1.045   4.084  0.0971 -0.2786 -0.4256
 2169SOL    HW2 8674   3.704   1.131   4.081  0.2972 -0.3737 -0.2873
 2169SOL    HW3 8675   3.716   0.989   4.029  0.5143 -0.5634  0.2710
 2169SOL    MW4 8676   3.675   1.049   4.076  0.1786 -0.3287 -0.3154
 2170SOL     OW 8677   0.032   4.068   3.407 -0.0024 -0.2717 -0.3168
 2170SOL    HW2 8678  -0.033   4.010   3.367 -0.5517  1.3453 -1.8204
 2170SOL    HW3 8679  -0.003   4.086   3.494 -0.4993 -1.1132 -0.3366
 2170SOL    MW4 8680   0.019   4.062   3.413 -0.1404 -0.1694 -0.5178
 2171SOL     OW 8681   4.341   1.298   3.714  0.1434  0.4946  0.2085
 2171SOL    HW2 8682   4.294   1.287   3.632 -0.5611  0.4006  0.6143
 2171SOL    HW3 8683   4.411   1.360   3.695  0.4970 -0.1660 -0.6618
 2171SOL    MW4 8684   4.344   1.304   3.701  0.0971  0.3951  0.1472
 2172SOL     OW 8685   0.177   0.599   4.210  0.5015  0.5099  0.3019
 2172SOL    HW2 8686   0.239   0.578   4.141  0.6949  0.2649  0.5461
 2172SOL    HW3 8687   0.210   0.681   4.248  0.4267  0.6144  0.1371
 2172SOL    MW4 8688   0.190   0.607   4.206  0.5171  0.4914  0.3123
 2173SOL     OW 8689   2.360   4.328   4.370  0.0091  0.1066  0.0384
 2173SOL    HW2 8690   2.399   4.376   4.297  0.3242 -0.5668 -0.2413
 2173SOL    HW3 8691   2.305   4.393   4.415 -0.0957  0.5568 -0.7236
 2173SOL    MW4 8692   2.358   4.343   4.366  0.0368  0.0771 -0.0990
 2174SOL     OW 8693   3.047   2.735   3.722 -0.0889  0.4637  0.0602
 2174SOL    HW2 8694   3.135   2.699   3.713 -0.4638 -0.3332 -0.5106
 2174SOL    HW3 8695   3.017   2.747   3.631 -0.8243  0.0938  0.2523
 2174SOL    MW4 8696   3.055   2.732   3.709 -0.2354  0.3097  0.0102
 2175SOL     OW 8697   1.124   3.225   3.962  0.0623 -0.1700 -0.1640
 2175SOL    HW2 8698   1.038   3.262   3.945  0.1765 -0.0641 -0.5184
 2175SOL    HW3 8699   1.108   3.133   3.984 -0.0267 -0.5319 -1.6638
 2175SOL    MW4 8700   1.111   3.218   3.962  0.0657 -0.2038 -0.4086
 2176SOL     OW 8701   2.082   2.219   3.923 -0.1940 -0.2707 -0.2643
 2176SOL    HW2 8702   1.991   2.195   3.907 -0.0860 -0.1774 -1.0477
 2176SOL    HW3 8703   2.086   2.312   3.902 -0.1132 -0.0702  0.6184
 2176SOL    MW4 8704   2.071   2.228   3.918 -0.1691 -0.2320 -0.2512
 2177SOL     OW 8705   1.630   4.224   4.354 -0.1465  0.0716  0.0674
 2177SOL    HW2 8706   1.659   4.134   4.340  1.1979  0.4318  0.4580
 2177SOL    HW3 8707   1.542   4.216   4.390  0.4535 -1.1232  1.2964
 2177SOL    MW4 8708   1.623   4.211   4.357  0.1101 -0.0385  0.2811
 2178SOL     OW 8709   1.419   0.344   4.280 -0.5224  0.1122 -0.6356
 2178SOL    HW2 8710   1.413   0.261   4.328  0.8577  0.3443 -0.0267
 2178SOL    HW3 8711   1.430   0.317   4.188 -0.3512 -0.3708 -0.4762
 2178SOL    MW4 8712   1.420   0.329   4.274 -0.3177  0.0791 -0.5343
 2179SOL     OW 8713   0.004   1.539   3.670  0.4895 -0.2797  0.1754
 2179SOL    HW2 8714  -0.056   1.593   3.721  0.1604 -1.3016  0.8774
 2179SOL    HW3 8715  -0.014   1.562   3.579 -0.7929 -0.4102  0.3939
 2179SOL    MW4 8716  -0.006   1.549   3.665  0.2769 -0.4317  0.2969
 2180SOL     OW 8717   0.706   1.449   4.100  0.3511 -0.1487 -0.3534
 2180SOL    HW2 8718   0.744   1.365   4.073 -0.9449 -0.4526 -1.3043
 2180SOL    HW3 8719   0.708   1.503   4.022  0.8789  0.6047  0.1755
 2180SOL    MW4 8720   0.711   1.445   4.086  0.2498 -0.0894 -0.4091
 2181SOL     OW 8721   0.989   1.818   4.654 -0.1047  0.1026  0.2096
 2181SOL    HW2 8722   1.049   1.892   4.640 -0.1534  0.3491  1.2156
 2181SOL    HW3 8723   1.034   1.763   4.718 -0.1861 -0.6131 -0.3408
 2181SOL    MW4 8724   1.003   1.821   4.661 -0.1219  0.0407  0.2697
 2182SOL     OW 8725   0.386   3.455   4.768 -0.5973  0.2122  0.1512
 2182SOL    HW2 8726   0.456   3.457   4.834 -0.8196  0.0964  0.3881
 2182SOL    HW3 8727   0.422   3.505   4.695 -0.1100 -0.1884  0.1169
 2182SOL    MW4 8728   0.400   3.462   4.767 -0.5624  0.1441  0.1780
 2183SOL     OW 8729   1.370   2.464   4.303 -0.0122 -0.2061 -0.3628
 2183SOL    HW2 8730   1.392   2.555   4.283 -1.4380 -0.2629 -2.3494
 2183SOL    HW3 8731   1.454   2.422   4.316  0.6742  1.3626  0.4688
 2183SOL    MW4 8732   1.384   2.471   4.302 -0.1097 -0.0066 -0.5152
 2184SOL     OW 8733   2.187   4.275   3.344  0.8496  0.0608  0.2037
 2184SOL    HW2 8734   2.194   4.243   3.254 -1.0964  2.4658 -0.8485
 2184SOL    HW3 8735   2.278   4.284   3.373  1.4862 -1.4683 -1.2363
 2184SOL    MW4 8736   2.200   4.272   3.336  0.6768  0.1763 -0.1251
 2185SOL     OW 8737   1.642   1.965   3.684 -0.1447  0.5806 -0.0207
 2185SOL    HW2 8738   1.636   1.870   3.677 -1.3002  0.7232 -1.0516
 2185SOL    HW3 8739   1.624   1.997   3.596 -0.6465  1.8005  0.5131
 2185SOL    MW4 8740   1.639   1.957   3.671 -0.3634  0.7603 -0.0863
 2186SOL     OW 8741   4.042   0.692   3.662 -0.2416  0.5083 -0.3777
 2186SOL    HW2 8742   4.112   0.656   3.609 -0.1778  2.0845 -1.3935
 2186SOL    HW3 8743   4.086   0.726   3.740 -0.0465  0.3820 -0.4316
 2186SOL    MW4 8744   4.057   0.692   3.665 -0.2074  0.6996 -0.5188
 2187SOL     OW 8745   1.359   1.887   3.317 -0.0107  0.0161 -0.2601
 2187SOL    HW2 8746   1.284   1.933   3.354 -0.1656  0.5592 -1.2530
 2187SOL    HW3 8747   1.350   1.797   3.350 -0.5826  0.3005  0.3692
 2187SOL    MW4 8748   1.348   1.881   3.326 -0.1066  0.1253 -0.3081
 2188SOL     OW 8749   2.619   1.655   4.193  0.0570  0.1992  0.0454
 2188SOL    HW2 8750   2.574   1.589   4.141  1.2646  0.1719 -0.9926
 2188SOL    HW3 8751   2.633   1.728   4.132 -1.1031  1.3700  1.1233
 2188SOL    MW4 8752   2.615   1.656   4.178  0.0633  0.3501  0.0507
 2189SOL     OW 8753   3.416   3.545   3.368  0.4828  0.2237 -0.2686
 2189SOL    HW2 8754   3.392   3.548   3.460  2.9214  1.2416  0.3820
 2189SOL    HW3 8755   3.339   3.510   3.324 -1.2473  1.1253  1.9581
 2189SOL    MW4 8756   3.403   3.541   3.374  0.5763  0.4770  0.1110
 2190SOL     OW 8757   0.404   1.669   4.609 -0.0311 -0.0140 -0.0699
 2190SOL    HW2 8758   0.411   1.713   4.693  0.9130  0.8421 -0.5779
 2190SOL    HW3 8759   0.444   1.583   4.623  1.3540  0.6348  0.0059
 2190SOL    MW4 8760   0.410   1.663   4.622  0.2762  0.1845 -0.1269
 2191SOL     OW 8761   0.246   1.365   3.750  0.0642  0.1499  0.2085
 2191SOL    HW2 8762   0.297   1.441   3.723 -0.7384  0.4852 -0.3678
 2191SOL    HW3 8763   0.193   1.342   3.673  0.6313 -1.2641  0.2211
 2191SOL    MW4 8764   0.246   1.372   3.736  0.0331  0.0076  0.1342
 2192SOL     OW 8765   2.674   0.407   4.095 -0.2769  0.3442 -0.3053
 2192SOL    HW2 8766   2.617   0.335   4.067  2.1439 -1.3816 -0.9694
 2192SOL    HW3 8767   2.684   0.461   4.016 -1.0282  0.6802 -0.1730
 2192SOL    MW4 8768   2.667   0.404   4.081 -0.0566  0.1609 -0.3754
 2193SOL     OW 8769   3.518   4.563   3.827 -0.0737  0.1338 -0.4154
 2193SOL    HW2 8770   3.528   4.634   3.764  0.1813  1.6676  1.3105
 2193SOL    HW3 8771   3.434   4.523   3.806 -0.4590  1.2836 -1.0817
 2193SOL    MW4 8772   3.508   4.567   3.816 -0.0909  0.4879 -0.2756
 2194SOL     OW 8773   1.049   3.599   3.844  0.5935  0.1625  0.1062
 2194SOL    HW2 8774   1.036   3.584   3.937 -0.4403  0.5289  0.0235
 2194SOL    HW3 8775   0.964   3.580   3.804  0.3452  2.3581 -0.4645
 2194SOL    MW4 8776   1.036   3.594   3.851  0.4244  0.5005  0.0200
 2195SOL     OW 8777   3.120   0.628   4.507  0.1115 -0.0479 -0.2608
 2195SOL    HW2 8778   3.040   0.661   4.548  0.6661 -0.3448  1.0819
 2195SOL    HW3 8779   3.163   0.706   4.473  0.2020  0.3388  0.7266
 2195SOL    MW4 8780   3.115   0.643   4.508  0.1966 -0.0361  0.0466
 2196SOL     OW 8781   2.396   2.093   4.347 -0.3002  0.4182  0.1034
 2196SOL    HW2 8782   2.468   2.096   4.410 -0.2558 -1.0830  0.1349
 2196SOL    HW3 8783   2.317   2.083   4.401 -0.3616  0.1767 -0.0320
 2196SOL    MW4 8784   2.395   2.092   4.363 -0.3024  0.1883  0.0897
 2197SOL     OW 8785   1.289   2.780   3.920 -0.5540 -0.2144 -0.2759
 2197SOL    HW2 8786   1.301   2.810   3.830 -1.8479 -0.6130 -0.5870
 2197SOL    HW3 8787   1.228   2.707   3.913 -0.6477 -0.2610  0.9335
 2197SOL    MW4 8788   1.283   2.774   3.907 -0.7371 -0.2732 -0.1574
 2198SOL     OW 8789   0.369   1.361   4.185  0.1066  0.0889 -0.2290
 2198SOL    HW2 8790   0.325   1.370   4.270 -0.4384 -1.3569 -0.3482
 2198SOL    HW3 8791   0.394   1.451   4.162 -0.9564  0.6741  0.8115
 2198SOL    MW4 8792   0.366   1.374   4.194 -0.1055 -0.0246 -0.1075
 2199SOL     OW 8793   2.604   3.093   4.097  0.2845 -0.5003  0.5608
 2199SOL    HW2 8794   2.641   3.169   4.142  0.3196  0.3149 -0.7986
 2199SOL    HW3 8795   2.513   3.089   4.126  0.2781  0.0744  0.6141
 2199SOL    MW4 8796   2.597   3.102   4.106  0.2883 -0.3169  0.3885
 2200SOL     OW 8797   0.768   3.696   3.746 -0.1007 -0.0396 -0.2787
 2200SOL    HW2 8798   0.708   3.658   3.810 -1.3586  0.4109 -1.1629
 2200SOL    HW3 8799   0.804   3.774   3.789 -0.3127 -0.1915  0.1718
 2200SOL    MW4 8800   0.765   3.702   3.760 -0.2946 -0.0002 -0.3359
 2201SOL     OW 8801   3.700   3.482   3.892 -0.0943 -0.1183  0.0492
 2201SOL    HW2 8802   3.636   3.433   3.841  0.4758 -1.0773  0.2443
 2201SOL    HW3 8803   3.730   3.552   3.834 -0.2507 -0.5445 -0.5377
 2201SOL    MW4 8804   3.696   3.485   3.878 -0.0398 -0.3011 -0.0025
 2202SOL     OW 8805   1.118   4.633   4.493 -0.0120  0.5667  0.4228
 2202SOL    HW2 8806   1.042   4.691   4.483  1.4874  2.4091 -0.4792
 2202SOL    HW3 8807   1.166   4.668   4.568  0.2047 -0.3212  0.7038
 2202SOL    MW4 8808   1.114   4.645   4.501  0.2144  0.6926  0.3409
 2203SOL     OW 8809   4.230   0.790   4.309  0.2248 -0.7698  0.2961
 2203SOL    HW2 8810   4.293   0.734   4.263  1.0279 -1.0913  1.7612
 2203SOL    HW3 8811   4.281   0.830   4.379 -0.1589  2.3290 -1.1087
 2203SOL    MW4 8812   4.245   0.788   4.312  0.2802 -0.4034  0.3040
 2204SOL     OW 8813   4.062   2.372   3.424  0.1465  0.2824  0.4750
 2204SOL    HW2 8814   4.054   2.381   3.519 -2.3296  0.9910  0.2546
 2204SOL    HW3 8815   3.983   2.324   3.398  2.4845 -2.9820 -0.8842
 2204SOL    MW4 8816   4.050   2.367   3.433  0.1283 -0.0548  0.2666
 2205SOL     OW 8817   3.232   3.738   4.250  0.4197 -0.4606  0.1681
 2205SOL    HW2 8818   3.241   3.752   4.155 -1.2731 -0.6232 -0.0423
 2205SOL    HW3 8819   3.319   3.712   4.279  1.1478  0.3952 -1.2077
 2205SOL    MW4 8820   3.244   3.736   4.241  0.2924 -0.3691 -0.0412
 2206SOL     OW 8821   4.015   2.758   4.170 -0.0297  0.2317  0.1740
 2206SOL    HW2 8822   4.037   2.812   4.094 -0.3981 -0.6524 -0.5725
 2206SOL    HW3 8823   3.937   2.710   4.143 -0.4500  0.2647  1.2902
 2206SOL    MW4 8824   4.007   2.759   4.157 -0.1337  0.1194  0.2228
 2207SOL     OW 8825   3.442   3.066   4.454  0.1690 -0.0151 -0.3727
 2207SOL    HW2 8826   3.451   3.031   4.542  0.9666 -0.1464 -0.4980
 2207SOL    HW3 8827   3.463   2.993   4.396 -0.5205  0.0240 -0.6725
 2207SOL    MW4 8828   3.446   3.052   4.458  0.1833 -0.0273 -0.4288
 2208SOL     OW 8829   0.593   2.873   3.943 -0.2187  0.0681 -0.6665
 2208SOL    HW2 8830   0.580   2.874   4.037  1.0713 -1.8473 -0.4350
 2208SOL    HW3 8831   0.504   2.879   3.906 -0.8824 -1.0415  0.7023
 2208SOL    MW4 8832   0.579   2.874   3.950 -0.1361 -0.3310 -0.4554
 2209SOL     OW 8833   3.401   3.793   3.246 -0.0676  0.2171  0.3523
 2209SOL    HW2 8834   3.482   3.834   3.276 -0.0238  0.1046  0.3878
 2209SOL    HW3 8835   3.404   3.705   3.283 -0.3773  0.3312  0.6607
 2209SOL    MW4 8836   3.412   3.787   3.255 -0.1027  0.2173  0.3977
 2210SOL     OW 8837   0.526   1.135   4.050  0.0332  0.4233  0.3151
 2210SOL    HW2 8838   0.609   1.101   4.083  0.2734  0.8799  0.1836
 2210SOL    HW3 8839   0.498   1.199   4.116  0.2418  0.9360 -0.0907
 2210SOL    MW4 8840   0.533   1.139   4.063  0.0924  0.5512  0.2442
 2211SOL     OW 8841   1.651   0.596   4.058 -0.2949 -0.1275 -0.0351
 2211SOL    HW2 8842   1.661   0.552   4.142  2.0165 -0.2123 -0.3202
 2211SOL    HW3 8843   1.594   0.671   4.077 -0.0077 -0.2974  1.5465
 2211SOL    MW4 8844   1.645   0.600   4.071  0.0480 -0.1611  0.1359
 2212SOL     OW 8845   4.265   2.208   4.204 -0.9115  0.0771  0.5710
 2212SOL    HW2 8846   4.313   2.251   4.276 -0.1742 -1.2198  0.8767
 2212SOL    HW3 8847   4.221   2.134   4.246 -0.6586 -0.5568 -0.2634
 2212SOL    MW4 8848   4.265   2.204   4.219 -0.7808 -0.1777  0.5013
 2213SOL     OW 8849   2.638   0.058   3.340 -0.0389  0.0901  0.2616
 2213SOL    HW2 8850   2.682   0.143   3.336 -1.4178  0.7551 -1.2068
 2213SOL    HW3 8851   2.700  -0.003   3.301 -0.4193  1.0390 -1.8950
 2213SOL    MW4 8852   2.652   0.062   3.334 -0.2710  0.3030 -0.2167
 2214SOL     OW 8853   2.315   0.330   4.463  0.3215 -0.5567  0.1480
 2214SOL    HW2 8854   2.381   0.377   4.412 -1.3305 -1.5279 -2.9638
 2214SOL    HW3 8855   2.236   0.384   4.457 -0.5183 -1.8064 -0.2144
 2214SOL    MW4 8856   2.313   0.343   4.456 -0.0072 -0.8497 -0.3104
 2215SOL     OW 8857   1.997   2.849   4.417  0.4151  0.1728  0.0400
 2215SOL    HW2 8858   2.033   2.800   4.490 -0.3896  0.1386  0.4211
 2215SOL    HW3 8859   1.902   2.836   4.424  0.2411  1.2888 -0.2120
 2215SOL    MW4 8860   1.989   2.841   4.427  0.2859  0.3155  0.0570
 2216SOL     OW 8861   0.426   1.610   4.100  0.3122 -0.3021  0.2838
 2216SOL    HW2 8862   0.460   1.652   4.179  0.5236 -1.0122  0.5734
 2216SOL    HW3 8863   0.494   1.622   4.034  0.1770  0.2029  0.2278
 2216SOL    MW4 8864   0.439   1.617   4.102  0.3222 -0.3292  0.3146
 2217SOL     OW 8865   1.032   1.127   3.863  0.3279  0.5026  0.6207
 2217SOL    HW2 8866   1.126   1.138   3.850  0.3311  0.2747  0.4476
 2217SOL    HW3 8867   0.992   1.166   3.786  0.3259 -0.3803  0.1661
 2217SOL    MW4 8868   1.039   1.134   3.851  0.3280  0.3561  0.5379
 2218SOL     OW 8869   2.996   3.975   3.652  0.4458 -0.1314  0.3412
 2218SOL    HW2 8870   3.078   3.958   3.605 -1.1407 -0.5602 -2.3384
 2218SOL    HW3 8871   2.966   4.060   3.619 -0.4927 -0.2408  0.8903
 2218SOL    MW4 8872   3.003   3.984   3.642  0.1127 -0.2024  0.0601
 2219SOL     OW 8873   4.064   3.605   4.408  0.6724  0.2973 -0.2647
 2219SOL    HW2 8874   4.048   3.689   4.451 -0.3296  0.1981 -0.4353
 2219SOL    HW3 8875   4.011   3.607   4.329  0.5598 -0.5363 -0.2192
 2219SOL    MW4 8876   4.055   3.616   4.404  0.5254  0.1743 -0.2812
 2220SOL     OW 8877   1.171   0.648   4.043 -0.2769 -0.3654  0.0879
 2220SOL    HW2 8878   1.169   0.553   4.029 -2.4917 -0.3532  0.0190
 2220SOL    HW3 8879   1.091   0.666   4.093 -0.0832  1.5003 -0.2416
 2220SOL    MW4 8880   1.160   0.637   4.048 -0.5435 -0.1177  0.0353
 2221SOL     OW 8881   3.958   1.343   3.689  0.3463  0.0591  0.1793
 2221SOL    HW2 8882   3.982   1.275   3.752 -0.0277  0.1187  0.3904
 2221SOL    HW3 8883   3.913   1.296   3.619 -0.0837  0.1137  0.4187
 2221SOL    MW4 8884   3.955   1.328   3.688  0.2402  0.0742  0.2387
 2222SOL     OW 8885   0.443   4.297   3.790 -0.2778  0.5088 -0.0777
 2222SOL    HW2 8886   0.519   4.355   3.792  0.4645 -0.4138 -1.0950
 2222SOL    HW3 8887   0.423   4.280   3.883  1.0253  0.3964  0.1897
 2222SOL    MW4 8888   0.450   4.302   3.803 -0.0080  0.3722 -0.1766
 2223SOL     OW 8889   2.441   2.847   3.743 -0.4863  0.0637  0.1950
 2223SOL    HW2 8890   2.370   2.909   3.728  0.2494  0.1724 -3.0112
 2223SOL    HW3 8891   2.509   2.899   3.787 -0.6501  1.0293 -0.6917
 2223SOL    MW4 8892   2.441   2.862   3.747 -0.4108  0.2054 -0.3450
 2224SOL     OW 8893   1.838   0.135   3.490 -0.7234 -0.1476 -0.9797
 2224SOL    HW2 8894   1.888   0.167   3.565  0.6379  0.2445 -2.0339
 2224SOL    HW3 8895   1.843   0.206   3.426 -0.5583 -1.0954 -2.0406
 2224SOL    MW4 8896   1.845   0.149   3.491 -0.5220 -0.2209 -1.2588
 2225SOL     OW 8897   4.233   2.527   3.836  0.3910  0.3282  1.1272
 2225SOL    HW2 8898   4.153   2.580   3.842  0.3175  0.1322  2.0369
 2225SOL    HW3 8899   4.202   2.437   3.848  0.4426  0.0055 -0.8964
 2225SOL    MW4 8900   4.218   2.522   3.838  0.3881  0.2598  0.9803
 2226SOL     OW 8901   0.012   2.719   3.344 -0.3906  0.0537  0.0635
 2226SOL    HW2 8902   0.005   2.631   3.380 -1.0260 -0.6723 -1.7559
 2226SOL    HW3 8903  -0.072   2.760   3.362  0.0373  0.4326  1.2422
 2226SOL    MW4 8904   0.000   2.713   3.351 -0.4180  0.0079 -0.0210
 2227SOL     OW 8905   2.719   1.601   3.356  0.2462  0.3328 -0.1257
 2227SOL    HW2 8906   2.714   1.693   3.329  1.6624  0.3679 -0.2865
 2227SOL    HW3 8907   2.811   1.577   3.343 -0.0338 -0.9906  0.2970
 2227SOL    MW4 8908   2.731   1.610   3.351  0.3961  0.1629 -0.0911
 2228SOL     OW 8909   2.893   4.221   3.597 -0.2146  0.3902 -0.2299
 2228SOL    HW2 8910   2.872   4.303   3.641 -3.2151 -0.2707 -0.2881
 2228SOL    HW3 8911   2.895   4.243   3.504  0.8650  0.7399 -0.1335
 2228SOL    MW4 8912   2.891   4.235   3.590 -0.4680  0.3491 -0.2248
 2229SOL     OW 8913   3.155   0.274   3.351 -0.0133 -0.5748  0.5628
 2229SOL    HW2 8914   3.086   0.340   3.351  0.2112 -0.3410  0.5414
 2229SOL    HW3 8915   3.160   0.245   3.260  0.3163 -0.1738  0.4516
 2229SOL    MW4 8916   3.147   0.279   3.339  0.0598 -0.4910  0.5453
 2230SOL     OW 8917   1.173   1.996   4.286 -0.4247 -0.4074 -0.3476
 2230SOL    HW2 8918   1.215   1.913   4.264 -1.5865 -1.5443  1.5729
 2230SOL    HW3 8919   1.200   2.056   4.217  0.2395 -2.4477 -1.8970
 2230SOL    MW4 8920   1.182   1.993   4.274 -0.4904 -0.8266 -0.2986
 2231SOL     OW 8921   2.233   1.861   4.644 -0.5341  0.1021  0.4398
 2231SOL    HW2 8922   2.197   1.943   4.610 -0.9527 -0.6556 -0.9485
 2231SOL    HW3 8923   2.160   1.820   4.690 -1.0915 -0.7585 -1.1675
 2231SOL    MW4 8924   2.219   1.867   4.646 -0.6628 -0.1115  0.0446
 2232SOL     OW 8925   4.254   3.718   3.677  0.3217 -0.2645  0.1780
 2232SOL    HW2 8926   4.180   3.658   3.678  0.3174 -0.2534  1.3204
 2232SOL    HW3 8927   4.216   3.804   3.690  0.5682 -0.3182  1.3580
 2232SOL    MW4 8928   4.239   3.721   3.679  0.3537 -0.2701  0.4844
 2233SOL     OW 8929   2.458   1.186   4.380 -0.2804 -0.1682  0.3245
 2233SOL    HW2 8930   2.541   1.143   4.396 -0.6219 -0.4379  1.4166
 2233SOL    HW3 8931   2.464   1.268   4.429 -0.0291  0.5660 -0.9149
 2233SOL    MW4 8932   2.470   1.191   4.389 -0.2923 -0.1070  0.3051
 2234SOL     OW 8933   3.844   1.776   3.885 -0.2092  0.0601  0.2117
 2234SOL    HW2 8934   3.845   1.851   3.945 -0.1349  0.4441 -0.2625
 2234SOL    HW3 8935   3.754   1.744   3.888  0.2596 -1.1168  1.9921
 2234SOL    MW4 8936   3.833   1.782   3.893 -0.1376 -0.0445  0.3840
 2235SOL     OW 8937   2.709   2.137   4.031 -0.2437 -0.5240 -0.7807
 2235SOL    HW2 8938   2.785   2.174   3.987 -0.0256 -0.4708 -0.3666
 2235SOL    HW3 8939   2.681   2.205   4.092 -0.4184 -0.6705 -0.6961
 2235SOL    MW4 8940   2.715   2.151   4.034 -0.2380 -0.5363 -0.7149
 2236SOL     OW 8941   0.195   1.708   3.778  0.4647  0.4749  0.6081
 2236SOL    HW2 8942   0.139   1.634   3.753 -0.8223  2.0185 -1.2326
 2236SOL    HW3 8943   0.188   1.711   3.873 -0.4688 -1.0004  0.6190
 2236SOL    MW4 8944   0.187   1.698   3.787  0.1717  0.4840  0.3667
 2237SOL     OW 8945   2.001   3.167   4.073  0.0307 -0.3805 -0.3453
 2237SOL    HW2 8946   2.036   3.255   4.064  1.9072 -1.1430 -0.7767
 2237SOL    HW3 8947   1.946   3.171   4.151  0.0297  1.1894 -0.4121
 2237SOL    MW4 8948   1.999   3.179   4.082  0.2782 -0.2739 -0.4110
 2238SOL     OW 8949   0.068   0.892   3.655  0.1321  0.3012 -0.1397
 2238SOL    HW2 8950   0.060   0.891   3.560  0.1997  3.5682 -0.2583
 2238SOL    HW3 8951   0.159   0.917   3.671  0.4809 -1.5375  0.8104
 2238SOL    MW4 8952   0.079   0.895   3.645  0.1871  0.4896 -0.0300
 2239SOL     OW 8953   2.272   0.321   3.308 -0.3786 -0.4510  0.6269
 2239SOL    HW2 8954   2.289   0.226   3.306  1.0092 -0.2114  0.4047
 2239SOL    HW3 8955   2.352   0.358   3.346 -0.2056  0.7836 -0.9124
 2239SOL    MW4 8956   2.285   0.313   3.313 -0.1727 -0.2565  0.3945
 2240SOL     OW 8957   3.177   4.021   4.281 -0.1087 -0.1917 -0.0686
 2240SOL    HW2 8958   3.203   3.932   4.261 -1.7025 -0.8637  0.7410
 2240SOL    HW3 8959   3.259   4.071   4.285  0.8112 -1.6909 -0.1619
 2240SOL    MW4 8960   3.191   4.016   4.279 -0.1976 -0.4782  0.0259
 2241SOL     OW 8961   0.960   0.490   4.229 -0.5828  0.1133 -0.4023
 2241SOL    HW2 8962   0.896   0.499   4.300 -0.0624  1.2078 -0.0526
 2241SOL    HW3 8963   1.005   0.408   4.247 -1.0000 -0.0102  0.0876
 2241SOL    MW4 8964   0.957   0.480   4.241 -0.5692  0.2414 -0.2915
 2242SOL     OW 8965   0.626   2.479   3.824 -0.2507  0.0689 -0.1629
 2242SOL    HW2 8966   0.581   2.564   3.817 -0.0564  0.1372 -0.5862
 2242SOL    HW3 8967   0.714   2.496   3.792  0.1600 -0.0122  0.8923
 2242SOL    MW4 8968   0.632   2.492   3.819 -0.1709  0.0672 -0.0795
 2243SOL     OW 8969   0.027   3.465   4.215 -0.4951  0.9293  0.4055
 2243SOL    HW2 8970   0.100   3.417   4.253 -0.6293  0.8294  0.5346
 2243SOL    HW3 8971  -0.015   3.508   4.290 -1.4951 -0.2528  0.5259
 2243SOL    MW4 8972   0.031   3.464   4.230 -0.6447  0.7602  0.4384
 2244SOL     OW 8973   2.119   3.741   4.250 -0.0017  0.2141  0.5552
 2244SOL    HW2 8974   2.184   3.698   4.305  2.0248  0.5499 -1.5172
 2244SOL    HW3 8975   2.045   3.679   4.248  2.2592 -2.5519 -1.1431
 2244SOL    MW4 8976   2.118   3.727   4.257  0.5640 -0.1065  0.0577
 2245SOL     OW 8977   2.113   2.300   4.185  0.1041  0.1289  0.3126
 2245SOL    HW2 8978   2.207   2.314   4.193  0.2766 -1.4221  0.9741
 2245SOL    HW3 8979   2.100   2.271   4.094  0.4201 -0.8879  0.5877
 2245SOL    MW4 8980   2.123   2.298   4.174  0.1685 -0.2099  0.4362
 2246SOL     OW 8981   0.869   3.925   3.482  0.2735 -0.0621  0.4118
 2246SOL    HW2 8982   0.805   3.897   3.549  0.4883 -0.9141  0.2609
 2246SOL    HW3 8983   0.940   3.861   3.488  0.8916  0.6012  0.2375
 2246SOL    MW4 8984   0.870   3.913   3.492  0.3834 -0.0870  0.3689
 2247SOL     OW 8985   3.587   1.075   3.772  0.2913  0.2166  0.2005
 2247SOL    HW2 8986   3.494   1.073   3.792  0.5862  1.4100  1.7693
 2247SOL    HW3 8987   3.626   1.008   3.828  0.2314 -1.1092 -1.3185
 2247SOL    MW4 8988   3.580   1.066   3.782  0.3223  0.1992  0.2071
 2248SOL     OW 8989   2.698   2.661   3.381 -0.2753 -0.2370  0.0145
 2248SOL    HW2 8990   2.631   2.713   3.425 -0.4747 -1.3062  0.9834
 2248SOL    HW3 8991   2.692   2.574   3.421  1.3231 -0.4965 -0.2724
 2248SOL    MW4 8992   2.688   2.656   3.392 -0.0908 -0.4123  0.1044
 2249SOL     OW 8993   1.668   1.472   4.263  0.2443  0.3159  0.4606
 2249SOL    HW2 8994   1.739   1.536   4.257 -0.2455  0.8881  0.6728
 2249SOL    HW3 8995   1.661   1.453   4.356 -0.4554  0.9180  0.5331
 2249SOL    MW4 8996   1.676   1.478   4.274  0.0874  0.4708  0.4982
 2250SOL     OW 8997   1.566   2.691   3.526 -0.1528 -0.0945 -0.1861
 2250SOL    HW2 8998   1.503   2.728   3.464 -1.0766 -1.3139  0.0098
 2250SOL    HW3 8999   1.518   2.621   3.569  1.6464 -1.7005 -0.7355
 2250SOL    MW4 9000   1.551   2.687   3.523 -0.0373 -0.4673 -0.2327
 2251SOL     OW 9001   1.311   1.765   4.206 -0.4283  0.1448 -0.0218
 2251SOL    HW2 9002   1.314   1.675   4.238 -0.8752 -0.5560 -1.9226
 2251SOL    HW3 9003   1.246   1.764   4.136  1.0827  1.4915 -1.4665
 2251SOL    MW4 9004   1.303   1.753   4.201 -0.2879  0.2300 -0.4632
 2252SOL     OW 9005   4.387   1.928   3.627 -0.6967  0.0229  0.4138
 2252SOL    HW2 9006   4.481   1.934   3.647 -0.8844  1.0277  1.0071
 2252SOL    HW3 9007   4.380   1.955   3.536 -0.2668 -1.1825  0.0185
 2252SOL    MW4 9008   4.399   1.932   3.618 -0.6647 -0.0035  0.4399
 2253SOL     OW 9009   3.006   1.012   4.085  0.4685 -0.4202  0.6123
 2253SOL    HW2 9010   2.957   0.946   4.035 -0.6221  1.2745 -0.6378
 2253SOL    HW3 9011   2.993   0.988   4.177 -0.6988 -1.4034  0.1973
 2253SOL    MW4 9012   2.998   1.000   4.091  0.1706 -0.3263  0.3926
 2254SOL     OW 9013   2.241   0.738   4.450  0.0967 -0.4870  0.4260
 2254SOL    HW2 9014   2.333   0.730   4.478 -0.2759 -1.7458  1.3299
 2254SOL    HW3 9015   2.213   0.823   4.483  1.0803  0.1272 -0.2888
 2254SOL    MW4 9016   2.250   0.748   4.458  0.1773 -0.5721  0.4510
 2255SOL     OW 9017   0.403   0.896   3.407 -0.1165  0.0963 -0.1490
 2255SOL    HW2 9018   0.391   0.908   3.502 -1.8737  1.9404 -0.5634
 2255SOL    HW3 9019   0.386   0.982   3.370  0.0014 -0.7391 -2.2127
 2255SOL    MW4 9020   0.399   0.909   3.415 -0.3328  0.2294 -0.4760
 2256SOL     OW 9021   3.816   2.748   3.421  0.2459  0.6913 -0.3888
 2256SOL    HW2 9022   3.742   2.710   3.373  0.3296 -0.1538  0.1270
 2256SOL    HW3 9023   3.828   2.835   3.383 -1.7586  1.2951  0.3266
 2256SOL    MW4 9024   3.808   2.754   3.409 -0.0076  0.6594 -0.2263
 2257SOL     OW 9025   2.057   1.154   3.697  0.4552 -0.0464 -0.3825
 2257SOL    HW2 9026   2.136   1.207   3.703  1.3521 -1.0701 -2.4735
 2257SOL    HW3 9027   2.042   1.145   3.603 -0.8793 -1.7157 -0.0236
 2257SOL    MW4 9028   2.065   1.160   3.685  0.3974 -0.4017 -0.6110
 2258SOL     OW 9029   3.293   1.014   4.131 -0.0398  0.1876 -0.1535
 2258SOL    HW2 9030   3.200   1.001   4.114 -0.2261 -0.0696  1.0412
 2258SOL    HW3 9031   3.312   0.957   4.206  1.0930  0.1770 -0.4403
 2258SOL    MW4 9032   3.284   1.005   4.138  0.0851  0.1523 -0.0337
 2259SOL     OW 9033   2.569   3.828   3.799  0.1729 -0.4576 -0.1226
 2259SOL    HW2 9034   2.513   3.837   3.877  0.2679  1.8980 -0.2985
 2259SOL    HW3 9035   2.655   3.807   3.835 -0.2731 -1.7419  0.2599
 2259SOL    MW4 9036   2.573   3.826   3.814  0.1266 -0.3163 -0.0954
 2260SOL     OW 9037   1.116   1.379   4.499  0.3685  0.0536  0.0856
 2260SOL    HW2 9038   1.197   1.402   4.454  0.4222  0.3178  0.3153
 2260SOL    HW3 9039   1.064   1.460   4.498 -0.5499 -0.5319 -1.4507
 2260SOL    MW4 9040   1.120   1.393   4.493  0.2544  0.0112 -0.0868
 2261SOL     OW 9041   2.727   2.289   3.722  0.0512 -0.3407 -0.1178
 2261SOL    HW2 9042   2.645   2.318   3.761  0.4076  0.3144  0.1516
 2261SOL    HW3 9043   2.794   2.312   3.787  0.3743 -1.5069 -0.0253
 2261SOL    MW4 9044   2.725   2.296   3.736  0.1409 -0.4081 -0.0701
 2262SOL     OW 9045   3.124   4.033   3.910  0.1795 -0.4422 -0.2947
 2262SOL    HW2 9046   3.082   3.999   3.831  0.4301 -0.0922 -0.5850
 2262SOL    HW3 9047   3.053   4.037   3.975 -0.0165 -0.7817 -0.4862
 2262SOL    MW4 9048   3.109   4.029   3.908  0.1867 -0.4408 -0.3583
 2263SOL     OW 9049   1.668   2.970   3.606 -0.1585  0.3640  0.3573
 2263SOL    HW2 9050   1.721   2.999   3.680  0.1855  1.0035 -0.1300
 2263SOL    HW3 9051   1.692   2.879   3.592  0.0559  0.3568  0.7898
 2263SOL    MW4 9052   1.678   2.962   3.614 -0.0848  0.4474  0.3501
 2264SOL     OW 9053   1.591   0.038   3.560 -0.1933  0.2627 -0.1300
 2264SOL    HW2 9054   1.606  -0.038   3.615  0.2076  0.2858 -0.2016
 2264SOL    HW3 9055   1.679   0.069   3.537 -0.3195 -1.2255 -2.8121
 2264SOL    MW4 9056   1.605   0.032   3.564 -0.1571  0.0694 -0.4933
 2265SOL     OW 9057   2.993   1.855   4.541  0.0262 -0.6682 -0.0516
 2265SOL    HW2 9058   3.067   1.833   4.486  0.7133 -1.1931  1.0594
 2265SOL    HW3 9059   2.977   1.776   4.593 -0.0194  0.1134  1.1434
 2265SOL    MW4 9060   3.001   1.842   4.541  0.1109 -0.6343  0.2527
 2266SOL     OW 9061   0.895   1.516   3.687 -0.5273  0.5791  0.3920
 2266SOL    HW2 9062   0.958   1.566   3.738  0.0034  0.0721  0.2332
 2266SOL    HW3 9063   0.812   1.528   3.734 -0.4084  1.6018  0.3506
 2266SOL    MW4 9064   0.892   1.524   3.700 -0.4416  0.6472  0.3656
 2267SOL     OW 9065   4.075   4.036   3.441  0.1188 -0.1545 -0.1788
 2267SOL    HW2 9066   4.009   3.972   3.415  0.1839 -1.3059  2.3456
 2267SOL    HW3 9067   4.156   4.002   3.402  0.2058 -1.8150  1.3599
 2267SOL    MW4 9068   4.077   4.023   3.432  0.1389 -0.5255  0.3573
 2268SOL     OW 9069   4.087   3.325   4.403 -0.4609 -0.1700 -0.0181
 2268SOL    HW2 9070   4.076   3.418   4.422  0.2583 -0.0788 -0.0356
 2268SOL    HW3 9071   4.132   3.323   4.318 -0.2161 -0.5332  0.1213
 2268SOL    MW4 9072   4.091   3.337   4.394 -0.3337 -0.2059 -0.0020
 2269SOL     OW 9073   2.706   4.457   3.977  0.2736 -0.4233 -0.5018
 2269SOL    HW2 9074   2.650   4.388   3.939  1.0568 -1.0243 -0.5842
 2269SOL    HW3 9075   2.742   4.416   4.056  1.6800 -0.5309 -1.1878
 2269SOL    MW4 9076   2.703   4.442   3.983  0.5625 -0.5168 -0.6032
 2270SOL     OW 9077   4.057   2.645   3.322 -0.2239 -0.7558  0.2314
 2270SOL    HW2 9078   3.972   2.680   3.346  0.9060  1.0762  1.6986
 2270SOL    HW3 9079   4.064   2.562   3.369 -0.0944  0.3985  2.2863
 2270SOL    MW4 9080   4.047   2.639   3.331 -0.0577 -0.3618  0.6961
 2271SOL     OW 9081   1.861   0.271   3.771 -0.2483 -0.3784 -0.1885
 2271SOL    HW2 9082   1.804   0.321   3.713  0.0372  0.3204  0.1267
 2271SOL    HW3 9083   1.946   0.314   3.764  0.1212 -1.1179 -0.2821
 2271SOL    MW4 9084   1.865   0.283   3.762 -0.1619 -0.3838 -0.1592
 2272SOL     OW 9085   4.445   2.715   3.850  0.1175 -0.7201 -0.2148
 2272SOL    HW2 9086   4.473   2.711   3.941 -2.0290  1.4480  0.6111
 2272SOL    HW3 9087   4.377   2.647   3.843  0.5108 -1.1067 -0.2917
 2272SOL    MW4 9088   4.440   2.705   3.861 -0.1138 -0.4851 -0.1160
 2273SOL     OW 9089   0.254   2.583   4.007 -0.3416  0.2243 -0.4816
 2273SOL    HW2 9090   0.296   2.601   3.923  0.5100 -0.9528 -0.3165
 2273SOL    HW3 9091   0.199   2.506   3.990 -2.2027  1.5556 -0.6143
 2273SOL    MW4 9092   0.252   2.575   3.993 -0.4748  0.2447 -0.4773
 2274SOL     OW 9093   3.790   4.341   4.187 -0.4661 -0.3337  0.2520
 2274SOL    HW2 9094   3.766   4.313   4.275 -0.3318 -0.2873  0.3040
 2274SOL    HW3 9095   3.860   4.405   4.200  0.3156 -1.1246  0.0713
 2274SOL    MW4 9096   3.796   4.346   4.200 -0.3452 -0.4320  0.2350
 2275SOL     OW 9097   3.584   1.585   3.425 -0.1435 -0.4134 -0.1543
 2275SOL    HW2 9098   3.560   1.622   3.509  0.1473 -0.0011 -0.2480
 2275SOL    HW3 9099   3.675   1.557   3.436  0.1736  0.4208 -0.5828
 2275SOL    MW4 9100   3.593   1.586   3.437 -0.0633 -0.2489 -0.2232
 2276SOL     OW 9101   0.332   0.534   4.002 -0.1991 -0.1168  0.4506
 2276SOL    HW2 9102   0.373   0.609   3.959 -1.6893  2.0197  2.7163
 2276SOL    HW3 9103   0.406   0.485   4.039  0.6998  0.8338 -0.0434
 2276SOL    MW4 9104   0.347   0.537   4.001 -0.2771  0.2905  0.6844
 2277SOL     OW 9105   4.343   3.420   3.765  0.3056 -0.2672  0.3493
 2277SOL    HW2 9106   4.378   3.344   3.811  2.0714 -0.1834 -0.8147
 2277SOL    HW3 9107   4.413   3.485   3.769 -1.0656  1.2269  1.0822
 2277SOL    MW4 9108   4.357   3.419   3.771  0.3576 -0.0590  0.2924
 2278SOL     OW 9109   2.946   3.046   3.330  0.1793  0.0080 -0.4923
 2278SOL    HW2 9110   3.022   3.103   3.340 -0.4227  0.7915 -0.2987
 2278SOL    HW3 9111   2.941   3.028   3.237 -0.4093  1.3878 -0.7470
 2278SOL    MW4 9112   2.955   3.051   3.319  0.0223  0.2934 -0.5003
 2279SOL     OW 9113   4.067   1.210   4.154  0.0111 -0.2098 -0.7157
 2279SOL    HW2 9114   3.976   1.233   4.137 -0.5574 -3.3363 -2.0379
 2279SOL    HW3 9115   4.117   1.266   4.094 -0.8302  2.8806  1.3121
 2279SOL    MW4 9116   4.062   1.221   4.144 -0.1749 -0.2145 -0.6226
 2280SOL     OW 9117   0.451   4.573   4.065  0.3309  0.0260  0.3739
 2280SOL    HW2 9118   0.403   4.490   4.054 -0.7660  0.7297 -0.2603
 2280SOL    HW3 9119   0.450   4.588   4.160 -2.4844  1.0369  0.2287
 2280SOL    MW4 9120   0.444   4.564   4.076 -0.1853  0.2522  0.2710
 2281SOL     OW 9121   2.684   2.640   4.045  0.5301  0.3276 -0.4708
 2281SOL    HW2 9122   2.606   2.654   3.991 -1.0031 -0.8157  1.3886
 2281SOL    HW3 9123   2.695   2.722   4.093  1.2348  0.9371 -1.6423
 2281SOL    MW4 9124   2.675   2.653   4.044  0.4208  0.2572 -0.3801
 2282SOL     OW 9125   1.500   3.773   4.439 -0.3271 -0.3557 -0.3589
 2282SOL    HW2 9126   1.509   3.678   4.450  0.8024 -0.2012  0.1775
 2282SOL    HW3 9127   1.589   3.807   4.453 -1.0260  0.9349  1.1098
 2282SOL    MW4 9128   1.513   3.765   4.443 -0.2703 -0.1650 -0.0944
 2283SOL     OW 9129   3.248   1.439   3.902  0.1951  0.2276 -0.0978
 2283SOL    HW2 9130   3.177   1.409   3.959  0.6353  0.8605  0.8028
 2283SOL    HW3 9131   3.313   1.474   3.963 -0.1436  2.6526 -1.0835
 2283SOL    MW4 9132   3.247   1.440   3.918  0.2085  0.6310 -0.1091
 2284SOL     OW 9133   2.883   2.251   4.328  0.6231 -0.3257  0.4142
 2284SOL    HW2 9134   2.843   2.273   4.412 -0.0045 -0.4027  0.1389
 2284SOL    HW3 9135   2.837   2.306   4.264  1.4137  0.0709  0.1806
 2284SOL    MW4 9136   2.871   2.262   4.331  0.6446 -0.2836  0.3470
 2285SOL     OW 9137   0.661   3.091   3.342 -0.4401  0.1485  0.4239
 2285SOL    HW2 9138   0.584   3.129   3.385  0.6075  1.2127  1.3748
 2285SOL    HW3 9139   0.735   3.140   3.377  0.6982 -0.9890 -0.3534
 2285SOL    MW4 9140   0.660   3.102   3.353 -0.1517  0.1388  0.4468
 2286SOL     OW 9141   0.731   3.872   4.122  0.2698  0.4712  0.2267
 2286SOL    HW2 9142   0.797   3.909   4.180  0.1626  0.8302  0.1196
 2286SOL    HW3 9143   0.649   3.911   4.152  0.3467  1.4811 -0.8458
 2286SOL    MW4 9144   0.729   3.882   4.134  0.2658  0.6518  0.0711
 2287SOL     OW 9145   0.788   0.402   4.439  0.8321  0.2933 -0.4877
 2287SOL    HW2 9146   0.801   0.310   4.464  1.2497  0.7059  0.8331
 2287SOL    HW3 9147   0.694   0.408   4.422  0.7776 -0.3468 -0.4379
 2287SOL    MW4 9148   0.777   0.390   4.440  0.8800  0.2633 -0.3069
 2288SOL     OW 9149   2.600   4.221   4.289  0.2162 -0.0879  0.3259
 2288SOL    HW2 9150   2.587   4.129   4.267  0.9956 -0.1273  0.0011
 2288SOL    HW3 9151   2.535   4.239   4.357  0.3032 -0.9716  0.6491
 2288SOL    MW4 9152   2.590   4.212   4.295  0.3305 -0.2097  0.3257
 2289SOL     OW 9153   3.385   4.177   3.608  0.1181  0.0296  0.0642
 2289SOL    HW2 9154   3.469   4.191   3.652  0.5869 -1.7268 -0.2210
 2289SOL    HW3 9155   3.388   4.233   3.531  0.6928  0.5924  0.4875
 2289SOL    MW4 9156   3.396   4.186   3.604  0.2558 -0.1279  0.0824
 2290SOL     OW 9157   1.559   0.746   3.286  0.1125  0.0663  0.0525
 2290SOL    HW2 9158   1.554   0.658   3.324  0.4043 -0.3733 -0.9028
 2290SOL    HW3 9159   1.646   0.778   3.311  0.2698 -0.1857 -0.1674
 2290SOL    MW4 9160   1.570   0.738   3.295  0.1718 -0.0250 -0.1026
 2291SOL     OW 9161   3.038   3.568   4.144 -0.5212  0.2693  0.2152
 2291SOL    HW2 9162   3.089   3.631   4.194 -0.8848  1.3745 -0.7804
 2291SOL    HW3 9163   3.103   3.510   4.104 -0.1895  0.0047  1.1328
 2291SOL    MW4 9164   3.053   3.569   4.145 -0.5254  0.3802  0.2049
 2292SOL     OW 9165   3.895   0.188   4.552  0.3081  0.1812 -0.2120
 2292SOL    HW2 9166   3.965   0.185   4.487  0.1371 -0.7196 -0.3514
 2292SOL    HW3 9167   3.892   0.100   4.589  1.3308  1.0272  2.0219
 2292SOL    MW4 9168   3.904   0.176   4.548  0.4205  0.1740  0.0643
 2293SOL     OW 9169   0.717   4.579   4.349  0.6225 -0.1322  0.1144
 2293SOL    HW2 9170   0.632   4.622   4.351  0.7936  0.2551 -0.7119
 2293SOL    HW3 9171   0.727   4.549   4.259  1.4199 -0.0608  0.1745
 2293SOL    MW4 9172   0.707   4.581   4.338  0.7503 -0.0717  0.0133
 2294SOL     OW 9173   2.448   2.638   3.912  0.5288  0.3279 -0.4503
 2294SOL    HW2 9174   2.435   2.707   3.846  0.6112  1.3881  0.6343
 2294SOL    HW3 9175   2.388   2.661   3.983  0.8663 -0.4927  0.1103
 2294SOL    MW4 9176   2.438   2.650   3.913  0.5842  0.3595 -0.2332
 2295SOL     OW 9177   2.451   1.488   4.051  0.0127  0.1447  0.1091
 2295SOL    HW2 9178   2.530   1.460   4.005 -0.6213 -1.4138 -0.0721
 2295SOL    HW3 9179   2.404   1.406   4.069 -0.0728  0.7477  2.9387
 2295SOL    MW4 9180   2.455   1.473   4.048 -0.0823  0.0187  0.4585
 2296SOL     OW 9181   3.091   0.238   3.798  0.0286  0.2429  0.1675
 2296SOL    HW2 9182   3.107   0.150   3.763  1.2065  0.2353  0.6994
 2296SOL    HW3 9183   3.048   0.285   3.727 -0.1607 -0.6189 -0.2938
 2296SOL    MW4 9184   3.088   0.232   3.784  0.1590  0.1282  0.1768
 2297SOL     OW 9185   1.412   0.995   4.628 -0.3423 -0.1317  0.4468
 2297SOL    HW2 9186   1.442   0.976   4.716  1.6681  1.0780  0.0505
 2297SOL    HW3 9187   1.337   1.054   4.640  1.1391  1.6282  1.3242
 2297SOL    MW4 9188   1.406   1.001   4.641  0.1184  0.2601  0.5102
 2298SOL     OW 9189   0.100   3.527   4.832  0.3878 -0.0844  0.3486
 2298SOL    HW2 9190   0.082   3.620   4.823  0.3480 -0.1387 -0.1547
 2298SOL    HW3 9191   0.193   3.518   4.815  0.5185 -0.0529  1.0439
 2298SOL    MW4 9192   0.110   3.538   4.829  0.3998 -0.0874  0.3740
 2299SOL     OW 9193   1.946   1.816   4.677  0.0423 -0.3822 -0.5268
 2299SOL    HW2 9194   1.882   1.865   4.626 -0.8368 -0.8524  0.1248
 2299SOL    HW3 9195   1.961   1.736   4.627 -0.0576 -0.3844 -0.5531
 2299SOL    MW4 9196   1.940   1.812   4.664 -0.0869 -0.4445 -0.4443
 2300SOL     OW 9197   4.266   3.357   4.156 -0.3207  0.0525 -0.0314
 2300SOL    HW2 9198   4.223   3.434   4.120  0.4790  0.9472  0.8872
 2300SOL    HW3 9199   4.358   3.383   4.166 -0.2543 -0.6332  1.2992
 2300SOL    MW4 9200   4.273   3.371   4.153 -0.2064  0.0800  0.2654
 2301SOL     OW 9201   3.523   4.643   4.081  0.3712  0.3301 -0.1912
 2301SOL    HW2 9202   3.471   4.723   4.085  1.5838  1.0818  1.2204
 2301SOL    HW3 9203   3.507   4.608   3.994 -0.3818  1.9841 -0.7306
 2301SOL    MW4 9204   3.514   4.649   4.070  0.4318  0.6475 -0.0761
 2302SOL     OW 9205   2.372   0.062   3.281  0.4821 -0.5756 -0.2379
 2302SOL    HW2 9206   2.466   0.058   3.294  0.5965 -0.7721 -1.0959
 2302SOL    HW3 9207   2.359   0.035   3.191 -0.4741 -1.4352  0.1511
 2302SOL    MW4 9208   2.382   0.058   3.271  0.3710 -0.7149 -0.2998
 2303SOL     OW 9209   0.725   4.180   3.932  0.2977  0.1633 -0.1666
 2303SOL    HW2 9210   0.721   4.198   4.026  0.1916  2.0151 -0.5120
 2303SOL    HW3 9211   0.771   4.255   3.895 -0.9271  0.1516 -1.7694
 2303SOL    MW4 9212   0.730   4.192   3.939  0.1221  0.4061 -0.4237
 2304SOL     OW 9213   2.510   1.377   3.677 -0.0576 -0.4059  0.5048
 2304SOL    HW2 9214   2.569   1.398   3.750  0.1591 -1.2890  0.5838
 2304SOL    HW3 9215   2.423   1.372   3.717 -0.0321 -0.2473  0.5832
 2304SOL    MW4 9216   2.507   1.379   3.692 -0.0257 -0.5015  0.5256
 2305SOL     OW 9217   1.498   3.435   3.688  0.3892 -0.3448  0.0301
 2305SOL    HW2 9218   1.476   3.360   3.744 -1.2956  0.2114  0.1410
 2305SOL    HW3 9219   1.509   3.396   3.600  0.6350 -0.8833  0.2962
 2305SOL    MW4 9220   1.496   3.420   3.683  0.1993 -0.3424  0.0799
 2306SOL     OW 9221   2.863   0.760   4.104  0.3970  0.2414  0.1561
 2306SOL    HW2 9222   2.957   0.743   4.096  0.4288 -0.1311  1.2567
 2306SOL    HW3 9223   2.830   0.688   4.157 -0.7220 -0.2620 -1.1784
 2306SOL    MW4 9224   2.871   0.748   4.110  0.2535  0.1259  0.1253
 2307SOL     OW 9225   1.864   4.367   3.728 -0.1890  0.0940 -0.2935
 2307SOL    HW2 9226   1.922   4.413   3.667  0.8323  0.5119  0.9782
 2307SOL    HW3 9227   1.910   4.286   3.748 -0.1644  0.3074  0.5186
 2307SOL    MW4 9228   1.878   4.363   3.722 -0.0510  0.1773 -0.0185
 2308SOL     OW 9229   4.136   2.929   3.946  0.1373 -0.3858 -0.4241
 2308SOL    HW2 9230   4.191   2.901   3.872  0.8296  0.1809 -0.1297
 2308SOL    HW3 9231   4.192   2.988   3.997 -1.3991  1.8620 -1.2348
 2308SOL    MW4 9232   4.151   2.933   3.943  0.0259 -0.0145 -0.4923
 2309SOL     OW 9233   3.989   0.215   3.360  0.3449 -0.0063 -0.0324
 2309SOL    HW2 9234   4.061   0.238   3.301  0.8427 -1.0598  0.1655
 2309SOL    HW3 9235   3.936   0.295   3.365  2.1945  1.2003  0.8326
 2309SOL    MW4 9236   3.991   0.229   3.353  0.6546  0.0139  0.1079
 2310SOL     OW 9237   3.966   2.644   3.842  0.0715  0.1381  0.2194
 2310SOL    HW2 9238   3.937   2.701   3.770  1.6817  1.7647  0.8073
 2310SOL    HW3 9239   3.909   2.667   3.915 -0.5976 -0.4503 -0.1174
 2310SOL    MW4 9240   3.955   2.655   3.842  0.1956  0.2751  0.2525
 2311SOL     OW 9241   3.046   4.469   4.245 -0.4615 -0.6240 -0.0640
 2311SOL    HW2 9242   3.000   4.552   4.235  0.4587 -0.1704 -0.6242
 2311SOL    HW3 9243   3.089   4.475   4.330  1.1415  0.2611 -0.9102
 2311SOL    MW4 9244   3.046   4.481   4.255 -0.1286 -0.4474 -0.2495
 2312SOL     OW 9245   3.625   4.114   3.794 -0.2872  0.3731  0.0837
 2312SOL    HW2 9246   3.650   4.206   3.807 -0.5185  0.4778 -0.2060
 2312SOL    HW3 9247   3.554   4.099   3.856 -0.7717  0.6112 -0.4066
 2312SOL    MW4 9248   3.619   4.124   3.804 -0.3816  0.4184 -0.0192
 2313SOL     OW 9249   0.659   2.067   4.660 -0.3619  0.3273 -0.0937
 2313SOL    HW2 9250   0.694   2.021   4.584 -1.0873  0.8178 -0.7305
 2313SOL    HW3 9251   0.645   1.998   4.725  2.3573  0.1908  0.4192
 2313SOL    MW4 9252   0.662   2.052   4.659 -0.0988  0.3740 -0.1101
 2314SOL     OW 9253   3.648   3.869   3.643 -0.0096  0.0537  0.4299
 2314SOL    HW2 9254   3.653   3.945   3.700 -1.6141  1.3538 -1.1309
 2314SOL    HW3 9255   3.564   3.828   3.664 -0.5949  0.5167 -0.9460
 2314SOL    MW4 9256   3.638   3.873   3.653 -0.2985  0.2863  0.0424
 2315SOL     OW 9257   4.083   1.133   3.331 -0.2803 -0.2669 -0.4605
 2315SOL    HW2 9258   4.127   1.207   3.373  0.0646 -0.4509 -0.5017
 2315SOL    HW3 9259   4.123   1.056   3.370 -0.0942 -0.4376 -0.9876
 2315SOL    MW4 9260   4.094   1.133   3.342 -0.2103 -0.3137 -0.5355
 2316SOL     OW 9261   1.712   0.477   3.620 -0.7284  0.0986  0.3121
 2316SOL    HW2 9262   1.747   0.566   3.622 -0.3821 -0.0371  0.1882
 2316SOL    HW3 9263   1.708   0.454   3.527  0.2001 -0.4195  0.3983
 2316SOL    MW4 9264   1.716   0.485   3.608 -0.5602  0.0124  0.3071
 2317SOL     OW 9265   3.620   2.410   3.390  0.2331 -0.1808 -0.2718
 2317SOL    HW2 9266   3.592   2.496   3.357 -0.5840 -0.2052  0.3230
 2317SOL    HW3 9267   3.601   2.414   3.484 -0.2257 -1.1692 -0.3155
 2317SOL    MW4 9268   3.614   2.422   3.398  0.0647 -0.3144 -0.1991
 2318SOL     OW 9269   0.713   1.459   3.294 -0.2035  0.4686  0.5465
 2318SOL    HW2 9270   0.781   1.507   3.342  2.2933  0.2390 -2.5735
 2318SOL    HW3 9271   0.748   1.370   3.287 -0.4298  0.5330 -1.7589
 2318SOL    MW4 9272   0.727   1.454   3.299  0.0961  0.4468 -0.1693
 2319SOL     OW 9273   3.238   2.676   4.324  0.0075  0.3886 -0.2468
 2319SOL    HW2 9274   3.211   2.723   4.246 -2.3683 -0.7384 -0.1622
 2319SOL    HW3 9275   3.170   2.697   4.389 -0.1687 -1.7519  0.3004
 2319SOL    MW4 9276   3.225   2.685   4.323 -0.3292 -0.0425 -0.1635
 2320SOL     OW 9277   1.130   2.046   4.579 -0.0326  0.1116 -0.3651
 2320SOL    HW2 9278   1.148   2.041   4.485 -0.8449  0.0689 -0.5222
 2320SOL    HW3 9279   1.087   2.131   4.591  0.2960  0.2286  0.0099
 2320SOL    MW4 9280   1.127   2.057   4.568 -0.0964  0.1214 -0.3364
 2321SOL     OW 9281   3.220   2.446   4.027  0.0109 -0.2998  0.0770
 2321SOL    HW2 9282   3.249   2.418   4.114 -0.6448  0.0401  0.4121
 2321SOL    HW3 9283   3.136   2.490   4.043  0.4273  0.7577 -0.5912
 2321SOL    MW4 9284   3.213   2.448   4.041 -0.0207 -0.1154  0.0331
 2322SOL     OW 9285   3.199   1.639   4.206 -0.3520  0.0213 -0.3155
 2322SOL    HW2 9286   3.278   1.620   4.155  0.7477  0.7712  1.0512
 2322SOL    HW3 9287   3.130   1.650   4.141  0.8433  0.1385 -1.5906
 2322SOL    MW4 9288   3.200   1.638   4.191 -0.0492  0.1357 -0.3034
 2323SOL     OW 9289   3.029   2.133   4.615 -0.1114 -0.3684 -0.4724
 2323SOL    HW2 9290   3.092   2.109   4.684 -1.2455 -1.0760  0.3262
 2323SOL    HW3 9291   3.004   2.049   4.576  1.0510  0.0696 -2.2447
 2323SOL    MW4 9292   3.034   2.119   4.619 -0.1077 -0.4040 -0.6009
 2324SOL     OW 9293   4.388   1.490   4.367 -0.0748 -0.3659 -0.2376
 2324SOL    HW2 9294   4.352   1.578   4.377 -1.1536 -0.8788  0.4707
 2324SOL    HW3 9295   4.317   1.431   4.393  0.7712 -1.4417 -0.2939
 2324SOL    MW4 9296   4.374   1.493   4.372 -0.1055 -0.5755 -0.1516
 2325SOL     OW 9297   3.875   2.213   3.877 -0.1232 -0.2429  0.4300
 2325SOL    HW2 9298   3.818   2.274   3.924 -0.7393  0.5822 -1.3431
 2325SOL    HW3 9299   3.963   2.243   3.897 -0.3349 -0.3652  1.6419
 2325SOL    MW4 9300   3.879   2.225   3.886 -0.2324 -0.1502  0.3560
 2326SOL     OW 9301   2.532   3.586   3.654 -0.0817  0.3042 -0.1859
 2326SOL    HW2 9302   2.536   3.664   3.710  0.5839  0.2560 -0.1590
 2326SOL    HW3 9303   2.510   3.620   3.567  0.0891  0.5133 -0.1483
 2326SOL    MW4 9304   2.530   3.601   3.650  0.0286  0.3255 -0.1774
 2327SOL     OW 9305   0.450   2.028   4.036 -0.0560 -0.2916 -0.5522
 2327SOL    HW2 9306   0.494   1.966   3.978  0.5438  0.5508 -1.0145
 2327SOL    HW3 9307   0.498   2.111   4.023 -1.0954  0.3612 -0.2477
 2327SOL    MW4 9308   0.462   2.031   4.026 -0.1140 -0.0944 -0.5730
 2328SOL     OW 9309   3.791   1.995   3.717  0.0758  0.4722  0.1831
 2328SOL    HW2 9310   3.824   2.062   3.776 -0.1756  1.1224 -0.4119
 2328SOL    HW3 9311   3.783   1.917   3.772  0.7677  0.8150  0.7759
 2328SOL    MW4 9312   3.794   1.993   3.732  0.1339  0.6032  0.1828
 2329SOL     OW 9313   0.732   3.110   4.200  0.2632  0.0937 -0.2324
 2329SOL    HW2 9314   0.765   3.170   4.268 -0.1222  1.0819 -0.9017
 2329SOL    HW3 9315   0.648   3.148   4.174 -0.9899 -1.8858  0.7992
 2329SOL    MW4 9316   0.725   3.123   4.206  0.0470 -0.0371 -0.1846
 2330SOL     OW 9317   2.216   3.215   3.442 -0.2781 -0.1637  0.4914
 2330SOL    HW2 9318   2.201   3.304   3.410  0.3705 -0.5321 -0.8560
 2330SOL    HW3 9319   2.290   3.183   3.391 -0.8233 -1.6554  0.6092
 2330SOL    MW4 9320   2.224   3.222   3.431 -0.2645 -0.4091  0.3291
 2331SOL     OW 9321   3.254   0.828   4.325  0.0152  0.0358  0.4749
 2331SOL    HW2 9322   3.348   0.808   4.328 -0.0057 -0.0344  0.6340
 2331SOL    HW3 9323   3.222   0.783   4.247 -0.3238 -1.7609  1.6353
 2331SOL    MW4 9324   3.262   0.819   4.315 -0.0323 -0.2105  0.6490
 2332SOL     OW 9325   2.339   0.120   4.284  1.0932  0.1163  0.0506
 2332SOL    HW2 9326   2.306   0.037   4.318 -0.8586 -0.0054 -2.0075
 2332SOL    HW3 9327   2.329   0.182   4.356 -0.1987 -0.7920  0.6603
 2332SOL    MW4 9328   2.333   0.117   4.298  0.6652 -0.0196 -0.1405
 2333SOL     OW 9329   3.736   3.108   4.751 -0.0126 -0.4634 -0.1092
 2333SOL    HW2 9330   3.745   3.151   4.836 -0.6137 -0.9814  0.2227
 2333SOL    HW3 9331   3.825   3.083   4.727 -0.0392 -1.9607  1.2433
 2333SOL    MW4 9332   3.749   3.111   4.759 -0.0954 -0.7293  0.1130
 2334SOL     OW 9333   0.871   0.520   3.769 -0.5393  0.6932 -0.5074
 2334SOL    HW2 9334   0.958   0.549   3.743 -0.1410 -1.0316 -1.1187
 2334SOL    HW3 9335   0.811   0.572   3.714  0.1114  1.5359 -0.4176
 2334SOL    MW4 9336   0.874   0.531   3.758 -0.4009  0.5769 -0.5762
 2335SOL     OW 9337   1.270   4.178   3.602  0.1644 -0.1892  0.2378
 2335SOL    HW2 9338   1.177   4.164   3.620  0.2365 -0.2704  0.5464
 2335SOL    HW3 9339   1.274   4.195   3.508 -0.4719  2.4933  0.6731
 2335SOL    MW4 9340   1.259   4.178   3.592  0.0899  0.1540  0.3360
 2336SOL     OW 9341   2.432   1.981   4.771  0.1059 -0.0761  0.1074
 2336SOL    HW2 9342   2.357   1.937   4.732 -0.3797  1.6640 -0.9592
 2336SOL    HW3 9343   2.406   1.999   4.862 -0.6328  0.2214 -0.1665
 2336SOL    MW4 9344   2.419   1.978   4.778 -0.0556  0.1928 -0.0695
 2337SOL     OW 9345   0.443   0.740   4.313  0.2286  0.5511  0.0166
 2337SOL    HW2 9346   0.437   0.804   4.243  1.1478  0.7618  0.1204
 2337SOL    HW3 9347   0.364   0.754   4.365 -0.2924  0.6161 -0.7789
 2337SOL    MW4 9348   0.432   0.750   4.311  0.2811  0.5875 -0.0747
 2338SOL     OW 9349   1.339   0.337   3.277  0.2678  0.4649 -0.5361
 2338SOL    HW2 9350   1.250   0.352   3.310  0.1513 -0.0427 -0.6251
 2338SOL    HW3 9351   1.356   0.245   3.293  0.7843  0.5614 -0.5176
 2338SOL    MW4 9352   1.329   0.327   3.283  0.3206  0.4107 -0.5454
 2339SOL     OW 9353   3.828   2.249   3.354  0.2635 -0.1612  0.7018
 2339SOL    HW2 9354   3.746   2.297   3.361  0.2111 -0.0210 -0.6950
 2339SOL    HW3 9355   3.805   2.159   3.378 -0.3871 -0.2008 -0.0633
 2339SOL    MW4 9356   3.814   2.243   3.358  0.1707 -0.1479  0.4165
 2340SOL     OW 9357   2.358   4.090   3.967  0.0775 -0.3461 -0.1621
 2340SOL    HW2 9358   2.412   4.043   4.031  0.9078 -0.8045 -1.1772
 2340SOL    HW3 9359   2.413   4.164   3.939 -0.1392 -0.3499 -0.6053
 2340SOL    MW4 9360   2.373   4.094   3.972  0.1585 -0.4071 -0.3545
 2341SOL     OW 9361   1.417   2.841   3.332  1.0995  0.0494 -0.2794
 2341SOL    HW2 9362   1.360   2.917   3.328  1.1186  0.0265 -0.9756
 2341SOL    HW3 9363   1.414   2.803   3.244 -0.4120 -1.8405  0.5316
 2341SOL    MW4 9364   1.409   2.846   3.320  0.9026 -0.2030 -0.2643
 2342SOL     OW 9365   1.620   4.500   3.737  0.0100  0.4942 -0.0341
 2342SOL    HW2 9366   1.602   4.549   3.817 -0.3103  1.5115 -0.7288
 2342SOL    HW3 9367   1.705   4.458   3.753  1.0562  2.5478 -0.0287
 2342SOL    MW4 9368   1.629   4.501   3.749  0.1058  0.8994 -0.1250
 2343SOL     OW 9369   3.270   3.934   3.563 -0.2399  0.3242 -0.0082
 2343SOL    HW2 9370   3.295   4.025   3.576  0.2639  0.1675  0.1408
 2343SOL    HW3 9371   3.266   3.923   3.468  1.5139  0.0182 -0.0571
 2343SOL    MW4 9372   3.272   3.944   3.552  0.0580  0.2632  0.0050
 2344SOL     OW 9373   1.009   4.334   3.358 -0.2094  0.0497  0.6196
 2344SOL    HW2 9374   0.940   4.285   3.313 -0.4205  0.9409 -0.0355
 2344SOL    HW3 9375   1.091   4.296   3.326 -0.3728  0.0557  0.1916
 2344SOL    MW4 9376   1.011   4.323   3.348 -0.2588  0.1681  0.4767
 2345SOL     OW 9377   0.042   2.727   4.114  0.4161 -0.0411  0.1008
 2345SOL    HW2 9378  -0.025   2.661   4.096 -0.4671  0.5369  1.1757
 2345SOL    HW3 9379   0.125   2.679   4.108 -0.1047 -0.8586 -0.8272
 2345SOL    MW4 9380   0.044   2.712   4.111  0.2309 -0.0727  0.1202
 2346SOL     OW 9381   2.476   1.268   3.401  0.0665  0.1415 -0.4621
 2346SOL    HW2 9382   2.488   1.341   3.339 -1.3290 -0.5027 -1.5291
 2346SOL    HW3 9383   2.484   1.309   3.487 -1.8375  1.8033 -1.0200
 2346SOL    MW4 9384   2.479   1.283   3.404 -0.3688  0.2757 -0.6765
 2347SOL     OW 9385   2.994   1.659   4.028 -0.8388 -0.1715 -0.4418
 2347SOL    HW2 9386   2.975   1.752   4.027 -0.3627 -0.0685 -1.5357
 2347SOL    HW3 9387   2.949   1.625   3.950  0.8278 -0.4503 -1.3224
 2347SOL    MW4 9388   2.986   1.667   4.017 -0.5561 -0.1947 -0.7023
 2348SOL     OW 9389   0.772   0.905   3.583  0.4764 -0.1175  0.2325
 2348SOL    HW2 9390   0.850   0.892   3.637  1.5145 -1.7244 -1.5818
 2348SOL    HW3 9391   0.730   0.819   3.581 -1.6240  0.8472  1.5769
 2348SOL    MW4 9392   0.777   0.892   3.590  0.3362 -0.2023  0.1705
 2349SOL     OW 9393   2.883   1.559   3.790 -0.0142 -0.0407  0.1564
 2349SOL    HW2 9394   2.919   1.482   3.747  1.2804  0.4809  0.2842
 2349SOL    HW3 9395   2.821   1.595   3.727  0.0529 -0.6689 -0.2710
 2349SOL    MW4 9396   2.880   1.553   3.776  0.1655 -0.0548  0.1169
 2350SOL     OW 9397   3.646   3.157   4.016 -0.6353  0.1169  0.2879
 2350SOL    HW2 9398   3.722   3.209   4.040 -0.7759  0.4491  0.0257
 2350SOL    HW3 9399   3.651   3.149   3.921 -2.6021  2.8077 -0.1080
 2350SOL    MW4 9400   3.656   3.163   4.007 -0.9134  0.5158  0.2011
 2351SOL     OW 9401   0.986   3.600   4.498  0.0300  0.2602  0.5227
 2351SOL    HW2 9402   0.891   3.595   4.484 -0.1868  1.6400  1.3919
 2351SOL    HW3 9403   1.004   3.693   4.508  1.6041  0.0728 -0.3751
 2351SOL    MW4 9404   0.976   3.612   4.497  0.2091  0.4175  0.5189
 2352SOL     OW 9405   4.292   0.580   3.571  0.2207  0.2253  0.2067
 2352SOL    HW2 9406   4.377   0.593   3.613  0.0791 -2.3716  1.3785
 2352SOL    HW3 9407   4.313   0.541   3.486  0.1770 -0.8795  0.7027
 2352SOL    MW4 9408   4.306   0.576   3.565  0.1962 -0.2631  0.4268
 2353SOL     OW 9409   1.994   3.636   3.431 -0.0835 -0.1220  0.0855
 2353SOL    HW2 9410   1.910   3.611   3.394 -0.1537 -0.9009  0.7579
 2353SOL    HW3 9411   1.972   3.690   3.507  0.0536  1.1681 -0.7737
 2353SOL    MW4 9412   1.980   3.640   3.437 -0.0747 -0.0546  0.0608
 2354SOL     OW 9413   0.881   2.317   4.343 -0.4641 -0.1440 -0.2159
 2354SOL    HW2 9414   0.787   2.329   4.356 -0.3104  0.2888  0.4980
 2354SOL    HW3 9415   0.917   2.309   4.431  0.2887  0.5930 -0.4485
 2354SOL    MW4 9416   0.873   2.318   4.356 -0.3445  0.0103 -0.1524
 2355SOL     OW 9417   3.457   3.349   4.164  0.5900 -0.4873 -0.3760
 2355SOL    HW2 9418   3.512   3.418   4.203  0.4803 -0.2854 -0.5847
 2355SOL    HW3 9419   3.520   3.288   4.126  0.7465 -1.1779  0.9311
 2355SOL    MW4 9420   3.473   3.350   4.164  0.5961 -0.5518 -0.2311
 2356SOL     OW 9421   1.763   0.747   3.694  0.0053 -0.2580 -0.1034
 2356SOL    HW2 9422   1.696   0.795   3.742  1.8221  0.6172  1.6046
 2356SOL    HW3 9423   1.846   0.773   3.735  1.2818 -2.3851 -1.2497
 2356SOL    MW4 9424   1.765   0.757   3.705  0.4134 -0.4232 -0.0293
 2357SOL     OW 9425   0.748   3.610   4.154 -0.0850  0.5590  0.8017
 2357SOL    HW2 9426   0.726   3.574   4.069  1.7289  0.0717  0.5336
 2357SOL    HW3 9427   0.741   3.705   4.143 -1.1911  0.4497  0.5037
 2357SOL    MW4 9428   0.744   3.618   4.142  0.0084  0.4803  0.7270
 2358SOL     OW 9429   1.367   0.494   3.621 -0.0763  0.4220 -0.0195
 2358SOL    HW2 9430   1.433   0.491   3.690 -0.5130  0.9511  0.4337
 2358SOL    HW3 9431   1.415   0.473   3.540  0.3631 -0.5527  0.4949
 2358SOL    MW4 9432   1.382   0.491   3.619 -0.0759  0.3632  0.1082
 2359SOL     OW 9433   3.830   3.703   3.773  0.2327  0.0698 -0.3984
 2359SOL    HW2 9434   3.779   3.756   3.711  2.4302  2.7963  0.0169
 2359SOL    HW3 9435   3.898   3.663   3.719 -0.2472 -0.8027 -0.3746
 2359SOL    MW4 9436   3.832   3.705   3.757  0.4593  0.3144 -0.3405
 2360SOL     OW 9437   0.357   2.420   4.220  0.6129  0.2405  0.0315
 2360SOL    HW2 9438   0.330   2.484   4.154  1.8130  0.4058 -0.3124
 2360SOL    HW3 9439   0.452   2.426   4.222  0.7683 -1.7102 -0.1779
 2360SOL    MW4 9440   0.366   2.429   4.212  0.7917  0.0049 -0.0415
 2361SOL     OW 9441   2.914   4.280   3.328  0.1712 -0.3813 -0.2025
 2361SOL    HW2 9442   2.893   4.373   3.318  0.7136 -0.2017  0.2871
 2361SOL    HW3 9443   2.831   4.235   3.313 -0.6710  0.3224  2.1584
 2361SOL    MW4 9444   2.901   4.287   3.325  0.1317 -0.2648  0.1736
 2362SOL     OW 9445   0.784   1.854   4.107 -0.5237 -0.3128  0.0282
 2362SOL    HW2 9446   0.821   1.918   4.168 -0.5187  0.7495 -1.0695
 2362SOL    HW3 9447   0.804   1.769   4.146  0.9383  0.3105  0.6716
 2362SOL    MW4 9448   0.792   1.851   4.120 -0.3301 -0.0904 -0.0317
 2363SOL     OW 9449   1.820   2.378   3.425  0.4492 -0.2627 -0.3403
 2363SOL    HW2 9450   1.839   2.372   3.519 -0.1136  0.8426 -0.1448
 2363SOL    HW3 9451   1.903   2.354   3.383  1.1985  0.8223  0.4672
 2363SOL    MW4 9452   1.834   2.374   3.432  0.4738  0.0263 -0.2080
 2364SOL     OW 9453   1.169   3.182   3.669  0.0325 -0.2404  0.4184
 2364SOL    HW2 9454   1.189   3.276   3.657  2.4466 -0.7366  0.2409
 2364SOL    HW3 9455   1.125   3.177   3.754 -1.5823  1.2341 -0.2892
 2364SOL    MW4 9456   1.166   3.194   3.678  0.1379 -0.1113  0.3016
 2365SOL     OW 9457   2.907   2.299   3.308  0.3008  0.3808  0.1731
 2365SOL    HW2 9458   2.898   2.291   3.213 -0.8319  1.7124  0.1480
 2365SOL    HW3 9459   2.886   2.212   3.342 -1.4407  0.4520 -0.6766
 2365SOL    MW4 9460   2.903   2.287   3.300 -0.0784  0.5659  0.0576
 2366SOL     OW 9461   0.120   4.272   4.203  0.1605 -0.1931  0.0792
 2366SOL    HW2 9462   0.032   4.308   4.202  0.2688  0.0753  0.1257
 2366SOL    HW3 9463   0.117   4.203   4.270  0.3412  0.7310  1.0410
 2366SOL    MW4 9464   0.108   4.267   4.212  0.1986 -0.0358  0.2123
 2367SOL     OW 9465   0.121   1.011   4.031 -0.2336 -0.5626  0.6528
 2367SOL    HW2 9466   0.134   1.106   4.034  1.9635 -0.8455  0.8443
 2367SOL    HW3 9467   0.053   0.998   3.965  0.4570  1.0655 -0.4032
 2367SOL    MW4 9468   0.114   1.022   4.023  0.1474 -0.3851  0.5388
 2368SOL     OW 9469   1.173   2.523   4.511  0.4975 -0.2273 -0.4822
 2368SOL    HW2 9470   1.243   2.543   4.574  0.3447  0.3845 -0.5050
 2368SOL    HW3 9471   1.220   2.492   4.433  0.6970 -0.7805 -0.1466
 2368SOL    MW4 9472   1.189   2.521   4.509  0.5037 -0.2195 -0.4409
 2369SOL     OW 9473   2.670   4.639   3.602 -0.2658 -0.6439 -0.4902
 2369SOL    HW2 9474   2.656   4.672   3.513 -1.1110  0.1136 -0.0888
 2369SOL    HW3 9475   2.681   4.717   3.655 -1.2867 -1.0266  0.3125
 2369SOL    MW4 9476   2.670   4.653   3.597 -0.5120 -0.5945 -0.3313
 2370SOL     OW 9477   3.889   4.071   4.117  0.8209 -0.1708 -0.2601
 2370SOL    HW2 9478   3.906   4.067   4.022  0.5143  0.8165 -0.3644
 2370SOL    HW3 9479   3.837   4.151   4.128 -1.4242 -1.6898  0.4213
 2370SOL    MW4 9480   3.885   4.081   4.106  0.4842 -0.2410 -0.1840
 2371SOL     OW 9481   2.691   3.413   3.312  0.1303 -0.1444 -0.1207
 2371SOL    HW2 9482   2.693   3.326   3.354  0.8157  0.3083  0.8102
 2371SOL    HW3 9483   2.606   3.449   3.337 -0.0726 -0.4667 -0.3405
 2371SOL    MW4 9484   2.680   3.406   3.321  0.1939 -0.1272 -0.0269
 2372SOL     OW 9485   0.469   2.305   3.671  0.2360 -0.2226  0.8768
 2372SOL    HW2 9486   0.537   2.343   3.727  0.6808 -0.0940  0.2541
 2372SOL    HW3 9487   0.413   2.256   3.732 -0.5421  1.6750  1.7479
 2372SOL    MW4 9488   0.471   2.304   3.687  0.1921  0.0447  0.9096
 2373SOL     OW 9489   0.858   3.287   3.963 -0.4474  0.3848 -0.2138
 2373SOL    HW2 9490   0.800   3.240   3.903 -1.3933  0.6365  0.4912
 2373SOL    HW3 9491   0.844   3.245   4.047 -0.8043  1.4973  0.2873
 2373SOL    MW4 9492   0.849   3.275   3.966 -0.6193  0.5648 -0.0547
 2374SOL     OW 9493   3.966   2.377   3.691 -0.1603  0.1974 -0.3127
 2374SOL    HW2 9494   3.917   2.312   3.742  0.6518  0.0519  0.2935
 2374SOL    HW3 9495   3.942   2.461   3.731  0.8587  0.0419  0.6368
 2374SOL    MW4 9496   3.956   2.379   3.703  0.0813  0.1577 -0.1074
 2375SOL     OW 9497   4.369   3.546   4.473  0.7372  0.4224  0.4922
 2375SOL    HW2 9498   4.398   3.626   4.517  0.4499  0.4411  0.6535
 2375SOL    HW3 9499   4.274   3.556   4.467  0.6482 -0.1313  0.9568
 2375SOL    MW4 9500   4.360   3.558   4.478  0.6876  0.3518  0.5747
 2376SOL     OW 9501   1.696   1.356   4.514 -0.2446 -0.4746 -0.3731
 2376SOL    HW2 9502   1.639   1.279   4.510 -0.2916 -0.5517  1.3200
 2376SOL    HW3 9503   1.757   1.336   4.585 -0.1186  0.9453 -0.0769
 2376SOL    MW4 9504   1.696   1.343   4.523 -0.2342 -0.2974 -0.1106
 2377SOL     OW 9505   2.742   0.857   3.629 -0.0979  0.0925  0.1896
 2377SOL    HW2 9506   2.662   0.816   3.663  0.0057 -0.0747  0.2340
 2377SOL    HW3 9507   2.727   0.951   3.639  0.1561  0.0289  1.2077
 2377SOL    MW4 9508   2.729   0.864   3.635 -0.0507  0.0621  0.3298
 2378SOL     OW 9509   0.067   2.543   4.511 -0.0469  0.0972 -0.3499
 2378SOL    HW2 9510   0.035   2.453   4.499 -0.5397  0.1297  0.6409
 2378SOL    HW3 9511  -0.010   2.598   4.495 -0.2963  0.2226  1.1238
 2378SOL    MW4 9512   0.053   2.538   4.508 -0.1448  0.1180 -0.0247
 2379SOL     OW 9513   4.312   2.957   4.386 -0.1205 -0.1984 -0.1590
 2379SOL    HW2 9514   4.298   2.871   4.426  1.0824  0.5881  1.9993
 2379SOL    HW3 9515   4.269   3.019   4.446  0.3361  0.8521 -0.8994
 2379SOL    MW4 9516   4.304   2.954   4.399  0.0984  0.0440  0.0281
 2380SOL     OW 9517   4.072   1.984   4.189  0.4648  0.0425  0.7710
 2380SOL    HW2 9518   4.140   1.934   4.143 -1.1694 -2.2039  0.7084
 2380SOL    HW3 9519   4.056   1.933   4.269 -2.1449 -0.2703  0.0857
 2380SOL    MW4 9520   4.079   1.970   4.193 -0.0951 -0.2952  0.6723
 2381SOL     OW 9521   4.480   3.203   3.921 -0.0392 -0.5725 -0.8385
 2381SOL    HW2 9522   4.566   3.181   3.957  0.5499  2.2893 -0.3985
 2381SOL    HW3 9523   4.419   3.149   3.972  1.0879  0.8054  2.0830
 2381SOL    MW4 9524   4.483   3.193   3.933  0.1873 -0.0131 -0.3950
 2382SOL     OW 9525   3.766   1.436   4.366 -0.2819 -0.0542  0.7368
 2382SOL    HW2 9526   3.849   1.484   4.374  0.2212 -0.9306  0.9155
 2382SOL    HW3 9527   3.705   1.500   4.330  0.6558  0.4149 -0.0651
 2382SOL    MW4 9528   3.769   1.451   4.362 -0.0918 -0.1079  0.6545
 2383SOL     OW 9529   3.691   4.369   3.897  0.0406 -0.0389 -0.3420
 2383SOL    HW2 9530   3.704   4.381   3.991 -1.2627 -1.4929  0.0541
 2383SOL    HW3 9531   3.623   4.433   3.874 -0.7693 -0.7473  0.0383
 2383SOL    MW4 9532   3.684   4.379   3.907 -0.2382 -0.3242 -0.2396
 2384SOL     OW 9533   1.414   0.261   4.007  0.8123  0.5209  0.2502
 2384SOL    HW2 9534   1.324   0.291   4.023  1.3521  2.2756  0.1212
 2384SOL    HW3 9535   1.445   0.318   3.936  2.0569 -0.0406  0.3396
 2384SOL    MW4 9536   1.406   0.272   4.000  1.0478  0.6784  0.2450
 2385SOL     OW 9537   0.384   4.278   4.057  0.3519  0.4665 -0.1933
 2385SOL    HW2 9538   0.310   4.266   4.117 -0.3318 -1.7272 -1.4195
 2385SOL    HW3 9539   0.461   4.259   4.111 -0.0899  0.9021  0.6016
 2385SOL    MW4 9540   0.385   4.274   4.072  0.2034  0.2345 -0.2502
 2386SOL     OW 9541   2.115   2.936   3.871 -0.3882 -0.2712  0.7490
 2386SOL    HW2 9542   2.160   2.983   3.801 -0.5377 -0.9051  0.2164
 2386SOL    HW3 9543   2.145   2.978   3.951 -0.2310  0.4783  0.3065
 2386SOL    MW4 9544   2.125   2.948   3.872 -0.3872 -0.2559  0.6204
 2387SOL     OW 9545   1.527   3.501   4.435  0.2405 -0.0027 -0.1883
 2387SOL    HW2 9546   1.525   3.494   4.339 -1.4155  1.6591 -0.2992
 2387SOL    HW3 9547   1.451   3.451   4.464  0.6903 -0.4284  0.2643
 2387SOL    MW4 9548   1.517   3.494   4.426  0.0814  0.1604 -0.1432
 2388SOL     OW 9549   2.830   3.634   3.847  0.0027 -0.0838  0.5349
 2388SOL    HW2 9550   2.925   3.621   3.846 -0.2929 -3.0587  2.2719
 2388SOL    HW3 9551   2.801   3.594   3.930 -2.6718  1.4836  0.4254
 2388SOL    MW4 9552   2.838   3.627   3.858 -0.3892 -0.2695  0.7497
 2389SOL     OW 9553   1.515   3.483   4.153 -0.1499 -0.2134 -0.0726
 2389SOL    HW2 9554   1.574   3.421   4.110  0.4375 -0.2698  0.8034
 2389SOL    HW3 9555   1.498   3.550   4.086 -1.2998 -1.6344 -1.2446
 2389SOL    MW4 9556   1.521   3.484   4.138 -0.2241 -0.4083 -0.1116
 2390SOL     OW 9557   2.676   3.174   3.423  0.4838  0.3718  0.1332
 2390SOL    HW2 9558   2.749   3.118   3.395 -0.0718 -0.0483 -0.5051
 2390SOL    HW3 9559   2.598   3.119   3.412  0.0850  0.7590  0.9748
 2390SOL    MW4 9560   2.675   3.159   3.418  0.3579  0.3675  0.1600
 2391SOL     OW 9561   2.652   0.001   4.347 -0.3290  0.1000 -0.2430
 2391SOL    HW2 9562   2.577  -0.040   4.305 -0.4512 -0.1056  0.1767
 2391SOL    HW3 9563   2.625   0.015   4.437 -0.0630  0.5342 -0.2294
 2391SOL    MW4 9564   2.639  -0.003   4.353 -0.3100  0.1302 -0.1859
 2392SOL     OW 9565   3.670   0.994   4.359  0.4008 -0.3290  0.6715
 2392SOL    HW2 9566   3.618   1.070   4.385 -1.3848 -1.0439 -0.6726
 2392SOL    HW3 9567   3.665   0.994   4.263  0.0554 -2.3558  0.6696
 2392SOL    MW4 9568   3.663   1.004   4.350  0.1196 -0.6907  0.4939
 2393SOL     OW 9569   4.419   0.224   4.006 -0.0111 -0.0672 -0.2142
 2393SOL    HW2 9570   4.494   0.281   3.991  2.2871 -2.8165  0.3044
 2393SOL    HW3 9571   4.368   0.228   3.925  0.8764  1.5955 -0.6962
 2393SOL    MW4 9572   4.422   0.232   3.993  0.4092 -0.2106 -0.2093
 2394SOL     OW 9573   1.794   1.224   4.180  0.0787 -0.3545  0.3552
 2394SOL    HW2 9574   1.719   1.261   4.225  0.2479 -0.6902  0.9173
 2394SOL    HW3 9575   1.757   1.183   4.101 -0.2125  0.2433  0.1824
 2394SOL    MW4 9576   1.779   1.223   4.175  0.0626 -0.3199  0.4066
 2395SOL     OW 9577   4.488   3.093   3.646  0.2495 -0.2288 -0.3872
 2395SOL    HW2 9578   4.438   3.011   3.638  0.2207 -0.2554  0.0639
 2395SOL    HW3 9579   4.487   3.112   3.740 -0.0592  0.4867 -0.5401
 2395SOL    MW4 9580   4.481   3.084   3.657  0.2050 -0.1379 -0.3479
 2396SOL     OW 9581   4.327   0.601   3.912  0.4127  0.9176  0.5152
 2396SOL    HW2 9582   4.276   0.682   3.906 -0.3684  0.4991  1.3894
 2396SOL    HW3 9583   4.331   0.583   4.006  2.0280  0.8448  0.4366
 2396SOL    MW4 9584   4.321   0.610   3.924  0.5227  0.8528  0.6202
 2397SOL     OW 9585   0.234   3.357   4.544  0.1508  0.3904  0.1801
 2397SOL    HW2 9586   0.281   3.398   4.616  0.0154  2.0945 -0.6681
 2397SOL    HW3 9587   0.144   3.348   4.576  0.0753  1.2068  0.1931
 2397SOL    MW4 9588   0.228   3.361   4.558  0.1230  0.7230  0.0699
 2398SOL     OW 9589   3.220   3.416   4.011 -0.1465 -0.0866 -0.2629
 2398SOL    HW2 9590   3.213   3.327   3.977 -1.1971 -0.4685  0.9338
 2398SOL    HW3 9591   3.299   3.415   4.065  1.0615  0.3005 -1.9920
 2398SOL    MW4 9592   3.229   3.404   4.014 -0.1257 -0.0859 -0.3331
 2399SOL     OW 9593   3.121   0.439   4.221 -0.0047  0.0858  0.3742
 2399SOL    HW2 9594   3.114   0.360   4.167 -0.2924  1.9134 -2.4129
 2399SOL    HW3 9595   3.173   0.412   4.297 -1.7756 -3.2278  0.4766
 2399SOL    MW4 9596   3.127   0.425   4.224 -0.2763 -0.1103  0.0200
 2400SOL     OW 9597   1.368   2.414   3.379  0.0370  0.3229  0.7295
 2400SOL    HW2 9598   1.448   2.377   3.343  1.4927  2.9238  1.1659
 2400SOL    HW3 9599   1.299   2.351   3.356  2.0127 -1.3797 -0.6339
 2400SOL    MW4 9600   1.369   2.401   3.371  0.4898  0.4414  0.6072
 2401SOL     OW 9601   0.491   2.187   4.461 -0.6365  0.4811 -0.1269
 2401SOL    HW2 9602   0.547   2.160   4.534 -0.8380  1.7474  0.5104
 2401SOL    HW3 9603   0.490   2.111   4.403 -0.6459 -0.6158  1.2769
 2401SOL    MW4 9604   0.499   2.173   4.463 -0.6643  0.5035  0.1424
 2402SOL     OW 9605   0.200   0.287   3.890 -0.6641  0.5585  0.0654
 2402SOL    HW2 9606   0.274   0.229   3.911 -1.2385 -0.3024 -0.3083
 2402SOL    HW3 9607   0.229   0.373   3.920  0.1303  0.0561  0.7673
 2402SOL    MW4 9608   0.214   0.291   3.897 -0.6351  0.3787  0.1087
 2403SOL     OW 9609   3.473   1.637   3.670  0.3850 -0.0923  0.0671
 2403SOL    HW2 9610   3.388   1.649   3.711  0.5143  1.3313 -0.0656
 2403SOL    HW3 9611   3.507   1.556   3.709 -0.5666 -0.1046  0.8928
 2403SOL    MW4 9612   3.467   1.628   3.680  0.2765  0.0939  0.1585
 2404SOL     OW 9613   2.026   2.799   3.471  0.6112  0.0739 -0.4195
 2404SOL    HW2 9614   2.108   2.758   3.441  1.2318  0.3302  0.9099
 2404SOL    HW3 9615   1.960   2.730   3.460  0.9667 -0.1029 -1.5978
 2404SOL    MW4 9616   2.028   2.784   3.465  0.7400  0.0844 -0.3996
 2405SOL     OW 9617   1.871   4.001   3.925  0.1264 -0.1383 -0.2060
 2405SOL    HW2 9618   1.918   3.999   4.008 -0.2348 -1.5427 -0.0275
 2405SOL    HW3 9619   1.931   4.046   3.865  0.9962 -0.4146  0.4423
 2405SOL    MW4 9620   1.885   4.007   3.928  0.1935 -0.3600 -0.0969
 2406SOL     OW 9621   3.277   2.571   3.745  0.0242 -0.7853  0.1711
 2406SOL    HW2 9622   3.283   2.571   3.840 -0.5084 -0.1683  0.2077
 2406SOL    HW3 9623   3.282   2.478   3.720 -1.6180 -1.0835  0.9118
 2406SOL    MW4 9624   3.279   2.559   3.754 -0.2628 -0.7433  0.2737
 2407SOL     OW 9625   0.340   2.871   4.382 -0.0182 -0.0795 -0.0020
 2407SOL    HW2 9626   0.251   2.897   4.357  0.0444  0.1758  0.0448
 2407SOL    HW3 9627   0.331   2.780   4.411 -0.0005 -0.5845 -1.5226
 2407SOL    MW4 9628   0.327   2.862   4.382 -0.0076 -0.1124 -0.1965
 2408SOL     OW 9629   2.007   4.470   4.573 -0.3422 -0.2630  0.1289
 2408SOL    HW2 9630   1.937   4.438   4.516  0.3288 -1.0839 -0.2430
 2408SOL    HW3 9631   1.977   4.449   4.661 -0.3833 -0.9827 -0.0523
 2408SOL    MW4 9632   1.994   4.463   4.577 -0.2591 -0.4663  0.0559
 2409SOL     OW 9633   0.716   2.038   3.430 -0.0608 -0.4011  0.0634
 2409SOL    HW2 9634   0.723   2.120   3.381 -0.2143  0.2884  1.1851
 2409SOL    HW3 9635   0.638   1.996   3.394 -0.4539  0.3290  0.0504
 2409SOL    MW4 9636   0.706   2.043   3.418 -0.1329 -0.2138  0.2097
 2410SOL     OW 9637   1.912   0.676   4.085 -0.4148  0.5909  0.1712
 2410SOL    HW2 9638   1.948   0.598   4.127 -0.8521 -0.2338 -0.9798
 2410SOL    HW3 9639   1.824   0.650   4.056 -0.3111  1.3076 -0.8217
 2410SOL    MW4 9640   1.905   0.663   4.087 -0.4588  0.5767 -0.1117
 2411SOL     OW 9641   4.402   3.895   4.005 -0.2649  0.5615  0.7835
 2411SOL    HW2 9642   4.310   3.866   4.005  0.3369 -1.5595 -1.4629
 2411SOL    HW3 9643   4.451   3.815   4.026  1.1683  1.1943 -0.1400
 2411SOL    MW4 9644   4.396   3.880   4.008  0.0036  0.3652  0.3653
 2412SOL     OW 9645   4.379   1.020   3.828  0.4460 -0.2262  0.5803
 2412SOL    HW2 9646   4.440   0.981   3.765 -0.4077 -0.1482 -0.3061
 2412SOL    HW3 9647   4.366   1.109   3.797  0.3132 -0.0734  1.0783
 2412SOL    MW4 9648   4.385   1.026   3.815  0.3159 -0.1957  0.5290
 2413SOL     OW 9649   2.456   4.288   3.442  0.2015  0.0559  0.5494
 2413SOL    HW2 9650   2.449   4.354   3.510  0.1566 -0.6090  1.1956
 2413SOL    HW3 9651   2.447   4.205   3.488  1.4415 -0.4491 -0.0959
 2413SOL    MW4 9652   2.454   4.286   3.457  0.3592 -0.0984  0.5495
 2414SOL     OW 9653   3.802   4.405   3.405 -0.1634  0.2401  0.5072
 2414SOL    HW2 9654   3.876   4.353   3.373 -1.0107 -0.2380 -0.7196
 2414SOL    HW3 9655   3.798   4.479   3.345 -0.4740  0.4400  0.7761
 2414SOL    MW4 9656   3.811   4.408   3.393 -0.3162  0.2034  0.3808
 2415SOL     OW 9657   4.272   1.297   3.452 -0.5323  0.3860 -0.8404
 2415SOL    HW2 9658   4.291   1.384   3.418  0.4998  0.1556 -0.8647
 2415SOL    HW3 9659   4.347   1.243   3.425  0.0878  0.0907  1.3525
 2415SOL    MW4 9660   4.285   1.301   3.444 -0.3143  0.3167 -0.5543
 2416SOL     OW 9661   2.975   1.503   3.342  0.0337 -0.3502 -0.6401
 2416SOL    HW2 9662   3.047   1.548   3.387 -1.3616  0.9829  0.3098
 2416SOL    HW3 9663   2.976   1.414   3.378 -0.2970  0.3559  1.1581
 2416SOL    MW4 9664   2.985   1.497   3.353 -0.1940 -0.0811 -0.2775
 2417SOL     OW 9665   2.205   1.018   4.495 -0.1238 -0.0316  0.2789
 2417SOL    HW2 9666   2.273   1.077   4.461 -0.1026 -0.6043 -0.6944
 2417SOL    HW3 9667   2.123   1.059   4.469 -0.1521  0.5716  1.3053
 2417SOL    MW4 9668   2.203   1.031   4.487 -0.1248 -0.0276  0.2859
 2418SOL     OW 9669   2.628   1.883   3.729 -0.7232 -0.6396  0.0685
 2418SOL    HW2 9670   2.641   1.796   3.690 -1.4615 -0.8997  0.3895
 2418SOL    HW3 9671   2.626   1.866   3.824 -0.0494 -0.1574  0.1766
 2418SOL    MW4 9672   2.630   1.869   3.737 -0.7317 -0.6103  0.1251
 2419SOL     OW 9673   0.168   1.936   4.226  0.0978 -0.1967 -0.0635
 2419SOL    HW2 9674   0.175   1.855   4.176  1.2463 -0.5259  0.6155
 2419SOL    HW3 9675   0.258   1.969   4.231 -0.2923  0.8498  0.0945
 2419SOL    MW4 9676   0.181   1.929   4.220  0.1979 -0.1021  0.0469
 2420SOL     OW 9677   2.274   1.111   3.005 -0.6240 -0.0296  0.1689
 2420SOL    HW2 9678   2.283   1.107   3.100  1.4388  0.1275 -0.0058
 2420SOL    HW3 9679   2.267   1.019   2.978 -0.7243 -0.0978  0.4218
 2420SOL    MW4 9680   2.274   1.098   3.014 -0.3651 -0.0178  0.1792
 2421SOL     OW 9681   3.400   3.062   3.345  0.1244 -0.0980 -0.3774
 2421SOL    HW2 9682   3.387   2.968   3.356 -0.4888 -0.0988 -1.0869
 2421SOL    HW3 9683   3.315   3.100   3.369  1.2558  0.5116  2.9112
 2421SOL    MW4 9684   3.387   3.055   3.350  0.1928 -0.0177 -0.0371
 2422SOL     OW 9685   0.468   1.968   4.293  0.0782  0.1771  0.0589
 2422SOL    HW2 9686   0.492   1.876   4.299  0.6392  0.2870 -0.4445
 2422SOL    HW3 9687   0.465   1.987   4.200  1.3003  0.9991  0.1678
 2422SOL    MW4 9688   0.471   1.958   4.282  0.3134  0.3000  0.0068
 2423SOL     OW 9689   3.868   0.400   3.681  0.2377 -0.3132  0.2334
 2423SOL    HW2 9690   3.819   0.338   3.736  0.6224 -0.6390  0.2148
 2423SOL    HW3 9691   3.944   0.423   3.734  0.1715  0.0370  0.1805
 2423SOL    MW4 9692   3.871   0.395   3.696  0.2797 -0.3100  0.2240
 2424SOL     OW 9693   0.393   0.901   4.071  0.2896  0.2206  0.3029
 2424SOL    HW2 9694   0.429   0.990   4.069 -0.2018  0.4568  1.2251
 2424SOL    HW3 9695   0.298   0.914   4.064  0.2810 -0.2903 -0.4963
 2424SOL    MW4 9696   0.385   0.915   4.070  0.2236  0.1844  0.3192
 2425SOL     OW 9697   2.018   2.018   3.395 -0.2016  0.5581 -0.2451
 2425SOL    HW2 9698   1.944   1.958   3.384 -0.1632  0.3561  0.5730
 2425SOL    HW3 9699   2.038   2.015   3.488  0.1386  1.4516 -0.2839
 2425SOL    MW4 9700   2.011   2.010   3.406 -0.1517  0.6493 -0.1423
 2426SOL     OW 9701   3.705   2.401   3.973 -0.5045  0.6514 -0.1430
 2426SOL    HW2 9702   3.741   2.485   4.003  0.5522 -0.1002  0.7039
 2426SOL    HW3 9703   3.651   2.370   4.046 -0.3740  0.2814 -0.2034
 2426SOL    MW4 9704   3.703   2.408   3.986 -0.3479  0.5034 -0.0392
 2427SOL     OW 9705   3.284   0.391   4.448 -0.4676 -0.5070 -0.0494
 2427SOL    HW2 9706   3.227   0.455   4.492 -0.6790  0.2612 -1.4325
 2427SOL    HW3 9707   3.372   0.428   4.456 -0.2559 -1.2738  1.3304
 2427SOL    MW4 9708   3.288   0.404   4.455 -0.4676 -0.5068 -0.0498
 2428SOL     OW 9709   2.589   2.047   4.562 -0.5809  0.4835 -0.0003
 2428SOL    HW2 9710   2.518   2.026   4.622  0.8519 -0.9200  1.2279
 2428SOL    HW3 9711   2.602   1.967   4.511 -0.1862  0.8963 -0.5509
 2428SOL    MW4 9712   2.581   2.034   4.563 -0.3398  0.3528  0.0891
 2429SOL     OW 9713   1.117   3.501   3.419  0.0145 -0.2911 -0.5232
 2429SOL    HW2 9714   1.191   3.473   3.364  0.8214  0.5869  0.0842
 2429SOL    HW3 9715   1.150   3.493   3.509 -0.7269 -0.1498 -0.2342
 2429SOL    MW4 9716   1.131   3.496   3.424  0.0231 -0.1566 -0.4049
 2430SOL     OW 9717   4.256   4.393   3.366 -0.1648  0.1297 -0.4411
 2430SOL    HW2 9718   4.342   4.370   3.331 -1.0107 -0.9078 -1.8797
 2430SOL    HW3 9719   4.272   4.411   3.459  1.4466 -0.8897 -0.5018
 2430SOL    MW4 9720   4.269   4.393   3.374 -0.0638 -0.1417 -0.6389
 2431SOL     OW 9721   1.093   0.218   4.235  0.0518 -0.2116 -0.3352
 2431SOL    HW2 9722   1.172   0.210   4.289 -0.5472 -0.2535  0.5478
 2431SOL    HW3 9723   1.087   0.134   4.190  0.8868  0.0422 -0.9310
 2431SOL    MW4 9724   1.103   0.205   4.236  0.0830 -0.1837 -0.2973
 2432SOL     OW 9725   3.403   2.253   3.297  0.2416 -0.3616  0.2574
 2432SOL    HW2 9726   3.384   2.185   3.362 -0.5129 -0.7457 -0.3699
 2432SOL    HW3 9727   3.483   2.295   3.330  0.1189 -0.8520  1.1974
 2432SOL    MW4 9728   3.411   2.250   3.310  0.1258 -0.4770  0.2986
 2433SOL     OW 9729   2.404   2.862   4.524  0.0941 -0.2781 -0.2338
 2433SOL    HW2 9730   2.382   2.790   4.465  0.6923 -0.5479 -0.1304
 2433SOL    HW3 9731   2.343   2.851   4.598 -1.2712  0.6041 -1.2131
 2433SOL    MW4 9732   2.393   2.851   4.526 -0.0071 -0.1973 -0.3494
 2434SOL     OW 9733   3.596   3.943   3.361 -0.4453 -0.2107  0.0817
 2434SOL    HW2 9734   3.594   3.935   3.457  1.3498 -0.5967  0.0957
 2434SOL    HW3 9735   3.601   4.037   3.345 -1.2847 -0.1150  0.3460
 2434SOL    MW4 9736   3.596   3.954   3.372 -0.3192 -0.2490  0.1184
 2435SOL     OW 9737   0.898   2.054   4.276 -0.0367 -0.4972  0.1799
 2435SOL    HW2 9738   0.887   2.145   4.304  0.0916 -0.0323 -1.2378
 2435SOL    HW3 9739   0.992   2.040   4.275 -0.0207 -0.3459 -0.5311
 2435SOL    MW4 9740   0.909   2.064   4.280 -0.0177 -0.4159 -0.1010
 2436SOL     OW 9741   1.363   0.915   3.647 -0.2135 -0.0922 -0.2765
 2436SOL    HW2 9742   1.336   0.875   3.564  1.1342 -0.1728 -0.6918
 2436SOL    HW3 9743   1.324   0.861   3.714 -0.1119 -0.8931 -0.8593
 2436SOL    MW4 9744   1.355   0.903   3.645 -0.0223 -0.2085 -0.4082
 2437SOL     OW 9745   0.192   3.871   4.567  0.1565 -0.6513  0.2189
 2437SOL    HW2 9746   0.283   3.895   4.557 -0.2453  0.2109 -1.4567
 2437SOL    HW3 9747   0.171   3.821   4.488 -0.5410 -1.7573  1.0760
 2437SOL    MW4 9748   0.201   3.867   4.555  0.0115 -0.6835  0.1109
 2438SOL     OW 9749   0.378   4.235   4.491 -0.2831  0.1471  0.1293
 2438SOL    HW2 9750   0.331   4.318   4.488 -1.1000 -0.2822  0.7308
 2438SOL    HW3 9751   0.471   4.260   4.489 -0.5258  0.9978 -1.1162
 2438SOL    MW4 9752   0.384   4.249   4.490 -0.4229  0.2027  0.0443
 2439SOL     OW 9753   0.741   2.841   3.443  0.0574  0.2886 -0.3465
 2439SOL    HW2 9754   0.664   2.787   3.427 -0.5321  0.5395  1.4594
 2439SOL    HW3 9755   0.717   2.928   3.411 -0.1083  0.1779 -0.5204
 2439SOL    MW4 9756   0.728   2.846   3.437 -0.0423  0.3071 -0.1312
 2440SOL     OW 9757   1.515   1.597   4.572  0.7690  0.1622  0.3465
 2440SOL    HW2 9758   1.537   1.680   4.614  0.7100  0.5447 -0.3617
 2440SOL    HW3 9759   1.594   1.544   4.580  0.1389 -0.4960  2.6457
 2440SOL    MW4 9760   1.528   1.601   4.579  0.6781  0.1259  0.5564
 2441SOL     OW 9761   1.591   2.262   3.330 -0.1174  0.1586  0.1878
 2441SOL    HW2 9762   1.599   2.255   3.235 -0.0864  1.1518  0.1187
 2441SOL    HW3 9763   1.667   2.312   3.358 -0.4461  0.3990  0.6674
 2441SOL    MW4 9764   1.602   2.268   3.321 -0.1567  0.3214  0.2420
 2442SOL     OW 9765   1.147   2.250   3.302 -0.0014 -0.3694  0.4475
 2442SOL    HW2 9766   1.128   2.158   3.317  0.3321 -0.3702  0.8713
 2442SOL    HW3 9767   1.075   2.297   3.344  0.0393 -0.4233  0.5765
 2442SOL    MW4 9768   1.135   2.244   3.309  0.0480 -0.3766  0.5204
 2443SOL     OW 9769   1.688   0.410   4.250  0.0809  0.1532 -0.7928
 2443SOL    HW2 9770   1.596   0.385   4.264  0.2203 -0.3836 -0.8341
 2443SOL    HW3 9771   1.730   0.329   4.219  0.7636  0.1728  0.0860
 2443SOL    MW4 9772   1.681   0.396   4.248  0.1894  0.0850 -0.6823
 2444SOL     OW 9773   4.363   0.124   4.440  0.0910  0.2805 -0.6748
 2444SOL    HW2 9774   4.275   0.088   4.435  0.6883 -1.1040 -1.4038
 2444SOL    HW3 9775   4.353   0.215   4.412 -1.3399  0.5754  0.7053
 2444SOL    MW4 9776   4.350   0.131   4.436 -0.0190  0.1368 -0.5889
 2445SOL     OW 9777   4.488   0.175   3.251 -0.0355  0.4817  0.1882
 2445SOL    HW2 9778   4.483   0.249   3.191  1.5545  0.6276  0.2073
 2445SOL    HW3 9779   4.409   0.125   3.234  1.8548 -1.2314 -4.3294
 2445SOL    MW4 9780   4.477   0.178   3.241  0.4237  0.2749 -0.4053
 2446SOL     OW 9781   3.410   1.998   3.876  0.1985 -0.4445 -0.0665
 2446SOL    HW2 9782   3.466   2.035   3.808 -0.1632  1.5772  0.6900
 2446SOL    HW3 9783   3.326   2.044   3.866 -0.3074 -1.1526  0.8249
 2446SOL    MW4 9784   3.406   2.009   3.866  0.0841 -0.2712  0.1509
 2447SOL     OW 9785   1.204   1.157   4.684 -0.5049  0.1515  0.0060
 2447SOL    HW2 9786   1.137   1.097   4.652 -1.0439  0.5562  0.3623
 2447SOL    HW3 9787   1.177   1.243   4.650 -0.0446  0.2800 -0.0400
 2447SOL    MW4 9788   1.192   1.161   4.675 -0.5153  0.2219  0.0469
 2448SOL     OW 9789   2.451   3.334   3.775  0.4374 -0.0146  0.0082
 2448SOL    HW2 9790   2.480   3.410   3.724 -1.5881  0.5187 -0.4123
 2448SOL    HW3 9791   2.478   3.354   3.865  0.9507  0.6518 -0.2884
 2448SOL    MW4 9792   2.459   3.347   3.780  0.2379  0.1437 -0.0864
 2449SOL     OW 9793   0.163   1.964   3.670  0.0061 -0.0837 -0.2006
 2449SOL    HW2 9794   0.163   1.874   3.705  1.3001 -0.4780 -1.1801
 2449SOL    HW3 9795   0.200   2.017   3.741  0.5206 -0.5392 -0.1231
 2449SOL    MW4 9796   0.168   1.959   3.684  0.2447 -0.1958 -0.3196
 2450SOL     OW 9797   1.287   3.100   3.414  0.4172  0.2907 -0.6772
 2450SOL    HW2 9798   1.268   3.140   3.499  0.3969 -0.8564 -0.1403
 2450SOL    HW3 9799   1.211   3.122   3.360 -0.9721 -1.5230  0.4987
 2450SOL    MW4 9800   1.274   3.108   3.418  0.2313 -0.0999 -0.4512
 2451SOL     OW 9801   1.179   1.299   3.517 -0.1834  0.1341  0.2513
 2451SOL    HW2 9802   1.155   1.366   3.454  0.3625 -1.0118 -1.2096
 2451SOL    HW3 9803   1.096   1.276   3.560 -0.8192 -0.0334 -1.0254
 2451SOL    MW4 9804   1.165   1.305   3.514 -0.1953 -0.0392 -0.1099
 2452SOL     OW 9805   0.146   1.066   4.303  0.1987 -0.1750  0.3319
 2452SOL    HW2 9806   0.227   1.116   4.301  0.6357 -0.9219 -0.7540
 2452SOL    HW3 9807   0.126   1.048   4.211 -0.7542 -0.7150  0.6340
 2452SOL    MW4 9808   0.154   1.070   4.291  0.1306 -0.3448  0.2285
 2453SOL     OW 9809   2.145   2.541   4.480  0.3474  0.7529 -0.0661
 2453SOL    HW2 9810   2.080   2.472   4.498 -0.3047  1.4715  0.3501
 2453SOL    HW3 9811   2.112   2.584   4.402 -0.5913  2.2128  1.1109
 2453SOL    MW4 9812   2.132   2.537   4.472  0.1375  1.0403  0.1441
 2454SOL     OW 9813   1.349   0.100   4.400 -0.5553 -0.0790  0.3251
 2454SOL    HW2 9814   1.290   0.025   4.396  0.1076 -0.5631 -0.4127
 2454SOL    HW3 9815   1.434   0.066   4.372 -0.0756  0.7708  0.7186
 2454SOL    MW4 9816   1.352   0.086   4.396 -0.4045 -0.0307  0.2797
 2455SOL     OW 9817   0.678   1.584   3.845 -0.1550 -0.4249  0.1509
 2455SOL    HW2 9818   0.691   1.678   3.848  0.3797 -0.4688 -0.8856
 2455SOL    HW3 9819   0.590   1.573   3.807 -0.1596 -0.3524  0.1409
 2455SOL    MW4 9820   0.668   1.595   3.840 -0.0851 -0.4211  0.0129
 2456SOL     OW 9821   1.956   1.449   4.104  0.1439 -0.0741  0.1594
 2456SOL    HW2 9822   1.891   1.394   4.146 -1.5789  1.6857 -0.1339
 2456SOL    HW3 9823   1.954   1.531   4.154 -0.4005  1.2666 -2.0080
 2456SOL    MW4 9824   1.947   1.453   4.116 -0.1553  0.3350 -0.1653
 2457SOL     OW 9825   3.666   3.995   4.399 -0.1480  0.0140 -0.2083
 2457SOL    HW2 9826   3.602   4.033   4.338 -0.2829  0.4401  0.1929
 2457SOL    HW3 9827   3.713   4.071   4.434 -0.0457 -0.2353  0.1877
 2457SOL    MW4 9828   3.663   4.010   4.395 -0.1523  0.0373 -0.1031
 2458SOL     OW 9829   0.863   3.915   3.889 -0.3276 -0.5476 -0.5461
 2458SOL    HW2 9830   0.823   3.994   3.852  0.8451  0.4019  0.1602
 2458SOL    HW3 9831   0.822   3.905   3.974  2.3415  1.6233  1.0721
 2458SOL    MW4 9832   0.852   3.924   3.895  0.1793 -0.1359 -0.2394
 2459SOL     OW 9833   3.363   0.083   4.416 -0.4251  0.3219 -0.2847
 2459SOL    HW2 9834   3.335   0.165   4.457  1.0806  0.1815  1.0816
 2459SOL    HW3 9835   3.459   0.089   4.413 -0.4173 -0.4238 -2.2363
 2459SOL    MW4 9836   3.372   0.095   4.421 -0.2254  0.2050 -0.3619
 2460SOL     OW 9837   4.456   1.176   4.499 -0.0117  0.0529 -0.2472
 2460SOL    HW2 9838   4.505   1.166   4.581 -1.1169 -0.8512  0.3306
 2460SOL    HW3 9839   4.518   1.150   4.431  0.8728  0.6745  0.3152
 2460SOL    MW4 9840   4.470   1.171   4.501 -0.0408  0.0156 -0.0968
 2461SOL     OW 9841   3.391   0.738   3.366 -0.4020 -0.1275 -0.1204
 2461SOL    HW2 9842   3.480   0.755   3.398 -0.8688  1.2047  0.4917
 2461SOL    HW3 9843   3.379   0.644   3.378  0.2772 -0.0187  1.4746
 2461SOL    MW4 9844   3.402   0.728   3.372 -0.3740  0.0626  0.1708
 2462SOL     OW 9845   1.029   1.629   4.449  0.5952 -0.3503 -0.3962
 2462SOL    HW2 9846   0.993   1.697   4.505  0.3126 -0.8399  0.0180
 2462SOL    HW3 9847   1.124   1.639   4.456  0.5584  0.3462 -0.7667
 2462SOL    MW4 9848   1.036   1.639   4.457  0.5530 -0.3230 -0.3905
 2463SOL     OW 9849   3.143   0.850   3.481  0.2488 -0.0826  0.0807
 2463SOL    HW2 9850   3.223   0.823   3.437 -0.8837  1.5967 -3.2112
 2463SOL    HW3 9851   3.139   0.945   3.468 -1.5980  0.0419  1.3396
 2463SOL    MW4 9852   3.153   0.859   3.474 -0.1443  0.1554 -0.1875
 2464SOL     OW 9853   0.128   1.069   4.755 -0.3793 -0.0989 -0.0193
 2464SOL    HW2 9854   0.119   0.975   4.740 -1.0317  0.2493 -2.0749
 2464SOL    HW3 9855   0.114   1.081   4.849  0.0914 -2.0889  0.3185
 2464SOL    MW4 9856   0.125   1.058   4.765 -0.4033 -0.3155 -0.2459
 2465SOL     OW 9857   3.094   3.589   3.837 -0.0475  0.1154 -0.0229
 2465SOL    HW2 9858   3.116   3.500   3.865 -0.7770  0.0926  0.5164
 2465SOL    HW3 9859   3.139   3.646   3.899  0.7015  0.1334 -0.5782
 2465SOL    MW4 9860   3.103   3.585   3.849 -0.0449  0.1148 -0.0250
 2466SOL     OW 9861   3.534   3.763   4.317 -0.1358  0.1671  0.3417
 2466SOL    HW2 9862   3.568   3.819   4.388  2.1619  0.6611 -1.0932
 2466SOL    HW3 9863   3.581   3.680   4.327 -1.4229 -0.5341  0.7047
 2466SOL    MW4 9864   3.545   3.760   4.328 -0.0025  0.1397  0.2002
 2467SOL     OW 9865   3.458   1.235   4.022 -0.1746  0.0517  0.0951
 2467SOL    HW2 9866   3.382   1.188   4.058 -0.2196 -0.0999 -0.2004
 2467SOL    HW3 9867   3.523   1.167   4.006 -0.4655  0.0144 -0.9191
 2467SOL    MW4 9868   3.456   1.220   4.025 -0.2189  0.0268 -0.0777
 2468SOL     OW 9869   3.842   3.214   4.316 -0.7069 -0.3275  0.3871
 2468SOL    HW2 9870   3.787   3.246   4.388 -0.2628  3.1537 -0.7330
 2468SOL    HW3 9871   3.929   3.250   4.335  0.1142 -1.9134 -0.3226
 2468SOL    MW4 9872   3.846   3.223   4.328 -0.5400 -0.0774  0.1457
 2469SOL     OW 9873   4.317   1.998   3.361 -0.0960  0.1081  0.2702
 2469SOL    HW2 9874   4.308   2.093   3.348 -0.5233 -0.0258 -0.4701
 2469SOL    HW3 9875   4.389   1.974   3.303  0.3518  0.0617  0.8481
 2469SOL    MW4 9876   4.325   2.008   3.351 -0.0933  0.0843  0.2488
 2470SOL     OW 9877   1.525   0.025   3.916 -0.1754 -0.3537  0.2491
 2470SOL    HW2 9878   1.617   0.050   3.913 -0.3312  0.4137  1.4512
 2470SOL    HW3 9879   1.480   0.103   3.949 -1.1653 -0.9673  0.3707
 2470SOL    MW4 9880   1.531   0.039   3.920 -0.3265 -0.3334  0.4237
 2471SOL     OW 9881   3.173   3.939   3.295  0.3588 -0.1807  0.2539
 2471SOL    HW2 9882   3.252   3.889   3.272  0.3156 -0.4331  0.6537
 2471SOL    HW3 9883   3.201   4.031   3.291  0.6827 -0.2689  0.4174
 2471SOL    MW4 9884   3.187   3.945   3.291  0.3958 -0.2257  0.3282
 2472SOL     OW 9885   0.455   0.746   3.859  0.0694  0.3861  0.8769
 2472SOL    HW2 9886   0.549   0.735   3.845  0.0288 -1.4937  1.8146
 2472SOL    HW3 9887   0.449   0.809   3.930  0.6573  0.0646  1.2221
 2472SOL    MW4 9888   0.467   0.753   3.867  0.1416  0.0957  1.0462
 2473SOL     OW 9889   3.165   4.333   3.977 -0.2819  0.4998  0.2109
 2473SOL    HW2 9890   3.135   4.381   4.054 -1.0176  0.8405 -0.2832
 2473SOL    HW3 9891   3.150   4.241   3.998  0.2237  0.5461  0.7734
 2473SOL    MW4 9892   3.159   4.327   3.990 -0.3122  0.5509  0.2200
 2474SOL     OW 9893   0.606   2.546   4.539 -0.3700 -0.2014 -0.4460
 2474SOL    HW2 9894   0.511   2.558   4.533 -0.5078 -0.3707  1.2547
 2474SOL    HW3 9895   0.642   2.634   4.534 -0.7693  0.0810  1.2620
 2474SOL    MW4 9896   0.598   2.559   4.537 -0.4409 -0.1865  0.0038
 2475SOL     OW 9897   3.740   2.496   4.361 -0.6899  0.7068 -0.5339
 2475SOL    HW2 9898   3.678   2.427   4.338 -0.3352  0.9510 -2.2280
 2475SOL    HW3 9899   3.823   2.451   4.376 -0.6780  0.6585 -0.7456
 2475SOL    MW4 9900   3.743   2.481   4.360 -0.6415  0.7326 -0.7854
 2476SOL     OW 9901   0.693   3.556   3.524 -0.1609 -0.0566  0.1408
 2476SOL    HW2 9902   0.638   3.484   3.555 -0.7009  0.1047 -0.4262
 2476SOL    HW3 9903   0.717   3.604   3.603  0.0134 -0.7269  0.4965
 2476SOL    MW4 9904   0.689   3.553   3.538 -0.2091 -0.1238  0.1129
 2477SOL     OW 9905   3.886   4.588   3.832  0.8196  0.0304  0.4602
 2477SOL    HW2 9906   3.949   4.618   3.897  0.6189 -0.1833  0.7506
 2477SOL    HW3 9907   3.850   4.507   3.868  1.4945 -0.6620 -0.4030
 2477SOL    MW4 9908   3.890   4.581   3.845  0.8822 -0.0892  0.3846
 2478SOL     OW 9909   0.466   1.188   3.750 -0.4993 -0.2181  0.2871
 2478SOL    HW2 9910   0.383   1.235   3.743 -0.2084  0.0896 -1.5161
 2478SOL    HW3 9911   0.493   1.199   3.841 -0.3341  3.2958 -0.1153
 2478SOL    MW4 9912   0.458   1.195   3.761 -0.4391  0.2861 -0.0039
 2479SOL     OW 9913   2.203   0.256   3.922  0.0312  0.3272  0.1667
 2479SOL    HW2 9914   2.231   0.197   3.852 -0.0179  0.8404 -0.2858
 2479SOL    HW3 9915   2.137   0.312   3.881  1.0384  1.5861  0.2334
 2479SOL    MW4 9916   2.198   0.255   3.908  0.1576  0.5610  0.1158
 2480SOL     OW 9917   3.631   2.872   4.056  0.3600 -0.0620 -0.1237
 2480SOL    HW2 9918   3.574   2.847   4.129 -1.0496  0.3599 -1.0692
 2480SOL    HW3 9919   3.649   2.964   4.071  2.3571 -0.6395  1.2069
 2480SOL    MW4 9920   3.626   2.881   4.068  0.4375 -0.0825 -0.0729
 2481SOL     OW 9921   4.356   2.495   4.077  0.2282 -0.1031  0.2146
 2481SOL    HW2 9922   4.299   2.492   4.001 -0.0620  1.5142  0.3523
 2481SOL    HW3 9923   4.296   2.494   4.152  0.5051 -1.5294  0.4266
 2481SOL    MW4 9924   4.341   2.494   4.077  0.2265 -0.0779  0.2608
 2482SOL     OW 9925   2.083   0.518   4.449 -0.2670 -0.1937  0.5191
 2482SOL    HW2 9926   1.997   0.546   4.480  0.3819 -1.1545  3.3872
 2482SOL    HW3 9927   2.138   0.597   4.455 -0.4969 -0.0305  0.4683
 2482SOL    MW4 9928   2.079   0.532   4.454 -0.2117 -0.2989  0.8908
 2483SOL     OW 9929   4.219   4.150   4.446  0.1521 -0.5366  0.4986
 2483SOL    HW2 9930   4.188   4.074   4.496  0.1985 -1.0918 -0.2999
 2483SOL    HW3 9931   4.290   4.187   4.500  0.2577 -1.1720  0.8052
 2483SOL    MW4 9932   4.224   4.145   4.460  0.1722 -0.6937  0.4337
 2484SOL     OW 9933   1.591   1.048   4.025  0.1664  0.0832  0.2262
 2484SOL    HW2 9934   1.626   1.005   4.103  2.1078  1.6689  0.2878
 2484SOL    HW3 9935   1.496   1.040   4.033  0.4377 -2.5760  1.1117
 2484SOL    MW4 9936   1.583   1.041   4.036  0.4583 -0.0584  0.3511
 2485SOL     OW 9937   0.499   3.891   4.540  0.3870  0.6176  0.0275
 2485SOL    HW2 9938   0.540   3.922   4.620 -0.1912 -0.9010  0.9381
 2485SOL    HW3 9939   0.492   3.796   4.552 -1.5253  0.5995 -0.9599
 2485SOL    MW4 9940   0.503   3.882   4.552  0.0584  0.4149  0.0174
 2486SOL     OW 9941   0.784   0.372   4.010 -0.2311  0.3495  0.4371
 2486SOL    HW2 9942   0.794   0.404   3.920 -0.2540  0.3927  0.4499
 2486SOL    HW3 9943   0.835   0.432   4.063  0.0457  0.1341  0.4151
 2486SOL    MW4 9944   0.792   0.384   4.005 -0.1976  0.3268  0.4359
 2487SOL     OW 9945   1.978   1.581   4.531 -0.0959 -0.2614 -0.3533
 2487SOL    HW2 9946   1.967   1.487   4.544  0.9809 -0.2045  1.1530
 2487SOL    HW3 9947   2.070   1.592   4.509  0.1786  0.5715  1.0923
 2487SOL    MW4 9948   1.988   1.570   4.530  0.0824 -0.1440  0.0361
 2488SOL     OW 9949   2.538   0.740   3.769  0.3103  0.0516  0.1518
 2488SOL    HW2 9950   2.451   0.712   3.741  0.3324 -0.4208  0.5658
 2488SOL    HW3 9951   2.522   0.805   3.837  0.2737  0.4384 -0.2228
 2488SOL    MW4 9952   2.525   0.745   3.774  0.3084  0.0403  0.1570
 2489SOL     OW 9953   0.555   1.434   4.618 -0.6814  0.6066 -0.7270
 2489SOL    HW2 9954   0.602   1.417   4.536  0.8599 -1.4046  0.5223
 2489SOL    HW3 9955   0.514   1.351   4.640  0.1025  0.7201  1.2571
 2489SOL    MW4 9956   0.556   1.421   4.610 -0.3746  0.3562 -0.3004
 2490SOL     OW 9957   2.138   2.951   4.176 -0.1180  0.1951 -0.0952
 2490SOL    HW2 9958   2.090   2.925   4.254  0.3845 -0.1326  0.1131
 2490SOL    HW3 9959   2.094   3.029   4.144 -0.2974  0.3514  0.5422
 2490SOL    MW4 9960   2.126   2.958   4.182 -0.0753  0.1725  0.0164
 2491SOL     OW 9961   1.502   3.711   3.411 -0.8994 -0.3204 -0.3272
 2491SOL    HW2 9962   1.514   3.794   3.365 -1.0614  0.1609  0.4966
 2491SOL    HW3 9963   1.585   3.665   3.400 -0.6019  0.1995 -0.2709
 2491SOL    MW4 9964   1.514   3.716   3.403 -0.8815 -0.1883 -0.2111
 2492SOL     OW 9965   1.569   0.752   4.582  0.3359 -0.1987  0.5251
 2492SOL    HW2 9966   1.502   0.686   4.563  0.0819  0.0781  0.4573
 2492SOL    HW3 9967   1.521   0.835   4.585  1.0901  0.3695 -2.2258
 2492SOL    MW4 9968   1.554   0.754   4.580  0.4019 -0.0872  0.1532
 2493SOL     OW 9969   1.102   2.742   3.667  0.1163  0.3186 -0.2445
 2493SOL    HW2 9970   1.074   2.834   3.667  0.1979  0.3492 -1.3808
 2493SOL    HW3 9971   1.028   2.694   3.703 -0.8537  0.5663 -1.8522
 2493SOL    MW4 9972   1.088   2.748   3.672 -0.0009  0.3553 -0.6066
 2494SOL     OW 9973   2.274   1.298   3.795 -0.6459  0.1400  0.7295
 2494SOL    HW2 9974   2.249   1.295   3.887 -0.0684  0.7889  0.9118
 2494SOL    HW3 9975   2.221   1.369   3.758 -1.4365 -0.6294  0.3926
 2494SOL    MW4 9976   2.264   1.307   3.802 -0.6740  0.1241  0.7091
 2495SOL     OW 9977   4.344   0.393   4.408 -0.3036 -0.0661 -0.0033
 2495SOL    HW2 9978   4.258   0.433   4.407 -0.4423 -0.3596 -0.0023
 2495SOL    HW3 9979   4.391   0.438   4.478 -1.4136 -1.8811  1.9618
 2495SOL    MW4 9980   4.339   0.404   4.417 -0.4684 -0.3443  0.2561
 2496SOL     OW 9981   2.069   2.491   3.825 -0.1830 -0.2173  0.3006
 2496SOL    HW2 9982   1.976   2.498   3.804 -0.1836 -1.6552 -0.2088
 2496SOL    HW3 9983   2.103   2.580   3.815 -0.9973 -0.1295 -1.8993
 2496SOL    MW4 9984   2.061   2.503   3.821 -0.2905 -0.3954 -0.0568
 2497SOL     OW 9985   1.089   2.931   4.030  0.0841 -0.1011  0.1013
 2497SOL    HW2 9986   1.156   2.875   3.991 -0.7730 -0.6219 -0.6449
 2497SOL    HW3 9987   1.008   2.880   4.023 -0.6642  1.1333 -0.3844
 2497SOL    MW4 9988   1.087   2.917   4.024 -0.1277 -0.0069 -0.0612
 2498SOL     OW 9989   3.761   2.777   3.691  0.1669 -0.3785  0.3084
 2498SOL    HW2 9990   3.742   2.870   3.696 -1.2968 -0.6882  0.7591
 2498SOL    HW3 9991   3.781   2.761   3.599 -1.1347  0.1061 -0.0715
 2498SOL    MW4 9992   3.761   2.787   3.679 -0.1979 -0.3554  0.3178
 2499SOL     OW 9993   0.810   0.068   3.735  0.0230 -0.1958  0.0457
 2499SOL    HW2 9994   0.835  -0.004   3.677 -0.8180 -0.5538  0.1212
 2499SOL    HW3 9995   0.874   0.066   3.805  0.3377 -0.5215 -0.2505
 2499SOL    MW4 9996   0.821   0.058   3.736 -0.0464 -0.2860  0.0166
 2500SOL     OW 9997   2.987   1.967   3.954 -0.3330 -0.3266 -0.4713
 2500SOL    HW2 9998   3.072   2.010   3.955  0.1380 -1.2668  1.2016
 2500SOL    HW3 9999   2.953   1.983   3.866  0.7245  1.6882 -0.5464
 2500SOL    MW410000   2.994   1.975   3.943 -0.1313 -0.1848 -0.2605
 2501SOL     OW10001   3.570   2.316   4.203 -0.4980 -0.2096 -0.3432
 2501SOL    HW210002   3.547   2.223   4.207 -1.4458  0.0662  0.6772
 2501SOL    HW310003   3.495   2.362   4.242  0.7789  0.8468  0.9413
 2501SOL    MW410004   3.557   2.310   4.209 -0.4546 -0.0338 -0.0391
 2502SOL     OW10005   2.434   3.074   3.356  0.0114  0.0086  0.5065
 2502SOL    HW210006   2.449   2.989   3.398  0.8452  0.3116  0.8131
 2502SOL    HW310007   2.471   3.064   3.268 -0.8228 -0.2831  0.1770
 2502SOL    MW410008   2.441   3.061   3.350  0.0113  0.0101  0.5035
 2503SOL     OW10009   0.082   2.952   4.286  0.1053 -0.3876 -0.3061
 2503SOL    HW210010   0.070   2.882   4.222 -1.8645  0.0840 -0.5036
 2503SOL    HW310011   0.007   2.943   4.345  0.8832  0.3513  0.8226
 2503SOL    MW410012   0.070   2.941   4.286 -0.0520 -0.2279 -0.1832
 2504SOL     OW10013   4.254   4.657   3.264  0.3693 -0.2515  0.3943
 2504SOL    HW210014   4.261   4.563   3.277 -0.8570 -0.3020  0.7295
 2504SOL    HW310015   4.227   4.691   3.350 -1.1563  0.1759 -0.2482
 2504SOL    MW410016   4.252   4.649   3.277  0.0062 -0.2018  0.3537
 2505SOL     OW10017   3.141   1.375   4.329 -0.4954  0.0916 -0.1817
 2505SOL    HW210018   3.137   1.463   4.292 -2.7151 -0.6576 -1.8546
 2505SOL    HW310019   3.061   1.367   4.381 -0.1715 -0.8231  0.1925
 2505SOL    MW410020   3.130   1.385   4.331 -0.7455 -0.1279 -0.3530
 2506SOL     OW10021   3.913   4.073   3.832  0.0028  0.5970  0.3970
 2506SOL    HW210022   3.821   4.055   3.813  0.4421 -0.0455 -1.1562
 2506SOL    HW310023   3.932   4.154   3.785  0.7438 -0.3004 -0.8662
 2506SOL    MW410024   3.904   4.081   3.823  0.1585  0.3938  0.0254
 2507SOL     OW10025   1.806   3.444   4.431  0.6317 -0.4438 -0.6465
 2507SOL    HW210026   1.805   3.376   4.364 -1.6061 -0.8926 -0.1893
 2507SOL    HW310027   1.715   3.469   4.442  1.3657  2.4069 -0.5235
 2507SOL    MW410028   1.794   3.438   4.424  0.4333 -0.1269 -0.5699
 2508SOL     OW10029   3.540   1.242   4.374 -0.3638 -0.0376 -0.2290
 2508SOL    HW210030   3.513   1.253   4.283 -2.9069  2.6900  0.8036
 2508SOL    HW310031   3.624   1.287   4.379  0.6400 -1.6588 -1.5616
 2508SOL    MW410032   3.548   1.249   4.362 -0.5669  0.1084 -0.2686
 2509SOL     OW10033   1.096   1.753   4.043  0.2792 -0.1646 -0.0883
 2509SOL    HW210034   1.022   1.716   4.091 -0.5724 -0.1447 -1.3499
 2509SOL    HW310035   1.067   1.842   4.021  0.9130  0.0434 -0.0714
 2509SOL    MW410036   1.082   1.760   4.046  0.2505 -0.1345 -0.2525
 2510SOL     OW10037   0.629   3.908   3.659 -0.2405 -0.1902  0.0492
 2510SOL    HW210038   0.562   3.928   3.725 -1.5201 -0.0700 -1.2728
 2510SOL    HW310039   0.658   3.820   3.681 -0.2820  0.0455  1.0894
 2510SOL    MW410040   0.624   3.899   3.671 -0.4148 -0.1433  0.0120
 2511SOL     OW10041   0.519   0.383   4.118 -0.5180  0.0446 -0.0160
 2511SOL    HW210042   0.605   0.374   4.077 -0.2744  0.1135  0.4805
 2511SOL    HW310043   0.471   0.304   4.093  0.8641 -1.6494  2.5604
 2511SOL    MW410044   0.524   0.372   4.109 -0.3035 -0.1698  0.3894
 2512SOL     OW10045   3.645   3.421   3.314  0.2381 -0.2119  0.4318
 2512SOL    HW210046   3.564   3.454   3.353 -0.2547 -0.2966 -0.5064
 2512SOL    HW310047   3.630   3.425   3.220  1.0572 -0.9159  0.2605
 2512SOL    MW410048   3.632   3.426   3.307  0.2812 -0.3160  0.2854
 2513SOL     OW10049   4.031   3.571   3.621  0.2690 -0.3968  0.0320
 2513SOL    HW210050   4.046   3.477   3.629  0.4953 -0.3165  0.5681
 2513SOL    HW310051   3.964   3.579   3.553 -0.4674 -0.9976  0.6797
 2513SOL    MW410052   4.024   3.559   3.613  0.2017 -0.4654  0.1882
 2514SOL     OW10053   0.656   1.346   4.379 -0.0372  0.6417  0.1923
 2514SOL    HW210054   0.662   1.375   4.289 -1.9632 -1.2612 -0.5978
 2514SOL    HW310055   0.742   1.309   4.399  0.4779  1.3376 -0.7666
 2514SOL    MW410056   0.668   1.345   4.370 -0.2234  0.4824 -0.0385
 2515SOL     OW10057   1.735   3.549   3.754 -0.3739 -0.0770 -0.7408
 2515SOL    HW210058   1.727   3.555   3.850  0.4348 -0.6063 -0.6304
 2515SOL    HW310059   1.648   3.526   3.723 -0.6619  0.1855 -0.1386
 2515SOL    MW410060   1.723   3.547   3.763 -0.3052 -0.1122 -0.6468
 2516SOL     OW10061   1.454   1.448   4.067  0.7484  0.3715  0.0628
 2516SOL    HW210062   1.425   1.369   4.113  1.0276 -0.2453 -0.7998
 2516SOL    HW310063   1.515   1.490   4.128  0.6402 -0.1123  0.5102
 2516SOL    MW410064   1.459   1.443   4.081  0.7710  0.2263  0.0080
 2517SOL     OW10065   0.583   2.281   4.020 -0.4906 -0.4272 -0.1516
 2517SOL    HW210066   0.623   2.308   4.102  1.1174 -0.0940 -1.0121
 2517SOL    HW310067   0.592   2.358   3.963  0.1149 -1.2755 -1.2272
 2517SOL    MW410068   0.589   2.295   4.023 -0.1986 -0.4952 -0.4070
 2518SOL     OW10069   2.962   0.909   3.786  0.0958  0.6256 -0.5381
 2518SOL    HW210070   2.897   0.855   3.741  0.9469 -0.5913 -0.3256
 2518SOL    HW310071   2.919   0.994   3.797 -1.2674 -0.0119 -0.8458
 2518SOL    MW410072   2.947   0.913   3.782  0.0282  0.3809 -0.5506
 2519SOL     OW10073   3.115   3.174   3.674 -0.0937  0.3340  0.3245
 2519SOL    HW210074   3.064   3.254   3.662  0.0321  0.3309 -0.2836
 2519SOL    HW310075   3.052   3.109   3.706  0.0628  1.0007  2.0008
 2519SOL    MW410076   3.100   3.176   3.677 -0.0564  0.4215  0.4654
 2520SOL     OW10077   1.989   3.082   3.351 -0.0473 -0.2628 -0.1223
 2520SOL    HW210078   1.992   2.987   3.367 -0.9972 -0.1780  0.5949
 2520SOL    HW310079   2.071   3.114   3.389  0.6964 -0.9030 -1.1492
 2520SOL    MW410080   2.000   3.073   3.358 -0.0745 -0.3360 -0.1632
 2521SOL     OW10081   1.152   1.974   3.686  0.2024  0.0839 -0.0697
 2521SOL    HW210082   1.118   1.886   3.702  0.9374 -0.3665 -0.9255
 2521SOL    HW310083   1.244   1.970   3.709  0.2359  0.6350 -0.0899
 2521SOL    MW410084   1.159   1.962   3.691  0.3038  0.0972 -0.1853
 2522SOL     OW10085   3.596   2.667   3.280 -0.0261  0.3222 -0.5421
 2522SOL    HW210086   3.504   2.695   3.286 -0.6897 -1.9144  0.2304
 2522SOL    HW310087   3.616   2.671   3.186 -1.2639 -0.2553 -0.8393
 2522SOL    MW410088   3.586   2.672   3.268 -0.2769 -0.0491 -0.4794
 2523SOL     OW10089   1.115   3.786   3.447  0.3723  0.2640  0.7000
 2523SOL    HW210090   1.141   3.697   3.423 -1.3111 -0.1460  0.3482
 2523SOL    HW310091   1.165   3.842   3.387 -1.7417 -0.6411 -1.9995
 2523SOL    MW410092   1.125   3.782   3.436 -0.1287  0.0905  0.2974
 2524SOL     OW10093   0.877   0.318   3.577  0.4798  0.0445  0.1276
 2524SOL    HW210094   0.900   0.390   3.636 -2.0123  0.7146  0.3431
 2524SOL    HW310095   0.855   0.245   3.636  0.9051 -0.2085 -0.0314
 2524SOL    MW410096   0.877   0.317   3.593  0.2071  0.0995  0.1350
 2525SOL     OW10097   3.848   1.209   3.456  0.0073  0.6484  0.4599
 2525SOL    HW210098   3.782   1.139   3.454 -0.0667  0.7323  0.0647
 2525SOL    HW310099   3.930   1.166   3.430  0.2126  0.4358  1.4166
 2525SOL    MW410100   3.850   1.194   3.453  0.0246  0.6314  0.5340
 2526SOL     OW10101   1.048   3.597   4.123  0.0441  0.3589 -0.0595
 2526SOL    HW210102   0.966   3.560   4.154  0.1800  0.4849  0.4553
 2526SOL    HW310103   1.116   3.537   4.156  0.2897  1.2264  1.0593
 2526SOL    MW410104   1.046   3.584   4.131  0.0944  0.4900  0.1560
 2527SOL     OW10105   3.157   1.932   3.362 -0.4631  0.5298  0.1105
 2527SOL    HW210106   3.174   1.941   3.268 -1.2175 -0.7227 -0.1541
 2527SOL    HW310107   3.082   1.989   3.378 -0.0219  1.1286  0.0504
 2527SOL    MW410108   3.149   1.941   3.351 -0.5044  0.4436  0.0677
 2528SOL     OW10109   3.364   1.427   4.482 -0.1531 -0.0451  0.3740
 2528SOL    HW210110   3.424   1.355   4.464  0.7297  0.6157  0.6564
 2528SOL    HW310111   3.284   1.404   4.434  0.0551 -1.2982  0.6188
 2528SOL    MW410112   3.361   1.414   4.473 -0.0092 -0.1232  0.4435
 2529SOL     OW10113   0.391   3.226   3.455 -0.1239 -0.2570  0.1046
 2529SOL    HW210114   0.348   3.308   3.430  2.2819  0.3566 -2.2608
 2529SOL    HW310115   0.338   3.157   3.416 -0.7392  0.2966 -0.0395
 2529SOL    MW410116   0.379   3.228   3.447  0.1123 -0.1030 -0.2265
 2530SOL     OW10117   0.607   2.857   4.227  0.0353 -0.1170 -0.0171
 2530SOL    HW210118   0.528   2.885   4.275  1.0692  0.6977  1.2605
 2530SOL    HW310119   0.661   2.936   4.224  0.9467 -0.7625 -0.6065
 2530SOL    MW410120   0.604   2.871   4.233  0.2919 -0.0947  0.0737
 2531SOL     OW10121   0.329   2.599   4.440 -0.4364  0.4114  0.1926
 2531SOL    HW210122   0.236   2.594   4.463 -0.9228  0.1043 -1.7695
 2531SOL    HW310123   0.338   2.541   4.364  1.4361  0.1507  0.5976
 2531SOL    MW410124   0.318   2.591   4.433 -0.2535  0.3364 -0.0128
 2532SOL     OW10125   1.200   3.789   3.708  0.2208  0.0249  0.2181
 2532SOL    HW210126   1.162   3.784   3.621  0.9369  0.3686 -0.1167
 2532SOL    HW310127   1.155   3.721   3.758  0.8993 -1.2161 -0.8409
 2532SOL    MW410128   1.189   3.779   3.703  0.4048 -0.0935  0.0342
 2533SOL     OW10129   1.044   2.011   3.971  0.0170 -0.3167  0.1062
 2533SOL    HW210130   0.956   2.050   3.968 -0.7256 -1.8927  0.7467
 2533SOL    HW310131   1.089   2.049   3.896 -0.9594  1.1095  0.2157
 2533SOL    MW410132   1.038   2.021   3.961 -0.2098 -0.3365  0.2051
 2534SOL     OW10133   2.950   0.450   3.406 -0.1196 -0.0700  0.6160
 2534SOL    HW210134   2.937   0.459   3.501  0.0228  1.6107  0.4903
 2534SOL    HW310135   2.958   0.540   3.375 -1.0042 -0.5744 -1.1212
 2534SOL    MW410136   2.949   0.463   3.415 -0.2175  0.0852  0.3702
 2535SOL     OW10137   0.992   2.286   4.606 -0.0192 -0.1255 -0.8558
 2535SOL    HW210138   0.917   2.308   4.661  0.5496 -0.1004 -0.0775
 2535SOL    HW310139   1.041   2.368   4.598  0.5121 -0.3923 -0.4279
 2535SOL    MW410140   0.989   2.299   4.612  0.1260 -0.1574 -0.6967
 2536SOL     OW10141   1.710   2.731   3.913 -0.2335 -0.3518 -0.4002
 2536SOL    HW210142   1.785   2.739   3.854 -0.3227  0.5199 -0.4070
 2536SOL    HW310143   1.664   2.652   3.883  0.6186 -0.8304 -0.4623
 2536SOL    MW410144   1.713   2.722   3.901 -0.1328 -0.2999 -0.4093
 2537SOL     OW10145   2.833   4.453   3.726 -0.5459  0.1498 -0.3230
 2537SOL    HW210146   2.819   4.452   3.821  0.9867  2.2907 -0.0421
 2537SOL    HW310147   2.765   4.512   3.692  0.6136  1.5698 -0.2231
 2537SOL    MW410148   2.822   4.461   3.734 -0.1907  0.6196 -0.2728
 2538SOL     OW10149   2.937   2.298   3.926 -0.1005 -0.0891  0.1213
 2538SOL    HW210150   3.020   2.253   3.913 -0.4145 -0.1160 -1.9282
 2538SOL    HW310151   2.961   2.389   3.946  0.4326 -0.3439  0.6425
 2538SOL    MW410152   2.951   2.304   3.927 -0.0716 -0.1263 -0.0803
 2539SOL     OW10153   4.215   1.381   3.970 -0.1067  0.0662  0.0874
 2539SOL    HW210154   4.232   1.381   3.875  0.3083 -1.0467  0.1540
 2539SOL    HW310155   4.287   1.432   4.007  0.3682 -0.4765 -0.0886
 2539SOL    MW410156   4.227   1.388   3.962  0.0107 -0.1522  0.0730
 2540SOL     OW10157   2.967   4.046   4.130  0.0223 -0.3293  0.2979
 2540SOL    HW210158   2.939   4.138   4.133 -1.4469 -0.7694  0.2653
 2540SOL    HW310159   3.029   4.038   4.204 -0.3264  0.5232  0.6937
 2540SOL    MW410160   2.972   4.057   4.140 -0.2175 -0.2749  0.3458
 2541SOL     OW10161   2.899   3.581   3.405 -0.2559 -0.1757 -0.3218
 2541SOL    HW210162   2.864   3.637   3.475  2.5993  0.2477  0.8004
 2541SOL    HW310163   2.823   3.531   3.375 -1.4622 -0.7902  3.4547
 2541SOL    MW410164   2.884   3.582   3.410 -0.0384 -0.2009  0.3245
 2542SOL     OW10165   0.824   0.667   4.553 -0.0440  0.0230 -0.0340
 2542SOL    HW210166   0.769   0.713   4.489 -0.6910  0.8866  1.1259
 2542SOL    HW310167   0.794   0.576   4.548  1.3824 -0.3325 -2.4764
 2542SOL    MW410168   0.813   0.661   4.544  0.0588  0.0900 -0.2032
 2543SOL     OW10169   1.290   1.150   3.793 -0.1390  0.1295 -0.2967
 2543SOL    HW210170   1.306   1.082   3.726 -2.0119  0.4785 -1.1162
 2543SOL    HW310171   1.344   1.224   3.764 -0.2182 -0.0471 -0.9156
 2543SOL    MW410172   1.299   1.151   3.780 -0.3966  0.1522 -0.4865
 2544SOL     OW10173   1.426   0.703   4.248  0.3884 -0.2730  0.5114
 2544SOL    HW210174   1.398   0.651   4.323  0.3064 -1.2642 -0.2030
 2544SOL    HW310175   1.350   0.705   4.190  0.3648  0.7060  0.5556
 2544SOL    MW410176   1.413   0.697   4.250  0.3745 -0.2746  0.4229
 2545SOL     OW10177   3.247   3.791   3.974 -1.0514  0.0840  0.2036
 2545SOL    HW210178   3.308   3.777   3.902  0.2733  1.1847  1.0978
 2545SOL    HW310179   3.206   3.875   3.954 -1.4291 -0.0961  0.2135
 2545SOL    MW410180   3.249   3.800   3.962 -0.9264  0.2055  0.3229
 2546SOL     OW10181   0.167   0.497   3.263 -0.2149 -0.2648 -0.1601
 2546SOL    HW210182   0.191   0.589   3.274  0.4884 -0.4871  0.1925
 2546SOL    HW310183   0.244   0.448   3.293 -0.7833 -0.9733  0.1640
 2546SOL    MW410184   0.180   0.503   3.268 -0.1971 -0.3876 -0.0708
 2547SOL     OW10185   1.879   0.816   4.317  0.4991 -0.1713  0.2317
 2547SOL    HW210186   1.891   0.776   4.231 -1.0218  0.4427 -0.2803
 2547SOL    HW310187   1.849   0.744   4.373  1.9414 -0.6743  0.3751
 2547SOL    MW410188   1.877   0.801   4.313  0.4887 -0.1566  0.1831
 2548SOL     OW10189   4.047   4.383   4.490 -0.2799 -0.0433 -0.4129
 2548SOL    HW210190   4.094   4.306   4.460  1.2233  0.9959 -0.7937
 2548SOL    HW310191   4.042   4.440   4.413  0.3573  1.0595  0.3453
 2548SOL    MW410192   4.052   4.381   4.476  0.0025  0.2393 -0.3631
 2549SOL     OW10193   3.491   2.734   3.624  0.1697 -0.2493 -0.3550
 2549SOL    HW210194   3.446   2.661   3.667  1.2526 -0.7538 -0.0396
 2549SOL    HW310195   3.580   2.730   3.659  0.9457 -0.3682 -2.2999
 2549SOL    MW410196   3.497   2.724   3.635  0.4150 -0.3316 -0.5700
 2550SOL     OW10197   1.788   2.640   3.362 -0.0579 -0.0939  0.2734
 2550SOL    HW210198   1.799   2.546   3.378  0.0596 -0.3807 -1.4716
 2550SOL    HW310199   1.702   2.660   3.401  0.5069 -0.6294  1.8338
 2550SOL    MW410200   1.778   2.630   3.369  0.0321 -0.2024  0.2491
 2551SOL     OW10201   2.765   0.594   3.887 -0.4203 -0.4861  0.0722
 2551SOL    HW210202   2.697   0.640   3.839 -0.5136 -1.4756 -0.7510
 2551SOL    HW310203   2.803   0.661   3.944 -0.7164  0.5502 -0.9246
 2551SOL    MW410204   2.761   0.609   3.888 -0.4717 -0.4799 -0.1679
 2552SOL     OW10205   0.950   4.008   4.205  0.2229 -0.1736 -0.2365
 2552SOL    HW210206   0.998   3.965   4.275 -0.1228 -1.1034 -0.5636
 2552SOL    HW310207   1.016   4.058   4.157  0.5888 -0.1607  0.2829
 2552SOL    MW410208   0.965   4.009   4.208  0.2256 -0.2946 -0.2111
 2553SOL     OW10209   0.021   0.910   3.387  0.0623  0.2452 -0.2313
 2553SOL    HW210210  -0.060   0.870   3.354  1.0187 -1.1032 -0.9743
 2553SOL    HW310211   0.015   1.002   3.359 -2.0890  0.6618  1.3778
 2553SOL    MW410212   0.009   0.917   3.379 -0.0954  0.1223 -0.1170
 2554SOL     OW10213   3.144   0.683   4.106  0.1163  0.0497  0.5074
 2554SOL    HW210214   3.190   0.666   4.024 -0.5816  0.1739  0.0855
 2554SOL    HW310215   3.123   0.596   4.140 -2.7365 -0.0241 -1.2469
 2554SOL    MW410216   3.147   0.669   4.100 -0.3522  0.0564  0.2203
 2555SOL     OW10217   0.263   2.814   3.414 -0.0373  0.0679 -0.0380
 2555SOL    HW210218   0.178   2.779   3.385 -0.7753  0.1680  1.9350
 2555SOL    HW310219   0.260   2.809   3.509  1.2510  2.2732  0.1536
 2555SOL    MW410220   0.251   2.808   3.422  0.0353  0.3721  0.2476
 2556SOL     OW10221   2.197   1.300   4.061 -0.3583 -0.4331 -0.0201
 2556SOL    HW210222   2.122   1.359   4.074  0.1851 -0.0887  1.5997
 2556SOL    HW310223   2.175   1.223   4.112 -0.7464 -1.3890 -1.5840
 2556SOL    MW410224   2.184   1.298   4.069 -0.3378 -0.5138 -0.0127
 2557SOL     OW10225   3.888   3.569   4.213 -0.7721 -0.5274  0.0072
 2557SOL    HW210226   3.870   3.636   4.147 -0.9756 -0.6756 -0.0888
 2557SOL    HW310227   3.917   3.493   4.163 -1.7685 -0.9254  0.0197
 2557SOL    MW410228   3.889   3.568   4.198 -0.9304 -0.5995 -0.0038
 2558SOL     OW10229   4.334   4.645   3.845  0.6322  0.4078  0.3235
 2558SOL    HW210230   4.311   4.563   3.801  0.2924  1.0968 -0.7799
 2558SOL    HW310231   4.343   4.709   3.775 -0.1976  1.5842  1.2675
 2558SOL    MW410232   4.332   4.643   3.830  0.4779  0.6539  0.3025
 2559SOL     OW10233   1.505   2.810   4.605 -0.3763 -0.7620 -0.3637
 2559SOL    HW210234   1.593   2.824   4.570 -0.5164 -0.3268 -0.5474
 2559SOL    HW310235   1.461   2.894   4.593 -1.1843 -1.3112 -1.3248
 2559SOL    MW410236   1.511   2.823   4.599 -0.5014 -0.7771 -0.5147
 2560SOL     OW10237   0.240   0.446   4.443 -0.2316 -1.1515 -0.2884
 2560SOL    HW210238   0.336   0.444   4.446 -0.2380 -0.3898  0.6262
 2560SOL    HW310239   0.219   0.514   4.380 -0.1837 -2.7109 -2.0543
 2560SOL    MW410240   0.250   0.454   4.435 -0.2261 -1.2568 -0.4007
 2561SOL     OW10241   2.832   1.491   4.223  0.2507 -0.6213  0.4170
 2561SOL    HW210242   2.890   1.530   4.157  0.5169 -0.7354  0.5842
 2561SOL    HW310243   2.761   1.555   4.232  0.9628  0.0769  1.0721
 2561SOL    MW410244   2.830   1.505   4.215  0.3798 -0.5442  0.5255
 2562SOL     OW10245   0.776   1.889   4.453 -0.1147 -0.0341  0.2540
 2562SOL    HW210246   0.811   1.954   4.393 -0.9849 -0.0559 -0.2757
 2562SOL    HW310247   0.848   1.873   4.515  0.0519  1.5317  0.4855
 2562SOL    MW410248   0.790   1.895   4.453 -0.2075  0.1696  0.2147
 2563SOL     OW10249   1.948   2.763   3.762  0.5782 -0.2786  0.1906
 2563SOL    HW210250   1.964   2.766   3.667  0.7860 -0.1728  0.2293
 2563SOL    HW310251   1.999   2.836   3.797  2.0938 -1.5193  0.6217
 2563SOL    MW410252   1.957   2.773   3.754  0.8056 -0.4284  0.2526
 2564SOL     OW10253   3.178   1.657   3.742  0.3009  0.7333  0.1507
 2564SOL    HW210254   3.127   1.720   3.793  0.1051  1.0529 -0.4447
 2564SOL    HW310255   3.179   1.578   3.796 -2.0091  0.2673 -0.4599
 2564SOL    MW410256   3.172   1.655   3.756 -0.0297  0.7140 -0.0084
 2565SOL     OW10257   1.375   2.551   4.690 -0.3783 -0.0243  0.1675
 2565SOL    HW210258   1.441   2.482   4.703 -1.4949 -1.2173 -0.4345
 2565SOL    HW310259   1.426   2.632   4.689  0.7208 -0.6188  3.1632
 2565SOL    MW410260   1.391   2.552   4.692 -0.3806 -0.2601  0.4834
 2566SOL     OW10261   1.767   1.200   3.713  0.0072  0.2284 -0.3601
 2566SOL    HW210262   1.721   1.116   3.717  0.0932  0.1590 -0.7921
 2566SOL    HW310263   1.857   1.179   3.735  0.2263  0.0473 -1.3923
 2566SOL    MW410264   1.773   1.186   3.717  0.0475  0.1953 -0.5533
 2567SOL     OW10265   1.277   0.042   3.705 -0.0795  0.2375 -0.1012
 2567SOL    HW210266   1.359   0.030   3.754  0.5153 -0.5543 -1.2768
 2567SOL    HW310267   1.214  -0.013   3.751  0.9941 -2.1987 -1.4474
 2567SOL    MW410268   1.280   0.033   3.718  0.1406 -0.1884 -0.4339
 2568SOL     OW10269   2.481   0.487   4.278  0.0331  0.3753  0.4418
 2568SOL    HW210270   2.415   0.518   4.215 -0.2185  0.3144  0.6740
 2568SOL    HW310271   2.540   0.432   4.226 -2.2750 -2.7023  0.9647
 2568SOL    MW410272   2.480   0.484   4.263 -0.3046 -0.0387  0.5414
 2569SOL     OW10273   2.069   3.453   4.540  0.4135 -0.3250  0.0822
 2569SOL    HW210274   1.977   3.464   4.517  0.6590 -1.6589 -1.6316
 2569SOL    HW310275   2.075   3.363   4.572  0.9304  0.0872  1.1522
 2569SOL    MW410276   2.058   3.442   4.541  0.5141 -0.4466 -0.0028
 2570SOL     OW10277   0.883   0.972   3.237  0.3588  0.2022 -0.0911
 2570SOL    HW210278   0.802   0.923   3.244  0.0579  0.8292  0.9213
 2570SOL    HW310279   0.878   1.016   3.152  0.1664 -0.6730 -0.5369
 2570SOL    MW410280   0.872   0.971   3.226  0.2937  0.1695 -0.0164
 2571SOL     OW10281   0.371   3.589   3.755 -0.0652  0.2414 -0.3755
 2571SOL    HW210282   0.328   3.629   3.679 -1.6556  0.2423  0.4894
 2571SOL    HW310283   0.311   3.520   3.782  0.1629  0.6644  1.2697
 2571SOL    MW410284   0.357   3.586   3.748 -0.2449  0.2973 -0.0443
 2572SOL     OW10285   4.145   3.795   4.072 -0.4575 -0.2712  0.4039
 2572SOL    HW210286   4.049   3.799   4.076 -0.4748  1.4724 -1.1626
 2572SOL    HW310287   4.164   3.716   4.021 -1.0749 -0.3002  0.2150
 2572SOL    MW410288   4.135   3.785   4.066 -0.5412 -0.0450  0.1723
 2573SOL     OW10289   2.831   1.142   3.873 -0.3743 -0.1217  0.2190
 2573SOL    HW210290   2.897   1.208   3.854 -0.7951  0.8041  1.8082
 2573SOL    HW310291   2.824   1.142   3.969 -2.7784 -0.0842  0.0807
 2573SOL    MW410292   2.838   1.151   3.883 -0.7470  0.0054  0.4105
 2574SOL     OW10293   3.236   1.846   4.413 -0.3652  0.2212 -0.1952
 2574SOL    HW210294   3.239   1.770   4.355 -1.8868  0.5790 -0.7714
 2574SOL    HW310295   3.222   1.921   4.355 -1.0137  0.6886  0.5425
 2574SOL    MW410296   3.235   1.846   4.398 -0.6515  0.3301 -0.1739
 2575SOL     OW10297   0.529   1.090   4.418 -0.1145 -0.1126 -0.4152
 2575SOL    HW210298   0.466   1.122   4.483 -0.3040  0.2455 -0.7682
 2575SOL    HW310299   0.581   1.167   4.397 -0.5127 -0.0516 -1.2095
 2575SOL    MW410300   0.527   1.105   4.424 -0.1921 -0.0573 -0.5665
 2576SOL     OW10301   2.871   2.024   3.701 -0.3262 -0.1020 -0.7417
 2576SOL    HW210302   2.839   2.113   3.720 -1.0828 -0.8811  1.8265
 2576SOL    HW310303   2.792   1.969   3.705  0.0639 -0.8727 -2.7403
 2576SOL    MW410304   2.856   2.029   3.704 -0.3746 -0.3065 -0.6665
 2577SOL     OW10305   4.123   3.486   3.300  0.3336  0.0957 -0.1940
 2577SOL    HW210306   4.121   3.396   3.332 -1.8183  0.4900  0.8715
 2577SOL    HW310307   4.195   3.526   3.348  0.2647 -0.6286  0.5301
 2577SOL    MW410308   4.132   3.479   3.311  0.0406  0.0522  0.0421
 2578SOL     OW10309   2.879   0.429   3.691 -0.4743  0.1630  0.0834
 2578SOL    HW210310   2.854   0.492   3.758 -1.3796  0.8198 -0.8535
 2578SOL    HW310311   2.806   0.368   3.687 -1.4036  1.3252 -1.7353
 2578SOL    MW410312   2.866   0.429   3.699 -0.7164  0.4030 -0.2802
 2579SOL     OW10313   3.552   0.406   4.143  0.2528 -0.3619  0.3487
 2579SOL    HW210314   3.488   0.335   4.134 -0.1599 -0.0530  0.8628
 2579SOL    HW310315   3.565   0.414   4.237  0.6904 -0.0997  0.2639
 2579SOL    MW410316   3.545   0.398   4.154  0.2561 -0.2865  0.4053
 2580SOL     OW10317   4.171   1.307   4.402 -0.6003  0.2223 -0.0666
 2580SOL    HW210318   4.180   1.248   4.477  0.3407  0.6516  0.1655
 2580SOL    HW310319   4.128   1.255   4.335  0.9388 -0.9844 -0.1481
 2580SOL    MW410320   4.167   1.292   4.403 -0.2731  0.1197 -0.0467
 2581SOL     OW10321   3.677   2.742   4.496 -0.1777 -0.0133  0.3756
 2581SOL    HW210322   3.709   2.654   4.476 -0.7581 -0.5116  1.5710
 2581SOL    HW310323   3.742   2.800   4.457  0.9492 -0.9957  0.7412
 2581SOL    MW410324   3.690   2.738   4.488 -0.1056 -0.2086  0.5816
 2582SOL     OW10325   2.061   0.457   4.185  0.2046 -0.2037 -0.6670
 2582SOL    HW210326   2.093   0.484   4.271 -1.3793  0.4833 -0.2739
 2582SOL    HW310327   2.045   0.363   4.194 -0.9181  0.0521  0.1113
 2582SOL    MW410328   2.063   0.448   4.198 -0.1525 -0.0793 -0.5125
 2583SOL     OW10329   1.787   3.237   4.253  0.1024 -0.2256  0.1166
 2583SOL    HW210330   1.756   3.257   4.165  1.2871 -1.3055 -0.5635
 2583SOL    HW310331   1.724   3.173   4.287  0.8474 -1.4635 -0.7865
 2583SOL    MW410332   1.774   3.231   4.246  0.3570 -0.5314 -0.0923
 2584SOL     OW10333   3.868   2.943   4.390  0.2515  0.0278  0.1651
 2584SOL    HW210334   3.862   3.037   4.372  1.6911  0.1431  0.2376
 2584SOL    HW310335   3.923   2.909   4.320  0.0603 -0.6927  0.3657
 2584SOL    MW410336   3.874   2.951   4.379  0.4162 -0.0520  0.2011
 2585SOL     OW10337   0.793   3.285   4.395  0.3078 -0.3164 -0.1031
 2585SOL    HW210338   0.889   3.285   4.401  0.2398  2.0238  1.8279
 2585SOL    HW310339   0.765   3.234   4.471  0.0019 -0.3227 -0.2227
 2585SOL    MW410340   0.802   3.278   4.405  0.2585 -0.0084  0.1359
 2586SOL     OW10341   2.617   1.868   4.022  0.3524  0.0236  0.1547
 2586SOL    HW210342   2.655   1.956   4.017  0.1840  0.1570  1.0521
 2586SOL    HW310343   2.529   1.882   4.058 -0.6269 -0.2689 -2.0816
 2586SOL    MW410344   2.611   1.882   4.026  0.2010  0.0026 -0.0219
 2587SOL     OW10345   3.942   3.939   4.355  0.1856 -0.1660 -0.3354
 2587SOL    HW210346   3.933   3.991   4.275 -0.7051  0.9232  0.4575
 2587SOL    HW310347   3.856   3.943   4.396  0.3393 -1.6027  0.1537
 2587SOL    MW410348   3.930   3.946   4.349  0.0883 -0.2118 -0.1663
 2588SOL     OW10349   1.709   3.959   4.322 -0.3281 -0.3330  0.2905
 2588SOL    HW210350   1.799   3.968   4.291 -0.5438  1.0192  0.0354
 2588SOL    HW310351   1.661   3.928   4.246 -0.5682  1.5109 -0.3251
 2588SOL    MW410352   1.715   3.956   4.308 -0.3882  0.0887  0.1756
 2589SOL     OW10353   1.363   4.236   4.396 -0.2228 -0.3249 -0.1635
 2589SOL    HW210354   1.286   4.278   4.435 -0.4513 -0.9396  0.0681
 2589SOL    HW310355   1.329   4.155   4.357  0.2340 -0.3860 -0.4388
 2589SOL    MW410356   1.349   4.231   4.396 -0.1927 -0.4140 -0.1693
 2590SOL     OW10357   3.280   3.162   4.233  0.2605  0.1640 -0.1618
 2590SOL    HW210358   3.343   3.223   4.195  0.8987  0.4250  1.2879
 2590SOL    HW310359   3.326   3.123   4.308 -0.6931 -0.9270 -0.1276
 2590SOL    MW410360   3.295   3.165   4.238  0.2189  0.0545  0.0340
 2591SOL     OW10361   4.181   0.243   4.147 -0.0548 -0.0033 -0.0059
 2591SOL    HW210362   4.264   0.245   4.100 -0.3569  1.4257 -0.5274
 2591SOL    HW310363   4.140   0.327   4.126 -2.4952 -1.4612 -1.2946
 2591SOL    MW410364   4.187   0.255   4.138 -0.4167 -0.0071 -0.2447
 2592SOL     OW10365   0.576   3.321   3.654  0.1221  0.4914 -0.2244
 2592SOL    HW210366   0.608   3.251   3.712 -0.9382  0.2713  0.1051
 2592SOL    HW310367   0.527   3.274   3.586 -1.3601  0.9778  0.5021
 2592SOL    MW410368   0.574   3.305   3.653 -0.2133  0.5266 -0.0851
 2593SOL     OW10369   3.865   3.779   4.042  0.3964  0.6513 -0.6166
 2593SOL    HW210370   3.819   3.861   4.061  0.9331  0.5383  1.3205
 2593SOL    HW310371   3.853   3.765   3.948 -1.3389  1.9504 -0.6100
 2593SOL    MW410372   3.857   3.788   4.032  0.2382  0.8078 -0.3601
 2594SOL     OW10373   2.775   1.120   4.400 -0.0543  0.6357  0.0979
 2594SOL    HW210374   2.854   1.067   4.404 -0.7187 -0.3162  0.7539
 2594SOL    HW310375   2.803   1.207   4.431  0.6941  0.2613  0.4763
 2594SOL    MW410376   2.789   1.125   4.405 -0.0432  0.4607  0.2344
 2595SOL     OW10377   2.663   4.168   3.307 -0.2036 -0.3738  0.2253
 2595SOL    HW210378   2.600   4.213   3.364  0.2414  1.2041 -0.5008
 2595SOL    HW310379   2.663   4.078   3.338 -2.2216 -0.2128  0.7610
 2595SOL    MW410380   2.655   4.162   3.319 -0.4111 -0.1444  0.2002
 2596SOL     OW10381   4.486   1.641   3.395  0.3596  0.2350  0.1061
 2596SOL    HW210382   4.504   1.728   3.359  0.3270  0.1525 -0.1162
 2596SOL    HW310383   4.394   1.624   3.372  0.0203  0.6294  1.1812
 2596SOL    MW410384   4.476   1.650   3.387  0.3106  0.2762  0.2186
 2597SOL     OW10385   3.650   3.506   4.318  0.8123  0.5707  0.0535
 2597SOL    HW210386   3.740   3.517   4.286  0.9992 -0.4706  0.2354
 2597SOL    HW310387   3.658   3.451   4.395 -0.2211 -1.4674 -1.2670
 2597SOL    MW410388   3.663   3.500   4.324  0.7006  0.1644 -0.0967
 2598SOL     OW10389   0.792   4.537   4.073  0.2422  0.3097 -0.4047
 2598SOL    HW210390   0.852   4.462   4.079  0.1114  0.2489  0.1620
 2598SOL    HW310391   0.733   4.515   4.000 -0.0275 -0.3093 -0.0020
 2598SOL    MW410392   0.792   4.524   4.064  0.1894  0.2200 -0.2768
 2599SOL     OW10393   2.111   3.403   4.078 -0.3425  0.1121 -0.5318
 2599SOL    HW210394   2.046   3.454   4.126  0.7042  0.1363  0.9197
 2599SOL    HW310395   2.178   3.382   4.144  0.6684 -0.6690 -1.7775
 2599SOL    MW410396   2.111   3.407   4.093 -0.0710  0.0122 -0.5046
 2600SOL     OW10397   2.438   4.472   3.657  0.4459  0.3333 -0.1929
 2600SOL    HW210398   2.363   4.515   3.617  1.0977  1.7534  0.0662
 2600SOL    HW310399   2.511   4.532   3.642  1.2560 -0.3916  0.7335
 2600SOL    MW410400   2.438   4.485   3.650  0.6388  0.4251 -0.0365
 2601SOL     OW10401   4.042   1.926   3.307 -0.0992  0.1211  0.3513
 2601SOL    HW210402   4.041   1.920   3.212  0.2403 -2.7718  0.4883
 2601SOL    HW310403   4.131   1.953   3.329  0.8419 -2.4912 -0.0514
 2601SOL    MW410404   4.054   1.928   3.297  0.0697 -0.6053  0.3162
 2602SOL     OW10405   1.001   4.396   4.151  0.2746 -0.0588 -0.2228
 2602SOL    HW210406   1.044   4.341   4.085 -0.3076 -2.2436  1.1432
 2602SOL    HW310407   1.034   4.484   4.134  1.1446 -0.7925 -2.5764
 2602SOL    MW410408   1.011   4.400   4.140  0.3125 -0.4438 -0.3531
 2603SOL     OW10409   2.708   0.332   3.316 -0.4522  0.7470 -0.0275
 2603SOL    HW210410   2.796   0.350   3.348 -0.1316  1.2293 -1.1447
 2603SOL    HW310411   2.717   0.333   3.221 -1.4351 -0.3685 -0.1424
 2603SOL    MW410412   2.721   0.334   3.308 -0.5396  0.6635 -0.1900
 2604SOL     OW10413   2.530   3.682   4.267 -0.4759 -0.0886 -0.0432
 2604SOL    HW210414   2.495   3.668   4.355 -0.2427  0.1823  0.0908
 2604SOL    HW310415   2.455   3.664   4.209 -0.3058 -1.4423  0.1491
 2604SOL    MW410416   2.515   3.678   4.271 -0.4227 -0.2315 -0.0002
 2605SOL     OW10417   3.165   2.406   3.405  0.0098  0.3180 -0.1818
 2605SOL    HW210418   3.084   2.375   3.363  0.3886 -1.4923  0.3559
 2605SOL    HW310419   3.235   2.371   3.350  0.4607 -0.0923  0.6452
 2605SOL    MW410420   3.164   2.397   3.393  0.1193  0.0250 -0.0018
 2606SOL     OW10421   1.063   0.662   4.420  0.0076  0.0346  0.3595
 2606SOL    HW210422   0.997   0.653   4.489  0.1082  0.9012  0.5706
 2606SOL    HW310423   1.032   0.604   4.350 -1.1809  0.7274  0.2929
 2606SOL    MW410424   1.050   0.653   4.420 -0.1360  0.2403  0.3786
 2607SOL     OW10425   2.646   1.650   3.609 -0.8501  0.4052 -0.0691
 2607SOL    HW210426   2.584   1.580   3.629 -0.7921  0.1451 -0.7968
 2607SOL    HW310427   2.676   1.632   3.520 -1.7681  2.0442 -0.7345
 2607SOL    MW410428   2.642   1.638   3.600 -0.9636  0.5871 -0.2529
 2608SOL     OW10429   3.367   1.474   3.323 -0.3749  0.6861  0.1604
 2608SOL    HW210430   3.445   1.511   3.363  0.1315 -0.5324  0.3298
 2608SOL    HW310431   3.294   1.521   3.364  0.1795  0.2827  1.6613
 2608SOL    MW410432   3.368   1.485   3.334 -0.2350  0.4721  0.3808
 2609SOL     OW10433   0.970   2.824   3.308  0.3687  0.1678  0.0465
 2609SOL    HW210434   1.028   2.751   3.331  0.1924 -0.0669 -0.2433
 2609SOL    HW310435   0.898   2.817   3.370  0.6752  0.4911  0.4408
 2609SOL    MW410436   0.968   2.813   3.319  0.3859  0.1795  0.0603
 2610SOL     OW10437   4.467   3.346   4.621  0.3784  0.5210  0.9008
 2610SOL    HW210438   4.487   3.377   4.710 -1.5752  1.2827  1.0885
 2610SOL    HW310439   4.429   3.422   4.577  1.1754  0.0966 -0.5587
 2610SOL    MW410440   4.465   3.360   4.627  0.2258  0.5655  0.7330
 2611SOL     OW10441   4.178   3.556   3.967 -0.2862  0.2059  0.0181
 2611SOL    HW210442   4.102   3.499   3.962 -1.4873  1.9417 -2.0437
 2611SOL    HW310443   4.236   3.526   3.897 -0.1536  0.4566  0.0179
 2611SOL    MW410444   4.176   3.544   3.957 -0.4272  0.4680 -0.2540
 2612SOL     OW10445   1.164   2.892   4.299 -0.3671  0.0547  0.3187
 2612SOL    HW210446   1.136   2.917   4.211  0.6503  1.7754  0.4677
 2612SOL    HW310447   1.236   2.831   4.285 -1.1929 -0.8578 -0.0314
 2612SOL    MW410448   1.170   2.887   4.286 -0.3419  0.1613  0.2922
 2613SOL     OW10449   0.386   4.296   3.371 -0.5734 -0.0760 -0.5513
 2613SOL    HW210450   0.476   4.319   3.396 -0.6093  1.3855 -1.7012
 2613SOL    HW310451   0.389   4.290   3.276 -1.7541  0.2763 -0.6142
 2613SOL    MW410452   0.398   4.298   3.362 -0.7339  0.1633 -0.7113
 2614SOL     OW10453   0.551   1.709   4.343 -0.3814 -0.5434  0.1126
 2614SOL    HW210454   0.630   1.747   4.382 -0.2713  0.1308 -0.7627
 2614SOL    HW310455   0.490   1.702   4.416  0.1318 -0.1172  0.5904
 2614SOL    MW410456   0.554   1.713   4.358 -0.2992 -0.3982  0.0602
 2615SOL     OW10457   3.125   4.652   3.392  0.3575  0.0161  0.2900
 2615SOL    HW210458   3.110   4.747   3.388 -1.1955 -0.2329 -0.2287
 2615SOL    HW310459   3.106   4.630   3.484 -1.3936 -0.1007 -0.0750
 2615SOL    MW410460   3.120   4.662   3.404 -0.0785 -0.0321  0.1734
 2616SOL     OW10461   1.476   3.780   3.682  0.0384 -0.0787  0.1154
 2616SOL    HW210462   1.498   3.732   3.602 -0.9382 -1.3660  0.5988
 2616SOL    HW310463   1.381   3.784   3.682  0.0874  1.3371  0.4069
 2616SOL    MW410464   1.466   3.774   3.671 -0.0840 -0.0618  0.2176
 2617SOL     OW10465   3.639   1.939   4.268 -0.3500 -0.3350 -0.0408
 2617SOL    HW210466   3.549   1.954   4.239 -0.2077 -1.9191 -1.3609
 2617SOL    HW310467   3.693   1.957   4.191  0.3548 -0.8430  0.3248
 2617SOL    MW410468   3.634   1.944   4.254 -0.2382 -0.6110 -0.1668
 2618SOL     OW10469   3.802   0.313   4.079 -0.0615 -0.2379  0.0367
 2618SOL    HW210470   3.788   0.279   3.990  0.6672  0.8610 -0.5070
 2618SOL    HW310471   3.720   0.357   4.100  0.7438  1.9948 -1.2505
 2618SOL    MW410472   3.789   0.314   4.070  0.1409  0.2017 -0.2049
 2619SOL     OW10473   2.780   3.873   3.979  0.3463 -0.3894 -0.1688
 2619SOL    HW210474   2.847   3.927   4.021  1.1581 -2.2077  0.9044
 2619SOL    HW310475   2.818   3.786   3.976 -1.1662 -1.0257 -1.4323
 2619SOL    MW410476   2.794   3.869   3.984  0.2539 -0.7133 -0.1939
 2620SOL     OW10477   2.023   1.466   3.436  0.2874 -0.0036  0.3244
 2620SOL    HW210478   2.076   1.514   3.372  1.4902 -1.4291  0.2427
 2620SOL    HW310479   1.938   1.510   3.434  1.1161  1.6035 -0.3547
 2620SOL    MW410480   2.018   1.478   3.427  0.5554  0.0204  0.2240
 2621SOL     OW10481   1.842   2.038   4.062  0.3101 -0.5572 -0.3128
 2621SOL    HW210482   1.809   2.044   3.973  2.3496  0.2911 -1.0181
 2621SOL    HW310483   1.914   1.975   4.057 -0.4926 -1.6293  1.0339
 2621SOL    MW410484   1.847   2.030   4.050  0.4732 -0.5867 -0.2282
 2622SOL     OW10485   1.865   3.095   3.818 -0.2855 -0.2584 -0.3782
 2622SOL    HW210486   1.884   3.182   3.783 -0.6537 -0.3489 -0.8060
 2622SOL    HW310487   1.921   3.087   3.895 -0.8980  0.7002  0.1668
 2622SOL    MW410488   1.875   3.105   3.824 -0.4149 -0.1438 -0.3627
 2623SOL     OW10489   4.010   1.554   4.350 -0.7399 -0.0966  0.2834
 2623SOL    HW210490   4.058   1.478   4.384  0.6344  0.6668  0.0826
 2623SOL    HW310491   4.029   1.554   4.256 -0.1407  0.9030  0.3935
 2623SOL    MW410492   4.019   1.544   4.342 -0.4795  0.1360  0.2714
 2624SOL     OW10493   2.412   0.993   3.621  0.3260  0.0983 -0.6939
 2624SOL    HW210494   2.497   1.035   3.610  0.3907  0.4596  1.0266
 2624SOL    HW310495   2.398   0.992   3.716 -1.4032 -0.3255 -0.9366
 2624SOL    MW410496   2.421   0.998   3.632  0.1064  0.0900 -0.4989
 2625SOL     OW10497   2.925   3.799   3.226 -0.3381  0.4610 -0.1123
 2625SOL    HW210498   2.932   3.724   3.284  0.4530 -0.6561 -1.6095
 2625SOL    HW310499   2.993   3.859   3.256 -0.1198  0.0175  0.2798
 2625SOL    MW410500   2.935   3.797   3.238 -0.2049  0.2551 -0.2581
 2626SOL     OW10501   1.345   1.290   4.270  0.0817 -0.1948 -0.3053
 2626SOL    HW210502   1.272   1.230   4.253 -0.1894 -0.0984  0.5162
 2626SOL    HW310503   1.407   1.238   4.322 -0.6387  0.5570  1.3306
 2626SOL    MW410504   1.343   1.275   4.275 -0.0491 -0.0829  0.0190
 2627SOL     OW10505   1.798   0.056   3.913  0.1579 -0.0078 -0.1912
 2627SOL    HW210506   1.812   0.136   3.862 -0.9131 -0.1846 -0.7959
 2627SOL    HW310507   1.789   0.086   4.003 -0.8523  0.6300 -0.4905
 2627SOL    MW410508   1.799   0.071   3.918 -0.1167  0.0530 -0.3104
 2628SOL     OW10509   3.873   4.581   4.604 -0.2352 -0.3441 -0.0925
 2628SOL    HW210510   3.942   4.515   4.598 -0.3328 -0.2586 -2.7504
 2628SOL    HW310511   3.792   4.531   4.611 -0.1440 -0.4756  0.0177
 2628SOL    MW410512   3.871   4.566   4.604 -0.2360 -0.3502 -0.4287
 2629SOL     OW10513   0.006   2.127   4.045 -0.0143  0.5411 -0.1555
 2629SOL    HW210514   0.068   2.077   4.098  0.9429  0.3948 -1.4090
 2629SOL    HW310515  -0.056   2.162   4.109  0.3735 -0.6977  0.9384
 2629SOL    MW410516   0.006   2.125   4.060  0.1632  0.3584 -0.1766
 2630SOL     OW10517   1.135   3.997   3.876 -0.0334  0.5028 -0.3734
 2630SOL    HW210518   1.180   3.938   3.816 -0.0625  0.2991 -0.1966
 2630SOL    HW310519   1.044   3.966   3.877  0.0552  0.2525  0.0877
 2630SOL    MW410520   1.129   3.985   3.868 -0.0256  0.4429 -0.2893
 2631SOL     OW10521   0.687   4.324   4.475 -0.1524 -0.4812 -0.0085
 2631SOL    HW210522   0.721   4.407   4.441  0.3903  0.1171  1.9429
 2631SOL    HW310523   0.764   4.275   4.501 -0.5612 -0.8629  0.5073
 2631SOL    MW410524   0.701   4.328   4.474 -0.1347 -0.4526  0.3170
 2632SOL     OW10525   2.866   0.519   4.268 -0.2153 -0.1022 -0.3480
 2632SOL    HW210526   2.945   0.465   4.257  0.4203  0.6915  0.2611
 2632SOL    HW310527   2.797   0.469   4.225  1.0076  0.1678 -2.7302
 2632SOL    MW410528   2.868   0.505   4.261  0.0299  0.0382 -0.5820
 2633SOL     OW10529   3.468   4.132   4.251 -0.3674  0.0007  0.0487
 2633SOL    HW210530   3.469   4.225   4.270  0.1123 -0.2297  1.1912
 2633SOL    HW310531   3.463   4.126   4.156 -0.2562  1.1863 -0.0282
 2633SOL    MW410532   3.467   4.143   4.241 -0.2894  0.1267  0.1893
 2634SOL     OW10533   0.517   0.445   4.388  0.4946  0.2754 -0.4198
 2634SOL    HW210534   0.509   0.540   4.379 -1.1696  0.2430  0.6668
 2634SOL    HW310535   0.514   0.413   4.298  1.0875  1.2355 -0.7968
 2634SOL    MW410536   0.516   0.453   4.375  0.3532  0.3978 -0.3262
 2635SOL     OW10537   3.641   0.073   4.435  0.3319 -0.3082  0.5310
 2635SOL    HW210538   3.668   0.050   4.346 -0.6714  1.0660 -0.1464
 2635SOL    HW310539   3.723   0.090   4.481  0.7873  1.0644 -0.7306
 2635SOL    MW410540   3.655   0.072   4.429  0.2597  0.0542  0.2752
 2636SOL     OW10541   2.071   2.271   3.309 -0.6895 -0.3504  0.0554
 2636SOL    HW210542   2.076   2.278   3.214  0.2388  0.0768  0.1336
 2636SOL    HW310543   2.061   2.178   3.326  0.1359 -0.5219 -0.4129
 2636SOL    MW410544   2.070   2.260   3.299 -0.4581 -0.3167  0.0039
 2637SOL     OW10545   4.451   4.508   4.495 -0.5853  0.0897 -0.1091
 2637SOL    HW210546   4.425   4.502   4.403 -0.3996  0.0966 -0.1617
 2637SOL    HW310547   4.420   4.594   4.523 -1.0810 -0.1105 -0.0288
 2637SOL    MW410548   4.444   4.518   4.486 -0.6262  0.0642 -0.1055
 2638SOL     OW10549   2.178   4.195   4.146  0.1440 -0.4494 -0.2998
 2638SOL    HW210550   2.236   4.222   4.217  1.2037  0.0004 -1.3011
 2638SOL    HW310551   2.237   4.155   4.081 -0.7580 -0.5888 -1.0453
 2638SOL    MW410552   2.194   4.193   4.147  0.1648 -0.4084 -0.5303
 2639SOL     OW10553   4.093   0.087   4.380 -0.2918 -0.3743  0.0218
 2639SOL    HW210554   4.056   0.006   4.346 -0.0825 -0.2029 -0.6174
 2639SOL    HW310555   4.140   0.125   4.306  0.2403 -0.0436  0.5277
 2639SOL    MW410556   4.094   0.082   4.366 -0.1940 -0.3080  0.0042
 2640SOL     OW10557   2.660   1.623   4.577 -0.3259  0.4008 -0.0047
 2640SOL    HW210558   2.662   1.661   4.664 -1.8090 -0.3341  0.3641
 2640SOL    HW310559   2.671   1.698   4.518  2.5646  0.6909  0.8163
 2640SOL    MW410560   2.662   1.638   4.580 -0.1402  0.3421  0.1523
 2641SOL     OW10561   2.446   1.422   4.524 -0.5932  0.0860  0.1162
 2641SOL    HW210562   2.368   1.472   4.499 -0.9124 -0.8177 -0.7218
 2641SOL    HW310563   2.515   1.487   4.530 -1.2843  0.8100  0.2718
 2641SOL    MW410564   2.445   1.437   4.522 -0.7265  0.0623  0.0262
 2642SOL     OW10565   0.030   0.493   4.620  0.3478  0.2682  0.3136
 2642SOL    HW210566   0.018   0.405   4.657  0.1225 -0.0300 -0.4547
 2642SOL    HW310567   0.107   0.485   4.564 -1.1480 -0.0987 -1.7440
 2642SOL    MW410568   0.039   0.480   4.618  0.1207  0.1804 -0.0592
 2643SOL     OW10569   3.313   3.152   3.868 -0.5591 -0.0650 -0.2559
 2643SOL    HW210570   3.238   3.145   3.809 -0.4912 -2.4316 -0.1017
 2643SOL    HW310571   3.362   3.070   3.855  1.8599  1.3169 -0.1616
 2643SOL    MW410572   3.310   3.140   3.859 -0.2310 -0.1950 -0.2231
 2644SOL     OW10573   2.385   3.815   3.297 -0.1778  0.1412 -0.9351
 2644SOL    HW210574   2.290   3.824   3.298 -0.3049 -1.1630 -0.1705
 2644SOL    HW310575   2.415   3.870   3.369 -0.4976 -0.8782 -0.0144
 2644SOL    MW410576   2.377   3.823   3.307 -0.2368 -0.1654 -0.7128
 2645SOL     OW10577   4.356   2.080   4.603  0.5039 -0.1376 -0.1860
 2645SOL    HW210578   4.378   2.121   4.687 -0.2536  1.9470 -0.9743
 2645SOL    HW310579   4.434   2.030   4.580  0.9497 -0.2280  1.4597
 2645SOL    MW410580   4.369   2.079   4.611  0.4628  0.1255 -0.0729
 2646SOL     OW10581   2.012   4.413   4.180 -0.2706 -0.2840 -0.0885
 2646SOL    HW210582   1.999   4.465   4.101 -1.8880  0.0807  0.4110
 2646SOL    HW310583   2.061   4.336   4.150 -1.5036 -0.5123 -1.5901
 2646SOL    MW410584   2.017   4.409   4.165 -0.6467 -0.2660 -0.2207
 2647SOL     OW10585   0.618   1.135   3.516  0.4568 -0.4528  0.2255
 2647SOL    HW210586   0.658   1.054   3.546  0.6701  0.0805  1.4047
 2647SOL    HW310587   0.579   1.174   3.595  0.3682  0.5907 -0.3196
 2647SOL    MW410588   0.618   1.129   3.531  0.4732 -0.2448  0.3092
 2648SOL     OW10589   0.104   3.767   4.342 -0.3432 -0.1041  0.3211
 2648SOL    HW210590   0.134   3.828   4.275  1.6238 -0.6155  0.7132
 2648SOL    HW310591   0.011   3.787   4.353  0.1118  2.3261 -0.0692
 2648SOL    MW410592   0.095   3.777   4.335 -0.0236  0.1491  0.3213
 2649SOL     OW10593   4.429   3.761   4.650 -0.0341 -0.3240 -0.0332
 2649SOL    HW210594   4.364   3.821   4.687  1.0703  1.7079 -1.3221
 2649SOL    HW310595   4.504   3.816   4.629  0.1906 -1.7363 -3.3109
 2649SOL    MW410596   4.430   3.776   4.652  0.1412 -0.2423 -0.6357
 2650SOL     OW10597   3.002   2.767   4.452 -0.2203  0.3376 -0.2344
 2650SOL    HW210598   2.987   2.861   4.465 -0.8165  0.0958  0.8932
 2650SOL    HW310599   2.914   2.729   4.449  0.0354 -0.2506 -0.1919
 2650SOL    MW410600   2.988   2.775   4.453 -0.2652  0.2281 -0.0800
 2651SOL     OW10601   0.037   1.868   4.466 -0.1885  0.4353  0.4639
 2651SOL    HW210602  -0.042   1.839   4.420  0.5747 -0.7236 -0.1446
 2651SOL    HW310603   0.096   1.895   4.396  0.6242 -0.4165  0.8142
 2651SOL    MW410604   0.035   1.868   4.451  0.0194  0.1700  0.4298
 2652SOL     OW10605   3.368   4.369   3.407  0.1207 -0.0693  0.2122
 2652SOL    HW210606   3.366   4.460   3.378  0.2869 -0.0696  0.1974
 2652SOL    HW310607   3.445   4.332   3.364 -1.6788 -1.0604 -2.3208
 2652SOL    MW410608   3.378   4.376   3.397 -0.0948 -0.2001 -0.1239
 2653SOL     OW10609   4.305   1.719   3.788 -0.5387  0.0916  0.4857
 2653SOL    HW210610   4.220   1.697   3.750  0.1252  0.0995 -1.0064
 2653SOL    HW310611   4.330   1.800   3.745  0.7445 -0.4996  0.1199
 2653SOL    MW410612   4.297   1.726   3.777 -0.2818  0.0147  0.2405
 2654SOL     OW10613   0.961   1.036   4.625 -0.1712 -0.3198  0.1027
 2654SOL    HW210614   0.946   1.012   4.534 -0.3091  0.3402 -0.0522
 2654SOL    HW310615   0.950   0.954   4.674 -0.8403 -0.5315 -0.3920
 2654SOL    MW410616   0.957   1.022   4.620 -0.2777 -0.2606  0.0170
 2655SOL     OW10617   4.214   3.132   4.572 -0.0485 -0.1477  0.6190
 2655SOL    HW210618   4.173   3.195   4.513 -0.5997  1.3552  2.5786
 2655SOL    HW310619   4.295   3.175   4.600  0.4700 -1.0758  0.5836
 2655SOL    MW410620   4.220   3.146   4.568 -0.0528 -0.0719  0.8729
 2656SOL     OW10621   4.268   4.141   3.876 -0.3610  0.0152 -0.0757
 2656SOL    HW210622   4.259   4.116   3.967 -0.6201  0.0908 -0.0819
 2656SOL    HW310623   4.218   4.076   3.827 -0.7733  0.3548 -0.1147
 2656SOL    MW410624   4.260   4.129   3.881 -0.4496  0.0700 -0.0817
 2657SOL     OW10625   3.552   0.674   4.068  0.4347 -0.1124 -0.0497
 2657SOL    HW210626   3.646   0.676   4.050  0.5668 -1.7982  0.3835
 2657SOL    HW310627   3.536   0.587   4.104 -1.3081  0.1312 -0.1748
 2657SOL    MW410628   3.562   0.663   4.070  0.2222 -0.3027 -0.0090
 2658SOL     OW10629   1.992   4.000   4.199  0.1091 -0.5176 -0.4134
 2658SOL    HW210630   2.042   3.921   4.219  0.3466 -0.2312  0.1433
 2658SOL    HW310631   2.058   4.065   4.176 -0.0551 -0.3440 -0.3995
 2658SOL    MW410632   2.007   3.998   4.199  0.1188 -0.4569 -0.3381
 2659SOL     OW10633   4.347   2.143   3.809 -0.1119  0.2460 -0.3115
 2659SOL    HW210634   4.414   2.127   3.875 -0.9596 -0.9747  0.2726
 2659SOL    HW310635   4.365   2.080   3.739  0.0066  0.6633 -0.6636
 2659SOL    MW410636   4.358   2.133   3.808 -0.2081  0.1400 -0.2809
 2660SOL     OW10637   4.452   4.132   3.657 -0.6455 -0.2318 -0.5237
 2660SOL    HW210638   4.429   4.124   3.749 -0.1649  1.0132 -0.2724
 2660SOL    HW310639   4.527   4.193   3.657 -0.6600 -0.2052 -1.7266
 2660SOL    MW410640   4.459   4.139   3.669 -0.5840 -0.0640 -0.6492
 2661SOL     OW10641   0.439   0.166   3.971  0.1467 -0.5326 -0.0434
 2661SOL    HW210642   0.455   0.079   4.007  0.2736 -0.4461  0.1083
 2661SOL    HW310643   0.481   0.165   3.885 -0.2219 -0.7640 -0.2234
 2661SOL    MW410644   0.447   0.154   3.965  0.1148 -0.5517 -0.0472
 2662SOL     OW10645   1.788   0.823   3.409 -0.1397 -0.4742  0.0814
 2662SOL    HW210646   1.783   0.809   3.504 -1.3671  0.4282  0.1618
 2662SOL    HW310647   1.874   0.789   3.384  0.5403  0.0744  1.6467
 2662SOL    MW410648   1.799   0.817   3.418 -0.2119 -0.2828  0.2985
 2663SOL     OW10649   0.924   2.700   3.044 -0.0969  0.4299 -0.0790
 2663SOL    HW210650   0.922   2.605   3.055 -2.2134  0.4581 -0.0982
 2663SOL    HW310651   0.917   2.735   3.132  0.0666  0.5864 -0.1262
 2663SOL    MW410652   0.923   2.692   3.057 -0.3546  0.4543 -0.0877
 2664SOL     OW10653   3.632   3.145   3.486  0.2085  0.0956 -0.1300
 2664SOL    HW210654   3.552   3.115   3.442 -0.6102  0.4969  1.0557
 2664SOL    HW310655   3.646   3.234   3.452 -0.6543  0.5602  0.7388
 2664SOL    MW410656   3.623   3.153   3.475 -0.0134  0.2099  0.1411
 2665SOL     OW10657   1.653   2.400   4.292  0.2951 -0.1240  0.2195
 2665SOL    HW210658   1.688   2.488   4.279 -1.0268  0.4423  0.3501
 2665SOL    HW310659   1.660   2.359   4.207  0.2281  0.3806 -0.0352
 2665SOL    MW410660   1.658   2.407   4.279  0.1119  0.0173  0.2031
 2666SOL     OW10661   1.780   1.607   3.446 -0.4859  0.2332  0.2931
 2666SOL    HW210662   1.785   1.690   3.398 -0.0734  0.2456  0.3534
 2666SOL    HW310663   1.726   1.551   3.391  1.8224 -0.4923 -1.3151
 2666SOL    MW410664   1.774   1.611   3.432 -0.1269  0.1391  0.0889
 2667SOL     OW10665   2.374   2.350   4.246 -0.1685  0.3391  0.3355
 2667SOL    HW210666   2.459   2.367   4.205 -0.2754  0.0267 -0.0225
 2667SOL    HW310667   2.388   2.272   4.299 -0.6654 -0.7010 -1.0578
 2667SOL    MW410668   2.387   2.342   4.248 -0.2482  0.1607  0.1044
 2668SOL     OW10669   3.957   3.381   3.984  0.5684  0.2555  0.2266
 2668SOL    HW210670   3.953   3.292   3.948 -2.2103  0.0134  1.0585
 2668SOL    HW310671   3.872   3.419   3.965  0.5599  1.6061  2.7958
 2668SOL    MW410672   3.945   3.374   3.976  0.2007  0.4017  0.6753
 2669SOL     OW10673   1.323   0.554   4.489 -0.0771  0.2131 -0.3946
 2669SOL    HW210674   1.235   0.592   4.494  0.2694  1.1423 -1.1278
 2669SOL    HW310675   1.317   0.489   4.420 -0.8083 -1.4930  1.2126
 2669SOL    MW410676   1.310   0.550   4.481 -0.1279  0.1106 -0.2793
 2670SOL     OW10677   2.826   0.730   4.469  0.1007 -0.5715  0.1153
 2670SOL    HW210678   2.731   0.732   4.476  0.0144 -0.5679 -0.9854
 2670SOL    HW310679   2.845   0.650   4.419  0.6500 -0.4005  0.0422
 2670SOL    MW410680   2.816   0.720   4.463  0.1618 -0.5485 -0.0396
 2671SOL     OW10681   3.526   0.150   3.697  0.1313  0.1474 -0.1615
 2671SOL    HW210682   3.522   0.139   3.602  2.4148  2.5332 -0.5921
 2671SOL    HW310683   3.485   0.235   3.714 -0.2969 -0.2756  0.9824
 2671SOL    MW410684   3.520   0.160   3.687  0.3761  0.4064 -0.0674
 2672SOL     OW10685   1.130   2.440   3.787 -0.2046  0.1155 -0.2061
 2672SOL    HW210686   1.108   2.364   3.732  0.9059 -1.6564  1.7229
 2672SOL    HW310687   1.099   2.417   3.874  0.4160  1.7575  0.4740
 2672SOL    MW410688   1.123   2.427   3.791  0.0238  0.0984  0.1382
 2673SOL     OW10689   2.493   2.828   3.465  0.5175  0.6302 -0.5997
 2673SOL    HW210690   2.430   2.767   3.428 -1.0686  2.3079 -0.6918
 2673SOL    HW310691   2.466   2.840   3.556  0.3092  1.8570 -0.8152
 2673SOL    MW410692   2.481   2.821   3.472  0.2808  1.0135 -0.6403
 2674SOL     OW10693   3.817   1.973   3.440 -0.1682  0.1038 -0.0379
 2674SOL    HW210694   3.842   1.967   3.532 -0.2280 -0.0159 -0.0297
 2674SOL    HW310695   3.901   1.978   3.393 -0.0913 -1.7079 -0.1136
 2674SOL    MW410696   3.832   1.973   3.446 -0.1659 -0.1510 -0.0468
 2675SOL     OW10697   2.414   0.373   3.678  0.0830 -0.5942 -0.0398
 2675SOL    HW210698   2.408   0.454   3.729  0.7913 -0.1171 -0.7092
 2675SOL    HW310699   2.439   0.401   3.590 -0.1484 -1.5026 -0.4013
 2675SOL    MW410700   2.417   0.387   3.673  0.1459 -0.6511 -0.1758
 2676SOL     OW10701   2.452   4.470   4.142 -0.1020  0.0784 -0.1543
 2676SOL    HW210702   2.401   4.483   4.062  0.2809  0.7807 -0.2816
 2676SOL    HW310703   2.539   4.447   4.110  0.6946  2.7062  0.0305
 2676SOL    MW410704   2.457   4.468   4.127  0.0536  0.5178 -0.1467
 2677SOL     OW10705   1.354   4.390   3.764  0.2618 -0.4373 -0.3590
 2677SOL    HW210706   1.337   4.313   3.710  1.2444 -0.6900 -0.3101
 2677SOL    HW310707   1.450   4.397   3.768  0.1921  0.1545  0.5333
 2677SOL    MW410708   1.365   4.381   3.757  0.3822 -0.3926 -0.2348
 2678SOL     OW10709   0.064   0.771   4.649  0.1648  0.1125  0.1816
 2678SOL    HW210710  -0.028   0.799   4.650  0.4014  1.0349 -1.6637
 2678SOL    HW310711   0.060   0.676   4.654 -0.9994  0.0088 -2.0627
 2678SOL    MW410712   0.051   0.762   4.650  0.0424  0.2205 -0.3580
 2679SOL     OW10713   1.406   2.956   3.701 -0.3714 -0.7140  0.0016
 2679SOL    HW210714   1.498   2.949   3.675 -0.3177 -0.3271  0.0773
 2679SOL    HW310715   1.364   2.999   3.627 -0.6393 -1.5758 -0.3489
 2679SOL    MW410716   1.412   2.961   3.688 -0.3997 -0.7767 -0.0347
 2680SOL     OW10717   3.540   2.137   3.675 -0.2692 -0.3041  0.0901
 2680SOL    HW210718   3.622   2.088   3.663  0.3557  0.8553 -0.4341
 2680SOL    HW310719   3.485   2.106   3.603  0.9238  1.3633 -1.5972
 2680SOL    MW410720   3.544   2.126   3.664 -0.0293  0.0688 -0.2017
 2681SOL     OW10721   3.150   3.204   3.393  0.0618  0.4502 -0.1926
 2681SOL    HW210722   3.145   3.294   3.362  0.5535  0.8328  0.8309
 2681SOL    HW310723   3.133   3.209   3.487 -1.7598 -0.7400 -0.4317
 2681SOL    MW410724   3.147   3.216   3.401 -0.1136  0.3437 -0.0891
 2682SOL     OW10725   1.177   4.191   4.069  0.2837  0.5052 -0.6232
 2682SOL    HW210726   1.172   4.131   3.995  2.4275 -1.3768  0.6778
 2682SOL    HW310727   1.270   4.215   4.073  0.5970 -1.0020  2.6060
 2682SOL    MW410728   1.189   4.186   4.060  0.6079  0.0581 -0.0255
 2683SOL     OW10729   0.883   3.205   3.434 -0.0690 -0.6946 -0.2260
 2683SOL    HW210730   0.938   3.165   3.366 -0.5770 -1.2384 -0.3192
 2683SOL    HW310731   0.880   3.298   3.411  0.5875 -0.7098 -0.3789
 2683SOL    MW410732   0.890   3.212   3.422 -0.0494 -0.7684 -0.2584
 2684SOL     OW10733   2.305   0.850   3.403 -0.2586 -0.2106 -0.0142
 2684SOL    HW210734   2.332   0.895   3.483  0.2867 -0.1717 -0.2197
 2684SOL    HW310735   2.373   0.785   3.388 -1.0166 -1.0877  0.2578
 2684SOL    MW410736   2.317   0.847   3.412 -0.2867 -0.3212 -0.0054
 2685SOL     OW10737   2.739   2.304   4.574 -0.1217  0.2339  0.0837
 2685SOL    HW210738   2.809   2.288   4.637 -0.9858  0.0820  1.0117
 2685SOL    HW310739   2.685   2.225   4.578 -0.3981  0.3887 -0.5649
 2685SOL    MW410740   2.741   2.292   4.583 -0.2721  0.2343  0.1205
 2686SOL     OW10741   4.137   2.256   3.952 -0.0499  0.3639  0.0872
 2686SOL    HW210742   4.163   2.253   4.044  0.9686 -1.1918 -0.2373
 2686SOL    HW310743   4.209   2.214   3.905 -1.2501 -0.2176 -1.2636
 2686SOL    MW410744   4.150   2.250   3.958 -0.0738  0.0819 -0.1338
 2687SOL     OW10745   1.343   0.892   3.368  0.1804 -0.0160 -0.4954
 2687SOL    HW210746   1.426   0.862   3.332  1.4855 -0.5384  2.7677
 2687SOL    HW310747   1.348   0.988   3.365  0.5440 -0.0584 -1.0830
 2687SOL    MW410748   1.354   0.901   3.363  0.4005 -0.0905 -0.1424
 2688SOL     OW10749   3.291   2.293   3.637  0.2874 -0.0451 -0.2459
 2688SOL    HW210750   3.264   2.342   3.559  0.5831  0.3906 -0.0748
 2688SOL    HW310751   3.386   2.292   3.634  0.3259  0.7737  0.6034
 2688SOL    MW410752   3.300   2.299   3.627  0.3315  0.1204 -0.1113
 2689SOL     OW10753   2.191   4.569   4.356  0.4716  0.3398  0.0326
 2689SOL    HW210754   2.133   4.563   4.431 -1.1105 -0.9311 -1.2631
 2689SOL    HW310755   2.145   4.524   4.285  2.3928  0.5571 -1.4210
 2689SOL    MW410756   2.178   4.562   4.356  0.5163  0.2008 -0.3302
 2690SOL     OW10757   3.348   2.799   3.378 -0.1531  0.2011  0.3627
 2690SOL    HW210758   3.272   2.743   3.361 -0.8803  1.1603  0.4504
 2690SOL    HW310759   3.387   2.762   3.457 -1.2530  0.4713  1.0383
 2690SOL    MW410760   3.343   2.787   3.386 -0.3942  0.3633  0.4634
 2691SOL     OW10761   1.798   1.082   3.325  0.0436 -0.2619  0.3242
 2691SOL    HW210762   1.774   1.000   3.369  0.3272 -0.3840  0.2531
 2691SOL    HW310763   1.878   1.111   3.370 -1.1252  0.9914  1.6597
 2691SOL    MW410764   1.806   1.075   3.337 -0.0732 -0.1126  0.4910
 2692SOL     OW10765   1.430   3.631   3.941  0.7942 -0.1521  0.5154
 2692SOL    HW210766   1.447   3.632   3.846 -1.8698 -0.3929 -0.0091
 2692SOL    HW310767   1.374   3.708   3.955 -0.9533 -1.5556  1.4373
 2692SOL    MW410768   1.425   3.642   3.930  0.2121 -0.3690  0.5679
 2693SOL     OW10769   2.483   0.452   3.418  0.1251 -0.0800 -0.2612
 2693SOL    HW210770   2.565   0.411   3.389 -0.1844 -0.8511 -0.0489
 2693SOL    HW310771   2.484   0.539   3.376  1.2437  0.0784  0.0834
 2693SOL    MW410772   2.494   0.458   3.408  0.2318 -0.1609 -0.1877
 2694SOL     OW10773   3.764   0.674   3.765 -0.1753  0.2382  0.3767
 2694SOL    HW210774   3.768   0.625   3.847  0.5979 -0.6786 -0.2071
 2694SOL    HW310775   3.840   0.644   3.715 -0.8025  0.5912 -0.7997
 2694SOL    MW410776   3.775   0.664   3.769 -0.1561  0.1638  0.1444
 2695SOL     OW10777   2.071   2.026   3.672  0.3117  0.3374  0.1257
 2695SOL    HW210778   2.110   1.947   3.710 -0.7495  0.1422  0.8351
 2695SOL    HW310779   2.134   2.095   3.690  0.8275 -0.1730  0.3038
 2695SOL    MW410780   2.084   2.025   3.679  0.2397  0.2443  0.2428
 2696SOL     OW10781   2.305   3.105   3.700  0.3528  0.1715 -0.1895
 2696SOL    HW210782   2.380   3.159   3.725  1.7870 -0.9175 -2.0020
 2696SOL    HW310783   2.269   3.148   3.623 -0.8249  0.5878  0.5634
 2696SOL    MW410784   2.310   3.118   3.693  0.3866  0.0827 -0.3293
 2697SOL     OW10785   2.058   4.041   3.447  0.5629  0.5363 -0.0011
 2697SOL    HW210786   2.117   4.110   3.418  1.2190 -0.5752 -1.3611
 2697SOL    HW310787   1.974   4.062   3.405  1.1848 -0.3719 -1.7365
 2697SOL    MW410788   2.055   4.053   3.438  0.7315  0.2699 -0.4095
 2698SOL     OW10789   4.390   0.582   4.196 -0.2705  0.0461  0.3177
 2698SOL    HW210790   4.376   0.505   4.251 -1.3261  0.5082  0.6891
 2698SOL    HW310791   4.485   0.583   4.182  0.0323  0.0121  2.2233
 2698SOL    MW410792   4.401   0.572   4.201 -0.3698  0.1026  0.6181
 2699SOL     OW10793   3.175   4.224   3.272  0.0859  0.5666 -0.4854
 2699SOL    HW210794   3.213   4.287   3.333 -0.0378  0.9066 -0.7555
 2699SOL    HW310795   3.080   4.235   3.283  0.0375  1.6894 -1.7984
 2699SOL    MW410796   3.167   4.234   3.281  0.0632  0.7596 -0.6943
 2700SOL     OW10797   0.442   1.563   3.685 -0.1414 -0.2832  0.0819
 2700SOL    HW210798   0.380   1.626   3.723  1.7387  2.0799 -0.6480
 2700SOL    HW310799   0.444   1.585   3.592  2.8876  0.6863  0.3198
 2700SOL    MW410800   0.434   1.574   3.678  0.5063  0.1565  0.0170
 2701SOL     OW10801   3.813   0.887   3.927  0.6652  0.4819 -0.3180
 2701SOL    HW210802   3.858   0.841   3.998 -2.1747  1.1868  2.0427
 2701SOL    HW310803   3.802   0.820   3.859  2.7579 -0.4165  0.1844
 2701SOL    MW410804   3.818   0.872   3.928  0.5666  0.4564  0.0598
 2702SOL     OW10805   4.119   0.414   3.809 -0.2837 -0.9455  0.0936
 2702SOL    HW210806   4.161   0.497   3.786 -0.8715 -0.5664  0.3838
 2702SOL    HW310807   4.164   0.349   3.755 -0.4103 -0.3230 -0.7796
 2702SOL    MW410808   4.131   0.416   3.799 -0.3780 -0.8133  0.0167
 2703SOL     OW10809   2.304   3.669   4.037  0.1727  0.0997 -0.0521
 2703SOL    HW210810   2.245   3.683   4.111 -0.3346  1.9252 -0.8041
 2703SOL    HW310811   2.259   3.705   3.962  1.7221  0.4255 -0.8564
 2703SOL    MW410812   2.291   3.675   4.037  0.3102  0.3835 -0.2574
 2704SOL     OW10813   2.260   2.338   3.679  0.0015  0.1333 -0.0864
 2704SOL    HW210814   2.270   2.360   3.586 -0.2913 -1.5146 -0.5216
 2704SOL    HW310815   2.201   2.405   3.714 -0.7708  0.1020 -1.3368
 2704SOL    MW410816   2.254   2.350   3.671 -0.1390 -0.0883 -0.3088
 2705SOL     OW10817   4.313   0.215   3.704 -0.3922  0.4862 -0.0715
 2705SOL    HW210818   4.394   0.227   3.653 -0.0374 -0.8134  0.1789
 2705SOL    HW310819   4.253   0.171   3.644 -0.9824  1.6061 -0.3116
 2705SOL    MW410820   4.316   0.211   3.690 -0.4232  0.4625 -0.0701
 2706SOL     OW10821   1.843   2.114   3.802  0.0643 -0.1061  0.3981
 2706SOL    HW210822   1.918   2.065   3.770 -0.6582 -0.0269 -1.4914
 2706SOL    HW310823   1.767   2.063   3.774 -0.6531  1.3222 -0.3215
 2706SOL    MW410824   1.843   2.101   3.794 -0.1256  0.0928  0.0538
 2707SOL     OW10825   3.439   1.587   4.037 -0.1257 -0.1751  0.5321
 2707SOL    HW210826   3.488   1.604   4.117 -0.7912  0.9272  0.7012
 2707SOL    HW310827   3.476   1.647   3.973 -0.7851  0.1707  0.4739
 2707SOL    MW410828   3.450   1.597   4.039 -0.3005  0.0160  0.5467
 2708SOL     OW10829   3.570   1.391   3.804  0.1899  0.8252 -0.0986
 2708SOL    HW210830   3.517   1.376   3.882 -0.6330  0.7020 -0.6753
 2708SOL    HW310831   3.579   1.304   3.765 -0.5209  1.0776 -0.8485
 2708SOL    MW410832   3.564   1.377   3.809 -0.0125  0.8423 -0.2736
 2709SOL     OW10833   2.706   3.252   3.681  0.7206  0.0310  0.0290
 2709SOL    HW210834   2.682   3.234   3.590  0.9585 -0.5791  0.0858
 2709SOL    HW310835   2.626   3.289   3.719  0.3467 -0.5138 -0.2054
 2709SOL    MW410836   2.692   3.254   3.674  0.7027 -0.1213  0.0056
 2710SOL     OW10837   3.696   3.037   3.768  0.3336 -0.6082 -0.6250
 2710SOL    HW210838   3.662   3.067   3.684 -1.5223 -0.1098  0.2691
 2710SOL    HW310839   3.777   3.086   3.780  0.5709 -0.6304 -2.0867
 2710SOL    MW410840   3.702   3.048   3.759  0.1200 -0.5454 -0.6999
 2711SOL     OW10841   0.629   4.543   3.849 -0.3545  0.5833  0.3581
 2711SOL    HW210842   0.682   4.618   3.821 -0.8298  0.9259  0.3836
 2711SOL    HW310843   0.561   4.580   3.904 -1.3275  0.2794 -0.6192
 2711SOL    MW410844   0.627   4.558   3.852 -0.5456  0.5884  0.2325
 2712SOL     OW10845   2.137   2.043   4.456 -0.3109 -0.2694 -0.0191
 2712SOL    HW210846   2.091   2.125   4.477 -0.8577 -0.6343  0.2256
 2712SOL    HW310847   2.070   1.988   4.415 -0.1271 -0.8502  0.4524
 2712SOL    MW410848   2.122   2.047   4.453 -0.3588 -0.3942  0.0754
 2713SOL     OW10849   3.566   2.405   3.711  0.2235  0.0086 -0.0567
 2713SOL    HW210850   3.618   2.430   3.788  0.1371  0.6097 -0.1878
 2713SOL    HW310851   3.563   2.310   3.714  1.7681 -0.0739 -0.3185
 2713SOL    MW410852   3.573   2.396   3.722  0.4159  0.0770 -0.1085
 2714SOL     OW10853   0.022   3.624   3.718  0.2556  0.2769 -0.0585
 2714SOL    HW210854   0.044   3.637   3.811 -0.2186 -1.4164  0.2958
 2714SOL    HW310855  -0.069   3.655   3.712 -0.0198 -0.4590  0.2434
 2714SOL    MW410856   0.013   3.630   3.730  0.1567 -0.0436  0.0281
 2715SOL     OW10857   2.487   2.367   3.852 -0.5859 -0.3974 -0.6651
 2715SOL    HW210858   2.475   2.455   3.887  0.6936 -1.1979  1.8514
 2715SOL    HW310859   2.410   2.353   3.796 -0.8899  2.2264 -0.9605
 2715SOL    MW410860   2.475   2.377   3.849 -0.4572 -0.1569 -0.3720
 2716SOL     OW10861   1.728   2.256   4.514  0.5138  0.1183 -0.5083
 2716SOL    HW210862   1.684   2.289   4.592  1.0845 -0.7029  0.1615
 2716SOL    HW310863   1.702   2.317   4.445  0.2657  1.0414  0.3820
 2716SOL    MW410864   1.719   2.268   4.515  0.5564  0.1317 -0.3025
 2717SOL     OW10865   3.399   2.034   3.455 -0.3916  0.6363  0.0124
 2717SOL    HW210866   3.312   1.995   3.459  0.2814 -0.7607  1.1632
 2717SOL    HW310867   3.447   1.979   3.393 -0.2614  1.3301 -0.5231
 2717SOL    MW410868   3.394   2.022   3.447 -0.2856  0.5435  0.0936
 2718SOL     OW10869   0.163   1.377   4.404  0.0522 -0.0522 -0.3773
 2718SOL    HW210870   0.068   1.376   4.391  0.1675 -0.0453 -1.2496
 2718SOL    HW310871   0.190   1.466   4.381  0.2198  0.0651  0.2583
 2718SOL    MW410872   0.154   1.389   4.399  0.0895 -0.0358 -0.4085
 2719SOL     OW10873   1.563   3.898   4.099  0.6928 -0.3481  0.6909
 2719SOL    HW210874   1.472   3.903   4.127  0.5105 -1.3554  0.3112
 2719SOL    HW310875   1.577   3.977   4.048 -0.7851 -1.5066 -1.5818
 2719SOL    MW410876   1.553   3.909   4.096  0.4738 -0.6338  0.3409
 2720SOL     OW10877   0.851   0.383   3.252  0.1772  0.2205  0.3932
 2720SOL    HW210878   0.926   0.332   3.282 -0.1144  0.5394  1.6919
 2720SOL    HW310879   0.775   0.340   3.293 -0.4352 -0.5176 -1.4506
 2720SOL    MW410880   0.851   0.370   3.261  0.0579  0.1652  0.3213
 2721SOL     OW10881   2.669   0.219   3.754  0.0990 -0.4296  0.5746
 2721SOL    HW210882   2.581   0.256   3.757 -0.1613 -0.9336 -0.5693
 2721SOL    HW310883   2.673   0.161   3.830 -1.0777 -1.5343 -0.1792
 2721SOL    MW410884   2.658   0.216   3.764 -0.0906 -0.6418  0.3242
 2722SOL     OW10885   0.651   4.396   3.420  0.2846 -0.4597 -0.0172
 2722SOL    HW210886   0.692   4.331   3.364  0.4921 -0.6650  0.3692
 2722SOL    HW310887   0.642   4.474   3.366 -0.8987 -1.1254 -0.8062
 2722SOL    MW410888   0.655   4.398   3.406  0.1558 -0.5746 -0.0703
 2723SOL     OW10889   2.735   1.127   3.338  0.4696 -0.0950  0.7553
 2723SOL    HW210890   2.734   1.140   3.243 -0.9665  1.2912  0.9520
 2723SOL    HW310891   2.653   1.165   3.369  0.2814 -1.7656  2.4115
 2723SOL    MW410892   2.724   1.133   3.330  0.2553 -0.1325  0.9997
 2724SOL     OW10893   1.625   4.127   3.941 -0.3123  0.1423 -0.0807
 2724SOL    HW210894   1.711   4.085   3.939 -0.0270  0.7911 -1.5771
 2724SOL    HW310895   1.584   4.102   3.858 -1.7852 -0.5884  0.8374
 2724SOL    MW410896   1.631   4.118   3.930 -0.4690  0.1315 -0.1570
 2725SOL     OW10897   3.355   0.465   3.446 -0.1102  0.1325  0.5479
 2725SOL    HW210898   3.302   0.400   3.400  2.1921 -0.8453 -0.8582
 2725SOL    HW310899   3.337   0.450   3.538 -0.7831 -1.4777  0.1702
 2725SOL    MW410900   3.346   0.454   3.452  0.1048 -0.2090  0.3126
 2726SOL     OW10901   2.153   2.743   4.663  0.2728 -0.1000 -1.0530
 2726SOL    HW210902   2.171   2.666   4.610 -0.0334 -0.6532 -0.3708
 2726SOL    HW310903   2.088   2.713   4.728 -0.0009  0.7788 -0.9084
 2726SOL    MW410904   2.146   2.728   4.665  0.1963 -0.0570 -0.9439
 2727SOL     OW10905   0.740   2.330   4.719 -0.2052 -0.6703 -0.0575
 2727SOL    HW210906   0.696   2.389   4.658  1.1564  0.5420  0.1195
 2727SOL    HW310907   0.706   2.243   4.697 -1.5917  0.0588 -0.8776
 2727SOL    MW410908   0.730   2.327   4.708 -0.2085 -0.4142 -0.1423
 2728SOL     OW10909   2.224   1.876   3.317 -0.1073 -0.3320  0.4965
 2728SOL    HW210910   2.239   1.894   3.224 -0.8833  0.5300  0.5353
 2728SOL    HW310911   2.149   1.930   3.341  0.3646 -0.1958  1.7384
 2728SOL    MW410912   2.216   1.885   3.308 -0.1474 -0.2003  0.6655
 2729SOL     OW10913   2.284   0.609   3.801  0.0810 -0.0773 -0.1831
 2729SOL    HW210914   2.303   0.619   3.894  0.5742 -0.9419 -0.1854
 2729SOL    HW310915   2.192   0.635   3.792  0.2778  0.8482  0.3917
 2729SOL    MW410916   2.274   0.614   3.812  0.1720 -0.0693 -0.1075
 2730SOL     OW10917   3.653   0.776   3.479 -0.3977 -0.5114 -0.3459
 2730SOL    HW210918   3.655   0.775   3.575 -0.8811 -1.4707 -0.3325
 2730SOL    HW310919   3.648   0.868   3.455 -0.7385 -0.2919  0.5650
 2730SOL    MW410920   3.653   0.788   3.489 -0.5065 -0.6090 -0.2240
 2731SOL     OW10921   0.990   2.726   4.405  0.3516  0.1973 -0.9781
 2731SOL    HW210922   1.041   2.793   4.361  0.8950 -1.1329 -2.4259
 2731SOL    HW310923   1.055   2.676   4.456 -0.2430  1.6186  1.2547
 2731SOL    MW410924   1.006   2.728   4.406  0.3449  0.2093 -0.8746
 2732SOL     OW10925   0.855   4.515   3.567 -0.0430 -0.0169  0.5282
 2732SOL    HW210926   0.919   4.488   3.501 -0.5511  0.5976 -0.2312
 2732SOL    HW310927   0.774   4.474   3.540  0.1588 -1.3369  1.8627
 2732SOL    MW410928   0.853   4.506   3.555 -0.0834 -0.1100  0.6041
 2733SOL     OW10929   2.123   1.523   3.696  0.3167  0.0388 -0.3019
 2733SOL    HW210930   2.087   1.507   3.608  0.0749 -0.0870 -0.1820
 2733SOL    HW310931   2.046   1.548   3.748  0.4837  0.2567 -0.1620
 2733SOL    MW410932   2.108   1.524   3.691  0.3069  0.0510 -0.2676
 2734SOL     OW10933   3.248   1.257   3.680 -0.4792  0.8521  0.3894
 2734SOL    HW210934   3.272   1.311   3.755 -1.1135 -0.8370  1.8529
 2734SOL    HW310935   3.258   1.167   3.711 -0.1464  0.1141 -1.7633
 2734SOL    MW410936   3.252   1.252   3.694 -0.5190  0.5318  0.2985
 2735SOL     OW10937   0.286   3.566   4.352  0.1470 -0.2444  0.1905
 2735SOL    HW210938   0.248   3.493   4.402 -2.2797 -0.7601 -2.3338
 2735SOL    HW310939   0.217   3.632   4.349  0.1907 -0.2779 -2.5516
 2735SOL    MW410940   0.272   3.565   4.358 -0.1674 -0.3168 -0.5043
 2736SOL     OW10941   4.018   4.271   3.301  0.3976  0.8375  0.0063
 2736SOL    HW210942   4.038   4.192   3.351  0.4845  0.5511 -0.4739
 2736SOL    HW310943   4.091   4.330   3.317  0.2947  0.8482  0.4285
 2736SOL    MW410944   4.030   4.268   3.309  0.3955  0.8011 -0.0014
 2737SOL     OW10945   0.614   2.402   4.307 -0.2063 -0.5114 -0.2485
 2737SOL    HW210946   0.616   2.478   4.366 -1.0935 -0.3499 -0.4251
 2737SOL    HW310947   0.565   2.336   4.355 -1.0900 -0.3190 -0.8675
 2737SOL    MW410948   0.608   2.404   4.321 -0.4400 -0.4647 -0.3534
 2738SOL     OW10949   3.440   4.406   4.237  0.6315 -0.0546 -0.5304
 2738SOL    HW210950   3.474   4.485   4.196  0.8393  1.1935  1.9263
 2738SOL    HW310951   3.368   4.379   4.180  0.7429  1.7355 -1.5832
 2738SOL    MW410952   3.435   4.413   4.224  0.6736  0.3463 -0.3452
 2739SOL     OW10953   0.724   3.552   4.425  0.2060 -0.0505  0.0062
 2739SOL    HW210954   0.740   3.458   4.417  2.3167  0.3047 -0.2393
 2739SOL    HW310955   0.728   3.586   4.336  1.4378  0.5514  0.2737
 2739SOL    MW410956   0.727   3.544   4.412  0.6470  0.0757  0.0091
 2740SOL     OW10957   1.677   3.282   3.984 -0.1063 -0.1076 -0.3226
 2740SOL    HW210958   1.590   3.247   3.963  0.0785 -0.0483 -1.2222
 2740SOL    HW310959   1.737   3.229   3.931  0.4477 -0.4189  0.6055
 2740SOL    MW410960   1.673   3.270   3.974 -0.0088 -0.1408 -0.3189
 2741SOL     OW10961   2.439   0.963   3.947 -0.2683 -0.1495  0.7903
 2741SOL    HW210962   2.348   0.975   3.917  0.4165  0.7464 -1.0086
 2741SOL    HW310963   2.458   1.041   3.999 -0.8539 -0.8112  1.9958
 2741SOL    MW410964   2.429   0.975   3.950 -0.2552 -0.1186  0.7120
 2742SOL     OW10965   0.153   2.334   3.940 -0.4716  0.1301 -0.1465
 2742SOL    HW210966   0.099   2.291   4.006 -1.3641  1.8856  0.2941
 2742SOL    HW310967   0.092   2.355   3.869  0.3963 -1.3693 -1.3597
 2742SOL    MW410968   0.138   2.331   3.939 -0.4748  0.1639 -0.2484
 2743SOL     OW10969   3.764   0.168   3.851 -0.0162 -0.0528  0.1458
 2743SOL    HW210970   3.811   0.089   3.823 -0.4280 -0.0464 -0.5896
 2743SOL    HW310971   3.673   0.150   3.827 -0.4411 -0.1947  1.8489
 2743SOL    MW410972   3.758   0.155   3.844 -0.1266 -0.0706  0.2735
 2744SOL     OW10973   3.143   2.260   4.393 -0.0791  0.5312 -0.2626
 2744SOL    HW210974   3.051   2.283   4.385  0.1967  1.7417 -0.1743
 2744SOL    HW310975   3.149   2.211   4.475 -0.6389  0.4984 -0.2426
 2744SOL    MW410976   3.132   2.257   4.403 -0.1166  0.6866 -0.2483
 2745SOL     OW10977   1.588   1.998   3.424  0.3807  0.1850  0.1525
 2745SOL    HW210978   1.507   1.956   3.395  1.0538  0.1664 -1.7228
 2745SOL    HW310979   1.579   2.090   3.397  0.8903  0.2390  0.1626
 2745SOL    MW410980   1.576   2.005   3.417  0.5367  0.1897 -0.0936
 2746SOL     OW10981   0.234   3.750   3.566  0.0695 -0.1926 -0.0147
 2746SOL    HW210982   0.150   3.733   3.609 -0.0861 -0.6250 -0.4836
 2746SOL    HW310983   0.211   3.793   3.484  0.4008  1.2042  0.6139
 2746SOL    MW410984   0.220   3.753   3.561  0.0927 -0.0654  0.0063
 2747SOL     OW10985   2.328   2.097   3.925  0.2338 -0.1418 -0.5731
 2747SOL    HW210986   2.371   2.181   3.940 -1.1166  0.0065  2.9775
 2747SOL    HW310987   2.235   2.117   3.924 -0.1311 -1.6633  1.0163
 2747SOL    MW410988   2.322   2.110   3.927  0.0075 -0.3229  0.1051
 2748SOL     OW10989   3.833   2.001   4.052  0.1422  0.4541  0.1621
 2748SOL    HW210990   3.845   2.086   4.009  1.0568  0.4419  0.3840
 2748SOL    HW310991   3.915   1.986   4.099 -0.3091 -0.1956  0.7522
 2748SOL    MW410992   3.845   2.010   4.052  0.2033  0.3668  0.2693
 2749SOL     OW10993   3.870   0.677   4.101 -0.3116  0.4233  0.1379
 2749SOL    HW210994   3.945   0.621   4.082 -0.0019  1.1392 -0.7813
 2749SOL    HW310995   3.869   0.685   4.196  0.0772 -0.5340  0.2283
 2749SOL    MW410996   3.879   0.670   4.111 -0.2194  0.3915  0.0285
 2750SOL     OW10997   2.561   3.931   4.160  0.0697 -0.0545  0.3980
 2750SOL    HW210998   2.537   3.856   4.214 -0.0987  0.0855  0.5229
 2750SOL    HW310999   2.627   3.898   4.100  1.3086  0.1162  1.6274
 2750SOL    MW411000   2.566   3.917   4.159  0.2109 -0.0135  0.5767
 2751SOL     OW11001   0.622   1.853   3.884 -0.4196  0.2378  0.4599
 2751SOL    HW211002   0.636   1.919   3.816  1.3579 -1.9505 -1.3582
 2751SOL    HW311003   0.689   1.872   3.950  0.4584 -0.0932 -0.3328
 2751SOL    MW411004   0.633   1.864   3.884 -0.0693 -0.0946  0.1155
 2752SOL     OW11005   4.103   0.528   4.339  0.8831  0.4075  0.0258
 2752SOL    HW211006   4.133   0.616   4.320 -1.6412  1.0337 -1.1600
 2752SOL    HW311007   4.072   0.493   4.256  1.0074 -1.2838  0.6493
 2752SOL    MW411008   4.103   0.535   4.326  0.5664  0.2670 -0.0484
 2753SOL     OW11009   2.044   1.812   4.010  0.2752  0.0201  0.6970
 2753SOL    HW211010   2.099   1.772   4.077  1.6206  0.2568 -0.2434
 2753SOL    HW311011   2.099   1.815   3.932 -1.4791 -0.8166 -0.6085
 2753SOL    MW411012   2.058   1.807   4.009  0.2213 -0.0590  0.4007
 2754SOL     OW11013   4.049   1.011   4.549 -0.2888 -0.3531 -0.0078
 2754SOL    HW211014   3.993   0.964   4.487 -2.3648  2.2732 -0.2553
 2754SOL    HW311015   4.001   1.009   4.631  0.4348 -0.1995  0.4224
 2754SOL    MW411016   4.035   1.005   4.552 -0.4672  0.0137  0.0163
 2755SOL     OW11017   0.381   3.441   4.087  0.4233  0.6380  0.0297
 2755SOL    HW211018   0.320   3.430   4.013 -0.6639 -2.4183  1.2715
 2755SOL    HW311019   0.333   3.496   4.149  0.0291  0.5253 -0.1710
 2755SOL    MW411020   0.366   3.446   4.086  0.2278  0.2199  0.1671
 2756SOL     OW11021   2.945   1.241   3.449 -0.1648  0.0381  0.8403
 2756SOL    HW211022   3.018   1.188   3.418  0.5451 -0.4942  3.2876
 2756SOL    HW311023   2.868   1.202   3.408  0.7674 -0.2072 -0.7310
 2756SOL    MW411024   2.945   1.229   3.439  0.0518 -0.0645  0.9559
 2757SOL     OW11025   4.173   0.324   3.189 -0.0900  0.2606  0.1941
 2757SOL    HW211026   4.252   0.378   3.201  1.1720 -1.1663 -1.4682
 2757SOL    HW311027   4.141   0.347   3.102 -0.1790 -0.8414 -0.0714
 2757SOL    MW411028   4.179   0.335   3.179  0.0648 -0.0731 -0.0603
 2758SOL     OW11029   0.456   2.434   3.402 -0.4233 -0.2462 -0.2815
 2758SOL    HW211030   0.467   2.526   3.382  0.3663 -0.4284 -0.6973
 2758SOL    HW311031   0.465   2.429   3.497  2.6321 -0.2890 -0.4995
 2758SOL    MW411032   0.459   2.445   3.412  0.0840 -0.2759 -0.3651
 2759SOL     OW11033   3.580   1.767   3.886 -0.2499  0.0626  0.5637
 2759SOL    HW211034   3.540   1.852   3.903 -0.5101 -0.3193  1.9229
 2759SOL    HW311035   3.539   1.737   3.804  0.5276  1.6349 -0.4285
 2759SOL    MW411036   3.569   1.774   3.877 -0.1817  0.2196  0.6121
 2760SOL     OW11037   2.837   4.299   4.160 -0.1269 -0.1325 -0.0036
 2760SOL    HW211038   2.763   4.286   4.220  1.2775 -1.0487  1.5795
 2760SOL    HW311039   2.893   4.362   4.206  0.8245 -0.6223 -0.4846
 2760SOL    MW411040   2.834   4.306   4.174  0.1839 -0.3180  0.1418
 2761SOL     OW11041   4.146   3.896   4.533 -0.0463  0.2437  0.4177
 2761SOL    HW211042   4.210   3.880   4.463  0.0810  0.7775  0.4087
 2761SOL    HW311043   4.070   3.932   4.487 -0.6423 -1.0851  0.3346
 2761SOL    MW411044   4.144   3.898   4.518 -0.1081  0.1388  0.4056
 2762SOL     OW11045   2.251   2.701   4.110 -0.0994 -0.7113 -0.2018
 2762SOL    HW211046   2.285   2.692   4.199  0.0414 -1.9310 -0.3773
 2762SOL    HW311047   2.213   2.789   4.108  1.0702 -0.1604  0.6628
 2762SOL    MW411048   2.251   2.711   4.122  0.0735 -0.7995 -0.1109
 2763SOL     OW11049   1.222   3.457   3.671 -0.2865 -0.2053 -0.3121
 2763SOL    HW211050   1.312   3.468   3.702 -0.4109 -0.6129  0.1944
 2763SOL    HW311051   1.168   3.500   3.738 -0.3210  2.3313 -1.8968
 2763SOL    MW411052   1.227   3.464   3.684 -0.3075  0.0756 -0.4544
 2764SOL     OW11053   3.603   0.379   3.364 -0.4809 -0.7670  0.1776
 2764SOL    HW211054   3.604   0.286   3.388 -0.3301 -0.7619  0.1907
 2764SOL    HW311055   3.523   0.414   3.406 -1.2540 -1.1841 -0.9415
 2764SOL    MW411056   3.592   0.371   3.373 -0.5630 -0.8213  0.0317
 2765SOL     OW11057   2.700   0.070   3.975 -0.0037  0.5764  0.1228
 2765SOL    HW211058   2.712  -0.024   3.975 -0.8694  0.4406 -1.3806
 2765SOL    HW311059   2.614   0.083   4.015 -0.4616  0.6139 -0.8422
 2765SOL    MW411060   2.690   0.060   3.980 -0.1783  0.5635 -0.2029
 2766SOL     OW11061   1.724   2.818   4.424  0.0270  0.2166 -0.2884
 2766SOL    HW211062   1.693   2.885   4.362 -3.4734 -0.4630  0.5982
 2766SOL    HW311063   1.743   2.742   4.369 -1.1399  0.2555 -0.7675
 2766SOL    MW411064   1.722   2.817   4.408 -0.5888  0.1321 -0.2346
 2767SOL     OW11065   1.250   3.378   4.168 -0.2464 -0.1920 -0.4478
 2767SOL    HW211066   1.342   3.402   4.156 -0.0129 -0.2430  1.1441
 2767SOL    HW311067   1.232   3.316   4.098  0.7260  0.3730 -1.2144
 2767SOL    MW411068   1.260   3.373   4.157 -0.0873 -0.1242 -0.3389
 2768SOL     OW11069   0.807   0.747   3.945 -0.2532 -0.1443  0.2547
 2768SOL    HW211070   0.823   0.658   3.913  2.6741 -0.4557  2.3388
 2768SOL    HW311071   0.866   0.802   3.894 -0.7779  0.3624  0.1835
 2768SOL    MW411072   0.817   0.743   3.934  0.0638 -0.1185  0.5203
 2769SOL     OW11073   3.223   2.873   4.043 -0.3442  0.4625  0.4660
 2769SOL    HW211074   3.265   2.872   3.957 -0.3847 -0.2790  0.4468
 2769SOL    HW311075   3.253   2.954   4.084  1.0653 -0.0171  0.4134
 2769SOL    MW411076   3.233   2.883   4.037 -0.1636  0.3014  0.4565
 2770SOL     OW11077   3.314   1.021   3.832 -0.2279  0.2786 -0.2521
 2770SOL    HW211078   3.278   0.941   3.793 -1.5519  1.0205 -0.5820
 2770SOL    HW311079   3.302   1.009   3.926 -1.4369  0.5472 -0.3605
 2770SOL    MW411080   3.308   1.009   3.839 -0.5621  0.4119 -0.3099
 2771SOL     OW11081   2.736   2.864   4.204 -0.4280 -0.3904 -0.6786
 2771SOL    HW211082   2.695   2.948   4.182  0.4284  0.1760 -0.1453
 2771SOL    HW311083   2.829   2.876   4.181 -0.1862 -0.9894 -0.0373
 2771SOL    MW411084   2.743   2.877   4.198 -0.2831 -0.3947 -0.5236
 2772SOL     OW11085   0.720   3.107   3.809 -0.3572  0.0505 -0.5644
 2772SOL    HW211086   0.680   3.046   3.872  2.1137  0.7040  1.7504
 2772SOL    HW311087   0.790   3.056   3.768 -0.3101  0.3949 -0.9140
 2772SOL    MW411088   0.724   3.092   3.812 -0.0249  0.1822 -0.3051
 2773SOL     OW11089   0.639   2.064   3.688 -0.0936 -0.0673 -0.1863
 2773SOL    HW211090   0.567   2.127   3.683 -0.4976 -0.5408 -0.2804
 2773SOL    HW311091   0.671   2.056   3.599 -0.4462 -0.4710 -0.2758
 2773SOL    MW411092   0.634   2.071   3.676 -0.1934 -0.1831 -0.2105
 2774SOL     OW11093   1.590   4.650   4.299  0.2778 -0.0750 -0.2890
 2774SOL    HW211094   1.538   4.609   4.230 -0.4201  1.3655 -0.6464
 2774SOL    HW311095   1.647   4.580   4.331 -0.1079 -1.0261 -1.6255
 2774SOL    MW411096   1.591   4.636   4.294  0.1348 -0.0104 -0.5125
 2775SOL     OW11097   4.330   0.926   4.550  0.1884 -0.2780  0.1043
 2775SOL    HW211098   4.237   0.945   4.556  0.0745 -0.5345 -0.7256
 2775SOL    HW311099   4.369   1.008   4.518  0.4219  0.2305  1.6857
 2775SOL    MW411100   4.323   0.940   4.546  0.2042 -0.2448  0.2035
 2776SOL     OW11101   1.753   3.699   4.000  0.2451  0.5259  0.3688
 2776SOL    HW211102   1.815   3.758   3.957  0.6764 -0.0415  0.2063
 2776SOL    HW311103   1.672   3.749   4.006  0.0338  0.4335 -1.5657
 2776SOL    MW411104   1.751   3.714   3.995  0.2741  0.4389  0.0922
 2777SOL     OW11105   1.417   3.236   3.884  0.2089  0.2611  0.4387
 2777SOL    HW211106   1.458   3.158   3.847  0.5863 -0.0284  1.4358
 2777SOL    HW311107   1.324   3.217   3.884  0.2093  0.2759 -0.3853
 2777SOL    MW411108   1.410   3.223   3.879  0.2587  0.2248  0.4615
 2778SOL     OW11109   3.422   4.068   3.970 -0.1190 -0.1381 -0.1639
 2778SOL    HW211110   3.447   3.980   3.996  0.8474  0.2369  0.2080
 2778SOL    HW311111   3.327   4.065   3.961 -0.0636 -1.2675 -0.3620
 2778SOL    MW411112   3.412   4.056   3.972  0.0158 -0.2377 -0.1410
 2779SOL     OW11113   3.148   3.455   3.306 -0.8245  0.0901 -0.1076
 2779SOL    HW211114   3.088   3.510   3.358  0.0520  1.7855 -0.8527
 2779SOL    HW311115   3.126   3.475   3.215 -1.3112 -1.7284 -0.3979
 2779SOL    MW411116   3.137   3.465   3.301 -0.7731  0.0738 -0.2442
 2780SOL     OW11117   1.239   3.826   4.070  0.1986 -0.3369 -0.5998
 2780SOL    HW211118   1.164   3.768   4.080 -0.2481  0.1295 -1.1840
 2780SOL    HW311119   1.207   3.897   4.013  0.9887  0.0185 -0.6081
 2780SOL    MW411120   1.225   3.828   4.063  0.2439 -0.2285 -0.6780
 2781SOL     OW11121   3.777   0.038   4.187  0.2196 -0.0066  0.0402
 2781SOL    HW211122   3.807   0.118   4.143  1.0302 -0.8701 -1.0025
 2781SOL    HW311123   3.703   0.008   4.135 -0.2800  0.2369  0.6126
 2781SOL    MW411124   3.771   0.045   4.174  0.2607 -0.0884 -0.0218
 2782SOL     OW11125   0.227   3.979   3.717  0.4232 -0.2528 -0.0667
 2782SOL    HW211126   0.234   3.907   3.654  0.1540  1.0449 -1.6199
 2782SOL    HW311127   0.215   4.057   3.663  0.4858  0.9392  1.5965
 2782SOL    MW411128   0.226   3.980   3.702  0.3960  0.0757 -0.0522
 2783SOL     OW11129   1.422   1.649   3.861 -0.1569  0.2535 -0.0350
 2783SOL    HW211130   1.511   1.659   3.828  0.5464  0.2158  1.8143
 2783SOL    HW311131   1.430   1.592   3.937 -2.1145 -1.8274 -1.3361
 2783SOL    MW411132   1.435   1.643   3.867 -0.3224 -0.0261  0.0373
 2784SOL     OW11133   1.620   3.009   4.279  0.4496  0.2531 -0.0960
 2784SOL    HW211134   1.541   3.014   4.333  0.5369 -0.4470  0.1011
 2784SOL    HW311135   1.593   2.964   4.200  0.9506 -1.2361  0.5515
 2784SOL    MW411136   1.606   3.004   4.276  0.5272 -0.0358  0.0155
 2785SOL     OW11137   2.977   2.578   3.952  0.1100 -0.0792 -0.4315
 2785SOL    HW211138   2.989   2.635   3.876 -0.6833  0.3988 -0.2083
 2785SOL    HW311139   2.896   2.610   3.993  0.5866 -0.2585  0.6755
 2785SOL    MW411140   2.968   2.590   3.947  0.0682 -0.0398 -0.2560
 2786SOL     OW11141   0.718   2.791   4.482 -0.5247  0.0922  0.2509
 2786SOL    HW211142   0.674   2.820   4.401  0.6954  3.7689  0.8321
 2786SOL    HW311143   0.809   2.777   4.456 -0.6217 -1.0160  0.4987
 2786SOL    MW411144   0.724   2.793   4.468 -0.3765  0.4310  0.3603
 2787SOL     OW11145   1.502   1.323   3.763 -0.2984  0.2894 -0.1546
 2787SOL    HW211146   1.496   1.399   3.821 -2.1914 -1.0039  1.3918
 2787SOL    HW311147   1.595   1.299   3.765  0.0870  1.7638  0.3608
 2787SOL    MW411148   1.514   1.330   3.771 -0.4973  0.3133  0.1174
 2788SOL     OW11149   0.346   3.764   3.974 -0.3870 -0.1712 -0.3513
 2788SOL    HW211150   0.356   3.719   3.889  1.8025 -0.7521  0.1582
 2788SOL    HW311151   0.407   3.837   3.969 -0.8095  0.2352  0.4337
 2788SOL    MW411152   0.356   3.767   3.962 -0.1539 -0.1942 -0.1805
 2789SOL     OW11153   3.914   0.882   4.333 -0.7088 -0.4237 -0.4954
 2789SOL    HW211154   3.836   0.935   4.344  0.1105  0.6774  0.1107
 2789SOL    HW311155   3.952   0.913   4.251 -0.7710 -0.7759 -0.6564
 2789SOL    MW411156   3.909   0.893   4.324 -0.6089 -0.3249 -0.4367
 2790SOL     OW11157   2.529   4.298   3.860 -0.2085 -0.1546 -0.3142
 2790SOL    HW211158   2.568   4.242   3.793 -0.3970 -0.3111 -0.2977
 2790SOL    HW311159   2.489   4.370   3.811  1.8819  1.1163 -0.1813
 2790SOL    MW411160   2.529   4.300   3.845  0.0424 -0.0076 -0.2945
 2791SOL     OW11161   1.555   2.332   4.717  0.3029 -0.2119 -0.1702
 2791SOL    HW211162   1.494   2.274   4.671 -0.4986  0.2117  0.3392
 2791SOL    HW311163   1.555   2.300   4.808 -0.1900  0.6101  0.1265
 2791SOL    MW411164   1.547   2.320   4.723  0.1321 -0.0475 -0.0638
 2792SOL     OW11165   2.435   3.993   3.525 -0.0687 -0.0635 -0.0007
 2792SOL    HW211166   2.361   3.969   3.582 -0.5346  2.6791  0.6323
 2792SOL    HW311167   2.512   3.986   3.582 -0.3773  1.3538  0.6114
 2792SOL    MW411168   2.435   3.989   3.540 -0.1709  0.4853  0.1636
 2793SOL     OW11169   1.534   2.890   4.060  0.5287 -0.3278  0.0615
 2793SOL    HW211170   1.605   2.844   4.015 -0.3305 -2.6683  1.0067
 2793SOL    HW311171   1.456   2.869   4.008  0.1449  0.2348  0.4053
 2793SOL    MW411172   1.533   2.881   4.047  0.3647 -0.5623  0.2315
 2794SOL     OW11173   3.554   2.902   4.679  0.0585 -0.0116  1.1710
 2794SOL    HW211174   3.589   2.820   4.645 -0.6621 -0.3866  1.3083
 2794SOL    HW311175   3.631   2.956   4.698  0.4733  0.7876 -2.4029
 2794SOL    MW411176   3.568   2.899   4.677  0.0181  0.0444  0.7175
 2795SOL     OW11177   2.280   2.400   3.414 -0.1031  0.4440 -0.2018
 2795SOL    HW211178   2.210   2.355   3.368  0.9316  0.7169 -2.0903
 2795SOL    HW311179   2.354   2.340   3.411 -0.1021  0.3606  1.3409
 2795SOL    MW411180   2.281   2.386   3.407  0.0336  0.4690 -0.2474
 2796SOL     OW11181   3.946   3.137   3.822 -0.0808 -0.5918  0.4691
 2796SOL    HW211182   3.999   3.066   3.859  0.2410  0.2523  1.6394
 2796SOL    HW311183   4.010   3.191   3.775 -0.2143 -0.6514  0.2176
 2796SOL    MW411184   3.962   3.135   3.821 -0.0559 -0.4883  0.5904
 2797SOL     OW11185   0.963   0.926   4.361  0.5136 -0.1537 -0.7712
 2797SOL    HW211186   0.870   0.903   4.365  0.5362 -0.1376 -0.1766
 2797SOL    HW311187   1.009   0.845   4.384  0.6379 -0.0439 -0.6299
 2797SOL    MW411188   0.957   0.912   4.364  0.5330 -0.1371 -0.6741
 2798SOL     OW11189   2.077   0.171   4.183  0.0508  0.1122 -0.3591
 2798SOL    HW211190   2.118   0.187   4.098  0.3684 -3.5831 -0.9856
 2798SOL    HW311191   2.150   0.149   4.241 -0.4536 -0.6371  0.0084
 2798SOL    MW411192   2.092   0.170   4.179  0.0262 -0.4742 -0.3933
 2799SOL     OW11193   4.304   3.081   4.117  0.3880  0.1673 -0.0950
 2799SOL    HW211194   4.323   3.047   4.204 -1.3660 -0.6233  0.0225
 2799SOL    HW311195   4.263   3.166   4.132 -0.7380 -0.3602 -0.0728
 2799SOL    MW411196   4.301   3.088   4.130  0.0080 -0.0066 -0.0765
 2800SOL     OW11197   4.285   3.069   3.297 -0.2060 -0.7828  0.3071
 2800SOL    HW211198   4.363   3.111   3.335 -1.8436  1.3518  1.4309
 2800SOL    HW311199   4.298   3.076   3.203  1.1365 -0.7921  0.4710
 2800SOL    MW411200   4.297   3.076   3.290 -0.2449 -0.5024  0.4770
 2801SOL     OW11201   1.620   1.232   3.458 -0.0464  0.1128 -0.1865
 2801SOL    HW211202   1.647   1.255   3.547  0.1726 -1.4155  0.1545
 2801SOL    HW311203   1.698   1.193   3.419 -0.7157 -1.0963 -0.3589
 2801SOL    MW411204   1.634   1.230   3.465 -0.1058 -0.2484 -0.1643
 2802SOL     OW11205   2.218   4.227   3.061  0.1983 -0.2523 -0.4793
 2802SOL    HW211206   2.168   4.264   2.988  2.7696  1.2020 -1.5753
 2802SOL    HW311207   2.237   4.137   3.034 -1.0752 -0.5378 -0.4347
 2802SOL    MW411208   2.214   4.220   3.048  0.3695 -0.0981 -0.6180
 2803SOL     OW11209   1.539   1.130   4.426  0.4976 -0.1874 -0.1127
 2803SOL    HW211210   1.490   1.073   4.485 -1.7583  0.6409 -1.1561
 2803SOL    HW311211   1.586   1.069   4.368 -0.6885 -1.0055 -0.2365
 2803SOL    MW411212   1.539   1.114   4.426  0.0435 -0.1860 -0.2667
 2804SOL     OW11213   3.329   3.534   3.635  0.1735  0.2072  0.0863
 2804SOL    HW211214   3.238   3.544   3.661  0.3003  1.1084  0.2012
 2804SOL    HW311215   3.363   3.464   3.691  0.2436  1.6110  1.8622
 2804SOL    MW411216   3.322   3.526   3.646  0.1994  0.5113  0.3358
 2805SOL     OW11217   3.007   3.180   4.239  0.0349  0.5706 -0.3128
 2805SOL    HW211218   2.985   3.102   4.188  1.7645 -0.2233  0.1301
 2805SOL    HW311219   3.103   3.182   4.240  0.0267  1.0591  2.1621
 2805SOL    MW411220   3.017   3.170   4.232  0.2620  0.5303  0.0722
 2806SOL     OW11221   4.397   4.458   4.223 -0.0327  0.2187  0.1189
 2806SOL    HW211222   4.436   4.528   4.172 -0.0402 -0.4646 -0.8288
 2806SOL    HW311223   4.308   4.450   4.189  0.3136 -0.9823 -0.5373
 2806SOL    MW411224   4.390   4.466   4.212  0.0120 -0.0299 -0.0927
 2807SOL     OW11225   1.998   2.309   4.442 -0.3154  0.4499  0.2180
 2807SOL    HW211226   1.907   2.288   4.461 -0.3805  0.5745  0.0475
 2807SOL    HW311227   2.005   2.303   4.346  0.2302 -1.0613  0.3342
 2807SOL    MW411228   1.987   2.306   4.432 -0.2520  0.2670  0.2109
 2808SOL     OW11229   1.615   0.911   4.264 -0.5097 -0.3291  0.0183
 2808SOL    HW211230   1.554   0.840   4.248  1.2792 -1.2747 -3.1076
 2808SOL    HW311231   1.697   0.868   4.291  0.6296  0.4816 -2.0275
 2808SOL    MW411232   1.618   0.896   4.266 -0.1234 -0.3469 -0.6641
 2809SOL     OW11233   4.481   1.173   3.301  0.2036 -0.7673  0.0570
 2809SOL    HW211234   4.554   1.218   3.343  0.4181 -1.6475  0.6291
 2809SOL    HW311235   4.488   1.196   3.209  0.5904 -0.0154  0.2678
 2809SOL    MW411236   4.491   1.182   3.295  0.2829 -0.7842  0.1603
 2810SOL     OW11237   1.245   4.555   3.458 -0.4048  0.3215  0.1062
 2810SOL    HW211238   1.316   4.490   3.458 -0.5669  0.1451  0.0667
 2810SOL    HW311239   1.253   4.599   3.542 -0.1291  0.4295  0.0240
 2810SOL    MW411240   1.256   4.552   3.469 -0.3898  0.3125  0.0901
 2811SOL     OW11241   1.308   3.934   4.325 -0.0474 -0.0861 -0.2184
 2811SOL    HW211242   1.277   3.871   4.259  0.2725 -0.0047 -0.4464
 2811SOL    HW311243   1.378   3.887   4.371  0.7719  0.3967 -0.9464
 2811SOL    MW411244   1.313   3.919   4.322  0.1029 -0.0117 -0.3445
 2812SOL     OW11245   2.742   3.304   4.201  0.2594  0.2887  0.2099
 2812SOL    HW211246   2.828   3.275   4.233  0.2138  1.9067  1.9267
 2812SOL    HW311247   2.759   3.391   4.166 -0.3812 -0.0709 -0.9926
 2812SOL    MW411248   2.756   3.312   4.201  0.1689  0.4548  0.2778
 2813SOL     OW11249   2.669   1.132   3.658  0.3553  0.2224 -0.2320
 2813SOL    HW211250   2.726   1.135   3.735  1.0500  0.6125 -0.7415
 2813SOL    HW311251   2.619   1.214   3.662  0.1729  0.1013 -0.0351
 2813SOL    MW411252   2.670   1.143   3.669  0.4229  0.2579 -0.2732
 2814SOL     OW11253   0.197   4.481   3.367  0.3377  0.3452  0.3027
 2814SOL    HW211254   0.136   4.488   3.440 -0.8051 -0.2761 -0.5623
 2814SOL    HW311255   0.270   4.430   3.401 -0.5625 -0.6398  0.7823
 2814SOL    MW411256   0.198   4.475   3.381  0.0682  0.1333  0.2518
 2815SOL     OW11257   4.311   4.426   3.644 -0.5568  0.4430  0.6403
 2815SOL    HW211258   4.352   4.346   3.677 -0.1124 -0.6316 -2.3184
 2815SOL    HW311259   4.385   4.485   3.626 -0.7126  0.6486  0.6643
 2815SOL    MW411260   4.327   4.423   3.646 -0.5187  0.3284  0.2531
 2816SOL     OW11261   2.619   2.503   4.427 -0.1203 -0.0713  0.6387
 2816SOL    HW211262   2.642   2.455   4.507  2.7658  0.5540  0.2294
 2816SOL    HW311263   2.655   2.591   4.441 -1.2655  0.6137 -0.5800
 2816SOL    MW411264   2.627   2.508   4.440  0.1094  0.1016  0.4239
 2817SOL     OW11265   4.083   0.025   4.006  0.0748  0.4475  0.0323
 2817SOL    HW211266   4.117   0.099   4.057 -0.4304 -0.3088  1.4886
 2817SOL    HW311267   4.156  -0.000   3.950  0.1251  2.3062 -0.7878
 2817SOL    MW411268   4.097   0.032   4.006  0.0148  0.5929  0.1162
 2818SOL     OW11269   2.488   1.189   4.103 -0.1350 -0.0576 -0.0123
 2818SOL    HW211270   2.461   1.184   4.194 -0.8020  1.3931 -0.1083
 2818SOL    HW311271   2.578   1.221   4.106 -0.2862  0.3557  0.1243
 2818SOL    MW411272   2.496   1.193   4.115 -0.2429  0.1883 -0.0070
 2819SOL     OW11273   2.532   0.725   4.412  0.1177  0.0395  0.2171
 2819SOL    HW211274   2.567   0.787   4.347  1.8960 -0.8834  0.2626
 2819SOL    HW311275   2.527   0.642   4.365  0.6672 -0.4606  1.0401
 2819SOL    MW411276   2.536   0.723   4.397  0.4248 -0.1482  0.3317
 2820SOL     OW11277   3.500   2.834   4.298 -0.2976  0.1246 -0.5807
 2820SOL    HW211278   3.560   2.797   4.362 -1.0502  2.1987  1.3968
 2820SOL    HW311279   3.425   2.775   4.298  0.2349 -0.5541 -0.4692
 2820SOL    MW411280   3.498   2.821   4.306 -0.3266  0.3087 -0.3051
 2821SOL     OW11281   2.000   4.102   3.715 -0.3050 -0.0090  0.1392
 2821SOL    HW211282   2.094   4.091   3.727 -0.3178  0.7869  1.1248
 2821SOL    HW311283   1.985   4.087   3.622  0.8537  0.2213 -0.0928
 2821SOL    MW411284   2.011   4.099   3.705 -0.1538  0.1264  0.2386
 2822SOL     OW11285   3.423   2.893   3.849  0.3421  0.3113 -0.1492
 2822SOL    HW211286   3.450   2.838   3.776 -0.6912 -0.0822 -0.2444
 2822SOL    HW311287   3.498   2.894   3.908  1.0528  0.3509 -1.0498
 2822SOL    MW411288   3.436   2.886   3.847  0.2996  0.2646 -0.2806
 2823SOL     OW11289   3.834   1.449   3.329 -0.1242  0.0678 -0.3668
 2823SOL    HW211290   3.897   1.505   3.374  1.1014 -0.1800 -1.7347
 2823SOL    HW311291   3.843   1.363   3.371 -1.4407  0.6765  1.1980
 2823SOL    MW411292   3.843   1.445   3.340 -0.1362  0.1154 -0.3408
 2824SOL     OW11293   2.333   3.323   4.249  0.1345  0.1709  0.3118
 2824SOL    HW211294   2.352   3.232   4.271  2.9911  0.5809 -0.2501
 2824SOL    HW311295   2.403   3.349   4.189 -0.7878  2.6429  0.2228
 2824SOL    MW411296   2.345   3.315   4.244  0.3897  0.5511  0.2259
 2825SOL     OW11297   2.014   4.451   3.494 -0.1180  0.1716  0.3746
 2825SOL    HW211298   2.059   4.396   3.430 -0.3122 -1.8152  1.8833
 2825SOL    HW311299   1.951   4.502   3.442  0.7151 -0.3485 -1.1742
 2825SOL    MW411300   2.012   4.450   3.479 -0.0337 -0.1592  0.3693
 2826SOL     OW11301   4.299   2.903   3.718  0.3562  0.4553  0.4265
 2826SOL    HW211302   4.368   2.846   3.753  0.6066  0.1745 -0.4794
 2826SOL    HW311303   4.277   2.863   3.633 -1.4621  0.1069  1.0345
 2826SOL    MW411304   4.305   2.890   3.711  0.1493  0.3723  0.3872
 2827SOL     OW11305   4.157   0.048   3.504 -0.2602 -0.3062 -0.1858
 2827SOL    HW211306   4.082   0.102   3.479 -1.6226 -1.2089  1.8153
 2827SOL    HW311307   4.119  -0.031   3.542  1.6904 -0.6075  1.2482
 2827SOL    MW411308   4.142   0.045   3.506 -0.1826 -0.4651  0.2674
 2828SOL     OW11309   0.979   0.868   3.754 -0.2278  0.3612 -0.3413
 2828SOL    HW211310   1.059   0.816   3.762 -0.6124  0.0219  1.5057
 2828SOL    HW311311   0.999   0.951   3.797 -1.0939  0.0087  0.7622
 2828SOL    MW411312   0.992   0.872   3.761 -0.3928  0.2699  0.0480
 2829SOL     OW11313   0.232   3.875   3.332 -0.4891  0.5609 -0.5845
 2829SOL    HW211314   0.179   3.952   3.353 -0.7919 -0.1894  1.5515
 2829SOL    HW311315   0.320   3.899   3.360 -0.6963 -0.0599  0.6457
 2829SOL    MW411316   0.237   3.888   3.338 -0.5564  0.3800 -0.1404
 2830SOL     OW11317   2.181   3.747   3.786  0.4740  0.6394 -0.2693
 2830SOL    HW211318   2.090   3.764   3.762  0.9123  2.0009 -1.0314
 2830SOL    HW311319   2.193   3.653   3.770 -1.0750  0.2431  0.8477
 2830SOL    MW411320   2.171   3.736   3.780  0.3274  0.7667 -0.2225
 2831SOL     OW11321   0.253   0.073   3.251  0.4084 -0.0858  0.0690
 2831SOL    HW211322   0.165   0.106   3.267  0.9222  0.4605  1.8412
 2831SOL    HW311323   0.258  -0.008   3.301  1.1411  0.2540  0.5603
 2831SOL    MW411324   0.242   0.067   3.260  0.5729  0.0311  0.3676
 2832SOL     OW11325   0.144   4.105   4.425  0.4027 -0.2780  0.0204
 2832SOL    HW211326   0.144   4.018   4.466  0.5084  0.2369  1.1409
 2832SOL    HW311327   0.232   4.139   4.439 -0.1289  0.7068  1.1357
 2832SOL    MW411328   0.155   4.098   4.433  0.3465 -0.0802  0.3154
 2833SOL     OW11329   2.974   1.307   3.705 -0.0004 -0.5302 -0.3525
 2833SOL    HW211330   2.955   1.275   3.616 -1.5643  2.0413 -1.0027
 2833SOL    HW311331   3.067   1.291   3.717  0.0604 -1.6955 -2.1506
 2833SOL    MW411332   2.983   1.301   3.695 -0.1987 -0.3447 -0.6755
 2834SOL     OW11333   4.158   2.529   4.266  0.3012  0.0810  0.3317
 2834SOL    HW211334   4.092   2.468   4.300  0.5602 -1.1476 -1.3121
 2834SOL    HW311335   4.110   2.611   4.254 -0.6915 -0.5251  0.0597
 2834SOL    MW411336   4.143   2.531   4.269  0.2044 -0.1611  0.0790
 2835SOL     OW11337   3.617   1.642   4.241  0.5416  0.1103 -0.1172
 2835SOL    HW211338   3.663   1.726   4.236 -0.4385  0.5833 -1.8924
 2835SOL    HW311339   3.569   1.645   4.324 -0.6462  1.9541 -0.8248
 2835SOL    MW411340   3.616   1.654   4.251  0.2556  0.4160 -0.4448
 2836SOL     OW11341   1.510   1.962   4.314  0.2056  0.0516 -0.0301
 2836SOL    HW211342   1.534   2.008   4.234  2.9558 -2.4418 -0.7455
 2836SOL    HW311343   1.447   1.895   4.285  0.3407 -0.1240  0.0808
 2836SOL    MW411344   1.505   1.959   4.300  0.5863 -0.3005 -0.1098
 2837SOL     OW11345   1.409   4.545   4.119 -0.0522 -0.2706  0.1459
 2837SOL    HW211346   1.448   4.567   4.035 -0.5528 -0.9639 -0.2807
 2837SOL    HW311347   1.411   4.449   4.122 -0.7953 -0.2812  0.5445
 2837SOL    MW411348   1.414   4.535   4.109 -0.2163 -0.3635  0.1422
 2838SOL     OW11349   1.407   2.752   4.286  0.2656  0.5087  0.4514
 2838SOL    HW211350   1.473   2.790   4.229  0.8342 -0.0982  0.7018
 2838SOL    HW311351   1.443   2.761   4.374 -0.2271  0.6680  0.6397
 2838SOL    MW411352   1.421   2.758   4.290  0.2756  0.4496  0.5093
 2839SOL     OW11353   0.185   2.241   4.406 -0.6727  0.1378  0.4198
 2839SOL    HW211354   0.245   2.206   4.473 -0.8539 -1.4321 -0.2024
 2839SOL    HW311355   0.243   2.272   4.336 -0.4997  1.3515  1.0878
 2839SOL    MW411356   0.201   2.240   4.405 -0.6738  0.0908  0.4258
 2840SOL     OW11357   4.219   1.787   4.055  0.4936  0.3325  0.1854
 2840SOL    HW211358   4.252   1.776   3.966 -1.7336  0.1191 -0.6324
 2840SOL    HW311359   4.147   1.725   4.062  0.1073  0.9409  1.8561
 2840SOL    MW411360   4.214   1.778   4.044  0.1487  0.3846  0.2979
 2841SOL     OW11361   3.584   3.836   4.041  0.2093 -0.0669  0.0799
 2841SOL    HW211362   3.644   3.763   4.026  0.4266  0.2662 -0.6892
 2841SOL    HW311363   3.566   3.833   4.135 -0.9434 -2.0171 -0.1669
 2841SOL    MW411364   3.590   3.826   4.051  0.0859 -0.2802 -0.0542
 2842SOL     OW11365   0.000   2.406   3.695 -0.2447 -0.0861 -0.2966
 2842SOL    HW211366  -0.080   2.354   3.706 -0.1133 -0.1930  0.1453
 2842SOL    HW311367   0.006   2.421   3.600 -0.7346 -0.1614 -0.3382
 2842SOL    MW411368  -0.010   2.401   3.684 -0.2920 -0.1102 -0.2438
 2843SOL     OW11369   1.399   1.921   3.813 -0.2652  0.2606  0.2157
 2843SOL    HW211370   1.483   1.941   3.774  0.1669  0.1099  1.0581
 2843SOL    HW311371   1.406   1.829   3.840  0.4274  1.1253  3.1024
 2843SOL    MW411372   1.411   1.911   3.811 -0.1168  0.3548  0.7077
 2844SOL     OW11373   2.473   0.196   4.057 -0.2461  0.4859 -0.2629
 2844SOL    HW211374   2.397   0.241   4.019 -0.3466  1.6085  1.2171
 2844SOL    HW311375   2.438   0.153   4.135  0.7111  1.2985  0.6185
 2844SOL    MW411376   2.458   0.196   4.062 -0.1330  0.7412  0.0487
 2845SOL     OW11377   2.453   3.568   3.374 -0.2781 -0.9652 -0.6200
 2845SOL    HW211378   2.433   3.646   3.322  0.3732 -0.9414 -0.8338
 2845SOL    HW311379   2.368   3.525   3.386 -0.8723  0.4814  0.6350
 2845SOL    MW411380   2.439   3.573   3.369 -0.2705 -0.7712 -0.4826
 2846SOL     OW11381   3.088   1.298   4.069 -0.0445  0.0375  0.0454
 2846SOL    HW211382   3.103   1.311   4.163 -1.8039  1.1359  0.1806
 2846SOL    HW311383   3.059   1.207   4.061  0.3520 -0.1324  0.5302
 2846SOL    MW411384   3.087   1.287   4.080 -0.2243  0.1600  0.1272
 2847SOL     OW11385   1.592   2.487   3.840  0.1731 -0.2721  0.4300
 2847SOL    HW211386   1.591   2.408   3.894 -0.6794  0.2087  1.1349
 2847SOL    HW311387   1.520   2.476   3.778 -0.8996  0.5858  1.4887
 2847SOL    MW411388   1.583   2.475   3.839 -0.0809 -0.0955  0.6627
 2848SOL     OW11389   3.873   3.582   3.386  0.0305 -0.5607  0.2407
 2848SOL    HW211390   3.938   3.538   3.331 -0.8405 -1.1518 -0.3529
 2848SOL    HW311391   3.795   3.526   3.379 -1.2066  1.2237 -0.7778
 2848SOL    MW411392   3.871   3.568   3.378 -0.2476 -0.4032  0.0280
 2849SOL     OW11393   0.199   0.822   4.392 -0.2819 -0.0508 -0.5155
 2849SOL    HW211394   0.149   0.802   4.471  0.9535  0.9943  0.5688
 2849SOL    HW311395   0.171   0.910   4.368  1.3538  0.7724  0.4192
 2849SOL    MW411396   0.189   0.831   4.400  0.0969  0.1957 -0.2491
 2850SOL     OW11397   2.269   1.658   4.181  0.1127  0.0190  0.4272
 2850SOL    HW211398   2.324   1.605   4.123 -1.3836  0.7646 -1.7212
 2850SOL    HW311399   2.309   1.745   4.178 -0.6813  0.3681 -0.5231
 2850SOL    MW411400   2.282   1.662   4.173 -0.1894  0.1634  0.0184
 2851SOL     OW11401   0.720   0.007   3.287  0.0887 -1.0300 -0.0923
 2851SOL    HW211402   0.815   0.006   3.281  0.1807 -2.1880  1.1247
 2851SOL    HW311403   0.690  -0.025   3.202  0.6776  2.0096 -1.5191
 2851SOL    MW411404   0.728   0.002   3.275  0.1785 -0.7818 -0.1200
 2852SOL     OW11405   3.575   1.854   3.331  0.6275  0.5585 -0.3071
 2852SOL    HW211406   3.659   1.885   3.365 -1.4735  2.7478  3.1845
 2852SOL    HW311407   3.573   1.761   3.350  1.8626  0.6862  0.4308
 2852SOL    MW411408   3.586   1.846   3.338  0.5132  0.8642  0.2509
 2853SOL     OW11409   0.900   1.854   3.316 -0.6492 -0.8300  0.0005
 2853SOL    HW211410   0.899   1.767   3.355 -1.6073 -1.3473 -1.1309
 2853SOL    HW311411   0.837   1.904   3.367  0.3780 -0.6093  1.0588
 2853SOL    MW411412   0.892   1.849   3.328 -0.6400 -0.8691 -0.0091
 2854SOL     OW11413   3.409   3.769   3.727  0.4069 -0.7022  0.2179
 2854SOL    HW211414   3.357   3.827   3.672  2.2140  0.4695 -0.3043
 2854SOL    HW311415   3.380   3.681   3.705 -1.4499 -0.0658  0.0686
 2854SOL    MW411416   3.399   3.765   3.717  0.4003 -0.4637  0.1293
 2855SOL     OW11417   0.436   3.137   4.435 -0.2907 -0.2473  0.0555
 2855SOL    HW211418   0.373   3.193   4.480 -0.5980 -0.4784 -0.0825
 2855SOL    HW311419   0.405   3.048   4.452 -1.2327 -0.2896 -1.8019
 2855SOL    MW411420   0.424   3.133   4.443 -0.4556 -0.2834 -0.2078
 2856SOL     OW11421   3.631   3.261   4.508  0.3949  0.4188 -0.4036
 2856SOL    HW211422   3.661   3.211   4.583 -0.9245 -1.0257 -0.8119
 2856SOL    HW311423   3.553   3.214   4.477  1.3863  0.5096 -3.1547
 2856SOL    MW411424   3.624   3.248   4.514  0.3516  0.2402 -0.8205
 2857SOL     OW11425   1.321   3.304   4.519  0.0118 -0.5049 -0.9270
 2857SOL    HW211426   1.305   3.296   4.613 -0.9070  0.2184 -1.0185
 2857SOL    HW311427   1.234   3.311   4.480  0.3481 -1.7326 -1.9305
 2857SOL    MW411428   1.308   3.304   4.526 -0.0650 -0.5715 -1.0715
 2858SOL     OW11429   0.347   1.211   4.584  0.0057  0.0002  0.0993
 2858SOL    HW211430   0.297   1.174   4.656  1.0310 -0.3690  0.6306
 2858SOL    HW311431   0.289   1.277   4.546 -1.0430 -0.7283  0.4283
 2858SOL    MW411432   0.333   1.215   4.589  0.0026 -0.1446  0.2128
 2859SOL     OW11433   2.048   1.157   3.419 -0.2243 -0.2916  0.4769
 2859SOL    HW211434   2.110   1.140   3.349 -2.1448 -1.9937 -0.8538
 2859SOL    HW311435   2.051   1.252   3.432  2.2928 -0.2995  0.1514
 2859SOL    MW411436   2.056   1.167   3.412 -0.1456 -0.5172  0.2584
 2860SOL     OW11437   1.060   3.090   3.252  0.0939 -0.1136  0.0314
 2860SOL    HW211438   1.087   3.101   3.161 -0.2608 -1.0102 -0.1897
 2860SOL    HW311439   1.038   2.997   3.259 -0.7146  0.1304  0.8096
 2860SOL    MW411440   1.061   3.079   3.241 -0.0596 -0.1997  0.1049
 2861SOL     OW11441   2.690   2.385   3.469 -0.2593 -0.4067  0.2674
 2861SOL    HW211442   2.712   2.355   3.557  0.8407 -1.0814 -0.2273
 2861SOL    HW311443   2.763   2.356   3.414 -0.8143  0.2112 -0.8296
 2861SOL    MW411444   2.702   2.377   3.473 -0.1874 -0.4142  0.0574
 2862SOL     OW11445   2.956   2.950   4.094 -0.3298  0.0274 -0.3533
 2862SOL    HW211446   2.931   2.960   4.002 -0.7591 -0.0828 -0.2499
 2862SOL    HW311447   3.040   2.904   4.091  0.0152  0.6731 -0.7124
 2862SOL    MW411448   2.963   2.945   4.082 -0.3409  0.0981 -0.3870
 2863SOL     OW11449   2.662   2.991   3.829 -0.5067  0.2003 -0.0832
 2863SOL    HW211450   2.639   3.019   3.918 -0.9234 -0.6202  0.0735
 2863SOL    HW311451   2.686   3.072   3.784  1.2925  0.4257  1.2265
 2863SOL    MW411452   2.662   3.006   3.835 -0.3243  0.1218  0.1103
 2864SOL     OW11453   1.092   1.721   3.772 -0.6633  0.1974  0.6794
 2864SOL    HW211454   1.160   1.663   3.736 -0.2513  0.9215  0.2622
 2864SOL    HW311455   1.093   1.704   3.866 -0.1585 -0.0766  0.6289
 2864SOL    MW411456   1.101   1.711   3.779 -0.5423  0.2568  0.6177
 2865SOL     OW11457   2.475   1.933   3.419  0.2999 -0.8406  0.2344
 2865SOL    HW211458   2.454   1.942   3.512  0.5735  0.7041  0.1563
 2865SOL    HW311459   2.392   1.909   3.378 -0.0125 -0.6293  0.7419
 2865SOL    MW411460   2.462   1.931   3.426  0.2948 -0.6089  0.2910
 2866SOL     OW11461   2.831   3.758   3.599 -0.2452 -0.2971  0.7601
 2866SOL    HW211462   2.902   3.821   3.600  0.5501 -1.1749  0.2534
 2866SOL    HW311463   2.840   3.710   3.682 -1.3936  0.8290  1.5658
 2866SOL    MW411464   2.841   3.760   3.610 -0.2918 -0.2643  0.7996
 2867SOL     OW11465   2.046   2.560   4.207 -0.0364  0.2209 -0.1551
 2867SOL    HW211466   2.097   2.610   4.143 -1.5801 -0.5200 -2.0017
 2867SOL    HW311467   2.068   2.469   4.190 -0.9305 -0.0213 -0.0460
 2867SOL    MW411468   2.055   2.555   4.196 -0.3580  0.0912 -0.3843
 2868SOL     OW11469   0.810   0.629   3.379  0.2133  0.3374 -0.6441
 2868SOL    HW211470   0.889   0.682   3.366  0.5397 -0.1706 -0.7487
 2868SOL    HW311471   0.832   0.544   3.340  0.3464 -0.4576  1.1433
 2868SOL    MW411472   0.823   0.625   3.372  0.2739  0.1655 -0.4221
 2869SOL     OW11473   4.083   0.943   4.116  0.3628  0.1719 -0.1345
 2869SOL    HW211474   4.132   0.915   4.193  0.1719 -0.2138 -0.1498
 2869SOL    HW311475   4.083   1.039   4.120 -0.6400  0.1407  0.9848
 2869SOL    MW411476   4.089   0.952   4.127  0.2053  0.1169  0.0112
 2870SOL     OW11477   4.171   0.831   3.871  0.4925  0.2536 -0.2748
 2870SOL    HW211478   4.138   0.869   3.952 -0.0438  0.4738 -0.5949
 2870SOL    HW311479   4.246   0.885   3.848 -0.1195  0.9711 -0.6005
 2870SOL    MW411480   4.176   0.843   3.879  0.3410  0.3773 -0.3600
 2871SOL     OW11481   3.547   0.494   4.430  0.1415 -0.0927 -0.3477
 2871SOL    HW211482   3.543   0.590   4.426  1.7780  0.0324  0.6352
 2871SOL    HW311483   3.624   0.475   4.483 -0.6944 -1.9634  0.2384
 2871SOL    MW411484   3.557   0.504   4.436  0.2471 -0.3230 -0.1407
 2872SOL     OW11485   3.980   3.006   4.650 -0.6388  0.2786 -0.0724
 2872SOL    HW211486   4.063   3.050   4.634  1.5337 -3.5038  0.3379
 2872SOL    HW311487   3.949   2.981   4.563 -1.3042  1.4936 -0.2052
 2872SOL    MW411488   3.987   3.009   4.636 -0.4400 -0.0601 -0.0358
 2873SOL     OW11489   1.363   3.462   3.282 -0.1401  0.1560  0.1965
 2873SOL    HW211490   1.420   3.403   3.331  1.4317  1.1747 -0.3667
 2873SOL    HW311491   1.401   3.549   3.294 -2.2656  1.0360  0.7709
 2873SOL    MW411492   1.375   3.466   3.290 -0.2131  0.4065  0.1979
 2874SOL     OW11493   1.057   0.258   3.371 -0.5070 -0.6903 -0.2527
 2874SOL    HW211494   1.043   0.165   3.351 -0.5567 -1.0635  1.4431
 2874SOL    HW311495   1.012   0.271   3.454 -2.4337  1.4018 -1.5804
 2874SOL    MW411496   1.049   0.247   3.379 -0.7677 -0.4635 -0.2041
 2875SOL     OW11497   1.687   3.072   3.301  0.0101  0.2948  0.1154
 2875SOL    HW211498   1.640   3.016   3.362 -0.7926  2.4157  1.4641
 2875SOL    HW311499   1.779   3.061   3.324  0.0377 -1.9023 -0.8840
 2875SOL    MW411500   1.693   3.063   3.312 -0.0922  0.2848  0.1615
 2876SOL     OW11501   0.840   2.195   3.952  0.2879  0.4840 -0.7577
 2876SOL    HW211502   0.750   2.225   3.965 -0.1190 -1.1132  0.3411
 2876SOL    HW311503   0.854   2.199   3.857 -1.7554 -1.4708 -1.1731
 2876SOL    MW411504   0.830   2.200   3.941 -0.0354  0.0153 -0.6675
 2877SOL     OW11505   2.674   1.411   3.903 -0.3621  0.2701  0.1623
 2877SOL    HW211506   2.719   1.343   3.953 -0.6686 -0.0523 -0.0022
 2877SOL    HW311507   2.745   1.466   3.868 -0.1830  1.1216  1.8124
 2877SOL    MW411508   2.690   1.410   3.905 -0.3789  0.3399  0.3583
 2878SOL     OW11509   0.170   2.794   3.685 -0.2796 -0.1718 -0.0490
 2878SOL    HW211510   0.093   2.769   3.736  0.2227  0.5436  1.0910
 2878SOL    HW311511   0.236   2.816   3.751  1.1034 -1.3921 -1.0114
 2878SOL    MW411512   0.168   2.794   3.700 -0.0309 -0.2384 -0.0255
 2879SOL     OW11513   0.000   3.215   3.404 -0.0857 -0.2092  0.3320
 2879SOL    HW211514   0.076   3.175   3.362 -0.1507 -0.7331  0.7079
 2879SOL    HW311515   0.002   3.181   3.494 -0.3246  0.3819  0.5621
 2879SOL    MW411516   0.010   3.205   3.411 -0.1258 -0.2003  0.4120
 2880SOL     OW11517   2.755   1.237   4.131 -0.0546 -0.3459  0.5643
 2880SOL    HW211518   2.758   1.170   4.201  0.0863  0.2273  1.1091
 2880SOL    HW311519   2.800   1.312   4.168 -0.1849  0.0449 -0.0680
 2880SOL    MW411520   2.761   1.238   4.145 -0.0532 -0.2187  0.5528
 2881SOL     OW11521   0.383   1.180   3.343 -0.2613 -0.0110  0.3428
 2881SOL    HW211522   0.459   1.171   3.400 -0.2799  0.6245  0.4733
 2881SOL    HW311523   0.418   1.213   3.260 -0.3009 -0.4231  0.1622
 2881SOL    MW411524   0.398   1.183   3.340 -0.2690  0.0185  0.3362
   4.49070   4.66690  10.00000
