Gromacs Runs On Most of All Computer Systems in water
11556
    1DMSO    SD    1   1.364   3.738   4.762  0.0463  0.0438  0.3138
    1DMSO   CD1    2   1.357   3.827   4.921  0.3020  0.3122 -0.1764
    1DMSO    OD    3   1.420   3.845   4.667 -0.2557  0.2651  0.0017
    1DMSO   CD2    4   1.501   3.623   4.804  0.5237 -0.3007 -0.0491
    2DMSO    SD    5   1.666   2.173   4.425  0.0996  0.0651  0.0638
    2DMSO   CD1    6   1.592   2.014   4.369  0.1091 -0.5473  0.3163
    2DMSO    OD    7   1.549   2.270   4.427 -0.0407  0.2063 -0.4279
    2DMSO   CD2    8   1.692   2.114   4.596 -0.6188  0.2650  0.0100
    3DMSO    SD    9   2.148   1.302   4.686  0.1544  0.1891 -0.1503
    3DMSO   CD1   10   2.229   1.144   4.686 -0.2223 -0.0924 -0.0817
    3DMSO    OD   11   2.014   1.294   4.760  0.1943 -0.0675  0.0026
    3DMSO   CD2   12   2.257   1.382   4.809  0.5580  0.0220  0.3995
    4DMSO    SD   13   2.179   4.543   4.546  0.4936  0.1667 -0.2350
    4DMSO   CD1   14   2.127   4.713   4.556 -0.0982  0.2324 -0.2394
    4DMSO    OD   15   2.056   4.453   4.523  0.6501  0.6257 -0.3002
    4DMSO   CD2   16   2.268   4.548   4.396  0.5699 -0.2241 -0.4482
    5DMSO    SD   17   0.001   3.946   4.587  0.0808  0.1569  0.1076
    5DMSO   CD1   18   0.053   4.117   4.616 -0.3808 -0.1382  0.0506
    5DMSO    OD   19  -0.148   3.948   4.558 -0.0473 -0.2505 -0.0442
    5DMSO   CD2   20   0.086   3.919   4.436  0.3764 -0.2239  0.1500
    6DMSO    SD   21   3.912   3.924   4.581 -0.0054 -0.2154 -0.1558
    6DMSO   CD1   22   4.004   4.012   4.713  0.4240  0.0871  0.5355
    6DMSO    OD   23   4.011   3.835   4.512  0.1141  0.1088  0.3067
    6DMSO   CD2   24   3.818   3.814   4.698 -0.1372  0.0001 -0.4561
    7DMSO    SD   25   2.651   4.043   4.333  0.0094  0.3962 -0.2960
    7DMSO   CD1   26   2.817   4.111   4.318  0.1708  0.7662 -0.2493
    7DMSO    OD   27   2.664   3.891   4.306 -0.6319 -0.0462 -0.4172
    7DMSO   CD2   28   2.624   4.069   4.503 -0.5536  0.1412 -0.5110
    8DMSO    SD   29   1.417   2.945   4.509  0.1936  0.3776 -0.0065
    8DMSO   CD1   30   1.431   2.860   4.668 -0.1145 -0.5017  0.3161
    8DMSO    OD   31   1.268   2.978   4.487  0.4062  0.0023 -0.6026
    8DMSO   CD2   32   1.498   3.095   4.552  0.0828  0.4512  0.3498
    9DMSO    SD   33   0.290   4.572   4.680 -0.1230  0.3603  0.4034
    9DMSO   CD1   34   0.418   4.454   4.721 -0.2486  0.0139  0.1768
    9DMSO    OD   35   0.153   4.501   4.688 -0.1549  0.3600  0.3847
    9DMSO   CD2   36   0.302   4.668   4.835 -0.3664 -0.5156  0.5702
   10SOL     OW   37   1.332   2.431   1.104 -0.2093 -0.4771  0.5653
   10SOL    HW2   38   1.398   2.497   1.086  0.7110 -1.4365  0.3535
   10SOL    HW3   39   1.360   2.354   1.054 -1.7299 -0.7555  0.0963
   10SOL    MW4   40   1.344   2.430   1.095 -0.2885 -0.6404  0.4755
   11SOL     OW   41   1.671   2.021   0.146  0.1189  0.1131  0.3782
   11SOL    HW2   42   1.580   1.999   0.167 -0.1048 -0.8322 -1.4676
   11SOL    HW3   43   1.664   2.079   0.070  1.1144 -1.2879 -0.7946
   11SOL    MW4   44   1.658   2.026   0.138  0.2208 -0.1964 -0.0201
   12SOL     OW   45   2.442   3.827   1.487 -0.0583  0.2087 -0.1802
   12SOL    HW2   46   2.457   3.830   1.582 -0.8262 -0.2180 -0.0369
   12SOL    HW3   47   2.385   3.902   1.469  0.5952  0.6525 -0.4028
   12SOL    MW4   48   2.436   3.837   1.497 -0.0734  0.2110 -0.1907
   13SOL     OW   49   0.247   2.089   1.085 -0.3487 -0.0525  0.2390
   13SOL    HW2   50   0.173   2.142   1.056 -0.1557  1.0938  1.8183
   13SOL    HW3   51   0.223   1.999   1.061 -1.8568  0.4170 -0.0457
   13SOL    MW4   52   0.234   2.084   1.078 -0.5222  0.1607  0.4098
   14SOL     OW   53   0.926   3.221   1.304 -0.7600 -0.4462  0.2712
   14SOL    HW2   54   0.997   3.160   1.321 -1.3935 -1.4037 -0.4522
   14SOL    HW3   55   0.941   3.293   1.365  0.1747 -1.1716  0.9111
   14SOL    MW4   56   0.937   3.223   1.314 -0.7203 -0.6683  0.2602
   15SOL     OW   57   2.684   4.019   1.396 -0.0055  0.0493  0.1249
   15SOL    HW2   58   2.686   4.017   1.300 -0.6744  1.0377  0.0770
   15SOL    HW3   59   2.610   3.962   1.419  0.6765 -0.8644  0.1000
   15SOL    MW4   60   2.674   4.011   1.386 -0.0038  0.0591  0.1153
   16SOL     OW   61   0.611   4.150   0.697  0.0836 -0.2104 -0.1529
   16SOL    HW2   62   0.519   4.175   0.699 -0.2640 -1.5007  0.6220
   16SOL    HW3   63   0.657   4.230   0.673 -0.9883  1.1824  2.3348
   16SOL    MW4   64   0.605   4.164   0.694 -0.1037 -0.1969  0.2776
   17SOL     OW   65   3.482   0.313   0.726  0.5143 -0.3504  0.4725
   17SOL    HW2   66   3.573   0.325   0.698 -0.0424 -0.4865 -1.4741
   17SOL    HW3   67   3.436   0.389   0.691 -0.5122 -1.3329 -0.3396
   17SOL    MW4   68   3.488   0.325   0.718  0.3054 -0.4980  0.1085
   18SOL     OW   69   1.437   3.709   0.092  0.0559  0.5527  0.2445
   18SOL    HW2   70   1.413   3.664   0.173  1.2746 -0.7686 -0.1111
   18SOL    HW3   71   1.420   3.802   0.110  2.7476  0.6129  2.9482
   18SOL    MW4   72   1.432   3.715   0.105  0.5718  0.3863  0.5543
   19SOL     OW   73   1.925   1.072   0.229 -0.3258  0.3628  0.4943
   19SOL    HW2   74   1.831   1.055   0.220 -0.4764  0.8225  1.1669
   19SOL    HW3   75   1.930   1.158   0.268  0.4060  0.8504 -0.6346
   19SOL    MW4   76   1.913   1.081   0.233 -0.2491  0.4878  0.4341
   20SOL     OW   77   2.120   4.569   0.705 -0.3581 -0.1399 -0.0171
   20SOL    HW2   78   2.025   4.560   0.712 -0.3784 -0.1477 -0.3225
   20SOL    HW3   79   2.133   4.643   0.646 -0.1711 -0.5685 -0.5158
   20SOL    MW4   80   2.109   4.578   0.698 -0.3361 -0.1975 -0.1232
   21SOL     OW   81   2.257   3.203   1.393  0.1636  0.0227  0.0074
   21SOL    HW2   82   2.224   3.289   1.416 -0.8556 -0.3811  0.0676
   21SOL    HW3   83   2.266   3.205   1.298  0.8345  0.4331  0.0740
   21SOL    MW4   84   2.254   3.214   1.384  0.1177  0.0236  0.0241
   22SOL     OW   85   1.541   4.368   1.333 -0.1859 -0.2387  0.0544
   22SOL    HW2   86   1.464   4.323   1.371 -0.0028 -0.2276  0.4458
   22SOL    HW3   87   1.549   4.449   1.384 -0.5026  0.2344 -0.6387
   22SOL    MW4   88   1.532   4.373   1.345 -0.2036 -0.1748  0.0146
   23SOL     OW   89   2.066   4.109   0.960 -0.3561 -0.4870  0.5905
   23SOL    HW2   90   2.133   4.064   1.012 -1.8842 -0.8206  2.3177
   23SOL    HW3   91   2.057   4.195   1.001  0.9524  0.5794 -1.3227
   23SOL    MW4   92   2.073   4.114   0.972 -0.3851 -0.3903  0.5659
   24SOL     OW   93   2.072   1.287   1.403 -0.0767 -0.2458 -0.1541
   24SOL    HW2   94   1.999   1.231   1.430  0.5318 -0.9422  0.0597
   24SOL    HW3   95   2.150   1.242   1.434  0.4465  0.5518 -0.2823
   24SOL    MW4   96   2.073   1.274   1.411  0.0726 -0.2324 -0.1428
   25SOL     OW   97   3.265   3.046   0.523 -0.1981  0.3794 -0.0526
   25SOL    HW2   98   3.209   3.062   0.599 -1.2479  1.1441 -0.9679
   25SOL    HW3   99   3.315   2.968   0.546  0.4840  1.3948  1.9774
   25SOL    MW4  100   3.264   3.038   0.536 -0.2466  0.6142  0.0945
   26SOL     OW  101   2.234   2.367   0.339  0.0065  0.5907  0.4499
   26SOL    HW2  102   2.328   2.382   0.332  0.1386 -0.6375 -0.4726
   26SOL    HW3  103   2.218   2.288   0.288 -1.4015  0.3182  1.2838
   26SOL    MW4  104   2.244   2.359   0.332 -0.1619  0.3927  0.4382
   27SOL     OW  105   0.696   1.318   1.123 -0.7399 -0.1335  0.3792
   27SOL    HW2  106   0.621   1.368   1.092 -0.4276  0.7597  1.0613
   27SOL    HW3  107   0.683   1.311   1.217 -0.4953 -0.8673  0.3628
   27SOL    MW4  108   0.684   1.323   1.131 -0.6664 -0.1125  0.4670
   28SOL     OW  109   2.159   2.629   0.378  0.1840 -0.2767 -0.5881
   28SOL    HW2  110   2.192   2.540   0.363 -0.5684 -0.8508  1.0717
   28SOL    HW3  111   2.065   2.622   0.365 -0.2096 -0.2992  2.0495
   28SOL    MW4  112   2.151   2.616   0.374  0.0328 -0.3554 -0.0211
   29SOL     OW  113   0.684   2.957   0.531 -0.1157 -0.1384  0.3301
   29SOL    HW2  114   0.760   2.985   0.582  1.5779  0.1504 -2.2479
   29SOL    HW3  115   0.611   3.006   0.568  1.2360  0.8155  1.7969
   29SOL    MW4  116   0.685   2.967   0.542  0.2861  0.0255  0.1835
   30SOL     OW  117   2.465   2.598   0.706  0.2199  0.4504 -0.3494
   30SOL    HW2  118   2.518   2.520   0.722 -0.6591 -0.2953 -0.9942
   30SOL    HW3  119   2.487   2.624   0.616 -0.2017  0.3849 -0.4716
   30SOL    MW4  120   2.475   2.591   0.696  0.0483  0.3433 -0.4506
   31SOL     OW  121   0.943   4.508   0.707 -0.5508  0.1700 -0.5973
   31SOL    HW2  122   0.909   4.522   0.795  0.6083  0.1380 -0.1276
   31SOL    HW3  123   0.936   4.594   0.664 -0.8728  0.2476 -0.3868
   31SOL    MW4  124   0.938   4.521   0.713 -0.4404  0.1760 -0.5075
   32SOL     OW  125   4.346   2.126   0.351 -0.1886 -0.3330  0.3457
   32SOL    HW2  126   4.429   2.155   0.389 -0.0058  0.1095 -0.3818
   32SOL    HW3  127   4.289   2.112   0.427 -0.3734  2.2379  0.7431
   32SOL    MW4  128   4.349   2.128   0.366 -0.1889  0.0646  0.3021
   33SOL     OW  129   4.050   2.763   1.434 -0.8091  0.5290 -0.0728
   33SOL    HW2  130   4.068   2.675   1.401  0.1655  0.9285 -0.6019
   33SOL    HW3  131   4.042   2.751   1.529 -2.7219 -0.4645 -0.3204
   33SOL    MW4  132   4.051   2.750   1.442 -0.9329  0.4507 -0.1753
   34SOL     OW  133   0.872   2.457   1.053 -0.0116  0.3278 -0.0329
   34SOL    HW2  134   0.785   2.476   1.016  0.0948 -0.1781 -0.5453
   34SOL    HW3  135   0.862   2.474   1.147 -0.8029 -0.2169 -0.0140
   34SOL    MW4  136   0.859   2.462   1.060 -0.1020  0.1892 -0.0980
   35SOL     OW  137   0.885   2.993   0.975  0.0879 -0.0418  0.6312
   35SOL    HW2  138   0.809   2.961   1.023 -0.7946  0.4299 -0.4291
   35SOL    HW3  139   0.891   3.086   0.996 -0.8785  0.3857 -0.8930
   35SOL    MW4  140   0.876   3.001   0.984 -0.1560  0.0768  0.2902
   36SOL     OW  141   1.818   3.991   1.326  0.2121 -0.7034  0.6911
   36SOL    HW2  142   1.815   3.985   1.230  1.0871 -1.1570  0.6831
   36SOL    HW3  143   1.738   3.949   1.355  0.1670 -0.9850  0.1715
   36SOL    MW4  144   1.807   3.985   1.317  0.3216 -0.8004  0.6215
   37SOL     OW  145   4.076   1.368   0.694 -0.4514  0.3188  0.1219
   37SOL    HW2  146   4.025   1.446   0.674 -0.3231  0.9759  2.2278
   37SOL    HW3  147   4.167   1.397   0.692 -0.2086 -0.4720 -1.9633
   37SOL    MW4  148   4.081   1.382   0.691 -0.4025  0.3011  0.1247
   38SOL     OW  149   3.399   1.676   0.194  0.0091 -0.1634  0.2393
   38SOL    HW2  150   3.340   1.603   0.177  1.1695 -1.1159  0.3088
   38SOL    HW3  151   3.469   1.639   0.248  1.4226  0.6335 -1.0170
   38SOL    MW4  152   3.400   1.662   0.199  0.3487 -0.1840  0.0827
   39SOL     OW  153   0.887   2.454   1.333  0.0267  0.0307  0.3426
   39SOL    HW2  154   0.952   2.411   1.388 -1.1114  0.3851  1.9925
   39SOL    HW3  155   0.873   2.539   1.374 -2.4282 -0.5464  0.7638
   39SOL    MW4  156   0.894   2.460   1.345 -0.4474  0.0013  0.6159
   40SOL     OW  157   0.663   2.347   1.483 -0.4603 -0.1252 -0.2997
   40SOL    HW2  158   0.742   2.346   1.429 -0.1291  0.5625  0.1691
   40SOL    HW3  159   0.604   2.406   1.437 -0.1273  0.5673  0.1640
   40SOL    MW4  160   0.666   2.354   1.469 -0.3727  0.0569 -0.1767
   41SOL     OW  161   2.368   0.925   0.774 -0.4696 -0.5994  0.1190
   41SOL    HW2  162   2.279   0.949   0.749  0.4115  1.6251 -1.0433
   41SOL    HW3  163   2.381   0.837   0.739 -2.0690 -0.7999  0.0026
   41SOL    MW4  164   2.358   0.916   0.766 -0.5644 -0.3323 -0.0497
   42SOL     OW  165   4.078   1.657   1.089  0.1471 -0.5665  0.4432
   42SOL    HW2  166   4.083   1.574   1.041 -1.7634 -1.4530  1.7138
   42SOL    HW3  167   3.997   1.698   1.059  0.3362  0.1529  0.9043
   42SOL    MW4  168   4.068   1.651   1.079 -0.0800 -0.5885  0.6717
   43SOL     OW  169   1.599   4.586   0.278 -0.0699  0.3382  0.0851
   43SOL    HW2  170   1.536   4.652   0.307  0.9156  1.2314  0.2221
   43SOL    HW3  171   1.671   4.594   0.341  0.2895 -0.5013 -0.2233
   43SOL    MW4  172   1.600   4.596   0.290  0.1075  0.3453  0.0625
   44SOL     OW  173   4.044   0.129   1.379  0.4370 -0.3157  0.2671
   44SOL    HW2  174   3.970   0.079   1.414 -0.6070  0.7010 -0.4376
   44SOL    HW3  175   4.122   0.085   1.414 -0.5092 -1.1271  1.3907
   44SOL    MW4  176   4.045   0.117   1.389  0.1744 -0.2886  0.3224
   45SOL     OW  177   0.548   2.730   0.690  0.2074 -0.1626  0.2793
   45SOL    HW2  178   0.619   2.667   0.676  0.3180 -0.2155  1.0417
   45SOL    HW3  179   0.582   2.812   0.655 -0.3341 -0.7520 -1.6516
   45SOL    MW4  180   0.562   2.733   0.684  0.1505 -0.2474  0.1252
   46SOL     OW  181   3.139   3.268   1.387  0.1922 -0.5265 -0.0795
   46SOL    HW2  182   3.141   3.276   1.292 -0.2679  0.1315 -0.0334
   46SOL    HW3  183   3.132   3.358   1.419  1.0448 -0.6950  0.5943
   46SOL    MW4  184   3.138   3.281   1.379  0.2440 -0.4619  0.0154
   47SOL     OW  185   3.527   4.465   1.139 -0.4504 -0.0263 -0.0880
   47SOL    HW2  186   3.547   4.556   1.159 -1.9401  0.0746  1.0169
   47SOL    HW3  187   3.481   4.433   1.217  1.1851 -2.0904  0.0780
   47SOL    MW4  188   3.524   4.473   1.152 -0.4312 -0.2853  0.0797
   48SOL     OW  189   2.299   2.446   1.163  0.1157 -0.0629 -0.4163
   48SOL    HW2  190   2.215   2.480   1.134 -0.4376 -0.2810  0.8838
   48SOL    HW3  191   2.288   2.432   1.257  0.8884 -2.1463 -0.5990
   48SOL    MW4  192   2.287   2.449   1.172  0.1446 -0.3665 -0.2689
   49SOL     OW  193   1.333   4.261   1.473  0.1668 -0.1292 -0.1497
   49SOL    HW2  194   1.330   4.182   1.419 -1.6405 -1.2496  1.5715
   49SOL    HW3  195   1.259   4.314   1.443 -0.6667 -0.6234  1.0218
   49SOL    MW4  196   1.323   4.258   1.462 -0.1816 -0.3422  0.2319
   50SOL     OW  197   0.004   1.207   1.782 -0.4066 -0.0826  0.1729
   50SOL    HW2  198  -0.077   1.240   1.820 -0.8677 -2.5210  1.3897
   50SOL    HW3  199   0.014   1.119   1.818  2.6503  0.0596 -0.1431
   50SOL    MW4  200  -0.005   1.200   1.792 -0.0642 -0.3856  0.2918
   51SOL     OW  201   0.877   1.118   1.461 -0.3196  0.1437  0.2812
   51SOL    HW2  202   0.943   1.168   1.413  0.3123  1.6525  2.6444
   51SOL    HW3  203   0.896   1.026   1.439  1.9814  0.6080  0.1643
   51SOL    MW4  204   0.888   1.112   1.452  0.0674  0.4040  0.5776
   52SOL     OW  205   2.123   2.885   0.616  0.0191 -0.3862  0.2205
   52SOL    HW2  206   2.121   2.910   0.524 -0.0530 -0.2311  0.2627
   52SOL    HW3  207   2.034   2.855   0.634 -0.3885  1.0204  0.6259
   52SOL    MW4  208   2.111   2.884   0.606 -0.0442 -0.1801  0.2795
   53SOL     OW  209   0.964   1.798   0.592  0.3631  0.3416 -0.2332
   53SOL    HW2  210   0.958   1.726   0.529  3.9540 -0.8555  0.6461
   53SOL    HW3  211   0.983   1.875   0.539 -0.7357  0.1341 -0.9407
   53SOL    MW4  212   0.966   1.799   0.577  0.6919  0.1563 -0.2105
   54SOL     OW  213   0.564   0.428   0.312  0.3875  0.5936 -0.2264
   54SOL    HW2  214   0.555   0.333   0.301  0.0925  0.5983 -0.0478
   54SOL    HW3  215   0.658   0.443   0.315  0.4342  0.2307  0.3523
   54SOL    MW4  216   0.575   0.417   0.311  0.3547  0.5464 -0.1265
   55SOL     OW  217   1.505   0.268   0.791  0.1593  0.2522 -0.2714
   55SOL    HW2  218   1.506   0.348   0.738 -0.0381 -0.9444 -2.0911
   55SOL    HW3  219   1.575   0.214   0.754 -0.5560 -0.9475  0.1326
   55SOL    MW4  220   1.515   0.271   0.779  0.0389 -0.0640 -0.4582
   56SOL     OW  221   3.409   1.538   1.448 -0.0570  0.5408 -0.0245
   56SOL    HW2  222   3.406   1.448   1.414  0.6638  0.7717 -0.7026
   56SOL    HW3  223   3.399   1.528   1.543 -1.3113 -0.1665 -0.2055
   56SOL    MW4  224   3.407   1.525   1.456 -0.1274  0.4779 -0.1378
   57SOL     OW  225   2.212   1.690   1.403 -0.2207 -0.1932  0.1735
   57SOL    HW2  226   2.283   1.635   1.436  0.5843 -0.0372 -1.2427
   57SOL    HW3  227   2.218   1.771   1.453 -0.2221 -0.6701  0.9532
   57SOL    MW4  228   2.222   1.693   1.414 -0.1146 -0.2355  0.0895
   58SOL     OW  229   2.546   0.243   1.017  0.2723  0.0228  0.1422
   58SOL    HW2  230   2.543   0.242   0.921  0.1566  0.4953  0.1374
   58SOL    HW3  231   2.522   0.333   1.040  1.9130  0.3642  0.5563
   58SOL    MW4  232   2.543   0.255   1.007  0.4735  0.1302  0.1962
   59SOL     OW  233   0.227   2.369   1.443  0.1708  0.7083 -0.2956
   59SOL    HW2  234   0.224   2.365   1.539 -1.0123 -1.2195 -0.3964
   59SOL    HW3  235   0.242   2.278   1.416 -0.8748  1.0279 -1.9948
   59SOL    MW4  236   0.229   2.356   1.452 -0.1233  0.4961 -0.5331
   60SOL     OW  237   3.568   3.227   1.072  0.4738 -0.0062 -0.4313
   60SOL    HW2  238   3.492   3.272   1.036  0.4451  1.1069  1.0019
   60SOL    HW3  239   3.642   3.284   1.048  0.5060  0.4993  0.8422
   60SOL    MW4  240   3.568   3.241   1.064  0.4742  0.2074 -0.0742
   61SOL     OW  241   0.244   2.598   0.972  0.0943  0.4260  0.0758
   61SOL    HW2  242   0.164   2.567   1.013  0.7054  1.2892  1.9707
   61SOL    HW3  243   0.314   2.548   1.015  0.7032  0.8712 -0.3869
   61SOL    MW4  244   0.243   2.587   0.983  0.2552  0.5986  0.2648
   62SOL     OW  245   4.489   3.528   0.640  0.3368 -0.7176 -0.1047
   62SOL    HW2  246   4.547   3.458   0.671  1.0681 -0.2951 -0.5100
   62SOL    HW3  247   4.469   3.504   0.550  2.0061  0.5014 -0.8194
   62SOL    MW4  248   4.494   3.515   0.632  0.6535 -0.5010 -0.2525
   63SOL     OW  249   0.746   2.562   0.379  0.3931  0.2205  0.1974
   63SOL    HW2  250   0.653   2.553   0.400  0.1993 -0.6872 -0.9787
   63SOL    HW3  251   0.753   2.649   0.338 -0.0457  0.0340 -0.2722
   63SOL    MW4  252   0.735   2.572   0.376  0.3096  0.0761 -0.0198
   64SOL     OW  253   4.345   2.561   0.557 -0.1695  0.1347 -0.3341
   64SOL    HW2  254   4.364   2.474   0.593  2.1831  0.8780  0.2638
   64SOL    HW3  255   4.358   2.551   0.463 -1.3190 -0.4979 -0.4433
   64SOL    MW4  256   4.349   2.548   0.549 -0.0108  0.1493 -0.2696
   65SOL     OW  257   1.555   1.265   0.629  0.1108  0.0885  0.0382
   65SOL    HW2  258   1.478   1.317   0.652  0.0799  0.0480  0.0282
   65SOL    HW3  259   1.628   1.308   0.674  0.1106  0.2346 -0.0998
   65SOL    MW4  260   1.554   1.278   0.638  0.1067  0.1024  0.0187
   66SOL     OW  261   2.711   1.724   0.281  0.4451 -0.1344 -0.4152
   66SOL    HW2  262   2.660   1.744   0.359  0.4845  0.1873 -0.4724
   66SOL    HW3  263   2.798   1.702   0.314  0.6156  0.5520 -0.4121
   66SOL    MW4  264   2.716   1.724   0.296  0.4728 -0.0014 -0.4224
   67SOL     OW  265   0.710   4.048   0.285 -0.0133  0.1493  0.4287
   67SOL    HW2  266   0.800   4.069   0.311  0.5100 -0.9108 -0.4967
   67SOL    HW3  267   0.707   4.064   0.191 -0.3350 -1.3590  0.1673
   67SOL    MW4  268   0.721   4.053   0.276  0.0133 -0.1896  0.2721
   68SOL     OW  269   4.138   1.857   0.739 -0.1503 -0.4832 -0.0734
   68SOL    HW2  270   4.049   1.822   0.729 -0.8810  1.2667  0.2139
   68SOL    HW3  271   4.140   1.935   0.684  1.0265 -0.1757  0.3822
   68SOL    MW4  272   4.126   1.862   0.730 -0.0915 -0.2118  0.0246
   69SOL     OW  273   0.424   1.103   1.791  0.3188 -0.7522  0.4125
   69SOL    HW2  274   0.371   1.176   1.824  1.2256 -1.1205  2.7607
   69SOL    HW3  275   0.417   1.110   1.696 -3.3673 -0.3444  0.6123
   69SOL    MW4  276   0.416   1.113   1.783 -0.0479 -0.7470  0.7487
   70SOL     OW  277   1.418   1.929   0.603 -0.0741 -0.1072  0.5074
   70SOL    HW2  278   1.449   1.896   0.518  1.1237 -0.0726  0.9131
   70SOL    HW3  279   1.493   1.918   0.661 -0.5544  0.8236  1.3151
   70SOL    MW4  280   1.432   1.923   0.599  0.0206  0.0202  0.6675
   71SOL     OW  281   3.505   3.204   0.556 -0.1037  0.0162  0.1195
   71SOL    HW2  282   3.414   3.174   0.558  0.5539 -2.0507  1.0009
   71SOL    HW3  283   3.520   3.229   0.465 -1.8328  1.3407  0.1640
   71SOL    MW4  284   3.495   3.204   0.544 -0.2451 -0.0817  0.2417
   72SOL     OW  285   3.378   2.031   1.070 -0.1169 -0.1813  0.1267
   72SOL    HW2  286   3.447   2.089   1.038  0.9566 -1.5020  0.0384
   72SOL    HW3  287   3.296   2.075   1.044  0.6727  1.3178  0.1134
   72SOL    MW4  288   3.376   2.045   1.063  0.1289 -0.1578  0.1133
   73SOL     OW  289   2.477   1.299   1.338 -0.1202 -0.0585  0.0061
   73SOL    HW2  290   2.413   1.251   1.392 -1.0919  1.2162  0.0299
   73SOL    HW3  291   2.557   1.248   1.344 -0.5622 -0.5874  1.6921
   73SOL    MW4  292   2.479   1.286   1.346 -0.3067  0.0399  0.2317
   74SOL     OW  293   2.416   0.692   0.661 -0.6450 -0.1205 -0.1184
   74SOL    HW2  294   2.510   0.677   0.672 -0.6724  0.1267  0.4598
   74SOL    HW3  295   2.388   0.625   0.599  0.5593  1.8952 -2.9191
   74SOL    MW4  296   2.425   0.681   0.654 -0.4897  0.1780 -0.4116
   75SOL     OW  297   0.157   0.414   0.351 -0.0184  0.1470 -0.6892
   75SOL    HW2  298   0.164   0.366   0.268  2.0778  0.1562 -0.5455
   75SOL    HW3  299   0.229   0.477   0.348  0.9089 -0.7434  1.7147
   75SOL    MW4  300   0.167   0.416   0.340  0.3805  0.0307 -0.3531
   76SOL     OW  301   1.320   3.262   0.291 -0.5265 -0.0216  0.3562
   76SOL    HW2  302   1.368   3.185   0.260  1.0684  0.3889  1.7629
   76SOL    HW3  303   1.241   3.227   0.331 -0.1751 -0.8814  0.3029
   76SOL    MW4  304   1.316   3.248   0.292 -0.2697 -0.0809  0.5348
   77SOL     OW  305   2.930   2.296   1.465  0.1266  0.1211 -0.2272
   77SOL    HW2  306   2.910   2.262   1.552  0.2769  0.9617  0.1382
   77SOL    HW3  307   2.942   2.218   1.411 -1.8782 -0.4161  0.0536
   77SOL    MW4  308   2.929   2.281   1.469 -0.1181  0.1611 -0.1419
   78SOL     OW  309   3.348   3.358   0.964  0.3217 -0.0917 -0.0290
   78SOL    HW2  310   3.319   3.394   0.880  0.4394  1.1132  0.4417
   78SOL    HW3  311   3.362   3.434   1.020 -2.4305 -0.9440  1.9624
   78SOL    MW4  312   3.346   3.373   0.961 -0.0259 -0.0452  0.2959
   79SOL     OW  313   0.008   2.477   1.088 -0.2789 -0.8076  0.1035
   79SOL    HW2  314  -0.054   2.534   1.044 -0.1444 -1.5499 -1.0608
   79SOL    HW3  315  -0.019   2.478   1.180 -0.7320  0.5164 -0.0420
   79SOL    MW4  316  -0.004   2.484   1.094 -0.3210 -0.7309 -0.0693
   80SOL     OW  317   0.436   1.942   1.472 -0.0608 -0.9802  0.3768
   80SOL    HW2  318   0.425   1.931   1.567 -0.4111  1.1537  0.5937
   80SOL    HW3  319   0.526   1.973   1.462  0.1781 -1.8007 -0.0492
   80SOL    MW4  320   0.447   1.944   1.484 -0.0755 -0.8069  0.3492
   81SOL     OW  321   2.835   3.867   0.642 -0.2987  0.1113  0.0823
   81SOL    HW2  322   2.779   3.794   0.670  0.1300 -0.8616 -1.5601
   81SOL    HW3  323   2.919   3.851   0.685 -0.5467  0.2692  0.6339
   81SOL    MW4  324   2.839   3.855   0.651 -0.2749  0.0038 -0.0616
   82SOL     OW  325   3.810   1.026   0.878 -0.5701  0.2676 -0.2783
   82SOL    HW2  326   3.860   1.085   0.934  0.9495 -0.6133 -0.6589
   82SOL    HW3  327   3.748   0.983   0.936  0.9910 -0.6405  0.7702
   82SOL    MW4  328   3.809   1.028   0.893 -0.1637  0.0316 -0.1902
   83SOL     OW  329   1.544   0.287   1.069 -0.3962 -0.1090  0.2459
   83SOL    HW2  330   1.526   0.273   0.976 -0.1945  0.4891  0.1129
   83SOL    HW3  331   1.555   0.382   1.077  0.9744 -0.2866  0.6309
   83SOL    MW4  332   1.543   0.298   1.058 -0.1887 -0.0536  0.2791
   84SOL     OW  333   1.326   1.401   0.722  0.1367  0.7344  0.3035
   84SOL    HW2  334   1.233   1.376   0.716  0.1677  0.4509  0.9694
   84SOL    HW3  335   1.331   1.485   0.677 -0.8433  1.7680  2.0672
   84SOL    MW4  336   1.314   1.409   0.715  0.0115  0.8334  0.6240
   85SOL     OW  337   3.936   4.113   0.565 -0.2838 -0.1902 -0.9082
   85SOL    HW2  338   3.897   4.116   0.478 -1.6367  0.9094 -0.2841
   85SOL    HW3  339   3.951   4.205   0.588 -0.0853 -0.4640  0.0832
   85SOL    MW4  340   3.933   4.125   0.557 -0.4361 -0.0812 -0.6951
   86SOL     OW  341   0.453   0.713   0.994 -0.1354  0.2554 -0.0121
   86SOL    HW2  342   0.451   0.746   0.905 -0.2556  0.9408  0.2417
   86SOL    HW3  343   0.526   0.651   0.995 -0.6553 -0.3842 -0.7954
   86SOL    MW4  344   0.462   0.709   0.983 -0.2198  0.2615 -0.0819
   87SOL     OW  345   1.767   1.413   0.706 -0.4568  0.7408 -0.2243
   87SOL    HW2  346   1.777   1.420   0.801 -1.3522  1.6469 -0.1950
   87SOL    HW3  347   1.769   1.503   0.674  1.2579  0.3794 -1.2296
   87SOL    MW4  348   1.769   1.426   0.714 -0.3487  0.8127 -0.3531
   88SOL     OW  349   3.616   2.955   0.966  0.1623 -0.3288 -0.3209
   88SOL    HW2  350   3.612   3.049   0.982  0.8062 -0.4444  0.5192
   88SOL    HW3  351   3.539   2.920   1.011 -0.7039 -0.0838 -1.5725
   88SOL    MW4  352   3.605   2.963   0.974  0.1330 -0.3117 -0.3752
   89SOL     OW  353   1.482   1.841   0.336 -0.1684 -0.0751 -0.2920
   89SOL    HW2  354   1.495   1.747   0.349 -0.9032  0.0172  1.2144
   89SOL    HW3  355   1.389   1.850   0.319 -0.5784  0.6118  2.0773
   89SOL    MW4  356   1.472   1.830   0.336 -0.3195  0.0277  0.2194
   90SOL     OW  357   1.321   0.811   0.620  0.1312  0.3212  0.3150
   90SOL    HW2  358   1.324   0.797   0.526  1.0261  0.2991  0.3435
   90SOL    HW3  359   1.378   0.887   0.635  0.7619 -0.2725  0.9499
   90SOL    MW4  360   1.329   0.819   0.610  0.3325  0.2399  0.4025
   91SOL     OW  361   4.417   0.556   0.491 -0.2190  0.2496 -0.4070
   91SOL    HW2  362   4.363   0.499   0.546  2.2125 -0.1063  1.7068
   91SOL    HW3  363   4.487   0.499   0.459 -0.1226  1.0925 -1.7646
   91SOL    MW4  364   4.419   0.541   0.494  0.1145  0.3139 -0.3072
   92SOL     OW  365   3.357   0.464   1.055 -0.2716  0.6471 -0.0865
   92SOL    HW2  366   3.277   0.502   1.019  0.6421  0.6875 -2.1311
   92SOL    HW3  367   3.363   0.377   1.015  1.1767  0.9956 -0.6510
   92SOL    MW4  368   3.347   0.457   1.045  0.0400  0.6984 -0.4307
   93SOL     OW  369   3.388   3.742   0.374  0.2504 -0.0653 -0.2419
   93SOL    HW2  370   3.321   3.800   0.339 -0.1386 -0.6863 -0.5418
   93SOL    HW3  371   3.465   3.798   0.387  0.1015  0.3690 -1.1878
   93SOL    MW4  372   3.389   3.757   0.371  0.1794 -0.0899 -0.4063
   94SOL     OW  373   2.677   0.118   1.376  0.4195 -0.0509  0.1759
   94SOL    HW2  374   2.695   0.093   1.285  0.2914 -0.5462  0.2838
   94SOL    HW3  375   2.756   0.093   1.423  0.9726  1.3185  0.0036
   94SOL    MW4  376   2.690   0.111   1.370  0.4756  0.0644  0.1674
   95SOL     OW  377   2.249   0.892   0.338 -0.5933 -0.1396 -0.1725
   95SOL    HW2  378   2.301   0.813   0.326 -0.8134 -0.2085 -0.6611
   95SOL    HW3  379   2.224   0.918   0.250 -1.9491 -0.4927  0.0986
   95SOL    MW4  380   2.253   0.885   0.325 -0.8012 -0.1953 -0.2012
   96SOL     OW  381   0.629   3.867   0.613  0.1927 -0.1503 -0.1219
   96SOL    HW2  382   0.624   3.963   0.621  1.2927 -0.1466  0.5832
   96SOL    HW3  383   0.644   3.852   0.519 -0.1649  0.3587 -0.2646
   96SOL    MW4  384   0.630   3.878   0.601  0.2906 -0.0827 -0.0477
   97SOL     OW  385   2.406   3.537   0.499  0.3801 -0.6187 -0.1987
   97SOL    HW2  386   2.473   3.479   0.463  1.0186  0.6901 -1.1434
   97SOL    HW3  387   2.413   3.525   0.594  1.0052 -1.5256 -0.3484
   97SOL    MW4  388   2.416   3.527   0.507  0.5468 -0.5656 -0.3431
   98SOL     OW  389   3.157   1.907   1.465 -0.1888 -0.1057 -0.6319
   98SOL    HW2  390   3.235   1.955   1.435  0.3978 -0.5519  0.1808
   98SOL    HW3  391   3.161   1.823   1.419 -0.1027 -0.1952 -0.4599
   98SOL    MW4  392   3.168   1.902   1.455 -0.1001 -0.1764 -0.5020
   99SOL     OW  393   4.135   1.426   0.302  0.3222 -0.3216 -0.4801
   99SOL    HW2  394   4.200   1.459   0.240  0.4005 -0.5703 -0.5310
   99SOL    HW3  395   4.148   1.332   0.303 -0.6844 -0.4887 -1.2499
   99SOL    MW4  396   4.145   1.418   0.294  0.1997 -0.3765 -0.5884
  100SOL     OW  397   3.869   2.632   0.729  0.0272 -0.6120  0.5041
  100SOL    HW2  398   3.863   2.627   0.825 -0.4075  2.9468  0.7393
  100SOL    HW3  399   3.959   2.659   0.712  0.2313 -1.6772 -0.1148
  100SOL    MW4  400   3.880   2.635   0.740 -0.0032 -0.2830  0.4535
  101SOL     OW  401   0.234   3.187   1.391 -0.3737  0.0286  0.3254
  101SOL    HW2  402   0.154   3.229   1.358 -0.1740  0.3272  0.2202
  101SOL    HW3  403   0.229   3.097   1.358 -0.1289  0.3554 -0.5992
  101SOL    MW4  404   0.223   3.180   1.382 -0.3151  0.1111  0.1896
  102SOL     OW  405   2.183   4.348   0.537 -0.0629 -0.1400  0.1021
  102SOL    HW2  406   2.143   4.420   0.585 -1.1295 -0.7432  0.1429
  102SOL    HW3  407   2.172   4.272   0.594  0.3357 -0.4864 -0.2795
  102SOL    MW4  408   2.176   4.347   0.551 -0.1510 -0.2653  0.0571
  103SOL     OW  409   3.623   1.388   0.972  0.2746  0.3022 -0.3377
  103SOL    HW2  410   3.647   1.384   0.879 -0.6667  0.3061 -0.5808
  103SOL    HW3  411   3.625   1.481   0.993  0.2197  0.3214 -0.4189
  103SOL    MW4  412   3.626   1.399   0.962  0.1431  0.3052 -0.3805
  104SOL     OW  413   2.981   1.663   0.335 -1.1687  0.6122  0.0740
  104SOL    HW2  414   3.010   1.676   0.425  1.7834 -1.1817 -0.5210
  104SOL    HW3  415   3.027   1.731   0.285 -0.5509 -0.1664 -0.4333
  104SOL    MW4  416   2.991   1.674   0.340 -0.6977  0.2728 -0.0714
  105SOL     OW  417   2.689   1.683   1.377  0.4131 -0.6277 -0.1514
  105SOL    HW2  418   2.706   1.691   1.284 -1.3588  0.3273 -0.4013
  105SOL    HW3  419   2.702   1.771   1.412  0.6808 -0.8957  0.4296
  105SOL    MW4  420   2.693   1.695   1.370  0.2147 -0.5371 -0.1077
  106SOL     OW  421   2.007   1.531   1.519  0.0532 -1.1062  0.1236
  106SOL    HW2  422   2.076   1.580   1.473 -0.7346 -1.2030 -1.1856
  106SOL    HW3  423   2.019   1.440   1.490  0.2831 -1.3731  1.0305
  106SOL    MW4  424   2.018   1.525   1.509 -0.0204 -1.1542  0.0705
  107SOL     OW  425   3.035   4.612   0.698 -0.9144 -0.0193  0.0915
  107SOL    HW2  426   3.111   4.555   0.688 -1.7082 -1.1768  0.6350
  107SOL    HW3  427   2.976   4.586   0.627 -0.7994  0.8968 -0.3488
  107SOL    MW4  428   3.037   4.601   0.687 -1.0040 -0.0512  0.1051
  108SOL     OW  429   0.234   3.372   0.984 -0.1798 -0.7293 -0.3544
  108SOL    HW2  430   0.151   3.329   1.004 -0.8329  0.7068  0.1173
  108SOL    HW3  431   0.241   3.368   0.889 -1.1175 -0.2996 -0.4481
  108SOL    MW4  432   0.224   3.366   0.974 -0.3897 -0.4831 -0.3046
  109SOL     OW  433   3.810   4.103   0.320  0.3995 -0.1629 -0.8038
  109SOL    HW2  434   3.814   4.019   0.274  0.2625 -0.5550 -0.0961
  109SOL    HW3  435   3.719   4.112   0.347  0.2391  0.5823 -1.5522
  109SOL    MW4  436   3.798   4.093   0.317  0.3603 -0.1163 -0.8092
  110SOL     OW  437   1.348   1.162   1.482 -0.1283 -0.4529  0.6318
  110SOL    HW2  438   1.352   1.159   1.578 -2.6053  0.4678  0.7979
  110SOL    HW3  439   1.357   1.070   1.456 -0.2721 -0.8070  1.7731
  110SOL    MW4  440   1.350   1.149   1.491 -0.4741 -0.3782  0.8043
  111SOL     OW  441   1.644   1.015   0.228 -0.4922 -0.3152 -0.3959
  111SOL    HW2  442   1.619   0.962   0.152 -0.9035 -0.7210  0.0163
  111SOL    HW3  443   1.620   0.961   0.303 -0.8356  0.4232  0.0308
  111SOL    MW4  444   1.638   1.000   0.228 -0.5918 -0.2713 -0.2852
  112SOL     OW  445   3.358   4.632   1.495 -0.2472 -0.1965  0.0174
  112SOL    HW2  446   3.353   4.545   1.458 -1.3476 -0.2307  0.2293
  112SOL    HW3  447   3.291   4.682   1.449 -0.6358  0.1401  0.9253
  112SOL    MW4  448   3.349   4.627   1.484 -0.4437 -0.1566  0.1652
  113SOL     OW  449   3.857   0.765   0.634  0.2238 -0.1835 -0.1232
  113SOL    HW2  450   3.857   0.860   0.632 -1.3212 -0.1950 -1.1893
  113SOL    HW3  451   3.764   0.740   0.636  0.5591 -1.6862 -1.6834
  113SOL    MW4  452   3.845   0.774   0.634  0.0642 -0.3833 -0.4697
  114SOL     OW  453   0.186   4.393   1.430  0.3827  0.3458  0.1355
  114SOL    HW2  454   0.269   4.349   1.447 -0.0319  0.0705  1.4935
  114SOL    HW3  455   0.121   4.323   1.428  0.1519  0.5734 -0.7835
  114SOL    MW4  456   0.188   4.378   1.432  0.2975  0.3395  0.1934
  115SOL     OW  457   2.468   2.601   1.016 -0.1755 -0.0181 -0.1508
  115SOL    HW2  458   2.414   2.531   1.053 -0.4116 -0.4622 -1.3001
  115SOL    HW3  459   2.455   2.593   0.921  0.5334  0.9906 -0.3376
  115SOL    MW4  460   2.459   2.590   1.008 -0.1131  0.0564 -0.3271
  116SOL     OW  461   3.833   4.174   1.000  0.0051  0.1802 -0.0049
  116SOL    HW2  462   3.820   4.130   0.915 -0.4465  1.5623 -0.6634
  116SOL    HW3  463   3.917   4.141   1.031 -1.6566 -3.3739  0.9168
  116SOL    MW4  464   3.842   4.164   0.993 -0.2738 -0.1064  0.0298
  117SOL     OW  465   1.488   3.021   0.249 -0.0451  0.1022 -0.3413
  117SOL    HW2  466   1.412   2.976   0.213  0.0129  1.0035 -1.6193
  117SOL    HW3  467   1.507   2.975   0.331 -0.8483 -1.2786 -0.9195
  117SOL    MW4  468   1.481   3.009   0.255 -0.1434  0.0389 -0.5862
  118SOL     OW  469   4.021   2.731   0.346 -0.0002 -0.3813  0.3027
  118SOL    HW2  470   4.025   2.642   0.311 -3.4790 -0.7355  0.6296
  118SOL    HW3  471   4.006   2.719   0.440  1.2055  0.5688  0.6202
  118SOL    MW4  472   4.020   2.717   0.354 -0.3001 -0.3027  0.3877
  119SOL     OW  473   1.339   0.088   1.108 -0.1351  0.9042 -0.1205
  119SOL    HW2  474   1.267   0.144   1.078  0.6360  0.5886 -2.7280
  119SOL    HW3  475   1.415   0.147   1.110  0.2495  0.4320 -0.8263
  119SOL    MW4  476   1.340   0.103   1.104  0.0174  0.8003 -0.5577
  120SOL     OW  477   3.144   2.344   0.372  0.0263 -0.1745  0.2244
  120SOL    HW2  478   3.128   2.330   0.278  0.8552 -0.3410  0.1097
  120SOL    HW3  479   3.163   2.257   0.406 -0.5285 -0.1506  0.5999
  120SOL    MW4  480   3.144   2.331   0.364  0.0625 -0.1933  0.2588
  121SOL     OW  481   4.267   4.296   0.310  0.0260 -0.4324  0.0190
  121SOL    HW2  482   4.208   4.372   0.314 -0.5404 -0.9133  1.1564
  121SOL    HW3  483   4.352   4.330   0.339  0.1865  0.1516 -1.1317
  121SOL    MW4  484   4.270   4.310   0.315 -0.0275 -0.4188  0.0172
  122SOL     OW  485   2.208   2.558   0.672 -0.4053 -0.1881  0.6838
  122SOL    HW2  486   2.303   2.568   0.677 -0.4324  0.4323  0.0251
  122SOL    HW3  487   2.185   2.589   0.585 -0.9461 -2.5642 -0.0611
  122SOL    MW4  488   2.217   2.563   0.661 -0.4803 -0.4197  0.4986
  123SOL     OW  489   2.039   3.886   1.465  0.6903 -0.1157  0.1407
  123SOL    HW2  490   1.960   3.930   1.434  0.8056 -0.8874 -1.3282
  123SOL    HW3  491   2.044   3.806   1.412  2.3574 -0.1517  0.3106
  123SOL    MW4  492   2.030   3.881   1.454  0.9254 -0.2223 -0.0307
  124SOL     OW  493   2.018   4.347   0.318  0.3687  0.2106 -0.2681
  124SOL    HW2  494   2.082   4.322   0.384 -0.0769  0.3607  0.2206
  124SOL    HW3  495   1.951   4.278   0.322  0.0764  0.4969 -0.1981
  124SOL    MW4  496   2.017   4.334   0.327  0.2714  0.2682 -0.1944
  125SOL     OW  497   3.126   2.481   1.372 -0.1791 -0.3415  0.0559
  125SOL    HW2  498   3.125   2.481   1.276  1.7905 -0.5321  0.0102
  125SOL    HW3  499   3.072   2.407   1.397 -1.6852  0.4222 -0.8753
  125SOL    MW4  500   3.119   2.471   1.362 -0.1180 -0.2659 -0.0730
  126SOL     OW  501   1.173   1.800   0.360  0.5405  0.0096 -0.2568
  126SOL    HW2  502   1.137   1.889   0.361 -0.3919 -0.3531  1.3725
  126SOL    HW3  503   1.104   1.747   0.320  0.8860 -0.0500 -0.7635
  126SOL    MW4  504   1.159   1.804   0.355  0.4631 -0.0461 -0.1087
  127SOL     OW  505   0.194   1.823   1.014  0.0588  0.2635 -0.1905
  127SOL    HW2  506   0.274   1.793   1.057  0.0819 -0.0320 -0.4414
  127SOL    HW3  507   0.131   1.753   1.030  0.0997  0.1028 -0.7399
  127SOL    MW4  508   0.196   1.810   1.022  0.0673  0.2033 -0.2961
  128SOL     OW  509   4.268   3.858   1.461  0.3369 -0.3237 -0.7342
  128SOL    HW2  510   4.285   3.764   1.460  0.6492 -0.2697 -2.2544
  128SOL    HW3  511   4.344   3.896   1.417 -0.8830  0.4280 -2.2533
  128SOL    MW4  512   4.280   3.850   1.455  0.2172 -0.2174 -1.1352
  129SOL     OW  513   3.767   1.012   0.599 -0.1203 -0.0525 -0.1208
  129SOL    HW2  514   3.765   1.023   0.694  1.4945  0.7454 -0.1560
  129SOL    HW3  515   3.847   1.057   0.572 -1.0802  0.6033 -1.9701
  129SOL    MW4  516   3.777   1.020   0.608 -0.0339  0.1393 -0.3694
  130SOL     OW  517   0.737   3.635   1.376 -0.1956 -0.0775 -0.2065
  130SOL    HW2  518   0.731   3.656   1.283 -1.3053  1.1117  0.1186
  130SOL    HW3  519   0.651   3.599   1.398  0.7438 -2.3546 -0.1013
  130SOL    MW4  520   0.725   3.633   1.367 -0.2181 -0.2210 -0.1497
  131SOL     OW  521   1.572   1.811   1.000 -0.2977  0.5042  0.1917
  131SOL    HW2  522   1.568   1.899   1.036 -2.1104  0.6889 -0.4281
  131SOL    HW3  523   1.519   1.757   1.059  0.3015 -0.0520  0.2337
  131SOL    MW4  524   1.565   1.815   1.013 -0.4578  0.4552  0.1155
  132SOL     OW  525   1.787   1.668   0.617 -0.7188 -0.4042 -0.0891
  132SOL    HW2  526   1.877   1.685   0.642 -1.0767 -0.7147  1.4681
  132SOL    HW3  527   1.792   1.641   0.526  0.6230  0.8560 -0.4038
  132SOL    MW4  528   1.799   1.667   0.608 -0.5890 -0.2789  0.0748
  133SOL     OW  529   1.057   3.208   0.550  0.2049 -0.8220 -0.2169
  133SOL    HW2  530   1.009   3.143   0.602  0.6770 -0.2554  0.9366
  133SOL    HW3  531   0.988   3.262   0.509 -0.1541 -0.6768  0.5764
  133SOL    MW4  532   1.041   3.207   0.551  0.2198 -0.7281  0.0399
  134SOL     OW  533   3.807   2.091   1.332  0.1915 -0.5062 -0.3583
  134SOL    HW2  534   3.718   2.064   1.354  0.0437  0.7211  0.5819
  134SOL    HW3  535   3.863   2.026   1.375 -0.1538  0.8067  2.1415
  134SOL    MW4  536   3.802   2.079   1.340  0.1264 -0.1711  0.0956
  135SOL     OW  537   1.676   1.904   0.770 -0.1293 -0.2693  0.6061
  135SOL    HW2  538   1.736   1.836   0.739  1.1379  0.5442  1.2292
  135SOL    HW3  539   1.637   1.867   0.849  0.2693 -0.4311  0.7300
  135SOL    MW4  540   1.679   1.890   0.776  0.0905 -0.1833  0.7046
  136SOL     OW  541   1.369   3.197   1.397  0.3611 -0.0833  0.2922
  136SOL    HW2  542   1.364   3.211   1.302 -0.1418 -1.1429  0.1474
  136SOL    HW3  543   1.285   3.156   1.419  0.3092  0.5313  1.2679
  136SOL    MW4  544   1.357   3.193   1.387  0.2879 -0.1420  0.4018
  137SOL     OW  545   1.254   0.602   0.807  0.3463  0.4192 -0.6504
  137SOL    HW2  546   1.271   0.680   0.754  0.5172  0.5040 -0.4691
  137SOL    HW3  547   1.159   0.589   0.800  0.1280  1.3685  0.3293
  137SOL    MW4  548   1.244   0.610   0.799  0.3400  0.5557 -0.4972
  138SOL     OW  549   4.485   0.375   1.539  0.0142  0.1239  0.1339
  138SOL    HW2  550   4.575   0.402   1.524  0.7461 -1.7328  1.0938
  138SOL    HW3  551   4.472   0.300   1.481 -0.7937  0.1277  0.2991
  138SOL    MW4  552   4.495   0.369   1.529  0.0041 -0.1206  0.2823
  139SOL     OW  553   0.175   2.490   0.487  0.0624  0.2263 -0.5867
  139SOL    HW2  554   0.248   2.448   0.442 -0.0220  0.8021 -1.2699
  139SOL    HW3  555   0.216   2.538   0.559  0.2815 -0.0081 -0.5530
  139SOL    MW4  556   0.190   2.491   0.491  0.0802  0.2714 -0.6724
  140SOL     OW  557   3.656   0.610   0.237 -0.2059 -0.0700 -0.0940
  140SOL    HW2  558   3.709   0.614   0.157 -1.0563 -0.2407 -0.6765
  140SOL    HW3  559   3.667   0.696   0.277 -0.2258  0.2211 -0.7007
  140SOL    MW4  560   3.664   0.622   0.232 -0.3207 -0.0541 -0.2509
  141SOL     OW  561   4.063   3.279   1.075  0.2827 -0.5582  0.1001
  141SOL    HW2  562   4.060   3.193   1.033 -1.5678 -0.6600  0.3809
  141SOL    HW3  563   4.054   3.260   1.168 -0.3950 -0.0617  0.1434
  141SOL    MW4  564   4.061   3.265   1.082 -0.0509 -0.5061  0.1429
  142SOL     OW  565   2.080   2.147   0.258 -0.1826  0.0156  0.0206
  142SOL    HW2  566   2.060   2.124   0.349  2.4761 -1.4784  0.2863
  142SOL    HW3  567   2.029   2.086   0.205  0.4323 -0.9989  0.5828
  142SOL    MW4  568   2.071   2.136   0.263  0.2493 -0.3153  0.1299
  143SOL     OW  569   1.802   1.644   1.380 -0.1832  0.2205 -0.2868
  143SOL    HW2  570   1.724   1.618   1.429 -0.4000 -0.7426 -1.1257
  143SOL    HW3  571   1.876   1.614   1.433 -0.4030  0.0075 -0.1042
  143SOL    MW4  572   1.802   1.636   1.393 -0.2408  0.0653 -0.3734
  144SOL     OW  573   2.919   3.422   0.961  0.6599 -0.2518 -0.3671
  144SOL    HW2  574   2.841   3.371   0.984  0.9675 -0.3449  0.4717
  144SOL    HW3  575   2.913   3.432   0.866 -0.9950  0.7233 -0.1918
  144SOL    MW4  576   2.908   3.417   0.951  0.4821 -0.1354 -0.2333
  145SOL     OW  577   0.459   0.819   0.733  0.0448 -0.2561 -0.2867
  145SOL    HW2  578   0.374   0.794   0.697  0.2164 -2.1459  0.5612
  145SOL    HW3  579   0.443   0.903   0.775 -1.5324 -0.7977  0.2460
  145SOL    MW4  580   0.446   0.827   0.734 -0.1407 -0.5769 -0.1045
  146SOL     OW  581   4.043   0.454   0.333 -0.1308 -0.0513  0.5357
  146SOL    HW2  582   3.953   0.421   0.335 -0.7514  1.6104  0.6943
  146SOL    HW3  583   4.034   0.549   0.336  1.6666  0.1097  1.5937
  146SOL    MW4  584   4.030   0.462   0.334  0.0245  0.1892  0.6962
  147SOL     OW  585   1.561   3.620   1.380  0.1819 -0.0236 -0.5446
  147SOL    HW2  586   1.649   3.581   1.382  0.1471 -0.1000 -0.3930
  147SOL    HW3  587   1.507   3.557   1.428  0.0764  0.0993 -0.5024
  147SOL    MW4  588   1.566   3.606   1.387  0.1634 -0.0175 -0.5190
  148SOL     OW  589   1.511   3.119   1.741 -0.0417  0.2849 -0.5790
  148SOL    HW2  590   1.535   3.118   1.648  1.8997  0.3090 -0.0952
  148SOL    HW3  591   1.525   3.029   1.770  0.5768  0.5583 -0.0164
  148SOL    MW4  592   1.516   3.107   1.732  0.2960  0.3242 -0.4410
  149SOL     OW  593   1.612   1.279   0.348 -0.1829 -0.3537 -0.6620
  149SOL    HW2  594   1.605   1.197   0.300  0.1420 -1.1922  0.7127
  149SOL    HW3  595   1.584   1.258   0.437  1.0691  0.7403  0.0078
  149SOL    MW4  596   1.608   1.266   0.354  0.0252 -0.3200 -0.3922
  150SOL     OW  597   0.200   0.009   1.464 -0.3461  0.8432 -0.2603
  150SOL    HW2  598   0.285   0.030   1.424 -1.3522  0.4190 -2.7400
  150SOL    HW3  599   0.188  -0.084   1.447 -0.6521  0.5579  1.4125
  150SOL    MW4  600   0.210  -0.001   1.456 -0.5192  0.7496 -0.3667
  151SOL     OW  601   3.361   3.625   1.070 -0.4509  0.7724 -0.2094
  151SOL    HW2  602   3.443   3.667   1.045 -0.3993  0.8337  0.0575
  151SOL    HW3  603   3.365   3.620   1.166 -1.2004  1.7021 -0.1190
  151SOL    MW4  604   3.372   3.630   1.080 -0.5430  0.9031 -0.1623
  152SOL     OW  605   3.052   4.190   0.597  0.4692 -0.3008  0.1923
  152SOL    HW2  606   3.091   4.263   0.645 -0.7916 -0.0979  0.9142
  152SOL    HW3  607   3.108   4.116   0.617  0.3898 -0.0480  1.3768
  152SOL    MW4  608   3.065   4.190   0.606  0.2924 -0.2407  0.4439
  153SOL     OW  609   3.082   4.553   0.998 -0.0670 -0.1204  0.4913
  153SOL    HW2  610   3.103   4.628   1.054 -2.0197  0.3614  0.6125
  153SOL    HW3  611   3.065   4.591   0.912  1.5430 -0.7123 -0.0857
  153SOL    MW4  612   3.082   4.568   0.994 -0.1122 -0.1349  0.4312
  154SOL     OW  613   1.059   1.335   0.764 -0.5892 -0.2658 -0.9929
  154SOL    HW2  614   1.016   1.384   0.835  0.0802 -0.2569 -0.5895
  154SOL    HW3  615   1.008   1.356   0.686 -0.1700  1.2616 -0.8623
  154SOL    MW4  616   1.046   1.344   0.763 -0.4456 -0.0631 -0.9225
  155SOL     OW  617   1.103   3.891   1.464 -0.1250  0.1980 -0.3803
  155SOL    HW2  618   1.041   3.961   1.440  0.4023  0.7681 -0.1101
  155SOL    HW3  619   1.186   3.918   1.425  0.2447  0.0795  0.3009
  155SOL    MW4  620   1.106   3.904   1.456 -0.0066  0.2576 -0.2548
  156SOL     OW  621   2.253   3.238   1.127  0.0651 -0.0792 -0.2613
  156SOL    HW2  622   2.324   3.283   1.081  0.6869 -0.3910  0.3992
  156SOL    HW3  623   2.247   3.152   1.085  0.4545 -0.2647  0.0678
  156SOL    MW4  624   2.261   3.233   1.115  0.1985 -0.1448 -0.1307
  157SOL     OW  625   0.755   2.806   0.242  0.1912  0.0223  0.2403
  157SOL    HW2  626   0.689   2.876   0.247  0.4513  0.2233  1.0167
  157SOL    HW3  627   0.816   2.837   0.175 -0.6512 -0.3013 -0.6936
  157SOL    MW4  628   0.754   2.820   0.234  0.1144  0.0061  0.2195
  158SOL     OW  629   2.790   2.073   0.310  0.1003 -0.2204 -0.5316
  158SOL    HW2  630   2.700   2.090   0.339 -0.1085 -2.4971  0.2211
  158SOL    HW3  631   2.783   2.005   0.244  1.2812 -0.4840 -0.4100
  158SOL    MW4  632   2.778   2.066   0.305  0.2285 -0.5556 -0.4162
  159SOL     OW  633   1.383   0.343   1.492  0.6919  0.2641 -0.3372
  159SOL    HW2  634   1.388   0.253   1.462  2.5228  0.6253 -1.1379
  159SOL    HW3  635   1.296   0.372   1.466 -0.4912 -1.7102  1.2325
  159SOL    MW4  636   1.372   0.335   1.485  0.7773  0.0513 -0.2358
  160SOL     OW  637   4.203   4.493   1.122  0.4259  0.6817  0.5977
  160SOL    HW2  638   4.195   4.425   1.055 -1.6419  1.6695 -0.2094
  160SOL    HW3  639   4.236   4.447   1.200  0.6899 -0.9034 -0.4352
  160SOL    MW4  640   4.206   4.478   1.124  0.1879  0.6029  0.3550
  161SOL     OW  641   0.245   0.893   0.335 -0.6874 -0.0787  0.2061
  161SOL    HW2  642   0.322   0.947   0.316 -1.5381  0.9281 -0.4051
  161SOL    HW3  643   0.279   0.803   0.332  0.3774  0.3271 -0.5327
  161SOL    MW4  644   0.260   0.888   0.332 -0.6591  0.1077  0.0280
  162SOL     OW  645   4.274   3.139   1.426 -0.1796  0.3957  0.3013
  162SOL    HW2  646   4.280   3.134   1.522  0.0676  1.0407  0.3197
  162SOL    HW3  647   4.185   3.170   1.409  0.0665  1.1349  0.3505
  162SOL    MW4  648   4.263   3.142   1.437 -0.1145  0.5783  0.3102
  163SOL     OW  649   1.822   3.547   0.241 -0.9895 -0.7844 -0.1687
  163SOL    HW2  650   1.756   3.525   0.176  0.5769 -1.0455 -1.7113
  163SOL    HW3  651   1.773   3.589   0.311 -2.4613  1.3268 -2.3848
  163SOL    MW4  652   1.807   3.549   0.242 -0.9770 -0.5403 -0.6647
  164SOL     OW  653   4.016   3.414   0.585 -0.2557  0.2472  0.4324
  164SOL    HW2  654   4.087   3.454   0.636 -0.1788  0.2734  0.3047
  164SOL    HW3  655   4.004   3.328   0.625  0.6165 -0.2018 -0.2654
  164SOL    MW4  656   4.024   3.408   0.597 -0.1305  0.1914  0.3235
  165SOL     OW  657   2.449   2.195   0.666 -0.2328  0.1925  0.1907
  165SOL    HW2  658   2.478   2.108   0.693  0.4715  0.5566  0.6094
  165SOL    HW3  659   2.470   2.200   0.573 -0.8656 -0.3236  0.0150
  165SOL    MW4  660   2.456   2.184   0.657 -0.2234  0.1725  0.2228
  166SOL     OW  661   3.621   2.824   0.686 -0.3998  0.3972  0.0680
  166SOL    HW2  662   3.681   2.751   0.701 -1.2329 -0.2951  0.0859
  166SOL    HW3  663   3.625   2.874   0.767  0.1486  0.3517  0.0732
  166SOL    MW4  664   3.630   2.821   0.699 -0.4373  0.2999  0.0711
  167SOL     OW  665   3.819   0.441   1.142 -0.5676 -0.1523 -0.2383
  167SOL    HW2  666   3.839   0.354   1.106  2.2371  1.0320 -1.6802
  167SOL    HW3  667   3.875   0.501   1.093 -1.6188  2.3635  1.5342
  167SOL    MW4  668   3.829   0.437   1.130 -0.3362  0.3359 -0.1946
  168SOL     OW  669   3.797   3.381   0.978  0.3161  0.0636 -0.4176
  168SOL    HW2  670   3.887   3.353   0.998  0.5342 -0.0793 -1.5599
  168SOL    HW3  671   3.798   3.398   0.883 -1.2622 -1.4374 -0.7345
  168SOL    MW4  672   3.809   3.379   0.968  0.1366 -0.1533 -0.6101
  169SOL     OW  673   0.057   4.001   0.857  0.0589 -0.2509  0.0455
  169SOL    HW2  674   0.092   3.925   0.811 -0.4229 -0.6459  0.3392
  169SOL    HW3  675   0.011   3.965   0.933 -0.9352  0.2699 -0.2993
  169SOL    MW4  676   0.056   3.986   0.861 -0.1358 -0.2343  0.0387
  170SOL     OW  677   0.664   0.205   0.705  0.0909  0.3258 -0.0197
  170SOL    HW2  678   0.624   0.277   0.656 -1.7412 -1.1363 -0.6857
  170SOL    HW3  679   0.744   0.185   0.657 -0.0016  1.0970 -0.5120
  170SOL    MW4  680   0.670   0.212   0.693 -0.1630  0.2347 -0.1725
  171SOL     OW  681   0.658   3.778   0.360 -0.3196  0.2786  0.0998
  171SOL    HW2  682   0.678   3.865   0.326 -1.0044  0.3572 -0.1128
  171SOL    HW3  683   0.574   3.756   0.319 -0.2073 -0.4244  0.2558
  171SOL    MW4  684   0.649   3.787   0.350 -0.3952  0.1962  0.0923
  172SOL     OW  685   0.661   1.835   0.976 -0.1064  0.0158 -0.1005
  172SOL    HW2  686   0.660   1.818   0.882  0.4571  1.5831 -0.4165
  172SOL    HW3  687   0.743   1.797   1.006  0.7062  1.3203 -0.6258
  172SOL    MW4  688   0.671   1.828   0.968  0.0752  0.3947 -0.2115
  173SOL     OW  689   3.845   2.302   0.400  0.0963 -0.2249  0.1310
  173SOL    HW2  690   3.861   2.319   0.493 -1.5340  0.2151  0.3360
  173SOL    HW3  691   3.758   2.338   0.384  0.1661 -0.7580 -1.4493
  173SOL    MW4  692   3.836   2.309   0.411 -0.1096 -0.2372 -0.0504
  174SOL     OW  693   1.542   0.254   0.181 -0.3938  0.1373  0.2703
  174SOL    HW2  694   1.473   0.191   0.200  0.1109 -0.1170  1.2984
  174SOL    HW3  695   1.501   0.317   0.121 -0.3160 -2.2303 -2.3317
  174SOL    MW4  696   1.527   0.254   0.176 -0.3170 -0.2086  0.0626
  175SOL     OW  697   3.173   1.661   1.340 -0.3391  0.0741  0.4708
  175SOL    HW2  698   3.168   1.655   1.244  0.0137 -1.0548  0.5204
  175SOL    HW3  699   3.256   1.620   1.362 -1.4016 -1.5837  1.4320
  175SOL    MW4  700   3.183   1.655   1.330 -0.4327 -0.2936  0.6042
  176SOL     OW  701   3.808   2.863   1.346  0.1523 -0.3451  0.1389
  176SOL    HW2  702   3.732   2.817   1.381  0.3333 -0.6700  0.1068
  176SOL    HW3  703   3.884   2.818   1.384  0.3166  0.6447  1.0090
  176SOL    MW4  704   3.808   2.851   1.355  0.1978 -0.2573  0.2494
  177SOL     OW  705   1.517   1.548   0.374  0.6587 -0.1883  0.0820
  177SOL    HW2  706   1.518   1.457   0.345 -1.0881  0.1194 -1.0206
  177SOL    HW3  707   1.459   1.548   0.450  0.9943 -0.0716  0.3366
  177SOL    MW4  708   1.510   1.536   0.380  0.4725 -0.1323 -0.0299
  178SOL     OW  709   4.277   0.254   0.969 -0.1278 -0.1055 -0.2355
  178SOL    HW2  710   4.218   0.203   1.024 -0.6775  0.9227  0.1451
  178SOL    HW3  711   4.282   0.340   1.012  2.4247 -0.4898  0.2813
  178SOL    MW4  712   4.270   0.259   0.982  0.1364 -0.0205 -0.1171
  179SOL     OW  713   4.291   3.630   1.843 -0.5276  0.3813 -0.3162
  179SOL    HW2  714   4.308   3.718   1.808 -1.3316  0.7235  0.1498
  179SOL    HW3  715   4.365   3.578   1.812  0.5578  1.4906  0.3789
  179SOL    MW4  716   4.303   3.635   1.834 -0.4905  0.5728 -0.1630
  180SOL     OW  717   3.155   0.108   1.363  0.2184  0.0366 -0.4672
  180SOL    HW2  718   3.071   0.076   1.395 -0.0567  2.3993  1.3339
  180SOL    HW3  719   3.144   0.114   1.268 -1.1490 -1.0409 -0.3956
  180SOL    MW4  720   3.142   0.104   1.355  0.0017  0.2062 -0.2201
  181SOL     OW  721   2.770   0.260   0.268 -0.1670 -0.3195 -0.3363
  181SOL    HW2  722   2.793   0.295   0.354  1.6416 -1.0809 -0.4857
  181SOL    HW3  723   2.800   0.327   0.206 -0.4215 -0.2880 -0.4254
  181SOL    MW4  724   2.777   0.273   0.271  0.0380 -0.4158 -0.3677
  182SOL     OW  725   2.441   4.129   0.952  0.1643  0.0337 -0.2712
  182SOL    HW2  726   2.449   4.224   0.963  2.6262 -0.0689 -0.8011
  182SOL    HW3  727   2.428   4.117   0.858  0.0497 -0.1554 -0.2306
  182SOL    MW4  728   2.440   4.140   0.941  0.4740 -0.0048 -0.3358
  183SOL     OW  729   1.149   4.133   1.042 -0.1681 -0.0396 -0.2433
  183SOL    HW2  730   1.073   4.088   1.079  0.4053 -0.3310  0.6030
  183SOL    HW3  731   1.224   4.080   1.070  0.4709  1.1574  0.3155
  183SOL    MW4  732   1.149   4.120   1.050 -0.0082  0.0799 -0.0579
  184SOL     OW  733   3.825   4.426   0.322 -0.4138  0.5673  0.4443
  184SOL    HW2  734   3.917   4.448   0.332 -0.6796  1.5189  0.8296
  184SOL    HW3  735   3.823   4.330   0.323  0.3902  0.5502  2.0728
  184SOL    MW4  736   3.837   4.416   0.323 -0.3428  0.6906  0.7100
  185SOL     OW  737   2.484   2.654   0.436 -0.3227 -0.6552 -0.1358
  185SOL    HW2  738   2.400   2.664   0.391 -0.5630  1.2618  0.6773
  185SOL    HW3  739   2.531   2.734   0.417  0.1858 -0.4903  1.7406
  185SOL    MW4  740   2.479   2.666   0.428 -0.2873 -0.3805  0.2191
  186SOL     OW  741   2.909   3.133   1.488  0.3664 -0.2343  0.3088
  186SOL    HW2  742   2.935   3.127   1.580 -1.4893 -1.4221  0.7724
  186SOL    HW3  743   2.978   3.186   1.447  0.6752  1.1586  2.5714
  186SOL    MW4  744   2.922   3.140   1.495  0.1623 -0.2073  0.6685
  187SOL     OW  745   2.421   4.037   0.676  0.1107  0.9280  0.1830
  187SOL    HW2  746   2.493   4.067   0.621  1.3012 -1.1027  0.6102
  187SOL    HW3  747   2.414   3.943   0.659 -0.9045  0.6612  1.9053
  187SOL    MW4  748   2.429   4.029   0.666  0.1338  0.6248  0.4666
  188SOL     OW  749   2.500   2.854   1.132 -0.1051 -0.2678 -0.1217
  188SOL    HW2  750   2.485   2.765   1.098 -0.8458 -0.8920  1.7498
  188SOL    HW3  751   2.430   2.906   1.094 -0.3641 -0.7438 -0.3032
  188SOL    MW4  752   2.489   2.849   1.123 -0.2370 -0.4130  0.1013
  189SOL     OW  753   2.740   3.781   1.017 -0.0212  0.6717  0.2748
  189SOL    HW2  754   2.818   3.737   1.051  0.0987 -0.6280 -1.5784
  189SOL    HW3  755   2.667   3.738   1.062  0.2742  1.1144  1.1813
  189SOL    MW4  756   2.741   3.769   1.028  0.0336  0.5586  0.1499
  190SOL     OW  757   0.110   0.001   0.292  0.2527 -0.4095  0.1479
  190SOL    HW2  758   0.179  -0.002   0.359  0.0847 -2.2906  0.2819
  190SOL    HW3  759   0.036   0.044   0.335  0.6646 -0.2298  0.6781
  190SOL    MW4  760   0.110   0.006   0.307  0.2849 -0.6340  0.2356
  191SOL     OW  761   1.348   2.194   0.710  0.3564 -0.1628  0.2155
  191SOL    HW2  762   1.430   2.231   0.743  0.1228 -0.3848  1.0570
  191SOL    HW3  763   1.372   2.107   0.678  0.5983  0.0853 -0.2924
  191SOL    MW4  764   1.362   2.187   0.710  0.3575 -0.1593  0.2595
  192SOL     OW  765   1.279   0.117   0.792 -0.4630 -0.0764 -0.2050
  192SOL    HW2  766   1.354   0.171   0.818  0.7272 -1.0890 -1.4313
  192SOL    HW3  767   1.227   0.109   0.871  0.8733  0.4081  0.7516
  192SOL    MW4  768   1.282   0.123   0.805 -0.1297 -0.1461 -0.2406
  193SOL     OW  769   2.709   3.138   0.336  0.2543 -0.1076  0.6009
  193SOL    HW2  770   2.632   3.191   0.358 -0.8762 -0.9707 -1.1210
  193SOL    HW3  771   2.773   3.201   0.303 -0.8647  0.2765 -0.8758
  193SOL    MW4  772   2.707   3.153   0.335 -0.0425 -0.1708  0.1789
  194SOL     OW  773   1.122   2.861   1.086 -0.4253  0.0741 -0.5052
  194SOL    HW2  774   1.119   2.773   1.048 -0.4677 -0.1836  0.0784
  194SOL    HW3  775   1.047   2.907   1.048 -0.6590 -0.2845 -0.4789
  194SOL    MW4  776   1.111   2.855   1.076 -0.4617 -0.0072 -0.4248
  195SOL     OW  777   1.323   3.470   1.470  0.4101  0.0925 -0.0782
  195SOL    HW2  778   1.327   3.482   1.565  0.1928 -0.1667 -0.0345
  195SOL    HW3  779   1.320   3.375   1.458 -2.0778  0.1525 -0.2275
  195SOL    MW4  780   1.323   3.459   1.481  0.0532  0.0662 -0.0922
  196SOL     OW  781   3.627   0.880   1.042  0.3880  0.2287  0.2061
  196SOL    HW2  782   3.627   0.792   1.003 -1.0815 -0.6687  2.0958
  196SOL    HW3  783   3.626   0.863   1.136 -0.9918  2.2844  0.5756
  196SOL    MW4  784   3.627   0.866   1.049  0.0121  0.3816  0.5042
  197SOL     OW  785   3.239   3.280   0.324 -0.0403  0.1172  0.2508
  197SOL    HW2  786   3.329   3.284   0.292  0.1988 -0.3059  0.8580
  197SOL    HW3  787   3.235   3.199   0.374 -1.3928 -1.0328 -1.6578
  197SOL    MW4  788   3.251   3.270   0.326 -0.1872 -0.0903  0.0791
  198SOL     OW  789   3.146   0.272   0.418  0.1269  0.1663 -0.3225
  198SOL    HW2  790   3.232   0.231   0.426  0.7606  1.4201 -0.6622
  198SOL    HW3  791   3.096   0.211   0.364  0.0714 -1.6679  1.7328
  198SOL    MW4  792   3.150   0.258   0.412  0.2032  0.0897 -0.0962
  199SOL     OW  793   1.560   1.228   1.077 -0.3820  0.3657 -0.2243
  199SOL    HW2  794   1.554   1.220   1.172 -1.6688  0.6213 -0.2848
  199SOL    HW3  795   1.631   1.291   1.062 -2.1398  2.6034  0.6308
  199SOL    MW4  796   1.569   1.235   1.087 -0.7837  0.6947 -0.1194
  200SOL     OW  797   2.692   3.199   1.840  0.2455  0.0188 -0.0878
  200SOL    HW2  798   2.609   3.161   1.810  0.3437  1.0042 -1.6604
  200SOL    HW3  799   2.685   3.292   1.816  1.1469  0.4263  1.2241
  200SOL    MW4  800   2.680   3.206   1.833  0.3774  0.2025 -0.1222
  201SOL     OW  801   3.907   2.033   0.406  0.0116  0.2671 -0.9668
  201SOL    HW2  802   3.898   2.126   0.382 -0.3794  0.3499 -0.5087
  201SOL    HW3  803   3.856   2.024   0.486  0.7238 -0.1693 -0.5588
  201SOL    MW4  804   3.899   2.044   0.413  0.0539  0.2204 -0.8526
  202SOL     OW  805   3.883   2.358   0.665  0.5441 -0.1626  0.3510
  202SOL    HW2  806   3.806   2.311   0.697  1.0166 -0.7778  0.5967
  202SOL    HW3  807   3.859   2.451   0.669  0.2485 -0.2887  1.5792
  202SOL    MW4  808   3.870   2.364   0.670  0.5674 -0.2604  0.5455
  203SOL     OW  809   3.033   4.294   0.348  0.0123  0.1818  0.2882
  203SOL    HW2  810   3.060   4.228   0.285 -0.6738 -0.0272  0.2057
  203SOL    HW3  811   3.072   4.266   0.431 -0.8732 -0.7288  0.4053
  203SOL    MW4  812   3.042   4.282   0.351 -0.1951  0.0341  0.2928
  204SOL     OW  813   4.459   0.152   1.393 -0.3942  0.4120  0.0986
  204SOL    HW2  814   4.544   0.121   1.423 -0.7116  0.0714  0.6746
  204SOL    HW3  815   4.461   0.142   1.298  0.3911  0.8830  0.0660
  204SOL    MW4  816   4.470   0.146   1.385 -0.3325  0.4292  0.1703
  205SOL     OW  817   3.605   2.456   1.366  0.5116  0.1948  0.0215
  205SOL    HW2  818   3.682   2.409   1.396 -0.5035 -0.4633  1.6541
  205SOL    HW3  819   3.607   2.448   1.271  1.8297 -0.7934  0.1314
  205SOL    MW4  820   3.615   2.449   1.357  0.5515 -0.0224  0.2514
  206SOL     OW  821   2.093   3.024   0.369 -0.1627  0.2895  0.6359
  206SOL    HW2  822   2.112   3.091   0.435 -0.1709 -0.1487  1.0772
  206SOL    HW3  823   2.011   3.052   0.330  0.8966  1.6994 -0.6462
  206SOL    MW4  824   2.085   3.037   0.373 -0.0240  0.4177  0.5250
  207SOL     OW  825   0.955   2.290   0.486  0.1132 -0.1869 -0.2112
  207SOL    HW2  826   0.905   2.342   0.423  0.9645  1.4230  0.4408
  207SOL    HW3  827   1.045   2.320   0.478  0.7993 -2.1863 -0.4513
  207SOL    MW4  828   0.960   2.301   0.477  0.3161 -0.2383 -0.1569
  208SOL     OW  829   2.217   0.609   1.073 -0.0311 -0.2295 -0.2239
  208SOL    HW2  830   2.204   0.619   0.979  0.8043  0.5244 -0.2694
  208SOL    HW3  831   2.303   0.567   1.081  0.7319  1.3624  0.2322
  208SOL    MW4  832   2.227   0.605   1.062  0.1798  0.0800 -0.1697
  209SOL     OW  833   3.477   3.715   0.736 -0.4963 -0.4214  0.1217
  209SOL    HW2  834   3.449   3.783   0.673  0.9519 -0.2323 -0.3409
  209SOL    HW3  835   3.484   3.636   0.683  3.3285  0.2984 -0.5922
  209SOL    MW4  836   3.474   3.714   0.720  0.1994 -0.3014 -0.0335
  210SOL     OW  837   0.396   1.083   0.808 -0.2937  0.3946 -0.3134
  210SOL    HW2  838   0.405   1.178   0.806 -0.1459  0.4482  1.5611
  210SOL    HW3  839   0.323   1.067   0.868 -0.5971 -0.6632 -0.9504
  210SOL    MW4  840   0.388   1.094   0.816 -0.3142  0.2621 -0.1501
  211SOL     OW  841   3.312   2.572   0.757  0.3984 -0.4323 -0.4705
  211SOL    HW2  842   3.313   2.661   0.720 -1.0464 -0.5494 -0.8212
  211SOL    HW3  843   3.342   2.516   0.686  1.7750 -0.1897 -0.1019
  211SOL    MW4  844   3.316   2.577   0.743  0.3894 -0.4157 -0.4681
  212SOL     OW  845   2.039   3.349   0.985 -0.1482  0.2687  0.5687
  212SOL    HW2  846   2.113   3.312   1.033  0.7909  0.6202 -0.5835
  212SOL    HW3  847   2.031   3.438   1.019  1.0744  0.8118 -0.5271
  212SOL    MW4  848   2.048   3.356   0.996  0.1370  0.3868  0.2721
  213SOL     OW  849   2.953   3.589   0.428  0.0791 -0.1429  0.5343
  213SOL    HW2  850   3.048   3.578   0.428 -0.0115 -0.9547 -0.0553
  213SOL    HW3  851   2.940   3.683   0.414  0.7721 -0.2740 -1.1156
  213SOL    MW4  852   2.964   3.600   0.426  0.1586 -0.2673  0.2388
  214SOL     OW  853   4.458   3.303   1.319  0.5995 -0.0875  0.3640
  214SOL    HW2  854   4.481   3.370   1.383 -0.7630  0.8130 -0.0662
  214SOL    HW3  855   4.395   3.247   1.365  1.0265 -0.5366  0.4114
  214SOL    MW4  856   4.453   3.305   1.334  0.4761 -0.0279  0.3135
  215SOL     OW  857   2.912   3.863   0.380  0.2575 -0.3772  0.1953
  215SOL    HW2  858   2.885   3.870   0.472 -0.1853 -0.6899  0.0946
  215SOL    HW3  859   2.974   3.934   0.367 -0.7856  0.5704  0.3484
  215SOL    MW4  860   2.917   3.873   0.390  0.0615 -0.2934  0.2022
  216SOL     OW  861   1.437   2.711   0.187 -0.2405 -0.0868  0.1070
  216SOL    HW2  862   1.371   2.780   0.187  0.0709  0.2648 -2.0362
  216SOL    HW3  863   1.388   2.630   0.175 -0.3662  0.0849 -0.5609
  216SOL    MW4  864   1.422   2.710   0.185 -0.2160 -0.0178 -0.2639
  217SOL     OW  865   0.018   3.414   0.083  0.1967  0.1785  0.1140
  217SOL    HW2  866  -0.059   3.363   0.108 -0.1027 -0.2956 -1.7294
  217SOL    HW3  867   0.088   3.379   0.138 -0.5416 -0.5369  0.6155
  217SOL    MW4  868   0.017   3.403   0.094  0.0598  0.0215 -0.0631
  218SOL     OW  869   1.806   3.739   0.962 -0.0737 -0.4355 -0.8469
  218SOL    HW2  870   1.766   3.745   0.876 -0.2753  1.0751 -0.6618
  218SOL    HW3  871   1.736   3.705   1.019 -0.4267  0.0851 -0.9665
  218SOL    MW4  872   1.792   3.736   0.958 -0.1468 -0.1675 -0.8383
  219SOL     OW  873   2.182   2.268   0.742 -0.2373 -0.2045  0.5418
  219SOL    HW2  874   2.271   2.249   0.714 -0.8569 -0.6031 -1.2443
  219SOL    HW3  875   2.167   2.358   0.715 -0.2149  0.0220  1.2762
  219SOL    MW4  876   2.192   2.277   0.735 -0.3161 -0.2272  0.4030
  220SOL     OW  877   3.751   3.051   0.580 -0.1706 -0.2709  0.0749
  220SOL    HW2  878   3.680   3.115   0.571  1.8712  2.2283  0.9136
  220SOL    HW3  879   3.707   2.967   0.593 -2.9451  0.9521 -1.0166
  220SOL    MW4  880   3.736   3.048   0.580 -0.2673  0.2202  0.0415
  221SOL     OW  881   0.642   1.293   0.367  0.3108  0.6201  0.6941
  221SOL    HW2  882   0.566   1.237   0.350  1.4768 -1.5872  2.5454
  221SOL    HW3  883   0.632   1.366   0.305 -1.9643 -0.9218 -0.8367
  221SOL    MW4  884   0.631   1.295   0.356  0.1644  0.1254  0.7364
  222SOL     OW  885   2.453   1.559   1.456 -0.6487 -0.2109 -0.4255
  222SOL    HW2  886   2.526   1.607   1.418 -0.4899  0.7351  1.0427
  222SOL    HW3  887   2.445   1.481   1.401 -0.1834  0.9185 -2.1425
  222SOL    MW4  888   2.462   1.555   1.444 -0.5663  0.0629 -0.4584
  223SOL     OW  889   0.930   4.106   0.662 -0.3399  0.2083 -0.3675
  223SOL    HW2  890   0.913   4.024   0.709  0.7088 -0.2460 -0.7725
  223SOL    HW3  891   1.002   4.147   0.711  1.4446 -0.7457 -2.1550
  223SOL    MW4  892   0.937   4.101   0.675  0.0339  0.0225 -0.6568
  224SOL     OW  893   3.126   2.734   1.475 -0.5409  0.3010 -0.0386
  224SOL    HW2  894   3.205   2.778   1.445 -0.5852  0.9229  0.7333
  224SOL    HW3  895   3.124   2.652   1.426 -0.3288  1.0450 -1.3129
  224SOL    MW4  896   3.136   2.729   1.465 -0.5187  0.4812 -0.1049
  225SOL     OW  897   2.317   1.154   1.495  0.1844  0.4615 -0.4538
  225SOL    HW2  898   2.310   1.070   1.451 -0.4127  0.9028 -1.2139
  225SOL    HW3  899   2.301   1.134   1.587 -0.0322 -0.2456 -0.6388
  225SOL    MW4  900   2.314   1.140   1.501  0.0771  0.4264 -0.5785
  226SOL     OW  901   1.407   0.455   0.052 -0.3902 -0.4774 -0.3571
  226SOL    HW2  902   1.429   0.542   0.085  3.7738 -1.1019 -1.1561
  226SOL    HW3  903   1.387   0.468  -0.041 -1.6707 -0.1375 -0.0392
  226SOL    MW4  904   1.407   0.468   0.044 -0.0097 -0.5150 -0.4205
  227SOL     OW  905   0.441   4.538   1.044 -0.1676 -0.2708 -0.0493
  227SOL    HW2  906   0.360   4.498   1.077 -0.9400  0.9854 -0.3796
  227SOL    HW3  907   0.437   4.628   1.076 -0.2151  0.5681 -2.3163
  227SOL    MW4  908   0.430   4.544   1.053 -0.2758  0.0056 -0.3920
  228SOL     OW  909   0.644   0.730   1.474  0.1115  0.4986  0.2617
  228SOL    HW2  910   0.733   0.756   1.448  0.2106  0.6731  0.7730
  228SOL    HW3  911   0.646   0.731   1.569  0.2276 -1.7615  0.3019
  228SOL    MW4  912   0.656   0.734   1.483  0.1399  0.2234  0.3345
  229SOL     OW  913   1.799   2.460   1.123  0.0912 -0.3186  0.3444
  229SOL    HW2  914   1.724   2.509   1.089  1.4302  1.5734 -0.0047
  229SOL    HW3  915   1.778   2.445   1.215 -1.7341 -1.8760 -0.3001
  229SOL    MW4  916   1.787   2.465   1.131  0.0270 -0.2744  0.2133
  230SOL     OW  917   1.887   2.822   0.781 -0.1305  0.0749 -0.4182
  230SOL    HW2  918   1.856   2.866   0.860 -1.5844  1.3379 -1.6649
  230SOL    HW3  919   1.817   2.836   0.717  0.4581 -2.0153 -1.5558
  230SOL    MW4  920   1.874   2.829   0.783 -0.2447 -0.0343 -0.7328
  231SOL     OW  921   3.810   2.289   4.644 -0.5985  0.2393  0.0873
  231SOL    HW2  922   3.731   2.241   4.668  0.2791 -0.4372  1.7226
  231SOL    HW3  923   3.876   2.222   4.629 -0.0285  0.8391 -0.1360
  231SOL    MW4  924   3.809   2.274   4.645 -0.4075  0.2292  0.2736
  232SOL     OW  925   1.983   2.578   0.808 -0.4482 -0.7393  0.2476
  232SOL    HW2  926   1.961   2.671   0.798 -0.4550 -0.5867  1.5856
  232SOL    HW3  927   2.069   2.569   0.768 -0.6112 -0.2269 -0.2169
  232SOL    MW4  928   1.991   2.589   0.802 -0.4706 -0.6515  0.3628
  233SOL     OW  929   1.050   3.693   0.654 -0.4464  0.7106  0.2863
  233SOL    HW2  930   1.048   3.603   0.688  0.3587  0.2522 -0.8525
  233SOL    HW3  931   1.140   3.721   0.665 -0.2895  0.7354 -0.9873
  233SOL    MW4  932   1.061   3.684   0.660 -0.3195  0.6534 -0.0320
  234SOL     OW  933   4.000   3.135   0.665  0.3484  0.0621  0.6724
  234SOL    HW2  934   3.919   3.088   0.644 -0.2929  1.1509  0.6805
  234SOL    HW3  935   4.027   3.099   0.749  0.6554 -1.3287  0.0047
  234SOL    MW4  936   3.993   3.124   0.673  0.3043  0.0223  0.5854
  235SOL     OW  937   1.827   1.571   0.354  0.0834  0.3868  0.0944
  235SOL    HW2  938   1.858   1.486   0.386 -0.1059  0.6010  0.8456
  235SOL    HW3  939   1.733   1.557   0.339 -0.0865  0.6763  0.9077
  235SOL    MW4  940   1.818   1.558   0.356  0.0360  0.4533  0.3008
  236SOL     OW  941   0.277   1.586   0.605 -0.1879 -0.1644  0.2631
  236SOL    HW2  942   0.368   1.608   0.584 -0.9071  1.3312 -1.4198
  236SOL    HW3  943   0.248   1.656   0.664 -0.4200 -0.3500  0.3728
  236SOL    MW4  944   0.285   1.598   0.610 -0.3134  0.0084  0.0555
  237SOL     OW  945   3.813   1.533   1.434 -0.1993  0.1593  0.3992
  237SOL    HW2  946   3.784   1.535   1.525 -3.6284 -0.0594 -0.6054
  237SOL    HW3  947   3.826   1.440   1.415 -0.8701  0.0844  0.2846
  237SOL    MW4  948   3.811   1.521   1.444 -0.7402  0.1206  0.2515
  238SOL     OW  949   1.152   1.245   1.840 -0.2876 -0.0145  0.1004
  238SOL    HW2  950   1.149   1.340   1.830 -0.6671  0.0927  1.1237
  238SOL    HW3  951   1.069   1.215   1.803 -0.7072  0.1706  0.8747
  238SOL    MW4  952   1.141   1.254   1.834 -0.3930  0.0241  0.3376
  239SOL     OW  953   3.854   2.925   1.082  0.2777  0.0265 -0.4617
  239SOL    HW2  954   3.847   2.911   1.176 -0.2426 -1.5202 -0.7220
  239SOL    HW3  955   3.764   2.934   1.051  0.4682  1.1312 -0.7426
  239SOL    MW4  956   3.841   2.925   1.090  0.2342 -0.0318 -0.5331
  240SOL     OW  957   1.112   4.408   1.106  0.3573  0.0713 -0.0468
  240SOL    HW2  958   1.112   4.314   1.084  0.7468 -0.6123  2.6024
  240SOL    HW3  959   1.200   4.437   1.086  0.9209 -0.7071  1.1858
  240SOL    MW4  960   1.123   4.399   1.101  0.4831 -0.1216  0.4653
  241SOL     OW  961   3.332   3.891   1.430 -0.0197 -0.9764 -0.0407
  241SOL    HW2  962   3.337   3.800   1.402  0.5130 -0.5986 -1.1749
  241SOL    HW3  963   3.411   3.932   1.394  0.1527 -0.2498  1.1290
  241SOL    MW4  964   3.343   3.885   1.422  0.0733 -0.8307 -0.0360
  242SOL     OW  965   0.453   2.204   0.936  0.3866  0.0361 -0.3963
  242SOL    HW2  966   0.386   2.140   0.962  0.3210  0.4552  0.4939
  242SOL    HW3  967   0.532   2.174   0.980  0.2844  0.7344  0.2794
  242SOL    MW4  968   0.455   2.192   0.946  0.3645  0.1835 -0.1897
  243SOL     OW  969   2.047   3.062   1.472  0.0880  0.0648  0.1155
  243SOL    HW2  970   2.047   3.069   1.568 -0.6342  2.7653 -0.0355
  243SOL    HW3  971   2.113   3.126   1.444 -0.0210 -0.4017 -1.2162
  243SOL    MW4  972   2.056   3.072   1.481 -0.0217  0.3595 -0.0801
  244SOL     OW  973   0.457   1.077   0.356 -0.2259  0.6655 -0.4850
  244SOL    HW2  974   0.512   1.025   0.414 -0.2584 -1.3095 -2.1586
  244SOL    HW3  975   0.391   1.117   0.414  0.0500 -0.8387  0.8798
  244SOL    MW4  976   0.456   1.076   0.371 -0.1938  0.2065 -0.5257
  245SOL     OW  977   4.085   2.480   1.079  0.2377 -0.1698 -0.2802
  245SOL    HW2  978   4.084   2.386   1.059  0.8234 -0.3814  0.6219
  245SOL    HW3  979   4.064   2.484   1.172 -0.1138  0.6171 -0.3975
  245SOL    MW4  980   4.082   2.468   1.089  0.2686 -0.0939 -0.1766
  246SOL     OW  981   0.545   1.770   0.302  0.3300 -0.4867  0.0225
  246SOL    HW2  982   0.465   1.823   0.299  0.1979 -0.7420 -0.8465
  246SOL    HW3  983   0.540   1.724   0.386 -0.7928 -1.0674 -0.3605
  246SOL    MW4  984   0.534   1.771   0.313  0.1644 -0.5970 -0.1427
  247SOL     OW  985   4.264   4.657   1.487 -0.0683  0.1580  0.1043
  247SOL    HW2  986   4.276   4.668   1.582  1.7001  0.2490 -0.1192
  247SOL    HW3  987   4.339   4.700   1.448  0.6810 -2.2846 -1.2410
  247SOL    MW4  988   4.275   4.664   1.495  0.2639 -0.1522 -0.1027
  248SOL     OW  989   1.608   3.083   1.479  0.2294 -0.2838 -0.1264
  248SOL    HW2  990   1.694   3.115   1.452  0.2064 -0.7460 -0.7737
  248SOL    HW3  991   1.546   3.141   1.434  0.2001  0.7592  1.2308
  248SOL    MW4  992   1.611   3.095   1.469  0.2225 -0.2072 -0.0327
  249SOL     OW  993   4.104   1.395   0.969  0.4765 -0.2305  0.4034
  249SOL    HW2  994   4.110   1.383   0.874  0.8004 -1.4794  0.5772
  249SOL    HW3  995   4.174   1.341   1.004  0.8022  0.7847  1.3244
  249SOL    MW4  996   4.114   1.386   0.961  0.5622 -0.2613  0.5479
  250SOL     OW  997   4.020   1.924   1.484 -0.5057  0.0605  0.0706
  250SOL    HW2  998   4.086   1.969   1.432 -2.1832  1.5423 -0.8519
  250SOL    HW3  999   4.024   1.833   1.455  1.1985  0.1091  0.1286
  250SOL    MW4 1000   4.029   1.918   1.473 -0.5022  0.2624 -0.0435
  251SOL     OW 1001   2.664   1.782   0.556  0.1224  0.2434  0.4834
  251SOL    HW2 1002   2.681   1.698   0.599 -0.4079 -0.5120 -0.7650
  251SOL    HW3 1003   2.596   1.823   0.610 -1.1894 -1.0915 -0.1235
  251SOL    MW4 1004   2.657   1.776   0.569 -0.1207 -0.0324  0.2386
  252SOL     OW 1005   1.123   3.095   1.456 -0.4427 -0.6712  0.2134
  252SOL    HW2 1006   1.127   3.003   1.432 -0.4784 -0.7038  0.3333
  252SOL    HW3 1007   1.117   3.095   1.551  1.2907 -0.5061  0.3391
  252SOL    MW4 1008   1.123   3.083   1.465 -0.2187 -0.6537  0.2458
  253SOL     OW 1009   3.821   3.587   0.166 -0.1889 -0.1065  0.1052
  253SOL    HW2 1010   3.886   3.541   0.219 -0.2958  0.0468  0.3643
  253SOL    HW3 1011   3.737   3.561   0.202 -0.2625 -0.0541 -0.0289
  253SOL    MW4 1012   3.819   3.578   0.177 -0.2127 -0.0793  0.1217
  254SOL     OW 1013   3.432   0.472   0.311  0.2958 -0.0792 -0.3783
  254SOL    HW2 1014   3.502   0.527   0.274  1.2639  0.0891  1.6133
  254SOL    HW3 1015   3.463   0.383   0.299  0.5545 -0.0302 -0.0818
  254SOL    MW4 1016   3.446   0.468   0.305  0.4577 -0.0505 -0.0764
  255SOL     OW 1017   1.632   2.439   0.025 -0.4152  0.1643  0.4851
  255SOL    HW2 1018   1.697   2.397   0.082  0.1791  0.8746  0.3430
  255SOL    HW3 1019   1.668   2.527   0.009 -0.3838 -0.1543 -1.2836
  255SOL    MW4 1020   1.645   2.445   0.031 -0.3326  0.2160  0.2330
  256SOL     OW 1021   3.672   1.030   0.196 -0.3639  0.4781 -0.0304
  256SOL    HW2 1022   3.660   0.956   0.255 -1.3245 -0.9892 -2.0160
  256SOL    HW3 1023   3.584   1.057   0.173 -0.0144 -0.0132 -2.0395
  256SOL    MW4 1024   3.659   1.024   0.201 -0.4445  0.2197 -0.5575
  257SOL     OW 1025   2.902   4.096   0.987 -0.0448 -0.3727  0.4478
  257SOL    HW2 1026   2.872   4.114   0.898  0.5809  0.0384  0.3240
  257SOL    HW3 1027   2.821   4.078   1.036 -0.4819  0.4745  0.0494
  257SOL    MW4 1028   2.887   4.096   0.982 -0.0199 -0.2067  0.3789
  258SOL     OW 1029   0.240   4.152   1.016 -0.2252 -0.0621 -0.0142
  258SOL    HW2 1030   0.226   4.222   1.079 -0.5228 -0.5963  0.5273
  258SOL    HW3 1031   0.152   4.129   0.986 -0.0814  0.2241 -0.6700
  258SOL    MW4 1032   0.226   4.158   1.020 -0.2455 -0.0948 -0.0293
  259SOL     OW 1033   1.308   0.348   0.462  0.3489  0.1857 -0.3144
  259SOL    HW2 1034   1.237   0.338   0.525  0.8144 -0.3893  0.1267
  259SOL    HW3 1035   1.372   0.405   0.506 -0.5820  2.1043 -1.3608
  259SOL    MW4 1036   1.307   0.354   0.476  0.2875  0.3630 -0.3942
  260SOL     OW 1037   3.871   1.551   0.601 -0.6502 -0.1415 -0.0361
  260SOL    HW2 1038   3.784   1.533   0.637 -0.2201 -1.8513  0.1799
  260SOL    HW3 1039   3.861   1.538   0.507 -0.9941  1.2295 -0.2099
  260SOL    MW4 1040   3.858   1.547   0.593 -0.6388 -0.1862 -0.0305
  261SOL     OW 1041   3.566   3.502   1.462 -0.1620 -0.1969  0.5785
  261SOL    HW2 1042   3.568   3.413   1.427  1.9486 -0.0720  0.3259
  261SOL    HW3 1043   3.645   3.543   1.427 -1.3294  1.9213  0.3392
  261SOL    MW4 1044   3.577   3.496   1.453 -0.0376  0.0990  0.5136
  262SOL     OW 1045   3.638   4.615   0.197 -0.0169  0.0242 -0.6486
  262SOL    HW2 1046   3.704   4.554   0.231 -0.8935  0.2386  1.5106
  262SOL    HW3 1047   3.563   4.560   0.176  0.1372  0.0297 -1.2170
  262SOL    MW4 1048   3.637   4.600   0.199 -0.1122  0.0532 -0.4387
  263SOL     OW 1049   0.004   2.992   0.982  0.0345 -0.7597 -0.5338
  263SOL    HW2 1050  -0.001   3.078   1.024 -0.6378 -0.4831 -1.1521
  263SOL    HW3 1051  -0.072   2.944   1.017  0.1082 -0.9142 -0.5881
  263SOL    MW4 1052  -0.007   2.997   0.992 -0.0445 -0.7436 -0.6225
  264SOL     OW 1053   2.949   2.144   0.535  0.3755 -0.2889  0.4173
  264SOL    HW2 1054   2.890   2.215   0.561  2.2369  0.9922  1.2246
  264SOL    HW3 1055   2.919   2.118   0.448 -0.7844  0.9842  0.4266
  264SOL    MW4 1056   2.937   2.150   0.527  0.4681  0.0481  0.5250
  265SOL     OW 1057   0.443   1.731   1.144  0.2529 -0.4195 -0.1079
  265SOL    HW2 1058   0.475   1.715   1.233  0.4043 -0.8377 -0.2360
  265SOL    HW3 1059   0.515   1.776   1.100  0.4233 -0.7835 -0.2055
  265SOL    MW4 1060   0.457   1.734   1.150  0.2953 -0.5227 -0.1377
  266SOL     OW 1061   3.133   4.280   1.762  0.1562 -0.3006 -0.3001
  266SOL    HW2 1062   3.123   4.279   1.667 -3.1330 -0.6481 -0.0141
  266SOL    HW3 1063   3.139   4.187   1.786  2.0991 -0.1765 -0.2343
  266SOL    MW4 1064   3.132   4.267   1.753 -0.0215 -0.3301 -0.2537
  267SOL     OW 1065   2.692   1.042   0.247  0.5045  0.2185  0.2936
  267SOL    HW2 1066   2.743   1.116   0.280 -0.1648  0.6836  0.2789
  267SOL    HW3 1067   2.605   1.053   0.285  0.1558 -0.0783 -0.4039
  267SOL    MW4 1068   2.688   1.053   0.256  0.3702  0.2407  0.1997
  268SOL     OW 1069   4.041   4.031   1.352 -0.4591  0.1089  0.1507
  268SOL    HW2 1070   4.122   3.986   1.378 -0.0977  0.6179 -0.0862
  268SOL    HW3 1071   4.050   4.045   1.257 -1.5250 -1.2408 -0.1678
  268SOL    MW4 1072   4.053   4.027   1.343 -0.5521 -0.0020  0.0774
  269SOL     OW 1073   4.027   2.466   0.246 -0.0136 -0.4004 -0.0372
  269SOL    HW2 1074   3.970   2.394   0.275  1.6065 -1.1189  1.4046
  269SOL    HW3 1075   4.109   2.424   0.221 -0.5309  0.4837 -3.4097
  269SOL    MW4 1076   4.030   2.451   0.247  0.1319 -0.3786 -0.2919
  270SOL     OW 1077   2.478   1.022   1.040  0.5072 -0.7389 -0.1156
  270SOL    HW2 1078   2.448   1.013   0.949 -0.2096 -0.4705  0.0923
  270SOL    HW3 1079   2.492   1.116   1.051  1.5863 -0.8746 -0.2550
  270SOL    MW4 1080   2.476   1.033   1.029  0.5550 -0.7214 -0.1066
  271SOL     OW 1081   4.459   3.018   0.711  0.5326  0.0962  0.3234
  271SOL    HW2 1082   4.454   3.014   0.806 -0.0896 -0.8424  0.2623
  271SOL    HW3 1083   4.479   2.928   0.685 -0.7120  0.0535 -0.5054
  271SOL    MW4 1084   4.461   3.006   0.720  0.2863 -0.0333  0.2060
  272SOL     OW 1085   2.501   1.924   0.718  0.2411 -0.1123 -0.2459
  272SOL    HW2 1086   2.412   1.907   0.686 -0.1783 -0.2297  0.9757
  272SOL    HW3 1087   2.509   1.872   0.798  0.9723  0.8727  0.3356
  272SOL    MW4 1088   2.490   1.915   0.724  0.2823  0.0022 -0.0080
  273SOL     OW 1089   3.910   0.124   0.747  0.1430  0.1567 -0.1951
  273SOL    HW2 1090   4.002   0.138   0.722  0.5064 -0.2742  0.8357
  273SOL    HW3 1091   3.861   0.191   0.700  1.1533  1.2269  0.2492
  273SOL    MW4 1092   3.916   0.135   0.738  0.3243  0.2411 -0.0005
  274SOL     OW 1093   0.477   3.266   1.099 -0.0699  0.0169 -0.2224
  274SOL    HW2 1094   0.455   3.253   1.191 -0.0127  1.5816  0.0313
  274SOL    HW3 1095   0.407   3.322   1.065  0.5469  0.4413 -0.8181
  274SOL    MW4 1096   0.465   3.272   1.106  0.0190  0.2794 -0.2676
  275SOL     OW 1097   0.872   0.892   1.144  0.2240 -0.0479 -0.2619
  275SOL    HW2 1098   0.790   0.934   1.118  0.2613  0.8994  1.1307
  275SOL    HW3 1099   0.939   0.958   1.126  0.3826  0.1722  1.1029
  275SOL    MW4 1100   0.870   0.907   1.138  0.2498  0.1062  0.1019
  276SOL     OW 1101   1.159   3.414   0.723 -0.2993  0.3828  0.2557
  276SOL    HW2 1102   1.126   3.340   0.672 -1.0643  1.6490 -1.1233
  276SOL    HW3 1103   1.233   3.447   0.673  0.4294  0.1778  1.1857
  276SOL    MW4 1104   1.164   3.409   0.710 -0.3041  0.5228  0.1964
  277SOL     OW 1105   4.182   0.394   0.600  0.2407  0.2134  0.1401
  277SOL    HW2 1106   4.151   0.408   0.511  0.3187  1.0888  0.2415
  277SOL    HW3 1107   4.117   0.438   0.655  0.0783 -0.5129  0.5257
  277SOL    MW4 1108   4.170   0.402   0.595  0.2296  0.2330  0.2044
  278SOL     OW 1109   2.226   2.206   1.016 -0.3453 -0.4384  0.1855
  278SOL    HW2 1110   2.234   2.295   1.049 -1.6539 -0.6338  1.0628
  278SOL    HW3 1111   2.212   2.217   0.922  0.7356  0.2341  0.1032
  278SOL    MW4 1112   2.225   2.219   1.008 -0.3753 -0.3755  0.2904
  279SOL     OW 1113   2.453   3.410   0.751 -0.3291 -0.0544  0.3481
  279SOL    HW2 1114   2.429   3.408   0.843 -1.1085  1.5367  0.1799
  279SOL    HW3 1115   2.458   3.317   0.726  2.3783 -0.6052  2.6024
  279SOL    MW4 1116   2.451   3.397   0.760 -0.0747  0.0828  0.6233
  280SOL     OW 1117   3.877   1.545   0.321  0.3127  0.1893 -0.0272
  280SOL    HW2 1118   3.806   1.490   0.287 -1.7088  2.5780  0.2669
  280SOL    HW3 1119   3.957   1.495   0.301 -1.3868 -2.2872 -0.8323
  280SOL    MW4 1120   3.878   1.531   0.314 -0.1782  0.1777 -0.0946
  281SOL     OW 1121   1.806   3.484   1.426  0.3844  0.6897 -0.3870
  281SOL    HW2 1122   1.827   3.391   1.413 -2.3265 -0.0104 -0.1710
  281SOL    HW3 1123   1.820   3.498   1.520  2.7527  1.0631 -0.7693
  281SOL    MW4 1124   1.811   3.473   1.437  0.3392  0.6466 -0.4089
  282SOL     OW 1125   1.434   4.641   0.592 -0.1761  0.0040  0.2388
  282SOL    HW2 1126   1.347   4.634   0.633 -0.0989 -0.4201  0.3343
  282SOL    HW3 1127   1.419   4.690   0.511 -0.7609 -1.4109 -0.5201
  282SOL    MW4 1128   1.420   4.647   0.587 -0.2431 -0.2386  0.1513
  283SOL     OW 1129   1.589   4.387   1.064  0.6363  0.2041  0.4183
  283SOL    HW2 1130   1.568   4.384   1.157  1.6574 -1.0058  0.6296
  283SOL    HW3 1131   1.576   4.297   1.034  0.9948  0.4335 -0.4369
  283SOL    MW4 1132   1.585   4.375   1.072  0.8183  0.0747  0.3334
  284SOL     OW 1133   1.457   0.502   0.647  0.2440  0.5954  0.7420
  284SOL    HW2 1134   1.395   0.532   0.712  0.2297  2.8833 -0.2964
  284SOL    HW3 1135   1.523   0.571   0.642  1.3722 -0.5123 -0.1791
  284SOL    MW4 1136   1.458   0.515   0.655  0.3909  0.7511  0.4835
  285SOL     OW 1137   2.941   1.060   1.009  0.4372  0.1732  0.4693
  285SOL    HW2 1138   2.863   1.003   1.008  1.1205 -0.7908 -1.7256
  285SOL    HW3 1139   2.941   1.100   0.922  1.5965  1.3060  0.9891
  285SOL    MW4 1140   2.930   1.058   0.997  0.6803  0.1955  0.2483
  286SOL     OW 1141   2.919   3.319   0.295  0.1342  0.1470 -0.0269
  286SOL    HW2 1142   3.013   3.306   0.285 -0.0585 -0.3865 -1.1767
  286SOL    HW3 1143   2.911   3.402   0.343  1.1940 -0.1119  0.5978
  286SOL    MW4 1144   2.930   3.329   0.300  0.2486  0.0425 -0.0962
  287SOL     OW 1145   3.892   3.138   0.337  0.1209 -0.0393 -0.2084
  287SOL    HW2 1146   3.868   3.085   0.413 -0.2787  0.4575  0.0175
  287SOL    HW3 1147   3.941   3.078   0.281 -0.6207 -0.7452 -0.1168
  287SOL    MW4 1148   3.895   3.123   0.340 -0.0296 -0.0669 -0.1665
  288SOL     OW 1149   0.071   2.234   0.514  0.3558 -0.0741 -0.1491
  288SOL    HW2 1150   0.115   2.319   0.515 -0.0399  0.1301  0.0591
  288SOL    HW3 1151   0.010   2.238   0.587  0.9249 -0.8528  0.3805
  288SOL    MW4 1152   0.069   2.246   0.523  0.3787 -0.1499 -0.0517
  289SOL     OW 1153   2.023   1.808   0.976  0.2160  0.0085  0.2436
  289SOL    HW2 1154   2.016   1.890   1.025  0.4147 -0.5233  1.1684
  289SOL    HW3 1155   1.947   1.757   1.004  0.0844 -0.1212 -0.3466
  289SOL    MW4 1156   2.012   1.812   0.986  0.2249 -0.0787  0.2878
  290SOL     OW 1157   0.443   0.900   1.392 -0.1503 -0.1618 -0.2601
  290SOL    HW2 1158   0.515   0.840   1.409 -0.6957 -0.8266 -0.2873
  290SOL    HW3 1159   0.450   0.921   1.299  0.0491 -0.1653 -0.2454
  290SOL    MW4 1160   0.453   0.895   1.382 -0.1959 -0.2500 -0.2617
  291SOL     OW 1161   0.480   0.398   1.540  0.2154 -0.1269 -0.2452
  291SOL    HW2 1162   0.397   0.439   1.518  0.4596  0.4686 -0.0653
  291SOL    HW3 1163   0.538   0.420   1.466  0.3179 -0.2277 -0.1944
  291SOL    MW4 1164   0.477   0.406   1.527  0.2611 -0.0616 -0.2147
  292SOL     OW 1165   0.689   4.658   1.517  0.8011  0.0848  0.1258
  292SOL    HW2 1166   0.745   4.712   1.462  1.3091 -1.4856 -0.8977
  292SOL    HW3 1167   0.668   4.582   1.464  1.1840 -1.3987  2.0389
  292SOL    MW4 1168   0.693   4.655   1.503  0.9187 -0.3181  0.2431
  293SOL     OW 1169   0.336   4.227   0.758 -0.1940 -0.1757  0.3075
  293SOL    HW2 1170   0.311   4.202   0.847 -2.0220 -1.8392 -0.6426
  293SOL    HW3 1171   0.335   4.322   0.758 -1.6996 -0.1826  1.6700
  293SOL    MW4 1172   0.333   4.236   0.770 -0.6338 -0.3961  0.3619
  294SOL     OW 1173   1.003   2.020   0.394 -0.8019  0.1126  0.1843
  294SOL    HW2 1174   0.921   2.003   0.349 -0.4022  0.2832 -0.6190
  294SOL    HW3 1175   0.995   2.110   0.424  0.9049  1.7773 -3.9314
  294SOL    MW4 1176   0.992   2.030   0.392 -0.5240  0.3548 -0.4647
  295SOL     OW 1177   1.664   0.059   0.674 -0.0524 -0.1355 -0.3755
  295SOL    HW2 1178   1.721  -0.017   0.671 -0.0724 -0.2828  1.7435
  295SOL    HW3 1179   1.577   0.025   0.656 -0.1910 -0.8049  1.4066
  295SOL    MW4 1180   1.660   0.044   0.671 -0.0733 -0.2432  0.1392
  296SOL     OW 1181   2.105   1.029   0.740 -0.2782  0.2713 -0.3036
  296SOL    HW2 1182   2.036   0.968   0.712  0.6038 -0.7685 -0.2678
  296SOL    HW3 1183   2.082   1.112   0.699 -1.4603 -0.1062 -0.4287
  296SOL    MW4 1184   2.093   1.032   0.731 -0.3178  0.0843 -0.3154
  297SOL     OW 1185   3.731   1.996   0.634 -0.3192  0.1167  0.1364
  297SOL    HW2 1186   3.692   2.075   0.671  0.4277  0.5213  0.0615
  297SOL    HW3 1187   3.656   1.943   0.607 -0.8575  0.2572  1.3196
  297SOL    MW4 1188   3.716   1.999   0.636 -0.2917  0.1886  0.2827
  298SOL     OW 1189   4.049   0.380   1.475 -0.1464  0.9925 -0.1280
  298SOL    HW2 1190   3.959   0.411   1.477 -0.0398  1.2378  0.9624
  298SOL    HW3 1191   4.042   0.287   1.451 -0.8365  0.4615  2.0189
  298SOL    MW4 1192   4.036   0.372   1.472 -0.2234  0.9548  0.2992
  299SOL     OW 1193   1.613   0.774   1.522 -0.1033  0.4784 -0.5954
  299SOL    HW2 1194   1.684   0.815   1.472 -0.0468  0.8834 -0.1867
  299SOL    HW3 1195   1.608   0.684   1.488  0.2632  0.6057 -0.9817
  299SOL    MW4 1196   1.622   0.767   1.511 -0.0475  0.5487 -0.5924
  300SOL     OW 1197   2.156   4.114   0.694 -0.0191  0.1293 -0.2211
  300SOL    HW2 1198   2.128   4.096   0.783 -0.3749  2.0643  0.0900
  300SOL    HW3 1199   2.244   4.078   0.688 -0.8829 -2.1140  0.1608
  300SOL    MW4 1200   2.164   4.107   0.705 -0.1800  0.0886 -0.1296
  301SOL     OW 1201   1.147   1.767   1.044 -0.5645  0.3979  0.3887
  301SOL    HW2 1202   1.158   1.765   0.948 -0.1972 -0.0824  0.4384
  301SOL    HW3 1203   1.057   1.739   1.058 -0.2848 -0.6114  0.2348
  301SOL    MW4 1204   1.137   1.763   1.033 -0.4791  0.2014  0.3750
  302SOL     OW 1205   3.484   2.180   0.368  0.3513 -0.3622  0.0565
  302SOL    HW2 1206   3.540   2.247   0.327 -2.4480  1.2170 -1.3060
  302SOL    HW3 1207   3.519   2.097   0.335  2.9647  0.4610  0.6152
  302SOL    MW4 1208   3.496   2.178   0.358  0.3268 -0.0452 -0.0496
  303SOL     OW 1209   1.761   4.242   1.453  0.0563  0.1018 -0.0825
  303SOL    HW2 1210   1.682   4.280   1.414  0.2267  0.8994  0.3292
  303SOL    HW3 1211   1.756   4.149   1.431 -1.6886 -0.1197  1.0695
  303SOL    MW4 1212   1.750   4.235   1.445 -0.1515  0.1778  0.1238
  304SOL     OW 1213   0.554   4.249   0.400  0.5109  0.2465  0.2042
  304SOL    HW2 1214   0.623   4.304   0.436  1.2143 -0.1861 -0.4693
  304SOL    HW3 1215   0.600   4.173   0.364 -0.1564  0.6598 -1.5695
  304SOL    MW4 1216   0.569   4.246   0.400  0.5157  0.2440 -0.1187
  305SOL     OW 1217   2.008   0.449   1.125  0.0537  0.3974  0.4151
  305SOL    HW2 1218   2.085   0.504   1.109 -0.6370  1.1948 -0.2153
  305SOL    HW3 1219   2.003   0.444   1.221  0.3561  1.1029  0.4764
  305SOL    MW4 1220   2.018   0.456   1.136  0.0025  0.5957  0.3400
  306SOL     OW 1221   2.779   0.959   0.653  0.6027 -0.2205  0.0721
  306SOL    HW2 1222   2.692   0.994   0.633  0.4370 -0.9283 -0.4776
  306SOL    HW3 1223   2.828   0.969   0.570  1.1467  0.4611  0.4648
  306SOL    MW4 1224   2.774   0.965   0.639  0.6526 -0.2240  0.0514
  307SOL     OW 1225   3.895   3.778   0.799 -0.1073 -0.8745  0.0666
  307SOL    HW2 1226   3.962   3.790   0.732 -0.3127  0.1487  0.0487
  307SOL    HW3 1227   3.944   3.772   0.881 -0.0569  1.1200  0.2035
  307SOL    MW4 1228   3.910   3.778   0.801 -0.1278 -0.4764  0.0823
  308SOL     OW 1229   2.713   4.020   1.869  0.0623  0.7353  0.1525
  308SOL    HW2 1230   2.649   3.953   1.844 -0.7810  1.7757 -0.4791
  308SOL    HW3 1231   2.797   3.986   1.836 -0.0702 -0.8634  1.4211
  308SOL    MW4 1232   2.716   4.006   1.861 -0.0664  0.6616  0.2365
  309SOL     OW 1233   0.659   2.858   1.335 -0.3745 -0.0341 -0.4352
  309SOL    HW2 1234   0.671   2.937   1.387  1.2043 -1.5102  1.5055
  309SOL    HW3 1235   0.584   2.814   1.376  0.4895 -0.8949  0.2441
  309SOL    MW4 1236   0.651   2.863   1.347 -0.0522 -0.3424 -0.0895
  310SOL     OW 1237   2.398   1.482   0.363 -0.2127 -0.1440  0.5231
  310SOL    HW2 1238   2.466   1.456   0.301 -0.2282 -1.0774  0.8771
  310SOL    HW3 1239   2.335   1.410   0.360 -0.7396  0.3039  0.8435
  310SOL    MW4 1240   2.399   1.469   0.355 -0.2843 -0.2081  0.6121
  311SOL     OW 1241   0.724   0.809   0.301 -0.2554  0.7296  0.3456
  311SOL    HW2 1242   0.685   0.840   0.383 -0.1398  0.5510  0.4704
  311SOL    HW3 1243   0.746   0.717   0.319  2.1695  1.3910  0.9968
  311SOL    MW4 1244   0.722   0.801   0.314  0.0797  0.7933  0.4480
  312SOL     OW 1245   3.155   1.504   0.675  0.0044  0.0537 -0.0437
  312SOL    HW2 1246   3.153   1.474   0.765  0.1383  1.0731  0.3030
  312SOL    HW3 1247   3.130   1.596   0.679 -0.7311 -0.0828 -1.1268
  312SOL    MW4 1248   3.152   1.512   0.687 -0.0749  0.1702 -0.1409
  313SOL     OW 1249   1.801   2.702   1.498  0.3226  0.8574  0.4251
  313SOL    HW2 1250   1.731   2.746   1.450 -0.0566  0.0246  0.2028
  313SOL    HW3 1251   1.880   2.722   1.448  0.4620  2.9054  1.4169
  313SOL    MW4 1252   1.802   2.711   1.485  0.2910  1.0177  0.5266
  314SOL     OW 1253   0.782   1.943   0.250  0.0443  0.2677 -0.1076
  314SOL    HW2 1254   0.739   2.025   0.227  0.3055  0.7021  0.9284
  314SOL    HW3 1255   0.710   1.884   0.275 -0.2450 -0.2217 -2.0056
  314SOL    MW4 1256   0.767   1.946   0.250  0.0406  0.2605 -0.2213
  315SOL     OW 1257   0.236   2.864   1.040  0.0627 -0.4053  0.2435
  315SOL    HW2 1258   0.246   2.785   0.988  1.1312 -0.1742  0.0868
  315SOL    HW3 1259   0.151   2.900   1.013 -0.4905 -1.5668  0.4335
  315SOL    MW4 1260   0.226   2.859   1.029  0.1307 -0.5281  0.2479
  316SOL     OW 1261   2.590   1.109   9.983 -0.2150 -0.5887  0.1154
  316SOL    HW2 1262   2.633   1.081  10.064  1.1474 -0.3663 -0.5327
  316SOL    HW3 1263   2.572   1.028   9.936  0.2220 -0.6358  0.0243
  316SOL    MW4 1264   2.593   1.095   9.988  0.0224 -0.5656  0.0178
  317SOL     OW 1265   3.354   2.803   0.608 -0.1970  0.9063 -0.1814
  317SOL    HW2 1266   3.342   2.739   0.538 -0.4919  0.1873  0.5168
  317SOL    HW3 1267   3.448   2.801   0.626 -0.3294  0.0337  0.4299
  317SOL    MW4 1268   3.365   2.794   0.601 -0.2534  0.6963 -0.0086
  318SOL     OW 1269   3.578   0.180   0.318  0.7213 -0.1801 -0.6234
  318SOL    HW2 1270   3.513   0.164   0.387  1.0736  0.0318 -0.2404
  318SOL    HW3 1271   3.591   0.094   0.278  0.0839 -0.1937 -0.8087
  318SOL    MW4 1272   3.571   0.167   0.322  0.6837 -0.1540 -0.5973
  319SOL     OW 1273   3.375   1.304   1.057  0.2472  0.1646 -0.0787
  319SOL    HW2 1274   3.366   1.211   1.033  0.8764 -0.1314  0.7959
  319SOL    HW3 1275   3.468   1.322   1.047  0.2736  0.4522  0.6328
  319SOL    MW4 1276   3.386   1.294   1.053  0.3337  0.1635  0.1306
  320SOL     OW 1277   4.032   1.683   1.355 -0.0268  0.1247 -0.1585
  320SOL    HW2 1278   4.040   1.679   1.260 -0.8599 -0.4231 -0.2128
  320SOL    HW3 1279   3.965   1.618   1.376  1.2249 -0.8343  0.9376
  320SOL    MW4 1280   4.024   1.674   1.346  0.0285 -0.0741 -0.0211
  321SOL     OW 1281   2.708   0.385   1.455 -0.1531 -0.5087 -0.4024
  321SOL    HW2 1282   2.735   0.377   1.547  1.8250 -0.1337 -0.9293
  321SOL    HW3 1283   2.693   0.295   1.427 -0.7863 -0.6261  0.2678
  321SOL    MW4 1284   2.709   0.372   1.463  0.0243 -0.4747 -0.3835
  322SOL     OW 1285   2.966   1.325   1.381  0.0669 -0.1772  0.2947
  322SOL    HW2 1286   2.945   1.350   1.291 -0.2297  1.2873  0.7677
  322SOL    HW3 1287   2.951   1.404   1.433 -0.1964 -1.1245  1.7068
  322SOL    MW4 1288   2.961   1.338   1.376 -0.0070 -0.1089  0.5435
  323SOL     OW 1289   2.943   2.890   1.065 -0.4736  0.0654  0.1284
  323SOL    HW2 1290   3.026   2.930   1.037 -0.4481 -0.2661 -0.2898
  323SOL    HW3 1291   2.949   2.886   1.160  0.4303 -0.8530  0.0515
  323SOL    MW4 1292   2.955   2.895   1.074 -0.3509 -0.0995  0.0631
  324SOL     OW 1293   2.063   0.735   1.478  0.8286 -0.0757 -0.2249
  324SOL    HW2 1294   2.137   0.783   1.442  0.4022  2.0139  1.5304
  324SOL    HW3 1295   1.986   0.787   1.453  0.2186 -0.6248  0.4659
  324SOL    MW4 1296   2.063   0.748   1.470  0.6919  0.1276  0.0978
  325SOL     OW 1297   3.784   4.452   1.023 -0.0911 -0.3641 -0.1660
  325SOL    HW2 1298   3.804   4.362   0.997  0.2753 -0.2593 -0.2520
  325SOL    HW3 1299   3.693   4.450   1.051  0.1403 -0.9246  0.5694
  325SOL    MW4 1300   3.775   4.440   1.023 -0.0122 -0.4242 -0.0803
  326SOL     OW 1301   2.672   4.034   1.100 -0.1821 -0.0149 -0.6842
  326SOL    HW2 1302   2.697   3.948   1.066  0.5685  0.1922 -0.6626
  326SOL    HW3 1303   2.610   4.068   1.035  0.5948  0.0193 -1.4064
  326SOL    MW4 1304   2.667   4.027   1.087  0.0194  0.0169 -0.7766
  327SOL     OW 1305   2.700   0.880   1.336 -0.1453  0.3510  0.0378
  327SOL    HW2 1306   2.712   0.895   1.242 -0.2334  1.2912  0.1653
  327SOL    HW3 1307   2.702   0.968   1.374  0.0279 -0.0398  0.9326
  327SOL    MW4 1308   2.702   0.894   1.329 -0.1341  0.4235  0.1727
  328SOL     OW 1309   0.457   3.010   0.943 -0.0757  1.0141  0.2109
  328SOL    HW2 1310   0.467   3.090   0.995 -1.3953  1.1604  0.2465
  328SOL    HW3 1311   0.370   2.977   0.965 -0.4537  0.7983 -1.5035
  328SOL    MW4 1312   0.447   3.017   0.953 -0.2997  1.0049 -0.0106
  329SOL     OW 1313   4.084   3.981   1.862  0.4645  0.1317  0.0177
  329SOL    HW2 1314   4.001   3.935   1.846  0.3431 -0.3892  2.0155
  329SOL    HW3 1315   4.069   4.070   1.832 -0.6867 -0.0814 -0.0446
  329SOL    MW4 1316   4.071   3.987   1.856  0.2966  0.0349  0.2731
  330SOL     OW 1317   4.152   4.282   0.923  0.2919  0.1789  0.1629
  330SOL    HW2 1318   4.223   4.237   0.878 -1.8365 -2.4997 -0.6519
  330SOL    HW3 1319   4.104   4.327   0.854 -0.5459 -0.5136  0.2838
  330SOL    MW4 1320   4.155   4.282   0.908 -0.0994 -0.2659  0.0714
  331SOL     OW 1321   0.204   3.349   0.712 -0.3264 -0.5009  0.4441
  331SOL    HW2 1322   0.205   3.265   0.667  0.0856 -0.3258  0.1218
  331SOL    HW3 1323   0.287   3.390   0.689 -0.2316 -0.2878  1.1385
  331SOL    MW4 1324   0.215   3.344   0.703 -0.2595 -0.4497  0.4932
  332SOL     OW 1325   4.200   1.156   0.319 -0.5555 -0.4402 -0.4909
  332SOL    HW2 1326   4.286   1.113   0.316  0.1032  0.7374  0.5481
  332SOL    HW3 1327   4.146   1.108   0.257  1.0602 -0.7761 -1.6677
  332SOL    MW4 1328   4.205   1.144   0.311 -0.2554 -0.3291 -0.5091
  333SOL     OW 1329   0.454   3.754   1.008  0.1101 -0.2983 -0.6665
  333SOL    HW2 1330   0.531   3.706   1.039  0.8859  0.8223 -0.8068
  333SOL    HW3 1331   0.450   3.736   0.914 -1.3121 -2.4166 -0.2296
  333SOL    MW4 1332   0.464   3.746   1.000  0.0248 -0.4300 -0.6274
  334SOL     OW 1333   3.879   1.791   0.724 -0.0364 -0.0311  0.2327
  334SOL    HW2 1334   3.868   1.719   0.662 -0.1738 -0.5337  0.8380
  334SOL    HW3 1335   3.826   1.862   0.688 -1.7062 -0.9646  0.7856
  334SOL    MW4 1336   3.870   1.791   0.711 -0.2748 -0.2206  0.3855
  335SOL     OW 1337   1.839   4.125   0.364 -0.2147 -0.4977 -0.4332
  335SOL    HW2 1338   1.769   4.084   0.313  0.4033 -0.9990 -0.8678
  335SOL    HW3 1339   1.872   4.056   0.421  1.2174 -0.7811 -1.5768
  335SOL    MW4 1340   1.834   4.111   0.364  0.0558 -0.6012 -0.6414
  336SOL     OW 1341   0.788   2.269   0.712 -0.1452  0.1984 -0.0156
  336SOL    HW2 1342   0.763   2.361   0.703 -0.2698  0.3364  1.6308
  336SOL    HW3 1343   0.857   2.256   0.647 -0.4056  1.3390 -0.5312
  336SOL    MW4 1344   0.794   2.279   0.702 -0.1960  0.3671  0.1336
  337SOL     OW 1345   1.513   0.980   0.702  0.2766 -0.0763  0.1308
  337SOL    HW2 1346   1.521   0.975   0.797 -1.0093 -0.2183  0.2451
  337SOL    HW3 1347   1.518   1.074   0.683 -1.9077  0.1733  0.6010
  337SOL    MW4 1348   1.515   0.992   0.712 -0.1812 -0.0621  0.2079
  338SOL     OW 1349   4.272   2.360   0.193 -0.1561  0.1467  0.6153
  338SOL    HW2 1350   4.332   2.423   0.232  0.8636  0.0994 -0.8691
  338SOL    HW3 1351   4.302   2.275   0.226  0.0178  0.2039  0.6001
  338SOL    MW4 1352   4.284   2.357   0.203  0.0013  0.1480  0.4175
  339SOL     OW 1353   3.951   0.516   0.751  0.4422 -0.2039  0.3336
  339SOL    HW2 1354   3.962   0.509   0.846 -0.2815 -0.9727  0.3626
  339SOL    HW3 1355   3.929   0.608   0.737  1.5615  0.1478  0.8001
  339SOL    MW4 1356   3.949   0.527   0.761  0.4944 -0.2589  0.3990
  340SOL     OW 1357   4.452   4.215   1.439 -0.2012  0.3581 -0.0113
  340SOL    HW2 1358   4.386   4.274   1.405  1.2870  1.6395 -0.7506
  340SOL    HW3 1359   4.456   4.234   1.533 -1.4117 -0.2743  0.1720
  340SOL    MW4 1360   4.444   4.225   1.447 -0.1645  0.4437 -0.0847
  341SOL     OW 1361   1.808   3.224   1.062  0.8875 -0.4527 -0.7898
  341SOL    HW2 1362   1.883   3.280   1.040  1.0658  0.6249  2.3040
  341SOL    HW3 1363   1.732   3.271   1.029  1.2623  0.2749 -0.6178
  341SOL    MW4 1364   1.808   3.238   1.055  0.9605 -0.2145 -0.3589
  342SOL     OW 1365   4.461   4.547   1.048 -0.0365 -0.1594 -0.0961
  342SOL    HW2 1366   4.467   4.642   1.055  0.9538 -0.1858 -0.4924
  342SOL    HW3 1367   4.370   4.527   1.069 -0.2784  0.8863 -0.1160
  342SOL    MW4 1368   4.450   4.557   1.051  0.0622 -0.0249 -0.1510
  343SOL     OW 1369   4.054   4.267   1.481  0.0196  0.0422  0.1457
  343SOL    HW2 1370   3.983   4.320   1.446  0.7691  0.2979 -1.0301
  343SOL    HW3 1371   4.048   4.184   1.434 -1.4529 -1.1299  2.3284
  343SOL    MW4 1372   4.044   4.263   1.471 -0.0758 -0.0787  0.2785
  344SOL     OW 1373   1.592   4.086   0.715  0.3431 -0.5406  0.2445
  344SOL    HW2 1374   1.643   4.007   0.700 -0.5428 -1.2571  0.9772
  344SOL    HW3 1375   1.644   4.156   0.674  1.1868 -1.4682 -0.2903
  344SOL    MW4 1376   1.606   4.085   0.708  0.3375 -0.7576  0.2706
  345SOL     OW 1377   0.063   1.680   0.450 -0.1710 -0.6125  0.1621
  345SOL    HW2 1378   0.141   1.662   0.501  0.4286  0.6155 -0.3237
  345SOL    HW3 1379  -0.001   1.713   0.513 -0.0351 -0.8209  0.4098
  345SOL    MW4 1380   0.065   1.682   0.465 -0.0740 -0.4780  0.1307
  346SOL     OW 1381   4.038   4.227   1.754 -0.3777  0.1447  0.0921
  346SOL    HW2 1382   4.045   4.221   1.658  1.0695 -0.4627  0.2198
  346SOL    HW3 1383   4.107   4.288   1.779 -0.4999 -0.0003  0.7884
  346SOL    MW4 1384   4.048   4.234   1.745 -0.2029  0.0454  0.2008
  347SOL     OW 1385   3.743   1.789   0.347 -0.3334  0.3985 -0.4826
  347SOL    HW2 1386   3.814   1.852   0.342 -0.4330  0.5424 -0.1126
  347SOL    HW3 1387   3.783   1.706   0.321  0.4926  0.0784  1.6966
  347SOL    MW4 1388   3.758   1.786   0.343 -0.2375  0.3753 -0.1462
  348SOL     OW 1389   2.469   2.104   1.101 -0.2141  0.4926 -0.0180
  348SOL    HW2 1390   2.382   2.121   1.062 -0.8625 -1.5397  0.5129
  348SOL    HW3 1391   2.487   2.013   1.080  0.6350  0.1484  2.1585
  348SOL    MW4 1392   2.460   2.095   1.093 -0.1876  0.1790  0.3392
  349SOL     OW 1393   4.221   3.021   0.559  0.0264 -0.0673  0.2403
  349SOL    HW2 1394   4.146   3.067   0.597  0.2011 -0.9385  1.6585
  349SOL    HW3 1395   4.291   3.031   0.624  0.5371 -0.9690 -0.1625
  349SOL    MW4 1396   4.220   3.029   0.573  0.1168 -0.3012  0.3743
  350SOL     OW 1397   0.173   1.050   1.016  0.1153  0.5299 -0.5096
  350SOL    HW2 1398   0.176   1.143   1.038  2.5162  1.1738 -3.1985
  350SOL    HW3 1399   0.102   1.042   0.953 -1.5006  0.1304  1.3387
  350SOL    MW4 1400   0.164   1.061   1.010  0.2189  0.5622 -0.6205
  351SOL     OW 1401   1.659   2.176   9.901  0.0587 -0.2538 -0.4578
  351SOL    HW2 1402   1.631   2.157   9.811  0.9810 -0.2250 -0.7588
  351SOL    HW3 1403   1.651   2.271   9.908  1.1875 -0.1170 -0.9292
  351SOL    MW4 1404   1.654   2.186   9.890  0.3293 -0.2319 -0.5597
  352SOL     OW 1405   2.483   1.808   0.976 -1.0232 -0.0876 -0.1139
  352SOL    HW2 1406   2.551   1.762   1.025  0.7112  0.8057 -1.6280
  352SOL    HW3 1407   2.401   1.778   1.016  0.2656 -0.4675  2.3672
  352SOL    MW4 1408   2.481   1.798   0.988 -0.6244 -0.0199  0.0137
  353SOL     OW 1409   1.969   0.571   0.303  0.3079  0.5715  0.2265
  353SOL    HW2 1410   1.892   0.527   0.339  2.3471 -1.4661  2.2067
  353SOL    HW3 1411   1.959   0.662   0.328 -2.3811  0.7181 -1.1829
  353SOL    MW4 1412   1.958   0.577   0.311  0.2222  0.3220  0.3018
  354SOL     OW 1413   1.859   2.821   0.175 -0.0115 -0.0156  0.2176
  354SOL    HW2 1414   1.954   2.817   0.164  0.0195  0.2831  0.3748
  354SOL    HW3 1415   1.837   2.913   0.157 -0.0480  0.3306  1.9058
  354SOL    MW4 1416   1.869   2.833   0.171 -0.0122  0.0695  0.4611
  355SOL     OW 1417   1.726   0.078   0.083  0.1200  0.1807 -0.4540
  355SOL    HW2 1418   1.662   0.147   0.100 -0.7088 -0.5341 -0.6343
  355SOL    HW3 1419   1.696   0.004   0.136 -0.5182 -0.9234 -2.3189
  355SOL    MW4 1420   1.714   0.078   0.093 -0.0736 -0.0593 -0.7238
  356SOL     OW 1421   3.566   0.352   1.504  0.2063 -0.2353 -0.0597
  356SOL    HW2 1422   3.497   0.375   1.441  0.4670 -1.3126 -0.7614
  356SOL    HW3 1423   3.643   0.401   1.473  0.0544  0.0645  0.0393
  356SOL    MW4 1424   3.567   0.361   1.491  0.2206 -0.3379 -0.1392
  357SOL     OW 1425   2.940   3.641   1.149 -0.1250  0.1222  0.4002
  357SOL    HW2 1426   2.963   3.563   1.099  0.9614  0.0899  0.9558
  357SOL    HW3 1427   3.003   3.707   1.120 -1.5570  1.0472 -0.6893
  357SOL    MW4 1428   2.951   3.639   1.138 -0.1706  0.2400  0.3298
  358SOL     OW 1429   4.013   4.373   0.680  0.2505 -0.0429  0.0905
  358SOL    HW2 1430   4.085   4.429   0.654  0.4771  0.1341  1.1039
  358SOL    HW3 1431   3.942   4.433   0.701 -0.3918 -0.2269 -1.4227
  358SOL    MW4 1432   4.013   4.388   0.679  0.1957 -0.0438  0.0245
  359SOL     OW 1433   3.275   1.216   0.356 -0.3169  0.2445 -0.1643
  359SOL    HW2 1434   3.253   1.307   0.337  0.3521  0.0887 -1.7959
  359SOL    HW3 1435   3.330   1.220   0.435  1.8155  1.5136 -1.6712
  359SOL    MW4 1436   3.279   1.228   0.364  0.0527  0.3914 -0.5784
  360SOL     OW 1437   4.129   2.756   0.655 -0.3482  0.0325  0.4773
  360SOL    HW2 1438   4.201   2.695   0.641 -0.6572 -0.2427  0.0620
  360SOL    HW3 1439   4.156   2.836   0.610 -0.8761 -0.5080 -0.8470
  360SOL    MW4 1440   4.142   2.759   0.647 -0.4587 -0.0752  0.2477
  361SOL     OW 1441   1.121   2.527   0.949 -0.1368  0.0438  0.3724
  361SOL    HW2 1442   1.033   2.508   0.981 -0.3753  1.0257  0.3043
  361SOL    HW3 1443   1.179   2.508   1.023 -0.3766 -0.8824  0.3244
  361SOL    MW4 1444   1.117   2.522   0.963 -0.1999  0.0512  0.3571
  362SOL     OW 1445   1.391   1.667   1.150 -0.6790 -0.2125 -0.2436
  362SOL    HW2 1446   1.398   1.584   1.103 -0.1766 -0.2627 -0.0784
  362SOL    HW3 1447   1.314   1.709   1.112  0.1483  0.0721 -1.6385
  362SOL    MW4 1448   1.382   1.662   1.139 -0.5036 -0.1816 -0.4059
  363SOL     OW 1449   1.540   3.255   0.738 -0.3910  0.2729  0.5104
  363SOL    HW2 1450   1.617   3.217   0.696  0.3761  0.5837  1.6293
  363SOL    HW3 1451   1.505   3.316   0.673  0.9861  1.0089  0.4471
  363SOL    MW4 1452   1.545   3.258   0.723 -0.1081  0.4110  0.6497
  364SOL     OW 1453   3.339   2.617   0.398 -0.2500  0.3501  0.3916
  364SOL    HW2 1454   3.307   2.529   0.381 -0.8945  0.4975  0.8478
  364SOL    HW3 1455   3.275   2.675   0.357  0.9082  0.5862 -1.1464
  364SOL    MW4 1456   3.326   2.613   0.390 -0.1822  0.4007  0.2489
  365SOL     OW 1457   4.281   3.669   1.150  0.7075  0.1151  0.2969
  365SOL    HW2 1458   4.353   3.726   1.126  2.8951 -1.3363  3.1776
  365SOL    HW3 1459   4.299   3.587   1.103 -0.2494  0.4469 -0.6673
  365SOL    MW4 1460   4.293   3.665   1.140  0.8698 -0.0326  0.5498
  366SOL     OW 1461   0.453   2.454   1.064 -0.1852 -0.4483  0.2430
  366SOL    HW2 1462   0.465   2.366   1.027  0.4316 -0.3706  0.2575
  366SOL    HW3 1463   0.518   2.508   1.020  0.3490 -0.2879  1.1968
  366SOL    MW4 1464   0.463   2.449   1.054 -0.0334 -0.4169  0.3708
  367SOL     OW 1465   1.593   1.256   1.388 -0.3456  0.2834 -0.0867
  367SOL    HW2 1466   1.585   1.344   1.425 -0.2423  0.1134  0.3413
  367SOL    HW3 1467   1.521   1.207   1.428 -0.0763  0.0322  0.0864
  367SOL    MW4 1468   1.582   1.261   1.398 -0.2964  0.2279 -0.0074
  368SOL     OW 1469   2.663   4.300   1.492 -0.7719  0.2703  0.2546
  368SOL    HW2 1470   2.681   4.207   1.478 -1.8740  0.2780 -1.3221
  368SOL    HW3 1471   2.648   4.307   1.586  0.7754 -0.8793  0.6156
  368SOL    MW4 1472   2.663   4.288   1.503 -0.7131  0.1196  0.0942
  369SOL     OW 1473   2.921   2.030   1.357  0.3340  0.0271  0.4854
  369SOL    HW2 1474   2.999   1.977   1.373  0.3338 -0.6314 -1.5528
  369SOL    HW3 1475   2.857   1.998   1.421  1.6155  0.3847  1.9861
  369SOL    MW4 1476   2.923   2.019   1.368  0.5031 -0.0126  0.4144
  370SOL     OW 1477   1.373   1.946   1.475  0.1613 -0.4943 -0.1072
  370SOL    HW2 1478   1.369   1.925   1.568 -0.5299  0.0328 -0.0148
  370SOL    HW3 1479   1.445   2.008   1.468 -1.0449  0.9990  0.3870
  370SOL    MW4 1480   1.382   1.952   1.486 -0.0890 -0.2277 -0.0298
  371SOL     OW 1481   1.801   0.900   1.098 -0.3573  0.1868 -0.1905
  371SOL    HW2 1482   1.874   0.955   1.070  0.0908 -0.0836  0.4277
  371SOL    HW3 1483   1.803   0.825   1.039 -0.6351  0.5680 -0.6879
  371SOL    MW4 1484   1.811   0.897   1.087 -0.3348  0.2014 -0.1746
  372SOL     OW 1485   4.304   3.890   1.732  0.1023 -0.3681  0.2716
  372SOL    HW2 1486   4.275   3.889   1.641  1.5160  1.5230 -0.2296
  372SOL    HW3 1487   4.234   3.937   1.778 -0.2846 -0.7186  0.0438
  372SOL    MW4 1488   4.291   3.896   1.726  0.2378 -0.1648  0.1754
  373SOL     OW 1489   1.588   3.632   1.096 -0.0440 -0.1472  0.4632
  373SOL    HW2 1490   1.577   3.622   1.191 -0.7307  1.7539  0.5931
  373SOL    HW3 1491   1.557   3.548   1.060 -0.1634 -0.7270  1.8782
  373SOL    MW4 1492   1.582   3.619   1.104 -0.1503  0.0271  0.6670
  374SOL     OW 1493   2.261   3.965   1.077  0.1560  0.0162 -0.0670
  374SOL    HW2 1494   2.335   4.015   1.042  0.9805 -1.7840 -1.0011
  374SOL    HW3 1495   2.264   3.980   1.171  3.2446 -1.9570  0.2188
  374SOL    MW4 1496   2.272   3.974   1.085  0.6723 -0.4816 -0.1525
  375SOL     OW 1497   2.950   2.618   1.033  0.2534 -0.0494  0.3492
  375SOL    HW2 1498   2.868   2.588   1.072 -0.2327  2.6419  1.5159
  375SOL    HW3 1499   2.944   2.714   1.036  2.1658  0.1885 -2.2591
  375SOL    MW4 1500   2.938   2.627   1.039  0.4416  0.3371  0.1590
  376SOL     OW 1501   3.809   3.835   0.245  0.1176  0.3064 -0.4436
  376SOL    HW2 1502   3.896   3.830   0.285  0.2918  0.1063 -0.8388
  376SOL    HW3 1503   3.802   3.756   0.192 -0.2000  0.4557 -0.6285
  376SOL    MW4 1504   3.820   3.824   0.243  0.0987  0.2997 -0.5201
  377SOL     OW 1505   3.826   3.625   1.383  0.0654  0.1922 -0.1793
  377SOL    HW2 1506   3.827   3.719   1.400  0.6872  0.3467 -1.0332
  377SOL    HW3 1507   3.835   3.618   1.288  0.0695 -0.7332 -0.1160
  377SOL    MW4 1508   3.827   3.637   1.372  0.1480  0.0905 -0.2836
  378SOL     OW 1509   1.390   0.097   0.362 -0.4322  0.0307  0.5463
  378SOL    HW2 1510   1.392   0.189   0.387 -0.2635  0.1774 -0.0003
  378SOL    HW3 1511   1.297   0.075   0.356 -0.4742  0.4274 -0.2766
  378SOL    MW4 1512   1.378   0.106   0.364 -0.4155  0.1024  0.3656
  379SOL     OW 1513   0.472   2.497   1.350  0.0436 -0.2906 -0.6153
  379SOL    HW2 1514   0.393   2.461   1.391  1.0921 -0.7831  1.0274
  379SOL    HW3 1515   0.456   2.490   1.256 -1.7232 -0.7009 -0.2988
  379SOL    MW4 1516   0.459   2.492   1.343 -0.0512 -0.4097 -0.3568
  380SOL     OW 1517   0.711   4.394   0.586  0.3646 -0.3290  0.1322
  380SOL    HW2 1518   0.797   4.415   0.623  0.7969 -1.3917 -0.2529
  380SOL    HW3 1519   0.662   4.475   0.593  1.3268  0.2259  0.5737
  380SOL    MW4 1520   0.716   4.407   0.592  0.5486 -0.3960  0.1397
  381SOL     OW 1521   2.841   3.174   0.605  0.3934 -0.0118  0.0389
  381SOL    HW2 1522   2.790   3.101   0.641  1.0038 -0.9516 -0.9450
  381SOL    HW3 1523   2.811   3.182   0.514  1.9550 -0.5603 -0.5455
  381SOL    MW4 1524   2.830   3.165   0.598  0.6800 -0.2082 -0.1681
  382SOL     OW 1525   0.177   3.312   0.286  0.1545 -0.3709 -0.2379
  382SOL    HW2 1526   0.251   3.367   0.308 -0.1867 -0.5171  1.3153
  382SOL    HW3 1527   0.104   3.348   0.335  0.2991 -3.1873  2.1848
  382SOL    MW4 1528   0.177   3.324   0.295  0.1285 -0.7618  0.2867
  383SOL     OW 1529   3.124   3.521   1.476 -0.1699 -0.1235  0.2987
  383SOL    HW2 1530   3.121   3.503   1.569 -1.1947 -0.2806  0.2368
  383SOL    HW3 1531   3.034   3.541   1.452  0.2337  0.8596 -0.4685
  383SOL    MW4 1532   3.112   3.522   1.485 -0.2519 -0.0146  0.1893
  384SOL     OW 1533   1.597   0.531   1.399  0.2543 -0.0174 -0.4012
  384SOL    HW2 1534   1.517   0.479   1.410  1.2184 -1.0513  2.3825
  384SOL    HW3 1535   1.666   0.474   1.434  1.9308  1.5947 -1.0484
  384SOL    MW4 1536   1.595   0.516   1.405  0.6027  0.0589 -0.1193
  385SOL     OW 1537   1.119   3.610   1.361  0.1064 -0.1575 -0.5187
  385SOL    HW2 1538   1.127   3.695   1.405 -0.3299 -1.1848  1.6269
  385SOL    HW3 1539   1.201   3.565   1.383  0.7220  0.0211 -2.3887
  385SOL    MW4 1540   1.131   3.616   1.370  0.1300 -0.2695 -0.4823
  386SOL     OW 1541   2.944   1.334   1.096 -0.2135 -0.3437 -0.4967
  386SOL    HW2 1542   2.870   1.377   1.051 -0.7326 -0.1568  0.5202
  386SOL    HW3 1543   2.932   1.241   1.078 -1.5786 -0.4667  0.9249
  386SOL    MW4 1544   2.933   1.328   1.087 -0.4621 -0.3352 -0.1750
  387SOL     OW 1545   0.408   4.242   1.488  1.0922  0.0115  0.2701
  387SOL    HW2 1546   0.477   4.292   1.443  0.5972  0.3408 -0.1232
  387SOL    HW3 1547   0.406   4.158   1.443  0.0268  0.6395 -0.8678
  387SOL    MW4 1548   0.417   4.238   1.476  0.8863  0.1378  0.0680
  388SOL     OW 1549   3.808   3.620   1.104 -0.2608 -0.1875  0.0288
  388SOL    HW2 1550   3.800   3.537   1.055  0.7542  0.0551 -0.5669
  388SOL    HW3 1551   3.725   3.665   1.087 -0.5271 -0.7683 -0.2471
  388SOL    MW4 1552   3.796   3.615   1.095 -0.1620 -0.2321 -0.0862
  389SOL     OW 1553   3.363   4.153   0.235 -0.0256  0.3199 -0.5297
  389SOL    HW2 1554   3.415   4.174   0.313  0.0802 -2.1940  0.1234
  389SOL    HW3 1555   3.427   4.128   0.169 -0.2273  0.5544 -0.8152
  389SOL    MW4 1556   3.378   4.152   0.237 -0.0383  0.0191 -0.4812
  390SOL     OW 1557   0.658   0.246   0.980 -0.3374 -0.0077 -0.4974
  390SOL    HW2 1558   0.647   0.223   0.888 -1.1710  0.7713 -0.5958
  390SOL    HW3 1559   0.648   0.341   0.983  0.3278  0.0482  0.3074
  390SOL    MW4 1560   0.655   0.256   0.968 -0.3596  0.1024 -0.4042
  391SOL     OW 1561   0.422   0.952   1.119  0.1444  0.7508 -0.1734
  391SOL    HW2 1562   0.329   0.972   1.110 -0.1789 -1.2791 -1.5981
  391SOL    HW3 1563   0.433   0.868   1.075  2.9016  1.5944 -1.2415
  391SOL    MW4 1564   0.411   0.944   1.112  0.4655  0.5943 -0.5023
  392SOL     OW 1565   2.711   4.506   0.955  0.6295 -0.1353 -0.2674
  392SOL    HW2 1566   2.622   4.481   0.979  0.7876  0.0231  0.5084
  392SOL    HW3 1567   2.767   4.447   1.005  0.9669  0.1694 -0.2828
  392SOL    MW4 1568   2.707   4.495   0.965  0.6949 -0.0742 -0.1671
  393SOL     OW 1569   1.636   2.224   0.777 -0.4924 -0.7114 -0.1188
  393SOL    HW2 1570   1.692   2.209   0.853 -1.5423 -2.3258  0.3659
  393SOL    HW3 1571   1.693   2.212   0.702  0.5740  0.9693  0.3898
  393SOL    MW4 1572   1.651   2.220   0.777 -0.4902 -0.7026  0.0122
  394SOL     OW 1573   1.073   2.305   1.491 -0.2720 -0.3686 -0.2341
  394SOL    HW2 1574   1.154   2.339   1.455 -0.2643 -0.3359 -0.1858
  394SOL    HW3 1575   1.065   2.217   1.454 -0.5200 -0.1433 -0.7115
  394SOL    MW4 1576   1.082   2.298   1.482 -0.3037 -0.3346 -0.2907
  395SOL     OW 1577   0.878   4.527   0.986  0.2831 -0.1282 -0.3207
  395SOL    HW2 1578   0.798   4.483   1.014  1.0022 -4.3632 -4.4162
  395SOL    HW3 1579   0.948   4.486   1.038  0.2173  1.3750  1.0062
  395SOL    MW4 1580   0.877   4.516   0.997  0.3693 -0.4887 -0.6859
  396SOL     OW 1581   1.633   3.711   0.441  0.0716 -0.0398  0.2015
  396SOL    HW2 1582   1.621   3.802   0.414 -1.2421 -0.1254  0.4604
  396SOL    HW3 1583   1.547   3.671   0.430  0.2822 -0.8802  1.4663
  396SOL    MW4 1584   1.620   3.718   0.436 -0.0739 -0.1620  0.4025
  397SOL     OW 1585   2.953   2.788   0.653 -0.0572 -0.0618  0.5508
  397SOL    HW2 1586   2.958   2.707   0.703 -0.0871  0.4111  1.3286
  397SOL    HW3 1587   2.967   2.761   0.562  0.4048 -0.8730  0.8576
  397SOL    MW4 1588   2.956   2.774   0.647 -0.0002 -0.1065  0.6939
  398SOL     OW 1589   2.443   4.573   0.355  0.3122  0.0704  0.1245
  398SOL    HW2 1590   2.350   4.576   0.331  0.5622 -1.7277 -1.1178
  398SOL    HW3 1591   2.448   4.507   0.424  0.6200  0.4893  0.5118
  398SOL    MW4 1592   2.431   4.565   0.361  0.3858 -0.1115  0.0117
  399SOL     OW 1593   3.158   0.855   1.054 -0.2074 -0.1307 -0.7940
  399SOL    HW2 1594   3.097   0.924   1.030 -0.9542 -0.0399  1.3033
  399SOL    HW3 1595   3.152   0.848   1.150  1.4121 -1.6426 -0.7555
  399SOL    MW4 1596   3.149   0.863   1.064 -0.0922 -0.3182 -0.5122
  400SOL     OW 1597   4.196   4.039   0.600  0.6178  0.3649 -0.6575
  400SOL    HW2 1598   4.108   4.066   0.573  1.6433  2.6526 -1.8537
  400SOL    HW3 1599   4.235   4.000   0.522  0.7564 -0.4476 -0.1914
  400SOL    MW4 1600   4.189   4.037   0.586  0.7714  0.5595 -0.7538
  401SOL     OW 1601   3.178   2.219   0.698  0.2605  0.4812 -0.1395
  401SOL    HW2 1602   3.133   2.241   0.780  0.7509  0.7789  0.0513
  401SOL    HW3 1603   3.108   2.215   0.633  0.0325  1.6045  0.0248
  401SOL    MW4 1604   3.163   2.222   0.700  0.2951  0.6687 -0.0926
  402SOL     OW 1605   0.538   2.995   0.284 -0.5456 -0.4080 -0.0572
  402SOL    HW2 1606   0.563   2.980   0.375 -0.6204  2.1944  0.4306
  402SOL    HW3 1607   0.443   2.985   0.284 -0.5743 -0.1423  0.1977
  402SOL    MW4 1608   0.529   2.992   0.296 -0.5593 -0.0296  0.0408
  403SOL     OW 1609   1.823   0.878   1.373  0.4465  0.2328 -0.1081
  403SOL    HW2 1610   1.818   0.870   1.277 -0.6805  2.4236 -0.2696
  403SOL    HW3 1611   1.827   0.972   1.388  2.0846 -0.1465  1.9691
  403SOL    MW4 1612   1.823   0.889   1.362  0.5140  0.4718  0.1447
  404SOL     OW 1613   2.719   2.938   0.695  0.0271 -0.2659  0.0820
  404SOL    HW2 1614   2.688   2.961   0.783  0.0648  0.5512 -0.1134
  404SOL    HW3 1615   2.786   2.871   0.709 -1.2823 -1.5114  0.5633
  404SOL    MW4 1616   2.723   2.932   0.708 -0.1407 -0.3225  0.1198
  405SOL     OW 1617   0.918   1.190   0.396 -0.0493 -0.1923 -0.0329
  405SOL    HW2 1618   0.824   1.193   0.375 -0.1288 -0.7053  0.2466
  405SOL    HW3 1619   0.944   1.101   0.373  0.4413  0.0405 -0.3982
  405SOL    MW4 1620   0.909   1.179   0.390  0.0050 -0.2292 -0.0442
  406SOL     OW 1621   0.662   2.098   1.114  0.1072 -0.2529 -0.2057
  406SOL    HW2 1622   0.737   2.146   1.079  1.2364 -1.3441  0.6892
  406SOL    HW3 1623   0.662   2.016   1.065  0.3620 -0.8491  0.7818
  406SOL    MW4 1624   0.672   2.093   1.103  0.2898 -0.4755  0.0427
  407SOL     OW 1625   4.468   0.912   1.154  0.0859  0.0590  0.4290
  407SOL    HW2 1626   4.548   0.947   1.115  0.0473 -0.8429 -0.4687
  407SOL    HW3 1627   4.484   0.914   1.248  1.1232 -0.0157  0.2577
  407SOL    MW4 1628   4.481   0.917   1.161  0.2176 -0.0698  0.2879
  408SOL     OW 1629   0.437   1.157   1.482 -0.3443 -0.6248 -0.5341
  408SOL    HW2 1630   0.424   1.068   1.449 -0.2595 -0.9717  0.3727
  408SOL    HW3 1631   0.365   1.207   1.444  0.4674 -0.7387 -2.3019
  408SOL    MW4 1632   0.426   1.151   1.472 -0.2260 -0.6856 -0.6477
  409SOL     OW 1633   2.374   3.806   0.446  0.3671 -0.0378  0.3297
  409SOL    HW2 1634   2.431   3.858   0.389 -0.5396 -0.9650 -1.4743
  409SOL    HW3 1635   2.412   3.718   0.443 -2.1595 -1.1212 -2.4310
  409SOL    MW4 1636   2.387   3.801   0.438 -0.0859 -0.3031 -0.2725
  410SOL     OW 1637   3.395   0.154   0.520  0.2537  0.3011  0.0134
  410SOL    HW2 1638   3.414   0.187   0.608 -3.0260 -0.0319  0.9348
  410SOL    HW3 1639   3.395   0.059   0.530  1.2905  0.2223 -0.6984
  410SOL    MW4 1640   3.397   0.146   0.533 -0.0422  0.2468  0.0411
  411SOL     OW 1641   0.400   3.747   0.287 -0.1484 -0.1012  0.0507
  411SOL    HW2 1642   0.410   3.652   0.297 -0.8028 -0.2555 -0.7407
  411SOL    HW3 1643   0.333   3.757   0.220 -1.9479  0.9061  1.9277
  411SOL    MW4 1644   0.393   3.736   0.280 -0.4722  0.0113  0.1939
  412SOL     OW 1645   4.109   0.088   1.114  0.9385 -0.0395  0.0955
  412SOL    HW2 1646   4.128  -0.006   1.117  0.4678 -0.0881  2.1093
  412SOL    HW3 1647   4.098   0.113   1.206 -1.7461  1.3973 -0.5657
  412SOL    MW4 1648   4.110   0.079   1.126  0.5222  0.1436  0.2740
  413SOL     OW 1649   3.132   4.294   1.479  0.5875 -0.6653 -0.0706
  413SOL    HW2 1650   3.065   4.343   1.431  1.2220  1.0432  0.7205
  413SOL    HW3 1651   3.119   4.203   1.453 -2.4164 -0.4598  0.5141
  413SOL    MW4 1652   3.121   4.289   1.470  0.2749 -0.4128  0.1109
  414SOL     OW 1653   3.971   1.201   0.498  0.7419 -0.1242 -0.0737
  414SOL    HW2 1654   4.052   1.182   0.451  1.9079 -0.0369  1.8192
  414SOL    HW3 1655   3.997   1.258   0.570 -0.8922 -0.5434  0.9036
  414SOL    MW4 1656   3.985   1.206   0.501  0.6801 -0.1680  0.3050
  415SOL     OW 1657   2.768   4.354   0.369 -0.0137 -0.2824  0.2056
  415SOL    HW2 1658   2.732   4.389   0.287  1.5198  1.2810  0.1900
  415SOL    HW3 1659   2.856   4.324   0.346  0.2133 -0.3648  1.1607
  415SOL    MW4 1660   2.775   4.355   0.355  0.2186 -0.0870  0.3296
  416SOL     OW 1661   3.727   1.242   0.391  0.5521  0.2529  0.1417
  416SOL    HW2 1662   3.815   1.215   0.418  0.3306  0.3458  0.9818
  416SOL    HW3 1663   3.710   1.192   0.312  1.9213  1.2808 -0.8259
  416SOL    MW4 1664   3.737   1.232   0.384  0.7035  0.4008  0.1249
  417SOL     OW 1665   3.129   0.530   0.305 -1.0075 -0.0841 -0.1882
  417SOL    HW2 1666   3.132   0.450   0.358  0.8372  1.0122  1.4612
  417SOL    HW3 1667   3.221   0.547   0.283 -1.3041  1.9291  0.0563
  417SOL    MW4 1668   3.142   0.522   0.309 -0.8032  0.3261  0.0617
  418SOL     OW 1669   1.763   3.182   0.582 -0.3680  0.0567 -0.4976
  418SOL    HW2 1670   1.831   3.195   0.648 -1.4804  0.9332  0.4995
  418SOL    HW3 1671   1.790   3.237   0.508  1.0823 -1.2251 -0.9392
  418SOL    MW4 1672   1.775   3.191   0.581 -0.3234  0.0033 -0.4243
  419SOL     OW 1673   3.608   1.103   1.465  0.2200 -0.3456 -0.5307
  419SOL    HW2 1674   3.601   1.013   1.435 -0.3898 -0.1418 -1.0078
  419SOL    HW3 1675   3.532   1.147   1.428  0.0330  0.1603  0.4399
  419SOL    MW4 1676   3.597   1.097   1.456  0.1149 -0.2520 -0.4656
  420SOL     OW 1677   2.581   2.098   0.102  0.0072 -0.5942 -0.0653
  420SOL    HW2 1678   2.494   2.058   0.108  0.3285 -1.5066 -1.2080
  420SOL    HW3 1679   2.640   2.025   0.081  0.4102  0.6145 -3.4902
  420SOL    MW4 1680   2.577   2.083   0.100  0.1027 -0.5551 -0.6680
  421SOL     OW 1681   1.121   4.641   1.485 -0.2579 -0.0880  0.5237
  421SOL    HW2 1682   1.198   4.687   1.454 -1.7530  2.6814  0.7915
  421SOL    HW3 1683   1.128   4.642   1.580  0.0630 -1.0743  0.5168
  421SOL    MW4 1684   1.132   4.647   1.493 -0.4128  0.1472  0.5581
  422SOL     OW 1685   4.281   0.758   1.502 -0.5592  0.5601 -0.4382
  422SOL    HW2 1686   4.210   0.798   1.452 -1.4115 -0.8344 -0.3677
  422SOL    HW3 1687   4.288   0.669   1.468 -0.0908  0.0924  0.8346
  422SOL    MW4 1688   4.273   0.752   1.491 -0.6099  0.3144 -0.2610
  423SOL     OW 1689   1.862   0.261   0.584 -0.0771  0.2676  0.3019
  423SOL    HW2 1690   1.946   0.221   0.562 -1.1092 -1.3899 -0.6619
  423SOL    HW3 1691   1.805   0.188   0.607 -2.2050  1.0846 -2.2087
  423SOL    MW4 1692   1.865   0.246   0.584 -0.4941  0.1567 -0.1565
  424SOL     OW 1693   1.984   2.069   1.366  0.3121  0.2875 -0.4891
  424SOL    HW2 1694   1.989   2.156   1.406  0.9038  0.3721 -0.7384
  424SOL    HW3 1695   2.051   2.018   1.412 -0.6710 -0.3090  0.3077
  424SOL    MW4 1696   1.993   2.073   1.377  0.2605  0.2200 -0.4169
  425SOL     OW 1697   3.163   2.447   1.117  0.3790 -0.3224 -0.0899
  425SOL    HW2 1698   3.094   2.503   1.081  0.6525 -0.8065 -1.4036
  425SOL    HW3 1699   3.242   2.501   1.115  0.4790 -0.4828 -0.6207
  425SOL    MW4 1700   3.165   2.462   1.112  0.4283 -0.4074 -0.3333
  426SOL     OW 1701   1.392   3.979   1.101  0.3230 -0.1942  0.3241
  426SOL    HW2 1702   1.393   3.901   1.044  0.3445  0.1959 -0.2140
  426SOL    HW3 1703   1.455   4.039   1.061 -1.9232  1.3312 -1.0315
  426SOL    MW4 1704   1.400   3.976   1.088  0.0294  0.0585  0.0742
  427SOL     OW 1705   3.862   2.619   1.014 -0.0965 -0.4386 -0.2654
  427SOL    HW2 1706   3.948   2.579   1.032 -0.3586 -0.2934  1.4415
  427SOL    HW3 1707   3.876   2.713   1.028 -0.7538 -0.5159  1.0645
  427SOL    MW4 1708   3.875   2.626   1.018 -0.2178 -0.4297  0.1353
  428SOL     OW 1709   0.918   2.194   0.969  0.6074 -0.1637  0.5011
  428SOL    HW2 1710   0.910   2.195   0.874  2.4007 -0.4396  0.3308
  428SOL    HW3 1711   0.920   2.287   0.994  1.3588 -0.0822  0.1511
  428SOL    MW4 1712   0.917   2.207   0.960  0.9431 -0.1893  0.4324
  429SOL     OW 1713   3.402   0.819   0.342  0.2984 -0.0395  0.0283
  429SOL    HW2 1714   3.391   0.891   0.279  0.9315 -0.5042 -0.6203
  429SOL    HW3 1715   3.313   0.794   0.365  0.0536 -0.5698 -1.4963
  429SOL    MW4 1716   3.389   0.825   0.337  0.3497 -0.1708 -0.2584
  430SOL     OW 1717   0.501   1.663   1.416 -0.1644 -0.2264 -0.0035
  430SOL    HW2 1718   0.477   1.754   1.434 -0.5917 -0.6197  1.4585
  430SOL    HW3 1719   0.418   1.616   1.416  0.1556 -0.7938  0.2880
  430SOL    MW4 1720   0.487   1.669   1.418 -0.1786 -0.3532  0.2279
  431SOL     OW 1721   3.838   0.781   1.464  0.6174  0.0772 -0.0425
  431SOL    HW2 1722   3.923   0.823   1.446  1.0677 -0.4211  0.8651
  431SOL    HW3 1723   3.831   0.783   1.560 -0.3371 -0.0000 -0.1128
  431SOL    MW4 1724   3.849   0.787   1.475  0.5509  0.0013  0.0680
  432SOL     OW 1725   1.996   2.052   1.089 -0.3306 -0.3813 -0.3107
  432SOL    HW2 1726   1.996   2.047   1.185 -0.6690 -0.8724 -0.3366
  432SOL    HW3 1727   2.065   2.116   1.069 -1.6871  1.3254  0.3481
  432SOL    MW4 1728   2.005   2.060   1.099 -0.5543 -0.2209 -0.2272
  433SOL     OW 1729   1.578   4.134   0.982 -0.1779  0.3403  0.0837
  433SOL    HW2 1730   1.574   4.140   0.887 -2.0876 -0.4424  0.1044
  433SOL    HW3 1731   1.666   4.102   1.000 -0.6072 -1.8070 -1.5351
  433SOL    MW4 1732   1.589   4.131   0.972 -0.4865 -0.0463 -0.1271
  434SOL     OW 1733   0.472   0.176   0.241  0.0176 -0.3661 -0.0571
  434SOL    HW2 1734   0.424   0.140   0.316  0.6460 -0.0446  0.5006
  434SOL    HW3 1735   0.404   0.219   0.188 -0.4238 -0.5719  0.3390
  434SOL    MW4 1736   0.457   0.177   0.244  0.0422 -0.3508  0.0687
  435SOL     OW 1737   0.922   1.640   0.350 -0.0479 -0.2953  0.3257
  435SOL    HW2 1738   0.844   1.649   0.295 -0.6373 -1.6244  0.9194
  435SOL    HW3 1739   0.908   1.559   0.399  0.7382  0.5511  2.0013
  435SOL    MW4 1740   0.910   1.630   0.349 -0.0219 -0.3590  0.6251
  436SOL     OW 1741   1.346   2.175   0.998  0.3019 -0.1956 -0.0100
  436SOL    HW2 1742   1.349   2.176   0.902  0.5535  1.6129 -0.0052
  436SOL    HW3 1743   1.266   2.125   1.018  1.2634 -2.2570 -1.0922
  436SOL    MW4 1744   1.336   2.168   0.988  0.4619 -0.2289 -0.1521
  437SOL     OW 1745   2.706   1.543   0.700  0.1867 -0.0067 -0.2453
  437SOL    HW2 1746   2.767   1.493   0.645  0.4971 -0.4845  0.5275
  437SOL    HW3 1747   2.620   1.505   0.682  0.4164 -0.8155  0.3163
  437SOL    MW4 1748   2.703   1.532   0.690  0.2580 -0.1765 -0.0692
  438SOL     OW 1749   0.070   3.912   0.297  0.0085 -0.2115  0.1670
  438SOL    HW2 1750   0.048   3.825   0.264 -1.4533 -0.7262  2.3450
  438SOL    HW3 1751   0.122   3.895   0.376 -1.6621  0.8297  1.5327
  438SOL    MW4 1752   0.074   3.898   0.303 -0.4048 -0.1420  0.6346
  439SOL     OW 1753   3.817   4.394   1.349 -0.2194 -0.0537 -0.6175
  439SOL    HW2 1754   3.827   4.477   1.394  0.3078  0.5342 -1.7949
  439SOL    HW3 1755   3.810   4.417   1.256 -0.8944 -1.2629 -0.8834
  439SOL    MW4 1756   3.817   4.408   1.343 -0.2389 -0.1356 -0.8079
  440SOL     OW 1757   0.181   0.228   0.138  0.1907 -0.6652 -0.0254
  440SOL    HW2 1758   0.172   0.141   0.176 -1.7132 -0.6258 -0.3536
  440SOL    HW3 1759   0.133   0.223   0.055  2.3302 -0.0774 -1.3441
  440SOL    MW4 1760   0.174   0.216   0.132  0.2218 -0.5825 -0.2427
  441SOL     OW 1761   0.535   0.418   0.586 -0.0721 -0.1636 -0.1167
  441SOL    HW2 1762   0.455   0.369   0.572  1.0544 -2.0534 -0.0754
  441SOL    HW3 1763   0.559   0.451   0.500 -0.3258 -0.4693 -0.3041
  441SOL    MW4 1764   0.528   0.416   0.573  0.0430 -0.4533 -0.1360
  442SOL     OW 1765   2.302   1.261   0.180  0.4512 -0.2783 -0.0879
  442SOL    HW2 1766   2.236   1.327   0.204  1.1074  0.2935  0.1536
  442SOL    HW3 1767   2.363   1.309   0.124 -0.5338 -1.3530 -2.1358
  442SOL    MW4 1768   2.301   1.276   0.176  0.4078 -0.3446 -0.3262
  443SOL     OW 1769   3.867   1.249   1.062  0.2064 -0.2535  0.3304
  443SOL    HW2 1770   3.785   1.286   1.029  0.1884 -0.7857 -0.2339
  443SOL    HW3 1771   3.934   1.312   1.036  0.0461 -0.0953  0.2991
  443SOL    MW4 1772   3.865   1.262   1.054  0.1829 -0.3029  0.2518
  444SOL     OW 1773   2.720   0.696   0.702 -0.0275  0.2554  0.6253
  444SOL    HW2 1774   2.777   0.642   0.647 -0.7703  0.0164  0.0851
  444SOL    HW3 1775   2.737   0.786   0.675 -2.6255 -0.0162 -2.2033
  444SOL    MW4 1776   2.730   0.700   0.692 -0.4683  0.1880  0.1808
  445SOL     OW 1777   3.604   3.957   1.366 -0.0873  0.1446  0.2879
  445SOL    HW2 1778   3.593   3.951   1.271 -1.1667  0.5660  0.3752
  445SOL    HW3 1779   3.598   4.051   1.384 -0.9188 -0.0169  0.8838
  445SOL    MW4 1780   3.602   3.969   1.356 -0.3394  0.1789  0.3781
  446SOL     OW 1781   0.164   1.820   0.727  0.8127  0.5650 -0.1771
  446SOL    HW2 1782   0.188   1.833   0.818  1.5366  2.0174 -0.5573
  446SOL    HW3 1783   0.069   1.812   0.728  0.8285  0.4367  0.7139
  446SOL    MW4 1784   0.155   1.821   0.739  0.9103  0.7397 -0.1097
  447SOL     OW 1785   2.596   3.957   0.359 -0.0067  0.0078 -0.3087
  447SOL    HW2 1786   2.610   4.042   0.401  0.3378 -1.0458  1.7618
  447SOL    HW3 1787   2.684   3.929   0.331  0.1289 -0.4591  0.5789
  447SOL    MW4 1788   2.610   3.965   0.361  0.0566 -0.1928  0.0816
  448SOL     OW 1789   2.213   4.527   0.970  0.2113  0.1395 -0.3017
  448SOL    HW2 1790   2.235   4.618   0.991  0.8027 -0.3010  0.9984
  448SOL    HW3 1791   2.185   4.530   0.878 -1.9479  2.0136  0.3761
  448SOL    MW4 1792   2.212   4.539   0.960  0.0045  0.3286 -0.0408
  449SOL     OW 1793   3.574   0.099   1.389  0.0951 -0.0302  0.4301
  449SOL    HW2 1794   3.570   0.189   1.423 -0.4921  0.6837 -1.4705
  449SOL    HW3 1795   3.492   0.059   1.418 -1.0082  0.9832 -1.1866
  449SOL    MW4 1796   3.563   0.106   1.397 -0.1280  0.1977 -0.0340
  450SOL     OW 1797   2.451   3.590   1.353  0.0245  0.1401 -0.0461
  450SOL    HW2 1798   2.442   3.667   1.409 -1.3335  0.3105 -0.4636
  450SOL    HW3 1799   2.368   3.543   1.364  0.3831 -0.6466 -0.6789
  450SOL    MW4 1800   2.439   3.594   1.362 -0.1073  0.0588 -0.1847
  451SOL     OW 1801   4.290   1.235   1.106 -0.1861  0.6502  0.4207
  451SOL    HW2 1802   4.287   1.268   1.195  0.8805  0.2139  0.6274
  451SOL    HW3 1803   4.355   1.289   1.062  0.6968 -0.3730  0.4373
  451SOL    MW4 1804   4.298   1.246   1.112  0.0712  0.4576  0.4502
  452SOL     OW 1805   1.163   0.464   0.232 -0.5969  0.1078 -0.2165
  452SOL    HW2 1806   1.208   0.441   0.314  0.5496  0.6045 -0.7031
  452SOL    HW3 1807   1.223   0.437   0.163 -1.0116  0.8384 -0.8742
  452SOL    MW4 1808   1.177   0.458   0.234 -0.5004  0.2697 -0.3675
  453SOL     OW 1809   2.970   0.078   0.335  0.1039 -0.2444 -0.0388
  453SOL    HW2 1810   2.916   0.026   0.393  0.2580  0.0110  0.3357
  453SOL    HW3 1811   2.908   0.136   0.290  0.1179  0.4296  0.7900
  453SOL    MW4 1812   2.955   0.079   0.336  0.1261 -0.1218  0.1200
  454SOL     OW 1813   2.294   0.900   1.401  0.6296 -0.2870 -0.3500
  454SOL    HW2 1814   2.376   0.855   1.419  0.3507 -1.5456 -2.1208
  454SOL    HW3 1815   2.283   0.894   1.306 -0.3042  1.9795 -0.4379
  454SOL    MW4 1816   2.304   0.893   1.391  0.4696 -0.1541 -0.5952
  455SOL     OW 1817   1.819   1.888   1.477 -0.1516  0.4376 -0.1916
  455SOL    HW2 1818   1.807   1.807   1.428  0.6367  0.0951  0.1695
  455SOL    HW3 1819   1.873   1.944   1.421 -0.2664  0.5102 -0.2287
  455SOL    MW4 1820   1.825   1.885   1.463 -0.0627  0.4019 -0.1488
  456SOL     OW 1821   1.589   2.812   1.397 -0.2274  0.4268 -0.2983
  456SOL    HW2 1822   1.591   2.898   1.438  0.6915 -0.3783  1.4285
  456SOL    HW3 1823   1.582   2.829   1.303 -0.5308  2.3606  0.0671
  456SOL    MW4 1824   1.589   2.825   1.390 -0.1462  0.5757 -0.0223
  457SOL     OW 1825   1.350   1.864   1.752  0.2570 -0.0628  0.1963
  457SOL    HW2 1826   1.273   1.907   1.787  0.1498 -1.4228  1.7124
  457SOL    HW3 1827   1.363   1.788   1.809  1.4255 -1.0710 -1.3643
  457SOL    MW4 1828   1.342   1.859   1.764  0.3970 -0.3752  0.1904
  458SOL     OW 1829   1.970   3.202   0.764  0.0221 -0.6355 -0.4555
  458SOL    HW2 1830   1.981   3.122   0.814  0.1080 -0.8851 -0.8680
  458SOL    HW3 1831   1.988   3.273   0.826 -1.9641 -0.8677  0.4311
  458SOL    MW4 1832   1.974   3.201   0.779 -0.2286 -0.6991 -0.3930
  459SOL     OW 1833   3.517   3.264   0.293 -0.1805 -0.1998 -0.3510
  459SOL    HW2 1834   3.548   3.354   0.293 -0.8683  0.0341  0.1086
  459SOL    HW3 1835   3.579   3.218   0.237 -1.1247  0.9853 -2.4072
  459SOL    MW4 1836   3.529   3.270   0.286 -0.3958 -0.0126 -0.5617
  460SOL     OW 1837   3.151   0.602   0.951  0.4418 -0.7587 -0.3201
  460SOL    HW2 1838   3.164   0.687   0.991  1.5292 -0.1971 -1.8128
  460SOL    HW3 1839   3.060   0.580   0.970  0.3154  0.4856  0.5488
  460SOL    MW4 1840   3.141   0.610   0.959  0.5686 -0.5204 -0.4024
  461SOL     OW 1841   2.024   0.450   1.407 -0.4287  0.0750  0.1128
  461SOL    HW2 1842   2.046   0.541   1.428  1.6601  0.0626 -1.9072
  461SOL    HW3 1843   2.103   0.401   1.432 -1.2007 -1.0677  0.3049
  461SOL    MW4 1844   2.038   0.456   1.413 -0.2550 -0.0774 -0.1284
  462SOL     OW 1845   0.284   2.644   0.689  0.6249  0.0530 -0.0304
  462SOL    HW2 1846   0.258   2.636   0.781 -1.0804  0.7700 -0.4190
  462SOL    HW3 1847   0.369   2.688   0.691  0.0239  1.1760  1.1614
  462SOL    MW4 1848   0.292   2.649   0.701  0.3206  0.2958  0.0756
  463SOL     OW 1849   3.152   4.086   1.085 -0.2304 -0.2525  0.4879
  463SOL    HW2 1850   3.064   4.090   1.047 -0.3296 -1.2322  0.5991
  463SOL    HW3 1851   3.137   4.064   1.177  0.0212  1.8477  1.0492
  463SOL    MW4 1852   3.138   4.083   1.092 -0.2103 -0.1047  0.5766
  464SOL     OW 1853   3.214   1.488   0.318  0.0601 -0.7269 -0.0611
  464SOL    HW2 1854   3.260   1.536   0.387 -0.3243 -0.6530  0.1450
  464SOL    HW3 1855   3.122   1.512   0.329  0.3302  1.5101 -2.3980
  464SOL    MW4 1856   3.208   1.497   0.329  0.0450 -0.4220 -0.3422
  465SOL     OW 1857   3.210   3.966   0.615  0.4727 -0.3159 -0.5532
  465SOL    HW2 1858   3.176   3.912   0.686 -0.0638 -0.1799 -0.7064
  465SOL    HW3 1859   3.295   3.997   0.647  0.4440 -0.6405 -0.1650
  465SOL    MW4 1860   3.217   3.963   0.629  0.3982 -0.3408 -0.5222
  466SOL     OW 1861   0.021   4.411   0.373  0.5718 -0.1872  0.1446
  466SOL    HW2 1862   0.067   4.490   0.346  1.0847 -0.1896  1.0042
  466SOL    HW3 1863   0.077   4.339   0.343 -0.0779 -0.2450 -0.9724
  466SOL    MW4 1864   0.034   4.412   0.365  0.5537 -0.1951  0.1107
  467SOL     OW 1865   3.597   1.678   1.292  0.3260 -0.1046 -0.5999
  467SOL    HW2 1866   3.681   1.641   1.317  0.1838 -0.5623 -0.8029
  467SOL    HW3 1867   3.532   1.621   1.333  0.1143  0.2825 -0.3907
  467SOL    MW4 1868   3.599   1.666   1.301  0.2793 -0.1139 -0.5991
  468SOL     OW 1869   1.576   3.365   0.990  0.3308  0.4857  0.1570
  468SOL    HW2 1870   1.500   3.321   1.027 -0.1181  1.4841  0.4340
  468SOL    HW3 1871   1.565   3.357   0.896  1.9698 -2.9028  0.2040
  468SOL    MW4 1872   1.565   3.358   0.983  0.4878  0.1703  0.1998
  469SOL     OW 1873   2.482   3.055   1.457 -0.0285 -0.4590  0.2696
  469SOL    HW2 1874   2.398   3.091   1.429  0.5947 -0.1739 -1.2464
  469SOL    HW3 1875   2.475   2.961   1.440 -0.7388 -0.7433  1.9534
  469SOL    MW4 1876   2.470   3.047   1.451 -0.0400 -0.4589  0.2917
  470SOL     OW 1877   2.739   2.330   0.127 -0.1772 -0.2039  0.4758
  470SOL    HW2 1878   2.826   2.303   0.098  0.3798 -0.2315  2.1606
  470SOL    HW3 1879   2.684   2.253   0.113  0.1690 -0.3454 -0.1203
  470SOL    MW4 1880   2.743   2.317   0.121 -0.0580 -0.2262  0.6194
  471SOL     OW 1881   4.008   0.735   0.382 -0.0026  0.0754  0.2587
  471SOL    HW2 1882   4.088   0.763   0.427 -0.4817  1.9871 -0.0299
  471SOL    HW3 1883   3.942   0.730   0.450 -0.2572  1.0723  0.0961
  471SOL    MW4 1884   4.010   0.738   0.397 -0.0994  0.4591  0.1992
  472SOL     OW 1885   3.848   3.892   1.496  0.6618 -0.3455 -0.1242
  472SOL    HW2 1886   3.767   3.919   1.452  0.3924 -1.7511 -0.5146
  472SOL    HW3 1887   3.917   3.943   1.453  0.1505 -0.1605 -0.7306
  472SOL    MW4 1888   3.846   3.902   1.485  0.5588 -0.5065 -0.2557
  473SOL     OW 1889   0.476   2.414   0.435 -0.2852  0.4108  0.6211
  473SOL    HW2 1890   0.484   2.333   0.385 -2.9843  0.7448 -0.3990
  473SOL    HW3 1891   0.488   2.387   0.526  2.5904 -0.5149  0.0164
  473SOL    MW4 1892   0.479   2.400   0.440 -0.2619  0.3327  0.4067
  474SOL     OW 1893   3.352   2.339   1.418 -0.3401  0.1568  0.0354
  474SOL    HW2 1894   3.287   2.404   1.390  0.4813  2.7600  3.7657
  474SOL    HW3 1895   3.436   2.380   1.398  0.1917 -0.4546  0.9931
  474SOL    MW4 1896   3.355   2.353   1.412 -0.1616  0.4196  0.6539
  475SOL     OW 1897   2.732   1.689   1.092  0.3030  0.0743 -0.5649
  475SOL    HW2 1898   2.796   1.750   1.057  2.1719 -0.7709  1.2853
  475SOL    HW3 1899   2.742   1.610   1.040  0.3267  0.1515 -0.6778
  475SOL    MW4 1900   2.741   1.687   1.081  0.5527 -0.0270 -0.3357
  476SOL     OW 1901   1.116   1.540   1.521 -0.4455 -0.8806 -0.6276
  476SOL    HW2 1902   1.045   1.590   1.479 -1.4436 -1.4008  0.3945
  476SOL    HW3 1903   1.196   1.581   1.489 -1.2333  1.2577  0.0501
  476SOL    MW4 1904   1.117   1.552   1.511 -0.6811 -0.6671 -0.4033
  477SOL     OW 1905   3.645   2.230   0.743  0.0461 -0.1308 -0.0796
  477SOL    HW2 1906   3.577   2.282   0.701  1.0807  0.8831 -0.5277
  477SOL    HW3 1907   3.622   2.229   0.835 -0.8064 -0.1491 -0.2925
  477SOL    MW4 1908   3.633   2.237   0.749  0.0702  0.0006 -0.1668
  478SOL     OW 1909   0.373   0.645   0.308 -0.2400 -0.0619 -0.4746
  478SOL    HW2 1910   0.408   0.698   0.237  0.6466  0.6312  0.4712
  478SOL    HW3 1911   0.429   0.568   0.311 -0.3629 -0.1576 -0.6104
  478SOL    MW4 1912   0.385   0.642   0.299 -0.1392  0.0169 -0.3677
  479SOL     OW 1913   3.160   2.192   0.985 -0.7162  0.1978 -0.1696
  479SOL    HW2 1914   3.083   2.148   1.022 -0.4245  0.6315  0.9884
  479SOL    HW3 1915   3.168   2.272   1.037  0.7540 -0.0431 -0.0061
  479SOL    MW4 1916   3.151   2.197   0.997 -0.4838  0.2232  0.0048
  480SOL     OW 1917   1.330   2.484   0.092  0.3499 -0.1579  0.3778
  480SOL    HW2 1918   1.359   2.428   0.165  0.2657  0.0321  0.5564
  480SOL    HW3 1919   1.394   2.468   0.023  1.5671  1.1739  1.1937
  480SOL    MW4 1920   1.342   2.474   0.092  0.4994  0.0429  0.5090
  481SOL     OW 1921   4.490   3.839   1.071 -0.3198 -0.5958  0.1067
  481SOL    HW2 1922   4.563   3.777   1.065 -0.4165 -0.6213 -0.8269
  481SOL    HW3 1923   4.499   3.878   1.158  1.5246  0.2835 -0.4561
  481SOL    MW4 1924   4.501   3.836   1.082 -0.0892 -0.4831 -0.0907
  482SOL     OW 1925   0.618   0.925   0.527  0.3686 -0.0421 -0.3009
  482SOL    HW2 1926   0.650   0.995   0.585 -1.2998  1.0123 -0.6118
  482SOL    HW3 1927   0.546   0.885   0.576 -0.0704 -0.1366 -1.0167
  482SOL    MW4 1928   0.612   0.929   0.541  0.0906  0.0845 -0.4364
  483SOL     OW 1929   1.144   1.301   1.140 -0.1304  0.3671 -0.4922
  483SOL    HW2 1930   1.233   1.324   1.113  0.1330 -1.1837 -1.0213
  483SOL    HW3 1931   1.146   1.304   1.235  0.7024 -0.3864 -0.4819
  483SOL    MW4 1932   1.156   1.304   1.149  0.0142  0.0631 -0.5607
  484SOL     OW 1933   1.353   3.277   1.113 -0.2576 -0.3169  0.0121
  484SOL    HW2 1934   1.276   3.327   1.086 -0.8912  0.1573  2.5401
  484SOL    HW3 1935   1.329   3.186   1.095 -1.4260 -0.1717  0.7438
  484SOL    MW4 1936   1.340   3.271   1.107 -0.4953 -0.2352  0.4422
  485SOL     OW 1937   1.585   4.610   1.464 -0.1237  0.2765  0.1526
  485SOL    HW2 1938   1.665   4.659   1.448  0.9317 -1.4100  0.0915
  485SOL    HW3 1939   1.577   4.607   1.560 -0.6631  1.2733  0.1495
  485SOL    MW4 1940   1.594   4.616   1.475 -0.0556  0.1855  0.1441
  486SOL     OW 1941   4.142   2.061   0.563 -0.1595 -0.1571  0.3660
  486SOL    HW2 1942   4.063   2.056   0.510 -0.5434 -0.0745  0.9293
  486SOL    HW3 1943   4.135   2.144   0.609  0.0867 -0.3105  0.6858
  486SOL    MW4 1944   4.131   2.071   0.562 -0.1776 -0.1664  0.4825
  487SOL     OW 1945   3.130   3.280   1.095  0.3001  0.0371 -0.0652
  487SOL    HW2 1946   3.211   3.294   1.046 -0.5550 -0.2216 -1.5668
  487SOL    HW3 1947   3.062   3.322   1.042 -0.5993 -0.0328  1.0205
  487SOL    MW4 1948   3.132   3.287   1.082  0.0686 -0.0062 -0.1201
  488SOL     OW 1949   2.630   4.199   0.553 -0.2278  0.4789  0.2229
  488SOL    HW2 1950   2.697   4.169   0.614  0.0121  0.3981 -0.0777
  488SOL    HW3 1951   2.677   4.254   0.491 -0.3168 -0.1454 -0.3991
  488SOL    MW4 1952   2.645   4.202   0.553 -0.2079  0.3858  0.1012
  489SOL     OW 1953   0.216   3.086   0.620  0.4965 -0.0905  0.1207
  489SOL    HW2 1954   0.136   3.054   0.661  0.8176  0.2399  1.0051
  489SOL    HW3 1955   0.202   3.072   0.526  0.6913 -3.0306  0.4762
  489SOL    MW4 1956   0.204   3.080   0.613  0.5645 -0.4348  0.2843
  490SOL     OW 1957   0.652   0.524   1.034 -0.1326 -0.1732 -0.4103
  490SOL    HW2 1958   0.742   0.552   1.016  0.3371 -1.8355 -0.7667
  490SOL    HW3 1959   0.651   0.507   1.128 -0.0654 -0.1251 -0.4012
  490SOL    MW4 1960   0.664   0.525   1.044 -0.0617 -0.3862 -0.4561
  491SOL     OW 1961   4.355   2.065   1.092 -0.0492 -0.0992  0.0704
  491SOL    HW2 1962   4.348   1.974   1.062 -0.9118 -0.0506  0.1039
  491SOL    HW3 1963   4.327   2.061   1.184 -0.9378  0.3471 -0.1839
  491SOL    MW4 1964   4.350   2.052   1.100 -0.2803 -0.0339  0.0413
  492SOL     OW 1965   4.242   3.541   0.711  0.2412  0.2486  0.4032
  492SOL    HW2 1966   4.212   3.632   0.702  0.0872  0.1382 -0.1892
  492SOL    HW3 1967   4.336   3.545   0.693  0.2236  0.2796  0.3202
  492SOL    MW4 1968   4.250   3.554   0.708  0.2186  0.2381  0.3141
  493SOL     OW 1969   4.454   2.572   0.282 -0.2576  0.6230 -0.0742
  493SOL    HW2 1970   4.475   2.665   0.269 -0.7263  0.5824 -1.1475
  493SOL    HW3 1971   4.527   2.539   0.335 -1.3572  2.1875  2.5519
  493SOL    MW4 1972   4.466   2.580   0.287 -0.4645  0.8240  0.1307
  494SOL     OW 1973   0.506   0.851   0.146 -0.7929  0.0829  0.1661
  494SOL    HW2 1974   0.493   0.936   0.189 -0.4102  0.0972  0.2596
  494SOL    HW3 1975   0.593   0.823   0.174 -0.6003  0.0223 -0.4782
  494SOL    MW4 1976   0.516   0.859   0.156 -0.7170  0.0768  0.0934
  495SOL     OW 1977   2.517   1.375   0.005  0.5709  0.0968  0.4971
  495SOL    HW2 1978   2.545   1.285  -0.013 -1.5384 -0.3996 -0.4549
  495SOL    HW3 1979   2.549   1.426  -0.068  0.3465 -0.1909  0.1958
  495SOL    MW4 1980   2.525   1.370  -0.007  0.2630 -0.0067  0.3318
  496SOL     OW 1981   2.985   0.920   0.428 -0.1315 -0.2623 -0.0827
  496SOL    HW2 1982   2.923   0.866   0.379  0.6840 -1.5331  0.2960
  496SOL    HW3 1983   3.022   0.979   0.363 -0.0759 -1.0122 -0.7243
  496SOL    MW4 1984   2.982   0.921   0.413 -0.0165 -0.5289 -0.1174
  497SOL     OW 1985   3.582   4.036   1.067  0.0762 -0.1319 -0.0853
  497SOL    HW2 1986   3.658   4.094   1.072  0.0382 -0.1310  0.6099
  497SOL    HW3 1987   3.511   4.093   1.038 -0.0707  0.2881  1.0742
  497SOL    MW4 1988   3.583   4.051   1.064  0.0518 -0.0764  0.1594
  498SOL     OW 1989   2.175   3.208   0.570  0.2548  0.2407 -0.1745
  498SOL    HW2 1990   2.108   3.213   0.638  0.7232  0.4593  0.2716
  498SOL    HW3 1991   2.154   3.281   0.511  0.1240  0.3358 -0.0124
  498SOL    MW4 1992   2.163   3.219   0.571  0.2993  0.2821 -0.0943
  499SOL     OW 1993   4.274   3.433   0.984 -0.4519  0.1995  0.0381
  499SOL    HW2 1994   4.196   3.402   1.029 -0.6148  3.9385  2.4981
  499SOL    HW3 1995   4.241   3.472   0.903 -1.1151  1.1792  0.7660
  499SOL    MW4 1996   4.260   3.434   0.979 -0.5609  0.8221  0.4587
  500SOL     OW 1997   2.098   0.093   0.514 -0.0552 -0.7039  0.2236
  500SOL    HW2 1998   2.113   0.047   0.431 -0.9924  0.6844 -0.7275
  500SOL    HW3 1999   2.169   0.156   0.520  0.4324 -1.3018  0.8523
  500SOL    MW4 2000   2.109   0.095   0.504 -0.1145 -0.5996  0.1811
  501SOL     OW 2001   2.086   3.571   0.167  0.7632  0.0982  0.8466
  501SOL    HW2 2002   2.081   3.616   0.083  1.3277 -1.3210  0.0300
  501SOL    HW3 2003   1.995   3.563   0.196  0.5936  0.8848  0.5289
  501SOL    MW4 2004   2.073   3.576   0.160  0.8153  0.0148  0.6969
  502SOL     OW 2005   3.369   4.376   1.372  0.6795  0.3712  0.4670
  502SOL    HW2 2006   3.441   4.334   1.417  0.3585  1.4314  2.0202
  502SOL    HW3 2007   3.290   4.335   1.408  0.4881 -0.6458 -1.0741
  502SOL    MW4 2008   3.368   4.365   1.383  0.6119  0.3769  0.4686
  503SOL     OW 2009   3.341   1.804   0.936 -0.1970 -0.2268  0.1191
  503SOL    HW2 2010   3.277   1.745   0.977  0.0813 -0.8068 -0.2648
  503SOL    HW3 2011   3.352   1.876   0.998 -0.4083 -0.6737  0.6749
  503SOL    MW4 2012   3.334   1.806   0.949 -0.1882 -0.3623  0.1417
  504SOL     OW 2013   1.347   4.494   0.991  0.6116 -0.0317  0.3448
  504SOL    HW2 2014   1.351   4.585   1.018  0.5161  0.0457  0.1054
  504SOL    HW3 2015   1.436   4.461   1.003  1.1428  0.6538 -1.4874
  504SOL    MW4 2016   1.359   4.502   0.996  0.6691  0.0690  0.0715
  505SOL     OW 2017   4.109   0.133   0.338 -0.5028  0.1248  0.2726
  505SOL    HW2 2018   4.156   0.207   0.301  1.0980 -0.5466  0.9264
  505SOL    HW3 2019   4.017   0.151   0.319  0.1258  0.7022 -2.3415
  505SOL    MW4 2020   4.103   0.145   0.331 -0.2087  0.1124  0.0140
  506SOL     OW 2021   0.916   0.100   0.620  0.4202 -0.1765  0.6740
  506SOL    HW2 2022   0.995   0.154   0.619  0.7434 -0.6591 -0.2402
  506SOL    HW3 2023   0.882   0.106   0.531 -1.1759  0.8967  1.3337
  506SOL    MW4 2024   0.922   0.108   0.608  0.2523 -0.0986  0.6405
  507SOL     OW 2025   4.193   4.582   0.601  0.2129 -0.5011  0.6708
  507SOL    HW2 2026   4.196   4.665   0.648 -0.1441  0.6214 -1.2421
  507SOL    HW3 2027   4.281   4.545   0.612  0.8194  0.8230  0.3189
  507SOL    MW4 2028   4.205   4.588   0.608  0.2458 -0.1783  0.3720
  508SOL     OW 2029   1.514   2.817   0.436  0.2302  0.2219  0.6370
  508SOL    HW2 2030   1.434   2.793   0.483  0.1946  0.6478  0.8012
  508SOL    HW3 2031   1.511   2.767   0.354  0.1829 -0.3562  0.9904
  508SOL    MW4 2032   1.503   2.807   0.431  0.2193  0.2019  0.7053
  509SOL     OW 2033   2.457   2.785   1.397 -0.8230  0.3617  0.0994
  509SOL    HW2 2034   2.465   2.803   1.303  0.1360 -0.6484 -0.0275
  509SOL    HW3 2035   2.540   2.744   1.420 -1.7286 -1.0028  1.0094
  509SOL    MW4 2036   2.469   2.782   1.388 -0.8159  0.0484  0.2028
  510SOL     OW 2037   1.731   3.815   0.703 -0.4951  0.1641 -0.6424
  510SOL    HW2 2038   1.811   3.849   0.663 -1.5266  2.1902 -1.0339
  510SOL    HW3 2039   1.686   3.770   0.631 -0.5996  0.6296 -0.8679
  510SOL    MW4 2040   1.735   3.814   0.688 -0.6450  0.4928 -0.7238
  511SOL     OW 2041   0.007   0.637   0.785 -0.0173  0.2727 -0.0232
  511SOL    HW2 2042   0.067   0.679   0.723  1.7118 -0.3334  1.1903
  511SOL    HW3 2043   0.036   0.546   0.789 -1.2256 -0.1030  0.3532
  511SOL    MW4 2044   0.019   0.631   0.777  0.0514  0.1432  0.1865
  512SOL     OW 2045   0.874   4.063   1.421 -0.2684  0.3390  0.6503
  512SOL    HW2 2046   0.800   4.013   1.453 -2.0625  1.6200 -1.3629
  512SOL    HW3 2047   0.853   4.154   1.442  0.4833  0.7593 -0.3784
  512SOL    MW4 2048   0.862   4.068   1.428 -0.4059  0.5634  0.2490
  513SOL     OW 2049   4.424   4.434   0.644  0.1412 -0.3181  0.3384
  513SOL    HW2 2050   4.459   4.417   0.557  0.6736  0.6916  0.3534
  513SOL    HW3 2051   4.410   4.347   0.681  1.5927 -0.7373 -0.0879
  513SOL    MW4 2052   4.427   4.420   0.638  0.4030 -0.2402  0.2842
  514SOL     OW 2053   0.462   0.118   1.141  0.1191 -0.0762  0.0298
  514SOL    HW2 2054   0.463   0.141   1.235 -0.8652 -0.9730  0.2649
  514SOL    HW3 2055   0.545   0.153   1.108  0.2077  0.7948  1.1050
  514SOL    MW4 2056   0.473   0.126   1.149  0.0009 -0.0796  0.2027
  515SOL     OW 2057   0.425   4.433   0.225  0.3355  0.1429  0.3828
  515SOL    HW2 2058   0.386   4.374   0.161  2.0381  0.3833 -0.8907
  515SOL    HW3 2059   0.474   4.376   0.284  1.9589  0.2463 -0.8327
  515SOL    MW4 2060   0.426   4.418   0.225  0.7744  0.1883  0.0544
  516SOL     OW 2061   2.710   2.480   1.413 -0.2042  0.1420 -0.2167
  516SOL    HW2 2062   2.719   2.504   1.321  1.4789  1.4626  0.2675
  516SOL    HW3 2063   2.783   2.421   1.430 -0.6508 -0.2943  0.2173
  516SOL    MW4 2064   2.721   2.475   1.403 -0.0410  0.2587 -0.0955
  517SOL     OW 2065   3.963   1.024   0.203  0.3857  0.3424  0.1703
  517SOL    HW2 2066   3.982   0.949   0.259  0.6058 -0.6737 -1.2497
  517SOL    HW3 2067   3.868   1.028   0.198  0.3853 -0.3064 -0.3621
  517SOL    MW4 2068   3.953   1.015   0.210  0.4147  0.1227 -0.0873
  518SOL     OW 2069   2.510   2.408   0.277 -0.2744 -0.5052  0.4390
  518SOL    HW2 2070   2.573   2.384   0.210 -1.5304  0.6026 -1.1867
  518SOL    HW3 2071   2.556   2.469   0.334  0.0223  0.5844 -0.9518
  518SOL    MW4 2072   2.524   2.412   0.276 -0.4010 -0.2153  0.0410
  519SOL     OW 2073   2.176   0.490   0.544 -0.5450 -0.7650  0.7131
  519SOL    HW2 2074   2.125   0.481   0.464  0.6754  1.8512 -0.4247
  519SOL    HW3 2075   2.250   0.431   0.532 -1.0982 -1.4416  0.5627
  519SOL    MW4 2076   2.179   0.481   0.532 -0.4570 -0.5091  0.5431
  520SOL     OW 2077   0.680   4.406   1.107 -0.0297 -0.2721 -0.0205
  520SOL    HW2 2078   0.595   4.444   1.087 -0.0085 -0.0546  0.3080
  520SOL    HW3 2079   0.672   4.314   1.080 -0.1215 -0.0720 -0.6911
  520SOL    MW4 2080   0.668   4.399   1.101 -0.0390 -0.2170 -0.0656
  521SOL     OW 2081   1.149   0.738   1.521 -0.0435 -0.2853  0.1300
  521SOL    HW2 2082   1.219   0.802   1.507 -1.1028  0.8350 -0.0776
  521SOL    HW3 2083   1.135   0.738   1.616  0.6005 -0.9084  0.2298
  521SOL    MW4 2084   1.156   0.746   1.532 -0.0983 -0.2197  0.1158
  522SOL     OW 2085   0.677   2.090   1.393 -0.7665  0.0116  0.5250
  522SOL    HW2 2086   0.662   2.081   1.299  0.9490  0.0844  0.2203
  522SOL    HW3 2087   0.653   2.180   1.413 -0.5047  0.1955  0.0230
  522SOL    MW4 2088   0.672   2.101   1.383 -0.5056  0.0455  0.4186
  523SOL     OW 2089   2.812   4.130   0.736 -0.0305  0.5061 -0.0449
  523SOL    HW2 2090   2.813   4.038   0.709 -0.6572  0.6158 -0.4547
  523SOL    HW3 2091   2.893   4.167   0.699 -0.1712  0.3052 -0.5572
  523SOL    MW4 2092   2.823   4.123   0.727 -0.1318  0.4941 -0.1665
  524SOL     OW 2093   0.193   4.419   1.136 -0.3167  0.1095 -0.0712
  524SOL    HW2 2094   0.105   4.439   1.104 -0.3242 -0.3445 -0.3377
  524SOL    HW3 2095   0.184   4.415   1.231 -0.8411 -1.1163 -0.1603
  524SOL    MW4 2096   0.180   4.421   1.145 -0.3868 -0.1121 -0.1181
  525SOL     OW 2097   4.252   0.491   1.109  0.5670  0.4948  0.3496
  525SOL    HW2 2098   4.256   0.499   1.205  1.1945 -1.0229  0.4602
  525SOL    HW3 2099   4.337   0.523   1.079  0.5169  0.6083  0.3291
  525SOL    MW4 2100   4.264   0.496   1.118  0.6432  0.3095  0.3615
  526SOL     OW 2101   2.112   3.783   0.377  0.0017  0.6012  0.5102
  526SOL    HW2 2102   2.203   3.792   0.405  0.6671  3.3559 -2.2180
  526SOL    HW3 2103   2.114   3.713   0.312  0.3400  1.1359 -0.0657
  526SOL    MW4 2104   2.124   3.775   0.372  0.1341  1.0352  0.0743
  527SOL     OW 2105   1.422   3.026   0.780 -0.1891  0.5813 -0.3821
  527SOL    HW2 2106   1.448   3.118   0.776  1.3570  0.2011  0.5251
  527SOL    HW3 2107   1.503   2.978   0.762 -0.5348 -0.6261  1.2216
  527SOL    MW4 2108   1.436   3.032   0.777 -0.0307  0.3718 -0.0508
  528SOL     OW 2109   4.273   2.626   0.954  0.4171 -0.5379  0.3098
  528SOL    HW2 2110   4.216   2.574   1.010 -2.4176  1.8890 -0.1430
  528SOL    HW3 2111   4.238   2.612   0.866 -0.4960  2.1419  0.2018
  528SOL    MW4 2112   4.261   2.618   0.950 -0.0774  0.1359  0.2358
  529SOL     OW 2113   3.375   4.167   0.940  0.5322 -0.0151 -0.2752
  529SOL    HW2 2114   3.364   4.262   0.941 -0.3801 -0.1062 -0.9392
  529SOL    HW3 2115   3.308   4.135   1.000 -0.4444 -0.3563 -1.5407
  529SOL    MW4 2116   3.365   4.176   0.948  0.2829 -0.0721 -0.5298
  530SOL     OW 2117   1.188   3.929   0.396 -0.0680 -0.4560 -0.1318
  530SOL    HW2 2118   1.108   3.981   0.391  0.4447  0.1994 -1.7438
  530SOL    HW3 2119   1.242   3.974   0.462 -1.5556 -1.6868  1.9806
  530SOL    MW4 2120   1.185   3.942   0.404 -0.1966 -0.5319 -0.0658
  531SOL     OW 2121   1.648   2.202   0.370  0.3463 -0.5705 -0.3000
  531SOL    HW2 2122   1.700   2.178   0.447  2.3478 -0.6012 -1.6196
  531SOL    HW3 2123   1.656   2.127   0.311 -1.6202 -0.7757 -0.3407
  531SOL    MW4 2124   1.656   2.189   0.373  0.3509 -0.6016 -0.4794
  532SOL     OW 2125   2.959   3.899   1.777  0.0387  0.1420  0.1092
  532SOL    HW2 2126   2.934   3.809   1.799  2.3152 -0.7361 -0.7401
  532SOL    HW3 2127   2.956   3.902   1.681 -0.1644  1.0204  0.1364
  532SOL    MW4 2128   2.955   3.888   1.767  0.3122  0.1420  0.0008
  533SOL     OW 2129   1.860   0.392   0.837  0.2889  0.6361 -0.0327
  533SOL    HW2 2130   1.900   0.327   0.895  0.6474 -0.2038 -1.1914
  533SOL    HW3 2131   1.874   0.357   0.749 -0.8953  1.5175 -0.5893
  533SOL    MW4 2132   1.867   0.379   0.833  0.1799  0.6416 -0.2590
  534SOL     OW 2133   3.763   4.039   0.762 -0.0194  0.0227 -0.0386
  534SOL    HW2 2134   3.818   4.056   0.686 -0.8092 -0.0039 -0.6288
  534SOL    HW3 2135   3.794   3.955   0.797  0.2088 -0.0661 -0.4594
  534SOL    MW4 2136   3.774   4.030   0.757 -0.0935  0.0075 -0.1720
  535SOL     OW 2137   1.562   2.567   1.041  0.0788 -0.3335  0.1417
  535SOL    HW2 2138   1.579   2.653   1.080  0.8005 -0.4445  0.0833
  535SOL    HW3 2139   1.581   2.579   0.948  0.8963 -0.7442  0.2520
  535SOL    MW4 2140   1.567   2.580   1.033  0.2819 -0.4023  0.1486
  536SOL     OW 2141   2.247   3.723   0.955 -0.2600  0.2384  0.0242
  536SOL    HW2 2142   2.253   3.812   0.990 -0.2294  0.4264 -0.4599
  536SOL    HW3 2143   2.300   3.725   0.875  2.0282 -0.9238  1.4444
  536SOL    MW4 2144   2.255   3.735   0.949  0.0459  0.1099  0.1477
  537SOL     OW 2145   3.226   2.064   0.400  0.3349  0.0543  0.3961
  537SOL    HW2 2146   3.237   2.039   0.492  0.9133 -2.1523 -0.2549
  537SOL    HW3 2147   3.300   2.123   0.383 -1.4335  2.8914  2.1311
  537SOL    MW4 2148   3.237   2.069   0.410  0.1779  0.1375  0.5391
  538SOL     OW 2149   1.746   3.076   0.136 -0.7211 -0.2378 -0.4326
  538SOL    HW2 2150   1.664   3.059   0.181  0.1283  0.0957  1.2845
  538SOL    HW3 2151   1.725   3.066   0.043 -2.6130 -0.4669 -0.0015
  538SOL    MW4 2152   1.733   3.073   0.129 -0.8586 -0.2240 -0.1492
  539SOL     OW 2153   2.459   4.428   0.595  0.0819 -0.2702 -0.1400
  539SOL    HW2 2154   2.502   4.342   0.599 -0.1257 -0.3673 -0.0306
  539SOL    HW3 2155   2.366   4.408   0.591  0.0203 -0.0418  0.1797
  539SOL    MW4 2156   2.453   4.414   0.595  0.0464 -0.2528 -0.0834
  540SOL     OW 2157   0.723   1.512   1.502  0.2158  0.1997 -0.2631
  540SOL    HW2 2158   0.648   1.557   1.465  0.6885  0.2056 -1.2310
  540SOL    HW3 2159   0.729   1.429   1.454  0.1276 -0.3364  0.6172
  540SOL    MW4 2160   0.714   1.507   1.491  0.2666  0.1297 -0.2747
  541SOL     OW 2161   0.291   1.176   0.545 -0.5015 -0.3072 -0.3516
  541SOL    HW2 2162   0.317   1.144   0.631  0.0614 -0.9499 -0.7577
  541SOL    HW3 2163   0.196   1.172   0.545 -0.4908 -0.5187  0.1638
  541SOL    MW4 2164   0.282   1.172   0.556 -0.4259 -0.4199 -0.3372
  542SOL     OW 2165   1.089   4.373   0.406  0.1761  0.1081 -0.8330
  542SOL    HW2 2166   1.078   4.382   0.500  0.5440  2.1870 -0.9639
  542SOL    HW3 2167   1.170   4.323   0.396 -0.6289 -1.3659 -0.0368
  542SOL    MW4 2168   1.098   4.368   0.417  0.1184  0.1879 -0.7452
  543SOL     OW 2169   0.410   1.363   0.764  0.0143 -0.4374  0.1016
  543SOL    HW2 2170   0.348   1.404   0.703 -0.8405 -1.2138  0.4342
  543SOL    HW3 2171   0.495   1.369   0.720  0.0224  2.2652  0.4235
  543SOL    MW4 2172   0.413   1.369   0.750 -0.0974 -0.1833  0.1879
  544SOL     OW 2173   2.923   0.021   1.481  0.3157 -0.2483  0.4603
  544SOL    HW2 2174   2.938   0.013   1.575 -0.0714 -0.5499  0.4953
  544SOL    HW3 2175   2.911  -0.069   1.450 -0.6938 -0.0754  0.3167
  544SOL    MW4 2176   2.923   0.008   1.490  0.1315 -0.2653  0.4460
  545SOL     OW 2177   2.948   0.265   0.934  0.3176  0.4069  0.5239
  545SOL    HW2 2178   2.891   0.191   0.955 -1.7554  1.7851 -0.0833
  545SOL    HW3 2179   2.956   0.263   0.839  1.1954  0.2877  0.5970
  545SOL    MW4 2180   2.942   0.255   0.924  0.1599  0.5730  0.4534
  546SOL     OW 2181   2.195   3.464   1.443 -0.5148 -0.1934 -0.7116
  546SOL    HW2 2182   2.120   3.518   1.418 -1.6372 -1.5696 -0.3667
  546SOL    HW3 2183   2.195   3.465   1.538 -1.3192 -1.8393 -0.6851
  546SOL    MW4 2184   2.185   3.471   1.452 -0.7690 -0.5921 -0.6626
  547SOL     OW 2185   1.380   3.537   0.320  0.1091  0.0933  0.0935
  547SOL    HW2 2186   1.295   3.580   0.312 -0.3103 -0.4216  1.5548
  547SOL    HW3 2187   1.364   3.447   0.291  0.2752  0.1200 -0.0859
  547SOL    MW4 2188   1.367   3.531   0.315  0.0757  0.0288  0.2626
  548SOL     OW 2189   1.663   3.948   0.234  0.0267 -0.2654  0.6564
  548SOL    HW2 2190   1.694   3.857   0.231  0.0624 -0.2186 -1.9680
  548SOL    HW3 2191   1.570   3.942   0.212  0.4396  0.4756 -1.3649
  548SOL    MW4 2192   1.655   3.935   0.231  0.0859 -0.1615  0.0435
  549SOL     OW 2193   1.144   3.690   1.081 -0.5345  0.1165 -0.0180
  549SOL    HW2 2194   1.060   3.727   1.054 -0.1477  1.3401  0.4346
  549SOL    HW3 2195   1.134   3.672   1.174 -0.0930  0.8562  0.1795
  549SOL    MW4 2196   1.132   3.692   1.090 -0.4252  0.3755  0.0678
  550SOL     OW 2197   4.322   1.454   0.711 -0.4699 -0.5554 -0.0497
  550SOL    HW2 2198   4.387   1.419   0.771 -0.3513  0.8102  0.6526
  550SOL    HW3 2199   4.363   1.448   0.625 -0.8174 -2.9382 -0.0805
  550SOL    MW4 2200   4.336   1.449   0.708 -0.5001 -0.6896  0.0389
  551SOL     OW 2201   1.837   4.556   0.413 -0.4002 -0.3707  0.3176
  551SOL    HW2 2202   1.835   4.526   0.504  1.1682 -0.0290  0.4700
  551SOL    HW3 2203   1.900   4.499   0.370  1.7114  1.8791  0.3317
  551SOL    MW4 2204   1.845   4.545   0.419  0.0853 -0.0288  0.3396
  552SOL     OW 2205   4.386   1.736   0.697 -0.3998  0.1449  0.4462
  552SOL    HW2 2206   4.370   1.647   0.728  0.4177 -0.3784 -0.5811
  552SOL    HW3 2207   4.300   1.778   0.701 -1.0652 -1.0893 -0.2936
  552SOL    MW4 2208   4.372   1.730   0.701 -0.3797 -0.0870  0.2131
  553SOL     OW 2209   3.404   1.272   1.336  0.6414 -0.0808  0.0605
  553SOL    HW2 2210   3.387   1.284   1.243  0.2058  1.9643  0.3578
  553SOL    HW3 2211   3.324   1.230   1.369  0.4286 -0.0002 -0.3414
  553SOL    MW4 2212   3.391   1.268   1.328  0.5558  0.1997  0.0467
  554SOL     OW 2213   1.801   2.108   0.584  0.2143 -0.3663 -0.1302
  554SOL    HW2 2214   1.894   2.091   0.599 -0.1931 -0.7835  2.1523
  554SOL    HW3 2215   1.756   2.048   0.644 -1.5747 -1.1832 -2.2235
  554SOL    MW4 2216   1.808   2.098   0.594 -0.0755 -0.5291 -0.1052
  555SOL     OW 2217   1.309   2.405   1.363 -0.4766 -0.2224  0.3774
  555SOL    HW2 2218   1.346   2.486   1.398  0.9499 -0.9286  0.5490
  555SOL    HW3 2219   1.322   2.412   1.268 -2.6106  0.8430  0.1476
  555SOL    MW4 2220   1.316   2.417   1.355 -0.5699 -0.1750  0.3697
  556SOL     OW 2221   2.394   3.740   0.725 -0.4137 -0.1379  0.2279
  556SOL    HW2 2222   2.485   3.710   0.727 -0.1718  0.5876  0.1349
  556SOL    HW3 2223   2.373   3.743   0.631  0.1372  1.7061  0.1530
  556SOL    MW4 2224   2.404   3.736   0.713 -0.3091  0.2011  0.2057
  557SOL     OW 2225   1.317   2.551   0.725  0.1297 -0.0501  0.2717
  557SOL    HW2 2226   1.253   2.529   0.792  0.5392 -1.0312  0.3488
  557SOL    HW3 2227   1.400   2.517   0.759  0.4575  0.0339 -0.4273
  557SOL    MW4 2228   1.320   2.544   0.739  0.2270 -0.1684  0.1897
  558SOL     OW 2229   3.212   4.410   0.690 -0.0805 -0.0192 -0.4908
  558SOL    HW2 2230   3.251   4.422   0.776 -0.2440  0.3831 -0.4722
  558SOL    HW3 2231   3.271   4.454   0.630 -0.4982  0.5752 -0.4643
  558SOL    MW4 2232   3.225   4.417   0.693 -0.1572  0.1123 -0.4849
  559SOL     OW 2233   2.871   1.940   0.690 -0.2247 -0.5358  0.0908
  559SOL    HW2 2234   2.787   1.910   0.655 -0.3326 -1.0133  0.7470
  559SOL    HW3 2235   2.894   2.016   0.636 -0.7380 -0.8242 -0.5425
  559SOL    MW4 2236   2.863   1.946   0.678 -0.3066 -0.6368  0.0938
  560SOL     OW 2237   1.124   2.833   1.367 -0.2401 -0.2813 -0.7862
  560SOL    HW2 2238   1.039   2.791   1.379  0.0321 -0.5907  0.1167
  560SOL    HW3 2239   1.134   2.841   1.272 -0.3499 -2.1659 -0.9797
  560SOL    MW4 2240   1.114   2.829   1.356 -0.2186 -0.5708 -0.6926
  561SOL     OW 2241   3.598   2.729   1.456 -0.5170 -0.3228  0.2500
  561SOL    HW2 2242   3.583   2.723   1.551 -1.9964  0.4517  0.0839
  561SOL    HW3 2243   3.599   2.638   1.426 -1.5429 -0.5265  0.8010
  561SOL    MW4 2244   3.596   2.716   1.465 -0.8475 -0.2475  0.3008
  562SOL     OW 2245   0.899   1.949   1.475 -0.3693  0.0635 -0.7361
  562SOL    HW2 2246   0.823   1.993   1.438 -0.0348 -0.1878 -1.7655
  562SOL    HW3 2247   0.974   1.987   1.428  0.3446  1.8146  1.7376
  562SOL    MW4 2248   0.899   1.959   1.464 -0.2310  0.2614 -0.5455
  563SOL     OW 2249   2.341   2.852   0.795 -0.2534  0.0368 -0.0278
  563SOL    HW2 2250   2.267   2.872   0.738 -1.7429 -0.8819  1.5386
  563SOL    HW3 2251   2.370   2.766   0.766 -1.5888 -0.8359  1.1459
  563SOL    MW4 2252   2.335   2.843   0.784 -0.6261 -0.1996  0.3337
  564SOL     OW 2253   0.241   1.551   1.448 -0.2404 -0.1653  0.2821
  564SOL    HW2 2254   0.162   1.593   1.415 -0.1171  0.9602  1.3840
  564SOL    HW3 2255   0.246   1.577   1.540  2.2583  1.1365 -0.1600
  564SOL    MW4 2256   0.232   1.560   1.455  0.1055  0.1550  0.3691
  565SOL     OW 2257   1.094   4.395   1.392  0.1409 -0.4866 -0.0639
  565SOL    HW2 2258   1.091   4.483   1.429 -0.2369 -0.6056  0.1912
  565SOL    HW3 2259   1.088   4.408   1.298 -0.2643 -0.2585 -0.0046
  565SOL    MW4 2260   1.093   4.408   1.385  0.0376 -0.4722 -0.0224
  566SOL     OW 2261   1.257   0.756   0.340 -0.0184  0.2570  0.0581
  566SOL    HW2 2262   1.209   0.674   0.337  0.9021 -0.2381 -1.8619
  566SOL    HW3 2263   1.191   0.824   0.328 -0.8785 -0.1412  2.3515
  566SOL    MW4 2264   1.242   0.754   0.338 -0.0104  0.1392  0.1073
  567SOL     OW 2265   0.501   3.248   1.391  0.3669  0.1154 -0.0902
  567SOL    HW2 2266   0.501   3.343   1.407  0.4978 -0.0615  0.9856
  567SOL    HW3 2267   0.411   3.221   1.409  0.3769  0.0073 -0.2046
  567SOL    MW4 2268   0.489   3.257   1.395  0.3855  0.0778  0.0366
  568SOL     OW 2269   0.885   0.108   1.373  0.1221 -0.2796  0.2465
  568SOL    HW2 2270   0.877   0.110   1.278  0.0582 -2.5402  0.1893
  568SOL    HW3 2271   0.963   0.055   1.390 -1.0816 -1.7153  1.4772
  568SOL    MW4 2272   0.894   0.101   1.363 -0.0452 -0.7673  0.4013
  569SOL     OW 2273   0.660   2.857   1.062  0.3444  0.1608 -0.3932
  569SOL    HW2 2274   0.599   2.909   1.009  1.9974  0.9083 -1.5984
  569SOL    HW3 2275   0.631   2.871   1.152 -1.9765 -0.4391 -1.0032
  569SOL    MW4 2276   0.648   2.866   1.066  0.2563  0.1802 -0.6327
  570SOL     OW 2277   0.008   1.005   0.791  0.0821 -0.6898 -0.6151
  570SOL    HW2 2278  -0.077   0.962   0.800  0.1108 -0.9959 -1.8318
  570SOL    HW3 2279  -0.010   1.083   0.738  0.0138  0.8838  1.5959
  570SOL    MW4 2280  -0.006   1.010   0.785  0.0769 -0.5226 -0.4839
  571SOL     OW 2281   0.029   2.239   0.955 -0.1186  0.4608  0.1038
  571SOL    HW2 2282   0.018   2.319   1.007 -0.0289  0.1033  0.6672
  571SOL    HW3 2283  -0.025   2.174   0.999  1.0804 -0.2224  0.5687
  571SOL    MW4 2284   0.020   2.241   0.968  0.0515  0.3235  0.2395
  572SOL     OW 2285   0.659   1.261   1.380  0.0724  0.2777 -0.2977
  572SOL    HW2 2286   0.726   1.210   1.425 -0.4241 -1.0577 -1.0474
  572SOL    HW3 2287   0.576   1.226   1.412 -0.2859  1.0852 -0.3096
  572SOL    MW4 2288   0.657   1.250   1.390 -0.0404  0.2081 -0.3982
  573SOL     OW 2289   2.901   3.911   1.507  0.1697 -0.0327 -0.1744
  573SOL    HW2 2290   2.903   3.821   1.476  0.6646  0.3574 -1.3115
  573SOL    HW3 2291   2.821   3.948   1.469  0.4945  0.2897 -0.5533
  573SOL    MW4 2292   2.891   3.904   1.498  0.2778  0.0613 -0.3744
  574SOL     OW 2293   3.370   0.740   1.478  0.2356  0.1630 -0.1254
  574SOL    HW2 2294   3.376   0.648   1.452 -1.2251  0.1677 -0.5354
  574SOL    HW3 2295   3.362   0.738   1.573 -1.8711 -0.2624 -0.2930
  574SOL    MW4 2296   3.370   0.728   1.487 -0.2351  0.1075 -0.2016
  575SOL     OW 2297   2.491   0.200   0.291 -0.1876  0.5476  0.3078
  575SOL    HW2 2298   2.476   0.117   0.336 -0.6715 -0.1038 -1.0385
  575SOL    HW3 2299   2.586   0.212   0.294 -0.2191  0.5529  1.5557
  575SOL    MW4 2300   2.501   0.191   0.297 -0.2556  0.4623  0.2948
  576SOL     OW 2301   1.589   2.844   1.114 -0.1373 -0.0963 -0.0099
  576SOL    HW2 2302   1.657   2.894   1.070 -0.3601 -0.6392 -0.9762
  576SOL    HW3 2303   1.507   2.890   1.095 -0.3893 -1.0344 -1.2189
  576SOL    MW4 2304   1.587   2.857   1.106 -0.1999 -0.2917 -0.2969
  577SOL     OW 2305   1.143   0.482   1.438  0.0811  0.1649 -0.4727
  577SOL    HW2 2306   1.144   0.569   1.478  0.1834 -0.4017  0.7855
  577SOL    HW3 2307   1.059   0.445   1.464  0.7418 -0.7471  0.4158
  577SOL    MW4 2308   1.132   0.488   1.447  0.1818 -0.0302 -0.1895
  578SOL     OW 2309   0.903   0.848   1.425  0.4843  0.1279  0.1813
  578SOL    HW2 2310   0.919   0.843   1.331  2.3076 -2.1899  0.5719
  578SOL    HW3 2311   0.987   0.827   1.465 -0.6465 -0.5019  2.3211
  578SOL    MW4 2312   0.916   0.845   1.418  0.5757 -0.2610  0.5152
  579SOL     OW 2313   2.452   3.401   1.017 -0.6719  0.0278 -0.0269
  579SOL    HW2 2314   2.538   3.360   1.025 -1.0774 -0.9262 -0.5137
  579SOL    HW3 2315   2.465   3.490   1.051  0.3290 -0.3386  0.5734
  579SOL    MW4 2316   2.465   3.407   1.023 -0.5933 -0.1464 -0.0120
  580SOL     OW 2317   3.128   0.662   0.684 -0.0474  0.3043  0.0065
  580SOL    HW2 2318   3.202   0.607   0.658 -0.0303  0.6706 -0.7128
  580SOL    HW3 2319   3.116   0.643   0.777  1.2518  0.5945  0.2409
  580SOL    MW4 2320   3.136   0.652   0.693  0.1262  0.3909 -0.0575
  581SOL     OW 2321   4.488   3.265   1.056 -0.0721  0.3647  0.4970
  581SOL    HW2 2322   4.480   3.287   1.149 -0.4487  0.7094  0.3877
  581SOL    HW3 2323   4.407   3.299   1.017 -0.2496 -0.4053  0.1643
  581SOL    MW4 2324   4.476   3.272   1.063 -0.1452  0.3086  0.4387
  582SOL     OW 2325   3.003   0.215   0.650  0.3751 -0.0842 -0.2267
  582SOL    HW2 2326   3.022   0.122   0.664 -0.4846 -0.3637 -0.8299
  582SOL    HW3 2327   3.067   0.243   0.584 -0.0531 -0.5340 -0.8451
  582SOL    MW4 2328   3.014   0.206   0.643  0.2052 -0.1804 -0.3878
  583SOL     OW 2329   0.028   1.687   1.345  0.4029 -0.0198  0.0236
  583SOL    HW2 2330   0.032   1.780   1.366  0.5402 -0.3339  1.4431
  583SOL    HW3 2331  -0.053   1.656   1.385  0.9819 -0.7646  0.6380
  583SOL    MW4 2332   0.018   1.695   1.353  0.4974 -0.1595  0.2919
  584SOL     OW 2333   1.386   3.749   0.944  0.4252  0.2640  0.7758
  584SOL    HW2 2334   1.461   3.715   0.992  0.7105  1.6906  1.3901
  584SOL    HW3 2335   1.311   3.734   1.001  0.7721  2.0069  1.7209
  584SOL    MW4 2336   1.386   3.743   0.958  0.5086  0.6821  0.9816
  585SOL     OW 2337   1.116   0.287   0.663  0.3590 -0.8362 -0.1747
  585SOL    HW2 2338   1.183   0.240   0.711 -0.9541 -1.4029  1.1642
  585SOL    HW3 2339   1.080   0.349   0.727 -0.8502 -1.0146 -0.6606
  585SOL    MW4 2340   1.120   0.289   0.678  0.0262 -0.9345 -0.0621
  586SOL     OW 2341   2.712   1.153   1.415 -0.3724 -0.2389 -0.3853
  586SOL    HW2 2342   2.689   1.169   1.507 -1.1169  1.4959 -0.8513
  586SOL    HW3 2343   2.796   1.196   1.404 -0.0041 -0.9555 -0.3668
  586SOL    MW4 2344   2.720   1.161   1.426 -0.4220 -0.1045 -0.4443
  587SOL     OW 2345   0.002   1.169   1.494  0.3303 -0.3100 -0.1030
  587SOL    HW2 2346  -0.005   1.075   1.476 -2.0166 -0.1079 -0.3683
  587SOL    HW3 2347   0.017   1.174   1.588  3.9299 -1.0410 -0.5574
  587SOL    MW4 2348   0.003   1.157   1.504  0.4956 -0.3798 -0.1980
  588SOL     OW 2349   2.707   2.991   0.976  0.0224  0.4155  0.0285
  588SOL    HW2 2350   2.644   2.937   1.025 -0.1960 -0.2559 -0.9900
  588SOL    HW3 2351   2.793   2.958   1.004 -0.1091 -0.3572 -0.4766
  588SOL    MW4 2352   2.710   2.980   0.986 -0.0238  0.2250 -0.1725
  589SOL     OW 2353   1.772   2.196   1.009  0.4307 -0.0451  0.4503
  589SOL    HW2 2354   1.800   2.279   1.048  0.6553  0.0773  0.0356
  589SOL    HW3 2355   1.850   2.141   1.012  0.1509 -0.4145  1.1700
  589SOL    MW4 2356   1.786   2.199   1.014  0.4234 -0.0777  0.4905
  590SOL     OW 2357   2.923   0.739   1.499 -0.1922  0.1241  0.0038
  590SOL    HW2 2358   2.992   0.796   1.464  0.9428 -2.6191 -2.4182
  590SOL    HW3 2359   2.847   0.756   1.444 -0.1342 -0.0340 -0.1247
  590SOL    MW4 2360   2.922   0.749   1.487 -0.0348 -0.2587 -0.3327
  591SOL     OW 2361   3.374   0.520   0.587 -0.5146  0.4542 -0.0712
  591SOL    HW2 2362   3.431   0.594   0.608 -1.0559  1.2948 -1.4541
  591SOL    HW3 2363   3.390   0.504   0.494 -1.8645  0.1151 -0.2491
  591SOL    MW4 2364   3.384   0.528   0.577 -0.7641  0.5204 -0.2772
  592SOL     OW 2365   0.921   1.414   0.545 -0.0542  0.3825 -0.4673
  592SOL    HW2 2366   0.925   1.328   0.504  0.7760 -1.2180  2.8120
  592SOL    HW3 2367   0.830   1.421   0.576  0.1311  0.3029  0.0869
  592SOL    MW4 2368   0.909   1.403   0.543  0.0798  0.1609  0.0385
  593SOL     OW 2369   1.563   0.592   1.130  0.4478 -0.0889  0.2806
  593SOL    HW2 2370   1.592   0.580   1.220  0.9525 -1.3549 -0.0362
  593SOL    HW3 2371   1.643   0.606   1.080  0.1735  0.5810  0.0294
  593SOL    MW4 2372   1.577   0.592   1.135  0.4782 -0.1676  0.2056
  594SOL     OW 2373   0.228   0.489   1.452  0.1933 -0.1909  0.3992
  594SOL    HW2 2374   0.232   0.581   1.479  0.7819 -0.1523  0.1738
  594SOL    HW3 2375   0.228   0.491   1.357 -0.4296 -0.3968  0.3942
  594SOL    MW4 2376   0.228   0.501   1.443  0.1887 -0.2129  0.3688
  595SOL     OW 2377   3.194   1.145   1.459  0.3477 -0.1415  0.3384
  595SOL    HW2 2378   3.120   1.205   1.450 -0.8898 -1.6787  0.0726
  595SOL    HW3 2379   3.204   1.134   1.554 -0.0771 -0.2985  0.3670
  595SOL    MW4 2380   3.186   1.152   1.471  0.1284 -0.3651  0.3071
  596SOL     OW 2381   3.173   1.855   0.239 -0.4796  0.0831 -0.2581
  596SOL    HW2 2382   3.204   1.927   0.293  0.0171 -0.5392  0.3007
  596SOL    HW3 2383   3.236   1.784   0.255 -1.0735 -0.5374 -0.6360
  596SOL    MW4 2384   3.185   1.855   0.248 -0.4924 -0.0809 -0.2343
  597SOL     OW 2385   3.638   2.457   1.089 -0.3705  0.3281  0.3073
  597SOL    HW2 2386   3.714   2.507   1.060 -0.4528 -0.9358 -2.2610
  597SOL    HW3 2387   3.563   2.508   1.060 -0.4575 -0.5224 -1.0205
  597SOL    MW4 2388   3.638   2.470   1.081 -0.3929  0.0491 -0.2067
  598SOL     OW 2389   1.480   0.722   0.184 -0.0310  0.1057  0.4189
  598SOL    HW2 2390   1.395   0.737   0.225  0.2475  1.2043  0.6115
  598SOL    HW3 2391   1.542   0.721   0.258  0.4760  2.0939  0.0547
  598SOL    MW4 2392   1.477   0.724   0.199  0.0727  0.5130  0.3962
  599SOL     OW 2393   2.550   0.232   0.734  0.4589 -0.1969 -0.3743
  599SOL    HW2 2394   2.634   0.263   0.700  0.0121  0.7522 -0.6506
  599SOL    HW3 2395   2.552   0.137   0.722  0.5210  0.0524 -2.6011
  599SOL    MW4 2396   2.561   0.224   0.728  0.4081 -0.0388 -0.7045
  600SOL     OW 2397   3.809   3.517   0.743  0.1098 -0.0972  0.2846
  600SOL    HW2 2398   3.812   3.610   0.766  1.5824 -0.1020  0.1679
  600SOL    HW3 2399   3.873   3.508   0.673  0.7470 -1.4066  1.0304
  600SOL    MW4 2400   3.818   3.528   0.737  0.3881 -0.2706  0.3676
  601SOL     OW 2401   0.193   3.647   1.052 -0.0929 -0.2213 -0.1314
  601SOL    HW2 2402   0.187   3.557   1.018  0.6622 -0.3186 -0.0059
  601SOL    HW3 2403   0.281   3.676   1.029 -0.1006  0.2494  0.4214
  601SOL    MW4 2404   0.204   3.639   1.044  0.0057 -0.1720 -0.0419
  602SOL     OW 2405   2.774   0.343   0.589  0.3230  0.4305 -0.1729
  602SOL    HW2 2406   2.816   0.429   0.580  0.5867  0.2375 -0.7945
  602SOL    HW3 2407   2.845   0.284   0.614  0.5697 -0.0386 -1.9368
  602SOL    MW4 2408   2.789   0.346   0.591  0.3903  0.3432 -0.4877
  603SOL     OW 2409   0.256   3.855   0.493 -0.8020  0.4860 -0.3919
  603SOL    HW2 2410   0.325   3.825   0.434 -0.2780  1.1011 -0.1049
  603SOL    HW3 2411   0.272   3.949   0.502 -1.1074  0.4660  0.4104
  603SOL    MW4 2412   0.268   3.864   0.487 -0.7731  0.5645 -0.2481
  604SOL     OW 2413   0.912   4.051   1.125  0.0901 -0.0260 -0.5174
  604SOL    HW2 2414   0.903   4.066   1.219  0.4361 -0.3516 -0.4322
  604SOL    HW3 2415   0.837   4.096   1.087 -2.1380 -2.8978  0.2219
  604SOL    MW4 2416   0.901   4.059   1.133 -0.1582 -0.4479 -0.4086
  605SOL     OW 2417   0.342   1.974   0.310  0.1380  0.5288 -0.6810
  605SOL    HW2 2418   0.248   1.972   0.291  0.2331  3.4858 -1.5989
  605SOL    HW3 2419   0.348   1.972   0.405 -0.7877 -0.5366 -0.6281
  605SOL    MW4 2420   0.331   1.973   0.320  0.0284  0.7783 -0.7952
  606SOL     OW 2421   0.603   3.288   0.284  0.3485 -0.1751 -0.2721
  606SOL    HW2 2422   0.588   3.194   0.290 -1.2474  0.1066  0.7967
  606SOL    HW3 2423   0.684   3.303   0.333 -0.1137 -0.8400  0.7073
  606SOL    MW4 2424   0.611   3.278   0.292  0.0770 -0.2256 -0.0018
  607SOL     OW 2425   1.639   0.745   0.651  0.1229 -0.2436 -0.3014
  607SOL    HW2 2426   1.590   0.823   0.675 -0.3035 -0.3912 -0.6701
  607SOL    HW3 2427   1.731   0.770   0.659  0.0107 -0.4970  2.1091
  607SOL    MW4 2428   1.644   0.758   0.655  0.0518 -0.2965 -0.0320
  608SOL     OW 2429   1.969   3.956   0.544  0.8688 -0.0325  0.1061
  608SOL    HW2 2430   2.042   3.999   0.590  1.4167 -0.7952 -0.0413
  608SOL    HW3 2431   2.012   3.897   0.481  0.1239  0.9774 -1.3744
  608SOL    MW4 2432   1.985   3.954   0.542  0.8428  0.0001 -0.1086
  609SOL     OW 2433   1.792   0.632   0.990  0.2083 -0.5218  0.1802
  609SOL    HW2 2434   1.783   0.576   0.913  0.8967 -1.1043  0.5220
  609SOL    HW3 2435   1.864   0.593   1.040  0.7806  0.7439  0.3515
  609SOL    MW4 2436   1.800   0.619   0.986  0.3746 -0.4317  0.2479
  610SOL     OW 2437   0.681   0.610   0.710 -0.1145  0.4694 -0.9632
  610SOL    HW2 2438   0.626   0.537   0.683  0.4165  0.1790 -1.2843
  610SOL    HW3 2439   0.625   0.664   0.765 -0.4503 -0.2976 -0.5425
  610SOL    MW4 2440   0.667   0.607   0.713 -0.0888  0.3299 -0.9500
  611SOL     OW 2441   2.915   1.359   0.586 -0.1247 -0.0402 -0.5511
  611SOL    HW2 2442   2.927   1.282   0.641 -0.2915 -0.1160 -0.6184
  611SOL    HW3 2443   2.995   1.410   0.597 -0.3492  0.1695  0.1115
  611SOL    MW4 2444   2.927   1.355   0.594 -0.1763 -0.0226 -0.4726
  612SOL     OW 2445   3.754   0.337   0.652  0.5432 -0.0077 -0.2357
  612SOL    HW2 2446   3.743   0.351   0.558  0.9465  1.7593 -0.0511
  612SOL    HW3 2447   3.799   0.417   0.682 -1.8415  0.6007  1.8674
  612SOL    MW4 2448   3.759   0.350   0.643  0.2818  0.3057  0.0661
  613SOL     OW 2449   3.806   0.488   1.424 -0.0186 -0.0473  0.4988
  613SOL    HW2 2450   3.820   0.582   1.431  0.1123 -0.0730  0.5837
  613SOL    HW3 2451   3.812   0.470   1.330  0.5047 -0.0534  0.5275
  613SOL    MW4 2452   3.809   0.498   1.412  0.0677 -0.0515  0.5138
  614SOL     OW 2453   2.680   2.265   1.032  0.3860 -0.2817 -0.0644
  614SOL    HW2 2454   2.657   2.312   0.952  0.0362 -2.8123 -1.4987
  614SOL    HW3 2455   2.598   2.223   1.059  0.6617  0.0080  1.2525
  614SOL    MW4 2456   2.666   2.265   1.025  0.3762 -0.5774 -0.0799
  615SOL     OW 2457   3.492   1.845   0.555 -0.1318 -0.5758  0.0346
  615SOL    HW2 2458   3.498   1.875   0.465  1.3278 -1.2899 -0.1327
  615SOL    HW3 2459   3.431   1.905   0.597  0.9643  1.1913 -0.8511
  615SOL    MW4 2460   3.485   1.857   0.549  0.2054 -0.4369 -0.1044
  616SOL     OW 2461   0.657   1.376   0.629  0.5824 -0.2662 -0.0932
  616SOL    HW2 2462   0.678   1.299   0.681  1.2994  0.2551  0.3893
  616SOL    HW3 2463   0.629   1.341   0.544 -2.5713 -1.2162  1.2644
  616SOL    MW4 2464   0.656   1.362   0.625  0.2609 -0.3227  0.1496
  617SOL     OW 2465   4.221   2.891   1.051 -0.5858  0.3386 -0.0245
  617SOL    HW2 2466   4.211   2.798   1.030 -1.0374  0.4769 -0.4125
  617SOL    HW3 2467   4.222   2.894   1.147  0.1851 -0.1478 -0.0094
  617SOL    MW4 2468   4.220   2.879   1.061 -0.5437  0.2926 -0.0737
  618SOL     OW 2469   3.417   2.333   0.612  0.0881  0.2052  0.1368
  618SOL    HW2 2470   3.434   2.271   0.542  1.1425 -0.6614  1.1404
  618SOL    HW3 2471   3.342   2.296   0.658  0.6939 -0.3169  0.7131
  618SOL    MW4 2472   3.409   2.320   0.609  0.3071  0.0220  0.3452
  619SOL     OW 2473   4.299   2.990   0.299  0.1705  0.0280  0.3191
  619SOL    HW2 2474   4.216   2.982   0.253  0.0826 -0.8221  0.6187
  619SOL    HW3 2475   4.275   3.000   0.391  0.3886  0.1265  0.3666
  619SOL    MW4 2476   4.285   2.990   0.305  0.1877 -0.0712  0.3649
  620SOL     OW 2477   1.842   4.492   0.692 -0.0687  0.2708 -0.1771
  620SOL    HW2 2478   1.825   4.496   0.786 -0.8492 -0.9123 -0.2604
  620SOL    HW3 2479   1.812   4.405   0.666 -2.0865  1.4598 -1.9754
  620SOL    MW4 2480   1.836   4.481   0.701 -0.4379  0.2716 -0.4253
  621SOL     OW 2481   0.839   3.359   0.457 -0.2388  0.2736 -0.1502
  621SOL    HW2 2482   0.765   3.348   0.518 -1.2067  2.9424 -0.7789
  621SOL    HW3 2483   0.845   3.453   0.443  2.5607  0.0109 -1.0695
  621SOL    MW4 2484   0.830   3.370   0.463  0.0029  0.5911 -0.3545
  622SOL     OW 2485   0.027   2.836   0.315  0.1693  0.0588  0.0979
  622SOL    HW2 2486   0.025   2.819   0.409  2.0264  1.7369  0.4631
  622SOL    HW3 2487  -0.060   2.871   0.296 -0.5381 -1.1466  0.9859
  622SOL    MW4 2488   0.015   2.838   0.325  0.3210  0.1212  0.2632
  623SOL     OW 2489   1.835   2.950   1.013 -0.1303  0.1957 -0.1371
  623SOL    HW2 2490   1.911   2.919   1.063  0.2688  1.8034  0.2905
  623SOL    HW3 2491   1.843   3.045   1.015 -0.8932  0.3256 -2.0655
  623SOL    MW4 2492   1.846   2.958   1.020 -0.1783  0.4250 -0.3351
  624SOL     OW 2493   3.591   0.600   0.951  0.2689 -0.7359  0.2258
  624SOL    HW2 2494   3.505   0.576   0.986 -0.5692  0.4723 -0.9530
  624SOL    HW3 2495   3.651   0.536   0.989 -1.3298 -2.3275  0.1453
  624SOL    MW4 2496   3.587   0.589   0.961 -0.0526 -0.7865  0.0596
  625SOL     OW 2497   2.237   2.434   1.431  0.1673  0.4457  0.5022
  625SOL    HW2 2498   2.312   2.393   1.475 -1.2458 -0.3632  2.2115
  625SOL    HW3 2499   2.161   2.383   1.460 -1.1872  1.9620 -0.2999
  625SOL    MW4 2500   2.237   2.421   1.440 -0.1979  0.5391  0.6219
  626SOL     OW 2501   1.415   3.473   0.589 -0.2834 -0.0485 -0.5394
  626SOL    HW2 2502   1.403   3.491   0.496  0.2047  2.0926 -0.2019
  626SOL    HW3 2503   1.418   3.559   0.631  0.2295 -0.9585  1.3747
  626SOL    MW4 2504   1.414   3.487   0.582 -0.1513  0.1139 -0.2423
  627SOL     OW 2505   0.375   4.499   0.785  0.7949 -0.5664 -0.4484
  627SOL    HW2 2506   0.393   4.522   0.876 -0.6215 -1.7402  0.1399
  627SOL    HW3 2507   0.293   4.544   0.765  0.5618 -1.1561 -0.8234
  627SOL    MW4 2508   0.367   4.508   0.794  0.5773 -0.7990 -0.4203
  628SOL     OW 2509   1.325   4.203   0.368  0.0690  0.7015 -0.1041
  628SOL    HW2 2510   1.396   4.267   0.383  0.7154  0.2505 -1.2086
  628SOL    HW3 2511   1.324   4.150   0.447  2.4952 -0.7379 -1.0084
  628SOL    MW4 2512   1.334   4.205   0.380  0.4744  0.4521 -0.3691
  629SOL     OW 2513   0.724   3.098   1.447  0.5132  0.3089  0.4582
  629SOL    HW2 2514   0.652   3.161   1.444  0.4330  0.1828 -0.2652
  629SOL    HW3 2515   0.782   3.125   1.375  2.3461  1.8155  2.4278
  629SOL    MW4 2516   0.722   3.110   1.437  0.7444  0.4910  0.6226
  630SOL     OW 2517   1.488   4.402   0.451 -0.0960 -0.0113  0.1850
  630SOL    HW2 2518   1.515   4.455   0.376 -1.0296  0.8412  0.4329
  630SOL    HW3 2519   1.458   4.466   0.515 -0.9221 -0.8359  0.6266
  630SOL    MW4 2520   1.488   4.418   0.450 -0.3282 -0.0077  0.2760
  631SOL     OW 2521   3.395   2.589   1.052 -0.1880  0.6984  0.2013
  631SOL    HW2 2522   3.397   2.684   1.064  0.2221  0.7189 -0.0142
  631SOL    HW3 2523   3.373   2.577   0.959  0.4310  0.5961  0.0633
  631SOL    MW4 2524   3.392   2.600   1.041 -0.0522  0.6876  0.1546
  632SOL     OW 2525   2.468   0.501   1.085  0.0322 -0.1758  0.1777
  632SOL    HW2 2526   2.541   0.546   1.041 -0.7590  0.0537 -0.9458
  632SOL    HW3 2527   2.493   0.498   1.177  0.9051  1.0013 -0.0087
  632SOL    MW4 2528   2.481   0.507   1.091  0.0430  0.0098  0.0048
  633SOL     OW 2529   3.359   2.066   1.352 -0.4289 -0.0196  0.0691
  633SOL    HW2 2530   3.367   2.051   1.257 -1.5664  0.3585 -0.0931
  633SOL    HW3 2531   3.368   2.161   1.362  1.4068 -0.2105  0.5388
  633SOL    MW4 2532   3.361   2.077   1.341 -0.3368  0.0051  0.1097
  634SOL     OW 2533   2.309   1.744   0.361  0.0302  0.4711 -0.1945
  634SOL    HW2 2534   2.337   1.654   0.346  1.8993  1.1237 -0.7056
  634SOL    HW3 2535   2.224   1.749   0.317  0.6044 -0.6248 -1.5044
  634SOL    MW4 2536   2.301   1.733   0.353  0.3525  0.4126 -0.4347
  635SOL     OW 2537   1.078   0.469   1.147  0.2381  0.0214  0.4511
  635SOL    HW2 2538   1.091   0.467   1.242  0.9869  0.9687  0.3800
  635SOL    HW3 2539   1.148   0.525   1.115 -0.7181  0.6706 -0.5413
  635SOL    MW4 2540   1.089   0.476   1.156  0.2107  0.2321  0.3108
  636SOL     OW 2541   1.120   0.222   1.013 -0.0674  0.3609  0.0549
  636SOL    HW2 2542   1.115   0.312   1.045 -0.4595  0.8068 -1.2686
  636SOL    HW3 2543   1.034   0.184   1.034  0.0135  0.3548  0.3879
  636SOL    MW4 2544   1.108   0.229   1.020 -0.1085  0.4189 -0.0758
  637SOL     OW 2545   0.233   3.863   1.458  0.6486  0.4016  0.1443
  637SOL    HW2 2546   0.217   3.786   1.404 -0.3518  0.3167  0.5590
  637SOL    HW3 2547   0.310   3.904   1.419  0.0720  0.2110 -1.2153
  637SOL    MW4 2548   0.241   3.858   1.446  0.4406  0.3652  0.0196
  638SOL     OW 2549   3.997   3.399   0.319 -0.6530  0.0976  0.1686
  638SOL    HW2 2550   3.953   3.315   0.307 -1.3056  0.3827  0.5235
  638SOL    HW3 2551   4.009   3.406   0.414  0.0480  0.0833  0.0872
  638SOL    MW4 2552   3.993   3.389   0.330 -0.6466  0.1333  0.2047
  639SOL     OW 2553   2.184   1.460   0.742  0.6091 -0.0009  0.0029
  639SOL    HW2 2554   2.271   1.466   0.702  0.4992  1.9299  0.0511
  639SOL    HW3 2555   2.201   1.446   0.835  0.8581 -0.5636 -0.1231
  639SOL    MW4 2556   2.198   1.459   0.749  0.6274  0.1796 -0.0074
  640SOL     OW 2557   1.692   2.965   9.888 -0.0081  0.3137 -0.5791
  640SOL    HW2 2558   1.696   2.873   9.916  0.5301  0.1719 -1.0983
  640SOL    HW3 2559   1.719   2.962   9.796  0.6011  1.0713 -0.4263
  640SOL    MW4 2560   1.696   2.952   9.879  0.1433  0.3950 -0.6275
  641SOL     OW 2561   2.453   1.093   0.374 -0.6653  0.4883  1.2308
  641SOL    HW2 2562   2.420   1.165   0.320 -0.3996  0.5508  1.1503
  641SOL    HW3 2563   2.391   1.022   0.360 -0.1659  0.2504  0.2526
  641SOL    MW4 2564   2.440   1.093   0.365 -0.5643  0.4651  1.0911
  642SOL     OW 2565   4.049   2.966   0.182  0.1984 -0.5598 -0.1519
  642SOL    HW2 2566   4.029   2.890   0.236  1.4080 -0.5962  0.2536
  642SOL    HW3 2567   4.087   2.929   0.103 -0.3419 -0.4314 -0.4761
  642SOL    MW4 2568   4.051   2.951   0.179  0.2867 -0.5477 -0.1412
  643SOL     OW 2569   3.524   1.925   0.299 -0.8357 -0.1082 -0.6867
  643SOL    HW2 2570   3.609   1.881   0.301 -2.0168 -2.4709 -0.5039
  643SOL    HW3 2571   3.478   1.884   0.226 -1.6341  1.5108 -1.1045
  643SOL    MW4 2572   3.529   1.914   0.290 -1.0969 -0.2064 -0.7177
  644SOL     OW 2573   1.823   1.140   1.444  0.1013 -0.2070  0.4227
  644SOL    HW2 2574   1.735   1.176   1.435  0.0470 -0.3568  0.3686
  644SOL    HW3 2575   1.838   1.135   1.538 -0.0622 -0.4693  0.4334
  644SOL    MW4 2576   1.814   1.144   1.455  0.0726 -0.2614  0.4170
  645SOL     OW 2577   0.046   2.774   0.591  0.0984 -0.3725 -0.6593
  645SOL    HW2 2578   0.136   2.751   0.610  0.0832  0.1859  0.1160
  645SOL    HW3 2579  -0.004   2.693   0.603  0.4542 -0.6114 -0.8129
  645SOL    MW4 2580   0.051   2.761   0.595  0.1433 -0.3303 -0.5773
  646SOL     OW 2581   1.244   2.907   0.190 -0.1859 -0.0278  0.2509
  646SOL    HW2 2582   1.166   2.875   0.145 -0.1121  0.1838 -0.0214
  646SOL    HW3 2583   1.213   2.932   0.277 -0.1819 -1.2095  0.6097
  646SOL    MW4 2584   1.230   2.906   0.196 -0.1756 -0.1558  0.2623
  647SOL     OW 2585   1.134   3.680   0.283  0.3736  0.4176 -0.1133
  647SOL    HW2 2586   1.147   3.772   0.303  0.3951  0.6155 -1.0183
  647SOL    HW3 2587   1.048   3.658   0.319 -0.1275  1.0814 -0.8997
  647SOL    MW4 2588   1.125   3.689   0.290  0.3103  0.5313 -0.3364
  648SOL     OW 2589   1.114   2.074   1.362 -0.1086 -0.2901  0.0146
  648SOL    HW2 2590   1.199   2.030   1.369  0.8411  1.4183 -0.4949
  648SOL    HW3 2591   1.105   2.093   1.269 -1.6577 -1.5633 -0.1287
  648SOL    MW4 2592   1.124   2.070   1.350 -0.1877 -0.2326 -0.0715
  649SOL     OW 2593   3.580   3.492   0.596 -0.1304 -0.2092  0.1067
  649SOL    HW2 2594   3.564   3.398   0.581 -0.2828 -0.6100  2.5795
  649SOL    HW3 2595   3.655   3.495   0.656  0.4031  1.2813 -0.6165
  649SOL    MW4 2596   3.588   3.480   0.602 -0.0801 -0.0654  0.3376
  650SOL     OW 2597   2.602   2.377   0.808 -0.1083 -0.1376 -0.2154
  650SOL    HW2 2598   2.556   2.304   0.767 -2.2311  1.0053  0.0503
  650SOL    HW3 2599   2.684   2.384   0.759 -1.2570 -0.7299 -2.2882
  650SOL    MW4 2600   2.606   2.368   0.796 -0.5399 -0.0650 -0.4538
  651SOL     OW 2601   2.691   3.247   1.059 -0.6009 -0.1830  0.2668
  651SOL    HW2 2602   2.710   3.159   1.026  0.9966 -0.7885  2.7415
  651SOL    HW3 2603   2.681   3.237   1.153 -1.6951  2.1020  0.4473
  651SOL    MW4 2604   2.692   3.234   1.067 -0.5345  0.0386  0.6171
  652SOL     OW 2605   1.588   2.060   1.139 -0.2989  0.6652 -0.5580
  652SOL    HW2 2606   1.666   2.107   1.111 -0.4682  0.6470 -1.0734
  652SOL    HW3 2607   1.515   2.106   1.097 -0.5207  0.3588 -0.5183
  652SOL    MW4 2608   1.589   2.072   1.130 -0.3505  0.6224 -0.6208
  653SOL     OW 2609   0.865   1.699   1.114 -0.5786  0.4207  0.8239
  653SOL    HW2 2610   0.876   1.612   1.077 -0.8277  0.6200  0.2777
  653SOL    HW3 2611   0.875   1.687   1.208 -0.9895 -0.2570  0.7806
  653SOL    MW4 2612   0.868   1.686   1.122 -0.6656  0.3575  0.7461
  654SOL     OW 2613   0.591   2.083   0.623  0.0373 -0.2923  0.5504
  654SOL    HW2 2614   0.496   2.099   0.621 -0.0042 -0.5929 -1.7509
  654SOL    HW3 2615   0.629   2.168   0.648 -0.6980  0.7777 -1.7765
  654SOL    MW4 2616   0.583   2.097   0.626 -0.0652 -0.1908 -0.0602
  655SOL     OW 2617   0.438   1.442   1.030 -0.2131  0.4531  0.0719
  655SOL    HW2 2618   0.419   1.420   0.938  0.0726 -1.4992  0.4447
  655SOL    HW3 2619   0.433   1.537   1.034 -0.1999  0.5646 -1.9856
  655SOL    MW4 2620   0.435   1.452   1.018 -0.1737  0.2103 -0.1504
  656SOL     OW 2621   1.314   2.802   0.615  0.1563 -0.3387 -0.5069
  656SOL    HW2 2622   1.316   2.718   0.661 -0.8507 -0.0118  0.1678
  656SOL    HW3 2623   1.356   2.863   0.675  1.7197 -0.5313 -1.3885
  656SOL    MW4 2624   1.320   2.799   0.629  0.2297 -0.3209 -0.5342
  657SOL     OW 2625   2.057   2.539   1.063 -0.3859 -0.4787 -0.7163
  657SOL    HW2 2626   1.971   2.514   1.096 -0.7456  0.5314 -0.8737
  657SOL    HW3 2627   2.045   2.549   0.968 -0.2580  0.3416 -0.6471
  657SOL    MW4 2628   2.044   2.537   1.055 -0.4165 -0.2372 -0.7280
  658SOL     OW 2629   0.909   2.992   0.698  0.0213  0.6133  0.0960
  658SOL    HW2 2630   0.935   2.903   0.673  0.5295  0.2868  1.7340
  658SOL    HW3 2631   0.898   2.988   0.793 -1.5167  1.9197 -0.0124
  658SOL    MW4 2632   0.911   2.980   0.707 -0.1146  0.7426  0.2978
  659SOL     OW 2633   3.407   0.189   0.966  0.4044 -0.2675  0.2574
  659SOL    HW2 2634   3.483   0.153   1.013  0.5664  0.4225  0.5272
  659SOL    HW3 2635   3.445   0.235   0.891  0.3828  1.5082  1.2988
  659SOL    MW4 2636   3.422   0.191   0.962  0.4229  0.0578  0.4304
  660SOL     OW 2637   2.889   4.426   1.385  0.2660 -0.1161 -0.5716
  660SOL    HW2 2638   2.890   4.376   1.303  0.6385  0.1190 -0.7147
  660SOL    HW3 2639   2.826   4.381   1.440  1.4855 -1.4801 -0.2543
  660SOL    MW4 2640   2.881   4.413   1.381  0.4760 -0.2650 -0.5486
  661SOL     OW 2641   2.263   4.006   1.367  0.1354 -0.2420 -0.3332
  661SOL    HW2 2642   2.252   4.099   1.387 -0.0021 -0.1490 -0.8280
  661SOL    HW3 2643   2.183   3.965   1.401  0.2129 -0.1879 -0.0803
  661SOL    MW4 2644   2.251   4.013   1.374  0.1275 -0.2226 -0.3651
  662SOL     OW 2645   2.911   0.584   0.517 -0.0974 -0.0549  0.5065
  662SOL    HW2 2646   2.985   0.598   0.575 -0.5439 -2.1003  1.6521
  662SOL    HW3 2647   2.949   0.582   0.429  1.1139 -0.4231  1.0263
  662SOL    MW4 2648   2.925   0.585   0.513  0.0035 -0.3734  0.7262
  663SOL     OW 2649   2.013   0.204   0.987  0.0424 -0.3677  0.0226
  663SOL    HW2 2650   2.100   0.169   0.973  0.2293 -1.3423  3.1730
  663SOL    HW3 2651   2.027   0.289   1.030 -0.5512 -0.1553 -0.1907
  663SOL    MW4 2652   2.026   0.211   0.991 -0.0112 -0.4683  0.4101
  664SOL     OW 2653   0.427   3.725   0.746 -0.0388  0.5739  0.1961
  664SOL    HW2 2654   0.490   3.781   0.701  0.1161 -0.5752 -1.0665
  664SOL    HW3 2655   0.342   3.763   0.724 -0.0066 -0.4234 -1.7437
  664SOL    MW4 2656   0.424   3.737   0.737 -0.0141  0.2908 -0.2264
  665SOL     OW 2657   4.266   4.404   1.368 -0.0858 -0.3688 -0.3016
  665SOL    HW2 2658   4.268   4.492   1.407  0.8175 -0.4790 -0.0975
  665SOL    HW3 2659   4.193   4.360   1.411 -0.2733  0.1424 -0.0949
  665SOL    MW4 2660   4.257   4.410   1.379  0.0087 -0.3159 -0.2474
  666SOL     OW 2661   1.623   1.530   1.794  0.5265 -0.2244  0.6109
  666SOL    HW2 2662   1.696   1.576   1.835  0.2414  1.7880 -1.0552
  666SOL    HW3 2663   1.545   1.566   1.837  0.2608  1.4912 -1.2099
  666SOL    MW4 2664   1.622   1.541   1.805  0.4538  0.2674  0.1508
  667SOL     OW 2665   1.340   4.020   0.604 -0.0960 -0.0850  0.2537
  667SOL    HW2 2666   1.278   4.063   0.664  0.2238  0.0891  0.4628
  667SOL    HW3 2667   1.426   4.039   0.641  0.1680  0.9275 -0.8351
  667SOL    MW4 2668   1.343   4.028   0.617 -0.0190  0.0716  0.1376
  668SOL     OW 2669   2.454   1.441   0.629 -0.0304  0.6076 -0.1507
  668SOL    HW2 2670   2.473   1.348   0.622  1.1950  0.9240 -1.3133
  668SOL    HW3 2671   2.436   1.468   0.538  0.3516  1.6504  0.0806
  668SOL    MW4 2672   2.454   1.432   0.616  0.1817  0.7870 -0.2735
  669SOL     OW 2673   3.147   4.530   0.260 -0.5417 -0.1518 -0.0116
  669SOL    HW2 2674   3.089   4.604   0.278 -0.1696  0.3350 -0.7798
  669SOL    HW3 2675   3.099   4.453   0.293 -0.8431  0.4434  0.9728
  669SOL    MW4 2676   3.133   4.530   0.267 -0.5324 -0.0091  0.0169
  670SOL     OW 2677   4.441   3.469   0.378 -0.2913 -0.2551  0.4216
  670SOL    HW2 2678   4.389   3.409   0.325 -0.1708 -0.4791  0.5557
  670SOL    HW3 2679   4.467   3.538   0.317  0.2616 -0.7665  0.0712
  670SOL    MW4 2680   4.438   3.470   0.363 -0.2024 -0.3521  0.3930
  671SOL     OW 2681   2.035   3.604   1.088 -0.7580 -0.3201  0.4982
  671SOL    HW2 2682   2.113   3.621   1.035  0.1352 -1.1262  1.5473
  671SOL    HW3 2683   1.969   3.664   1.052  0.7535  1.4587  0.5854
  671SOL    MW4 2684   2.036   3.614   1.076 -0.4407 -0.1918  0.6481
  672SOL     OW 2685   2.215   3.402   0.373  0.6983 -0.3712  0.5347
  672SOL    HW2 2686   2.188   3.458   0.300  1.1391 -0.0637  0.6029
  672SOL    HW3 2687   2.271   3.459   0.427  0.2562 -0.5532  1.1874
  672SOL    MW4 2688   2.219   3.417   0.371  0.6981 -0.3546  0.6298
  673SOL     OW 2689   2.267   1.715   1.100 -0.0207  0.0143 -0.0918
  673SOL    HW2 2690   2.186   1.748   1.060 -1.4535 -2.8472  0.3173
  673SOL    HW3 2691   2.247   1.711   1.194  0.9796  0.2604  0.1396
  673SOL    MW4 2692   2.254   1.719   1.107 -0.0778 -0.3308 -0.0073
  674SOL     OW 2693   2.233   0.880   1.124 -0.3840 -0.4392 -0.6439
  674SOL    HW2 2694   2.224   0.790   1.091 -2.3178 -0.0139 -1.3472
  674SOL    HW3 2695   2.303   0.918   1.071 -0.1983 -1.2305 -0.9769
  674SOL    MW4 2696   2.241   0.873   1.113 -0.6147 -0.4875 -0.7806
  675SOL     OW 2697   0.665   3.887   1.492  0.1004  0.0140 -0.4269
  675SOL    HW2 2698   0.697   3.799   1.475 -1.1637 -0.7391  0.9935
  675SOL    HW3 2699   0.639   3.886   1.584 -1.6146  1.3209 -0.8665
  675SOL    MW4 2700   0.665   3.875   1.502 -0.2926  0.0871 -0.2975
  676SOL     OW 2701   1.080   2.655   0.466  0.2812 -0.1071  0.5887
  676SOL    HW2 2702   1.071   2.617   0.379 -0.2080  0.3994  0.4116
  676SOL    HW3 2703   1.106   2.746   0.450 -0.5509  0.2001  0.9393
  676SOL    MW4 2704   1.082   2.662   0.453  0.1069  0.0003  0.6116
  677SOL     OW 2705   1.131   2.031   1.084 -0.0259 -0.3050  0.2577
  677SOL    HW2 2706   1.119   1.936   1.083  0.2386 -0.3696  2.0089
  677SOL    HW3 2707   1.052   2.066   1.042 -0.4081 -1.2745  0.1687
  677SOL    MW4 2708   1.119   2.023   1.078 -0.0415 -0.4414  0.4770
  678SOL     OW 2709   2.926   2.092   1.093  0.1879  0.1967  0.0769
  678SOL    HW2 2710   2.856   2.152   1.068  2.5716  2.9993 -0.1077
  678SOL    HW3 2711   2.916   2.080   1.187 -0.4195  0.7332  0.0751
  678SOL    MW4 2712   2.916   2.098   1.102  0.4222  0.6372  0.0523
  679SOL     OW 2713   4.473   1.401   0.952  0.1140  0.4132 -0.4352
  679SOL    HW2 2714   4.462   1.490   0.986 -0.1255  0.0396  0.4769
  679SOL    HW3 2715   4.549   1.366   0.999 -2.4714 -1.4307  2.5815
  679SOL    MW4 2716   4.481   1.408   0.963 -0.2587  0.1206  0.0832
  680SOL     OW 2717   3.538   4.184   0.456  0.0689  0.2508  0.4078
  680SOL    HW2 2718   3.576   4.265   0.491  3.8177 -1.9572  1.7933
  680SOL    HW3 2719   3.508   4.137   0.534 -0.8530 -0.2768 -0.2686
  680SOL    MW4 2720   3.539   4.189   0.471  0.4419 -0.1101  0.5013
  681SOL     OW 2721   3.594   3.768   0.976 -0.3337 -0.1550 -0.1470
  681SOL    HW2 2722   3.616   3.861   0.975 -1.2485  0.0531 -1.4343
  681SOL    HW3 2723   3.561   3.750   0.888 -0.5589 -1.6029  0.2217
  681SOL    MW4 2724   3.593   3.778   0.964 -0.4841 -0.3186 -0.2682
  682SOL     OW 2725   3.339   4.437   0.945 -0.1514  0.4912 -0.1446
  682SOL    HW2 2726   3.261   4.475   0.987 -0.4900 -0.8609  0.4778
  682SOL    HW3 2727   3.409   4.448   1.009 -0.0708  0.7629 -0.2792
  682SOL    MW4 2728   3.338   4.443   0.959 -0.1854  0.3486 -0.0802
  683SOL     OW 2729   1.925   0.816   0.648 -0.1168 -0.7262 -0.3962
  683SOL    HW2 2730   1.965   0.831   0.563  1.8353 -0.4441  0.5434
  683SOL    HW3 2731   1.980   0.749   0.689 -1.2858 -1.1770  0.4684
  683SOL    MW4 2732   1.938   0.809   0.642 -0.0135 -0.7485 -0.1581
  684SOL     OW 2733   0.082   1.943   0.345 -0.2011  0.2175 -0.0640
  684SOL    HW2 2734   0.068   1.854   0.376 -0.1040 -0.0911 -0.8882
  684SOL    HW3 2735  -0.004   1.971   0.313 -0.2877  0.5114  0.4195
  684SOL    MW4 2736   0.068   1.935   0.345 -0.1997  0.2155 -0.1090
  685SOL     OW 2737   3.057   3.769   0.779 -0.1838  0.4556 -0.0666
  685SOL    HW2 2738   3.078   3.783   0.872 -3.4748 -0.7250  0.9325
  685SOL    HW3 2739   3.099   3.686   0.757  1.3600  1.1747  0.0735
  685SOL    MW4 2740   3.065   3.760   0.788 -0.4143  0.3947  0.0837
  686SOL     OW 2741   4.273   1.823   1.000 -0.0732 -0.2643  0.1713
  686SOL    HW2 2742   4.239   1.846   0.913 -1.8691  0.4241  1.0139
  686SOL    HW3 2743   4.202   1.773   1.041 -0.6926  2.3990  2.5179
  686SOL    MW4 2744   4.259   1.819   0.994 -0.3919  0.1779  0.5921
  687SOL     OW 2745   3.613   2.454   0.311 -0.1826  0.2398 -0.1780
  687SOL    HW2 2746   3.558   2.510   0.365  0.0689  0.4794 -0.1751
  687SOL    HW3 2747   3.653   2.513   0.247  1.2882  0.3027  0.7832
  687SOL    MW4 2748   3.611   2.469   0.309  0.0446  0.2797 -0.0508
  688SOL     OW 2749   3.155   0.138   1.095 -0.3515  0.1181  0.5424
  688SOL    HW2 2750   3.238   0.139   1.048  0.1492  2.3885  1.4199
  688SOL    HW3 2751   3.094   0.184   1.037 -0.2986  0.8878  1.0883
  688SOL    MW4 2752   3.158   0.144   1.081 -0.2784  0.5192  0.7302
  689SOL     OW 2753   3.868   2.067   1.056  0.1022  0.4103 -0.0613
  689SOL    HW2 2754   3.863   2.049   1.150 -1.9413 -1.0780 -0.4108
  689SOL    HW3 2755   3.874   1.980   1.015 -2.7011  0.8158 -1.4530
  689SOL    MW4 2756   3.868   2.053   1.063 -0.5373  0.2675 -0.2910
  690SOL     OW 2757   2.471   2.079   1.401 -0.1780  0.0463  0.3499
  690SOL    HW2 2758   2.467   2.088   1.305  1.9871  0.5695  0.2710
  690SOL    HW3 2759   2.478   2.168   1.434 -0.4252 -0.1567  0.9573
  690SOL    MW4 2760   2.472   2.092   1.392  0.0750  0.0885  0.4196
  691SOL     OW 2761   0.389   3.481   0.339 -0.1144 -0.5502  0.2735
  691SOL    HW2 2762   0.402   3.481   0.434  1.2327  0.1962  0.0973
  691SOL    HW3 2763   0.447   3.411   0.308 -0.5193 -0.7619 -0.0068
  691SOL    MW4 2764   0.399   3.471   0.347  0.0099 -0.4797  0.2133
  692SOL     OW 2765   4.268   0.801   0.476  0.0307 -0.0044  0.0973
  692SOL    HW2 2766   4.279   0.834   0.565 -1.1666  0.0796  0.2140
  692SOL    HW3 2767   4.320   0.720   0.475  1.3786  0.8461  0.3747
  692SOL    MW4 2768   4.276   0.794   0.487  0.0506  0.1189  0.1493
  693SOL     OW 2769   1.335   1.640   0.562 -0.0655 -0.4028 -0.0034
  693SOL    HW2 2770   1.281   1.682   0.495 -0.1682  0.9941  0.9374
  693SOL    HW3 2771   1.321   1.693   0.641  2.6124 -0.0188  0.2772
  693SOL    MW4 2772   1.326   1.653   0.564  0.2743 -0.1678  0.1577
  694SOL     OW 2773   3.437   0.987   0.723 -0.4224 -0.3666 -0.1738
  694SOL    HW2 2774   3.438   1.004   0.817  0.3461  0.6638 -0.3561
  694SOL    HW3 2775   3.345   0.969   0.704 -0.8046  0.7091  0.5643
  694SOL    MW4 2776   3.425   0.987   0.733 -0.3715 -0.0887 -0.1005
  695SOL     OW 2777   3.146   1.688   1.069  0.3588  0.1005 -0.1109
  695SOL    HW2 2778   3.138   1.599   1.034 -1.4488 -0.3484  1.3267
  695SOL    HW3 2779   3.075   1.737   1.029 -0.0744  0.2773  0.8503
  695SOL    MW4 2780   3.136   1.682   1.059  0.0631  0.0646  0.2056
  696SOL     OW 2781   0.696   3.619   1.088  0.3642 -0.3152  0.7346
  696SOL    HW2 2782   0.762   3.676   1.048  0.6656 -1.3476 -0.2503
  696SOL    HW3 2783   0.689   3.544   1.029 -1.2844 -0.4952  1.1190
  696SOL    MW4 2784   0.703   3.617   1.075  0.1864 -0.4751  0.6554
  697SOL     OW 2785   4.097   3.779   0.615 -0.1737  0.2125 -0.2637
  697SOL    HW2 2786   4.146   3.862   0.612  3.6496 -1.9555 -0.7719
  697SOL    HW3 2787   4.086   3.754   0.523  1.2006 -1.2502 -0.0324
  697SOL    MW4 2788   4.102   3.787   0.603  0.5120 -0.2665 -0.3002
  698SOL     OW 2789   1.001   0.922   0.365 -0.3096 -0.2676  0.3968
  698SOL    HW2 2790   0.918   0.876   0.356 -0.6827  0.5177 -0.1904
  698SOL    HW3 2791   1.023   0.914   0.458 -0.5807 -1.2566  0.3809
  698SOL    MW4 2792   0.993   0.915   0.376 -0.3946 -0.2945  0.3172
  699SOL     OW 2793   0.881   2.364   0.234  0.1727 -0.1095 -0.1856
  699SOL    HW2 2794   0.815   2.311   0.190 -0.1091 -0.0855  0.2103
  699SOL    HW3 2795   0.831   2.427   0.286  0.4752 -1.5290  1.8809
  699SOL    MW4 2796   0.866   2.365   0.235  0.1754 -0.2936  0.1393
  700SOL     OW 2797   3.148   3.797   1.044 -0.0901  0.4091 -0.0481
  700SOL    HW2 2798   3.223   3.739   1.056  0.1465  0.8752  0.7855
  700SOL    HW3 2799   3.172   3.877   1.090  0.0799  1.6275 -2.2222
  700SOL    MW4 2800   3.161   3.800   1.052 -0.0365  0.6314 -0.2250
  701SOL     OW 2801   4.092   4.506   0.362 -0.1354  0.3075 -0.1444
  701SOL    HW2 2802   4.123   4.537   0.447 -1.1284 -0.9303  0.6870
  701SOL    HW3 2803   4.087   4.585   0.308  1.3080  0.9844  0.6809
  701SOL    MW4 2804   4.095   4.521   0.366 -0.0760  0.2335  0.0742
  702SOL     OW 2805   2.473   1.332   1.055  0.0943  0.1461 -0.2579
  702SOL    HW2 2806   2.390   1.374   1.033 -0.2871 -0.2060  0.4763
  702SOL    HW3 2807   2.479   1.339   1.151 -0.3671 -2.1431 -0.0298
  702SOL    MW4 2808   2.463   1.338   1.065 -0.0169 -0.2024 -0.1310
  703SOL     OW 2809   2.483   0.724   0.308  0.5278 -0.0307  0.3023
  703SOL    HW2 2810   2.439   0.642   0.331  0.0788 -0.2725 -1.3142
  703SOL    HW3 2811   2.502   0.715   0.214  2.7587  0.6625  0.6586
  703SOL    MW4 2812   2.479   0.712   0.299  0.7629  0.0288  0.1360
  704SOL     OW 2813   0.591   2.165   0.345  0.0611  0.3013 -0.1887
  704SOL    HW2 2814   0.603   2.142   0.437  1.5510  2.4012  0.1634
  704SOL    HW3 2815   0.510   2.119   0.320 -0.1625 -0.5968  2.0416
  704SOL    MW4 2816   0.582   2.156   0.354  0.2282  0.4599  0.1520
  705SOL     OW 2817   0.461   2.336   0.697  0.1142  0.2823 -0.0749
  705SOL    HW2 2818   0.421   2.417   0.729 -1.9590 -1.3119  1.4946
  705SOL    HW3 2819   0.467   2.280   0.774  2.1544 -0.8389 -1.0053
  705SOL    MW4 2820   0.457   2.340   0.711  0.1098 -0.0760  0.0094
  706SOL     OW 2821   0.856   3.862   0.764  0.2044 -0.0022  0.0384
  706SOL    HW2 2822   0.909   3.801   0.713 -0.8588 -2.7379  2.1029
  706SOL    HW3 2823   0.774   3.869   0.715  0.8645  0.9361 -0.9548
  706SOL    MW4 2824   0.852   3.855   0.751  0.1512 -0.2393  0.1798
  707SOL     OW 2825   2.137   2.828   0.181  0.5046  0.1182 -0.0726
  707SOL    HW2 2826   2.155   2.774   0.258 -0.4252 -0.5606 -0.3232
  707SOL    HW3 2827   2.178   2.912   0.200 -1.9849  0.8427  2.2912
  707SOL    MW4 2828   2.145   2.832   0.194  0.0534  0.1242  0.2062
  708SOL     OW 2829   2.493   0.509   1.351 -0.0068  0.0269  0.1895
  708SOL    HW2 2830   2.563   0.456   1.390  0.4379 -0.4121 -1.1684
  708SOL    HW3 2831   2.413   0.475   1.390  0.3101 -1.4025 -0.3846
  708SOL    MW4 2832   2.492   0.497   1.361  0.0937 -0.2196 -0.0654
  709SOL     OW 2833   1.989   4.620   1.400 -0.1361 -0.0081  0.0074
  709SOL    HW2 2834   1.994   4.645   1.492 -0.0858  0.9617 -0.2426
  709SOL    HW3 2835   1.994   4.525   1.399  0.5681  0.0198  0.9579
  709SOL    MW4 2836   1.990   4.611   1.412 -0.0366  0.1235  0.0998
  710SOL     OW 2837   1.182   4.163   0.777  0.4862  0.3351 -0.0775
  710SOL    HW2 2838   1.201   4.256   0.760 -0.0597  0.6015  0.7163
  710SOL    HW3 2839   1.183   4.155   0.872  0.5518 -0.4827 -0.1436
  710SOL    MW4 2840   1.184   4.175   0.787  0.4228  0.2624  0.0185
  711SOL     OW 2841   1.825   3.209   1.376 -0.2726 -0.2573  0.1852
  711SOL    HW2 2842   1.814   3.201   1.281 -1.2394 -1.0263  0.3642
  711SOL    HW3 2843   1.898   3.150   1.396  0.1372  0.1374 -0.1107
  711SOL    MW4 2844   1.833   3.200   1.366 -0.3461 -0.3067  0.1698
  712SOL     OW 2845   3.101   4.031   1.352 -0.0205  0.3234 -0.4940
  712SOL    HW2 2846   3.025   3.983   1.386  0.4370  0.2816  0.4872
  712SOL    HW3 2847   3.177   3.984   1.387  0.4492  2.8278  2.0691
  712SOL    MW4 2848   3.101   4.019   1.361  0.1019  0.6483 -0.0263
  713SOL     OW 2849   1.367   3.745   0.659 -0.4544 -0.2292  0.6359
  713SOL    HW2 2850   1.376   3.752   0.754  1.1687 -2.0352  0.6300
  713SOL    HW3 2851   1.369   3.836   0.628  1.5596  0.2511  2.1074
  713SOL    MW4 2852   1.368   3.758   0.668  0.0255 -0.4041  0.8293
  714SOL     OW 2853   2.679   3.218   1.353 -0.0883 -0.0169 -0.1798
  714SOL    HW2 2854   2.609   3.166   1.392 -0.2635  0.3253 -0.0383
  714SOL    HW3 2855   2.758   3.191   1.399 -0.1341 -0.3772 -0.3157
  714SOL    MW4 2856   2.680   3.208   1.364 -0.1175 -0.0193 -0.1790
  715SOL     OW 2857   4.053   3.774   1.031  0.1307  0.1983 -0.0310
  715SOL    HW2 2858   4.133   3.730   1.062  0.1188  0.5779  0.5360
  715SOL    HW3 2859   3.982   3.730   1.077  0.2545  2.1508  2.0996
  715SOL    MW4 2860   4.054   3.762   1.041  0.1454  0.5060  0.3249
  716SOL     OW 2861   0.849   4.310   1.501  0.5320 -0.3172 -0.1355
  716SOL    HW2 2862   0.863   4.312   1.595  1.8215 -0.2140 -0.3237
  716SOL    HW3 2863   0.936   4.322   1.463  0.0303 -0.3834 -1.3378
  716SOL    MW4 2864   0.862   4.312   1.508  0.6360 -0.3123 -0.3190
  717SOL     OW 2865   0.887   3.626   0.422  0.4496  0.1836 -0.1624
  717SOL    HW2 2866   0.809   3.668   0.387  0.8473  0.6479 -0.4949
  717SOL    HW3 2867   0.909   3.677   0.500  1.0779  0.7711 -0.7051
  717SOL    MW4 2868   0.880   3.638   0.428  0.5850  0.3224 -0.2779
  718SOL     OW 2869   1.128   4.662   0.370 -0.2520  0.1945 -0.3471
  718SOL    HW2 2870   1.040   4.679   0.339 -0.3835  0.4310  0.1438
  718SOL    HW3 2871   1.132   4.566   0.379 -0.6886  0.2318  0.2871
  718SOL    MW4 2872   1.117   4.651   0.367 -0.3270  0.2306 -0.1987
  719SOL     OW 2873   2.937   2.889   1.345 -0.3010 -0.5869 -0.2067
  719SOL    HW2 2874   2.918   2.969   1.394 -0.3840  0.4748 -1.9192
  719SOL    HW3 2875   2.995   2.839   1.402  0.3868  1.0580  0.5773
  719SOL    MW4 2876   2.942   2.893   1.359 -0.2212 -0.2298 -0.3292
  720SOL     OW 2877   1.994   4.354   1.366  0.2434  0.0119  0.4026
  720SOL    HW2 2878   1.912   4.311   1.392  1.5687 -2.7725  0.2470
  720SOL    HW3 2879   1.989   4.360   1.271 -0.2033  0.7572  0.4721
  720SOL    MW4 2880   1.983   4.349   1.357  0.3593 -0.2571  0.3912
  721SOL     OW 2881   0.885   2.713   1.460  0.2207  0.5702  0.3381
  721SOL    HW2 2882   0.805   2.756   1.431  1.5072  1.9739 -1.2914
  721SOL    HW3 2883   0.889   2.731   1.554 -1.2738  0.6287  0.4034
  721SOL    MW4 2884   0.875   2.721   1.468  0.1932  0.7631  0.1317
  722SOL     OW 2885   0.019   3.955   1.322 -0.3861 -0.3482  0.0142
  722SOL    HW2 2886   0.101   3.934   1.367 -0.3786 -0.3291  0.0088
  722SOL    HW3 2887   0.001   4.046   1.344  0.3079  0.0667 -1.1008
  722SOL    MW4 2888   0.027   3.964   1.331 -0.2935 -0.2909 -0.1336
  723SOL     OW 2889   1.794   1.666   1.095  0.0604  0.0691 -0.3843
  723SOL    HW2 2890   1.721   1.725   1.075 -0.0399  0.1949  0.3140
  723SOL    HW3 2891   1.790   1.656   1.190  0.2441 -0.8576 -0.4779
  723SOL    MW4 2892   1.784   1.673   1.105  0.0714 -0.0366 -0.3045
  724SOL     OW 2893   1.823   2.372   0.204  0.0903 -0.0976  0.0728
  724SOL    HW2 2894   1.783   2.307   0.262  1.4015 -1.0316 -0.0528
  724SOL    HW3 2895   1.917   2.356   0.211  0.2705 -0.2177 -2.2866
  724SOL    MW4 2896   1.830   2.361   0.212  0.2871 -0.2367 -0.2550
  725SOL     OW 2897   2.883   3.441   0.686  0.0463 -0.1463  0.1974
  725SOL    HW2 2898   2.854   3.352   0.665 -0.8243 -0.0017  0.7300
  725SOL    HW3 2899   2.883   3.486   0.601  0.9227 -0.7670 -0.1398
  725SOL    MW4 2900   2.879   3.435   0.672  0.0471 -0.2091  0.2232
  726SOL     OW 2901   1.737   0.417   0.353  0.0407  0.2856 -0.2337
  726SOL    HW2 2902   1.718   0.357   0.281  0.0458  0.6961 -0.5861
  726SOL    HW3 2903   1.789   0.367   0.414  1.3438  0.3797 -1.2519
  726SOL    MW4 2904   1.741   0.403   0.351  0.2133  0.3522 -0.4146
  727SOL     OW 2905   3.497   1.215   0.548  0.1657 -0.1798 -0.5654
  727SOL    HW2 2906   3.512   1.144   0.612 -1.1949 -0.3189 -0.3995
  727SOL    HW3 2907   3.574   1.212   0.492  1.1476 -0.3926  0.7569
  727SOL    MW4 2908   3.509   1.205   0.549  0.1158 -0.2262 -0.3691
  728SOL     OW 2909   2.897   4.355   1.102  0.3106  0.0005  0.5076
  728SOL    HW2 2910   2.968   4.419   1.089 -0.3333  0.3685 -1.4865
  728SOL    HW3 2911   2.927   4.277   1.056 -0.2493 -0.0881  0.2870
  728SOL    MW4 2912   2.910   4.353   1.094  0.1518  0.0373  0.2154
  729SOL     OW 2913   3.667   0.846   0.395  0.1107 -0.0047  0.5747
  729SOL    HW2 2914   3.698   0.898   0.470 -0.6455  1.8184 -0.3323
  729SOL    HW3 2915   3.575   0.831   0.413  0.4540 -1.5798  1.1103
  729SOL    MW4 2916   3.659   0.851   0.407  0.0562  0.0280  0.5257
  730SOL     OW 2917   2.041   1.712   0.239  0.4833  0.1220  0.5500
  730SOL    HW2 2918   2.014   1.782   0.180 -0.9176 -1.7836 -1.1330
  730SOL    HW3 2919   1.960   1.682   0.279  1.0082 -0.8203  0.9249
  730SOL    MW4 2920   2.027   1.718   0.236  0.3677 -0.2537  0.3774
  731SOL     OW 2921   1.134   3.412   0.992 -0.2520 -0.2643 -0.5310
  731SOL    HW2 2922   1.141   3.416   0.896  2.9485  0.3790 -0.3202
  731SOL    HW3 2923   1.124   3.503   1.019 -0.8708 -0.4221 -0.2196
  731SOL    MW4 2924   1.133   3.425   0.983  0.0887 -0.2002 -0.4621
  732SOL     OW 2925   3.608   3.890   0.424  0.1794 -0.6315  0.4054
  732SOL    HW2 2926   3.654   3.856   0.347  0.9870  0.5570  0.3433
  732SOL    HW3 2927   3.670   3.878   0.495  0.4987  0.7608  0.3685
  732SOL    MW4 2928   3.622   3.884   0.423  0.3281 -0.2910  0.3924
  733SOL     OW 2929   2.249   2.972   1.020 -0.1735  0.3247 -0.1573
  733SOL    HW2 2930   2.278   2.939   0.935  0.6530 -0.7657  0.5382
  733SOL    HW3 2931   2.179   2.912   1.047 -0.3988  0.6390 -0.0387
  733SOL    MW4 2932   2.243   2.960   1.012 -0.0941  0.2223 -0.0499
  734SOL     OW 2933   0.238   2.106   1.357 -0.0074  0.4810  0.0823
  734SOL    HW2 2934   0.240   2.103   1.261 -1.0812  3.1872 -0.0539
  734SOL    HW3 2935   0.316   2.058   1.384  0.9270  0.6713 -2.1801
  734SOL    MW4 2936   0.249   2.099   1.348 -0.0258  0.8632 -0.2341
  735SOL     OW 2937   3.768   0.374   0.381  0.3313 -0.1036 -0.1582
  735SOL    HW2 2938   3.703   0.309   0.352 -0.8753  0.4656  1.1987
  735SOL    HW3 2939   3.730   0.458   0.358  1.1707  0.1939 -0.4758
  735SOL    MW4 2940   3.754   0.376   0.374  0.2829  0.0108 -0.0211
  736SOL     OW 2941   0.687   1.829   0.701 -0.3155 -0.7383  0.2411
  736SOL    HW2 2942   0.781   1.843   0.685 -0.4263  0.0155  0.2145
  736SOL    HW3 2943   0.647   1.914   0.680 -0.8669 -0.7373  1.3083
  736SOL    MW4 2944   0.694   1.842   0.696 -0.4029 -0.6387  0.3784
  737SOL     OW 2945   3.612   4.225   1.443 -0.1001 -0.1857  0.2860
  737SOL    HW2 2946   3.613   4.217   1.538 -1.2968  1.2372  0.4328
  737SOL    HW3 2947   3.684   4.284   1.422 -0.8798  0.8266  0.4478
  737SOL    MW4 2948   3.622   4.232   1.452 -0.3609  0.1356  0.3268
  738SOL     OW 2949   3.380   4.543   0.510  0.6747  0.2758  0.3902
  738SOL    HW2 2950   3.366   4.535   0.415 -0.2432 -0.0365  0.5510
  738SOL    HW3 2951   3.466   4.505   0.525 -0.5822 -2.8180  0.1477
  738SOL    MW4 2952   3.390   4.537   0.499  0.3878 -0.1736  0.3794
  739SOL     OW 2953   2.779   1.897   0.086  0.1226 -0.1358 -0.2475
  739SOL    HW2 2954   2.871   1.893   0.061  0.2905 -0.2275  0.3605
  739SOL    HW3 2955   2.766   1.818   0.138 -0.6718 -0.8590 -1.5315
  739SOL    MW4 2956   2.790   1.886   0.090  0.0400 -0.2433 -0.3367
  740SOL     OW 2957   2.625   4.473   0.178  0.1062 -0.5902 -0.1303
  740SOL    HW2 2958   2.648   4.534   0.108  1.9925  0.5428  1.4133
  740SOL    HW3 2959   2.553   4.516   0.225  0.9133  0.1048  0.4831
  740SOL    MW4 2960   2.618   4.487   0.175  0.4616 -0.3490  0.1543
  741SOL     OW 2961   0.642   2.355   1.770 -0.2967  0.7539  0.3362
  741SOL    HW2 2962   0.660   2.371   1.677 -1.4667  0.5500  0.0725
  741SOL    HW3 2963   0.656   2.260   1.781 -0.9264  0.6410  0.1891
  741SOL    MW4 2964   0.647   2.344   1.759 -0.5341  0.7121  0.2820
  742SOL     OW 2965   4.244   2.325   1.430  0.3378  0.3548  0.5621
  742SOL    HW2 2966   4.323   2.376   1.415 -1.2307  2.5020 -0.6472
  742SOL    HW3 2967   4.236   2.321   1.526  2.3308 -0.6488  0.7318
  742SOL    MW4 2968   4.254   2.331   1.441  0.3938  0.5057  0.4250
  743SOL     OW 2969   0.014   1.181   0.570 -0.1595  0.5385  0.5435
  743SOL    HW2 2970  -0.018   1.263   0.532 -0.3198  0.3228  0.2049
  743SOL    HW3 2971  -0.015   1.113   0.508  2.0473  0.4477 -0.4568
  743SOL    MW4 2972   0.006   1.182   0.557  0.1105  0.4980  0.3669
  744SOL     OW 2973   3.057   1.934   0.002  0.1081 -0.6682  0.2295
  744SOL    HW2 2974   3.119   1.933  -0.072  0.6254 -1.6022  0.6657
  744SOL    HW3 2975   3.113   1.927   0.079 -0.4950 -0.5644  0.6736
  744SOL    MW4 2976   3.073   1.933   0.002  0.0968 -0.7778  0.3457
  745SOL     OW 2977   4.488   1.660   1.064  0.3300  0.3539 -0.2516
  745SOL    HW2 2978   4.421   1.724   1.039  0.8677  0.2858 -1.9684
  745SOL    HW3 2979   4.492   1.665   1.159 -0.2841  2.2349 -0.2957
  745SOL    MW4 2980   4.480   1.669   1.073  0.3199  0.5931 -0.4839
  746SOL     OW 2981   0.430   2.755   1.448 -0.3655 -0.2045 -0.2390
  746SOL    HW2 2982   0.441   2.662   1.429 -0.6014 -0.6321  1.5766
  746SOL    HW3 2983   0.441   2.761   1.543  0.1090  1.6890 -0.3968
  746SOL    MW4 2984   0.433   2.744   1.458 -0.3340 -0.0111 -0.0203
  747SOL     OW 2985   1.985   0.845   0.393  0.3141 -0.1427 -0.0469
  747SOL    HW2 2986   1.954   0.921   0.344  1.5742  1.0244  0.8926
  747SOL    HW3 2987   2.080   0.848   0.383  0.5582 -0.1449  2.0280
  747SOL    MW4 2988   1.993   0.856   0.386  0.5126  0.0110  0.3508
  748SOL     OW 2989   1.625   3.491   0.048 -0.3304  0.0244 -0.0916
  748SOL    HW2 2990   1.556   3.553   0.022 -1.0515 -0.7175  0.0174
  748SOL    HW3 2991   1.597   3.407   0.010  1.6886  0.1631 -1.9699
  748SOL    MW4 2992   1.612   3.488   0.040 -0.1592 -0.0552 -0.3251
  749SOL     OW 2993   1.676   0.706   0.372 -0.0511 -0.1849 -0.1152
  749SOL    HW2 2994   1.674   0.726   0.466 -0.4116 -1.9495  0.2651
  749SOL    HW3 2995   1.673   0.611   0.368  1.8269 -0.1915 -1.8855
  749SOL    MW4 2996   1.675   0.696   0.384  0.1491 -0.4186 -0.2986
  750SOL     OW 2997   3.149   0.948   0.694 -0.3226 -0.7277 -0.5584
  750SOL    HW2 2998   3.124   0.962   0.603 -0.1957 -0.6754 -0.5848
  750SOL    HW3 2999   3.143   0.853   0.706  2.7107 -1.0632 -1.5018
  750SOL    MW4 3000   3.145   0.937   0.684  0.0943 -0.7650 -0.6863
  751SOL     OW 3001   0.289   2.033   0.592  0.2071 -0.0777 -0.2248
  751SOL    HW2 3002   0.232   2.094   0.544 -0.2149 -0.5893 -0.3815
  751SOL    HW3 3003   0.228   1.972   0.634  0.5842  0.2527  0.8110
  751SOL    MW4 3004   0.273   2.033   0.591  0.2012 -0.1016 -0.1088
  752SOL     OW 3005   1.770   0.116   1.376 -0.1612  0.1695  0.2215
  752SOL    HW2 3006   1.856   0.074   1.375  0.0262  0.5518  0.0128
  752SOL    HW3 3007   1.742   0.115   1.284 -0.3397  0.1239  0.2774
  752SOL    MW4 3008   1.778   0.110   1.364 -0.1600  0.2139  0.2014
  753SOL     OW 3009   1.221   4.423   0.747 -0.2973 -0.3023 -0.5713
  753SOL    HW2 3010   1.131   4.457   0.748  0.3670  1.4917 -0.2790
  753SOL    HW3 3011   1.258   4.450   0.830  0.9821  0.2328 -1.2999
  753SOL    MW4 3012   1.214   4.431   0.758 -0.0408  0.0050 -0.6289
  754SOL     OW 3013   1.342   0.091   1.392  0.5372 -0.2178 -0.5645
  754SOL    HW2 3014   1.426   0.047   1.402 -0.0943 -1.4633 -0.6200
  754SOL    HW3 3015   1.326   0.092   1.297  0.8840  0.7990 -0.6235
  754SOL    MW4 3016   1.351   0.085   1.381  0.4996 -0.2480 -0.5796
  755SOL     OW 3017   2.639   4.622   0.701 -0.3275  0.2674 -0.0751
  755SOL    HW2 3018   2.673   4.590   0.785  1.9463 -0.9549 -1.4279
  755SOL    HW3 3019   2.562   4.568   0.685  0.6934 -1.2608  0.0190
  755SOL    MW4 3020   2.633   4.611   0.710  0.1072 -0.0955 -0.2412
  756SOL     OW 3021   4.053   3.049   0.911  0.1763  0.1026 -0.2655
  756SOL    HW2 3022   3.967   3.025   0.944  0.7421 -2.9087 -0.8048
  756SOL    HW3 3023   4.114   2.993   0.959  1.8468  2.0228 -0.0481
  756SOL    MW4 3024   4.050   3.038   0.922  0.4714 -0.0414 -0.3080
  757SOL     OW 3025   1.613   2.060   1.413 -0.2650  0.2530 -0.4094
  757SOL    HW2 3026   1.610   2.044   1.318  0.6716  0.2432 -0.4426
  757SOL    HW3 3027   1.678   1.997   1.445 -0.2898  0.5313  0.1850
  757SOL    MW4 3028   1.621   2.049   1.404 -0.1447  0.2884 -0.3354
  758SOL     OW 3029   1.405   1.117   1.773 -0.2714  0.3900 -0.2370
  758SOL    HW2 3030   1.400   1.034   1.820 -0.7910 -0.1227 -1.1798
  758SOL    HW3 3031   1.320   1.159   1.787 -0.1955  0.5316 -0.1918
  758SOL    MW4 3032   1.393   1.112   1.781 -0.3299  0.3410 -0.3554
  759SOL     OW 3033   3.046   1.101   0.231  0.2036 -0.3578  0.0724
  759SOL    HW2 3034   2.972   1.151   0.266  0.1642  0.0764 -0.6320
  759SOL    HW3 3035   3.123   1.148   0.261  0.1520  0.6132 -1.3197
  759SOL    MW4 3036   3.046   1.114   0.240  0.1916 -0.1724 -0.2042
  760SOL     OW 3037   0.846   0.155   0.349 -0.0307  0.3222 -0.5542
  760SOL    HW2 3038   0.808   0.109   0.274  0.9869 -1.3474 -0.0517
  760SOL    HW3 3039   0.890   0.231   0.311 -2.1234  1.1695 -1.3429
  760SOL    MW4 3040   0.847   0.159   0.334 -0.1726  0.2137 -0.5920
  761SOL     OW 3041   3.624   0.069   1.126 -0.1639  0.2475 -0.3246
  761SOL    HW2 3042   3.714   0.083   1.099  0.6303 -2.7107  0.6026
  761SOL    HW3 3043   3.621   0.097   1.217 -0.0113 -0.2347 -0.1693
  761SOL    MW4 3044   3.635   0.075   1.134 -0.0390 -0.2064 -0.1817
  762SOL     OW 3045   3.164   4.005   0.329  0.0678 -0.1554  0.8255
  762SOL    HW2 3046   3.202   3.985   0.414 -0.3384  3.8512  2.0440
  762SOL    HW3 3047   3.227   4.064   0.287 -0.7926 -0.3005 -0.7310
  762SOL    MW4 3048   3.177   4.010   0.334 -0.0993  0.3541  0.7809
  763SOL     OW 3049   3.145   0.361   1.466  0.2624  0.2886  0.5434
  763SOL    HW2 3050   3.140   0.276   1.422  1.2285  0.6422 -0.2809
  763SOL    HW3 3051   3.093   0.419   1.411  2.4738  1.0122 -0.8628
  763SOL    MW4 3052   3.138   0.357   1.453  0.6816  0.4307  0.2491
  764SOL     OW 3053   4.054   2.511   1.350 -0.0264  0.0633 -0.7268
  764SOL    HW2 3054   3.973   2.475   1.387  1.0654 -0.3098  1.3942
  764SOL    HW3 3055   4.121   2.448   1.375  1.4647  2.1200  0.6050
  764SOL    MW4 3056   4.052   2.498   1.358  0.3144  0.2854 -0.2713
  765SOL     OW 3057   2.672   3.459   1.754 -0.1230  0.1923  0.1516
  765SOL    HW2 3058   2.581   3.486   1.765  0.0576  1.0816 -0.5166
  765SOL    HW3 3059   2.685   3.454   1.660  0.8017  1.0231  0.2276
  765SOL    MW4 3060   2.662   3.462   1.743  0.0228  0.4192  0.0735
  766SOL     OW 3061   4.476   2.486   1.382 -0.2588 -0.0096 -0.2845
  766SOL    HW2 3062   4.492   2.578   1.403 -1.1476  0.0466  0.1488
  766SOL    HW3 3063   4.561   2.443   1.394 -0.1942  0.4715  0.9619
  766SOL    MW4 3064   4.490   2.493   1.386 -0.3675  0.0613 -0.0629
  767SOL     OW 3065   1.986   1.313   1.124  0.0645 -0.0797 -0.3417
  767SOL    HW2 3066   1.983   1.224   1.089 -0.6826 -0.7797  1.4488
  767SOL    HW3 3067   2.012   1.302   1.215 -0.7087  1.4806  0.0877
  767SOL    MW4 3068   1.989   1.300   1.131 -0.1361  0.0338 -0.0488
  768SOL     OW 3069   0.996   1.083   0.819 -0.1461  0.0530 -0.3710
  768SOL    HW2 3070   1.017   1.058   0.909 -3.1950  0.3230  0.4692
  768SOL    HW3 3071   1.039   1.168   0.807  0.4102 -0.0652  0.7685
  768SOL    MW4 3072   1.004   1.091   0.829 -0.4750  0.0730 -0.1098
  769SOL     OW 3073   0.621   1.526   0.200  0.0158  0.1440 -0.2536
  769SOL    HW2 3074   0.595   1.618   0.200 -2.4726 -0.5262 -0.7833
  769SOL    HW3 3075   0.588   1.491   0.117  0.8647 -1.2562 -0.0240
  769SOL    MW4 3076   0.613   1.534   0.189 -0.2005 -0.1292 -0.2932
  770SOL     OW 3077   4.238   2.052   1.354  0.0608 -0.2361  0.1667
  770SOL    HW2 3078   4.311   2.007   1.397  0.1646 -1.5700 -1.3575
  770SOL    HW3 3079   4.242   2.141   1.387  2.8864 -0.0528 -0.5346
  770SOL    MW4 3080   4.248   2.058   1.364  0.4473 -0.3879 -0.1269
  771SOL     OW 3081   0.002   0.638   1.071  0.2364 -0.4372  0.5638
  771SOL    HW2 3082   0.022   0.655   0.979  1.1911 -1.4839  0.5727
  771SOL    HW3 3083  -0.012   0.725   1.109 -0.1819 -0.0006 -0.5676
  771SOL    MW4 3084   0.003   0.651   1.064  0.3072 -0.5177  0.4157
  772SOL     OW 3085   3.399   4.448   0.180 -0.1065 -0.4350  0.1825
  772SOL    HW2 3086   3.373   4.357   0.198 -0.6741  0.2708  3.2875
  772SOL    HW3 3087   3.318   4.498   0.190  0.7168  0.7130  1.2363
  772SOL    MW4 3088   3.385   4.443   0.184 -0.0728 -0.1904  0.7312
  773SOL     OW 3089   1.353   3.005   1.053  0.1910  0.0354 -0.1833
  773SOL    HW2 3090   1.380   3.010   0.961 -0.6334 -1.0109 -0.4816
  773SOL    HW3 3091   1.268   2.961   1.051  0.9868 -1.6113  1.2329
  773SOL    MW4 3092   1.345   3.000   1.041  0.1872 -0.3199 -0.0358
  774SOL     OW 3093   3.853   1.783   0.993 -0.5752 -0.0108 -0.5974
  774SOL    HW2 3094   3.859   1.790   0.898 -2.4195  0.4031 -0.6943
  774SOL    HW3 3095   3.761   1.762   1.011 -0.2221 -0.2497  1.0843
  774SOL    MW4 3096   3.842   1.781   0.983 -0.7719  0.0123 -0.3883
  775SOL     OW 3097   2.336   2.013   0.259 -0.4866  0.1047  0.2032
  775SOL    HW2 3098   2.251   2.044   0.289 -0.3624  1.3202 -0.6710
  775SOL    HW3 3099   2.339   1.921   0.285 -0.5202  1.0096  3.5830
  775SOL    MW4 3100   2.325   2.005   0.266 -0.4746  0.3844  0.5338
  776SOL     OW 3101   2.000   4.359   1.077  0.1060 -0.1922  0.9165
  776SOL    HW2 3102   2.070   4.420   1.054  0.2989 -0.8702 -0.3021
  776SOL    HW3 3103   1.920   4.401   1.046  0.2546 -0.6302 -0.0566
  776SOL    MW4 3104   1.999   4.373   1.070  0.1510 -0.3394  0.6273
  777SOL     OW 3105   3.381   2.869   1.108  0.7829  0.1663  0.7638
  777SOL    HW2 3106   3.371   2.868   1.204 -1.8143 -2.5271  0.5269
  777SOL    HW3 3107   3.305   2.917   1.076 -0.0096 -1.5937 -0.0659
  777SOL    MW4 3108   3.370   2.875   1.117  0.3356 -0.4213  0.6230
  778SOL     OW 3109   3.857   0.183   1.008  0.3242 -0.0316 -0.5642
  778SOL    HW2 3110   3.936   0.153   1.054 -0.2686 -0.7124  0.0192
  778SOL    HW3 3111   3.870   0.155   0.917  0.5120 -0.6398 -0.3557
  778SOL    MW4 3112   3.869   0.175   1.002  0.2707 -0.2017 -0.4597
  779SOL     OW 3113   0.936   1.441   1.011 -0.4599  0.1778 -0.3546
  779SOL    HW2 3114   0.864   1.390   1.048 -0.1181 -0.0505 -0.0009
  779SOL    HW3 3115   1.011   1.423   1.069  0.0897 -0.2239 -1.1756
  779SOL    MW4 3116   0.937   1.432   1.024 -0.3423  0.0946 -0.4162
  780SOL     OW 3117   0.688   4.664   0.185 -0.4051  0.1875  0.2273
  780SOL    HW2 3118   0.619   4.727   0.204 -0.7543 -0.6837  2.0064
  780SOL    HW3 3119   0.642   4.581   0.172  0.0335  0.3105 -2.2712
  780SOL    MW4 3120   0.673   4.661   0.186 -0.3933  0.0888  0.1324
  781SOL     OW 3121   0.607   4.394   1.376  0.2240  0.3305  0.1107
  781SOL    HW2 3122   0.684   4.363   1.424 -0.6469 -0.8755  0.7610
  781SOL    HW3 3123   0.638   4.406   1.286  1.3804  0.6877  0.5480
  781SOL    MW4 3124   0.621   4.391   1.370  0.2616  0.2186  0.2542
  782SOL     OW 3125   1.775   0.358   1.503 -0.2671 -0.0566 -0.4262
  782SOL    HW2 3126   1.752   0.267   1.484 -0.8604 -0.1948  0.9075
  782SOL    HW3 3127   1.861   0.370   1.462 -0.5928 -0.9367 -1.3859
  782SOL    MW4 3128   1.784   0.348   1.495 -0.3884 -0.1909 -0.3769
  783SOL     OW 3129   4.279   0.829   0.758  0.0230 -0.2437  0.0312
  783SOL    HW2 3130   4.334   0.754   0.778 -0.6660 -0.8316 -0.2503
  783SOL    HW3 3131   4.191   0.803   0.786 -0.5773 -0.2852 -1.7896
  783SOL    MW4 3132   4.275   0.816   0.764 -0.1471 -0.3267 -0.2462
  784SOL     OW 3133   0.921   1.125   1.724  0.0716  0.1230  0.1164
  784SOL    HW2 3134   0.830   1.147   1.746 -0.2684 -1.2816  0.1460
  784SOL    HW3 3135   0.922   1.120   1.629  0.2317  0.6246  0.0924
  784SOL    MW4 3136   0.909   1.127   1.715  0.0478  0.0039  0.1171
  785SOL     OW 3137   2.724   0.897   1.060  0.2308 -0.1626  0.0298
  785SOL    HW2 3138   2.707   0.814   1.015  0.0755 -0.1933  0.1463
  785SOL    HW3 3139   2.637   0.938   1.067  0.4624  0.5580 -1.1206
  785SOL    MW4 3140   2.710   0.892   1.055  0.2408 -0.0716 -0.1066
  786SOL     OW 3141   4.018   3.238   1.378  0.2407 -0.1967  0.7678
  786SOL    HW2 3142   3.939   3.191   1.403 -0.7229  0.6732 -0.5662
  786SOL    HW3 3143   4.019   3.316   1.433  0.6260 -0.6241  1.3731
  786SOL    MW4 3144   4.008   3.242   1.388  0.1644 -0.1383  0.6717
  787SOL     OW 3145   1.099   1.046   1.100 -0.9021  0.1444 -0.3326
  787SOL    HW2 3146   1.122   1.139   1.101  0.3102 -0.1242 -1.8443
  787SOL    HW3 3147   1.173   1.002   1.141 -1.3606 -0.1981  0.1426
  787SOL    MW4 3148   1.112   1.052   1.105 -0.8027  0.0638 -0.4694
  788SOL     OW 3149   3.488   4.055   0.702 -0.2673  0.1569 -0.4712
  788SOL    HW2 3150   3.583   4.062   0.705 -0.2961  0.3599 -0.0598
  788SOL    HW3 3151   3.457   4.106   0.777 -0.5503 -2.7259  1.4229
  788SOL    MW4 3152   3.496   4.063   0.712 -0.3084 -0.1967 -0.1670
  789SOL     OW 3153   0.878   0.120   1.095 -0.2499 -0.2356  0.2273
  789SOL    HW2 3154   0.809   0.176   1.061 -0.3965  0.8631  2.2161
  789SOL    HW3 3155   0.859   0.033   1.059 -0.7045  0.7393 -1.9350
  789SOL    MW4 3156   0.867   0.116   1.086 -0.3292  0.0380  0.2044
  790SOL     OW 3157   2.774   0.095   1.079 -0.1830  0.2784  0.0608
  790SOL    HW2 3158   2.688   0.133   1.061  1.0120  2.2577 -1.7854
  790SOL    HW3 3159   2.777   0.016   1.025 -0.2841  1.0296 -1.0686
  790SOL    MW4 3160   2.763   0.090   1.069 -0.0387  0.6387 -0.3318
  791SOL     OW 3161   1.372   3.979   0.185  0.2980  0.1812 -0.3610
  791SOL    HW2 3162   1.320   3.956   0.262  0.1474 -0.8065 -0.7515
  791SOL    HW3 3163   1.383   4.074   0.191  1.1698 -0.0199  1.4187
  791SOL    MW4 3164   1.366   3.989   0.196  0.3931  0.0244 -0.1777
  792SOL     OW 3165   2.464   4.641   1.437 -0.8972  0.1259 -0.1744
  792SOL    HW2 3166   2.458   4.646   1.533  0.6233  1.7251 -0.1464
  792SOL    HW3 3167   2.540   4.694   1.415 -1.1474 -0.3546 -2.2778
  792SOL    MW4 3168   2.473   4.648   1.447 -0.7296  0.2735 -0.4482
  793SOL     OW 3169   1.928   0.148   0.270 -0.1295 -0.0506  0.0564
  793SOL    HW2 3170   1.895   0.092   0.340 -0.9817  0.0114 -0.2961
  793SOL    HW3 3171   1.871   0.131   0.196 -0.0451  0.8587 -0.2262
  793SOL    MW4 3172   1.916   0.139   0.270 -0.2308  0.0775 -0.0274
  794SOL     OW 3173   2.932   0.504   1.330  0.0540 -0.8196  0.8299
  794SOL    HW2 3174   2.951   0.588   1.374 -1.5251  0.6037 -1.1199
  794SOL    HW3 3175   2.848   0.476   1.368 -0.6364 -0.2623 -0.2430
  794SOL    MW4 3176   2.923   0.512   1.341 -0.2454 -0.5583  0.4311
  795SOL     OW 3177   2.669   3.655   0.777 -0.3537  0.6109  0.4076
  795SOL    HW2 3178   2.710   3.568   0.779  0.7066  1.0486 -1.4048
  795SOL    HW3 3179   2.687   3.692   0.864  0.7445 -0.2674  0.5649
  795SOL    MW4 3180   2.677   3.648   0.789 -0.0689  0.5527  0.1893
  796SOL     OW 3181   1.574   2.314   1.504 -0.3294 -0.1669  0.4799
  796SOL    HW2 3182   1.501   2.341   1.447  0.3358 -0.8655 -0.7219
  796SOL    HW3 3183   1.590   2.223   1.482 -0.4623 -0.6374  2.2598
  796SOL    MW4 3184   1.567   2.306   1.493 -0.2592 -0.3211  0.5561
  797SOL     OW 3185   1.353   1.426   1.031 -0.3961  0.1793  0.4021
  797SOL    HW2 3186   1.331   1.429   0.938 -0.2624  0.6163  0.3854
  797SOL    HW3 3187   1.431   1.369   1.034 -1.5569 -1.4492  0.4781
  797SOL    MW4 3188   1.360   1.419   1.019 -0.5316  0.0221  0.4099
  798SOL     OW 3189   1.773   1.417   0.990  0.2522 -0.0064  0.0148
  798SOL    HW2 3190   1.762   1.507   1.020 -0.1339  0.4651 -1.4556
  798SOL    HW3 3191   1.848   1.384   1.038  0.1182  0.9561  0.9037
  798SOL    MW4 3192   1.781   1.425   1.000  0.1836  0.1828 -0.0619
  799SOL     OW 3193   2.533   2.155   0.414 -0.1405 -0.0355  0.1289
  799SOL    HW2 3194   2.480   2.083   0.381 -4.8239  2.3640  1.9817
  799SOL    HW3 3195   2.519   2.226   0.351  1.3090  0.5325  0.4035
  799SOL    MW4 3196   2.524   2.155   0.401 -0.5671  0.3560  0.4096
  800SOL     OW 3197   3.387   1.580   0.517  0.3417  0.0071  0.2330
  800SOL    HW2 3198   3.420   1.665   0.545 -2.9341  1.5413 -0.3137
  800SOL    HW3 3199   3.323   1.556   0.584  0.8416 -1.7726  0.0831
  800SOL    MW4 3200   3.383   1.588   0.529 -0.0245 -0.0253  0.1411
  801SOL     OW 3201   0.670   1.060   1.018 -0.1601  0.3115 -0.0598
  801SOL    HW2 3202   0.583   1.034   1.049 -0.3455  0.5554 -0.3766
  801SOL    HW3 3203   0.679   1.151   1.046 -0.1258  0.3773 -0.2893
  801SOL    MW4 3204   0.660   1.069   1.026 -0.1801  0.3524 -0.1318
  802SOL     OW 3205   0.117   0.382   0.793  0.1391 -0.0945 -0.2056
  802SOL    HW2 3206   0.162   0.334   0.864 -0.6439  1.0874  1.1190
  802SOL    HW3 3207   0.089   0.313   0.732 -0.0420 -1.2453  1.1338
  802SOL    MW4 3208   0.119   0.366   0.795  0.0119 -0.0904  0.1459
  803SOL     OW 3209   4.271   2.885   1.314  0.1231 -0.3645 -0.2871
  803SOL    HW2 3210   4.202   2.840   1.362 -0.1450 -0.4968 -0.7826
  803SOL    HW3 3211   4.273   2.973   1.350 -1.1890  0.0304 -1.1415
  803SOL    MW4 3212   4.262   2.891   1.325 -0.0854 -0.3298 -0.4652
  804SOL     OW 3213   4.052   3.810   0.329  0.1267  0.2697 -0.2025
  804SOL    HW2 3214   4.114   3.882   0.329  0.1863  0.2159 -0.3004
  804SOL    HW3 3215   4.094   3.741   0.278  0.5147 -0.2154  0.7573
  804SOL    MW4 3216   4.065   3.810   0.323  0.1858  0.1986 -0.0888
  805SOL     OW 3217   0.354   4.629   0.417  0.1809 -0.7085 -0.4673
  805SOL    HW2 3218   0.391   4.557   0.367  2.0935  0.2990 -0.5727
  805SOL    HW3 3219   0.421   4.649   0.483  0.6581  2.3146 -1.7632
  805SOL    MW4 3220   0.368   4.622   0.419  0.4962 -0.1767 -0.6522
  806SOL     OW 3221   0.725   1.144   0.761 -0.1544 -0.3884  0.1309
  806SOL    HW2 3222   0.819   1.124   0.755 -0.1311 -0.3278  0.3009
  806SOL    HW3 3223   0.701   1.122   0.851  0.4715  2.9140  1.1884
  806SOL    MW4 3224   0.735   1.138   0.772 -0.0688  0.0553  0.2929
  807SOL     OW 3225   2.452   3.149   0.680 -0.3676 -0.4039  0.0669
  807SOL    HW2 3226   2.359   3.139   0.661 -0.3360 -0.3556 -0.1155
  807SOL    HW3 3227   2.483   3.060   0.697  0.0949 -0.7574 -2.3976
  807SOL    MW4 3228   2.444   3.136   0.680 -0.3024 -0.4442 -0.2823
  808SOL     OW 3229   2.473   3.249   0.424 -0.4750 -0.4262  0.3623
  808SOL    HW2 3230   2.381   3.256   0.398 -0.4409 -1.7307 -0.1066
  808SOL    HW3 3231   2.470   3.216   0.513 -0.4556 -0.8043  0.2240
  808SOL    MW4 3232   2.460   3.246   0.432 -0.4680 -0.6482  0.2822
  809SOL     OW 3233   0.974   4.096   0.375  0.6444  0.1886 -0.3504
  809SOL    HW2 3234   1.019   4.178   0.357  0.5664  0.4204  0.4712
  809SOL    HW3 3235   0.953   4.101   0.469 -1.0117  0.0549 -0.7014
  809SOL    MW4 3236   0.977   4.108   0.385  0.4156  0.2015 -0.2883
  810SOL     OW 3237   3.028   2.531   0.775  0.3718 -0.2597 -0.3802
  810SOL    HW2 3238   3.123   2.542   0.767  0.1297  1.6329 -0.8614
  810SOL    HW3 3239   3.008   2.565   0.862  0.0894 -0.3532 -0.4090
  810SOL    MW4 3240   3.038   2.537   0.786  0.3026 -0.0223 -0.4475
  811SOL     OW 3241   0.233   3.029   0.342  0.2147  0.0877 -0.0049
  811SOL    HW2 3242   0.159   2.975   0.313 -1.1932  1.5703  0.7040
  811SOL    HW3 3243   0.217   3.114   0.302  1.1060  0.6573  0.8249
  811SOL    MW4 3244   0.221   3.033   0.333  0.1465  0.3584  0.1981
  812SOL     OW 3245   3.612   2.185   1.026 -0.0391  0.0395 -0.0591
  812SOL    HW2 3246   3.627   2.274   1.057  0.8385 -0.3458  0.6442
  812SOL    HW3 3247   3.700   2.146   1.023 -0.6069 -1.4323  1.5854
  812SOL    MW4 3248   3.626   2.192   1.030  0.0018 -0.2055  0.2507
  813SOL     OW 3249   0.200   1.312   1.092 -0.2645  0.8155  0.7732
  813SOL    HW2 3250   0.199   1.300   1.187  1.2112  0.2146  0.7260
  813SOL    HW3 3251   0.285   1.352   1.074  0.0040 -0.2927 -0.4319
  813SOL    MW4 3252   0.211   1.316   1.102 -0.0344  0.5900  0.6080
  814SOL     OW 3253   1.345   3.997   1.385 -0.0638 -0.6285 -0.0202
  814SOL    HW2 3254   1.426   3.970   1.427  0.7735 -1.0741 -1.8431
  814SOL    HW3 3255   1.359   3.977   1.292 -2.2653 -0.7434 -0.3594
  814SOL    MW4 3256   1.357   3.990   1.378 -0.2438 -0.7025 -0.3054
  815SOL     OW 3257   0.167   0.816   0.638  0.4464 -0.4654 -0.1166
  815SOL    HW2 3258   0.161   0.849   0.548 -2.6948 -0.6090 -0.0115
  815SOL    HW3 3259   0.114   0.877   0.689 -0.9886 -2.5940  0.9837
  815SOL    MW4 3260   0.159   0.828   0.633 -0.1574 -0.7652  0.0424
  816SOL     OW 3261   4.184   0.950   1.111  0.0271  0.5122  0.0038
  816SOL    HW2 3262   4.272   0.934   1.145  0.0457  0.6582  0.0214
  816SOL    HW3 3263   4.181   1.044   1.092 -0.8471  0.9125  2.0375
  816SOL    MW4 3264   4.195   0.960   1.113 -0.0858  0.5843  0.2744
  817SOL     OW 3265   2.848   2.415   0.379  0.5345  0.2589 -0.3167
  817SOL    HW2 3266   2.807   2.357   0.315 -0.5646 -0.7834  1.2984
  817SOL    HW3 3267   2.942   2.400   0.369  0.3314 -0.5368 -1.0777
  817SOL    MW4 3268   2.855   2.405   0.370  0.3627  0.0164 -0.2040
  818SOL     OW 3269   0.042   3.504   1.476 -0.1741  0.6989  0.0015
  818SOL    HW2 3270   0.031   3.487   1.570 -1.2529 -2.4831 -0.6131
  818SOL    HW3 3271  -0.045   3.529   1.446 -0.3394 -0.4198 -0.4987
  818SOL    MW4 3272   0.029   3.505   1.485 -0.3382  0.1315 -0.1456
  819SOL     OW 3273   0.339   0.252   0.505  0.0080  0.2392 -0.3122
  819SOL    HW2 3274   0.270   0.229   0.567  0.5101  0.5800  0.3909
  819SOL    HW3 3275   0.298   0.310   0.442 -0.5666 -0.2934 -0.4360
  819SOL    MW4 3276   0.325   0.256   0.505 -0.0016  0.2139 -0.2358
  820SOL     OW 3277   1.356   2.665   1.457  0.1764 -0.0911 -0.1310
  820SOL    HW2 3278   1.431   2.717   1.428 -0.9851  1.4698 -0.3829
  820SOL    HW3 3279   1.280   2.713   1.426 -0.9366 -2.0168 -0.4738
  820SOL    MW4 3280   1.356   2.678   1.449 -0.1237 -0.1392 -0.2095
  821SOL     OW 3281   1.272   0.647   1.077 -0.1960 -0.0846  0.1472
  821SOL    HW2 3282   1.356   0.611   1.106  1.1886  1.3678 -1.8548
  821SOL    HW3 3283   1.276   0.642   0.982 -2.4756 -0.1605  0.0421
  821SOL    MW4 3284   1.284   0.642   1.068 -0.3141  0.0970 -0.1308
  822SOL     OW 3285   1.595   3.889   1.449 -0.0079  0.1611  0.4248
  822SOL    HW2 3286   1.591   3.878   1.544 -0.3194 -0.1764  0.3761
  822SOL    HW3 3287   1.581   3.800   1.414  1.5781  0.0141  0.0981
  822SOL    MW4 3288   1.593   3.876   1.457  0.1603  0.0972  0.3753
  823SOL     OW 3289   4.272   4.014   0.325  0.2000 -0.7821  0.1201
  823SOL    HW2 3290   4.287   4.108   0.312 -1.1427 -0.6027 -0.3112
  823SOL    HW3 3291   4.352   3.972   0.293  0.6843  0.2039  0.0175
  823SOL    MW4 3292   4.284   4.021   0.319  0.0867 -0.6283  0.0497
  824SOL     OW 3293   3.567   0.722   0.681  0.5952  0.2463 -0.0698
  824SOL    HW2 3294   3.527   0.805   0.708  1.8609  0.8911 -0.1808
  824SOL    HW3 3295   3.570   0.670   0.762  1.5883  1.0382  0.4125
  824SOL    MW4 3296   3.562   0.726   0.695  0.8932  0.4359 -0.0208
  825SOL     OW 3297   2.514   0.755   1.495  0.1473  0.0315 -0.2965
  825SOL    HW2 3298   2.559   0.804   1.427  0.5968 -0.9145 -0.6851
  825SOL    HW3 3299   2.506   0.666   1.460 -0.9620 -0.1019  0.2549
  825SOL    MW4 3300   2.519   0.750   1.482  0.0602 -0.1109 -0.2750
  826SOL     OW 3301   0.871   0.373   1.449  0.2171 -0.0493  0.1008
  826SOL    HW2 3302   0.866   0.363   1.544 -0.8187 -0.7343 -0.0222
  826SOL    HW3 3303   0.893   0.286   1.417  0.1596  0.0900 -0.3154
  826SOL    MW4 3304   0.873   0.360   1.457  0.0728 -0.1213  0.0297
  827SOL     OW 3305   0.440   4.001   1.364  0.2519  0.6144 -0.0514
  827SOL    HW2 3306   0.527   3.976   1.395 -0.1762 -2.0652 -0.9156
  827SOL    HW3 3307   0.443   3.990   1.269 -0.9826  0.6614 -0.1155
  827SOL    MW4 3308   0.452   3.996   1.356  0.0325  0.2670 -0.1739
  828SOL     OW 3309   3.797   3.111   1.485 -0.2610  0.6477 -0.2092
  828SOL    HW2 3310   3.720   3.152   1.446 -1.6952 -1.2112  0.6116
  828SOL    HW3 3311   3.798   3.022   1.450  0.8068  0.2783  0.7239
  828SOL    MW4 3312   3.787   3.105   1.475 -0.3093  0.3537  0.0222
  829SOL     OW 3313   2.910   1.577   1.516 -0.1976 -0.6903  0.1443
  829SOL    HW2 3314   2.832   1.615   1.475  0.1910  0.7346  0.7290
  829SOL    HW3 3315   2.984   1.621   1.472  0.2371 -0.0778  1.4804
  829SOL    MW4 3316   2.910   1.588   1.505 -0.0889 -0.4215  0.3977
  830SOL     OW 3317   3.262   3.535   0.763 -0.1185 -0.4162 -0.0393
  830SOL    HW2 3318   3.327   3.605   0.771 -0.4978 -0.2449  1.8104
  830SOL    HW3 3319   3.256   3.518   0.669 -0.4013  2.4084 -0.5740
  830SOL    MW4 3320   3.270   3.542   0.751 -0.2059 -0.0209  0.1342
  831SOL     OW 3321   3.230   3.516   0.490  0.3642 -0.1412 -0.5117
  831SOL    HW2 3322   3.262   3.430   0.463  1.4540 -0.6665  2.2704
  831SOL    HW3 3323   3.286   3.578   0.444  1.4704 -0.9834 -0.3175
  831SOL    MW4 3324   3.241   3.513   0.480  0.6539 -0.3216 -0.1190
  832SOL     OW 3325   0.437   3.473   0.611  0.1468 -0.1123 -0.5335
  832SOL    HW2 3326   0.444   3.543   0.676 -0.3572  1.3026 -1.9598
  832SOL    HW3 3327   0.518   3.422   0.622  1.1152  1.4401 -0.3013
  832SOL    MW4 3328   0.449   3.475   0.621  0.2080  0.2792 -0.6911
  833SOL     OW 3329   0.481   4.005   1.098 -0.5186  0.0595 -0.3017
  833SOL    HW2 3330   0.470   3.914   1.070 -0.7809  0.7987 -2.7237
  833SOL    HW3 3331   0.395   4.045   1.082 -0.7534  0.4921  1.8315
  833SOL    MW4 3332   0.468   3.998   1.092 -0.5842  0.2141 -0.3398
  834SOL     OW 3333   1.801   2.536   0.611  0.5001  0.0262  0.4225
  834SOL    HW2 3334   1.847   2.532   0.527  0.9882 -1.6814  0.7542
  834SOL    HW3 3335   1.870   2.550   0.676  0.3555 -0.6975  0.7354
  834SOL    MW4 3336   1.816   2.537   0.609  0.5454 -0.2946  0.5075
  835SOL     OW 3337   2.049   1.689   0.700  0.2412  0.3627 -0.1949
  835SOL    HW2 3338   2.037   1.726   0.788  0.4644 -0.5344  0.2243
  835SOL    HW3 3339   2.093   1.605   0.716  0.5476  0.3357 -1.1892
  835SOL    MW4 3340   2.053   1.683   0.714  0.3110  0.2408 -0.2708
  836SOL     OW 3341   2.486   3.683   1.093  0.3284 -0.6706 -0.0895
  836SOL    HW2 3342   2.463   3.666   1.185  1.0021  0.4022  0.2883
  836SOL    HW3 3343   2.402   3.696   1.049  0.0221 -0.7623  0.4657
  836SOL    MW4 3344   2.472   3.682   1.099  0.3769 -0.5411  0.0336
  837SOL     OW 3345   1.326   0.893   1.183  0.0150  0.2069 -0.2093
  837SOL    HW2 3346   1.298   0.807   1.150  1.0716  0.0711 -0.7968
  837SOL    HW3 3347   1.392   0.922   1.120  0.4569  0.9656  0.5897
  837SOL    MW4 3348   1.331   0.886   1.170  0.2127  0.2891 -0.1814
  838SOL     OW 3349   2.005   2.299   1.491  0.0598 -0.5273 -0.6075
  838SOL    HW2 3350   2.022   2.322   1.582 -1.0681 -2.5918  0.1543
  838SOL    HW3 3351   1.926   2.348   1.468  0.2674 -0.1146 -0.4397
  838SOL    MW4 3352   1.996   2.309   1.500 -0.0616 -0.7453 -0.4848
  839SOL     OW 3353   3.414   1.043   0.161 -0.4361 -0.0640 -0.1186
  839SOL    HW2 3354   3.385   1.116   0.214  3.6854  2.1648 -0.7803
  839SOL    HW3 3355   3.354   1.043   0.086 -0.1345  3.0018 -0.4015
  839SOL    MW4 3356   3.402   1.052   0.158  0.1475  0.6346 -0.2432
  840SOL     OW 3357   3.600   3.241   1.345 -0.0602  0.5261 -0.0617
  840SOL    HW2 3358   3.592   3.262   1.252  0.2672  0.8530 -0.0163
  840SOL    HW3 3359   3.530   3.177   1.361  0.2933 -0.0294 -0.6832
  840SOL    MW4 3360   3.590   3.235   1.335  0.0297  0.4959 -0.1377
  841SOL     OW 3361   4.191   0.151   0.740  0.1535  0.7335 -0.4043
  841SOL    HW2 3362   4.198   0.229   0.684  1.1358  0.4490 -0.6898
  841SOL    HW3 3363   4.220   0.181   0.826  0.1581  0.7821 -0.4225
  841SOL    MW4 3364   4.196   0.165   0.744  0.2837  0.7024 -0.4444
  842SOL     OW 3365   1.990   3.091   1.747 -0.6169 -0.1056  0.1150
  842SOL    HW2 3366   1.916   3.147   1.772 -2.1907 -1.7165 -0.8305
  842SOL    HW3 3367   1.970   3.006   1.786  1.2222 -0.3242  0.6441
  842SOL    MW4 3368   1.978   3.088   1.756 -0.5819 -0.3470  0.0601
  843SOL     OW 3369   1.943   1.961   0.108 -0.0267  0.1669 -0.1515
  843SOL    HW2 3370   1.851   1.965   0.132 -0.1790  0.5934 -0.7873
  843SOL    HW3 3371   1.944   1.973   0.013  0.5411 -1.9158 -0.4157
  843SOL    MW4 3372   1.931   1.963   0.099  0.0282 -0.0516 -0.2703
  844SOL     OW 3373   0.106   0.162   0.631  0.1369  0.2559  0.1178
  844SOL    HW2 3374   0.039   0.155   0.563  0.1440 -1.6961  0.2798
  844SOL    HW3 3375   0.110   0.074   0.669  3.9109 -0.0918 -0.9675
  844SOL    MW4 3376   0.097   0.149   0.627  0.6358 -0.0475 -0.0040
  845SOL     OW 3377   1.817   3.522   1.701 -0.2455 -0.1424  0.4672
  845SOL    HW2 3378   1.830   3.431   1.727 -0.0794 -0.1829  0.2514
  845SOL    HW3 3379   1.744   3.553   1.754  1.1875  0.3018  2.2097
  845SOL    MW4 3380   1.809   3.514   1.711 -0.0345 -0.0891  0.6686
  846SOL     OW 3381   0.227   1.291   1.364 -0.1305  0.4594 -0.0763
  846SOL    HW2 3382   0.237   1.379   1.399  1.2694  0.6364 -0.8784
  846SOL    HW3 3383   0.159   1.251   1.418  0.8814  1.2444  1.8403
  846SOL    MW4 3384   0.220   1.297   1.376  0.1877  0.5863  0.0707
  847SOL     OW 3385   1.204   1.806   0.772  0.2929  0.6492  0.1885
  847SOL    HW2 3386   1.131   1.805   0.709 -0.4689  0.9897  1.0539
  847SOL    HW3 3387   1.268   1.866   0.734  0.4254 -0.1671 -0.9091
  847SOL    MW4 3388   1.203   1.814   0.758  0.2099  0.5864  0.1579
  848SOL     OW 3389   0.247   0.266   1.044  0.4288  0.2169 -0.1325
  848SOL    HW2 3390   0.322   0.212   1.069 -0.5798 -0.0346  2.5417
  848SOL    HW3 3391   0.253   0.343   1.101 -1.2944  0.1985  0.0946
  848SOL    MW4 3392   0.258   0.269   1.055  0.0684  0.1813  0.2503
  849SOL     OW 3393   0.988   2.713   0.723 -0.0490  0.0220  0.1215
  849SOL    HW2 3394   1.049   2.668   0.782  2.1936  2.6920 -0.0877
  849SOL    HW3 3395   1.022   2.695   0.635 -0.7930 -0.2410 -0.1114
  849SOL    MW4 3396   1.001   2.705   0.719  0.1487  0.3396  0.0632
  850SOL     OW 3397   2.078   2.083   0.544  0.3078  0.4966  0.0550
  850SOL    HW2 3398   2.089   2.159   0.601 -1.1152 -0.0370  1.0713
  850SOL    HW3 3399   2.137   2.016   0.581 -0.9104  0.0193  1.1509
  850SOL    MW4 3400   2.088   2.084   0.557 -0.0406  0.3632  0.3337
  851SOL     OW 3401   0.547   4.654   0.602 -0.5643 -0.1736 -0.1760
  851SOL    HW2 3402   0.480   4.620   0.662  0.3182 -0.4780  0.6633
  851SOL    HW3 3403   0.576   4.735   0.643  0.8178 -0.9322  0.4083
  851SOL    MW4 3404   0.542   4.660   0.615 -0.2655 -0.3138  0.0119
  852SOL     OW 3405   2.248   1.853   0.600  0.2659 -0.3150  0.1720
  852SOL    HW2 3406   2.180   1.793   0.630  0.8066 -0.6924  0.6542
  852SOL    HW3 3407   2.276   1.818   0.515 -3.0173  2.1464 -2.0610
  852SOL    MW4 3408   2.243   1.840   0.592 -0.0959 -0.0401 -0.0590
  853SOL     OW 3409   2.284   0.342   1.430 -0.8332 -0.4193  0.3120
  853SOL    HW2 3410   2.274   0.270   1.368  1.1685 -0.2811 -0.2087
  853SOL    HW3 3411   2.302   0.300   1.514  0.1673 -0.5456  0.0408
  853SOL    MW4 3412   2.285   0.327   1.433 -0.4371 -0.4178  0.2075
  854SOL     OW 3413   3.144   1.436   0.962 -0.0427 -0.8993  0.5288
  854SOL    HW2 3414   3.221   1.384   0.986 -1.5106 -2.1523  2.6464
  854SOL    HW3 3415   3.074   1.404   1.019 -1.6226  1.6849  0.1237
  854SOL    MW4 3416   3.145   1.425   0.973 -0.4448 -0.7237  0.7548
  855SOL     OW 3417   2.271   0.117   1.041  0.3791  0.0640 -0.3616
  855SOL    HW2 3418   2.253   0.107   1.134  0.4204  3.1459  0.0367
  855SOL    HW3 3419   2.360   0.154   1.038  0.9288 -1.2949 -1.7019
  855SOL    MW4 3420   2.281   0.121   1.053  0.4571  0.2914 -0.4859
  856SOL     OW 3421   3.613   0.854   1.328 -0.3274  0.0366 -0.2256
  856SOL    HW2 3422   3.691   0.834   1.380 -1.8753 -1.9487  1.4357
  856SOL    HW3 3423   3.542   0.806   1.372 -2.5308  1.9837 -1.5454
  856SOL    MW4 3424   3.614   0.845   1.341 -0.8223  0.0315 -0.1805
  857SOL     OW 3425   3.589   3.535   0.313  0.3577 -0.0680 -0.0810
  857SOL    HW2 3426   3.513   3.593   0.299  0.5556  0.0005 -0.8587
  857SOL    HW3 3427   3.609   3.545   0.406  0.9670  1.8506 -0.3902
  857SOL    MW4 3428   3.581   3.544   0.323  0.4642  0.1942 -0.2244
  858SOL     OW 3429   0.981   2.816   0.089  0.1040  0.0843 -0.1560
  858SOL    HW2 3430   1.003   2.730   0.125 -0.2700  0.2874  0.5843
  858SOL    HW3 3431   0.984   2.804  -0.006  0.6792 -0.5825 -0.0617
  858SOL    MW4 3432   0.984   2.803   0.082  0.1306  0.0231 -0.0459
  859SOL     OW 3433   2.230   4.265   1.457 -0.7244 -0.7300 -0.1444
  859SOL    HW2 3434   2.149   4.296   1.418 -1.0140 -1.3385 -0.0353
  859SOL    HW3 3435   2.299   4.313   1.412 -1.2025  0.5955  0.5196
  859SOL    MW4 3436   2.229   4.275   1.446 -0.8257 -0.6354 -0.0424
  860SOL     OW 3437   1.576   1.526   1.509 -0.1478 -0.3424 -0.4488
  860SOL    HW2 3438   1.485   1.545   1.487  0.2247  1.6121 -0.3887
  860SOL    HW3 3439   1.580   1.533   1.605  0.4060  1.1658 -0.5775
  860SOL    MW4 3440   1.564   1.529   1.519 -0.0256  0.1144 -0.4579
  861SOL     OW 3441   4.048   3.503   1.515  0.0748  0.0021 -0.0943
  861SOL    HW2 3442   4.046   3.486   1.610  1.9493 -1.3453 -0.2629
  861SOL    HW3 3443   3.970   3.557   1.499 -0.8183 -0.5723  2.0463
  861SOL    MW4 3444   4.038   3.508   1.526  0.2043 -0.2515  0.1659
  862SOL     OW 3445   2.483   2.332   1.505 -0.5842 -0.1805 -0.3566
  862SOL    HW2 3446   2.563   2.370   1.468  0.7227 -2.9788 -0.6071
  862SOL    HW3 3447   2.494   2.341   1.600 -1.0200  1.4079 -0.4459
  862SOL    MW4 3448   2.495   2.338   1.513 -0.4693 -0.3401 -0.4015
  863SOL     OW 3449   2.995   2.174   0.142 -0.3974  0.5324 -0.0613
  863SOL    HW2 3450   3.019   2.114   0.071  1.4948  0.8390  0.2872
  863SOL    HW3 3451   2.925   2.129   0.189  1.2769 -1.6274  0.4529
  863SOL    MW4 3452   2.989   2.160   0.139  0.0732  0.2879  0.0525
  864SOL     OW 3453   0.488   3.512   1.451  0.5454 -0.0543 -0.1693
  864SOL    HW2 3454   0.479   3.534   1.544  0.5708  1.0729 -0.4216
  864SOL    HW3 3455   0.412   3.553   1.409  0.1651 -1.1506 -0.5445
  864SOL    MW4 3456   0.477   3.521   1.458  0.4986 -0.0502 -0.2521
  865SOL     OW 3457   0.004   0.155   1.125 -0.5250 -0.1361 -0.5773
  865SOL    HW2 3458   0.092   0.187   1.104 -0.1530 -1.1093 -0.4931
  865SOL    HW3 3459  -0.053   0.198   1.060  0.2190 -0.7386 -1.6469
  865SOL    MW4 3460   0.008   0.165   1.113 -0.3777 -0.3440 -0.7073
  866SOL     OW 3461   1.757   0.106   1.092  0.3529  0.0543 -0.0423
  866SOL    HW2 3462   1.835   0.143   1.052 -0.1930  0.7503 -0.4609
  866SOL    HW3 3463   1.686   0.165   1.068 -0.4657 -1.0556 -0.4262
  866SOL    MW4 3464   1.758   0.119   1.084  0.1729 -0.0003 -0.1482
  867SOL     OW 3465   4.162   3.603   0.187  0.2422 -0.2261  0.2332
  867SOL    HW2 3466   4.123   3.524   0.223 -0.6594  0.3018  0.4195
  867SOL    HW3 3467   4.132   3.607   0.096  0.5834 -0.2875  0.1149
  867SOL    MW4 3468   4.153   3.593   0.179  0.1683 -0.1646  0.2422
  868SOL     OW 3469   2.049   2.814   1.120  0.1477 -0.0635  1.0131
  868SOL    HW2 3470   2.050   2.806   1.216 -0.7948 -0.7760  0.9725
  868SOL    HW3 3471   2.036   2.724   1.089  1.0996  0.0689  0.1919
  868SOL    MW4 3472   2.048   2.801   1.129  0.1490 -0.1401  0.8994
  869SOL     OW 3473   2.199   1.022   0.084  0.5355 -0.4681  0.1098
  869SOL    HW2 3474   2.107   1.023   0.109  0.4706 -1.2011 -0.0887
  869SOL    HW3 3475   2.230   1.111   0.101 -1.1732  0.8937 -3.3979
  869SOL    MW4 3476   2.191   1.034   0.090  0.3015 -0.3852 -0.3792
  870SOL     OW 3477   1.074   2.562   0.188 -0.2810  0.2042 -0.1182
  870SOL    HW2 3478   1.146   2.533   0.133 -0.9340  0.1031 -0.9215
  870SOL    HW3 3479   1.031   2.482   0.215 -0.0275  0.2587  0.4602
  870SOL    MW4 3480   1.078   2.548   0.185 -0.3337  0.1981 -0.1479
  871SOL     OW 3481   2.247   1.461   1.020  0.3382  0.2409 -0.6158
  871SOL    HW2 3482   2.188   1.421   1.084  2.5129 -0.4164  1.0067
  871SOL    HW3 3483   2.260   1.551   1.051  2.3291 -0.4262  0.5756
  871SOL    MW4 3484   2.241   1.468   1.032  0.8878  0.0661 -0.2446
  872SOL     OW 3485   0.913   3.272   1.034  0.2894 -0.0754 -0.2062
  872SOL    HW2 3486   0.998   3.313   1.018  0.8759 -1.2349 -0.1055
  872SOL    HW3 3487   0.913   3.254   1.128 -0.6781  1.2683  0.0527
  872SOL    MW4 3488   0.925   3.275   1.045  0.2391 -0.0511 -0.1587
  873SOL     OW 3489   2.203   1.946   1.495  0.3639  0.2557 -0.5881
  873SOL    HW2 3490   2.285   1.984   1.461  0.8170  0.4939  0.7638
  873SOL    HW3 3491   2.200   1.973   1.586 -1.7754  1.1604 -0.9068
  873SOL    MW4 3492   2.214   1.955   1.502  0.1414  0.4065 -0.4518
  874SOL     OW 3493   4.271   3.284   0.260 -0.0808  0.3184 -0.1110
  874SOL    HW2 3494   4.185   3.301   0.299  0.9322  0.4951  2.1634
  874SOL    HW3 3495   4.280   3.189   0.260 -0.4762  0.2858 -0.7720
  874SOL    MW4 3496   4.261   3.274   0.265  0.0007  0.3375  0.1019
  875SOL     OW 3497   0.251   3.612   1.329  0.1946 -0.1059 -0.4755
  875SOL    HW2 3498   0.223   3.618   1.237  0.2932 -1.0884 -0.5741
  875SOL    HW3 3499   0.178   3.569   1.373 -1.2503  3.2201  0.5478
  875SOL    MW4 3500   0.238   3.607   1.323  0.0170  0.2033 -0.3535
  876SOL     OW 3501   2.113   1.438   0.289  0.3175  0.2030 -0.2473
  876SOL    HW2 3502   2.094   1.526   0.258 -0.5120  0.2609  0.3915
  876SOL    HW3 3503   2.029   1.406   0.322  1.3549  0.4999  2.8450
  876SOL    MW4 3504   2.099   1.445   0.289  0.3449  0.2498  0.2450
  877SOL     OW 3505   1.669   2.711   0.031 -0.2769 -0.3363  0.0087
  877SOL    HW2 3506   1.735   2.739   0.093  0.0332  1.3173 -1.0232
  877SOL    HW3 3507   1.587   2.709   0.081  0.2868 -0.8171  0.9024
  877SOL    MW4 3508   1.667   2.715   0.046 -0.1616 -0.1816 -0.0095
  878SOL     OW 3509   2.891   0.532   0.147  0.0603  0.0182 -0.0092
  878SOL    HW2 3510   2.981   0.532   0.180 -0.4751 -1.0826  1.5077
  878SOL    HW3 3511   2.860   0.621   0.162 -0.2111 -0.4843  2.6523
  878SOL    MW4 3512   2.899   0.544   0.153 -0.0462 -0.1934  0.5421
  879SOL     OW 3513   2.675   0.635   0.963 -0.0981 -0.0810  0.1301
  879SOL    HW2 3514   2.681   0.653   0.869  1.7965  0.3143  0.3190
  879SOL    HW3 3515   2.759   0.596   0.986 -1.3018 -2.0787  1.2737
  879SOL    MW4 3516   2.687   0.632   0.954 -0.0069 -0.2924  0.3059
  880SOL     OW 3517   0.454   0.127   1.415 -0.2143 -0.1367  0.4346
  880SOL    HW2 3518   0.446   0.209   1.463 -0.8010  0.6567 -0.9638
  880SOL    HW3 3519   0.532   0.085   1.451  0.7069  1.5319  0.4424
  880SOL    MW4 3520   0.463   0.132   1.426 -0.1702  0.1881  0.2511
  881SOL     OW 3521   3.810   4.529   0.757  0.0248 -0.1546  0.3731
  881SOL    HW2 3522   3.789   4.507   0.848  2.0232 -0.1229  0.8630
  881SOL    HW3 3523   3.844   4.618   0.761 -0.8747  0.2290 -0.5528
  881SOL    MW4 3524   3.812   4.538   0.769  0.1698 -0.0998  0.3156
  882SOL     OW 3525   2.021   1.047   1.014  0.3242 -0.1889 -0.2608
  882SOL    HW2 3526   2.039   1.078   0.926  0.4358  0.1401 -0.1215
  882SOL    HW3 3527   2.094   0.989   1.036  1.6051  1.7347  0.5970
  882SOL    MW4 3528   2.033   1.043   1.006  0.5079  0.1083 -0.1293
  883SOL     OW 3529   2.060   0.582   0.795  0.0590  0.1179  0.0879
  883SOL    HW2 3530   1.992   0.521   0.823 -0.5001  0.8583  0.3622
  883SOL    HW3 3531   2.112   0.532   0.731  1.4291 -1.6240  2.4775
  883SOL    MW4 3532   2.058   0.567   0.790  0.1660 -0.0142  0.4394
  884SOL     OW 3533   0.915   3.450   1.485  0.0401 -0.1697 -0.0013
  884SOL    HW2 3534   0.839   3.498   1.453 -0.1676 -1.5367 -1.6213
  884SOL    HW3 3535   0.990   3.496   1.447 -0.0835 -0.0937 -0.1554
  884SOL    MW4 3536   0.915   3.462   1.476 -0.0036 -0.3401 -0.2354
  885SOL     OW 3537   2.181   4.604   0.303  0.2705 -0.2868 -0.2525
  885SOL    HW2 3538   2.152   4.658   0.229  0.4351 -0.8848 -0.7527
  885SOL    HW3 3539   2.144   4.518   0.286  0.8905 -0.6072  0.0138
  885SOL    MW4 3540   2.172   4.600   0.291  0.3740 -0.4080 -0.2833
  886SOL     OW 3541   2.739   2.742   1.493 -0.3397  0.2578  0.2704
  886SOL    HW2 3542   2.742   2.650   1.470 -0.0216  0.4424 -0.4448
  886SOL    HW3 3543   2.799   2.784   1.432  0.1419  0.8300  1.1185
  886SOL    MW4 3544   2.747   2.736   1.482 -0.2342  0.3577  0.2879
  887SOL     OW 3545   2.946   1.836   0.958 -0.5291 -0.5018  0.3744
  887SOL    HW2 3546   2.914   1.855   0.870  0.4823  0.7623  0.2690
  887SOL    HW3 3547   2.949   1.921   1.002  0.0221 -0.9739  1.2726
  887SOL    MW4 3548   2.942   1.850   0.953 -0.3229 -0.3973  0.4790
  888SOL     OW 3549   1.723   4.278   0.569 -0.0933  0.0213  0.0033
  888SOL    HW2 3550   1.647   4.327   0.539 -1.8750 -1.7642  1.5318
  888SOL    HW3 3551   1.750   4.226   0.493 -1.5617 -0.7797  0.0249
  888SOL    MW4 3552   1.717   4.278   0.555 -0.5221 -0.3199  0.2078
  889SOL     OW 3553   2.132   0.345   0.272 -0.6230  0.2366  0.1517
  889SOL    HW2 3554   2.071   0.272   0.262 -0.3743  0.2679 -1.6978
  889SOL    HW3 3555   2.078   0.423   0.262 -0.2816  0.2635 -1.5884
  889SOL    MW4 3556   2.117   0.346   0.269 -0.5451  0.2443 -0.3219
  890SOL     OW 3557   0.630   2.614   0.944  0.2240 -0.0023 -0.0435
  890SOL    HW2 3558   0.656   2.700   0.976  1.7257 -0.2515 -0.5672
  890SOL    HW3 3559   0.590   2.631   0.858 -0.3670  0.2687  0.2846
  890SOL    MW4 3560   0.628   2.628   0.937  0.3441  0.0005 -0.0693
  891SOL     OW 3561   3.590   1.933   1.416 -0.3990 -0.1913  0.3891
  891SOL    HW2 3562   3.599   1.848   1.373  0.8368  0.6592 -1.0677
  891SOL    HW3 3563   3.502   1.962   1.392 -0.1216 -0.2144 -0.6961
  891SOL    MW4 3564   3.579   1.925   1.407 -0.1994 -0.0822  0.0537
  892SOL     OW 3565   4.427   1.434   0.472 -0.0329 -0.8799  0.0608
  892SOL    HW2 3566   4.352   1.446   0.414  1.0351 -1.2437 -1.4201
  892SOL    HW3 3567   4.484   1.508   0.453  0.2769 -0.9460  0.7221
  892SOL    MW4 3568   4.425   1.445   0.462  0.1489 -0.9366 -0.0473
  893SOL     OW 3569   3.365   3.145   1.493  0.1375 -0.0145  0.1510
  893SOL    HW2 3570   3.336   3.123   1.582 -0.1690 -2.0932 -0.4404
  893SOL    HW3 3571   3.293   3.194   1.456 -0.0116  0.2815  0.8161
  893SOL    MW4 3572   3.352   3.149   1.500  0.0774 -0.2497  0.1607
  894SOL     OW 3573   0.668   0.491   1.328  0.0436 -0.1321 -0.0777
  894SOL    HW2 3574   0.739   0.444   1.371 -1.0273 -0.9487  0.8198
  894SOL    HW3 3575   0.665   0.576   1.372  0.5158 -0.0582 -0.1805
  894SOL    MW4 3576   0.677   0.496   1.339 -0.0354 -0.2301  0.0271
  895SOL     OW 3577   0.475   3.062   0.661  0.1695 -0.6820 -0.1031
  895SOL    HW2 3578   0.382   3.074   0.644  0.2511  0.0320 -0.0324
  895SOL    HW3 3579   0.480   3.046   0.756  0.2400  0.4754  0.0903
  895SOL    MW4 3580   0.463   3.061   0.671  0.1895 -0.4351 -0.0682
  896SOL     OW 3581   3.595   1.482   0.349  0.6411  0.1605 -0.2313
  896SOL    HW2 3582   3.534   1.494   0.422  0.4171 -0.0423 -0.3823
  896SOL    HW3 3583   3.647   1.406   0.373  0.1687 -0.2698 -0.5477
  896SOL    MW4 3584   3.594   1.474   0.362  0.5493  0.0769 -0.2930
  897SOL     OW 3585   2.703   2.516   1.129 -0.0641 -0.1433 -0.1505
  897SOL    HW2 3586   2.687   2.424   1.111 -0.0905 -0.6756  2.4434
  897SOL    HW3 3587   2.625   2.561   1.097 -0.4527 -1.1103 -0.5698
  897SOL    MW4 3588   2.691   2.510   1.123 -0.1189 -0.3411  0.1364
  898SOL     OW 3589   1.588   2.509   0.781 -0.3992 -0.2773 -0.3673
  898SOL    HW2 3590   1.651   2.536   0.714  0.2616 -0.1676  0.2877
  898SOL    HW3 3591   1.581   2.414   0.771 -0.6138 -0.2109 -0.8564
  898SOL    MW4 3592   1.596   2.500   0.771 -0.3403 -0.2541 -0.3454
  899SOL     OW 3593   4.368   4.185   0.759  0.3467  0.3307 -0.2496
  899SOL    HW2 3594   4.305   4.133   0.711  0.1099  0.8280 -0.4842
  899SOL    HW3 3595   4.443   4.127   0.772 -0.1057 -0.2095 -0.0947
  899SOL    MW4 3596   4.370   4.171   0.754  0.2558  0.3251 -0.2601
  900SOL     OW 3597   4.035   0.821   0.902  0.4157 -0.6502 -0.2076
  900SOL    HW2 3598   3.958   0.875   0.885  1.4676  0.2983 -2.2279
  900SOL    HW3 3599   4.090   0.874   0.959  0.0667 -0.8980  0.3699
  900SOL    MW4 3600   4.032   0.835   0.907  0.5085 -0.5578 -0.3979
  901SOL     OW 3601   0.859   0.502   0.344  0.4344  0.2643  0.1696
  901SOL    HW2 3602   0.931   0.497   0.281 -0.0790  3.2430 -0.7533
  901SOL    HW3 3603   0.887   0.569   0.407 -1.1561  0.8728  0.2530
  901SOL    MW4 3604   0.872   0.511   0.344  0.1568  0.7376  0.0588
  902SOL     OW 3605   3.406   0.758   1.769  0.1420  0.4536  0.1572
  902SOL    HW2 3606   3.319   0.790   1.791 -1.1230 -1.2322 -2.2342
  902SOL    HW3 3607   3.414   0.674   1.814  0.0676  0.0716 -0.5273
  902SOL    MW4 3608   3.396   0.751   1.778 -0.0347  0.1808 -0.2486
  903SOL     OW 3609   2.880   3.622   1.422  0.0007 -0.0020 -0.4916
  903SOL    HW2 3610   2.899   3.620   1.328  1.1026 -0.6806 -0.2663
  903SOL    HW3 3611   2.806   3.563   1.433  1.2405 -1.6059 -0.6508
  903SOL    MW4 3612   2.873   3.614   1.411  0.3097 -0.3031 -0.4829
  904SOL     OW 3613   2.640   2.878   0.413  0.3610  0.1840  0.0645
  904SOL    HW2 3614   2.654   2.906   0.504 -0.2434 -1.2604  0.6179
  904SOL    HW3 3615   2.645   2.959   0.362  1.1362  0.9526  1.3319
  904SOL    MW4 3616   2.643   2.893   0.419  0.3835  0.0949  0.3047
  905SOL     OW 3617   3.052   3.038   0.731 -0.0723 -0.4880  0.2170
  905SOL    HW2 3618   3.034   2.944   0.720 -1.1192 -0.4417  1.5204
  905SOL    HW3 3619   2.978   3.081   0.689 -0.5292 -0.2602  1.2503
  905SOL    MW4 3620   3.040   3.031   0.724 -0.2707 -0.4518  0.5253
  906SOL     OW 3621   2.660   3.450   1.485 -0.0716 -0.0591  0.0913
  906SOL    HW2 3622   2.590   3.490   1.433 -0.1636 -0.1659  0.1325
  906SOL    HW3 3623   2.672   3.363   1.446  0.6754  0.3059 -0.5039
  906SOL    MW4 3624   2.652   3.444   1.473  0.0148 -0.0250  0.0182
  907SOL     OW 3625   4.073   4.067   1.079  0.2336 -0.0068  0.2908
  907SOL    HW2 3626   4.064   3.987   1.027 -1.1389  0.3739 -0.0721
  907SOL    HW3 3627   4.123   4.127   1.023  0.3806 -0.2557  0.1577
  907SOL    MW4 3628   4.078   4.064   1.065  0.0719  0.0106  0.2253
  908SOL     OW 3629   1.371   0.886   1.459 -0.0052  0.4753  0.3838
  908SOL    HW2 3630   1.457   0.853   1.484 -0.2384 -0.4672 -0.0581
  908SOL    HW3 3631   1.369   0.876   1.364 -0.6165  0.4795  0.3999
  908SOL    MW4 3632   1.382   0.880   1.450 -0.1166  0.3515  0.3276
  909SOL     OW 3633   2.484   1.168   0.644 -0.0207 -0.1757 -0.1583
  909SOL    HW2 3634   2.466   1.142   0.554 -0.1779 -0.9891  0.1013
  909SOL    HW3 3635   2.437   1.104   0.698 -1.2384  1.2349  0.5084
  909SOL    MW4 3636   2.475   1.156   0.640 -0.2021 -0.0969 -0.0361
  910SOL     OW 3637   2.832   4.568   0.525 -0.7484  0.0281 -0.2060
  910SOL    HW2 3638   2.759   4.595   0.581 -0.7921  0.1487 -0.3198
  910SOL    HW3 3639   2.796   4.498   0.470 -1.1167  0.8815 -1.0755
  910SOL    MW4 3640   2.818   4.562   0.525 -0.8028  0.1566 -0.3357
  911SOL     OW 3641   2.699   1.943   1.502 -0.4827 -0.0479  0.7885
  911SOL    HW2 3642   2.683   1.925   1.595 -0.6191  1.5071  1.0732
  911SOL    HW3 3643   2.620   1.987   1.472  0.1839  0.8344  0.3098
  911SOL    MW4 3644   2.686   1.946   1.510 -0.4128  0.2736  0.7629
  912SOL     OW 3645   2.216   0.095   1.321  0.3928  0.0661  0.0769
  912SOL    HW2 3646   2.142   0.043   1.354  0.3182  1.3383  1.9715
  912SOL    HW3 3647   2.293   0.052   1.358  0.3942  0.6630  0.7751
  912SOL    MW4 3648   2.216   0.082   1.330  0.3831  0.3127  0.4190
  913SOL     OW 3649   1.414   2.335   0.304  0.3391  0.2057 -0.1745
  913SOL    HW2 3650   1.495   2.298   0.340 -0.9916 -2.8065 -0.0939
  913SOL    HW3 3651   1.355   2.341   0.380  0.4299  2.3604 -0.2334
  913SOL    MW4 3652   1.417   2.331   0.319  0.1755  0.0925 -0.1716
  914SOL     OW 3653   3.343   3.096   1.782 -0.3646 -0.2587  0.1028
  914SOL    HW2 3654   3.337   3.019   1.838 -0.1459  0.1194  0.6557
  914SOL    HW3 3655   3.424   3.139   1.809 -1.1497  0.8721  0.7213
  914SOL    MW4 3656   3.353   3.092   1.793 -0.4393 -0.0596  0.2574
  915SOL     OW 3657   1.541   0.985   0.977 -0.4108  0.1084  0.0476
  915SOL    HW2 3658   1.545   1.079   0.997  0.7930  0.2031 -0.5767
  915SOL    HW3 3659   1.619   0.948   1.018 -1.7321 -0.9100  1.6957
  915SOL    MW4 3660   1.552   0.993   0.985 -0.4263 -0.0135  0.1826
  916SOL     OW 3661   1.886   2.597   0.345  0.4059 -0.1746 -0.4883
  916SOL    HW2 3662   1.869   2.681   0.303 -0.7882  0.1190  0.5347
  916SOL    HW3 3663   1.831   2.535   0.297 -0.1170 -0.0306 -0.0917
  916SOL    MW4 3664   1.876   2.600   0.333  0.1794 -0.1168 -0.3010
  917SOL     OW 3665   2.471   4.387   1.321  0.3923  0.6516  0.1819
  917SOL    HW2 3666   2.541   4.360   1.381  2.2892  1.7902 -1.4204
  917SOL    HW3 3667   2.445   4.474   1.351 -0.5310  0.1147  0.9408
  917SOL    MW4 3668   2.477   4.395   1.333  0.5207  0.7310  0.0706
  918SOL     OW 3669   3.268   1.959   0.663 -0.3425  0.1497 -0.2987
  918SOL    HW2 3670   3.283   1.906   0.741  0.5529 -0.4054 -0.8363
  918SOL    HW3 3671   3.239   2.044   0.697 -0.0060 -0.1004  0.6368
  918SOL    MW4 3672   3.266   1.964   0.678 -0.1800  0.0435 -0.2462
  919SOL     OW 3673   4.136   2.297   0.752  0.0109  0.5091  0.3680
  919SOL    HW2 3674   4.127   2.248   0.834  0.6652  0.8419  0.6420
  919SOL    HW3 3675   4.046   2.316   0.726 -0.1924  0.9810  1.3629
  919SOL    MW4 3676   4.123   2.293   0.760  0.0704  0.6153  0.5354
  920SOL     OW 3677   0.690   4.145   1.004 -0.2911  0.1629 -0.0647
  920SOL    HW2 3678   0.676   4.162   0.911  0.6694 -1.3569 -0.5156
  920SOL    HW3 3679   0.619   4.085   1.029  0.7697 -1.2902 -0.4234
  920SOL    MW4 3680   0.679   4.139   0.995 -0.0244 -0.2293 -0.1716
  921SOL     OW 3681   0.634   3.301   0.682 -0.2199  0.3981  0.3068
  921SOL    HW2 3682   0.583   3.220   0.683  1.5528 -0.7483  0.2903
  921SOL    HW3 3683   0.648   3.321   0.775  2.3713 -1.3273  0.3587
  921SOL    MW4 3684   0.629   3.293   0.695  0.3559  0.0192  0.3114
  922SOL     OW 3685   3.824   4.638   1.468  0.2726 -0.0443  0.0183
  922SOL    HW2 3686   3.756   4.698   1.438 -0.4331 -0.6240  0.4471
  922SOL    HW3 3687   3.826   4.650   1.563  0.0750 -0.7470  0.1141
  922SOL    MW4 3688   3.815   4.648   1.476  0.1534 -0.2135  0.0875
  923SOL     OW 3689   0.910   0.669   0.558  0.1447  0.1217  0.3299
  923SOL    HW2 3690   0.828   0.661   0.606 -0.3030  0.9886 -0.2642
  923SOL    HW3 3691   0.944   0.755   0.583  0.6242 -0.0261  0.1943
  923SOL    MW4 3692   0.904   0.679   0.567  0.1489  0.2166  0.2336
  924SOL     OW 3693   2.959   1.137   0.750 -0.5795  0.1753 -0.1706
  924SOL    HW2 3694   3.037   1.081   0.744  0.4727  1.6443 -0.4873
  924SOL    HW3 3695   2.886   1.078   0.734  0.4046 -1.3895  0.8883
  924SOL    MW4 3696   2.960   1.122   0.747 -0.3109  0.1626 -0.0727
  925SOL     OW 3697   1.800   4.522   0.966  0.2703 -0.1163  0.5131
  925SOL    HW2 3698   1.781   4.611   0.995  0.6601 -0.4905  1.9446
  925SOL    HW3 3699   1.725   4.470   0.994  0.0747 -0.2656 -0.2595
  925SOL    MW4 3700   1.788   4.527   0.973  0.2959 -0.1854  0.6000
  926SOL     OW 3701   4.078   0.917   1.375  0.0343  0.0546 -0.0039
  926SOL    HW2 3702   4.108   0.933   1.286  0.5729 -0.2148  0.1308
  926SOL    HW3 3703   4.065   1.005   1.412 -3.1136  0.1993 -1.3192
  926SOL    MW4 3704   4.080   0.931   1.368 -0.3099  0.0382 -0.1596
  927SOL     OW 3705   3.372   0.456   1.342  0.1857 -0.9615 -0.1175
  927SOL    HW2 3706   3.369   0.454   1.247 -1.8074  1.0812 -0.1497
  927SOL    HW3 3707   3.294   0.407   1.370 -0.4120  0.2651  0.4051
  927SOL    MW4 3708   3.361   0.449   1.333 -0.1561 -0.5301 -0.0528
  928SOL     OW 3709   0.098   4.579   0.789  0.4022 -0.2106  0.3343
  928SOL    HW2 3710   0.060   4.574   0.877 -1.6149  0.7967 -0.4362
  928SOL    HW3 3711   0.039   4.526   0.735  0.9844  0.0928 -0.6107
  928SOL    MW4 3712   0.085   4.571   0.793  0.2129 -0.0377  0.1080
  929SOL     OW 3713   4.075   1.161   1.506  0.2657 -0.9649 -0.0052
  929SOL    HW2 3714   3.998   1.211   1.481  1.9123  1.2293 -0.8966
  929SOL    HW3 3715   4.072   1.158   1.601 -0.0491  0.5679  0.0429
  929SOL    MW4 3716   4.065   1.167   1.515  0.4414 -0.4732 -0.1164
  930SOL     OW 3717   3.854   1.247   1.398 -0.5115  0.5982 -0.6233
  930SOL    HW2 3718   3.867   1.217   1.308 -0.2843  0.3829 -0.5183
  930SOL    HW3 3719   3.772   1.206   1.426 -0.7754  0.9582 -0.8563
  930SOL    MW4 3720   3.845   1.238   1.389 -0.5163  0.6173 -0.6402
  931SOL     OW 3721   0.993   0.543   0.785  0.0022 -0.0428 -0.2830
  931SOL    HW2 3722   0.938   0.592   0.723 -0.8218  0.3704  0.7536
  931SOL    HW3 3723   0.953   0.560   0.871  2.2864  0.9821  0.6044
  931SOL    MW4 3724   0.980   0.552   0.788  0.1949  0.1469 -0.0291
  932SOL     OW 3725   1.136   2.948   0.447  0.4992 -0.3977 -0.1483
  932SOL    HW2 3726   1.110   3.039   0.459 -1.1918 -0.7723 -0.7830
  932SOL    HW3 3727   1.167   2.920   0.533  1.3348  0.8666 -0.0291
  932SOL    MW4 3728   1.136   2.957   0.460  0.3863 -0.2803 -0.2163
  933SOL     OW 3729   3.854   2.335   1.421 -0.2922 -0.2956 -0.5494
  933SOL    HW2 3730   3.855   2.327   1.517 -1.2946  0.9974 -0.4222
  933SOL    HW3 3731   3.848   2.245   1.390  2.5769 -0.9453  0.5410
  933SOL    MW4 3732   3.854   2.322   1.430 -0.0459 -0.2107 -0.3887
  934SOL     OW 3733   2.836   1.253   0.343  0.2002 -0.0774 -0.7332
  934SOL    HW2 3734   2.783   1.319   0.297 -1.0788 -0.7318 -0.2099
  934SOL    HW3 3735   2.835   1.281   0.434  0.1170 -0.5202 -0.6000
  934SOL    MW4 3736   2.829   1.265   0.349  0.0205 -0.2222 -0.6466
  935SOL     OW 3737   4.446   1.004   0.376  0.7698 -0.0270  0.2387
  935SOL    HW2 3738   4.521   0.961   0.334  0.9268  0.2191  0.2703
  935SOL    HW3 3739   4.386   0.932   0.395 -0.4701  0.1194 -2.7613
  935SOL    MW4 3740   4.448   0.988   0.373  0.6269  0.0248 -0.1529
  936SOL     OW 3741   0.672   3.374   0.943  0.0594  0.0538  0.2803
  936SOL    HW2 3742   0.752   3.332   0.974  0.5426 -0.0709 -1.1092
  936SOL    HW3 3743   0.604   3.341   1.001  1.1924  1.0693  2.2241
  936SOL    MW4 3744   0.674   3.364   0.955  0.2726  0.1713  0.3534
  937SOL     OW 3745   0.127   3.774   0.710  0.1963 -0.0696  1.1735
  937SOL    HW2 3746   0.178   3.786   0.630  1.6669  0.8041  2.1999
  937SOL    HW3 3747   0.083   3.690   0.699 -2.2046  1.4761 -1.9166
  937SOL    MW4 3748   0.128   3.765   0.698  0.0736  0.2496  0.9012
  938SOL     OW 3749   0.331   4.116   0.513 -0.1525  0.0396 -0.4566
  938SOL    HW2 3750   0.319   4.152   0.601  2.0007  0.8967 -0.4653
  938SOL    HW3 3751   0.412   4.157   0.482 -0.0427 -1.4652 -2.2267
  938SOL    MW4 3752   0.340   4.126   0.521  0.1460 -0.0458 -0.6913
  939SOL     OW 3753   3.623   1.446   0.665  0.3871 -0.2636 -0.2802
  939SOL    HW2 3754   3.557   1.513   0.647 -0.6494 -1.3423 -0.5599
  939SOL    HW3 3755   3.585   1.366   0.631  0.9369 -1.2888  1.4842
  939SOL    MW4 3756   3.609   1.445   0.658  0.3229 -0.5412 -0.0843
  940SOL     OW 3757   4.264   0.514   1.390 -0.2892 -0.4278 -0.3897
  940SOL    HW2 3758   4.334   0.483   1.447 -0.3647 -0.3788 -0.2697
  940SOL    HW3 3759   4.190   0.456   1.409  0.0032 -1.0678 -1.1894
  940SOL    MW4 3760   4.264   0.502   1.400 -0.2606 -0.5058 -0.4794
  941SOL     OW 3761   3.598   1.690   1.009  0.3073  0.2263 -0.3498
  941SOL    HW2 3762   3.583   1.687   1.103 -0.9740  2.2320 -0.4421
  941SOL    HW3 3763   3.511   1.703   0.971  0.8947  0.1838 -1.7519
  941SOL    MW4 3764   3.585   1.692   1.016  0.2158  0.4853 -0.5470
  942SOL     OW 3765   0.546   1.630   0.544 -0.7771  0.0056 -0.2246
  942SOL    HW2 3766   0.593   1.688   0.604  3.1937  0.1208 -3.1898
  942SOL    HW3 3767   0.583   1.543   0.560 -1.3869 -0.3749 -0.8585
  942SOL    MW4 3768   0.557   1.626   0.554 -0.3337 -0.0294 -0.6994
  943SOL     OW 3769   2.007   3.644   1.358 -0.4379  0.2748 -0.1479
  943SOL    HW2 3770   1.927   3.593   1.369 -0.8974  0.5294 -2.0388
  943SOL    HW3 3771   2.030   3.632   1.266  2.1441 -0.4415  0.5610
  943SOL    MW4 3772   1.999   3.636   1.347 -0.1578  0.2139 -0.3038
  944SOL     OW 3773   3.642   4.459   0.541  0.6291 -0.2076  0.0433
  944SOL    HW2 3774   3.695   4.459   0.461  0.8674 -0.2611  0.2004
  944SOL    HW3 3775   3.701   4.492   0.609  0.3081  0.2111  0.1188
  944SOL    MW4 3776   3.657   4.463   0.540  0.6182 -0.1594  0.0740
  945SOL     OW 3777   0.913   1.674   1.400 -0.3625  0.0434  0.1645
  945SOL    HW2 3778   0.909   1.764   1.432  1.5398  0.3286 -0.3648
  945SOL    HW3 3779   0.842   1.629   1.447  0.2572  1.2121  2.2867
  945SOL    MW4 3780   0.903   1.680   1.410 -0.0297  0.2352  0.3747
  946SOL     OW 3781   4.405   2.332   0.715 -0.6304 -0.8114 -0.0893
  946SOL    HW2 3782   4.315   2.312   0.742 -0.6363 -0.5322  0.1030
  946SOL    HW3 3783   4.460   2.292   0.782 -0.6433 -0.1850  0.3051
  946SOL    MW4 3784   4.400   2.324   0.727 -0.6329 -0.6919 -0.0119
  947SOL     OW 3785   1.988   1.267   0.638  0.1277 -0.1475 -0.2601
  947SOL    HW2 3786   2.054   1.336   0.650  1.0335 -0.6338 -2.3561
  947SOL    HW3 3787   1.906   1.308   0.667  0.8955  1.3160 -0.0777
  947SOL    MW4 3788   1.986   1.282   0.644  0.3485 -0.0186 -0.5125
  948SOL     OW 3789   2.058   2.807   1.414  0.4343 -0.0484 -0.0507
  948SOL    HW2 3790   2.060   2.897   1.448  0.3006 -0.3237  0.6767
  948SOL    HW3 3791   2.134   2.765   1.453  0.5124 -0.2534 -0.4174
  948SOL    MW4 3792   2.068   2.814   1.423  0.4269 -0.1118 -0.0031
  949SOL     OW 3793   2.721   1.442   0.980 -0.4945  0.4981  0.5581
  949SOL    HW2 3794   2.732   1.461   0.886  0.6876 -0.1091  0.5559
  949SOL    HW3 3795   2.629   1.417   0.989 -0.8260  1.3887 -0.2919
  949SOL    MW4 3796   2.710   1.441   0.968 -0.3823  0.5355  0.4456
  950SOL     OW 3797   1.650   2.926   0.649  0.1914  0.3325 -0.2442
  950SOL    HW2 3798   1.674   3.016   0.627 -0.4052  0.5707  0.0802
  950SOL    HW3 3799   1.616   2.889   0.567 -1.5194  1.0509  0.1402
  950SOL    MW4 3800   1.649   2.933   0.635 -0.1130  0.4587 -0.1507
  951SOL     OW 3801   3.136   2.806   0.312 -0.2776  0.3759 -0.3182
  951SOL    HW2 3802   3.148   2.896   0.340 -0.6842  0.5767 -0.7817
  951SOL    HW3 3803   3.047   2.784   0.338 -0.3692  0.2884 -0.7077
  951SOL    MW4 3804   3.126   2.815   0.319 -0.3433  0.3908 -0.4307
  952SOL     OW 3805   4.473   3.671   0.187 -0.2144  0.1208 -0.5602
  952SOL    HW2 3806   4.378   3.668   0.175 -0.2317 -1.4604 -0.1842
  952SOL    HW3 3807   4.505   3.593   0.140  0.9227  0.8242 -0.9606
  952SOL    MW4 3808   4.465   3.660   0.179 -0.0667  0.0050 -0.5634
  953SOL     OW 3809   1.818   3.994   1.024  0.0310 -0.0058 -0.1074
  953SOL    HW2 3810   1.899   4.027   0.987 -1.3236 -0.1683 -3.3451
  953SOL    HW3 3811   1.815   3.902   0.999 -0.9914 -0.0827  0.2533
  953SOL    MW4 3812   1.828   3.987   1.016 -0.2826 -0.0374 -0.4870
  954SOL     OW 3813   0.900   0.633   1.046  0.2373 -0.3201  0.4774
  954SOL    HW2 3814   0.953   0.585   1.109  2.3275  0.6264 -0.4822
  954SOL    HW3 3815   0.891   0.721   1.084 -0.4855 -0.4162  0.5385
  954SOL    MW4 3816   0.906   0.638   1.059  0.4177 -0.2079  0.3589
  955SOL     OW 3817   4.304   0.348   0.288  0.0986 -0.2544 -0.3606
  955SOL    HW2 3818   4.355   0.428   0.300 -0.8942  0.1854  0.9161
  955SOL    HW3 3819   4.216   0.379   0.263 -0.2047 -0.9531 -0.1585
  955SOL    MW4 3820   4.299   0.363   0.286 -0.0724 -0.2885 -0.1655
  956SOL     OW 3821   1.234   2.358   0.518  0.1172 -0.4973  0.8288
  956SOL    HW2 3822   1.267   2.293   0.581  1.7731  0.2169  0.7334
  956SOL    HW3 3823   1.223   2.437   0.571 -0.7995 -0.5541  0.7131
  956SOL    MW4 3824   1.237   2.360   0.534  0.2147 -0.4106  0.8009
  957SOL     OW 3825   0.889   3.802   1.025  0.0898  0.3761 -0.5685
  957SOL    HW2 3826   0.885   3.822   0.931  0.2038  0.0427 -0.6468
  957SOL    HW3 3827   0.884   3.887   1.068  1.1906  0.6305 -0.9189
  957SOL    MW4 3828   0.888   3.815   1.018  0.2501  0.3656 -0.6251
  958SOL     OW 3829   2.663   1.442   0.232  0.4246  0.0835 -0.1410
  958SOL    HW2 3830   2.613   1.430   0.152  0.0630  0.3088  0.0502
  958SOL    HW3 3831   2.672   1.537   0.241  0.5848  0.0544  0.0111
  958SOL    MW4 3832   2.657   1.453   0.223  0.3981  0.1094 -0.0957
  959SOL     OW 3833   2.845   2.381   0.643  0.7914 -0.9730  0.6631
  959SOL    HW2 3834   2.906   2.436   0.693  0.3857 -0.5650  0.7110
  959SOL    HW3 3835   2.867   2.399   0.552  0.3141 -0.3285  0.6681
  959SOL    MW4 3836   2.856   2.391   0.638  0.6749 -0.8342  0.6701
  960SOL     OW 3837   4.490   2.766   1.404 -0.1385 -0.0276 -0.1470
  960SOL    HW2 3838   4.415   2.805   1.358 -0.1616 -0.8249 -0.8029
  960SOL    HW3 3839   4.560   2.832   1.395 -0.1477 -0.1532 -1.3357
  960SOL    MW4 3840   4.490   2.780   1.397 -0.1428 -0.1494 -0.3904
  961SOL     OW 3841   4.263   3.068   1.720 -0.2172  0.1842 -0.2274
  961SOL    HW2 3842   4.193   3.102   1.776 -0.4598  0.6141 -0.7962
  961SOL    HW3 3843   4.264   2.974   1.738 -0.0841  0.3629  0.7336
  961SOL    MW4 3844   4.254   3.060   1.730 -0.2317  0.2645 -0.1756
  962SOL     OW 3845   3.183   3.021   1.000 -0.6298 -0.2299 -0.2904
  962SOL    HW2 3846   3.176   3.110   1.034 -0.0704  0.0953 -1.0138
  962SOL    HW3 3847   3.147   3.026   0.912  1.1393 -0.2908 -1.0429
  962SOL    MW4 3848   3.178   3.033   0.993 -0.3226 -0.1950 -0.4851
  963SOL     OW 3849   2.797   0.799   0.288 -0.3074 -0.2577 -0.0888
  963SOL    HW2 3850   2.772   0.890   0.270 -0.1197 -0.0850  0.5331
  963SOL    HW3 3851   2.713   0.755   0.303 -0.3153  0.1075  0.9834
  963SOL    MW4 3852   2.782   0.806   0.288 -0.2837 -0.1868  0.1347
  964SOL     OW 3853   2.452   4.401   1.026  0.1767 -0.2535 -0.0474
  964SOL    HW2 3854   2.455   4.399   1.121 -0.8428 -0.2034 -0.0034
  964SOL    HW3 3855   2.367   4.440   1.006 -0.2724 -1.6663 -0.9756
  964SOL    MW4 3856   2.441   4.406   1.036 -0.0171 -0.4333 -0.1640
  965SOL     OW 3857   4.392   0.132   0.433 -0.3838 -0.0767 -0.0323
  965SOL    HW2 3858   4.305   0.094   0.443 -0.9101  0.8692 -0.9203
  965SOL    HW3 3859   4.377   0.217   0.391  0.9379  0.2378  0.0942
  965SOL    MW4 3860   4.378   0.138   0.429 -0.2789  0.0896 -0.1328
  966SOL     OW 3861   1.878   1.301   0.375 -0.1558  0.3278  0.0581
  966SOL    HW2 3862   1.782   1.295   0.378 -0.4070  2.8791 -0.7815
  966SOL    HW3 3863   1.906   1.281   0.464 -1.6287  1.1939  0.7592
  966SOL    MW4 3864   1.869   1.298   0.387 -0.3833  0.7787  0.0398
  967SOL     OW 3865   2.372   0.467   0.245 -0.0945 -0.4509  0.2864
  967SOL    HW2 3866   2.422   0.387   0.229 -0.1073 -0.0617 -1.9082
  967SOL    HW3 3867   2.281   0.437   0.249 -0.0331 -0.6462  0.2517
  967SOL    MW4 3868   2.367   0.452   0.243 -0.0881 -0.4253 -0.0077
  968SOL     OW 3869   1.856   3.280   0.350  0.5801 -0.2761 -0.2308
  968SOL    HW2 3870   1.867   3.368   0.315 -0.0557  0.3733  1.1922
  968SOL    HW3 3871   1.823   3.228   0.276  2.1787  0.3624 -1.4288
  968SOL    MW4 3872   1.853   3.284   0.336  0.7071 -0.1062 -0.2011
  969SOL     OW 3873   1.058   0.898   0.625 -0.2009  0.1410 -0.4646
  969SOL    HW2 3874   1.148   0.870   0.643 -0.7674 -1.2272  0.3150
  969SOL    HW3 3875   1.037   0.958   0.696  0.0725  0.4057 -0.6073
  969SOL    MW4 3876   1.067   0.902   0.637 -0.2396 -0.0046 -0.3805
  970SOL     OW 3877   0.173   0.005   1.767  0.1842  0.4458  0.1106
  970SOL    HW2 3878   0.172   0.024   1.673 -0.2839  0.8890  0.2056
  970SOL    HW3 3879   0.266   0.008   1.791  0.3207  0.1603 -0.3703
  970SOL    MW4 3880   0.185   0.008   1.758  0.1404  0.4666  0.0597
  971SOL     OW 3881   4.470   0.111   1.910  0.6775 -0.1420  0.2060
  971SOL    HW2 3882   4.464   0.202   1.882 -0.2391  0.0543  1.0271
  971SOL    HW3 3883   4.547   0.077   1.864  1.7968  1.3971  0.9046
  971SOL    MW4 3884   4.479   0.118   1.900  0.7043  0.0869  0.4065
  972SOL     OW 3885   0.001   0.359   1.807  0.2445  0.5503  0.2621
  972SOL    HW2 3886  -0.070   0.421   1.826 -0.0468  0.6110 -0.9482
  972SOL    HW3 3887   0.005   0.357   1.711 -0.9364 -2.6393  0.2153
  972SOL    MW4 3888  -0.008   0.367   1.797  0.0503  0.1375  0.0962
  973SOL     OW 3889   0.229   0.772   1.772  0.3306  0.1547  0.3896
  973SOL    HW2 3890   0.236   0.682   1.804  0.0889  0.1400  0.3990
  973SOL    HW3 3891   0.312   0.812   1.797  1.0575 -0.4951 -0.9562
  973SOL    MW4 3892   0.241   0.765   1.780  0.3946  0.0670  0.2133
  974SOL     OW 3893   0.242   0.492   1.842 -0.1677 -0.5641  0.1040
  974SOL    HW2 3894   0.312   0.430   1.823  0.0145  0.2453 -1.9495
  974SOL    HW3 3895   0.161   0.445   1.821 -0.0612 -0.3293 -0.8423
  974SOL    MW4 3896   0.241   0.477   1.837 -0.1296 -0.4264 -0.2918
  975SOL     OW 3897   0.016   0.939   1.860 -0.2958 -0.0955  0.1886
  975SOL    HW2 3898  -0.063   0.894   1.830 -0.6528  0.4456  0.2946
  975SOL    HW3 3899   0.088   0.883   1.832 -0.7620 -1.1056  0.9873
  975SOL    MW4 3900   0.015   0.926   1.852 -0.4044 -0.1574  0.3080
  976SOL     OW 3901   4.258   1.300   1.852  0.1941  0.0096  0.2779
  976SOL    HW2 3902   4.199   1.231   1.824  2.4451 -2.0148  0.3462
  976SOL    HW3 3903   4.272   1.283   1.946 -0.2260  1.3257  0.5906
  976SOL    MW4 3904   4.252   1.289   1.861  0.4356 -0.0838  0.3282
  977SOL     OW 3905   0.239   1.322   1.866  0.3608  0.3267 -0.1192
  977SOL    HW2 3906   0.239   1.405   1.819  1.5273 -0.1858 -1.0549
  977SOL    HW3 3907   0.160   1.277   1.836 -0.1205  0.9671  0.1724
  977SOL    MW4 3908   0.228   1.327   1.856  0.4512  0.3436 -0.2042
  978SOL     OW 3909   0.259   1.572   1.731 -0.1657  0.1085  0.0829
  978SOL    HW2 3910   0.333   1.623   1.764  1.1009 -2.5203  1.4951
  978SOL    HW3 3911   0.182   1.613   1.769  0.7145  1.6139  0.2929
  978SOL    MW4 3912   0.259   1.584   1.740  0.1175 -0.0397  0.2970
  979SOL     OW 3913   4.486   1.693   1.813 -0.4786  0.4971  0.4421
  979SOL    HW2 3914   4.495   1.693   1.909  2.6142 -0.3451  0.2214
  979SOL    HW3 3915   4.400   1.655   1.797 -1.4728  1.5724  2.9056
  979SOL    MW4 3916   4.476   1.688   1.824 -0.2017  0.5278  0.7380
  980SOL     OW 3917   0.212   2.062   1.824 -0.6916 -0.4870  0.9256
  980SOL    HW2 3918   0.213   2.151   1.787  0.3423  0.0050  2.0884
  980SOL    HW3 3919   0.140   2.018   1.779  0.0064  0.3387 -1.0704
  980SOL    MW4 3920   0.203   2.068   1.813 -0.4631 -0.3131  0.8157
  981SOL     OW 3921   4.488   1.940   1.704 -0.2302 -0.0381  0.1845
  981SOL    HW2 3922   4.490   1.857   1.751  0.5551  1.0545  2.1927
  981SOL    HW3 3923   4.413   1.986   1.741 -1.3569 -0.2864 -1.7348
  981SOL    MW4 3924   4.479   1.935   1.715 -0.2752  0.0733  0.1962
  982SOL     OW 3925   0.226   2.352   1.727  0.0801  0.7372 -0.3299
  982SOL    HW2 3926   0.297   2.405   1.763 -0.1798  2.1674 -1.8911
  982SOL    HW3 3927   0.147   2.402   1.745 -0.3541  0.0230 -0.2307
  982SOL    MW4 3928   0.225   2.365   1.734 -0.0115  0.8316 -0.5228
  983SOL     OW 3929   4.244   2.342   1.715  0.0035  0.1591 -0.1402
  983SOL    HW2 3930   4.257   2.260   1.762  2.3074  0.8030  0.4415
  983SOL    HW3 3931   4.324   2.392   1.733 -1.8376  2.9828  0.4091
  983SOL    MW4 3932   4.256   2.337   1.723  0.0646  0.6166  0.0090
  984SOL     OW 3933   0.237   2.916   1.309  0.4315 -0.2923  0.1183
  984SOL    HW2 3934   0.243   2.892   1.217  2.1843 -1.6080  0.5463
  984SOL    HW3 3935   0.313   2.874   1.350 -1.2334 -1.1414  2.4594
  984SOL    MW4 3936   0.248   2.907   1.302  0.4431 -0.5779  0.4837
  985SOL     OW 3937   0.244   2.881   1.784 -0.4511 -0.6114 -0.2045
  985SOL    HW2 3938   0.234   2.970   1.751 -1.0820  0.3642  2.4383
  985SOL    HW3 3939   0.173   2.832   1.743 -1.9664  0.8378  0.6222
  985SOL    MW4 3940   0.234   2.886   1.774 -0.7343 -0.2914  0.2533
  986SOL     OW 3941   0.225   3.130   1.683  0.1017 -0.7474 -0.2673
  986SOL    HW2 3942   0.310   3.166   1.709 -0.1522  0.3164 -0.8643
  986SOL    HW3 3943   0.216   3.155   1.591 -1.7412  0.9209  0.3126
  986SOL    MW4 3944   0.235   3.138   1.674 -0.1749 -0.3869 -0.2695
  987SOL     OW 3945   4.485   3.206   1.820  0.1541  0.2705 -0.1993
  987SOL    HW2 3946   4.418   3.143   1.793  0.9316 -0.6108 -0.0871
  987SOL    HW3 3947   4.566   3.173   1.782  1.0163 -0.1772  1.9194
  987SOL    MW4 3948   4.487   3.193   1.812  0.3704  0.0952  0.0950
  988SOL     OW 3949   0.001   3.466   1.746  0.2406  0.3769  0.2110
  988SOL    HW2 3950   0.082   3.491   1.789 -0.1338  1.4118  0.3339
  988SOL    HW3 3951  -0.025   3.385   1.789  0.7630  0.4960  0.7578
  988SOL    MW4 3952   0.008   3.459   1.757  0.2601  0.5291  0.2994
  989SOL     OW 3953   0.238   3.579   1.829 -0.0654 -0.0589  0.0556
  989SOL    HW2 3954   0.267   3.602   1.917  2.3214 -0.1241 -0.6711
  989SOL    HW3 3955   0.231   3.662   1.783 -1.1193 -0.0409  0.2264
  989SOL    MW4 3956   0.241   3.593   1.835  0.1104 -0.0651 -0.0177
  990SOL     OW 3957   0.489   3.526   1.729 -0.6449  0.1420 -0.2927
  990SOL    HW2 3958   0.400   3.554   1.751  0.2819  2.0119  1.1863
  990SOL    HW3 3959   0.542   3.553   1.804  1.2487 -0.5531 -1.3564
  990SOL    MW4 3960   0.484   3.533   1.742 -0.2728  0.2970 -0.2379
  991SOL     OW 3961   0.236   3.848   1.744  0.6373 -0.3289 -0.1589
  991SOL    HW2 3962   0.153   3.891   1.761  1.0025 -0.0335  0.9086
  991SOL    HW3 3963   0.248   3.855   1.649  0.0759  0.7847 -0.1525
  991SOL    MW4 3964   0.227   3.855   1.734  0.6114 -0.1430 -0.0172
  992SOL     OW 3965   4.445   4.279   1.705  0.1884 -0.0750  0.2615
  992SOL    HW2 3966   4.529   4.307   1.739 -0.0587  0.9009  0.0882
  992SOL    HW3 3967   4.381   4.312   1.769 -0.2244  1.1568 -0.7805
  992SOL    MW4 3968   4.447   4.287   1.718  0.1013  0.2163  0.1011
  993SOL     OW 3969   0.173   4.387   1.848  0.2989 -0.2646  0.0602
  993SOL    HW2 3970   0.201   4.400   1.939  1.1865  1.3821 -0.4449
  993SOL    HW3 3971   0.147   4.473   1.818 -0.6209 -0.9225 -1.0675
  993SOL    MW4 3972   0.173   4.400   1.856  0.2947 -0.1341 -0.1552
  994SOL     OW 3973   0.664   4.625   1.789  0.0217 -0.2251 -0.1946
  994SOL    HW2 3974   0.645   4.533   1.805 -0.3506 -0.0237  0.5432
  994SOL    HW3 3975   0.669   4.632   1.694 -3.4027 -0.3368 -0.4593
  994SOL    MW4 3976   0.662   4.614   1.779 -0.4792 -0.2132 -0.1322
  995SOL     OW 3977   0.423   0.056   1.878 -0.4054  0.0965  0.1641
  995SOL    HW2 3978   0.433   0.150   1.862  1.5533 -0.2420 -0.7999
  995SOL    HW3 3979   0.508   0.019   1.853 -0.9314 -1.8418  1.1915
  995SOL    MW4 3980   0.435   0.063   1.872 -0.2163 -0.2039  0.1725
  996SOL     OW 3981   0.450   0.319   1.805 -0.3480 -0.2857  0.1576
  996SOL    HW2 3982   0.463   0.339   1.712 -1.1833  1.0973  0.3186
  996SOL    HW3 3983   0.519   0.367   1.850  0.7915 -1.9065  0.1826
  996SOL    MW4 3984   0.461   0.328   1.799 -0.3079 -0.3170  0.1821
  997SOL     OW 3985   0.697   0.495   1.849 -0.0778  0.1728 -0.3180
  997SOL    HW2 3986   0.719   0.519   1.939  0.0895  0.8925 -0.5481
  997SOL    HW3 3987   0.768   0.437   1.822 -0.0270  0.1099 -0.0564
  997SOL    MW4 3988   0.709   0.491   1.857 -0.0490  0.2595 -0.3139
  998SOL     OW 3989   0.664   0.749   1.740 -0.0583 -0.0847  0.2334
  998SOL    HW2 3990   0.746   0.787   1.772  0.0846 -0.8361  0.7674
  998SOL    HW3 3991   0.673   0.655   1.756 -1.3163 -0.0904  0.9553
  998SOL    MW4 3992   0.676   0.742   1.746 -0.2054 -0.1846  0.3991
  999SOL     OW 3993   0.472   0.862   1.883 -0.7526  0.2569  0.3651
  999SOL    HW2 3994   0.462   0.955   1.861 -0.4006  0.1347 -0.3459
  999SOL    HW3 3995   0.547   0.834   1.830  1.0500  0.2927  2.7909
  999SOL    MW4 3996   0.481   0.871   1.873 -0.4683  0.2455  0.5913
 1000SOL     OW 3997   0.254   0.757   1.502  0.4647  0.1285 -0.2679
 1000SOL    HW2 3998   0.318   0.814   1.460  1.2568 -0.0930  0.6161
 1000SOL    HW3 3999   0.258   0.780   1.595 -0.2446 -0.3651 -0.1059
 1000SOL    MW4 4000   0.263   0.767   1.509  0.4756  0.0342 -0.1299
 1001SOL     OW 4001   0.683   1.260   1.833  0.5022  0.5314  0.3907
 1001SOL    HW2 4002   0.712   1.263   1.924 -0.2543  1.7351  0.5953
 1001SOL    HW3 4003   0.598   1.216   1.835  0.3743  0.7696  0.3024
 1001SOL    MW4 4004   0.676   1.255   1.845  0.3855  0.7217  0.4061
 1002SOL     OW 4005   0.712   1.534   1.803 -0.1969  0.0247 -0.2810
 1002SOL    HW2 4006   0.679   1.448   1.825 -1.3167  0.7204  0.7908
 1002SOL    HW3 4007   0.710   1.537   1.707 -1.0734 -0.7614 -0.2866
 1002SOL    MW4 4008   0.708   1.523   1.793 -0.4603  0.0128 -0.1403
 1003SOL     OW 4009   0.007   1.964   1.415 -0.6283  0.2827 -0.3665
 1003SOL    HW2 4010   0.005   1.971   1.510  0.6254 -1.6168 -0.1741
 1003SOL    HW3 4011   0.089   2.005   1.389 -0.5336 -0.0255 -0.5539
 1003SOL    MW4 4012   0.017   1.970   1.424 -0.4504 -0.0086 -0.3659
 1004SOL     OW 4013   4.126   2.200   1.006  0.5090  0.1041  0.1389
 1004SOL    HW2 4014   4.192   2.155   1.059  0.6747 -0.6767 -0.7282
 1004SOL    HW3 4015   4.043   2.162   1.034  0.5910 -0.2669 -0.1262
 1004SOL    MW4 4016   4.124   2.189   1.017  0.5417 -0.0478 -0.0105
 1005SOL     OW 4017   0.435   1.930   1.742  0.1157 -1.0698  0.2597
 1005SOL    HW2 4018   0.438   1.854   1.801 -0.4777 -0.9888  0.4052
 1005SOL    HW3 4019   0.358   1.980   1.772  1.6028  0.6112  1.4304
 1005SOL    MW4 4020   0.425   1.927   1.754  0.2336 -0.8373  0.4334
 1006SOL     OW 4021   0.651   2.089   1.827 -0.4216  0.0691  0.6490
 1006SOL    HW2 4022   0.584   2.040   1.780 -0.3828  1.6370 -1.1148
 1006SOL    HW3 4023   0.609   2.116   1.908 -2.1400  1.4814 -0.6659
 1006SOL    MW4 4024   0.637   2.086   1.831 -0.6432  0.4623  0.2428
 1007SOL     OW 4025   0.424   2.512   1.835 -0.5132  0.0071 -0.3197
 1007SOL    HW2 4026   0.431   2.529   1.929 -1.1706  0.9398 -0.4371
 1007SOL    HW3 4027   0.496   2.451   1.817  0.1989  0.5429  0.6152
 1007SOL    MW4 4028   0.435   2.506   1.845 -0.5060  0.2009 -0.2118
 1008SOL     OW 4029   0.458   2.748   1.717  0.5733 -0.6798  0.0164
 1008SOL    HW2 4030   0.451   2.661   1.757  0.0312 -0.3616  0.6190
 1008SOL    HW3 4031   0.378   2.794   1.745 -0.1963 -0.7049 -2.0228
 1008SOL    MW4 4032   0.446   2.743   1.726  0.4003 -0.6411 -0.1731
 1009SOL     OW 4033   0.879   2.712   1.742 -0.4326  0.3779 -0.1966
 1009SOL    HW2 4034   0.804   2.759   1.778 -0.1182  0.8088 -0.0990
 1009SOL    HW3 4035   0.875   2.626   1.782 -0.7284  0.4852  0.0065
 1009SOL    MW4 4036   0.868   2.707   1.752 -0.4301  0.4489 -0.1569
 1010SOL     OW 4037   0.697   3.119   1.733  0.2847 -0.1803  0.2410
 1010SOL    HW2 4038   0.681   3.028   1.757 -0.9518  0.2923  1.2164
 1010SOL    HW3 4039   0.723   3.115   1.641 -0.9294 -1.4017 -0.0588
 1010SOL    MW4 4040   0.699   3.107   1.724 -0.0386 -0.2791  0.3302
 1011SOL     OW 4041   0.460   3.221   1.808  0.1554  0.0060 -0.0154
 1011SOL    HW2 4042   0.546   3.185   1.791  0.3388  0.0776  0.7271
 1011SOL    HW3 4043   0.463   3.309   1.771  0.5702  0.1877  0.4409
 1011SOL    MW4 4044   0.471   3.228   1.801  0.2344  0.0395  0.1427
 1012SOL     OW 4045   0.177   4.193   0.291  0.0277 -0.2680 -0.4074
 1012SOL    HW2 4046   0.124   4.114   0.282 -0.5975  0.0378  0.4977
 1012SOL    HW3 4047   0.239   4.172   0.362 -1.0044  0.5095  0.7447
 1012SOL    MW4 4048   0.178   4.180   0.299 -0.1909 -0.1250 -0.1360
 1013SOL     OW 4049   0.676   3.645   1.908  0.4886 -0.3713 -0.7794
 1013SOL    HW2 4050   0.737   3.593   1.856 -0.8159  0.4488 -3.1614
 1013SOL    HW3 4051   0.665   3.726   1.859 -1.9510 -0.2089 -0.0115
 1013SOL    MW4 4052   0.683   3.649   1.895 -0.0054 -0.2416 -0.9924
 1014SOL     OW 4053   0.651   3.891   1.790 -0.0177 -0.2284 -0.4042
 1014SOL    HW2 4054   0.570   3.924   1.829  0.0809 -1.2512  0.6798
 1014SOL    HW3 4055   0.719   3.950   1.823 -0.2172  0.2097 -0.7639
 1014SOL    MW4 4056   0.649   3.903   1.799 -0.0310 -0.3055 -0.3086
 1015SOL     OW 4057   0.422   3.996   1.909 -0.0688  0.2545  0.0531
 1015SOL    HW2 4058   0.437   4.079   1.865  0.2747 -0.5217 -1.2914
 1015SOL    HW3 4059   0.353   3.954   1.858  0.2673 -0.6167  0.3174
 1015SOL    MW4 4060   0.415   4.002   1.897  0.0209  0.0371 -0.0894
 1016SOL     OW 4061   0.398   4.236   1.796  0.0328 -0.2439 -0.5607
 1016SOL    HW2 4062   0.311   4.267   1.823  0.1352 -0.5971  0.1647
 1016SOL    HW3 4063   0.396   4.242   1.700  0.1950  2.3748 -0.4463
 1016SOL    MW4 4064   0.386   4.241   1.787  0.0677  0.0550 -0.4499
 1017SOL     OW 4065   0.630   4.358   1.879 -0.0333 -0.1292  0.0918
 1017SOL    HW2 4066   0.712   4.309   1.866  0.5263  0.7659  0.2206
 1017SOL    HW3 4067   0.563   4.301   1.843  0.7160 -0.6199 -0.5522
 1017SOL    MW4 4068   0.632   4.344   1.873  0.1394 -0.0758  0.0238
 1018SOL     OW 4069   1.099   4.666   1.769 -0.3136 -0.4620 -0.3106
 1018SOL    HW2 4070   1.178   4.697   1.814 -0.0693 -0.7901 -0.5137
 1018SOL    HW3 4071   1.089   4.575   1.798 -0.5418 -0.4629 -0.3907
 1018SOL    MW4 4072   1.108   4.658   1.779 -0.3115 -0.5054 -0.3479
 1019SOL     OW 4073   0.862   0.110   1.891 -0.2488 -0.0197 -0.2676
 1019SOL    HW2 4074   0.940   0.067   1.857 -0.3090  0.4517 -1.0073
 1019SOL    HW3 4075   0.789   0.056   1.860 -0.2135 -0.6796  0.7456
 1019SOL    MW4 4076   0.863   0.097   1.882 -0.2521 -0.0445 -0.2315
 1020SOL     OW 4077   0.903   0.342   1.733 -0.1298 -0.0362  0.1042
 1020SOL    HW2 4078   0.986   0.383   1.759  0.6040 -1.0043 -0.6603
 1020SOL    HW3 4079   0.892   0.270   1.795 -0.5350  0.2549  0.3698
 1020SOL    MW4 4080   0.913   0.338   1.745 -0.0864 -0.1255  0.0384
 1021SOL     OW 4081   1.128   0.452   1.857  0.0077  0.3045  0.2341
 1021SOL    HW2 4082   1.208   0.415   1.820 -0.5464  0.0961 -0.7862
 1021SOL    HW3 4083   1.141   0.547   1.852  0.2936  0.2699  0.2997
 1021SOL    MW4 4084   1.140   0.460   1.851 -0.0277  0.2724  0.1082
 1022SOL     OW 4085   3.386   1.017   1.021  0.3875 -0.1011 -0.2670
 1022SOL    HW2 4086   3.467   0.971   1.044 -0.0650 -1.0901 -0.6291
 1022SOL    HW3 4087   3.318   0.950   1.022 -0.5015  0.7806  0.3457
 1022SOL    MW4 4088   3.388   1.002   1.024  0.2105 -0.1153 -0.2339
 1023SOL     OW 4089   0.887   0.865   1.825  0.6841 -0.1777 -0.3914
 1023SOL    HW2 4090   0.874   0.863   1.920 -2.1319 -0.0327 -0.7464
 1023SOL    HW3 4091   0.909   0.957   1.806  1.4672 -0.2522  0.1221
 1023SOL    MW4 4092   0.888   0.877   1.835  0.4159 -0.1684 -0.3705
 1024SOL     OW 4093   1.150   0.739   1.804 -0.6973  0.0257  0.1628
 1024SOL    HW2 4094   1.216   0.796   1.844 -2.2714  0.7838  1.7750
 1024SOL    HW3 4095   1.068   0.787   1.815 -1.4008 -0.4114 -2.7526
 1024SOL    MW4 4096   1.148   0.753   1.811 -0.9978  0.0681 -0.0091
 1025SOL     OW 4097   1.133   1.309   2.130  0.1900 -0.1051 -0.2662
 1025SOL    HW2 4098   1.140   1.299   2.035 -1.7384 -1.3471 -0.3044
 1025SOL    HW3 4099   1.201   1.251   2.166  0.8637  0.3001 -0.8692
 1025SOL    MW4 4100   1.143   1.300   2.123  0.0245 -0.2155 -0.3508
 1026SOL     OW 4101   1.136   1.510   1.812 -0.6603 -0.0403  0.1050
 1026SOL    HW2 4102   1.116   1.537   1.722  0.6642  0.4851 -0.0325
 1026SOL    HW3 4103   1.080   1.566   1.866 -1.9625 -0.8197 -0.4111
 1026SOL    MW4 4104   1.126   1.521   1.807 -0.6573 -0.0738  0.0187
 1027SOL     OW 4105   0.909   1.696   1.872 -0.8807 -0.2576  0.4437
 1027SOL    HW2 4106   0.887   1.776   1.825 -0.3266 -0.6745 -0.5422
 1027SOL    HW3 4107   0.840   1.634   1.849 -1.5078  0.0404  1.4931
 1027SOL    MW4 4108   0.897   1.698   1.863 -0.8904 -0.2733  0.4521
 1028SOL     OW 4109   0.885   1.941   1.751  0.7800 -0.0050 -0.0298
 1028SOL    HW2 4110   0.884   1.956   1.657  2.4439  1.5628  0.1883
 1028SOL    HW3 4111   0.809   1.990   1.784  0.9657  0.5397 -0.4063
 1028SOL    MW4 4112   0.875   1.950   1.743  1.0241  0.2737 -0.0507
 1029SOL     OW 4113   1.128   2.020   1.817  0.1055  0.2216  0.0236
 1029SOL    HW2 4114   1.115   2.114   1.812  0.8076  0.2677 -1.0286
 1029SOL    HW3 4115   1.044   1.982   1.793 -0.0020  0.5808 -0.1582
 1029SOL    MW4 4116   1.116   2.027   1.813  0.1839  0.2751 -0.1392
 1030SOL     OW 4117   1.063   2.297   1.768 -0.0462 -0.2683  0.0681
 1030SOL    HW2 4118   1.148   2.333   1.793 -1.0406  1.0274  1.6496
 1030SOL    HW3 4119   1.062   2.303   1.673  0.9132  1.3725  0.1384
 1030SOL    MW4 4120   1.074   2.302   1.759 -0.0508  0.1192  0.2861
 1031SOL     OW 4121   0.867   2.459   1.886 -0.1388  0.0878  0.4243
 1031SOL    HW2 4122   0.938   2.402   1.860  1.0537  1.4974  0.5420
 1031SOL    HW3 4123   0.789   2.422   1.844  0.9050 -0.6001 -0.9121
 1031SOL    MW4 4124   0.866   2.447   1.877  0.1563  0.1830  0.2635
 1032SOL     OW 4125   0.667   2.875   1.827  0.0240 -0.1597  0.0188
 1032SOL    HW2 4126   0.590   2.829   1.792 -1.0510  0.2701  1.7550
 1032SOL    HW3 4127   0.652   2.877   1.921  1.1981  1.6985  0.1778
 1032SOL    MW4 4128   0.655   2.869   1.835  0.0371  0.1421  0.2688
 1033SOL     OW 4129   1.112   2.835   1.796  0.1194 -0.0262  0.2343
 1033SOL    HW2 4130   1.029   2.791   1.780  0.5583 -0.9333  0.4318
 1033SOL    HW3 4131   1.130   2.819   1.889 -0.1478  1.3156  0.5284
 1033SOL    MW4 4132   1.104   2.827   1.806  0.1420  0.0311  0.2992
 1034SOL     OW 4133   1.102   3.101   1.746  0.1616 -0.0156  0.1135
 1034SOL    HW2 4134   1.025   3.139   1.789 -0.5608  0.2944 -1.4111
 1034SOL    HW3 4135   1.101   3.009   1.773  0.2144  0.3565  1.4355
 1034SOL    MW4 4136   1.091   3.094   1.755  0.0732  0.0744  0.0868
 1035SOL     OW 4137   0.892   3.247   1.862 -0.3203  0.0487  0.4206
 1035SOL    HW2 4138   0.884   3.224   1.954  0.9841 -0.1716  0.4938
 1035SOL    HW3 4139   0.821   3.200   1.819 -1.1558  0.4347  1.3510
 1035SOL    MW4 4140   0.882   3.238   1.868 -0.2584  0.0705  0.5530
 1036SOL     OW 4141   0.864   3.494   1.747  0.6857  0.3885  0.1191
 1036SOL    HW2 4142   0.879   3.413   1.797  0.6401  0.4653  0.2595
 1036SOL    HW3 4143   0.884   3.471   1.657  0.3575  0.1313  0.1125
 1036SOL    MW4 4144   0.869   3.480   1.742  0.6364  0.3647  0.1367
 1037SOL     OW 4145   1.104   3.635   1.857 -0.0385 -0.1914 -0.1635
 1037SOL    HW2 4146   1.101   3.618   1.951  0.9929 -0.9168 -0.2528
 1037SOL    HW3 4147   1.028   3.588   1.822 -0.6490  0.3997  0.3404
 1037SOL    MW4 4148   1.093   3.626   1.864  0.0170 -0.2091 -0.1088
 1038SOL     OW 4149   1.153   3.899   1.742  0.1925  0.4021  0.6278
 1038SOL    HW2 4150   1.143   3.808   1.768  0.2194  0.3158  0.3422
 1038SOL    HW3 4151   1.127   3.901   1.649  2.2940  0.2542  0.0081
 1038SOL    MW4 4152   1.149   3.887   1.733  0.4733  0.3712  0.5084
 1039SOL     OW 4153   0.904   4.002   1.867 -0.3235 -0.3638  0.1458
 1039SOL    HW2 4154   0.918   4.009   1.961  0.3684  0.1185  0.0087
 1039SOL    HW3 4155   0.977   3.950   1.834  1.3312  2.2612 -0.5768
 1039SOL    MW4 4156   0.915   3.996   1.875 -0.0139  0.0461  0.0324
 1040SOL     OW 4157   0.867   4.272   1.782  0.3003  0.0035 -0.0761
 1040SOL    HW2 4158   0.943   4.322   1.813 -0.2110  0.1254  1.0089
 1040SOL    HW3 4159   0.886   4.182   1.805  0.9326 -0.2166 -1.4523
 1040SOL    MW4 4160   0.879   4.267   1.789  0.3163 -0.0094 -0.1145
 1041SOL     OW 4161   1.114   4.409   1.873 -0.5589  0.0061  0.2814
 1041SOL    HW2 4162   1.125   4.412   1.968  1.2038  0.3393  0.0813
 1041SOL    HW3 4163   1.194   4.368   1.840 -2.0028 -1.9518 -0.9395
 1041SOL    MW4 4164   1.126   4.404   1.881 -0.5168 -0.2082  0.0939
 1042SOL     OW 4165   1.602   4.643   1.735 -0.0844 -0.2699 -0.0875
 1042SOL    HW2 4166   1.679   4.676   1.781  0.6252 -0.3595 -1.2039
 1042SOL    HW3 4167   1.579   4.562   1.781 -0.9924  1.0074  1.7815
 1042SOL    MW4 4168   1.609   4.637   1.747 -0.1106 -0.1132  0.0118
 1043SOL     OW 4169   1.346   0.097   1.840  0.2287 -0.0204 -0.1287
 1043SOL    HW2 4170   1.370   0.099   1.933  1.0519 -2.5578 -0.2355
 1043SOL    HW3 4171   1.428   0.075   1.795 -0.3433  0.3873 -1.3849
 1043SOL    MW4 4172   1.360   0.094   1.846  0.2619 -0.3014 -0.3085
 1044SOL     OW 4173   1.377   0.358   1.774  0.2071 -0.8954 -0.3195
 1044SOL    HW2 4174   1.379   0.266   1.799  0.2242 -1.0595 -0.9220
 1044SOL    HW3 4175   1.397   0.358   1.681  2.2807 -0.1306  0.0959
 1044SOL    MW4 4176   1.380   0.346   1.765  0.4829 -0.8162 -0.3442
 1045SOL     OW 4177   1.617   0.492   1.870  0.8748  0.4436 -0.2631
 1045SOL    HW2 4178   1.692   0.439   1.845  0.6514  0.3921 -0.8426
 1045SOL    HW3 4179   1.541   0.443   1.837  0.5976  0.5623  0.1953
 1045SOL    MW4 4180   1.617   0.479   1.862  0.8088  0.4524 -0.2791
 1046SOL     OW 4181   1.582   0.758   1.796  0.1061  0.7571 -0.3271
 1046SOL    HW2 4182   1.609   0.667   1.806 -2.2453  0.1695  0.8998
 1046SOL    HW3 4183   1.581   0.772   1.701  1.3734 -0.1789 -0.4985
 1046SOL    MW4 4184   1.586   0.748   1.785 -0.0369  0.5561 -0.1878
 1047SOL     OW 4185   1.358   0.873   1.931  0.1935 -0.2758 -0.3813
 1047SOL    HW2 4186   1.370   0.880   2.026  0.0627 -0.0663 -0.3824
 1047SOL    HW3 4187   1.427   0.812   1.903  0.0628 -0.5452 -0.1154
 1047SOL    MW4 4188   1.369   0.865   1.940  0.1590 -0.2837 -0.3464
 1048SOL     OW 4189   2.356   0.278   0.528  0.1130 -0.3273 -0.0829
 1048SOL    HW2 4190   2.403   0.286   0.445 -0.0182  0.0548 -0.1208
 1048SOL    HW3 4191   2.423   0.252   0.591  0.5503  1.0194  0.0345
 1048SOL    MW4 4192   2.371   0.276   0.525  0.1534 -0.0992 -0.0724
 1049SOL     OW 4193   1.614   1.251   1.888  0.1208  0.1582  0.1276
 1049SOL    HW2 4194   1.606   1.340   1.853  0.0867 -0.6684 -2.0442
 1049SOL    HW3 4195   1.553   1.199   1.836  1.5220 -1.4969  0.0812
 1049SOL    MW4 4196   1.605   1.256   1.877  0.3012 -0.1692 -0.1651
 1050SOL     OW 4197   1.338   1.662   1.419 -0.3383 -0.0673  0.3600
 1050SOL    HW2 4198   1.362   1.665   1.326 -0.5185  1.2838  0.3455
 1050SOL    HW3 4199   1.354   1.751   1.450 -2.1515 -0.0134  1.1580
 1050SOL    MW4 4200   1.343   1.674   1.411 -0.6013  0.1181  0.4634
 1051SOL     OW 4201   1.384   1.627   1.903  0.1134  0.1000 -0.1129
 1051SOL    HW2 4202   1.387   1.638   1.998  0.4063  0.3349 -0.1491
 1051SOL    HW3 4203   1.297   1.591   1.886 -1.1193  2.9307 -0.0417
 1051SOL    MW4 4204   1.373   1.624   1.914 -0.0106  0.5045 -0.1083
 1052SOL     OW 4205   1.110   1.280   1.411  0.3951  0.0190  0.3759
 1052SOL    HW2 4206   1.117   1.370   1.441  0.2200 -0.1385  0.9104
 1052SOL    HW3 4207   1.186   1.236   1.448  1.1799  0.2380 -0.9700
 1052SOL    MW4 4208   1.121   1.286   1.420  0.4755  0.0271  0.2688
 1053SOL     OW 4209   1.579   2.019   1.839 -0.2917  0.1578 -0.6276
 1053SOL    HW2 4210   1.572   2.113   1.823 -1.2847 -0.2644 -2.7445
 1053SOL    HW3 4211   1.501   1.981   1.799 -0.0688 -1.5581  0.4822
 1053SOL    MW4 4212   1.568   2.027   1.832 -0.3933 -0.1243 -0.7605
 1054SOL     OW 4213   1.531   2.287   1.783  0.1139 -0.6274  0.2689
 1054SOL    HW2 4214   1.616   2.322   1.810 -0.2401  0.2587  0.2427
 1054SOL    HW3 4215   1.531   2.295   1.687 -0.0604 -0.4901  0.2803
 1054SOL    MW4 4216   1.542   2.293   1.774  0.0442 -0.4924  0.2669
 1055SOL     OW 4217   1.296   2.415   1.848  0.1125  0.0794  0.1719
 1055SOL    HW2 4218   1.305   2.503   1.811  1.0179  0.6215  1.5938
 1055SOL    HW3 4219   1.379   2.373   1.828 -0.2479 -0.3923 -0.3363
 1055SOL    MW4 4220   1.308   2.421   1.841  0.1844  0.0887  0.2924
 1056SOL     OW 4221   1.323   2.670   1.735  0.2477  0.1891 -0.3534
 1056SOL    HW2 4222   1.241   2.719   1.745  0.1775  0.0254 -0.1270
 1056SOL    HW3 4223   1.339   2.671   1.641  0.4650  1.0038 -0.3167
 1056SOL    MW4 4224   1.314   2.677   1.724  0.2671  0.2750 -0.3187
 1057SOL     OW 4225   1.799   2.699   1.776 -0.0373  0.2475  0.2571
 1057SOL    HW2 4226   1.793   2.607   1.800 -0.4987  0.2912  0.3222
 1057SOL    HW3 4227   1.807   2.700   1.681  1.6635  0.0762  0.3884
 1057SOL    MW4 4228   1.799   2.687   1.767  0.1262  0.2307  0.2830
 1058SOL     OW 4229   1.569   2.846   1.819 -0.2515  0.1771 -0.3430
 1058SOL    HW2 4230   1.507   2.780   1.789 -0.6028 -0.3210  1.4170
 1058SOL    HW3 4231   1.655   2.803   1.813 -0.2660  0.2470 -1.0664
 1058SOL    MW4 4232   1.572   2.832   1.815 -0.2998  0.1206 -0.2062
 1059SOL     OW 4233   1.298   3.242   1.869  0.3165  0.1022 -0.0157
 1059SOL    HW2 4234   1.374   3.204   1.824  0.1239  0.2794 -0.4872
 1059SOL    HW3 4235   1.223   3.196   1.833  0.2185 -0.2996  0.6857
 1059SOL    MW4 4236   1.298   3.231   1.858  0.2782  0.0726  0.0146
 1060SOL     OW 4237   1.326   3.507   1.767 -0.0898 -0.5278 -0.3057
 1060SOL    HW2 4238   1.315   3.413   1.785  1.1618 -0.7048 -0.4598
 1060SOL    HW3 4239   1.246   3.547   1.802 -0.6787 -1.6585 -0.3266
 1060SOL    MW4 4240   1.314   3.500   1.774 -0.0024 -0.7004 -0.3288
 1061SOL     OW 4241   1.574   3.626   1.853 -0.2613  0.0063  0.0689
 1061SOL    HW2 4242   1.579   3.608   1.947  0.3412 -0.1469  0.0088
 1061SOL    HW3 4243   1.493   3.584   1.825 -0.7268  0.5278  0.6275
 1061SOL    MW4 4244   1.564   3.618   1.861 -0.2432  0.0549  0.1346
 1062SOL     OW 4245   1.566   3.886   1.741  0.2020 -0.5017  0.5038
 1062SOL    HW2 4246   1.644   3.917   1.788  0.3004 -0.3386  0.2320
 1062SOL    HW3 4247   1.548   3.800   1.779  0.8914 -0.8224  0.1271
 1062SOL    MW4 4248   1.574   3.879   1.752  0.3060 -0.5225  0.4182
 1063SOL     OW 4249   1.353   4.024   1.872  0.2900 -0.0145 -0.3971
 1063SOL    HW2 4250   1.428   3.975   1.839  0.6194 -0.4522  0.9834
 1063SOL    HW3 4251   1.279   3.992   1.819  1.0293  0.2876 -1.6330
 1063SOL    MW4 4252   1.353   4.013   1.861  0.4310 -0.0324 -0.3780
 1064SOL     OW 4253   1.354   4.269   1.761 -0.0431  0.6033 -0.1580
 1064SOL    HW2 4254   1.354   4.179   1.795  1.8043 -0.0349 -1.7558
 1064SOL    HW3 4255   1.358   4.259   1.666 -1.3091  2.3829 -0.4254
 1064SOL    MW4 4256   1.355   4.256   1.753  0.0336  0.7539 -0.4041
 1065SOL     OW 4257   1.591   4.400   1.851  0.0166 -0.4917  0.1541
 1065SOL    HW2 4258   1.602   4.380   1.943 -1.3066  1.2831  0.7296
 1065SOL    HW3 4259   1.504   4.366   1.828 -0.4547  0.7111  0.0728
 1065SOL    MW4 4260   1.581   4.393   1.860 -0.2202 -0.0988  0.2193
 1066SOL     OW 4261   2.030   4.628   1.683 -0.2585  0.4575  0.2960
 1066SOL    HW2 4262   2.108   4.679   1.706  1.6090 -1.6646 -1.1774
 1066SOL    HW3 4263   2.032   4.553   1.743  0.1667 -0.8423 -1.3216
 1066SOL    MW4 4264   2.040   4.625   1.694  0.0440  0.0060 -0.1118
 1067SOL     OW 4265   1.842   0.102   1.839 -0.1045  0.1596 -0.2511
 1067SOL    HW2 4266   1.831   0.074   1.930  1.3307 -1.5001 -0.5607
 1067SOL    HW3 4267   1.911   0.044   1.805 -1.1590  0.2654 -2.6016
 1067SOL    MW4 4268   1.850   0.091   1.847 -0.0543 -0.0455 -0.6020
 1068SOL     OW 4269   1.833   0.358   1.769 -0.3568 -0.2063  0.4723
 1068SOL    HW2 4270   1.846   0.265   1.785  0.8636 -0.1550 -0.1868
 1068SOL    HW3 4271   1.812   0.363   1.676 -1.3382  0.0934  0.7030
 1068SOL    MW4 4272   1.832   0.346   1.759 -0.3252 -0.1599  0.4158
 1069SOL     OW 4273   2.057   0.493   1.850  0.0448 -0.1081  0.2738
 1069SOL    HW2 4274   2.050   0.583   1.817 -0.4934  0.0449  0.7971
 1069SOL    HW3 4275   1.984   0.447   1.809  1.4044 -0.7812 -1.4666
 1069SOL    MW4 4276   2.047   0.499   1.841  0.1532 -0.1767  0.1132
 1070SOL     OW 4277   2.052   0.768   1.776 -0.3288  0.1820  0.5592
 1070SOL    HW2 4278   2.135   0.806   1.804 -0.1503  0.7193 -0.6741
 1070SOL    HW3 4279   2.050   0.781   1.681 -2.6200  1.7778  0.7914
 1070SOL    MW4 4280   2.063   0.775   1.767 -0.6075  0.4635  0.4271
 1071SOL     OW 4281   1.811   0.877   1.889  0.4192 -0.1555 -0.3524
 1071SOL    HW2 4282   1.728   0.842   1.856 -0.7463  2.8275 -0.7657
 1071SOL    HW3 4283   1.877   0.816   1.859 -1.5691 -2.2765 -0.5420
 1071SOL    MW4 4284   1.809   0.865   1.881  0.0031 -0.0418 -0.4319
 1072SOL     OW 4285   1.825   1.119   1.738  0.3508  0.7746 -0.1646
 1072SOL    HW2 4286   1.751   1.161   1.782  0.8307  0.2958  1.1405
 1072SOL    HW3 4287   1.841   1.039   1.790  1.5138  0.6640 -0.6728
 1072SOL    MW4 4288   1.817   1.114   1.751  0.5676  0.6969 -0.0595
 1073SOL     OW 4289   2.041   1.266   1.869  0.3056 -0.2797  0.6047
 1073SOL    HW2 4290   2.112   1.215   1.830 -0.5096 -1.1062  0.1662
 1073SOL    HW3 4291   1.962   1.236   1.823 -0.3738  0.3475  1.3471
 1073SOL    MW4 4292   2.040   1.255   1.858  0.1084 -0.3060  0.6448
 1074SOL     OW 4293   2.049   1.542   1.788  0.2931 -0.1150  0.0194
 1074SOL    HW2 4294   2.053   1.451   1.816  1.6443  0.3494  1.3718
 1074SOL    HW3 4295   2.032   1.537   1.694 -1.4531 -1.7231  0.3968
 1074SOL    MW4 4296   2.047   1.529   1.779  0.2410 -0.2659  0.2476
 1075SOL     OW 4297   1.839   1.677   1.887  0.3868 -0.2508  0.2130
 1075SOL    HW2 4298   1.843   1.744   1.819 -2.4452 -1.5982 -1.4164
 1075SOL    HW3 4299   1.916   1.622   1.872 -0.4662 -0.8487 -2.3360
 1075SOL    MW4 4300   1.849   1.678   1.876 -0.0994 -0.5075 -0.3383
 1076SOL     OW 4301   1.823   1.923   1.749  0.2575  0.0220 -0.0437
 1076SOL    HW2 4302   1.741   1.954   1.787 -0.0944 -0.4100 -0.4392
 1076SOL    HW3 4303   1.807   1.919   1.655  0.5540 -0.5784 -0.0758
 1076SOL    MW4 4304   1.810   1.926   1.742  0.2502 -0.1142 -0.1001
 1077SOL     OW 4305   2.001   2.095   1.861  0.4270 -0.3771  0.7479
 1077SOL    HW2 4306   2.087   2.065   1.831  0.4455  0.8730 -0.5223
 1077SOL    HW3 4307   1.940   2.031   1.825  0.8027 -1.1744  1.5100
 1077SOL    MW4 4308   2.004   2.083   1.852  0.4790 -0.3173  0.6809
 1078SOL     OW 4309   2.030   2.356   1.763  0.0009  0.2821 -0.4061
 1078SOL    HW2 4310   2.116   2.368   1.803  0.1664  0.1097 -0.7091
 1078SOL    HW3 4311   1.999   2.272   1.797  0.1583  0.1172 -0.6667
 1078SOL    MW4 4312   2.037   2.347   1.773  0.0435  0.2376 -0.4805
 1079SOL     OW 4313   1.778   2.427   1.838 -0.3218  0.0934 -0.2911
 1079SOL    HW2 4314   1.777   2.439   1.932  0.5958  0.7509 -0.3609
 1079SOL    HW3 4315   1.869   2.404   1.817 -0.5563 -0.2376 -0.9923
 1079SOL    MW4 4316   1.790   2.425   1.847 -0.2317  0.1365 -0.3928
 1080SOL     OW 4317   1.792   2.439   1.390 -0.4914  0.1724 -0.2304
 1080SOL    HW2 4318   1.795   2.516   1.448  0.2488 -1.4075  1.8953
 1080SOL    HW3 4319   1.723   2.384   1.426  0.3709 -1.1037 -0.5029
 1080SOL    MW4 4320   1.784   2.442   1.402 -0.2800 -0.2044  0.0141
 1081SOL     OW 4321   2.251   2.681   1.792  0.7288  0.3165  0.1191
 1081SOL    HW2 4322   2.170   2.732   1.800 -0.5787 -1.6109 -0.4147
 1081SOL    HW3 4323   2.265   2.674   1.697  0.8019 -0.4162  0.1788
 1081SOL    MW4 4324   2.242   2.687   1.780  0.5659 -0.0344  0.0566
 1082SOL     OW 4325   2.028   2.823   1.839 -0.1292 -0.2665  0.0495
 1082SOL    HW2 4326   2.006   2.826   1.932  0.4464 -1.1712  0.2246
 1082SOL    HW3 4327   1.953   2.782   1.797  0.5874 -2.0074  0.4430
 1082SOL    MW4 4328   2.015   2.818   1.846  0.0413 -0.6156  0.1245
 1083SOL     OW 4329   1.768   3.250   1.818 -0.5442  0.1200 -0.6285
 1083SOL    HW2 4330   1.765   3.239   1.913 -1.3866  1.4219 -0.4975
 1083SOL    HW3 4331   1.695   3.198   1.785  0.2929 -1.0728 -0.6557
 1083SOL    MW4 4332   1.758   3.242   1.826 -0.5449  0.1344 -0.6148
 1084SOL     OW 4333   1.994   3.612   1.893  0.8388 -0.1033  0.0887
 1084SOL    HW2 4334   2.010   3.698   1.855  0.8330 -0.4173 -0.6253
 1084SOL    HW3 4335   1.914   3.581   1.850  0.9457 -0.5438  0.2013
 1084SOL    MW4 4336   1.985   3.619   1.882  0.8521 -0.2028  0.0094
 1085SOL     OW 4337   1.962   3.620   2.178  0.2230 -0.1685 -0.4322
 1085SOL    HW2 4338   1.973   3.623   2.083 -0.9523 -1.0167 -0.6025
 1085SOL    HW3 4339   1.887   3.562   2.192 -0.5141  1.0796  0.9532
 1085SOL    MW4 4340   1.954   3.613   2.167 -0.0293 -0.1157 -0.2719
 1086SOL     OW 4341   2.040   3.854   1.777 -0.5512  0.3409 -0.2037
 1086SOL    HW2 4342   2.126   3.886   1.804 -1.2094  0.0798  2.3568
 1086SOL    HW3 4343   2.048   3.841   1.682  1.5477  2.3564 -0.3487
 1086SOL    MW4 4344   2.053   3.856   1.768 -0.3611  0.5723  0.1150
 1087SOL     OW 4345   1.823   4.013   1.851 -0.8112 -0.0046 -0.5851
 1087SOL    HW2 4346   1.848   4.098   1.815  1.4395  0.3491  1.6514
 1087SOL    HW3 4347   1.889   3.952   1.816 -1.1710 -0.4487 -0.4967
 1087SOL    MW4 4348   1.835   4.016   1.841 -0.5618 -0.0166 -0.2784
 1088SOL     OW 4349   1.805   4.268   1.739 -0.1510 -0.2712 -0.1011
 1088SOL    HW2 4350   1.731   4.317   1.774  0.1036  1.2300 -1.6156
 1088SOL    HW3 4351   1.794   4.271   1.644  1.7360 -0.1762 -0.3392
 1088SOL    MW4 4352   1.794   4.275   1.731  0.1316 -0.0606 -0.3323
 1089SOL     OW 4353   2.005   4.414   1.853 -0.0305  0.1295  0.4823
 1089SOL    HW2 4354   2.090   4.388   1.818  0.4915  3.0751 -0.5520
 1089SOL    HW3 4355   1.942   4.359   1.806  1.1033 -0.2285 -0.6395
 1089SOL    MW4 4356   2.008   4.403   1.843  0.1880  0.4709  0.1978
 1090SOL     OW 4357   2.440   4.653   1.743 -0.1751  0.3856 -0.5603
 1090SOL    HW2 4358   2.523   4.693   1.771  0.3354 -0.6705 -0.5600
 1090SOL    HW3 4359   2.444   4.563   1.776 -0.2079 -0.4349 -2.7363
 1090SOL    MW4 4360   2.452   4.647   1.751 -0.1121  0.1380 -0.8473
 1091SOL     OW 4361   2.226   0.097   1.854  0.1226  0.3562 -0.2514
 1091SOL    HW2 4362   2.226   0.077   1.948 -1.0618  2.1978  0.1933
 1091SOL    HW3 4363   2.310   0.065   1.822  0.0182 -1.4505  1.1744
 1091SOL    MW4 4364   2.237   0.090   1.862 -0.0474  0.3608 -0.0046
 1092SOL     OW 4365   2.262   0.335   1.720  0.1566 -0.2919 -0.1657
 1092SOL    HW2 4366   2.195   0.395   1.754  1.3139  1.0800 -0.2792
 1092SOL    HW3 4367   2.244   0.252   1.764 -1.3424  0.1795  0.1511
 1092SOL    MW4 4368   2.251   0.332   1.730  0.1115 -0.0487 -0.1389
 1093SOL     OW 4369   2.476   0.484   1.838  0.3020 -0.2581  0.2338
 1093SOL    HW2 4370   2.553   0.439   1.803  1.4462  3.1676 -1.9219
 1093SOL    HW3 4371   2.404   0.454   1.783  0.3729 -2.0373  1.0549
 1093SOL    MW4 4372   2.477   0.474   1.826  0.4623 -0.0409  0.0577
 1094SOL     OW 4373   2.537   0.750   1.772  0.5678  0.0461 -0.4611
 1094SOL    HW2 4374   2.525   0.661   1.805  0.5609  0.3362  0.3402
 1094SOL    HW3 4375   2.528   0.743   1.677  0.6359 -0.8170 -0.4017
 1094SOL    MW4 4376   2.535   0.737   1.764  0.5759 -0.0295 -0.3475
 1095SOL     OW 4377   2.310   0.872   1.827 -0.1397 -0.1118 -0.3603
 1095SOL    HW2 4378   2.311   0.856   1.921 -0.0293  0.2138 -0.3062
 1095SOL    HW3 4379   2.392   0.835   1.795  1.2561  2.4532  0.1178
 1095SOL    MW4 4380   2.321   0.865   1.835  0.0590  0.2695 -0.2901
 1096SOL     OW 4381   2.275   1.135   1.769 -0.5806 -0.8070  0.2157
 1096SOL    HW2 4382   2.297   1.049   1.805  0.9179  0.0885  1.5508
 1096SOL    HW3 4383   2.338   1.195   1.810 -1.3063  0.8623 -1.0199
 1096SOL    MW4 4384   2.287   1.132   1.779 -0.4786 -0.4686  0.2289
 1097SOL     OW 4385   2.496   1.571   1.729  0.2719 -0.0005  0.3730
 1097SOL    HW2 4386   2.492   1.575   1.633 -0.4859  1.0427  0.4319
 1097SOL    HW3 4387   2.416   1.616   1.758  0.4682 -0.3541  1.4940
 1097SOL    MW4 4388   2.485   1.578   1.720  0.1978  0.0905  0.5286
 1098SOL     OW 4389   2.508   1.312   1.860 -0.1018 -0.3212  0.2280
 1098SOL    HW2 4390   2.484   1.318   1.952 -0.3732 -0.6120  0.1792
 1098SOL    HW3 4391   2.510   1.402   1.829  1.3548 -0.1201  0.8616
 1098SOL    MW4 4392   2.505   1.324   1.868  0.0546 -0.3331  0.3051
 1099SOL     OW 4393   2.272   1.698   1.854  0.0003  0.7178 -0.1041
 1099SOL    HW2 4394   2.190   1.654   1.830 -0.4572  1.9048 -0.7952
 1099SOL    HW3 4395   2.284   1.678   1.946 -0.2561 -0.7552 -0.3812
 1099SOL    MW4 4396   2.263   1.690   1.863 -0.0939  0.6800 -0.2318
 1100SOL     OW 4397   2.232   1.975   1.780  0.4453 -0.1353 -0.0510
 1100SOL    HW2 4398   2.313   2.016   1.812  1.3296 -0.6223 -1.6310
 1100SOL    HW3 4399   2.242   1.882   1.801  0.6755 -0.3305 -1.0311
 1100SOL    MW4 4400   2.244   1.968   1.787  0.5923 -0.2253 -0.3887
 1101SOL     OW 4401   2.463   2.046   1.922  0.1079 -0.0167  0.5996
 1101SOL    HW2 4402   2.536   2.002   1.879  0.5178  1.7430 -0.5589
 1101SOL    HW3 4403   2.467   2.136   1.891 -2.5904  0.1161  0.4892
 1101SOL    MW4 4404   2.473   2.052   1.912 -0.1940  0.2329  0.4322
 1102SOL     OW 4405   2.501   2.286   1.783 -0.1566 -0.6898 -0.0750
 1102SOL    HW2 4406   2.585   2.331   1.789 -0.4879  0.1427 -1.4783
 1102SOL    HW3 4407   2.441   2.341   1.833  0.1556 -1.3909  1.1009
 1102SOL    MW4 4408   2.504   2.299   1.791 -0.1591 -0.6725 -0.1050
 1103SOL     OW 4409   2.264   2.414   1.887 -0.1291 -0.3982 -0.1716
 1103SOL    HW2 4410   2.253   2.410   1.982  0.9525 -0.0709 -0.0242
 1103SOL    HW3 4411   2.265   2.508   1.867  1.6088 -0.4166 -0.2500
 1103SOL    MW4 4412   2.263   2.426   1.897  0.2429 -0.3574 -0.1625
 1104SOL     OW 4413   2.888   2.721   0.379  0.6410 -0.0982 -0.2204
 1104SOL    HW2 4414   2.819   2.782   0.404  1.2966  0.8460 -0.6772
 1104SOL    HW3 4415   2.842   2.639   0.359 -0.4874  0.9243 -1.9306
 1104SOL    MW4 4416   2.873   2.718   0.380  0.5786  0.1612 -0.5063
 1105SOL     OW 4417   2.255   2.686   1.525 -0.2289 -0.5811  0.0944
 1105SOL    HW2 4418   2.322   2.726   1.470  2.1974 -1.3393  2.4018
 1105SOL    HW3 4419   2.243   2.599   1.487 -0.2040 -0.3118 -0.5514
 1105SOL    MW4 4420   2.262   2.680   1.512  0.0945 -0.6456  0.3136
 1106SOL     OW 4421   2.489   2.816   1.826  0.5273  0.2665 -0.2128
 1106SOL    HW2 4422   2.502   2.898   1.780  0.8824  0.8087  0.8443
 1106SOL    HW3 4423   2.396   2.797   1.816  0.6562  0.2173 -1.4034
 1106SOL    MW4 4424   2.478   2.824   1.819  0.5911  0.3316 -0.2304
 1107SOL     OW 4425   2.240   3.194   1.832 -0.1303 -0.3148  0.1439
 1107SOL    HW2 4426   2.260   3.186   1.925 -0.4052  0.3956  0.2653
 1107SOL    HW3 4427   2.156   3.149   1.821  0.2874 -1.1040  0.0845
 1107SOL    MW4 4428   2.232   3.187   1.843 -0.1114 -0.3252  0.1521
 1108SOL     OW 4429   2.168   3.466   1.743  0.0536 -0.0337 -0.1165
 1108SOL    HW2 4430   2.176   3.377   1.777 -0.3944  0.3421  0.9761
 1108SOL    HW3 4431   2.104   3.508   1.800  0.0512  0.9113 -0.8027
 1108SOL    MW4 4432   2.160   3.459   1.755 -0.0058  0.1406 -0.0629
 1109SOL     OW 4433   2.429   3.570   1.837  0.0283 -0.8352 -0.0514
 1109SOL    HW2 4434   2.413   3.578   1.931 -2.8346 -0.0726 -0.5633
 1109SOL    HW3 4435   2.345   3.544   1.799  0.8994 -0.2834 -2.5036
 1109SOL    MW4 4436   2.416   3.568   1.844 -0.2345 -0.6618 -0.4424
 1110SOL     OW 4437   2.506   3.834   1.794  0.1431  0.2921  0.1217
 1110SOL    HW2 4438   2.426   3.886   1.807  0.6264  0.5381  2.2083
 1110SOL    HW3 4439   2.475   3.743   1.799 -0.5121  0.3557 -2.3451
 1110SOL    MW4 4440   2.491   3.829   1.797  0.1204  0.3330  0.0715
 1111SOL     OW 4441   2.285   3.991   1.832 -0.0867 -0.0006 -0.5985
 1111SOL    HW2 4442   2.302   4.019   1.922  0.5776  0.9283 -0.9992
 1111SOL    HW3 4443   2.268   4.073   1.785  1.3686 -0.2944 -1.6894
 1111SOL    MW4 4444   2.285   4.006   1.838  0.1930  0.0832 -0.7953
 1112SOL     OW 4445   2.243   4.249   1.737 -0.5320  0.3443  0.2063
 1112SOL    HW2 4446   2.320   4.296   1.768 -0.3048  0.0872  0.0294
 1112SOL    HW3 4447   2.248   4.255   1.641 -0.1465 -0.6023  0.1587
 1112SOL    MW4 4448   2.254   4.256   1.728 -0.4512  0.1855  0.1767
 1113SOL     OW 4449   2.452   4.411   1.853  0.1483  0.2938 -0.9319
 1113SOL    HW2 4450   2.454   4.398   1.948 -1.0294  0.9469 -0.8020
 1113SOL    HW3 4451   2.533   4.371   1.821  1.6362  1.9518  0.5991
 1113SOL    MW4 4452   2.463   4.404   1.862  0.1892  0.5987 -0.7128
 1114SOL     OW 4453   4.000   0.572   1.010  0.1792  0.5878  0.3723
 1114SOL    HW2 4454   4.080   0.552   1.058 -0.2851  0.1407  0.9785
 1114SOL    HW3 4455   3.999   0.667   1.004  1.2503  0.5533 -0.5108
 1114SOL    MW4 4456   4.010   0.582   1.015  0.2593  0.5242  0.3358
 1115SOL     OW 4457   2.682   0.088   1.850 -0.2711 -0.0693  0.4699
 1115SOL    HW2 4458   2.686   0.099   1.945 -1.3782 -0.3749  0.5690
 1115SOL    HW3 4459   2.760   0.037   1.828  0.1900  0.3383  1.1680
 1115SOL    MW4 4460   2.693   0.082   1.859 -0.3563 -0.0558  0.5751
 1116SOL     OW 4461   2.729   0.351   1.751 -0.1920 -0.5725 -0.2205
 1116SOL    HW2 4462   2.801   0.382   1.806 -0.1076  0.6757 -1.0196
 1116SOL    HW3 4463   2.720   0.258   1.774  1.5876 -0.7172 -0.0139
 1116SOL    MW4 4464   2.738   0.343   1.761  0.0539 -0.4269 -0.2987
 1117SOL     OW 4465   2.968   0.461   1.876  0.0571  0.3944 -0.0120
 1117SOL    HW2 4466   3.043   0.442   1.820  0.5957  2.0895  0.1210
 1117SOL    HW3 4467   2.948   0.553   1.860 -0.7171  0.5061  1.4795
 1117SOL    MW4 4468   2.975   0.471   1.866  0.0260  0.6328  0.2023
 1118SOL     OW 4469   2.927   0.719   1.792 -0.1873 -0.2778  0.4207
 1118SOL    HW2 4470   2.902   0.725   1.700 -0.8686  1.6292  0.7202
 1118SOL    HW3 4471   3.006   0.773   1.799 -1.1715  1.0552  1.3221
 1118SOL    MW4 4472   2.934   0.727   1.780 -0.4070  0.1496  0.5791
 1119SOL     OW 4473   2.735   0.930   1.801  0.1203  0.3420 -0.0767
 1119SOL    HW2 4474   2.809   0.871   1.817  0.7229  0.8661 -0.8584
 1119SOL    HW3 4475   2.659   0.873   1.799  0.8019 -0.5573 -1.7281
 1119SOL    MW4 4476   2.735   0.915   1.803  0.2897  0.2925 -0.3978
 1120SOL     OW 4477   2.701   1.190   1.687  0.1473 -0.0884 -0.4257
 1120SOL    HW2 4478   2.691   1.099   1.715 -0.8610  0.4082  0.9004
 1120SOL    HW3 4479   2.631   1.237   1.733  1.3004  1.5250 -0.2634
 1120SOL    MW4 4480   2.691   1.184   1.697  0.1664  0.1900 -0.2293
 1121SOL     OW 4481   2.923   1.259   1.846  0.6981 -0.5532  0.1736
 1121SOL    HW2 4482   2.942   1.351   1.831  1.2905 -0.3429  2.1487
 1121SOL    HW3 4483   2.857   1.237   1.780  3.5097  0.1923 -3.0233
 1121SOL    MW4 4484   2.916   1.268   1.835  1.1472 -0.4271  0.0124
 1122SOL     OW 4485   2.911   1.558   1.807  0.2185 -0.7439 -0.0969
 1122SOL    HW2 4486   2.991   1.602   1.839 -1.8681  2.2423  1.2995
 1122SOL    HW3 4487   2.907   1.581   1.714 -0.9492  2.4275  0.6472
 1122SOL    MW4 4488   2.921   1.567   1.799 -0.2109  0.0685  0.1855
 1123SOL     OW 4489   2.695   1.690   1.881 -0.0847  0.1186 -0.0137
 1123SOL    HW2 4490   2.769   1.630   1.874 -0.0307 -0.1311  2.0984
 1123SOL    HW3 4491   2.630   1.656   1.820  1.0858 -0.3672 -0.9966
 1123SOL    MW4 4492   2.696   1.677   1.872  0.0769  0.0215  0.1353
 1124SOL     OW 4493   2.655   1.926   1.780 -0.6505 -0.0639  0.0209
 1124SOL    HW2 4494   2.738   1.972   1.791 -0.5350 -0.1216 -0.5989
 1124SOL    HW3 4495   2.673   1.836   1.807 -0.9682  0.3199  1.5847
 1124SOL    MW4 4496   2.668   1.920   1.785 -0.6772 -0.0208  0.1454
 1125SOL     OW 4497   2.906   2.037   1.883 -0.0440 -0.0991 -0.2231
 1125SOL    HW2 4498   2.902   2.042   1.979  1.7879  0.7315 -0.1663
 1125SOL    HW3 4499   2.994   2.004   1.864 -0.0650  0.6301 -1.6521
 1125SOL    MW4 4500   2.917   2.033   1.893  0.1949  0.1067 -0.4042
 1126SOL     OW 4501   2.879   2.260   1.729 -0.0480 -0.0408 -0.2824
 1126SOL    HW2 4502   2.956   2.315   1.741  0.4258 -1.0706  1.5621
 1126SOL    HW3 4503   2.895   2.183   1.785 -2.7684  0.1439  0.8255
 1126SOL    MW4 4504   2.891   2.257   1.738 -0.3444 -0.1523  0.1071
 1127SOL     OW 4505   2.718   2.450   1.831 -0.1897 -0.2865 -0.3628
 1127SOL    HW2 4506   2.745   2.540   1.811 -2.0532  0.3493 -0.0989
 1127SOL    HW3 4507   2.791   2.396   1.800  1.0915  1.3260 -0.2397
 1127SOL    MW4 4508   2.732   2.455   1.824 -0.2666  0.0101 -0.3117
 1128SOL     OW 4509   2.754   2.718   1.778 -0.1211  0.5627  0.5428
 1128SOL    HW2 4510   2.665   2.753   1.789  0.0963  0.7301  1.7722
 1128SOL    HW3 4511   2.753   2.678   1.691 -1.8861 -0.9130  1.2183
 1128SOL    MW4 4512   2.742   2.718   1.768 -0.3253  0.3901  0.7942
 1129SOL     OW 4513   2.983   2.839   1.895  0.1009 -0.2456  0.0555
 1129SOL    HW2 4514   2.903   2.795   1.866  0.5564 -0.7365 -0.4740
 1129SOL    HW3 4515   2.982   2.923   1.848  0.2933 -0.5864 -0.5669
 1129SOL    MW4 4516   2.972   2.844   1.885  0.1864 -0.3554 -0.0965
 1130SOL     OW 4517   2.950   3.102   1.771  0.1919  0.4260 -0.3885
 1130SOL    HW2 4518   3.011   3.169   1.801  0.4514 -0.0411  0.1505
 1130SOL    HW3 4519   2.863   3.136   1.794  0.2887  0.7907 -0.5574
 1130SOL    MW4 4520   2.946   3.115   1.778  0.2389  0.4125 -0.3396
 1131SOL     OW 4521   2.481   3.051   1.733  0.2343 -0.0773  0.2714
 1131SOL    HW2 4522   2.483   3.055   1.638 -0.6387 -1.2003  0.1895
 1131SOL    HW3 4523   2.390   3.071   1.757  0.1718 -0.9088  0.7843
 1131SOL    MW4 4524   2.469   3.054   1.724  0.1109 -0.3352  0.3283
 1132SOL     OW 4525   3.152   0.866   1.372  0.3256  0.4051  0.7045
 1132SOL    HW2 4526   3.174   0.957   1.390  0.7471  0.4796 -0.1403
 1132SOL    HW3 4527   3.228   0.816   1.402  0.5868  0.4409  0.1237
 1132SOL    MW4 4528   3.165   0.871   1.378  0.4157  0.4196  0.5164
 1133SOL     OW 4529   2.879   3.650   1.843  0.2480  0.4629  0.2750
 1133SOL    HW2 4530   2.885   3.616   1.932 -1.2363  0.6706  0.4731
 1133SOL    HW3 4531   2.831   3.582   1.795 -2.2363  1.9722  0.5413
 1133SOL    MW4 4532   2.873   3.636   1.849 -0.2756  0.6894  0.3363
 1134SOL     OW 4533   3.193   4.014   1.873  0.6835  0.7571  0.0792
 1134SOL    HW2 4534   3.114   3.966   1.848  0.0043  1.8897  0.0123
 1134SOL    HW3 4535   3.192   4.015   1.969  1.9393 -1.3721  0.1417
 1134SOL    MW4 4536   3.182   4.008   1.882  0.7596  0.6256  0.0786
 1135SOL     OW 4537   2.702   4.273   1.781 -0.2962 -0.3794  0.1597
 1135SOL    HW2 4538   2.782   4.308   1.819 -0.1092  0.4960 -0.9897
 1135SOL    HW3 4539   2.704   4.180   1.800  0.5706 -0.2132  0.8830
 1135SOL    MW4 4540   2.713   4.266   1.788 -0.1571 -0.2420  0.1035
 1136SOL     OW 4541   0.008   0.905   1.441  0.4796 -0.3608 -0.3989
 1136SOL    HW2 4542   0.077   0.853   1.482  0.7474  1.0767  1.0246
 1136SOL    HW3 4543  -0.073   0.860   1.465  0.7976 -0.9903 -0.4964
 1136SOL    MW4 4544   0.006   0.892   1.450  0.5569 -0.2542 -0.2240
 1137SOL     OW 4545   2.926   0.007   1.765  0.0857  0.1693 -0.0414
 1137SOL    HW2 4546   2.919  -0.073   1.817 -1.3158 -0.2055 -0.7877
 1137SOL    HW3 4547   2.996   0.057   1.808  0.4784 -1.1238  0.8588
 1137SOL    MW4 4548   2.934   0.003   1.778 -0.0474 -0.0508 -0.0211
 1138SOL     OW 4549   3.350   2.875   1.400 -0.4796  0.1090  0.0957
 1138SOL    HW2 4550   3.356   2.962   1.441 -1.7071 -0.2920  1.1853
 1138SOL    HW3 4551   3.434   2.834   1.418  0.0956  1.0661 -0.3833
 1138SOL    MW4 4552   3.362   2.881   1.408 -0.5656  0.1824  0.1763
 1139SOL     OW 4553   3.161   0.133   1.897 -0.3226  0.1503  0.1345
 1139SOL    HW2 4554   3.135   0.153   1.987  0.4281 -1.7190  0.7988
 1139SOL    HW3 4555   3.240   0.081   1.906 -0.2007 -0.0035 -1.6206
 1139SOL    MW4 4556   3.168   0.129   1.910 -0.2074 -0.1166 -0.0094
 1140SOL     OW 4557   3.187   0.374   1.739  0.3860  0.1664 -0.0869
 1140SOL    HW2 4558   3.201   0.288   1.780  0.9156  0.2273 -0.1305
 1140SOL    HW3 4559   3.177   0.354   1.646 -0.1476  0.0902 -0.0126
 1140SOL    MW4 4560   3.188   0.360   1.732  0.3855  0.1644 -0.0829
 1141SOL     OW 4561   3.628   0.352   1.775 -0.2661 -0.0270 -0.1447
 1141SOL    HW2 4562   3.624   0.261   1.805 -0.5679 -0.2112 -0.7292
 1141SOL    HW3 4563   3.612   0.346   1.681  2.0201  0.3802 -0.5989
 1141SOL    MW4 4564   3.626   0.339   1.766 -0.0043  0.0024 -0.2817
 1142SOL     OW 4565   3.168   0.866   1.833  0.1914 -0.4599 -0.4965
 1142SOL    HW2 4566   3.178   0.959   1.812  1.4333 -0.4065  0.2546
 1142SOL    HW3 4567   3.158   0.865   1.928  2.6071 -1.2378 -0.1975
 1142SOL    MW4 4568   3.168   0.878   1.843  0.6739 -0.5555 -0.3580
 1143SOL     OW 4569   3.167   0.865   2.124 -0.4663  0.2806 -0.0696
 1143SOL    HW2 4570   3.240   0.814   2.159  0.0265  0.1691 -1.2271
 1143SOL    HW3 4571   3.089   0.818   2.152 -0.1118  0.6550  1.5742
 1143SOL    MW4 4572   3.167   0.852   2.132 -0.3545  0.3153 -0.0054
 1144SOL     OW 4573   3.164   1.143   1.769  0.1289 -0.5406 -0.4118
 1144SOL    HW2 4574   3.080   1.176   1.799 -0.2390  1.0916 -3.0610
 1144SOL    HW3 4575   3.229   1.194   1.818 -0.4364 -0.1987 -0.0164
 1144SOL    MW4 4576   3.162   1.154   1.780  0.0058 -0.2801 -0.7092
 1145SOL     OW 4577   3.400   1.281   1.868  0.0472 -0.0309  0.2158
 1145SOL    HW2 4578   3.415   1.281   1.963  0.4537  0.1044  0.1517
 1145SOL    HW3 4579   3.393   1.373   1.844 -1.3223 -0.0968  0.3081
 1145SOL    MW4 4580   3.401   1.293   1.877 -0.0799 -0.0217  0.2195
 1146SOL     OW 4581   3.367   1.561   1.742 -0.6924 -0.3476 -0.2516
 1146SOL    HW2 4582   3.447   1.600   1.778  0.2294  0.2106 -2.7971
 1146SOL    HW3 4583   3.296   1.612   1.781  0.2502  0.2038  0.7858
 1146SOL    MW4 4584   3.368   1.573   1.752 -0.4464 -0.2012 -0.4506
 1147SOL     OW 4585   3.149   1.661   1.878  0.1950 -0.2027  0.2021
 1147SOL    HW2 4586   3.150   1.654   1.974 -0.6588  0.5388  0.2758
 1147SOL    HW3 4587   3.151   1.755   1.861 -0.1956 -0.3166 -0.4956
 1147SOL    MW4 4588   3.149   1.672   1.889  0.0308 -0.1199  0.1198
 1148SOL     OW 4589   3.118   1.913   1.755 -0.1299 -0.2872  0.1749
 1148SOL    HW2 4590   3.200   1.962   1.765 -0.0060 -0.3641 -0.4750
 1148SOL    HW3 4591   3.108   1.900   1.661 -0.7776 -0.4749  0.2635
 1148SOL    MW4 4592   3.128   1.918   1.744 -0.1990 -0.3221  0.1009
 1149SOL     OW 4593   3.362   2.036   1.830  0.6481 -0.2810  0.0254
 1149SOL    HW2 4594   3.432   1.991   1.781  0.0296 -0.8811 -0.3253
 1149SOL    HW3 4595   3.357   2.123   1.790  0.2795 -0.7016 -0.8602
 1149SOL    MW4 4596   3.370   2.041   1.818  0.5178 -0.4157 -0.1377
 1150SOL     OW 4597   3.351   2.298   1.728  0.4153  0.5156 -0.2853
 1150SOL    HW2 4598   3.270   2.329   1.770 -1.8590 -4.0265 -1.0370
 1150SOL    HW3 4599   3.336   2.312   1.634  0.3652 -0.6153 -0.4487
 1150SOL    MW4 4600   3.338   2.304   1.721  0.1086 -0.2329 -0.4060
 1151SOL     OW 4601   3.106   2.418   1.812  0.1862 -0.1998  0.3577
 1151SOL    HW2 4602   3.101   2.404   1.907  1.3760  0.8258  0.5891
 1151SOL    HW3 4603   3.132   2.509   1.803 -1.6162  0.1815 -1.0108
 1151SOL    MW4 4604   3.109   2.428   1.824  0.1054 -0.0142  0.2077
 1152SOL     OW 4605   3.162   2.691   1.744  0.9184  0.0458  0.0554
 1152SOL    HW2 4606   3.086   2.741   1.773 -0.7006 -2.3945  0.1710
 1152SOL    HW3 4607   3.151   2.686   1.648  0.5683 -0.8523  0.1389
 1152SOL    MW4 4608   3.150   2.697   1.735  0.6586 -0.3946  0.0816
 1153SOL     OW 4609   3.378   2.848   1.867 -0.0907 -0.2358 -0.0927
 1153SOL    HW2 4610   3.383   2.831   1.960 -2.7362  0.5009  0.2326
 1153SOL    HW3 4611   3.297   2.804   1.838 -0.5161  1.4268 -1.5631
 1153SOL    MW4 4612   3.368   2.840   1.875 -0.4959  0.0807 -0.2438
 1154SOL     OW 4613   3.129   3.276   1.878 -0.1654 -0.0859  0.0649
 1154SOL    HW2 4614   3.137   3.363   1.839  1.6336 -0.0502  0.4662
 1154SOL    HW3 4615   3.200   3.225   1.839 -0.3957 -0.9914  0.8068
 1154SOL    MW4 4616   3.139   3.281   1.868  0.0416 -0.2006  0.2157
 1155SOL     OW 4617   3.125   3.529   1.768  0.0044  0.0847  0.3943
 1155SOL    HW2 4618   3.046   3.573   1.800 -0.0749  0.0726  0.2162
 1155SOL    HW3 4619   3.197   3.572   1.815 -0.0722  0.4043  0.2202
 1155SOL    MW4 4620   3.124   3.541   1.778 -0.0162  0.1252  0.3478
 1156SOL     OW 4621   2.904   0.518   1.046  0.3510  0.3300 -0.2549
 1156SOL    HW2 4622   2.909   0.425   1.023 -2.2687  0.2380 -0.6254
 1156SOL    HW3 4623   2.920   0.519   1.140  0.7698 -0.4667 -0.3102
 1156SOL    MW4 4624   2.906   0.506   1.056  0.0606  0.2128 -0.3111
 1157SOL     OW 4625   3.384   3.614   1.864 -0.0296 -0.0450  0.3835
 1157SOL    HW2 4626   3.457   3.563   1.827 -0.1854 -0.9693  1.3412
 1157SOL    HW3 4627   3.394   3.701   1.824  1.1160 -0.3880 -0.1212
 1157SOL    MW4 4628   3.395   3.619   1.854  0.1010 -0.2122  0.4433
 1158SOL     OW 4629   3.367   3.858   1.718 -0.4508 -0.1314 -0.5133
 1158SOL    HW2 4630   3.318   3.927   1.762 -0.1848 -0.3905  0.2001
 1158SOL    HW3 4631   3.352   3.873   1.625  0.0334  1.2215 -0.3916
 1158SOL    MW4 4632   3.359   3.870   1.712 -0.3518  0.0129 -0.4031
 1159SOL     OW 4633   3.342   3.624   1.359 -0.2033  0.4679  0.0564
 1159SOL    HW2 4634   3.422   3.589   1.398 -0.0964 -0.0552 -0.6045
 1159SOL    HW3 4635   3.271   3.591   1.415  0.0252  0.7210  0.4954
 1159SOL    MW4 4636   3.343   3.615   1.371 -0.1591  0.4323  0.0271
 1160SOL     OW 4637   2.920   4.428   1.876 -0.5805  0.6321 -0.9097
 1160SOL    HW2 4638   2.997   4.385   1.839 -0.7418 -1.4294  1.0756
 1160SOL    HW3 4639   2.926   4.411   1.970 -2.6854  1.7237 -0.5538
 1160SOL    MW4 4640   2.931   4.420   1.883 -0.8795  0.5041 -0.6008
 1161SOL     OW 4641   3.390   4.355   1.894 -0.3831  0.3152  0.1304
 1161SOL    HW2 4642   3.313   4.301   1.875  0.1926  0.0932 -1.6223
 1161SOL    HW3 4643   3.464   4.303   1.863  0.4076  0.9210  0.9912
 1161SOL    MW4 4644   3.390   4.341   1.888 -0.2029  0.3658  0.0127
 1162SOL     OW 4645   3.390   4.612   1.788  0.1528 -0.2862  0.0452
 1162SOL    HW2 4646   3.369   4.593   1.697  1.3015  0.2636 -0.3375
 1162SOL    HW3 4647   3.402   4.526   1.828 -0.1199 -0.5207 -0.3667
 1162SOL    MW4 4648   3.389   4.598   1.781  0.2684 -0.2446 -0.0596
 1163SOL     OW 4649   3.616   0.072   1.866  0.2537  0.0910  0.3482
 1163SOL    HW2 4650   3.615   0.072   1.961  0.9348 -0.3874  0.3617
 1163SOL    HW3 4651   3.532   0.034   1.841  0.4381 -0.6181  0.7781
 1163SOL    MW4 4652   3.605   0.067   1.875  0.3679 -0.0657  0.4067
 1164SOL     OW 4653   4.279   1.305   1.375  0.4335  0.1837 -0.4245
 1164SOL    HW2 4654   4.210   1.261   1.425  0.9657  0.0338  0.1767
 1164SOL    HW3 4655   4.361   1.274   1.413  0.8143  2.5406  0.7872
 1164SOL    MW4 4656   4.281   1.295   1.386  0.5539  0.4749 -0.1853
 1165SOL     OW 4657   3.839   0.519   1.881 -0.1499 -0.2382 -0.2807
 1165SOL    HW2 4658   3.916   0.476   1.844  0.1938 -0.0769  0.2295
 1165SOL    HW3 4659   3.765   0.471   1.845  0.1508  0.4873 -1.8727
 1165SOL    MW4 4660   3.840   0.507   1.871 -0.0649 -0.1212 -0.4234
 1166SOL     OW 4661   3.817   0.764   1.749 -1.0246  0.4193 -0.2882
 1166SOL    HW2 4662   3.742   0.809   1.788  0.1642  1.8344  0.4471
 1166SOL    HW3 4663   3.829   0.686   1.803 -1.9550  0.1863 -0.4100
 1166SOL    MW4 4664   3.809   0.760   1.761 -0.9905  0.5753 -0.2073
 1167SOL     OW 4665   3.604   0.912   1.879 -0.1356 -0.2446  0.6226
 1167SOL    HW2 4666   3.605   0.999   1.841  0.7149 -0.6429 -0.2821
 1167SOL    HW3 4667   3.531   0.868   1.836 -0.8481  0.1481  1.4036
 1167SOL    MW4 4668   3.595   0.918   1.868 -0.1174 -0.2453  0.6063
 1168SOL     OW 4669   3.598   1.131   1.744  0.2792  0.2217  0.0310
 1168SOL    HW2 4670   3.590   1.111   1.651  0.1813 -2.1347  0.5244
 1168SOL    HW3 4671   3.520   1.182   1.765  0.8219  1.6848 -1.3857
 1168SOL    MW4 4672   3.587   1.135   1.735  0.3379  0.1038 -0.0908
 1169SOL     OW 4673   3.775   1.279   1.873  0.1215 -0.0646  0.4590
 1169SOL    HW2 4674   3.785   1.258   1.966  0.4610  0.7062  0.6043
 1169SOL    HW3 4675   3.720   1.209   1.838 -0.4605 -0.0647  1.3588
 1169SOL    MW4 4676   3.769   1.267   1.881  0.0895  0.0371  0.5969
 1170SOL     OW 4677   3.774   1.516   1.733  0.3167  0.2839  0.3504
 1170SOL    HW2 4678   3.851   1.551   1.777  2.1071 -2.1722 -0.7010
 1170SOL    HW3 4679   3.755   1.435   1.780 -0.8295  0.2123 -0.2276
 1170SOL    MW4 4680   3.782   1.510   1.745  0.4017 -0.0496  0.1355
 1171SOL     OW 4681   3.586   1.683   1.851  0.4785 -0.3223 -0.2488
 1171SOL    HW2 4682   3.595   1.764   1.802 -0.3777 -0.3324 -0.4290
 1171SOL    HW3 4683   3.642   1.621   1.805 -0.3070 -0.3296 -1.2073
 1171SOL    MW4 4684   3.594   1.686   1.839  0.2619 -0.3246 -0.3990
 1172SOL     OW 4685   3.602   1.928   1.700 -0.1516  0.2431 -0.0631
 1172SOL    HW2 4686   3.683   1.971   1.728 -0.9433  0.8440  1.3228
 1172SOL    HW3 4687   3.606   1.930   1.604  1.2437  0.6961 -0.0036
 1172SOL    MW4 4688   3.613   1.934   1.691 -0.0720  0.3822  0.1276
 1173SOL     OW 4689   3.856   2.025   1.786 -0.0290  0.1177  0.1907
 1173SOL    HW2 4690   3.934   1.977   1.758 -0.6441  0.0834 -1.4751
 1173SOL    HW3 4691   3.876   2.117   1.767 -0.0499  0.2110  0.6037
 1173SOL    MW4 4692   3.869   2.031   1.780 -0.1129  0.1255  0.0254
 1174SOL     OW 4693   3.828   2.308   1.701  0.4997 -0.1931  0.2113
 1174SOL    HW2 4694   3.889   2.372   1.736 -0.5555  0.9405  0.0174
 1174SOL    HW3 4695   3.742   2.338   1.731 -0.3266  0.2524 -2.4757
 1174SOL    MW4 4696   3.824   2.320   1.709  0.2514  0.0153 -0.1688
 1175SOL     OW 4697   3.590   2.405   1.843  0.4004  0.3720 -0.4640
 1175SOL    HW2 4698   3.515   2.364   1.798 -0.7749  1.6049  0.3321
 1175SOL    HW3 4699   3.586   2.497   1.816 -1.2614  1.5017  3.3052
 1175SOL    MW4 4700   3.579   2.411   1.833  0.0261  0.6837  0.1383
 1176SOL     OW 4701   3.590   2.696   1.736 -0.2072  0.5733  0.0454
 1176SOL    HW2 4702   3.514   2.740   1.775  0.2275 -0.1138  1.7386
 1176SOL    HW3 4703   3.665   2.750   1.762  0.2255 -0.5949  1.3286
 1176SOL    MW4 4704   3.590   2.709   1.745 -0.0927  0.3285  0.4381
 1177SOL     OW 4705   3.810   2.837   1.828 -0.3020  0.3713 -0.2129
 1177SOL    HW2 4706   3.807   2.844   1.924 -0.1155  0.4521 -0.2125
 1177SOL    HW3 4707   3.839   2.923   1.799 -0.9297  0.5284 -0.3769
 1177SOL    MW4 4708   3.813   2.849   1.837 -0.3602  0.4027 -0.2345
 1178SOL     OW 4709   3.841   3.105   1.760  0.0746  0.3953 -0.2200
 1178SOL    HW2 4710   3.758   3.131   1.799 -0.3964 -1.2377 -0.0944
 1178SOL    HW3 4711   3.824   3.106   1.666 -0.4372 -0.9729 -0.1636
 1178SOL    MW4 4712   3.828   3.108   1.753 -0.0550 -0.0007 -0.1960
 1179SOL     OW 4713   3.591   3.196   1.858  0.1052 -0.1994 -0.0230
 1179SOL    HW2 4714   3.577   3.210   1.952 -0.1461  0.0285 -0.0949
 1179SOL    HW3 4715   3.593   3.284   1.820  0.8562 -0.2622 -0.1393
 1179SOL    MW4 4716   3.590   3.209   1.865  0.1711 -0.1776 -0.0478
 1180SOL     OW 4717   3.599   3.455   1.748  0.6777 -0.2970 -0.3317
 1180SOL    HW2 4718   3.587   3.478   1.656 -0.4314  0.3317 -0.0284
 1180SOL    HW3 4719   3.674   3.507   1.776  0.1033  0.6255 -0.4878
 1180SOL    MW4 4720   3.608   3.465   1.739  0.4556 -0.0924 -0.3123
 1181SOL     OW 4721   3.818   3.606   1.821  0.0838 -0.1329 -0.1327
 1181SOL    HW2 4722   3.907   3.572   1.826  0.2727 -0.0630 -2.7809
 1181SOL    HW3 4723   3.827   3.695   1.789 -0.8269  0.4856  1.2849
 1181SOL    MW4 4724   3.831   3.613   1.818 -0.0114 -0.0421 -0.2951
 1182SOL     OW 4725   0.771   2.557   0.653  0.0030  0.5367  0.4007
 1182SOL    HW2 4726   0.847   2.594   0.697  2.5174 -2.4825 -1.2090
 1182SOL    HW3 4727   0.789   2.567   0.560 -1.1820 -0.9453 -0.0144
 1182SOL    MW4 4728   0.783   2.563   0.646  0.1784 -0.0572  0.1336
 1183SOL     OW 4729   3.588   3.998   1.822  0.5505 -0.4209  0.1488
 1183SOL    HW2 4730   3.566   3.996   1.915  0.1982 -0.0152  0.0700
 1183SOL    HW3 4731   3.518   3.948   1.780  0.6561 -0.5168  0.0842
 1183SOL    MW4 4732   3.576   3.991   1.829  0.5179 -0.3800  0.1299
 1184SOL     OW 4733   3.608   4.256   1.724 -0.1434 -0.1065 -0.0947
 1184SOL    HW2 4734   3.686   4.307   1.747 -1.2966  1.7236 -0.2134
 1184SOL    HW3 4735   3.623   4.171   1.765  1.2740  0.6667  1.0555
 1184SOL    MW4 4736   3.620   4.252   1.732 -0.1085  0.2370  0.0414
 1185SOL     OW 4737   3.828   4.394   1.825  0.3502  0.5708  0.2194
 1185SOL    HW2 4738   3.817   4.372   1.917  0.9436  0.6582  0.3164
 1185SOL    HW3 4739   3.897   4.334   1.795  0.9685  1.3157  0.1240
 1185SOL    MW4 4740   3.836   4.383   1.833  0.5100  0.6806  0.2196
 1186SOL     OW 4741   4.284   4.654   1.763  0.1088 -0.3154 -0.3452
 1186SOL    HW2 4742   4.361   4.691   1.807  0.6467 -2.4375  0.5345
 1186SOL    HW3 4743   4.210   4.682   1.817  0.3729  0.7125 -0.5084
 1186SOL    MW4 4744   4.285   4.663   1.776  0.2146 -0.4598 -0.2506
 1187SOL     OW 4745   3.837   4.655   1.738 -0.3307 -0.4163  0.1830
 1187SOL    HW2 4746   3.754   4.675   1.782 -0.1590  0.7975 -0.0404
 1187SOL    HW3 4747   3.852   4.562   1.757 -2.2368 -0.8955 -0.5955
 1187SOL    MW4 4748   3.828   4.645   1.747 -0.5595 -0.3194  0.0508
 1188SOL     OW 4749   4.058   0.361   1.760 -0.0838 -0.3866 -0.1718
 1188SOL    HW2 4750   4.053   0.364   1.664  0.2425 -0.8513 -0.2011
 1188SOL    HW3 4751   4.063   0.268   1.781 -0.6376 -0.3102  0.3241
 1188SOL    MW4 4752   4.058   0.349   1.750 -0.1138 -0.4378 -0.1103
 1189SOL     OW 4753   4.267   0.524   1.834  0.5416 -0.0168  0.4326
 1189SOL    HW2 4754   4.267   0.494   1.924 -1.3934  0.1428  0.5035
 1189SOL    HW3 4755   4.191   0.481   1.794  2.1182 -1.0842 -1.4676
 1189SOL    MW4 4756   4.257   0.515   1.840  0.4943 -0.1365  0.1912
 1190SOL     OW 4757   4.279   0.794   1.783  0.5970  0.0365 -0.2442
 1190SOL    HW2 4758   4.294   0.702   1.808  1.0385 -0.1422 -1.1451
 1190SOL    HW3 4759   4.253   0.790   1.691 -1.1969  0.6765  0.2138
 1190SOL    MW4 4760   4.278   0.781   1.774  0.4186  0.0974 -0.3026
 1191SOL     OW 4761   4.014   0.904   1.914 -0.2825 -0.5353 -0.3110
 1191SOL    HW2 4762   4.092   0.876   1.866 -0.4445 -0.8465 -0.3928
 1191SOL    HW3 4763   3.942   0.859   1.870 -0.5598  0.1190 -0.5384
 1191SOL    MW4 4764   4.015   0.894   1.902 -0.3404 -0.4901 -0.3518
 1192SOL     OW 4765   4.030   1.145   1.781  0.0093 -0.5717 -0.0723
 1192SOL    HW2 4766   4.022   1.068   1.838  1.1782  0.3279  1.3123
 1192SOL    HW3 4767   3.957   1.202   1.807  0.1131 -0.4819  0.0222
 1192SOL    MW4 4768   4.019   1.142   1.792  0.1772 -0.4411  0.1229
 1193SOL     OW 4769   4.237   1.555   1.732 -0.0604 -0.1362 -0.0419
 1193SOL    HW2 4770   4.244   1.462   1.755  0.0459  0.0416  0.6706
 1193SOL    HW3 4771   4.248   1.558   1.637  0.6760 -0.7803  0.0206
 1193SOL    MW4 4772   4.239   1.543   1.723  0.0508 -0.1977  0.0604
 1194SOL     OW 4773   4.295   1.588   1.441  0.3589 -0.3436 -0.6631
 1194SOL    HW2 4774   4.279   1.496   1.422 -1.6563 -0.2071  0.2430
 1194SOL    HW3 4775   4.212   1.631   1.424  0.8976  1.1048  0.2345
 1194SOL    MW4 4776   4.282   1.582   1.436  0.1641 -0.1345 -0.4251
 1195SOL     OW 4777   3.983   1.635   1.854  0.2768 -0.0967 -0.1306
 1195SOL    HW2 4778   4.011   1.658   1.943  1.2131  0.9557 -0.6687
 1195SOL    HW3 4779   4.062   1.598   1.813 -0.7268 -2.6365  0.1359
 1195SOL    MW4 4780   3.997   1.633   1.860  0.2679 -0.2929 -0.1664
 1196SOL     OW 4781   4.107   1.888   1.736 -0.7051  0.2504  0.3683
 1196SOL    HW2 4782   4.073   1.805   1.769 -2.1334  0.4760 -0.5381
 1196SOL    HW3 4783   4.072   1.895   1.647 -0.0885  1.5310  0.2209
 1196SOL    MW4 4784   4.098   1.878   1.728 -0.8122  0.4491  0.2293
 1197SOL     OW 4785   4.295   2.091   1.828  0.1291  0.1372 -0.8106
 1197SOL    HW2 4786   4.326   2.070   1.916 -1.1173  1.4494 -0.0287
 1197SOL    HW3 4787   4.234   2.019   1.807 -1.6187  1.1727  0.5185
 1197SOL    MW4 4788   4.291   2.079   1.837 -0.2660  0.4469 -0.5321
 1198SOL     OW 4789   4.465   2.481   1.780 -0.5653 -0.2879  0.6079
 1198SOL    HW2 4790   4.462   2.486   1.876 -0.0106  2.4540  0.5452
 1198SOL    HW3 4791   4.502   2.565   1.754  1.3256 -1.8619 -1.9373
 1198SOL    MW4 4792   4.469   2.493   1.789 -0.2426 -0.1338  0.2638
 1199SOL     OW 4793   4.029   2.471   1.828 -0.0093 -0.0168  0.4297
 1199SOL    HW2 4794   4.038   2.450   1.920  0.5418 -0.9168  0.1795
 1199SOL    HW3 4795   4.104   2.428   1.786 -0.8934 -0.5938 -0.5873
 1199SOL    MW4 4796   4.040   2.462   1.834 -0.0533 -0.2117  0.2625
 1200SOL     OW 4797   4.038   2.716   1.715  0.0676 -0.0099  0.2430
 1200SOL    HW2 4798   4.038   2.628   1.754  1.6186  0.3785  1.1546
 1200SOL    HW3 4799   3.960   2.758   1.753  1.0902  0.0746  2.3485
 1200SOL    MW4 4800   4.028   2.710   1.725  0.4071  0.0525  0.6411
 1201SOL     OW 4801   0.023   2.730   1.671 -0.2368  0.4181 -0.1018
 1201SOL    HW2 4802  -0.045   2.778   1.718  0.3511  0.8220  0.3571
 1201SOL    HW3 4803  -0.002   2.736   1.579 -0.3448  1.3527 -0.0179
 1201SOL    MW4 4804   0.011   2.737   1.665 -0.1735  0.5947 -0.0302
 1202SOL     OW 4805   4.299   2.808   1.816 -0.1928  0.5845  0.3861
 1202SOL    HW2 4806   4.220   2.763   1.787 -0.1071  0.3335  0.5491
 1202SOL    HW3 4807   4.289   2.816   1.911  0.0674  0.3802  0.4315
 1202SOL    MW4 4808   4.287   2.803   1.825 -0.1472  0.5245  0.4136
 1203SOL     OW 4809   4.092   3.210   1.882  0.5488 -0.3353 -0.1636
 1203SOL    HW2 4810   4.079   3.198   1.976 -1.4225  0.0546 -0.3704
 1203SOL    HW3 4811   4.006   3.194   1.844  1.3283 -0.4657 -1.9141
 1203SOL    MW4 4812   4.079   3.206   1.889  0.3915 -0.3011 -0.4218
 1204SOL     OW 4813   4.061   3.493   1.812  0.1012 -0.3671 -0.5151
 1204SOL    HW2 4814   4.083   3.404   1.839  0.7419 -0.0006  0.1958
 1204SOL    HW3 4815   4.142   3.543   1.825 -0.4071  0.4320 -0.3717
 1204SOL    MW4 4816   4.074   3.488   1.817  0.1186 -0.2133 -0.4024
 1205SOL     OW 4817   4.287   3.580   1.411 -0.2182  0.2206 -0.2720
 1205SOL    HW2 4818   4.269   3.614   1.323 -0.0294 -0.7028 -0.6759
 1205SOL    HW3 4819   4.200   3.562   1.448 -0.2782 -0.2018 -0.6054
 1205SOL    MW4 4820   4.273   3.582   1.404 -0.2012  0.0430 -0.3693
 1206SOL     OW 4821   0.012   4.012   1.842 -0.7121  0.7111  0.5755
 1206SOL    HW2 4822  -0.066   3.969   1.806 -0.5119 -1.1468  2.2504
 1206SOL    HW3 4823   0.006   4.103   1.812 -2.5143  0.1262 -0.9087
 1206SOL    MW4 4824   0.001   4.018   1.833 -0.9235  0.3888  0.6006
 1207SOL     OW 4825   0.237   0.513   1.166 -0.1441  0.0630  0.1231
 1207SOL    HW2 4826   0.167   0.575   1.146  1.8731  3.4729  3.1457
 1207SOL    HW3 4827   0.310   0.539   1.111  0.5882  0.1035  1.1033
 1207SOL    MW4 4828   0.237   0.524   1.156  0.2187  0.5182  0.6512
 1208SOL     OW 4829   3.844   3.876   1.765  0.3963 -0.2153 -0.6902
 1208SOL    HW2 4830   3.854   3.879   1.670  1.5845  0.1561 -0.5563
 1208SOL    HW3 4831   3.751   3.898   1.780  0.6362  1.5616 -1.6591
 1208SOL    MW4 4832   3.833   3.879   1.755  0.5847  0.0681 -0.8004
 1209SOL     OW 4833   4.240   4.390   1.850 -0.3559 -0.1306 -0.5465
 1209SOL    HW2 4834   4.239   4.406   1.944 -0.8637  0.2158 -0.6120
 1209SOL    HW3 4835   4.286   4.466   1.814  1.3688 -1.0879 -0.4244
 1209SOL    MW4 4836   4.246   4.402   1.858 -0.1953 -0.2112 -0.5390
 1210SOL     OW 4837   0.213   0.001   2.261 -0.2050 -0.9918 -0.0588
 1210SOL    HW2 4838   0.226   0.028   2.352  1.2571  0.2368 -0.5947
 1210SOL    HW3 4839   0.294   0.026   2.218 -0.4554 -2.5852 -1.4769
 1210SOL    MW4 4840   0.225   0.008   2.267 -0.0452 -1.0399 -0.3166
 1211SOL     OW 4841   4.459   0.111   2.177 -0.2147 -0.1242 -0.1347
 1211SOL    HW2 4842   4.539   0.061   2.195 -0.3026 -0.1854  0.0854
 1211SOL    HW3 4843   4.453   0.113   2.081  0.1867  0.0961 -0.1562
 1211SOL    MW4 4844   4.469   0.105   2.167 -0.1734 -0.1032 -0.1085
 1212SOL     OW 4845   4.488   0.392   2.212 -0.3965 -0.1599 -0.5241
 1212SOL    HW2 4846   4.575   0.411   2.177  0.9976 -2.5089  1.4920
 1212SOL    HW3 4847   4.480   0.297   2.206 -2.4709 -0.0561  0.1358
 1212SOL    MW4 4848   4.498   0.382   2.207 -0.4862 -0.4561 -0.1710
 1213SOL     OW 4849   0.244   0.479   2.129  0.6077 -0.4412  0.3197
 1213SOL    HW2 4850   0.332   0.473   2.165  0.6543  0.5417  0.3639
 1213SOL    HW3 4851   0.256   0.478   2.034  0.6568 -0.3677  0.3258
 1213SOL    MW4 4852   0.257   0.478   2.121  0.6203 -0.3018  0.3263
 1214SOL     OW 4853   0.220   0.758   2.206  0.1968  0.0056 -0.0134
 1214SOL    HW2 4854   0.215   0.748   2.301  3.8615 -0.9347  0.1546
 1214SOL    HW3 4855   0.232   0.669   2.173 -0.8514  0.3450 -1.3814
 1214SOL    MW4 4856   0.221   0.745   2.214  0.5420 -0.0737 -0.1717
 1215SOL     OW 4857   0.002   0.912   2.153 -0.0330 -0.3126  0.3579
 1215SOL    HW2 4858   0.077   0.861   2.181 -1.2176 -3.2763 -1.5649
 1215SOL    HW3 4859   0.010   0.916   2.058 -0.8649  1.6938  0.3550
 1215SOL    MW4 4860   0.013   0.906   2.144 -0.2990 -0.4389  0.1038
 1216SOL     OW 4861   0.038   1.168   2.258 -0.4785 -0.2265  0.0086
 1216SOL    HW2 4862   0.046   1.170   2.354 -1.7954  0.4843  0.1179
 1216SOL    HW3 4863   0.032   1.075   2.237  2.3988 -0.5420  0.3621
 1216SOL    MW4 4864   0.039   1.156   2.268 -0.2726 -0.1743  0.0697
 1217SOL     OW 4865   0.260   1.296   2.130 -0.3851  0.3474 -0.1490
 1217SOL    HW2 4866   0.185   1.239   2.145 -0.5509  0.5822 -0.0905
 1217SOL    HW3 4867   0.257   1.318   2.037  0.1419 -0.3951 -0.3454
 1217SOL    MW4 4868   0.250   1.291   2.120 -0.3374  0.2804 -0.1672
 1218SOL     OW 4869   0.064   1.696   2.076  0.1325 -0.1962 -0.0405
 1218SOL    HW2 4870   0.067   1.777   2.128 -0.7171  0.4498 -0.9981
 1218SOL    HW3 4871   0.123   1.637   2.123 -1.0945  0.1539  2.0427
 1218SOL    MW4 4872   0.073   1.699   2.089 -0.1415 -0.0648  0.1080
 1219SOL     OW 4873   0.212   1.533   2.255 -0.0377  0.0043 -0.0198
 1219SOL    HW2 4874   0.234   1.529   2.348  0.6755  0.4254 -0.1677
 1219SOL    HW3 4875   0.230   1.445   2.222 -0.6314 -0.2460  0.3107
 1219SOL    MW4 4876   0.217   1.521   2.263 -0.0219  0.0268  0.0043
 1220SOL     OW 4877   0.038   1.921   2.218  0.1334 -0.1957 -0.1427
 1220SOL    HW2 4878  -0.044   1.957   2.182  0.3220  0.0560 -0.3274
 1220SOL    HW3 4879   0.105   1.982   2.188  0.5082 -0.9246 -0.7947
 1220SOL    MW4 4880   0.036   1.934   2.209  0.2077 -0.2587 -0.2531
 1221SOL     OW 4881   0.268   2.084   2.099 -0.1412  0.4150  0.0523
 1221SOL    HW2 4882   0.364   2.090   2.096 -0.2007  1.2176 -0.6067
 1221SOL    HW3 4883   0.241   2.078   2.007 -0.7853  1.5022  0.1542
 1221SOL    MW4 4884   0.277   2.084   2.086 -0.2340  0.6643 -0.0212
 1222SOL     OW 4885   0.235   2.338   2.202  0.2998  0.0623  0.1002
 1222SOL    HW2 4886   0.239   2.332   2.298 -1.0308 -0.9134  0.1035
 1222SOL    HW3 4887   0.235   2.247   2.172  1.0397  0.3671 -0.8582
 1222SOL    MW4 4888   0.236   2.325   2.211  0.2219 -0.0262 -0.0258
 1223SOL     OW 4889   4.489   2.461   2.103 -0.1859 -0.1157  1.0210
 1223SOL    HW2 4890   4.498   2.553   2.127 -0.4540 -0.3221  1.9222
 1223SOL    HW3 4891   4.566   2.418   2.141 -1.1817 -0.6358  2.4901
 1223SOL    MW4 4892   4.501   2.467   2.111 -0.3526 -0.2116  1.3337
 1224SOL     OW 4893   0.020   2.729   2.213 -0.0465  0.1040 -0.2045
 1224SOL    HW2 4894   0.024   2.750   2.306  1.0220 -1.5459  0.1482
 1224SOL    HW3 4895   0.096   2.771   2.174 -0.9269  1.4547 -0.4815
 1224SOL    MW4 4896   0.030   2.737   2.220 -0.0217  0.0646 -0.1945
 1225SOL     OW 4897   0.233   2.884   2.085  0.2776  0.1870  0.5311
 1225SOL    HW2 4898   0.320   2.860   2.116  1.4352  1.3423 -1.7014
 1225SOL    HW3 4899   0.241   2.887   1.990 -1.7925  1.8519  0.3637
 1225SOL    MW4 4900   0.245   2.881   2.077  0.1572  0.5591  0.2145
 1226SOL     OW 4901   0.190   3.111   2.222  0.5232 -0.0544 -0.0544
 1226SOL    HW2 4902   0.111   3.147   2.184  0.7512  1.3522  0.7814
 1226SOL    HW3 4903   0.212   3.036   2.166 -0.3674  0.6452 -1.3545
 1226SOL    MW4 4904   0.183   3.106   2.210  0.4358  0.2235 -0.1157
 1227SOL     OW 4905   4.472   3.239   2.089  0.2673  0.0310 -0.3679
 1227SOL    HW2 4906   4.497   3.331   2.097 -0.0238 -0.1091  2.7707
 1227SOL    HW3 4907   4.463   3.224   1.995 -2.6121  4.0003 -0.8243
 1227SOL    MW4 4908   4.474   3.249   2.078 -0.1510  0.5362 -0.0141
 1228SOL     OW 4909   0.011   3.493   2.209  0.3217 -0.3016 -0.0529
 1228SOL    HW2 4910   0.007   3.482   2.305  0.2015  1.2123  0.1165
 1228SOL    HW3 4911  -0.079   3.513   2.184  0.1606 -1.6581 -0.6237
 1228SOL    MW4 4912  -0.001   3.494   2.219  0.2846 -0.2809 -0.1058
 1229SOL     OW 4913   0.243   3.609   2.111  0.1443  0.1031  0.7659
 1229SOL    HW2 4914   0.321   3.575   2.155  0.0975 -0.5527  0.3564
 1229SOL    HW3 4915   0.171   3.559   2.148 -0.1336  0.9916  1.4384
 1229SOL    MW4 4916   0.244   3.598   2.122  0.1014  0.1338  0.8006
 1230SOL     OW 4917   0.249   3.836   2.272 -0.3963  0.2316 -0.0200
 1230SOL    HW2 4918   0.185   3.887   2.221 -0.1121 -0.4804 -1.1146
 1230SOL    HW3 4919   0.244   3.748   2.235  0.7146 -0.0019  0.3591
 1230SOL    MW4 4920   0.240   3.831   2.260 -0.2122  0.1068 -0.1144
 1231SOL     OW 4921   0.032   3.954   2.144 -0.1890 -0.7612  0.1524
 1231SOL    HW2 4922   0.025   4.045   2.174  1.2321 -0.8674  0.8459
 1231SOL    HW3 4923   0.006   3.957   2.052 -0.7351  0.2358  0.3311
 1231SOL    MW4 4924   0.027   3.966   2.136 -0.0736 -0.6437  0.2675
 1232SOL     OW 4925   0.004   4.224   2.244 -0.2255 -0.2303 -0.4941
 1232SOL    HW2 4926   0.015   4.234   2.339 -1.3547 -0.7757 -0.3023
 1232SOL    HW3 4927   0.069   4.284   2.206  0.1976  0.0287  0.6204
 1232SOL    MW4 4928   0.014   4.233   2.252 -0.3187 -0.2681 -0.3217
 1233SOL     OW 4929   0.196   4.418   2.147  0.2307 -0.1591 -0.4595
 1233SOL    HW2 4930   0.279   4.370   2.155  1.4623  1.7723 -1.1062
 1233SOL    HW3 4931   0.200   4.485   2.215  0.2120  1.3529 -1.9217
 1233SOL    MW4 4932   0.208   4.420   2.157  0.3907  0.2952 -0.7377
 1234SOL     OW 4933   0.690   4.653   2.211  0.2277  0.0920  0.2397
 1234SOL    HW2 4934   0.682   4.662   2.306 -0.5841  1.3276  0.0703
 1234SOL    HW3 4935   0.767   4.705   2.188 -0.4614  1.0300  0.0480
 1234SOL    MW4 4936   0.699   4.661   2.220  0.0297  0.3787  0.1921
 1235SOL     OW 4937   0.446   0.106   2.138 -0.5931  0.5134 -0.0640
 1235SOL    HW2 4938   0.532   0.072   2.163  0.1828  0.0702 -3.2060
 1235SOL    HW3 4939   0.433   0.075   2.049 -4.5219 -0.3253  0.7375
 1235SOL    MW4 4940   0.456   0.098   2.130 -1.0091  0.3443 -0.3728
 1236SOL     OW 4941   0.501   0.390   2.222  0.3167  0.1099 -0.1258
 1236SOL    HW2 4942   0.488   0.380   2.316 -0.4012  2.8780  0.0942
 1236SOL    HW3 4943   0.462   0.311   2.184  0.7710 -1.1205  1.8753
 1236SOL    MW4 4944   0.494   0.378   2.229  0.2819  0.3128  0.1672
 1237SOL     OW 4945   0.739   0.490   2.132  0.3764  0.0605 -0.3493
 1237SOL    HW2 4946   0.745   0.566   2.190 -0.0388 -2.7850  3.6128
 1237SOL    HW3 4947   0.658   0.446   2.158 -0.5366 -0.6247 -4.0764
 1237SOL    MW4 4948   0.729   0.494   2.143  0.2011 -0.4054 -0.3183
 1238SOL     OW 4949   0.738   0.745   2.275  0.3532 -0.3373  0.2139
 1238SOL    HW2 4950   0.718   0.727   2.367 -0.2424  0.0283  0.1665
 1238SOL    HW3 4951   0.652   0.756   2.234  0.6425  0.8210 -0.1040
 1238SOL    MW4 4952   0.724   0.744   2.281  0.3128 -0.1362  0.1657
 1239SOL     OW 4953   0.507   0.831   2.147  0.3366 -0.4012 -0.1842
 1239SOL    HW2 4954   0.414   0.820   2.166  0.4583 -0.1624  0.5552
 1239SOL    HW3 4955   0.513   0.825   2.051  0.0317 -3.7637 -0.0350
 1239SOL    MW4 4956   0.495   0.829   2.137  0.3125 -0.8133 -0.0669
 1240SOL     OW 4957   0.483   1.143   2.199  0.0536 -0.0020  0.5311
 1240SOL    HW2 4958   0.455   1.063   2.155  0.7330  0.5825 -0.9755
 1240SOL    HW3 4959   0.415   1.207   2.180  0.6640  0.4342 -0.2457
 1240SOL    MW4 4960   0.471   1.141   2.191  0.2238  0.1326  0.2299
 1241SOL     OW 4961   0.683   1.309   2.114 -0.0573  0.7212 -0.3370
 1241SOL    HW2 4962   0.686   1.392   2.161 -0.1085  0.5053  0.0480
 1241SOL    HW3 4963   0.609   1.262   2.153  0.7715 -0.0442  0.3478
 1241SOL    MW4 4964   0.674   1.314   2.125  0.0453  0.5918 -0.1958
 1242SOL     OW 4965   0.456   1.668   2.156  0.6794  0.4952  0.2948
 1242SOL    HW2 4966   0.377   1.629   2.194 -1.0036  2.4909 -1.0384
 1242SOL    HW3 4967   0.528   1.625   2.202 -1.1300 -2.1484  0.8193
 1242SOL    MW4 4968   0.455   1.657   2.167  0.2187  0.4097  0.1881
 1243SOL     OW 4969   0.465   1.679   1.872 -0.0045  0.7882  0.1124
 1243SOL    HW2 4970   0.552   1.644   1.853 -0.7864 -0.4921 -1.2280
 1243SOL    HW3 4971   0.460   1.680   1.968  1.0506 -0.2560  0.1903
 1243SOL    MW4 4972   0.476   1.675   1.882  0.0316  0.4815 -0.0542
 1244SOL     OW 4973   0.523   1.926   2.263 -0.3885  0.5798 -0.0703
 1244SOL    HW2 4974   0.612   1.897   2.245 -0.1672  0.2120  1.4918
 1244SOL    HW3 4975   0.467   1.853   2.237 -0.0345 -0.1689  1.2072
 1244SOL    MW4 4976   0.527   1.913   2.257 -0.3126  0.4325  0.3043
 1245SOL     OW 4977   0.571   2.159   2.119 -0.2390  0.4016  0.7317
 1245SOL    HW2 4978   0.592   2.233   2.175 -0.5595 -0.0695  1.4876
 1245SOL    HW3 4979   0.566   2.084   2.179  0.1746 -0.2474 -0.0294
 1245SOL    MW4 4980   0.573   2.159   2.134 -0.2268  0.2538  0.7310
 1246SOL     OW 4981   0.620   2.420   2.277  0.2451  0.3748 -0.0548
 1246SOL    HW2 4982   0.637   2.394   2.368  1.8037 -0.2973 -0.5251
 1246SOL    HW3 4983   0.700   2.464   2.249 -0.4354  1.0780 -0.9365
 1246SOL    MW4 4984   0.633   2.423   2.285  0.3610  0.3789 -0.2332
 1247SOL     OW 4985   0.420   2.539   2.118 -0.5622  0.2717  0.5477
 1247SOL    HW2 4986   0.505   2.510   2.152 -0.9555 -0.6828  0.7411
 1247SOL    HW3 4987   0.359   2.472   2.149 -1.3686  0.9049  0.3260
 1247SOL    MW4 4988   0.423   2.527   2.127 -0.7205  0.2293  0.5440
 1248SOL     OW 4989   0.436   2.779   2.245  0.0572  0.0106  0.1946
 1248SOL    HW2 4990   0.420   2.765   2.338 -4.0204  2.8517  0.0749
 1248SOL    HW3 4991   0.417   2.695   2.204 -1.7505 -0.2785  1.5787
 1248SOL    MW4 4992   0.431   2.766   2.252 -0.7193  0.3473  0.3614
 1249SOL     OW 4993   0.686   2.876   2.114 -0.2822 -0.1366  0.1179
 1249SOL    HW2 4994   0.626   2.815   2.156  0.0164 -0.5624 -0.0691
 1249SOL    HW3 4995   0.773   2.845   2.139 -0.0741 -0.9014 -1.5073
 1249SOL    MW4 4996   0.690   2.864   2.123 -0.2154 -0.2937 -0.1212
 1250SOL     OW 4997   0.644   3.086   2.281  0.1972 -0.2467  0.2214
 1250SOL    HW2 4998   0.564   3.130   2.251 -0.8992 -1.0185  1.9653
 1250SOL    HW3 4999   0.659   3.018   2.216 -0.8710 -0.4546  0.1899
 1250SOL    MW4 5000   0.635   3.083   2.268 -0.0884 -0.3759  0.4473
 1251SOL     OW 5001   0.439   3.266   2.112  0.1889  0.6200  0.3728
 1251SOL    HW2 5002   0.362   3.219   2.144 -0.2102  1.3570  0.4902
 1251SOL    HW3 5003   0.433   3.260   2.017 -0.1765  0.9369  0.3749
 1251SOL    MW4 5004   0.428   3.259   2.104  0.0880  0.7590  0.3885
 1252SOL     OW 5005   0.463   3.509   2.227 -0.4691 -0.1576  0.4950
 1252SOL    HW2 5006   0.546   3.556   2.216 -0.2159 -0.4966  0.9385
 1252SOL    HW3 5007   0.469   3.436   2.165 -0.7529  0.2368 -0.0059
 1252SOL    MW4 5008   0.475   3.505   2.217 -0.4732 -0.1503  0.4874
 1253SOL     OW 5009   0.676   3.667   2.182  0.0723 -0.2066 -0.4718
 1253SOL    HW2 5010   0.661   3.756   2.212 -0.8988 -0.4387 -0.2505
 1253SOL    HW3 5011   0.694   3.676   2.089  2.0227  0.4100 -0.0677
 1253SOL    MW4 5012   0.677   3.680   2.174  0.2015 -0.1559 -0.3893
 1254SOL     OW 5013   0.679   3.933   2.270  0.2523  0.2169  0.0773
 1254SOL    HW2 5014   0.677   3.937   2.365  1.6306  1.1907  0.0856
 1254SOL    HW3 5015   0.595   3.969   2.242  0.3827  1.1747  0.8996
 1254SOL    MW4 5016   0.668   3.938   2.279  0.4513  0.4717  0.1868
 1255SOL     OW 5017   0.443   4.023   2.181  0.0675 -0.9244 -0.1406
 1255SOL    HW2 5018   0.389   3.954   2.221 -2.0385  0.6586 -0.1552
 1255SOL    HW3 5019   0.445   4.000   2.088 -0.2946 -1.1925 -0.0837
 1255SOL    MW4 5020   0.436   4.011   2.174 -0.2582 -0.7509 -0.1350
 1256SOL     OW 5021   0.444   4.299   2.230  0.4076 -0.3909 -0.0159
 1256SOL    HW2 5022   0.527   4.343   2.210  1.0092 -1.2928  0.4675
 1256SOL    HW3 5023   0.460   4.208   2.208 -0.1216 -0.7551  1.0929
 1256SOL    MW4 5024   0.457   4.293   2.224  0.4171 -0.5579  0.1942
 1257SOL     OW 5025   0.692   4.397   2.142 -0.1650 -0.4562  0.1710
 1257SOL    HW2 5026   0.693   4.491   2.158  1.6117 -0.4771  0.2335
 1257SOL    HW3 5027   0.675   4.389   2.048  2.5290  0.0203 -0.3839
 1257SOL    MW4 5028   0.690   4.408   2.131  0.4249 -0.3961  0.1061
 1258SOL     OW 5029   1.155   0.015   2.224 -0.0400 -0.1136 -0.4005
 1258SOL    HW2 5030   1.146  -0.009   2.317  1.0223  2.7430  0.4881
 1258SOL    HW3 5031   1.072   0.058   2.203 -0.5807 -1.4145 -1.0374
 1258SOL    MW4 5032   1.143   0.017   2.234  0.0288  0.0916 -0.3673
 1259SOL     OW 5033   0.922   0.143   2.162 -0.1913  0.1588  0.8170
 1259SOL    HW2 5034   0.948   0.231   2.188  0.4650 -0.2289  1.5079
 1259SOL    HW3 5035   0.896   0.151   2.071  1.3233  0.7839  0.4154
 1259SOL    MW4 5036   0.922   0.156   2.153  0.0951  0.1901  0.8552
 1260SOL     OW 5037   0.957   0.390   2.304  0.4940  0.1999 -0.0720
 1260SOL    HW2 5038   1.031   0.419   2.250  1.2465  0.5038  1.1130
 1260SOL    HW3 5039   0.879   0.422   2.257  1.0522 -0.9511 -1.8224
 1260SOL    MW4 5040   0.956   0.398   2.290  0.6669  0.0882 -0.1466
 1261SOL     OW 5041   1.164   0.479   2.129  0.4362  0.6272 -0.1243
 1261SOL    HW2 5042   1.247   0.440   2.157  1.0082  2.2816  0.5094
 1261SOL    HW3 5043   1.158   0.457   2.036 -0.0421 -2.3384  0.5336
 1261SOL    MW4 5044   1.174   0.471   2.120  0.4486  0.4542  0.0461
 1262SOL     OW 5045   1.123   0.780   2.201 -0.0509  0.1808 -0.2430
 1262SOL    HW2 5046   1.059   0.830   2.150 -0.4787 -0.0855  0.0275
 1262SOL    HW3 5047   1.134   0.699   2.152  0.9321  0.6933 -0.8846
 1262SOL    MW4 5048   1.116   0.776   2.188  0.0224  0.2133 -0.2920
 1263SOL     OW 5049   0.879   0.900   2.092 -0.1205 -0.3316  0.3073
 1263SOL    HW2 5050   0.888   0.986   2.133 -1.4974 -0.2513  0.4898
 1263SOL    HW3 5051   0.839   0.845   2.160 -0.4184 -0.7717 -0.2140
 1263SOL    MW4 5052   0.875   0.904   2.106 -0.3415 -0.3791  0.2626
 1264SOL     OW 5053   0.903   1.160   2.219  0.4463  0.1813  0.0228
 1264SOL    HW2 5054   0.826   1.203   2.183 -0.3605 -0.4374  0.9752
 1264SOL    HW3 5055   0.976   1.218   2.198 -0.4061  1.1941 -0.1394
 1264SOL    MW4 5056   0.903   1.173   2.212  0.2274  0.2333  0.1270
 1265SOL     OW 5057   1.135   1.540   2.280 -0.1264  0.0520  0.4488
 1265SOL    HW2 5058   1.144   1.470   2.215 -0.2767  1.2335 -0.8948
 1265SOL    HW3 5059   1.049   1.579   2.260  0.2353  1.0118  0.7602
 1265SOL    MW4 5060   1.125   1.536   2.269 -0.0985  0.3345  0.3126
 1266SOL     OW 5061   0.903   1.661   2.170  0.1758  0.3809 -0.3040
 1266SOL    HW2 5062   0.890   1.746   2.210 -1.0707  0.1934 -0.3067
 1266SOL    HW3 5063   0.898   1.678   2.076  0.5381  0.3972 -0.3226
 1266SOL    MW4 5064   0.901   1.674   2.163  0.0592  0.3583 -0.3068
 1267SOL     OW 5065   0.684   1.542   2.268  0.5916  0.4034  0.1747
 1267SOL    HW2 5066   0.696   1.535   2.363  0.6575  0.7143  0.1903
 1267SOL    HW3 5067   0.766   1.580   2.237  0.8351 -0.3245 -0.0891
 1267SOL    MW4 5068   0.697   1.546   2.277  0.6324  0.3484  0.1420
 1268SOL     OW 5069   0.822   1.912   2.303 -0.1789 -0.0359  0.1249
 1268SOL    HW2 5070   0.856   1.916   2.392  1.4007 -0.1120 -0.4687
 1268SOL    HW3 5071   0.860   1.987   2.259 -0.4319 -0.3676 -0.6759
 1268SOL    MW4 5072   0.831   1.922   2.309 -0.0039 -0.0897 -0.0591
 1269SOL     OW 5073   1.035   2.058   2.166 -0.6023 -0.0894 -0.4780
 1269SOL    HW2 5074   1.105   2.007   2.207 -0.5775 -0.2459 -0.7103
 1269SOL    HW3 5075   1.041   2.036   2.073 -1.0233 -0.1766 -0.4843
 1269SOL    MW4 5076   1.045   2.049   2.159 -0.6546 -0.1215 -0.5095
 1270SOL     OW 5077   1.099   2.345   2.241  0.1990 -0.1085  0.4814
 1270SOL    HW2 5078   1.187   2.372   2.217 -0.6516  1.0110 -1.4976
 1270SOL    HW3 5079   1.090   2.257   2.205  0.5898 -0.3340  0.9286
 1270SOL    MW4 5080   1.109   2.337   2.233  0.1384  0.0095  0.2793
 1271SOL     OW 5081   0.884   2.517   2.162  0.5096  0.1672 -0.3965
 1271SOL    HW2 5082   0.966   2.500   2.208 -0.0174 -0.3364  0.3723
 1271SOL    HW3 5083   0.905   2.504   2.069  1.0271 -1.0433 -0.1148
 1271SOL    MW4 5084   0.897   2.513   2.156  0.5084 -0.0590 -0.2579
 1272SOL     OW 5085   0.900   2.783   2.241  0.1739  0.1059  0.2661
 1272SOL    HW2 5086   0.912   2.775   2.336 -0.4796  0.8854  0.4108
 1272SOL    HW3 5087   0.877   2.694   2.213 -0.5754  0.0686  0.9723
 1272SOL    MW4 5088   0.899   2.770   2.250 -0.0112  0.2039  0.3784
 1273SOL     OW 5089   1.149   2.875   2.111 -0.2960 -0.2451  0.3358
 1273SOL    HW2 5090   1.220   2.827   2.153 -0.3196  0.0745  0.7432
 1273SOL    HW3 5091   1.069   2.833   2.144 -0.2882 -0.9629 -0.5508
 1273SOL    MW4 5092   1.148   2.863   2.121 -0.2981 -0.2976  0.2726
 1274SOL     OW 5093   1.129   3.121   2.229 -0.2936 -0.0601 -0.4409
 1274SOL    HW2 5094   1.038   3.146   2.209  0.2681  1.1524 -1.5018
 1274SOL    HW3 5095   1.148   3.049   2.169 -0.3902 -0.0172 -0.5231
 1274SOL    MW4 5096   1.119   3.115   2.219 -0.2322  0.1055 -0.5917
 1275SOL     OW 5097   0.868   3.216   2.130 -0.1491  0.5434  0.0668
 1275SOL    HW2 5098   0.866   3.302   2.173  0.2592  0.4884  0.1954
 1275SOL    HW3 5099   0.787   3.173   2.158 -0.5629  1.0488 -0.3305
 1275SOL    MW4 5100   0.857   3.222   2.139 -0.1498  0.6029  0.0314
 1276SOL     OW 5101   0.879   3.473   2.254  0.4743 -0.5206 -0.1826
 1276SOL    HW2 5102   0.895   3.476   2.349  3.5181 -0.2564 -0.6600
 1276SOL    HW3 5103   0.810   3.539   2.240  1.8019  1.3017  1.5368
 1276SOL    MW4 5104   0.872   3.482   2.265  1.0511 -0.2453 -0.0187
 1277SOL     OW 5105   1.080   3.592   2.122  0.0439  0.5292 -0.1367
 1277SOL    HW2 5106   1.161   3.561   2.163  0.1152  0.1115 -0.5971
 1277SOL    HW3 5107   1.011   3.539   2.162  0.0910  0.2701 -0.3993
 1277SOL    MW4 5108   1.082   3.581   2.133  0.0596  0.4399 -0.2321
 1278SOL     OW 5109   1.104   3.861   2.230  0.1260 -0.3052  0.0374
 1278SOL    HW2 5110   1.180   3.902   2.188  2.4211 -1.1348  3.1759
 1278SOL    HW3 5111   1.099   3.774   2.190  1.5226 -0.6459  0.5805
 1278SOL    MW4 5112   1.114   3.855   2.219  0.6130 -0.4596  0.5231
 1279SOL     OW 5113   0.896   4.021   2.141 -0.2571 -0.3096 -0.1563
 1279SOL    HW2 5114   0.967   3.966   2.174 -1.0952 -0.7642  0.9448
 1279SOL    HW3 5115   0.819   3.990   2.188 -1.0267  0.7554 -0.7016
 1279SOL    MW4 5116   0.895   4.010   2.152 -0.4692 -0.2290 -0.0830
 1280SOL     OW 5117   0.894   4.278   2.266  0.1428 -0.3134  0.3728
 1280SOL    HW2 5118   0.893   4.195   2.219  0.8326  0.3758 -0.8725
 1280SOL    HW3 5119   0.818   4.326   2.232  1.4246  0.7375 -1.0747
 1280SOL    MW4 5120   0.884   4.274   2.256  0.4029 -0.0838  0.0175
 1281SOL     OW 5121   1.131   4.404   2.149  0.1808 -0.0650 -0.0322
 1281SOL    HW2 5122   1.060   4.359   2.196  0.6496 -0.3758  0.3878
 1281SOL    HW3 5123   1.121   4.496   2.172  0.8103 -0.3022  1.2147
 1281SOL    MW4 5124   1.121   4.410   2.158  0.3257 -0.1373  0.1877
 1282SOL     OW 5125   1.617   4.642   2.258 -0.1860  0.5530  0.3571
 1282SOL    HW2 5126   1.685   4.681   2.202 -1.5525  1.8758 -0.4196
 1282SOL    HW3 5127   1.535   4.671   2.219 -1.1906 -0.2658  1.8336
 1282SOL    MW4 5128   1.615   4.651   2.245 -0.4988  0.6195  0.4494
 1283SOL     OW 5129   1.407   0.109   2.122  0.1939 -0.4174  0.2328
 1283SOL    HW2 5130   1.423   0.198   2.153 -0.2889  0.1192 -1.0314
 1283SOL    HW3 5131   1.319   0.088   2.152  0.6694 -0.8374  1.3593
 1283SOL    MW4 5132   1.398   0.118   2.130  0.1929 -0.4020  0.2147
 1284SOL     OW 5133   1.402   0.356   2.223  0.3732 -0.0468  0.4413
 1284SOL    HW2 5134   1.389   0.355   2.318 -0.5092  0.3313  0.3391
 1284SOL    HW3 5135   1.483   0.406   2.210 -0.5023  1.5613  0.9133
 1284SOL    MW4 5136   1.411   0.363   2.234  0.1413  0.2153  0.4901
 1285SOL     OW 5137   1.630   0.464   2.151 -0.0233 -0.5576  0.3431
 1285SOL    HW2 5138   1.708   0.410   2.164  1.5925  1.3713 -0.9390
 1285SOL    HW3 5139   1.617   0.464   2.056 -1.0520 -0.1242  0.4771
 1285SOL    MW4 5140   1.639   0.457   2.140  0.0542 -0.2459  0.1916
 1286SOL     OW 5141   1.596   0.721   2.228 -0.1167  0.1292 -0.3675
 1286SOL    HW2 5142   1.667   0.778   2.199 -0.8212  0.7029 -0.9776
 1286SOL    HW3 5143   1.621   0.634   2.194  0.6307  0.1874  0.0134
 1286SOL    MW4 5144   1.609   0.717   2.219 -0.1110  0.2126 -0.3978
 1287SOL     OW 5145   1.373   0.882   2.197  0.0880 -0.2238 -0.3865
 1287SOL    HW2 5146   1.435   0.810   2.207 -0.4438 -0.4249  1.5593
 1287SOL    HW3 5147   1.287   0.840   2.203 -0.2366  0.3723 -0.8135
 1287SOL    MW4 5148   1.370   0.867   2.199 -0.0250 -0.1717 -0.1861
 1288SOL     OW 5149   1.364   1.160   2.265  0.1321 -0.4997 -0.1555
 1288SOL    HW2 5150   1.363   1.156   2.360 -1.1576 -0.7754 -0.1794
 1288SOL    HW3 5151   1.386   1.071   2.237 -0.6871 -0.7108 -0.1361
 1288SOL    MW4 5152   1.367   1.148   2.274 -0.1461 -0.5639 -0.1561
 1289SOL     OW 5153   1.572   1.289   2.170  0.2424 -0.5611 -0.5128
 1289SOL    HW2 5154   1.493   1.244   2.198  0.8208 -1.5086 -0.3657
 1289SOL    HW3 5155   1.578   1.271   2.076 -0.8530  1.3011 -0.9661
 1289SOL    MW4 5156   1.563   1.281   2.161  0.1742 -0.4404 -0.5532
 1290SOL     OW 5157   1.604   1.533   2.307  0.6636  0.0797  0.1775
 1290SOL    HW2 5158   1.659   1.593   2.258  1.4667 -0.2656  0.6581
 1290SOL    HW3 5159   1.599   1.455   2.252 -0.6759  0.6963 -0.6173
 1290SOL    MW4 5160   1.610   1.531   2.294  0.5928  0.1155  0.1360
 1291SOL     OW 5161   1.375   1.658   2.207 -0.2745 -0.5851  0.7096
 1291SOL    HW2 5162   1.457   1.618   2.238 -0.3003 -0.4868  0.9055
 1291SOL    HW3 5163   1.307   1.609   2.254 -0.2865  0.0346  1.3437
 1291SOL    MW4 5164   1.377   1.646   2.218 -0.2795 -0.4904  0.8191
 1292SOL     OW 5165   1.278   1.919   2.228 -0.2831  0.0523  0.6081
 1292SOL    HW2 5166   1.331   1.970   2.166 -1.5441 -0.2228 -0.7342
 1292SOL    HW3 5167   1.314   1.831   2.224 -1.2413 -0.2963 -0.8212
 1292SOL    MW4 5168   1.290   1.914   2.219 -0.5759 -0.0300  0.2425
 1293SOL     OW 5169   1.518   2.039   2.130  0.2096 -0.0095 -0.3946
 1293SOL    HW2 5170   1.590   1.986   2.164  0.6327  0.9928  0.2927
 1293SOL    HW3 5171   1.520   2.025   2.036 -0.5845 -2.3380 -0.0859
 1293SOL    MW4 5172   1.528   2.030   2.122  0.1607 -0.1845 -0.2632
 1294SOL     OW 5173   1.553   2.298   2.230  0.1471  0.2158 -0.5993
 1294SOL    HW2 5174   1.575   2.299   2.323  2.2645 -0.3111 -1.0696
 1294SOL    HW3 5175   1.558   2.205   2.206 -0.7812  0.3075 -1.1589
 1294SOL    MW4 5176   1.557   2.286   2.239  0.3040  0.1584 -0.7351
 1295SOL     OW 5177   1.334   2.429   2.151  0.0385  0.1103 -0.0079
 1295SOL    HW2 5178   1.403   2.367   2.177  0.1513  0.1949 -0.1090
 1295SOL    HW3 5179   1.333   2.425   2.056 -1.7972 -1.7629  0.0465
 1295SOL    MW4 5180   1.343   2.420   2.142 -0.1888 -0.1257 -0.0140
 1296SOL     OW 5181   1.365   2.714   2.215 -0.0567 -0.2078 -0.5044
 1296SOL    HW2 5182   1.454   2.747   2.197  0.1888 -0.8344 -0.4239
 1296SOL    HW3 5183   1.368   2.621   2.192 -1.1621  0.1307 -2.1739
 1296SOL    MW4 5184   1.377   2.706   2.209 -0.1702 -0.2458 -0.7141
 1297SOL     OW 5185   1.580   2.840   2.104 -0.5763  0.7787  0.2155
 1297SOL    HW2 5186   1.549   2.927   2.130 -0.2515  1.5499 -1.8545
 1297SOL    HW3 5187   1.554   2.832   2.012 -1.5601 -1.7752  0.6568
 1297SOL    MW4 5188   1.572   2.850   2.095 -0.6632  0.5435  0.0006
 1298SOL     OW 5189   1.563   3.103   2.229  0.4008 -0.1034  0.1311
 1298SOL    HW2 5190   1.556   3.104   2.324 -1.0443 -0.5995  0.0479
 1298SOL    HW3 5191   1.489   3.155   2.199  0.1544 -0.9283 -0.7420
 1298SOL    MW4 5192   1.552   3.110   2.238  0.1776 -0.2777  0.0049
 1299SOL     OW 5193   1.340   3.243   2.149  0.5679  0.0688 -0.0291
 1299SOL    HW2 5194   1.267   3.189   2.178  1.0134 -0.2834  0.4504
 1299SOL    HW3 5195   1.329   3.251   2.055  0.5580 -0.9504 -0.1188
 1299SOL    MW4 5196   1.329   3.237   2.141  0.6254 -0.1122  0.0223
 1300SOL     OW 5197   1.307   3.501   2.245  0.0736 -0.2932  0.6878
 1300SOL    HW2 5198   1.320   3.485   2.339 -0.2216 -0.7540  0.6531
 1300SOL    HW3 5199   1.327   3.417   2.204 -0.9494 -0.4237  0.4468
 1300SOL    MW4 5200   1.311   3.488   2.252 -0.1003 -0.3712  0.6514
 1301SOL     OW 5201   1.536   3.624   2.164  0.0023 -0.4840 -0.5697
 1301SOL    HW2 5202   1.540   3.718   2.180  0.6211 -0.3443 -1.5056
 1301SOL    HW3 5203   1.449   3.598   2.196 -0.6260  0.6087 -1.3286
 1301SOL    MW4 5204   1.525   3.633   2.170  0.0010 -0.3214 -0.7933
 1302SOL     OW 5205   1.548   3.886   2.221  0.1359  0.0721  0.2804
 1302SOL    HW2 5206   1.550   3.900   2.315 -1.1546 -1.6137  0.5638
 1302SOL    HW3 5207   1.638   3.905   2.193  0.5929  0.3417  1.8657
 1302SOL    MW4 5208   1.560   3.890   2.230  0.0259 -0.1147  0.5269
 1303SOL     OW 5209   1.325   4.015   2.143  0.0948 -0.6130 -0.0976
 1303SOL    HW2 5210   1.405   3.963   2.154  0.5007  0.1823  0.6892
 1303SOL    HW3 5211   1.316   4.024   2.048  2.3198  1.4315 -0.1446
 1303SOL    MW4 5212   1.334   4.009   2.132  0.4420 -0.2383  0.0000
 1304SOL     OW 5213   1.360   4.283   2.242 -0.0755 -0.2605  0.7590
 1304SOL    HW2 5214   1.345   4.192   2.217  0.2009 -0.3331  0.8526
 1304SOL    HW3 5215   1.291   4.332   2.198  0.8372 -0.2971 -0.7454
 1304SOL    MW4 5216   1.349   4.277   2.233  0.0814 -0.2749  0.5729
 1305SOL     OW 5217   1.601   4.394   2.160  0.3960  0.1358 -0.0773
 1305SOL    HW2 5218   1.517   4.355   2.184 -0.4673  1.5910 -0.6659
 1305SOL    HW3 5219   1.598   4.483   2.195  1.4382  0.4103 -0.6503
 1305SOL    MW4 5220   1.590   4.401   2.168  0.4196  0.3640 -0.2306
 1306SOL     OW 5221   2.022   4.588   2.258  0.3345  0.1560 -0.2134
 1306SOL    HW2 5222   2.100   4.634   2.228 -0.5244  1.3524 -0.6819
 1306SOL    HW3 5223   2.031   4.499   2.223  1.7325  0.1402  0.1898
 1306SOL    MW4 5224   2.034   4.582   2.249  0.4056  0.3118 -0.2220
 1307SOL     OW 5225   1.832   0.048   2.116  0.4741 -0.2657  0.1645
 1307SOL    HW2 5226   1.844   0.135   2.156 -2.1130 -0.2500  0.9936
 1307SOL    HW3 5227   1.896  -0.007   2.161  0.8445  0.8004  0.9878
 1307SOL    MW4 5228   1.842   0.052   2.127  0.1817 -0.1230  0.3825
 1308SOL     OW 5229   1.841   0.299   2.238  0.0609 -0.0034  0.0463
 1308SOL    HW2 5230   1.839   0.320   2.331  0.7936  0.8008 -0.1206
 1308SOL    HW3 5231   1.915   0.348   2.203 -0.5369  0.1245 -1.0712
 1308SOL    MW4 5232   1.851   0.308   2.246  0.0787  0.1196 -0.1232
 1309SOL     OW 5233   2.040   0.449   2.119 -0.0818  0.0074  0.4112
 1309SOL    HW2 5234   2.037   0.541   2.143  1.6418  0.3330 -0.5959
 1309SOL    HW3 5235   2.051   0.449   2.024  2.1760 -1.1960  0.6361
 1309SOL    MW4 5236   2.041   0.461   2.110  0.4435 -0.1084  0.3080
 1310SOL     OW 5237   2.047   0.711   2.238 -0.0276 -0.5419 -0.6420
 1310SOL    HW2 5238   2.120   0.740   2.184  0.8537 -0.7111  0.4522
 1310SOL    HW3 5239   1.978   0.776   2.221  0.4044 -0.3144 -1.5842
 1310SOL    MW4 5240   2.047   0.724   2.229  0.1457 -0.5342 -0.6220
 1311SOL     OW 5241   1.837   0.868   2.158  0.3788  0.0693 -0.3214
 1311SOL    HW2 5242   1.824   0.956   2.195  0.6448 -0.1975  0.4028
 1311SOL    HW3 5243   1.844   0.883   2.064  1.8559  0.9996 -0.0848
 1311SOL    MW4 5244   1.836   0.882   2.151  0.6088  0.1569 -0.1946
 1312SOL     OW 5245   1.774   1.131   2.280 -0.1059  0.1384 -0.1171
 1312SOL    HW2 5246   1.859   1.163   2.251  0.3321  0.1683  1.2006
 1312SOL    HW3 5247   1.711   1.187   2.235  0.5746  0.4372 -0.7022
 1312SOL    MW4 5248   1.777   1.143   2.270  0.0416  0.1818 -0.0205
 1313SOL     OW 5249   1.996   1.246   2.153 -0.2922  0.0212 -0.0352
 1313SOL    HW2 5250   1.979   1.340   2.158  1.1823  0.2281  1.1293
 1313SOL    HW3 5251   2.020   1.231   2.062 -0.6229  0.7535 -0.2479
 1313SOL    MW4 5252   1.997   1.256   2.142 -0.1413  0.1451  0.0904
 1314SOL     OW 5253   1.954   1.512   2.215  0.5207  0.4249 -0.2857
 1314SOL    HW2 5254   1.957   1.526   2.310  0.4411 -1.4825  0.0143
 1314SOL    HW3 5255   1.886   1.571   2.184 -0.7406 -0.2670  1.1100
 1314SOL    MW4 5256   1.946   1.521   2.224  0.3438  0.0820 -0.0620
 1315SOL     OW 5257   1.771   1.701   2.169  0.4636 -0.3608 -0.0077
 1315SOL    HW2 5258   1.777   1.790   2.205  1.3114 -0.9838  1.4367
 1315SOL    HW3 5259   1.773   1.714   2.074 -2.1316  1.3361  0.1195
 1315SOL    MW4 5260   1.772   1.714   2.161  0.2330 -0.2191  0.1996
 1316SOL     OW 5261   1.726   1.945   2.277  0.4327 -0.3572  0.2740
 1316SOL    HW2 5262   1.744   1.919   2.367  0.8616  0.4000  0.4109
 1316SOL    HW3 5263   1.806   1.989   2.248 -0.4058  1.1559  0.1843
 1316SOL    MW4 5264   1.739   1.947   2.285  0.3787 -0.0577  0.2802
 1317SOL     OW 5265   1.967   2.071   2.172 -0.1482  0.0382 -0.4109
 1317SOL    HW2 5266   2.048   2.025   2.194 -1.3529 -1.6356  0.6686
 1317SOL    HW3 5267   1.961   2.066   2.077  1.1580  0.4375 -0.5153
 1317SOL    MW4 5268   1.977   2.064   2.163 -0.1348 -0.1300 -0.2823
 1318SOL     OW 5269   1.960   2.326   2.290  0.1376  0.2025  0.3710
 1318SOL    HW2 5270   2.022   2.382   2.245 -0.5912  0.4310 -0.3581
 1318SOL    HW3 5271   1.962   2.243   2.242 -1.1574  0.6773 -0.5442
 1318SOL    MW4 5272   1.968   2.322   2.278 -0.1294  0.2953  0.1541
 1319SOL     OW 5273   1.772   2.431   2.113 -0.5057 -0.3533  0.2604
 1319SOL    HW2 5274   1.840   2.395   2.170  0.6574 -0.7643 -1.3666
 1319SOL    HW3 5275   1.691   2.392   2.145  0.1210 -0.5502  1.6537
 1319SOL    MW4 5276   1.770   2.421   2.125 -0.2696 -0.4335  0.2296
 1320SOL     OW 5277   1.787   2.695   2.215 -0.4013  0.0916  0.4312
 1320SOL    HW2 5278   1.777   2.608   2.177 -1.8775 -0.4852  2.0672
 1320SOL    HW3 5279   1.717   2.747   2.177  0.5571  0.6241 -0.6423
 1320SOL    MW4 5280   1.777   2.690   2.205 -0.4696  0.0858  0.5054
 1321SOL     OW 5281   1.991   2.830   2.113 -0.2502  0.0794  0.0100
 1321SOL    HW2 5282   2.067   2.786   2.150 -0.1696 -0.6976 -1.0455
 1321SOL    HW3 5283   1.916   2.784   2.151 -0.1663 -0.9623 -1.0515
 1321SOL    MW4 5284   1.991   2.818   2.123 -0.2285 -0.1606 -0.2693
 1322SOL     OW 5285   2.024   3.093   2.201  0.5216  0.3238  0.3866
 1322SOL    HW2 5286   2.111   3.121   2.174  0.3428  0.3737 -0.1450
 1322SOL    HW3 5287   2.013   3.007   2.161  0.3403  0.3024  0.4817
 1322SOL    MW4 5288   2.034   3.085   2.193  0.4741  0.3276  0.3290
 1323SOL     OW 5289   1.789   3.211   2.096  0.2805  0.3430 -0.2782
 1323SOL    HW2 5290   1.867   3.172   2.135  0.5477 -0.2440 -1.3581
 1323SOL    HW3 5291   1.715   3.169   2.142  0.5882 -0.1213 -0.2018
 1323SOL    MW4 5292   1.789   3.200   2.107  0.3564  0.2043 -0.4106
 1324SOL     OW 5293   1.742   3.461   2.257 -0.3928 -0.2322 -0.3697
 1324SOL    HW2 5294   1.733   3.376   2.214 -0.1317  0.2083 -1.3035
 1324SOL    HW3 5295   1.660   3.507   2.236  1.0991  1.2762 -3.3136
 1324SOL    MW4 5296   1.730   3.456   2.248 -0.1615  0.0249 -0.8813
 1325SOL     OW 5297   2.195   3.462   2.228  0.0904  0.3752 -0.3623
 1325SOL    HW2 5298   2.209   3.467   2.322  0.0223  0.2367 -0.3447
 1325SOL    HW3 5299   2.110   3.504   2.213  0.3274  0.8294 -0.4176
 1325SOL    MW4 5300   2.186   3.468   2.238  0.1127  0.4169 -0.3673
 1326SOL     OW 5301   2.026   3.883   2.237 -0.3436 -0.5720 -0.6778
 1326SOL    HW2 5302   2.041   3.891   2.332  0.3062  0.0093 -0.8250
 1326SOL    HW3 5303   2.012   3.790   2.223 -0.3137 -0.6821 -0.0273
 1326SOL    MW4 5304   2.026   3.872   2.248 -0.2539 -0.5098 -0.6114
 1327SOL     OW 5305   1.793   4.004   2.130  0.3725  0.0057 -0.0859
 1327SOL    HW2 5306   1.871   3.977   2.179 -0.0827 -0.0914  0.5845
 1327SOL    HW3 5307   1.820   3.998   2.039  0.9582 -0.6188  0.1205
 1327SOL    MW4 5308   1.807   4.000   2.125  0.3897 -0.0895  0.0298
 1328SOL     OW 5309   1.821   4.249   2.232 -0.4934 -0.3632  0.3285
 1328SOL    HW2 5310   1.799   4.165   2.194  0.2016 -0.4903  0.2040
 1328SOL    HW3 5311   1.746   4.305   2.213 -1.1516 -1.0762  0.8024
 1328SOL    MW4 5312   1.808   4.245   2.225 -0.4886 -0.4740  0.3746
 1329SOL     OW 5313   2.037   4.356   2.114 -0.0226  0.2674  0.1768
 1329SOL    HW2 5314   1.958   4.306   2.135 -0.3368  1.3194  1.5278
 1329SOL    HW3 5315   2.028   4.376   2.021 -1.7754  1.1093  0.5027
 1329SOL    MW4 5316   2.026   4.352   2.105 -0.2953  0.5173  0.3980
 1330SOL     OW 5317   2.485   4.651   2.218  0.5570  0.1243 -0.2164
 1330SOL    HW2 5318   2.567   4.692   2.189  1.1056 -0.0912  0.9808
 1330SOL    HW3 5319   2.484   4.566   2.173  0.9104  0.2012 -0.3694
 1330SOL    MW4 5320   2.496   4.645   2.208  0.6760  0.1060 -0.0786
 1331SOL     OW 5321   2.229   0.056   2.159 -0.7682  0.0016 -0.3520
 1331SOL    HW2 5322   2.227   0.151   2.172 -1.9628  0.1400 -1.4488
 1331SOL    HW3 5323   2.316   0.030   2.188 -0.3719  1.4541 -0.1883
 1331SOL    MW4 5324   2.240   0.066   2.164 -0.8735  0.2115 -0.4751
 1332SOL     OW 5325   2.292   0.341   2.192 -0.5199  0.3169  0.1004
 1332SOL    HW2 5326   2.356   0.410   2.174 -1.1477  0.8185 -0.2382
 1332SOL    HW3 5327   2.210   0.375   2.157 -1.0152 -0.2415  0.7119
 1332SOL    MW4 5328   2.290   0.355   2.185 -0.6681  0.3094  0.1364
 1333SOL     OW 5329   2.502   0.549   2.120 -0.8521 -0.0087 -0.6642
 1333SOL    HW2 5330   2.574   0.495   2.152 -0.5646  1.2970  0.9992
 1333SOL    HW3 5331   2.496   0.529   2.027  2.6357  0.9176 -1.1532
 1333SOL    MW4 5332   2.511   0.540   2.112 -0.3540  0.2858 -0.5092
 1334SOL     OW 5333   2.504   0.784   2.265  0.4880  0.4177 -0.3177
 1334SOL    HW2 5334   2.575   0.838   2.230  0.1910 -0.4959 -2.4182
 1334SOL    HW3 5335   2.514   0.700   2.221  0.6609 -1.1230  2.5576
 1334SOL    MW4 5336   2.514   0.780   2.254  0.4716  0.0939 -0.2155
 1335SOL     OW 5337   2.276   0.849   2.109 -0.2450  0.5403  0.0568
 1335SOL    HW2 5338   2.257   0.943   2.116 -0.0740  0.6306 -0.6235
 1335SOL    HW3 5339   2.335   0.831   2.182 -2.4802  0.3782  1.8807
 1335SOL    MW4 5340   2.281   0.859   2.119 -0.5174  0.5308  0.2077
 1336SOL     OW 5341   2.244   1.117   2.208  0.3039  0.2204  0.2534
 1336SOL    HW2 5342   2.315   1.176   2.184 -0.5196  0.8979 -0.5644
 1336SOL    HW3 5343   2.164   1.168   2.193 -0.3845 -0.7797  0.4529
 1336SOL    MW4 5344   2.243   1.132   2.203  0.1044  0.1778  0.1718
 1337SOL     OW 5345   2.451   1.283   2.146  0.0921  0.0578 -0.6668
 1337SOL    HW2 5346   2.515   1.226   2.188  1.0287 -0.3711 -2.6258
 1337SOL    HW3 5347   2.444   1.358   2.205  1.3871 -0.5140  0.2436
 1337SOL    MW4 5348   2.459   1.286   2.160  0.3865 -0.0742 -0.8051
 1338SOL     OW 5349   2.467   1.526   2.291 -0.3435  0.6823 -0.2015
 1338SOL    HW2 5350   2.483   1.533   2.385  0.0748  1.2748 -0.3103
 1338SOL    HW3 5351   2.544   1.566   2.250  0.7131 -1.9004 -0.8576
 1338SOL    MW4 5352   2.480   1.532   2.298 -0.1489  0.4197 -0.3024
 1339SOL     OW 5353   2.249   1.646   2.142 -0.2433  0.0617 -0.1041
 1339SOL    HW2 5354   2.314   1.621   2.208  0.1672  0.8107 -0.2105
 1339SOL    HW3 5355   2.172   1.594   2.163  0.3410 -0.7303  0.1191
 1339SOL    MW4 5356   2.247   1.636   2.153 -0.1120  0.0560 -0.0887
 1340SOL     OW 5357   2.194   1.917   2.242  0.4336  0.1639  0.1526
 1340SOL    HW2 5358   2.281   1.956   2.238  0.2815  0.5528  0.5266
 1340SOL    HW3 5359   2.202   1.835   2.194  0.3120  1.4740 -2.1732
 1340SOL    MW4 5360   2.207   1.911   2.235  0.3975  0.3881 -0.1050
 1341SOL     OW 5361   2.419   2.069   2.191  0.2949 -0.2219  0.0370
 1341SOL    HW2 5362   2.504   2.044   2.225  1.6187  3.0859 -0.5877
 1341SOL    HW3 5363   2.426   2.056   2.096 -0.3315 -1.0723  0.1005
 1341SOL    MW4 5364   2.431   2.064   2.183  0.3869  0.1023 -0.0371
 1342SOL     OW 5365   2.419   2.342   2.256  0.4566  0.6417 -0.1221
 1342SOL    HW2 5366   2.505   2.375   2.232  1.0202  0.7391  1.9745
 1342SOL    HW3 5367   2.422   2.248   2.236  1.1203  0.6073  0.1440
 1342SOL    MW4 5368   2.431   2.334   2.250  0.6185  0.6500  0.1896
 1343SOL     OW 5369   2.158   2.452   2.166 -0.5030  0.2932  0.4440
 1343SOL    HW2 5370   2.167   2.548   2.166  0.1748  0.2388  1.6804
 1343SOL    HW3 5371   2.238   2.421   2.208 -1.4439 -0.7538  1.4654
 1343SOL    MW4 5372   2.170   2.461   2.171 -0.5377  0.1479  0.7419
 1344SOL     OW 5373   2.234   2.724   2.180 -0.0256  0.2047  0.2104
 1344SOL    HW2 5374   2.246   2.729   2.275  0.9718 -2.4953  0.2661
 1344SOL    HW3 5375   2.313   2.763   2.144  0.6734 -0.8867  0.5259
 1344SOL    MW4 5376   2.246   2.730   2.188  0.1982 -0.2955  0.2594
 1345SOL     OW 5377   2.475   2.818   2.106 -0.0777  0.1955 -0.0500
 1345SOL    HW2 5378   2.552   2.771   2.139 -1.1594 -0.9476  0.8698
 1345SOL    HW3 5379   2.486   2.818   2.011 -0.4941 -2.6790 -0.1231
 1345SOL    MW4 5380   2.487   2.812   2.098 -0.2754 -0.3346  0.0617
 1346SOL     OW 5381   2.485   3.074   2.221  0.3059  0.0584  0.2699
 1346SOL    HW2 5382   2.563   3.116   2.186  0.9604 -0.0545  1.5673
 1346SOL    HW3 5383   2.483   2.988   2.180  0.5415  0.2727 -0.1955
 1346SOL    MW4 5384   2.495   3.068   2.211  0.4233  0.0717  0.3796
 1347SOL     OW 5385   2.255   3.211   2.111 -0.1608  0.1143  0.0491
 1347SOL    HW2 5386   2.248   3.297   2.154  0.7739 -0.0571  0.5476
 1347SOL    HW3 5387   2.334   3.172   2.148 -0.4382 -0.8589 -0.3758
 1347SOL    MW4 5388   2.265   3.217   2.122 -0.0741 -0.0367  0.0588
 1348SOL     OW 5389   2.245   3.480   2.483 -0.2066  0.3232 -0.0308
 1348SOL    HW2 5390   2.261   3.393   2.518 -0.3988  0.8563  1.3946
 1348SOL    HW3 5391   2.327   3.528   2.498 -0.2266  0.4996 -0.4749
 1348SOL    MW4 5392   2.258   3.475   2.489 -0.2346  0.4168  0.0987
 1349SOL     OW 5393   2.437   3.575   2.131  0.2570  0.1044  0.3229
 1349SOL    HW2 5394   2.442   3.670   2.142  0.1472  0.2042 -0.4269
 1349SOL    HW3 5395   2.349   3.552   2.162  0.5748  0.1314  1.2621
 1349SOL    MW4 5396   2.426   3.585   2.137  0.2845  0.1211  0.3479
 1350SOL     OW 5397   2.469   3.843   2.206 -0.0367 -0.3517 -0.3264
 1350SOL    HW2 5398   2.440   3.834   2.296  0.0982  0.9684 -0.1401
 1350SOL    HW3 5399   2.407   3.903   2.166  1.1531  0.7883 -0.5053
 1350SOL    MW4 5400   2.457   3.850   2.213  0.1381 -0.0271 -0.3255
 1351SOL     OW 5401   2.273   3.999   2.109 -0.2404  0.3500  0.1352
 1351SOL    HW2 5402   2.284   4.078   2.162 -0.6419  0.1917  0.4488
 1351SOL    HW3 5403   2.185   3.968   2.128 -0.5481  0.5258 -0.9401
 1351SOL    MW4 5404   2.263   4.005   2.118 -0.3340  0.3523  0.0347
 1352SOL     OW 5405   2.265   4.229   2.267  0.5487  0.3198  0.0088
 1352SOL    HW2 5406   2.241   4.250   2.357 -0.2380 -0.1110 -0.0924
 1352SOL    HW3 5407   2.196   4.269   2.213  0.0083 -0.9548 -0.2819
 1352SOL    MW4 5408   2.252   4.237   2.272  0.3736  0.0948 -0.0429
 1353SOL     OW 5409   2.472   4.377   2.143  0.2936  0.0460 -0.5031
 1353SOL    HW2 5410   2.558   4.353   2.178  0.0678  0.1527  0.1370
 1353SOL    HW3 5411   2.410   4.322   2.192  0.0656 -0.6836 -1.5973
 1353SOL    MW4 5412   2.475   4.367   2.154  0.2337 -0.0362 -0.5630
 1354SOL     OW 5413   2.893   4.640   2.283 -0.8452 -0.1366  0.5966
 1354SOL    HW2 5414   2.963   4.679   2.231 -0.1289 -0.8792  0.9991
 1354SOL    HW3 5415   2.888   4.549   2.253 -1.3054 -0.2193  0.9142
 1354SOL    MW4 5416   2.901   4.633   2.272 -0.8114 -0.2455  0.6916
 1355SOL     OW 5417   2.707   0.114   2.131  0.0273 -0.1991 -0.7505
 1355SOL    HW2 5418   2.689   0.199   2.171 -0.0303 -0.4192 -0.3132
 1355SOL    HW3 5419   2.754   0.064   2.198 -2.4763 -1.5450  0.0854
 1355SOL    MW4 5420   2.711   0.118   2.145 -0.3106 -0.4057 -0.5825
 1356SOL     OW 5421   2.684   0.378   2.257  0.3308 -0.1904 -0.3459
 1356SOL    HW2 5422   2.693   0.389   2.352 -0.7324 -1.6525 -0.0497
 1356SOL    HW3 5423   2.769   0.403   2.222  0.6374  0.6639  0.9718
 1356SOL    MW4 5424   2.696   0.383   2.265  0.2309 -0.2706 -0.1330
 1357SOL     OW 5425   2.915   0.467   2.146 -0.1344  0.3794  0.1984
 1357SOL    HW2 5426   2.916   0.559   2.173 -1.3124  0.9821 -1.7171
 1357SOL    HW3 5427   2.948   0.468   2.057 -2.0606 -0.7853 -0.5463
 1357SOL    MW4 5428   2.919   0.480   2.138 -0.5439  0.3052 -0.1526
 1358SOL     OW 5429   2.916   0.735   2.219 -0.1346  0.1275 -0.2881
 1358SOL    HW2 5430   2.910   0.733   2.315 -0.3205 -0.5922 -0.3144
 1358SOL    HW3 5431   2.856   0.805   2.193 -0.3686  0.0741  0.0976
 1358SOL    MW4 5432   2.908   0.744   2.229 -0.1900  0.0255 -0.2407
 1359SOL     OW 5433   2.712   0.925   2.129 -0.0966  0.3897 -0.1275
 1359SOL    HW2 5434   2.697   1.014   2.159  1.4689  0.2568  1.1303
 1359SOL    HW3 5435   2.707   0.930   2.034  1.7366  2.1698 -0.1599
 1359SOL    MW4 5436   2.710   0.937   2.121  0.3518  0.6070  0.0342
 1360SOL     OW 5437   2.674   1.153   2.262  0.3919 -0.1314 -0.2463
 1360SOL    HW2 5438   2.678   1.124   2.353 -1.7362  1.8229  0.5099
 1360SOL    HW3 5439   2.761   1.189   2.245 -0.0937  2.2003  1.9699
 1360SOL    MW4 5440   2.686   1.154   2.272  0.0471  0.4340  0.1459
 1361SOL     OW 5441   2.901   1.238   2.136  0.0639 -0.4727  0.4356
 1361SOL    HW2 5442   2.976   1.184   2.163 -0.1624 -1.3550 -0.6696
 1361SOL    HW3 5443   2.910   1.245   2.041  0.1549  1.5573  0.5745
 1361SOL    MW4 5444   2.912   1.232   2.127  0.0460 -0.3213  0.3081
 1362SOL     OW 5445   2.916   1.505   2.213  0.1460 -0.1304 -0.3880
 1362SOL    HW2 5446   2.919   1.504   2.309 -0.2295  0.7811 -0.3688
 1362SOL    HW3 5447   2.923   1.412   2.189  0.4555 -0.3505  0.5090
 1362SOL    MW4 5448   2.918   1.492   2.223  0.1373 -0.0392 -0.2671
 1363SOL     OW 5449   2.687   1.655   2.179 -0.0854  0.0480 -0.3421
 1363SOL    HW2 5450   2.767   1.603   2.185  0.7172  1.2569 -0.1884
 1363SOL    HW3 5451   2.683   1.682   2.088 -0.2457  0.0861 -0.3231
 1363SOL    MW4 5452   2.697   1.652   2.168 -0.0007  0.2125 -0.3193
 1364SOL     OW 5453   2.677   1.911   2.290 -0.2435  0.2683  0.1709
 1364SOL    HW2 5454   2.680   1.909   2.386  1.6101 -0.0739  0.1160
 1364SOL    HW3 5455   2.695   1.821   2.264  0.4449  0.6098 -0.5273
 1364SOL    MW4 5456   2.679   1.899   2.299  0.0919  0.2682  0.0715
 1365SOL     OW 5457   2.901   2.049   2.159  0.3792  0.6901 -0.0962
 1365SOL    HW2 5458   2.973   1.997   2.195 -0.1872  0.8166  1.2488
 1365SOL    HW3 5459   2.822   2.004   2.188 -0.0881  0.2415 -2.0311
 1365SOL    MW4 5460   2.900   2.036   2.168  0.2428  0.6476 -0.1740
 1366SOL     OW 5461   2.903   2.307   2.210 -0.1221 -0.3856 -0.3155
 1366SOL    HW2 5462   2.919   2.318   2.304 -2.0307  0.3298 -0.0509
 1366SOL    HW3 5463   2.905   2.213   2.195 -0.8961 -0.5602  0.6532
 1366SOL    MW4 5464   2.906   2.296   2.220 -0.4760 -0.3143 -0.1528
 1367SOL     OW 5465   2.676   2.442   2.117 -0.0829 -0.6345 -0.2782
 1367SOL    HW2 5466   2.758   2.401   2.144  1.1214  1.4604 -0.6897
 1367SOL    HW3 5467   2.691   2.470   2.027 -1.6917 -1.3327 -0.7879
 1367SOL    MW4 5468   2.689   2.440   2.109 -0.1363 -0.4502 -0.3998
 1368SOL     OW 5469   2.706   2.705   2.210  0.0214 -0.4519  0.0171
 1368SOL    HW2 5470   2.795   2.732   2.188  0.0196 -1.1765 -0.8812
 1368SOL    HW3 5471   2.698   2.616   2.175 -1.3802 -0.0235 -0.7989
 1368SOL    MW4 5472   2.717   2.697   2.203 -0.1638 -0.4909 -0.2091
 1369SOL     OW 5473   2.968   2.793   2.162  0.2845 -0.4287  0.2020
 1369SOL    HW2 5474   2.950   2.878   2.203  1.2483 -0.0930 -0.0562
 1369SOL    HW3 5475   2.968   2.812   2.068 -2.5234 -1.3059 -0.0251
 1369SOL    MW4 5476   2.966   2.807   2.155  0.0412 -0.5002  0.1380
 1370SOL     OW 5477   2.924   3.040   2.265 -0.0723 -0.1903  0.0692
 1370SOL    HW2 5478   2.999   3.098   2.253 -0.6717  0.0968 -2.7060
 1370SOL    HW3 5479   2.851   3.087   2.224 -1.3156 -1.3841  0.8614
 1370SOL    MW4 5480   2.924   3.054   2.258 -0.3154 -0.3099 -0.1925
 1371SOL     OW 5481   2.730   3.190   2.120  0.9668 -0.4896 -0.0095
 1371SOL    HW2 5482   2.708   3.277   2.153 -0.9653 -1.0721  0.3204
 1371SOL    HW3 5483   2.726   3.200   2.024  1.5033 -0.0284  0.0172
 1371SOL    MW4 5484   2.726   3.203   2.111  0.7826 -0.5056  0.0375
 1372SOL     OW 5485   2.651   3.449   2.232  0.1138 -0.4270 -0.1071
 1372SOL    HW2 5486   2.567   3.483   2.200 -0.1772  0.9667  2.0742
 1372SOL    HW3 5487   2.716   3.494   2.179 -0.3771  1.5625  0.9535
 1372SOL    MW4 5488   2.648   3.459   2.220  0.0106  0.0194  0.3207
 1373SOL     OW 5489   2.904   3.567   2.126  0.3382  0.3410 -0.2160
 1373SOL    HW2 5490   2.976   3.524   2.172  0.8868  1.4665  0.0065
 1373SOL    HW3 5491   2.910   3.659   2.153 -1.4211  0.3712  0.1112
 1373SOL    MW4 5492   2.914   3.574   2.136  0.1785  0.4935 -0.1434
 1374SOL     OW 5493   2.930   3.824   2.214 -0.1635  0.2476 -0.1102
 1374SOL    HW2 5494   2.946   3.843   2.306  0.4023  0.1893 -0.1952
 1374SOL    HW3 5495   2.857   3.881   2.190  0.0891  0.7121  0.2123
 1374SOL    MW4 5496   2.923   3.834   2.223 -0.0556  0.3012 -0.0789
 1375SOL     OW 5497   2.705   3.982   2.140 -0.1142 -0.5753 -0.1426
 1375SOL    HW2 5498   2.637   3.925   2.174 -1.2962  1.5467  1.1571
 1375SOL    HW3 5499   2.695   3.978   2.045 -2.3657  0.0522  0.0456
 1375SOL    MW4 5500   2.695   3.974   2.132 -0.5672 -0.2125  0.0537
 1376SOL     OW 5501   2.696   4.275   2.251  0.5973 -0.2628 -0.6817
 1376SOL    HW2 5502   2.699   4.266   2.347  0.3539  0.9663 -0.5413
 1376SOL    HW3 5503   2.682   4.186   2.219 -1.3600 -0.4413  0.5391
 1376SOL    MW4 5504   2.695   4.262   2.260  0.3070 -0.1242 -0.5021
 1377SOL     OW 5505   2.929   4.393   2.151  0.1089  0.0022 -0.0815
 1377SOL    HW2 5506   2.999   4.336   2.182 -1.2055 -2.5571 -1.6648
 1377SOL    HW3 5507   2.848   4.352   2.181 -0.9269  0.2636 -2.3618
 1377SOL    MW4 5508   2.928   4.380   2.159 -0.2012 -0.3010 -0.5913
 1378SOL     OW 5509   3.336   0.038   2.197 -0.2055  0.0344  0.2278
 1378SOL    HW2 5510   3.336   0.026   2.292 -1.2060  0.2143  0.2637
 1378SOL    HW3 5511   3.427   0.053   2.174  0.1554 -0.8040  1.0626
 1378SOL    MW4 5512   3.348   0.038   2.206 -0.2899 -0.0524  0.3427
 1379SOL     OW 5513   3.081   0.123   2.150 -0.1609 -0.0286 -0.1495
 1379SOL    HW2 5514   3.064   0.189   2.217 -0.3265  0.4948 -0.6964
 1379SOL    HW3 5515   3.168   0.089   2.170 -0.0462  0.4089  0.1011
 1379SOL    MW4 5516   3.090   0.127   2.161 -0.1676  0.0982 -0.1886
 1380SOL     OW 5517   3.117   0.349   2.295  0.0611  0.3398  0.4566
 1380SOL    HW2 5518   3.045   0.391   2.249  0.3957 -0.3152 -0.6860
 1380SOL    HW3 5519   3.195   0.370   2.243  0.5165 -0.0005  0.9839
 1380SOL    MW4 5520   3.118   0.357   2.282  0.1653  0.2085  0.3754
 1381SOL     OW 5521   3.407   0.490   1.846  0.3681  0.0659  0.6223
 1381SOL    HW2 5522   3.482   0.433   1.829  1.2499  0.8598  1.7527
 1381SOL    HW3 5523   3.337   0.455   1.790  1.5122 -0.8030 -0.2964
 1381SOL    MW4 5524   3.407   0.477   1.836  0.6354  0.0560  0.6503
 1382SOL     OW 5525   3.341   0.446   2.146 -0.0765  0.5594  0.4397
 1382SOL    HW2 5526   3.414   0.389   2.172 -0.4970 -0.4094 -0.4488
 1382SOL    HW3 5527   3.340   0.441   2.051 -0.4283  1.6790  0.3871
 1382SOL    MW4 5528   3.350   0.438   2.137 -0.1784  0.5793  0.3155
 1383SOL     OW 5529   3.351   0.705   2.247 -0.0908 -0.1260  0.0118
 1383SOL    HW2 5530   3.424   0.761   2.220 -0.5245  1.0601  1.2504
 1383SOL    HW3 5531   3.372   0.619   2.210  2.4284 -0.0446  1.1075
 1383SOL    MW4 5532   3.363   0.701   2.239  0.1844  0.0412  0.3198
 1384SOL     OW 5533   3.139   1.119   2.211 -0.3809 -0.0134 -0.0526
 1384SOL    HW2 5534   3.228   1.140   2.183 -0.5321  0.6215 -0.0635
 1384SOL    HW3 5535   3.131   1.025   2.196  0.3336 -0.1021  0.0702
 1384SOL    MW4 5536   3.150   1.109   2.205 -0.3066  0.0587 -0.0378
 1385SOL     OW 5537   3.411   1.246   2.144 -0.1573  0.1266  0.5833
 1385SOL    HW2 5538   3.401   1.341   2.156 -1.8710  0.0937 -0.3547
 1385SOL    HW3 5539   3.497   1.226   2.179  0.7051  2.2297 -0.2423
 1385SOL    MW4 5540   3.421   1.256   2.150 -0.2696  0.3997  0.3507
 1386SOL     OW 5541   3.400   1.502   2.213 -0.7731 -0.2792 -0.1473
 1386SOL    HW2 5542   3.416   1.508   2.307 -1.0731  0.7991 -0.1601
 1386SOL    HW3 5543   3.321   1.555   2.199  0.0178  0.6401 -1.2020
 1386SOL    MW4 5544   3.392   1.510   2.224 -0.7083 -0.0156 -0.2882
 1387SOL     OW 5545   3.155   1.642   2.147 -0.4488 -0.2214 -0.0884
 1387SOL    HW2 5546   3.137   1.733   2.170  0.5405  0.0338 -0.3469
 1387SOL    HW3 5547   3.073   1.596   2.168 -0.7948  0.6411  0.4735
 1387SOL    MW4 5548   3.141   1.648   2.153 -0.3639 -0.0739 -0.0484
 1388SOL     OW 5549   3.126   1.917   2.228 -0.2028  0.6079 -0.2174
 1388SOL    HW2 5550   3.162   1.926   2.317  1.7502 -0.1848 -0.9050
 1388SOL    HW3 5551   3.195   1.951   2.171 -1.9440  2.2990 -1.3779
 1388SOL    MW4 5552   3.140   1.923   2.233 -0.1749  0.7265 -0.4612
 1389SOL     OW 5553   3.353   2.017   2.108  0.1526  0.1633 -0.1857
 1389SOL    HW2 5554   3.429   1.965   2.132  0.5235  0.4684 -0.6977
 1389SOL    HW3 5555   3.361   2.030   2.014 -0.0168  1.0210 -0.0890
 1389SOL    MW4 5556   3.364   2.012   2.099  0.1792  0.3167 -0.2405
 1390SOL     OW 5557   3.396   2.282   2.200 -0.2356  0.2014  0.4113
 1390SOL    HW2 5558   3.313   2.321   2.172  0.7120  1.2210 -1.0954
 1390SOL    HW3 5559   3.390   2.191   2.172 -0.9313  0.2263  0.4806
 1390SOL    MW4 5560   3.384   2.275   2.192 -0.2023  0.3392  0.2217
 1391SOL     OW 5561   3.147   2.403   2.110  0.2811 -0.2611  0.0475
 1391SOL    HW2 5562   3.153   2.485   2.159  1.2400  0.7628 -1.7172
 1391SOL    HW3 5563   3.064   2.365   2.137  1.0054 -0.0130  2.8460
 1391SOL    MW4 5564   3.137   2.409   2.120  0.5032 -0.0933  0.1839
 1392SOL     OW 5565   3.176   2.650   2.235 -0.5841  0.4569  0.0357
 1392SOL    HW2 5566   3.200   2.657   2.327  0.1773 -1.1710 -0.0320
 1392SOL    HW3 5567   3.092   2.696   2.228 -0.0944  1.5471  1.3112
 1392SOL    MW4 5568   3.168   2.657   2.246 -0.4191  0.3859  0.1951
 1393SOL     OW 5569   3.377   2.810   2.140  0.2326  0.2076 -0.8527
 1393SOL    HW2 5570   3.347   2.894   2.175 -0.6187  0.1032 -1.3355
 1393SOL    HW3 5571   3.310   2.747   2.167  0.9619 -0.3676 -0.3215
 1393SOL    MW4 5572   3.364   2.812   2.148  0.2165  0.1180 -0.8463
 1394SOL     OW 5573   3.363   3.098   2.221 -0.0145 -0.0725  0.2384
 1394SOL    HW2 5574   3.430   3.142   2.170 -0.7651  0.0278 -0.6857
 1394SOL    HW3 5575   3.284   3.150   2.206 -0.7804 -1.3987 -0.4035
 1394SOL    MW4 5576   3.361   3.110   2.212 -0.2146 -0.2343  0.0318
 1395SOL     OW 5577   3.111   3.240   2.164 -0.0751  0.4122  0.0624
 1395SOL    HW2 5578   3.120   3.331   2.191 -1.0114  0.6957 -0.5560
 1395SOL    HW3 5579   3.107   3.244   2.068 -1.6263 -0.1369  0.0988
 1395SOL    MW4 5580   3.112   3.253   2.155 -0.4033  0.3772 -0.0144
 1396SOL     OW 5581   3.132   3.491   2.241 -0.2961 -0.0244 -0.0931
 1396SOL    HW2 5582   3.128   3.508   2.335  2.4847  2.2166 -0.3142
 1396SOL    HW3 5583   3.218   3.524   2.214 -1.3517  0.0927 -3.5667
 1396SOL    MW4 5584   3.143   3.498   2.250 -0.0685  0.2867 -0.5805
 1397SOL     OW 5585   3.374   3.593   2.170 -0.3339 -0.1043  0.2356
 1397SOL    HW2 5586   3.462   3.564   2.195  0.1899  0.2396 -1.2070
 1397SOL    HW3 5587   3.376   3.599   2.075 -1.7033  0.6191  0.2402
 1397SOL    MW4 5588   3.386   3.590   2.161 -0.4455  0.0365  0.0459
 1398SOL     OW 5589   3.337   3.853   2.267 -0.6550 -0.2686 -0.0610
 1398SOL    HW2 5590   3.411   3.903   2.231 -1.1943  0.3636 -0.3029
 1398SOL    HW3 5591   3.353   3.763   2.240 -0.2032 -0.0639 -0.4856
 1398SOL    MW4 5592   3.349   3.848   2.259 -0.6666 -0.1582 -0.1489
 1399SOL     OW 5593   3.143   4.006   2.149 -0.1875 -0.0143  0.1985
 1399SOL    HW2 5594   3.214   3.949   2.178 -0.9251 -0.7943  0.4859
 1399SOL    HW3 5595   3.063   3.954   2.161 -1.0457  1.6494  2.0267
 1399SOL    MW4 5596   3.142   3.992   2.154 -0.3980  0.1023  0.4776
 1400SOL     OW 5597   3.137   4.257   2.273 -0.3109 -0.3612  0.6008
 1400SOL    HW2 5598   3.211   4.310   2.245  0.2716 -1.1137  0.6902
 1400SOL    HW3 5599   3.149   4.173   2.229  0.1322 -1.2541  2.3664
 1400SOL    MW4 5600   3.148   4.253   2.264 -0.1756 -0.5783  0.8455
 1401SOL     OW 5601   3.344   4.382   2.168 -0.1662  0.3244  0.4202
 1401SOL    HW2 5602   3.335   4.473   2.198  1.0760  0.2678  1.0016
 1401SOL    HW3 5603   3.356   4.389   2.073  1.0243  0.8515  0.5979
 1401SOL    MW4 5604   3.344   4.395   2.160  0.1548  0.3865  0.5204
 1402SOL     OW 5605   4.045   0.063   2.165 -0.1013  0.4147 -0.0839
 1402SOL    HW2 5606   4.114   0.018   2.213 -0.3482  0.5306  0.3804
 1402SOL    HW3 5607   4.039   0.149   2.206 -1.3490 -0.0160  0.6890
 1402SOL    MW4 5608   4.053   0.068   2.177 -0.2985  0.3732  0.0793
 1403SOL     OW 5609   3.611   0.089   2.153 -0.5579 -0.3006  0.6757
 1403SOL    HW2 5610   3.677   0.050   2.211 -1.9111 -0.8997  1.8426
 1403SOL    HW3 5611   3.608   0.181   2.177  1.0959  0.1014 -0.5917
 1403SOL    MW4 5612   3.619   0.096   2.164 -0.5182 -0.3266  0.6624
 1404SOL     OW 5613   3.585   0.348   2.243 -0.2786  0.1864 -0.4695
 1404SOL    HW2 5614   3.566   0.341   2.337 -1.7489  1.1784 -0.6742
 1404SOL    HW3 5615   3.666   0.399   2.239 -1.2104  1.7581  0.2198
 1404SOL    MW4 5616   3.593   0.354   2.255 -0.5955  0.5246 -0.4056
 1405SOL     OW 5617   3.816   0.523   2.167 -0.4052 -0.0807 -0.6183
 1405SOL    HW2 5618   3.818   0.610   2.208  0.7863 -1.0329  1.3990
 1405SOL    HW3 5619   3.832   0.541   2.074 -0.1736  1.8631 -0.2261
 1405SOL    MW4 5620   3.819   0.537   2.160 -0.2175  0.0501 -0.3004
 1406SOL     OW 5621   3.804   0.781   2.279  0.1469 -0.2919  0.0130
 1406SOL    HW2 5622   3.823   0.766   2.372  0.1404  0.2463  0.1059
 1406SOL    HW3 5623   3.882   0.827   2.246 -1.2579  2.6124  0.5739
 1406SOL    MW4 5624   3.817   0.785   2.287 -0.0393  0.1623  0.0993
 1407SOL     OW 5625   3.558   0.861   2.140  0.7365 -0.5083  0.3859
 1407SOL    HW2 5626   3.640   0.829   2.178  1.1298  1.3489  1.1334
 1407SOL    HW3 5627   3.577   0.869   2.046  1.5032  0.1721  0.5941
 1407SOL    MW4 5628   3.572   0.858   2.132  0.8896 -0.1735  0.5120
 1408SOL     OW 5629   3.651   1.130   2.226  0.0878 -0.0083  0.0946
 1408SOL    HW2 5630   3.638   1.131   2.321 -0.1446 -0.7021  0.0743
 1408SOL    HW3 5631   3.623   1.042   2.199 -1.7372  0.8552 -0.8852
 1408SOL    MW4 5632   3.646   1.118   2.235 -0.1837  0.0141 -0.0373
 1409SOL     OW 5633   3.893   1.244   2.119  0.0951  0.4007 -0.4854
 1409SOL    HW2 5634   3.883   1.334   2.151  0.0972 -0.2573  1.4516
 1409SOL    HW3 5635   3.821   1.197   2.160  1.0385 -0.8178 -0.2131
 1409SOL    MW4 5636   3.882   1.250   2.129  0.2198  0.1531 -0.1939
 1410SOL     OW 5637   3.842   1.502   2.214  0.0007 -0.5087  0.2298
 1410SOL    HW2 5638   3.826   1.514   2.307  0.5018 -0.6906  0.3385
 1410SOL    HW3 5639   3.760   1.529   2.172 -0.0794 -0.0340  0.6927
 1410SOL    MW4 5640   3.829   1.507   2.221  0.0562 -0.4701  0.3052
 1411SOL     OW 5641   3.612   1.639   2.122  0.3047  0.0701 -0.0710
 1411SOL    HW2 5642   3.542   1.577   2.140  0.9335 -0.6796 -0.1537
 1411SOL    HW3 5643   3.614   1.646   2.026  0.3188  0.1120 -0.0676
 1411SOL    MW4 5644   3.603   1.632   2.112  0.3896 -0.0233 -0.0815
 1412SOL     OW 5645   3.602   1.901   2.200 -0.3393 -0.0710 -0.0363
 1412SOL    HW2 5646   3.679   1.952   2.177 -1.2995  1.4826  0.0768
 1412SOL    HW3 5647   3.622   1.812   2.172  0.8711  0.6138 -1.3997
 1412SOL    MW4 5648   3.615   1.896   2.193 -0.3063  0.2243 -0.2012
 1413SOL     OW 5649   3.823   2.050   2.078  0.2918  0.1001 -0.5633
 1413SOL    HW2 5650   3.913   2.023   2.091  0.1984 -0.1605 -0.4504
 1413SOL    HW3 5651   3.806   2.032   1.985 -0.4629 -2.3527  0.0042
 1413SOL    MW4 5652   3.832   2.044   2.067  0.1799 -0.2579 -0.4736
 1414SOL     OW 5653   3.848   2.286   2.255 -0.2482 -0.4779  0.4337
 1414SOL    HW2 5654   3.778   2.339   2.218  0.1922  0.8360  1.4241
 1414SOL    HW3 5655   3.846   2.204   2.206 -1.7997 -0.0464 -0.2275
 1414SOL    MW4 5656   3.839   2.282   2.244 -0.3948 -0.2476  0.4772
 1415SOL     OW 5657   3.637   2.423   2.126 -0.0698 -0.2649  0.7387
 1415SOL    HW2 5658   3.558   2.385   2.164 -1.0898  0.2782 -0.7554
 1415SOL    HW3 5659   3.619   2.424   2.031  1.2848  0.8574  0.4798
 1415SOL    MW4 5660   3.624   2.418   2.118 -0.0256 -0.0452  0.5074
 1416SOL     OW 5661   3.599   2.687   2.225 -0.0314 -0.3137  0.0328
 1416SOL    HW2 5662   3.588   2.595   2.200 -0.5121 -0.5299  1.0416
 1416SOL    HW3 5663   3.530   2.734   2.178  0.0096 -0.5134 -0.2258
 1416SOL    MW4 5664   3.589   2.681   2.215 -0.0894 -0.3686  0.1318
 1417SOL     OW 5665   3.856   2.831   2.104  0.3199  0.3089  0.1814
 1417SOL    HW2 5666   3.829   2.914   2.143 -0.0648  1.2123 -1.9310
 1417SOL    HW3 5667   3.783   2.771   2.122 -0.2439  0.9568  0.0806
 1417SOL    MW4 5668   3.843   2.834   2.112  0.1948  0.5136 -0.1106
 1418SOL     OW 5669   3.790   3.071   2.233 -0.0233  0.3310 -0.2019
 1418SOL    HW2 5670   3.805   3.076   2.327  0.9740  0.8136 -0.3815
 1418SOL    HW3 5671   3.869   3.109   2.194 -1.2575  1.9485 -1.1912
 1418SOL    MW4 5672   3.803   3.077   2.240 -0.0546  0.6081 -0.3561
 1419SOL     OW 5673   3.583   3.232   2.116 -0.0770  0.3057 -0.3761
 1419SOL    HW2 5674   3.585   3.315   2.165  0.0092 -0.3786  0.8036
 1419SOL    HW3 5675   3.648   3.178   2.160 -1.8381 -1.2413  0.4196
 1419SOL    MW4 5676   3.592   3.236   2.128 -0.2980  0.0113 -0.1155
 1420SOL     OW 5677   3.621   3.494   2.241 -0.0731  0.0964  0.1762
 1420SOL    HW2 5678   3.632   3.480   2.335 -0.2037  0.4404  0.2434
 1420SOL    HW3 5679   3.700   3.540   2.214  0.6540 -1.3248 -0.1659
 1420SOL    MW4 5680   3.633   3.498   2.250  0.0056 -0.0457  0.1399
 1421SOL     OW 5681   3.834   3.640   2.117  0.1309 -0.2054  0.0151
 1421SOL    HW2 5682   3.831   3.733   2.137 -1.2881 -0.2120 -0.0513
 1421SOL    HW3 5683   3.830   3.637   2.021 -1.3599 -0.3564  0.0697
 1421SOL    MW4 5684   3.833   3.652   2.107 -0.2530 -0.2262  0.0136
 1422SOL     OW 5685   3.814   3.905   2.196 -0.3471  0.4948  0.0031
 1422SOL    HW2 5686   3.809   3.890   2.291 -0.9330 -1.9115 -0.3819
 1422SOL    HW3 5687   3.904   3.935   2.181 -0.2635  0.9370  1.3183
 1422SOL    MW4 5688   3.825   3.907   2.207 -0.4134  0.2356  0.1258
 1423SOL     OW 5689   3.543   3.962   2.112 -0.2897 -0.0201  0.2920
 1423SOL    HW2 5690   3.536   4.055   2.133 -0.9449  0.0300 -0.1067
 1423SOL    HW3 5691   3.630   3.937   2.142  0.3181  0.9835 -0.5792
 1423SOL    MW4 5692   3.554   3.971   2.118 -0.2960  0.1189  0.1244
 1424SOL     OW 5693   3.572   4.213   2.191  0.0111  0.0780  0.1770
 1424SOL    HW2 5694   3.650   4.259   2.158 -0.5621  0.3684 -0.8013
 1424SOL    HW3 5695   3.502   4.278   2.184 -0.7300 -0.8114 -0.8565
 1424SOL    MW4 5696   3.573   4.228   2.185 -0.1623 -0.0010 -0.0884
 1425SOL     OW 5697   3.775   4.364   2.104  0.2153 -0.5176  0.0579
 1425SOL    HW2 5698   3.855   4.335   2.147  1.5175  0.5478 -1.5961
 1425SOL    HW3 5699   3.758   4.450   2.142  1.8266  0.7897 -2.0839
 1425SOL    MW4 5700   3.783   4.372   2.115  0.5997 -0.2046 -0.4429
 1426SOL     OW 5701   4.281   4.596   2.270  0.1634 -0.3770  0.2067
 1426SOL    HW2 5702   4.277   4.613   2.364  0.1096 -0.2957  0.1900
 1426SOL    HW3 5703   4.343   4.660   2.236  0.7529 -0.8963  0.2945
 1426SOL    MW4 5704   4.288   4.606   2.278  0.2341 -0.4348  0.2161
 1427SOL     OW 5705   4.050   0.086   1.876  0.4681 -0.5802 -0.5866
 1427SOL    HW2 5706   4.055   0.087   1.971  2.0455  0.5039 -0.6568
 1427SOL    HW3 5707   3.961   0.058   1.856 -0.2045  0.2450  1.2137
 1427SOL    MW4 5708   4.039   0.083   1.886  0.5874 -0.3283 -0.3584
 1428SOL     OW 5709   4.025   0.337   2.238  0.0535 -0.1264 -0.5202
 1428SOL    HW2 5710   4.103   0.381   2.204 -1.7919  2.9816 -0.9099
 1428SOL    HW3 5711   3.955   0.402   2.229 -2.4736 -2.6411  0.3553
 1428SOL    MW4 5712   4.026   0.352   2.232 -0.5234 -0.0481 -0.4561
 1429SOL     OW 5713   4.244   0.458   2.105  0.0149  0.5072 -0.3891
 1429SOL    HW2 5714   4.244   0.550   2.131  1.9143  1.3154 -2.9978
 1429SOL    HW3 5715   4.329   0.425   2.136 -0.6840 -0.4243  0.5899
 1429SOL    MW4 5716   4.256   0.466   2.113  0.1733  0.4909 -0.6041
 1430SOL     OW 5717   4.291   0.707   2.228 -0.0149  0.2988 -0.1601
 1430SOL    HW2 5718   4.205   0.747   2.213 -0.4802 -0.6844 -0.1558
 1430SOL    HW3 5719   4.354   0.774   2.200 -0.7938  0.7832 -0.7621
 1430SOL    MW4 5720   4.288   0.721   2.222 -0.1791  0.2330 -0.2389
 1431SOL     OW 5721   4.055   0.869   2.196  0.0361 -0.4499 -0.7395
 1431SOL    HW2 5722   4.086   0.955   2.225  0.8751 -0.6561 -1.0245
 1431SOL    HW3 5723   4.024   0.884   2.107 -0.0422 -0.3977 -0.7048
 1431SOL    MW4 5724   4.055   0.883   2.188  0.1365 -0.4702 -0.7725
 1432SOL     OW 5725   4.113   1.120   2.231  0.2435 -0.0901  0.1323
 1432SOL    HW2 5726   4.118   1.162   2.316 -0.6804 -0.8950  0.6056
 1432SOL    HW3 5727   4.035   1.158   2.190  1.7217  1.6345 -1.1132
 1432SOL    MW4 5728   4.103   1.130   2.237  0.3166  0.0312  0.0304
 1433SOL     OW 5729   4.299   1.273   2.119 -0.4404 -0.1542 -0.1895
 1433SOL    HW2 5730   4.242   1.206   2.155  0.0505 -2.1662 -2.9716
 1433SOL    HW3 5731   4.383   1.259   2.163 -0.7299 -0.4500  0.2716
 1433SOL    MW4 5732   4.303   1.262   2.130 -0.4138 -0.4587 -0.4957
 1434SOL     OW 5733   4.274   1.540   2.220  0.7570 -0.6872  0.6215
 1434SOL    HW2 5734   4.263   1.452   2.183 -1.3174  0.4031 -1.5074
 1434SOL    HW3 5735   4.364   1.564   2.198  0.8511 -1.6975 -0.1584
 1434SOL    MW4 5736   4.285   1.531   2.212  0.4958 -0.6766  0.2377
 1435SOL     OW 5737   4.065   1.675   2.120 -0.2493  0.1907  0.8605
 1435SOL    HW2 5738   4.145   1.635   2.156 -0.3570 -1.4251 -0.6469
 1435SOL    HW3 5739   3.994   1.626   2.160 -0.3584 -2.3410 -2.2674
 1435SOL    MW4 5740   4.066   1.663   2.130 -0.2779 -0.3565  0.2489
 1436SOL     OW 5741   4.044   1.932   2.176 -0.0679  0.4937  0.5097
 1436SOL    HW2 5742   4.044   1.924   2.271  1.6266 -0.1371  0.4713
 1436SOL    HW3 5743   4.035   1.842   2.144  2.0464  0.3828  0.1043
 1436SOL    MW4 5744   4.043   1.919   2.184  0.4346  0.3958  0.4511
 1437SOL     OW 5745   4.301   2.026   2.108  0.5182  0.1516  0.2187
 1437SOL    HW2 5746   4.294   2.117   2.134  1.9651  0.2025  0.4473
 1437SOL    HW3 5747   4.211   1.993   2.112  0.0882  1.3774  0.8039
 1437SOL    MW4 5748   4.288   2.033   2.112  0.6524  0.3201  0.3260
 1438SOL     OW 5749   4.278   2.302   2.212  0.0046  0.3587 -0.1065
 1438SOL    HW2 5750   4.208   2.337   2.157  0.1386  0.9887  0.1213
 1438SOL    HW3 5751   4.356   2.348   2.183  0.0497  0.8053  0.7087
 1438SOL    MW4 5752   4.279   2.313   2.201  0.0282  0.5008  0.0312
 1439SOL     OW 5753   4.034   2.411   2.102 -0.3451 -0.2163 -0.2026
 1439SOL    HW2 5754   4.045   2.498   2.140 -0.5066 -0.5003  0.4878
 1439SOL    HW3 5755   3.964   2.370   2.153 -0.5647 -0.6003 -0.7961
 1439SOL    MW4 5756   4.026   2.417   2.114 -0.3954 -0.3044 -0.1898
 1440SOL     OW 5757   4.042   2.667   2.188 -0.1424 -0.0413 -0.2546
 1440SOL    HW2 5758   4.064   2.709   2.271 -1.9898 -1.1288  0.8226
 1440SOL    HW3 5759   3.966   2.717   2.156 -0.5675 -0.7531 -0.3741
 1440SOL    MW4 5760   4.035   2.679   2.195 -0.4423 -0.2787 -0.1282
 1441SOL     OW 5761   4.276   2.809   2.104  0.0936  0.2658  0.1965
 1441SOL    HW2 5762   4.197   2.760   2.125 -0.2248  0.1329 -1.2659
 1441SOL    HW3 5763   4.347   2.760   2.146 -0.4791 -0.1764  0.6552
 1441SOL    MW4 5764   4.275   2.796   2.112 -0.0240  0.1899  0.0640
 1442SOL     OW 5765   4.017   3.172   2.142  0.3567  0.1310 -0.3149
 1442SOL    HW2 5766   4.026   3.265   2.160 -1.1374 -0.5405  4.6757
 1442SOL    HW3 5767   4.089   3.131   2.190 -0.6711 -1.4743 -0.0998
 1442SOL    MW4 5768   4.028   3.179   2.150  0.0240 -0.1694  0.3719
 1443SOL     OW 5769   4.288   3.061   2.233 -0.1992  0.0051 -1.0235
 1443SOL    HW2 5770   4.291   2.976   2.190  0.3561  0.2273 -1.4284
 1443SOL    HW3 5771   4.342   3.118   2.178  0.1732  0.3943 -0.2658
 1443SOL    MW4 5772   4.295   3.058   2.220 -0.0768  0.0858 -0.9770
 1444SOL     OW 5773   4.037   3.448   2.235  0.0151  0.6354  0.0175
 1444SOL    HW2 5774   4.119   3.476   2.195 -0.2909  1.8338  0.1843
 1444SOL    HW3 5775   3.973   3.514   2.205 -0.9720 -0.5202 -0.4647
 1444SOL    MW4 5776   4.039   3.461   2.225 -0.1555  0.6411 -0.0241
 1445SOL     OW 5777   4.252   3.584   2.126 -0.2459 -0.1309 -0.3833
 1445SOL    HW2 5778   4.267   3.669   2.167 -0.3005 -0.8547  1.1773
 1445SOL    HW3 5779   4.268   3.599   2.033  0.3819  1.4356 -0.0389
 1445SOL    MW4 5780   4.256   3.597   2.119 -0.1703 -0.0197 -0.1319
 1446SOL     OW 5781   4.296   3.837   2.232 -0.1114 -0.0276  0.0884
 1446SOL    HW2 5782   4.278   3.870   2.320 -0.9132  0.5106 -0.2606
 1446SOL    HW3 5783   4.381   3.875   2.209  0.5877 -0.9987  1.0131
 1446SOL    MW4 5784   4.305   3.847   2.241 -0.1249 -0.0847  0.1644
 1447SOL     OW 5785   4.058   3.989   2.135  0.3103  0.1171 -0.0137
 1447SOL    HW2 5786   4.134   3.945   2.171 -0.0922 -0.5167  0.0589
 1447SOL    HW3 5787   4.078   4.000   2.042 -0.2916 -1.7031 -0.3668
 1447SOL    MW4 5788   4.071   3.985   2.127  0.1778 -0.2067 -0.0507
 1448SOL     OW 5789   4.023   4.254   2.238 -0.0123  0.2520  0.1891
 1448SOL    HW2 5790   4.092   4.296   2.186 -0.9792  0.1883 -1.1670
 1448SOL    HW3 5791   4.026   4.162   2.212  0.0846  0.0513  0.9033
 1448SOL    MW4 5792   4.033   4.247   2.228 -0.1271  0.2171  0.1044
 1449SOL     OW 5793   4.264   4.359   2.125 -0.3094  0.9905  0.1016
 1449SOL    HW2 5794   4.257   4.441   2.174  2.9927  1.0056  0.6517
 1449SOL    HW3 5795   4.341   4.316   2.161 -2.4445 -2.7840  0.3666
 1449SOL    MW4 5796   4.273   4.364   2.136 -0.1554  0.4945  0.2091
 1450SOL     OW 5797   0.213   0.010   2.552 -0.5247  0.2711  0.4025
 1450SOL    HW2 5798   0.208  -0.083   2.573 -1.2104  0.2732  0.2702
 1450SOL    HW3 5799   0.135   0.048   2.593  1.2114  1.2746  2.9035
 1450SOL    MW4 5800   0.202   0.003   2.561 -0.3861  0.4038  0.7150
 1451SOL     OW 5801   4.454   0.149   2.649 -0.5563 -0.0279 -0.1712
 1451SOL    HW2 5802   4.478   0.139   2.742  0.3157 -1.0265 -0.4865
 1451SOL    HW3 5803   4.445   0.243   2.637  0.1795  0.1709  0.7318
 1451SOL    MW4 5804   4.456   0.160   2.660 -0.3442 -0.1334 -0.0937
 1452SOL     OW 5805   4.486   0.406   2.486  0.2909  0.3661 -0.4467
 1452SOL    HW2 5806   4.570   0.436   2.522 -0.1272  0.2652  0.6062
 1452SOL    HW3 5807   4.504   0.396   2.392  1.8899 -1.0702 -0.0299
 1452SOL    MW4 5808   4.500   0.409   2.478  0.4467  0.1633 -0.2528
 1453SOL     OW 5809   0.244   0.485   2.605  0.2309 -0.2261 -0.1662
 1453SOL    HW2 5810   0.253   0.492   2.700 -0.3232 -0.3683 -0.1037
 1453SOL    HW3 5811   0.317   0.428   2.578  0.4978 -0.0348  0.1470
 1453SOL    MW4 5812   0.255   0.479   2.614  0.1930 -0.2197 -0.1166
 1454SOL     OW 5813   0.225   0.741   2.488 -0.3262  0.1069  0.0508
 1454SOL    HW2 5814   0.302   0.791   2.512 -1.1922  1.1090  0.7917
 1454SOL    HW3 5815   0.236   0.657   2.534  0.4483  0.1454 -0.0668
 1454SOL    MW4 5816   0.236   0.736   2.497 -0.3383  0.2442  0.1330
 1455SOL     OW 5817   0.010   0.887   2.586 -0.5476  0.1367 -0.9556
 1455SOL    HW2 5818  -0.059   0.836   2.543  0.4343 -1.2496 -0.9255
 1455SOL    HW3 5819   0.091   0.848   2.553  0.2244 -0.1487  1.2201
 1455SOL    MW4 5820   0.011   0.875   2.576 -0.3162 -0.0838 -0.6645
 1456SOL     OW 5821   0.029   1.151   2.536  0.1097  0.0761  0.2791
 1456SOL    HW2 5822   0.110   1.189   2.571 -0.8986  1.0452  1.6219
 1456SOL    HW3 5823   0.028   1.061   2.569  1.3423 -0.3801 -0.9272
 1456SOL    MW4 5824   0.039   1.144   2.545  0.1393  0.1438  0.2971
 1457SOL     OW 5825   0.282   1.278   2.631  0.6178 -0.2636 -0.1341
 1457SOL    HW2 5826   0.358   1.235   2.592 -0.3532  0.6616 -3.1462
 1457SOL    HW3 5827   0.277   1.362   2.587 -0.5508  0.8299  2.0282
 1457SOL    MW4 5828   0.291   1.283   2.620  0.3355  0.0027 -0.2462
 1458SOL     OW 5829   0.264   1.528   2.525 -0.4898 -0.1942  0.1557
 1458SOL    HW2 5830   0.339   1.581   2.552  0.2227 -0.6133 -0.9420
 1458SOL    HW3 5831   0.188   1.583   2.542  0.1560  0.7217  0.1369
 1458SOL    MW4 5832   0.264   1.542   2.531 -0.3106 -0.1286  0.0084
 1459SOL     OW 5833   0.034   1.700   2.588  0.1532  0.2677  0.1217
 1459SOL    HW2 5834   0.051   1.698   2.682  0.4962 -1.0858  0.0405
 1459SOL    HW3 5835   0.026   1.793   2.567  0.5974  0.6007  1.3901
 1459SOL    MW4 5836   0.035   1.712   2.597  0.2571  0.1330  0.2784
 1460SOL     OW 5837   0.005   1.972   2.510 -0.0669 -0.1535  0.0378
 1460SOL    HW2 5838   0.082   2.018   2.544 -0.7466 -0.3208  1.8273
 1460SOL    HW3 5839   0.029   1.949   2.420  1.6316  0.5804  0.2869
 1460SOL    MW4 5840   0.019   1.975   2.503  0.0675 -0.0788  0.3068
 1461SOL     OW 5841   0.256   2.050   2.595  0.2396  0.2884 -0.0018
 1461SOL    HW2 5842   0.334   2.008   2.559 -0.0806  0.5247 -0.9900
 1461SOL    HW3 5843   0.250   2.134   2.549 -1.3432 -0.3015 -0.9275
 1461SOL    MW4 5844   0.266   2.055   2.584 -0.0115  0.2418 -0.2543
 1462SOL     OW 5845   0.224   2.301   2.491 -0.7124  0.0354 -0.1684
 1462SOL    HW2 5846   0.294   2.361   2.516 -1.1092  0.7668 -0.7978
 1462SOL    HW3 5847   0.145   2.341   2.526 -1.2235  0.8653 -2.2071
 1462SOL    MW4 5848   0.223   2.314   2.499 -0.8322  0.2414 -0.5204
 1463SOL     OW 5849   0.018   2.452   2.596  0.2267 -0.0499  0.2421
 1463SOL    HW2 5850   0.018   2.429   2.689 -0.3019 -0.5807  0.1144
 1463SOL    HW3 5851  -0.066   2.420   2.564  0.0016  0.9682 -0.2122
 1463SOL    MW4 5852   0.007   2.445   2.604  0.1272  0.0144  0.1653
 1464SOL     OW 5853   0.021   2.730   2.512 -0.0071  0.2834 -0.2513
 1464SOL    HW2 5854  -0.053   2.763   2.563  0.2395  0.1439  0.2002
 1464SOL    HW3 5855   0.045   2.648   2.555  0.8138  0.6459 -0.0053
 1464SOL    MW4 5856   0.015   2.724   2.525  0.1338  0.3128 -0.1593
 1465SOL     OW 5857   0.207   2.892   2.623 -0.8940  0.1310 -0.3728
 1465SOL    HW2 5858   0.135   2.841   2.585  0.3327 -0.9028 -1.3368
 1465SOL    HW3 5859   0.195   2.980   2.587 -1.0828 -0.2820 -1.3387
 1465SOL    MW4 5860   0.196   2.897   2.614 -0.7571 -0.0599 -0.6274
 1466SOL     OW 5861   0.204   3.152   2.508 -0.9114  0.3325  0.2975
 1466SOL    HW2 5862   0.291   3.185   2.533 -0.2927  0.1496 -1.5975
 1466SOL    HW3 5863   0.208   3.142   2.413 -3.1273  0.6523  0.1471
 1466SOL    MW4 5864   0.216   3.155   2.499 -1.1222  0.3505  0.0276
 1467SOL     OW 5865   4.473   3.231   2.636 -0.3324  0.1483  0.3351
 1467SOL    HW2 5866   4.416   3.170   2.590  0.2089  0.0536 -0.2159
 1467SOL    HW3 5867   4.560   3.217   2.596 -0.4889  2.3033 -0.7893
 1467SOL    MW4 5868   4.477   3.221   2.625 -0.2816  0.4202  0.1140
 1468SOL     OW 5869   0.005   3.474   2.490  0.3563  0.0519  0.3317
 1468SOL    HW2 5870   0.065   3.519   2.550 -0.7290  0.6959  0.9546
 1468SOL    HW3 5871  -0.022   3.396   2.539  0.1389  0.1233  0.3216
 1468SOL    MW4 5872   0.010   3.469   2.505  0.1844  0.1463  0.4125
 1469SOL     OW 5873   0.200   3.609   2.624  0.4306 -0.7506 -0.6426
 1469SOL    HW2 5874   0.211   3.607   2.719 -0.2349 -0.4717 -0.5583
 1469SOL    HW3 5875   0.283   3.576   2.590  0.8711 -0.3523  0.0245
 1469SOL    MW4 5876   0.212   3.604   2.632  0.4009 -0.6613 -0.5434
 1470SOL     OW 5877   0.155   3.878   2.541 -0.0312  0.6052 -0.3476
 1470SOL    HW2 5878   0.190   3.800   2.582 -1.9555 -0.2830 -0.3497
 1470SOL    HW3 5879   0.190   3.876   2.452  0.8831  0.3984  0.0106
 1470SOL    MW4 5880   0.164   3.868   2.535 -0.1645  0.4607 -0.3006
 1471SOL     OW 5881   4.439   4.042   2.664 -0.2598  0.0157  0.1221
 1471SOL    HW2 5882   4.513   3.985   2.641  2.1157  0.6734  5.4371
 1471SOL    HW3 5883   4.463   4.128   2.628  0.2352 -0.3975 -0.5521
 1471SOL    MW4 5884   4.452   4.046   2.656  0.1189  0.0480  0.7344
 1472SOL     OW 5885   0.021   4.278   2.514  0.5287 -0.1215  0.0928
 1472SOL    HW2 5886   0.096   4.335   2.533  0.4548  0.0299 -0.0636
 1472SOL    HW3 5887  -0.054   4.324   2.550  0.6781 -0.9099  1.4447
 1472SOL    MW4 5888   0.021   4.292   2.521  0.5387 -0.2056  0.2505
 1473SOL     OW 5889   0.238   4.409   2.621 -0.8215 -0.4078 -0.1435
 1473SOL    HW2 5890   0.225   4.413   2.716 -0.8604  0.2386 -0.1740
 1473SOL    HW3 5891   0.323   4.366   2.610 -0.1780  0.7637  0.2216
 1473SOL    MW4 5892   0.247   4.404   2.632 -0.7417 -0.1679 -0.0994
 1474SOL     OW 5893   0.670   0.003   2.514  0.3202  0.0750 -0.0884
 1474SOL    HW2 5894   0.753   0.032   2.552  0.0436  1.2864 -0.3990
 1474SOL    HW3 5895   0.603   0.053   2.562 -0.0268  1.7569 -2.2601
 1474SOL    MW4 5896   0.672   0.014   2.525  0.2379  0.4567 -0.4159
 1475SOL     OW 5897   0.463   0.120   2.662 -0.5687  0.4947 -0.1641
 1475SOL    HW2 5898   0.466   0.124   2.758 -1.1667 -0.2955 -0.1102
 1475SOL    HW3 5899   0.386   0.067   2.643 -0.4259  0.6178 -1.0872
 1475SOL    MW4 5900   0.453   0.114   2.672 -0.6288  0.4067 -0.2788
 1476SOL     OW 5901   0.470   0.352   2.510 -0.2262  0.1835  0.6748
 1476SOL    HW2 5902   0.530   0.411   2.555 -0.6992  1.2242 -0.0136
 1476SOL    HW3 5903   0.473   0.271   2.560 -1.4643  1.6111  3.1542
 1476SOL    MW4 5904   0.478   0.349   2.523 -0.4520  0.5091  0.9111
 1477SOL     OW 5905   0.707   0.479   2.592  0.2201 -0.3179 -0.0615
 1477SOL    HW2 5906   0.693   0.469   2.687  3.8552  1.5110  0.7566
 1477SOL    HW3 5907   0.782   0.423   2.574  0.8660  0.9754 -1.4499
 1477SOL    MW4 5908   0.715   0.470   2.602  0.7849  0.0940 -0.1367
 1478SOL     OW 5909   0.650   0.746   2.539 -0.2455  0.6187 -0.1025
 1478SOL    HW2 5910   0.741   0.774   2.552 -0.1156  0.5220 -0.8126
 1478SOL    HW3 5911   0.650   0.653   2.563 -0.4317  0.9269  1.1315
 1478SOL    MW4 5912   0.662   0.738   2.544 -0.2529  0.6466 -0.0334
 1479SOL     OW 5913   0.435   0.885   2.606 -0.0319  0.2227 -0.2778
 1479SOL    HW2 5914   0.433   0.974   2.572 -1.3669 -0.4263 -1.9611
 1479SOL    HW3 5915   0.504   0.841   2.557 -0.8657 -0.2669 -1.0321
 1479SOL    MW4 5916   0.444   0.891   2.595 -0.3180  0.0725 -0.5994
 1480SOL     OW 5917   0.495   1.144   2.498 -0.0169  0.1689  0.6911
 1480SOL    HW2 5918   0.576   1.189   2.522  0.6374  0.0324 -1.1853
 1480SOL    HW3 5919   0.495   1.145   2.402 -3.7243  2.9131  0.5890
 1480SOL    MW4 5920   0.505   1.150   2.488 -0.4197  0.5130  0.4301
 1481SOL     OW 5921   0.719   1.273   2.596 -0.6511  0.0369 -0.1132
 1481SOL    HW2 5922   0.743   1.263   2.688  0.6342  0.4541 -0.3906
 1481SOL    HW3 5923   0.784   1.222   2.549 -0.4049  1.0304 -0.8746
 1481SOL    MW4 5924   0.731   1.265   2.602 -0.4490  0.2230 -0.2502
 1482SOL     OW 5925   0.715   1.535   2.520 -0.4664  0.0420 -0.3712
 1482SOL    HW2 5926   0.650   1.579   2.576  0.8416 -0.6233  1.7410
 1482SOL    HW3 5927   0.714   1.444   2.549  0.5676 -0.2144 -1.1247
 1482SOL    MW4 5928   0.707   1.529   2.531 -0.1574 -0.0796 -0.1919
 1483SOL     OW 5929   0.480   1.666   2.626  0.0529  0.1560 -0.4558
 1483SOL    HW2 5930   0.455   1.659   2.718 -0.0436 -1.3308 -0.5903
 1483SOL    HW3 5931   0.472   1.759   2.607 -2.7829  0.1037  0.2377
 1483SOL    MW4 5932   0.476   1.677   2.636 -0.3340 -0.0470 -0.3820
 1484SOL     OW 5933   0.487   1.931   2.519 -0.1788 -0.4558 -0.3859
 1484SOL    HW2 5934   0.553   1.987   2.558 -0.4893 -0.5178  0.2358
 1484SOL    HW3 5935   0.501   1.938   2.425 -1.4511  2.2008 -0.4117
 1484SOL    MW4 5936   0.497   1.939   2.512 -0.3876 -0.1134 -0.3073
 1485SOL     OW 5937   0.692   2.083   2.632  0.0739 -0.2631 -0.3588
 1485SOL    HW2 5938   0.672   2.082   2.726 -1.9437  0.1873 -0.7656
 1485SOL    HW3 5939   0.769   2.026   2.623 -0.7740 -1.7009  1.3323
 1485SOL    MW4 5940   0.700   2.076   2.643 -0.3041 -0.3934 -0.1893
 1486SOL     OW 5941   0.642   2.345   2.563 -0.5754 -0.1562  0.5418
 1486SOL    HW2 5942   0.724   2.376   2.602 -1.3088  0.1657  1.8526
 1486SOL    HW3 5943   0.653   2.250   2.558  0.3191 -0.0249 -0.3559
 1486SOL    MW4 5944   0.655   2.336   2.567 -0.5542 -0.0964  0.5963
 1487SOL     OW 5945   0.404   2.460   2.615 -0.4042 -0.2249 -0.4452
 1487SOL    HW2 5946   0.415   2.549   2.582  1.6180 -0.1704  0.3331
 1487SOL    HW3 5947   0.488   2.417   2.598 -1.2681 -1.9257 -0.5732
 1487SOL    MW4 5948   0.416   2.466   2.608 -0.2514 -0.4421 -0.3594
 1488SOL     OW 5949   0.403   2.709   2.510  0.2145 -0.6070 -0.0380
 1488SOL    HW2 5950   0.487   2.750   2.529 -0.2202  2.6213 -4.5489
 1488SOL    HW3 5951   0.338   2.765   2.553  0.1319 -1.4755  1.0018
 1488SOL    MW4 5952   0.405   2.722   2.518  0.1462 -0.2956 -0.4960
 1489SOL     OW 5953   0.666   2.850   2.647 -0.0874 -0.2606  0.4166
 1489SOL    HW2 5954   0.655   2.858   2.742  0.1755  1.5454  0.3203
 1489SOL    HW3 5955   0.668   2.940   2.616 -0.0200 -0.8381 -1.2979
 1489SOL    MW4 5956   0.665   2.863   2.656 -0.0438 -0.0985  0.1777
 1490SOL     OW 5957   0.661   3.094   2.551 -0.2659  0.0284 -0.3160
 1490SOL    HW2 5958   0.732   3.152   2.576 -1.2728  1.3905 -0.5562
 1490SOL    HW3 5959   0.656   3.100   2.456 -0.5199 -0.2576 -0.3228
 1490SOL    MW4 5960   0.669   3.103   2.542 -0.4323  0.1704 -0.3486
 1491SOL     OW 5961   0.442   3.258   2.610 -0.2309 -0.3661 -0.4846
 1491SOL    HW2 5962   0.439   3.259   2.706  0.6300  0.7482 -0.4556
 1491SOL    HW3 5963   0.516   3.202   2.589  0.5112  0.5802 -0.4518
 1491SOL    MW4 5964   0.451   3.251   2.620 -0.0194 -0.0943 -0.4765
 1492SOL     OW 5965   0.441   3.520   2.513 -0.1732 -0.1653 -0.2222
 1492SOL    HW2 5966   0.431   3.431   2.547  0.1355 -0.0521  0.1668
 1492SOL    HW3 5967   0.432   3.510   2.418 -0.9386 -0.4983 -0.1222
 1492SOL    MW4 5968   0.439   3.507   2.505 -0.2335 -0.1943 -0.1577
 1493SOL     OW 5969   0.685   3.619   2.622 -0.1069  0.0668 -0.4121
 1493SOL    HW2 5970   0.686   3.599   2.716  0.3701 -0.0164 -0.4299
 1493SOL    HW3 5971   0.597   3.596   2.593 -0.2264  0.0032 -0.0015
 1493SOL    MW4 5972   0.674   3.613   2.631 -0.0597  0.0474 -0.3602
 1494SOL     OW 5973   0.663   3.885   2.543 -0.5073 -0.1655 -0.6681
 1494SOL    HW2 5974   0.572   3.906   2.565 -0.7901 -0.8715 -1.1405
 1494SOL    HW3 5975   0.670   3.791   2.556  0.1247 -0.1318 -0.7557
 1494SOL    MW4 5976   0.652   3.876   2.547 -0.4612 -0.2542 -0.7420
 1495SOL     OW 5977   0.396   4.006   2.596  0.5734 -0.1166 -0.2100
 1495SOL    HW2 5978   0.402   4.089   2.548  1.7160 -0.9028 -1.4765
 1495SOL    HW3 5979   0.315   3.966   2.566 -1.5020  1.8156  2.5625
 1495SOL    MW4 5980   0.386   4.012   2.586  0.4503  0.0346 -0.0113
 1496SOL     OW 5981   0.440   4.263   2.502 -0.2519 -0.0973 -0.2546
 1496SOL    HW2 5982   0.509   4.325   2.522 -0.2877  0.1639 -0.9176
 1496SOL    HW3 5983   0.424   4.274   2.408 -0.3884 -0.9690 -0.3404
 1496SOL    MW4 5984   0.447   4.273   2.492 -0.2746 -0.1779 -0.3534
 1497SOL     OW 5985   0.658   4.409   2.620  0.0903 -0.1428  0.0660
 1497SOL    HW2 5986   0.736   4.364   2.589 -0.7936 -1.5222 -0.2066
 1497SOL    HW3 5987   0.666   4.498   2.585  0.7746 -0.7151 -1.2625
 1497SOL    MW4 5988   0.669   4.415   2.611  0.0640 -0.4003 -0.1453
 1498SOL     OW 5989   1.136   4.601   2.514  0.2282  0.2359  0.0390
 1498SOL    HW2 5990   1.208   4.654   2.550 -0.5102  0.4592  1.2110
 1498SOL    HW3 5991   1.148   4.515   2.554  0.3342  0.0323 -0.4284
 1498SOL    MW4 5992   1.147   4.597   2.524  0.1448  0.2385  0.1320
 1499SOL     OW 5993   0.910   0.067   2.646  0.1284 -0.4328 -0.3008
 1499SOL    HW2 5994   0.907   0.084   2.740  0.6503  1.6344 -0.6320
 1499SOL    HW3 5995   0.986   0.010   2.634  0.8296  0.3355  0.3916
 1499SOL    MW4 5996   0.920   0.062   2.657  0.2898 -0.0587 -0.2531
 1500SOL     OW 5997   0.927   0.323   2.567 -0.1118  0.4282 -0.1918
 1500SOL    HW2 5998   0.919   0.230   2.587  0.0840  0.1407 -1.3733
 1500SOL    HW3 5999   0.942   0.326   2.472  0.6904  1.6161 -0.0455
 1500SOL    MW4 6000   0.928   0.311   2.557  0.0198  0.5470 -0.3284
 1501SOL     OW 6001   1.164   0.495   2.612  0.0967  0.1638  0.4950
 1501SOL    HW2 6002   1.144   0.583   2.581  1.6444  0.2899 -0.1567
 1501SOL    HW3 6003   1.086   0.444   2.589 -0.1688  1.0118 -0.5430
 1501SOL    MW4 6004   1.151   0.500   2.605  0.2659  0.2923  0.2721
 1502SOL     OW 6005   1.119   0.743   2.492  0.5237  0.0416 -0.5129
 1502SOL    HW2 6006   1.193   0.784   2.537 -0.9706  1.1553  1.0071
 1502SOL    HW3 6007   1.126   0.772   2.402  1.4202  0.8880 -0.1725
 1502SOL    MW4 6008   1.129   0.752   2.486  0.4448  0.3002 -0.2674
 1503SOL     OW 6009   0.894   0.844   2.609  0.2859 -0.1608  0.2586
 1503SOL    HW2 6010   0.883   0.826   2.702  0.3575 -1.6221  0.0109
 1503SOL    HW3 6011   0.966   0.787   2.582  1.5413  1.6450 -0.3020
 1503SOL    MW4 6012   0.902   0.834   2.617  0.4610 -0.1154  0.1520
 1504SOL     OW 6013   0.909   1.102   2.500  0.3180  0.2666 -0.5300
 1504SOL    HW2 6014   0.901   1.010   2.525 -2.2286  0.5136 -0.2873
 1504SOL    HW3 6015   0.898   1.103   2.405  0.2898  0.3272 -0.5266
 1504SOL    MW4 6016   0.907   1.090   2.491 -0.0217  0.3072 -0.4976
 1505SOL     OW 6017   1.124   1.251   2.641  0.2951  0.2331 -0.2133
 1505SOL    HW2 6018   1.123   1.343   2.613 -1.5693  0.3752  0.2573
 1505SOL    HW3 6019   1.055   1.209   2.590 -1.0071 -0.1969  1.8202
 1505SOL    MW4 6020   1.115   1.258   2.631 -0.1227  0.1951  0.1171
 1506SOL     OW 6021   1.165   1.514   2.555 -0.4492 -0.0482  0.1115
 1506SOL    HW2 6022   1.099   1.578   2.582 -0.9321 -0.0883 -0.9534
 1506SOL    HW3 6023   1.158   1.511   2.460  1.9294  0.8637 -0.1402
 1506SOL    MW4 6024   1.156   1.522   2.546 -0.1991  0.0668 -0.0622
 1507SOL     OW 6025   0.944   1.673   2.610 -0.1569  0.3333  0.1108
 1507SOL    HW2 6026   0.937   1.660   2.704  1.2293 -1.6639 -0.0410
 1507SOL    HW3 6027   0.865   1.632   2.574 -0.1705  0.1688  0.3278
 1507SOL    MW4 6028   0.933   1.666   2.617  0.0242  0.0481  0.1194
 1508SOL     OW 6029   0.913   1.941   2.578  0.3555 -0.3882  0.0044
 1508SOL    HW2 6030   0.976   1.989   2.632  0.4057 -0.8847  0.3911
 1508SOL    HW3 6031   0.938   1.849   2.589 -1.2450 -0.6867  1.1682
 1508SOL    MW4 6032   0.925   1.935   2.586  0.1509 -0.4931  0.2089
 1509SOL     OW 6033   1.127   2.098   2.675  0.1344  0.2820  0.5866
 1509SOL    HW2 6034   1.191   2.052   2.621 -0.8542 -0.7699  0.3046
 1509SOL    HW3 6035   1.114   2.181   2.629  0.0377 -0.1934 -0.2572
 1509SOL    MW4 6036   1.134   2.103   2.662 -0.0088  0.0805  0.4381
 1510SOL     OW 6037   1.136   2.321   2.525  0.6143  0.0048 -0.8625
 1510SOL    HW2 6038   1.139   2.313   2.429 -0.1775  1.6670 -1.0422
 1510SOL    HW3 6039   1.223   2.351   2.549  0.4922  0.6145 -1.1705
 1510SOL    MW4 6040   1.148   2.324   2.515  0.4937  0.3045 -0.9269
 1511SOL     OW 6041   0.894   2.454   2.618  0.3680  0.5047  0.1175
 1511SOL    HW2 6042   0.900   2.547   2.596  1.5460  0.2053 -0.9624
 1511SOL    HW3 6043   0.970   2.415   2.575 -0.4093 -1.0446  0.1084
 1511SOL    MW4 6044   0.905   2.461   2.609  0.4208  0.2608 -0.0262
 1512SOL     OW 6045   0.896   2.728   2.533 -0.3431  0.0379  0.0470
 1512SOL    HW2 6046   0.965   2.783   2.569 -0.4241  0.2569 -0.1316
 1512SOL    HW3 6047   0.815   2.763   2.570 -0.5875  1.3500 -1.6789
 1512SOL    MW4 6048   0.894   2.740   2.542 -0.3861  0.2399 -0.2043
 1513SOL     OW 6049   1.129   2.864   2.612  0.1278  0.2028  0.4418
 1513SOL    HW2 6050   1.200   2.822   2.562 -0.4082 -1.4454  1.0610
 1513SOL    HW3 6051   1.158   2.859   2.703 -0.9446 -0.8148  0.7344
 1513SOL    MW4 6052   1.142   2.858   2.617 -0.0844 -0.1489  0.5621
 1514SOL     OW 6053   1.103   3.118   2.527  0.4094  0.2622 -0.3931
 1514SOL    HW2 6054   1.091   3.024   2.540 -1.5700  0.6410  0.6061
 1514SOL    HW3 6055   1.121   3.126   2.433 -0.5966 -1.0142 -0.7204
 1514SOL    MW4 6056   1.104   3.107   2.516  0.0155  0.1438 -0.3044
 1515SOL     OW 6057   0.883   3.217   2.654  0.2563  0.2849  0.0953
 1515SOL    HW2 6058   0.885   3.311   2.635  1.1334  0.0892 -0.7762
 1515SOL    HW3 6059   0.957   3.181   2.607  0.5325 -0.7015  1.2669
 1515SOL    MW4 6060   0.893   3.225   2.645  0.4085  0.1289  0.1349
 1516SOL     OW 6061   0.887   3.462   2.536  0.0000  0.0000 -0.2497
 1516SOL    HW2 6062   0.961   3.508   2.576  0.0000  0.0000 -0.1642
 1516SOL    HW3 6063   0.810   3.511   2.565  0.0000  0.0000 -0.3564
 1516SOL    MW4 6064   0.887   3.475   2.545  0.0000  0.0000 -0.2525
 1517SOL     OW 6065   1.102   3.599   2.625  0.0000  0.0000  0.1868
 1517SOL    HW2 6066   1.101   3.626   2.717  0.0000  0.0000  0.1858
 1517SOL    HW3 6067   1.100   3.681   2.576  0.0000  0.0000  0.1839
 1517SOL    MW4 6068   1.102   3.613   2.631  0.0000  0.0000  0.1863
 1518SOL     OW 6069   1.098   3.851   2.510  0.0000  0.0000  0.4724
 1518SOL    HW2 6070   1.178   3.889   2.547  0.0000  0.0000  0.4717
 1518SOL    HW3 6071   1.110   3.859   2.415  0.0000  0.0000  0.4724
 1518SOL    MW4 6072   1.110   3.857   2.502  0.0000  0.0000  0.4723
 1519SOL     OW 6073   0.893   4.008   2.656  0.0000  0.0000 -0.0736
 1519SOL    HW2 6074   0.957   3.963   2.601  0.0000  0.0000 -0.1151
 1519SOL    HW3 6075   0.809   3.969   2.630  0.0000  0.0000 -0.0202
 1519SOL    MW4 6076   0.890   3.997   2.646  0.0000  0.0000 -0.0720
 1520SOL     OW 6077   0.888   4.266   2.555  0.0000  0.0000 -0.3844
 1520SOL    HW2 6078   0.892   4.174   2.580  0.0000  0.0000 -0.3909
 1520SOL    HW3 6079   0.884   4.265   2.459  0.0000  0.0000 -0.3846
 1520SOL    MW4 6080   0.888   4.254   2.546  0.0000  0.0000 -0.3853
 1521SOL     OW 6081   1.144   4.351   2.624  0.0000  0.0000  0.1505
 1521SOL    HW2 6082   1.137   4.378   2.715  0.0000  0.0000  0.1496
 1521SOL    HW3 6083   1.055   4.327   2.599  0.0000  0.0000  0.1410
 1521SOL    MW4 6084   1.131   4.351   2.633  0.0000  0.0000  0.1492
 1522SOL     OW 6085   1.593   4.643   2.540  0.0000  0.0000  0.3092
 1522SOL    HW2 6086   1.588   4.549   2.556  0.0000  0.0000  0.2967
 1522SOL    HW3 6087   1.581   4.652   2.446  0.0000  0.0000  0.3099
 1522SOL    MW4 6088   1.591   4.632   2.530  0.0000  0.0000  0.3076
 1523SOL     OW 6089   1.351   0.086   2.620  0.0000  0.0000 -0.4327
 1523SOL    HW2 6090   1.350   0.171   2.574  0.0000  0.0000 -0.4286
 1523SOL    HW3 6091   1.437   0.049   2.599  0.0000  0.0000 -0.4237
 1523SOL    MW4 6092   1.362   0.092   2.611  0.0000  0.0000 -0.4310
 1524SOL     OW 6093   1.360   0.344   2.501  0.0000  0.0000  0.0990
 1524SOL    HW2 6094   1.437   0.387   2.539  0.0000  0.0000  0.0954
 1524SOL    HW3 6095   1.286   0.395   2.535  0.0000  0.0000  0.1297
 1524SOL    MW4 6096   1.360   0.356   2.510  0.0000  0.0000  0.1026
 1525SOL     OW 6097   1.599   0.448   2.612 -0.6118 -0.5373 -0.3339
 1525SOL    HW2 6098   1.670   0.408   2.562  0.5463  0.8069  0.2071
 1525SOL    HW3 6099   1.588   0.535   2.573 -0.8210 -0.1049  0.6766
 1525SOL    MW4 6100   1.607   0.455   2.600 -0.4866 -0.3029 -0.1292
 1526SOL     OW 6101   1.578   0.717   2.503 -0.2624 -0.1071  0.3911
 1526SOL    HW2 6102   1.504   0.774   2.526  0.4758  1.2328 -0.4858
 1526SOL    HW3 6103   1.574   0.711   2.407  0.3404 -0.6406  0.3979
 1526SOL    MW4 6104   1.568   0.724   2.493 -0.0855 -0.0007  0.2763
 1527SOL     OW 6105   1.350   0.861   2.593  0.0585 -0.0141 -0.4913
 1527SOL    HW2 6106   1.349   0.865   2.688  0.2481 -1.1512 -0.4290
 1527SOL    HW3 6107   1.356   0.952   2.564 -1.7428  0.4458  0.5407
 1527SOL    MW4 6108   1.351   0.873   2.601 -0.1542 -0.1034 -0.3469
 1528SOL     OW 6109   1.353   1.132   2.545  0.2922 -0.2598 -0.0516
 1528SOL    HW2 6110   1.433   1.162   2.589  1.1136  0.6398 -2.0646
 1528SOL    HW3 6111   1.282   1.176   2.591  1.2203  1.5989 -0.3468
 1528SOL    MW4 6112   1.354   1.142   2.557  0.5230  0.1041 -0.3561
 1529SOL     OW 6113   1.574   1.221   2.659 -0.3490 -0.1506 -0.4497
 1529SOL    HW2 6114   1.596   1.228   2.752 -0.9951  0.3858 -0.3340
 1529SOL    HW3 6115   1.654   1.191   2.617  0.0957  0.1160  0.2112
 1529SOL    MW4 6116   1.587   1.218   2.666 -0.3756 -0.0447 -0.3472
 1530SOL     OW 6117   1.577   1.505   2.586  0.3395  0.3471  0.0643
 1530SOL    HW2 6118   1.545   1.418   2.607 -1.1099  0.5605 -1.1786
 1530SOL    HW3 6119   1.574   1.510   2.491 -2.7902  2.8849  0.1869
 1530SOL    MW4 6120   1.573   1.494   2.577 -0.2646  0.7101 -0.0835
 1531SOL     OW 6121   1.376   1.685   2.628  0.0548  0.3396  0.1375
 1531SOL    HW2 6122   1.301   1.629   2.606 -0.1390  1.4033 -1.9894
 1531SOL    HW3 6123   1.452   1.630   2.612 -0.2147 -0.5940  1.8661
 1531SOL    MW4 6124   1.376   1.670   2.623 -0.0063  0.3567  0.0850
 1532SOL     OW 6125   1.337   1.959   2.550  0.1701  0.0781 -0.2995
 1532SOL    HW2 6126   1.361   1.873   2.585  1.9641  0.2173 -1.1601
 1532SOL    HW3 6127   1.334   1.946   2.455  0.8416  1.0578 -0.4579
 1532SOL    MW4 6128   1.340   1.946   2.542  0.4954  0.2257 -0.4339
 1533SOL     OW 6129   1.581   2.058   2.650 -0.1678  0.5441 -0.3361
 1533SOL    HW2 6130   1.643   1.996   2.610  0.4852  1.7326 -1.1854
 1533SOL    HW3 6131   1.497   2.038   2.609  0.2180  0.7934 -1.2650
 1533SOL    MW4 6132   1.578   2.047   2.639 -0.0308  0.7338 -0.5707
 1534SOL     OW 6133   1.643   2.310   2.500 -0.0720  0.0781  0.2262
 1534SOL    HW2 6134   1.716   2.350   2.547  0.0139 -0.4823  0.5757
 1534SOL    HW3 6135   1.644   2.218   2.527 -0.5680 -0.0549 -0.1905
 1534SOL    MW4 6136   1.653   2.303   2.510 -0.1261 -0.0134  0.2174
 1535SOL     OW 6137   1.395   2.415   2.602 -0.2264 -0.2533  0.0666
 1535SOL    HW2 6138   1.406   2.508   2.584 -1.0087 -0.1705 -0.0072
 1535SOL    HW3 6139   1.477   2.374   2.574 -0.2563  0.2802 -0.8011
 1535SOL    MW4 6140   1.407   2.422   2.596 -0.3335 -0.1720 -0.0576
 1536SOL     OW 6141   1.353   2.685   2.496  0.1509  0.3135 -0.0244
 1536SOL    HW2 6142   1.436   2.719   2.530 -0.8572  2.6785  0.1459
 1536SOL    HW3 6143   1.365   2.683   2.401  0.2259  1.1239 -0.0327
 1536SOL    MW4 6144   1.366   2.689   2.488  0.0278  0.7325 -0.0030
 1537SOL     OW 6145   1.582   2.806   2.567 -0.0052  0.5812 -0.0719
 1537SOL    HW2 6146   1.584   2.815   2.663 -1.4637 -2.0952  0.2616
 1537SOL    HW3 6147   1.671   2.780   2.544 -0.0314 -0.2742  0.7467
 1537SOL    MW4 6148   1.594   2.804   2.577 -0.2011  0.1152  0.0802
 1538SOL     OW 6149   1.518   3.086   2.512 -0.0692 -0.1583  0.2479
 1538SOL    HW2 6150   1.590   3.144   2.536  0.2386 -0.4779  0.0995
 1538SOL    HW3 6151   1.546   2.999   2.541 -0.0917 -0.3962 -0.4514
 1538SOL    MW4 6152   1.531   3.082   2.519 -0.0316 -0.2319  0.1360
 1539SOL     OW 6153   1.325   3.230   2.647 -0.1548  0.1335  0.1942
 1539SOL    HW2 6154   1.395   3.182   2.603 -0.6840  0.8407 -1.4616
 1539SOL    HW3 6155   1.246   3.205   2.600 -0.4888  2.3550 -0.4898
 1539SOL    MW4 6156   1.324   3.220   2.635 -0.2687  0.5199 -0.1145
 1540SOL     OW 6157   1.331   3.475   2.519 -0.6594 -0.1256 -0.2723
 1540SOL    HW2 6158   1.347   3.401   2.578  0.6173  1.0020  0.8293
 1540SOL    HW3 6159   1.259   3.522   2.560  0.2901  0.7109  0.4547
 1540SOL    MW4 6160   1.323   3.471   2.532 -0.3657  0.1336 -0.0310
 1541SOL     OW 6161   1.562   3.607   2.619 -0.3031 -0.0782  0.1354
 1541SOL    HW2 6162   1.633   3.556   2.580 -0.3618 -0.3829  0.4316
 1541SOL    HW3 6163   1.482   3.571   2.579 -0.2380  0.7829 -0.7864
 1541SOL    MW4 6164   1.561   3.596   2.608 -0.3023 -0.0048  0.0529
 1542SOL     OW 6165   1.591   3.869   2.510  0.0810  0.3134  0.2848
 1542SOL    HW2 6166   1.507   3.897   2.546  0.7436  0.9267  1.3510
 1542SOL    HW3 6167   1.601   3.778   2.539 -0.0648  0.3360  0.4030
 1542SOL    MW4 6168   1.581   3.860   2.518  0.1492  0.3973  0.4410
 1543SOL     OW 6169   1.334   3.979   2.607 -0.3647 -0.4644 -0.0430
 1543SOL    HW2 6170   1.351   4.000   2.699 -4.4550  1.2025  0.4509
 1543SOL    HW3 6171   1.351   4.061   2.561 -1.1718 -0.4407 -0.3151
 1543SOL    MW4 6172   1.338   3.993   2.613 -1.0108 -0.2413 -0.0137
 1544SOL     OW 6173   1.384   4.242   2.516  0.2688 -0.4784  0.3206
 1544SOL    HW2 6174   1.304   4.273   2.559  1.1405  1.4650  0.5977
 1544SOL    HW3 6175   1.372   4.267   2.424  0.2060 -0.9164  0.2097
 1544SOL    MW4 6176   1.372   4.249   2.509  0.3755 -0.2798  0.3425
 1545SOL     OW 6177   1.608   4.370   2.579  0.4661  0.1893 -0.1677
 1545SOL    HW2 6178   1.601   4.347   2.672  0.6211  0.8313  0.0006
 1545SOL    HW3 6179   1.528   4.334   2.541  0.8411 -0.8996  0.0363
 1545SOL    MW4 6180   1.596   4.362   2.587  0.5361  0.1303 -0.1186
 1546SOL     OW 6181   2.048   4.577   2.531  0.1543 -0.1200  0.1238
 1546SOL    HW2 6182   2.120   4.637   2.550  0.1877 -0.3751  0.8070
 1546SOL    HW3 6183   2.039   4.580   2.436  0.6189  0.4312  0.0969
 1546SOL    MW4 6184   2.057   4.585   2.521  0.2200 -0.0810  0.2104
 1547SOL     OW 6185   1.835   0.083   2.608 -0.4609 -0.1406 -0.5661
 1547SOL    HW2 6186   1.897   0.023   2.566 -1.7529 -2.4847  0.8296
 1547SOL    HW3 6187   1.749   0.044   2.593 -1.1707  0.4008  1.8838
 1547SOL    MW4 6188   1.832   0.070   2.600 -0.7251 -0.3785 -0.0587
 1548SOL     OW 6189   1.843   0.345   2.515 -0.0692  0.1723 -0.1979
 1548SOL    HW2 6190   1.913   0.390   2.563  0.8952 -1.1183 -0.3676
 1548SOL    HW3 6191   1.852   0.253   2.540 -1.8063 -0.0084 -0.1156
 1548SOL    MW4 6192   1.853   0.338   2.525 -0.1712 -0.0218 -0.2094
 1549SOL     OW 6193   2.051   0.473   2.634  0.0964 -0.6518 -0.3437
 1549SOL    HW2 6194   2.109   0.423   2.577  0.2450 -0.6124 -0.2273
 1549SOL    HW3 6195   2.044   0.559   2.593 -0.5394 -0.9111 -0.8026
 1549SOL    MW4 6196   2.057   0.478   2.621  0.0321 -0.6808 -0.3889
 1550SOL     OW 6197   2.044   0.740   2.526 -0.1292  0.1066  0.1042
 1550SOL    HW2 6198   1.958   0.779   2.543  0.0656  0.4133  0.3841
 1550SOL    HW3 6199   2.041   0.714   2.434 -0.6827 -0.2866  0.2343
 1550SOL    MW4 6200   2.032   0.742   2.516 -0.1765  0.0952  0.1583
 1551SOL     OW 6201   1.809   0.851   2.612  0.4869  0.3693 -0.4025
 1551SOL    HW2 6202   1.805   0.945   2.594  0.5396  0.4650  0.0926
 1551SOL    HW3 6203   1.734   0.814   2.565  1.7828  0.3492 -2.5133
 1551SOL    MW4 6204   1.798   0.858   2.603  0.6649  0.3793 -0.6157
 1552SOL     OW 6205   1.824   1.119   2.570  0.2868 -0.6363  0.3863
 1552SOL    HW2 6206   1.905   1.167   2.591  0.0734  0.5852 -1.4724
 1552SOL    HW3 6207   1.812   1.133   2.476 -1.4852 -1.7644  0.4327
 1552SOL    MW4 6208   1.833   1.127   2.560  0.0249 -0.6240  0.1472
 1553SOL     OW 6209   2.032   1.279   2.627 -0.1306  0.0812 -0.3043
 1553SOL    HW2 6210   2.055   1.278   2.720 -0.1253 -1.0847 -0.3073
 1553SOL    HW3 6211   2.101   1.227   2.586 -0.0407  0.7372 -0.9896
 1553SOL    MW4 6212   2.045   1.272   2.634 -0.1181  0.0139 -0.3951
 1554SOL     OW 6213   2.000   1.535   2.520 -0.1042 -0.0289 -0.4360
 1554SOL    HW2 6214   1.943   1.575   2.586 -0.3903  0.4990 -0.9938
 1554SOL    HW3 6215   1.998   1.442   2.540  1.2837  0.3147  1.4260
 1554SOL    MW4 6216   1.992   1.528   2.531  0.0412  0.0861 -0.2639
 1555SOL     OW 6217   1.803   1.639   2.684 -0.6416  0.3881 -0.0061
 1555SOL    HW2 6218   1.796   1.654   2.779  0.9979 -0.1513  0.2060
 1555SOL    HW3 6219   1.731   1.579   2.665  0.1476 -1.0080  1.2474
 1555SOL    MW4 6220   1.792   1.633   2.694 -0.3212  0.1327  0.1873
 1556SOL     OW 6221   1.778   1.877   2.543 -0.5060 -0.1063 -0.4435
 1556SOL    HW2 6222   1.859   1.922   2.568 -1.1305  1.0398 -0.4215
 1556SOL    HW3 6223   1.777   1.797   2.596  0.1756  0.3182  0.2129
 1556SOL    MW4 6224   1.788   1.872   2.553 -0.4985  0.1009 -0.3540
 1557SOL     OW 6225   2.020   2.004   2.643  0.1124 -0.1387  0.0545
 1557SOL    HW2 6226   2.012   2.005   2.738  2.0007 -0.9437  0.2421
 1557SOL    HW3 6227   2.020   2.097   2.618 -0.1060  0.0813  0.8570
 1557SOL    MW4 6228   2.019   2.017   2.652  0.3327 -0.2159  0.1851
 1558SOL     OW 6229   2.028   2.270   2.544 -0.3398  0.6010 -0.3129
 1558SOL    HW2 6230   2.088   2.338   2.574  0.9734 -0.4180 -0.5953
 1558SOL    HW3 6231   2.021   2.283   2.449  0.2030  0.1276 -0.4225
 1558SOL    MW4 6232   2.035   2.281   2.535 -0.0949  0.4041 -0.3646
 1559SOL     OW 6233   1.850   2.468   2.629 -0.0904 -0.2323  0.2634
 1559SOL    HW2 6234   1.860   2.468   2.725  4.1965  0.5201 -0.0738
 1559SOL    HW3 6235   1.917   2.407   2.599 -0.7266  0.3140 -2.3328
 1559SOL    MW4 6236   1.861   2.460   2.638  0.3913 -0.0610 -0.1237
 1560SOL     OW 6237   1.832   2.717   2.493 -0.0746 -0.2612 -0.2703
 1560SOL    HW2 6238   1.820   2.722   2.398 -2.2623 -0.3997 -0.0351
 1560SOL    HW3 6239   1.829   2.624   2.513  0.3523 -0.2312 -0.0647
 1560SOL    MW4 6240   1.830   2.706   2.483 -0.3070 -0.2755 -0.2121
 1561SOL     OW 6241   2.048   2.822   2.611  0.7324  0.3590  0.1042
 1561SOL    HW2 6242   2.120   2.775   2.569  0.8772  0.9007 -0.2588
 1561SOL    HW3 6243   1.970   2.775   2.584  0.8144  0.7678 -0.8621
 1561SOL    MW4 6244   2.047   2.810   2.602  0.7623  0.4844 -0.0712
 1562SOL     OW 6245   2.013   3.085   2.491  0.0114  0.0784 -0.3477
 1562SOL    HW2 6246   2.017   2.994   2.520 -2.0399  0.6699  1.9027
 1562SOL    HW3 6247   2.014   3.079   2.396 -0.0149 -2.2937 -0.2439
 1562SOL    MW4 6248   2.014   3.072   2.482 -0.2627 -0.1565 -0.0371
 1563SOL     OW 6249   1.759   3.205   2.581 -0.1637 -0.1163 -0.1179
 1563SOL    HW2 6250   1.762   3.300   2.569 -0.6712 -0.0847 -0.0187
 1563SOL    HW3 6251   1.841   3.173   2.544 -0.4529  0.2526 -1.0794
 1563SOL    MW4 6252   1.770   3.214   2.575 -0.2688 -0.0634 -0.2316
 1564SOL     OW 6253   1.778   3.475   2.523  0.0481 -0.7734 -0.1103
 1564SOL    HW2 6254   1.850   3.537   2.533  0.3807 -0.8268 -1.9299
 1564SOL    HW3 6255   1.768   3.465   2.428 -2.3913 -0.7535  0.1210
 1564SOL    MW4 6256   1.786   3.482   2.512 -0.2299 -0.7779 -0.3199
 1565SOL     OW 6257   2.013   3.614   2.573  0.2268  0.0471 -0.4647
 1565SOL    HW2 6258   2.016   3.617   2.668 -0.6813  0.8148 -0.4476
 1565SOL    HW3 6259   2.086   3.558   2.548 -0.3848 -1.3216  0.7459
 1565SOL    MW4 6260   2.023   3.607   2.582  0.0263 -0.0322 -0.3027
 1566SOL     OW 6261   2.003   3.898   2.553  0.1351  0.1203 -0.2007
 1566SOL    HW2 6262   1.914   3.929   2.566  0.2628  1.1307 -1.6921
 1566SOL    HW3 6263   1.996   3.803   2.554 -0.9838  0.1989 -0.5507
 1566SOL    MW4 6264   1.990   3.890   2.555  0.0043  0.2640 -0.4437
 1567SOL     OW 6265   1.767   4.040   2.634  0.1327 -0.2329  0.7385
 1567SOL    HW2 6266   1.791   4.121   2.589 -0.6262 -0.5081 -0.1559
 1567SOL    HW3 6267   1.695   4.003   2.583 -0.8446 -0.4763  2.2568
 1567SOL    MW4 6268   1.761   4.046   2.622 -0.0964 -0.3014  0.8208
 1568SOL     OW 6269   1.879   4.274   2.509  0.2342  0.1385 -0.1732
 1568SOL    HW2 6270   1.815   4.327   2.556  0.1570 -1.6710  1.8746
 1568SOL    HW3 6271   1.857   4.285   2.417 -2.6982 -0.0267  0.4687
 1568SOL    MW4 6272   1.868   4.282   2.503 -0.1628 -0.1220  0.1817
 1569SOL     OW 6273   2.028   4.420   2.787  0.0757  0.0177 -0.2211
 1569SOL    HW2 6274   2.048   4.427   2.694 -2.2100 -0.2487 -0.7597
 1569SOL    HW3 6275   2.036   4.509   2.820  1.6164 -0.0042 -0.5084
 1569SOL    MW4 6276   2.032   4.433   2.779 -0.0226 -0.0203 -0.3301
 1570SOL     OW 6277   2.464   4.617   2.489  0.0236  0.4614 -0.0356
 1570SOL    HW2 6278   2.538   4.664   2.527 -0.2205  3.0187 -2.5601
 1570SOL    HW3 6279   2.475   4.626   2.394 -1.8742 -1.7523 -0.5248
 1570SOL    MW4 6280   2.475   4.624   2.481 -0.2590  0.5067 -0.4332
 1571SOL     OW 6281   2.240   0.102   2.592  0.3725  0.2888  0.1421
 1571SOL    HW2 6282   2.258   0.089   2.685  0.4138 -2.8004 -0.2292
 1571SOL    HW3 6283   2.315   0.062   2.548 -0.1586  0.7916 -1.2389
 1571SOL    MW4 6284   2.252   0.095   2.598  0.3079 -0.0524 -0.0891
 1572SOL     OW 6285   2.266   0.355   2.465  0.3648  0.4340 -0.1530
 1572SOL    HW2 6286   2.252   0.261   2.482  0.6630  0.6999  1.7533
 1572SOL    HW3 6287   2.268   0.362   2.370 -3.3200 -0.9605 -0.4394
 1572SOL    MW4 6288   2.264   0.343   2.455 -0.0820  0.2851  0.0607
 1573SOL     OW 6289   2.444   0.502   2.612 -0.0419 -0.2696 -0.0131
 1573SOL    HW2 6290   2.448   0.593   2.582 -0.5639 -0.1451  0.2857
 1573SOL    HW3 6291   2.376   0.462   2.557 -0.6638 -0.1638  0.6593
 1573SOL    MW4 6292   2.435   0.509   2.601 -0.1928 -0.2392  0.1151
 1574SOL     OW 6293   2.479   0.760   2.539 -0.2425  0.0266  0.0300
 1574SOL    HW2 6294   2.401   0.811   2.561 -0.6273 -0.0907 -1.0198
 1574SOL    HW3 6295   2.501   0.787   2.450 -0.1297 -1.2218 -0.3409
 1574SOL    MW4 6296   2.472   0.770   2.530 -0.2784 -0.1536 -0.1574
 1575SOL     OW 6297   2.252   0.917   2.613 -0.2163  0.0257 -0.4315
 1575SOL    HW2 6298   2.264   0.909   2.708 -2.9682  0.7276  0.0354
 1575SOL    HW3 6299   2.179   0.859   2.593 -1.3945  1.8514 -1.6512
 1575SOL    MW4 6300   2.244   0.909   2.623 -0.7349  0.3592 -0.5308
 1576SOL     OW 6301   2.229   1.149   2.484 -0.2201 -0.0626 -0.1933
 1576SOL    HW2 6302   2.239   1.059   2.515  1.8034 -0.0243 -0.6485
 1576SOL    HW3 6303   2.222   1.140   2.389  1.0019  0.3147 -0.3262
 1576SOL    MW4 6304   2.229   1.136   2.476  0.2081 -0.0078 -0.2709
 1577SOL     OW 6305   2.472   1.282   2.604 -0.0067  0.0451  0.2451
 1577SOL    HW2 6306   2.538   1.229   2.559  0.4748  2.2212 -1.7099
 1577SOL    HW3 6307   2.389   1.256   2.564  0.6349  3.6940 -3.9174
 1577SOL    MW4 6308   2.470   1.272   2.593  0.1415  0.8136 -0.5620
 1578SOL     OW 6309   2.461   1.550   2.563  0.0679 -0.1846  0.2281
 1578SOL    HW2 6310   2.381   1.581   2.606  0.2986 -0.3752  0.8098
 1578SOL    HW3 6311   2.461   1.456   2.578 -0.8017 -0.5398 -1.8363
 1578SOL    MW4 6312   2.450   1.542   2.571 -0.0164 -0.2566  0.0325
 1579SOL     OW 6313   2.217   1.634   2.667 -0.5028 -0.4574 -0.4021
 1579SOL    HW2 6314   2.223   1.718   2.622 -2.5389  0.3675  0.8088
 1579SOL    HW3 6315   2.145   1.588   2.623  0.0676 -1.2341 -0.5280
 1579SOL    MW4 6316   2.208   1.639   2.655 -0.6962 -0.4511 -0.2590
 1580SOL     OW 6317   2.234   1.865   2.523  0.2734  0.1047  0.2744
 1580SOL    HW2 6318   2.160   1.905   2.567  0.4045  1.9457 -1.1400
 1580SOL    HW3 6319   2.211   1.866   2.430  2.1168  0.8429 -0.2033
 1580SOL    MW4 6320   2.221   1.870   2.516  0.5339  0.4450  0.0248
 1581SOL     OW 6321   2.465   2.013   2.592  0.7205  0.1514  0.6814
 1581SOL    HW2 6322   2.455   2.107   2.577  2.2419  0.5486  2.0494
 1581SOL    HW3 6323   2.379   1.976   2.569 -1.1181  2.3405  3.6879
 1581SOL    MW4 6324   2.452   2.020   2.587  0.6786  0.4926  1.2586
 1582SOL     OW 6325   2.470   2.283   2.530 -0.0911 -0.1007 -0.0341
 1582SOL    HW2 6326   2.543   2.329   2.571 -0.3765 -0.3647  0.7848
 1582SOL    HW3 6327   2.466   2.319   2.441 -0.4071  1.5724  0.6337
 1582SOL    MW4 6328   2.479   2.294   2.524 -0.1704  0.0852  0.1621
 1583SOL     OW 6329   2.239   2.436   2.633  0.3795 -0.0304 -0.0908
 1583SOL    HW2 6330   2.241   2.449   2.728  0.3523  0.5176 -0.1667
 1583SOL    HW3 6331   2.325   2.400   2.612  0.0912 -0.9510  0.2549
 1583SOL    MW4 6332   2.251   2.433   2.643  0.3378 -0.0796 -0.0552
 1584SOL     OW 6333   2.263   2.683   2.479 -0.1083  0.6407 -0.3767
 1584SOL    HW2 6334   2.344   2.727   2.505  0.5782 -0.5091 -0.5692
 1584SOL    HW3 6335   2.260   2.604   2.533 -1.0905  0.6616 -0.3951
 1584SOL    MW4 6336   2.273   2.679   2.490 -0.1473  0.4917 -0.4045
 1585SOL     OW 6337   2.450   2.846   2.619 -0.6347  0.1039  0.4901
 1585SOL    HW2 6338   2.518   2.780   2.603  0.1702  0.5746  1.8896
 1585SOL    HW3 6339   2.486   2.927   2.581 -1.1526 -0.0205 -0.2685
 1585SOL    MW4 6340   2.464   2.848   2.612 -0.5968  0.1496  0.5747
 1586SOL     OW 6341   2.492   3.111   2.517 -0.1010 -0.0408 -0.2306
 1586SOL    HW2 6342   2.411   3.149   2.550 -0.3528 -0.2593 -0.5898
 1586SOL    HW3 6343   2.477   3.102   2.422  0.2610 -0.2750 -0.2668
 1586SOL    MW4 6344   2.479   3.115   2.509 -0.0864 -0.1006 -0.2828
 1587SOL     OW 6345   2.247   3.214   2.574 -0.1450 -0.6429 -0.1606
 1587SOL    HW2 6346   2.245   3.225   2.669 -0.5619  0.1493 -0.2550
 1587SOL    HW3 6347   2.163   3.175   2.552  0.1674 -1.3318 -0.1501
 1587SOL    MW4 6348   2.236   3.211   2.584 -0.1588 -0.6293 -0.1717
 1588SOL     OW 6349   2.451   3.632   2.606  0.3157  0.4245 -0.2018
 1588SOL    HW2 6350   2.432   3.722   2.577 -0.5712  0.6877  1.1422
 1588SOL    HW3 6351   2.455   3.639   2.701 -0.2009 -1.0526 -0.0693
 1588SOL    MW4 6352   2.449   3.645   2.615  0.1306  0.2643 -0.0070
 1589SOL     OW 6353   2.436   3.871   2.485 -0.1330 -0.4441 -0.0964
 1589SOL    HW2 6354   2.368   3.927   2.522 -0.3526 -0.3129 -0.6803
 1589SOL    HW3 6355   2.519   3.909   2.514 -0.2675  0.5234 -0.9544
 1589SOL    MW4 6356   2.438   3.883   2.493 -0.1797 -0.2991 -0.2867
 1590SOL     OW 6357   2.677   3.959   2.574  0.4536 -0.1166 -0.1153
 1590SOL    HW2 6358   2.759   3.936   2.531 -0.0655  1.4117 -2.0264
 1590SOL    HW3 6359   2.667   4.053   2.558 -0.4564  0.2132  2.2016
 1590SOL    MW4 6360   2.686   3.969   2.566  0.2650  0.1285 -0.0618
 1591SOL     OW 6361   2.233   4.032   2.605 -0.5973 -0.0903 -0.3054
 1591SOL    HW2 6362   2.238   4.040   2.700 -1.5087 -0.9795 -0.1705
 1591SOL    HW3 6363   2.151   3.985   2.589 -0.4373  0.0221 -1.5270
 1591SOL    MW4 6364   2.223   4.027   2.615 -0.6964 -0.1928 -0.4488
 1592SOL     OW 6365   2.170   4.273   2.511 -0.3746  0.1031  0.2047
 1592SOL    HW2 6366   2.193   4.188   2.549  0.9833  0.6461  0.5948
 1592SOL    HW3 6367   2.074   4.274   2.513 -0.3928 -1.2247  0.6252
 1592SOL    MW4 6368   2.160   4.262   2.516 -0.1979 -0.0005  0.3117
 1593SOL     OW 6369   2.429   4.367   2.605  0.0020  0.5736  1.3585
 1593SOL    HW2 6370   2.336   4.357   2.584  0.4320 -0.8946  0.0368
 1593SOL    HW3 6371   2.454   4.450   2.564 -0.0727 -0.4120 -0.7362
 1593SOL    MW4 6372   2.420   4.377   2.596  0.0489  0.2499  0.9078
 1594SOL     OW 6373   2.914   4.632   2.559 -0.1364  0.6265 -0.5467
 1594SOL    HW2 6374   3.004   4.666   2.564 -0.1415  0.5366  0.2251
 1594SOL    HW3 6375   2.892   4.636   2.466  0.6585  0.6803 -0.7348
 1594SOL    MW4 6376   2.923   4.637   2.547 -0.0322  0.6217 -0.4697
 1595SOL     OW 6377   2.705   0.139   2.632 -0.2083  0.4181  0.1036
 1595SOL    HW2 6378   2.704   0.135   2.728  0.3701  2.0478  0.2049
 1595SOL    HW3 6379   2.794   0.112   2.608  0.0940  1.3653  0.1246
 1595SOL    MW4 6380   2.717   0.135   2.641 -0.0921  0.7581  0.1198
 1596SOL     OW 6381   2.683   0.403   2.525 -0.4858  0.0435 -0.0448
 1596SOL    HW2 6382   2.691   0.315   2.561  2.6018  0.8262  1.3332
 1596SOL    HW3 6383   2.599   0.435   2.559  0.4826 -0.7164  3.2222
 1596SOL    MW4 6384   2.673   0.396   2.534  0.0493  0.0465  0.5680
 1597SOL     OW 6385   2.891   0.532   2.668 -0.5699 -0.0511 -0.2782
 1597SOL    HW2 6386   2.929   0.604   2.617  0.8188 -1.4116 -1.2045
 1597SOL    HW3 6387   2.829   0.491   2.609 -0.5691 -0.2805 -0.1185
 1597SOL    MW4 6388   2.888   0.536   2.653 -0.3866 -0.2608 -0.3794
 1598SOL     OW 6389   2.951   0.747   2.500  0.0829  0.1307  0.9600
 1598SOL    HW2 6390   3.026   0.794   2.537 -0.6832 -0.3119  3.1476
 1598SOL    HW3 6391   2.875   0.790   2.539 -0.8555  0.9675 -1.6943
 1598SOL    MW4 6392   2.951   0.759   2.510 -0.1420  0.1827  0.8984
 1599SOL     OW 6393   2.726   0.843   2.649  0.3069 -0.1351  0.0623
 1599SOL    HW2 6394   2.718   0.866   2.742 -0.0038  0.0186 -0.0027
 1599SOL    HW3 6395   2.639   0.812   2.624  0.1015  0.8423 -0.4543
 1599SOL    MW4 6396   2.714   0.842   2.658  0.2388  0.0141 -0.0144
 1600SOL     OW 6397   2.659   1.102   2.537  0.1992 -0.1659 -0.4811
 1600SOL    HW2 6398   2.744   1.145   2.550 -0.2310  0.5594 -0.0130
 1600SOL    HW3 6399   2.668   1.017   2.580  0.7183 -0.1325 -0.5203
 1600SOL    MW4 6400   2.671   1.097   2.544  0.2109 -0.0658 -0.4245
 1601SOL     OW 6401   2.891   1.222   2.579 -0.1736  0.3365  0.5264
 1601SOL    HW2 6402   2.917   1.223   2.671  2.0754  0.9914 -0.0945
 1601SOL    HW3 6403   2.962   1.177   2.535 -1.0269  0.4361 -0.9656
 1601SOL    MW4 6404   2.904   1.216   2.586  0.0106  0.4360  0.2476
 1602SOL     OW 6405   2.919   1.494   2.490 -0.4405 -0.1029  0.0738
 1602SOL    HW2 6406   2.847   1.535   2.537  1.3314  0.5677  2.2702
 1602SOL    HW3 6407   2.930   1.409   2.532 -0.8310 -0.7757 -1.1608
 1602SOL    MW4 6408   2.911   1.488   2.502 -0.2582 -0.1032  0.2007
 1603SOL     OW 6409   2.720   1.626   2.615  0.3388 -0.0152 -0.0954
 1603SOL    HW2 6410   2.719   1.627   2.710 -1.4443  1.9448 -0.1003
 1603SOL    HW3 6411   2.630   1.608   2.589  0.6739  0.1151 -1.4186
 1603SOL    MW4 6412   2.708   1.624   2.624  0.1478  0.2606 -0.2707
 1604SOL     OW 6413   2.714   1.892   2.556  0.3678  0.1970 -0.6983
 1604SOL    HW2 6414   2.723   1.802   2.587  0.0150  0.0738 -0.9492
 1604SOL    HW3 6415   2.629   1.921   2.590  0.8521  0.7212  0.0866
 1604SOL    MW4 6416   2.704   1.884   2.565  0.3852  0.2499 -0.6279
 1605SOL     OW 6417   2.978   2.041   2.588  0.1143  0.4836  0.2988
 1605SOL    HW2 6418   2.952   2.129   2.562 -0.1577  0.6941  1.2692
 1605SOL    HW3 6419   2.896   1.992   2.593  0.2875  0.1153 -0.4620
 1605SOL    MW4 6420   2.964   2.046   2.585  0.1013  0.4628  0.3265
 1606SOL     OW 6421   2.924   2.306   2.475 -0.2157  0.1989 -0.4630
 1606SOL    HW2 6422   3.002   2.342   2.516 -0.4902 -0.2456  0.4635
 1606SOL    HW3 6423   2.851   2.349   2.522 -0.5354 -0.7496 -0.0828
 1606SOL    MW4 6424   2.924   2.317   2.487 -0.2941  0.0151 -0.2906
 1607SOL     OW 6425   2.718   2.434   2.622  0.0371  0.2701  0.2316
 1607SOL    HW2 6426   2.707   2.443   2.716  1.3319  2.1547  0.2229
 1607SOL    HW3 6427   2.699   2.521   2.587  1.4009  0.0691 -1.0541
 1607SOL    MW4 6428   2.714   2.447   2.630  0.3879  0.4922  0.0609
 1608SOL     OW 6429   2.672   2.675   2.509  0.4392 -0.3249  0.4389
 1608SOL    HW2 6430   2.757   2.715   2.523  1.1550 -1.4318 -0.6655
 1608SOL    HW3 6431   2.664   2.669   2.413 -0.2421 -1.5677  0.5639
 1608SOL    MW4 6432   2.682   2.680   2.498  0.4438 -0.6349  0.3097
 1609SOL     OW 6433   2.925   2.821   2.586 -0.7704  0.1956 -0.2010
 1609SOL    HW2 6434   2.946   2.803   2.678  0.0427  0.8564 -0.2472
 1609SOL    HW3 6435   2.920   2.916   2.581  0.6215  0.2296 -1.1406
 1609SOL    MW4 6436   2.927   2.831   2.598 -0.4795  0.2872 -0.3311
 1610SOL     OW 6437   2.941   3.097   2.529 -0.0217 -0.1541 -0.4999
 1610SOL    HW2 6438   2.866   3.151   2.556  0.6173  0.4713  0.0745
 1610SOL    HW3 6439   2.926   3.080   2.436 -0.8082  0.0778 -0.4234
 1610SOL    MW4 6440   2.929   3.102   2.521 -0.0411 -0.0410 -0.4141
 1611SOL     OW 6441   2.718   3.246   2.590  0.7895  0.3658 -0.3341
 1611SOL    HW2 6442   2.708   3.337   2.561 -1.2295  0.0419 -0.7509
 1611SOL    HW3 6443   2.638   3.203   2.559 -0.0895 -0.6759  3.1609
 1611SOL    MW4 6444   2.706   3.253   2.582  0.4072  0.1856  0.0721
 1612SOL     OW 6445   2.689   3.511   2.501  0.1933  0.1711 -0.4620
 1612SOL    HW2 6446   2.605   3.549   2.526 -0.0815 -0.2004 -0.8251
 1612SOL    HW3 6447   2.681   3.492   2.408  0.7983  0.4386 -0.5735
 1612SOL    MW4 6448   2.677   3.513   2.492  0.2369  0.1574 -0.5246
 1613SOL     OW 6449   2.919   3.615   2.604  0.1817 -0.5724 -0.2695
 1613SOL    HW2 6450   2.923   3.604   2.699 -0.4512 -1.5910 -0.3505
 1613SOL    HW3 6451   2.831   3.586   2.580 -0.3310  1.4817 -0.9486
 1613SOL    MW4 6452   2.908   3.610   2.613  0.0306 -0.4358 -0.3698
 1614SOL     OW 6453   2.944   3.851   2.483  0.3021  0.4635 -0.3000
 1614SOL    HW2 6454   2.998   3.899   2.545  1.8305  1.3657 -2.2427
 1614SOL    HW3 6455   2.935   3.764   2.521  1.8211  0.7707  0.8340
 1614SOL    MW4 6456   2.950   3.846   2.496  0.7042  0.6231 -0.4067
 1615SOL     OW 6457   2.638   3.932   2.860  0.2644 -0.3279 -0.1301
 1615SOL    HW2 6458   2.670   4.015   2.895  1.9588 -1.3675  0.8376
 1615SOL    HW3 6459   2.644   3.942   2.765  0.6991  0.5537 -0.0113
 1615SOL    MW4 6460   2.643   3.944   2.852  0.5453 -0.3488  0.0132
 1616SOL     OW 6461   2.675   4.219   2.535  0.2169 -0.1342 -0.1452
 1616SOL    HW2 6462   2.719   4.285   2.589  1.5392  1.3895 -2.9417
 1616SOL    HW3 6463   2.582   4.240   2.541  0.4629  0.7768  0.5758
 1616SOL    MW4 6464   2.669   4.230   2.543  0.4238  0.1870 -0.4190
 1617SOL     OW 6465   2.861   4.391   2.654 -0.1585  0.0491 -0.1101
 1617SOL    HW2 6466   2.861   4.408   2.748  1.1200 -0.5790  0.0122
 1617SOL    HW3 6467   2.896   4.471   2.615  0.8249 -0.2916  0.0696
 1617SOL    MW4 6468   2.865   4.404   2.661  0.1399 -0.0787 -0.0703
 1618SOL     OW 6469   3.362   4.596   2.461 -0.3708  0.0596 -0.1574
 1618SOL    HW2 6470   3.368   4.508   2.499 -0.5453  0.2021  0.2076
 1618SOL    HW3 6471   3.291   4.638   2.511  0.9555  1.0392  0.9341
 1618SOL    MW4 6472   3.353   4.590   2.473 -0.2188  0.2076  0.0348
 1619SOL     OW 6473   3.179   0.084   2.602  0.2923  0.3163  0.1593
 1619SOL    HW2 6474   3.172   0.076   2.697  1.5417  0.4844  0.2815
 1619SOL    HW3 6475   3.163   0.176   2.584  1.6861  0.6221  0.3923
 1619SOL    MW4 6476   3.176   0.095   2.612  0.6410  0.3788  0.2062
 1620SOL     OW 6477   3.102   0.354   2.578 -0.5601  0.3246  0.2717
 1620SOL    HW2 6478   3.048   0.424   2.614 -2.2167  0.2363 -1.9405
 1620SOL    HW3 6479   3.099   0.367   2.483  1.0698 -1.3370 -0.0490
 1620SOL    MW4 6480   3.095   0.365   2.570 -0.5636  0.0937 -0.0624
 1621SOL     OW 6481   3.355   0.459   2.651 -0.3579  0.5144  1.0945
 1621SOL    HW2 6482   3.359   0.545   2.611 -0.3845  1.2610  2.6602
 1621SOL    HW3 6483   3.285   0.413   2.604  0.1636  1.0701 -0.2388
 1621SOL    MW4 6484   3.346   0.464   2.640 -0.2926  0.6862  1.1251
 1622SOL     OW 6485   3.377   0.719   2.534  0.3217  0.1493 -0.0489
 1622SOL    HW2 6486   3.447   0.777   2.565  1.2008 -0.9907  0.1041
 1622SOL    HW3 6487   3.366   0.742   2.442  1.0950  0.1453 -0.1492
 1622SOL    MW4 6488   3.385   0.730   2.526  0.5397 -0.0016 -0.0420
 1623SOL     OW 6489   3.169   0.893   2.589  0.5813  0.3009 -0.0984
 1623SOL    HW2 6490   3.143   0.912   2.679  0.4619 -0.3618  0.0069
 1623SOL    HW3 6491   3.229   0.819   2.597  0.7652  0.4025 -0.5415
 1623SOL    MW4 6492   3.174   0.886   2.602  0.5898  0.2269 -0.1429
 1624SOL     OW 6493   3.130   1.137   2.471 -0.0455  0.2360 -0.0404
 1624SOL    HW2 6494   3.152   1.046   2.490  0.4728  0.4799  0.5507
 1624SOL    HW3 6495   3.129   1.142   2.375 -0.4293 -0.4735 -0.0681
 1624SOL    MW4 6496   3.133   1.126   2.461 -0.0277  0.1746  0.0339
 1625SOL     OW 6497   3.383   1.236   2.592 -0.4176  0.6045 -0.1652
 1625SOL    HW2 6498   3.360   1.218   2.682  0.8081  0.4471  0.1250
 1625SOL    HW3 6499   3.313   1.198   2.540 -2.0511  2.2433  0.7860
 1625SOL    MW4 6500   3.371   1.229   2.597 -0.4714  0.8000 -0.0014
 1626SOL     OW 6501   3.408   1.504   2.513 -0.8315 -0.5787 -0.7620
 1626SOL    HW2 6502   3.331   1.545   2.553 -0.0638  0.2441 -0.1164
 1626SOL    HW3 6503   3.400   1.411   2.535 -0.6714 -0.2133  0.9093
 1626SOL    MW4 6504   3.397   1.497   2.521 -0.7091 -0.4219 -0.4563
 1627SOL     OW 6505   3.153   1.612   2.592 -0.6416  0.0956  0.2033
 1627SOL    HW2 6506   3.161   1.695   2.546  1.7905 -0.9617 -1.3873
 1627SOL    HW3 6507   3.088   1.562   2.542  0.8946 -0.4822 -1.2547
 1627SOL    MW4 6508   3.146   1.616   2.580 -0.1180 -0.1201 -0.1989
 1628SOL     OW 6509   3.198   1.876   2.489 -0.1634  0.5653 -0.2929
 1628SOL    HW2 6510   3.280   1.912   2.521 -0.2562  1.4016 -0.9555
 1628SOL    HW3 6511   3.130   1.919   2.541 -0.0815 -2.1776  2.1634
 1628SOL    MW4 6512   3.200   1.886   2.500 -0.1648  0.3138 -0.0563
 1629SOL     OW 6513   3.400   2.040   2.571 -0.6773  0.4633 -0.2309
 1629SOL    HW2 6514   3.396   2.047   2.666  2.8485  1.1125 -0.0373
 1629SOL    HW3 6515   3.395   2.131   2.540 -0.3012  0.3760 -0.5575
 1629SOL    MW4 6516   3.399   2.053   2.580 -0.1625  0.5374 -0.2484
 1630SOL     OW 6517   3.361   2.299   2.477  0.0887 -0.3008  0.0826
 1630SOL    HW2 6518   3.437   2.350   2.503  1.3256 -1.7749 -0.5471
 1630SOL    HW3 6519   3.372   2.284   2.384 -0.4120 -1.4383  0.1935
 1630SOL    MW4 6520   3.372   2.303   2.468  0.1858 -0.6454  0.0141
 1631SOL     OW 6521   3.145   2.418   2.604 -0.3232 -0.2821  0.0142
 1631SOL    HW2 6522   3.146   2.512   2.582  0.6974 -0.0870  0.8498
 1631SOL    HW3 6523   3.223   2.384   2.561 -1.2833 -0.9719 -1.1993
 1631SOL    MW4 6524   3.155   2.426   2.595 -0.3152 -0.3473 -0.0357
 1632SOL     OW 6525   3.178   2.682   2.520 -0.7027  0.1099 -0.0470
 1632SOL    HW2 6526   3.257   2.734   2.535 -0.1322 -0.6694 -0.3107
 1632SOL    HW3 6527   3.105   2.742   2.539 -0.0396  0.3143  1.8630
 1632SOL    MW4 6528   3.179   2.697   2.524 -0.5399  0.0340  0.1702
 1633SOL     OW 6529   3.388   2.863   2.585  0.0099  0.1498 -0.4310
 1633SOL    HW2 6530   3.392   2.856   2.680 -0.1227  1.2114 -0.3351
 1633SOL    HW3 6531   3.463   2.812   2.553 -0.6274 -1.1725  0.1805
 1633SOL    MW4 6532   3.399   2.856   2.593 -0.0917  0.1154 -0.3377
 1634SOL     OW 6533   3.416   3.111   2.486 -0.5005 -0.1379  0.0104
 1634SOL    HW2 6534   3.406   3.020   2.515  1.3384 -0.3168  0.1669
 1634SOL    HW3 6535   3.399   3.108   2.392  0.8736 -0.9034 -0.2301
 1634SOL    MW4 6536   3.412   3.099   2.478 -0.0766 -0.2625 -0.0007
 1635SOL     OW 6537   3.171   3.221   2.632  0.1045  0.0483  0.0369
 1635SOL    HW2 6538   3.241   3.196   2.572 -0.0314 -1.4553  0.4725
 1635SOL    HW3 6539   3.093   3.179   2.596 -0.0062 -0.7362  1.1675
 1635SOL    MW4 6540   3.170   3.212   2.619  0.0719 -0.2535  0.2436
 1636SOL     OW 6541   3.166   3.506   2.525 -0.1379  0.1028  0.4030
 1636SOL    HW2 6542   3.160   3.416   2.558  0.1518 -0.6865 -1.6319
 1636SOL    HW3 6543   3.085   3.548   2.553 -0.6330 -1.0327  0.6901
 1636SOL    MW4 6544   3.155   3.499   2.533 -0.1650 -0.1512  0.1724
 1637SOL     OW 6545   3.373   3.626   2.650  0.0139  0.4779  0.3008
 1637SOL    HW2 6546   3.356   3.620   2.744  1.8131 -1.0707  0.5381
 1637SOL    HW3 6547   3.308   3.568   2.611  1.2890 -1.3563  0.8351
 1637SOL    MW4 6548   3.362   3.618   2.658  0.4195  0.0316  0.4026
 1638SOL     OW 6549   3.347   3.881   2.545 -0.3285  0.3931  0.0784
 1638SOL    HW2 6550   3.354   3.808   2.606  2.0761  0.6271  0.1394
 1638SOL    HW3 6551   3.345   3.839   2.458 -0.5952  0.1861  0.1837
 1638SOL    MW4 6552   3.348   3.866   2.541 -0.0465  0.3967  0.1003
 1639SOL     OW 6553   3.118   3.996   2.626 -0.2312  0.1906 -0.1687
 1639SOL    HW2 6554   3.136   4.087   2.604  1.0017 -0.5511 -2.4104
 1639SOL    HW3 6555   3.199   3.949   2.606 -0.4190 -1.2286  2.1817
 1639SOL    MW4 6556   3.131   4.001   2.620 -0.0933 -0.0945 -0.1543
 1640SOL     OW 6557   3.135   4.273   2.560  0.2789 -0.3020  0.0125
 1640SOL    HW2 6558   3.047   4.300   2.589  1.0404  1.3529  0.8750
 1640SOL    HW3 6559   3.134   4.285   2.465  0.1947  1.6714  0.2429
 1640SOL    MW4 6560   3.123   4.279   2.551  0.3683  0.1767  0.1567
 1641SOL     OW 6561   3.402   4.343   2.605  0.8117 -0.0836 -0.3789
 1641SOL    HW2 6562   3.417   4.340   2.699  0.0491  2.9678 -0.1202
 1641SOL    HW3 6563   3.309   4.326   2.595  0.5002  1.6131 -0.4198
 1641SOL    MW4 6564   3.392   4.340   2.616  0.6700  0.5428 -0.3502
 1642SOL     OW 6565   3.803   4.606   2.262  0.0033  0.2105  0.1554
 1642SOL    HW2 6566   3.797   4.604   2.357 -0.0522  0.6351  0.1610
 1642SOL    HW3 6567   3.888   4.647   2.244 -0.7500  1.7310  0.0124
 1642SOL    MW4 6568   3.813   4.611   2.272 -0.1034  0.4671  0.1373
 1643SOL     OW 6569   3.551   0.049   2.617 -0.3003  0.3073  0.5621
 1643SOL    HW2 6570   3.563   0.133   2.573 -1.1963 -0.0511 -0.3955
 1643SOL    HW3 6571   3.485   0.004   2.564 -2.1464  0.2399  2.8109
 1643SOL    MW4 6572   3.543   0.054   2.604 -0.6621  0.2511  0.7324
 1644SOL     OW 6573   3.575   0.303   2.512 -0.3596 -0.5951  0.2267
 1644SOL    HW2 6574   3.659   0.337   2.541  0.2969 -0.3832 -1.7867
 1644SOL    HW3 6575   3.510   0.361   2.552  0.5298  0.0996  0.6827
 1644SOL    MW4 6576   3.577   0.315   2.521 -0.1557 -0.4755  0.0212
 1645SOL     OW 6577   3.790   0.446   2.619 -0.4487  0.6093 -0.1297
 1645SOL    HW2 6578   3.790   0.430   2.713 -0.6640  0.3192 -0.1812
 1645SOL    HW3 6579   3.878   0.420   2.590 -0.2868  0.9627  0.0341
 1645SOL    MW4 6580   3.802   0.440   2.627 -0.4558  0.6177 -0.1149
 1646SOL     OW 6581   3.824   0.711   2.548  0.1747  0.5522 -0.1890
 1646SOL    HW2 6582   3.750   0.761   2.581  1.1709  1.4004  0.8137
 1646SOL    HW3 6583   3.814   0.624   2.587 -0.2020  0.7117  0.0706
 1646SOL    MW4 6584   3.813   0.706   2.557  0.2565  0.6851 -0.0224
 1647SOL     OW 6585   3.622   0.887   2.619 -0.2740 -0.4898  0.0351
 1647SOL    HW2 6586   3.608   0.885   2.714 -0.8984  0.2997 -0.0384
 1647SOL    HW3 6587   3.627   0.980   2.598  0.2083 -0.6704 -0.6618
 1647SOL    MW4 6588   3.621   0.899   2.629 -0.2928 -0.4094 -0.0665
 1648SOL     OW 6589   3.623   1.144   2.504  0.4247  0.7312  0.5465
 1648SOL    HW2 6590   3.695   1.195   2.543 -0.4311  3.3594 -1.1272
 1648SOL    HW3 6591   3.544   1.178   2.546 -0.1595  0.7623 -0.5479
 1648SOL    MW4 6592   3.622   1.155   2.515  0.2347  1.0821  0.1812
 1649SOL     OW 6593   3.840   1.259   2.616 -0.2287  0.1948  0.0379
 1649SOL    HW2 6594   3.920   1.215   2.587  0.9294  0.4520  2.7269
 1649SOL    HW3 6595   3.853   1.350   2.590  0.5345  0.3157  0.8382
 1649SOL    MW4 6596   3.852   1.265   2.609  0.0248  0.2447  0.4982
 1650SOL     OW 6597   3.848   1.535   2.501  0.0095  0.1519  0.3071
 1650SOL    HW2 6598   3.923   1.590   2.523 -0.8843  1.3443  0.3967
 1650SOL    HW3 6599   3.774   1.578   2.542 -0.7106 -1.1082  0.3427
 1650SOL    MW4 6600   3.848   1.548   2.509 -0.2034  0.1429  0.3236
 1651SOL     OW 6601   3.622   1.649   2.593 -0.3920 -0.0585 -0.4576
 1651SOL    HW2 6602   3.620   1.732   2.546 -1.2154  0.2905  0.1782
 1651SOL    HW3 6603   3.546   1.601   2.560 -0.1261 -0.4073 -0.5607
 1651SOL    MW4 6604   3.612   1.654   2.583 -0.4656 -0.0585 -0.3873
 1652SOL     OW 6605   3.644   1.908   2.469 -0.3385  0.5120  0.5696
 1652SOL    HW2 6606   3.564   1.954   2.496 -0.3868  0.6505  0.1875
 1652SOL    HW3 6607   3.633   1.893   2.375  0.3612  1.0923  0.3909
 1652SOL    MW4 6608   3.632   1.912   2.460 -0.2526  0.6068  0.4956
 1653SOL     OW 6609   3.854   2.051   2.566  0.3225  0.2566  0.0134
 1653SOL    HW2 6610   3.932   2.016   2.524  0.9706  0.5472  0.9539
 1653SOL    HW3 6611   3.782   1.997   2.533  0.9260 -0.0379 -0.8207
 1653SOL    MW4 6612   3.855   2.039   2.556  0.4876  0.2561  0.0275
 1654SOL     OW 6613   3.809   2.327   2.509  0.3239  0.2641 -0.1696
 1654SOL    HW2 6614   3.829   2.247   2.558 -0.0674 -0.5008 -1.2618
 1654SOL    HW3 6615   3.816   2.302   2.417  1.0879  1.7137 -0.5301
 1654SOL    MW4 6616   3.813   2.313   2.504  0.3731  0.3544 -0.3613
 1655SOL     OW 6617   3.572   2.456   2.543 -0.2481  0.4552 -0.3167
 1655SOL    HW2 6618   3.561   2.437   2.636 -1.9276 -0.4648 -0.6711
 1655SOL    HW3 6619   3.662   2.430   2.523  0.2909  1.1587  1.1551
 1655SOL    MW4 6620   3.582   2.450   2.553 -0.3986  0.4266 -0.1693
 1656SOL     OW 6621   3.623   2.740   2.498  0.0028 -0.1789 -0.1967
 1656SOL    HW2 6622   3.594   2.652   2.522 -0.2357  0.1606  0.8087
 1656SOL    HW3 6623   3.616   2.743   2.403 -2.8775 -0.2578 -0.0345
 1656SOL    MW4 6624   3.618   2.729   2.489 -0.4087 -0.1445 -0.0427
 1657SOL     OW 6625   3.857   2.840   2.595  0.2375 -0.1898 -0.1718
 1657SOL    HW2 6626   3.924   2.812   2.532 -0.6119 -2.0448 -0.2702
 1657SOL    HW3 6627   3.774   2.813   2.556 -0.5371  1.4068  0.3113
 1657SOL    MW4 6628   3.855   2.833   2.581  0.0232 -0.2239 -0.1210
 1658SOL     OW 6629   3.831   3.096   2.502  0.4024  0.3257  0.2518
 1658SOL    HW2 6630   3.763   3.139   2.554 -0.1069 -1.2439  0.9389
 1658SOL    HW3 6631   3.843   3.011   2.545  2.5075  0.4010 -0.1174
 1658SOL    MW4 6632   3.824   3.090   2.515  0.6129  0.1285  0.2937
 1659SOL     OW 6633   3.634   3.223   2.632 -0.1312  0.2588  0.4779
 1659SOL    HW2 6634   3.641   3.318   2.634 -1.7271  0.3852  0.2137
 1659SOL    HW3 6635   3.561   3.205   2.573  0.1241 -1.1248  0.5658
 1659SOL    MW4 6636   3.625   3.233   2.625 -0.3081  0.0929  0.4546
 1660SOL     OW 6637   3.604   3.506   2.555  0.8330  0.0446  0.1797
 1660SOL    HW2 6638   3.677   3.567   2.571  0.1326  0.9006  0.1810
 1660SOL    HW3 6639   3.532   3.542   2.607  0.5435 -1.0776  0.5783
 1660SOL    MW4 6640   3.604   3.519   2.564  0.7024  0.0095  0.2324
 1661SOL     OW 6641   3.846   3.645   2.623 -0.3166 -0.0649  0.0745
 1661SOL    HW2 6642   3.920   3.595   2.590  0.4592  0.6336  0.7394
 1661SOL    HW3 6643   3.847   3.726   2.572 -0.0434  0.3530  0.7401
 1661SOL    MW4 6644   3.856   3.649   2.612 -0.1782  0.0824  0.2500
 1662SOL     OW 6645   3.803   3.882   2.474 -0.5106 -0.2224 -0.2303
 1662SOL    HW2 6646   3.858   3.935   2.532 -0.6234  0.0835 -0.3995
 1662SOL    HW3 6647   3.717   3.883   2.516 -0.6873  0.3208 -0.6035
 1662SOL    MW4 6648   3.799   3.889   2.488 -0.5488 -0.1104 -0.3019
 1663SOL     OW 6649   3.590   4.187   2.477  0.3081  0.1565 -0.0375
 1663SOL    HW2 6650   3.584   4.189   2.381 -1.5019 -0.4173  0.0426
 1663SOL    HW3 6651   3.522   4.247   2.507 -0.3843 -1.0731  0.9065
 1663SOL    MW4 6652   3.581   4.195   2.468 -0.0221 -0.0814  0.0976
 1664SOL     OW 6653   3.828   4.348   2.599  0.2958  0.2655  0.4740
 1664SOL    HW2 6654   3.778   4.278   2.557  1.8976 -1.4420  1.3406
 1664SOL    HW3 6655   3.918   4.335   2.568  0.8342  1.1760  1.6203
 1664SOL    MW4 6656   3.833   4.337   2.589  0.5782  0.1603  0.7396
 1665SOL     OW 6657   3.794   4.609   2.550 -0.2620  0.2583  0.1155
 1665SOL    HW2 6658   3.787   4.515   2.568 -0.0931  0.5552  1.8377
 1665SOL    HW3 6659   3.709   4.645   2.575 -0.7322  0.4077 -1.6543
 1665SOL    MW4 6660   3.782   4.601   2.556 -0.3018  0.3172  0.1092
 1666SOL     OW 6661   4.242   4.667   2.548  0.2596  0.4305  0.0593
 1666SOL    HW2 6662   4.161   4.710   2.576  0.2902 -0.3505  1.3606
 1666SOL    HW3 6663   4.312   4.716   2.590  0.4137  0.4361 -0.1990
 1666SOL    MW4 6664   4.240   4.679   2.557  0.2840  0.3282  0.1969
 1667SOL     OW 6665   3.997   0.124   2.616  0.4082 -0.7829 -0.2210
 1667SOL    HW2 6666   3.934   0.057   2.588  0.6282 -0.7503 -0.7825
 1667SOL    HW3 6667   4.007   0.108   2.710 -0.8566 -0.4456 -0.0091
 1667SOL    MW4 6668   3.990   0.113   2.625  0.2704 -0.7341 -0.2671
 1668SOL     OW 6669   4.046   0.387   2.521  0.0339 -0.2065  0.1012
 1668SOL    HW2 6670   4.038   0.297   2.553 -1.6173 -0.2900 -0.4945
 1668SOL    HW3 6671   4.041   0.380   2.425 -1.3298  0.6068  0.0877
 1668SOL    MW4 6672   4.044   0.374   2.512 -0.3639 -0.1102  0.0208
 1669SOL     OW 6673   4.277   0.475   2.653  0.2674 -0.1180  0.3505
 1669SOL    HW2 6674   4.201   0.437   2.609 -0.2179 -1.0107  1.9456
 1669SOL    HW3 6675   4.352   0.444   2.603 -0.3417 -0.2707 -0.4747
 1669SOL    MW4 6676   4.277   0.466   2.641  0.1230 -0.2559  0.4521
 1670SOL     OW 6677   4.265   0.740   2.507 -0.0083 -0.1731  0.0001
 1670SOL    HW2 6678   4.252   0.651   2.540  0.7480 -0.3757 -0.2567
 1670SOL    HW3 6679   4.282   0.729   2.414 -1.6996  0.3689 -0.4004
 1670SOL    MW4 6680   4.265   0.727   2.499 -0.1317 -0.1283 -0.0867
 1671SOL     OW 6681   4.036   0.879   2.573 -0.2217 -0.0869  0.3185
 1671SOL    HW2 6682   4.105   0.822   2.542  0.5500  0.4284  1.0716
 1671SOL    HW3 6683   3.955   0.829   2.559  0.5128 -1.8203  1.9605
 1671SOL    MW4 6684   4.034   0.865   2.567 -0.0230 -0.2476  0.6345
 1672SOL     OW 6685   4.074   1.155   2.509  0.0798  0.1233 -0.5492
 1672SOL    HW2 6686   4.160   1.182   2.543 -0.3074  0.3156  0.2969
 1672SOL    HW3 6687   4.071   1.061   2.522 -0.0666  0.1961 -0.0338
 1672SOL    MW4 6688   4.085   1.146   2.515  0.0094  0.1583 -0.3696
 1673SOL     OW 6689   4.304   1.281   2.632 -0.3953  0.3317 -0.4226
 1673SOL    HW2 6690   4.298   1.367   2.589 -0.9653 -0.2121 -1.4519
 1673SOL    HW3 6691   4.382   1.241   2.593  0.7528  0.9730  1.1662
 1673SOL    MW4 6692   4.313   1.287   2.621 -0.3190  0.3445 -0.3488
 1674SOL     OW 6693   4.296   1.531   2.498 -0.2759 -0.4580  0.6154
 1674SOL    HW2 6694   4.359   1.602   2.511 -1.0418  0.2491  0.5023
 1674SOL    HW3 6695   4.286   1.525   2.403  0.4284 -1.2910  0.5898
 1674SOL    MW4 6696   4.303   1.540   2.487 -0.2840 -0.4746  0.5971
 1675SOL     OW 6697   4.085   1.677   2.580 -1.0178 -0.3483 -0.2885
 1675SOL    HW2 6698   4.081   1.645   2.670 -0.4367 -0.6651 -0.3768
 1675SOL    HW3 6699   4.160   1.633   2.541 -1.0549  0.0516 -0.8289
 1675SOL    MW4 6700   4.094   1.667   2.587 -0.9460 -0.3373 -0.3714
 1676SOL     OW 6701   4.075   1.934   2.476 -0.8659  0.0481  0.4472
 1676SOL    HW2 6702   4.140   1.994   2.512 -1.8752  0.4620  1.6046
 1676SOL    HW3 6703   4.084   1.854   2.528 -1.1740  0.0569  0.5180
 1676SOL    MW4 6704   4.085   1.932   2.488 -1.0397  0.1038  0.6092
 1677SOL     OW 6705   4.257   2.104   2.604 -0.4018 -0.1193 -0.1224
 1677SOL    HW2 6706   4.253   2.194   2.573  0.7299 -0.2768 -0.7953
 1677SOL    HW3 6707   4.336   2.069   2.563 -0.0468 -0.9906  1.2590
 1677SOL    MW4 6708   4.267   2.111   2.594 -0.2057 -0.2551 -0.0289
 1678SOL     OW 6709   4.265   2.360   2.487  0.0089 -0.2206  0.3486
 1678SOL    HW2 6710   4.184   2.410   2.500  0.5325  0.5120  0.8224
 1678SOL    HW3 6711   4.272   2.350   2.392 -0.9680 -0.8334  0.3362
 1678SOL    MW4 6712   4.255   2.365   2.476 -0.0509 -0.2048  0.4094
 1679SOL     OW 6713   4.034   2.478   2.571 -0.0530 -0.2588  0.0090
 1679SOL    HW2 6714   4.040   2.451   2.663 -1.6869  0.1809  0.2711
 1679SOL    HW3 6715   3.960   2.428   2.536 -0.0929  0.3389 -0.7724
 1679SOL    MW4 6716   4.025   2.468   2.579 -0.2739 -0.1219 -0.0595
 1680SOL     OW 6717   4.068   2.733   2.459  0.3300 -0.0447 -0.3501
 1680SOL    HW2 6718   4.147   2.766   2.502 -0.6577  1.9248  0.0146
 1680SOL    HW3 6719   4.063   2.640   2.485  2.3593 -0.1195 -0.1776
 1680SOL    MW4 6720   4.078   2.725   2.468  0.4674  0.2052 -0.2792
 1681SOL     OW 6721   4.288   2.817   2.637  0.2873  0.1226 -0.1007
 1681SOL    HW2 6722   4.275   2.810   2.731  1.8003 -1.0833  0.0412
 1681SOL    HW3 6723   4.273   2.910   2.617 -2.1364 -0.0192  0.9581
 1681SOL    MW4 6724   4.284   2.828   2.647  0.1671 -0.0552  0.0577
 1682SOL     OW 6725   4.296   3.099   2.504  0.2236 -0.2473  0.6106
 1682SOL    HW2 6726   4.213   3.145   2.520  0.3925  0.5733 -0.7617
 1682SOL    HW3 6727   4.307   3.102   2.408  1.1078 -1.6321  0.6640
 1682SOL    MW4 6728   4.287   3.106   2.493  0.3626 -0.3218  0.4366
 1683SOL     OW 6729   4.060   3.224   2.580  0.1383 -0.3796 -0.1422
 1683SOL    HW2 6730   4.054   3.319   2.572 -0.9977 -0.3452  1.0129
 1683SOL    HW3 6731   3.976   3.191   2.550 -0.0392 -0.9240  0.9298
 1683SOL    MW4 6732   4.048   3.232   2.575 -0.0350 -0.4469  0.1517
 1684SOL     OW 6733   4.054   3.499   2.518 -0.0854  0.3763  0.2234
 1684SOL    HW2 6734   4.137   3.547   2.520  1.1884 -1.8253  1.2772
 1684SOL    HW3 6735   4.035   3.488   2.425  1.9938 -1.0966 -0.0493
 1684SOL    MW4 6736   4.062   3.504   2.506  0.3570 -0.1085  0.3265
 1685SOL     OW 6737   4.279   3.635   2.607 -0.2507  0.1354  0.3581
 1685SOL    HW2 6738   4.286   3.619   2.701 -0.4349  0.5416  0.4434
 1685SOL    HW3 6739   4.364   3.610   2.571  0.7782  2.5051  0.9985
 1685SOL    MW4 6740   4.291   3.630   2.615 -0.1393  0.5016  0.4538
 1686SOL     OW 6741   4.254   3.927   2.501  0.1091  0.2768  0.3975
 1686SOL    HW2 6742   4.241   3.838   2.534  1.8444 -0.2541 -0.2657
 1686SOL    HW3 6743   4.322   3.963   2.558  0.7449  0.5096 -0.4926
 1686SOL    MW4 6744   4.261   3.920   2.513  0.4220  0.2375  0.1925
 1687SOL     OW 6745   4.024   4.027   2.595  0.5046  0.5855 -0.0196
 1687SOL    HW2 6746   4.020   4.013   2.689 -0.9471  0.7723 -0.0494
 1687SOL    HW3 6747   4.110   3.994   2.570  0.8559  0.4321  1.3480
 1687SOL    MW4 6748   4.035   4.021   2.604  0.3594  0.5899  0.1569
 1688SOL     OW 6749   4.075   4.288   2.517  0.2110 -0.1800  0.1260
 1688SOL    HW2 6750   4.069   4.197   2.547  1.1093 -0.5735 -0.8636
 1688SOL    HW3 6751   4.064   4.283   2.422  1.3850  0.6237 -0.0628
 1688SOL    MW4 6752   4.073   4.276   2.509  0.4844 -0.1259 -0.0295
 1689SOL     OW 6753   4.300   4.410   2.644 -0.2599 -0.2708  0.3942
 1689SOL    HW2 6754   4.229   4.363   2.602 -0.1212  0.6832 -0.9440
 1689SOL    HW3 6755   4.289   4.501   2.616  0.3991  0.2159  1.6621
 1689SOL    MW4 6756   4.289   4.416   2.635 -0.1546 -0.0807  0.3849
 1690SOL     OW 6757   0.195   4.624   3.054 -0.1550  0.2387 -0.2097
 1690SOL    HW2 6758   0.127   4.674   3.009 -0.3230  0.6486  0.4927
 1690SOL    HW3 6759   0.178   4.640   3.147  0.8035  0.2046 -0.0325
 1690SOL    MW4 6760   0.183   4.633   3.061 -0.0507  0.2883 -0.0936
 1691SOL     OW 6761   4.249   4.645   3.004  0.1480  0.4486 -0.2705
 1691SOL    HW2 6762   4.221   4.654   3.095 -1.1477  2.0651 -0.8057
 1691SOL    HW3 6763   4.233   4.553   2.983 -1.9634  0.6418  0.3739
 1691SOL    MW4 6764   4.243   4.634   3.013 -0.3015  0.6874 -0.2561
 1692SOL     OW 6765   0.009   0.121   2.933 -0.3170 -0.4082 -0.2672
 1692SOL    HW2 6766  -0.072   0.084   2.967 -0.6593  0.0755 -0.5513
 1692SOL    HW3 6767   0.002   0.215   2.949  2.3260 -0.8131  4.2428
 1692SOL    MW4 6768  -0.002   0.129   2.940 -0.0135 -0.3978  0.2904
 1693SOL     OW 6769   0.236   0.532   2.871 -0.3215 -0.1081 -0.4649
 1693SOL    HW2 6770   0.307   0.490   2.920  1.0817  2.9074  0.2298
 1693SOL    HW3 6771   0.157   0.486   2.898  1.0225 -1.5916  1.0180
 1693SOL    MW4 6772   0.235   0.520   2.881  0.0409  0.0940 -0.1776
 1694SOL     OW 6773   0.160   0.774   2.950  0.7332  0.0110  0.0793
 1694SOL    HW2 6774   0.167   0.755   3.043  0.7934  2.0466  0.5142
 1694SOL    HW3 6775   0.183   0.692   2.907  1.0434 -0.8504  1.8510
 1694SOL    MW4 6776   0.164   0.761   2.956  0.7821  0.1659  0.3705
 1695SOL     OW 6777   4.438   0.918   2.872  0.3678 -0.0142 -0.0266
 1695SOL    HW2 6778   4.515   0.872   2.905 -0.4890 -1.3346  0.2039
 1695SOL    HW3 6779   4.437   0.898   2.778 -0.3529 -1.0323  0.1818
 1695SOL    MW4 6780   4.448   0.909   2.864  0.1596 -0.3228  0.0314
 1696SOL     OW 6781   0.006   1.166   3.006 -0.5180  0.1209 -0.2789
 1696SOL    HW2 6782  -0.082   1.199   2.991 -0.9848 -1.0259 -0.1249
 1696SOL    HW3 6783   0.000   1.072   2.986  0.6970  0.0634 -0.4172
 1696SOL    MW4 6784  -0.006   1.158   3.001 -0.4193 -0.0380 -0.2768
 1697SOL     OW 6785   0.240   1.275   2.909 -0.2213 -0.3894 -0.1940
 1697SOL    HW2 6786   0.162   1.227   2.935 -0.7650  0.4923 -0.1606
 1697SOL    HW3 6787   0.244   1.264   2.814  0.9422 -2.3828  0.0550
 1697SOL    MW4 6788   0.230   1.267   2.900 -0.1395 -0.5361 -0.1568
 1698SOL     OW 6789   0.228   1.545   3.027 -0.0164  0.4984  0.0741
 1698SOL    HW2 6790   0.159   1.592   2.980  0.6932 -0.0960 -1.5965
 1698SOL    HW3 6791   0.221   1.455   2.996  0.3636  0.0576  1.2427
 1698SOL    MW4 6792   0.218   1.540   3.017  0.1273  0.3618  0.0079
 1699SOL     OW 6793   0.041   1.689   2.896 -0.2245 -0.4782  0.4849
 1699SOL    HW2 6794  -0.040   1.645   2.922 -1.3190  1.4249  0.4582
 1699SOL    HW3 6795   0.033   1.777   2.934  1.3492  0.0792 -0.4204
 1699SOL    MW4 6796   0.029   1.695   2.904 -0.1613 -0.1536  0.3619
 1700SOL     OW 6797   0.022   1.930   3.035 -0.1465 -0.2278 -0.1059
 1700SOL    HW2 6798  -0.048   1.966   2.981 -0.0078 -0.9688 -0.7952
 1700SOL    HW3 6799   0.103   1.953   2.988  0.1793  1.9857  1.4846
 1700SOL    MW4 6800   0.024   1.937   3.021 -0.0853 -0.0335  0.0130
 1701SOL     OW 6801   0.236   2.006   2.866 -0.4913 -0.0648 -0.0370
 1701SOL    HW2 6802   0.233   2.095   2.900 -0.6370 -0.0766 -0.0183
 1701SOL    HW3 6803   0.264   2.016   2.775  3.2653 -0.2990  1.0362
 1701SOL    MW4 6804   0.239   2.019   2.858 -0.0149 -0.0973  0.1071
 1702SOL     OW 6805   0.248   2.254   2.971  0.1916  0.3888  0.3760
 1702SOL    HW2 6806   0.263   2.250   3.065 -0.6655  1.6110  0.5819
 1702SOL    HW3 6807   0.309   2.321   2.940  0.3562  0.1066  0.0795
 1702SOL    MW4 6808   0.258   2.262   2.979  0.1002  0.5128  0.3641
 1703SOL     OW 6809   0.026   2.422   2.875 -0.3873 -0.0447 -0.0715
 1703SOL    HW2 6810   0.051   2.514   2.884 -0.8961  0.0120  0.7976
 1703SOL    HW3 6811   0.102   2.372   2.904 -0.2710  0.1074 -0.1179
 1703SOL    MW4 6812   0.039   2.427   2.880 -0.4391 -0.0172  0.0371
 1704SOL     OW 6813   0.050   2.699   2.931 -0.3367  0.7519  0.3436
 1704SOL    HW2 6814   0.039   2.670   3.022  1.3759  0.0399  0.3428
 1704SOL    HW3 6815   0.120   2.764   2.936  1.1327 -0.7230 -0.7336
 1704SOL    MW4 6816   0.058   2.704   2.944  0.0832  0.4633  0.2014
 1705SOL     OW 6817   0.245   2.870   2.899 -0.0201  0.6057 -0.3240
 1705SOL    HW2 6818   0.312   2.807   2.924 -0.2546  0.4316 -0.1332
 1705SOL    HW3 6819   0.243   2.867   2.803  0.8561  1.2519 -0.3640
 1705SOL    MW4 6820   0.253   2.861   2.890  0.0645  0.6680 -0.3041
 1706SOL     OW 6821   0.197   3.129   2.988 -0.0245  0.1364 -0.2141
 1706SOL    HW2 6822   0.122   3.175   2.950  1.0226  0.0360 -2.5134
 1706SOL    HW3 6823   0.193   3.041   2.950  0.9811 -0.0078 -0.0113
 1706SOL    MW4 6824   0.187   3.124   2.978  0.2463  0.1041 -0.4907
 1707SOL     OW 6825   4.488   3.282   2.897  0.0715 -0.2064  0.0605
 1707SOL    HW2 6826   4.419   3.227   2.933 -0.9105  0.6396 -0.4877
 1707SOL    HW3 6827   4.486   3.264   2.803  1.4417 -1.1011  0.1886
 1707SOL    MW4 6828   4.479   3.272   2.889  0.1227 -0.2128  0.0051
 1708SOL     OW 6829   4.481   3.508   3.029 -0.1294 -0.4911  0.2071
 1708SOL    HW2 6830   4.403   3.557   3.004 -1.0346 -1.7073  0.5890
 1708SOL    HW3 6831   4.471   3.423   2.986  0.3693 -1.0984  1.2561
 1708SOL    MW4 6832   4.469   3.503   3.020 -0.1830 -0.7317  0.3959
 1709SOL     OW 6833   0.214   3.622   2.912  0.3513 -0.3004  0.0588
 1709SOL    HW2 6834   0.217   3.716   2.932  0.1950 -0.4702  0.8784
 1709SOL    HW3 6835   0.136   3.590   2.957  0.5223 -0.8654 -0.0450
 1709SOL    MW4 6836   0.204   3.630   2.920  0.3533 -0.3973  0.1532
 1710SOL     OW 6837   0.213   3.885   3.008  0.3755 -0.5848 -0.5085
 1710SOL    HW2 6838   0.209   3.905   3.101 -0.3961 -1.1487 -0.4171
 1710SOL    HW3 6839   0.277   3.947   2.973 -1.1303  1.2871 -0.0418
 1710SOL    MW4 6840   0.221   3.896   3.015  0.0750 -0.4122 -0.4349
 1711SOL     OW 6841   4.447   4.020   2.932 -0.2281  0.6705  0.1533
 1711SOL    HW2 6842   4.525   3.968   2.952 -0.4633  1.3515  3.0183
 1711SOL    HW3 6843   4.444   4.023   2.836  1.6251 -1.8086 -0.0277
 1711SOL    MW4 6844   4.456   4.013   2.922 -0.0147  0.4333  0.5074
 1712SOL     OW 6845   4.465   4.266   3.066  0.3078  0.3895  0.7013
 1712SOL    HW2 6846   4.506   4.258   3.153  2.2709  2.4413  0.0246
 1712SOL    HW3 6847   4.453   4.176   3.037  2.2652 -0.2930  1.9145
 1712SOL    MW4 6848   4.469   4.253   3.074  0.8251  0.5702  0.7721
 1713SOL     OW 6849   0.189   4.390   2.897 -0.0480 -0.4038 -0.0884
 1713SOL    HW2 6850   0.123   4.341   2.945  0.8598 -1.8753 -0.2943
 1713SOL    HW3 6851   0.215   4.461   2.955 -0.7333 -0.7068  0.5844
 1713SOL    MW4 6852   0.184   4.393   2.911 -0.0186 -0.6379 -0.0268
 1714SOL     OW 6853   0.665   4.614   3.036  0.0875  0.1574 -0.1863
 1714SOL    HW2 6854   0.668   4.526   2.998  0.4525  0.0177  0.1554
 1714SOL    HW3 6855   0.578   4.647   3.015 -0.4587 -0.7205  0.6502
 1714SOL    MW4 6856   0.654   4.606   3.028  0.0636  0.0232 -0.0309
 1715SOL     OW 6857   0.433   0.120   2.956  0.0467  0.0178 -0.5678
 1715SOL    HW2 6858   0.439   0.211   2.984 -2.6598  1.0058 -3.0363
 1715SOL    HW3 6859   0.347   0.091   2.987  0.5604 -1.4659 -0.4985
 1715SOL    MW4 6860   0.423   0.128   2.964 -0.2426 -0.0476 -0.8843
 1716SOL     OW 6861   0.860   0.096   3.411  0.3812 -0.4681 -0.0891
 1716SOL    HW2 6862   0.823   0.099   3.499 -1.1270  0.9697 -0.7606
 1716SOL    HW3 6863   0.811   0.026   3.367  1.7630 -1.8242  0.4572
 1716SOL    MW4 6864   0.849   0.087   3.416  0.3645 -0.4573 -0.1056
 1717SOL     OW 6865   0.872   0.853   2.892 -0.0680  0.6816  0.1061
 1717SOL    HW2 6866   0.879   0.944   2.921  0.0000  0.3162  1.2779
 1717SOL    HW3 6867   0.787   0.824   2.925  1.2104 -0.5928  2.4683
 1717SOL    MW4 6868   0.862   0.861   2.900  0.1097  0.4652  0.5724
 1718SOL     OW 6869   0.643   0.739   2.991  0.0507 -0.5928 -0.1414
 1718SOL    HW2 6870   0.560   0.780   2.967  0.2743 -1.1270 -1.9608
 1718SOL    HW3 6871   0.633   0.715   3.083 -1.0958  1.0552  0.1712
 1718SOL    MW4 6872   0.630   0.741   3.000 -0.0711 -0.4459 -0.3402
 1719SOL     OW 6873   0.418   0.867   2.886 -0.3844 -0.0860  0.1310
 1719SOL    HW2 6874   0.329   0.839   2.910 -1.2094  2.4048  0.1430
 1719SOL    HW3 6875   0.416   0.872   2.791  0.4706 -2.2724 -0.0177
 1719SOL    MW4 6876   0.406   0.864   2.877 -0.3805 -0.0459  0.1129
 1720SOL     OW 6877   0.488   1.140   2.979  0.4917  0.2952  0.1896
 1720SOL    HW2 6878   0.460   1.057   2.942  1.9898 -0.5114  0.8229
 1720SOL    HW3 6879   0.417   1.201   2.958  0.2529 -0.6726 -1.9525
 1720SOL    MW4 6880   0.475   1.137   2.972  0.6578  0.0611 -0.0095
 1721SOL     OW 6881   0.727   1.273   2.915 -0.3967  0.2070 -0.5503
 1721SOL    HW2 6882   0.795   1.222   2.960  0.8642  1.5484 -0.9280
 1721SOL    HW3 6883   0.645   1.232   2.944  0.4620 -0.1813  1.4782
 1721SOL    MW4 6884   0.725   1.261   2.925 -0.1171  0.3328 -0.3325
 1722SOL     OW 6885   0.705   1.530   3.015 -0.1234 -0.4324 -0.0855
 1722SOL    HW2 6886   0.713   1.519   3.109 -0.5227  0.7202  0.0911
 1722SOL    HW3 6887   0.712   1.441   2.979 -1.3772 -1.0331  1.1253
 1722SOL    MW4 6888   0.707   1.517   3.022 -0.3415 -0.3596  0.0975
 1723SOL     OW 6889   0.482   1.664   2.912 -0.3047  0.1298 -0.3265
 1723SOL    HW2 6890   0.558   1.625   2.956 -0.5606 -1.6614 -1.4344
 1723SOL    HW3 6891   0.406   1.620   2.952 -0.5654 -1.0530 -2.0812
 1723SOL    MW4 6892   0.482   1.653   2.923 -0.3729 -0.2625 -0.7042
 1724SOL     OW 6893   0.443   1.911   3.029  0.0040  0.5520 -0.1653
 1724SOL    HW2 6894   0.467   1.831   2.983 -0.9939  0.7061 -0.9831
 1724SOL    HW3 6895   0.370   1.946   2.978  0.4234  1.9698  0.1855
 1724SOL    MW4 6896   0.437   1.905   3.016 -0.0723  0.7594 -0.2269
 1725SOL     OW 6897   0.656   2.051   2.906 -0.2969  0.0152  0.1994
 1725SOL    HW2 6898   0.594   2.002   2.961 -0.1365 -1.5358 -0.9468
 1725SOL    HW3 6899   0.742   2.025   2.938 -0.2022 -0.8806 -0.7269
 1725SOL    MW4 6900   0.659   2.041   2.917 -0.2632 -0.3076 -0.0740
 1726SOL     OW 6901   0.670   2.312   2.984 -0.0447  0.4815 -0.3677
 1726SOL    HW2 6902   0.680   2.319   3.079 -0.1425 -1.0886 -0.2305
 1726SOL    HW3 6903   0.656   2.219   2.968 -0.6971  0.8261 -1.8661
 1726SOL    MW4 6904   0.670   2.300   2.995 -0.1437  0.3198 -0.5473
 1727SOL     OW 6905   0.431   2.442   2.883  0.5228 -0.3116  0.3064
 1727SOL    HW2 6906   0.518   2.403   2.894  1.1547  0.9609 -0.0836
 1727SOL    HW3 6907   0.425   2.462   2.790 -0.2396 -0.4889  0.3144
 1727SOL    MW4 6908   0.442   2.439   2.872  0.5056 -0.1671  0.2560
 1728SOL     OW 6909   0.668   2.873   2.940 -0.0356 -0.1509 -0.0889
 1728SOL    HW2 6910   0.677   2.968   2.944  1.5461 -0.3201  0.9642
 1728SOL    HW3 6911   0.753   2.840   2.971 -0.4336 -1.8950 -0.8047
 1728SOL    MW4 6912   0.680   2.881   2.944  0.1205 -0.4033 -0.0444
 1729SOL     OW 6913   0.898   2.724   2.976  0.3822  0.2250 -0.2620
 1729SOL    HW2 6914   0.872   2.638   2.944 -0.8855  0.5925 -0.2896
 1729SOL    HW3 6915   0.908   2.713   3.071  1.2111 -0.1800 -0.3961
 1729SOL    MW4 6916   0.896   2.711   2.984  0.3243  0.2201 -0.2833
 1730SOL     OW 6917   0.698   3.151   2.983 -0.5197 -0.3815 -0.3092
 1730SOL    HW2 6918   0.687   3.150   3.078 -0.2922 -2.2267 -0.2822
 1730SOL    HW3 6919   0.616   3.186   2.950 -0.6189  0.2352  0.5727
 1730SOL    MW4 6920   0.686   3.155   2.992 -0.5028 -0.5436 -0.1893
 1731SOL     OW 6921   0.425   3.241   2.875  0.3988 -0.2325 -0.1577
 1731SOL    HW2 6922   0.414   3.323   2.923 -0.8597  0.5763 -1.7639
 1731SOL    HW3 6923   0.342   3.195   2.886  0.8424 -0.9786  0.1330
 1731SOL    MW4 6924   0.413   3.246   2.883  0.2913 -0.2242 -0.3313
 1732SOL     OW 6925   0.427   3.483   3.027 -0.0887  0.1851  0.1770
 1732SOL    HW2 6926   0.428   3.485   3.123  1.0624  1.6060  0.1522
 1732SOL    HW3 6927   0.341   3.518   3.003 -0.3234 -0.0348  0.6913
 1732SOL    MW4 6928   0.416   3.488   3.036  0.0322  0.3436  0.2416
 1733SOL     OW 6929   0.649   3.612   2.912  0.3535 -0.0674  0.3632
 1733SOL    HW2 6930   0.722   3.576   2.963 -0.0512 -1.5390 -0.0630
 1733SOL    HW3 6931   0.571   3.571   2.950 -0.0407 -0.3471 -0.7328
 1733SOL    MW4 6932   0.649   3.602   2.924  0.2481 -0.2985  0.1623
 1734SOL     OW 6933   0.640   3.889   2.975 -0.4629 -0.1944 -0.0947
 1734SOL    HW2 6934   0.617   3.887   3.068  0.3098  1.2285  0.1417
 1734SOL    HW3 6935   0.646   3.797   2.949  0.3672 -0.5925  1.5182
 1734SOL    MW4 6936   0.637   3.877   2.984 -0.2514 -0.0592  0.1493
 1735SOL     OW 6937   0.403   4.014   2.874 -0.0241  0.0500  0.0816
 1735SOL    HW2 6938   0.486   3.972   2.897  0.4964  0.8801 -0.2531
 1735SOL    HW3 6939   0.403   4.014   2.778 -0.6296 -0.3526  0.0750
 1735SOL    MW4 6940   0.414   4.008   2.864 -0.0353  0.1064  0.0366
 1736SOL     OW 6941   0.432   4.286   2.950  0.1368  0.3865  0.0031
 1736SOL    HW2 6942   0.429   4.195   2.922  0.7160  0.6760 -1.0320
 1736SOL    HW3 6943   0.349   4.323   2.919  0.0287  0.2782  0.1662
 1736SOL    MW4 6944   0.421   4.279   2.942  0.1989  0.4104 -0.1119
 1737SOL     OW 6945   0.674   4.381   2.883 -0.2630  0.0170 -0.3149
 1737SOL    HW2 6946   0.589   4.343   2.908  0.1383 -1.6203 -1.3428
 1737SOL    HW3 6947   0.664   4.404   2.791  1.0324 -2.0889 -1.0186
 1737SOL    MW4 6948   0.661   4.379   2.874 -0.0392 -0.4769 -0.5433
 1738SOL     OW 6949   1.122   4.660   3.020 -0.4735  0.2609  0.2166
 1738SOL    HW2 6950   1.189   4.720   2.990 -1.2071  0.8100 -0.3242
 1738SOL    HW3 6951   1.043   4.684   2.972 -1.0190 -0.5020  0.6993
 1738SOL    MW4 6952   1.121   4.671   3.010 -0.6423  0.2327  0.2090
 1739SOL     OW 6953   0.877   0.109   2.929 -0.1473  0.2185 -0.3687
 1739SOL    HW2 6954   0.881   0.198   2.965 -0.5911 -0.3272  1.0808
 1739SOL    HW3 6955   0.792   0.075   2.958 -0.1094 -0.5766 -1.1592
 1739SOL    MW4 6956   0.867   0.116   2.938 -0.2009  0.0416 -0.2818
 1740SOL     OW 6957   0.895   0.370   3.011  0.2310  0.3074 -0.1399
 1740SOL    HW2 6958   0.911   0.342   3.101  0.0641 -1.2310 -0.5897
 1740SOL    HW3 6959   0.975   0.416   2.986 -0.0205  1.4516  1.0442
 1740SOL    MW4 6960   0.908   0.373   3.020  0.1758  0.2554 -0.0430
 1741SOL     OW 6961   1.145   0.505   2.905 -0.5830  0.0364  0.5101
 1741SOL    HW2 6962   1.222   0.462   2.941 -1.2778 -1.4528  0.2346
 1741SOL    HW3 6963   1.159   0.504   2.810 -0.3429  0.9232  0.5304
 1741SOL    MW4 6964   1.157   0.499   2.897 -0.6430 -0.0431  0.4764
 1742SOL     OW 6965   1.127   0.780   3.005 -0.2149  0.3600 -0.4570
 1742SOL    HW2 6966   1.048   0.818   2.966 -0.4108 -0.6445 -1.0585
 1742SOL    HW3 6967   1.123   0.688   2.982 -0.7703 -0.4539  2.6809
 1742SOL    MW4 6968   1.116   0.773   2.997 -0.3140  0.1201 -0.1223
 1743SOL     OW 6969   0.911   1.119   3.277 -0.3937  0.3788  0.2953
 1743SOL    HW2 6970   0.999   1.128   3.314 -0.0004  1.5691 -0.8787
 1743SOL    HW3 6971   0.890   1.026   3.287  1.1325  0.0228  0.2957
 1743SOL    MW4 6972   0.920   1.108   3.283 -0.1405  0.4889  0.1404
 1744SOL     OW 6973   0.926   1.095   3.010 -0.5556  0.0000 -0.3321
 1744SOL    HW2 6974   0.999   1.148   2.979 -1.2356  1.4856  0.5859
 1744SOL    HW3 6975   0.924   1.110   3.105 -0.3730 -2.1340  0.0401
 1744SOL    MW4 6976   0.935   1.104   3.018 -0.6212 -0.0855 -0.1619
 1745SOL     OW 6977   1.124   1.274   2.918 -0.3190 -0.8461 -0.0790
 1745SOL    HW2 6978   1.192   1.221   2.959  0.1956  0.5138  0.8569
 1745SOL    HW3 6979   1.138   1.261   2.824  0.4457 -1.5650  0.1282
 1745SOL    MW4 6980   1.135   1.265   2.911 -0.1502 -0.7615  0.0718
 1746SOL     OW 6981   1.151   1.527   2.994  0.4595 -0.0555 -0.2655
 1746SOL    HW2 6982   1.229   1.561   2.950 -0.6419  0.7141 -1.6683
 1746SOL    HW3 6983   1.138   1.440   2.956 -1.0778  1.0133 -2.2533
 1746SOL    MW4 6984   1.159   1.520   2.983  0.1114  0.1871 -0.7129
 1747SOL     OW 6985   0.917   1.650   2.893 -0.0424  0.1259  0.2748
 1747SOL    HW2 6986   1.005   1.626   2.923 -0.8163 -1.4575  1.3117
 1747SOL    HW3 6987   0.858   1.597   2.945 -1.6588  1.4729 -0.1368
 1747SOL    MW4 6988   0.921   1.640   2.904 -0.3578  0.0947  0.3573
 1748SOL     OW 6989   0.870   1.898   2.997  0.1063 -0.3718 -0.3616
 1748SOL    HW2 6990   0.895   1.869   3.085 -0.4034 -1.6751 -0.6346
 1748SOL    HW3 6991   0.882   1.821   2.942 -0.9490  0.0264 -1.1679
 1748SOL    MW4 6992   0.875   1.884   3.002 -0.1002 -0.4912 -0.5040
 1749SOL     OW 6993   1.149   2.023   2.946  0.0226  0.3177 -0.4932
 1749SOL    HW2 6994   1.066   1.976   2.953  1.6174 -2.5842 -0.0966
 1749SOL    HW3 6995   1.162   2.034   2.852 -0.0478 -0.6831 -0.6265
 1749SOL    MW4 6996   1.139   2.018   2.934  0.2237 -0.1972 -0.4585
 1750SOL     OW 6997   1.127   2.295   3.005  0.2739  0.7113  0.3974
 1750SOL    HW2 6998   1.124   2.208   2.967  2.7526  1.0853 -0.7416
 1750SOL    HW3 6999   1.065   2.346   2.953 -0.6063 -0.1726  0.5727
 1750SOL    MW4 7000   1.118   2.290   2.993  0.4848  0.6440  0.2702
 1751SOL     OW 7001   0.908   2.454   2.892  0.0135 -0.0531  0.1106
 1751SOL    HW2 7002   0.830   2.400   2.903 -0.0305  0.0068  0.0925
 1751SOL    HW3 7003   0.921   2.458   2.797 -0.2911  0.4095  0.0920
 1751SOL    MW4 7004   0.900   2.447   2.881 -0.0325  0.0158  0.1058
 1752SOL     OW 7005   0.884   2.689   3.260 -0.3092  0.5851 -0.1891
 1752SOL    HW2 7006   0.964   2.720   3.302 -0.3683 -0.5794  0.8074
 1752SOL    HW3 7007   0.880   2.595   3.281 -1.5208  0.4621 -0.8850
 1752SOL    MW4 7008   0.894   2.680   3.268 -0.4768  0.4152 -0.1494
 1753SOL     OW 7009   1.150   2.856   2.884 -0.4499  0.1915  0.1481
 1753SOL    HW2 7010   1.156   2.922   2.953 -2.0626  1.3505 -0.7875
 1753SOL    HW3 7011   1.065   2.814   2.898 -1.0765  0.8570 -1.4542
 1753SOL    MW4 7012   1.140   2.859   2.895 -0.7453  0.4322 -0.1867
 1754SOL     OW 7013   1.160   3.093   3.068 -0.1785 -0.2142  0.0408
 1754SOL    HW2 7014   1.242   3.136   3.043 -0.1500  0.3228  1.0380
 1754SOL    HW3 7015   1.092   3.148   3.028 -0.0727 -0.4093 -0.4133
 1754SOL    MW4 7016   1.162   3.106   3.059 -0.1608 -0.1691  0.1124
 1755SOL     OW 7017   0.944   3.259   2.938 -0.0339  0.3656 -0.4442
 1755SOL    HW2 7018   0.863   3.213   2.961  0.6359 -0.0923  1.0841
 1755SOL    HW3 7019   0.957   3.239   2.845 -0.6694 -1.1348 -0.2307
 1755SOL    MW4 7020   0.935   3.250   2.929 -0.0294  0.1073 -0.2144
 1756SOL     OW 7021   0.887   3.507   3.020 -0.4058  0.2220  0.5286
 1756SOL    HW2 7022   0.963   3.549   2.981  1.5587 -1.4145  2.4109
 1756SOL    HW3 7023   0.899   3.414   3.002 -3.1055  0.1141 -0.9779
 1756SOL    MW4 7024   0.898   3.500   3.013 -0.5028 -0.0082  0.5781
 1757SOL     OW 7025   1.088   3.649   2.892 -0.1424 -0.4656  0.5089
 1757SOL    HW2 7026   1.163   3.600   2.924  0.5605  1.1853  1.4501
 1757SOL    HW3 7027   1.113   3.741   2.900 -1.0030  0.0658 -2.2595
 1757SOL    MW4 7028   1.101   3.655   2.897 -0.1632 -0.1777  0.2678
 1758SOL     OW 7029   1.158   3.912   3.010  0.3165 -0.0947  0.1234
 1758SOL    HW2 7030   1.153   3.915   3.106 -0.4715  1.2749  0.0580
 1758SOL    HW3 7031   1.069   3.932   2.981  0.1452 -2.2703 -0.8841
 1758SOL    MW4 7032   1.146   3.915   3.019  0.1899 -0.2010 -0.0182
 1759SOL     OW 7033   0.918   3.969   2.919  0.1574 -0.3878  0.2372
 1759SOL    HW2 7034   0.832   3.942   2.952 -0.2853 -1.2828 -1.5774
 1759SOL    HW3 7035   0.908   3.971   2.824  2.3831 -1.3435 -0.0557
 1759SOL    MW4 7036   0.905   3.966   2.911  0.3927 -0.6320 -0.0409
 1760SOL     OW 7037   0.914   4.248   2.932 -0.3431 -0.1216  0.1422
 1760SOL    HW2 7038   0.906   4.152   2.932  0.9210 -0.2426 -0.1156
 1760SOL    HW3 7039   0.828   4.279   2.904  0.4444 -1.3523 -4.1470
 1760SOL    MW4 7040   0.902   4.239   2.928 -0.0724 -0.2999 -0.4577
 1761SOL     OW 7041   1.152   4.406   2.894 -0.2315  0.7757 -0.0128
 1761SOL    HW2 7042   1.076   4.350   2.909 -0.6338  1.1922 -0.4808
 1761SOL    HW3 7043   1.139   4.480   2.954 -0.1298  0.7859 -0.0034
 1761SOL    MW4 7044   1.140   4.408   2.904 -0.2711  0.8320 -0.0733
 1762SOL     OW 7045   1.704   0.038   4.196  0.2729 -0.3208  0.1522
 1762SOL    HW2 7046   1.744  -0.047   4.216  0.2902 -0.7722 -1.7203
 1762SOL    HW3 7047   1.747   0.067   4.116 -0.5371  0.9288  0.1547
 1762SOL    MW4 7048   1.715   0.030   4.188  0.1683 -0.2155 -0.0945
 1763SOL     OW 7049   1.334   0.132   2.918  0.1280  0.1896  0.6288
 1763SOL    HW2 7050   1.405   0.068   2.929 -1.4346 -1.9075 -1.2447
 1763SOL    HW3 7051   1.316   0.132   2.824 -1.7625  1.3923  0.9760
 1763SOL    MW4 7052   1.341   0.124   2.907 -0.3276  0.0716  0.4274
 1764SOL     OW 7053   1.338   0.318   3.306  0.0485 -0.0794 -0.5498
 1764SOL    HW2 7054   1.367   0.325   3.215  0.8217 -0.0983 -0.3072
 1764SOL    HW3 7055   1.325   0.224   3.319  0.5043 -0.1342 -0.4704
 1764SOL    MW4 7056   1.340   0.307   3.295  0.2106 -0.0891 -0.5073
 1765SOL     OW 7057   1.628   0.484   2.900 -0.1008 -0.4618 -0.5215
 1765SOL    HW2 7058   1.610   0.578   2.903 -0.8216 -0.6002 -0.4313
 1765SOL    HW3 7059   1.642   0.466   2.807  1.2541 -0.0504 -0.4160
 1765SOL    MW4 7060   1.628   0.494   2.888 -0.0171 -0.4258 -0.4957
 1766SOL     OW 7061   1.576   0.759   2.965  0.2270  0.2402  0.0655
 1766SOL    HW2 7062   1.560   0.724   3.053 -0.2465  0.8105  0.2069
 1766SOL    HW3 7063   1.496   0.808   2.944  0.0548 -0.4533 -0.9558
 1766SOL    MW4 7064   1.563   0.761   2.974  0.1418  0.2239 -0.0506
 1767SOL     OW 7065   1.356   0.890   2.865 -0.2497 -0.1905  0.1021
 1767SOL    HW2 7066   1.345   0.976   2.906 -1.5118  0.0300 -0.6687
 1767SOL    HW3 7067   1.291   0.834   2.908 -0.4422 -0.3764 -0.4236
 1767SOL    MW4 7068   1.346   0.894   2.876 -0.4416 -0.1859 -0.0689
 1768SOL     OW 7069   1.321   1.113   3.010 -0.2275  0.2595 -0.3793
 1768SOL    HW2 7070   1.329   1.097   3.104 -1.6244  0.2406 -0.2510
 1768SOL    HW3 7071   1.401   1.161   2.987 -0.5850  1.6402  1.1285
 1768SOL    MW4 7072   1.332   1.117   3.020 -0.4590  0.4392 -0.1634
 1769SOL     OW 7073   1.548   1.255   2.964  0.3035 -0.2435 -0.1305
 1769SOL    HW2 7074   1.630   1.211   2.988  0.0533 -0.6589 -0.0195
 1769SOL    HW3 7075   1.558   1.344   2.996  0.5291 -0.4188  0.2968
 1769SOL    MW4 7076   1.560   1.261   2.971  0.3003 -0.3215 -0.0595
 1770SOL     OW 7077   1.577   1.497   3.074 -0.0822  0.0855  0.6661
 1770SOL    HW2 7078   1.653   1.532   3.027 -1.0239  0.7645 -0.3782
 1770SOL    HW3 7079   1.503   1.545   3.038 -1.1280 -1.3176  0.9168
 1770SOL    MW4 7080   1.578   1.508   3.063 -0.3444 -0.0100  0.5614
 1771SOL     OW 7081   1.401   1.656   2.899  0.0334  0.0533  0.6791
 1771SOL    HW2 7082   1.392   1.745   2.933 -0.0838  0.4820 -0.4478
 1771SOL    HW3 7083   1.405   1.667   2.804  3.1277 -0.8856  0.6413
 1771SOL    MW4 7084   1.400   1.669   2.891  0.4262 -0.0140  0.5254
 1772SOL     OW 7085   1.405   1.939   2.986 -0.1524 -0.1840 -0.3942
 1772SOL    HW2 7086   1.411   1.914   3.078  1.7328 -0.9562 -0.6992
 1772SOL    HW3 7087   1.316   1.971   2.975 -0.1205  0.7675  1.9192
 1772SOL    MW4 7088   1.394   1.940   2.996  0.1005 -0.1603 -0.1292
 1773SOL     OW 7089   1.601   2.115   2.907 -0.2372 -0.0717  0.0755
 1773SOL    HW2 7090   1.524   2.062   2.930 -1.2262  1.6685  0.8894
 1773SOL    HW3 7091   1.605   2.111   2.812 -1.4816 -0.0005  0.0054
 1773SOL    MW4 7092   1.591   2.107   2.897 -0.5319  0.1673  0.1737
 1774SOL     OW 7093   1.603   2.357   3.009 -0.0520  0.4753  0.6527
 1774SOL    HW2 7094   1.519   2.392   2.979  0.3174  0.7674 -0.0804
 1774SOL    HW3 7095   1.611   2.273   2.964 -0.6397 -0.2479  1.9036
 1774SOL    MW4 7096   1.593   2.351   2.999 -0.0808  0.4185  0.7210
 1775SOL     OW 7097   1.351   2.445   2.883 -0.4648  0.5018  0.0682
 1775SOL    HW2 7098   1.283   2.384   2.912 -0.1897  0.4658  0.6400
 1775SOL    HW3 7099   1.362   2.426   2.790 -1.0228  0.3002  0.0436
 1775SOL    MW4 7100   1.344   2.434   2.875 -0.5021  0.4705  0.1404
 1776SOL     OW 7101   1.378   2.707   2.956 -0.4360 -0.2512 -0.0079
 1776SOL    HW2 7102   1.368   2.615   2.933 -0.6277 -0.6077  1.4820
 1776SOL    HW3 7103   1.302   2.750   2.918 -0.8809 -0.8777  0.1787
 1776SOL    MW4 7104   1.367   2.701   2.948 -0.5200 -0.3809  0.2133
 1777SOL     OW 7105   1.561   2.855   2.832 -0.2289 -0.0235 -0.3381
 1777SOL    HW2 7106   1.640   2.820   2.871 -0.2891  0.8127  0.5645
 1777SOL    HW3 7107   1.490   2.808   2.876 -0.2910  0.8018  0.4729
 1777SOL    MW4 7108   1.562   2.844   2.843 -0.2451  0.1957 -0.1120
 1778SOL     OW 7109   1.570   3.100   2.981 -0.0658  0.1174  0.2999
 1778SOL    HW2 7110   1.543   3.075   3.069 -2.5652  0.2740 -0.3829
 1778SOL    HW3 7111   1.573   3.017   2.933  2.1459 -0.0824  0.6941
 1778SOL    MW4 7112   1.567   3.086   2.986 -0.1038  0.1117  0.2618
 1779SOL     OW 7113   1.340   3.244   2.936 -0.1201 -0.2787 -0.5545
 1779SOL    HW2 7114   1.430   3.211   2.944  0.0910  0.4105  0.0998
 1779SOL    HW3 7115   1.320   3.238   2.843  1.1489  0.9049 -0.9398
 1779SOL    MW4 7116   1.349   3.239   2.925  0.0751 -0.0316 -0.5190
 1780SOL     OW 7117   1.328   3.516   2.987  0.3113  0.1901 -0.0862
 1780SOL    HW2 7118   1.329   3.533   3.082  0.0843  1.6544 -0.3446
 1780SOL    HW3 7119   1.323   3.420   2.981  0.2218  0.0817  1.3842
 1780SOL    MW4 7120   1.327   3.505   2.999  0.2696  0.3690  0.0737
 1781SOL     OW 7121   1.555   3.630   2.908 -0.1345  0.2328 -0.3672
 1781SOL    HW2 7122   1.481   3.581   2.945  1.1038 -2.1611 -0.9587
 1781SOL    HW3 7123   1.540   3.627   2.813  1.1329 -0.9725 -0.5425
 1781SOL    MW4 7124   1.543   3.623   2.900  0.1961 -0.2421 -0.4684
 1782SOL     OW 7125   1.575   3.878   3.019  0.4678  0.6468 -0.5045
 1782SOL    HW2 7126   1.657   3.923   2.996  2.1253 -1.3040  1.3333
 1782SOL    HW3 7127   1.577   3.797   2.968 -0.3932  0.6582 -0.5632
 1782SOL    MW4 7128   1.586   3.873   3.009  0.5729  0.3909 -0.2698
 1783SOL     OW 7129   1.368   4.011   2.882 -0.3345  0.7103 -0.3154
 1783SOL    HW2 7130   1.295   3.979   2.934  0.2471  1.8031  1.2227
 1783SOL    HW3 7131   1.445   3.970   2.921  0.1227  1.6613 -0.2022
 1783SOL    MW4 7132   1.369   4.001   2.894 -0.1974  0.9800 -0.0976
 1784SOL     OW 7133   1.373   4.257   2.992  0.0969 -0.1297 -0.5852
 1784SOL    HW2 7134   1.301   4.306   2.953 -0.0916  0.1818  0.1681
 1784SOL    HW3 7135   1.364   4.169   2.954  0.3579  0.3672 -1.8235
 1784SOL    MW4 7136   1.362   4.252   2.982  0.1065 -0.0230 -0.6492
 1785SOL     OW 7137   1.593   4.351   2.866  0.0600 -0.4082 -0.2660
 1785SOL    HW2 7138   1.522   4.295   2.898 -1.7545 -0.8926 -4.8694
 1785SOL    HW3 7139   1.557   4.440   2.870  0.0414 -0.4073 -0.4696
 1785SOL    MW4 7140   1.579   4.356   2.871 -0.1818 -0.4720 -0.9002
 1786SOL     OW 7141   1.800   0.035   3.274 -0.2433  0.0337 -0.0413
 1786SOL    HW2 7142   1.748  -0.017   3.212 -1.0415  0.1853  0.4938
 1786SOL    HW3 7143   1.886  -0.007   3.274 -0.1475  0.1941 -1.4600
 1786SOL    MW4 7144   1.804   0.023   3.266 -0.3360  0.0748 -0.1579
 1787SOL     OW 7145   1.756   0.082   2.891  0.3238 -0.2210 -0.1949
 1787SOL    HW2 7146   1.781   0.166   2.930  1.7163 -0.5852 -0.2498
 1787SOL    HW3 7147   1.791   0.086   2.801  1.9903 -1.5350  0.3557
 1787SOL    MW4 7148   1.764   0.093   2.884  0.7274 -0.4424 -0.1295
 1788SOL     OW 7149   1.825   0.342   3.026 -0.3298 -0.1972  0.0344
 1788SOL    HW2 7150   1.747   0.390   2.999  0.6012  1.7270  0.6514
 1788SOL    HW3 7151   1.816   0.331   3.120  0.0870 -0.0419  0.0964
 1788SOL    MW4 7152   1.814   0.347   3.035 -0.1520  0.0772  0.1240
 1789SOL     OW 7153   2.046   0.470   2.919  0.8854 -0.1889  0.3589
 1789SOL    HW2 7154   1.964   0.426   2.940  1.1175 -0.6226  0.3539
 1789SOL    HW3 7155   2.053   0.463   2.824 -0.9203  3.0811 -0.1001
 1789SOL    MW4 7156   2.036   0.463   2.909  0.6778  0.1853  0.2977
 1790SOL     OW 7157   2.074   0.737   2.995 -0.7143  0.6605  0.2037
 1790SOL    HW2 7158   2.066   0.644   2.978 -0.1952  0.3258  1.7164
 1790SOL    HW3 7159   2.000   0.777   2.949 -1.6047 -0.6161  0.5221
 1790SOL    MW4 7160   2.063   0.730   2.987 -0.7633  0.4479  0.4453
 1791SOL     OW 7161   1.834   0.882   2.913  0.0549 -0.1741 -0.0197
 1791SOL    HW2 7162   1.759   0.828   2.939 -0.3611  0.3457 -0.1085
 1791SOL    HW3 7163   1.828   0.886   2.818  1.5045 -1.9710 -0.1958
 1791SOL    MW4 7164   1.823   0.876   2.904  0.1913 -0.3426 -0.0546
 1792SOL     OW 7165   1.815   1.152   3.009 -0.2207 -0.2261  0.0903
 1792SOL    HW2 7166   1.772   1.141   3.094  2.2477 -0.0900  1.3870
 1792SOL    HW3 7167   1.810   1.066   2.968 -0.6528 -0.5053  0.7226
 1792SOL    MW4 7168   1.808   1.139   3.015  0.0480 -0.2450  0.3448
 1793SOL     OW 7169   2.062   1.253   2.908 -0.1743  0.1524 -0.1418
 1793SOL    HW2 7170   2.136   1.200   2.936  0.4328  0.5182 -1.0337
 1793SOL    HW3 7171   1.985   1.200   2.929  0.3346 -0.1869  0.8680
 1793SOL    MW4 7172   2.061   1.239   2.914 -0.0270  0.1559 -0.1262
 1794SOL     OW 7173   1.988   1.491   3.045  0.3706 -0.6622  0.2494
 1794SOL    HW2 7174   2.004   1.487   3.140 -0.2532  1.0708  0.4555
 1794SOL    HW3 7175   2.017   1.406   3.012  0.2270 -1.4377  2.0527
 1794SOL    MW4 7176   1.994   1.480   3.053  0.2693 -0.5359  0.5145
 1795SOL     OW 7177   1.783   1.636   2.954  0.0448 -0.0773  0.1210
 1795SOL    HW2 7178   1.794   1.722   2.995  0.1508 -0.4145  0.8075
 1795SOL    HW3 7179   1.860   1.586   2.981 -0.4427 -0.6659  0.4388
 1795SOL    MW4 7180   1.795   1.641   2.963 -0.0055 -0.1994  0.2535
 1796SOL     OW 7181   1.796   1.912   3.016 -0.4389 -0.5838 -0.6105
 1796SOL    HW2 7182   1.871   1.947   2.968  0.3770 -1.9263 -0.3542
 1796SOL    HW3 7183   1.720   1.953   2.975  0.2268 -1.8452 -3.2001
 1796SOL    MW4 7184   1.796   1.922   3.004 -0.2434 -0.9273 -0.9183
 1797SOL     OW 7185   2.031   2.051   2.915  0.2905 -0.0580 -0.4372
 1797SOL    HW2 7186   2.097   1.998   2.960  0.1911 -1.0398 -1.4356
 1797SOL    HW3 7187   2.029   2.133   2.965  0.1518 -1.1289  1.3863
 1797SOL    MW4 7188   2.040   2.054   2.928  0.2591 -0.3288 -0.3283
 1798SOL     OW 7189   2.042   2.327   3.032  0.0414 -0.1097  0.1534
 1798SOL    HW2 7190   2.115   2.371   2.988  0.0671 -0.6238 -0.3179
 1798SOL    HW3 7191   1.965   2.377   3.006  0.1648  0.1349  0.2548
 1798SOL    MW4 7192   2.042   2.340   3.023  0.0611 -0.1452  0.1046
 1799SOL     OW 7193   1.834   2.469   2.919 -0.1830 -0.1203 -0.1525
 1799SOL    HW2 7194   1.817   2.563   2.932  0.2590 -0.3893  2.8861
 1799SOL    HW3 7195   1.755   2.426   2.951 -0.5096 -0.8066 -1.8221
 1799SOL    MW4 7196   1.821   2.476   2.925 -0.1677 -0.2463  0.0281
 1800SOL     OW 7197   1.794   2.751   2.940  0.1431 -0.2700 -0.0176
 1800SOL    HW2 7198   1.808   2.737   3.033 -1.4728  0.2848  0.3339
 1800SOL    HW3 7199   1.873   2.794   2.909  0.5504 -0.1591  1.1620
 1800SOL    MW4 7200   1.806   2.755   2.948 -0.0164 -0.1822  0.1844
 1801SOL     OW 7201   2.045   2.856   2.921 -0.4015  0.6056  0.2365
 1801SOL    HW2 7202   2.029   2.948   2.939 -1.3149  0.7332 -1.0851
 1801SOL    HW3 7203   2.066   2.853   2.827  1.1039 -0.3554  0.5842
 1801SOL    MW4 7204   2.046   2.867   2.911 -0.3234  0.4957  0.1080
 1802SOL     OW 7205   2.020   3.138   2.970  0.2079  0.4105 -0.0805
 1802SOL    HW2 7206   2.028   3.158   3.063  2.9090  0.2978 -0.2444
 1802SOL    HW3 7207   1.938   3.180   2.943  0.9753  3.1552  1.6537
 1802SOL    MW4 7208   2.010   3.146   2.978  0.6655  0.7578  0.1266
 1803SOL     OW 7209   1.773   3.234   2.862  0.7529  0.5778 -0.5230
 1803SOL    HW2 7210   1.772   3.218   2.768  0.6477 -0.6842 -0.3132
 1803SOL    HW3 7211   1.698   3.185   2.895 -0.2088  2.3462  0.0194
 1803SOL    MW4 7212   1.763   3.226   2.854  0.6122  0.6446 -0.4238
 1804SOL     OW 7213   1.812   3.481   2.972  0.0717  0.1421 -0.2196
 1804SOL    HW2 7214   1.801   3.389   2.946 -0.0638 -0.2883  1.2798
 1804SOL    HW3 7215   1.729   3.522   2.950 -0.1461 -0.2738 -0.1880
 1804SOL    MW4 7216   1.800   3.474   2.966  0.0250  0.0304 -0.0176
 1805SOL     OW 7217   2.008   3.590   2.845  0.1264 -0.3411  0.5186
 1805SOL    HW2 7218   2.011   3.678   2.882 -1.1872 -0.5772  1.2260
 1805SOL    HW3 7219   1.926   3.553   2.877  0.6700 -1.8370  0.2562
 1805SOL    MW4 7220   1.998   3.596   2.854  0.0248 -0.5696  0.5773
 1806SOL     OW 7221   2.028   3.839   2.966 -0.3080  0.0033 -0.1565
 1806SOL    HW2 7222   2.029   3.850   3.062 -0.8547  0.2260 -0.1765
 1806SOL    HW3 7223   1.958   3.897   2.936 -1.9173 -2.0680 -0.4620
 1806SOL    MW4 7224   2.019   3.848   2.975 -0.5925 -0.2406 -0.1994
 1807SOL     OW 7225   1.795   4.007   2.914 -0.2625 -0.0211  0.0731
 1807SOL    HW2 7226   1.825   4.095   2.939  0.7701 -0.4240  0.2833
 1807SOL    HW3 7227   1.791   4.009   2.818  0.1699  0.1232  0.0590
 1807SOL    MW4 7228   1.798   4.019   2.904 -0.0692 -0.0552  0.0990
 1808SOL     OW 7229   1.527   4.614   2.946  0.0774  0.2001 -0.3385
 1808SOL    HW2 7230   1.519   4.611   3.042  0.8592  0.2252 -0.2717
 1808SOL    HW3 7231   1.611   4.656   2.930 -0.5416  1.1805 -1.0533
 1808SOL    MW4 7232   1.537   4.619   2.957  0.0989  0.3328 -0.4240
 1809SOL     OW 7233   1.846   4.364   2.982  0.2084 -0.1189 -0.0875
 1809SOL    HW2 7234   1.901   4.408   2.917  0.1201 -0.9237 -0.7200
 1809SOL    HW3 7235   1.758   4.365   2.943  0.0141  0.0418  0.3512
 1809SOL    MW4 7236   1.842   4.370   2.968  0.1711 -0.2039 -0.1131
 1810SOL     OW 7237   2.520   4.569   2.989  0.0342  0.4055  0.1247
 1810SOL    HW2 7238   2.497   4.489   2.942 -1.2231  0.8538 -0.0429
 1810SOL    HW3 7239   2.447   4.629   2.972  0.8759  1.5220  0.3952
 1810SOL    MW4 7240   2.507   4.566   2.981 -0.0206  0.6120  0.1383
 1811SOL     OW 7241   2.297   0.059   2.902  0.0195 -0.2181 -0.2365
 1811SOL    HW2 7242   2.304   0.147   2.937  0.1748 -0.7188  1.0115
 1811SOL    HW3 7243   2.208   0.031   2.922  0.3031 -0.7381  0.3405
 1811SOL    MW4 7244   2.287   0.067   2.909  0.0774 -0.3528  0.0043
 1812SOL     OW 7245   2.273   0.318   2.997  0.0328  0.3880 -0.2028
 1812SOL    HW2 7246   2.254   0.304   3.089 -0.7810 -0.0124 -0.4293
 1812SOL    HW3 7247   2.194   0.361   2.963 -1.2495 -2.8480 -1.5380
 1812SOL    MW4 7248   2.260   0.322   3.004 -0.2438 -0.0918 -0.4088
 1813SOL     OW 7249   2.495   0.509   2.889 -0.2509 -0.4856 -0.2057
 1813SOL    HW2 7250   2.420   0.468   2.932 -1.3811 -0.0919 -1.7860
 1813SOL    HW3 7251   2.485   0.489   2.796  1.4611 -0.2017 -0.4780
 1813SOL    MW4 7252   2.484   0.501   2.883 -0.1741 -0.3962 -0.4501
 1814SOL     OW 7253   2.521   0.745   3.015  0.2904  0.3540 -0.0653
 1814SOL    HW2 7254   2.590   0.802   2.980 -0.9185  0.4851 -2.3585
 1814SOL    HW3 7255   2.533   0.662   2.969 -0.6458  0.1494  0.0606
 1814SOL    MW4 7256   2.532   0.742   3.004  0.0074  0.3443 -0.3512
 1815SOL     OW 7257   2.302   0.884   2.885 -0.1693 -0.1131  0.0708
 1815SOL    HW2 7258   2.378   0.826   2.894 -0.1294 -0.4795 -2.3321
 1815SOL    HW3 7259   2.228   0.832   2.916  0.2997 -0.3567  0.7989
 1815SOL    MW4 7260   2.302   0.870   2.890 -0.1022 -0.1936 -0.1502
 1816SOL     OW 7261   2.292   1.120   3.027  0.1597  0.1795 -0.1954
 1816SOL    HW2 7262   2.298   1.119   3.123  0.6771  1.4586 -0.2069
 1816SOL    HW3 7263   2.292   1.028   3.003 -0.6865 -0.1749  1.0765
 1816SOL    MW4 7264   2.293   1.108   3.037  0.1163  0.3015 -0.0291
 1817SOL     OW 7265   2.492   1.252   2.883  0.0921  0.4426 -0.2743
 1817SOL    HW2 7266   2.488   1.250   2.788  1.0415  0.0404 -0.3089
 1817SOL    HW3 7267   2.429   1.187   2.911 -1.3944  1.7196 -0.5886
 1817SOL    MW4 7268   2.483   1.244   2.874  0.0212  0.5580 -0.3204
 1818SOL     OW 7269   2.451   1.502   3.003  0.1784 -0.1191 -0.2846
 1818SOL    HW2 7270   2.364   1.540   2.988 -0.3386 -0.3140  2.0687
 1818SOL    HW3 7271   2.441   1.410   2.975 -0.8926 -0.5952  1.5954
 1818SOL    MW4 7272   2.438   1.495   2.997 -0.0311 -0.2076  0.2739
 1819SOL     OW 7273   2.210   1.640   2.952 -0.2098 -0.0541  0.0800
 1819SOL    HW2 7274   2.130   1.594   2.978 -0.6225 -0.6570 -2.1787
 1819SOL    HW3 7275   2.206   1.643   2.857  1.6811  1.3466  0.0218
 1819SOL    MW4 7276   2.198   1.635   2.943 -0.0148  0.0512 -0.2257
 1820SOL     OW 7277   2.228   1.913   3.045 -0.4570  0.4439 -0.1765
 1820SOL    HW2 7278   2.306   1.945   3.000  0.7406 -1.4254  0.5552
 1820SOL    HW3 7279   2.200   1.837   2.994 -1.8450  1.1188 -0.4612
 1820SOL    MW4 7280   2.235   1.907   3.032 -0.4821  0.2863 -0.1175
 1821SOL     OW 7281   2.413   2.027   2.900 -0.6092 -0.7839 -0.0419
 1821SOL    HW2 7282   2.504   2.004   2.919  0.2351  1.7712 -0.8765
 1821SOL    HW3 7283   2.405   2.013   2.805 -0.4431  1.1113 -0.3413
 1821SOL    MW4 7284   2.424   2.022   2.890 -0.4759 -0.1967 -0.1915
 1822SOL     OW 7285   2.413   2.283   2.987  0.2602  0.0808 -0.0511
 1822SOL    HW2 7286   2.425   2.278   3.082 -0.1573 -0.2912 -0.0128
 1822SOL    HW3 7287   2.410   2.191   2.959  0.6767  0.1919 -0.4649
 1822SOL    MW4 7288   2.414   2.270   2.996  0.2601  0.0464 -0.1006
 1823SOL     OW 7289   2.240   2.479   2.895  0.7473  0.3056 -0.3540
 1823SOL    HW2 7290   2.243   2.571   2.921 -0.6186 -0.0996  1.3079
 1823SOL    HW3 7291   2.319   2.441   2.932  1.0597  0.7046 -0.6125
 1823SOL    MW4 7292   2.251   2.486   2.903  0.6083  0.3048 -0.1688
 1824SOL     OW 7293   2.277   2.720   3.004  0.2387  0.0611 -0.4766
 1824SOL    HW2 7294   2.352   2.759   2.959  0.4644  0.7458  0.4854
 1824SOL    HW3 7295   2.205   2.781   2.990  0.4812  0.6179  0.6602
 1824SOL    MW4 7296   2.278   2.733   2.996  0.3004  0.2249 -0.1997
 1825SOL     OW 7297   2.477   3.099   2.962 -0.3367  0.2373 -0.1936
 1825SOL    HW2 7298   2.559   3.125   2.920 -1.5557  1.7181 -1.7145
 1825SOL    HW3 7299   2.411   3.156   2.923 -1.8858  0.0073  2.0329
 1825SOL    MW4 7300   2.479   3.110   2.951 -0.7019  0.4024 -0.1005
 1826SOL     OW 7301   2.519   2.834   2.895  0.0982 -0.1231  0.0845
 1826SOL    HW2 7302   2.495   2.922   2.927  0.8174 -0.0135  0.3282
 1826SOL    HW3 7303   2.509   2.840   2.800  0.6627  0.3872  0.0507
 1826SOL    MW4 7304   2.514   2.847   2.887  0.2676 -0.0413  0.1122
 1827SOL     OW 7305   2.252   3.266   2.843  0.3115 -0.4536 -0.1404
 1827SOL    HW2 7306   2.251   3.346   2.896  0.7208  0.4882 -1.5241
 1827SOL    HW3 7307   2.180   3.213   2.878  0.9677 -0.1281  1.7535
 1827SOL    MW4 7308   2.242   3.269   2.854  0.4521 -0.2864 -0.0731
 1828SOL     OW 7309   2.227   3.507   2.993 -0.0212  0.2118 -0.2546
 1828SOL    HW2 7310   2.303   3.552   2.955  0.2751  0.4881  0.6410
 1828SOL    HW3 7311   2.153   3.537   2.941  0.4196  0.2954 -0.8486
 1828SOL    MW4 7312   2.227   3.517   2.981  0.0761  0.2593 -0.2148
 1829SOL     OW 7313   2.448   3.632   2.877  0.0325 -0.1490  0.0290
 1829SOL    HW2 7314   2.533   3.596   2.903  0.2657  0.0421 -0.4457
 1829SOL    HW3 7315   2.436   3.708   2.933  0.1419 -0.2209  0.1493
 1829SOL    MW4 7316   2.458   3.637   2.887  0.0777 -0.1333 -0.0177
 1830SOL     OW 7317   2.429   3.850   3.050 -0.3016 -0.3223 -0.0910
 1830SOL    HW2 7318   2.388   3.863   3.136  0.7302  1.0033  0.2252
 1830SOL    HW3 7319   2.495   3.919   3.045  0.9572 -1.5660 -1.1485
 1830SOL    MW4 7320   2.433   3.861   3.061  0.0007 -0.3115 -0.1888
 1831SOL     OW 7321   2.248   4.002   2.903  0.1492  0.3513 -0.4174
 1831SOL    HW2 7322   2.318   3.941   2.927 -0.6651 -0.2690  0.4386
 1831SOL    HW3 7323   2.170   3.946   2.894 -0.6048  1.2600  0.3661
 1831SOL    MW4 7324   2.247   3.986   2.905 -0.0577  0.3893 -0.2011
 1832SOL     OW 7325   2.195   4.270   2.960 -0.1762 -0.1473  0.5516
 1832SOL    HW2 7326   2.207   4.179   2.933  2.0019  0.3754 -0.3806
 1832SOL    HW3 7327   2.142   4.309   2.891 -1.0088 -0.6727  0.8902
 1832SOL    MW4 7328   2.190   4.263   2.948  0.0013 -0.1476  0.4733
 1833SOL     OW 7329   2.459   4.323   2.863 -0.4017  0.3202  0.6625
 1833SOL    HW2 7330   2.368   4.304   2.888 -0.2547 -0.2938  0.7227
 1833SOL    HW3 7331   2.455   4.338   2.769 -0.3817 -0.7920  0.4899
 1833SOL    MW4 7332   2.446   4.323   2.854 -0.3796  0.0924  0.6477
 1834SOL     OW 7333   2.953   4.611   3.011 -0.4578 -0.5229 -0.4565
 1834SOL    HW2 7334   3.014   4.647   2.946 -1.1714  0.4146 -0.6184
 1834SOL    HW3 7335   2.931   4.524   2.978  1.6406 -1.3257  0.1652
 1834SOL    MW4 7336   2.958   4.604   2.998 -0.2751 -0.5052 -0.3958
 1835SOL     OW 7337   2.717   0.070   2.921 -0.4452 -0.0828  0.2971
 1835SOL    HW2 7338   2.795   0.033   2.962 -0.7752  1.3322  2.3424
 1835SOL    HW3 7339   2.645   0.018   2.956 -0.5734 -0.1287 -0.0385
 1835SOL    MW4 7340   2.718   0.059   2.931 -0.5057  0.0978  0.5227
 1836SOL     OW 7341   2.705   0.344   2.989 -0.2475  0.4779 -0.1523
 1836SOL    HW2 7342   2.706   0.252   2.962 -1.0731  0.1300  0.9769
 1836SOL    HW3 7343   2.627   0.381   2.949 -0.1293  0.5887 -0.2831
 1836SOL    MW4 7344   2.695   0.337   2.980 -0.3408  0.4466 -0.0206
 1837SOL     OW 7345   2.919   0.516   2.943 -0.0790 -0.0943 -0.6006
 1837SOL    HW2 7346   2.843   0.463   2.967  0.4559 -0.2477  0.7668
 1837SOL    HW3 7347   2.918   0.517   2.847 -0.8326 -1.5229 -0.6185
 1837SOL    MW4 7348   2.909   0.509   2.933 -0.1079 -0.3030 -0.4225
 1838SOL     OW 7349   2.904   0.774   3.017 -0.8355  0.0016  0.5095
 1838SOL    HW2 7350   2.911   0.764   3.112  1.2333  1.7661  0.5930
 1838SOL    HW3 7351   2.914   0.686   2.982  0.7357 -0.3534  1.8276
 1838SOL    MW4 7352   2.906   0.761   3.025 -0.3552  0.1876  0.6944
 1839SOL     OW 7353   2.716   0.939   2.919 -0.1193 -0.2924 -0.1624
 1839SOL    HW2 7354   2.728   1.018   2.971 -1.1338  0.1907 -0.6536
 1839SOL    HW3 7355   2.789   0.882   2.945 -0.0018  0.3639  0.9879
 1839SOL    MW4 7356   2.727   0.942   2.929 -0.2377 -0.1421 -0.0754
 1840SOL     OW 7357   2.728   1.207   3.006  0.0656 -0.3994 -0.2305
 1840SOL    HW2 7358   2.799   1.222   2.944  0.4686 -2.7333 -0.3717
 1840SOL    HW3 7359   2.649   1.225   2.955  0.4855  0.6103 -0.5466
 1840SOL    MW4 7360   2.727   1.212   2.991  0.1741 -0.5741 -0.2908
 1841SOL     OW 7361   2.948   1.233   2.850 -0.3634 -0.1260  0.7268
 1841SOL    HW2 7362   2.939   1.327   2.866  1.1617  0.2229 -0.3484
 1841SOL    HW3 7363   3.017   1.205   2.910  1.1131 -0.0041 -0.8904
 1841SOL    MW4 7364   2.956   1.242   2.860  0.0326 -0.0639  0.3716
 1842SOL     OW 7365   2.949   1.554   3.249  0.4588 -0.0138 -0.2910
 1842SOL    HW2 7366   2.945   1.473   3.299  1.7990 -0.2785 -0.6003
 1842SOL    HW3 7367   2.858   1.586   3.248 -0.0866 -1.5213 -0.2140
 1842SOL    MW4 7368   2.936   1.547   3.255  0.5637 -0.2476 -0.3216
 1843SOL     OW 7369   2.927   1.510   2.961  0.1083 -0.3227  0.0319
 1843SOL    HW2 7370   3.010   1.544   2.927 -0.6726  0.5882 -0.9831
 1843SOL    HW3 7371   2.941   1.504   3.056  1.2626  0.0067 -0.1036
 1843SOL    MW4 7372   2.940   1.513   2.969  0.1576 -0.1591 -0.1199
 1844SOL     OW 7373   2.702   1.644   2.906  0.3287  0.3551  0.0943
 1844SOL    HW2 7374   2.788   1.605   2.917  0.2864  0.2233 -0.0446
 1844SOL    HW3 7375   2.641   1.580   2.942  0.4101  1.1321  1.6363
 1844SOL    MW4 7376   2.705   1.631   2.912  0.3339  0.4402  0.2794
 1845SOL     OW 7377   2.918   2.038   2.898  0.0796  0.2606  0.4498
 1845SOL    HW2 7378   2.918   2.130   2.924  1.1089  1.1002 -2.3688
 1845SOL    HW3 7379   2.936   2.039   2.804 -0.0603 -2.8198  0.3269
 1845SOL    MW4 7380   2.920   2.050   2.889  0.1970 -0.0350  0.0617
 1846SOL     OW 7381   2.888   2.297   2.991  0.0984  0.5268  0.4424
 1846SOL    HW2 7382   2.959   2.348   2.953  0.0616  0.5549  0.4114
 1846SOL    HW3 7383   2.809   2.333   2.951  0.1456 -0.2557 -0.3737
 1846SOL    MW4 7384   2.887   2.309   2.981  0.0998  0.4273  0.3307
 1847SOL     OW 7385   2.661   2.421   2.891 -0.6159 -0.2425 -0.4300
 1847SOL    HW2 7386   2.671   2.504   2.938 -0.2453 -1.1248  1.0712
 1847SOL    HW3 7387   2.577   2.387   2.921 -0.6098 -0.5824 -0.7944
 1847SOL    MW4 7388   2.651   2.427   2.901 -0.5662 -0.4037 -0.2800
 1848SOL     OW 7389   2.738   2.695   2.994  0.2241  0.3607 -0.4894
 1848SOL    HW2 7390   2.733   2.688   3.090  1.8140  1.5782 -0.2904
 1848SOL    HW3 7391   2.663   2.750   2.971 -0.4341 -0.3158 -0.0004
 1848SOL    MW4 7392   2.727   2.701   3.004  0.3470  0.4321 -0.3986
 1849SOL     OW 7393   2.963   2.793   2.856  0.5187  0.2482  0.0078
 1849SOL    HW2 7394   3.036   2.761   2.909  0.5075 -0.0095 -0.1322
 1849SOL    HW3 7395   2.886   2.746   2.889  0.4783  0.2398 -0.0995
 1849SOL    MW4 7396   2.963   2.782   2.867  0.5119  0.2131 -0.0248
 1850SOL     OW 7397   2.921   3.094   2.968  0.3791  0.0787 -0.3632
 1850SOL    HW2 7398   2.845   3.142   2.936  0.9681  1.5660  0.4334
 1850SOL    HW3 7399   2.929   3.019   2.908 -1.0519  0.4953 -1.1007
 1850SOL    MW4 7400   2.912   3.090   2.956  0.2680  0.3299 -0.3554
 1851SOL     OW 7401   2.695   3.219   2.864  0.0979  0.0344  0.1273
 1851SOL    HW2 7402   2.674   3.304   2.902  1.3794 -0.6145  2.3580
 1851SOL    HW3 7403   2.705   3.237   2.770 -0.9242  2.0731  0.3776
 1851SOL    MW4 7404   2.693   3.232   2.857  0.1322  0.2178  0.4547
 1852SOL     OW 7405   2.674   3.464   2.991 -0.2230 -0.2234  0.5101
 1852SOL    HW2 7406   2.681   3.483   3.084  0.1545 -0.0438  0.4456
 1852SOL    HW3 7407   2.745   3.513   2.950 -0.3709 -0.3180  0.1286
 1852SOL    MW4 7408   2.684   3.473   2.998 -0.1927 -0.2122  0.4513
 1853SOL     OW 7409   2.935   3.589   2.858 -0.1987  0.0887 -0.3154
 1853SOL    HW2 7410   3.005   3.552   2.912  0.3158  0.3811 -0.7762
 1853SOL    HW3 7411   2.910   3.670   2.903 -0.4432 -0.1663  0.0078
 1853SOL    MW4 7412   2.941   3.595   2.871 -0.1631  0.0936 -0.3336
 1854SOL     OW 7413   2.864   3.820   2.962 -0.4939  0.1758 -0.1732
 1854SOL    HW2 7414   2.855   3.842   3.055  0.2832 -1.0122  0.1955
 1854SOL    HW3 7415   2.784   3.855   2.921 -1.1664  0.1017  1.0524
 1854SOL    MW4 7416   2.852   3.828   2.969 -0.4801  0.0093  0.0371
 1855SOL     OW 7417   2.701   4.170   2.965 -0.0845  0.2030 -0.4073
 1855SOL    HW2 7418   2.669   4.145   3.052  0.4274 -1.1544 -0.5955
 1855SOL    HW3 7419   2.630   4.220   2.927 -0.4834  0.4452  0.6327
 1855SOL    MW4 7420   2.688   4.173   2.972 -0.0696  0.0558 -0.2949
 1856SOL     OW 7421   2.880   3.854   3.227 -0.0589 -0.3735 -0.2521
 1856SOL    HW2 7422   2.897   3.948   3.234 -0.9637 -0.1709 -0.7300
 1856SOL    HW3 7423   2.793   3.842   3.266  0.2483 -1.0808  0.2269
 1856SOL    MW4 7424   2.871   3.865   3.233 -0.1378 -0.4401 -0.2520
 1857SOL     OW 7425   2.891   4.357   2.929 -0.4854 -0.5601  0.1238
 1857SOL    HW2 7426   2.977   4.320   2.948 -0.7574 -1.1641  0.1771
 1857SOL    HW3 7427   2.830   4.284   2.941 -0.9038 -0.3720 -0.8726
 1857SOL    MW4 7428   2.894   4.343   2.933 -0.5765 -0.6150 -0.0007
 1858SOL     OW 7429   3.395   4.566   2.968 -0.6386 -0.4241 -0.8606
 1858SOL    HW2 7430   3.470   4.625   2.956 -0.9177  0.3112  0.8582
 1858SOL    HW3 7431   3.425   4.482   2.934  0.1726  0.4203 -2.2735
 1858SOL    MW4 7432   3.409   4.562   2.962 -0.5684 -0.2157 -0.8202
 1859SOL     OW 7433   3.170   0.036   2.877 -0.0675 -0.2309 -0.0471
 1859SOL    HW2 7434   3.176   0.127   2.909 -0.2256 -0.2419  0.0121
 1859SOL    HW3 7435   3.241  -0.009   2.922 -1.4459 -0.6755  1.7159
 1859SOL    MW4 7436   3.180   0.042   2.887 -0.2702 -0.2910  0.1933
 1860SOL     OW 7437   3.122   0.302   2.970 -0.0027  0.0622 -0.1659
 1860SOL    HW2 7438   3.200   0.355   2.952 -0.1417  0.3115 -0.0475
 1860SOL    HW3 7439   3.049   0.361   2.952 -0.1463  0.4772  1.6312
 1860SOL    MW4 7440   3.122   0.317   2.965 -0.0400  0.1499  0.0868
 1861SOL     OW 7441   3.352   0.445   2.921 -0.7171 -0.2625 -0.3170
 1861SOL    HW2 7442   3.432   0.404   2.954 -1.4687 -1.7149 -0.2350
 1861SOL    HW3 7443   3.362   0.444   2.826 -0.5954 -0.3846 -0.3030
 1861SOL    MW4 7444   3.364   0.439   2.913 -0.8002 -0.4703 -0.3043
 1862SOL     OW 7445   3.329   0.722   2.947 -0.3181 -0.1315  0.3224
 1862SOL    HW2 7446   3.316   0.729   3.042 -0.2890 -1.4957  0.4404
 1862SOL    HW3 7447   3.338   0.628   2.931 -0.8843  0.0380 -1.1045
 1862SOL    MW4 7448   3.328   0.711   2.958 -0.3890 -0.2891  0.1497
 1863SOL     OW 7449   3.127   0.884   2.860 -0.1358 -0.1101 -0.4103
 1863SOL    HW2 7450   3.195   0.828   2.897  0.3951  0.4701 -0.4969
 1863SOL    HW3 7451   3.045   0.848   2.893  0.1425 -1.4808 -1.2041
 1863SOL    MW4 7452   3.125   0.872   2.869 -0.0290 -0.2144 -0.5264
 1864SOL     OW 7453   3.151   1.118   3.006 -0.2226 -0.1057 -0.4794
 1864SOL    HW2 7454   3.224   1.169   2.971  0.7749 -0.4758  0.9967
 1864SOL    HW3 7455   3.143   1.043   2.946  1.5805 -0.8318  0.1330
 1864SOL    MW4 7456   3.160   1.115   2.993  0.1469 -0.2504 -0.2039
 1865SOL     OW 7457   3.343   1.268   2.867  0.1141  0.0007 -0.3409
 1865SOL    HW2 7458   3.406   1.223   2.923 -0.3434  0.9814  0.9916
 1865SOL    HW3 7459   3.360   1.361   2.883 -0.1166  0.2960 -1.7425
 1865SOL    MW4 7460   3.354   1.275   2.876  0.0233  0.1691 -0.3500
 1866SOL     OW 7461   3.347   1.523   2.987  0.0143  0.5424 -0.4104
 1866SOL    HW2 7462   3.378   1.526   3.077 -0.6939  1.6210 -0.1948
 1866SOL    HW3 7463   3.415   1.567   2.936 -0.6738  2.0401 -0.0707
 1866SOL    MW4 7464   3.360   1.529   2.992 -0.1699  0.8823 -0.3371
 1867SOL     OW 7465   3.139   1.669   2.876 -0.1764 -0.5463  0.5049
 1867SOL    HW2 7466   3.213   1.624   2.917  0.1101 -0.4756  0.0653
 1867SOL    HW3 7467   3.151   1.654   2.783 -0.2828  0.1284  0.3807
 1867SOL    MW4 7468   3.151   1.661   2.869 -0.1526 -0.4480  0.4305
 1868SOL     OW 7469   3.158   1.917   3.010  0.8396 -0.8492  0.0022
 1868SOL    HW2 7470   3.155   1.835   2.960  0.1252 -1.1549  0.5296
 1868SOL    HW3 7471   3.081   1.966   2.979  1.7884  0.0323 -0.9929
 1868SOL    MW4 7472   3.147   1.913   2.999  0.8705 -0.7732 -0.0595
 1869SOL     OW 7473   3.356   2.037   2.848  0.3137 -0.3153 -0.3576
 1869SOL    HW2 7474   3.304   1.978   2.902 -0.7353 -0.3047 -1.3360
 1869SOL    HW3 7475   3.447   2.012   2.866  0.0640  0.7860  2.6249
 1869SOL    MW4 7476   3.361   2.026   2.858  0.1424 -0.1686 -0.0932
 1870SOL     OW 7477   3.338   2.286   2.989  0.0227 -0.2300 -0.1970
 1870SOL    HW2 7478   3.314   2.278   3.082  1.6054  0.7065  0.3072
 1870SOL    HW3 7479   3.321   2.199   2.952  1.3791 -1.2138  1.4394
 1870SOL    MW4 7480   3.332   2.274   2.997  0.4105 -0.2362  0.0854
 1871SOL     OW 7481   3.105   2.432   2.903 -0.1729 -0.0718  0.3277
 1871SOL    HW2 7482   3.123   2.410   2.812 -0.4165 -0.3832  0.3551
 1871SOL    HW3 7483   3.177   2.392   2.952 -0.1795 -0.1203  0.2976
 1871SOL    MW4 7484   3.117   2.424   2.898 -0.2059 -0.1193  0.3273
 1872SOL     OW 7485   3.196   2.692   2.994  0.0948 -0.3915  0.4878
 1872SOL    HW2 7486   3.193   2.689   3.089 -0.7107 -0.4573  0.4627
 1872SOL    HW3 7487   3.187   2.601   2.967 -2.0633 -0.1656  0.3020
 1872SOL    MW4 7488   3.194   2.679   3.003 -0.2962 -0.3704  0.4600
 1873SOL     OW 7489   3.403   2.848   2.878 -0.2138 -0.3641  0.5750
 1873SOL    HW2 7490   3.389   2.930   2.926 -0.0749 -0.9062  1.5486
 1873SOL    HW3 7491   3.342   2.786   2.917  2.2665 -1.7360  2.3611
 1873SOL    MW4 7492   3.393   2.851   2.889  0.1318 -0.6166  0.9391
 1874SOL     OW 7493   3.381   3.090   3.017 -0.4657 -0.1414  0.3308
 1874SOL    HW2 7494   3.378   3.063   3.109 -0.3991  0.8242  0.6263
 1874SOL    HW3 7495   3.293   3.121   2.998 -0.5185 -0.4781  0.0248
 1874SOL    MW4 7496   3.369   3.091   3.027 -0.4639 -0.0584  0.3294
 1875SOL     OW 7497   3.167   3.205   2.905 -0.3193  0.2799 -0.8317
 1875SOL    HW2 7498   3.084   3.163   2.928  1.4238 -3.4643 -0.9568
 1875SOL    HW3 7499   3.164   3.214   2.810 -1.2882  1.7508 -0.6655
 1875SOL    MW4 7500   3.156   3.200   2.896 -0.2172 -0.0200 -0.8263
 1876SOL     OW 7501   3.143   3.481   3.013 -0.0960 -0.2723 -0.4618
 1876SOL    HW2 7502   3.219   3.535   2.989  0.8564 -1.2559  0.3371
 1876SOL    HW3 7503   3.161   3.396   2.974 -1.2269 -0.2525 -1.0347
 1876SOL    MW4 7504   3.156   3.477   3.005 -0.1195 -0.3995 -0.4320
 1877SOL     OW 7505   3.378   3.631   2.926 -0.3722 -0.2066 -0.3606
 1877SOL    HW2 7506   3.466   3.594   2.931 -0.0233  0.4056 -1.6995
 1877SOL    HW3 7507   3.384   3.713   2.975 -0.4580 -0.6273  0.3647
 1877SOL    MW4 7508   3.390   3.637   2.934 -0.3375 -0.1813 -0.4416
 1878SOL     OW 7509   3.348   3.880   3.037  0.3158 -0.0146 -0.6939
 1878SOL    HW2 7510   3.349   3.910   3.127 -0.6637  2.0417 -1.3352
 1878SOL    HW3 7511   3.260   3.902   3.005  1.1037  0.5950 -2.5546
 1878SOL    MW4 7512   3.336   3.887   3.044  0.2906  0.3371 -1.0240
 1879SOL     OW 7513   3.099   3.971   2.927  0.0156 -0.0878  0.0755
 1879SOL    HW2 7514   3.030   3.906   2.943  1.5429 -1.7369  0.0901
 1879SOL    HW3 7515   3.102   3.979   2.832  0.0540 -0.2991  0.0581
 1879SOL    MW4 7516   3.090   3.964   2.917  0.2222 -0.3333  0.0751
 1880SOL     OW 7517   3.139   4.226   2.982 -0.5242  0.0140 -0.0896
 1880SOL    HW2 7518   3.157   4.225   3.077  2.3780  1.7544 -0.5374
 1880SOL    HW3 7519   3.132   4.134   2.959  1.1005 -0.5591  1.4747
 1880SOL    MW4 7520   3.141   4.214   2.992  0.0731  0.1680  0.0577
 1881SOL     OW 7521   3.408   4.294   2.899 -0.2837 -0.1875  0.0720
 1881SOL    HW2 7522   3.475   4.258   2.957  1.2475 -0.0475 -1.5577
 1881SOL    HW3 7523   3.326   4.280   2.945  0.7180 -1.7678  1.4261
 1881SOL    MW4 7524   3.406   4.288   2.913  0.0505 -0.3775  0.0357
 1882SOL     OW 7525   3.804   4.576   3.032 -0.0188 -0.2308 -0.0501
 1882SOL    HW2 7526   3.802   4.494   2.983  0.0199 -0.3010  0.0657
 1882SOL    HW3 7527   3.743   4.634   2.985  0.4003 -0.1311 -0.4748
 1882SOL    MW4 7528   3.796   4.573   3.019  0.0416 -0.2269 -0.0909
 1883SOL     OW 7529   3.611   0.050   2.884  0.6241 -0.3385  0.4913
 1883SOL    HW2 7530   3.604   0.143   2.905  1.0566 -0.8354  2.9807
 1883SOL    HW3 7531   3.592   0.045   2.790  0.9714  2.2907  0.2472
 1883SOL    MW4 7532   3.607   0.061   2.874  0.7270 -0.0572  0.7876
 1884SOL     OW 7533   3.594   0.299   3.014 -0.2019 -0.2861  0.2406
 1884SOL    HW2 7534   3.591   0.339   3.101 -1.0268  1.0189 -0.3786
 1884SOL    HW3 7535   3.671   0.339   2.973 -1.4631  1.2974 -0.6557
 1884SOL    MW4 7536   3.604   0.310   3.020 -0.4771  0.0950  0.0406
 1885SOL     OW 7537   4.015   0.319   3.013  0.4711  0.0934  0.0909
 1885SOL    HW2 7538   4.096   0.365   2.989  1.7165 -1.8918  0.3712
 1885SOL    HW3 7539   4.021   0.236   2.967 -2.1891  0.5332 -1.1411
 1885SOL    MW4 7540   4.027   0.314   3.004  0.2845 -0.1105 -0.0346
 1886SOL     OW 7541   3.806   0.436   2.897 -0.1736  0.1278  0.1106
 1886SOL    HW2 7542   3.811   0.528   2.922  1.7078  0.1788 -0.4297
 1886SOL    HW3 7543   3.876   0.393   2.945  0.2755 -0.6559 -1.2250
 1886SOL    MW4 7544   3.816   0.443   2.906  0.1339  0.0311 -0.1369
 1887SOL     OW 7545   3.577   0.870   2.893  0.3099 -0.5428 -0.1620
 1887SOL    HW2 7546   3.646   0.807   2.917  0.8002 -0.2868 -0.8812
 1887SOL    HW3 7547   3.498   0.836   2.935  0.2989 -2.3324 -1.5426
 1887SOL    MW4 7548   3.576   0.857   2.901  0.3732 -0.7451 -0.4391
 1888SOL     OW 7549   3.560   1.139   2.977  0.6017 -0.4201 -0.0877
 1888SOL    HW2 7550   3.639   1.192   2.967 -0.0983  0.4050 -1.3526
 1888SOL    HW3 7551   3.584   1.053   2.942  1.3401 -0.5675  0.7611
 1888SOL    MW4 7552   3.574   1.135   2.971  0.6068 -0.3307 -0.1426
 1889SOL     OW 7553   3.816   1.289   2.896  0.0083 -0.1326 -0.0554
 1889SOL    HW2 7554   3.823   1.380   2.924 -1.4206 -0.2066  0.5563
 1889SOL    HW3 7555   3.833   1.291   2.802  0.6246  0.6713  0.0737
 1889SOL    MW4 7556   3.819   1.301   2.887 -0.0989 -0.0363  0.0424
 1890SOL     OW 7557   3.839   1.562   2.976 -0.1245 -0.1214 -0.1006
 1890SOL    HW2 7558   3.843   1.566   3.071  0.1559 -1.6817 -0.0301
 1890SOL    HW3 7559   3.756   1.604   2.953  0.6761  1.9823  0.6865
 1890SOL    MW4 7560   3.829   1.568   2.985  0.0181 -0.0497  0.0125
 1891SOL     OW 7561   3.582   1.650   2.871 -0.0320  0.4068  0.2786
 1891SOL    HW2 7562   3.583   1.745   2.886 -1.2617  0.4068  0.3933
 1891SOL    HW3 7563   3.603   1.641   2.778 -1.3900  0.8777 -0.0843
 1891SOL    MW4 7564   3.585   1.661   2.860 -0.3734  0.4689  0.2458
 1892SOL     OW 7565   3.603   1.925   2.922 -0.3215 -0.4434 -0.0989
 1892SOL    HW2 7566   3.611   1.926   3.018  0.7042  0.8756 -0.1831
 1892SOL    HW3 7567   3.690   1.950   2.891 -0.5142 -1.3469 -1.3873
 1892SOL    MW4 7568   3.616   1.929   2.931 -0.2116 -0.3886 -0.2800
 1893SOL     OW 7569   3.857   2.014   2.843 -0.5851 -0.1265  0.3202
 1893SOL    HW2 7570   3.838   2.105   2.863 -1.2599 -0.3599  0.7449
 1893SOL    HW3 7571   3.872   2.013   2.748 -0.0508  0.5125  0.3990
 1893SOL    MW4 7572   3.856   2.026   2.833 -0.6037 -0.0730  0.3866
 1894SOL     OW 7573   3.804   2.292   2.890  0.1034  0.2798  0.1043
 1894SOL    HW2 7574   3.801   2.287   2.986 -0.0579 -0.0272  0.0855
 1894SOL    HW3 7575   3.726   2.341   2.866 -0.6522 -0.9205  0.0521
 1894SOL    MW4 7576   3.793   2.298   2.900 -0.0176  0.0809  0.0949
 1895SOL     OW 7577   3.565   2.427   2.827  0.3434 -0.7255 -0.0658
 1895SOL    HW2 7578   3.554   2.506   2.880  0.5833 -0.3374 -0.5913
 1895SOL    HW3 7579   3.508   2.362   2.868 -0.1013 -0.1801  0.1789
 1895SOL    MW4 7580   3.556   2.429   2.839  0.3164 -0.6024 -0.1028
 1896SOL     OW 7581   3.603   2.692   2.956 -0.0286 -0.1074 -0.0211
 1896SOL    HW2 7582   3.689   2.721   2.926 -0.8494  1.7515 -0.6453
 1896SOL    HW3 7583   3.542   2.754   2.917 -1.6715 -1.4895  0.3127
 1896SOL    MW4 7584   3.606   2.704   2.947 -0.3536 -0.0445 -0.0594
 1897SOL     OW 7585   3.851   2.785   2.875 -0.0461  0.3367 -0.3015
 1897SOL    HW2 7586   3.854   2.875   2.908  0.9637  0.4697 -0.7358
 1897SOL    HW3 7587   3.854   2.795   2.780 -1.0300 -0.1225 -0.3888
 1897SOL    MW4 7588   3.851   2.798   2.867 -0.0427  0.2937 -0.3703
 1898SOL     OW 7589   3.838   3.048   2.966 -0.2879  0.0639 -0.0273
 1898SOL    HW2 7590   3.904   3.101   2.921 -0.3912 -1.1743 -1.6780
 1898SOL    HW3 7591   3.757   3.098   2.956 -0.0729  0.3968 -0.1217
 1898SOL    MW4 7592   3.836   3.062   2.959 -0.2732 -0.0555 -0.2576
 1899SOL     OW 7593   3.607   3.200   2.922  0.0114  0.3095  0.4354
 1899SOL    HW2 7594   3.526   3.168   2.961 -0.0902  0.5821  0.4470
 1899SOL    HW3 7595   3.595   3.187   2.828 -0.6382  1.7133  0.3212
 1899SOL    MW4 7596   3.595   3.194   2.914 -0.0877  0.5307  0.4218
 1900SOL     OW 7597   3.603   3.481   2.990 -0.9840 -0.2092  0.2628
 1900SOL    HW2 7598   3.689   3.519   2.972 -1.1465 -0.0866 -0.2680
 1900SOL    HW3 7599   3.613   3.388   2.971 -0.7049 -0.3649  1.1445
 1900SOL    MW4 7600   3.615   3.474   2.985 -0.9686 -0.2136  0.3091
 1901SOL     OW 7601   3.831   3.884   3.034 -0.2318  0.0509 -0.0958
 1901SOL    HW2 7602   3.830   3.924   3.121 -0.3613 -0.0617 -0.0439
 1901SOL    HW3 7603   3.746   3.907   2.996  0.5819  1.6975 -0.9338
 1901SOL    MW4 7604   3.820   3.892   3.040 -0.1416  0.2533 -0.1995
 1902SOL     OW 7605   3.589   3.989   2.932  0.3869 -0.1588 -0.5294
 1902SOL    HW2 7606   3.505   3.955   2.964  0.7201 -0.4861 -0.0004
 1902SOL    HW3 7607   3.586   3.973   2.837 -0.6495  0.9280 -0.6967
 1902SOL    MW4 7608   3.577   3.982   2.923  0.2941 -0.0586 -0.4817
 1903SOL     OW 7609   3.598   3.949   2.655 -0.3954  0.2576  0.9060
 1903SOL    HW2 7610   3.515   3.936   2.610  0.2353 -2.0404  0.3249
 1903SOL    HW3 7611   3.631   4.032   2.621 -1.2277 -0.0970 -0.8208
 1903SOL    MW4 7612   3.592   3.958   2.645 -0.4220 -0.0924  0.6015
 1904SOL     OW 7613   3.624   4.222   3.084 -0.4517  0.5020  0.2932
 1904SOL    HW2 7614   3.667   4.278   3.019  0.5150  0.7407  1.1251
 1904SOL    HW3 7615   3.609   4.140   3.038 -0.4232  0.8985 -0.4508
 1904SOL    MW4 7616   3.628   4.219   3.069 -0.3204  0.5858  0.3048
 1905SOL     OW 7617   3.746   4.350   2.870 -0.2067 -0.5176  0.1918
 1905SOL    HW2 7618   3.829   4.308   2.893  0.4190  0.0393 -0.9956
 1905SOL    HW3 7619   3.748   4.356   2.774 -1.0784  0.5886  0.2351
 1905SOL    MW4 7620   3.758   4.345   2.860 -0.2392 -0.2982  0.0409
 1906SOL     OW 7621   4.396   0.143   3.340 -0.2088  0.4637 -0.1309
 1906SOL    HW2 7622   4.414   0.224   3.292  0.6314 -0.4341 -1.3648
 1906SOL    HW3 7623   4.407   0.167   3.432 -0.0742  1.7780 -0.4777
 1906SOL    MW4 7624   4.400   0.157   3.346 -0.0802  0.5187 -0.3394
 1907SOL     OW 7625   4.017   0.070   2.879 -0.1052 -0.2145  0.4889
 1907SOL    HW2 7626   4.095   0.026   2.914 -0.8180 -0.5067  1.7449
 1907SOL    HW3 7627   3.945   0.040   2.935 -0.5435  2.9583  1.7300
 1907SOL    MW4 7628   4.018   0.060   2.891 -0.2571  0.1656  0.8183
 1908SOL     OW 7629   1.884   0.138   3.708 -0.1533 -0.0789 -0.2388
 1908SOL    HW2 7630   1.930   0.216   3.676 -1.4767  1.1206  0.7198
 1908SOL    HW3 7631   1.950   0.090   3.758  0.8283  0.1387 -1.3166
 1908SOL    MW4 7632   1.898   0.142   3.710 -0.1984  0.1081 -0.2545
 1909SOL     OW 7633   4.241   0.465   2.926  0.0307  0.5632  0.0005
 1909SOL    HW2 7634   4.218   0.551   2.962  0.4349  0.9139 -0.5764
 1909SOL    HW3 7635   4.234   0.476   2.832  0.0039 -0.0682 -0.0735
 1909SOL    MW4 7636   4.237   0.478   2.919  0.0805  0.5262 -0.0853
 1910SOL     OW 7637   4.231   0.767   2.983  0.4836  0.0553 -0.1941
 1910SOL    HW2 7638   4.154   0.804   2.939  0.5442 -0.1906 -0.5109
 1910SOL    HW3 7639   4.306   0.800   2.934  0.5414 -0.4233 -0.4342
 1910SOL    MW4 7640   4.231   0.776   2.971  0.4992 -0.0403 -0.2676
 1911SOL     OW 7641   4.006   0.871   2.868  0.2235 -0.7847  0.5198
 1911SOL    HW2 7642   3.992   0.959   2.901 -1.4276 -0.6201 -0.5629
 1911SOL    HW3 7643   4.029   0.884   2.776 -1.1576 -1.5159  0.0528
 1911SOL    MW4 7644   4.007   0.884   2.860 -0.1766 -0.8594  0.3154
 1912SOL     OW 7645   4.004   1.123   2.990 -0.3086 -0.2355 -0.2284
 1912SOL    HW2 7646   4.001   1.133   3.086  0.5575  0.6082 -0.2844
 1912SOL    HW3 7647   3.935   1.181   2.958  0.7482  1.0245 -0.2250
 1912SOL    MW4 7648   3.995   1.132   2.999 -0.0549  0.0420 -0.2353
 1913SOL     OW 7649   4.244   1.255   2.909  0.0168  0.1934  0.6971
 1913SOL    HW2 7650   4.162   1.208   2.919 -0.0666 -0.1265 -1.3974
 1913SOL    HW3 7651   4.261   1.256   2.815  1.4175  1.9504  0.9315
 1913SOL    MW4 7652   4.235   1.249   2.898  0.1906  0.3830  0.4517
 1914SOL     OW 7653   4.322   1.501   2.935  0.0255 -0.0861  0.0692
 1914SOL    HW2 7654   4.249   1.548   2.894 -1.1589 -1.2640  0.7850
 1914SOL    HW3 7655   4.296   1.409   2.932  0.9390 -0.4056  1.4265
 1914SOL    MW4 7656   4.309   1.495   2.929 -0.0102 -0.2837  0.3427
 1915SOL     OW 7657   4.071   1.647   2.857 -0.0247 -0.0632  0.0174
 1915SOL    HW2 7658   4.080   1.734   2.894  1.7059  0.1470 -0.8286
 1915SOL    HW3 7659   3.986   1.616   2.888 -0.5442  1.8120  0.5225
 1915SOL    MW4 7660   4.061   1.654   2.866  0.1351  0.2120 -0.0276
 1916SOL     OW 7661   4.093   1.893   2.978 -0.3279 -0.1707 -0.5643
 1916SOL    HW2 7662   4.170   1.943   2.952  0.1148 -0.8081 -0.5012
 1916SOL    HW3 7663   4.019   1.945   2.949  0.0851  1.3456  0.9948
 1916SOL    MW4 7664   4.094   1.906   2.971 -0.2150 -0.0548 -0.3503
 1917SOL     OW 7665   4.328   2.059   2.869 -0.1694  0.8250 -0.2654
 1917SOL    HW2 7666   4.295   2.133   2.921 -0.1247 -0.0306  1.0134
 1917SOL    HW3 7667   4.300   2.078   2.780  0.0432  2.5105 -0.0015
 1917SOL    MW4 7668   4.320   2.071   2.864 -0.1355  0.9345 -0.0619
 1918SOL     OW 7669   4.282   2.310   2.987  0.3573 -0.4573  0.4625
 1918SOL    HW2 7670   4.210   2.353   2.942 -0.4762 -2.0517  0.2225
 1918SOL    HW3 7671   4.361   2.350   2.952 -0.3619 -0.2041 -0.8583
 1918SOL    MW4 7672   4.283   2.321   2.977  0.1524 -0.6343  0.2565
 1919SOL     OW 7673   4.045   2.403   2.833  0.1129  0.1137 -0.3252
 1919SOL    HW2 7674   4.050   2.492   2.868  2.3423  0.1986 -0.7928
 1919SOL    HW3 7675   3.957   2.373   2.856  0.5982  1.1184  3.0758
 1919SOL    MW4 7676   4.034   2.411   2.841  0.4710  0.2574  0.0619
 1920SOL     OW 7677   4.310   2.830   2.921 -0.1178  0.0734  0.5339
 1920SOL    HW2 7678   4.390   2.778   2.912 -0.3835 -0.1783 -0.5220
 1920SOL    HW3 7679   4.241   2.765   2.933 -0.5368  0.1286 -1.4210
 1920SOL    MW4 7680   4.311   2.814   2.921 -0.2081  0.0475  0.1367
 1921SOL     OW 7681   4.092   2.676   2.942 -0.3495  0.0010 -0.0272
 1921SOL    HW2 7682   4.006   2.712   2.918 -0.6406 -0.3887  0.4104
 1921SOL    HW3 7683   4.082   2.651   3.034 -0.7200 -2.8569 -0.7969
 1921SOL    MW4 7684   4.079   2.678   2.951 -0.4368 -0.4275 -0.0710
 1922SOL     OW 7685   4.301   3.106   2.989 -0.0396 -0.0229  0.2153
 1922SOL    HW2 7686   4.222   3.141   2.948  0.6860  1.0718 -0.2663
 1922SOL    HW3 7687   4.307   3.016   2.956 -1.2448 -0.2182  0.4970
 1922SOL    MW4 7688   4.291   3.098   2.979 -0.1029  0.0957  0.1889
 1923SOL     OW 7689   4.054   3.206   2.860 -0.3868 -0.4655 -0.0773
 1923SOL    HW2 7690   4.050   3.297   2.889 -0.6715 -0.4081 -0.2838
 1923SOL    HW3 7691   4.063   3.212   2.765 -0.1350 -0.6520 -0.0649
 1923SOL    MW4 7692   4.054   3.219   2.851 -0.3911 -0.4825 -0.1029
 1924SOL     OW 7693   3.826   3.633   2.905 -0.1473 -0.0145 -0.5533
 1924SOL    HW2 7694   3.842   3.711   2.957  0.0078 -0.3011 -0.1676
 1924SOL    HW3 7695   3.822   3.664   2.814 -0.8250  0.5426 -0.3348
 1924SOL    MW4 7696   3.827   3.647   2.900 -0.2163  0.0212 -0.4736
 1925SOL     OW 7697   4.267   3.641   2.901 -0.0359 -0.2615 -0.1767
 1925SOL    HW2 7698   4.237   3.730   2.920 -2.1078 -0.5771 -1.7475
 1925SOL    HW3 7699   4.196   3.585   2.930  0.7012 -1.3264 -0.4010
 1925SOL    MW4 7700   4.254   3.646   2.907 -0.2121 -0.4437 -0.4136
 1926SOL     OW 7701   4.225   3.909   3.038  0.0960 -0.4590 -0.4418
 1926SOL    HW2 7702   4.161   3.965   2.993  0.0487  0.7278  1.0588
 1926SOL    HW3 7703   4.310   3.944   3.012  0.1015 -0.7630 -0.8371
 1926SOL    MW4 7704   4.228   3.921   3.029  0.0905 -0.3425 -0.2960
 1927SOL     OW 7705   3.999   4.009   2.872  0.0138  0.1389 -0.2066
 1927SOL    HW2 7706   3.995   4.097   2.909  0.7712  0.0103  0.1805
 1927SOL    HW3 7707   3.940   3.957   2.927  1.2549 -0.0860  0.9157
 1927SOL    MW4 7708   3.990   4.013   2.884  0.2775  0.0923 -0.0074
 1928SOL     OW 7709   4.004   4.261   2.974 -0.1401  0.8827 -0.4223
 1928SOL    HW2 7710   4.010   4.242   3.068 -0.4173  2.6101 -0.0484
 1928SOL    HW3 7711   4.087   4.301   2.951  0.2761 -0.3423 -1.1284
 1928SOL    MW4 7712   4.016   4.264   2.983 -0.1217  0.9490 -0.4661
 1929SOL     OW 7713   4.253   4.366   2.919 -0.1188 -0.0507 -0.1648
 1929SOL    HW2 7714   4.321   4.329   2.976 -0.6913  1.7372  1.7427
 1929SOL    HW3 7715   4.291   4.363   2.832  1.4595 -1.2830  0.5229
 1929SOL    MW4 7716   4.267   4.360   2.915  0.0139  0.0226  0.1776
 1930SOL     OW 7717   0.132   4.653   3.335 -0.1993 -0.0760 -0.0956
 1930SOL    HW2 7718   0.060   4.717   3.330 -0.6250 -0.5236  0.2920
 1930SOL    HW3 7719   0.208   4.705   3.363 -0.6618  0.1680  0.7022
 1930SOL    MW4 7720   0.133   4.668   3.338 -0.3165 -0.1028  0.0608
 1931SOL     OW 7721   1.098   0.394   4.240  0.3821  0.2965 -0.2932
 1931SOL    HW2 7722   1.060   0.332   4.178  0.8450 -0.2297 -0.0666
 1931SOL    HW3 7723   1.154   0.451   4.187  0.0708  0.4232 -0.4826
 1931SOL    MW4 7724   1.101   0.393   4.225  0.4021  0.2438 -0.2883
 1932SOL     OW 7725   1.643   4.528   3.829  0.0970 -0.1500  0.2026
 1932SOL    HW2 7726   1.624   4.460   3.764 -0.2692  1.1414 -1.0790
 1932SOL    HW3 7727   1.622   4.487   3.913 -0.3150 -1.5469 -0.5545
 1932SOL    MW4 7728   1.637   4.514   3.831 -0.0057 -0.1639 -0.0664
 1933SOL     OW 7729   3.630   2.870   4.354 -0.0055 -0.1567  0.0230
 1933SOL    HW2 7730   3.595   2.832   4.273 -1.2160  0.2803  0.3290
 1933SOL    HW3 7731   3.578   2.830   4.423 -0.6397  1.3170  0.4126
 1933SOL    MW4 7732   3.619   2.859   4.352 -0.2489  0.0954  0.1148
 1934SOL     OW 7733   4.442   2.940   3.986  0.2144  0.3199  0.1866
 1934SOL    HW2 7734   4.440   2.909   3.895  0.9338  0.5354  0.0933
 1934SOL    HW3 7735   4.380   2.883   4.032  3.1100 -2.7191  0.4731
 1934SOL    MW4 7736   4.433   2.929   3.980  0.6913 -0.0526  0.2121
 1935SOL     OW 7737   0.033   1.121   3.277  0.4657  0.0629 -0.0506
 1935SOL    HW2 7738   0.033   1.149   3.185  0.8666  0.4015  0.0463
 1935SOL    HW3 7739   0.106   1.170   3.316 -0.1174  0.4231  0.5986
 1935SOL    MW4 7740   0.043   1.131   3.270  0.4417  0.1551  0.0478
 1936SOL     OW 7741   0.122   1.319   4.273  0.1253  0.2845 -0.0367
 1936SOL    HW2 7742   0.093   1.355   4.190 -1.1601 -0.3753  0.1028
 1936SOL    HW3 7743   0.170   1.239   4.249  0.5650  0.5978 -0.1957
 1936SOL    MW4 7744   0.124   1.313   4.259  0.0137  0.2388 -0.0392
 1937SOL     OW 7745   3.209   2.628   4.579 -0.0820 -0.2529  0.0819
 1937SOL    HW2 7746   3.152   2.558   4.610 -2.0274  1.4478  0.4138
 1937SOL    HW3 7747   3.214   2.615   4.484 -0.3509 -0.8748  0.1522
 1937SOL    MW4 7748   3.202   2.617   4.570 -0.3742 -0.1105  0.1349
 1938SOL     OW 7749   0.169   1.525   3.284 -0.4934 -0.7397  0.2386
 1938SOL    HW2 7750   0.247   1.550   3.333 -0.6868  0.4938 -0.0685
 1938SOL    HW3 7751   0.193   1.536   3.193 -1.2610  0.3452  0.1620
 1938SOL    MW4 7752   0.182   1.529   3.279 -0.6202 -0.4338  0.1879
 1939SOL     OW 7753   0.842   3.790   3.720 -0.3904  0.1710 -0.3238
 1939SOL    HW2 7754   0.834   3.781   3.815  0.4120 -0.2102 -0.2945
 1939SOL    HW3 7755   0.904   3.722   3.694 -0.4978  0.3655 -1.1075
 1939SOL    MW4 7756   0.849   3.779   3.729 -0.2987  0.1464 -0.4234
 1940SOL     OW 7757   4.437   1.633   3.380  0.0766 -0.3598 -0.3012
 1940SOL    HW2 7758   4.378   1.595   3.315  0.2038 -1.5575  0.2752
 1940SOL    HW3 7759   4.525   1.615   3.346  0.1373 -0.2228 -0.2207
 1940SOL    MW4 7760   4.441   1.626   3.367  0.1014 -0.4998 -0.2145
 1941SOL     OW 7761   4.485   1.908   3.311 -0.4220 -0.3561 -0.2197
 1941SOL    HW2 7762   4.497   1.906   3.216 -1.4425 -0.6081 -0.3536
 1941SOL    HW3 7763   4.471   1.817   3.335 -2.2055 -0.0664 -0.1123
 1941SOL    MW4 7764   4.485   1.896   3.302 -0.7920 -0.3511 -0.2232
 1942SOL     OW 7765   0.484   2.406   3.361  0.4292  0.5119 -0.2080
 1942SOL    HW2 7766   0.490   2.396   3.456  2.2986  1.1243 -0.2513
 1942SOL    HW3 7767   0.463   2.498   3.348 -0.3022  0.3263 -0.3906
 1942SOL    MW4 7768   0.482   2.417   3.372  0.5794  0.5682 -0.2378
 1943SOL     OW 7769   0.013   2.704   3.216 -0.2904  0.1163  0.0965
 1943SOL    HW2 7770   0.068   2.752   3.278 -0.6142 -2.2528  2.2985
 1943SOL    HW3 7771  -0.077   2.730   3.238 -0.4001 -0.6363  0.5406
 1943SOL    MW4 7772   0.008   2.714   3.227 -0.3476 -0.2956  0.4456
 1944SOL     OW 7773   1.550   0.609   4.045 -0.0413  0.6818 -0.7097
 1944SOL    HW2 7774   1.582   0.598   4.134 -0.8046  2.4447 -0.1982
 1944SOL    HW3 7775   1.562   0.523   4.004  1.1283  0.1011  0.8139
 1944SOL    MW4 7776   1.556   0.596   4.051  0.0123  0.8378 -0.4412
 1945SOL     OW 7777   3.442   1.286   4.086 -0.3297  0.3500 -0.2319
 1945SOL    HW2 7778   3.383   1.217   4.116 -0.3553  0.3305 -0.3233
 1945SOL    HW3 7779   3.514   1.287   4.149  0.7465 -1.1818 -1.3961
 1945SOL    MW4 7780   3.443   1.277   4.098 -0.1911  0.1453 -0.3976
 1946SOL     OW 7781   4.483   3.178   3.378 -0.6423  0.5058 -0.2792
 1946SOL    HW2 7782   4.413   3.126   3.338 -1.3975  1.2188  0.1126
 1946SOL    HW3 7783   4.474   3.265   3.339  0.6310  0.3479 -0.9398
 1946SOL    MW4 7784   4.472   3.182   3.367 -0.5739  0.5790 -0.3147
 1947SOL     OW 7785   3.839   4.667   3.287 -0.0495 -0.4747  0.3406
 1947SOL    HW2 7786   3.821   4.643   3.196  0.9831  1.3646 -0.3794
 1947SOL    HW3 7787   3.752   4.674   3.327 -0.4997 -1.6751 -0.3746
 1947SOL    MW4 7788   3.825   4.665   3.280  0.0274 -0.3904  0.1513
 1948SOL     OW 7789   4.308   0.531   3.337  0.1619  0.1514  1.0690
 1948SOL    HW2 7790   4.222   0.489   3.330 -1.0330  2.6585 -0.1467
 1948SOL    HW3 7791   4.310   0.566   3.427  0.0515 -0.2017  1.2098
 1948SOL    MW4 7792   4.297   0.530   3.348 -0.0103  0.4356  0.9272
 1949SOL     OW 7793   4.280   2.784   3.332  0.5266 -0.1752  0.2727
 1949SOL    HW2 7794   4.210   2.736   3.290  1.1807 -0.6119 -0.3286
 1949SOL    HW3 7795   4.259   2.876   3.318  0.8277 -0.3212 -1.1585
 1949SOL    MW4 7796   4.268   2.790   3.325  0.6527 -0.2521  0.0045
 1950SOL     OW 7797   0.251   3.540   3.661  0.3252  0.3087  0.1805
 1950SOL    HW2 7798   0.343   3.565   3.656  0.8894 -1.8195 -0.5694
 1950SOL    HW3 7799   0.216   3.555   3.573  0.3398 -0.2805  0.0709
 1950SOL    MW4 7800   0.258   3.545   3.649  0.4015 -0.0498  0.0671
 1951SOL     OW 7801   1.237   3.014   3.718  0.0930  0.1385  0.1868
 1951SOL    HW2 7802   1.169   2.951   3.695  0.7617 -0.0901 -1.1955
 1951SOL    HW3 7803   1.190   3.086   3.760 -0.8647 -0.5187  0.2574
 1951SOL    MW4 7804   1.222   3.015   3.721  0.0549  0.0216  0.0138
 1952SOL     OW 7805   0.275   4.128   3.932  0.2175  0.2805 -0.2465
 1952SOL    HW2 7806   0.237   4.085   3.855 -1.7189  0.0954  0.7841
 1952SOL    HW3 7807   0.200   4.164   3.979  1.3488  0.2291  1.6664
 1952SOL    MW4 7808   0.260   4.127   3.928  0.1112  0.2493  0.1419
 1953SOL     OW 7809   0.076   4.225   3.326 -0.1726  0.2031  0.4270
 1953SOL    HW2 7810   0.053   4.303   3.377  0.8774 -0.6065  2.1543
 1953SOL    HW3 7811   0.170   4.232   3.312 -0.1675 -0.4815  0.1050
 1953SOL    MW4 7812   0.085   4.236   3.331 -0.0334  0.0060  0.6124
 1954SOL     OW 7813   1.319   0.054   3.359 -0.6542  0.2910  0.2814
 1954SOL    HW2 7814   1.239   0.008   3.332 -0.9881  0.2852  1.2416
 1954SOL    HW3 7815   1.330   0.030   3.451 -0.2751  1.3413  0.5167
 1954SOL    MW4 7816   1.310   0.045   3.368 -0.6483  0.4288  0.4391
 1955SOL     OW 7817   4.198   4.417   3.364 -0.0981 -0.0016 -0.1908
 1955SOL    HW2 7818   4.151   4.416   3.447 -0.6504  1.6492 -0.4810
 1955SOL    HW3 7819   4.289   4.437   3.389 -0.3732  1.0697 -0.0337
 1955SOL    MW4 7820   4.204   4.420   3.378 -0.2073  0.3575 -0.2084
 1956SOL     OW 7821   3.741   1.710   4.482 -0.2577 -0.0833 -0.0743
 1956SOL    HW2 7822   3.731   1.795   4.439 -0.7184 -0.7316 -1.2708
 1956SOL    HW3 7823   3.832   1.685   4.465 -0.1805  0.0720  0.1068
 1956SOL    MW4 7824   3.752   1.718   4.474 -0.3083 -0.1483 -0.2083
 1957SOL     OW 7825   2.951   0.153   4.037  0.2115 -0.2772  0.1523
 1957SOL    HW2 7826   2.881   0.179   4.097 -0.2858 -0.4977 -0.3266
 1957SOL    HW3 7827   3.000   0.233   4.022  0.6303 -0.3172  1.2236
 1957SOL    MW4 7828   2.948   0.167   4.043  0.2011 -0.3116  0.2305
 1958SOL     OW 7829   0.622   0.694   3.265 -0.3640  0.4258  0.6084
 1958SOL    HW2 7830   0.698   0.743   3.296 -0.1970  0.0647  0.7656
 1958SOL    HW3 7831   0.547   0.741   3.303 -0.1903  0.3979  0.9870
 1958SOL    MW4 7832   0.622   0.707   3.274 -0.3190  0.3745  0.6791
 1959SOL     OW 7833   2.515   1.300   3.404 -0.1208  0.5925 -0.0625
 1959SOL    HW2 7834   2.492   1.365   3.337  0.0476  1.4410  0.6955
 1959SOL    HW3 7835   2.448   1.232   3.395 -1.2344  1.6439  0.1894
 1959SOL    MW4 7836   2.503   1.299   3.394 -0.2455  0.8432  0.0707
 1960SOL     OW 7837   0.454   1.115   3.246 -0.1011 -0.0060  0.1569
 1960SOL    HW2 7838   0.531   1.153   3.288  1.0888 -0.7331 -1.3055
 1960SOL    HW3 7839   0.465   1.135   3.153 -1.5005 -0.4524 -0.1193
 1960SOL    MW4 7840   0.466   1.123   3.239 -0.1288 -0.1608 -0.0725
 1961SOL     OW 7841   1.096   0.758   3.285  0.3185 -0.6760 -0.7675
 1961SOL    HW2 7842   1.118   0.760   3.192 -1.7180  0.9434 -1.2756
 1961SOL    HW3 7843   1.088   0.665   3.306  0.1909 -1.0471 -2.3843
 1961SOL    MW4 7844   1.098   0.746   3.275  0.0330 -0.5113 -1.0478
 1962SOL     OW 7845   0.669   1.241   3.373 -0.0494 -0.1845  0.1793
 1962SOL    HW2 7846   0.658   1.223   3.466  2.1871  0.2857  0.5780
 1962SOL    HW3 7847   0.759   1.212   3.354  0.2326  1.5870 -1.3570
 1962SOL    MW4 7848   0.680   1.235   3.383  0.2829  0.1113  0.0292
 1963SOL     OW 7849   4.347   3.100   3.611  0.3305 -0.4533  0.0635
 1963SOL    HW2 7850   4.400   3.143   3.544 -1.7536  1.3443 -0.5112
 1963SOL    HW3 7851   4.342   3.163   3.683 -1.4768 -0.3139 -0.1448
 1963SOL    MW4 7852   4.353   3.114   3.612 -0.1829 -0.1978 -0.0398
 1964SOL     OW 7853   0.441   1.911   3.302  0.0560  0.0131 -0.0157
 1964SOL    HW2 7854   0.369   1.967   3.329 -0.0759 -0.0910 -0.1488
 1964SOL    HW3 7855   0.436   1.910   3.206 -0.0159 -0.3181 -0.0105
 1964SOL    MW4 7856   0.431   1.918   3.293  0.0291 -0.0443 -0.0326
 1965SOL     OW 7857   0.227   1.516   4.440 -0.6051  0.1206  0.0855
 1965SOL    HW2 7858   0.156   1.578   4.455 -0.9457 -0.7732  2.3468
 1965SOL    HW3 7859   0.185   1.444   4.392 -1.1572 -0.1931  1.0098
 1965SOL    MW4 7860   0.212   1.514   4.436 -0.7229 -0.0387  0.5058
 1966SOL     OW 7861   0.686   2.271   3.268  0.1572  0.5006  0.0191
 1966SOL    HW2 7862   0.609   2.314   3.306  0.5856  0.3217  1.1109
 1966SOL    HW3 7863   0.761   2.318   3.305  0.5575  1.1574 -1.6328
 1966SOL    MW4 7864   0.686   2.283   3.278  0.2666  0.5637 -0.0548
 1967SOL     OW 7865   3.299   2.445   3.938  0.4661  0.1674  0.2688
 1967SOL    HW2 7866   3.215   2.492   3.949  1.0651  0.8367  2.3135
 1967SOL    HW3 7867   3.284   2.386   3.864 -1.5071  0.9702 -0.0151
 1967SOL    MW4 7868   3.286   2.444   3.930  0.2848  0.3616  0.5011
 1968SOL     OW 7869   0.459   2.705   2.998 -0.0072 -0.4671  0.2945
 1968SOL    HW2 7870   0.470   2.621   2.953  1.3801  0.1616 -0.5815
 1968SOL    HW3 7871   0.538   2.754   2.975 -0.9818  1.2160  0.5122
 1968SOL    MW4 7872   0.471   2.700   2.989  0.0472 -0.1621  0.2076
 1969SOL     OW 7873   0.710   3.118   3.245 -0.1059 -0.2353  0.5638
 1969SOL    HW2 7874   0.718   3.023   3.249  1.2207 -0.1314  0.4843
 1969SOL    HW3 7875   0.633   3.137   3.298  1.1704 -1.1367  2.7944
 1969SOL    MW4 7876   0.701   3.108   3.252  0.2375 -0.3405  0.8476
 1970SOL     OW 7877   0.883   3.181   3.476  0.2415  0.4761 -0.4587
 1970SOL    HW2 7878   0.843   3.184   3.389 -2.2123  0.3863  0.6114
 1970SOL    HW3 7879   0.976   3.168   3.459 -0.0123  1.6766 -3.0962
 1970SOL    MW4 7880   0.890   3.180   3.462 -0.1158  0.6227 -0.6655
 1971SOL     OW 7881   0.700   1.122   3.637 -0.4412 -0.3519 -0.0694
 1971SOL    HW2 7882   0.742   1.039   3.614 -0.1487  0.0796 -1.1259
 1971SOL    HW3 7883   0.764   1.166   3.692 -0.1048 -0.3299 -0.4682
 1971SOL    MW4 7884   0.714   1.117   3.641 -0.3582 -0.2921 -0.2614
 1972SOL     OW 7885   0.420   3.464   3.301  0.3599  0.0265  0.5407
 1972SOL    HW2 7886   0.447   3.376   3.328 -1.5892 -0.2749  1.5417
 1972SOL    HW3 7887   0.485   3.521   3.342  0.8708 -0.8396  0.9745
 1972SOL    MW4 7888   0.432   3.460   3.310  0.1701 -0.1276  0.7300
 1973SOL     OW 7889   4.211   3.714   3.606  0.0597  0.0297 -0.0054
 1973SOL    HW2 7890   4.267   3.678   3.676 -0.6373  1.0793  1.1219
 1973SOL    HW3 7891   4.134   3.747   3.653 -1.3348 -1.0392 -1.5006
 1973SOL    MW4 7892   4.208   3.713   3.622 -0.2162  0.0272 -0.0540
 1974SOL     OW 7893   0.548   3.896   3.261  0.3195  0.4261 -0.2270
 1974SOL    HW2 7894   0.575   3.985   3.281 -0.7164  0.9177 -0.9544
 1974SOL    HW3 7895   0.455   3.894   3.283 -0.0474  0.0066 -1.7449
 1974SOL    MW4 7896   0.539   3.907   3.266  0.1344  0.4356 -0.5232
 1975SOL     OW 7897   0.447   3.912   3.621  0.5672  0.0495 -0.0855
 1975SOL    HW2 7898   0.375   3.945   3.675  2.0511 -0.2512  2.1488
 1975SOL    HW3 7899   0.406   3.892   3.536 -1.8543  0.3667  0.9540
 1975SOL    MW4 7900   0.432   3.914   3.617  0.4435  0.0517  0.3464
 1976SOL     OW 7901   1.122   4.157   4.401 -0.3202 -0.2867 -0.5980
 1976SOL    HW2 7902   1.200   4.172   4.348 -0.5346  0.1853 -0.7780
 1976SOL    HW3 7903   1.143   4.080   4.453 -0.3461 -1.1344 -1.8260
 1976SOL    MW4 7904   1.135   4.149   4.401 -0.3519 -0.3363 -0.7838
 1977SOL     OW 7905   2.732   2.528   3.663 -0.1401 -0.4717 -0.3283
 1977SOL    HW2 7906   2.643   2.560   3.645 -0.0461  0.3972  0.6895
 1977SOL    HW3 7907   2.723   2.474   3.741  0.2011 -0.5545 -0.3446
 1977SOL    MW4 7908   2.719   2.525   3.671 -0.0827 -0.3680 -0.1962
 1978SOL     OW 7909   2.777   1.957   4.257 -0.2811 -0.0753  0.2876
 1978SOL    HW2 7910   2.718   1.925   4.189 -0.3840 -0.8283  0.7287
 1978SOL    HW3 7911   2.740   1.923   4.338 -0.3236  1.0479  0.7574
 1978SOL    MW4 7912   2.764   1.948   4.259 -0.3003 -0.0265  0.4078
 1979SOL     OW 7913   1.146   0.116   3.795  0.2832  0.1430 -0.6280
 1979SOL    HW2 7914   1.120   0.046   3.736  1.7796 -0.6415 -0.3878
 1979SOL    HW3 7915   1.225   0.153   3.754  0.6100  0.4164  0.2490
 1979SOL    MW4 7916   1.153   0.112   3.782  0.5237  0.0756 -0.4806
 1980SOL     OW 7917   3.199   3.048   4.391 -0.0966 -0.5614  0.1421
 1980SOL    HW2 7918   3.178   3.006   4.474 -1.3162 -0.4187 -0.0869
 1980SOL    HW3 7919   3.182   3.141   4.406  0.9746 -0.3554  0.1356
 1980SOL    MW4 7920   3.194   3.055   4.404 -0.1162 -0.5154  0.1110
 1981SOL     OW 7921   0.538   0.452   3.680  0.0509  0.3127  0.4311
 1981SOL    HW2 7922   0.555   0.411   3.765  0.8659  0.5400  0.3767
 1981SOL    HW3 7923   0.448   0.485   3.687 -0.9592 -2.2656  0.1687
 1981SOL    MW4 7924   0.528   0.451   3.693  0.0251  0.0025  0.3893
 1982SOL     OW 7925   0.653   3.607   4.441 -0.4499  0.4568 -0.3665
 1982SOL    HW2 7926   0.557   3.602   4.438 -0.4543 -0.0713  0.4704
 1982SOL    HW3 7927   0.672   3.695   4.472 -0.7105  0.0117  1.1170
 1982SOL    MW4 7928   0.643   3.618   4.445 -0.4849  0.3284 -0.0603
 1983SOL     OW 7929   3.138   0.812   3.844  0.1984  0.1454 -0.3307
 1983SOL    HW2 7930   3.201   0.861   3.791 -1.3360  1.2009 -1.2368
 1983SOL    HW3 7931   3.155   0.720   3.823  3.3531  0.2213  1.6592
 1983SOL    MW4 7932   3.149   0.806   3.834  0.4122  0.2947 -0.1877
 1984SOL     OW 7933   1.711   0.125   3.905  0.4470 -0.0060 -0.0698
 1984SOL    HW2 7934   1.780   0.137   3.840  0.5968 -0.7038 -0.0431
 1984SOL    HW3 7935   1.691   0.032   3.902  0.7238 -0.1126  1.1543
 1984SOL    MW4 7936   1.717   0.115   3.896  0.5033 -0.1121  0.0952
 1985SOL     OW 7937   0.911   1.594   3.433  0.2177 -0.6093 -0.1618
 1985SOL    HW2 7938   0.900   1.569   3.525 -1.1879  2.4407  0.5672
 1985SOL    HW3 7939   0.830   1.567   3.391 -0.2087  0.2813  0.0691
 1985SOL    MW4 7940   0.899   1.587   3.440 -0.0240 -0.0894 -0.0351
 1986SOL     OW 7941   3.189   2.601   4.262  0.2517  0.1134  0.0315
 1986SOL    HW2 7942   3.094   2.597   4.263  0.1719  1.9330  1.4467
 1986SOL    HW3 7943   3.210   2.693   4.245  1.7466  0.1038  1.6938
 1986SOL    MW4 7944   3.179   2.612   4.260  0.4384  0.3522  0.4376
 1987SOL     OW 7945   0.828   2.121   3.960  0.5804 -0.0932  0.1971
 1987SOL    HW2 7946   0.820   2.165   3.875  1.4528 -0.2080  0.0598
 1987SOL    HW3 7947   0.799   2.187   4.023  0.9539  0.3531 -0.0963
 1987SOL    MW4 7948   0.823   2.136   3.957  0.7448 -0.0494  0.1403
 1988SOL     OW 7949   0.011   0.407   2.995 -0.0657  0.2948 -0.3267
 1988SOL    HW2 7950  -0.081   0.431   2.981  0.2661  1.1635 -1.0349
 1988SOL    HW3 7951   0.021   0.408   3.090 -0.9681 -0.4888 -0.2181
 1988SOL    MW4 7952   0.000   0.411   3.006 -0.1410  0.3060 -0.4058
 1989SOL     OW 7953   0.714   1.991   3.340  0.2403  0.2145 -0.4170
 1989SOL    HW2 7954   0.624   1.958   3.336  0.6053 -0.7311 -1.0518
 1989SOL    HW3 7955   0.708   2.080   3.306 -0.6100  0.4893  0.4243
 1989SOL    MW4 7956   0.701   1.998   3.335  0.1763  0.1260 -0.3898
 1990SOL     OW 7957   1.142   2.262   3.301  0.0318  0.3302  0.2825
 1990SOL    HW2 7958   1.224   2.306   3.323 -0.5388  0.8965  1.2802
 1990SOL    HW3 7959   1.135   2.272   3.206  1.5819 -0.5350  0.0739
 1990SOL    MW4 7960   1.152   2.269   3.291  0.1610  0.2908  0.3866
 1991SOL     OW 7961   0.900   2.426   3.379 -0.2480  0.3627  0.4210
 1991SOL    HW2 7962   0.981   2.374   3.371 -0.2198  0.3241  0.9434
 1991SOL    HW3 7963   0.899   2.455   3.470 -0.1071  1.5446  0.0579
 1991SOL    MW4 7964   0.911   2.423   3.390 -0.2257  0.5136  0.4420
 1992SOL     OW 7965   1.697   2.885   4.268 -0.2482  0.3134 -0.0898
 1992SOL    HW2 7966   1.638   2.811   4.281  0.2286 -0.2009 -0.8279
 1992SOL    HW3 7967   1.651   2.941   4.205 -0.9818  1.0680  1.0981
 1992SOL    MW4 7968   1.683   2.883   4.261 -0.2821  0.3451 -0.0304
 1993SOL     OW 7969   3.546   2.382   3.610 -0.0172  0.5592 -0.0629
 1993SOL    HW2 7970   3.634   2.351   3.632  0.5114  1.1599 -1.2635
 1993SOL    HW3 7971   3.533   2.458   3.667  0.2552  0.4822  0.1032
 1993SOL    MW4 7972   3.556   2.388   3.621  0.0885  0.6283 -0.1994
 1994SOL     OW 7973   1.136   3.083   3.358 -0.5560  0.0097  0.2565
 1994SOL    HW2 7974   1.207   3.142   3.385  0.3771 -1.0685  0.1893
 1994SOL    HW3 7975   1.138   3.086   3.263 -1.0139  0.4559  0.2583
 1994SOL    MW4 7976   1.146   3.091   3.349 -0.4933 -0.0737  0.2479
 1995SOL     OW 7977   2.252   0.904   3.626  0.3492  0.2342 -0.2169
 1995SOL    HW2 7978   2.170   0.873   3.664  0.7863 -1.2926 -0.4891
 1995SOL    HW3 7979   2.247   0.879   3.534  0.4987  1.4298 -0.5609
 1995SOL    MW4 7980   2.241   0.897   3.619  0.4266  0.1905 -0.2982
 1996SOL     OW 7981   0.865   3.662   3.240 -0.0826  0.5231 -0.4341
 1996SOL    HW2 7982   0.783   3.640   3.284 -0.8878  2.0538 -1.1628
 1996SOL    HW3 7983   0.863   3.612   3.158 -0.1374  0.3189 -0.3076
 1996SOL    MW4 7984   0.854   3.652   3.235 -0.1961  0.6981 -0.5135
 1997SOL     OW 7985   1.148   0.451   3.658 -0.2783 -0.9464 -0.1208
 1997SOL    HW2 7986   1.137   0.466   3.564 -0.4029  0.5178  0.1142
 1997SOL    HW3 7987   1.074   0.396   3.683 -1.3637  0.3373 -0.4939
 1997SOL    MW4 7988   1.137   0.446   3.649 -0.4379 -0.5839 -0.1390
 1998SOL     OW 7989   1.105   3.655   3.349 -0.0121 -0.0371 -0.3625
 1998SOL    HW2 7990   1.091   3.634   3.441  0.1958  0.4938 -0.2060
 1998SOL    HW3 7991   1.017   3.653   3.310 -0.1133 -0.1507 -0.1277
 1998SOL    MW4 7992   1.091   3.652   3.356  0.0020  0.0180 -0.3109
 1999SOL     OW 7993   0.583   4.166   3.301  0.4114 -0.4783  0.3340
 1999SOL    HW2 7994   0.652   4.209   3.251 -0.2741  0.1781 -0.0613
 1999SOL    HW3 7995   0.502   4.206   3.269 -0.1345 -1.0919  0.9383
 1999SOL    MW4 7996   0.581   4.177   3.290  0.2489 -0.4727  0.3616
 2000SOL     OW 7997   1.061   4.616   3.279 -0.0590  0.1423  0.0860
 2000SOL    HW2 7998   1.073   4.626   3.184  0.5598 -0.6869  0.0715
 2000SOL    HW3 7999   0.988   4.675   3.300  0.7150  1.3876 -0.6707
 2000SOL    MW4 8000   1.053   4.625   3.269  0.1247  0.1972 -0.0157
 2001SOL     OW 8001   0.661   0.447   3.436 -0.0923 -0.9955  0.0431
 2001SOL    HW2 8002   0.642   0.536   3.406  1.0005 -0.0091  2.1511
 2001SOL    HW3 8003   0.618   0.440   3.521 -1.4006 -3.0082 -0.7396
 2001SOL    MW4 8004   0.653   0.458   3.444 -0.1207 -1.1309  0.2179
 2002SOL     OW 8005   1.533   4.606   3.218  0.2043  0.1112  0.2384
 2002SOL    HW2 8006   1.530   4.511   3.225  0.2967  0.1573  0.9245
 2002SOL    HW3 8007   1.454   4.636   3.264 -0.3459  0.3244 -0.8200
 2002SOL    MW4 8008   1.522   4.598   3.225  0.1439  0.1454  0.1893
 2003SOL     OW 8009   1.341   4.428   3.793  0.1436  0.4606 -0.2446
 2003SOL    HW2 8010   1.373   4.502   3.741  0.1085  0.2676 -0.5402
 2003SOL    HW3 8011   1.344   4.460   3.884 -0.2228  0.9560 -0.4033
 2003SOL    MW4 8012   1.345   4.442   3.798  0.0906  0.5005 -0.3045
 2004SOL     OW 8013   4.084   1.679   4.007  0.4591  0.0992  0.1300
 2004SOL    HW2 8014   4.058   1.714   3.922  0.5640 -1.1529 -0.4226
 2004SOL    HW3 8015   4.177   1.701   4.015  0.1883  1.2171  0.4426
 2004SOL    MW4 8016   4.093   1.687   3.997  0.4372  0.0815  0.0983
 2005SOL     OW 8017   1.443   0.326   4.343  0.0505  0.2580 -0.3872
 2005SOL    HW2 8018   1.367   0.335   4.401 -0.9671  0.1305 -1.6859
 2005SOL    HW3 8019   1.431   0.241   4.301  0.2926  0.7397 -1.4604
 2005SOL    MW4 8020   1.431   0.316   4.345 -0.0518  0.3047 -0.7001
 2006SOL     OW 8021   4.411   3.918   4.097 -0.2675  0.3205  0.4022
 2006SOL    HW2 8022   4.365   3.847   4.142 -1.1985 -0.1559 -1.2563
 2006SOL    HW3 8023   4.501   3.886   4.087 -0.0323  0.4605  1.9441
 2006SOL    MW4 8024   4.417   3.905   4.102 -0.3593  0.2761  0.3868
 2007SOL     OW 8025   1.477   1.459   3.892  0.6055 -0.6393  0.3565
 2007SOL    HW2 8026   1.390   1.454   3.853  0.8557 -1.5154 -0.0941
 2007SOL    HW3 8027   1.461   1.464   3.986  0.0659 -0.8337  0.2761
 2007SOL    MW4 8028   1.463   1.459   3.899  0.5673 -0.7805  0.2864
 2008SOL     OW 8029   2.700   0.036   4.322 -0.7309 -0.0613 -0.5827
 2008SOL    HW2 8030   2.626   0.049   4.381 -0.0286 -1.0501  0.5477
 2008SOL    HW3 8031   2.686  -0.050   4.284 -1.2479  0.6266 -1.9808
 2008SOL    MW4 8032   2.689   0.026   4.324 -0.7064 -0.1010 -0.6180
 2009SOL     OW 8033   1.817   1.100   3.304  0.1166 -0.3004  0.0084
 2009SOL    HW2 8034   1.761   1.141   3.370  0.0458  1.1257 -0.8934
 2009SOL    HW3 8035   1.904   1.134   3.321  0.2057 -0.3945 -0.2527
 2009SOL    MW4 8036   1.821   1.110   3.315  0.1190 -0.1246 -0.1450
 2010SOL     OW 8037   4.459   3.451   3.300  0.1105  0.2821 -0.3474
 2010SOL    HW2 8038   4.372   3.472   3.333  0.3043  1.0581 -0.3184
 2010SOL    HW3 8039   4.454   3.466   3.206 -0.2699 -1.3428 -0.5948
 2010SOL    MW4 8040   4.447   3.456   3.292  0.0859  0.1701 -0.3762
 2011SOL     OW 8041   1.104   2.796   3.371  0.0476 -0.0666  0.0976
 2011SOL    HW2 8042   1.187   2.760   3.338  1.3961  0.6111  2.5831
 2011SOL    HW3 8043   1.116   2.891   3.366 -0.4576  0.0324  0.7685
 2011SOL    MW4 8044   1.117   2.804   3.366  0.1589  0.0359  0.5141
 2012SOL     OW 8045   1.422   1.894   3.251  0.1585 -0.2127 -0.2121
 2012SOL    HW2 8046   1.338   1.913   3.293 -1.7659 -1.6467 -3.2453
 2012SOL    HW3 8047   1.440   1.802   3.272  1.0695  0.1383  0.5741
 2012SOL    MW4 8048   1.414   1.884   3.259  0.0248 -0.3556 -0.5086
 2013SOL     OW 8049   1.345   1.650   3.625  0.0007 -0.2140 -0.3049
 2013SOL    HW2 8050   1.362   1.656   3.531  1.2890  0.0395 -0.0631
 2013SOL    HW3 8051   1.372   1.735   3.660  0.6971 -0.7404  0.4600
 2013SOL    MW4 8052   1.351   1.662   3.617  0.2625 -0.2500 -0.1721
 2014SOL     OW 8053   1.381   2.417   3.365 -0.1284 -0.3177  0.1982
 2014SOL    HW2 8054   1.365   2.493   3.309  1.6301  2.0551  2.7599
 2014SOL    HW3 8055   1.458   2.375   3.326  0.3167  0.5932  0.0623
 2014SOL    MW4 8056   1.389   2.422   3.352  0.1623  0.1156  0.5183
 2015SOL     OW 8057   3.549   4.216   3.960  0.0417  0.2477 -0.2388
 2015SOL    HW2 8058   3.472   4.161   3.944  0.5605 -0.4244 -0.4750
 2015SOL    HW3 8059   3.514   4.300   3.988 -0.7784 -0.0337 -0.4229
 2015SOL    MW4 8060   3.534   4.220   3.962  0.0020  0.1219 -0.2942
 2016SOL     OW 8061   1.342   2.673   3.247 -0.2628 -0.4484 -0.2086
 2016SOL    HW2 8062   1.401   2.730   3.298  0.5340 -1.1477 -0.3391
 2016SOL    HW3 8063   1.369   2.686   3.156  0.0452 -1.1705 -0.2236
 2016SOL    MW4 8064   1.353   2.682   3.242 -0.1171 -0.6359 -0.2278
 2017SOL     OW 8065   2.135   3.209   3.592  0.2861  0.2025  0.5524
 2017SOL    HW2 8066   2.161   3.279   3.652  0.4140  0.0411  0.6865
 2017SOL    HW3 8067   2.166   3.128   3.634  1.3130  0.1713 -0.2321
 2017SOL    MW4 8068   2.143   3.207   3.606  0.4385  0.1771  0.4666
 2018SOL     OW 8069   1.540   3.069   3.246  0.6717 -0.1476  0.4543
 2018SOL    HW2 8070   1.636   3.078   3.248  0.7699 -1.0012 -0.1983
 2018SOL    HW3 8071   1.522   2.992   3.298  0.3283  0.0503  0.6280
 2018SOL    MW4 8072   1.551   3.060   3.253  0.6394 -0.2341  0.3911
 2019SOL     OW 8073   1.334   3.539   3.253 -0.2110 -0.5140 -0.3721
 2019SOL    HW2 8074   1.260   3.575   3.302  0.2271 -0.1382  0.0122
 2019SOL    HW3 8075   1.330   3.445   3.271  0.6945 -0.2279  1.4250
 2019SOL    MW4 8076   1.324   3.531   3.262 -0.0337 -0.4267 -0.0843
 2020SOL     OW 8077   0.246   0.366   4.279  0.2483  0.9327 -0.2532
 2020SOL    HW2 8078   0.332   0.406   4.290 -1.1879  3.5276  1.9536
 2020SOL    HW3 8079   0.233   0.315   4.359  0.7400 -1.5388 -1.6853
 2020SOL    MW4 8080   0.256   0.364   4.291  0.1237  0.9490 -0.1510
 2021SOL     OW 8081   1.569   3.614   3.378 -0.3683  0.7180  0.2267
 2021SOL    HW2 8082   1.636   3.561   3.334 -1.6023 -0.7868  0.1404
 2021SOL    HW3 8083   1.486   3.583   3.342 -1.1868  1.9463  1.0107
 2021SOL    MW4 8084   1.567   3.603   3.367 -0.6391  0.6816  0.3187
 2022SOL     OW 8085   1.816   4.033   3.365 -0.6138  0.2698 -0.0262
 2022SOL    HW2 8086   1.744   3.973   3.344 -2.2709  1.5501  1.7907
 2022SOL    HW3 8087   1.797   4.111   3.313  1.2422 -0.5323 -1.9727
 2022SOL    MW4 8088   1.804   4.035   3.356 -0.5876  0.3329 -0.0433
 2023SOL     OW 8089   1.328   0.635   4.564  0.0097  0.0722  0.1887
 2023SOL    HW2 8090   1.401   0.664   4.619 -0.9358  0.8476  1.0475
 2023SOL    HW3 8091   1.337   0.540   4.561  1.2495  0.1886  0.0155
 2023SOL    MW4 8092   1.339   0.626   4.571  0.0485  0.1898  0.2792
 2024SOL     OW 8093   4.316   2.325   4.184 -0.1656 -0.0463 -0.3309
 2024SOL    HW2 8094   4.325   2.367   4.098 -0.0175  1.0503  0.2216
 2024SOL    HW3 8095   4.283   2.393   4.241 -1.9071 -1.2192  0.1226
 2024SOL    MW4 8096   4.313   2.339   4.180 -0.3758 -0.0563 -0.1981
 2025SOL     OW 8097   1.563   1.230   3.737  0.5789 -0.1356  0.0274
 2025SOL    HW2 8098   1.507   1.175   3.792  1.5166  0.8878  2.0660
 2025SOL    HW3 8099   1.551   1.319   3.771 -0.8231  0.9708 -3.1541
 2025SOL    MW4 8100   1.554   1.234   3.749  0.5176  0.1454 -0.1234
 2026SOL     OW 8101   2.279   0.277   3.736  0.1451 -0.1159 -0.3800
 2026SOL    HW2 8102   2.258   0.299   3.826  0.9956 -1.7514  0.2416
 2026SOL    HW3 8103   2.337   0.348   3.707 -0.6236  0.7318  0.1465
 2026SOL    MW4 8104   2.284   0.289   3.744  0.1559 -0.2198 -0.2286
 2027SOL     OW 8105   2.035   0.362   3.639 -0.0787 -0.6838  0.8506
 2027SOL    HW2 8106   2.013   0.440   3.690  0.8736  2.8936 -3.7929
 2027SOL    HW3 8107   2.124   0.340   3.664  0.4781  1.1934  0.5694
 2027SOL    MW4 8108   2.044   0.369   3.649  0.1204  0.0359  0.2009
 2028SOL     OW 8109   2.874   3.595   3.719 -0.9284 -0.3440 -0.0493
 2028SOL    HW2 8110   2.858   3.583   3.625 -0.5613 -1.6349  0.0430
 2028SOL    HW3 8111   2.933   3.670   3.723 -0.0020 -1.0016 -0.9373
 2028SOL    MW4 8112   2.880   3.603   3.707 -0.7578 -0.6011 -0.1543
 2029SOL     OW 8113   2.039   4.658   2.944 -0.2792  0.0794 -0.0477
 2029SOL    HW2 8114   2.034   4.618   3.030 -0.0631 -0.4969 -0.2970
 2029SOL    HW3 8115   1.949   4.681   2.922 -0.5694 -1.3376 -0.3921
 2029SOL    MW4 8116   2.027   4.656   2.952 -0.2890 -0.1836 -0.1260
 2030SOL     OW 8117   1.864   0.581   4.223 -0.6592 -0.3624 -0.3435
 2030SOL    HW2 8118   1.849   0.520   4.150  3.2518 -0.6099 -1.0358
 2030SOL    HW3 8119   1.869   0.667   4.182 -1.2333 -0.1584  0.0060
 2030SOL    MW4 8120   1.862   0.584   4.208 -0.2189 -0.3682 -0.3887
 2031SOL     OW 8121   0.244   0.543   3.362  0.1691  0.7496  0.1487
 2031SOL    HW2 8122   0.321   0.498   3.328 -1.0761 -1.8334  0.6077
 2031SOL    HW3 8123   0.228   0.615   3.301 -0.1262 -1.8472 -2.9297
 2031SOL    MW4 8124   0.252   0.547   3.349 -0.0341  0.0662 -0.1969
 2032SOL     OW 8125   0.221   2.945   4.054 -0.4482 -0.4723 -0.0559
 2032SOL    HW2 8126   0.268   2.950   3.971 -0.2873 -1.0451  0.0007
 2032SOL    HW3 8127   0.129   2.957   4.030 -0.1755  2.0153 -0.0206
 2032SOL    MW4 8128   0.215   2.947   4.040 -0.3910 -0.2197 -0.0438
 2033SOL     OW 8129   3.981   3.819   3.721 -0.1349  0.2779  0.2176
 2033SOL    HW2 8130   3.914   3.760   3.686 -1.2486  2.0939 -0.8241
 2033SOL    HW3 8131   3.975   3.809   3.816 -0.0115 -1.5746  0.0487
 2033SOL    MW4 8132   3.972   3.810   3.729 -0.2656  0.2731  0.0579
 2034SOL     OW 8133   2.021   1.510   3.323 -0.6585 -0.0983  0.4615
 2034SOL    HW2 8134   2.097   1.559   3.354 -0.9807 -0.4995  1.9256
 2034SOL    HW3 8135   1.945   1.562   3.350 -0.9013  1.3034 -2.7070
 2034SOL    MW4 8136   2.021   1.523   3.330 -0.7330  0.0337  0.2367
 2035SOL     OW 8137   1.150   1.204   3.377  0.0148 -0.1875  0.1724
 2035SOL    HW2 8138   1.153   1.289   3.334 -0.1603 -0.3494 -0.1680
 2035SOL    HW3 8139   1.225   1.156   3.342  0.2465 -0.0909  0.5378
 2035SOL    MW4 8140   1.160   1.209   3.367  0.0222 -0.1961  0.1757
 2036SOL     OW 8141   1.810   1.875   3.304  0.2337 -0.0411 -0.3469
 2036SOL    HW2 8142   1.884   1.928   3.331  0.2330  0.1273 -0.6726
 2036SOL    HW3 8143   1.804   1.888   3.209 -0.7042  0.5712 -0.2074
 2036SOL    MW4 8144   1.819   1.883   3.295  0.1099  0.0619 -0.3714
 2037SOL     OW 8145   1.998   2.057   3.384 -0.1408 -0.6230  0.6240
 2037SOL    HW2 8146   2.081   2.019   3.354 -1.6113 -2.5194 -1.2226
 2037SOL    HW3 8147   1.991   2.031   3.476  1.2934 -0.4568  0.7895
 2037SOL    MW4 8148   2.008   2.048   3.392 -0.1456 -0.8513  0.4022
 2038SOL     OW 8149   1.979   0.960   4.420  0.0491  0.1855 -0.1811
 2038SOL    HW2 8150   2.070   0.986   4.403  0.2948 -1.4598 -1.5695
 2038SOL    HW3 8151   1.929   1.042   4.415  1.4346  1.1005  0.5572
 2038SOL    MW4 8152   1.985   0.974   4.417  0.2643  0.0891 -0.2669
 2039SOL     OW 8153   3.336   0.766   3.235  0.7660 -0.0265 -0.0934
 2039SOL    HW2 8154   3.421   0.807   3.252  0.8329 -0.4957  0.7793
 2039SOL    HW3 8155   3.280   0.797   3.306 -0.1931  1.3648 -1.4393
 2039SOL    MW4 8156   3.340   0.775   3.247  0.6483  0.0951 -0.1558
 2040SOL     OW 8157   2.060   2.326   3.311  0.1298  0.6017 -0.4147
 2040SOL    HW2 8158   2.045   2.321   3.217 -2.6006 -0.5971  0.0202
 2040SOL    HW3 8159   2.043   2.237   3.343 -0.2777  1.2892  1.3666
 2040SOL    MW4 8160   2.056   2.313   3.303 -0.2842  0.5342 -0.1223
 2041SOL     OW 8161   2.032   2.877   3.344 -0.0658 -0.4696  0.2984
 2041SOL    HW2 8162   2.117   2.835   3.332 -0.5963 -1.6113  0.4437
 2041SOL    HW3 8163   2.009   2.858   3.435 -1.2823 -1.7295 -0.2402
 2041SOL    MW4 8164   2.040   2.869   3.354 -0.2963 -0.7865  0.2465
 2042SOL     OW 8165   2.104   3.141   3.234  0.3285 -0.6651  1.0183
 2042SOL    HW2 8166   2.116   3.056   3.275 -1.4096 -0.7251  1.4502
 2042SOL    HW3 8167   2.146   3.203   3.294 -0.7244 -0.9388  2.0480
 2042SOL    MW4 8168   2.111   3.138   3.248 -0.0397 -0.7091  1.2111
 2043SOL     OW 8169   1.036   4.132   3.865  0.0293 -0.3144 -0.3455
 2043SOL    HW2 8170   0.982   4.102   3.792 -3.0453  0.9618  1.2840
 2043SOL    HW3 8171   1.027   4.063   3.931 -0.7921  0.5477  0.4606
 2043SOL    MW4 8172   1.028   4.119   3.864 -0.4847 -0.0323 -0.0242
 2044SOL     OW 8173   1.815   3.124   3.281  0.0183 -0.1915 -0.0506
 2044SOL    HW2 8174   1.881   3.056   3.264 -1.3917 -1.8608  0.9433
 2044SOL    HW3 8175   1.847   3.169   3.359 -0.3503 -1.4634  0.8483
 2044SOL    MW4 8176   1.828   3.121   3.289 -0.2164 -0.5796  0.1992
 2045SOL     OW 8177   1.763   3.444   3.254 -0.0424  0.3524  0.7602
 2045SOL    HW2 8178   1.738   3.351   3.249  0.9827  0.0856  0.3533
 2045SOL    HW3 8179   1.774   3.470   3.163 -0.7913  1.0132  0.8564
 2045SOL    MW4 8180   1.761   3.435   3.241 -0.0059  0.4044  0.7192
 2046SOL     OW 8181   2.223   3.588   3.274  0.2461  0.3815 -0.4372
 2046SOL    HW2 8182   2.210   3.576   3.180 -0.5976 -0.9188 -0.1716
 2046SOL    HW3 8183   2.232   3.499   3.309  1.8571  0.9042  0.5360
 2046SOL    MW4 8184   2.222   3.574   3.266  0.3473  0.2789 -0.2738
 2047SOL     OW 8185   4.016   2.092   4.548  0.0280 -0.0897 -0.0544
 2047SOL    HW2 8186   4.011   2.009   4.595 -1.9824  0.1060  0.1370
 2047SOL    HW3 8187   3.983   2.072   4.460  0.2356  0.3562 -0.2384
 2047SOL    MW4 8188   4.011   2.078   4.542 -0.2099 -0.0050 -0.0534
 2048SOL     OW 8189   2.482   3.613   3.419 -0.2232  0.3107  0.3589
 2048SOL    HW2 8190   2.449   3.613   3.509 -0.2559  3.0318  0.3891
 2048SOL    HW3 8191   2.404   3.616   3.364 -0.1733  0.2470  0.2838
 2048SOL    MW4 8192   2.468   3.613   3.423 -0.2209  0.6613  0.3529
 2049SOL     OW 8193   1.497   4.336   3.223  0.0897 -0.2558 -0.0420
 2049SOL    HW2 8194   1.449   4.311   3.302  0.9802 -0.9213  0.2816
 2049SOL    HW3 8195   1.444   4.301   3.151 -0.0997 -0.6753  0.3017
 2049SOL    MW4 8196   1.483   4.328   3.224  0.1822 -0.3990  0.0460
 2050SOL     OW 8197   0.519   2.424   4.054 -0.7894 -0.1396  0.7097
 2050SOL    HW2 8198   0.508   2.503   4.106 -2.6235  0.4333 -0.4670
 2050SOL    HW3 8199   0.597   2.382   4.090  0.3310  2.2768  1.2482
 2050SOL    MW4 8200   0.528   2.429   4.065 -0.8836  0.2548  0.6255
 2051SOL     OW 8201   1.368   4.463   4.072  0.0793  0.0774  0.2260
 2051SOL    HW2 8202   1.343   4.374   4.097  0.7830 -0.8368 -2.1618
 2051SOL    HW3 8203   1.294   4.517   4.100 -1.0189 -1.4646  0.3882
 2051SOL    MW4 8204   1.355   4.458   4.079  0.0273 -0.2466 -0.0676
 2052SOL     OW 8205   2.244   0.827   3.358  0.0902 -0.1367  0.3437
 2052SOL    HW2 8206   2.316   0.773   3.324 -0.3042  0.4442 -1.4378
 2052SOL    HW3 8207   2.165   0.777   3.336 -0.2056  0.5705 -0.1952
 2052SOL    MW4 8208   2.243   0.813   3.351 -0.0009  0.0332  0.0375
 2053SOL     OW 8209   1.398   3.966   4.229  0.1147  0.1227 -0.0357
 2053SOL    HW2 8210   1.464   3.930   4.288 -0.5120  0.5164  0.9229
 2053SOL    HW3 8211   1.340   3.892   4.212  0.2196  0.0409 -0.0400
 2053SOL    MW4 8212   1.399   3.951   4.235  0.0458  0.1639  0.0902
 2054SOL     OW 8213   2.043   0.435   3.371  0.4937  0.3962 -0.0820
 2054SOL    HW2 8214   2.043   0.423   3.466 -2.0238 -0.6739 -0.1991
 2054SOL    HW3 8215   2.112   0.377   3.340 -0.8472 -1.7428  0.8200
 2054SOL    MW4 8216   2.052   0.426   3.380 -0.0154 -0.0272  0.0215
 2055SOL     OW 8217   2.488   2.895   3.339 -0.1602 -0.0002  0.3554
 2055SOL    HW2 8218   2.556   2.833   3.314  0.4105  0.8619 -0.2562
 2055SOL    HW3 8219   2.408   2.843   3.340  0.1163 -0.5063 -1.3291
 2055SOL    MW4 8220   2.486   2.880   3.336 -0.0484  0.0468  0.0525
 2056SOL     OW 8221   2.085   1.252   3.409  0.4990 -0.3251  0.1141
 2056SOL    HW2 8222   2.061   1.233   3.500  1.5816 -1.4690  0.1738
 2056SOL    HW3 8223   2.049   1.339   3.393 -1.7917 -1.0937  0.8573
 2056SOL    MW4 8224   2.077   1.261   3.419  0.3396 -0.5774  0.2200
 2057SOL     OW 8225   3.602   2.392   3.333 -0.1827  0.1665  0.1309
 2057SOL    HW2 8226   3.584   2.363   3.422 -0.6432 -0.0577 -0.0341
 2057SOL    HW3 8227   3.686   2.353   3.311 -0.1137  0.1460  0.4329
 2057SOL    MW4 8228   3.611   2.383   3.342 -0.2344  0.1342  0.1489
 2058SOL     OW 8229   2.261   1.646   3.398  0.9690  0.5104 -0.0948
 2058SOL    HW2 8230   2.289   1.647   3.489 -0.1421 -0.3948  0.2736
 2058SOL    HW3 8231   2.337   1.615   3.349  0.7165 -1.6740  0.8649
 2058SOL    MW4 8232   2.275   1.642   3.403  0.7891  0.1027  0.0804
 2059SOL     OW 8233   2.391   1.072   3.981 -0.3253 -0.0894 -0.0279
 2059SOL    HW2 8234   2.418   0.980   3.979  1.1424  0.2592  2.0418
 2059SOL    HW3 8235   2.330   1.077   4.054 -2.1096  0.1647 -1.5116
 2059SOL    MW4 8236   2.387   1.060   3.990 -0.3671 -0.0099  0.0494
 2060SOL     OW 8237   2.237   1.912   3.328 -0.1716  0.3017  0.1553
 2060SOL    HW2 8238   2.239   1.821   3.356  2.3275  0.5651  0.9794
 2060SOL    HW3 8239   2.246   1.908   3.232  0.8072 -0.2973  0.2699
 2060SOL    MW4 8240   2.239   1.899   3.319  0.2872  0.2574  0.2791
 2061SOL     OW 8241   2.475   2.298   3.264  0.1153 -0.5493 -0.1206
 2061SOL    HW2 8242   2.548   2.343   3.305 -0.9759  0.9114  0.2811
 2061SOL    HW3 8243   2.464   2.218   3.315 -0.3603  0.5922  1.6208
 2061SOL    MW4 8244   2.483   2.293   3.276 -0.0914 -0.2060  0.1621
 2062SOL     OW 8245   2.277   2.469   3.382  0.0515 -0.4396  0.3400
 2062SOL    HW2 8246   2.202   2.423   3.342  1.1450 -1.4697 -0.5776
 2062SOL    HW3 8247   2.354   2.432   3.337  1.1443  0.1961  1.6693
 2062SOL    MW4 8248   2.277   2.458   3.371  0.3399 -0.4916  0.3943
 2063SOL     OW 8249   2.883   2.139   3.632  0.0292  0.7629 -0.2997
 2063SOL    HW2 8250   2.936   2.218   3.620 -0.0249  1.1135  1.6946
 2063SOL    HW3 8251   2.910   2.104   3.716 -1.5811 -0.0900 -0.1175
 2063SOL    MW4 8252   2.893   2.145   3.641 -0.1904  0.6966 -0.0125
 2064SOL     OW 8253   2.252   2.733   3.279 -0.0010  0.4584  0.1446
 2064SOL    HW2 8254   2.235   2.642   3.304 -1.0768  0.7885  0.6767
 2064SOL    HW3 8255   2.276   2.729   3.187  0.2670 -0.4048  0.2524
 2064SOL    MW4 8256   2.253   2.721   3.270 -0.1076  0.3880  0.2291
 2065SOL     OW 8257   2.289   1.169   3.742  0.2827 -0.5490 -0.2551
 2065SOL    HW2 8258   2.279   1.080   3.709  0.0095 -0.2868 -0.8941
 2065SOL    HW3 8259   2.317   1.159   3.833  2.8105 -1.2749 -1.0925
 2065SOL    MW4 8260   2.291   1.156   3.750  0.5802 -0.6102 -0.4499
 2066SOL     OW 8261   0.890   0.732   4.001 -0.1872  0.4080  0.0408
 2066SOL    HW2 8262   0.948   0.743   3.925 -1.0847  2.0314 -0.4199
 2066SOL    HW3 8263   0.943   0.761   4.076  0.2158  0.1409 -0.1378
 2066SOL    MW4 8264   0.905   0.738   4.001 -0.2525  0.5870 -0.0435
 2067SOL     OW 8265   3.558   3.409   3.733  0.1400  0.3624 -0.0395
 2067SOL    HW2 8266   3.606   3.477   3.686 -0.1774  1.2656  0.9199
 2067SOL    HW3 8267   3.466   3.433   3.721  0.0283  0.0939  0.2758
 2067SOL    MW4 8268   3.552   3.421   3.725  0.0834  0.4462  0.1287
 2068SOL     OW 8269   1.278   0.594   4.119  0.3149 -0.0408 -0.0204
 2068SOL    HW2 8270   1.373   0.593   4.110  0.1979 -0.8154 -1.2085
 2068SOL    HW3 8271   1.245   0.613   4.032 -0.6361 -0.5311  0.2171
 2068SOL    MW4 8272   1.286   0.596   4.106  0.1740 -0.2077 -0.1458
 2069SOL     OW 8273   1.190   1.976   3.358  0.1754  0.3321 -0.1160
 2069SOL    HW2 8274   1.111   1.926   3.333 -0.0559 -0.1301  1.4629
 2069SOL    HW3 8275   1.177   2.062   3.318 -0.6025 -0.0820 -0.7966
 2069SOL    MW4 8276   1.178   1.980   3.349  0.0422  0.2165  0.0025
 2070SOL     OW 8277   2.941   4.114   3.296 -0.2559  0.2522 -0.8651
 2070SOL    HW2 8278   2.955   4.098   3.390 -0.1120  0.7178 -0.8033
 2070SOL    HW3 8279   2.903   4.201   3.293  0.5649  0.6004 -1.2966
 2070SOL    MW4 8280   2.938   4.123   3.308 -0.1286  0.3596 -0.9139
 2071SOL     OW 8281   3.117   3.192   3.309  0.0170  0.2200  0.0163
 2071SOL    HW2 8282   3.126   3.193   3.404 -0.6834  1.0359  0.0869
 2071SOL    HW3 8283   3.049   3.128   3.292  0.4266 -0.2196  0.0376
 2071SOL    MW4 8284   3.109   3.184   3.319 -0.0214  0.2696  0.0284
 2072SOL     OW 8285   2.271   3.904   3.285  0.9990  0.2889 -0.0173
 2072SOL    HW2 8286   2.248   3.996   3.272  2.8841  0.4675 -2.4990
 2072SOL    HW3 8287   2.198   3.855   3.246  1.0715  0.7584 -0.7504
 2072SOL    MW4 8288   2.258   3.909   3.278  1.2573  0.3744 -0.4415
 2073SOL     OW 8289   1.836   0.404   3.998  0.3468  0.3538  0.1575
 2073SOL    HW2 8290   1.759   0.363   3.959  0.9647 -0.7109  0.0489
 2073SOL    HW3 8291   1.877   0.453   3.926  1.6963 -1.9117 -0.6577
 2073SOL    MW4 8292   1.831   0.405   3.983  0.6064 -0.0856  0.0356
 2074SOL     OW 8293   3.616   0.410   3.267  0.2584  0.1860  0.2793
 2074SOL    HW2 8294   3.536   0.448   3.304  0.0943  0.9780 -0.8737
 2074SOL    HW3 8295   3.643   0.344   3.331 -0.4890  0.9527  1.4015
 2074SOL    MW4 8296   3.609   0.406   3.280  0.1381  0.3916  0.2753
 2075SOL     OW 8297   3.622   3.834   3.725 -0.4224 -0.1636 -0.2123
 2075SOL    HW2 8298   3.664   3.748   3.716 -1.0631 -0.4079 -0.8735
 2075SOL    HW3 8299   3.664   3.873   3.802  0.4240 -0.7469 -0.3765
 2075SOL    MW4 8300   3.633   3.828   3.734 -0.3953 -0.2728 -0.3212
 2076SOL     OW 8301   2.703   0.305   3.255  0.2903 -0.3890 -0.6010
 2076SOL    HW2 8302   2.783   0.355   3.273 -0.1903  0.2720 -0.2863
 2076SOL    HW3 8303   2.692   0.311   3.160 -0.3560  1.0182 -0.4423
 2076SOL    MW4 8304   2.712   0.312   3.245  0.1416 -0.1161 -0.5385
 2077SOL     OW 8305   1.650   1.334   4.158 -0.4512 -0.1593  0.3840
 2077SOL    HW2 8306   1.627   1.248   4.123 -2.8505  1.1537 -1.4508
 2077SOL    HW3 8307   1.715   1.369   4.097 -0.7111 -0.0169  0.1855
 2077SOL    MW4 8308   1.655   1.327   4.145 -0.8020  0.0327  0.1158
 2078SOL     OW 8309   2.674   0.868   3.340 -0.0915  0.4479 -0.0299
 2078SOL    HW2 8310   2.706   0.891   3.428 -1.2631  0.8273  0.2990
 2078SOL    HW3 8311   2.663   0.952   3.296 -0.5114  0.3148 -0.1811
 2078SOL    MW4 8312   2.677   0.882   3.346 -0.3015  0.4804 -0.0065
 2079SOL     OW 8313   4.064   1.825   4.650 -0.0066 -0.4895  0.1036
 2079SOL    HW2 8314   4.053   1.793   4.560 -0.3639 -0.7876  0.2555
 2079SOL    HW3 8315   4.157   1.815   4.667  0.2876  0.7158 -0.6740
 2079SOL    MW4 8316   4.075   1.820   4.640 -0.0149 -0.3698  0.0210
 2080SOL     OW 8317   0.575   1.302   3.948  0.4619 -0.4607  0.0363
 2080SOL    HW2 8318   0.659   1.347   3.961  0.3220 -0.6234  1.6867
 2080SOL    HW3 8319   0.509   1.368   3.970  0.2129 -0.9018  0.6301
 2080SOL    MW4 8320   0.577   1.316   3.953  0.4106 -0.5403  0.3324
 2081SOL     OW 8321   0.153   3.285   3.809  0.2928 -0.0422 -0.1117
 2081SOL    HW2 8322   0.162   3.306   3.902 -0.0199 -2.4110  0.4955
 2081SOL    HW3 8323   0.174   3.366   3.764 -0.5989  1.4569  2.0609
 2081SOL    MW4 8324   0.157   3.298   3.815  0.1339 -0.1569  0.2551
 2082SOL     OW 8325   2.686   1.958   3.216 -0.6868 -0.4242  0.2392
 2082SOL    HW2 8326   2.654   1.963   3.126 -0.8790  0.9009  0.3714
 2082SOL    HW3 8327   2.612   1.987   3.269 -0.4095 -0.7327  0.7961
 2082SOL    MW4 8328   2.672   1.963   3.211 -0.6756 -0.2901  0.3302
 2083SOL     OW 8329   2.667   1.926   2.920  0.0629  0.2490 -0.0980
 2083SOL    HW2 8330   2.758   1.956   2.926  0.3870 -0.7587  0.0911
 2083SOL    HW3 8331   2.674   1.832   2.901 -0.9195 -0.1730  1.4975
 2083SOL    MW4 8332   2.680   1.917   2.918 -0.0240  0.0603  0.1374
 2084SOL     OW 8333   2.681   3.973   3.608  0.1017 -0.4732 -0.1225
 2084SOL    HW2 8334   2.605   4.031   3.599  0.4740  0.1898  0.8731
 2084SOL    HW3 8335   2.651   3.903   3.666 -0.0452 -0.7465 -0.5254
 2084SOL    MW4 8336   2.667   3.972   3.614  0.1314 -0.4218 -0.0443
 2085SOL     OW 8337   2.878   2.339   3.262 -0.1770  0.2537  0.3757
 2085SOL    HW2 8338   2.865   2.332   3.168  1.2262  1.6818  0.0435
 2085SOL    HW3 8339   2.898   2.250   3.291  0.4335 -0.0181 -0.8569
 2085SOL    MW4 8340   2.879   2.326   3.254  0.0887  0.4063  0.1693
 2086SOL     OW 8341   2.641   0.091   3.419 -0.2178 -0.2252  0.1340
 2086SOL    HW2 8342   2.592   0.022   3.373 -0.7299 -0.0068  0.3441
 2086SOL    HW3 8343   2.666   0.152   3.350 -1.1658  0.2102  0.1733
 2086SOL    MW4 8344   2.638   0.090   3.404 -0.4104 -0.1389  0.1669
 2087SOL     OW 8345   2.901   2.074   3.361 -0.5912  0.3055  0.1091
 2087SOL    HW2 8346   2.820   2.030   3.334 -0.9311  1.2142 -0.3880
 2087SOL    HW3 8347   2.885   2.101   3.451 -0.1964 -1.0167  0.5772
 2087SOL    MW4 8348   2.888   2.072   3.369 -0.5840  0.2509  0.1053
 2088SOL     OW 8349   2.676   2.695   3.281 -0.1392 -0.3990 -0.3609
 2088SOL    HW2 8350   2.761   2.721   3.318  0.5407 -0.4026 -1.8778
 2088SOL    HW3 8351   2.661   2.607   3.315  0.4149 -0.3512  0.0075
 2088SOL    MW4 8352   2.685   2.687   3.291  0.0236 -0.3932 -0.5124
 2089SOL     OW 8353   1.587   3.456   4.477  0.3344  0.6514  0.6191
 2089SOL    HW2 8354   1.571   3.487   4.388  0.1547  0.5898  0.6290
 2089SOL    HW3 8355   1.660   3.394   4.468 -0.0434  0.2259  0.4270
 2089SOL    MW4 8356   1.594   3.452   4.464  0.2608  0.5871  0.5951
 2090SOL     OW 8357   2.427   4.112   3.555 -0.1542  0.0358  0.0340
 2090SOL    HW2 8358   2.373   4.037   3.580  0.6643 -0.1784  1.1636
 2090SOL    HW3 8359   2.387   4.186   3.601  0.7033 -0.1771  1.1290
 2090SOL    MW4 8360   2.414   4.112   3.564  0.0670 -0.0206  0.3275
 2091SOL     OW 8361   0.851   4.399   3.708  0.3175  0.3370  0.1940
 2091SOL    HW2 8362   0.936   4.438   3.689  0.7143 -0.4977  0.2018
 2091SOL    HW3 8363   0.864   4.352   3.790  1.0355 -3.2284 -1.8587
 2091SOL    MW4 8364   0.864   4.398   3.716  0.4646 -0.2436 -0.0758
 2092SOL     OW 8365   0.915   0.006   4.308 -0.1032 -0.5974 -0.4319
 2092SOL    HW2 8366   0.972   0.036   4.379 -0.0957  0.8963 -1.0721
 2092SOL    HW3 8367   0.970  -0.056   4.259  0.6795  0.1596 -0.5226
 2092SOL    MW4 8368   0.930   0.002   4.311  0.0011 -0.3005 -0.5283
 2093SOL     OW 8369   2.252   3.336   3.375  0.1439 -0.1410 -0.0265
 2093SOL    HW2 8370   2.217   3.297   3.455 -1.5266 -0.9013 -1.1192
 2093SOL    HW3 8371   2.333   3.288   3.358 -0.2813 -1.0035  0.3738
 2093SOL    MW4 8372   2.258   3.324   3.383 -0.1326 -0.3551 -0.1179
 2094SOL     OW 8373   4.475   1.915   3.990  0.3757 -0.5356 -0.0162
 2094SOL    HW2 8374   4.416   1.988   4.009  1.6269  0.8630 -1.4905
 2094SOL    HW3 8375   4.447   1.882   3.905  1.4347 -0.1446 -0.5246
 2094SOL    MW4 8376   4.463   1.920   3.982  0.6805 -0.2995 -0.2778
 2095SOL     OW 8377   3.078   1.569   3.850 -0.1874 -0.5305  0.4799
 2095SOL    HW2 8378   3.061   1.483   3.814  0.7281 -0.8848  0.8592
 2095SOL    HW3 8379   3.153   1.556   3.909 -0.8953  0.2530  1.5767
 2095SOL    MW4 8380   3.086   1.556   3.853 -0.1600 -0.4739  0.6746
 2096SOL     OW 8381   2.045   4.562   3.209 -0.0490 -0.1004 -0.3101
 2096SOL    HW2 8382   2.049   4.473   3.244 -0.0167 -0.0420 -0.1642
 2096SOL    HW3 8383   2.115   4.609   3.255  0.1251 -0.0751 -0.6021
 2096SOL    MW4 8384   2.055   4.557   3.220 -0.0217 -0.0894 -0.3294
 2097SOL     OW 8385   3.858   4.417   3.398  0.2614 -0.1212  0.5510
 2097SOL    HW2 8386   3.869   4.505   3.359  1.5953 -0.6888 -0.4187
 2097SOL    HW3 8387   3.769   4.391   3.374 -0.5615  1.4158  1.8097
 2097SOL    MW4 8388   3.848   4.425   3.389  0.3288  0.0067  0.5891
 2098SOL     OW 8389   0.885   4.057   3.630 -0.2647 -0.2488  0.8007
 2098SOL    HW2 8390   0.863   3.966   3.648 -0.3073 -1.0310 -2.7983
 2098SOL    HW3 8391   0.802   4.099   3.609  0.3292 -0.8683 -3.2466
 2098SOL    MW4 8392   0.871   4.051   3.630 -0.1920 -0.4337 -0.2081
 2099SOL     OW 8393   3.537   3.901   4.453  0.4747 -0.2328 -0.1537
 2099SOL    HW2 8394   3.470   3.969   4.454  1.8594  1.1633 -0.1412
 2099SOL    HW3 8395   3.600   3.930   4.386  0.2193 -2.3560 -1.3334
 2099SOL    MW4 8396   3.537   3.914   4.444  0.6237 -0.3288 -0.3077
 2100SOL     OW 8397   3.432   3.805   4.137 -0.0370  0.0406  0.3893
 2100SOL    HW2 8398   3.409   3.713   4.123  0.5832 -0.0736  0.0969
 2100SOL    HW3 8399   3.447   3.812   4.231  0.2620 -0.2400  0.3636
 2100SOL    MW4 8400   3.431   3.794   4.147  0.0843 -0.0115  0.3474
 2101SOL     OW 8401   1.637   2.076   3.355  0.2743 -0.0490 -0.0045
 2101SOL    HW2 8402   1.560   2.028   3.324  0.2755 -0.1135  0.0899
 2101SOL    HW3 8403   1.710   2.016   3.338  0.4967  0.6329 -1.5120
 2101SOL    MW4 8404   1.637   2.061   3.348  0.3038  0.0324 -0.1910
 2102SOL     OW 8405   3.855   0.762   3.239  0.2511 -0.2703 -0.3754
 2102SOL    HW2 8406   3.927   0.807   3.284 -0.7434  0.1903  0.8029
 2102SOL    HW3 8407   3.844   0.680   3.287 -1.1116  0.4223  0.5419
 2102SOL    MW4 8408   3.863   0.758   3.251 -0.0599 -0.1181 -0.0989
 2103SOL     OW 8409   2.915   0.761   3.283  0.1827 -0.3328 -0.3741
 2103SOL    HW2 8410   2.830   0.803   3.296  0.2252 -0.2999 -0.2052
 2103SOL    HW3 8411   2.978   0.820   3.322  0.0844 -1.3064  1.2955
 2103SOL    MW4 8412   2.912   0.774   3.290  0.1754 -0.4569 -0.1315
 2104SOL     OW 8413   3.132   1.118   3.284 -0.1169 -0.4331  0.2167
 2104SOL    HW2 8414   3.120   1.112   3.189 -1.5047  0.5526  0.3274
 2104SOL    HW3 8415   3.199   1.185   3.296 -0.2567 -0.2507 -0.0386
 2104SOL    MW4 8416   3.139   1.126   3.273 -0.3185 -0.2790  0.1977
 2105SOL     OW 8417   2.479   3.226   4.571 -0.0591  0.1503 -0.0687
 2105SOL    HW2 8418   2.546   3.186   4.516  0.6669  1.3050 -0.0522
 2105SOL    HW3 8419   2.459   3.309   4.527 -2.6047 -0.8746 -0.8976
 2105SOL    MW4 8420   2.485   3.231   4.558 -0.2992  0.1674 -0.1759
 2106SOL     OW 8421   1.111   1.440   4.091 -0.3087 -0.1811 -0.2450
 2106SOL    HW2 8422   1.113   1.472   4.001 -1.2851 -0.4557 -0.3695
 2106SOL    HW3 8423   1.035   1.382   4.094 -0.2414 -0.2241  0.7404
 2106SOL    MW4 8424   1.101   1.436   4.079 -0.4286 -0.2230 -0.1314
 2107SOL     OW 8425   3.122   1.912   3.285 -0.2587  0.1516  0.0011
 2107SOL    HW2 8426   3.135   1.919   3.191  0.1919  0.6824  0.0996
 2107SOL    HW3 8427   3.047   1.967   3.304  0.4091  1.0276  0.1220
 2107SOL    MW4 8428   3.114   1.920   3.275 -0.1111  0.3372  0.0301
 2108SOL     OW 8429   2.939   3.311   3.782  0.0521  0.2433 -0.3274
 2108SOL    HW2 8430   2.928   3.405   3.765 -0.9927  0.1573 -0.1457
 2108SOL    HW3 8431   2.929   3.303   3.877 -0.4489 -0.1343 -0.4134
 2108SOL    MW4 8432   2.936   3.322   3.792 -0.1518  0.1821 -0.3148
 2109SOL     OW 8433   3.621   2.008   4.002  0.0095  0.1022 -0.2506
 2109SOL    HW2 8434   3.661   2.091   4.029 -1.4428  1.2634 -1.5768
 2109SOL    HW3 8435   3.562   1.986   4.074  1.1461 -0.3293  0.5703
 2109SOL    MW4 8436   3.619   2.016   4.015 -0.0322  0.1985 -0.3173
 2110SOL     OW 8437   3.340   2.276   3.281 -0.0860  0.7287 -0.1072
 2110SOL    HW2 8438   3.277   2.332   3.327  0.9092  0.3101  1.8188
 2110SOL    HW3 8439   3.424   2.320   3.294  0.4229 -0.1962 -0.2552
 2110SOL    MW4 8440   3.343   2.289   3.289  0.1125  0.5514  0.1274
 2111SOL     OW 8441   3.122   2.447   3.357 -0.3935  0.0751 -0.2828
 2111SOL    HW2 8442   3.143   2.538   3.335 -1.3958  0.1245 -1.0816
 2111SOL    HW3 8443   3.046   2.426   3.302 -1.1027 -0.7687  0.9987
 2111SOL    MW4 8444   3.115   2.456   3.347 -0.6193 -0.0297 -0.2191
 2112SOL     OW 8445   2.715   0.373   3.798 -0.3879  0.1274 -0.3651
 2112SOL    HW2 8446   2.755   0.425   3.868  0.2937  0.4618 -0.9925
 2112SOL    HW3 8447   2.714   0.284   3.832 -1.3498  0.4936  0.6294
 2112SOL    MW4 8448   2.720   0.368   3.812 -0.4249  0.2199 -0.3167
 2113SOL     OW 8449   3.365   3.065   3.295  0.4064  0.1808  0.1012
 2113SOL    HW2 8450   3.435   3.122   3.326  0.5730  0.0648 -0.0575
 2113SOL    HW3 8451   3.284   3.114   3.311  0.2590 -0.9917  3.2457
 2113SOL    MW4 8452   3.363   3.079   3.301  0.4090  0.0108  0.4952
 2114SOL     OW 8453   3.832   0.534   3.666 -0.7026 -0.1956 -0.0294
 2114SOL    HW2 8454   3.897   0.467   3.686  1.0569  1.1079 -1.2364
 2114SOL    HW3 8455   3.834   0.543   3.571 -1.8984  0.5996  0.0090
 2114SOL    MW4 8456   3.841   0.526   3.656 -0.6282  0.0813 -0.1836
 2115SOL     OW 8457   2.448   3.149   3.256 -0.2804 -0.3440  0.1231
 2115SOL    HW2 8458   2.448   3.145   3.161 -0.5879 -0.4137  0.1266
 2115SOL    HW3 8459   2.446   3.058   3.285 -1.8350 -0.2934  0.1938
 2115SOL    MW4 8460   2.448   3.137   3.247 -0.5261 -0.3465  0.1329
 2116SOL     OW 8461   3.966   2.902   3.726 -0.4202 -0.2285  0.1236
 2116SOL    HW2 8462   3.933   2.829   3.675  1.0356 -0.6259 -0.2750
 2116SOL    HW3 8463   3.888   2.944   3.762 -1.5082  0.1583 -2.5562
 2116SOL    MW4 8464   3.951   2.898   3.724 -0.3717 -0.2299 -0.2826
 2117SOL     OW 8465   0.394   2.466   4.517 -0.5345  0.3149 -0.2505
 2117SOL    HW2 8466   0.311   2.497   4.553 -0.1695 -0.2448  1.1104
 2117SOL    HW3 8467   0.384   2.371   4.513  0.0195  0.2538 -0.1631
 2117SOL    MW4 8468   0.382   2.457   4.521 -0.4132  0.2330 -0.0594
 2118SOL     OW 8469   3.037   3.446   3.292  0.3585  0.6865  0.3017
 2118SOL    HW2 8470   3.061   3.353   3.293 -1.8230  0.1119  1.1011
 2118SOL    HW3 8471   3.058   3.474   3.203  0.1602 -0.8240 -0.2475
 2118SOL    MW4 8472   3.043   3.437   3.280  0.0445  0.4114  0.3347
 2119SOL     OW 8473   0.383   0.116   3.367 -0.4010  0.0445  0.8323
 2119SOL    HW2 8474   0.390   0.127   3.462 -0.3433  0.9071  0.7354
 2119SOL    HW3 8475   0.418   0.029   3.350  0.7619  0.3734  1.4733
 2119SOL    MW4 8476   0.388   0.106   3.377 -0.2399  0.2017  0.9041
 2120SOL     OW 8477   4.455   4.176   3.667  0.1604 -0.0118  0.1794
 2120SOL    HW2 8478   4.398   4.197   3.741  0.8668 -0.4052  0.8397
 2120SOL    HW3 8479   4.396   4.144   3.599 -0.1881 -2.4858  1.6117
 2120SOL    MW4 8480   4.440   4.175   3.668  0.2076 -0.3901  0.4555
 2121SOL     OW 8481   3.140   0.340   3.249  0.2900  0.0164  0.1297
 2121SOL    HW2 8482   3.065   0.391   3.280 -0.7880 -1.7273  0.4400
 2121SOL    HW3 8483   3.123   0.327   3.155  0.1337 -0.5037  0.2299
 2121SOL    MW4 8484   3.128   0.345   3.240  0.1271 -0.2823  0.1839
 2122SOL     OW 8485   4.118   0.273   4.190  0.1855 -0.1221  0.1669
 2122SOL    HW2 8486   4.121   0.336   4.262  0.8607  1.0194 -0.8366
 2122SOL    HW3 8487   4.168   0.198   4.222  0.0931  0.1819  1.0548
 2122SOL    MW4 8488   4.125   0.272   4.204  0.2624  0.0686  0.1516
 2123SOL     OW 8489   2.421   3.635   3.694 -0.0089 -0.1899 -0.5165
 2123SOL    HW2 8490   2.362   3.561   3.709  0.4050 -0.5162 -0.4830
 2123SOL    HW3 8491   2.363   3.709   3.675 -0.4136 -0.5768 -0.7832
 2123SOL    MW4 8492   2.405   3.635   3.694 -0.0077 -0.2840 -0.5472
 2124SOL     OW 8493   3.183   4.454   4.148  0.3106  0.0517 -0.1714
 2124SOL    HW2 8494   3.249   4.466   4.079 -0.0650  1.7435 -0.2525
 2124SOL    HW3 8495   3.102   4.488   4.110 -0.4228 -1.1724  0.2666
 2124SOL    MW4 8496   3.181   4.460   4.134  0.1643  0.1134 -0.1243
 2125SOL     OW 8497   3.592   0.866   3.303 -0.8307 -0.0116 -0.1612
 2125SOL    HW2 8498   3.677   0.859   3.260 -1.1388  0.8757 -0.9244
 2125SOL    HW3 8499   3.606   0.827   3.390  0.1658 -0.5070 -0.5326
 2125SOL    MW4 8500   3.605   0.860   3.309 -0.7399  0.0401 -0.3109
 2126SOL     OW 8501   3.808   0.698   2.976 -0.4773  0.3103  0.3375
 2126SOL    HW2 8502   3.862   0.762   2.929 -0.9406  1.4038  1.2868
 2126SOL    HW3 8503   3.822   0.717   3.068 -1.3228 -0.3650  0.6135
 2126SOL    MW4 8504   3.817   0.709   2.982 -0.6500  0.3655  0.4992
 2127SOL     OW 8505   3.231   1.461   4.058 -0.3992  0.1000 -0.0835
 2127SOL    HW2 8506   3.162   1.395   4.051 -0.8158  0.3373  1.5965
 2127SOL    HW3 8507   3.311   1.411   4.075 -0.5438 -0.0331  0.1994
 2127SOL    MW4 8508   3.232   1.446   4.059 -0.4733  0.1137  0.1755
 2128SOL     OW 8509   3.591   1.138   3.264  0.2644 -0.0133  0.2159
 2128SOL    HW2 8510   3.560   1.130   3.174  0.1982  0.3022  0.2093
 2128SOL    HW3 8511   3.604   1.048   3.293  1.7736 -0.0852 -0.6131
 2128SOL    MW4 8512   3.588   1.125   3.256  0.4548  0.0188  0.1056
 2129SOL     OW 8513   2.630   1.594   4.371 -0.6851 -0.3206  0.1324
 2129SOL    HW2 8514   2.627   1.669   4.431 -1.0863 -0.2247 -0.0072
 2129SOL    HW3 8515   2.567   1.616   4.302  1.2660  0.5113 -1.4310
 2129SOL    MW4 8516   2.621   1.607   4.370 -0.4806 -0.1982 -0.0923
 2130SOL     OW 8517   3.818   1.553   3.260  0.3692 -0.5243 -0.2764
 2130SOL    HW2 8518   3.891   1.589   3.311 -0.2027  1.7671 -0.9974
 2130SOL    HW3 8519   3.807   1.464   3.294  1.8973 -0.0687  1.5434
 2130SOL    MW4 8520   3.827   1.546   3.271  0.4954 -0.1619 -0.1314
 2131SOL     OW 8521   0.005   2.454   3.572 -0.3527 -0.2434  0.5234
 2131SOL    HW2 8522  -0.035   2.381   3.617  2.0202 -2.1896 -0.4047
 2131SOL    HW3 8523   0.076   2.482   3.629 -1.0069  1.1228  0.6960
 2131SOL    MW4 8524   0.009   2.448   3.585 -0.1260 -0.3199  0.4238
 2132SOL     OW 8525   4.098   2.707   4.492 -0.4011  0.5201  0.1316
 2132SOL    HW2 8526   4.026   2.703   4.428  0.9090 -2.3527 -1.2986
 2132SOL    HW3 8527   4.068   2.653   4.565 -0.0911  0.0828 -0.0607
 2132SOL    MW4 8528   4.084   2.699   4.493 -0.1873  0.0834 -0.0824
 2133SOL     OW 8529   4.026   1.912   3.248 -0.4103 -0.2786  0.5235
 2133SOL    HW2 8530   4.054   1.897   3.157 -2.7153  0.5443 -0.3390
 2133SOL    HW3 8531   4.091   1.973   3.283 -0.9136  1.4121 -1.3774
 2133SOL    MW4 8532   4.039   1.918   3.241 -0.7808  0.0531  0.1589
 2134SOL     OW 8533   3.828   2.276   3.180 -0.2046 -0.0124  0.4932
 2134SOL    HW2 8534   3.905   2.322   3.212  0.0485 -0.6367  0.7926
 2134SOL    HW3 8535   3.830   2.191   3.225  0.4588 -1.1160 -1.5631
 2134SOL    MW4 8536   3.838   2.270   3.190 -0.0836 -0.2404  0.2614
 2135SOL     OW 8537   0.486   4.118   4.129  0.5207 -0.3872 -0.3014
 2135SOL    HW2 8538   0.408   4.130   4.075  0.6297 -1.1332 -0.6376
 2135SOL    HW3 8539   0.457   4.137   4.218  0.2555  0.5033 -0.5797
 2135SOL    MW4 8540   0.472   4.122   4.134  0.5001 -0.3681 -0.3825
 2136SOL     OW 8541   3.400   2.801   3.375  0.0293 -0.1744  0.4034
 2136SOL    HW2 8542   3.390   2.891   3.344 -0.6208 -0.7507 -1.0904
 2136SOL    HW3 8543   3.474   2.767   3.324 -0.1760 -0.7103  0.4711
 2136SOL    MW4 8544   3.409   2.809   3.364 -0.0836 -0.3211  0.2153
 2137SOL     OW 8545   0.454   0.606   3.996 -0.0837 -0.0976  0.5882
 2137SOL    HW2 8546   0.377   0.660   4.012  0.6333  1.2537 -0.3869
 2137SOL    HW3 8547   0.524   0.669   3.978  0.6515 -1.3751 -1.1437
 2137SOL    MW4 8548   0.453   0.621   3.996  0.1079 -0.0878  0.2310
 2138SOL     OW 8549   3.781   3.067   3.259  0.2754 -0.0610 -0.8864
 2138SOL    HW2 8550   3.801   3.052   3.167  1.2504 -0.6419 -0.5939
 2138SOL    HW3 8551   3.861   3.106   3.295  0.3663 -1.0129 -0.0206
 2138SOL    MW4 8552   3.794   3.070   3.252  0.4161 -0.2632 -0.7336
 2139SOL     OW 8553   4.355   2.427   3.924 -0.0780  0.4573 -0.1208
 2139SOL    HW2 8554   4.445   2.420   3.954  0.0058  0.4377 -0.3756
 2139SOL    HW3 8555   4.329   2.516   3.949 -0.8604 -0.4141  2.3290
 2139SOL    MW4 8556   4.363   2.438   3.931 -0.1702  0.3397  0.1688
 2140SOL     OW 8557   3.571   3.488   3.294 -0.4735 -0.1963  0.0533
 2140SOL    HW2 8558   3.566   3.399   3.330  1.1453 -0.2959  0.0432
 2140SOL    HW3 8559   3.571   3.476   3.199  0.1811 -0.2044  0.0562
 2140SOL    MW4 8560   3.570   3.475   3.286 -0.1736 -0.2105  0.0524
 2141SOL     OW 8561   4.213   3.565   3.366  0.5380  0.2655  0.7066
 2141SOL    HW2 8562   4.202   3.583   3.460  0.0549  0.7364  0.5597
 2141SOL    HW3 8563   4.252   3.644   3.330  1.6604 -0.2948  0.6847
 2141SOL    MW4 8564   4.216   3.577   3.374  0.6223  0.2537  0.6843
 2142SOL     OW 8565   4.266   1.609   4.323  0.5328 -0.1735 -0.2246
 2142SOL    HW2 8566   4.302   1.636   4.238 -0.0934  1.8807  0.1394
 2142SOL    HW3 8567   4.330   1.641   4.387  0.2128 -0.3328  0.1779
 2142SOL    MW4 8568   4.279   1.617   4.320  0.4079  0.0765 -0.1235
 2143SOL     OW 8569   3.300   3.563   3.403  0.4521  0.0730  0.1349
 2143SOL    HW2 8570   3.384   3.553   3.358  0.2649 -0.1238 -0.1693
 2143SOL    HW3 8571   3.240   3.506   3.356  0.1263  0.2721  0.3048
 2143SOL    MW4 8572   3.303   3.554   3.391  0.3844  0.0733  0.1172
 2144SOL     OW 8573   2.843   0.789   3.861  0.1409  0.4857 -0.3452
 2144SOL    HW2 8574   2.938   0.802   3.855  0.1703  0.8351  0.7146
 2144SOL    HW3 8575   2.814   0.854   3.925 -0.8242  0.4012 -0.6896
 2144SOL    MW4 8576   2.852   0.799   3.869  0.0174  0.5206 -0.2508
 2145SOL     OW 8577   3.982   0.209   3.431  0.9562 -0.2691  0.0198
 2145SOL    HW2 8578   3.992   0.177   3.521  2.7711 -1.3283 -0.5464
 2145SOL    HW3 8579   4.001   0.133   3.376  1.3226  0.7551 -1.2915
 2145SOL    MW4 8580   3.986   0.195   3.436  1.2440 -0.2737 -0.2279
 2146SOL     OW 8581   2.609   0.632   4.142  0.0761 -0.6185  0.1850
 2146SOL    HW2 8582   2.662   0.570   4.092 -0.5776 -0.9089 -0.1440
 2146SOL    HW3 8583   2.570   0.689   4.076 -0.0382 -0.4098  0.4316
 2146SOL    MW4 8584   2.611   0.631   4.127 -0.0252 -0.6293  0.1742
 2147SOL     OW 8585   3.172   0.010   3.798 -0.3555  0.1686 -0.2061
 2147SOL    HW2 8586   3.212   0.060   3.870 -2.0438  1.4271 -0.1086
 2147SOL    HW3 8587   3.103  -0.040   3.840 -1.0228  0.5266 -0.8652
 2147SOL    MW4 8588   3.168   0.010   3.813 -0.6663  0.3819 -0.2802
 2148SOL     OW 8589   1.118   1.811   3.980 -0.1126 -0.1104  0.0617
 2148SOL    HW2 8590   1.107   1.811   3.885  0.5117  0.8979 -0.0193
 2148SOL    HW3 8591   1.072   1.890   4.009  2.9871  1.7690  0.1604
 2148SOL    MW4 8592   1.111   1.822   3.971  0.3788  0.2706  0.0640
 2149SOL     OW 8593   0.910   3.348   3.694 -0.1102  0.1508  0.5455
 2149SOL    HW2 8594   0.977   3.304   3.745 -0.6749 -1.1908  0.1768
 2149SOL    HW3 8595   0.900   3.293   3.616 -1.6778  0.2740  0.6400
 2149SOL    MW4 8596   0.917   3.335   3.690 -0.3915 -0.0100  0.5094
 2150SOL     OW 8597   0.006   0.871   3.427  0.4187 -0.1968 -0.1362
 2150SOL    HW2 8598  -0.066   0.841   3.372 -0.8489 -0.5936  1.6820
 2150SOL    HW3 8599   0.036   0.952   3.386 -1.5883  0.3977 -0.4800
 2150SOL    MW4 8600   0.000   0.878   3.414 -0.0133 -0.1707  0.0584
 2151SOL     OW 8601   4.293   0.792   3.244  0.3445  0.3491 -0.1774
 2151SOL    HW2 8602   4.297   0.700   3.266  0.2490  0.2452 -0.5831
 2151SOL    HW3 8603   4.275   0.794   3.150 -0.6452  0.7742  0.0056
 2151SOL    MW4 8604   4.291   0.780   3.234  0.2013  0.3915 -0.2068
 2152SOL     OW 8605   4.031   1.150   3.277  0.2616  0.0070 -0.4204
 2152SOL    HW2 8606   4.017   1.062   3.313 -2.7699  0.9574  0.9086
 2152SOL    HW3 8607   4.116   1.178   3.314  0.5715 -1.7986  0.2680
 2152SOL    MW4 8608   4.041   1.142   3.287 -0.0975 -0.1059 -0.1543
 2153SOL     OW 8609   4.313   1.244   3.388 -0.4861  0.3516 -0.3595
 2153SOL    HW2 8610   4.307   1.332   3.349  0.5931  0.3672 -0.5176
 2153SOL    HW3 8611   4.389   1.205   3.346 -1.6651 -1.1262 -1.1724
 2153SOL    MW4 8612   4.322   1.251   3.377 -0.4993  0.1587 -0.4876
 2154SOL     OW 8613   4.234   1.463   3.223  0.3066  0.0167  0.0580
 2154SOL    HW2 8614   4.262   1.505   3.141  1.2195 -1.5382 -0.4390
 2154SOL    HW3 8615   4.161   1.517   3.253 -1.4693 -0.5821 -2.9005
 2154SOL    MW4 8616   4.228   1.476   3.216  0.1927 -0.2675 -0.3979
 2155SOL     OW 8617   3.030   1.270   3.991 -0.1567  0.1899 -0.0489
 2155SOL    HW2 8618   2.956   1.268   4.052 -0.1353  2.0901  0.0524
 2155SOL    HW3 8619   3.090   1.203   4.025 -0.3398  0.9299  1.7697
 2155SOL    MW4 8620   3.028   1.261   4.004 -0.1781  0.5383  0.2044
 2156SOL     OW 8621   4.062   1.658   3.353 -0.4663  0.2031  0.4065
 2156SOL    HW2 8622   4.051   1.748   3.322 -0.5098 -0.0811 -0.4081
 2156SOL    HW3 8623   4.105   1.667   3.438  2.1390  0.8868 -0.9336
 2156SOL    MW4 8624   4.066   1.671   3.360 -0.1283  0.2558  0.1222
 2157SOL     OW 8625   4.258   2.055   3.314 -0.2655  0.1875  0.4905
 2157SOL    HW2 8626   4.342   2.008   3.315 -0.0879  0.4849 -0.3864
 2157SOL    HW3 8627   4.283   2.146   3.299 -0.7471  0.2923  0.3465
 2157SOL    MW4 8628   4.272   2.061   3.312 -0.3056  0.2406  0.3558
 2158SOL     OW 8629   4.295   2.304   3.249  0.4129 -0.6068  0.2269
 2158SOL    HW2 8630   4.289   2.304   3.153  0.7035  1.2101  0.1968
 2158SOL    HW3 8631   4.385   2.333   3.267 -0.4320  1.5967  1.0628
 2158SOL    MW4 8632   4.306   2.308   3.239  0.3397 -0.0763  0.3332
 2159SOL     OW 8633   3.910   1.443   3.760  0.5458 -0.6595 -0.1406
 2159SOL    HW2 8634   3.910   1.378   3.689 -0.3425 -0.0281 -0.7394
 2159SOL    HW3 8635   3.817   1.457   3.779  0.7549 -0.1848  0.5631
 2159SOL    MW4 8636   3.898   1.436   3.753  0.4562 -0.5135 -0.1268
 2160SOL     OW 8637   4.067   2.630   3.214 -0.4508 -0.3944 -0.0081
 2160SOL    HW2 8638   4.046   2.546   3.254 -0.9530 -1.4830 -2.4526
 2160SOL    HW3 8639   3.996   2.688   3.241 -0.3726 -0.8803  1.2675
 2160SOL    MW4 8640   4.055   2.626   3.222 -0.5067 -0.6021 -0.1623
 2161SOL     OW 8641   4.037   2.373   3.335 -0.4505  0.2473 -0.5003
 2161SOL    HW2 8642   4.044   2.419   3.419 -1.6283 -0.2960 -0.0983
 2161SOL    HW3 8643   4.127   2.350   3.313 -0.1232  0.4865  0.5596
 2161SOL    MW4 8644   4.049   2.376   3.343 -0.5628  0.2072 -0.3075
 2162SOL     OW 8645   4.261   3.066   3.258  0.0022  0.0250  0.1593
 2162SOL    HW2 8646   4.180   3.109   3.284  0.2396  0.7580 -0.2868
 2162SOL    HW3 8647   4.264   3.076   3.162  0.2932 -0.5688  0.1037
 2162SOL    MW4 8648   4.251   3.073   3.248  0.0719  0.0433  0.0931
 2163SOL     OW 8649   4.014   3.439   3.231  0.1294  0.4674 -0.0150
 2163SOL    HW2 8650   3.955   3.508   3.262  0.8811  1.5572 -0.9531
 2163SOL    HW3 8651   4.101   3.469   3.257  0.5540  0.3476 -1.2816
 2163SOL    MW4 8652   4.018   3.452   3.238  0.2846  0.5954 -0.3059
 2164SOL     OW 8653   4.041   3.466   2.957  0.1182  0.4861 -0.3027
 2164SOL    HW2 8654   4.022   3.455   3.051  0.5942  1.8177 -0.0430
 2164SOL    HW3 8655   3.969   3.520   2.925 -0.3383 -0.4252 -0.8332
 2164SOL    MW4 8656   4.029   3.472   2.965  0.1207  0.5416 -0.3384
 2165SOL     OW 8657   4.322   3.817   3.293 -0.4175  0.0786 -0.0615
 2165SOL    HW2 8658   4.289   3.881   3.356  0.9166 -0.3908  1.1535
 2165SOL    HW3 8659   4.293   3.850   3.208 -1.1101  1.4458  0.6811
 2165SOL    MW4 8660   4.314   3.830   3.290 -0.3328  0.1970  0.1968
 2166SOL     OW 8661   3.056   1.937   4.303  0.2649 -0.0635  0.3235
 2166SOL    HW2 8662   2.965   1.963   4.299  0.9596  2.3243 -0.5191
 2166SOL    HW3 8663   3.087   1.942   4.213  1.8808  1.6270  0.9340
 2166SOL    MW4 8664   3.048   1.941   4.291  0.5697  0.4746  0.2929
 2167SOL     OW 8665   0.249   1.257   3.364 -0.2372  0.5058  0.5333
 2167SOL    HW2 8666   0.230   1.339   3.318 -0.2492  0.4666  0.4679
 2167SOL    HW3 8667   0.331   1.227   3.326 -0.2532  0.4668  0.5301
 2167SOL    MW4 8668   0.257   1.264   3.353 -0.2409  0.4955  0.5243
 2168SOL     OW 8669   3.512   4.204   3.551 -0.0660 -0.6944  0.4668
 2168SOL    HW2 8670   3.512   4.258   3.472  0.8731 -2.6850 -0.9431
 2168SOL    HW3 8671   3.586   4.236   3.603 -0.7982  0.7405  0.6466
 2168SOL    MW4 8672   3.522   4.215   3.548 -0.0387 -0.7677  0.3045
 2169SOL     OW 8673   0.891   0.328   3.292  0.0818  0.3585 -0.2260
 2169SOL    HW2 8674   0.813   0.376   3.320 -0.7538 -1.1570  0.0548
 2169SOL    HW3 8675   0.890   0.247   3.343  1.2625 -0.1533 -0.9870
 2169SOL    MW4 8676   0.881   0.324   3.302  0.1273  0.0910 -0.2894
 2170SOL     OW 8677   4.198   4.478   4.265  0.3634 -0.1069  0.8497
 2170SOL    HW2 8678   4.155   4.447   4.344 -1.9702 -0.3411 -0.4865
 2170SOL    HW3 8679   4.213   4.571   4.280 -1.9462  0.2933  0.7490
 2170SOL    MW4 8680   4.195   4.486   4.278 -0.2492 -0.0850  0.6601
 2171SOL     OW 8681   3.313   2.094   4.358  0.3028  0.2517 -0.0068
 2171SOL    HW2 8682   3.257   2.017   4.367  1.1929 -0.7246 -2.4950
 2171SOL    HW3 8683   3.254   2.164   4.333 -0.2395 -0.0673  0.3698
 2171SOL    MW4 8684   3.298   2.093   4.356  0.3487  0.0808 -0.2854
 2172SOL     OW 8685   3.904   4.599   4.513  0.1954 -0.0487 -0.3601
 2172SOL    HW2 8686   3.879   4.604   4.421  0.2109 -1.0164 -0.4226
 2172SOL    HW3 8687   3.976   4.536   4.514 -0.6756 -1.0557  0.4796
 2172SOL    MW4 8688   3.910   4.591   4.501  0.0825 -0.3092 -0.2576
 2173SOL     OW 8689   3.489   1.936   4.212 -0.2289 -0.1106 -0.1746
 2173SOL    HW2 8690   3.433   2.006   4.245  0.0326 -0.4910  1.1215
 2173SOL    HW3 8691   3.433   1.859   4.212 -0.0353 -0.2505  0.0084
 2173SOL    MW4 8692   3.474   1.935   4.217 -0.1689 -0.1792  0.0205
 2174SOL     OW 8693   0.227   2.055   3.422 -0.3243 -0.1178 -0.1218
 2174SOL    HW2 8694   0.239   2.137   3.374 -0.0249  0.6673  1.2895
 2174SOL    HW3 8695   0.154   2.012   3.377  0.6803  0.0752 -1.9945
 2174SOL    MW4 8696   0.219   2.060   3.409 -0.1522  0.0113 -0.1827
 2175SOL     OW 8697   0.418   1.651   3.662  0.2386 -0.0450  0.1066
 2175SOL    HW2 8698   0.323   1.653   3.677 -0.1497  0.6651 -2.3407
 2175SOL    HW3 8699   0.451   1.725   3.713 -0.5635 -0.0252  0.6243
 2175SOL    MW4 8700   0.410   1.661   3.671  0.0816  0.0513 -0.1480
 2176SOL     OW 8701   0.586   3.842   4.158 -0.1154 -0.2035 -0.1753
 2176SOL    HW2 8702   0.503   3.804   4.187  0.9367 -0.5983  2.4733
 2176SOL    HW3 8703   0.564   3.932   4.132 -1.0527  0.3481  2.3882
 2176SOL    MW4 8704   0.572   3.849   4.158 -0.1003 -0.1828  0.5124
 2177SOL     OW 8705   0.894   3.590   4.273 -0.3318  0.4964  0.7576
 2177SOL    HW2 8706   0.807   3.597   4.313 -0.3843  1.6474  0.4628
 2177SOL    HW3 8707   0.886   3.636   4.190  0.3413 -0.1068  0.3505
 2177SOL    MW4 8708   0.882   3.597   4.267 -0.2499  0.5686  0.6650
 2178SOL     OW 8709   3.306   4.181   4.193  0.1400 -0.1166 -0.3906
 2178SOL    HW2 8710   3.281   4.132   4.115 -0.0257 -1.2125  0.3448
 2178SOL    HW3 8711   3.271   4.269   4.178 -0.1447 -0.4000 -1.4209
 2178SOL    MW4 8712   3.298   4.186   4.180  0.0805 -0.2986 -0.4295
 2179SOL     OW 8713   3.862   1.643   4.186 -0.3722  0.5086  0.4562
 2179SOL    HW2 8714   3.926   1.652   4.115 -0.4489  1.1065  0.4553
 2179SOL    HW3 8715   3.780   1.675   4.148 -0.6446 -0.1345  0.4980
 2179SOL    MW4 8716   3.860   1.649   4.172 -0.4182  0.5026  0.4616
 2180SOL     OW 8717   3.088   3.918   4.059 -0.9082  0.0472  0.5814
 2180SOL    HW2 8718   3.150   3.940   3.989 -0.0235 -0.2499  1.2660
 2180SOL    HW3 8719   3.013   3.880   4.013 -0.1862 -0.4814 -0.1836
 2180SOL    MW4 8720   3.086   3.916   4.043 -0.6962 -0.0617  0.5708
 2181SOL     OW 8721   0.896   0.982   4.353 -0.2728  0.2988  0.4143
 2181SOL    HW2 8722   0.877   0.946   4.440  2.0690 -0.9471  0.4372
 2181SOL    HW3 8723   0.942   1.064   4.371 -0.0125  0.1663  0.3508
 2181SOL    MW4 8724   0.899   0.988   4.367  0.0705  0.1169  0.4090
 2182SOL     OW 8725   3.964   0.316   3.764  0.2065 -0.0484  0.2418
 2182SOL    HW2 8726   4.056   0.315   3.740  0.2652  0.3851  0.4313
 2182SOL    HW3 8727   3.931   0.229   3.741  0.8672 -0.5062  0.9895
 2182SOL    MW4 8728   3.972   0.305   3.758  0.3014 -0.0516  0.3654
 2183SOL     OW 8729   1.282   3.450   4.514  0.2911 -0.1450 -0.4296
 2183SOL    HW2 8730   1.256   3.538   4.486  0.2095  0.9547  2.8674
 2183SOL    HW3 8731   1.377   3.449   4.505  0.5053  1.0380  1.4114
 2183SOL    MW4 8732   1.291   3.462   4.509  0.3086  0.1562  0.2483
 2184SOL     OW 8733   0.574   0.747   4.221  0.2340  0.3129  0.4577
 2184SOL    HW2 8734   0.599   0.764   4.130 -0.8101 -1.6159 -0.2172
 2184SOL    HW3 8735   0.640   0.792   4.273  1.0973  1.0637 -1.2615
 2184SOL    MW4 8736   0.586   0.755   4.216  0.2102  0.1575  0.1418
 2185SOL     OW 8737   3.296   0.929   3.640  0.1686  0.1854 -0.1996
 2185SOL    HW2 8738   3.370   0.877   3.610  0.5450 -0.4735  1.7337
 2185SOL    HW3 8739   3.328   1.019   3.643  0.3816  0.1301 -0.9428
 2185SOL    MW4 8740   3.310   0.934   3.637  0.2464  0.0912 -0.0426
 2186SOL     OW 8741   3.920   0.750   3.826  0.3848 -0.0262  0.3046
 2186SOL    HW2 8742   3.904   0.678   3.766  1.1057  0.1197 -0.0644
 2186SOL    HW3 8743   3.959   0.710   3.903  1.6885  0.0931 -0.2913
 2186SOL    MW4 8744   3.923   0.735   3.828  0.6519  0.0088  0.1773
 2187SOL     OW 8745   3.691   3.155   4.323 -0.0029  0.3633  0.0467
 2187SOL    HW2 8746   3.648   3.074   4.349 -1.1070  1.0671  0.4227
 2187SOL    HW3 8747   3.635   3.192   4.255  0.5016  0.7954 -0.1387
 2187SOL    MW4 8748   3.678   3.149   4.318 -0.0820  0.5132  0.0719
 2188SOL     OW 8749   2.029   3.106   4.493  0.2660  0.1344 -0.2076
 2188SOL    HW2 8750   2.102   3.101   4.555  0.3374  1.4264 -0.1868
 2188SOL    HW3 8751   1.992   3.017   4.493  1.1797 -0.2545  0.5702
 2188SOL    MW4 8752   2.034   3.093   4.501  0.3960  0.2535 -0.1022
 2189SOL     OW 8753   1.807   3.255   4.447  0.5816 -0.3684  0.4568
 2189SOL    HW2 8754   1.878   3.207   4.489  0.5958 -0.2437  0.5745
 2189SOL    HW3 8755   1.803   3.219   4.359  0.6001 -0.5793  0.5413
 2189SOL    MW4 8756   1.816   3.244   4.441  0.5859 -0.3798  0.4835
 2190SOL     OW 8757   2.702   3.276   3.617 -0.7309  0.0906 -0.4749
 2190SOL    HW2 8758   2.705   3.252   3.524  1.7581 -1.2205 -0.0685
 2190SOL    HW3 8759   2.791   3.264   3.649 -1.5440  0.5425  2.1162
 2190SOL    MW4 8760   2.714   3.271   3.609 -0.5098 -0.0227 -0.0794
 2191SOL     OW 8761   2.583   1.509   3.911  0.1955 -0.4914  0.1187
 2191SOL    HW2 8762   2.671   1.538   3.935 -0.2165  0.9665 -0.1163
 2191SOL    HW3 8763   2.595   1.462   3.829  0.7760 -0.4593  0.1837
 2191SOL    MW4 8764   2.596   1.507   3.904  0.2177 -0.2948  0.0963
 2192SOL     OW 8765   1.907   2.781   4.088  0.3995 -0.0617 -0.3842
 2192SOL    HW2 8766   1.857   2.793   4.169 -0.8071  1.3593 -1.3052
 2192SOL    HW3 8767   1.896   2.688   4.067 -1.3452  0.0896 -0.2366
 2192SOL    MW4 8768   1.899   2.770   4.096  0.0101  0.1458 -0.4862
 2193SOL     OW 8769   1.117   2.784   4.399 -0.5491  0.0022 -0.1292
 2193SOL    HW2 8770   1.177   2.768   4.326 -1.6054  0.2452 -1.0620
 2193SOL    HW3 8771   1.159   2.852   4.450  0.2070 -0.1727 -0.5142
 2193SOL    MW4 8772   1.130   2.791   4.396 -0.5887  0.0112 -0.3031
 2194SOL     OW 8773   0.411   1.605   3.361  0.4448 -0.1381 -0.0665
 2194SOL    HW2 8774   0.424   1.613   3.455 -0.5797  0.0744  0.0561
 2194SOL    HW3 8775   0.405   1.695   3.329  1.0423 -0.2009 -0.3799
 2194SOL    MW4 8776   0.412   1.618   3.369  0.3885 -0.1183 -0.0917
 2195SOL     OW 8777   3.600   1.685   3.311 -0.0882  0.1735 -0.3288
 2195SOL    HW2 8778   3.677   1.636   3.285 -0.4228 -0.6544  0.2317
 2195SOL    HW3 8779   3.613   1.705   3.404 -0.4292  0.2380 -0.2919
 2195SOL    MW4 8780   3.612   1.682   3.320 -0.1773  0.0728 -0.2500
 2196SOL     OW 8781   1.389   2.894   3.962  0.8340  0.0749 -0.0800
 2196SOL    HW2 8782   1.464   2.862   3.911  0.0727 -2.5491  0.3629
 2196SOL    HW3 8783   1.326   2.924   3.897  1.0378 -0.5687 -0.5748
 2196SOL    MW4 8784   1.391   2.893   3.947  0.7605 -0.3562 -0.0868
 2197SOL     OW 8785   2.150   3.272   3.983  0.0827 -0.0141  0.2743
 2197SOL    HW2 8786   2.115   3.230   4.062 -0.4050  0.9154  0.5597
 2197SOL    HW3 8787   2.228   3.220   3.961  0.1768 -0.3312  1.3128
 2197SOL    MW4 8788   2.156   3.259   3.991  0.0308  0.0667  0.4490
 2198SOL     OW 8789   0.558   1.419   3.688  0.0503  0.2406 -0.3160
 2198SOL    HW2 8790   0.505   1.499   3.689  0.5701  0.5771  1.4902
 2198SOL    HW3 8791   0.554   1.387   3.778  2.3274 -0.1083 -0.3275
 2198SOL    MW4 8792   0.550   1.426   3.700  0.4193  0.2390 -0.0793
 2199SOL     OW 8793   3.121   3.249   4.084 -0.2293  0.2204  0.1826
 2199SOL    HW2 8794   3.208   3.211   4.072  0.7588  2.2261  0.7308
 2199SOL    HW3 8795   3.122   3.327   4.029 -1.6457  0.3236  0.3072
 2199SOL    MW4 8796   3.133   3.254   4.075 -0.2858  0.4987  0.2714
 2200SOL     OW 8797   3.292   0.833   4.062  0.0653 -0.1095 -0.2791
 2200SOL    HW2 8798   3.248   0.838   3.978 -0.1962  1.0208 -0.0881
 2200SOL    HW3 8799   3.384   0.815   4.040 -0.3164 -1.5734 -0.7120
 2200SOL    MW4 8800   3.299   0.831   4.048 -0.0196 -0.1535 -0.3110
 2201SOL     OW 8801   2.020   1.218   3.662  0.0130  0.4673 -0.1368
 2201SOL    HW2 8802   2.103   1.195   3.703 -1.4024 -1.9253  1.5257
 2201SOL    HW3 8803   1.998   1.303   3.698  0.9812  0.3952  0.6312
 2201SOL    MW4 8804   2.028   1.226   3.672 -0.0460  0.1421  0.1839
 2202SOL     OW 8805   1.566   3.102   4.129  0.6722 -0.0434  0.4570
 2202SOL    HW2 8806   1.499   3.157   4.169  0.8993  0.6024 -0.0436
 2202SOL    HW3 8807   1.518   3.044   4.070  0.6941  1.4501 -1.0583
 2202SOL    MW4 8808   1.551   3.102   4.126  0.7050  0.2389  0.1911
 2203SOL     OW 8809   3.334   1.904   3.651 -0.0351  0.2822  0.1949
 2203SOL    HW2 8810   3.252   1.857   3.637 -0.4841  0.8909  0.7106
 2203SOL    HW3 8811   3.360   1.933   3.564 -0.3545  0.0549  0.0213
 2203SOL    MW4 8812   3.326   1.902   3.638 -0.1365  0.3325  0.2400
 2204SOL     OW 8813   1.653   3.894   4.347 -0.0157 -0.7429  0.1644
 2204SOL    HW2 8814   1.678   3.954   4.417  0.3488 -1.3532  0.5612
 2204SOL    HW3 8815   1.717   3.910   4.278 -0.6548  0.1954 -0.2358
 2204SOL    MW4 8816   1.665   3.904   4.347 -0.0520 -0.6996  0.1639
 2205SOL     OW 8817   1.366   3.259   4.216  0.8903 -0.0150 -0.1738
 2205SOL    HW2 8818   1.391   3.351   4.226 -1.4326  0.8910 -2.3093
 2205SOL    HW3 8819   1.306   3.242   4.288 -1.3801  1.1693 -1.7474
 2205SOL    MW4 8820   1.361   3.269   4.227  0.2842  0.2608 -0.6631
 2206SOL     OW 8821   2.291   2.848   4.488  0.2920 -0.2830  0.3178
 2206SOL    HW2 8822   2.265   2.914   4.552  0.0750 -0.0783  0.0198
 2206SOL    HW3 8823   2.339   2.896   4.421 -3.0628  0.2058 -1.8161
 2206SOL    MW4 8824   2.294   2.863   4.487 -0.1792 -0.1915 -0.0030
 2207SOL     OW 8825   2.224   2.630   4.331 -0.1127  0.0799  0.1466
 2207SOL    HW2 8826   2.307   2.582   4.340  1.5373  2.4269 -1.7883
 2207SOL    HW3 8827   2.232   2.701   4.395  0.1014  1.2401 -1.1427
 2207SOL    MW4 8828   2.236   2.633   4.341  0.1333  0.5427 -0.2788
 2208SOL     OW 8829   2.803   4.360   3.302  0.0856  0.0255  0.1226
 2208SOL    HW2 8830   2.860   4.436   3.294  0.5085 -0.1211  1.5421
 2208SOL    HW3 8831   2.731   4.378   3.242  0.1580  1.5624  0.4704
 2208SOL    MW4 8832   2.801   4.373   3.293  0.1510  0.2089  0.3558
 2209SOL     OW 8833   0.662   2.824   3.333  0.0240 -0.2336  0.5506
 2209SOL    HW2 8834   0.746   2.783   3.311  1.1287  2.5925 -0.7802
 2209SOL    HW3 8835   0.678   2.865   3.418 -0.0347  0.2101  0.3483
 2209SOL    MW4 8836   0.675   2.824   3.342  0.1620  0.1978  0.3483
 2210SOL     OW 8837   3.521   1.310   3.823  0.1318 -0.2469  0.4303
 2210SOL    HW2 8838   3.463   1.272   3.757  0.3192  0.7063 -0.3014
 2210SOL    HW3 8839   3.478   1.292   3.907 -0.0779 -1.5263  0.0641
 2210SOL    MW4 8840   3.508   1.302   3.825  0.1288 -0.2899  0.2855
 2211SOL     OW 8841   4.395   0.919   4.416  0.1872  0.1511 -0.3130
 2211SOL    HW2 8842   4.478   0.938   4.458  1.0945 -1.0049 -1.5123
 2211SOL    HW3 8843   4.381   0.992   4.355 -0.0258  0.6976  0.3910
 2211SOL    MW4 8844   4.404   0.931   4.413  0.2788  0.0707 -0.3783
 2212SOL     OW 8845   1.949   3.611   3.394  0.1864  0.3632 -0.1865
 2212SOL    HW2 8846   1.912   3.524   3.380 -0.1620  0.4714  0.0584
 2212SOL    HW3 8847   2.042   3.602   3.370  0.3177 -0.2601  0.5494
 2212SOL    MW4 8848   1.957   3.598   3.389  0.1578  0.2952 -0.0571
 2213SOL     OW 8849   0.204   0.194   4.484 -0.3821  0.1193  0.6454
 2213SOL    HW2 8850   0.288   0.185   4.530  0.1435  1.4469 -0.0321
 2213SOL    HW3 8851   0.195   0.112   4.435 -0.6192 -1.0249  2.5292
 2213SOL    MW4 8852   0.214   0.182   4.484 -0.3441  0.1435  0.8045
 2214SOL     OW 8853   3.941   3.403   3.744 -0.2159  0.1190 -0.1453
 2214SOL    HW2 8854   3.971   3.413   3.834 -2.5891  1.5245  0.5420
 2214SOL    HW3 8855   3.983   3.323   3.713  1.7241  0.3710  1.7300
 2214SOL    MW4 8856   3.950   3.394   3.752 -0.2731  0.3377  0.1928
 2215SOL     OW 8857   4.364   1.660   4.075 -0.5019 -0.2859 -0.7634
 2215SOL    HW2 8858   4.422   1.731   4.049  0.7682 -0.5653  1.2163
 2215SOL    HW3 8859   4.417   1.581   4.064 -0.6565 -0.5847  0.5986
 2215SOL    MW4 8860   4.379   1.659   4.070 -0.3547 -0.3622 -0.3225
 2216SOL     OW 8861   1.982   4.304   4.088 -0.7102  0.0888  0.1099
 2216SOL    HW2 8862   2.074   4.286   4.069 -0.8385  1.2834 -1.7371
 2216SOL    HW3 8863   1.949   4.223   4.126  1.3931  0.0190  1.8747
 2216SOL    MW4 8864   1.990   4.291   4.091 -0.4496  0.2372  0.0991
 2217SOL     OW 8865   3.345   3.986   3.297  0.1123  0.0365 -0.1892
 2217SOL    HW2 8866   3.271   3.935   3.328 -0.2839 -1.5090 -3.4929
 2217SOL    HW3 8867   3.414   3.970   3.361 -1.4911 -0.8345  1.3439
 2217SOL    MW4 8868   3.345   3.977   3.310 -0.1515 -0.2823 -0.4228
 2218SOL     OW 8869   2.712   1.145   3.265 -0.6793 -0.1561  0.0363
 2218SOL    HW2 8870   2.714   1.168   3.172 -1.6059  1.6127  0.4304
 2218SOL    HW3 8871   2.637   1.193   3.300 -0.1758 -0.5877  1.7580
 2218SOL    MW4 8872   2.702   1.154   3.257 -0.7351  0.0204  0.3154
 2219SOL     OW 8873   0.176   0.902   4.534  0.0492  0.0375 -0.0267
 2219SOL    HW2 8874   0.178   0.832   4.468  0.2848 -0.3307  0.3736
 2219SOL    HW3 8875   0.253   0.956   4.513  0.2822 -0.2365  0.1172
 2219SOL    MW4 8876   0.187   0.900   4.522  0.1111 -0.0472  0.0451
 2220SOL     OW 8877   4.032   0.614   4.043 -0.0203  0.1131  0.3003
 2220SOL    HW2 8878   4.032   0.646   4.133 -0.3237 -0.3436  0.4600
 2220SOL    HW3 8879   3.987   0.530   4.047  0.3911 -0.1296 -0.2001
 2220SOL    MW4 8880   4.026   0.607   4.055 -0.0060  0.0208  0.2554
 2221SOL     OW 8881   3.853   0.201   4.187  0.0340 -0.2809  0.0862
 2221SOL    HW2 8882   3.841   0.108   4.202 -0.1164  0.1422  2.8671
 2221SOL    HW3 8883   3.947   0.216   4.201 -0.2305  0.2434  1.4357
 2221SOL    MW4 8884   3.864   0.191   4.191 -0.0207 -0.1559  0.6311
 2222SOL     OW 8885   2.400   0.023   4.059 -0.0575 -0.1449 -0.6001
 2222SOL    HW2 8886   2.419   0.113   4.083  1.0526 -0.4395 -0.3516
 2222SOL    HW3 8887   2.311   0.008   4.093  0.8728 -0.0758  2.0319
 2222SOL    MW4 8888   2.390   0.033   4.067  0.2117 -0.1746 -0.2200
 2223SOL     OW 8889   1.360   0.826   3.410 -0.3219 -0.0287  0.4299
 2223SOL    HW2 8890   1.409   0.758   3.363  0.1101  1.0643 -0.7179
 2223SOL    HW3 8891   1.268   0.801   3.398 -0.2134  0.2114 -0.9655
 2223SOL    MW4 8892   1.354   0.813   3.402 -0.2506  0.1472  0.0943
 2224SOL     OW 8893   0.208   2.824   3.362 -0.6595 -0.2192 -0.1917
 2224SOL    HW2 8894   0.212   2.914   3.332  0.1773 -0.4301 -0.7423
 2224SOL    HW3 8895   0.290   2.785   3.333 -0.9302 -1.1119  0.1974
 2224SOL    MW4 8896   0.219   2.830   3.355 -0.5848 -0.3648 -0.2130
 2225SOL     OW 8897   1.764   1.408   4.669 -0.0676 -0.6552  0.0727
 2225SOL    HW2 8898   1.747   1.494   4.706  1.5119  0.4909 -1.7402
 2225SOL    HW3 8899   1.838   1.374   4.719 -1.0293 -1.1967  1.1378
 2225SOL    MW4 8900   1.771   1.415   4.680  0.0139 -0.5754 -0.0260
 2226SOL     OW 8901   2.616   4.073   3.971 -0.3881 -0.5715  0.1234
 2226SOL    HW2 8902   2.705   4.040   3.986 -0.8507 -1.6679  0.4520
 2226SOL    HW3 8903   2.627   4.138   3.901  1.0042  0.8523  1.6097
 2226SOL    MW4 8904   2.630   4.077   3.964 -0.2654 -0.5283  0.3628
 2227SOL     OW 8905   1.738   0.275   4.396 -0.6540  0.3684 -0.0252
 2227SOL    HW2 8906   1.752   0.194   4.347  1.5440 -0.0383  1.2288
 2227SOL    HW3 8907   1.642   0.281   4.403 -0.8697 -2.1792 -0.0383
 2227SOL    MW4 8908   1.727   0.265   4.391 -0.3925 -0.0214  0.1385
 2228SOL     OW 8909   0.211   0.615   4.368  0.4429 -0.0513 -0.5930
 2228SOL    HW2 8910   0.220   0.520   4.356 -1.0725 -0.3887  0.7074
 2228SOL    HW3 8911   0.282   0.638   4.427 -0.1500 -0.6852  0.3945
 2228SOL    MW4 8912   0.221   0.605   4.375  0.1647 -0.1795 -0.2911
 2229SOL     OW 8913   3.112   0.401   3.995 -0.2265  0.3356  0.4189
 2229SOL    HW2 8914   3.108   0.448   3.911 -0.5278 -1.1170 -0.3976
 2229SOL    HW3 8915   3.154   0.463   4.055  0.6620  1.1173 -0.9844
 2229SOL    MW4 8916   3.117   0.416   3.992 -0.1490  0.2471  0.1260
 2230SOL     OW 8917   1.569   0.690   3.245  0.1858 -0.1111 -0.2362
 2230SOL    HW2 8918   1.630   0.741   3.298  0.3441 -0.6213  0.0747
 2230SOL    HW3 8919   1.559   0.607   3.293  1.8386 -1.3634 -1.9800
 2230SOL    MW4 8920   1.575   0.685   3.258  0.4248 -0.3436 -0.4252
 2231SOL     OW 8921   2.236   4.268   3.931 -0.4131 -0.1177  0.0692
 2231SOL    HW2 8922   2.219   4.181   3.895  1.8443 -0.7536  0.5034
 2231SOL    HW3 8923   2.310   4.256   3.990  0.0747  2.1518 -0.0237
 2231SOL    MW4 8924   2.243   4.255   3.934 -0.0509  0.0978  0.1142
 2232SOL     OW 8925   1.827   1.774   4.063  0.3824  0.3090 -0.5000
 2232SOL    HW2 8926   1.800   1.773   4.155  1.4907  0.9098 -0.1607
 2232SOL    HW3 8927   1.750   1.742   4.016 -1.0442  2.2539  0.4195
 2232SOL    MW4 8928   1.813   1.770   4.069  0.3404  0.6449 -0.3339
 2233SOL     OW 8929   1.681   2.030   3.629  0.0521  0.0214 -0.1311
 2233SOL    HW2 8930   1.643   2.062   3.547 -1.2178 -1.8162 -0.2784
 2233SOL    HW3 8931   1.609   1.987   3.674  0.8450  0.6379  1.7810
 2233SOL    MW4 8932   1.666   2.029   3.624 -0.0108 -0.1397  0.1017
 2234SOL     OW 8933   3.780   1.801   3.942  0.3693  0.2796 -0.3156
 2234SOL    HW2 8934   3.727   1.736   3.895 -0.0088 -0.3787  1.0025
 2234SOL    HW3 8935   3.716   1.862   3.979  0.7197  1.4045 -1.5095
 2234SOL    MW4 8936   3.765   1.801   3.940  0.3657  0.3412 -0.2992
 2235SOL     OW 8937   0.486   3.193   3.410 -0.1505  0.0099  0.7569
 2235SOL    HW2 8938   0.460   3.197   3.502 -0.7985 -1.6481  0.6664
 2235SOL    HW3 8939   0.408   3.159   3.365  0.6280 -0.5172 -0.2022
 2235SOL    MW4 8940   0.472   3.189   3.416 -0.1333 -0.2784  0.6184
 2236SOL     OW 8941   0.965   3.091   4.054  0.0622  0.3776  0.7485
 2236SOL    HW2 8942   0.981   3.159   4.119 -0.0912  1.2220 -0.0753
 2236SOL    HW3 8943   0.933   3.016   4.104 -0.7207  1.2412  1.5665
 2236SOL    MW4 8944   0.963   3.090   4.069 -0.0613  0.6030  0.7477
 2237SOL     OW 8945   3.800   2.049   3.340 -0.0820 -0.0058  0.5873
 2237SOL    HW2 8946   3.872   1.998   3.304 -0.8307  0.0958 -1.0950
 2237SOL    HW3 8947   3.721   2.013   3.299 -0.8770  0.7595  1.3973
 2237SOL    MW4 8948   3.799   2.038   3.330 -0.2857  0.1086  0.4722
 2238SOL     OW 8949   3.868   2.720   4.337 -0.0043  0.6832 -0.0042
 2238SOL    HW2 8950   3.894   2.742   4.247 -1.7742 -1.1251 -1.0184
 2238SOL    HW3 8951   3.796   2.779   4.356 -0.8599 -0.1867 -0.4975
 2238SOL    MW4 8952   3.862   2.731   4.327 -0.3507  0.3299 -0.2031
 2239SOL     OW 8953   2.688   2.417   3.906 -0.4677 -0.7957  0.0704
 2239SOL    HW2 8954   2.614   2.461   3.947  1.0787  0.0419  2.0280
 2239SOL    HW3 8955   2.704   2.341   3.963  1.4160  0.1299  0.7987
 2239SOL    MW4 8956   2.680   2.413   3.919 -0.0152 -0.5630  0.4248
 2240SOL     OW 8957   0.048   3.207   4.403 -0.1495  0.1105 -0.0056
 2240SOL    HW2 8958   0.122   3.204   4.343  0.4656 -1.5112  0.8075
 2240SOL    HW3 8959   0.073   3.271   4.469 -0.5607  1.4313 -1.0924
 2240SOL    MW4 8960   0.061   3.215   4.404 -0.1226  0.0708 -0.0417
 2241SOL     OW 8961   1.634   1.702   3.879 -0.0274  0.6899  0.1609
 2241SOL    HW2 8962   1.586   1.619   3.877 -0.0229  0.7125 -1.1970
 2241SOL    HW3 8963   1.568   1.768   3.860  0.3533  0.8146 -0.7211
 2241SOL    MW4 8964   1.619   1.700   3.876  0.0234  0.7093 -0.1346
 2242SOL     OW 8965   2.493   2.963   4.292  0.1736  0.0122 -0.1950
 2242SOL    HW2 8966   2.483   3.054   4.263  0.3172  0.0263 -0.1988
 2242SOL    HW3 8967   2.567   2.965   4.353  0.0907 -0.0786 -0.0906
 2242SOL    MW4 8968   2.501   2.976   4.296  0.1816  0.0021 -0.1817
 2243SOL     OW 8969   4.368   3.646   4.512  0.2630  0.0198  0.0769
 2243SOL    HW2 8970   4.279   3.610   4.518  0.6416 -1.0704 -0.7511
 2243SOL    HW3 8971   4.363   3.730   4.558 -1.1738 -0.0727  0.1082
 2243SOL    MW4 8972   4.355   3.652   4.519  0.1234 -0.1363 -0.0282
 2244SOL     OW 8973   0.311   2.212   4.489  0.1219 -0.3801 -0.1707
 2244SOL    HW2 8974   0.244   2.266   4.448 -0.1132 -0.9389 -0.5242
 2244SOL    HW3 8975   0.262   2.149   4.543  0.3965 -0.1851  0.3162
 2244SOL    MW4 8976   0.295   2.211   4.491  0.1271 -0.4281 -0.1531
 2245SOL     OW 8977   4.358   0.669   4.311  0.3685  0.2953 -0.4962
 2245SOL    HW2 8978   4.439   0.622   4.330  1.0484  0.8739 -1.8702
 2245SOL    HW3 8979   4.363   0.749   4.362 -0.9441 -1.2207  2.1148
 2245SOL    MW4 8980   4.369   0.673   4.320  0.2850  0.1716 -0.3330
 2246SOL     OW 8981   3.354   2.015   3.383  0.0071  0.1394 -0.2779
 2246SOL    HW2 8982   3.290   1.979   3.322 -1.3560  0.7654  0.7660
 2246SOL    HW3 8983   3.337   2.109   3.384  0.3980  0.2104  0.6164
 2246SOL    MW4 8984   3.343   2.022   3.375 -0.1212  0.2314 -0.0222
 2247SOL     OW 8985   0.774   1.486   4.128  0.6717  0.0756  0.3932
 2247SOL    HW2 8986   0.810   1.559   4.077  0.9454  0.3066  0.9040
 2247SOL    HW3 8987   0.777   1.518   4.219 -0.7096  0.0532  0.4625
 2247SOL    MW4 8988   0.779   1.500   4.133  0.5256  0.1031  0.4698
 2248SOL     OW 8989   3.977   0.210   4.569 -0.4889 -0.2078 -0.1166
 2248SOL    HW2 8990   3.969   0.115   4.561  0.3098 -0.4530  1.6325
 2248SOL    HW3 8991   3.898   0.245   4.529 -0.3655 -1.5614 -1.5928
 2248SOL    MW4 8992   3.966   0.202   4.563 -0.3672 -0.4187 -0.0806
 2249SOL     OW 8993   3.826   0.541   3.390 -0.3378  0.6972  0.1377
 2249SOL    HW2 8994   3.756   0.495   3.345 -0.2434  2.7071 -2.1786
 2249SOL    HW3 8995   3.906   0.513   3.346 -0.2551  2.7831 -1.1205
 2249SOL    MW4 8996   3.828   0.531   3.379 -0.3145  1.2376 -0.3339
 2250SOL     OW 8997   1.251   1.186   4.109  0.3898  0.2090 -0.1890
 2250SOL    HW2 8998   1.267   1.166   4.201  1.9243  0.8969 -0.2856
 2250SOL    HW3 8999   1.205   1.270   4.110  0.2246  0.1157 -0.0319
 2250SOL    MW4 9000   1.247   1.195   4.121  0.5705  0.2875 -0.1810
 2251SOL     OW 9001   3.584   4.663   3.388  0.5965  0.0878 -0.0393
 2251SOL    HW2 9002   3.598   4.604   3.462  2.3150  0.3844 -0.1043
 2251SOL    HW3 9003   3.511   4.624   3.340  0.1071 -0.6423  1.2654
 2251SOL    MW4 9004   3.577   4.650   3.392  0.7587  0.0306  0.1243
 2252SOL     OW 9005   0.390   4.223   4.387 -0.6068  0.0399 -0.0608
 2252SOL    HW2 9006   0.452   4.292   4.367 -1.1267  0.4088 -0.4351
 2252SOL    HW3 9007   0.305   4.267   4.392 -1.1139 -0.7299 -1.4615
 2252SOL    MW4 9008   0.387   4.238   4.385 -0.7423 -0.0130 -0.2950
 2253SOL     OW 9009   1.083   0.865   4.169 -0.1986  0.1379 -0.4300
 2253SOL    HW2 9010   1.023   0.884   4.242 -0.0812 -0.5034 -0.1639
 2253SOL    HW3 9011   1.162   0.831   4.211 -0.6875 -1.6754 -0.9302
 2253SOL    MW4 9012   1.085   0.863   4.185 -0.2476 -0.1860 -0.4609
 2254SOL     OW 9013   2.725   2.232   4.149 -0.1225  0.0060  0.2149
 2254SOL    HW2 9014   2.728   2.294   4.222 -2.2584  1.0074 -0.5031
 2254SOL    HW3 9015   2.730   2.146   4.190  1.0037  0.5890  1.3527
 2254SOL    MW4 9016   2.726   2.229   4.164 -0.2557  0.2150  0.2703
 2255SOL     OW 9017   0.488   1.084   3.793 -0.3336 -0.0896  0.0213
 2255SOL    HW2 9018   0.552   1.091   3.723 -0.2645 -0.8718  0.0043
 2255SOL    HW3 9019   0.506   1.159   3.850 -0.2138  0.3899 -0.6501
 2255SOL    MW4 9020   0.499   1.095   3.792 -0.3087 -0.1295 -0.0695
 2256SOL     OW 9021   0.590   0.722   3.723  0.0344  0.5131 -0.1129
 2256SOL    HW2 9022   0.576   0.629   3.705 -0.3361  0.9934 -2.5622
 2256SOL    HW3 9023   0.509   0.764   3.695 -0.3552  1.4385  2.3262
 2256SOL    MW4 9024   0.578   0.715   3.717 -0.0659  0.6986 -0.1143
 2257SOL     OW 9025   2.497   3.586   4.032 -0.0977  0.0218 -0.0206
 2257SOL    HW2 9026   2.496   3.676   4.001 -2.1475 -0.2147 -0.7245
 2257SOL    HW3 9027   2.526   3.534   3.957 -0.5424 -0.0841 -0.1166
 2257SOL    MW4 9028   2.501   3.591   4.018 -0.4268 -0.0234 -0.1261
 2258SOL     OW 9029   3.153   3.225   3.606  0.0507  0.4018 -0.2029
 2258SOL    HW2 9030   3.200   3.148   3.638 -1.4643 -0.9301 -1.1455
 2258SOL    HW3 9031   3.067   3.220   3.649 -0.8991  0.2496 -2.0757
 2258SOL    MW4 9032   3.148   3.214   3.616 -0.2745  0.2060 -0.5744
 2259SOL     OW 9033   4.223   2.058   3.590  0.2261  0.2572 -0.4398
 2259SOL    HW2 9034   4.220   2.079   3.497 -0.9678  0.5077 -0.3510
 2259SOL    HW3 9035   4.280   2.125   3.627 -1.0002  1.4449 -0.6672
 2259SOL    MW4 9036   4.230   2.070   3.583 -0.0932  0.4470 -0.4581
 2260SOL     OW 9037   1.627   4.365   3.589 -0.1748 -0.4716 -0.2351
 2260SOL    HW2 9038   1.656   4.444   3.543 -0.1328  0.4097  1.2627
 2260SOL    HW3 9039   1.542   4.344   3.548 -0.0359  0.1502 -0.8660
 2260SOL    MW4 9040   1.619   4.373   3.577 -0.1509 -0.2733 -0.1207
 2261SOL     OW 9041   1.962   0.239   4.165  0.3967 -0.0873 -0.3146
 2261SOL    HW2 9042   1.974   0.296   4.241  1.3419 -1.4917  0.6049
 2261SOL    HW3 9043   1.919   0.295   4.100 -3.0604  0.3370  2.2158
 2261SOL    MW4 9044   1.958   0.254   4.166  0.0653 -0.2166  0.1406
 2262SOL     OW 9045   3.068   1.763   0.579 -0.5746  0.1236  0.1052
 2262SOL    HW2 9046   3.002   1.803   0.636  1.4358  0.3927  2.2917
 2262SOL    HW3 9047   3.124   1.835   0.553 -0.0951 -0.3981 -0.3063
 2262SOL    MW4 9048   3.067   1.777   0.583 -0.2461  0.0903  0.3394
 2263SOL     OW 9049   0.376   2.919   3.809  0.4543  0.0268  0.4513
 2263SOL    HW2 9050   0.309   2.875   3.758  1.4861 -0.9550 -0.0787
 2263SOL    HW3 9051   0.392   3.001   3.763  0.2078 -0.1123  0.1224
 2263SOL    MW4 9052   0.369   2.924   3.796  0.5579 -0.1211  0.3380
 2264SOL     OW 9053   2.986   2.255   4.034 -0.4276 -0.4138 -0.2117
 2264SOL    HW2 9054   3.017   2.327   3.980 -1.8395  1.9236  1.9865
 2264SOL    HW3 9055   2.897   2.280   4.059 -0.5310 -2.3553  1.5137
 2264SOL    MW4 9056   2.979   2.268   4.030 -0.6275 -0.3616  0.3060
 2265SOL     OW 9057   4.194   2.955   4.579  0.3416 -0.0364  0.5140
 2265SOL    HW2 9058   4.161   2.870   4.550  0.4383  0.4443 -1.0830
 2265SOL    HW3 9059   4.129   3.018   4.548  0.0834  0.4528  2.0163
 2265SOL    MW4 9060   4.181   2.952   4.571  0.3203  0.0916  0.5015
 2266SOL     OW 9061   4.362   3.285   3.826  0.3542 -0.1691 -0.6576
 2266SOL    HW2 9062   4.314   3.229   3.887  0.5627  1.1539  0.7598
 2266SOL    HW3 9063   4.453   3.256   3.833  0.4862  0.4432  0.1887
 2266SOL    MW4 9064   4.368   3.274   3.835  0.3992  0.0862 -0.3589
 2267SOL     OW 9065   3.479   2.488   4.138 -0.1613  0.1685  0.1430
 2267SOL    HW2 9066   3.437   2.452   4.216 -1.0038  0.1973 -0.3010
 2267SOL    HW3 9067   3.413   2.482   4.069 -0.5887  3.1456  0.2113
 2267SOL    MW4 9068   3.465   2.483   4.139 -0.3289  0.5651  0.0934
 2268SOL     OW 9069   0.834   0.452   4.011 -0.2368 -0.4933  0.1744
 2268SOL    HW2 9070   0.857   0.544   4.024  0.5502 -0.5636 -0.6523
 2268SOL    HW3 9071   0.892   0.423   3.940 -0.0745 -1.7787  0.8206
 2268SOL    MW4 9072   0.845   0.460   4.003 -0.1116 -0.6721  0.1506
 2269SOL     OW 9073   1.935   1.928   3.631  0.0955  0.2957  0.0827
 2269SOL    HW2 9074   1.975   1.941   3.717  0.7814  1.3001 -0.3774
 2269SOL    HW3 9075   1.842   1.947   3.645 -0.0502 -0.9395  0.9044
 2269SOL    MW4 9076   1.928   1.932   3.644  0.1668  0.2653  0.1304
 2270SOL     OW 9077   0.557   1.092   4.119  0.2201 -0.3870 -0.3004
 2270SOL    HW2 9078   0.570   1.167   4.062  0.0227 -0.2623 -0.1819
 2270SOL    HW3 9079   0.598   1.019   4.073  0.8569 -0.1053 -0.1846
 2270SOL    MW4 9080   0.564   1.092   4.105  0.2781 -0.3333 -0.2694
 2271SOL     OW 9081   3.250   1.372   4.466 -0.1042 -0.5622  0.8975
 2271SOL    HW2 9082   3.328   1.425   4.448 -0.3625 -0.1662  0.9470
 2271SOL    HW3 9083   3.180   1.436   4.476 -0.2322 -0.8613  1.9107
 2271SOL    MW4 9084   3.251   1.388   4.465 -0.1551 -0.5494  1.0377
 2272SOL     OW 9085   3.662   2.297   4.008  0.2759  0.1194 -0.4635
 2272SOL    HW2 9086   3.733   2.298   4.072  0.4964 -1.7829 -0.6514
 2272SOL    HW3 9087   3.607   2.371   4.032  1.7663  0.9843  0.3175
 2272SOL    MW4 9088   3.664   2.307   4.020  0.5017 -0.0175 -0.3852
 2273SOL     OW 9089   1.844   3.912   3.802 -0.6093 -0.1347  0.0122
 2273SOL    HW2 9090   1.788   3.976   3.756  1.4068  2.2495  0.7580
 2273SOL    HW3 9091   1.841   3.834   3.746 -0.4634  1.7485 -2.7321
 2273SOL    MW4 9092   1.836   3.910   3.788 -0.3241  0.4284 -0.2515
 2274SOL     OW 9093   2.786   2.955   3.901  0.1673 -0.0259 -0.2514
 2274SOL    HW2 9094   2.726   3.013   3.853 -0.3076 -0.0076  0.3515
 2274SOL    HW3 9095   2.728   2.894   3.947  0.6154 -0.0944  0.2335
 2274SOL    MW4 9096   2.770   2.954   3.901  0.1638 -0.0325 -0.1079
 2275SOL     OW 9097   2.043   0.617   4.425  0.0068 -0.0183 -0.1476
 2275SOL    HW2 9098   2.013   0.666   4.502  1.4672  1.1282 -0.2991
 2275SOL    HW3 9099   1.966   0.613   4.368 -0.9776 -0.5322  1.1876
 2275SOL    MW4 9100   2.029   0.623   4.428  0.0696  0.0652  0.0085
 2276SOL     OW 9101   4.353   1.174   4.299  0.1690 -0.9364 -0.5112
 2276SOL    HW2 9102   4.328   1.186   4.207 -0.8091 -0.1393 -0.1553
 2276SOL    HW3 9103   4.442   1.210   4.304  0.0015 -0.4215 -1.0284
 2276SOL    MW4 9104   4.361   1.181   4.287  0.0179 -0.7633 -0.5325
 2277SOL     OW 9105   2.058   4.643   3.851  0.1866  0.1156  0.0081
 2277SOL    HW2 9106   2.086   4.657   3.941  0.2294 -0.9044  0.1595
 2277SOL    HW3 9107   2.043   4.548   3.845  0.6339  0.1123 -1.1798
 2277SOL    MW4 9108   2.060   4.632   3.862  0.2513 -0.0194 -0.1287
 2278SOL     OW 9109   3.694   3.369   4.552  0.3334 -0.7831 -0.2414
 2278SOL    HW2 9110   3.685   3.327   4.467  1.3974 -0.9678 -0.2649
 2278SOL    HW3 9111   3.626   3.436   4.552  0.1048 -1.0031 -1.1065
 2278SOL    MW4 9112   3.684   3.373   4.541  0.4436 -0.8365 -0.3587
 2279SOL     OW 9113   0.120   3.455   4.540 -0.1544 -0.1927  0.1285
 2279SOL    HW2 9114   0.202   3.501   4.524 -0.8691  0.8493 -0.5858
 2279SOL    HW3 9115   0.052   3.520   4.521 -1.1492 -1.1884  0.2470
 2279SOL    MW4 9116   0.122   3.470   4.535 -0.3800 -0.1866  0.0499
 2280SOL     OW 9117   2.016   3.680   4.002  0.1879  0.1723 -0.4577
 2280SOL    HW2 9118   1.945   3.633   4.047 -1.0545  0.9893 -1.5374
 2280SOL    HW3 9119   2.094   3.626   4.019 -0.1561  0.6155  2.9179
 2280SOL    MW4 9120   2.017   3.667   4.010 -0.0214  0.3385 -0.1548
 2281SOL     OW 9121   0.079   2.288   4.357  0.2886 -0.1547 -0.5662
 2281SOL    HW2 9122   0.033   2.295   4.273 -0.0298 -0.6814 -0.4358
 2281SOL    HW3 9123   0.014   2.316   4.422  0.1141 -0.9939 -0.3721
 2281SOL    MW4 9124   0.064   2.293   4.355  0.2236 -0.3349 -0.5234
 2282SOL     OW 9125   3.856   2.697   3.585 -0.2346 -0.1978  0.7127
 2282SOL    HW2 9126   3.852   2.713   3.491 -0.0570  2.6807  1.1308
 2282SOL    HW3 9127   3.915   2.622   3.595 -1.1981 -1.2771 -1.5129
 2282SOL    MW4 9128   3.863   2.689   3.574 -0.3383  0.0396  0.4743
 2283SOL     OW 9129   4.342   1.819   4.675  0.3271  0.3479  0.4138
 2283SOL    HW2 9130   4.366   1.798   4.765 -1.7467 -1.1117  0.6662
 2283SOL    HW3 9131   4.342   1.915   4.671  1.3685  0.4140  1.6793
 2283SOL    MW4 9132   4.345   1.829   4.686  0.1909  0.1641  0.6141
 2284SOL     OW 9133   1.703   4.636   3.527 -0.6581 -0.1517 -0.0754
 2284SOL    HW2 9134   1.718   4.666   3.437 -0.3982  1.7183  0.5754
 2284SOL    HW3 9135   1.764   4.687   3.579 -1.7120 -0.3116  1.3268
 2284SOL    MW4 9136   1.713   4.647   3.522 -0.7628  0.0739  0.1955
 2285SOL     OW 9137   3.514   3.268   4.153 -0.0681  0.0849  0.1518
 2285SOL    HW2 9138   3.479   3.191   4.108 -1.1487  1.4753 -1.4605
 2285SOL    HW3 9139   3.573   3.309   4.089 -1.8246  2.2270 -0.1940
 2285SOL    MW4 9140   3.517   3.264   4.138 -0.4424  0.5510 -0.1065
 2286SOL     OW 9141   0.177   3.983   3.699  0.0881 -0.2158  0.2741
 2286SOL    HW2 9142   0.143   3.894   3.690  0.8429 -0.3533 -1.4177
 2286SOL    HW3 9143   0.108   4.039   3.663  0.1134 -0.2005  0.2502
 2286SOL    MW4 9144   0.163   3.979   3.693  0.1910 -0.2319  0.0477
 2287SOL     OW 9145   4.017   1.716   4.393  0.1182 -0.2040 -0.0753
 2287SOL    HW2 9146   4.104   1.686   4.369 -0.1903 -0.2313 -1.1964
 2287SOL    HW3 9147   3.963   1.699   4.315 -0.9683 -0.5469  0.7401
 2287SOL    MW4 9148   4.021   1.710   4.379 -0.0658 -0.2529 -0.1156
 2288SOL     OW 9149   1.770   3.275   4.132  0.0009  0.2472 -0.6260
 2288SOL    HW2 9150   1.697   3.215   4.140 -0.5914  0.9626 -0.6144
 2288SOL    HW3 9151   1.812   3.252   4.049  0.2760 -0.7165 -0.2242
 2288SOL    MW4 9152   1.766   3.264   4.122 -0.0410  0.2144 -0.5715
 2289SOL     OW 9153   2.869   1.506   4.272 -0.3712  0.1789  0.8379
 2289SOL    HW2 9154   2.785   1.538   4.305  0.1040  1.3785  0.9241
 2289SOL    HW3 9155   2.934   1.557   4.321  0.3596  1.6918 -1.5965
 2289SOL    MW4 9156   2.867   1.517   4.283 -0.2121  0.5368  0.5281
 2290SOL     OW 9157   3.915   0.042   3.674 -0.3384  0.0044  0.3721
 2290SOL    HW2 9158   3.837  -0.013   3.666 -0.6201  0.5720 -0.8000
 2290SOL    HW3 9159   3.983  -0.018   3.706 -0.6109 -1.0424 -0.9897
 2290SOL    MW4 9160   3.913   0.027   3.677 -0.4115 -0.0588  0.0378
 2291SOL     OW 9161   3.741   1.134   3.806  0.1227 -0.6497  0.8904
 2291SOL    HW2 9162   3.664   1.190   3.821  0.5673 -0.3861  2.2391
 2291SOL    HW3 9163   3.705   1.046   3.799 -0.6131 -0.1965 -1.4993
 2291SOL    MW4 9164   3.726   1.130   3.807  0.0843 -0.5551  0.7530
 2292SOL     OW 9165   4.324   3.563   3.845  0.1296  0.0370  0.3015
 2292SOL    HW2 9166   4.331   3.560   3.940 -0.1781 -0.1569  0.3220
 2292SOL    HW3 9167   4.356   3.477   3.816 -1.8543 -0.7643  0.3850
 2292SOL    MW4 9168   4.329   3.551   3.854 -0.1728 -0.0943  0.3152
 2293SOL     OW 9169   4.187   3.172   4.011 -0.4483  0.2704 -0.1360
 2293SOL    HW2 9170   4.096   3.198   4.026 -0.1269  1.4615 -0.2036
 2293SOL    HW3 9171   4.233   3.197   4.091  0.1704  1.3718 -0.8311
 2293SOL    MW4 9172   4.181   3.178   4.024 -0.3243  0.5729 -0.2366
 2294SOL     OW 9173   1.286   1.391   4.453 -0.0012  0.0211 -0.1587
 2294SOL    HW2 9174   1.372   1.420   4.484  0.3712  2.4176 -3.1859
 2294SOL    HW3 9175   1.234   1.471   4.448 -1.9278 -1.1868  0.1455
 2294SOL    MW4 9176   1.291   1.405   4.456 -0.2062  0.1779 -0.5180
 2295SOL     OW 9177   3.042   0.132   3.597  0.1880 -0.1439  0.3567
 2295SOL    HW2 9178   3.096   0.093   3.666 -1.7180 -1.5932  1.0835
 2295SOL    HW3 9179   2.968   0.072   3.587  0.4193 -0.0110 -3.0035
 2295SOL    MW4 9180   3.039   0.119   3.604 -0.0330 -0.3175  0.0092
 2296SOL     OW 9181   2.451   0.536   4.359 -0.5030 -0.3748  0.5698
 2296SOL    HW2 9182   2.515   0.553   4.290 -0.7627 -0.6964  0.2499
 2296SOL    HW3 9183   2.404   0.619   4.369 -1.5641 -0.7949 -0.7873
 2296SOL    MW4 9184   2.453   0.549   4.352 -0.6773 -0.4727  0.3485
 2297SOL     OW 9185   1.790   1.061   3.743  0.2379 -0.4982  0.6268
 2297SOL    HW2 9186   1.708   1.110   3.750 -0.7206 -2.0825  0.6242
 2297SOL    HW3 9187   1.855   1.127   3.717 -1.2058  0.6013 -0.2671
 2297SOL    MW4 9188   1.788   1.076   3.741 -0.0790 -0.5621  0.5085
 2298SOL     OW 9189   2.343   2.840   3.906  0.1940  0.1701 -0.1978
 2298SOL    HW2 9190   2.282   2.854   3.979  1.3133  0.3341  0.7273
 2298SOL    HW3 9191   2.326   2.750   3.878 -0.0451 -0.0019  0.4803
 2298SOL    MW4 9192   2.333   2.830   3.912  0.3101  0.1691  0.0137
 2299SOL     OW 9193   1.535   1.712   4.503 -0.2426 -0.0284  0.5805
 2299SOL    HW2 9194   1.451   1.734   4.462  0.2274 -1.4645 -1.2254
 2299SOL    HW3 9195   1.544   1.617   4.490  1.2767 -0.0230  1.4829
 2299SOL    MW4 9196   1.525   1.702   4.496  0.0199 -0.2172  0.4613
 2300SOL     OW 9197   4.317   2.532   4.390  0.2370 -0.0493 -0.0270
 2300SOL    HW2 9198   4.242   2.578   4.428  0.0488 -0.7622  0.4800
 2300SOL    HW3 9199   4.390   2.593   4.402 -0.3059  0.7604 -0.7674
 2300SOL    MW4 9200   4.317   2.547   4.397  0.1405 -0.0365 -0.0578
 2301SOL     OW 9201   0.718   0.177   3.630 -0.2305  0.1502  0.7991
 2301SOL    HW2 9202   0.652   0.135   3.685 -0.6652 -2.1710 -1.3725
 2301SOL    HW3 9203   0.667   0.214   3.557  0.7152 -0.5021 -0.2022
 2301SOL    MW4 9204   0.702   0.177   3.628 -0.1631 -0.2421  0.3805
 2302SOL     OW 9205   1.274   2.577   4.523 -0.2730  0.4741 -0.3794
 2302SOL    HW2 9206   1.240   2.498   4.481 -1.7464  0.6424  0.4172
 2302SOL    HW3 9207   1.215   2.647   4.494  0.2181  1.0289 -0.0493
 2302SOL    MW4 9208   1.262   2.576   4.514 -0.4026  0.5695 -0.2308
 2303SOL     OW 9209   3.715   1.042   4.378  0.0580  0.3628 -0.0497
 2303SOL    HW2 9210   3.652   0.990   4.429  2.2577 -1.7529  0.5794
 2303SOL    HW3 9211   3.743   0.984   4.308 -0.2387  2.0260 -1.5865
 2303SOL    MW4 9212   3.710   1.028   4.375  0.3091  0.3031 -0.1694
 2304SOL     OW 9213   3.172   2.704   3.265 -0.1784 -0.1082 -0.0855
 2304SOL    HW2 9214   3.252   2.732   3.309 -0.0438 -0.9113  0.2004
 2304SOL    HW3 9215   3.102   2.753   3.307  0.0953  0.1219  0.1004
 2304SOL    MW4 9216   3.173   2.714   3.276 -0.1245 -0.1838 -0.0232
 2305SOL     OW 9217   0.431   3.937   4.471  0.1131  0.3888  0.1999
 2305SOL    HW2 9218   0.520   3.914   4.445 -0.2221 -1.3610  0.4713
 2305SOL    HW3 9219   0.431   4.032   4.480  2.4979  0.2549  2.1258
 2305SOL    MW4 9220   0.443   3.946   4.469  0.3836  0.1402  0.4898
 2306SOL     OW 9221   0.370   0.873   3.671 -0.3448  0.0916  0.4530
 2306SOL    HW2 9222   0.405   0.941   3.728 -0.4631  0.9049 -0.4382
 2306SOL    HW3 9223   0.275   0.882   3.677 -0.3559  0.4543 -0.1860
 2306SOL    MW4 9224   0.362   0.883   3.679 -0.3619  0.2468  0.2511
 2307SOL     OW 9225   1.454   3.522   4.211  0.3279 -0.3255  0.7298
 2307SOL    HW2 9226   1.367   3.560   4.222  0.3788 -0.3777  1.3148
 2307SOL    HW3 9227   1.485   3.559   4.128 -0.5124 -0.8260  0.1812
 2307SOL    MW4 9228   1.446   3.532   4.201  0.2237 -0.3985  0.7346
 2308SOL     OW 9229   0.031   0.009   4.055 -0.2563  0.4538 -0.8092
 2308SOL    HW2 9230   0.076   0.092   4.040  0.8804 -0.3507 -1.9645
 2308SOL    HW3 9231   0.093  -0.058   4.026 -0.2748 -0.9263  2.2176
 2308SOL    MW4 9232   0.045   0.011   4.049 -0.1088  0.1656 -0.5623
 2309SOL     OW 9233   1.527   2.662   4.252 -0.1248  0.4092  0.3008
 2309SOL    HW2 9234   1.511   2.602   4.325 -0.1583 -1.9104 -1.5405
 2309SOL    HW3 9235   1.440   2.684   4.219 -0.0740  0.7473  0.3838
 2309SOL    MW4 9236   1.513   2.657   4.257 -0.1225  0.1478  0.0688
 2310SOL     OW 9237   0.173   0.285   3.737 -0.1248  0.4718 -0.0121
 2310SOL    HW2 9238   0.188   0.374   3.704  0.1697  0.0241 -1.0890
 2310SOL    HW3 9239   0.165   0.297   3.832  1.3811  1.4648  0.0227
 2310SOL    MW4 9240   0.174   0.299   3.745  0.1128  0.5437 -0.1496
 2311SOL     OW 9241   2.062   2.187   4.323  0.0484 -0.0862  0.0262
 2311SOL    HW2 9242   2.032   2.277   4.336 -2.6919 -1.0349  0.5630
 2311SOL    HW3 9243   2.068   2.177   4.228  0.0989  0.5719 -0.0412
 2311SOL    MW4 9244   2.059   2.197   4.312 -0.3065 -0.1245  0.0882
 2312SOL     OW 9245   0.255   3.154   4.223 -0.2735  0.2624  0.5689
 2312SOL    HW2 9246   0.238   3.086   4.158 -1.6069  0.1554  1.0215
 2312SOL    HW3 9247   0.350   3.157   4.230 -0.1706 -0.7767 -0.2791
 2312SOL    MW4 9248   0.265   3.146   4.215 -0.4359  0.1112  0.5167
 2313SOL     OW 9249   0.797   4.291   3.190  0.1377 -0.4087  0.0618
 2313SOL    HW2 9250   0.856   4.232   3.235 -0.0324  0.3024  1.2265
 2313SOL    HW3 9251   0.834   4.299   3.102  0.7516 -1.3936  0.2191
 2313SOL    MW4 9252   0.809   4.284   3.184  0.1962 -0.4449  0.2362
 2314SOL     OW 9253   0.347   4.284   3.214  0.3032  0.0767  0.5803
 2314SOL    HW2 9254   0.375   4.290   3.122  1.2657 -0.0762  0.8548
 2314SOL    HW3 9255   0.367   4.370   3.250  0.2942  0.0092  0.7447
 2314SOL    MW4 9256   0.354   4.296   3.206  0.4290  0.0476  0.6382
 2315SOL     OW 9257   1.373   1.069   3.285  0.2301  0.2601 -0.4326
 2315SOL    HW2 9258   1.378   0.979   3.318  0.0202  0.6515  0.7054
 2315SOL    HW3 9259   1.445   1.114   3.329 -0.4299  0.9395 -0.0473
 2315SOL    MW4 9260   1.383   1.063   3.295  0.1153  0.4014 -0.2316
 2316SOL     OW 9261   2.648   3.841   3.366 -0.7686  0.0405  0.2393
 2316SOL    HW2 9262   2.676   3.878   3.449  2.5030 -0.9676 -0.3452
 2316SOL    HW3 9263   2.599   3.762   3.390 -2.2031  1.2241  1.2637
 2316SOL    MW4 9264   2.645   3.836   3.380 -0.5262  0.0636  0.2974
 2317SOL     OW 9265   4.052   2.506   3.585 -0.3129 -0.0561  0.2510
 2317SOL    HW2 9266   4.069   2.442   3.654  0.9173 -0.0230 -0.0024
 2317SOL    HW3 9267   4.135   2.554   3.576 -0.8890  0.8630 -0.2952
 2317SOL    MW4 9268   4.065   2.504   3.593 -0.2266  0.0696  0.1455
 2318SOL     OW 9269   0.584   3.696   3.670 -0.0774  0.5856 -0.3171
 2318SOL    HW2 9270   0.675   3.725   3.672 -0.0073  0.5605 -2.1239
 2318SOL    HW3 9271   0.534   3.776   3.657 -0.0725  0.2685 -2.5209
 2318SOL    MW4 9272   0.590   3.710   3.669 -0.0675  0.5405 -0.8462
 2319SOL     OW 9273   4.293   0.073   4.278 -0.2929  0.0222  0.3551
 2319SOL    HW2 9274   4.343   0.061   4.359 -0.0339  1.2129  0.3752
 2319SOL    HW3 9275   4.358   0.067   4.208 -0.5521 -1.2484  0.2027
 2319SOL    MW4 9276   4.308   0.071   4.280 -0.2929  0.0117  0.3376
 2320SOL     OW 9277   0.647   4.657   4.647  0.0828 -0.0213 -0.7915
 2320SOL    HW2 9278   0.699   4.723   4.693 -1.2044  0.9427 -0.7088
 2320SOL    HW3 9279   0.710   4.614   4.588  1.0184  0.9571 -0.5195
 2320SOL    MW4 9280   0.662   4.660   4.646  0.0364  0.2350 -0.7447
 2321SOL     OW 9281   0.966   3.324   4.233 -0.4491  0.1781  0.0751
 2321SOL    HW2 9282   1.024   3.290   4.301 -1.0948 -0.7558  0.1618
 2321SOL    HW3 9283   0.958   3.417   4.254  2.0843  0.6272 -0.7184
 2321SOL    MW4 9284   0.973   3.332   4.245 -0.2000  0.1142 -0.0182
 2322SOL     OW 9285   0.611   1.437   4.410 -0.2386  0.0287  0.0296
 2322SOL    HW2 9286   0.649   1.350   4.395  0.5675  0.5479 -1.0095
 2322SOL    HW3 9287   0.539   1.422   4.471 -0.9958 -1.5710 -1.2396
 2322SOL    MW4 9288   0.607   1.424   4.417 -0.2321 -0.1139 -0.2749
 2323SOL     OW 9289   2.482   0.464   3.661  0.1183 -0.5134 -0.0022
 2323SOL    HW2 9290   2.494   0.439   3.570  0.0527 -0.9368  0.1033
 2323SOL    HW3 9291   2.560   0.432   3.705  0.3350  0.0423  0.0214
 2323SOL    MW4 9292   2.494   0.456   3.655  0.1382 -0.4960  0.0148
 2324SOL     OW 9293   1.122   2.553   4.041  0.0914  0.4581  0.7180
 2324SOL    HW2 9294   1.137   2.458   4.047 -0.8981  0.1722 -0.9025
 2324SOL    HW3 9295   1.028   2.563   4.051  0.0694  1.1691 -0.1406
 2324SOL    MW4 9296   1.112   2.541   4.043 -0.0421  0.5142  0.3909
 2325SOL     OW 9297   1.564   0.871   4.037  0.2774  0.0864  0.0008
 2325SOL    HW2 9298   1.549   0.777   4.030 -0.2531  0.1009  0.8703
 2325SOL    HW3 9299   1.518   0.908   3.962 -0.6933 -0.2216  0.4467
 2325SOL    MW4 9300   1.556   0.863   4.026  0.0793  0.0477  0.1743
 2326SOL     OW 9301   0.355   3.658   4.460 -0.1741  0.2149  0.3734
 2326SOL    HW2 9302   0.338   3.659   4.366  0.7233  0.8723  0.2190
 2326SOL    HW3 9303   0.359   3.750   4.485 -1.9346  0.0600  1.3341
 2326SOL    MW4 9304   0.353   3.670   4.451 -0.2880  0.2812  0.4798
 2327SOL     OW 9305   2.003   2.467   4.351  0.4189 -0.8141  0.2839
 2327SOL    HW2 9306   2.073   2.527   4.326  0.6264 -1.7846 -1.5532
 2327SOL    HW3 9307   1.945   2.464   4.275 -0.1904 -2.0739  0.7734
 2327SOL    MW4 9308   2.005   2.475   4.338  0.3659 -1.1084  0.1061
 2328SOL     OW 9309   1.552   0.461   3.386 -0.3581  0.2747  0.1341
 2328SOL    HW2 9310   1.632   0.419   3.353  1.5679  1.3527  3.1869
 2328SOL    HW3 9311   1.483   0.398   3.368  1.5695 -1.7578 -0.3980
 2328SOL    MW4 9312   1.553   0.447   3.379  0.1503  0.1488  0.4667
 2329SOL     OW 9313   0.476   3.460   4.094 -0.4266  0.5825  0.2253
 2329SOL    HW2 9314   0.533   3.489   4.022 -0.9750 -1.7938 -1.2497
 2329SOL    HW3 9315   0.535   3.417   4.155 -0.2040  0.9505  0.2691
 2329SOL    MW4 9316   0.491   3.458   4.092 -0.4696  0.3175  0.0365
 2330SOL     OW 9317   1.306   1.784   4.381  0.0440 -0.1654 -0.8272
 2330SOL    HW2 9318   1.237   1.718   4.376 -0.0386 -0.0005 -1.9409
 2330SOL    HW3 9319   1.348   1.782   4.295 -0.1742  1.4637 -0.9892
 2330SOL    MW4 9320   1.303   1.775   4.369  0.0043  0.0713 -0.9955
 2331SOL     OW 9321   1.179   3.677   4.351  0.2709 -0.6553 -0.2511
 2331SOL    HW2 9322   1.086   3.656   4.343 -0.0063 -0.1250  1.3067
 2331SOL    HW3 9323   1.205   3.708   4.265 -1.1680 -0.1614 -0.5096
 2331SOL    MW4 9324   1.170   3.678   4.339  0.0444 -0.5202 -0.0797
 2332SOL     OW 9325   3.572   1.732   3.603 -0.0818  0.0480  0.6665
 2332SOL    HW2 9326   3.488   1.767   3.632 -0.4547  0.2996 -0.6828
 2332SOL    HW3 9327   3.633   1.806   3.613 -0.6112  0.7538 -0.9733
 2332SOL    MW4 9328   3.569   1.747   3.608 -0.2008  0.1743  0.2722
 2333SOL     OW 9329   2.935   0.373   4.388  0.0589 -0.4388 -0.2975
 2333SOL    HW2 9330   3.027   0.395   4.374  0.0842 -1.1765 -1.3091
 2333SOL    HW3 9331   2.904   0.439   4.450  1.0331  0.3607 -0.6503
 2333SOL    MW4 9332   2.943   0.385   4.395  0.1908 -0.4307 -0.4775
 2334SOL     OW 9333   0.848   2.604   4.079  0.0498 -0.0614 -0.0223
 2334SOL    HW2 9334   0.852   2.696   4.105 -0.5105 -0.4781  1.6252
 2334SOL    HW3 9335   0.816   2.605   3.989  0.1999  1.3598 -0.0638
 2334SOL    MW4 9336   0.844   2.616   4.071 -0.0043  0.0711  0.1896
 2335SOL     OW 9337   2.957   4.015   3.572  0.5905  0.6356  0.3494
 2335SOL    HW2 9338   2.862   4.012   3.581  0.5889 -0.2118  0.1086
 2335SOL    HW3 9339   2.983   4.099   3.611  0.1521 -0.8752  4.1637
 2335SOL    MW4 9340   2.948   4.025   3.578  0.5325  0.3245  0.8209
 2336SOL     OW 9341   1.382   1.608   3.339  0.3221  0.2597  0.2156
 2336SOL    HW2 9342   1.308   1.547   3.332  0.0097  0.7535 -0.9088
 2336SOL    HW3 9343   1.459   1.551   3.347  0.0060 -0.2937 -0.5782
 2336SOL    MW4 9344   1.383   1.592   3.339  0.2392  0.2518 -0.0375
 2337SOL     OW 9345   3.716   3.987   4.258 -0.5101  0.1153 -0.0548
 2337SOL    HW2 9346   3.715   4.007   4.164  1.0307  0.7153  0.0516
 2337SOL    HW3 9347   3.793   3.932   4.270 -0.1986  0.7742  1.0099
 2337SOL    MW4 9348   3.726   3.982   4.247 -0.2657  0.2814  0.0997
 2338SOL     OW 9349   0.190   0.766   3.230 -0.4326  0.0194 -0.3868
 2338SOL    HW2 9350   0.113   0.788   3.282 -1.0237  0.7516 -1.5672
 2338SOL    HW3 9351   0.264   0.801   3.281 -0.9244 -0.1284  0.4343
 2338SOL    MW4 9352   0.190   0.774   3.243 -0.5755  0.0965 -0.4342
 2339SOL     OW 9353   2.975   4.571   3.283 -0.1122 -0.0841  0.2583
 2339SOL    HW2 9354   2.974   4.564   3.188  0.8905 -0.8609  0.2900
 2339SOL    HW3 9355   3.021   4.653   3.301  1.2839 -0.8152  0.0889
 2339SOL    MW4 9356   2.981   4.581   3.273  0.2043 -0.2830  0.2402
 2340SOL     OW 9357   1.696   1.686   4.753  0.6334  0.4245  0.0672
 2340SOL    HW2 9358   1.648   1.704   4.672  1.1889 -0.0549 -0.3750
 2340SOL    HW3 9359   1.689   1.767   4.803 -0.0947  0.5724 -0.2686
 2340SOL    MW4 9360   1.689   1.699   4.749  0.6106  0.3808 -0.0355
 2341SOL     OW 9361   4.359   2.050   4.257 -0.3830 -0.2543  0.0865
 2341SOL    HW2 9362   4.282   2.011   4.215 -1.3304  0.3550  1.2540
 2341SOL    HW3 9363   4.350   2.144   4.242  1.9555 -0.4025 -2.8174
 2341SOL    MW4 9364   4.348   2.057   4.249 -0.1995 -0.1935 -0.1426
 2342SOL     OW 9365   0.810   1.612   4.404  0.1487  0.5318 -0.0440
 2342SOL    HW2 9366   0.743   1.548   4.430  1.3997 -1.1303 -0.7761
 2342SOL    HW3 9367   0.770   1.697   4.421 -2.3791 -0.4149 -0.9676
 2342SOL    MW4 9368   0.796   1.615   4.409 -0.0197  0.1876 -0.2625
 2343SOL     OW 9369   3.703   3.399   3.991 -0.2897  0.0837 -0.4131
 2343SOL    HW2 9370   3.710   3.488   4.025  1.3673 -0.2782  0.2219
 2343SOL    HW3 9371   3.661   3.409   3.905 -2.9564  1.1674  0.9394
 2343SOL    MW4 9372   3.698   3.412   3.984 -0.4229  0.1789 -0.1509
 2344SOL     OW 9373   4.063   0.899   3.374  0.1310  0.4149 -0.4805
 2344SOL    HW2 9374   4.060   0.864   3.463  1.9807  1.4108  0.0099
 2344SOL    HW3 9375   4.151   0.876   3.343 -1.1706 -1.6032 -2.7689
 2344SOL    MW4 9376   4.075   0.892   3.382  0.2033  0.2800 -0.7177
 2345SOL     OW 9377   3.609   3.145   3.656 -0.0672  0.2105 -0.1445
 2345SOL    HW2 9378   3.682   3.112   3.709 -0.4703 -0.4818 -0.0180
 2345SOL    HW3 9379   3.591   3.232   3.692 -1.3118 -0.8326  1.8522
 2345SOL    MW4 9380   3.617   3.152   3.668 -0.2846 -0.0185  0.1357
 2346SOL     OW 9381   3.808   1.289   3.353  0.6434 -0.1079 -0.4308
 2346SOL    HW2 9382   3.733   1.237   3.325  1.0975 -0.8751 -0.2360
 2346SOL    HW3 9383   3.883   1.250   3.308  1.0684  0.0084  0.1600
 2346SOL    MW4 9384   3.808   1.277   3.344  0.7594 -0.1938 -0.3271
 2347SOL     OW 9385   3.350   1.267   3.376 -0.3803  0.1652 -0.1415
 2347SOL    HW2 9386   3.435   1.227   3.355 -0.0346  0.2909  0.9762
 2347SOL    HW3 9387   3.353   1.352   3.332  0.0558  0.1493 -0.1448
 2347SOL    MW4 9388   3.362   1.273   3.367 -0.2772  0.1797  0.0055
 2348SOL     OW 9389   4.239   4.176   4.413 -0.4642 -0.4432  0.2129
 2348SOL    HW2 9390   4.315   4.215   4.371 -0.3270 -1.3413 -0.3928
 2348SOL    HW3 9391   4.272   4.095   4.452 -0.9397 -0.4409  0.6348
 2348SOL    MW4 9392   4.253   4.170   4.413 -0.5089 -0.5614  0.1886
 2349SOL     OW 9393   2.486   0.288   4.103  0.2104  0.0771 -0.2641
 2349SOL    HW2 9394   2.452   0.295   4.193 -0.3977  0.4810 -0.5181
 2349SOL    HW3 9395   2.579   0.308   4.111  0.3840 -0.9794  0.4398
 2349SOL    MW4 9396   2.494   0.292   4.116  0.1531 -0.0090 -0.2048
 2350SOL     OW 9397   3.759   3.903   3.307  0.2348  0.1631  0.4626
 2350SOL    HW2 9398   3.827   3.943   3.363 -0.1564 -1.1625  1.9130
 2350SOL    HW3 9399   3.679   3.909   3.360  0.0383 -1.9110  0.4088
 2350SOL    MW4 9400   3.757   3.909   3.322  0.1573 -0.2854  0.6469
 2351SOL     OW 9401   3.756   1.979   3.610  0.4763  0.3455  0.0718
 2351SOL    HW2 9402   3.786   2.001   3.522 -0.6945 -0.7787 -0.6434
 2351SOL    HW3 9403   3.832   1.941   3.654  0.8315  0.0771 -0.7725
 2351SOL    MW4 9404   3.770   1.977   3.604  0.3687  0.1617 -0.1339
 2352SOL     OW 9405   2.312   2.249   3.710 -0.1126 -0.6779 -0.0768
 2352SOL    HW2 9406   2.386   2.207   3.754  0.3006  0.1207 -0.0045
 2352SOL    HW3 9407   2.348   2.279   3.627 -0.4307 -0.5248 -0.1593
 2352SOL    MW4 9408   2.327   2.247   3.705 -0.1000 -0.5523 -0.0781
 2353SOL     OW 9409   0.690   1.889   3.998 -0.0616  0.1530 -0.0420
 2353SOL    HW2 9410   0.741   1.969   3.989  0.2007 -0.0237 -0.1178
 2353SOL    HW3 9411   0.642   1.883   3.915  1.8598 -1.1223 -1.1014
 2353SOL    MW4 9412   0.690   1.899   3.986  0.2265 -0.0386 -0.1918
 2354SOL     OW 9413   1.202   3.908   4.524  0.1555  0.0003  0.1370
 2354SOL    HW2 9414   1.199   3.837   4.461 -0.7259 -1.0199  1.3206
 2354SOL    HW3 9415   1.276   3.886   4.581  0.8110  0.8072 -0.3825
 2354SOL    MW4 9416   1.211   3.896   4.523  0.1257 -0.0279  0.2247
 2355SOL     OW 9417   2.503   0.142   4.489 -0.4757  0.5272 -1.0450
 2355SOL    HW2 9418   2.540   0.223   4.526 -1.4251 -0.1655  1.5848
 2355SOL    HW3 9419   2.411   0.163   4.474 -1.0894 -0.4673  1.0868
 2355SOL    MW4 9420   2.496   0.156   4.492 -0.6819  0.3046 -0.4168
 2356SOL     OW 9421   4.144   0.017   3.261 -0.0624  0.0652  0.2833
 2356SOL    HW2 9422   4.160  -0.070   3.298 -1.0257 -1.0398 -1.8489
 2356SOL    HW3 9423   4.210   0.072   3.302 -1.0087 -1.1162  3.5894
 2356SOL    MW4 9424   4.155   0.013   3.272 -0.3144 -0.2365  0.4382
 2357SOL     OW 9425   4.380   1.574   3.656  0.3307  0.2661  0.4613
 2357SOL    HW2 9426   4.398   1.592   3.563 -0.0216  1.0136  0.5327
 2357SOL    HW3 9427   4.287   1.594   3.666 -0.0125 -1.3328  0.6248
 2357SOL    MW4 9428   4.370   1.579   3.645  0.2390  0.1537  0.4923
 2358SOL     OW 9429   2.180   1.804   4.277  0.2262 -0.2018  0.0031
 2358SOL    HW2 9430   2.239   1.854   4.333 -1.8247  0.7284  1.3626
 2358SOL    HW3 9431   2.186   1.715   4.309  1.3179 -0.2362 -0.2570
 2358SOL    MW4 9432   2.189   1.799   4.288  0.0996 -0.0836  0.1482
 2359SOL     OW 9433   3.242   3.579   4.356  0.3606  0.1679 -0.0217
 2359SOL    HW2 9434   3.268   3.571   4.264  0.4973  1.2463 -0.0826
 2359SOL    HW3 9435   3.184   3.655   4.357 -0.5157 -0.5085  0.5993
 2359SOL    MW4 9436   3.238   3.588   4.344  0.2630  0.2210  0.0522
 2360SOL     OW 9437   1.534   2.511   4.492  0.5971  0.2880 -0.2291
 2360SOL    HW2 9438   1.445   2.541   4.512  0.8250  0.2901  0.8322
 2360SOL    HW3 9439   1.524   2.418   4.472  0.2573  0.4568 -0.8459
 2360SOL    MW4 9440   1.521   2.503   4.492  0.5823  0.3106 -0.1704
 2361SOL     OW 9441   3.363   4.545   3.244  0.5063 -0.1739  0.4515
 2361SOL    HW2 9442   3.355   4.571   3.153  0.7424 -0.7460  0.2619
 2361SOL    HW3 9443   3.293   4.592   3.290  1.1446  1.0592  0.1882
 2361SOL    MW4 9444   3.353   4.555   3.238  0.6216 -0.0867  0.3917
 2362SOL     OW 9445   0.843   1.504   3.689  0.0445 -0.1592  0.3165
 2362SOL    HW2 9446   0.749   1.485   3.682 -0.0437  0.6009 -0.5833
 2362SOL    HW3 9447   0.850   1.566   3.761 -0.1944  0.1549  0.0686
 2362SOL    MW4 9448   0.831   1.509   3.697  0.0014 -0.0175  0.1651
 2363SOL     OW 9449   0.571   1.863   3.729 -0.2363 -0.6892 -0.4583
 2363SOL    HW2 9450   0.648   1.899   3.684  0.4611  0.1455  1.3350
 2363SOL    HW3 9451   0.497   1.912   3.692  0.5965  1.9500  1.1858
 2363SOL    MW4 9452   0.572   1.874   3.718 -0.0345 -0.2309 -0.0048
 2364SOL     OW 9453   2.201   3.596   4.340  0.5165 -0.5912  0.3752
 2364SOL    HW2 9454   2.209   3.558   4.253  0.1188 -1.7287  0.8259
 2364SOL    HW3 9455   2.113   3.573   4.369  0.0836  1.1124  0.4564
 2364SOL    MW4 9456   2.191   3.588   4.333  0.4069 -0.5165  0.4454
 2365SOL     OW 9457   2.441   3.872   4.021  0.2402  0.7038  0.4665
 2365SOL    HW2 9458   2.354   3.880   3.980 -0.4302  0.3334  1.8051
 2365SOL    HW3 9459   2.486   3.952   3.996 -0.5370  0.9729 -0.1185
 2365SOL    MW4 9460   2.435   3.883   4.012  0.0492  0.6904  0.5660
 2366SOL     OW 9461   3.108   2.343   4.638 -0.3320  0.1103  0.6289
 2366SOL    HW2 9462   3.184   2.287   4.657  1.2002  2.2091  0.7985
 2366SOL    HW3 9463   3.053   2.336   4.717 -0.3577 -1.4223  0.5002
 2366SOL    MW4 9464   3.111   2.335   4.651 -0.1333  0.1850  0.6343
 2367SOL     OW 9465   2.075   2.162   4.044  0.0199 -0.0751  0.2412
 2367SOL    HW2 9466   2.084   2.225   3.973 -0.1884 -1.4450 -1.0180
 2367SOL    HW3 9467   2.073   2.077   4.001 -1.6827 -0.8458  1.7646
 2367SOL    MW4 9468   2.076   2.159   4.029 -0.2322 -0.3575  0.2761
 2368SOL     OW 9469   3.576   1.946   3.201 -0.7054 -0.0207 -0.2934
 2368SOL    HW2 9470   3.561   1.853   3.217  1.1590 -0.1651  0.7745
 2368SOL    HW3 9471   3.508   1.991   3.252 -0.9685 -0.7602  0.0095
 2368SOL    MW4 9472   3.565   1.940   3.210 -0.4941 -0.1373 -0.1125
 2369SOL     OW 9473   2.881   3.637   4.365 -0.3664 -0.4559  0.1715
 2369SOL    HW2 9474   2.922   3.709   4.414 -1.3879  0.2980 -0.0528
 2369SOL    HW3 9475   2.788   3.645   4.385 -1.0426  0.8492 -3.0967
 2369SOL    MW4 9476   2.874   3.648   4.374 -0.5904 -0.1843 -0.2893
 2370SOL     OW 9477   2.265   3.075   4.646  0.3033  0.4197  0.0347
 2370SOL    HW2 9478   2.259   3.075   4.742 -0.3848 -0.5238 -0.0014
 2370SOL    HW3 9479   2.350   3.115   4.628  1.0311 -0.5820  1.0849
 2370SOL    MW4 9480   2.275   3.080   4.657  0.3085  0.1630  0.1685
 2371SOL     OW 9481   2.751   0.093   3.839 -0.3260  0.4988  0.3962
 2371SOL    HW2 9482   2.683   0.033   3.869 -1.0811  0.7563 -0.7831
 2371SOL    HW3 9483   2.818   0.089   3.907 -1.5188  0.2507  1.5670
 2371SOL    MW4 9484   2.751   0.084   3.852 -0.5830  0.5001  0.3951
 2372SOL     OW 9485   1.651   2.999   3.560 -0.0021  0.3398  0.1688
 2372SOL    HW2 9486   1.584   3.066   3.576 -0.1302  0.7609 -1.9700
 2372SOL    HW3 9487   1.724   3.046   3.521  0.5870 -0.5046  0.2362
 2372SOL    MW4 9488   1.652   3.014   3.557  0.0587  0.2840 -0.1045
 2373SOL     OW 9489   0.972   4.174   3.358  0.0618  0.2255 -0.2773
 2373SOL    HW2 9490   0.940   4.153   3.446  0.9170 -0.4296 -0.1047
 2373SOL    HW3 9491   1.012   4.092   3.328 -0.2212  0.4528 -1.2765
 2373SOL    MW4 9492   0.973   4.160   3.366  0.1373  0.1691 -0.3864
 2374SOL     OW 9493   2.418   4.297   3.332 -0.5924  0.4007 -0.5216
 2374SOL    HW2 9494   2.342   4.266   3.283  0.4621 -2.3604 -0.4918
 2374SOL    HW3 9495   2.411   4.255   3.418 -0.0261  1.6194  0.1418
 2374SOL    MW4 9496   2.407   4.288   3.337 -0.3786  0.1972 -0.4301
 2375SOL     OW 9497   3.092   2.876   4.588 -0.4652  0.1170 -0.4527
 2375SOL    HW2 9498   3.146   2.797   4.599 -0.7887 -0.1751 -0.9125
 2375SOL    HW3 9499   3.050   2.889   4.673 -0.1209  0.0118 -0.2645
 2375SOL    MW4 9500   3.094   2.867   4.600 -0.4624  0.0646 -0.4885
 2376SOL     OW 9501   0.284   2.265   4.058  0.1319  0.0928  0.5614
 2376SOL    HW2 9502   0.373   2.300   4.057  0.5581 -0.9605 -1.3604
 2376SOL    HW3 9503   0.282   2.207   4.134  0.8140  0.8020  1.1288
 2376SOL    MW4 9504   0.295   2.262   4.068  0.2781  0.0474  0.3827
 2377SOL     OW 9505   0.826   0.847   3.349 -0.3612  0.7073  0.4394
 2377SOL    HW2 9506   0.838   0.862   3.443  0.3106 -0.7636  0.6091
 2377SOL    HW3 9507   0.911   0.817   3.318 -1.0418 -0.5486 -0.2795
 2377SOL    MW4 9508   0.839   0.845   3.357 -0.3623  0.3475  0.3670
 2378SOL     OW 9509   0.239   3.115   3.278 -0.1756 -0.1113 -0.0598
 2378SOL    HW2 9510   0.227   3.124   3.183  0.1535 -0.0745 -0.0987
 2378SOL    HW3 9511   0.157   3.145   3.316 -0.9266 -1.6753 -0.4037
 2378SOL    MW4 9512   0.227   3.120   3.270 -0.2313 -0.3128 -0.1103
 2379SOL     OW 9513   4.358   0.820   4.065  0.2634  0.2752  0.0910
 2379SOL    HW2 9514   4.346   0.780   4.151 -0.3531  0.8552  0.2771
 2379SOL    HW3 9515   4.273   0.859   4.045 -0.1018 -1.3220 -1.5315
 2379SOL    MW4 9516   4.345   0.820   4.074  0.1339  0.1410 -0.0985
 2380SOL     OW 9517   2.724   3.075   4.409  0.5260  0.0337  0.0974
 2380SOL    HW2 9518   2.764   3.154   4.372 -1.5372 -0.8784 -4.4360
 2380SOL    HW3 9519   2.792   3.008   4.401  0.8127  0.3422 -0.0574
 2380SOL    MW4 9520   2.739   3.076   4.403  0.2916 -0.0459 -0.5211
 2381SOL     OW 9521   1.572   4.350   4.381  0.0599 -0.3936 -0.0396
 2381SOL    HW2 9522   1.607   4.283   4.440 -1.1294 -1.3385 -0.3848
 2381SOL    HW3 9523   1.619   4.337   4.299  0.9959  0.2648  0.3889
 2381SOL    MW4 9524   1.583   4.339   4.378  0.0265 -0.4314 -0.0286
 2382SOL     OW 9525   0.682   0.491   2.864  0.1215 -0.0441 -0.0553
 2382SOL    HW2 9526   0.685   0.578   2.905  0.4922  0.1081 -0.4006
 2382SOL    HW3 9527   0.752   0.442   2.908  0.8132  0.2559 -0.8063
 2382SOL    MW4 9528   0.692   0.496   2.875  0.2616  0.0156 -0.1999
 2383SOL     OW 9529   2.703   3.230   3.337  0.0744 -0.1427  0.3357
 2383SOL    HW2 9530   2.704   3.324   3.318  0.9200 -0.2864 -0.3926
 2383SOL    HW3 9531   2.620   3.200   3.302  0.4564  0.0779 -0.8047
 2383SOL    MW4 9532   2.692   3.239   3.330  0.2363 -0.1326  0.0892
 2384SOL     OW 9533   2.774   3.834   4.021  0.0076 -0.1979  0.2925
 2384SOL    HW2 9534   2.707   3.866   4.081  0.7219  0.2700  0.8509
 2384SOL    HW3 9535   2.726   3.809   3.942 -0.7296  0.8054  0.4221
 2384SOL    MW4 9536   2.759   3.835   4.019  0.0046 -0.0038  0.3833
 2385SOL     OW 9537   3.344   1.193   3.645 -0.5506  0.0648 -0.0617
 2385SOL    HW2 9538   3.346   1.221   3.553  0.1404 -0.6163 -0.2552
 2385SOL    HW3 9539   3.254   1.211   3.673 -0.6878  0.5481 -0.7821
 2385SOL    MW4 9540   3.332   1.199   3.636 -0.4775  0.0387 -0.1823
 2386SOL     OW 9541   0.951   1.822   3.271  0.1238  0.0036  0.0134
 2386SOL    HW2 9542   0.943   1.736   3.313  1.8053  0.5352  1.4952
 2386SOL    HW3 9543   0.888   1.877   3.317 -0.5296 -0.2694 -0.5382
 2386SOL    MW4 9544   0.942   1.818   3.282  0.2595  0.0377  0.1361
 2387SOL     OW 9545   3.458   2.420   4.434  0.2038 -0.2574  0.0294
 2387SOL    HW2 9546   3.546   2.409   4.397  1.5657 -0.2969  3.0580
 2387SOL    HW3 9547   3.457   2.361   4.510 -0.6057  3.3481  2.9767
 2387SOL    MW4 9548   3.470   2.411   4.439  0.2767  0.2131  0.8179
 2388SOL     OW 9549   4.057   0.417   3.272  0.3901 -0.2134  0.1247
 2388SOL    HW2 9550   4.030   0.394   3.183 -3.3447  3.6252  0.0970
 2388SOL    HW3 9551   4.037   0.339   3.324 -1.9223 -0.8586 -1.6270
 2388SOL    MW4 9552   4.051   0.404   3.267 -0.4078  0.2079 -0.1101
 2389SOL     OW 9553   3.940   1.345   4.214  0.1817  0.3980  0.0879
 2389SOL    HW2 9554   3.984   1.382   4.138  0.0265  0.4702  0.0326
 2389SOL    HW3 9555   4.004   1.353   4.285  1.2903 -2.0243 -0.6015
 2389SOL    MW4 9556   3.955   1.351   4.214  0.3075  0.0880 -0.0104
 2390SOL     OW 9557   1.668   3.926   4.019 -0.0340  0.6118  0.1567
 2390SOL    HW2 9558   1.701   3.993   4.079 -0.3013  0.2453  0.7260
 2390SOL    HW3 9559   1.737   3.915   3.954  0.4345  0.7370  0.6284
 2390SOL    MW4 9560   1.681   3.934   4.018 -0.0074  0.5800  0.2941
 2391SOL     OW 9561   2.583   2.822   4.068 -0.1895  0.1218  0.1049
 2391SOL    HW2 9562   2.509   2.839   4.009 -0.9769 -1.2638  0.6580
 2391SOL    HW3 9563   2.559   2.867   4.149 -0.6254 -0.6769  0.4204
 2391SOL    MW4 9564   2.570   2.830   4.071 -0.3509 -0.1664  0.2195
 2392SOL     OW 9565   3.040   2.358   3.618 -0.6031 -0.0940  0.2433
 2392SOL    HW2 9566   3.129   2.338   3.648 -0.9891 -2.0277  0.1969
 2392SOL    HW3 9567   3.051   2.397   3.532  0.1785 -1.0533 -0.1030
 2392SOL    MW4 9568   3.053   2.361   3.611 -0.5509 -0.4757  0.1915
 2393SOL     OW 9569   3.349   3.031   3.738 -0.1114 -0.0714 -0.3424
 2393SOL    HW2 9570   3.431   3.050   3.692 -0.1013  0.5330 -0.0722
 2393SOL    HW3 9571   3.327   2.942   3.710  1.2051 -0.6610  0.4051
 2393SOL    MW4 9572   3.357   3.022   3.729  0.0636 -0.0694 -0.2081
 2394SOL     OW 9573   2.929   2.905   4.324  0.2699  0.1207  0.4072
 2394SOL    HW2 9574   2.990   2.936   4.391  1.5744 -0.5919 -0.4239
 2394SOL    HW3 9575   2.964   2.942   4.242 -0.3617 -0.3698 -0.0880
 2394SOL    MW4 9576   2.942   2.914   4.322  0.3587 -0.0381  0.2322
 2395SOL     OW 9577   1.009   3.937   4.067  0.3862  0.1646  0.2838
 2395SOL    HW2 9578   0.973   4.007   4.122  0.3491 -1.9002  3.0079
 2395SOL    HW3 9579   0.936   3.878   4.052  0.6190  0.2474 -1.3075
 2395SOL    MW4 9580   0.995   3.939   4.072  0.4120 -0.0969  0.4332
 2396SOL     OW 9581   2.568   1.292   4.110  0.3666  0.2212  0.0793
 2396SOL    HW2 9582   2.522   1.224   4.061 -0.2713  1.9476 -1.7658
 2396SOL    HW3 9583   2.544   1.374   4.067  0.3634  1.7469  2.8213
 2396SOL    MW4 9584   2.558   1.294   4.098  0.2820  0.6503  0.1977
 2397SOL     OW 9585   1.828   1.474   4.019  0.0048 -0.3733  0.4504
 2397SOL    HW2 9586   1.829   1.567   4.041  0.0078 -0.0502 -0.8329
 2397SOL    HW3 9587   1.892   1.466   3.948 -0.2556 -1.2822  0.3168
 2397SOL    MW4 9588   1.837   1.486   4.012 -0.0292 -0.4506  0.2635
 2398SOL     OW 9589   4.242   0.304   4.599  0.0475  0.0158 -0.5141
 2398SOL    HW2 9590   4.244   0.345   4.686 -0.0561 -0.2969 -0.3648
 2398SOL    HW3 9591   4.153   0.271   4.590  0.7994 -2.3104  0.3547
 2398SOL    MW4 9592   4.230   0.305   4.609  0.1330 -0.3324 -0.3798
 2399SOL     OW 9593   1.869   1.198   4.357 -0.3116  0.2128  0.5783
 2399SOL    HW2 9594   1.885   1.291   4.374 -1.4669  0.6569 -0.7013
 2399SOL    HW3 9595   1.786   1.196   4.310 -0.8730 -1.5723  1.6178
 2399SOL    MW4 9596   1.860   1.210   4.353 -0.5381  0.0359  0.5466
 2400SOL     OW 9597   2.013   0.697   3.287 -0.0391  0.1658 -0.0238
 2400SOL    HW2 9598   2.014   0.604   3.307 -0.0948  0.3444  0.8506
 2400SOL    HW3 9599   2.021   0.702   3.192 -0.4618 -0.7389 -0.1094
 2400SOL    MW4 9600   2.014   0.685   3.277 -0.1022  0.0700  0.0802
 2401SOL     OW 9601   2.994   0.961   4.539  0.1755 -0.2697  0.0799
 2401SOL    HW2 9602   3.066   1.018   4.512  0.6001 -0.9329 -0.1823
 2401SOL    HW3 9603   2.916   1.001   4.500  0.6297 -0.5458 -1.1201
 2401SOL    MW4 9604   2.993   0.974   4.531  0.2914 -0.3936 -0.1130
 2402SOL     OW 9605   3.122   3.314   4.353 -0.5117  0.0319  0.2328
 2402SOL    HW2 9606   3.135   3.304   4.259 -0.8834  1.5855  0.0085
 2402SOL    HW3 9607   3.160   3.399   4.374 -0.9801 -0.0342  1.3820
 2402SOL    MW4 9608   3.129   3.324   4.343 -0.6226  0.2281  0.3548
 2403SOL     OW 9609   4.351   0.626   3.619 -0.3149 -0.1268  0.1787
 2403SOL    HW2 9610   4.292   0.700   3.634 -1.0145 -0.3986 -1.1233
 2403SOL    HW3 9611   4.410   0.627   3.694 -1.9000  0.2138  1.4503
 2403SOL    MW4 9612   4.351   0.636   3.631 -0.6163 -0.1178  0.1747
 2404SOL     OW 9613   0.770   2.227   3.714  0.1685 -0.3111  0.6001
 2404SOL    HW2 9614   0.816   2.310   3.697  0.6018 -0.9354 -1.3280
 2404SOL    HW3 9615   0.679   2.246   3.694  0.5102 -0.7353 -1.4814
 2404SOL    MW4 9616   0.764   2.241   3.709  0.2707 -0.4494  0.0711
 2405SOL     OW 9617   1.068   1.838   3.711  0.8790  0.3556  0.1853
 2405SOL    HW2 9618   0.984   1.864   3.674  0.5142 -1.2106 -0.1072
 2405SOL    HW3 9619   1.101   1.770   3.652  1.2583 -0.6924  1.5631
 2405SOL    MW4 9620   1.061   1.832   3.699  0.8809  0.0107  0.3285
 2406SOL     OW 9621   0.233   1.953   4.606 -0.4443  0.1052  0.3660
 2406SOL    HW2 9622   0.214   1.932   4.514 -0.3721 -0.4225  0.4657
 2406SOL    HW3 9623   0.302   1.891   4.630  0.0823  0.7626  0.5496
 2406SOL    MW4 9624   0.239   1.942   4.597 -0.3653  0.1223  0.4034
 2407SOL     OW 9625   0.127   1.917   4.327  0.1153  0.1308  0.1203
 2407SOL    HW2 9626   0.053   1.968   4.295 -0.1716  0.2282  0.9353
 2407SOL    HW3 9627   0.202   1.951   4.279 -0.3762 -0.0110 -0.7585
 2407SOL    MW4 9628   0.127   1.928   4.316  0.0126  0.1249  0.1119
 2408SOL     OW 9629   2.753   1.061   4.411 -0.2685 -0.1058  0.2576
 2408SOL    HW2 9630   2.773   1.140   4.361 -0.2294 -0.2289  0.0813
 2408SOL    HW3 9631   2.731   0.995   4.346  1.7211 -0.8373  0.2736
 2408SOL    MW4 9632   2.753   1.063   4.396 -0.0008 -0.2186  0.2364
 2409SOL     OW 9633   3.121   0.635   4.162 -0.1746  0.5494  0.5450
 2409SOL    HW2 9634   3.078   0.666   4.242  0.7138 -0.0955  1.2831
 2409SOL    HW3 9635   3.183   0.704   4.139 -1.1047  1.1685 -0.1330
 2409SOL    MW4 9636   3.123   0.648   4.169 -0.1801  0.5460  0.5529
 2410SOL     OW 9637   3.561   0.752   4.023 -0.0168 -0.0826 -0.4548
 2410SOL    HW2 9638   3.627   0.806   4.066 -0.7973  1.0286 -0.6241
 2410SOL    HW3 9639   3.597   0.664   4.026  0.4209  0.1366  1.5387
 2410SOL    MW4 9640   3.574   0.748   4.029 -0.0621  0.0929 -0.2141
 2411SOL     OW 9641   4.289   2.079   4.554 -0.4939 -0.2500  0.7536
 2411SOL    HW2 9642   4.335   2.080   4.470  0.8445  0.3660  1.4789
 2411SOL    HW3 9643   4.197   2.089   4.532 -0.2339 -0.9559 -0.6965
 2411SOL    MW4 9644   4.283   2.080   4.540 -0.2830 -0.2618  0.6580
 2412SOL     OW 9645   1.225   1.468   3.795  0.3872 -0.3293  0.1683
 2412SOL    HW2 9646   1.209   1.403   3.726 -0.2437 -1.6433  1.5471
 2412SOL    HW3 9647   1.258   1.545   3.747 -1.2348 -0.7653 -1.7347
 2412SOL    MW4 9648   1.228   1.470   3.779  0.0900 -0.5602  0.0991
 2413SOL     OW 9649   1.151   1.060   3.867  0.0528  0.5210  0.1761
 2413SOL    HW2 9650   1.143   1.135   3.808 -0.7745 -0.3359 -0.8308
 2413SOL    HW3 9651   1.186   1.096   3.948 -1.3393  2.1599  0.0595
 2413SOL    MW4 9652   1.154   1.075   3.870 -0.2401  0.6241  0.0278
 2414SOL     OW 9653   1.328   0.173   3.997 -0.0842 -0.1852  0.1240
 2414SOL    HW2 9654   1.252   0.143   3.947 -0.6692 -0.5177  1.1774
 2414SOL    HW3 9655   1.354   0.255   3.956 -1.7220  0.5127  0.4366
 2414SOL    MW4 9656   1.321   0.180   3.985 -0.3775 -0.1370  0.3042
 2415SOL     OW 9657   3.211   0.429   4.344  0.1063  0.0003  0.8655
 2415SOL    HW2 9658   3.305   0.411   4.349  0.0377 -0.3872  0.7665
 2415SOL    HW3 9659   3.204   0.510   4.293  0.3142 -0.6435 -0.1971
 2415SOL    MW4 9660   3.222   0.437   4.338  0.1246 -0.1358  0.7123
 2416SOL     OW 9661   1.919   1.478   4.422 -0.2130  0.8433  0.1294
 2416SOL    HW2 9662   1.863   1.547   4.389 -0.8178  1.1116  1.6648
 2416SOL    HW3 9663   1.902   1.476   4.516  0.6076 -0.6519  0.2681
 2416SOL    MW4 9664   1.909   1.487   4.430 -0.1845  0.6814  0.3503
 2417SOL     OW 9665   2.196   1.536   4.350  0.0837 -0.1176  0.1815
 2417SOL    HW2 9666   2.118   1.499   4.392 -0.6886 -0.6105 -1.6275
 2417SOL    HW3 9667   2.269   1.489   4.390 -0.5511  0.1057  1.6535
 2417SOL    MW4 9668   2.195   1.525   4.361 -0.1019 -0.1532  0.1370
 2418SOL     OW 9669   1.670   3.924   4.673  0.1007 -0.4654  0.1812
 2418SOL    HW2 9670   1.576   3.915   4.661  0.3729 -0.9178 -1.8279
 2418SOL    HW3 9671   1.703   3.834   4.676  0.5306 -0.3068  0.3265
 2418SOL    MW4 9672   1.662   3.911   4.672  0.1934 -0.5042 -0.0647
 2419SOL     OW 9673   2.264   3.836   3.575 -0.2735 -0.2983 -0.2603
 2419SOL    HW2 9674   2.179   3.873   3.598 -0.2983 -0.8306  0.5320
 2419SOL    HW3 9675   2.268   3.843   3.479 -0.3112  1.6303 -0.1429
 2419SOL    MW4 9676   2.253   3.842   3.565 -0.2817 -0.1141 -0.1403
 2420SOL     OW 9677   0.527   0.465   4.570  0.2545 -0.1819  0.1020
 2420SOL    HW2 9678   0.512   0.556   4.594  0.1269 -0.3822  0.7869
 2420SOL    HW3 9679   0.516   0.463   4.475 -0.1494  0.4316  0.1348
 2420SOL    MW4 9680   0.524   0.477   4.561  0.1844 -0.1274  0.1967
 2421SOL     OW 9681   1.330   4.157   3.836 -0.2006  0.4945 -0.1174
 2421SOL    HW2 9682   1.325   4.247   3.804 -1.9709 -0.1920 -1.8444
 2421SOL    HW3 9683   1.240   4.133   3.857  0.3516 -0.6301  1.1069
 2421SOL    MW4 9684   1.318   4.166   3.835 -0.3613  0.2555 -0.1837
 2422SOL     OW 9685   3.609   2.092   4.645  0.2829 -0.1612 -0.3072
 2422SOL    HW2 9686   3.650   2.041   4.715 -0.3920 -1.0709 -0.5615
 2422SOL    HW3 9687   3.643   2.053   4.564  1.3949  1.1647 -0.4948
 2422SOL    MW4 9688   3.619   2.080   4.644  0.3406 -0.1063 -0.3655
 2423SOL     OW 9689   2.484   0.796   3.951  0.1826 -0.0768 -0.0804
 2423SOL    HW2 9690   2.515   0.781   3.862 -1.0073  1.1262 -0.7176
 2423SOL    HW3 9691   2.400   0.750   3.955 -0.6470  1.4005 -0.1825
 2423SOL    MW4 9692   2.477   0.788   3.940 -0.0839  0.2769 -0.1779
 2424SOL     OW 9693   1.630   2.359   3.285  0.0062 -0.2070  0.0639
 2424SOL    HW2 9694   1.648   2.266   3.302  1.2534  0.0560  0.2107
 2424SOL    HW3 9695   1.619   2.364   3.190  0.0455 -0.4865  0.0447
 2424SOL    MW4 9696   1.631   2.347   3.275  0.1760 -0.2092  0.0807
 2425SOL     OW 9697   3.123   4.399   3.460 -0.4515  0.0233  0.2488
 2425SOL    HW2 9698   3.056   4.458   3.426 -0.5452 -0.6004 -0.6670
 2425SOL    HW3 9699   3.168   4.367   3.382  0.8107  0.3015  0.8396
 2425SOL    MW4 9700   3.120   4.403   3.445 -0.2973 -0.0223  0.2059
 2426SOL     OW 9701   2.320   0.281   4.341 -0.4028  0.4387 -0.5391
 2426SOL    HW2 9702   2.342   0.359   4.392  0.3593 -1.7931  2.7397
 2426SOL    HW3 9703   2.227   0.265   4.360 -0.1977 -0.2220 -0.0459
 2426SOL    MW4 9704   2.311   0.289   4.351 -0.2752  0.0571 -0.0414
 2427SOL     OW 9705   3.779   3.622   3.640 -0.1817  0.6529  0.5087
 2427SOL    HW2 9706   3.803   3.613   3.548 -0.5612  0.5672  0.4137
 2427SOL    HW3 9707   3.835   3.559   3.685 -0.8156 -0.1625  0.1868
 2427SOL    MW4 9708   3.789   3.612   3.634 -0.3154  0.5340  0.4537
 2428SOL     OW 9709   1.354   0.253   3.687 -0.0019 -0.2104 -0.0471
 2428SOL    HW2 9710   1.290   0.319   3.660  0.3782 -0.2963 -1.1848
 2428SOL    HW3 9711   1.433   0.303   3.709  0.3952 -0.3047 -1.2379
 2428SOL    MW4 9712   1.356   0.269   3.686  0.1006 -0.2342 -0.3543
 2429SOL     OW 9713   1.311   0.771   4.314 -0.3505  0.3662 -0.5706
 2429SOL    HW2 9714   1.285   0.704   4.250 -0.9988  0.3273 -0.2751
 2429SOL    HW3 9715   1.312   0.724   4.397  1.2224  0.2371 -0.6444
 2429SOL    MW4 9716   1.308   0.756   4.316 -0.2285  0.3440 -0.5413
 2430SOL     OW 9717   2.438   3.436   4.395  0.7028  0.0107  0.1603
 2430SOL    HW2 9718   2.348   3.466   4.388  0.4879 -0.8537 -1.0012
 2430SOL    HW3 9719   2.491   3.516   4.390  0.0820  0.3426 -1.3092
 2430SOL    MW4 9720   2.433   3.451   4.393  0.5925 -0.0595 -0.1869
 2431SOL     OW 9721   0.161   2.561   4.611 -0.6165  0.0092  0.3797
 2431SOL    HW2 9722   0.167   2.631   4.676  0.9230  0.0869  0.1593
 2431SOL    HW3 9723   0.094   2.502   4.646 -2.3432  1.8381  0.3004
 2431SOL    MW4 9724   0.153   2.563   4.624 -0.6412  0.2608  0.3402
 2432SOL     OW 9725   2.459   2.444   4.322 -0.2671 -0.0574 -0.1894
 2432SOL    HW2 9726   2.480   2.485   4.237  0.2561  1.8410  0.8151
 2432SOL    HW3 9727   2.542   2.405   4.350  0.3218  1.8505  0.7853
 2432SOL    MW4 9728   2.473   2.444   4.314 -0.1203  0.4448  0.0718
 2433SOL     OW 9729   4.340   3.715   4.257 -0.0026  0.0730 -0.0771
 2433SOL    HW2 9730   4.334   3.691   4.349 -0.3827  0.6865  0.0603
 2433SOL    HW3 9731   4.361   3.633   4.212  1.3667 -0.0098  0.6893
 2433SOL    MW4 9732   4.342   3.701   4.263  0.1279  0.1430  0.0422
 2434SOL     OW 9733   2.265   1.838   4.009 -0.0978 -0.0199  0.1012
 2434SOL    HW2 9734   2.359   1.855   4.011 -0.0171 -0.4818  0.1745
 2434SOL    HW3 9735   2.242   1.820   4.100 -0.1702 -0.3852  0.0109
 2434SOL    MW4 9736   2.274   1.838   4.021 -0.0967 -0.1291  0.0989
 2435SOL     OW 9737   4.381   2.233   3.727  0.2842 -0.5324 -0.4944
 2435SOL    HW2 9738   4.458   2.191   3.766  1.5644  0.7992 -1.5400
 2435SOL    HW3 9739   4.359   2.303   3.788  0.6686 -0.1227 -0.8246
 2435SOL    MW4 9740   4.388   2.236   3.740  0.5038 -0.3027 -0.6759
 2436SOL     OW 9741   0.168   1.542   3.764 -0.4861 -0.5989  0.4233
 2436SOL    HW2 9742   0.188   1.457   3.724  0.9738 -0.1463  0.1650
 2436SOL    HW3 9743   0.074   1.553   3.750  0.1211 -0.0204 -3.8287
 2436SOL    MW4 9744   0.158   1.532   3.757 -0.2134 -0.4628 -0.1718
 2437SOL     OW 9745   0.703   3.901   4.395  0.0539  0.0050 -0.2139
 2437SOL    HW2 9746   0.781   3.955   4.383 -0.0254 -0.1558 -1.4992
 2437SOL    HW3 9747   0.670   3.886   4.307 -1.3536 -0.0606  0.3118
 2437SOL    MW4 9748   0.709   3.906   4.382 -0.1423 -0.0248 -0.3141
 2438SOL     OW 9749   0.883   0.122   4.735 -0.4669 -0.7208  0.2068
 2438SOL    HW2 9750   0.939   0.045   4.732 -1.1087 -1.1513 -1.0984
 2438SOL    HW3 9751   0.944   0.196   4.736  0.1374 -1.2168  0.4759
 2438SOL    MW4 9752   0.899   0.121   4.735 -0.4718 -0.8431  0.0701
 2439SOL     OW 9753   1.965   3.486   3.785 -0.0162 -0.2177 -0.5266
 2439SOL    HW2 9754   1.976   3.572   3.826  0.7481 -0.8557  0.6295
 2439SOL    HW3 9755   1.907   3.502   3.711 -0.5225  1.1483  0.1547
 2439SOL    MW4 9756   1.959   3.500   3.780  0.0178 -0.1217 -0.2842
 2440SOL     OW 9757   1.273   2.754   4.165 -0.1258 -0.4842 -0.6646
 2440SOL    HW2 9758   1.212   2.696   4.119 -1.4184  0.8137 -0.6333
 2440SOL    HW3 9759   1.315   2.804   4.096  0.5525 -1.0289 -0.6513
 2440SOL    MW4 9760   1.270   2.753   4.150 -0.2069 -0.3849 -0.6587
 2441SOL     OW 9761   2.506   1.357   3.666 -0.0093  0.1014  0.5584
 2441SOL    HW2 9762   2.524   1.350   3.572 -0.3413  1.7732  0.3530
 2441SOL    HW3 9763   2.431   1.300   3.681 -0.2438  0.1871 -0.2820
 2441SOL    MW4 9764   2.498   1.348   3.656 -0.0841  0.3333  0.4204
 2442SOL     OW 9765   2.600   3.646   4.308  0.5389 -0.2926 -0.3184
 2442SOL    HW2 9766   2.581   3.641   4.214  1.3299 -1.8135 -0.3997
 2442SOL    HW3 9767   2.627   3.737   4.321 -0.2017  0.1050 -1.4392
 2442SOL    MW4 9768   2.601   3.658   4.297  0.5455 -0.4408 -0.4770
 2443SOL     OW 9769   2.925   1.300   3.385  0.0683  0.7078 -0.6871
 2443SOL    HW2 9770   2.846   1.262   3.346 -0.1639  0.3192  0.1484
 2443SOL    HW3 9771   2.994   1.238   3.362  0.0020  0.6795 -0.8147
 2443SOL    MW4 9772   2.923   1.287   3.377  0.0289  0.6528 -0.5937
 2444SOL     OW 9773   0.413   2.662   3.266  0.1637  0.0532 -0.5061
 2444SOL    HW2 9774   0.412   2.661   3.171 -1.2010  1.7913 -0.5326
 2444SOL    HW3 9775   0.496   2.704   3.289  0.8581 -1.0899 -0.9040
 2444SOL    MW4 9776   0.424   2.668   3.257  0.0753  0.1317 -0.5621
 2445SOL     OW 9777   4.249   3.996   3.505 -0.0032  0.7964  0.3568
 2445SOL    HW2 9778   4.155   4.008   3.504 -0.1025  0.1291 -1.7454
 2445SOL    HW3 9779   4.261   3.906   3.536 -0.1055  0.5915 -0.1930
 2445SOL    MW4 9780   4.238   3.985   3.509 -0.0298  0.6813  0.0069
 2446SOL     OW 9781   2.366   1.598   3.660  0.5927  0.2268 -0.3807
 2446SOL    HW2 9782   2.411   1.515   3.647  1.0155  0.2680  0.7841
 2446SOL    HW3 9783   2.435   1.659   3.686  0.1118  0.6549 -0.0967
 2446SOL    MW4 9784   2.381   1.595   3.662  0.5850  0.2887 -0.1895
 2447SOL     OW 9785   2.477   0.087   3.646  0.1855  0.2570 -0.3178
 2447SOL    HW2 9786   2.533   0.121   3.576  1.7595  1.0086  1.2559
 2447SOL    HW3 9787   2.430   0.163   3.679  0.3946  0.1249  0.2874
 2447SOL    MW4 9788   2.478   0.101   3.641  0.4207  0.3387 -0.0303
 2448SOL     OW 9789   3.725   2.428   4.392 -0.2218  0.3302  0.6540
 2448SOL    HW2 9790   3.754   2.518   4.403  2.2452 -0.4372  0.7850
 2448SOL    HW3 9791   3.757   2.383   4.471  0.7456 -1.1547 -0.5564
 2448SOL    MW4 9792   3.733   2.434   4.404  0.2313  0.0330  0.5116
 2449SOL     OW 9793   4.021   3.179   3.352 -0.1713  0.2123  0.2516
 2449SOL    HW2 9794   4.002   3.271   3.333 -0.6020 -0.0542 -0.6141
 2449SOL    HW3 9795   4.052   3.179   3.443  1.6878  1.4745 -0.3451
 2449SOL    MW4 9796   4.023   3.191   3.362  0.0171  0.3437  0.0586
 2450SOL     OW 9797   3.431   0.707   4.335 -0.2022  0.0154  0.3920
 2450SOL    HW2 9798   3.452   0.615   4.349  3.5288  1.0442  2.2275
 2450SOL    HW3 9799   3.469   0.728   4.250  1.3103  0.4813  1.1673
 2450SOL    MW4 9800   3.439   0.698   4.326  0.4896  0.2126  0.7364
 2451SOL     OW 9801   2.826   4.339   3.587 -0.3025  0.0926  0.1812
 2451SOL    HW2 9802   2.786   4.327   3.501  0.3097  0.5600 -0.1648
 2451SOL    HW3 9803   2.829   4.433   3.599 -0.4943  0.0253  0.7700
 2451SOL    MW4 9804   2.821   4.350   3.577 -0.2470  0.1454  0.2132
 2452SOL     OW 9805   2.062   3.995   3.674  0.0211  0.0505  0.0725
 2452SOL    HW2 9806   2.053   4.088   3.653 -1.2382 -0.3962 -1.4871
 2452SOL    HW3 9807   1.986   3.975   3.729 -0.9545 -0.5426 -1.4553
 2452SOL    MW4 9808   2.051   4.005   3.679 -0.2738 -0.0867 -0.3348
 2453SOL     OW 9809   1.160   0.022   4.578 -0.1694  0.1681  0.0466
 2453SOL    HW2 9810   1.228  -0.029   4.534 -0.4525 -0.8512  0.7716
 2453SOL    HW3 9811   1.174   0.112   4.549  0.4840 -0.2917 -1.0632
 2453SOL    MW4 9812   1.171   0.028   4.569 -0.1205 -0.0270 -0.0042
 2454SOL     OW 9813   2.204   2.963   3.710 -0.1670 -0.8013  0.3559
 2454SOL    HW2 9814   2.257   2.909   3.769  0.8463 -0.0932  0.1026
 2454SOL    HW3 9815   2.133   2.905   3.683  1.2183 -2.1941 -0.3595
 2454SOL    MW4 9816   2.202   2.948   3.715  0.1495 -0.8916  0.2281
 2455SOL     OW 9817   1.349   4.543   4.409 -0.0960 -0.2581  0.0284
 2455SOL    HW2 9818   1.422   4.482   4.417 -0.1619 -0.4658 -0.9464
 2455SOL    HW3 9819   1.380   4.610   4.349 -1.0003 -0.7950 -1.0586
 2455SOL    MW4 9820   1.362   4.544   4.402 -0.2240 -0.3563 -0.2436
 2456SOL     OW 9821   0.445   4.666   4.329 -0.3477  0.0506  0.3701
 2456SOL    HW2 9822   0.450   4.719   4.409 -1.7787  1.2427 -0.3192
 2456SOL    HW3 9823   0.477   4.724   4.260 -0.3450 -0.5550 -0.1420
 2456SOL    MW4 9824   0.450   4.681   4.331 -0.5362  0.1280  0.2116
 2457SOL     OW 9825   2.767   0.840   4.236  0.0597 -0.0151 -0.2458
 2457SOL    HW2 9826   2.730   0.758   4.203 -0.1821 -0.4835  1.1648
 2457SOL    HW3 9827   2.764   0.899   4.161 -1.3991 -0.7533 -0.7933
 2457SOL    MW4 9828   2.762   0.837   4.221 -0.1647 -0.1743 -0.1319
 2458SOL     OW 9829   4.420   3.492   4.088 -0.2546  0.4705 -0.0846
 2458SOL    HW2 9830   4.385   3.419   4.138 -1.0432  0.7041 -0.2841
 2458SOL    HW3 9831   4.513   3.472   4.077 -0.8451 -1.4723 -1.7876
 2458SOL    MW4 9832   4.428   3.480   4.093 -0.4366  0.2450 -0.3356
 2459SOL     OW 9833   0.776   2.918   3.585  0.2560 -0.2052 -0.1274
 2459SOL    HW2 9834   0.854   2.868   3.609 -0.1232 -2.0779 -2.5618
 2459SOL    HW3 9835   0.809   3.007   3.569  1.4170 -0.3313  1.5083
 2459SOL    MW4 9836   0.791   2.923   3.586  0.3592 -0.4690 -0.2328
 2460SOL     OW 9837   1.858   2.927   3.848 -0.4680  0.0312 -0.4722
 2460SOL    HW2 9838   1.885   2.901   3.936  0.3401 -0.3514 -0.8302
 2460SOL    HW3 9839   1.769   2.891   3.838  0.1009 -1.4078 -0.4532
 2460SOL    MW4 9840   1.850   2.919   3.858 -0.2863 -0.2091 -0.5169
 2461SOL     OW 9841   2.249   1.006   4.379 -0.1303  0.0097 -0.4757
 2461SOL    HW2 9842   2.226   1.071   4.312 -1.2138 -0.1659 -0.2825
 2461SOL    HW3 9843   2.331   1.039   4.417 -0.4770  1.0692 -0.6344
 2461SOL    MW4 9844   2.257   1.019   4.375 -0.3190  0.1263 -0.4712
 2462SOL     OW 9845   3.001   4.217   3.767  0.3127  0.1718  0.1915
 2462SOL    HW2 9846   3.094   4.233   3.753  0.2858 -0.3466 -0.6268
 2462SOL    HW3 9847   2.957   4.284   3.714  0.2183 -0.4746 -0.5583
 2462SOL    MW4 9848   3.007   4.228   3.758  0.2967  0.0181 -0.0154
 2463SOL     OW 9849   4.275   0.603   3.926 -0.4726  0.3455  0.4069
 2463SOL    HW2 9850   4.192   0.602   3.973 -0.1705 -0.1160  0.9492
 2463SOL    HW3 9851   4.321   0.680   3.960 -0.5341  0.3970  0.3726
 2463SOL    MW4 9852   4.270   0.613   3.937 -0.4408  0.2914  0.4739
 2464SOL     OW 9853   4.128   2.895   3.949 -0.1360 -0.1564  0.4215
 2464SOL    HW2 9854   4.072   2.916   3.874  1.3822 -0.1744 -0.7475
 2464SOL    HW3 9855   4.174   2.977   3.969  0.1707 -0.3969  0.7155
 2464SOL    MW4 9856   4.127   2.909   3.941  0.1048 -0.1905  0.3060
 2465SOL     OW 9857   3.564   4.360   3.329  0.4969  0.1126  0.2278
 2465SOL    HW2 9858   3.585   4.301   3.257 -1.3747  1.1345 -1.2033
 2465SOL    HW3 9859   3.487   4.408   3.299  1.4044  2.6094  1.7230
 2465SOL    MW4 9860   3.557   4.359   3.316  0.3697  0.5769  0.2362
 2466SOL     OW 9861   1.153   2.568   3.747  0.0809  0.0115  0.6394
 2466SOL    HW2 9862   1.158   2.576   3.842  1.0565 -0.4059  0.6305
 2466SOL    HW3 9863   1.241   2.540   3.720 -0.1743  0.1503 -0.3848
 2466SOL    MW4 9864   1.165   2.566   3.756  0.1760 -0.0253  0.5031
 2467SOL     OW 9865   0.936   4.353   3.984  0.0525 -0.2817  0.1941
 2467SOL    HW2 9866   0.851   4.326   4.020 -0.1300  0.0559  0.0135
 2467SOL    HW3 9867   0.972   4.272   3.946 -0.8116 -0.1266 -0.9705
 2467SOL    MW4 9868   0.929   4.339   3.984 -0.0856 -0.2167  0.0166
 2468SOL     OW 9869   0.326   2.077   4.242  0.2627  0.3514 -0.6242
 2468SOL    HW2 9870   0.407   2.030   4.223  0.2142 -0.1633  0.4421
 2468SOL    HW3 9871   0.333   2.102   4.334 -0.2818  1.3024 -0.8362
 2468SOL    MW4 9872   0.337   2.074   4.251  0.1845  0.4090 -0.5115
 2469SOL     OW 9873   0.613   4.138   3.575  0.9833  0.7494  0.3889
 2469SOL    HW2 9874   0.553   4.063   3.584  2.1581 -0.1410  0.8707
 2469SOL    HW3 9875   0.607   4.162   3.483  1.2631 -0.5127  0.0341
 2469SOL    MW4 9876   0.604   4.131   3.564  1.1752  0.4654  0.4057
 2470SOL     OW 9877   1.459   3.691   3.772 -0.0563 -0.8615  0.5178
 2470SOL    HW2 9878   1.524   3.698   3.841 -0.5871 -0.6034  0.9961
 2470SOL    HW3 9879   1.443   3.781   3.744  0.6011 -1.0097 -0.3649
 2470SOL    MW4 9880   1.466   3.704   3.777 -0.0396 -0.8470  0.4645
 2471SOL     OW 9881   1.005   1.247   4.356  0.7429 -0.2722 -0.1174
 2471SOL    HW2 9882   1.033   1.337   4.370  1.4764 -0.6687  1.1163
 2471SOL    HW3 9883   1.084   1.195   4.371  0.2161 -1.1487 -0.3272
 2471SOL    MW4 9884   1.019   1.252   4.360  0.7702 -0.4402  0.0177
 2472SOL     OW 9885   2.447   2.560   3.616  0.1894  0.3788 -0.4858
 2472SOL    HW2 9886   2.445   2.654   3.600  1.0386  0.3275 -0.9109
 2472SOL    HW3 9887   2.396   2.522   3.544 -0.7361  0.5565  0.0658
 2472SOL    MW4 9888   2.440   2.567   3.605  0.1794  0.3955 -0.4691
 2473SOL     OW 9889   0.455   0.389   3.268  0.2307 -0.0728  0.3063
 2473SOL    HW2 9890   0.526   0.414   3.328  1.0972  0.6262 -0.9854
 2473SOL    HW3 9891   0.423   0.307   3.304 -1.3108  1.7866  3.4740
 2473SOL    MW4 9892   0.460   0.382   3.281  0.1416  0.2647  0.5539
 2474SOL     OW 9893   3.077   1.667   4.353 -0.1356  0.3447  0.0232
 2474SOL    HW2 9894   3.170   1.656   4.333 -0.0772 -1.1973  1.0356
 2474SOL    HW3 9895   3.062   1.762   4.349  1.4424  0.5886 -0.3025
 2474SOL    MW4 9896   3.087   1.678   4.350  0.0803  0.1734  0.1138
 2475SOL     OW 9897   3.242   0.063   4.285  0.0701  0.0763 -0.0785
 2475SOL    HW2 9898   3.153   0.078   4.317  0.1277 -0.0965  0.1633
 2475SOL    HW3 9899   3.244  -0.030   4.264  0.1766  0.0918 -0.1373
 2475SOL    MW4 9900   3.231   0.053   4.286  0.0918  0.0556 -0.0544
 2476SOL     OW 9901   3.154   2.308   4.279 -0.0727 -0.1311 -0.2240
 2476SOL    HW2 9902   3.171   2.399   4.303 -0.9300 -0.8387  3.2796
 2476SOL    HW3 9903   3.117   2.313   4.191  2.7137  2.6308 -1.3290
 2476SOL    MW4 9904   3.151   2.321   4.270  0.1818  0.1399  0.0924
 2477SOL     OW 9905   1.406   2.493   3.644 -0.3773  0.0619  0.3140
 2477SOL    HW2 9906   1.389   2.465   3.555 -2.3119  0.0675  0.6628
 2477SOL    HW3 9907   1.402   2.412   3.696 -1.2508  0.3193  0.6606
 2477SOL    MW4 9908   1.403   2.479   3.639 -0.7478  0.0966  0.4057
 2478SOL     OW 9909   2.950   3.628   4.060  0.1339 -0.3456 -0.2803
 2478SOL    HW2 9910   2.895   3.697   4.023  0.9661 -0.4945 -1.8279
 2478SOL    HW3 9911   2.944   3.640   4.155 -0.0448  1.5936 -0.5293
 2478SOL    MW4 9912   2.942   3.638   4.068  0.2201 -0.1094 -0.5173
 2479SOL     OW 9913   2.987   0.091   4.373  0.3672 -0.4232 -0.1756
 2479SOL    HW2 9914   2.966   0.182   4.393  0.3353 -0.8588  1.7945
 2479SOL    HW3 9915   2.903   0.046   4.372  0.4392 -0.5518 -0.5762
 2479SOL    MW4 9916   2.973   0.097   4.375  0.3725 -0.4976  0.0315
 2480SOL     OW 9917   2.856   1.612   4.016  0.1698 -0.3756  0.1465
 2480SOL    HW2 9918   2.931   1.591   3.960 -1.2731 -0.4692 -1.7947
 2480SOL    HW3 9919   2.879   1.575   4.102  1.7505 -1.6111 -0.7832
 2480SOL    MW4 9920   2.869   1.604   4.020  0.1880 -0.5510 -0.2323
 2481SOL     OW 9921   1.194   2.322   4.390  0.4107 -0.1004 -0.0661
 2481SOL    HW2 9922   1.201   2.233   4.424 -0.2487 -0.0399  0.2338
 2481SOL    HW3 9923   1.242   2.320   4.307  1.4551 -0.4203  0.5344
 2481SOL    MW4 9924   1.201   2.310   4.384  0.4615 -0.1346  0.0527
 2482SOL     OW 9925   3.363   0.504   3.338  0.5720  0.0715 -0.3820
 2482SOL    HW2 9926   3.357   0.589   3.294  0.5162  1.0751  1.5096
 2482SOL    HW3 9927   3.293   0.452   3.300  0.1202  1.1385 -1.0203
 2482SOL    MW4 9928   3.353   0.509   3.327  0.5051  0.3447 -0.2167
 2483SOL     OW 9929   0.780   2.342   4.128  0.6178  0.3448 -0.1373
 2483SOL    HW2 9930   0.807   2.434   4.126  0.4205  0.4196  0.5045
 2483SOL    HW3 9931   0.813   2.309   4.212  0.9047 -0.2355 -0.4768
 2483SOL    MW4 9932   0.788   2.350   4.139  0.6296  0.2781 -0.0974
 2484SOL     OW 9933   1.042   2.045   4.124  0.0971  0.1718 -0.3472
 2484SOL    HW2 9934   0.969   2.076   4.070  0.4636  0.2565 -0.7987
 2484SOL    HW3 9935   1.001   2.019   4.207 -0.3138  1.1122 -0.2553
 2484SOL    MW4 9936   1.027   2.045   4.128  0.0913  0.3071 -0.3946
 2485SOL     OW 9937   0.682   1.507   3.304 -0.0141  0.1852 -0.0949
 2485SOL    HW2 9938   0.593   1.536   3.322  0.1383 -0.6592  2.1421
 2485SOL    HW3 9939   0.685   1.416   3.333  1.6320  0.2553  0.0510
 2485SOL    MW4 9940   0.671   1.499   3.310  0.2232  0.0830  0.2195
 2486SOL     OW 9941   2.338   2.203   4.292  0.1927 -0.2291 -0.7101
 2486SOL    HW2 9942   2.376   2.290   4.306  1.1540 -1.0337  1.9783
 2486SOL    HW3 9943   2.249   2.211   4.324 -0.1289  0.1081 -1.6781
 2486SOL    MW4 9944   2.332   2.216   4.299  0.2771 -0.2908 -0.4831
 2487SOL     OW 9945   0.194   0.692   4.070 -0.4446 -0.2485 -0.6115
 2487SOL    HW2 9946   0.169   0.782   4.091 -0.6208 -0.1626 -1.1853
 2487SOL    HW3 9947   0.215   0.653   4.154  0.0103  0.4444 -0.3962
 2487SOL    MW4 9948   0.194   0.699   4.084 -0.4079 -0.1458 -0.6588
 2488SOL     OW 9949   2.930   2.200   4.465 -0.2554  0.2895 -0.2659
 2488SOL    HW2 9950   2.982   2.192   4.385 -0.9037 -0.6800 -0.5949
 2488SOL    HW3 9951   2.992   2.232   4.531  0.3388  0.8489 -1.0869
 2488SOL    MW4 9952   2.945   2.203   4.463 -0.2625  0.2354 -0.4176
 2489SOL     OW 9953   3.352   3.094   4.003  0.4216 -0.2391 -0.5869
 2489SOL    HW2 9954   3.373   3.063   3.915 -1.0140 -2.3376 -0.2340
 2489SOL    HW3 9955   3.317   3.017   4.048  0.8721  0.8579  1.7446
 2489SOL    MW4 9956   3.350   3.079   3.998  0.2916 -0.3712 -0.2327
 2490SOL     OW 9957   3.502   2.683   4.511  0.1243  0.3043 -0.3872
 2490SOL    HW2 9958   3.438   2.709   4.578 -0.7550 -0.0842 -1.0655
 2490SOL    HW3 9959   3.480   2.593   4.490  1.9062 -0.3535  0.4958
 2490SOL    MW4 9960   3.491   2.675   4.517  0.2434  0.1662 -0.3602
 2491SOL     OW 9961   0.669   2.805   4.334 -1.0435 -0.1029 -0.0901
 2491SOL    HW2 9962   0.633   2.877   4.282 -1.7764 -0.1476  0.3424
 2491SOL    HW3 9963   0.608   2.732   4.318 -0.6729 -0.4311 -0.0085
 2491SOL    MW4 9964   0.656   2.805   4.325 -1.0913 -0.1521 -0.0223
 2492SOL     OW 9965   3.953   3.337   4.615  0.6376  0.3165  0.3563
 2492SOL    HW2 9966   3.857   3.343   4.618  0.5757  0.0254 -0.6385
 2492SOL    HW3 9967   3.984   3.411   4.666 -0.1230  0.1557  1.0642
 2492SOL    MW4 9968   3.944   3.348   4.622  0.5290  0.2569  0.3184
 2493SOL     OW 9969   1.614   2.495   4.040 -0.1918 -0.1838 -0.1783
 2493SOL    HW2 9970   1.574   2.411   4.064 -0.6850  0.1190  0.0578
 2493SOL    HW3 9971   1.572   2.559   4.097 -1.0792  0.4821 -1.5376
 2493SOL    MW4 9972   1.603   2.492   4.050 -0.3739 -0.0560 -0.3265
 2494SOL     OW 9973   4.297   2.832   4.238  0.3358 -0.2830  0.3812
 2494SOL    HW2 9974   4.216   2.826   4.289 -0.0561 -0.9541 -0.3096
 2494SOL    HW3 9975   4.358   2.878   4.296  0.1326 -1.6997  1.7686
 2494SOL    MW4 9976   4.294   2.837   4.252  0.2573 -0.5584  0.4731
 2495SOL     OW 9977   1.937   2.864   4.400 -0.1354  0.3987  0.6115
 2495SOL    HW2 9978   1.854   2.887   4.358  0.5979 -0.0047 -1.1101
 2495SOL    HW3 9979   1.920   2.781   4.444 -0.2356 -0.4638 -1.0371
 2495SOL    MW4 9980   1.924   2.856   4.400 -0.0519  0.2317  0.1669
 2496SOL     OW 9981   0.567   0.375   3.954 -0.0753  0.1394  0.3162
 2496SOL    HW2 9982   0.657   0.387   3.983 -0.6269  1.1961  1.6118
 2496SOL    HW3 9983   0.524   0.458   3.972 -1.9387 -1.1322  1.9892
 2496SOL    MW4 9984   0.573   0.387   3.960 -0.3939  0.1110  0.7079
 2497SOL     OW 9985   0.093   0.998   4.051 -0.0038  0.4236 -0.0397
 2497SOL    HW2 9986   0.093   1.046   3.968 -1.6315 -0.8371 -0.7852
 2497SOL    HW3 9987   0.012   0.947   4.050 -0.1313  0.5209  2.4141
 2497SOL    MW4 9988   0.083   0.998   4.040 -0.2354  0.2701  0.1857
 2498SOL     OW 9989   1.644   4.399   4.094  0.0111 -0.2683  0.6680
 2498SOL    HW2 9990   1.620   4.319   4.046 -0.1214  0.2278 -0.1039
 2498SOL    HW3 9991   1.561   4.447   4.102  0.2031  0.0836  0.5637
 2498SOL    MW4 9992   1.630   4.395   4.088  0.0190 -0.1564  0.5524
 2499SOL     OW 9993   3.879   1.097   4.071 -0.0018  0.7144  0.0308
 2499SOL    HW2 9994   3.913   1.179   4.107  0.2131  1.5244 -1.9385
 2499SOL    HW3 9995   3.830   1.123   3.993 -0.0084 -1.0139 -0.5791
 2499SOL    MW4 9996   3.877   1.111   4.066  0.0256  0.5932 -0.3095
 2500SOL     OW 9997   2.737   1.869   3.976  0.0121 -0.5296 -0.5021
 2500SOL    HW2 9998   2.766   1.779   3.988  1.3058  0.2625  3.0235
 2500SOL    HW3 9999   2.815   1.915   3.944  0.0871 -0.1984  0.1409
 2500SOL    MW410000   2.751   1.863   3.973  0.1927 -0.3814  0.0479
 2501SOL     OW10001   1.155   4.384   3.403 -0.0415  0.3207 -0.3388
 2501SOL    HW210002   1.131   4.457   3.347  1.1266 -0.0194 -1.2869
 2501SOL    HW310003   1.084   4.320   3.391 -0.5842  0.8971 -0.2176
 2501SOL    MW410004   1.142   4.385   3.394  0.0410  0.3518 -0.4479
 2502SOL     OW10005   1.565   0.364   3.888  0.5778 -0.4278 -0.0843
 2502SOL    HW210006   1.598   0.276   3.875 -1.6552 -1.1234 -1.2941
 2502SOL    HW310007   1.571   0.406   3.802 -1.3543 -0.4820 -0.2686
 2502SOL    MW410008   1.570   0.358   3.875  0.0282 -0.5267 -0.2683
 2503SOL     OW10009   2.582   3.066   3.743  0.1590 -0.4456 -0.1160
 2503SOL    HW210010   2.627   3.138   3.698  0.5016 -0.4630  0.1978
 2503SOL    HW310011   2.517   3.109   3.798  0.4471 -0.3659  0.1656
 2503SOL    MW410012   2.580   3.081   3.744  0.2422 -0.4374 -0.0375
 2504SOL     OW10013   2.872   2.767   3.645 -0.7596 -0.2263  0.1314
 2504SOL    HW210014   2.826   2.824   3.706  0.3151  1.0328 -0.2114
 2504SOL    HW310015   2.817   2.688   3.640 -1.6251  0.2644  1.5483
 2504SOL    MW410016   2.858   2.764   3.652 -0.7320  0.0046  0.2731
 2505SOL     OW10017   1.049   2.804   3.644  0.2558  0.0267  0.2564
 2505SOL    HW210018   1.084   2.730   3.695 -1.6773 -0.8544  0.3382
 2505SOL    HW310019   1.078   2.787   3.555 -0.3510 -0.9554  0.2396
 2505SOL    MW410020   1.057   2.792   3.639 -0.0793 -0.2192  0.2650
 2506SOL     OW10021   2.272   1.416   4.126  0.1881  0.7169 -0.1415
 2506SOL    HW210022   2.232   1.476   4.189  0.6689  0.9997 -0.1097
 2506SOL    HW310023   2.243   1.447   4.041  1.2043  1.5680 -0.1855
 2506SOL    MW410024   2.263   1.428   4.123  0.3856  0.8665 -0.1431
 2507SOL     OW10025   1.434   0.081   4.233 -0.0158  0.5317 -0.0738
 2507SOL    HW210026   1.529   0.073   4.227 -0.2020 -0.8155 -1.6933
 2507SOL    HW310027   1.407   0.111   4.146 -1.1358  0.0424  0.0866
 2507SOL    MW410028   1.443   0.084   4.221 -0.1881  0.2894 -0.2663
 2508SOL     OW10029   0.663   3.557   3.911 -0.1579  0.4535  0.4282
 2508SOL    HW210030   0.690   3.470   3.879  0.9424  0.6466  0.7957
 2508SOL    HW310031   0.620   3.597   3.836  1.8277  0.6454 -0.6401
 2508SOL    MW410032   0.661   3.551   3.897  0.2493  0.5043  0.3358
 2509SOL     OW10033   1.122   0.479   3.386 -0.0119  0.6287  0.0953
 2509SOL    HW210034   1.196   0.429   3.350  0.1920  0.1994  1.0867
 2509SOL    HW310035   1.045   0.430   3.359  0.2161 -0.6056  1.6098
 2509SOL    MW410036   1.122   0.466   3.378  0.0451  0.4092  0.4259
 2510SOL     OW10037   0.605   3.663   3.396  0.0449  0.3970 -0.6879
 2510SOL    HW210038   0.600   3.747   3.351 -2.3964  0.4368 -0.4270
 2510SOL    HW310039   0.600   3.684   3.489 -0.3672 -0.0034 -0.6127
 2510SOL    MW410040   0.604   3.677   3.402 -0.3316  0.3494 -0.6436
 2511SOL     OW10041   0.476   2.484   3.796  0.3368 -0.2064  0.0269
 2511SOL    HW210042   0.382   2.497   3.783  0.4083  0.0128 -0.2799
 2511SOL    HW310043   0.487   2.484   3.891  0.1406  0.6449  0.0520
 2511SOL    MW410044   0.465   2.486   3.807  0.3203 -0.0652 -0.0103
 2512SOL     OW10045   1.113   3.221   3.839 -0.1833 -0.2152 -0.0302
 2512SOL    HW210046   1.180   3.279   3.877  1.0878 -1.0008 -1.0278
 2512SOL    HW310047   1.072   3.179   3.914 -0.0516  0.8153  0.6310
 2512SOL    MW410048   1.117   3.223   3.854  0.0018 -0.1829 -0.0746
 2513SOL     OW10049   3.954   3.756   3.989 -0.1515  0.0409  0.2260
 2513SOL    HW210050   3.999   3.671   3.988 -0.4576 -0.1231  0.3081
 2513SOL    HW310051   3.977   3.795   4.073 -0.6583 -0.3147  0.5373
 2513SOL    MW410052   3.963   3.750   4.000 -0.2587 -0.0276  0.2779
 2514SOL     OW10053   0.418   1.462   4.621 -0.3246  0.0549  0.5066
 2514SOL    HW210054   0.337   1.477   4.571 -0.2384  1.0021  0.6452
 2514SOL    HW310055   0.388   1.420   4.702 -0.4187 -1.9772 -0.5242
 2514SOL    MW410056   0.403   1.458   4.625 -0.3256 -0.0882  0.3889
 2515SOL     OW10057   4.175   4.066   4.162  0.0192 -0.1679  0.0906
 2515SOL    HW210058   4.193   4.110   4.245  0.2915 -0.2623  0.0806
 2515SOL    HW310059   4.258   4.026   4.137  0.5753  1.8084 -1.3908
 2515SOL    MW410060   4.188   4.067   4.170  0.1285  0.0804 -0.1062
 2516SOL     OW10061   3.146   0.887   3.419  0.3907 -0.5393  0.3187
 2516SOL    HW210062   3.149   0.971   3.373 -1.3152 -1.0158 -0.6954
 2516SOL    HW310063   3.181   0.907   3.506  0.8753  1.0139 -0.2073
 2516SOL    MW410064   3.151   0.901   3.425  0.2296 -0.3972  0.1155
 2517SOL     OW10065   1.988   2.836   3.612 -0.0548  0.4041  0.1202
 2517SOL    HW210066   1.952   2.876   3.691 -0.5001  0.5364 -0.1490
 2517SOL    HW310067   1.972   2.742   3.623 -2.7987  0.6889 -1.1571
 2517SOL    MW410068   1.981   2.829   3.623 -0.4756  0.4591 -0.0838
 2518SOL     OW10069   2.099   4.667   4.139  0.4416 -0.3888 -0.0520
 2518SOL    HW210070   2.047   4.617   4.202 -1.2419  0.2312 -0.9102
 2518SOL    HW310071   2.069   4.757   4.150  0.8106 -0.1351 -1.0824
 2518SOL    MW410072   2.088   4.672   4.148  0.2682 -0.2735 -0.3012
 2519SOL     OW10073   4.420   4.319   4.262  0.0903  0.3530 -0.6669
 2519SOL    HW210074   4.365   4.396   4.248 -1.4041 -0.8325 -1.3636
 2519SOL    HW310075   4.485   4.348   4.326 -0.2744  2.2788 -1.1301
 2519SOL    MW410076   4.421   4.333   4.269 -0.1550  0.4506 -0.8199
 2520SOL     OW10077   3.649   1.297   4.266  0.0272  0.3453  0.1165
 2520SOL    HW210078   3.736   1.335   4.259 -0.5347  1.7366  0.5497
 2520SOL    HW310079   3.664   1.212   4.308  1.3946 -0.3967 -1.7986
 2520SOL    MW410080   3.662   1.290   4.271  0.1335  0.4309 -0.0790
 2521SOL     OW10081   4.351   1.835   3.742  0.1674 -0.1514  0.4979
 2521SOL    HW210082   4.316   1.895   3.676 -0.2587 -1.2101 -0.2493
 2521SOL    HW310083   4.407   1.776   3.692 -0.4311 -1.1779  1.0383
 2521SOL    MW410084   4.354   1.836   3.727  0.0322 -0.4265  0.4706
 2522SOL     OW10085   3.233   1.084   4.449  0.2210 -0.2783  0.0969
 2522SOL    HW210086   3.247   1.176   4.470 -0.5441  0.1961 -1.4285
 2522SOL    HW310087   3.303   1.038   4.496 -0.9312  0.7934  2.9837
 2522SOL    MW410088   3.244   1.090   4.458 -0.0319 -0.0743  0.2765
 2523SOL     OW10089   3.710   4.283   3.721  0.1595  0.3551 -0.0475
 2523SOL    HW210090   3.655   4.264   3.797  1.4836  1.9069  1.3301
 2523SOL    HW310091   3.777   4.215   3.721 -1.0403 -0.8670 -1.0682
 2523SOL    MW410092   3.711   4.271   3.731  0.1759  0.3986 -0.0004
 2524SOL     OW10093   1.774   0.827   3.387 -0.1503  0.1394  0.1817
 2524SOL    HW210094   1.788   0.914   3.350 -0.2189  0.3335  0.6010
 2524SOL    HW310095   1.838   0.771   3.344 -0.5697  0.2544 -0.6004
 2524SOL    MW410096   1.784   0.831   3.377 -0.2147  0.1802  0.1338
 2525SOL     OW10097   2.674   1.861   4.483  0.1845  0.0949  0.3772
 2525SOL    HW210098   2.713   1.896   4.563  0.5897 -0.1707  0.3002
 2525SOL    HW310099   2.591   1.908   4.474  0.2809  0.3490  0.7843
 2525SOL    MW410100   2.669   1.872   4.492  0.2506  0.0934  0.4207
 2526SOL     OW10101   2.081   3.109   4.222 -0.2367 -0.3656  0.1398
 2526SOL    HW210102   2.060   3.124   4.314 -0.5512  1.9799 -0.2894
 2526SOL    HW310103   2.119   3.021   4.220  0.1711 -0.2692  2.5594
 2526SOL    MW410104   2.083   3.099   4.234 -0.2244 -0.0434  0.4024
 2527SOL     OW10105   1.826   3.542   4.163  0.3937 -0.0179  0.3313
 2527SOL    HW210106   1.807   3.451   4.144 -0.5400  0.0773  0.7289
 2527SOL    HW310107   1.872   3.540   4.247  0.8304 -0.1622  0.0842
 2527SOL    MW410108   1.829   3.530   4.172  0.3281 -0.0243  0.3511
 2528SOL     OW10109   1.807   2.643   4.525  0.0219  0.1972  0.4083
 2528SOL    HW210110   1.863   2.571   4.495 -0.2646  0.7216 -1.4764
 2528SOL    HW310111   1.719   2.608   4.520 -0.1127  0.6375 -0.4426
 2528SOL    MW410112   1.803   2.629   4.520 -0.0337  0.3245  0.0473
 2529SOL     OW10113   0.577   4.414   3.689  0.6214 -0.2411 -0.1158
 2529SOL    HW210114   0.670   4.431   3.702  0.8014 -1.3508  0.0785
 2529SOL    HW310115   0.574   4.326   3.651 -0.4134 -0.7126  1.0381
 2529SOL    MW410116   0.589   4.405   3.686  0.5086 -0.4498  0.0621
 2530SOL     OW10117   0.656   0.851   3.984 -0.1034  0.3388  0.1066
 2530SOL    HW210118   0.746   0.818   3.984 -0.8434 -1.7919  0.5647
 2530SOL    HW310119   0.625   0.833   3.895  0.0891  1.5711 -0.2140
 2530SOL    MW410120   0.664   0.844   3.972 -0.1756  0.2203  0.1248
 2531SOL     OW10121   2.232   3.424   3.745  0.2162 -0.1409 -0.8402
 2531SOL    HW210122   2.246   3.384   3.831  0.3952 -1.2876 -1.3929
 2531SOL    HW310123   2.140   3.449   3.745  0.4739  0.8639  0.0923
 2531SOL    MW410124   2.222   3.422   3.757  0.2738 -0.1596 -0.7901
 2532SOL     OW10125   1.156   1.469   3.267 -0.3851 -0.3311 -0.2336
 2532SOL    HW210126   1.145   1.467   3.172 -0.0820  0.6418 -0.2971
 2532SOL    HW310127   1.077   1.512   3.300 -0.7896 -1.2385  0.0178
 2532SOL    MW410128   1.145   1.474   3.259 -0.3985 -0.3224 -0.2088
 2533SOL     OW10129   1.779   4.277   3.235 -0.1622 -0.1921 -0.0490
 2533SOL    HW210130   1.685   4.291   3.248 -0.2032  1.7760 -2.0904
 2533SOL    HW310131   1.792   4.291   3.141  2.3073  0.3543  0.3498
 2533SOL    MW410132   1.768   4.281   3.224  0.1582  0.1396 -0.2657
 2534SOL     OW10133   1.840   3.220   3.862 -0.3448  0.0984  0.2222
 2534SOL    HW210134   1.875   3.131   3.849  1.0558  0.8184 -1.1476
 2534SOL    HW310135   1.918   3.274   3.877 -1.1335  1.2257  0.3185
 2534SOL    MW410136   1.855   3.215   3.863 -0.2641  0.3421  0.0542
 2535SOL     OW10137   1.549   4.171   3.984 -0.2502  0.1786  0.2712
 2535SOL    HW210138   1.470   4.171   3.930  0.0633 -1.0189 -0.1802
 2535SOL    HW310139   1.573   4.079   3.994  1.5939  0.5686 -0.3268
 2535SOL    MW410140   1.542   4.159   3.978  0.0345  0.0720  0.1328
 2536SOL     OW10141   3.351   2.189   4.619  0.7777  0.2976 -0.2551
 2536SOL    HW210142   3.422   2.127   4.640  0.2984 -0.5792 -1.1501
 2536SOL    HW310143   3.338   2.179   4.525 -1.1277 -0.1987  0.0372
 2536SOL    MW410144   3.359   2.179   4.609  0.4630  0.1165 -0.3346
 2537SOL     OW10145   1.560   2.816   3.370  0.0509 -0.6386  0.0820
 2537SOL    HW210146   1.595   2.867   3.443  0.3508 -1.2474  0.3669
 2537SOL    HW310147   1.636   2.775   3.330  0.0324  0.6671 -1.3525
 2537SOL    MW410148   1.574   2.818   3.374  0.0880 -0.5466 -0.0697
 2538SOL     OW10149   1.440   2.300   4.168 -0.0917  0.2106 -0.1393
 2538SOL    HW210150   1.462   2.211   4.141 -0.3854  0.3224 -0.7499
 2538SOL    HW310151   1.470   2.306   4.259  1.0423 -0.1055 -0.4906
 2538SOL    MW410152   1.447   2.289   4.177  0.0192  0.1836 -0.2662
 2539SOL     OW10153   0.181   4.476   3.956 -0.5647  0.0184 -0.2775
 2539SOL    HW210154   0.143   4.468   3.868 -1.7497  0.7168  0.1531
 2539SOL    HW310155   0.275   4.469   3.942 -0.7543 -0.2055 -1.5654
 2539SOL    MW410156   0.188   4.474   3.943 -0.7461  0.0810 -0.3906
 2540SOL     OW10157   3.485   0.423   4.290  0.3274 -0.3796  0.1644
 2540SOL    HW210158   3.516   0.439   4.201 -0.3194 -1.4025 -0.2612
 2540SOL    HW310159   3.561   0.385   4.335  0.0109 -1.9517 -0.5934
 2540SOL    MW410160   3.500   0.420   4.284  0.2003 -0.7220  0.0083
 2541SOL     OW10161   3.589   0.461   4.028  0.1066  0.1500 -0.0605
 2541SOL    HW210162   3.572   0.378   3.984  0.6147 -0.3231  0.6287
 2541SOL    HW310163   3.682   0.461   4.047 -0.2425 -0.0588  1.8056
 2541SOL    MW410164   3.599   0.450   4.025  0.1276  0.0601  0.2767
 2542SOL     OW10165   1.835   2.504   3.381  0.5729  0.4083  0.1876
 2542SOL    HW210166   1.751   2.459   3.371  0.2391  0.8402  1.0294
 2542SOL    HW310167   1.900   2.440   3.350 -0.0377 -0.0139 -0.2442
 2542SOL    MW410168   1.832   2.489   3.375  0.4483  0.4096  0.2417
 2543SOL     OW10169   0.902   2.482   3.647  0.4260 -0.1589 -0.0385
 2543SOL    HW210170   0.985   2.504   3.688 -0.0770 -0.3682  1.0918
 2543SOL    HW310171   0.839   2.544   3.684 -0.2081 -0.9340  0.1964
 2543SOL    MW410172   0.905   2.493   3.657  0.2759 -0.2888  0.1416
 2544SOL     OW10173   2.217   4.630   3.606  0.1974  0.2280  0.0716
 2544SOL    HW210174   2.154   4.659   3.672  1.3058  0.5741  0.9934
 2544SOL    HW310175   2.301   4.666   3.636  0.6503  0.6799 -1.7108
 2544SOL    MW410176   2.220   4.639   3.619  0.4034  0.3333 -0.0419
 2545SOL     OW10177   2.301   2.567   3.866 -0.2334 -0.2641  0.2826
 2545SOL    HW210178   2.228   2.506   3.879 -1.0227  0.3996 -0.9026
 2545SOL    HW310179   2.350   2.530   3.793 -0.8424  0.6162 -0.5864
 2545SOL    MW410180   2.298   2.554   3.858 -0.4179 -0.0604  0.0116
 2546SOL     OW10181   2.482   0.752   3.680  0.2735  0.0997  0.4346
 2546SOL    HW210182   2.391   0.774   3.657  0.2718 -1.7501 -1.4172
 2546SOL    HW310183   2.484   0.657   3.683  2.8620 -0.0088 -2.5374
 2546SOL    MW410184   2.470   0.742   3.677  0.6148 -0.1587 -0.2018
 2547SOL     OW10185   3.570   0.223   3.909 -0.3574  0.1191  0.3239
 2547SOL    HW210186   3.475   0.211   3.903 -0.4576  0.8087  0.5449
 2547SOL    HW310187   3.594   0.269   3.829 -0.1212 -0.5658 -0.0077
 2547SOL    MW410188   3.561   0.228   3.898 -0.3395  0.1197  0.3093
 2548SOL     OW10189   4.167   0.463   4.392  0.0925  0.2665 -0.9021
 2548SOL    HW210190   4.213   0.408   4.455 -0.1178 -0.0945 -1.0651
 2548SOL    HW310191   4.225   0.538   4.378 -1.0532  1.7323  1.8059
 2548SOL    MW410192   4.181   0.466   4.398 -0.0864  0.4122 -0.5663
 2549SOL     OW10193   1.135   3.224   4.420 -0.7587 -0.4222 -0.1160
 2549SOL    HW210194   1.191   3.283   4.470  1.4896 -1.6331 -1.1330
 2549SOL    HW310195   1.154   3.137   4.455 -0.7258 -1.0254 -1.5962
 2549SOL    MW410196   1.145   3.220   4.431 -0.4577 -0.6615 -0.4455
 2550SOL     OW10197   2.802   1.655   3.566 -0.0130  0.0105  0.1210
 2550SOL    HW210198   2.793   1.560   3.578 -1.3540  0.1485  0.3481
 2550SOL    HW310199   2.895   1.672   3.577  0.3610 -1.3992 -0.7903
 2550SOL    MW410200   2.813   1.645   3.569 -0.1406 -0.1573  0.0307
 2551SOL     OW10201   1.595   0.571   4.341 -0.4732 -0.1713  0.7844
 2551SOL    HW210202   1.679   0.528   4.348 -0.2097  0.1613 -0.2170
 2551SOL    HW310203   1.531   0.500   4.337 -0.2916 -0.4180  2.0272
 2551SOL    MW410204   1.597   0.556   4.341 -0.4145 -0.1599  0.8162
 2552SOL     OW10205   3.554   3.933   3.476  0.2104  0.7199 -0.2250
 2552SOL    HW210206   3.545   4.025   3.502 -1.1521  0.0409  1.8705
 2552SOL    HW310207   3.571   3.887   3.558 -1.0963 -1.1404 -0.9631
 2552SOL    MW410208   3.555   3.939   3.491 -0.1417  0.3849 -0.0459
 2553SOL     OW10209   2.960   2.028   3.893  0.2699 -0.3827 -0.3121
 2553SOL    HW210210   3.016   1.968   3.941  0.8968  0.3906 -0.0652
 2553SOL    HW310211   2.976   2.113   3.932 -1.0236 -0.1308 -0.2973
 2553SOL    MW410212   2.969   2.031   3.904  0.1819 -0.2474 -0.2776
 2554SOL     OW10213   2.473   1.629   4.150 -0.2914  0.2377  0.3673
 2554SOL    HW210214   2.408   1.562   4.126  0.4418  0.0589 -1.1439
 2554SOL    HW310215   2.521   1.645   4.069 -0.6067  2.7709  0.6569
 2554SOL    MW410216   2.471   1.622   4.136 -0.2363  0.5483  0.2061
 2555SOL     OW10217   3.615   0.387   3.692  0.0786 -0.0263 -0.0785
 2555SOL    HW210218   3.683   0.453   3.707 -0.1766  0.4681 -1.0997
 2555SOL    HW310219   3.643   0.340   3.614 -1.0068  0.5124 -0.8038
 2555SOL    MW410220   3.627   0.389   3.684 -0.0983  0.1100 -0.3089
 2556SOL     OW10221   2.236   3.537   4.069 -0.5633  0.1197 -0.3846
 2556SOL    HW210222   2.328   3.555   4.053 -0.3245  0.9548  1.8309
 2556SOL    HW310223   2.222   3.451   4.030  1.1880 -0.0891 -0.6019
 2556SOL    MW410224   2.246   3.528   4.062 -0.3007  0.2024 -0.1210
 2557SOL     OW10225   0.000   1.711   4.447  0.1578  0.0931  0.0337
 2557SOL    HW210226   0.058   1.775   4.405 -1.0739  1.6253  0.6441
 2557SOL    HW310227  -0.025   1.752   4.530 -0.6451 -1.1818  0.4337
 2557SOL    MW410228   0.005   1.725   4.453 -0.1106  0.1270  0.1670
 2558SOL     OW10229   3.032   3.819   3.762 -0.2776  0.1083  0.4359
 2558SOL    HW210230   3.127   3.819   3.747 -0.2239 -0.5049  0.7889
 2558SOL    HW310231   2.998   3.880   3.696  0.2632 -0.3899 -0.3125
 2558SOL    MW410232   3.040   3.827   3.751 -0.1992 -0.0383  0.3838
 2559SOL     OW10233   3.531   0.777   3.567 -0.0139  0.3636  0.3583
 2559SOL    HW210234   3.595   0.799   3.634  0.1064 -0.3031  0.4687
 2559SOL    HW310235   3.497   0.691   3.593  0.6349 -0.2801 -0.8692
 2559SOL    MW410236   3.535   0.769   3.579  0.0876  0.1907  0.2109
 2560SOL     OW10237   3.899   3.214   4.055  0.2568  0.2969 -0.1859
 2560SOL    HW210238   3.850   3.290   4.022  0.7254  0.5648 -0.2785
 2560SOL    HW310239   3.848   3.183   4.130 -0.0071  0.6281 -0.2253
 2560SOL    MW410240   3.886   3.220   4.060  0.2838  0.3760 -0.2033
 2561SOL     OW10241   4.120   4.423   4.515  0.3560  0.2236 -0.1382
 2561SOL    HW210242   4.134   4.331   4.490 -1.6186 -0.4597  1.2033
 2561SOL    HW310243   4.201   4.447   4.560  0.7606 -0.9418 -0.1998
 2561SOL    MW410244   4.133   4.414   4.517  0.1488 -0.0203  0.0307
 2562SOL     OW10245   3.016   2.489   3.910 -0.2340 -0.1497 -0.1062
 2562SOL    HW210246   2.954   2.551   3.948 -0.3882 -0.6254  0.4257
 2562SOL    HW310247   3.044   2.530   3.828  0.2744  0.9920  0.6247
 2562SOL    MW410248   3.012   2.502   3.905 -0.1873 -0.0619  0.0604
 2563SOL     OW10249   3.967   4.032   3.451  0.4164  0.0574  0.1023
 2563SOL    HW210250   3.981   4.098   3.383  0.3750  0.8230  0.8237
 2563SOL    HW310251   3.938   4.082   3.527 -1.3285 -0.9855  0.1437
 2563SOL    MW410252   3.965   4.047   3.452  0.1807  0.0208  0.2029
 2564SOL     OW10253   1.953   1.936   4.366 -0.1120 -0.2348  0.1481
 2564SOL    HW210254   2.022   1.884   4.325  0.4624  1.3279 -0.9174
 2564SOL    HW310255   1.986   2.026   4.364 -1.4527  0.2969  1.1798
 2564SOL    MW410256   1.966   1.941   4.360 -0.2131  0.0415  0.1436
 2565SOL     OW10257   1.756   1.732   4.332  0.5415  0.1820  0.5837
 2565SOL    HW210258   1.670   1.739   4.374 -0.8325 -0.9449 -1.8829
 2565SOL    HW310259   1.812   1.791   4.382 -1.4948  0.4517  2.6625
 2565SOL    MW410260   1.752   1.741   4.344  0.0916  0.0689  0.5325
 2566SOL     OW10261   0.176   3.367   4.071  0.2914 -0.0911 -0.3933
 2566SOL    HW210262   0.198   3.303   4.139 -0.3757 -0.3706 -0.4368
 2566SOL    HW310263   0.259   3.409   4.050  0.7782 -1.1483 -0.5735
 2566SOL    MW410264   0.190   3.364   4.077  0.2676 -0.2675 -0.4228
 2567SOL     OW10265   1.193   2.277   4.021  0.0102 -0.0255  0.0293
 2567SOL    HW210266   1.156   2.196   4.056  0.2092 -0.1128  0.0413
 2567SOL    HW310267   1.276   2.287   4.068  0.2837 -0.1462 -0.4202
 2567SOL    MW410268   1.199   2.268   4.032  0.0725 -0.0530 -0.0284
 2568SOL     OW10269   2.193   4.174   3.221 -0.2595 -0.3624  0.1503
 2568SOL    HW210270   2.112   4.212   3.257  0.7512  0.8117  1.2496
 2568SOL    HW310271   2.190   4.195   3.128  0.3733  2.6749  0.7698
 2568SOL    MW410272   2.182   4.182   3.214 -0.0426  0.1933  0.3770
 2569SOL     OW10273   4.350   1.271   3.661  0.2209 -0.2284 -0.0864
 2569SOL    HW210274   4.324   1.363   3.664 -1.0421 -0.5398 -1.1941
 2569SOL    HW310275   4.345   1.247   3.569 -0.9141 -1.8065  0.3640
 2569SOL    MW410276   4.346   1.280   3.650 -0.0955 -0.4777 -0.1731
 2570SOL     OW10277   3.704   1.981   4.410 -0.0823  0.8344 -0.2304
 2570SOL    HW210278   3.777   1.993   4.350  0.6019  1.3779  0.6960
 2570SOL    HW310279   3.627   1.978   4.354  0.5021  1.7586 -1.1061
 2570SOL    MW410280   3.703   1.982   4.395  0.0851  1.0280 -0.2237
 2571SOL     OW10281   2.647   3.749   3.797 -0.0397  0.1319  0.3272
 2571SOL    HW210282   2.566   3.703   3.774 -0.1953  0.4365  0.2626
 2571SOL    HW310283   2.717   3.691   3.767 -0.2202 -0.7486  1.5665
 2571SOL    MW410284   2.645   3.735   3.790 -0.0841  0.0559  0.4822
 2572SOL     OW10285   0.186   2.791   3.650 -0.4874  0.1337 -0.3594
 2572SOL    HW210286   0.186   2.795   3.554  0.3463 -0.6224 -0.3862
 2572SOL    HW310287   0.096   2.815   3.674 -1.0698 -0.9723 -1.3813
 2572SOL    MW410288   0.174   2.795   3.640 -0.4543 -0.1120 -0.4978
 2573SOL     OW10289   0.830   0.845   3.619 -0.2455  0.0913  0.0387
 2573SOL    HW210290   0.763   0.792   3.660 -1.6812  1.5496 -0.3500
 2573SOL    HW310291   0.910   0.824   3.667 -0.8938 -1.9301  0.2788
 2573SOL    MW410292   0.832   0.835   3.631 -0.5204  0.0170  0.0191
 2574SOL     OW10293   2.629   4.282   3.777  0.1760  0.3253  0.3286
 2574SOL    HW210294   2.573   4.359   3.772 -0.4290 -0.0777  0.6825
 2574SOL    HW310295   2.702   4.300   3.718  1.2061  2.0951  2.0908
 2574SOL    MW410296   2.631   4.294   3.769  0.2321  0.5056  0.6078
 2575SOL     OW10297   3.850   2.794   3.326 -0.4299  0.0922 -0.7612
 2575SOL    HW210298   3.771   2.747   3.301 -0.4558 -1.3715  1.8635
 2575SOL    HW310299   3.823   2.886   3.333 -1.6712 -0.2757 -0.7363
 2575SOL    MW410300   3.836   2.800   3.324 -0.5971 -0.1495 -0.4117
 2576SOL     OW10301   0.025   1.409   4.009  0.9466 -0.1543 -0.3745
 2576SOL    HW210302  -0.044   1.343   4.020 -1.6907  2.2881 -1.4980
 2576SOL    HW310303   0.062   1.392   3.923 -0.9992  0.8927 -1.4546
 2576SOL    MW410304   0.021   1.398   3.999  0.3419  0.3061 -0.6652
 2577SOL     OW10305   2.244   0.669   3.984  0.0865  0.2425  0.5155
 2577SOL    HW210306   2.254   0.682   4.078  2.4164 -0.3241  0.3700
 2577SOL    HW310307   2.239   0.574   3.973 -1.1758  0.3442  0.1488
 2577SOL    MW410308   2.245   0.658   3.995  0.2274  0.1812  0.4479
 2578SOL     OW10309   3.604   4.502   4.424 -0.3382  0.2707  0.2279
 2578SOL    HW210310   3.665   4.475   4.492 -1.5836  0.6153  1.5283
 2578SOL    HW310311   3.594   4.426   4.368 -0.7068 -0.6451  1.5118
 2578SOL    MW410312   3.611   4.489   4.426 -0.5511  0.1953  0.5689
 2579SOL     OW10313   2.610   1.779   3.735  0.5111  0.1996  0.1602
 2579SOL    HW210314   2.672   1.799   3.805  0.3966 -0.1468  0.3649
 2579SOL    HW310315   2.662   1.735   3.668  0.0326 -2.4059  1.4277
 2579SOL    MW410316   2.625   1.776   3.735  0.4329 -0.1899  0.3544
 2580SOL     OW10317   1.091   1.571   4.329 -0.2178 -0.5082 -0.4303
 2580SOL    HW210318   0.997   1.577   4.344 -0.4209 -1.2240 -1.3742
 2580SOL    HW310319   1.099   1.536   4.240  0.9413  0.1941 -0.6070
 2580SOL    MW410320   1.080   1.567   4.319 -0.0917 -0.5100 -0.5782
 2581SOL     OW10321   1.452   3.166   3.604  0.3510 -0.2825  0.7321
 2581SOL    HW210322   1.385   3.104   3.632 -0.4046  0.7164  1.1833
 2581SOL    HW310323   1.478   3.211   3.685 -0.7719  1.5881  0.0933
 2581SOL    MW410324   1.447   3.164   3.619  0.1031  0.0961  0.7073
 2582SOL     OW10325   1.837   3.696   3.632 -0.8567  0.3660  0.2869
 2582SOL    HW210326   1.882   3.662   3.554  0.3824 -0.6029  1.3796
 2582SOL    HW310327   1.745   3.675   3.618 -0.3638 -1.7756  0.0384
 2582SOL    MW410328   1.831   3.688   3.620 -0.6282 -0.0444  0.3983
 2583SOL     OW10329   2.703   1.688   3.311 -0.7773 -0.6158 -0.0088
 2583SOL    HW210330   2.696   1.778   3.280 -0.9956 -0.8232 -0.5610
 2583SOL    HW310331   2.745   1.695   3.397  1.6995 -0.2209 -1.2071
 2583SOL    MW410332   2.707   1.701   3.318 -0.4793 -0.5910 -0.2398
 2584SOL     OW10333   0.167   2.104   3.871 -0.0822 -0.1327 -0.2571
 2584SOL    HW210334   0.217   2.157   3.933 -1.2057 -0.1580  0.6926
 2584SOL    HW310335   0.130   2.034   3.925  0.0004 -0.9072 -1.2013
 2584SOL    MW410336   0.169   2.102   3.886 -0.2195 -0.2382 -0.2563
 2585SOL     OW10337   2.030   0.346   4.405 -0.5455  0.0742 -0.2371
 2585SOL    HW210338   2.043   0.439   4.420 -0.6738 -0.0014  0.3288
 2585SOL    HW310339   1.939   0.330   4.430 -0.6604 -0.1121 -0.7671
 2585SOL    MW410340   2.020   0.356   4.410 -0.5776  0.0396 -0.2323
 2586SOL     OW10341   0.037   0.374   3.271  0.3257 -0.0193  0.0027
 2586SOL    HW210342   0.109   0.418   3.315  1.1215 -0.1204 -1.1650
 2586SOL    HW310343  -0.040   0.427   3.292  0.9541  0.8351  0.1976
 2586SOL    MW410344   0.036   0.387   3.279  0.5136  0.0801 -0.1256
 2587SOL     OW10345   0.874   1.665   3.950 -0.0229 -0.0394  0.2948
 2587SOL    HW210346   0.819   1.741   3.933  0.3666  0.3131  0.5748
 2587SOL    HW310347   0.956   1.703   3.983 -0.2196 -0.6292  1.4829
 2587SOL    MW410348   0.878   1.680   3.952  0.0025 -0.0707  0.4885
 2588SOL     OW10349   4.137   1.929   4.109  0.8003  0.7430  0.0210
 2588SOL    HW210350   4.120   1.836   4.097  1.0918  0.4786  1.4968
 2588SOL    HW310351   4.108   1.970   4.028  0.1878 -0.5723 -0.4360
 2588SOL    MW410352   4.131   1.923   4.097  0.7579  0.5346  0.1554
 2589SOL     OW10353   3.389   3.529   4.111  0.1736  0.2733 -0.1090
 2589SOL    HW210354   3.427   3.443   4.128  0.1324  0.5795  1.5734
 2589SOL    HW310355   3.330   3.515   4.037  2.1029 -0.5944 -1.5230
 2589SOL    MW410356   3.386   3.516   4.103  0.4227  0.1992 -0.0736
 2590SOL     OW10357   1.656   2.557   3.738 -0.0334  0.1651  0.2915
 2590SOL    HW210358   1.644   2.532   3.829 -0.0211 -1.8994 -0.2512
 2590SOL    HW310359   1.570   2.541   3.697  0.4763 -0.7567 -0.4532
 2590SOL    MW410360   1.643   2.552   3.744  0.0355 -0.2289  0.1216
 2591SOL     OW10361   0.399   3.158   3.668  0.3581  0.4450  0.2194
 2591SOL    HW210362   0.463   3.214   3.710  0.2936  2.0962 -1.8226
 2591SOL    HW310363   0.314   3.193   3.696  0.3196  0.9564 -0.5473
 2591SOL    MW410364   0.396   3.170   3.677  0.3445  0.7303 -0.1511
 2592SOL     OW10365   0.059   3.956   3.250 -0.0319  0.1972  0.2002
 2592SOL    HW210366   0.044   4.045   3.281 -2.1901  0.0846 -0.4706
 2592SOL    HW310367  -0.021   3.909   3.272  1.1139 -1.5931  0.5820
 2592SOL    MW410368   0.047   3.962   3.257 -0.1654 -0.0538  0.1620
 2593SOL     OW10369   2.415   1.927   4.377 -0.0845  0.6711  0.2712
 2593SOL    HW210370   2.430   1.905   4.285 -0.0459  0.8200  0.2404
 2593SOL    HW310371   2.378   2.016   4.374  1.8592  1.5199  0.5056
 2593SOL    MW410372   2.412   1.936   4.364  0.1770  0.8027  0.2980
 2594SOL     OW10373   1.051   0.693   4.554 -0.2316 -0.1508 -0.0199
 2594SOL    HW210374   1.144   0.680   4.536 -0.1087  0.3367  0.2460
 2594SOL    HW310375   1.006   0.648   4.483  0.2154  0.0624 -0.4427
 2594SOL    MW410376   1.057   0.686   4.543 -0.1564 -0.0583 -0.0406
 2595SOL     OW10377   4.043   4.386   3.614 -0.0045 -0.3742 -0.3864
 2595SOL    HW210378   4.053   4.296   3.647 -0.5658  0.0748  1.0217
 2595SOL    HW310379   3.977   4.379   3.545  0.6313 -1.1900 -0.9351
 2595SOL    MW410380   4.036   4.373   3.609  0.0053 -0.4226 -0.2730
 2596SOL     OW10381   3.281   3.461   3.696  0.0428  0.1950  0.0397
 2596SOL    HW210382   3.237   3.381   3.667  0.7067 -0.3137  0.4102
 2596SOL    HW310383   3.298   3.510   3.616  0.8628 -0.6796 -0.3429
 2596SOL    MW410384   3.278   3.457   3.682  0.2386  0.0125  0.0381
 2597SOL     OW10385   1.617   0.751   4.571  0.2260  0.2596  0.1028
 2597SOL    HW210386   1.707   0.765   4.601  0.6804 -1.6185 -0.2835
 2597SOL    HW310387   1.626   0.688   4.499 -1.1536  2.1093 -1.7508
 2597SOL    MW410388   1.630   0.744   4.566  0.1040  0.2559 -0.1927
 2598SOL     OW10389   3.786   1.898   4.767 -0.1560  0.1559  0.0350
 2598SOL    HW210390   3.732   1.846   4.708 -0.4465  0.4389  0.0478
 2598SOL    HW310391   3.875   1.865   4.755 -0.5006 -1.1194  0.8900
 2598SOL    MW410392   3.790   1.887   4.758 -0.2398  0.0250  0.1495
 2599SOL     OW10393   3.383   0.546   3.621 -0.3696 -0.7060 -0.1140
 2599SOL    HW210394   3.456   0.485   3.629 -0.8422 -1.2347  0.2453
 2599SOL    HW310395   3.353   0.535   3.531  0.9168  0.5889 -0.7170
 2599SOL    MW410396   3.389   0.537   3.610 -0.2622 -0.6049 -0.1462
 2600SOL     OW10397   0.366   1.466   3.977 -0.4500 -0.5399  0.5584
 2600SOL    HW210398   0.294   1.507   3.930  0.2178  1.1005  0.9438
 2600SOL    HW310399   0.359   1.500   4.066  0.9438 -0.1735  0.5372
 2600SOL    MW410400   0.356   1.476   3.983 -0.1780 -0.2752  0.6065
 2601SOL     OW10401   1.766   2.163   4.069 -0.1806  0.2881 -0.8887
 2601SOL    HW210402   1.862   2.159   4.069 -0.1607  0.4841  0.6369
 2601SOL    HW310403   1.744   2.202   3.984  1.1400  1.1663 -0.8517
 2601SOL    MW410404   1.776   2.168   4.058 -0.0038  0.4299 -0.6825
 2602SOL     OW10405   0.276   0.526   3.627 -0.0643  0.1858 -0.2331
 2602SOL    HW210406   0.223   0.592   3.672  1.5352  1.3495 -0.0380
 2602SOL    HW310407   0.253   0.536   3.535  0.9206  1.7432 -0.3334
 2602SOL    MW410408   0.266   0.536   3.621  0.2767  0.5448 -0.2206
 2603SOL     OW10409   2.518   4.553   3.835 -0.0749  0.4970 -0.3136
 2603SOL    HW210410   2.446   4.574   3.894  1.3862  0.4122  1.5250
 2603SOL    HW310411   2.511   4.618   3.765 -2.7335 -0.3533 -0.8916
 2603SOL    MW410412   2.507   4.564   3.833 -0.2329  0.3736 -0.1473
 2604SOL     OW10413   2.012   1.927   3.921  0.0584  0.2067  0.1867
 2604SOL    HW210414   1.952   1.882   3.980  0.5814 -1.1255 -0.2693
 2604SOL    HW310415   2.096   1.883   3.934  0.8962  1.8702  0.6332
 2604SOL    MW410416   2.015   1.915   3.931  0.2380  0.2504  0.1855
 2605SOL     OW10417   3.296   2.284   3.717 -0.0397 -0.1094 -0.4058
 2605SOL    HW210418   3.309   2.216   3.783  0.1962  0.8877  0.5869
 2605SOL    HW310419   3.384   2.299   3.681  0.0100  0.0749 -0.2120
 2605SOL    MW410420   3.310   2.277   3.721 -0.0020  0.0465 -0.2492
 2606SOL     OW10421   2.269   0.726   4.273  0.2567 -0.0815  0.0798
 2606SOL    HW210422   2.267   0.819   4.297 -0.0051 -0.5732  2.0301
 2606SOL    HW310423   2.189   0.690   4.312  0.1083 -1.0293 -1.0920
 2606SOL    MW410424   2.258   0.733   4.282  0.2026 -0.2714  0.1825
 2607SOL     OW10425   1.249   0.628   3.848  0.0196  0.1049 -0.1698
 2607SOL    HW210426   1.211   0.569   3.782  1.0566 -0.4514 -0.2798
 2607SOL    HW310427   1.336   0.648   3.815 -0.2853  1.6428 -0.0829
 2607SOL    MW410428   1.255   0.623   3.835  0.1162  0.2344 -0.1728
 2608SOL     OW10429   3.922   4.112   3.718  0.4512 -0.3642 -0.0432
 2608SOL    HW210430   3.974   4.148   3.790  0.5447 -1.1707  0.3016
 2608SOL    HW310431   3.932   4.017   3.726 -2.8560 -0.6738  1.3724
 2608SOL    MW410432   3.930   4.104   3.729  0.0272 -0.5115  0.1891
 2609SOL     OW10433   2.806   2.644   4.028  0.3422 -0.3648  0.0039
 2609SOL    HW210434   2.743   2.715   4.026 -0.5009 -1.0840  0.5809
 2609SOL    HW310435   2.758   2.569   3.993  0.7079 -1.0485  0.9516
 2609SOL    MW410436   2.792   2.643   4.023  0.2792 -0.5499  0.2051
 2610SOL     OW10437   1.017   0.181   4.068  0.0540 -0.0239  0.3639
 2610SOL    HW210438   1.058   0.096   4.083  1.4862  0.7977  1.1207
 2610SOL    HW310439   0.953   0.164   3.998 -0.0756 -1.8332  0.8813
 2610SOL    MW410440   1.014   0.167   4.060  0.2259 -0.1542  0.5320
 2611SOL     OW10441   0.914   0.599   4.336  0.5398  0.6016 -0.4922
 2611SOL    HW210442   0.973   0.541   4.288 -1.2945 -1.0153 -0.8482
 2611SOL    HW310443   0.851   0.541   4.377 -0.8573  2.2900 -0.1819
 2611SOL    MW410444   0.914   0.584   4.335  0.1134  0.6111 -0.4982
 2612SOL     OW10445   0.479   0.169   4.550  0.4495  0.2577  0.4445
 2612SOL    HW210446   0.538   0.100   4.581 -1.3768 -1.5338  0.0912
 2612SOL    HW310447   0.521   0.251   4.577  1.5052 -1.0524  2.9861
 2612SOL    MW410448   0.492   0.171   4.558  0.3478 -0.1515  0.7332
 2613SOL     OW10449   0.429   0.858   3.357 -0.7127 -0.5341 -0.1563
 2613SOL    HW210450   0.438   0.947   3.323  0.1626 -1.1302 -1.4969
 2613SOL    HW310451   0.408   0.870   3.450  1.2336  1.0519  0.1062
 2613SOL    MW410452   0.427   0.871   3.365 -0.3404 -0.4035 -0.2985
 2614SOL     OW10453   2.820   1.252   4.193  0.0306  0.2793 -0.2472
 2614SOL    HW210454   2.730   1.266   4.166 -0.4741  0.0709  1.3216
 2614SOL    HW310455   2.844   1.330   4.243  0.5993  0.1688 -0.3355
 2614SOL    MW410456   2.811   1.264   4.196  0.0390  0.2372 -0.0518
 2615SOL     OW10457   3.660   0.861   3.795  0.3407  0.5659 -0.0821
 2615SOL    HW210458   3.752   0.853   3.818 -0.1866  0.1256  2.0094
 2615SOL    HW310459   3.614   0.806   3.859 -1.2739 -0.3787 -1.9858
 2615SOL    MW410460   3.666   0.853   3.806  0.0581  0.3832 -0.0573
 2616SOL     OW10461   0.400   1.555   4.246  0.0200  0.3613  0.0129
 2616SOL    HW210462   0.486   1.529   4.277 -0.3985 -0.9623  0.0925
 2616SOL    HW310463   0.340   1.528   4.316 -0.8898 -2.2954 -1.7072
 2616SOL    MW410464   0.403   1.548   4.260 -0.1553 -0.1639 -0.2036
 2617SOL     OW10465   0.463   1.764   4.630 -0.4259  0.0956  0.1007
 2617SOL    HW210466   0.453   1.669   4.634 -0.4448  0.0079 -1.6699
 2617SOL    HW310467   0.516   1.786   4.706 -1.9615 -1.1090  1.5672
 2617SOL    MW410468   0.468   1.755   4.641 -0.6310 -0.0749  0.0606
 2618SOL     OW10469   4.075   3.160   3.629 -0.0663  0.3625  0.2619
 2618SOL    HW210470   4.165   3.128   3.633 -0.0583  0.2481 -0.8270
 2618SOL    HW310471   4.022   3.085   3.658  0.1816  0.4483  0.9591
 2618SOL    MW410472   4.080   3.145   3.633 -0.0325  0.3587  0.2102
 2619SOL     OW10473   0.807   1.966   3.611 -0.3339 -0.0057  0.1353
 2619SOL    HW210474   0.818   2.050   3.656 -0.8643 -0.1111  0.4648
 2619SOL    HW310475   0.784   1.989   3.521  0.3174  0.2047  0.0209
 2619SOL    MW410476   0.806   1.980   3.605 -0.3179  0.0081  0.1637
 2620SOL     OW10477   4.423   0.185   3.615  0.5279 -0.0056 -0.1224
 2620SOL    HW210478   4.512   0.219   3.631  0.7797 -0.6903 -0.0330
 2620SOL    HW310479   4.366   0.243   3.666  1.0475 -0.3523  0.8650
 2620SOL    MW410480   4.428   0.197   3.624  0.6296 -0.1417  0.0196
 2621SOL     OW10481   1.743   4.118   4.505 -0.4043  0.0249 -0.5294
 2621SOL    HW210482   1.838   4.125   4.511 -0.3887  0.1536 -0.8862
 2621SOL    HW310483   1.718   4.060   4.577  0.0576 -0.8743 -1.0788
 2621SOL    MW410484   1.752   4.111   4.515 -0.3413 -0.0768 -0.6489
 2622SOL     OW10485   2.235   3.989   3.891 -0.2299  0.0615  0.4572
 2622SOL    HW210486   2.188   3.984   3.807  0.8152 -0.2414 -0.1193
 2622SOL    HW310487   2.167   3.983   3.957 -0.8996 -1.6477 -0.3541
 2622SOL    MW410488   2.220   3.988   3.888 -0.1804 -0.2039  0.2741
 2623SOL     OW10489   4.259   2.670   4.029  0.5853 -0.3954  0.0184
 2623SOL    HW210490   4.288   2.703   4.114  1.9938 -1.1303 -0.1620
 2623SOL    HW310491   4.216   2.745   3.988 -2.0314 -0.6354  2.2300
 2623SOL    MW410492   4.257   2.685   4.035  0.4259 -0.5240  0.2864
 2624SOL     OW10493   3.370   1.527   3.267 -0.0522 -0.0457  0.6548
 2624SOL    HW210494   3.299   1.561   3.323  0.3476  1.2228  0.3995
 2624SOL    HW310495   3.446   1.579   3.291  0.1554  0.4410 -1.0062
 2624SOL    MW410496   3.371   1.538   3.278  0.0279  0.1859  0.4020
 2625SOL     OW10497   2.015   4.336   3.354  0.3944  0.4342 -0.1600
 2625SOL    HW210498   2.022   4.327   3.449  2.1895 -0.9946 -0.3956
 2625SOL    HW310499   1.927   4.307   3.333  0.6616 -1.1472  0.8626
 2625SOL    MW410500   2.005   4.331   3.364  0.6665  0.0371 -0.0561
 2626SOL     OW10501   2.474   0.673   3.291  0.2064  0.8560  0.2587
 2626SOL    HW210502   2.551   0.717   3.328  0.3250  0.1049  0.9308
 2626SOL    HW310503   2.481   0.687   3.197  0.9910  1.0787  0.3463
 2626SOL    MW410504   2.485   0.681   3.283  0.3256  0.7862  0.3589
 2627SOL     OW10505   3.189   4.221   3.244  0.0896 -0.3231  0.0341
 2627SOL    HW210506   3.260   4.161   3.268  0.1724 -0.8673 -1.5103
 2627SOL    HW310507   3.110   4.181   3.279  0.0912 -1.5549 -1.3159
 2627SOL    MW410508   3.188   4.208   3.252  0.1007 -0.5574 -0.3478
 2628SOL     OW10509   2.983   0.732   4.376 -0.1918  0.3649  0.1194
 2628SOL    HW210510   2.901   0.773   4.347  0.4782  1.5033 -0.1659
 2628SOL    HW310511   3.015   0.789   4.446  0.1033 -0.3544  0.5723
 2628SOL    MW410512   2.976   0.745   4.382 -0.0644  0.4202  0.1415
 2629SOL     OW10513   1.745   0.801   3.665  0.0246  0.4857  0.0832
 2629SOL    HW210514   1.770   0.884   3.705 -0.4733  0.6763 -0.0009
 2629SOL    HW310515   1.761   0.814   3.571  0.2445  0.3745  0.1023
 2629SOL    MW410516   1.751   0.814   3.658 -0.0121  0.4962  0.0746
 2630SOL     OW10517   3.980   3.111   4.461 -0.0615 -0.2562 -0.2471
 2630SOL    HW210518   3.970   3.193   4.511 -0.9186 -0.4665 -0.0525
 2630SOL    HW310519   3.890   3.085   4.441  0.2022 -1.2457 -0.1522
 2630SOL    MW410520   3.967   3.119   4.465 -0.1398 -0.4145 -0.2089
 2631SOL     OW10521   3.630   2.652   3.247  0.1886 -0.1747  0.2175
 2631SOL    HW210522   3.622   2.559   3.265  0.7172 -0.4057 -0.6985
 2631SOL    HW310523   3.622   2.659   3.152  0.1038  0.7210  0.2801
 2631SOL    MW410524   3.628   2.641   3.237  0.2471 -0.0870  0.1049
 2632SOL     OW10525   0.294   3.852   3.374  0.0374  0.0980  0.0014
 2632SOL    HW210526   0.273   3.759   3.384  1.0434 -0.2922 -1.4034
 2632SOL    HW310527   0.218   3.889   3.329  0.1611 -0.2765 -0.5059
 2632SOL    MW410528   0.281   3.845   3.370  0.1864 -0.0029 -0.2509
 2633SOL     OW10529   0.521   0.189   4.156  0.2341  0.4279 -0.4218
 2633SOL    HW210530   0.615   0.180   4.172 -0.0497 -1.1262  0.4429
 2633SOL    HW310531   0.515   0.239   4.074  1.7932  1.5698  0.1328
 2633SOL    MW410532   0.533   0.195   4.147  0.4024  0.3735 -0.2345
 2634SOL     OW10533   1.376   3.254   3.330 -0.2360 -0.7927 -0.0744
 2634SOL    HW210534   1.411   3.259   3.419 -0.8262 -1.7163  0.2116
 2634SOL    HW310535   1.434   3.193   3.284 -0.4149 -0.9451 -0.0973
 2634SOL    MW410536   1.388   3.247   3.336 -0.3375 -0.9347 -0.0397
 2635SOL     OW10537   0.120   0.295   4.029  0.5691 -0.1048  0.4161
 2635SOL    HW210538   0.162   0.344   4.099 -0.5892 -0.5527  1.4320
 2635SOL    HW310539   0.028   0.321   4.033  0.0977 -1.7186  0.4373
 2635SOL    MW410540   0.114   0.304   4.038  0.3541 -0.3768  0.5530
 2636SOL     OW10541   3.368   2.070   3.882 -0.0661  0.2548 -0.2310
 2636SOL    HW210542   3.457   2.061   3.917  0.2678  1.3103 -0.7932
 2636SOL    HW310543   3.363   2.004   3.813 -0.5091 -1.3893  1.3589
 2636SOL    MW410544   3.379   2.060   3.878 -0.0805  0.1772 -0.0954
 2637SOL     OW10545   3.115   0.547   3.761 -0.0098 -0.3056  0.3233
 2637SOL    HW210546   3.192   0.545   3.706 -0.6647  0.6532 -0.6371
 2637SOL    HW310547   3.046   0.507   3.708 -0.7276  0.9331  0.3039
 2637SOL    MW410548   3.116   0.541   3.747 -0.1909 -0.0157  0.1940
 2638SOL     OW10549   0.733   2.637   3.825  0.0529 -0.0506  0.7508
 2638SOL    HW210550   0.693   2.723   3.841  0.3220  0.0679  0.7881
 2638SOL    HW310551   0.659   2.581   3.800 -0.1072  0.2210  0.6073
 2638SOL    MW410552   0.718   2.641   3.823  0.0672  0.0009  0.7368
 2639SOL     OW10553   3.526   1.544   4.370 -0.2550 -0.3238  0.5045
 2639SOL    HW210554   3.569   1.464   4.339 -0.0203  0.1037 -0.2755
 2639SOL    HW310555   3.596   1.594   4.411 -0.4200 -0.5567  1.0718
 2639SOL    MW410556   3.541   1.540   4.371 -0.2458 -0.2981  0.4765
 2640SOL     OW10557   1.101   4.523   3.657  0.3728  0.4687  0.1609
 2640SOL    HW210558   1.177   4.478   3.694  0.6823  1.2196  0.4392
 2640SOL    HW310559   1.090   4.483   3.570  0.6616 -0.1188  0.3903
 2640SOL    MW410560   1.109   4.512   3.650  0.4517  0.4903  0.2279
 2641SOL     OW10561   4.139   0.984   3.983  0.4464  0.2373  0.3064
 2641SOL    HW210562   4.129   1.019   3.894  0.5831  1.9063  0.9413
 2641SOL    HW310563   4.061   1.013   4.030 -0.0106 -1.3058  0.5385
 2641SOL    MW410564   4.127   0.993   3.977  0.4041  0.2539  0.4208
 2642SOL     OW10565   0.514   0.455   4.308 -0.4427 -0.1561  0.1519
 2642SOL    HW210566   0.529   0.534   4.257  1.0061 -0.5301 -0.0380
 2642SOL    HW310567   0.546   0.384   4.252 -0.1849 -0.7090  0.9954
 2642SOL    MW410568   0.520   0.456   4.294 -0.2175 -0.2784  0.2381
 2643SOL     OW10569   2.627   3.427   3.851  0.1898 -0.2901  0.6585
 2643SOL    HW210570   2.708   3.419   3.901  0.6764  0.0600 -0.0594
 2643SOL    HW310571   2.654   3.414   3.760 -0.3434  1.1801  0.2855
 2643SOL    MW410572   2.641   3.424   3.845  0.1837 -0.0499  0.5146
 2644SOL     OW10573   2.266   0.012   3.332  0.3596 -0.0054  0.0621
 2644SOL    HW210574   2.347  -0.036   3.310 -0.0526 -0.5624 -0.2598
 2644SOL    HW310575   2.259   0.004   3.427 -0.2330 -1.4569 -0.0870
 2644SOL    MW410576   2.276   0.004   3.342  0.2270 -0.2704 -0.0000
 2645SOL     OW10577   2.589   0.414   4.560 -0.2758 -0.2096  0.3274
 2645SOL    HW210578   2.538   0.447   4.486 -0.4382 -1.5143 -0.1549
 2645SOL    HW310579   2.666   0.471   4.563 -0.7229  0.4336 -0.2579
 2645SOL    MW410580   2.593   0.426   4.551 -0.3562 -0.2969  0.1865
 2646SOL     OW10581   1.466   3.974   3.680 -0.6495  0.0172 -0.2125
 2646SOL    HW210582   1.425   4.038   3.738  1.9396  2.0084 -0.4916
 2646SOL    HW310583   1.554   4.009   3.663  0.6053 -3.2612 -0.9436
 2646SOL    MW410584   1.472   3.987   3.686 -0.1424 -0.1526 -0.3458
 2647SOL     OW10585   2.012   4.180   4.448  0.1096 -0.3405  0.4512
 2647SOL    HW210586   2.086   4.168   4.388  0.2286  2.1745  0.0062
 2647SOL    HW310587   2.035   4.259   4.498 -1.2121 -0.8796  1.9572
 2647SOL    MW410588   2.025   4.189   4.447 -0.0491 -0.0798  0.5912
 2648SOL     OW10589   1.975   1.071   3.983  0.2988  0.1259  0.4892
 2648SOL    HW210590   1.941   1.025   4.059  0.4870 -2.6249 -1.0064
 2648SOL    HW310591   1.902   1.070   3.920  0.4342  1.5913  0.2866
 2648SOL    MW410592   1.961   1.065   3.984  0.3415 -0.0437  0.2651
 2649SOL     OW10593   4.020   4.458   4.056 -0.1075 -0.2066 -0.5990
 2649SOL    HW210594   4.058   4.497   3.977 -0.0433  1.1483  0.0967
 2649SOL    HW310595   4.088   4.467   4.122 -0.5482 -0.4012 -0.1141
 2649SOL    MW410596   4.034   4.464   4.054 -0.1572 -0.0535 -0.4433
 2650SOL     OW10597   4.118   4.560   3.816 -0.4602  0.1732 -0.8136
 2650SOL    HW210598   4.114   4.495   3.746  0.6605 -2.8552  1.8658
 2650SOL    HW310599   4.211   4.579   3.825 -0.5285 -0.0929  0.4426
 2650SOL    MW410600   4.130   4.554   3.808 -0.3214 -0.2615 -0.2943
 2651SOL     OW10601   1.220   3.756   4.096 -0.8586  0.2537  0.4955
 2651SOL    HW210602   1.156   3.828   4.091 -1.2702 -0.1895 -0.7471
 2651SOL    HW310603   1.222   3.720   4.008  0.3735 -0.3897  0.7843
 2651SOL    MW410604   1.212   3.761   4.084 -0.7503  0.1103  0.3697
 2652SOL     OW10605   1.351   4.236   4.238  0.0808  0.0468 -0.4841
 2652SOL    HW210606   1.378   4.148   4.211 -1.0144 -0.9327  1.4856
 2652SOL    HW310607   1.422   4.266   4.295 -0.7441 -0.6434  0.9406
 2652SOL    MW410608   1.364   4.228   4.242 -0.1725 -0.1735 -0.0362
 2653SOL     OW10609   0.210   2.529   3.757  0.1821  0.4603  0.2349
 2653SOL    HW210610   0.209   2.624   3.741 -0.9100  0.5915  1.0212
 2653SOL    HW310611   0.173   2.519   3.845 -0.7425 -0.7760 -0.2766
 2653SOL    MW410612   0.205   2.540   3.767 -0.0840  0.3145  0.2712
 2654SOL     OW10613   1.793   0.319   3.300  0.3632  0.0320  0.0060
 2654SOL    HW210614   1.805   0.224   3.298 -0.3470 -0.0787  0.6514
 2654SOL    HW310615   1.869   0.352   3.347  1.5979 -0.0367 -1.9143
 2654SOL    MW410616   1.804   0.311   3.306  0.4324  0.0083 -0.1622
 2655SOL     OW10617   4.424   2.860   3.710 -0.1856 -0.4543  0.3812
 2655SOL    HW210618   4.365   2.788   3.687  0.3739 -0.9611  0.5383
 2655SOL    HW310619   4.383   2.937   3.670 -1.2379 -0.7091  0.9275
 2655SOL    MW410620   4.411   2.861   3.702 -0.2506 -0.5548  0.4740
 2656SOL     OW10621   0.554   3.093   4.224  0.2229 -0.0455 -0.1173
 2656SOL    HW210622   0.603   3.164   4.265  0.8408  0.8528 -2.3452
 2656SOL    HW310623   0.566   3.106   4.130 -1.6229 -1.7167 -0.6301
 2656SOL    MW410624   0.562   3.104   4.217  0.0609 -0.1474 -0.4789
 2657SOL     OW10625   1.885   2.505   4.042 -0.1591  0.1601  0.0656
 2657SOL    HW210626   1.915   2.448   3.971 -0.3360  0.6315 -0.3912
 2657SOL    HW310627   1.790   2.505   4.034 -0.1071  1.3425 -0.5752
 2657SOL    MW410628   1.876   2.497   4.032 -0.1756  0.3783 -0.0792
 2658SOL     OW10629   3.264   4.255   3.673  0.2756  0.1437 -0.1760
 2658SOL    HW210630   3.351   4.231   3.640  0.9186  0.8099  0.9572
 2658SOL    HW310631   3.225   4.307   3.603  1.2389  0.7370 -0.2914
 2658SOL    MW410632   3.271   4.259   3.660  0.4876  0.3099 -0.0417
 2659SOL     OW10633   2.919   4.147   4.021  0.4524 -0.4010 -0.3314
 2659SOL    HW210634   2.953   4.156   3.932  0.5184  2.1538 -0.1054
 2659SOL    HW310635   2.985   4.097   4.067  0.9586 -0.7759 -1.4413
 2659SOL    MW410636   2.932   4.142   4.015  0.5279 -0.1134 -0.4480
 2660SOL     OW10637   3.922   2.769   4.075 -0.0438 -0.2882  0.0338
 2660SOL    HW210638   3.984   2.822   4.025 -0.3150  0.6565  0.6824
 2660SOL    HW310639   3.842   2.770   4.023  0.4655 -1.5360 -0.8220
 2660SOL    MW410640   3.920   2.776   4.062 -0.0124 -0.3282  0.0064
 2661SOL     OW10641   0.447   0.389   2.989  0.3780 -0.2707 -0.3382
 2661SOL    HW210642   0.460   0.393   3.084  0.2032 -1.3593 -0.2601
 2661SOL    HW310643   0.533   0.413   2.953  0.1043  1.3693  0.0671
 2661SOL    MW410644   0.460   0.393   2.996  0.3188 -0.1980 -0.2744
 2662SOL     OW10645   1.469   0.784   3.687  0.0304  0.4989  0.2693
 2662SOL    HW210646   1.563   0.800   3.679  0.3205 -1.5124 -0.6904
 2662SOL    HW310647   1.436   0.795   3.598 -0.5890  0.8256  0.5374
 2662SOL    MW410648   1.477   0.788   3.674 -0.0131  0.2766  0.1781
 2663SOL     OW10649   1.920   0.607   3.749 -0.0110  0.7049 -0.0411
 2663SOL    HW210650   1.837   0.639   3.712  0.7631  1.6166 -1.0269
 2663SOL    HW310651   1.973   0.686   3.761  0.8232  0.1008  0.2992
 2663SOL    MW410652   1.916   0.622   3.745  0.2012  0.7455 -0.1263
 2664SOL     OW10653   1.597   1.195   3.458 -0.1177 -0.1844  0.4994
 2664SOL    HW210654   1.609   1.282   3.419 -0.6767 -0.0246  0.6882
 2664SOL    HW310655   1.598   1.210   3.552  2.3078 -0.7076  0.5912
 2664SOL    MW410656   1.599   1.208   3.465  0.1286 -0.2323  0.5364
 2665SOL     OW10657   4.132   1.096   3.717  0.0724 -0.1812 -0.1939
 2665SOL    HW210658   4.204   1.136   3.668  0.7189  0.3339  1.1800
 2665SOL    HW310659   4.055   1.147   3.692  0.2581 -0.4101 -1.2676
 2665SOL    MW410660   4.131   1.108   3.707  0.1822 -0.1434 -0.1543
 2666SOL     OW10661   1.936   3.528   4.407 -0.0362 -0.2396  0.0475
 2666SOL    HW210662   1.867   3.577   4.452 -1.4937 -0.9266 -1.3669
 2666SOL    HW310663   1.915   3.436   4.424 -0.3121 -0.4903 -1.5712
 2666SOL    MW410664   1.924   3.523   4.415 -0.2649 -0.3633 -0.3527
 2667SOL     OW10665   2.167   2.824   4.135 -0.2018  0.4134  0.6080
 2667SOL    HW210666   2.072   2.816   4.126  0.1282 -1.4143 -1.6143
 2667SOL    HW310667   2.193   2.748   4.188  0.2741 -0.4418 -0.8229
 2667SOL    MW410668   2.158   2.813   4.141 -0.0955  0.0594  0.1260
 2668SOL     OW10669   1.084   4.546   4.137  0.2439 -0.3285  0.5729
 2668SOL    HW210670   1.102   4.487   4.210  1.6977 -0.6234 -0.0060
 2668SOL    HW310671   1.035   4.492   4.075 -1.1502 -0.0264  1.3882
 2668SOL    MW410672   1.080   4.531   4.138  0.2518 -0.3276  0.6041
 2669SOL     OW10673   1.211   0.316   4.496  0.3326 -0.1543  0.0993
 2669SOL    HW210674   1.194   0.322   4.402  0.7731 -1.1149 -0.0486
 2669SOL    HW310675   1.133   0.353   4.538  0.6316  1.3663 -0.6495
 2669SOL    MW410676   1.198   0.322   4.489  0.4301 -0.0805 -0.0190
 2670SOL     OW10677   4.475   4.441   3.450 -0.0824 -0.3484 -0.0114
 2670SOL    HW210678   4.522   4.515   3.410 -2.5318  1.0696 -0.4143
 2670SOL    HW310679   4.503   4.441   3.541  0.8407  0.3649 -0.2872
 2670SOL    MW410680   4.485   4.451   3.457 -0.2838 -0.0672 -0.1009
 2671SOL     OW10681   1.637   1.440   3.348 -0.0460  0.0352 -0.2771
 2671SOL    HW210682   1.710   1.499   3.365 -0.6774  1.0705 -1.1205
 2671SOL    HW310683   1.631   1.436   3.253 -1.1316  0.0002 -0.2104
 2671SOL    MW410684   1.646   1.447   3.338 -0.2725  0.1672 -0.3796
 2672SOL     OW10685   2.321   4.366   3.664  0.4156  0.4387 -0.7677
 2672SOL    HW210686   2.294   4.364   3.756  0.6915 -0.7220 -0.7089
 2672SOL    HW310687   2.276   4.443   3.628 -1.3299 -0.2571 -0.1500
 2672SOL    MW410688   2.311   4.376   3.671  0.2217  0.1938 -0.6784
 2673SOL     OW10689   0.892   1.250   3.809  0.3574  0.4696 -0.2480
 2673SOL    HW210690   0.908   1.222   3.899 -0.8756  0.5348 -0.0005
 2673SOL    HW310691   0.897   1.345   3.812 -0.6770  0.5268 -0.0359
 2673SOL    MW410692   0.894   1.259   3.821  0.0583  0.4857 -0.1874
 2674SOL     OW10693   0.816   4.501   4.503  0.2073 -0.1041  0.0566
 2674SOL    HW210694   0.845   4.558   4.432 -1.0649  0.4633 -0.0110
 2674SOL    HW310695   0.884   4.433   4.509  1.5098  1.1694 -0.1335
 2674SOL    MW410696   0.829   4.499   4.495  0.2113  0.1388  0.0226
 2675SOL     OW10697   4.399   2.354   4.596  0.0532 -0.3703  0.0514
 2675SOL    HW210698   4.360   2.402   4.524  3.4526  0.3022 -1.4225
 2675SOL    HW310699   4.338   2.281   4.613 -0.1340 -1.3675 -4.4088
 2675SOL    MW410700   4.386   2.350   4.589  0.4770 -0.4132 -0.7316
 2676SOL     OW10701   1.599   2.826   3.809  0.0479 -0.3545 -0.4851
 2676SOL    HW210702   1.599   2.871   3.724 -0.0169  0.5100 -0.0338
 2676SOL    HW310703   1.593   2.733   3.787 -2.6250 -0.0186 -1.3764
 2676SOL    MW410704   1.599   2.820   3.795 -0.3133 -0.1961 -0.5432
 2677SOL     OW10705   1.459   0.955   4.446  0.5071  0.3938 -0.0050
 2677SOL    HW210706   1.410   0.899   4.386 -0.0684  0.5995  0.2783
 2677SOL    HW310707   1.517   0.894   4.492 -0.8128 -0.1211  1.0008
 2677SOL    MW410708   1.461   0.939   4.444  0.2570  0.3530  0.1651
 2678SOL     OW10709   1.844   1.672   3.707 -0.2866 -0.0749 -0.5118
 2678SOL    HW210710   1.890   1.754   3.688  0.9430 -0.5796  0.3147
 2678SOL    HW310711   1.763   1.700   3.750  0.1112  0.7041 -0.2606
 2678SOL    MW410712   1.839   1.687   3.710 -0.0719 -0.0387 -0.3696
 2679SOL     OW10713   0.068   2.694   4.375  0.2414 -0.0708 -0.0301
 2679SOL    HW210714   0.117   2.659   4.449  1.4841  0.1904 -0.7020
 2679SOL    HW310715   0.038   2.780   4.404 -1.8881 -1.1894  1.2315
 2679SOL    MW410716   0.071   2.701   4.389  0.1244 -0.1839  0.0477
 2680SOL     OW10717   3.983   1.850   3.761 -0.1879 -0.3480 -0.2905
 2680SOL    HW210718   3.912   1.842   3.825 -2.2808 -0.5125 -2.5773
 2680SOL    HW310719   4.042   1.915   3.800 -1.2485 -0.6405  1.9220
 2680SOL    MW410720   3.982   1.857   3.775 -0.6040 -0.4083 -0.3003
 2681SOL     OW10721   2.898   2.630   4.294  0.3955  0.0119  0.3376
 2681SOL    HW210722   2.863   2.627   4.205  1.3549 -0.2915 -0.0372
 2681SOL    HW310723   2.903   2.724   4.314  0.3778  0.0891 -0.0149
 2681SOL    MW410724   2.894   2.642   4.285  0.5198 -0.0179  0.2416
 2682SOL     OW10725   0.067   3.720   3.782  0.8818  0.3800  0.0382
 2682SOL    HW210726   0.137   3.659   3.757  0.8474  0.5843 -0.5716
 2682SOL    HW310727  -0.004   3.664   3.813  1.3267  0.1718  0.6955
 2682SOL    MW410728   0.067   3.704   3.783  0.9360  0.3795  0.0445
 2683SOL     OW10729   1.375   0.394   3.030  0.3022 -0.1795  0.1178
 2683SOL    HW210730   1.397   0.313   2.984  0.9393 -0.4200  0.8395
 2683SOL    HW310731   1.450   0.452   3.014  0.2754 -0.0701  0.3846
 2683SOL    MW410732   1.388   0.391   3.022  0.3827 -0.1968  0.2482
 2684SOL     OW10733   3.910   1.223   3.602 -0.3148  0.0992 -0.8655
 2684SOL    HW210734   3.841   1.185   3.656  1.2153 -1.6497 -0.0722
 2684SOL    HW310735   3.877   1.215   3.513  0.0626 -3.5144 -0.7768
 2684SOL    MW410736   3.897   1.217   3.597 -0.0631 -0.6083 -0.7491
 2685SOL     OW10737   3.537   0.097   4.371 -0.1042 -0.2809 -0.3029
 2685SOL    HW210738   3.545   0.010   4.409 -0.1947  0.5272  1.6272
 2685SOL    HW310739   3.444   0.104   4.348 -0.0597 -0.7630 -0.6242
 2685SOL    MW410740   3.526   0.086   4.373 -0.1103 -0.2379 -0.0907
 2686SOL     OW10741   3.468   0.924   4.531 -0.2051 -0.3201  0.2493
 2686SOL    HW210742   3.464   0.844   4.480  1.4659 -0.6378  0.6153
 2686SOL    HW310743   3.517   0.901   4.609  1.1133  1.2930 -0.0824
 2686SOL    MW410744   3.474   0.911   4.534  0.1893 -0.1492  0.2539
 2687SOL     OW10745   0.448   4.464   3.926  0.2570  0.3857  0.3334
 2687SOL    HW210746   0.497   4.510   3.994  0.2000  0.4665  0.3197
 2687SOL    HW310747   0.510   4.454   3.854  0.1181  0.8891  0.1418
 2687SOL    MW410748   0.463   4.469   3.925  0.2311  0.4628  0.3063
 2688SOL     OW10749   0.716   4.555   3.289 -0.2003 -0.2849  0.1688
 2688SOL    HW210750   0.685   4.581   3.203 -0.2990 -0.2358  0.2183
 2688SOL    HW310751   0.764   4.474   3.275  1.5822  0.8126 -0.2527
 2688SOL    MW410752   0.718   4.548   3.276  0.0219 -0.1336  0.1197
 2689SOL     OW10753   2.223   1.573   3.894  0.4566 -0.0822  0.3743
 2689SOL    HW210754   2.258   1.654   3.930  0.4750  0.5933 -1.0994
 2689SOL    HW310755   2.274   1.559   3.814 -1.7124  0.2276 -1.1195
 2689SOL    MW410756   2.234   1.582   3.888  0.1728  0.0478 -0.0172
 2690SOL     OW10757   0.899   2.290   4.383 -0.7467  0.1851 -0.0008
 2690SOL    HW210758   0.856   2.362   4.429 -1.2719  1.1103 -1.8675
 2690SOL    HW310759   0.992   2.313   4.384 -0.9986  1.3581 -1.3235
 2690SOL    MW410760   0.906   2.303   4.389 -0.8493  0.4619 -0.4216
 2691SOL     OW10761   0.051   2.448   3.300  0.0944  0.0925 -0.3802
 2691SOL    HW210762   0.043   2.467   3.393 -2.1562 -0.6245 -0.3986
 2691SOL    HW310763   0.049   2.533   3.257  1.6171  0.4510  0.2474
 2691SOL    MW410764   0.050   2.462   3.306 -0.0017  0.0452 -0.2998
 2692SOL     OW10765   0.183   4.622   4.291 -0.2941  0.2557  0.2945
 2692SOL    HW210766   0.275   4.649   4.286  0.0439 -0.9114  0.2118
 2692SOL    HW310767   0.142   4.665   4.216  0.0884  1.1049  0.5554
 2692SOL    MW410768   0.189   4.631   4.281 -0.1990  0.2138  0.3180
 2693SOL     OW10769   1.379   4.020   3.424  0.0080 -0.0068 -0.0492
 2693SOL    HW210770   1.445   3.970   3.377 -0.9223 -0.7781 -0.5513
 2693SOL    HW310771   1.395   3.999   3.516 -0.7749 -1.7695 -0.2872
 2693SOL    MW410772   1.390   4.011   3.430 -0.2180 -0.3411 -0.1468
 2694SOL     OW10773   0.715   2.488   4.544  0.0973  0.0422  0.1166
 2694SOL    HW210774   0.624   2.462   4.537  0.5622 -2.3568  2.0967
 2694SOL    HW310775   0.714   2.566   4.599 -0.6012 -1.4840  2.3317
 2694SOL    MW410776   0.703   2.495   4.551  0.0665 -0.4757  0.6701
 2695SOL     OW10777   2.835   4.640   3.586 -0.3481 -0.1132 -0.1615
 2695SOL    HW210778   2.810   4.664   3.675 -1.6421 -1.8183 -0.0369
 2695SOL    HW310779   2.765   4.675   3.531 -0.7611 -1.0599 -0.2577
 2695SOL    MW410780   2.822   4.648   3.591 -0.5733 -0.4631 -0.1578
 2696SOL     OW10781   3.778   3.058   3.841  0.2174 -0.1601  0.3182
 2696SOL    HW210782   3.821   3.109   3.909  0.3986 -0.5787  0.5198
 2696SOL    HW310783   3.732   2.988   3.888 -0.6617  0.2607  0.1052
 2696SOL    MW410784   3.777   3.055   3.856  0.1253 -0.1598  0.3167
 2697SOL     OW10785   2.783   1.018   4.015 -0.3024 -0.1769  0.1359
 2697SOL    HW210786   2.763   1.051   3.927  1.0967 -0.5610 -0.3267
 2697SOL    HW310787   2.803   1.096   4.066 -0.5430 -0.0033 -0.0339
 2697SOL    MW410788   2.783   1.033   4.010 -0.1496 -0.2047  0.0525
 2698SOL     OW10789   2.554   2.827   3.588 -0.2177  0.8106  0.2886
 2698SOL    HW210790   2.532   2.873   3.507 -0.7371  1.2174  0.6548
 2698SOL    HW310791   2.573   2.897   3.651  0.1903  0.4982  0.5129
 2698SOL    MW410792   2.554   2.842   3.586 -0.2324  0.8231  0.3665
 2699SOL     OW10793   4.300   3.280   4.249 -0.4896 -0.3757 -0.4722
 2699SOL    HW210794   4.369   3.260   4.313 -0.2692  0.9025 -0.2981
 2699SOL    HW310795   4.227   3.311   4.303 -0.7070 -0.4088 -0.7517
 2699SOL    MW410796   4.300   3.282   4.265 -0.4892 -0.2114 -0.4861
 2700SOL     OW10797   4.001   3.396   4.303  0.2367 -0.2047  0.5022
 2700SOL    HW210798   3.924   3.452   4.291 -0.8175 -2.0568 -1.7164
 2700SOL    HW310799   3.971   3.327   4.361 -0.4734 -2.1244 -2.0677
 2700SOL    MW410800   3.987   3.395   4.309  0.0040 -0.7023 -0.1296
 2701SOL     OW10801   3.845   4.570   4.230  0.0904  0.6877  0.0497
 2701SOL    HW210802   3.890   4.521   4.161  0.8820  0.5620  0.6449
 2701SOL    HW310803   3.752   4.549   4.218  0.0553  1.8962 -1.9426
 2701SOL    MW410804   3.839   4.561   4.220  0.1902  0.8305 -0.1346
 2702SOL     OW10805   2.487   2.025   3.391  0.5485  0.1911 -0.0114
 2702SOL    HW210806   2.399   1.992   3.376  0.7628 -0.8082  0.9038
 2702SOL    HW310807   2.491   2.042   3.485  1.8260 -1.2388  0.2054
 2702SOL    MW410808   2.476   2.023   3.401  0.7453 -0.1294  0.1380
 2703SOL     OW10809   0.088   1.165   3.785 -0.0141  0.2540  0.0709
 2703SOL    HW210810   0.005   1.209   3.766  0.4077  0.8856 -0.3159
 2703SOL    HW310811   0.153   1.213   3.735  0.5695 -0.3421  0.2468
 2703SOL    MW410812   0.085   1.177   3.776  0.1185  0.2587  0.0431
 2704SOL     OW10813   3.199   3.806   3.444  0.2689 -0.1865 -0.0828
 2704SOL    HW210814   3.112   3.790   3.481  0.2026 -0.9970 -0.5846
 2704SOL    HW310815   3.239   3.720   3.439  1.7068  0.3450  1.6028
 2704SOL    MW410816   3.193   3.793   3.448  0.4498 -0.2233  0.0734
 2705SOL     OW10817   0.081   0.659   3.819  0.0213 -0.1388 -0.1865
 2705SOL    HW210818   0.120   0.650   3.906  0.9483  0.0712 -0.5643
 2705SOL    HW310819   0.080   0.753   3.803 -0.0676 -0.1811 -0.4297
 2705SOL    MW410820   0.086   0.670   3.828  0.1319 -0.1166 -0.2684
 2706SOL     OW10821   0.336   4.514   3.610 -0.2092 -0.4126 -0.3288
 2706SOL    HW210822   0.255   4.486   3.653 -0.3239 -0.6968 -0.7276
 2706SOL    HW310823   0.406   4.476   3.664 -0.2920  1.3974  1.1029
 2706SOL    MW410824   0.334   4.505   3.623 -0.2352 -0.2113 -0.1925
 2707SOL     OW10825   2.835   0.540   3.969  0.0391 -0.0259  0.1531
 2707SOL    HW210826   2.916   0.519   4.015  0.8562  0.9964 -0.8002
 2707SOL    HW310827   2.851   0.624   3.927 -1.7369  0.5007  0.4668
 2707SOL    MW410828   2.848   0.548   3.969 -0.0875  0.1784  0.0687
 2708SOL     OW10829   1.272   2.048   3.647 -0.4307  0.2606 -0.2537
 2708SOL    HW210830   1.193   2.004   3.677 -0.1985  0.7286  1.0733
 2708SOL    HW310831   1.268   2.042   3.551 -1.0097 -1.5384 -0.1342
 2708SOL    MW410832   1.261   2.042   3.638 -0.4765  0.0850 -0.0629
 2709SOL     OW10833   2.041   3.935   4.108  0.4814 -0.1247 -0.5529
 2709SOL    HW210834   2.038   3.852   4.061 -1.1402 -0.3058 -0.1725
 2709SOL    HW310835   2.101   3.920   4.181 -2.0558 -1.9261  1.2603
 2709SOL    MW410836   2.049   3.922   4.111 -0.0673 -0.3863 -0.2635
 2710SOL     OW10837   1.426   1.508   4.164  0.3451  0.0166 -0.1140
 2710SOL    HW210838   1.514   1.471   4.177 -0.0881 -0.6963  0.9165
 2710SOL    HW310839   1.368   1.446   4.208 -0.6203  0.7822 -0.2969
 2710SOL    MW410840   1.430   1.495   4.172  0.1606  0.0235 -0.0022
 2711SOL     OW10841   1.257   1.130   4.375  0.0632 -0.6586 -0.3848
 2711SOL    HW210842   1.270   1.211   4.425  0.7199 -0.6799 -0.5215
 2711SOL    HW310843   1.324   1.070   4.408 -1.5489 -1.7521  0.9689
 2711SOL    MW410844   1.267   1.133   4.386 -0.0629 -0.8057 -0.2242
 2712SOL     OW10845   1.462   1.913   3.798  0.0394 -0.2712 -0.5259
 2712SOL    HW210846   1.493   1.957   3.877  1.3548 -0.1320 -1.1223
 2712SOL    HW310847   1.397   1.974   3.761 -1.3240 -0.7864  0.9740
 2712SOL    MW410848   1.457   1.927   3.804  0.0331 -0.3208 -0.4067
 2713SOL     OW10849   2.756   2.401   4.372 -0.4481  0.0267  0.3653
 2713SOL    HW210850   2.811   2.478   4.364 -0.1799 -0.1221  0.7746
 2713SOL    HW310851   2.811   2.335   4.415 -0.9227 -0.1365  0.7322
 2713SOL    MW410852   2.770   2.402   4.376 -0.4754 -0.0145  0.4677
 2714SOL     OW10853   4.293   1.224   4.031 -0.3189  0.2317  0.3623
 2714SOL    HW210854   4.252   1.138   4.025 -1.2209  0.7519 -1.3858
 2714SOL    HW310855   4.221   1.286   4.017  0.5232  1.2409  0.4218
 2714SOL    MW410856   4.278   1.221   4.028 -0.3268  0.4335  0.1395
 2715SOL     OW10857   0.895   4.103   4.261  0.0918 -0.3289 -0.3008
 2715SOL    HW210858   0.836   4.177   4.244 -0.1391 -0.3483  0.4075
 2715SOL    HW310859   0.972   4.143   4.302 -1.0826 -0.7631  2.4229
 2715SOL    MW410860   0.897   4.118   4.264 -0.0936 -0.3887  0.1520
 2716SOL     OW10861   0.271   2.261   3.254 -0.0143  0.0124 -0.3818
 2716SOL    HW210862   0.350   2.296   3.295  0.1929 -1.9869  0.9951
 2716SOL    HW310863   0.203   2.326   3.271  0.6359  0.3330  1.0477
 2716SOL    MW410864   0.273   2.274   3.261  0.0988 -0.2091 -0.0115
 2717SOL     OW10865   2.188   1.150   4.150 -0.0384 -0.1761  0.0768
 2717SOL    HW210866   2.219   1.240   4.141  1.1623 -0.7430 -1.6667
 2717SOL    HW310867   2.113   1.145   4.091 -0.8386  0.0052  1.0722
 2717SOL    MW410868   2.182   1.161   4.141  0.0144 -0.2270 -0.0219
 2718SOL     OW10869   3.855   0.392   4.006  0.3384  0.3143 -0.1858
 2718SOL    HW210870   3.883   0.365   3.918 -0.2576  0.9057 -0.5669
 2718SOL    HW310871   3.849   0.311   4.056 -0.7653 -0.1841 -1.1124
 2718SOL    MW410872   3.858   0.378   4.001  0.1141  0.3266 -0.3583
 2719SOL     OW10873   2.964   4.552   3.973 -0.3570  0.0497  0.2825
 2719SOL    HW210874   2.944   4.638   4.010 -0.6467 -0.3540  1.0703
 2719SOL    HW310875   2.890   4.497   3.998  0.2400 -0.6509  0.5467
 2719SOL    MW410876   2.952   4.556   3.981 -0.3165 -0.0960  0.4213
 2720SOL     OW10877   0.672   1.838   4.445  0.0145 -0.4596 -0.1980
 2720SOL    HW210878   0.612   1.789   4.502  0.7059 -1.9288 -0.6880
 2720SOL    HW310879   0.626   1.846   4.362 -0.2455  0.0296 -0.0041
 2720SOL    MW410880   0.658   1.832   4.442  0.0714 -0.5889 -0.2371
 2721SOL     OW10881   2.518   3.228   4.202 -0.4242 -0.1739  0.3804
 2721SOL    HW210882   2.473   3.289   4.259  0.2318 -0.8463  1.6437
 2721SOL    HW310883   2.608   3.224   4.236  0.0771 -0.3078 -0.9109
 2721SOL    MW410884   2.524   3.235   4.214 -0.2715 -0.2803  0.3767
 2722SOL     OW10885   2.556   4.041   3.198  0.4758 -0.3312 -0.0965
 2722SOL    HW210886   2.517   4.112   3.249 -0.1147 -0.2232 -0.6858
 2722SOL    HW310887   2.544   3.963   3.251 -1.7647 -0.5294 -0.8529
 2722SOL    MW410888   2.549   4.040   3.211  0.1023 -0.3431 -0.2740
 2723SOL     OW10889   4.023   2.332   3.812  0.1796 -0.6290  0.1295
 2723SOL    HW210890   4.008   2.386   3.889  0.8304 -0.3116  0.0322
 2723SOL    HW310891   3.935   2.304   3.785 -0.0720 -0.4680  0.7839
 2723SOL    MW410892   4.009   2.336   3.818  0.2322 -0.5659  0.2030
 2724SOL     OW10893   4.131   0.858   4.475  0.9559 -0.2450 -0.5766
 2724SOL    HW210894   4.226   0.866   4.485  0.7811  0.1828  0.9623
 2724SOL    HW310895   4.102   0.945   4.448  0.8157  0.1581  0.7939
 2724SOL    MW410896   4.139   0.870   4.473  0.9144 -0.1354 -0.1928
 2725SOL     OW10897   4.240   0.350   3.741 -0.2103 -0.4040 -0.3054
 2725SOL    HW210898   4.252   0.342   3.835 -0.9060 -0.8481 -0.2518
 2725SOL    HW310899   4.269   0.439   3.720 -0.3472 -0.1990  0.3753
 2725SOL    MW410900   4.245   0.360   3.751 -0.3202 -0.4355 -0.2085
 2726SOL     OW10901   0.431   4.507   3.337 -0.2674 -0.0522  0.2481
 2726SOL    HW210902   0.397   4.484   3.424 -0.7281 -0.2597  0.0147
 2726SOL    HW310903   0.526   4.511   3.349 -0.3096 -0.3181  0.7047
 2726SOL    MW410904   0.439   4.505   3.350 -0.3337 -0.1147  0.2775
 2727SOL     OW10905   2.867   0.569   4.563  0.0622  0.2941 -0.0217
 2727SOL    HW210906   2.918   0.559   4.643  0.3967 -0.2825 -0.3037
 2727SOL    HW310907   2.918   0.628   4.508  0.0926  0.2664 -0.0233
 2727SOL    MW410908   2.880   0.575   4.566  0.1103  0.2144 -0.0591
 2728SOL     OW10909   4.365   4.633   3.833  0.1238 -0.1321  0.6108
 2728SOL    HW210910   4.389   4.691   3.761 -0.7198 -0.9116 -0.3057
 2728SOL    HW310911   4.411   4.669   3.909  1.6289  0.2644 -0.4567
 2728SOL    MW410912   4.375   4.645   3.834  0.2111 -0.1826  0.3491
 2729SOL     OW10913   1.000   0.414   4.649  0.5183 -0.1590  0.5714
 2729SOL    HW210914   0.923   0.397   4.595  0.4113 -0.4454  0.8136
 2729SOL    HW310915   0.997   0.509   4.665 -0.1588 -0.2668  1.1429
 2729SOL    MW410916   0.989   0.425   4.644  0.4149 -0.2110  0.6788
 2730SOL     OW10917   2.493   1.093   4.488  0.4276 -0.1068  0.1258
 2730SOL    HW210918   2.481   1.187   4.472 -0.8612 -0.2781  0.0044
 2730SOL    HW310919   2.586   1.077   4.471  1.1845  1.6018  2.4429
 2730SOL    MW410920   2.504   1.103   4.484  0.3574  0.0960  0.4155
 2731SOL     OW10921   0.136   4.378   4.442 -0.0044 -0.2723  0.4459
 2731SOL    HW210922   0.119   4.417   4.528  1.0967 -0.3974  0.7269
 2731SOL    HW310923   0.156   4.453   4.385  0.0381 -0.2610  0.4763
 2731SOL    MW410924   0.136   4.393   4.446  0.1465 -0.2873  0.4870
 2732SOL     OW10925   1.986   1.460   3.795  0.2728 -0.2579 -0.4971
 2732SOL    HW210926   2.068   1.505   3.816 -0.1697 -0.2567  1.3529
 2732SOL    HW310927   1.935   1.524   3.746  1.3009 -0.1961 -1.5060
 2732SOL    MW410928   1.990   1.474   3.792  0.3501 -0.2496 -0.3861
 2733SOL     OW10929   3.780   0.850   4.196 -0.2156 -0.3298  0.0145
 2733SOL    HW210930   3.855   0.800   4.228  0.0569  1.9899  3.2063
 2733SOL    HW310931   3.817   0.932   4.165 -1.3495  0.6437  1.1750
 2733SOL    MW410932   3.795   0.854   4.196 -0.3292  0.1047  0.5887
 2734SOL     OW10933   1.738   3.683   4.533  0.6439 -0.5760 -0.0352
 2734SOL    HW210934   1.707   3.758   4.482 -0.1524 -0.8542  0.0272
 2734SOL    HW310935   1.663   3.623   4.535  1.2005 -1.2706  0.1083
 2734SOL    MW410936   1.724   3.685   4.526  0.6123 -0.7043 -0.0080
 2735SOL     OW10937   1.617   1.041   4.241  0.5995  0.5804  0.5096
 2735SOL    HW210938   1.558   1.017   4.312 -0.3740  1.6709  0.0859
 2735SOL    HW310939   1.581   0.996   4.164  1.0215  0.2830  0.4836
 2735SOL    MW410940   1.604   1.032   4.240  0.5267  0.6850  0.4503
 2736SOL     OW10941   1.398   4.299   3.466 -0.3700  0.0383  0.2904
 2736SOL    HW210942   1.309   4.329   3.444 -0.0963  0.5254 -0.1654
 2736SOL    HW310943   1.391   4.203   3.468 -1.1111  0.1034  1.1680
 2736SOL    MW410944   1.385   4.290   3.463 -0.4317  0.1111  0.3460
 2737SOL     OW10945   4.018   2.512   4.033  0.0684 -0.1439 -0.6844
 2737SOL    HW210946   4.108   2.544   4.026  0.1460 -0.2480 -0.2224
 2737SOL    HW310947   3.967   2.590   4.055  0.3283 -0.3944  0.9294
 2737SOL    MW410948   4.023   2.526   4.035  0.1129 -0.1907 -0.4105
 2738SOL     OW10949   1.416   4.645   3.621  0.4819  0.3987  0.0550
 2738SOL    HW210950   1.406   4.738   3.644  1.9405  0.4138  0.7054
 2738SOL    HW310951   1.507   4.637   3.594  0.4612 -0.9219  0.3657
 2738SOL    MW410952   1.426   4.656   3.621  0.6716  0.2265  0.1818
 2739SOL     OW10953   0.269   1.307   3.629  0.1801 -0.1234  0.0002
 2739SOL    HW210954   0.363   1.319   3.645  0.1854 -0.4544  0.2378
 2739SOL    HW310955   0.262   1.299   3.534  0.3486  0.2721 -0.0433
 2739SOL    MW410956   0.281   1.307   3.619  0.2031 -0.1149  0.0258
 2740SOL     OW10957   0.173   3.832   4.009 -0.3309 -0.0557  0.4951
 2740SOL    HW210958   0.220   3.911   3.984 -1.6366  1.6090  3.0928
 2740SOL    HW310959   0.122   3.809   3.931  0.7404  1.1243 -0.5806
 2740SOL    MW410960   0.172   3.840   3.995 -0.3619  0.3196  0.6959
 2741SOL     OW10961   3.724   3.982   3.960  0.1662 -0.1756 -0.4939
 2741SOL    HW210962   3.818   3.991   3.946  0.1107  0.3564 -0.5573
 2741SOL    HW310963   3.689   4.069   3.940 -0.0562  0.3015  1.8798
 2741SOL    MW410964   3.732   3.995   3.955  0.1295 -0.0425 -0.1891
 2742SOL     OW10965   3.702   2.796   3.941  0.1085 -0.2352  0.2882
 2742SOL    HW210966   3.636   2.781   4.008 -0.5861  0.6947 -0.1831
 2742SOL    HW310967   3.671   2.749   3.865  0.4583 -0.5622  0.3443
 2742SOL    MW410968   3.689   2.788   3.940  0.0630 -0.1556  0.2334
 2743SOL     OW10969   3.613   2.655   3.706  0.2487 -0.4802 -0.0329
 2743SOL    HW210970   3.681   2.686   3.647 -0.6613 -1.0315 -1.3909
 2743SOL    HW310971   3.535   2.705   3.683 -0.4958 -1.7362 -0.3167
 2743SOL    MW410972   3.611   2.665   3.695  0.0304 -0.7186 -0.2496
 2744SOL     OW10973   1.136   3.931   3.282  0.3762  0.6192 -0.2904
 2744SOL    HW210974   1.215   3.962   3.326  0.5833  0.2706 -0.4132
 2744SOL    HW310975   1.124   3.842   3.317 -1.0314  1.3719  1.1785
 2744SOL    MW410976   1.145   3.923   3.293  0.2178  0.6725 -0.1128
 2745SOL     OW10977   1.047   3.589   3.616 -0.5089  0.1857  0.1610
 2745SOL    HW210978   1.001   3.507   3.631  1.9952 -1.0006  1.6016
 2745SOL    HW310979   1.112   3.594   3.685  1.1436  2.0983 -1.4522
 2745SOL    MW410980   1.049   3.579   3.627  0.0395  0.2815  0.1382
 2746SOL     OW10981   4.297   4.277   3.863 -0.2654 -0.3661 -0.0990
 2746SOL    HW210982   4.218   4.243   3.905 -0.5667  1.7950  1.1429
 2746SOL    HW310983   4.366   4.264   3.928  0.0673 -0.6424 -0.5017
 2746SOL    MW410984   4.295   4.271   3.877 -0.2613 -0.1174  0.0117
 2747SOL     OW10985   3.520   3.601   4.446 -0.1930 -0.1394  0.2442
 2747SOL    HW210986   3.524   3.694   4.469  0.4662  0.0071 -0.4670
 2747SOL    HW310987   3.426   3.584   4.434 -0.1465  1.0430 -2.0574
 2747SOL    MW410988   3.508   3.611   4.448 -0.0999  0.0359 -0.1533
 2748SOL     OW10989   2.996   2.996   4.078 -0.6176  0.3043  0.6042
 2748SOL    HW210990   3.026   3.087   4.075 -1.0355  0.4569  1.0024
 2748SOL    HW310991   2.930   2.990   4.009  1.2507 -0.3768 -1.1665
 2748SOL    MW410992   2.992   3.007   4.068 -0.4263  0.2345  0.4231
 2749SOL     OW10993   2.849   3.304   4.304 -0.2492  0.0399  0.0601
 2749SOL    HW210994   2.942   3.295   4.324 -0.7692 -0.5314  2.4738
 2749SOL    HW310995   2.826   3.390   4.340 -0.4913  0.5296 -1.2485
 2749SOL    MW410996   2.858   3.314   4.312 -0.3498  0.0291  0.2059
 2750SOL     OW10997   0.666   3.331   4.288  0.2934  0.1041 -0.2067
 2750SOL    HW210998   0.666   3.391   4.362  0.5148 -1.0114  0.7103
 2750SOL    HW310999   0.758   3.308   4.275  0.1091 -0.8207  0.0928
 2750SOL    MW411000   0.678   3.336   4.296  0.2983 -0.1651 -0.0462
 2751SOL     OW11001   0.643   3.313   3.770 -0.1066 -0.4988  0.1092
 2751SOL    HW211002   0.664   3.244   3.833 -0.1560 -0.8419 -0.2483
 2751SOL    HW311003   0.725   3.331   3.725 -0.1166 -0.3970  0.1317
 2751SOL    MW411004   0.656   3.306   3.772 -0.1145 -0.5306  0.0650
 2752SOL     OW11005   2.482   1.544   3.268 -0.1489  0.3517  0.1076
 2752SOL    HW211006   2.478   1.547   3.173 -2.5075 -0.0858  0.1646
 2752SOL    HW311007   2.566   1.586   3.290  0.6193  0.0571 -2.1516
 2752SOL    MW411008   2.493   1.550   3.259 -0.3588  0.2551 -0.1829
 2753SOL     OW11009   2.587   4.497   4.171 -0.0228  0.2328 -0.1345
 2753SOL    HW211010   2.530   4.565   4.134 -0.7133 -0.2507  0.0134
 2753SOL    HW311011   2.631   4.459   4.095  0.0322  0.5496 -0.2621
 2753SOL    MW411012   2.585   4.501   4.156 -0.1066  0.2108 -0.1318
 2754SOL     OW11013   3.319   1.698   4.203 -0.0209  0.2286  0.9134
 2754SOL    HW211014   3.385   1.648   4.252  0.3841 -0.5783 -0.4368
 2754SOL    HW311015   3.281   1.635   4.142  0.2268  1.4622 -0.5429
 2754SOL    MW411016   3.323   1.683   4.201  0.0653  0.2849  0.5431
 2755SOL     OW11017   3.223   1.085   4.156  0.3547 -0.2657 -0.1050
 2755SOL    HW211018   3.215   1.082   4.251 -0.8057 -0.7470 -0.2098
 2755SOL    HW311019   3.253   0.997   4.132  1.8967  0.2443 -0.0810
 2755SOL    MW411020   3.226   1.073   4.165  0.4050 -0.2619 -0.1157
 2756SOL     OW11021   4.101   3.580   4.526 -0.4981  0.0182 -0.0493
 2756SOL    HW211022   4.062   3.531   4.454 -0.0905  0.3476 -0.4994
 2756SOL    HW311023   4.068   3.670   4.516  1.1058  0.5133 -0.9914
 2756SOL    MW411024   4.092   3.586   4.515 -0.2327  0.1270 -0.2330
 2757SOL     OW11025   3.156   1.656   3.405  0.4840  0.2019 -0.8495
 2757SOL    HW211026   3.141   1.748   3.381 -1.4324  0.4984  1.2669
 2757SOL    HW311027   3.099   1.606   3.347  0.7112  0.4168 -1.2632
 2757SOL    MW411028   3.147   1.662   3.395  0.2612  0.2693 -0.6248
 2758SOL     OW11029   3.243   2.879   4.161 -0.4875 -0.3967  0.3938
 2758SOL    HW211030   3.248   2.936   4.238 -0.4262  1.1292 -0.7130
 2758SOL    HW311031   3.165   2.908   4.115 -0.6031 -1.4024 -0.0519
 2758SOL    MW411032   3.234   2.890   4.165 -0.4947 -0.3281  0.1890
 2759SOL     OW11033   3.954   2.066   4.278 -0.0366 -0.5286 -0.0351
 2759SOL    HW211034   3.946   2.151   4.235  0.4565 -0.9272 -0.9429
 2759SOL    HW311035   4.001   2.012   4.215  1.7341 -0.8020  1.4770
 2759SOL    MW411036   3.959   2.070   4.264  0.2621 -0.6173  0.0447
 2760SOL     OW11037   3.711   0.246   3.472 -0.4842  0.1931 -0.6546
 2760SOL    HW211038   3.805   0.247   3.459 -0.5342  0.4462 -1.0156
 2760SOL    HW311039   3.685   0.155   3.459 -0.1721 -0.0454  0.3332
 2760SOL    MW411040   3.720   0.234   3.469 -0.4496  0.1950 -0.5719
 2761SOL     OW11041   0.126   2.487   4.001 -0.0555 -0.3982  0.4482
 2761SOL    HW211042   0.161   2.557   4.056 -0.1421 -0.9094  1.1582
 2761SOL    HW311043   0.172   2.408   4.029 -0.4798 -0.7563  0.1555
 2761SOL    MW411044   0.136   2.486   4.012 -0.1229 -0.5129  0.5033
 2762SOL     OW11045   4.108   2.077   3.855 -0.1579  0.5359 -0.0495
 2762SOL    HW211046   4.085   2.167   3.879 -1.7218 -0.0044  0.6081
 2762SOL    HW311047   4.133   2.082   3.763 -0.3137  1.6334 -0.0435
 2762SOL    MW411048   4.108   2.089   3.846 -0.3848  0.6094  0.0381
 2763SOL     OW11049   2.895   3.038   3.243  0.1008  0.1833 -0.2193
 2763SOL    HW211050   2.827   3.099   3.273 -0.4672 -0.5019 -0.0850
 2763SOL    HW311051   2.899   3.050   3.149 -1.8229 -1.3824 -0.5281
 2763SOL    MW411052   2.886   3.047   3.235 -0.2279 -0.1137 -0.2423
 2764SOL     OW11053   2.755   0.276   4.186  0.5500 -0.3949  0.1666
 2764SOL    HW211054   2.726   0.191   4.220  1.1932 -0.7511 -0.1546
 2764SOL    HW311055   2.819   0.307   4.250  1.6377 -0.9898 -0.5948
 2764SOL    MW411056   2.760   0.269   4.199  0.7783 -0.5204  0.0238
 2765SOL     OW11057   3.306   4.055   4.430  0.0116  0.1866  0.0999
 2765SOL    HW211058   3.347   4.124   4.482  0.5173 -0.7743  1.0083
 2765SOL    HW311059   3.301   4.091   4.341  0.3961  1.3246  0.5303
 2765SOL    MW411060   3.311   4.069   4.425  0.1290  0.2099  0.2766
 2766SOL     OW11061   0.473   2.592   4.265  0.3467  0.2343  0.6499
 2766SOL    HW211062   0.392   2.638   4.242  0.6135  0.8077  0.8367
 2766SOL    HW311063   0.456   2.556   4.352  0.2988  0.3753  0.6996
 2766SOL    MW411064   0.460   2.593   4.274  0.3756  0.3286  0.6811
 2767SOL     OW11065   0.902   2.001   4.371 -0.4156  0.5080 -0.0159
 2767SOL    HW211066   0.832   1.943   4.402  0.5084 -0.0658  1.0516
 2767SOL    HW311067   0.865   2.089   4.379 -0.0804  0.4066  3.1264
 2767SOL    MW411068   0.888   2.005   4.376 -0.2495  0.4189  0.5396
 2768SOL     OW11069   1.133   1.261   3.648  0.9341 -0.2189 -0.2568
 2768SOL    HW211070   1.041   1.275   3.671  0.8153 -1.5622  0.1062
 2768SOL    HW311071   1.131   1.228   3.559  0.8724 -2.9495  0.7253
 2768SOL    MW411072   1.120   1.259   3.640  0.9103 -0.7564 -0.0793
 2769SOL     OW11073   2.254   0.282   3.285 -0.1544 -0.2779 -0.4141
 2769SOL    HW211074   2.330   0.316   3.332  0.3984 -1.1930 -0.6396
 2769SOL    HW311075   2.259   0.187   3.297 -2.5753 -0.2239  1.5833
 2769SOL    MW411076   2.265   0.274   3.293 -0.4008 -0.3915 -0.1803
 2770SOL     OW11077   3.671   4.548   3.624 -0.2958  0.1742 -0.0420
 2770SOL    HW211078   3.704   4.463   3.653 -1.0676  0.9151  3.2634
 2770SOL    HW311079   3.582   4.553   3.661 -1.2460  1.3256 -2.4100
 2770SOL    MW411080   3.663   4.538   3.633 -0.5230  0.4239  0.0817
 2771SOL     OW11081   1.806   1.638   3.431  0.3099  0.5982 -0.4013
 2771SOL    HW211082   1.793   1.652   3.525 -1.8303 -0.1401 -0.5400
 2771SOL    HW311083   1.796   1.725   3.392  1.7410  0.9934  0.0942
 2771SOL    MW411084   1.803   1.651   3.438  0.2164  0.5529 -0.3542
 2772SOL     OW11085   4.430   0.098   4.517  0.2689 -0.0912 -0.0703
 2772SOL    HW211086   4.376   0.171   4.548 -2.0400 -1.7812 -0.0132
 2772SOL    HW311087   4.519   0.121   4.544 -0.4447  2.5879  0.1345
 2772SOL    MW411088   4.435   0.111   4.525 -0.1299  0.0393 -0.0357
 2773SOL     OW11089   2.241   0.368   4.006 -0.0417 -0.1829 -0.8045
 2773SOL    HW211090   2.331   0.348   4.033  0.0136  0.0018 -0.8518
 2773SOL    HW311091   2.188   0.351   4.084  0.2623  1.4531 -0.2245
 2773SOL    MW411092   2.246   0.363   4.020  0.0057  0.0573 -0.7342
 2774SOL     OW11093   3.993   4.236   3.256 -0.3803 -0.4336 -0.8169
 2774SOL    HW211094   4.077   4.278   3.279 -0.8219  0.1693 -0.2762
 2774SOL    HW311095   3.927   4.299   3.285 -1.0054 -0.5257 -2.0188
 2774SOL    MW411096   3.996   4.250   3.263 -0.5210 -0.3662 -0.9041
 2775SOL     OW11097   0.670   1.156   4.369 -0.3611  0.0441 -0.2245
 2775SOL    HW211098   0.752   1.109   4.387  1.0102  2.5261  0.2993
 2775SOL    HW311099   0.644   1.126   4.282  2.6167  1.2082 -1.6062
 2775SOL    MW411100   0.678   1.146   4.360  0.2127  0.5252 -0.3377
 2776SOL     OW11101   4.315   0.337   4.015  0.4990  0.4459 -0.5007
 2776SOL    HW211102   4.244   0.321   4.076 -0.4306  0.5964 -1.5225
 2776SOL    HW311103   4.316   0.432   4.003  0.1236  0.3528 -1.3457
 2776SOL    MW411104   4.306   0.347   4.021  0.3268  0.4535 -0.7470
 2777SOL     OW11105   1.821   4.094   4.196  0.3246  0.2221  0.2066
 2777SOL    HW211106   1.834   4.118   4.288 -0.0400  1.4479 -0.0552
 2777SOL    HW311107   1.891   4.031   4.178 -0.2573 -0.8599  1.6190
 2777SOL    MW411108   1.832   4.089   4.206  0.1997  0.2411  0.3584
 2778SOL     OW11109   4.160   1.356   4.372 -0.0248 -0.3001  0.0421
 2778SOL    HW211110   4.235   1.300   4.351 -0.9001 -2.3429  2.0619
 2778SOL    HW311111   4.195   1.445   4.373  1.8608 -0.9974 -1.2083
 2778SOL    MW411112   4.174   1.360   4.369  0.1085 -0.6617  0.1436
 2779SOL     OW11113   4.004   0.680   4.323 -0.2923 -0.2307  0.1853
 2779SOL    HW211114   4.037   0.749   4.380  0.4317  0.2256 -0.7749
 2779SOL    HW311115   4.030   0.599   4.367  1.4104  0.1215 -0.1357
 2779SOL    MW411116   4.012   0.678   4.336  0.0279 -0.1241  0.0163
 2780SOL     OW11117   2.924   2.773   3.382  0.3187  0.0576  0.2224
 2780SOL    HW211118   2.919   2.862   3.346 -2.6290  0.1385  0.6842
 2780SOL    HW311119   2.905   2.784   3.475 -0.3540 -1.0612  0.2289
 2780SOL    MW411120   2.921   2.787   3.389 -0.1590 -0.0793  0.2842
 2781SOL     OW11121   1.927   2.544   3.655 -0.0834 -0.0640  0.2378
 2781SOL    HW211122   1.845   2.551   3.704 -0.8866 -2.2108 -0.7218
 2781SOL    HW311123   1.900   2.521   3.566  1.5090  0.3884 -0.3709
 2781SOL    MW411124   1.912   2.542   3.650  0.0207 -0.2875  0.0309
 2782SOL     OW11125   3.569   4.240   4.297 -0.0383 -0.0792  0.5834
 2782SOL    HW211126   3.495   4.220   4.239  0.1402 -0.9684  0.6497
 2782SOL    HW311127   3.624   4.161   4.294  0.5733  0.3195  1.0474
 2782SOL    MW411128   3.567   4.227   4.289  0.0659 -0.1439  0.6534
 2783SOL     OW11129   4.087   1.408   3.980 -0.2808 -0.4771 -0.6230
 2783SOL    HW211130   4.095   1.502   3.996  0.2841 -0.6595  0.1865
 2783SOL    HW311131   4.037   1.402   3.898 -0.1104  0.5277 -0.8093
 2783SOL    MW411132   4.081   1.420   3.971 -0.1838 -0.3686 -0.5408
 2784SOL     OW11133   0.775   0.260   4.239 -0.1004 -0.3865 -0.1367
 2784SOL    HW211134   0.810   0.330   4.184  1.4845  0.0580  1.3820
 2784SOL    HW311135   0.842   0.191   4.235 -0.7098 -0.9898 -0.0188
 2784SOL    MW411136   0.789   0.260   4.231  0.0283 -0.4075  0.0792
 2785SOL     OW11137   4.070   3.473   3.989 -0.0365  0.3492  0.3869
 2785SOL    HW211138   4.150   3.426   3.963 -0.5486 -0.5971  0.5108
 2785SOL    HW311139   4.050   3.440   4.076 -0.9226  0.1046  0.0930
 2785SOL    MW411140   4.078   3.462   3.997 -0.2210  0.1921  0.3645
 2786SOL     OW11141   3.583   4.661   4.114  0.2182  0.4501  0.4916
 2786SOL    HW211142   3.585   4.705   4.199 -0.0494  1.2588  0.0878
 2786SOL    HW311143   3.589   4.733   4.050  0.8366 -0.1753 -0.1638
 2786SOL    MW411144   3.584   4.676   4.117  0.2645  0.4743  0.3518
 2787SOL     OW11145   0.923   0.287   3.778 -0.2435 -0.1342 -0.6642
 2787SOL    HW211146   0.987   0.217   3.792 -0.8134 -0.5468 -0.0650
 2787SOL    HW311147   0.859   0.249   3.717 -1.0200 -0.4471  0.3303
 2787SOL    MW411148   0.923   0.273   3.771 -0.4212 -0.2299 -0.4540
 2788SOL     OW11149   0.572   4.426   4.365  0.2380  0.3863  0.1279
 2788SOL    HW211150   0.651   4.438   4.418 -0.4211  1.5258  0.8691
 2788SOL    HW311151   0.525   4.508   4.373 -1.2317 -0.4266  0.0148
 2788SOL    MW411152   0.576   4.438   4.373 -0.0429  0.4294  0.2107
 2789SOL     OW11153   2.497   1.946   4.091 -0.0528  0.5352 -1.0794
 2789SOL    HW211154   2.564   1.926   4.026  0.0936  0.6341 -0.9600
 2789SOL    HW311155   2.454   2.026   4.058  0.5188  1.0147 -0.6800
 2789SOL    MW411156   2.500   1.954   4.078  0.0419  0.6115 -1.0110
 2790SOL     OW11157   0.707   4.303   4.155  0.4812 -0.1014 -0.1979
 2790SOL    HW211158   0.676   4.367   4.220 -0.9380  0.0837 -1.0465
 2790SOL    HW311159   0.631   4.249   4.136  1.5868 -1.8504  0.2495
 2790SOL    MW411160   0.693   4.305   4.161  0.4398 -0.3077 -0.2508
 2791SOL     OW11161   3.293   3.854   3.718  0.2720  0.5210 -0.0049
 2791SOL    HW211162   3.293   3.856   3.622  3.0984 -1.5246 -0.1189
 2791SOL    HW311163   3.386   3.857   3.741 -0.3754  0.8332  2.6731
 2791SOL    MW411164   3.305   3.855   3.708  0.5595  0.2923  0.3334
 2792SOL     OW11165   3.772   3.599   4.306  0.3404  0.2332 -0.6334
 2792SOL    HW211166   3.744   3.627   4.219 -0.9557  0.0790 -0.2708
 2792SOL    HW311167   3.691   3.591   4.356  0.9504 -1.1732  0.1506
 2792SOL    MW411168   3.758   3.602   4.301  0.2499  0.0273 -0.4821
 2793SOL     OW11169   2.702   1.135   3.769  0.3672  0.4282 -0.4925
 2793SOL    HW211170   2.609   1.151   3.780  0.3767  0.2459 -0.1509
 2793SOL    HW311171   2.708   1.053   3.720  0.3561 -0.0999  0.3674
 2793SOL    MW411172   2.691   1.126   3.764  0.3670  0.3345 -0.3340
 2794SOL     OW11173   4.114   0.821   3.636 -0.1116  0.3119  0.2499
 2794SOL    HW211174   4.063   0.782   3.707 -0.0151  1.6348  1.0805
 2794SOL    HW311175   4.122   0.914   3.661  0.2377  0.7144 -1.3100
 2794SOL    MW411176   4.109   0.828   3.649 -0.0528  0.5396  0.1537
 2795SOL     OW11177   3.164   3.475   3.947  0.1363 -0.3246  0.1342
 2795SOL    HW211178   3.190   3.500   3.859 -0.6542 -0.4946 -0.1488
 2795SOL    HW311179   3.104   3.545   3.976  0.5542 -0.1607  0.6144
 2795SOL    MW411180   3.159   3.488   3.939  0.0872 -0.3254  0.1603
 2796SOL     OW11181   1.575   3.305   3.827  0.0885  0.1463 -0.2566
 2796SOL    HW211182   1.602   3.369   3.760  0.1299 -0.7822 -1.1409
 2796SOL    HW311183   1.657   3.270   3.861  0.0443 -0.1700 -0.4821
 2796SOL    MW411184   1.589   3.309   3.823  0.0881 -0.0179 -0.4030
 2797SOL     OW11185   2.310   1.083   3.324 -0.1715  0.0646 -0.3869
 2797SOL    HW211186   2.221   1.116   3.338  0.4839  1.5272  0.5251
 2797SOL    HW311187   2.303   0.989   3.338 -1.8852 -0.0804 -1.9221
 2797SOL    MW411188   2.297   1.075   3.328 -0.3111  0.2385 -0.4691
 2798SOL     OW11189   3.868   2.317   4.184  0.1328  0.1323  0.3351
 2798SOL    HW211190   3.830   2.357   4.262  1.9363 -0.1729  1.4064
 2798SOL    HW311191   3.930   2.382   4.152  0.1300 -0.1637 -0.2694
 2798SOL    MW411192   3.871   2.331   4.190  0.3704  0.0530  0.3967
 2799SOL     OW11193   4.020   2.534   4.710 -0.2214 -0.2651  0.9734
 2799SOL    HW211194   4.017   2.549   4.804 -2.0363 -1.1819  1.0901
 2799SOL    HW311195   3.953   2.467   4.694 -0.5496  0.4979 -1.0688
 2799SOL    MW411196   4.011   2.527   4.720 -0.5042 -0.2854  0.7193
 2800SOL     OW11197   1.223   3.624   3.852 -0.2092  0.4258  0.0893
 2800SOL    HW211198   1.310   3.655   3.827 -0.3955 -0.2533 -1.4922
 2800SOL    HW311199   1.239   3.541   3.896 -0.0584  0.1853 -0.4105
 2800SOL    MW411200   1.237   3.617   3.854 -0.2139  0.3045 -0.1853
 2801SOL     OW11201   3.273   0.177   4.012 -0.1959  0.0254 -0.3667
 2801SOL    HW211202   3.230   0.261   4.034  2.9501  1.2733  1.3477
 2801SOL    HW311203   3.271   0.128   4.094 -0.5104 -0.8924 -0.9230
 2801SOL    MW411204   3.267   0.182   4.026  0.1777  0.0689 -0.2139
 2802SOL     OW11205   3.116   2.614   3.688 -0.0184  0.2290 -0.0366
 2802SOL    HW211206   3.089   2.525   3.662  0.6291 -0.5603  1.9137
 2802SOL    HW311207   3.041   2.669   3.665 -1.0712 -1.0788  0.2027
 2802SOL    MW411208   3.102   2.609   3.681 -0.0719 -0.0477  0.2523
 2803SOL     OW11209   2.885   3.636   3.419 -0.5037  0.1947 -0.0752
 2803SOL    HW211210   2.896   3.706   3.355 -0.7168  0.4567  0.1698
 2803SOL    HW311211   2.933   3.562   3.383  1.5698  1.1173  0.7036
 2803SOL    MW411212   2.893   3.636   3.406 -0.2583  0.3510  0.0599
 2804SOL     OW11213   0.354   3.692   4.164 -0.4129 -0.2541  0.4297
 2804SOL    HW211214   0.391   3.617   4.118 -0.5488  0.2122 -0.4544
 2804SOL    HW311215   0.289   3.728   4.104  0.5684  1.3474  0.2839
 2804SOL    MW411216   0.351   3.687   4.150 -0.3014  0.0187  0.2938
 2805SOL     OW11217   1.898   0.776   4.619 -0.6268 -0.5969  0.4943
 2805SOL    HW211218   1.951   0.783   4.699 -2.3379  0.0339  1.6125
 2805SOL    HW311219   1.919   0.855   4.569  0.5613 -1.0653  0.2565
 2805SOL    MW411220   1.908   0.788   4.623 -0.6958 -0.5755  0.6104
 2806SOL     OW11221   0.513   1.847   4.201 -0.3345 -0.0324 -0.1677
 2806SOL    HW211222   0.483   1.757   4.193 -0.7817  0.2119 -1.4742
 2806SOL    HW311223   0.557   1.865   4.118  0.3850  0.7167  0.3705
 2806SOL    MW411224   0.515   1.838   4.189 -0.2986  0.0987 -0.2690
 2807SOL     OW11225   2.929   0.400   3.599 -0.6316  0.3810 -0.0980
 2807SOL    HW211226   2.973   0.315   3.588  1.5603  1.7134 -2.2929
 2807SOL    HW311227   2.861   0.384   3.664 -0.4743 -3.1411 -0.6875
 2807SOL    MW411228   2.926   0.386   3.606 -0.3216  0.0921 -0.4654
 2808SOL     OW11229   1.532   0.504   3.663  0.4483  0.1867  0.0241
 2808SOL    HW211230   1.530   0.497   3.568 -1.9325 -0.5897  0.0927
 2808SOL    HW311231   1.519   0.597   3.680  0.0585  0.2151 -0.4068
 2808SOL    MW411232   1.530   0.515   3.653  0.0827  0.0880 -0.0237
 2809SOL     OW11233   4.053   4.187   3.960  0.3251  0.2390  0.5139
 2809SOL    HW211234   4.093   4.142   4.035  1.2404  0.8041  0.3726
 2809SOL    HW311235   4.040   4.277   3.990  1.5982  0.7133 -0.3323
 2809SOL    MW411236   4.057   4.193   3.974  0.6138  0.3761  0.3836
 2810SOL     OW11237   2.477   0.407   3.397  0.1411 -0.5599  0.1953
 2810SOL    HW211238   2.545   0.381   3.334 -1.0197  0.0789 -1.3572
 2810SOL    HW311239   2.460   0.499   3.376 -1.3066 -0.7610  0.4831
 2810SOL    MW411240   2.484   0.416   3.386 -0.2030 -0.5022  0.0285
 2811SOL     OW11241   3.110   1.752   3.666  0.0346 -0.1847  0.5143
 2811SOL    HW211242   3.120   1.711   3.580  0.0054 -0.3343  0.5806
 2811SOL    HW311243   3.087   1.679   3.724 -0.2063 -0.0450  0.5977
 2811SOL    MW411244   3.108   1.737   3.663 -0.0011 -0.1860  0.5340
 2812SOL     OW11245   0.779   0.415   4.484  0.1066  0.2657 -0.5069
 2812SOL    HW211246   0.760   0.363   4.406 -1.5103  0.9269 -0.5831
 2812SOL    HW311247   0.695   0.418   4.531  0.3441  2.2322 -0.1786
 2812SOL    MW411248   0.765   0.409   4.480 -0.0754  0.6124 -0.4736
 2813SOL     OW11249   1.368   2.280   3.806  0.2459 -0.2131 -0.3514
 2813SOL    HW211250   1.318   2.291   3.886 -0.0840 -0.2557 -0.5499
 2813SOL    HW311251   1.322   2.211   3.758  0.0559  0.2656 -0.8734
 2813SOL    MW411252   1.355   2.273   3.810  0.1773 -0.1555 -0.4465
 2814SOL     OW11253   1.806   2.724   3.207 -0.0578  0.5769  0.0372
 2814SOL    HW211254   1.820   2.640   3.250  1.7702  0.1469 -1.3387
 2814SOL    HW311255   1.869   2.783   3.247 -0.8218  1.1165  0.4696
 2814SOL    MW411256   1.816   2.721   3.218  0.0826  0.5913 -0.0873
 2815SOL     OW11257   1.037   0.805   3.785  0.0055 -0.4609 -0.2892
 2815SOL    HW211258   1.110   0.743   3.781  0.2062 -0.3935  1.9517
 2815SOL    HW311259   1.077   0.886   3.816 -0.8360 -0.1287 -0.0715
 2815SOL    MW411260   1.052   0.808   3.789 -0.0790 -0.4082  0.0352
 2816SOL     OW11261   2.497   4.546   3.269  0.0890 -0.2650 -0.3079
 2816SOL    HW211262   2.478   4.455   3.295 -2.5483  0.2524 -0.2220
 2816SOL    HW311263   2.521   4.539   3.176 -0.8255 -1.0008 -0.5057
 2816SOL    MW411264   2.497   4.533   3.260 -0.3796 -0.2938 -0.3226
 2817SOL     OW11265   2.467   2.219   4.035 -0.5768 -0.1815  0.4941
 2817SOL    HW211266   2.412   2.228   4.113 -0.8175  0.9942  0.1949
 2817SOL    HW311267   2.556   2.231   4.069 -0.6197 -0.5012  0.7227
 2817SOL    MW411268   2.472   2.222   4.050 -0.6142 -0.0686  0.4848
 2818SOL     OW11269   2.682   3.498   3.269 -1.0784  0.2642  0.2250
 2818SOL    HW211270   2.606   3.527   3.319 -0.6156  0.6367  0.7066
 2818SOL    HW311271   2.756   3.541   3.309 -0.5194 -0.6367  0.1842
 2818SOL    MW411272   2.682   3.507   3.281 -0.9436  0.1945  0.2832
 2819SOL     OW11273   2.062   0.845   3.822 -0.3632  0.2157 -0.7665
 2819SOL    HW211274   2.117   0.796   3.883 -0.4768 -0.3177 -1.0840
 2819SOL    HW311275   2.039   0.925   3.869  0.6757  0.4463 -0.6223
 2819SOL    MW411276   2.066   0.849   3.836 -0.2411  0.1758 -0.7894
 2820SOL     OW11277   0.714   3.136   3.966  0.0750 -0.1188 -0.1798
 2820SOL    HW211278   0.691   3.051   3.927  0.3192 -1.4433  2.4733
 2820SOL    HW311279   0.807   3.127   3.989  0.7258  1.7201 -1.9839
 2820SOL    MW411280   0.724   3.124   3.964  0.1931 -0.0509 -0.0678
 2821SOL     OW11281   0.523   2.267   3.626 -0.1273 -0.3033 -0.1284
 2821SOL    HW211282   0.494   2.330   3.693  1.2061 -0.0203  0.2070
 2821SOL    HW311283   0.476   2.186   3.647 -0.5540  0.0980  0.4862
 2821SOL    MW411284   0.513   2.265   3.638 -0.0077 -0.2130 -0.0030
 2822SOL     OW11285   1.567   1.434   4.463  0.3074  0.5104  0.1258
 2822SOL    HW211286   1.595   1.373   4.394 -0.9896 -1.5741  1.3667
 2822SOL    HW311287   1.635   1.426   4.531 -0.4445 -0.4589  0.7844
 2822SOL    MW411288   1.580   1.425   4.463  0.0371  0.1075  0.3764
 2823SOL     OW11289   2.445   4.254   4.114 -0.1085  0.2542  0.0595
 2823SOL    HW211290   2.515   4.190   4.102 -0.6512 -0.1230 -1.1357
 2823SOL    HW311291   2.490   4.330   4.152  0.7628 -0.3553  0.2776
 2823SOL    MW411292   2.460   4.256   4.117 -0.0651  0.1240 -0.0694
 2824SOL     OW11293   4.491   4.178   4.028 -0.0219 -0.2224 -0.0101
 2824SOL    HW211294   4.459   4.088   4.043  0.6006 -0.1712  1.8316
 2824SOL    HW311295   4.480   4.221   4.113  2.2232  0.6575 -0.1432
 2824SOL    MW411296   4.485   4.172   4.041  0.3564 -0.0996  0.2153
 2825SOL     OW11297   4.379   4.500   4.603  0.1717 -0.0593 -0.2710
 2825SOL    HW211298   4.385   4.590   4.570  0.9703 -0.3406 -0.9041
 2825SOL    HW311299   4.446   4.495   4.671  0.4060 -0.2944 -0.5188
 2825SOL    MW411300   4.389   4.511   4.608  0.3080 -0.1274 -0.3872
 2826SOL     OW11301   4.286   2.645   3.576 -0.4710 -0.0612  0.3083
 2826SOL    HW211302   4.354   2.578   3.586 -0.4054  0.1241  1.2014
 2826SOL    HW311303   4.298   2.679   3.488  0.8493  0.2195  0.5812
 2826SOL    MW411304   4.297   2.641   3.566 -0.2881  0.0003  0.4621
 2827SOL     OW11305   0.361   2.031   3.671 -0.3974 -0.2028  0.3705
 2827SOL    HW211306   0.300   2.041   3.744 -2.1094  0.7863 -1.1444
 2827SOL    HW311307   0.305   2.031   3.593  1.4741 -0.1782 -1.0022
 2827SOL    MW411308   0.345   2.032   3.670 -0.3764 -0.0691 -0.0105
 2828SOL     OW11309   0.236   2.682   4.157 -0.1287 -0.4685  0.2270
 2828SOL    HW211310   0.170   2.674   4.225 -0.2738  0.0802  0.1497
 2828SOL    HW311311   0.239   2.775   4.137 -0.1341 -0.6405 -0.5703
 2828SOL    MW411312   0.228   2.693   4.163 -0.1486 -0.4188  0.1116
 2829SOL     OW11313   1.376   1.787   4.110  0.4524  0.1214 -0.3671
 2829SOL    HW211314   1.391   1.692   4.117  1.3844  0.1645 -1.6298
 2829SOL    HW311315   1.297   1.795   4.058  0.5998  0.0446 -0.6028
 2829SOL    MW411316   1.368   1.775   4.104  0.5948  0.1169 -0.5648
 2830SOL     OW11317   1.732   4.098   3.634 -0.2976 -0.1476  0.0416
 2830SOL    HW211318   1.768   4.082   3.547  1.7463  0.7432  0.6847
 2830SOL    HW311319   1.715   4.192   3.636 -1.1373 -0.2971  0.3331
 2830SOL    MW411320   1.734   4.108   3.623 -0.1387 -0.0498  0.1649
 2831SOL     OW11321   3.979   3.869   4.229  0.0923 -0.1091 -0.3034
 2831SOL    HW211322   4.038   3.942   4.212  1.8021 -1.5481 -0.6786
 2831SOL    HW311323   3.994   3.846   4.321 -0.9248  0.4367  0.0001
 2831SOL    MW411324   3.989   3.875   4.239  0.1837 -0.2270 -0.3128
 2832SOL     OW11325   3.115   3.824   4.324 -0.5960  0.4839  0.4327
 2832SOL    HW211326   3.177   3.886   4.364  0.0821 -0.4371  0.8292
 2832SOL    HW311327   3.099   3.860   4.237  2.9679 -0.8887 -0.8814
 2832SOL    MW411328   3.121   3.837   4.318 -0.0363  0.1813  0.3117
 2833SOL     OW11329   4.107   1.642   3.638  0.0553  0.1695  0.7054
 2833SOL    HW211330   4.070   1.726   3.666 -0.0492  0.2709  0.2562
 2833SOL    HW311331   4.053   1.577   3.681  1.1125  0.3409  2.3414
 2833SOL    MW411332   4.095   1.645   3.647  0.1810  0.2055  0.8620
 2834SOL     OW11333   3.384   4.527   3.725 -0.0060 -0.4815  0.3988
 2834SOL    HW211334   3.343   4.444   3.699 -0.6287 -0.6283  1.8345
 2834SOL    HW311335   3.311   4.582   3.753  0.4499  0.4227 -0.1584
 2834SOL    MW411336   3.369   4.523   3.725 -0.0280 -0.3816  0.5147
 2835SOL     OW11337   2.467   1.360   4.389 -0.0552  0.5512 -0.4423
 2835SOL    HW211338   2.489   1.338   4.298  0.2198 -1.2282  0.0291
 2835SOL    HW311339   2.534   1.422   4.416  1.5505 -1.1140 -0.5515
 2835SOL    MW411340   2.479   1.365   4.380  0.1929  0.0967 -0.3945
 2836SOL     OW11341   0.198   3.595   3.408  1.1116 -0.1446 -0.3898
 2836SOL    HW211342   0.274   3.558   3.363  2.0608  0.4874  0.6670
 2836SOL    HW311343   0.124   3.545   3.374  2.0005 -0.8072 -1.4000
 2836SOL    MW411344   0.198   3.583   3.397  1.3541 -0.1486 -0.3836
 2837SOL     OW11345   1.886   0.888   4.171  0.1469 -0.2308 -0.3219
 2837SOL    HW211346   1.798   0.921   4.192 -0.3462 -1.5005 -0.3485
 2837SOL    HW311347   1.935   0.898   4.252 -0.4270 -0.8057  0.1063
 2837SOL    MW411348   1.881   0.894   4.184  0.0061 -0.4742 -0.2689
 2838SOL     OW11349   0.810   3.747   4.049 -0.2187  0.2027 -0.4016
 2838SOL    HW211350   0.736   3.800   4.079 -0.2492  1.1718 -2.1192
 2838SOL    HW311351   0.769   3.669   4.010 -0.2691  0.0522 -0.0511
 2838SOL    MW411352   0.795   3.744   4.048 -0.2294  0.3107 -0.5820
 2839SOL     OW11353   2.079   2.370   3.823 -0.6072 -0.1158 -0.3968
 2839SOL    HW211354   2.149   2.332   3.770  1.6973  0.9974  1.7341
 2839SOL    HW311355   2.029   2.423   3.762  2.1203  1.3195 -1.4907
 2839SOL    MW411356   2.082   2.372   3.808  0.0567  0.2205 -0.2600
 2840SOL     OW11357   1.513   2.025   4.049  0.5152 -0.4707  0.3351
 2840SOL    HW211358   1.606   2.031   4.070  0.4500  0.7885  0.3109
 2840SOL    HW311359   1.482   1.949   4.098  1.5352 -0.8587  0.3995
 2840SOL    MW411360   1.522   2.016   4.058  0.6412 -0.3558  0.3404
 2841SOL     OW11361   1.610   3.669   4.004  0.4200  0.0518 -0.5640
 2841SOL    HW211362   1.625   3.761   4.029 -0.1408  0.3305 -1.2421
 2841SOL    HW311363   1.688   3.623   4.035 -0.2972  0.3698  1.7966
 2841SOL    MW411364   1.622   3.675   4.011  0.2513  0.1305 -0.3420
 2842SOL     OW11365   0.899   2.852   4.200  0.1541  0.2122 -0.4285
 2842SOL    HW211366   0.972   2.826   4.257 -0.2170 -0.0435 -0.0676
 2842SOL    HW311367   0.821   2.833   4.252 -0.1616  0.6672 -0.7426
 2842SOL    MW411368   0.899   2.846   4.214  0.0635  0.2385 -0.4223
 2843SOL     OW11369   1.857   3.234   3.535 -0.0721 -0.2458  0.3079
 2843SOL    HW211370   1.952   3.219   3.531 -0.2568 -1.1591 -1.0342
 2843SOL    HW311371   1.837   3.234   3.628  1.3348  0.5673  0.6386
 2843SOL    MW411372   1.867   3.232   3.546  0.0891 -0.2590  0.1745
 2844SOL     OW11373   3.165   0.086   3.348  0.1024 -0.3940  0.1895
 2844SOL    HW211374   3.164   0.173   3.307 -0.5596 -0.5953 -0.2377
 2844SOL    HW311375   3.149   0.103   3.440 -0.0328 -0.0598  0.1068
 2844SOL    MW411376   3.162   0.100   3.354 -0.0028 -0.3765  0.1222
 2845SOL     OW11377   0.090   0.908   3.693 -0.1737  0.0021  0.0747
 2845SOL    HW211378   0.050   0.888   3.608 -0.3457 -0.6812  0.3171
 2845SOL    HW311379   0.080   1.003   3.703 -2.3825 -0.2619  0.4801
 2845SOL    MW411380   0.084   0.918   3.683 -0.4878 -0.1229  0.1602
 2846SOL     OW11381   3.081   1.264   3.714  0.2047 -0.1663 -0.3516
 2846SOL    HW211382   3.065   1.259   3.809  0.3315  0.0849 -0.3144
 2846SOL    HW311383   2.999   1.294   3.677  0.1263 -0.3552 -0.3295
 2846SOL    MW411384   3.068   1.267   3.722  0.2111 -0.1581 -0.3437
 2847SOL     OW11385   0.411   0.104   3.677 -0.2415  0.3005 -0.3955
 2847SOL    HW211386   0.370   0.018   3.665  0.6464 -0.2196  0.3018
 2847SOL    HW311387   0.340   0.161   3.706 -1.1085  0.1071 -2.0879
 2847SOL    MW411388   0.396   0.100   3.679 -0.2387  0.2064 -0.5268
 2848SOL     OW11389   2.497   2.562   4.062  0.0043 -0.1432 -0.0287
 2848SOL    HW211390   2.420   2.563   4.004  0.1004  1.7958 -0.1427
 2848SOL    HW311391   2.523   2.653   4.069  0.8264 -0.5107  1.9992
 2848SOL    MW411392   2.490   2.574   4.055  0.1254  0.0641  0.2238
 2849SOL     OW11393   0.076   4.444   3.713  0.1238  0.0686  0.2551
 2849SOL    HW211394   0.070   4.348   3.707  0.3103 -0.0886  2.3750
 2849SOL    HW311395  -0.009   4.471   3.748 -0.3265  0.8002 -1.3341
 2849SOL    MW411396   0.064   4.435   3.717  0.0890  0.1443  0.3251
 2850SOL     OW11397   1.420   1.019   3.851 -0.4926 -0.0431  0.0837
 2850SOL    HW211398   1.430   0.946   3.790 -1.5742  1.4147 -1.8962
 2850SOL    HW311399   1.326   1.036   3.852 -0.3291  0.8238  1.1293
 2850SOL    MW411400   1.409   1.012   3.843 -0.6137  0.2636 -0.0396
 2851SOL     OW11401   1.668   2.234   3.825 -0.1736 -0.5279  0.2304
 2851SOL    HW211402   1.575   2.253   3.821 -0.2619 -0.7209  1.1235
 2851SOL    HW311403   1.683   2.166   3.759 -0.4368  0.3905 -0.7658
 2851SOL    MW411404   1.658   2.227   3.816 -0.2199 -0.4322  0.2168
 2852SOL     OW11405   0.434   0.726   4.466 -0.3215 -0.1727 -0.3862
 2852SOL    HW211406   0.461   0.732   4.375 -0.0567  0.7109 -0.2605
 2852SOL    HW311407   0.427   0.817   4.495 -0.8568 -0.4400  0.3404
 2852SOL    MW411408   0.437   0.739   4.458 -0.3572 -0.0914 -0.2737
 2853SOL     OW11409   3.494   2.757   4.143 -0.7150  0.4384  0.3739
 2853SOL    HW211410   3.489   2.663   4.160 -0.3006  0.2330 -0.6034
 2853SOL    HW311411   3.404   2.783   4.124 -0.8171  0.2301  0.5667
 2853SOL    MW411412   3.482   2.748   4.143 -0.6738  0.3839  0.2704
 2854SOL     OW11413   3.187   1.950   4.042 -0.3985  0.1395  0.5027
 2854SOL    HW211414   3.226   1.867   4.015 -0.8961 -0.4194  1.4467
 2854SOL    HW311415   3.231   2.016   3.990 -0.3775 -0.7776 -0.6580
 2854SOL    MW411416   3.198   1.947   4.032 -0.4614 -0.0553  0.4741
 2855SOL     OW11417   2.595   2.049   3.642 -0.0095  0.0306 -0.4965
 2855SOL    HW211418   2.591   1.962   3.680  1.0520 -0.6432 -1.8805
 2855SOL    HW311419   2.688   2.065   3.629 -0.1942  1.3955 -0.1937
 2855SOL    MW411420   2.607   2.040   3.645  0.1062  0.1218 -0.6391
 2856SOL     OW11421   1.601   3.500   3.635 -0.1639  0.1886 -0.1560
 2856SOL    HW211422   1.592   3.511   3.540 -2.6886 -1.2772 -0.1332
 2856SOL    HW311423   1.539   3.563   3.672 -0.3632 -0.3879  0.4840
 2856SOL    MW411424   1.592   3.510   3.627 -0.5233 -0.0809 -0.0686
 2857SOL     OW11425   2.908   0.479   3.337  0.2166 -0.1818  0.4102
 2857SOL    HW211426   2.914   0.572   3.318  0.3971 -0.5386 -1.3191
 2857SOL    HW311427   2.911   0.474   3.433 -1.0233  1.6584  0.5652
 2857SOL    MW411428   2.909   0.491   3.347  0.0768  0.0139  0.2025
 2858SOL     OW11429   3.735   0.285   4.436  0.0795  0.0075  0.2640
 2858SOL    HW211430   3.663   0.222   4.434 -0.0214  0.1344 -0.2432
 2858SOL    HW311431   3.785   0.266   4.356  0.5982 -0.0725  0.6072
 2858SOL    MW411432   3.733   0.274   4.425  0.1346  0.0137  0.2424
 2859SOL     OW11433   2.761   4.373   3.995  0.2330 -0.6392  0.1909
 2859SOL    HW211434   2.822   4.299   4.003  0.0972 -0.8413 -0.5325
 2859SOL    HW311435   2.708   4.351   3.918 -0.2085 -0.0722  0.3308
 2859SOL    MW411436   2.762   4.360   3.986  0.1568 -0.5911  0.1140
 2860SOL     OW11437   3.594   3.210   3.401  0.0860  0.3807 -0.3138
 2860SOL    HW211438   3.601   3.173   3.489 -1.6535 -1.3890 -0.8909
 2860SOL    HW311439   3.657   3.161   3.349  2.4901  2.6904  0.2843
 2860SOL    MW411440   3.603   3.199   3.406  0.1737  0.4519 -0.3111
 2861SOL     OW11441   4.448   2.944   4.445 -0.1514 -0.4628  0.1724
 2861SOL    HW211442   4.377   2.959   4.508  1.3013  0.3581  1.6591
 2861SOL    HW311443   4.489   3.030   4.434  1.9988 -1.3315  1.0687
 2861SOL    MW411444   4.444   2.958   4.452  0.3239 -0.4691  0.4868
 2862SOL     OW11445   2.837   3.382   4.028 -0.7130 -0.3100 -0.4339
 2862SOL    HW211446   2.869   3.472   4.027 -0.3134 -0.4472  0.1864
 2862SOL    HW311447   2.849   3.352   4.118 -0.6058 -1.0710 -0.6938
 2862SOL    MW411448   2.843   3.390   4.040 -0.6462 -0.4285 -0.3864
 2863SOL     OW11449   1.590   3.885   3.291  0.2463  0.2135 -0.1037
 2863SOL    HW211450   1.558   3.881   3.201 -0.1248 -1.2377  0.0745
 2863SOL    HW311451   1.594   3.793   3.319  0.8920  0.6142  1.1684
 2863SOL    MW411452   1.587   3.872   3.283  0.2826  0.0749  0.0877
 2864SOL     OW11453   3.823   3.629   3.346  0.1207 -0.2279  0.4196
 2864SOL    HW211454   3.740   3.587   3.321  0.5876 -0.9552  0.0762
 2864SOL    HW311455   3.809   3.721   3.327 -1.3047 -0.0402  2.2038
 2864SOL    MW411456   3.810   3.635   3.340 -0.0058 -0.2991  0.6097
 2865SOL     OW11457   1.191   2.034   4.445 -0.0153 -0.3669  0.0068
 2865SOL    HW211458   1.229   1.947   4.432 -0.9803 -0.9436  0.9519
 2865SOL    HW311459   1.098   2.018   4.455 -0.4950  1.0221 -2.0990
 2865SOL    MW411460   1.184   2.021   4.445 -0.2059 -0.2597 -0.1463
 2866SOL     OW11461   1.886   4.379   3.837  0.2412 -0.0227 -0.8287
 2866SOL    HW211462   1.908   4.358   3.928  0.7978  1.6327 -0.5633
 2866SOL    HW311463   1.806   4.431   3.843 -0.1515 -0.5609 -1.3469
 2866SOL    MW411464   1.879   4.384   3.850  0.2628  0.1247 -0.8620
 2867SOL     OW11465   2.433   3.226   3.930 -0.3749 -0.1456  0.5318
 2867SOL    HW211466   2.486   3.298   3.895  2.6943 -2.2128  0.8182
 2867SOL    HW311467   2.473   3.204   4.013 -0.3701 -3.1250 -0.1982
 2867SOL    MW411468   2.445   3.233   3.936  0.0307 -0.8114  0.4733
 2868SOL     OW11469   1.995   3.863   3.241  0.3457 -0.5898 -0.1436
 2868SOL    HW211470   1.981   3.784   3.292  1.8321 -0.1896  0.9148
 2868SOL    HW311471   1.945   3.930   3.287 -0.1894 -0.7134 -0.5366
 2868SOL    MW411472   1.986   3.862   3.254  0.4712 -0.5533 -0.0558
 2869SOL     OW11473   3.416   4.476   4.005  0.8248  0.1069  0.2539
 2869SOL    HW211474   3.478   4.533   4.050  2.5508 -0.5725 -1.1802
 2869SOL    HW311475   3.429   4.496   3.912 -2.1866  1.0287 -0.0205
 2869SOL    MW411476   3.426   4.486   3.998  0.6552  0.1389  0.0285
 2870SOL     OW11477   1.080   4.428   4.395 -0.1744  0.3398 -0.0284
 2870SOL    HW211478   1.166   4.468   4.408  0.3110 -0.2259 -1.3624
 2870SOL    HW311479   1.095   4.334   4.406 -0.1543  0.0348 -2.4379
 2870SOL    MW411480   1.093   4.421   4.398 -0.1077  0.2249 -0.5223
 2871SOL     OW11481   0.647   2.897   3.845  0.0005  0.3065  0.1458
 2871SOL    HW211482   0.552   2.893   3.851  0.1584 -1.9631  1.5492
 2871SOL    HW311483   0.665   2.898   3.751 -1.3740 -0.2255 -0.1363
 2871SOL    MW411484   0.637   2.897   3.834 -0.1600 -0.0632  0.2938
 2872SOL     OW11485   2.032   4.270   3.628  0.1914  0.6635 -0.2100
 2872SOL    HW211486   2.117   4.307   3.650  0.1311  0.0763  1.0707
 2872SOL    HW311487   1.971   4.309   3.691  0.2369 -2.0060  1.6180
 2872SOL    MW411488   2.035   4.280   3.639  0.1894  0.2338  0.2001
 2873SOL     OW11489   3.362   2.759   3.653 -0.4468  0.6633 -0.2855
 2873SOL    HW211490   3.283   2.705   3.657  0.4033 -0.5780 -0.0528
 2873SOL    HW311491   3.367   2.786   3.561 -0.3997 -0.4064 -0.6113
 2873SOL    MW411492   3.352   2.755   3.641 -0.3284  0.3584 -0.2978
 2874SOL     OW11493   0.418   1.016   4.448 -0.1383 -0.1163  0.8301
 2874SOL    HW211494   0.510   1.041   4.442  0.0635 -0.9998  0.1404
 2874SOL    HW311495   0.378   1.055   4.370 -0.0801 -0.8476  0.4323
 2874SOL    MW411496   0.425   1.025   4.437 -0.1040 -0.3293  0.6867
 2875SOL     OW11497   2.665   2.442   3.399  0.5229 -0.3956 -0.1229
 2875SOL    HW211498   2.745   2.401   3.366  1.3080  1.6979 -0.8519
 2875SOL    HW311499   2.676   2.443   3.494  0.8242 -1.1639 -0.1414
 2875SOL    MW411500   2.677   2.436   3.407  0.6662 -0.2207 -0.2215
 2876SOL     OW11501   0.868   0.890   4.628 -0.6629 -0.3937 -0.6776
 2876SOL    HW211502   0.932   0.820   4.616  0.2533  0.4879 -0.9174
 2876SOL    HW311503   0.867   0.906   4.722  1.1586  1.1767 -0.9143
 2876SOL    MW411504   0.876   0.883   4.639 -0.3017 -0.0702 -0.7404
 2877SOL     OW11505   1.315   3.374   3.975 -0.0631  0.4405  0.4940
 2877SOL    HW211506   1.303   3.329   4.058  0.9931  1.0173  0.9569
 2877SOL    HW311507   1.403   3.350   3.946 -0.4496  0.1757 -0.5021
 2877SOL    MW411508   1.325   3.365   3.982  0.0252  0.4817  0.4236
 2878SOL     OW11509   1.901   4.498   4.258  0.6472  0.0177  0.3062
 2878SOL    HW211510   1.903   4.426   4.195  2.0227  0.5439 -0.2516
 2878SOL    HW311511   1.891   4.455   4.343  3.2588 -0.9678  0.1616
 2878SOL    MW411512   1.900   4.483   4.261  1.1733 -0.0429  0.2136
 2879SOL     OW11513   4.034   1.092   4.370  0.2059  0.0806 -0.5128
 2879SOL    HW211514   3.949   1.119   4.406  0.0810 -1.0121  0.0428
 2879SOL    HW311515   4.090   1.169   4.380 -0.2332  0.2538  0.7278
 2879SOL    MW411516   4.030   1.106   4.376  0.1315 -0.0407 -0.2758
 2880SOL     OW11517   3.763   2.252   3.728 -0.5704  0.1672 -0.4117
 2880SOL    HW211518   3.713   2.249   3.810  0.0579  0.6505 -0.0128
 2880SOL    HW311519   3.770   2.160   3.702  0.0739 -0.0722  0.5861
 2880SOL    MW411520   3.757   2.239   3.735 -0.4025  0.1993 -0.2274
 2881SOL     OW11521   2.230   4.111   4.264  0.0862 -0.0927 -0.0812
 2881SOL    HW211522   2.295   4.155   4.210  1.3479  0.5530  1.9016
 2881SOL    HW311523   2.264   4.023   4.276  0.3808  0.1069  0.5789
 2881SOL    MW411524   2.243   4.105   4.258  0.2915  0.0188  0.2675
 2882SOL     OW11525   3.326   3.991   3.948  0.6334  0.0216 -0.5387
 2882SOL    HW211526   3.359   3.936   4.019  2.4444 -0.4672 -1.7261
 2882SOL    HW311527   3.312   3.930   3.876  1.2292  0.8898 -1.3922
 2882SOL    MW411528   3.328   3.976   3.948  0.9510  0.0717 -0.8080
 2883SOL     OW11529   3.696   3.676   4.053  0.1116 -0.2612  0.1405
 2883SOL    HW211530   3.762   3.734   4.016 -0.7566 -0.3306 -1.5817
 2883SOL    HW311531   3.627   3.736   4.083 -1.0023 -0.3836 -2.0754
 2883SOL    MW411532   3.695   3.692   4.052 -0.1499 -0.2865 -0.3791
 2884SOL     OW11533   2.706   0.898   3.624  0.3120 -0.7871  0.4081
 2884SOL    HW211534   2.765   0.837   3.667  1.4482 -0.7015 -0.9710
 2884SOL    HW311535   2.618   0.863   3.638  0.6968 -0.9959  2.3580
 2884SOL    MW411536   2.702   0.886   3.631  0.5127 -0.8034  0.4834
 2885SOL     OW11537   2.842   1.367   3.645 -0.0127  0.1402 -0.0821
 2885SOL    HW211538   2.864   1.340   3.556  0.5695  0.2795  0.0178
 2885SOL    HW311539   2.801   1.290   3.685  1.9037 -0.6891  0.3023
 2885SOL    MW411540   2.839   1.353   3.639  0.3170  0.0492 -0.0182
 2886SOL     OW11541   3.662   1.550   3.818  0.0113 -0.3205 -0.0731
 2886SOL    HW211542   3.629   1.597   3.741 -2.1704  1.6366  1.9979
 2886SOL    HW311543   3.611   1.469   3.820  0.4440 -0.6294 -0.9497
 2886SOL    MW411544   3.651   1.546   3.808 -0.2194 -0.1030  0.0845
 2887SOL     OW11545   0.905   1.168   4.073  0.2777 -0.0144 -0.3646
 2887SOL    HW211546   0.949   1.085   4.055 -0.0051  0.1064 -1.6386
 2887SOL    HW311547   0.915   1.180   4.167  0.6117 -1.3294 -0.2228
 2887SOL    MW411548   0.912   1.158   4.083  0.2844 -0.1720 -0.5140
 2888SOL     OW11549   2.288   3.846   4.267 -0.0323  0.5433  0.5746
 2888SOL    HW211550   2.263   3.757   4.291  0.9605  0.1991  0.3557
 2888SOL    HW311551   2.356   3.835   4.201  0.1199  1.4673  0.5678
 2888SOL    MW411552   2.294   3.833   4.261  0.1188  0.6198  0.5448
 2889SOL     OW11553   0.298   1.097   4.227  0.6931 -0.1793 -0.6751
 2889SOL    HW211554   0.378   1.113   4.178  0.5980  1.1915 -0.3966
 2889SOL    HW311555   0.235   1.066   4.161  0.7903  0.9200 -1.3085
 2889SOL    MW411556   0.300   1.095   4.212  0.6934  0.1466 -0.7219
   4.49070   4.66690  10.00000
