Gromacs Runs On Most of All Computer Systems in water
11556
    1DMSO    SD    1   1.291   0.215   4.447  0.0407 -0.0661 -0.2269
    1DMSO   CD1    2   1.410   0.268   4.569  0.0414  0.4461 -0.2987
    1DMSO    OD    3   1.328   0.293   4.322 -0.3748  0.7286  0.3986
    1DMSO   CD2    4   1.350   0.050   4.422 -1.0464 -0.1875  0.0990
    2DMSO    SD    5   1.665   1.801   4.421 -0.2208  0.0126 -0.0987
    2DMSO   CD1    6   1.644   1.731   4.583  0.6113 -0.3087 -0.2213
    2DMSO    OD    7   1.738   1.934   4.431  0.5664 -0.2916  0.4336
    2DMSO   CD2    8   1.768   1.679   4.348  0.1605  0.4665 -0.0415
    3DMSO    SD    9   2.412   1.059   4.424 -0.0560 -0.0619 -0.0896
    3DMSO   CD1   10   2.512   1.073   4.571  0.0974 -0.2657 -0.5919
    3DMSO    OD   11   2.384   0.912   4.397 -0.4036  0.1434  0.5507
    3DMSO   CD2   12   2.258   1.130   4.478 -0.3705  0.0895 -0.2534
    4DMSO    SD   13   1.909   4.403   4.486 -0.0301 -0.0723  0.2831
    4DMSO   CD1   14   1.853   4.575   4.457  0.1151  0.2366  0.2318
    4DMSO    OD   15   1.786   4.315   4.480 -0.4538 -0.2130  0.0792
    4DMSO   CD2   16   1.992   4.384   4.327 -0.2629 -0.0538  0.1870
    5DMSO    SD   17   0.373   4.171   4.451 -0.1784  0.2473 -0.1953
    5DMSO   CD1   18   0.357   4.354   4.484 -0.1101 -0.3037  0.1261
    5DMSO    OD   19   0.516   4.135   4.499 -0.2151  0.3712 -0.4249
    5DMSO   CD2   20   0.258   4.118   4.580  0.1765 -0.1217 -0.1708
    6DMSO    SD   21   3.818   4.553   4.583 -0.3837 -0.1475  0.0898
    6DMSO   CD1   22   3.890   4.639   4.730  0.2114  0.1169 -0.1939
    6DMSO    OD   23   3.859   4.406   4.601  0.5969 -0.2609  0.1955
    6DMSO   CD2   24   3.648   4.562   4.642  0.7023 -0.0556  0.0318
    7DMSO    SD   25   3.169   3.463   4.463  0.4824  0.3428 -0.2833
    7DMSO   CD1   26   3.218   3.405   4.628 -0.0191 -0.0474 -0.3612
    7DMSO    OD   27   3.285   3.421   4.368 -0.7934 -0.1513 -0.7194
    7DMSO   CD2   28   3.033   3.352   4.435  0.4007 -0.3938 -0.3984
    8DMSO    SD   29   2.021   3.933   4.524 -0.3778 -0.1231 -0.1923
    8DMSO   CD1   30   2.159   3.980   4.628 -0.0052  0.2821  0.0118
    8DMSO    OD   31   1.992   3.786   4.557  0.2080 -0.1050  0.0772
    8DMSO   CD2   32   1.893   4.031   4.604 -0.4915 -0.1007  0.2147
    9DMSO    SD   33   0.416   0.225   4.590 -0.0075  0.2468 -0.1439
    9DMSO   CD1   34   0.591   0.239   4.633 -0.1846  0.0508  0.1463
    9DMSO    OD   35   0.393   0.074   4.566  0.4080  0.1170 -0.0576
    9DMSO   CD2   36   0.346   0.265   4.746  0.3722 -0.7193 -0.3153
   10SOL     OW   37   1.338   2.440   1.118 -1.0617  0.2557  0.1916
   10SOL    HW2   38   1.415   2.484   1.083 -1.5939  0.3410 -0.8886
   10SOL    HW3   39   1.346   2.349   1.090 -0.2024 -0.2528  2.0256
   10SOL    MW4   40   1.349   2.434   1.110 -1.0185  0.1999  0.2910
   11SOL     OW   41   1.517   2.463   0.400 -0.0884 -0.1697  0.2337
   11SOL    HW2   42   1.441   2.521   0.390 -0.0403 -0.1823 -0.2213
   11SOL    HW3   43   1.581   2.497   0.337  0.3344 -0.0742  0.7096
   11SOL    MW4   44   1.515   2.475   0.390 -0.0263 -0.1587  0.2364
   12SOL     OW   45   2.431   3.842   1.427 -0.4891 -0.2497 -0.3826
   12SOL    HW2   46   2.433   3.842   1.523  0.7270 -0.1426 -0.4043
   12SOL    HW3   47   2.372   3.913   1.404 -0.2903  0.1330  0.2825
   12SOL    MW4   48   2.424   3.851   1.437 -0.3024 -0.1851 -0.2977
   13SOL     OW   49   0.254   2.054   1.086  0.3757  0.1932  0.0375
   13SOL    HW2   50   0.169   2.097   1.070  0.7269  1.0084  0.3210
   13SOL    HW3   51   0.248   1.971   1.039 -0.1192  0.7850 -0.9702
   13SOL    MW4   52   0.242   2.049   1.078  0.3567  0.3789 -0.0580
   14SOL     OW   53   0.930   3.227   1.455  0.0475  0.0602  0.4285
   14SOL    HW2   54   1.021   3.199   1.463  0.1073  0.1010 -0.0743
   14SOL    HW3   55   0.933   3.323   1.464 -0.0807 -0.0413  1.5230
   14SOL    MW4   56   0.943   3.236   1.457  0.0385  0.0522  0.5066
   15SOL     OW   57   2.680   3.946   1.387  0.4181 -0.2690 -1.0758
   15SOL    HW2   58   2.683   3.943   1.291  2.1934 -3.1670 -0.9849
   15SOL    HW3   59   2.592   3.917   1.409  0.1269  0.0261 -1.8244
   15SOL    MW4   60   2.669   3.942   1.377  0.6139 -0.6124 -1.1626
   16SOL     OW   61   0.770   3.948   0.717 -0.3004  0.0008  0.6490
   16SOL    HW2   62   0.790   3.981   0.630 -1.5851 -0.0546  0.3250
   16SOL    HW3   63   0.826   3.871   0.727 -0.3377 -0.1403 -0.2245
   16SOL    MW4   64   0.780   3.942   0.707 -0.4748 -0.0252  0.4910
   17SOL     OW   65   2.918   0.385   0.113  0.7928 -0.1211 -0.1743
   17SOL    HW2   66   2.980   0.429   0.055  1.4552 -1.0203 -0.1463
   17SOL    HW3   67   2.855   0.454   0.136  1.3950  0.6291 -0.7258
   17SOL    MW4   68   2.918   0.400   0.109  0.9597 -0.1408 -0.2434
   18SOL     OW   69   2.134   3.519   0.299 -0.0824 -0.4990  0.2313
   18SOL    HW2   70   2.145   3.430   0.265  0.7326 -0.0725 -0.6730
   18SOL    HW3   71   2.109   3.507   0.391  1.3584 -1.6546  0.5012
   18SOL    MW4   72   2.133   3.506   0.307  0.2152 -0.5952  0.1476
   19SOL     OW   73   2.016   0.175   0.241  0.0566 -0.6110 -0.3074
   19SOL    HW2   74   1.945   0.230   0.273  0.2368 -0.8367  0.5214
   19SOL    HW3   75   1.992   0.153   0.151  0.6676  1.9493 -1.1415
   19SOL    MW4   76   2.004   0.179   0.234  0.1610 -0.3030 -0.3081
   20SOL     OW   77   2.716   4.264   0.588 -0.6572  0.1434  0.1827
   20SOL    HW2   78   2.708   4.320   0.511  0.8824 -0.4541 -0.4216
   20SOL    HW3   79   2.652   4.194   0.574  0.3221 -0.5201 -1.0502
   20SOL    MW4   80   2.706   4.262   0.576 -0.3249 -0.0230 -0.0597
   21SOL     OW   81   2.304   3.215   1.395  0.2025 -0.2295  0.2676
   21SOL    HW2   82   2.276   3.305   1.413 -1.2537 -0.6097  0.0153
   21SOL    HW3   83   2.291   3.204   1.301  1.3751 -0.3772  0.1192
   21SOL    MW4   84   2.298   3.225   1.385  0.1651 -0.2991  0.2147
   22SOL     OW   85   1.543   4.382   1.401 -0.1455 -0.1095 -0.4724
   22SOL    HW2   86   1.461   4.343   1.430 -0.5310  1.4125  0.5239
   22SOL    HW3   87   1.542   4.470   1.437  2.7763 -0.6644  1.1491
   22SOL    MW4   88   1.532   4.388   1.409  0.1891  0.0181 -0.1270
   23SOL     OW   89   2.011   4.164   0.989  0.0594 -0.2408  0.4370
   23SOL    HW2   90   2.087   4.127   1.034  0.7597  0.8309  0.1587
   23SOL    HW3   91   2.001   4.252   1.027 -0.4042  0.0095 -0.2510
   23SOL    MW4   92   2.020   4.171   1.000  0.0907 -0.0664  0.3095
   24SOL     OW   93   2.013   1.257   1.381  0.1581  0.2939  0.2338
   24SOL    HW2   94   1.937   1.223   1.430 -0.1131  1.4260  0.6122
   24SOL    HW3   95   2.087   1.206   1.414 -0.3191 -0.2740  0.4383
   24SOL    MW4   96   2.012   1.245   1.392  0.0594  0.3683  0.3107
   25SOL     OW   97   3.784   3.018   0.045 -0.3932 -0.2322  0.2179
   25SOL    HW2   98   3.762   3.013  -0.047  0.6745 -0.7831 -0.0233
   25SOL    HW3   99   3.847   2.947   0.058 -0.7391 -0.3317  1.4239
   25SOL    MW4  100   3.790   3.008   0.035 -0.2980 -0.3180  0.3452
   26SOL     OW  101   1.761   2.189   0.699  0.8022 -0.0274  0.1764
   26SOL    HW2  102   1.753   2.281   0.675  0.1131 -0.2862 -0.6082
   26SOL    HW3  103   1.789   2.190   0.791 -0.4634  0.9701  0.5653
   26SOL    MW4  104   1.763   2.201   0.708  0.5443  0.0700  0.1242
   27SOL     OW  105   0.673   1.267   1.117  0.6883  0.0193 -0.0569
   27SOL    HW2  106   0.613   1.331   1.078  2.7449  1.7624 -0.4408
   27SOL    HW3  107   0.656   1.273   1.211 -0.3046 -0.1094 -0.2188
   27SOL    MW4  108   0.663   1.276   1.124  0.8287  0.2323 -0.1289
   28SOL     OW  109   1.812   2.753   0.479 -0.1994  0.4156  0.5192
   28SOL    HW2  110   1.880   2.814   0.448 -0.6783  0.2496 -0.9007
   28SOL    HW3  111   1.836   2.734   0.569  1.1315  1.0808  0.3163
   28SOL    MW4  112   1.824   2.759   0.487 -0.0870  0.4815  0.3051
   29SOL     OW  113   0.702   2.679   0.792  0.3229 -0.4069 -0.2386
   29SOL    HW2  114   0.686   2.604   0.735  0.1365 -0.5457 -0.0083
   29SOL    HW3  115   0.770   2.730   0.748 -0.5322  0.0290 -1.0892
   29SOL    MW4  116   0.709   2.676   0.779  0.1855 -0.3677 -0.3204
   30SOL     OW  117   2.157   2.474   0.232  0.1743  0.0605 -0.4628
   30SOL    HW2  118   2.215   2.525   0.288  0.7939  0.0404 -1.0747
   30SOL    HW3  119   2.216   2.418   0.181 -0.5630 -2.1904  1.0848
   30SOL    MW4  120   2.172   2.473   0.233  0.1588 -0.2391 -0.3394
   31SOL     OW  121   0.808   4.318   0.806  0.1618  0.2246  0.1338
   31SOL    HW2  122   0.803   4.246   0.869 -0.0797 -0.4680 -0.6687
   31SOL    HW3  123   0.810   4.397   0.860  2.4610 -0.4563  1.0886
   31SOL    MW4  124   0.807   4.319   0.821  0.4333  0.0434  0.1539
   32SOL     OW  125   4.424   1.806   0.447 -0.0203  0.1143 -0.3050
   32SOL    HW2  126   4.381   1.874   0.499 -1.3818 -1.3917  0.5545
   32SOL    HW3  127   4.505   1.848   0.417 -0.9358  2.1978  0.0155
   32SOL    MW4  128   4.429   1.821   0.450 -0.3207  0.1905 -0.1493
   33SOL     OW  129   4.079   2.669   1.472  0.2811  0.0295  0.7919
   33SOL    HW2  130   4.072   2.575   1.455  0.5211 -0.0584  1.1891
   33SOL    HW3  131   4.073   2.677   1.567 -0.5187  0.4825  0.7109
   33SOL    MW4  132   4.077   2.657   1.482  0.2073  0.0776  0.8336
   34SOL     OW  133   0.912   2.461   1.130  0.3249 -0.3870 -0.3393
   34SOL    HW2  134   0.835   2.512   1.104  2.1842  1.1272 -3.1288
   34SOL    HW3  135   0.903   2.452   1.225 -2.6130  0.8686 -0.4212
   34SOL    MW4  136   0.901   2.467   1.139  0.1826 -0.0216 -0.7181
   35SOL     OW  137   0.870   3.032   1.026 -0.2124  0.2415 -0.0528
   35SOL    HW2  138   0.803   2.976   1.066  0.3545 -0.6445 -0.3232
   35SOL    HW3  139   0.861   3.116   1.071  0.0299 -0.5673  1.5194
   35SOL    MW4  140   0.860   3.036   1.037 -0.1056  0.0179  0.1189
   36SOL     OW  141   1.819   4.026   1.378 -0.1701  0.2269 -0.1534
   36SOL    HW2  142   1.807   4.032   1.283 -0.9938  2.9235  0.0898
   36SOL    HW3  143   1.745   3.973   1.408 -1.4886  1.7095 -0.7189
   36SOL    MW4  144   1.808   4.020   1.369 -0.4527  0.7783 -0.1959
   37SOL     OW  145   3.972   1.003   0.366 -0.1717 -0.1854 -0.2473
   37SOL    HW2  146   4.019   1.080   0.335  0.6412 -0.2224  0.8711
   37SOL    HW3  147   3.887   1.036   0.395 -0.3983  0.0560 -1.1681
   37SOL    MW4  148   3.967   1.018   0.366 -0.0944 -0.1584 -0.2212
   38SOL     OW  149   3.802   1.232   0.185 -0.2436  0.6511  0.2423
   38SOL    HW2  150   3.742   1.172   0.231 -0.3331  0.3448 -0.2650
   38SOL    HW3  151   3.780   1.318   0.219 -2.9644  0.9076 -1.9852
   38SOL    MW4  152   3.791   1.235   0.195 -0.6144  0.6445 -0.1185
   39SOL     OW  153   0.895   2.446   1.405 -0.2484  0.5809  0.7178
   39SOL    HW2  154   0.975   2.394   1.419 -0.3300  0.8583  2.2857
   39SOL    HW3  155   0.913   2.529   1.449 -0.3293  1.6937 -1.3230
   39SOL    MW4  156   0.908   2.450   1.413 -0.2698  0.7643  0.6554
   40SOL     OW  157   0.676   2.327   1.484  0.4382 -0.0864 -0.2677
   40SOL    HW2  158   0.754   2.369   1.448  0.2161  0.2646 -0.3382
   40SOL    HW3  159   0.603   2.377   1.449  0.2275  0.5394  1.0240
   40SOL    MW4  160   0.677   2.339   1.475  0.3811  0.0425 -0.1066
   41SOL     OW  161   2.742   0.605   0.189  0.2105  0.1898  0.3483
   41SOL    HW2  162   2.689   0.564   0.257 -0.2305  0.1985  0.0101
   41SOL    HW3  163   2.812   0.650   0.237 -0.0782  0.1646  0.7934
   41SOL    MW4  164   2.745   0.606   0.204  0.1143  0.1876  0.3624
   42SOL     OW  165   4.016   1.668   1.104 -0.3735  0.4304  0.6501
   42SOL    HW2  166   4.037   1.597   1.044 -0.2158  0.5681  0.5446
   42SOL    HW3  167   3.943   1.715   1.062 -0.2072  0.5774  0.5280
   42SOL    MW4  168   4.009   1.665   1.091 -0.3308  0.4680  0.6201
   43SOL     OW  169   0.446   4.521   0.110  0.0637 -0.4148  0.0138
   43SOL    HW2  170   0.523   4.473   0.080 -0.4611 -1.7788  0.7952
   43SOL    HW3  171   0.482   4.596   0.156  0.8884  0.8098 -2.5230
   43SOL    MW4  172   0.461   4.524   0.112  0.1033 -0.4332 -0.2178
   44SOL     OW  173   3.987   0.141   1.337  0.2621  0.1066 -0.0946
   44SOL    HW2  174   3.919   0.108   1.397  0.1751 -0.7159 -0.6328
   44SOL    HW3  175   4.069   0.107   1.373  0.5020  1.8276  1.0531
   44SOL    MW4  176   3.989   0.132   1.350  0.2823  0.2251 -0.0142
   45SOL     OW  177   1.369   2.229   0.475 -0.0274 -0.9192  0.0057
   45SOL    HW2  178   1.444   2.287   0.461 -0.0348 -0.6724  0.9710
   45SOL    HW3  179   1.393   2.148   0.431  0.0923 -0.2653 -1.1431
   45SOL    MW4  180   1.382   2.226   0.467 -0.0126 -0.8003 -0.0185
   46SOL     OW  181   3.160   3.226   1.400  0.1683 -0.3592 -0.5082
   46SOL    HW2  182   3.177   3.219   1.306  0.6586 -0.0941 -0.4404
   46SOL    HW3  183   3.154   3.321   1.417  2.5703 -0.2938  0.1585
   46SOL    MW4  184   3.162   3.238   1.390  0.5499 -0.3156 -0.4113
   47SOL     OW  185   3.363   4.386   1.042  0.3211  0.4294  0.0107
   47SOL    HW2  186   3.359   4.368   1.136 -0.3629 -2.7109 -0.5473
   47SOL    HW3  187   3.272   4.401   1.016  0.5900  2.0947 -0.0508
   47SOL    MW4  188   3.351   4.386   1.051  0.2663  0.2348 -0.0711
   48SOL     OW  189   2.275   2.414   1.054 -0.2449 -0.0528  0.1711
   48SOL    HW2  190   2.195   2.461   1.029  1.6345  2.5885 -1.0626
   48SOL    HW3  191   2.276   2.418   1.150 -0.9589  0.9631  0.1391
   48SOL    MW4  192   2.264   2.421   1.063 -0.0912  0.4297  0.0041
   49SOL     OW  193   1.328   4.260   1.542 -0.5370  0.3810 -0.1398
   49SOL    HW2  194   1.341   4.175   1.501  1.2489  0.7645 -0.4043
   49SOL    HW3  195   1.243   4.290   1.510 -0.7502 -0.8911 -0.7663
   49SOL    MW4  196   1.319   4.253   1.533 -0.3295  0.2638 -0.2574
   50SOL     OW  197   0.022   1.116   1.770  0.1509 -0.1113 -0.4946
   50SOL    HW2  198  -0.068   1.147   1.780 -0.0983 -0.0915 -2.4706
   50SOL    HW3  199   0.023   1.031   1.814 -0.0254  1.1793  2.0956
   50SOL    MW4  200   0.010   1.109   1.777  0.0947  0.0616 -0.4136
   51SOL     OW  201   0.851   1.124   1.470  0.0969 -0.0205  0.3142
   51SOL    HW2  202   0.929   1.150   1.422 -0.1487 -1.6008 -1.0088
   51SOL    HW3  203   0.858   1.029   1.478 -2.5144 -0.4340 -1.4087
   51SOL    MW4  204   0.862   1.115   1.465 -0.2800 -0.2835 -0.0877
   52SOL     OW  205   2.285   2.864   0.511  0.2177 -0.0065 -0.2423
   52SOL    HW2  206   2.328   2.943   0.477  1.8228 -1.0788 -0.7458
   52SOL    HW3  207   2.202   2.859   0.462  0.3220  1.0881 -0.5489
   52SOL    MW4  208   2.279   2.874   0.500  0.4432 -0.0036 -0.3491
   53SOL     OW  209   0.934   1.542   0.750 -0.1133  0.2045  0.1429
   53SOL    HW2  210   0.924   1.481   0.677 -1.0126  0.4375  0.0668
   53SOL    HW3  211   0.925   1.488   0.828  0.6689 -0.0164  0.0830
   53SOL    MW4  212   0.931   1.527   0.750 -0.1288  0.2061  0.1249
   54SOL     OW  213   0.965   0.687   0.765 -0.2490  0.3237  0.3078
   54SOL    HW2  214   0.887   0.730   0.732 -0.8174 -1.1657 -0.3452
   54SOL    HW3  215   0.942   0.659   0.853  0.0359  1.1070  0.6385
   54SOL    MW4  216   0.952   0.689   0.772 -0.2864  0.2305  0.2653
   55SOL     OW  217   1.636   0.198   0.770 -0.2459 -0.2361  0.1724
   55SOL    HW2  218   1.664   0.107   0.776 -1.2136 -0.5960 -0.5906
   55SOL    HW3  219   1.714   0.245   0.738  0.1660 -0.8371  0.2856
   55SOL    MW4  220   1.650   0.193   0.766 -0.3192 -0.3629  0.0867
   56SOL     OW  221   3.350   1.535   1.488 -0.6110 -0.2143 -0.2793
   56SOL    HW2  222   3.362   1.447   1.453 -0.4466 -0.1333 -0.4299
   56SOL    HW3  223   3.363   1.526   1.582 -2.2381 -0.6579 -0.0805
   56SOL    MW4  224   3.353   1.522   1.496 -0.8040 -0.2622 -0.2729
   57SOL     OW  225   2.234   1.634   1.362  0.4411 -0.0227  0.2160
   57SOL    HW2  226   2.315   1.584   1.368  0.9766  0.7948 -0.1008
   57SOL    HW3  227   2.257   1.721   1.396 -0.2618  0.2477  0.0066
   57SOL    MW4  228   2.248   1.639   1.367  0.4190  0.1209  0.1466
   58SOL     OW  229   2.445   0.209   1.033  0.4108  0.6099  0.0487
   58SOL    HW2  230   2.474   0.200   0.942 -0.9762  0.3396 -0.3739
   58SOL    HW3  231   2.453   0.302   1.051 -0.4500  0.8504 -0.7467
   58SOL    MW4  232   2.450   0.220   1.023  0.1143  0.6060 -0.1120
   59SOL     OW  233   0.234   2.319   1.487  0.3619 -0.1083  0.2869
   59SOL    HW2  234   0.209   2.321   1.579  0.6396  0.9099  0.3470
   59SOL    HW3  235   0.222   2.228   1.461 -2.1777  0.0992  0.6331
   59SOL    MW4  236   0.229   2.307   1.496  0.0635  0.0534  0.3405
   60SOL     OW  237   3.531   3.245   1.131 -0.3410 -0.0402 -0.3819
   60SOL    HW2  238   3.458   3.283   1.082  0.4715  1.6317 -0.3521
   60SOL    HW3  239   3.609   3.280   1.088  0.4033  0.0224  0.9875
   60SOL    MW4  240   3.531   3.255   1.119 -0.1356  0.1887 -0.1973
   61SOL     OW  241   0.227   2.631   0.997  0.0023  0.0356  0.5369
   61SOL    HW2  242   0.155   2.577   1.030  1.6009  0.0702  4.4162
   61SOL    HW3  243   0.306   2.593   1.036  1.6796  2.3337 -0.4651
   61SOL    MW4  244   0.228   2.619   1.007  0.4345  0.3434  0.9165
   62SOL     OW  245   4.416   3.581   0.614  0.8761 -0.7093  0.1812
   62SOL    HW2  246   4.496   3.532   0.597  0.6522 -0.9253 -0.2331
   62SOL    HW3  247   4.397   3.626   0.532  0.3773 -0.9374  0.1693
   62SOL    MW4  248   4.424   3.581   0.601  0.7808 -0.7679  0.1250
   63SOL     OW  249   1.123   1.909   0.753 -0.0177 -0.0618  0.1590
   63SOL    HW2  250   1.065   1.952   0.689 -1.2629 -0.2337  1.1680
   63SOL    HW3  251   1.210   1.939   0.729 -0.5131  0.1650 -1.4103
   63SOL    MW4  252   1.127   1.919   0.741 -0.2473 -0.0545  0.0851
   64SOL     OW  253   0.009   2.099   0.780 -0.2852  0.0513  0.4304
   64SOL    HW2  254   0.058   2.154   0.718  2.4064  0.0154  2.4390
   64SOL    HW3  255   0.021   2.142   0.864 -0.5817 -2.0251  1.5678
   64SOL    MW4  256   0.017   2.112   0.783  0.0308 -0.2274  0.8455
   65SOL     OW  257   1.877   1.323   0.165 -0.2031  0.1108 -0.7166
   65SOL    HW2  258   1.907   1.277   0.243  0.3000 -0.7999 -1.4393
   65SOL    HW3  259   1.799   1.274   0.137 -0.5449  0.6008 -0.6325
   65SOL    MW4  260   1.871   1.311   0.172 -0.1818  0.0553 -0.8009
   66SOL     OW  261   2.728   2.051   0.735  0.3585 -1.1230 -0.0729
   66SOL    HW2  262   2.662   2.016   0.675  0.2032  1.1650 -1.3050
   66SOL    HW3  263   2.742   1.982   0.799 -3.4209 -1.5753  0.3615
   66SOL    MW4  264   2.721   2.037   0.736 -0.1606 -0.8808 -0.1782
   67SOL     OW  265   2.327   1.677   0.353 -0.2208  0.6368  0.0423
   67SOL    HW2  266   2.391   1.629   0.405  0.0169 -0.1104 -0.9236
   67SOL    HW3  267   2.255   1.616   0.341  0.2635  0.3482 -1.5476
   67SOL    MW4  268   2.326   1.663   0.358 -0.1256  0.5001 -0.2949
   68SOL     OW  269   3.743   1.719   0.758 -0.2255  0.0073 -0.1237
   68SOL    HW2  270   3.829   1.696   0.722  0.9201 -0.4074  2.7718
   68SOL    HW3  271   3.693   1.638   0.754 -0.1722 -0.0013 -0.8385
   68SOL    MW4  272   3.748   1.706   0.752 -0.0673 -0.0486  0.1640
   69SOL     OW  273   0.462   1.174   1.792 -0.0022  0.0178  0.1242
   69SOL    HW2  274   0.379   1.211   1.822 -0.1688  0.1509 -0.4979
   69SOL    HW3  275   0.452   1.165   1.698  0.1995 -1.2311  0.2169
   69SOL    MW4  276   0.450   1.178   1.784  0.0025 -0.1294  0.0544
   70SOL     OW  277   2.506   2.507   0.697  0.0985  0.1849  0.2622
   70SOL    HW2  278   2.513   2.598   0.670 -0.6836  0.3895  0.7342
   70SOL    HW3  279   2.419   2.480   0.668  0.7385 -0.7348 -0.8343
   70SOL    MW4  280   2.495   2.515   0.690  0.0797  0.0905  0.1798
   71SOL     OW  281   3.636   2.955   0.293  0.0606  0.1916  0.8511
   71SOL    HW2  282   3.651   2.966   0.200  0.8819  0.5093  1.0172
   71SOL    HW3  283   3.544   2.979   0.306  0.6583  2.7813  0.5440
   71SOL    MW4  284   3.626   2.959   0.283  0.2478  0.5752  0.8325
   72SOL     OW  285   3.315   2.044   1.100  0.5540  0.0217  0.3064
   72SOL    HW2  286   3.403   2.066   1.071  1.0310  1.3019  2.6427
   72SOL    HW3  287   3.257   2.095   1.043  1.3465  0.1288 -0.4074
   72SOL    MW4  288   3.319   2.054   1.089  0.7215  0.2047  0.5205
   73SOL     OW  289   2.444   1.261   1.337  0.1318 -0.1713  0.0840
   73SOL    HW2  290   2.370   1.233   1.391 -0.3128  1.5285  0.4016
   73SOL    HW3  291   2.519   1.216   1.375 -0.4123 -0.2307  1.1241
   73SOL    MW4  292   2.444   1.251   1.349  0.0014  0.0451  0.2631
   74SOL     OW  293   2.855   1.251   0.563  0.1771 -0.1862 -0.3718
   74SOL    HW2  294   2.790   1.207   0.507 -1.0478  1.1693 -0.0316
   74SOL    HW3  295   2.873   1.187   0.632 -1.9110 -0.0475  0.3620
   74SOL    MW4  296   2.849   1.237   0.565 -0.2601  0.0110 -0.2301
   75SOL     OW  297   0.146   0.258   0.749  0.2580  0.0195  0.4581
   75SOL    HW2  298   0.155   0.235   0.842 -1.6645 -1.8766  0.2148
   75SOL    HW3  299   0.216   0.209   0.706  1.3563  1.1499  0.9294
   75SOL    MW4  300   0.156   0.248   0.756  0.1493 -0.0815  0.4882
   76SOL     OW  301   0.989   3.814   0.348 -0.3107 -0.2150 -0.4675
   76SOL    HW2  302   0.951   3.895   0.384  0.6150  0.0744 -0.1255
   76SOL    HW3  303   1.029   3.841   0.266  0.5825 -0.1952 -0.0255
   76SOL    MW4  304   0.989   3.828   0.342 -0.0707 -0.1742 -0.3641
   77SOL     OW  305   2.918   2.283   1.463  0.4870  0.1109  0.2790
   77SOL    HW2  306   2.896   2.272   1.555 -0.7743 -0.9134 -0.1306
   77SOL    HW3  307   2.924   2.195   1.428  0.6086  0.4965 -0.6996
   77SOL    MW4  308   2.916   2.270   1.471  0.3366  0.0266  0.0958
   78SOL     OW  309   3.341   3.415   1.011  0.1539  0.0290  0.2025
   78SOL    HW2  310   3.364   3.391   0.921  0.6948  0.9982  0.0760
   78SOL    HW3  311   3.399   3.488   1.032 -0.8739  0.6645  0.8737
   78SOL    MW4  312   3.352   3.421   1.002  0.0897  0.2407  0.2743
   79SOL     OW  313   0.011   2.460   1.119  0.1466  0.2444 -0.5909
   79SOL    HW2  314  -0.072   2.505   1.105 -0.2032 -0.2624 -0.1103
   79SOL    HW3  315   0.017   2.448   1.213  0.4418 -0.3391 -0.6824
   79SOL    MW4  316   0.001   2.464   1.129  0.1394  0.1005 -0.5396
   80SOL     OW  317   0.469   1.912   1.450 -0.0401  0.5204 -0.7030
   80SOL    HW2  318   0.464   1.927   1.545  1.5848  0.3270 -0.5644
   80SOL    HW3  319   0.538   1.972   1.420  0.3276 -0.3051 -1.5554
   80SOL    MW4  320   0.478   1.922   1.459  0.2228  0.3860 -0.7972
   81SOL     OW  321   3.022   3.962   0.694 -0.2952  0.5481 -0.2044
   81SOL    HW2  322   3.078   3.887   0.714 -1.7468 -0.2874  0.7375
   81SOL    HW3  323   2.942   3.923   0.658 -0.6567  1.6941 -0.6465
   81SOL    MW4  324   3.019   3.947   0.692 -0.5344  0.5891 -0.1385
   82SOL     OW  325   3.842   1.055   0.947 -0.2609  0.0975 -0.3065
   82SOL    HW2  326   3.832   1.144   0.980  0.4477 -0.2159  0.8142
   82SOL    HW3  327   3.757   1.014   0.961 -0.2292  0.2419  0.3322
   82SOL    MW4  328   3.830   1.061   0.953 -0.1633  0.0752 -0.0744
   83SOL     OW  329   1.518   0.247   1.009 -0.2780  0.0047  0.3397
   83SOL    HW2  330   1.542   0.252   0.917 -2.0797 -0.2625 -0.1718
   83SOL    HW3  331   1.511   0.339   1.037  0.6283  0.0811  0.3085
   83SOL    MW4  332   1.520   0.260   1.000 -0.3961 -0.0205  0.2681
   84SOL     OW  333   1.572   1.285   0.627  0.0467 -0.3404  0.1930
   84SOL    HW2  334   1.498   1.300   0.686  0.0653  2.1149 -0.3920
   84SOL    HW3  335   1.557   1.344   0.554  1.9342 -0.7631 -0.5517
   84SOL    MW4  336   1.560   1.295   0.625  0.2982 -0.0722  0.0175
   85SOL     OW  337   3.767   0.128   0.484  0.1319 -0.6492  0.3100
   85SOL    HW2  338   3.800   0.149   0.397 -0.6946 -0.2212  0.0937
   85SOL    HW3  339   3.681   0.089   0.469 -1.3451  2.2045  1.0664
   85SOL    MW4  340   3.760   0.126   0.470 -0.1720 -0.2162  0.3812
   86SOL     OW  341   0.410   0.634   0.958 -0.0435 -0.2490  0.4445
   86SOL    HW2  342   0.430   0.653   0.867 -0.8567 -0.5935  0.1888
   86SOL    HW3  343   0.489   0.592   0.992  0.2855 -0.0550 -0.0730
   86SOL    MW4  344   0.423   0.631   0.951 -0.1074 -0.2689  0.3425
   87SOL     OW  345   1.794   1.371   0.750 -0.6197  0.4074 -0.2660
   87SOL    HW2  346   1.770   1.369   0.843 -0.1601 -0.5913 -0.1607
   87SOL    HW3  347   1.714   1.348   0.704 -0.7304  0.4473 -0.0942
   87SOL    MW4  348   1.780   1.368   0.757 -0.5737  0.2809 -0.2295
   88SOL     OW  349   3.583   2.975   1.046  0.3480 -0.0723 -0.3442
   88SOL    HW2  350   3.543   3.055   1.080  0.3693  0.0452 -0.5980
   88SOL    HW3  351   3.526   2.905   1.079  0.1603  0.0658 -0.3710
   88SOL    MW4  352   3.570   2.976   1.055  0.3261 -0.0385 -0.3812
   89SOL     OW  353   0.460   1.485   0.702 -0.1107  0.1154 -0.3052
   89SOL    HW2  354   0.523   1.557   0.691  0.7586 -0.5601  0.2573
   89SOL    HW3  355   0.455   1.444   0.615  0.7444 -0.2656 -0.1716
   89SOL    MW4  356   0.468   1.489   0.689  0.1168 -0.0240 -0.2134
   90SOL     OW  357   1.122   1.170   0.674  0.4161  0.2232 -0.0670
   90SOL    HW2  358   1.152   1.089   0.716  1.4117  1.1343  0.9946
   90SOL    HW3  359   1.028   1.174   0.695  0.4662 -0.4004  0.2865
   90SOL    MW4  360   1.113   1.160   0.682  0.5541  0.2612  0.1197
   91SOL     OW  361   3.176   0.566   0.689 -0.2236  0.0034  0.2089
   91SOL    HW2  362   3.265   0.531   0.698  0.7976  2.2842 -0.5999
   91SOL    HW3  363   3.162   0.616   0.769 -0.4911  0.2335  0.0183
   91SOL    MW4  364   3.186   0.568   0.701 -0.1242  0.3347  0.0770
   92SOL     OW  365   3.380   0.240   1.006 -0.5962  0.1697 -0.1389
   92SOL    HW2  366   3.397   0.262   0.914 -1.1303 -0.8538 -0.4871
   92SOL    HW3  367   3.459   0.194   1.034 -0.0460  1.2932  0.1944
   92SOL    MW4  368   3.393   0.237   0.997 -0.5940  0.1829 -0.1409
   93SOL     OW  369   3.844   3.250   0.226  0.2575  0.3961 -0.5529
   93SOL    HW2  370   3.841   3.179   0.161  3.7423  0.2248 -0.6088
   93SOL    HW3  371   3.876   3.208   0.306 -0.8137  1.2758  0.3478
   93SOL    MW4  372   3.848   3.235   0.228  0.5760  0.4896 -0.4414
   94SOL     OW  373   2.660   0.100   1.371  0.1344 -0.8301 -0.2529
   94SOL    HW2  374   2.668   0.101   1.275  1.8724 -1.8133 -0.1506
   94SOL    HW3  375   2.740   0.057   1.400  0.3423  0.8588  1.7400
   94SOL    MW4  376   2.671   0.094   1.362  0.3911 -0.7370  0.0235
   95SOL     OW  377   1.975   0.517   0.238  0.1513  0.1141  0.2899
   95SOL    HW2  378   1.952   0.584   0.303  2.4706 -0.9025  2.2723
   95SOL    HW3  379   2.047   0.556   0.188 -0.5556  0.2753 -0.6063
   95SOL    MW4  380   1.981   0.531   0.240  0.3640  0.0012  0.4332
   96SOL     OW  381   0.894   3.455   0.692  0.2570  0.6776 -0.3057
   96SOL    HW2  382   0.805   3.427   0.713  0.0596  0.2994 -1.5883
   96SOL    HW3  383   0.894   3.464   0.596  2.2900 -1.8290 -0.5907
   96SOL    MW4  384   0.882   3.452   0.682  0.4992  0.2970 -0.5126
   97SOL     OW  385   2.403   3.504   0.363 -0.2882  0.7039  0.4393
   97SOL    HW2  386   2.409   3.536   0.453 -1.7635 -0.1856  0.8717
   97SOL    HW3  387   2.310   3.508   0.342 -0.3089 -1.5629 -0.1123
   97SOL    MW4  388   2.392   3.508   0.372 -0.4856  0.2875  0.4235
   98SOL     OW  389   3.130   1.900   1.479 -0.0682  0.5954  0.1736
   98SOL    HW2  390   3.178   1.968   1.430 -1.4972  0.4278 -1.5042
   98SOL    HW3  391   3.154   1.818   1.435 -1.9171  0.5178 -0.7351
   98SOL    MW4  392   3.140   1.898   1.467 -0.5007  0.5630 -0.1677
   99SOL     OW  393   0.228   1.927   0.328 -0.1420 -0.4669  0.3694
   99SOL    HW2  394   0.219   1.971   0.412  1.3662  0.2917  0.1544
   99SOL    HW3  395   0.195   1.989   0.263 -0.0926 -0.5292  0.2831
   99SOL    MW4  396   0.223   1.941   0.330  0.0635 -0.3750  0.3297
  100SOL     OW  397   4.055   2.574   0.556  0.2043  0.3116 -0.1171
  100SOL    HW2  398   3.975   2.586   0.608  0.2912  1.2184 -0.1713
  100SOL    HW3  399   4.034   2.613   0.471  0.4887 -0.0271 -0.3416
  100SOL    MW4  400   4.042   2.581   0.552  0.2533  0.3866 -0.1539
  101SOL     OW  401   0.248   3.121   1.502  0.3430 -0.3776 -0.2207
  101SOL    HW2  402   0.180   3.178   1.466 -0.5228 -0.6750  0.8909
  101SOL    HW3  403   0.232   3.036   1.459 -1.1980 -0.9475  1.4015
  101SOL    MW4  404   0.237   3.117   1.491  0.0255 -0.4920  0.1400
  102SOL     OW  405   2.552   3.727   0.154 -0.2250 -0.0727 -0.4961
  102SOL    HW2  406   2.561   3.638   0.118 -0.4677  0.1615 -1.1426
  102SOL    HW3  407   2.459   3.733   0.179 -0.2774  0.1000 -0.7293
  102SOL    MW4  408   2.541   3.716   0.152 -0.2639 -0.0190 -0.6122
  103SOL     OW  409   2.925   1.009   0.717  0.0126  0.0140  0.3398
  103SOL    HW2  410   2.905   1.022   0.810  0.7117  1.1745  0.3329
  103SOL    HW3  411   3.016   1.039   0.708 -0.1675  0.2190 -0.7873
  103SOL    MW4  412   2.934   1.015   0.728  0.0811  0.1942  0.1902
  104SOL     OW  413   3.263   1.580   0.313  0.5082  0.4369 -0.0934
  104SOL    HW2  414   3.207   1.631   0.255 -0.3933  1.7580  1.8985
  104SOL    HW3  415   3.223   1.493   0.314 -0.4701  0.8868 -0.0629
  104SOL    MW4  416   3.250   1.575   0.305  0.2602  0.6706  0.1734
  105SOL     OW  417   2.700   1.641   1.358 -0.1616 -0.1165 -0.1933
  105SOL    HW2  418   2.704   1.645   1.263 -2.7300 -0.3975 -0.3558
  105SOL    HW3  419   2.697   1.733   1.386 -1.0830 -0.0494 -0.4960
  105SOL    MW4  420   2.700   1.654   1.349 -0.6220 -0.1447 -0.2547
  106SOL     OW  421   1.994   1.510   1.475  0.3401 -0.3199 -0.4260
  106SOL    HW2  422   2.068   1.559   1.440  0.0497 -0.8892 -1.9013
  106SOL    HW3  423   1.993   1.429   1.424 -2.2965  0.3909 -1.5960
  106SOL    MW4  424   2.004   1.506   1.464 -0.0461 -0.3013 -0.7750
  107SOL     OW  425   3.509   4.607   0.600  0.1801 -0.3634 -0.0492
  107SOL    HW2  426   3.454   4.529   0.603  0.6200 -0.6500  1.1575
  107SOL    HW3  427   3.581   4.588   0.660  0.8590  0.5555 -0.5467
  107SOL    MW4  428   3.511   4.595   0.608  0.3277 -0.2800  0.0443
  108SOL     OW  429   0.208   3.401   1.034 -0.0768  0.3279 -0.3647
  108SOL    HW2  430   0.126   3.362   1.064 -0.3962  1.0620 -0.2595
  108SOL    HW3  431   0.222   3.365   0.947  0.0788 -0.6703  0.0631
  108SOL    MW4  432   0.199   3.392   1.027 -0.0984  0.2931 -0.2944
  109SOL     OW  433   3.584   4.093   0.313  0.7392 -0.9146 -0.0634
  109SOL    HW2  434   3.618   4.039   0.241  0.7740 -0.6120 -0.2746
  109SOL    HW3  435   3.662   4.116   0.364  0.9171  0.1729 -0.8151
  109SOL    MW4  436   3.599   4.089   0.311  0.7672 -0.7312 -0.1904
  110SOL     OW  437   1.350   1.141   1.445 -0.1566 -0.1618  0.3645
  110SOL    HW2  438   1.365   1.136   1.539 -1.0721 -0.5374  0.4963
  110SOL    HW3  439   1.324   1.052   1.420  0.4272 -0.1503 -0.3055
  110SOL    MW4  440   1.349   1.129   1.454 -0.2003 -0.2099  0.2935
  111SOL     OW  441   2.156   1.132   0.143 -0.0962 -0.2980 -0.4694
  111SOL    HW2  442   2.073   1.166   0.110 -1.2665 -2.3729  0.2586
  111SOL    HW3  443   2.182   1.067   0.077  0.2117 -0.6884  0.0404
  111SOL    MW4  444   2.148   1.128   0.130 -0.2100 -0.6233 -0.3061
  112SOL     OW  445   3.313   4.629   1.446 -0.2453  0.8579  0.3713
  112SOL    HW2  446   3.336   4.544   1.408  0.6109  0.5604  1.5063
  112SOL    HW3  447   3.249   4.666   1.386  0.3418 -0.0296 -0.8219
  112SOL    MW4  448   3.308   4.622   1.433 -0.0549  0.7016  0.3636
  113SOL     OW  449   0.277   0.464   0.217 -0.1507  0.3387 -0.1308
  113SOL    HW2  450   0.358   0.474   0.168 -0.0354 -0.3423 -0.0863
  113SOL    HW3  451   0.277   0.373   0.246 -1.0127  0.2766 -0.2854
  113SOL    MW4  452   0.287   0.453   0.214 -0.2492  0.2407 -0.1453
  114SOL     OW  453   0.216   4.399   1.337 -0.1650 -0.0342 -0.6890
  114SOL    HW2  454   0.286   4.339   1.362  0.3430  1.3916  1.3823
  114SOL    HW3  455   0.136   4.358   1.369  0.1321  0.1731  0.3229
  114SOL    MW4  456   0.215   4.386   1.344 -0.0588  0.1813 -0.2822
  115SOL     OW  457   2.502   2.550   0.970 -0.0719  0.1571 -0.7564
  115SOL    HW2  458   2.496   2.536   0.875 -0.0441  1.6393 -0.9763
  115SOL    HW3  459   2.421   2.513   1.004  0.3523 -1.2646 -1.2483
  115SOL    MW4  460   2.491   2.543   0.962 -0.0123  0.1651 -0.8503
  116SOL     OW  461   3.769   4.120   1.036 -0.0766 -0.5513 -0.7174
  116SOL    HW2  462   3.752   4.117   0.942 -0.2562  0.0600 -0.7065
  116SOL    HW3  463   3.855   4.079   1.047  0.5244  0.5559 -1.2858
  116SOL    MW4  464   3.778   4.114   1.025 -0.0210 -0.3246 -0.7909
  117SOL     OW  465   0.891   2.984   0.747 -0.1641  0.0185 -0.1526
  117SOL    HW2  466   0.984   2.986   0.723 -0.5424  1.5413 -1.6218
  117SOL    HW3  467   0.888   3.007   0.839  1.0357 -1.6893  0.3304
  117SOL    MW4  468   0.903   2.987   0.756 -0.0557 -0.0059 -0.2827
  118SOL     OW  469   4.162   2.348   0.466 -0.1043  0.6431  0.0743
  118SOL    HW2  470   4.117   2.426   0.498  0.1563  0.6447  0.4484
  118SOL    HW3  471   4.128   2.276   0.519 -1.5167  0.2475 -1.3529
  118SOL    MW4  472   4.152   2.349   0.478 -0.2563  0.5911 -0.0646
  119SOL     OW  473   1.284   0.096   1.068  0.1095 -0.1269 -0.0825
  119SOL    HW2  474   1.214   0.141   1.021  0.4362  1.1030  0.6032
  119SOL    HW3  475   1.362   0.150   1.054  0.2972  0.0492  1.5344
  119SOL    MW4  476   1.285   0.109   1.060  0.1774  0.0586  0.2213
  120SOL     OW  477   3.584   2.701   0.378  0.3039 -0.2222 -0.0278
  120SOL    HW2  478   3.571   2.706   0.473 -2.5155  1.0380 -0.4214
  120SOL    HW3  479   3.593   2.792   0.350  0.9415 -0.5742 -1.0049
  120SOL    MW4  480   3.583   2.713   0.387  0.0160 -0.1024 -0.2087
  121SOL     OW  481   4.441   3.766   0.346  0.0145 -0.4788 -0.0179
  121SOL    HW2  482   4.528   3.763   0.304  0.5361 -1.0075  1.0882
  121SOL    HW3  483   4.386   3.712   0.290  0.0175  1.1134 -1.5964
  121SOL    MW4  484   4.445   3.759   0.333  0.0837 -0.3385 -0.0802
  122SOL     OW  485   2.288   2.810   0.787  0.1625  0.0713 -0.2202
  122SOL    HW2  486   2.264   2.718   0.770  1.1030 -0.1151 -0.5827
  122SOL    HW3  487   2.304   2.847   0.700  0.4149  0.3973 -0.0361
  122SOL    MW4  488   2.287   2.802   0.773  0.3199  0.0897 -0.2438
  123SOL     OW  489   2.035   3.916   1.503  0.1136 -0.2225 -0.6946
  123SOL    HW2  490   1.961   3.957   1.457  1.4000  0.3707 -2.2563
  123SOL    HW3  491   2.044   3.830   1.463  2.9018  1.2736 -3.4585
  123SOL    MW4  492   2.026   3.910   1.492  0.6512  0.0532 -1.2653
  124SOL     OW  493   2.104   4.277   0.316  0.0347  0.1123  0.5752
  124SOL    HW2  494   2.085   4.369   0.298  1.1792  0.7347  2.3771
  124SOL    HW3  495   2.199   4.270   0.305 -0.2846 -1.3330 -1.5078
  124SOL    MW4  496   2.114   4.288   0.312  0.1436  0.0037  0.5381
  125SOL     OW  497   3.129   2.463   1.375  0.2435 -0.1312  0.0854
  125SOL    HW2  498   3.121   2.465   1.279  0.4078  0.3037  0.0829
  125SOL    HW3  499   3.058   2.406   1.403 -0.9338  1.1975 -0.1569
  125SOL    MW4  500   3.119   2.455   1.366  0.1098  0.1015  0.0531
  126SOL     OW  501   1.256   1.251   0.208 -0.0267 -0.4090  0.2882
  126SOL    HW2  502   1.207   1.330   0.183 -1.4451 -1.4418 -0.2512
  126SOL    HW3  503   1.210   1.219   0.286 -0.4955 -1.6321 -0.4809
  126SOL    MW4  504   1.243   1.257   0.215 -0.2757 -0.7066  0.1155
  127SOL     OW  505   0.226   1.800   0.979  0.0803 -0.0815 -0.2218
  127SOL    HW2  506   0.311   1.762   1.000 -0.0998  0.6444  1.9325
  127SOL    HW3  507   0.163   1.743   1.022 -0.4095  0.3939 -0.3074
  127SOL    MW4  508   0.229   1.788   0.988 -0.0081  0.0770  0.0511
  128SOL     OW  509   4.250   3.913   1.463  0.1558  0.1149 -0.2500
  128SOL    HW2  510   4.243   3.826   1.424 -0.1831  0.2109 -0.4050
  128SOL    HW3  511   4.326   3.952   1.421  0.6928 -0.3443  0.2835
  128SOL    MW4  512   4.259   3.907   1.453  0.1819  0.0670 -0.2000
  129SOL     OW  513   4.137   0.917   0.574  0.0729 -0.3312 -0.2989
  129SOL    HW2  514   4.077   0.938   0.503 -0.7349 -0.2414  0.4053
  129SOL    HW3  515   4.093   0.848   0.624  0.4760 -0.1440  0.3220
  129SOL    MW4  516   4.124   0.910   0.572  0.0195 -0.2947 -0.1241
  130SOL     OW  517   0.669   3.617   1.384  0.2961  0.9436  0.2888
  130SOL    HW2  518   0.686   3.614   1.289  1.7086  1.2643  0.5214
  130SOL    HW3  519   0.582   3.578   1.393  0.4077  0.3108 -1.0804
  130SOL    MW4  520   0.659   3.612   1.372  0.4972  0.9024  0.1388
  131SOL     OW  521   1.571   1.789   1.050 -0.0948 -0.2919 -0.0830
  131SOL    HW2  522   1.578   1.885   1.056 -1.1126 -0.1355 -1.0504
  131SOL    HW3  523   1.489   1.769   1.096  0.4107 -0.7638  0.6149
  131SOL    MW4  524   1.561   1.799   1.057 -0.1624 -0.3335 -0.1186
  132SOL     OW  525   2.682   1.553   0.264  0.2382 -0.1060  0.3938
  132SOL    HW2  526   2.681   1.463   0.231  0.3196 -0.2563  0.7921
  132SOL    HW3  527   2.656   1.545   0.356 -0.1900  0.3272  0.3141
  132SOL    MW4  528   2.678   1.540   0.272  0.1925 -0.0687  0.4359
  133SOL     OW  529   0.510   3.146   0.661 -0.1020 -0.0131  0.1693
  133SOL    HW2  530   0.513   3.062   0.708 -1.0876  0.4985  1.1490
  133SOL    HW3  531   0.583   3.140   0.599 -0.4973 -1.8225 -0.1588
  133SOL    MW4  532   0.520   3.134   0.659 -0.2842 -0.1843  0.2553
  134SOL     OW  533   3.825   2.051   1.357 -0.1172 -0.5677 -0.0399
  134SOL    HW2  534   3.748   2.004   1.391 -0.3950 -0.1506 -0.0842
  134SOL    HW3  535   3.899   2.010   1.401 -0.1639 -2.5471 -1.7223
  134SOL    MW4  536   3.824   2.039   1.367 -0.1600 -0.7738 -0.2677
  135SOL     OW  537   1.189   1.647   0.670  0.6114 -0.2486  0.0601
  135SOL    HW2  538   1.106   1.603   0.689  0.2138 -0.6988 -2.5481
  135SOL    HW3  539   1.183   1.730   0.717 -2.0797  0.4786 -1.4783
  135SOL    MW4  540   1.178   1.652   0.679  0.2039 -0.2121 -0.4870
  136SOL     OW  541   1.375   3.252   1.408 -0.3742 -0.2829  0.2203
  136SOL    HW2  542   1.404   3.246   1.317  0.1447 -0.3377  0.3868
  136SOL    HW3  543   1.309   3.183   1.417 -1.6210  0.7943 -0.5488
  136SOL    MW4  544   1.370   3.242   1.397 -0.4702 -0.1480  0.1408
  137SOL     OW  545   2.322   0.200   0.604  0.3172  0.0027 -0.0196
  137SOL    HW2  546   2.316   0.123   0.548 -0.6080 -1.3165  1.8443
  137SOL    HW3  547   2.232   0.216   0.632  0.4683  1.8915 -0.5134
  137SOL    MW4  548   2.309   0.192   0.600  0.2151  0.0778  0.1611
  138SOL     OW  549   0.007   0.397   1.476 -0.3545 -0.0109  0.3459
  138SOL    HW2  550   0.092   0.426   1.443 -0.7405  1.1773  0.3720
  138SOL    HW3  551  -0.001   0.307   1.445  0.2701  0.3491 -0.9008
  138SOL    MW4  552   0.017   0.389   1.468 -0.3230  0.1934  0.1848
  139SOL     OW  553   4.284   1.994   0.630 -0.4386 -0.4890 -0.1826
  139SOL    HW2  554   4.347   2.032   0.691 -1.0596 -0.8455  0.6796
  139SOL    HW3  555   4.267   1.907   0.664 -0.0127 -1.0722 -1.4324
  139SOL    MW4  556   4.290   1.988   0.642 -0.4643 -0.6130 -0.2338
  140SOL     OW  557   2.942   0.679   0.384 -0.3036 -0.0368  0.0386
  140SOL    HW2  558   3.032   0.647   0.392  0.4028  2.1097  0.8708
  140SOL    HW3  559   2.912   0.688   0.474 -0.9288  0.4447 -0.2183
  140SOL    MW4  560   2.950   0.676   0.397 -0.2929  0.3099  0.1145
  141SOL     OW  561   4.036   3.235   1.135  0.3155  0.0788 -0.5695
  141SOL    HW2  562   4.049   3.147   1.101 -0.9981 -0.9032  1.3766
  141SOL    HW3  563   4.042   3.225   1.230 -1.7914  1.7535 -0.2284
  141SOL    MW4  564   4.039   3.222   1.143 -0.1358  0.1702 -0.2677
  142SOL     OW  565   1.701   1.850   0.369  0.4396  0.1815  0.5221
  142SOL    HW2  566   1.723   1.830   0.459 -0.3543  0.1338  0.7055
  142SOL    HW3  567   1.774   1.904   0.338 -0.3091  1.9721  1.8326
  142SOL    MW4  568   1.714   1.854   0.376  0.2361  0.4115  0.7192
  143SOL     OW  569   1.825   1.665   1.350 -0.0456 -0.2397  0.3681
  143SOL    HW2  570   1.739   1.629   1.371 -0.3455  0.9056  1.1741
  143SOL    HW3  571   1.887   1.608   1.395 -0.4160 -0.7716  0.2018
  143SOL    MW4  572   1.822   1.653   1.359 -0.1340 -0.1588  0.4525
  144SOL     OW  573   2.920   3.297   0.998  0.1182 -0.2457  0.6921
  144SOL    HW2  574   2.837   3.254   1.019  1.2002 -1.9340  1.6229
  144SOL    HW3  575   2.914   3.318   0.905 -2.6845  2.6629  1.4469
  144SOL    MW4  576   2.909   3.294   0.989 -0.1088 -0.0847  0.9145
  145SOL     OW  577   0.368   1.110   0.611  0.5038 -0.1141  0.0083
  145SOL    HW2  578   0.449   1.095   0.660  0.8642 -2.8375 -1.3186
  145SOL    HW3  579   0.298   1.102   0.676  1.1968  0.5651  0.8462
  145SOL    MW4  580   0.370   1.106   0.626  0.6428 -0.3838 -0.0563
  146SOL     OW  581   4.265   0.518   0.336  0.4477 -0.7406  0.4318
  146SOL    HW2  582   4.277   0.595   0.392 -0.0176 -1.1381  1.0796
  146SOL    HW3  583   4.342   0.518   0.279 -0.1205  0.8622 -0.3665
  146SOL    MW4  584   4.277   0.528   0.336  0.3113 -0.5815  0.4120
  147SOL     OW  585   1.593   3.632   1.407  0.1768 -0.7980 -0.5555
  147SOL    HW2  586   1.660   3.569   1.435  0.3469  0.0501  1.0218
  147SOL    HW3  587   1.512   3.599   1.446  0.1184 -0.4992 -0.4225
  147SOL    MW4  588   1.591   3.619   1.416  0.1915 -0.6467 -0.3299
  148SOL     OW  589   1.539   3.061   1.798  0.1703 -0.3355  0.4484
  148SOL    HW2  590   1.555   3.062   1.704 -0.0554  0.5138  0.4128
  148SOL    HW3  591   1.563   2.972   1.826 -0.8964 -0.9783 -0.6051
  148SOL    MW4  592   1.544   3.049   1.789 -0.0002 -0.3082  0.3047
  149SOL     OW  593   0.916   1.397   0.520 -0.8706  0.3375  0.0370
  149SOL    HW2  594   0.842   1.356   0.475 -2.4304 -1.6277  4.1675
  149SOL    HW3  595   0.971   1.324   0.546 -0.0482  1.4222  1.3826
  149SOL    MW4  596   0.913   1.382   0.517 -0.9679  0.2213  0.7595
  150SOL     OW  597   0.210   4.641   1.470  0.1428  0.0541 -0.3753
  150SOL    HW2  598   0.293   4.682   1.444  0.3509 -0.5733 -0.6917
  150SOL    HW3  599   0.213   4.554   1.432 -1.1833  0.4344 -1.4004
  150SOL    MW4  600   0.222   4.635   1.462 -0.0047  0.0215 -0.5523
  151SOL     OW  601   3.477   3.639   1.126  0.0305 -0.2050  0.2431
  151SOL    HW2  602   3.491   3.734   1.118  0.1020 -0.2068  0.3306
  151SOL    HW3  603   3.458   3.626   1.219 -0.5903 -0.2015  0.1160
  151SOL    MW4  604   3.477   3.650   1.137 -0.0420 -0.2048  0.2379
  152SOL     OW  605   2.976   4.194   0.555  0.0337 -0.3758  0.0017
  152SOL    HW2  606   2.994   4.123   0.617  2.7198 -1.1035 -1.5254
  152SOL    HW3  607   2.881   4.207   0.560 -0.0394 -1.6415  2.9013
  152SOL    MW4  608   2.966   4.186   0.564  0.3784 -0.6388  0.1828
  153SOL     OW  609   3.103   4.456   0.961  0.1126  0.0075 -0.4125
  153SOL    HW2  610   3.117   4.551   0.966  1.4994 -0.1836 -0.5668
  153SOL    HW3  611   3.099   4.437   0.868  2.1697 -0.3964 -0.4498
  153SOL    MW4  612   3.104   4.466   0.949  0.5670 -0.0710 -0.4377
  154SOL     OW  613   1.332   1.343   0.750 -0.6153  0.0820 -0.4030
  154SOL    HW2  614   1.318   1.426   0.704  1.2570 -0.1665 -1.4542
  154SOL    HW3  615   1.273   1.282   0.707 -1.5491  0.7034 -0.0319
  154SOL    MW4  616   1.322   1.346   0.739 -0.4915  0.1312 -0.4927
  155SOL     OW  617   1.138   3.850   1.476  0.2185  0.2729 -0.5301
  155SOL    HW2  618   1.065   3.903   1.444  1.2172  1.8301 -0.2795
  155SOL    HW3  619   1.215   3.906   1.466  1.1806 -0.8184  0.5388
  155SOL    MW4  620   1.138   3.864   1.470  0.4772  0.3343 -0.3560
  156SOL     OW  621   2.237   3.207   1.130 -0.1160 -0.0439  0.5475
  156SOL    HW2  622   2.321   3.242   1.102  0.3420 -1.1188  0.5335
  156SOL    HW3  623   2.236   3.117   1.097 -1.6185  0.2202 -0.1429
  156SOL    MW4  624   2.248   3.200   1.122 -0.2538 -0.1508  0.4546
  157SOL     OW  625   0.217   2.916   0.183 -0.4102  0.4059  0.0071
  157SOL    HW2  626   0.239   2.995   0.232  1.4286  0.2777 -0.5791
  157SOL    HW3  627   0.126   2.929   0.156 -0.6348  1.5886  1.3001
  157SOL    MW4  628   0.208   2.928   0.186 -0.1972  0.5450  0.1004
  158SOL     OW  629   2.529   1.912   0.589  0.6182 -0.0382  0.3421
  158SOL    HW2  630   2.461   1.847   0.607  0.2906  0.6680  1.6893
  158SOL    HW3  631   2.583   1.871   0.522  0.4394 -1.7475  1.2008
  158SOL    MW4  632   2.527   1.898   0.583  0.5514 -0.1705  0.6332
  159SOL     OW  633   1.291   0.374   1.488  0.4884 -0.2623  0.0017
  159SOL    HW2  634   1.300   0.287   1.449 -2.1096 -0.0671 -1.1453
  159SOL    HW3  635   1.213   0.411   1.447 -0.7496  1.0699  3.3583
  159SOL    MW4  636   1.282   0.368   1.478 -0.0177 -0.0608  0.2932
  160SOL     OW  637   4.245   4.402   1.129  0.4564  0.6823 -0.3262
  160SOL    HW2  638   4.222   4.322   1.082  1.4438  0.5578 -0.5975
  160SOL    HW3  639   4.232   4.381   1.222  0.3857  0.3200 -0.4213
  160SOL    MW4  640   4.240   4.389   1.135  0.5773  0.6180 -0.3745
  161SOL     OW  641   2.042   4.559   0.329 -0.1247 -0.1134 -0.0962
  161SOL    HW2  642   2.026   4.643   0.284  2.3476  0.3285 -0.2136
  161SOL    HW3  643   2.011   4.574   0.418 -1.0627  0.4423 -0.5055
  161SOL    MW4  644   2.036   4.572   0.335  0.0777  0.0182 -0.1657
  162SOL     OW  645   4.276   3.089   1.496  0.5762  0.0732 -0.5652
  162SOL    HW2  646   4.273   3.076   1.591  0.1017 -0.8550 -0.7018
  162SOL    HW3  647   4.204   3.149   1.478  2.0785  2.0743 -0.0677
  162SOL    MW4  648   4.266   3.095   1.506  0.7118  0.2148 -0.5176
  163SOL     OW  649   1.358   2.906   0.314 -0.0429 -0.0235  0.0006
  163SOL    HW2  650   1.357   2.946   0.227 -0.4676 -1.1315 -0.5112
  163SOL    HW3  651   1.442   2.932   0.352  0.2636  0.2277 -0.8486
  163SOL    MW4  652   1.369   2.915   0.307 -0.0585 -0.1365 -0.1790
  164SOL     OW  653   4.445   2.832   0.447 -0.0690 -0.4711 -0.1082
  164SOL    HW2  654   4.401   2.819   0.531  0.3023 -1.2410 -0.0321
  164SOL    HW3  655   4.522   2.885   0.469  0.7120 -1.7324  0.2383
  164SOL    MW4  656   4.450   2.837   0.461  0.0830 -0.7391 -0.0525
  165SOL     OW  657   2.954   2.406   0.659  0.4849  0.2409 -0.0416
  165SOL    HW2  658   3.046   2.425   0.640  0.7282  0.8902  1.6591
  165SOL    HW3  659   2.955   2.315   0.691  0.4266 -0.0050 -0.7342
  165SOL    MW4  660   2.967   2.396   0.661  0.5093  0.2941  0.0914
  166SOL     OW  661   3.393   3.080   0.652 -0.3491 -0.1855 -0.7650
  166SOL    HW2  662   3.405   3.083   0.557  0.9624 -1.5628 -0.6790
  166SOL    HW3  663   3.473   3.038   0.684 -1.2390 -0.6955  0.8440
  166SOL    MW4  664   3.405   3.075   0.643 -0.2934 -0.4345 -0.5414
  167SOL     OW  665   3.750   0.517   1.079  0.0632  0.4561  0.4021
  167SOL    HW2  666   3.757   0.433   1.033 -1.4097  0.6457 -0.1849
  167SOL    HW3  667   3.830   0.564   1.055 -0.7296  0.6010 -2.0935
  167SOL    MW4  668   3.762   0.512   1.070 -0.2357  0.5002 -0.0046
  168SOL     OW  669   3.786   3.350   1.050  0.0312 -0.7257 -0.2654
  168SOL    HW2  670   3.867   3.301   1.064 -0.2931 -1.2810 -0.3269
  168SOL    HW3  671   3.778   3.356   0.955 -0.5648 -1.6089 -0.2694
  168SOL    MW4  672   3.796   3.345   1.039 -0.0902 -0.9155 -0.2740
  169SOL     OW  673   4.479   4.053   0.892  0.3142 -0.2834 -0.3087
  169SOL    HW2  674   4.460   3.997   0.816 -1.7963 -0.2138  0.1285
  169SOL    HW3  675   4.478   3.992   0.966  1.3470 -0.1875 -0.2144
  169SOL    MW4  676   4.476   4.037   0.892  0.1720 -0.2616 -0.2386
  170SOL     OW  677   0.605   0.259   0.713 -0.1331 -0.1381  0.3346
  170SOL    HW2  678   0.670   0.193   0.692 -0.9109 -1.4602  1.9906
  170SOL    HW3  679   0.522   0.221   0.684 -0.5889  0.0810  1.3360
  170SOL    MW4  680   0.603   0.246   0.706 -0.2959 -0.2836  0.6852
  171SOL     OW  681   0.493   3.814   0.705 -0.0316  0.1730 -0.3730
  171SOL    HW2  682   0.468   3.903   0.678  0.3221  0.0399 -1.1595
  171SOL    HW3  683   0.588   3.818   0.715 -0.2472  0.5147  1.9898
  171SOL    MW4  684   0.502   3.826   0.703 -0.0134  0.2005 -0.1650
  172SOL     OW  685   0.691   1.845   0.987 -0.1342 -0.5071 -0.4249
  172SOL    HW2  686   0.728   1.868   0.902  1.4700  0.8206  0.5964
  172SOL    HW3  687   0.743   1.771   1.017 -1.1079 -1.3808 -0.8545
  172SOL    MW4  688   0.703   1.839   0.979 -0.0510 -0.4472 -0.3468
  173SOL     OW  689   3.078   2.625   0.269 -0.3254  0.3262  0.1935
  173SOL    HW2  690   3.161   2.577   0.271 -0.7545 -0.4584 -0.4092
  173SOL    HW3  691   3.101   2.714   0.294  0.9250  0.4611 -1.3535
  173SOL    MW4  692   3.092   2.630   0.273 -0.2170  0.2405 -0.0901
  174SOL     OW  693   1.790   0.328   0.334 -0.1507 -0.0606  0.1135
  174SOL    HW2  694   1.718   0.386   0.361 -1.1424  0.0780 -2.7208
  174SOL    HW3  695   1.853   0.387   0.292 -0.0532 -0.7221 -0.6579
  174SOL    MW4  696   1.789   0.344   0.332 -0.2686 -0.1296 -0.3622
  175SOL     OW  697   3.163   1.676   1.330  0.0465 -0.1901  0.0413
  175SOL    HW2  698   3.204   1.705   1.249 -0.7933 -0.4985 -0.5025
  175SOL    HW3  699   3.229   1.620   1.372  0.3920 -0.2244 -0.5429
  175SOL    MW4  700   3.177   1.673   1.325 -0.0187 -0.2353 -0.1075
  176SOL     OW  701   3.837   2.841   1.392  0.1436 -0.2731 -0.1914
  176SOL    HW2  702   3.753   2.818   1.433  0.4398 -0.3093  0.3873
  176SOL    HW3  703   3.897   2.772   1.421  0.6551  0.3904  0.3094
  176SOL    MW4  704   3.834   2.829   1.401  0.2501 -0.1903 -0.0490
  177SOL     OW  705   1.119   1.112   0.393  0.3335 -0.4422 -0.0184
  177SOL    HW2  706   1.112   1.138   0.485  1.2107 -0.7676  0.1460
  177SOL    HW3  707   1.029   1.099   0.365 -0.0383  1.1940  0.3488
  177SOL    MW4  708   1.106   1.114   0.402  0.4002 -0.2693  0.0518
  178SOL     OW  709   4.286   0.389   0.675  1.1447 -0.0069  0.0273
  178SOL    HW2  710   4.289   0.368   0.768 -0.8002 -1.5049 -0.1940
  178SOL    HW3  711   4.300   0.305   0.631  0.5696  0.4274 -1.0030
  178SOL    MW4  712   4.288   0.375   0.681  0.8122 -0.1473 -0.1378
  179SOL     OW  713   4.298   3.571   1.877 -0.3839 -0.8038 -0.2581
  179SOL    HW2  714   4.293   3.658   1.838 -2.0318 -1.2154 -1.0078
  179SOL    HW3  715   4.363   3.525   1.824  1.2944  0.2940  0.8225
  179SOL    MW4  716   4.306   3.576   1.865 -0.3799 -0.7133 -0.2145
  180SOL     OW  717   3.109   0.084   1.290 -0.1359  0.8538 -0.3041
  180SOL    HW2  718   3.035   0.042   1.334 -0.1829  0.1831 -1.0205
  180SOL    HW3  719   3.125   0.030   1.212  0.7742  1.2911 -0.4286
  180SOL    MW4  720   3.101   0.071   1.285 -0.0220  0.8230 -0.4151
  181SOL     OW  721   2.741   4.643   0.405 -0.1137  0.5515 -0.3087
  181SOL    HW2  722   2.831   4.611   0.405 -0.2639  0.0751  1.4898
  181SOL    HW3  723   2.744   4.723   0.353  1.2128  0.2014 -0.7940
  181SOL    MW4  724   2.753   4.649   0.398  0.0415  0.4424 -0.1355
  182SOL     OW  725   2.459   4.110   0.973  0.3910 -0.4029 -0.2573
  182SOL    HW2  726   2.459   4.201   1.002 -0.0055 -0.4016 -0.2632
  182SOL    HW3  727   2.433   4.114   0.881  2.3241 -0.3475 -0.8126
  182SOL    MW4  728   2.456   4.123   0.965  0.5938 -0.3954 -0.3313
  183SOL     OW  729   1.142   4.096   0.952 -0.3003  0.2990 -0.0126
  183SOL    HW2  730   1.225   4.092   0.998  0.5165  2.9392 -1.1355
  183SOL    HW3  731   1.081   4.045   1.006  1.6465 -0.3177  1.6442
  183SOL    MW4  732   1.145   4.089   0.965  0.0643  0.5660  0.0579
  184SOL     OW  733   4.040   0.471   0.597 -0.4474 -0.0151  0.2461
  184SOL    HW2  734   4.042   0.476   0.502 -0.2743  1.0345  0.3033
  184SOL    HW3  735   4.129   0.445   0.622 -0.1605  0.9164  0.1917
  184SOL    MW4  736   4.052   0.468   0.588 -0.3867  0.2463  0.2464
  185SOL     OW  737   2.496   3.000   0.335  0.2799  0.3140 -0.1421
  185SOL    HW2  738   2.583   2.964   0.356  0.7071  1.4518  0.0548
  185SOL    HW3  739   2.491   3.082   0.385 -1.1312 -0.0100  0.2795
  185SOL    MW4  740   2.507   3.006   0.345  0.1501  0.4214 -0.0605
  186SOL     OW  741   2.935   3.080   1.459 -0.3401  0.1508 -0.2152
  186SOL    HW2  742   2.932   3.103   1.552 -1.4080  0.7033 -0.3745
  186SOL    HW3  743   3.016   3.120   1.427  0.1735 -0.2769  0.5289
  186SOL    MW4  744   2.945   3.088   1.467 -0.4132  0.1672 -0.1380
  187SOL     OW  745   2.574   4.012   0.255  0.3003 -0.0564  0.1590
  187SOL    HW2  746   2.641   4.071   0.220  0.6550 -0.1339  0.7030
  187SOL    HW3  747   2.572   3.939   0.192 -0.7721  0.9573 -0.9928
  187SOL    MW4  748   2.583   4.010   0.242  0.2056  0.0671  0.0788
  188SOL     OW  749   2.474   2.797   1.120 -0.0242  0.3785 -0.2736
  188SOL    HW2  750   2.473   2.716   1.070 -0.4748 -0.2188  0.6971
  188SOL    HW3  751   2.397   2.845   1.091 -0.1043  0.1807 -0.3826
  188SOL    MW4  752   2.464   2.793   1.109 -0.0942  0.2736 -0.1599
  189SOL     OW  753   2.702   3.688   0.985 -0.1674  0.3101 -0.4455
  189SOL    HW2  754   2.777   3.643   1.026  0.5225  0.8319 -1.1222
  189SOL    HW3  755   2.626   3.654   1.032  0.3577 -1.4320 -0.8093
  189SOL    MW4  756   2.702   3.677   0.997 -0.0071  0.1491 -0.5827
  190SOL     OW  757   0.372   0.153   0.600  0.1693 -0.1167  0.0729
  190SOL    HW2  758   0.333   0.164   0.513 -0.5909 -0.5554  0.3475
  190SOL    HW3  759   0.367   0.059   0.616 -0.8233  0.1023  1.0921
  190SOL    MW4  760   0.366   0.142   0.590 -0.0620 -0.1457  0.2436
  191SOL     OW  761   1.260   2.176   0.729 -0.0337  0.5677  0.1298
  191SOL    HW2  762   1.177   2.223   0.737 -0.0325  0.8662 -1.3143
  191SOL    HW3  763   1.296   2.206   0.645  0.7399 -0.7925 -0.0471
  191SOL    MW4  764   1.254   2.186   0.719  0.0685  0.4276 -0.0841
  192SOL     OW  765   1.340   0.317   0.241 -0.0340  0.2512 -0.1599
  192SOL    HW2  766   1.422   0.342   0.283  1.1818 -1.3222 -1.5492
  192SOL    HW3  767   1.360   0.316   0.147 -1.4392 -0.8207 -0.4663
  192SOL    MW4  768   1.353   0.320   0.234 -0.0590 -0.0978 -0.3836
  193SOL     OW  769   2.524   2.578   0.210 -0.1687 -0.2161 -1.0019
  193SOL    HW2  770   2.526   2.502   0.152  0.2706 -1.2048  0.2933
  193SOL    HW3  771   2.616   2.605   0.216 -0.3341  0.4627 -1.5198
  193SOL    MW4  772   2.536   2.572   0.203 -0.1325 -0.2570 -0.8993
  194SOL     OW  773   1.095   2.887   1.097  0.0564 -0.2655  0.0213
  194SOL    HW2  774   1.093   2.801   1.055  0.0631 -0.0473 -0.4281
  194SOL    HW3  775   1.016   2.930   1.066 -1.5346 -1.2208  2.6250
  194SOL    MW4  776   1.085   2.881   1.087 -0.1526 -0.3627  0.3055
  195SOL     OW  777   1.380   3.510   1.512  0.5856 -0.1179  0.5583
  195SOL    HW2  778   1.374   3.517   1.607  0.6218  1.5563  0.4501
  195SOL    HW3  779   1.373   3.416   1.494 -1.5023 -0.2730  2.0531
  195SOL    MW4  780   1.378   3.499   1.522  0.3149  0.0825  0.7412
  196SOL     OW  781   3.606   0.933   1.022  0.5709 -0.1958 -0.3181
  196SOL    HW2  782   3.585   0.842   1.003 -1.2365  0.3420 -0.9964
  196SOL    HW3  783   3.625   0.934   1.116 -1.0189 -0.9892  0.0181
  196SOL    MW4  784   3.606   0.921   1.032  0.1226 -0.2296 -0.3632
  197SOL     OW  785   3.929   2.361   0.260  0.3742 -0.0011  0.0541
  197SOL    HW2  786   4.018   2.341   0.286  0.5644 -0.9650 -1.2964
  197SOL    HW3  787   3.875   2.296   0.306  0.6200 -1.0724 -1.1309
  197SOL    MW4  788   3.933   2.350   0.269  0.4317 -0.2696 -0.2804
  198SOL     OW  789   3.041   0.297   0.366 -0.1011  0.2113 -0.1523
  198SOL    HW2  790   2.992   0.313   0.285 -0.6118 -1.3851 -0.1849
  198SOL    HW3  791   2.980   0.321   0.436 -0.7380 -1.1618 -0.2065
  198SOL    MW4  792   3.026   0.302   0.364 -0.2525 -0.1805 -0.1638
  199SOL     OW  793   1.530   1.288   1.107  0.3647  0.2039  0.2566
  199SOL    HW2  794   1.549   1.291   1.201  0.6322  1.2465  0.1759
  199SOL    HW3  795   1.612   1.316   1.065 -0.2097  1.1660 -0.2292
  199SOL    MW4  796   1.544   1.292   1.114  0.3242  0.4684  0.1819
  200SOL     OW  797   2.737   3.190   1.879  0.6943 -0.3650 -0.1086
  200SOL    HW2  798   2.660   3.156   1.832  0.0912 -0.2606  0.7751
  200SOL    HW3  799   2.738   3.284   1.860 -0.4750 -0.0363  1.3285
  200SOL    MW4  800   2.727   3.198   1.870  0.4605 -0.3079  0.1976
  201SOL     OW  801   3.534   1.965   0.407 -0.2290 -0.2961  0.0782
  201SOL    HW2  802   3.543   1.956   0.502 -1.3152 -1.2244  0.1106
  201SOL    HW3  803   3.597   2.033   0.383 -1.0233  1.0455  1.6736
  201SOL    MW4  804   3.543   1.973   0.417 -0.4771 -0.2416  0.2930
  202SOL     OW  805   3.584   2.712   0.673 -0.4835 -0.1785  0.0270
  202SOL    HW2  806   3.669   2.668   0.673 -0.6958 -0.6133 -1.1461
  202SOL    HW3  807   3.602   2.798   0.711 -0.1246 -1.3493  2.6543
  202SOL    MW4  808   3.598   2.718   0.678 -0.4641 -0.3904  0.2189
  203SOL     OW  809   2.727   0.010   0.675 -0.3353 -0.1779  0.1004
  203SOL    HW2  810   2.730  -0.012   0.582  1.2426  0.0535  0.0878
  203SOL    HW3  811   2.712  -0.074   0.719 -1.5991 -0.2126 -0.3850
  203SOL    MW4  812   2.725  -0.004   0.668 -0.2939 -0.1519  0.0347
  204SOL     OW  813   4.471   0.151   1.355 -0.2575 -0.5294  0.6165
  204SOL    HW2  814   4.537   0.086   1.378  1.6597  1.3044  0.4558
  204SOL    HW3  815   4.465   0.147   1.259  0.2136 -0.1598  0.5677
  204SOL    MW4  816   4.479   0.142   1.345  0.0576 -0.2387  0.5888
  205SOL     OW  817   3.596   2.469   1.390 -0.7184  0.0781 -0.1660
  205SOL    HW2  818   3.676   2.424   1.417 -1.0637 -0.6450 -0.3305
  205SOL    HW3  819   3.593   2.456   1.295 -2.2362 -1.9294  0.1030
  205SOL    MW4  820   3.606   2.461   1.381 -0.9642 -0.2822 -0.1522
  206SOL     OW  821   1.746   2.584   0.268  0.3126 -0.0717  0.0622
  206SOL    HW2  822   1.796   2.504   0.280  0.8085 -0.2332 -2.7023
  206SOL    HW3  823   1.778   2.644   0.335  1.1078 -1.6126  1.0789
  206SOL    MW4  824   1.757   2.581   0.278  0.4829 -0.2963 -0.1684
  207SOL     OW  825   0.673   1.924   0.697 -0.0734  0.4009 -0.1777
  207SOL    HW2  826   0.664   1.831   0.677  0.1253  0.5449 -0.9441
  207SOL    HW3  827   0.602   1.967   0.650  0.0465  0.6790 -0.1103
  207SOL    MW4  828   0.663   1.918   0.688 -0.0313  0.4566 -0.2699
  208SOL     OW  829   2.122   0.356   0.948  0.3456 -0.5745  0.0172
  208SOL    HW2  830   2.200   0.410   0.955 -0.1386  0.1506 -0.1650
  208SOL    HW3  831   2.143   0.278   1.000  0.6861  0.2073  1.0828
  208SOL    MW4  832   2.135   0.352   0.956  0.3266 -0.3757  0.1338
  209SOL     OW  833   3.483   4.157   0.696  0.2406  0.8409 -0.0048
  209SOL    HW2  834   3.473   4.073   0.651  0.3724  0.3523  0.8643
  209SOL    HW3  835   3.436   4.145   0.778  1.0292  1.3157  0.5164
  209SOL    MW4  836   3.476   4.144   0.701  0.3620  0.8391  0.1787
  210SOL     OW  837   0.117   0.776   0.633 -0.0677 -0.1030  0.5677
  210SOL    HW2  838   0.141   0.744   0.546  2.2042  0.6325  0.9046
  210SOL    HW3  839   0.094   0.696   0.682  0.7220 -0.7415 -0.0843
  210SOL    MW4  840   0.117   0.761   0.628  0.3362 -0.0902  0.5261
  211SOL     OW  841   3.341   2.615   0.760 -0.2327  0.2374  0.4055
  211SOL    HW2  842   3.421   2.642   0.714 -0.3632  1.8348  1.0560
  211SOL    HW3  843   3.293   2.562   0.696  0.6073  0.5963 -0.5443
  211SOL    MW4  844   3.346   2.612   0.745 -0.1391  0.4955  0.3660
  212SOL     OW  845   2.050   3.367   0.994 -0.3023 -0.2868  0.1938
  212SOL    HW2  846   2.121   3.323   1.040 -1.4170 -0.1107  2.1357
  212SOL    HW3  847   2.041   3.451   1.038 -1.2006  0.0190 -0.5439
  212SOL    MW4  848   2.058   3.373   1.006 -0.5679 -0.2232  0.3527
  213SOL     OW  849   3.404   3.345   0.734 -0.2095 -0.1523  0.1858
  213SOL    HW2  850   3.471   3.390   0.682  0.6279 -0.6968  0.7836
  213SOL    HW3  851   3.405   3.255   0.702 -1.9842  0.2856 -1.1051
  213SOL    MW4  852   3.413   3.339   0.723 -0.3332 -0.1664  0.0944
  214SOL     OW  853   0.014   3.235   1.409  0.0191 -0.3652  0.2274
  214SOL    HW2  854  -0.005   3.327   1.424  0.4211 -0.7909  3.8697
  214SOL    HW3  855  -0.059   3.188   1.449  0.4949 -1.6815 -0.3953
  214SOL    MW4  856   0.002   3.241   1.416  0.1349 -0.5950  0.6258
  215SOL     OW  857   2.886   3.478   0.285 -0.0977  0.7961  0.1805
  215SOL    HW2  858   2.805   3.478   0.233  0.3440  0.2348 -0.5305
  215SOL    HW3  859   2.879   3.401   0.340  0.8979 -0.4894 -1.4315
  215SOL    MW4  860   2.874   3.468   0.285  0.0920  0.5525 -0.1260
  216SOL     OW  861   1.039   2.638   0.314 -0.1412 -0.6499  0.3905
  216SOL    HW2  862   0.984   2.701   0.268  0.0040 -0.5528  0.3501
  216SOL    HW3  863   1.007   2.552   0.286 -0.5051 -0.5968  0.6416
  216SOL    MW4  864   1.028   2.635   0.304 -0.1700 -0.6300  0.4183
  217SOL     OW  865   0.246   3.143   0.335 -0.1045 -0.4408 -0.1449
  217SOL    HW2  866   0.191   3.221   0.324  0.0560 -0.5736 -2.2740
  217SOL    HW3  867   0.334   3.177   0.349 -0.1876 -0.2247 -0.1497
  217SOL    MW4  868   0.250   3.157   0.335 -0.0943 -0.4298 -0.4265
  218SOL     OW  869   1.817   3.775   1.009  0.1350 -0.1070 -0.0673
  218SOL    HW2  870   1.800   3.799   0.918 -0.8859  0.2993  0.2222
  218SOL    HW3  871   1.735   3.737   1.040  0.0869  0.8762  1.0428
  218SOL    MW4  872   1.804   3.773   1.001 -0.0060  0.0763  0.1173
  219SOL     OW  873   2.207   2.271   0.647  0.6246  0.0379 -0.1579
  219SOL    HW2  874   2.127   2.236   0.606  0.9398  0.0631 -0.8055
  219SOL    HW3  875   2.278   2.223   0.604  1.1670  2.5497 -2.2185
  219SOL    MW4  876   2.206   2.260   0.636  0.7377  0.3726 -0.5152
  220SOL     OW  877   4.151   2.958   0.721  0.0959 -0.2068 -0.3670
  220SOL    HW2  878   4.123   2.966   0.813  1.1428 -1.2065  0.0452
  220SOL    HW3  879   4.185   3.045   0.699 -0.4423  0.1275  0.0843
  220SOL    MW4  880   4.152   2.971   0.730  0.1630 -0.2946 -0.2531
  221SOL     OW  881   0.391   1.693   0.326 -0.2541  0.2556  0.4166
  221SOL    HW2  882   0.339   1.773   0.337 -0.3860  0.5083 -1.8075
  221SOL    HW3  883   0.329   1.622   0.341 -1.1040  0.5693 -1.4094
  221SOL    MW4  884   0.376   1.694   0.329 -0.3837  0.3303 -0.1178
  222SOL     OW  885   2.461   1.513   1.443 -0.1672 -0.3927  0.2172
  222SOL    HW2  886   2.543   1.541   1.402  1.0381 -2.7753  0.8783
  222SOL    HW3  887   2.451   1.421   1.415 -2.7640 -0.0490 -0.0819
  222SOL    MW4  888   2.470   1.504   1.434 -0.3508 -0.6617  0.2649
  223SOL     OW  889   1.098   4.167   0.538  0.3334  0.1230  0.4862
  223SOL    HW2  890   1.148   4.128   0.610  0.0595 -0.3874  0.4007
  223SOL    HW3  891   1.159   4.172   0.465 -0.3117 -2.5342 -0.3112
  223SOL    MW4  892   1.112   4.163   0.538  0.2121 -0.2949  0.3697
  224SOL     OW  893   3.186   2.696   1.531 -0.0956 -0.1718 -0.3773
  224SOL    HW2  894   3.254   2.750   1.490  0.3183 -0.0531  0.4431
  224SOL    HW3  895   3.171   2.626   1.468  0.5160  0.0159 -0.7471
  224SOL    MW4  896   3.193   2.694   1.517  0.0397 -0.1313 -0.3179
  225SOL     OW  897   2.236   1.124   1.483  0.6562  0.0437 -0.2354
  225SOL    HW2  898   2.244   1.030   1.465 -2.2353  0.1963 -2.8303
  225SOL    HW3  899   2.236   1.130   1.579  1.5604 -2.5062 -0.0306
  225SOL    MW4  900   2.237   1.112   1.493  0.3940 -0.2726 -0.5507
  226SOL     OW  901   2.398   1.004   0.736 -0.3948 -0.3992 -0.0322
  226SOL    HW2  902   2.352   1.079   0.698 -0.6663 -0.2368  0.6158
  226SOL    HW3  903   2.463   0.980   0.670  0.1269  0.8083  0.0334
  226SOL    MW4  904   2.401   1.010   0.722 -0.3618 -0.2185  0.0619
  227SOL     OW  905   0.456   4.545   0.907 -0.1465  0.8703 -0.1196
  227SOL    HW2  906   0.454   4.630   0.950  0.0547  1.3738 -1.0852
  227SOL    HW3  907   0.380   4.498   0.942  0.2434  1.1226  1.0534
  227SOL    MW4  908   0.445   4.550   0.917 -0.0685  0.9700 -0.0923
  228SOL     OW  909   0.663   0.726   1.440  0.2335 -0.0622 -0.4311
  228SOL    HW2  910   0.736   0.773   1.400  1.5131 -0.9522  0.8442
  228SOL    HW3  911   0.678   0.734   1.535 -0.3929 -1.6888 -0.1776
  228SOL    MW4  912   0.674   0.734   1.448  0.3197 -0.3942 -0.2294
  229SOL     OW  913   1.831   2.478   1.109  0.5321  0.0614  0.3601
  229SOL    HW2  914   1.754   2.524   1.075  0.2357 -0.2056  0.6560
  229SOL    HW3  915   1.807   2.457   1.199  1.1689  0.4604  0.6304
  229SOL    MW4  916   1.817   2.482   1.117  0.5770  0.0789  0.4348
  230SOL     OW  917   1.890   3.256   0.759 -0.0928  0.2876 -0.1969
  230SOL    HW2  918   1.933   3.303   0.830  0.1626  0.4348 -0.4447
  230SOL    HW3  919   1.909   3.163   0.776  0.7289  0.3826 -0.5643
  230SOL    MW4  920   1.898   3.250   0.770  0.0493  0.3196 -0.2780
  231SOL     OW  921   2.856   1.651   4.500 -0.0610 -0.3718 -0.1007
  231SOL    HW2  922   2.889   1.611   4.420  0.7670 -0.5304  0.3057
  231SOL    HW3  923   2.935   1.668   4.552 -0.4326  1.3840 -0.0891
  231SOL    MW4  924   2.871   1.648   4.496 -0.0008 -0.1610 -0.0456
  232SOL     OW  925   1.613   2.669   0.760  0.2053  0.5872 -0.0584
  232SOL    HW2  926   1.657   2.589   0.731 -0.3264 -0.0206  0.7765
  232SOL    HW3  927   1.530   2.669   0.712  0.1465  0.5604  0.0422
  232SOL    MW4  928   1.608   2.658   0.750  0.1274  0.5035  0.0650
  233SOL     OW  929   4.456   2.988   0.064 -0.3643  0.4031  0.5733
  233SOL    HW2  930   4.496   3.074   0.055  0.1653  0.2411  1.3158
  233SOL    HW3  931   4.380   3.003   0.121  0.3481  0.1969  1.5884
  233SOL    MW4  932   4.451   3.001   0.070 -0.2004  0.3545  0.8052
  234SOL     OW  933   4.361   2.779   0.697 -0.2791 -0.3112 -0.0859
  234SOL    HW2  934   4.301   2.847   0.726 -0.9426 -0.5041 -0.9782
  234SOL    HW3  935   4.318   2.697   0.719  0.9599 -0.4592  1.8793
  234SOL    MW4  936   4.348   2.777   0.703 -0.2032 -0.3562  0.0557
  235SOL     OW  937   2.081   2.749   0.109 -0.1142  0.3396 -0.1635
  235SOL    HW2  938   2.175   2.761   0.122  0.0384 -0.5254 -0.4564
  235SOL    HW3  939   2.069   2.654   0.102 -0.8434  0.5113 -1.3651
  235SOL    MW4  940   2.091   2.738   0.110 -0.1903  0.2482 -0.3606
  236SOL     OW  941   0.213   1.496   0.407  0.0599  0.1836  0.1970
  236SOL    HW2  942   0.121   1.490   0.382  0.4340  1.1337 -1.4909
  236SOL    HW3  943   0.211   1.529   0.497 -1.2272  0.9652 -0.0989
  236SOL    MW4  944   0.201   1.500   0.416 -0.0606  0.4121 -0.0648
  237SOL     OW  945   3.812   1.569   1.486  0.1325 -0.4174 -0.0151
  237SOL    HW2  946   3.817   1.548   1.579 -1.3773 -1.7207 -0.2048
  237SOL    HW3  947   3.827   1.486   1.442 -3.2667 -0.6596 -0.8287
  237SOL    MW4  948   3.815   1.556   1.493 -0.5152 -0.6213 -0.1475
  238SOL     OW  949   1.154   1.275   1.851 -0.7389 -0.1693  0.1506
  238SOL    HW2  950   1.157   1.361   1.811 -0.5303 -0.4944 -0.5439
  238SOL    HW3  951   1.073   1.236   1.818 -1.2470  0.0678  1.1073
  238SOL    MW4  952   1.144   1.281   1.841 -0.7785 -0.1809  0.1852
  239SOL     OW  953   3.836   2.872   1.123 -0.3535 -0.5497 -0.0428
  239SOL    HW2  954   3.831   2.871   1.219  0.4140  2.3310  0.0891
  239SOL    HW3  955   3.754   2.913   1.096 -0.5180 -1.2555 -0.6146
  239SOL    MW4  956   3.824   2.878   1.132 -0.2739 -0.2628 -0.1008
  240SOL     OW  957   1.051   4.306   1.101  0.1782 -0.7674  0.5859
  240SOL    HW2  958   1.066   4.234   1.040 -0.8716 -0.1848 -0.3629
  240SOL    HW3  959   1.101   4.379   1.065  0.1578 -0.6345  0.8225
  240SOL    MW4  960   1.060   4.306   1.089  0.0370 -0.6730  0.4919
  241SOL     OW  961   3.360   3.864   1.521  0.0225 -0.2340 -0.0854
  241SOL    HW2  962   3.380   3.780   1.480 -0.3167 -0.4663  0.2303
  241SOL    HW3  963   3.441   3.914   1.512 -0.3229  0.0623 -1.8903
  241SOL    MW4  964   3.373   3.859   1.514 -0.0678 -0.2255 -0.2819
  242SOL     OW  965   0.471   2.194   1.034  0.3141 -0.3294 -0.1942
  242SOL    HW2  966   0.404   2.130   1.057  0.1628  0.1292  0.6833
  242SOL    HW3  967   0.554   2.149   1.053  0.1914  0.0954  1.4954
  242SOL    MW4  968   0.473   2.180   1.040  0.2779 -0.2129  0.1445
  243SOL     OW  969   2.060   3.073   1.455  0.3298 -0.2557  0.3147
  243SOL    HW2  970   2.037   3.076   1.548 -1.0586 -0.4007 -0.0058
  243SOL    HW3  971   2.132   3.135   1.447  0.8069 -0.6235  1.5754
  243SOL    MW4  972   2.066   3.082   1.466  0.2096 -0.3234  0.4387
  244SOL     OW  973   0.898   2.411   0.227 -0.1557 -0.0295  0.0373
  244SOL    HW2  974   0.877   2.370   0.143  1.0444 -1.3335  0.3531
  244SOL    HW3  975   0.959   2.351   0.268  0.2381  1.2198  1.3138
  244SOL    MW4  976   0.903   2.398   0.221  0.0546 -0.0367  0.2474
  245SOL     OW  977   4.015   2.476   1.083 -0.3331 -0.1548 -0.0215
  245SOL    HW2  978   4.036   2.394   1.039 -0.7475  0.1881 -0.8948
  245SOL    HW3  979   4.027   2.458   1.176 -1.6596 -1.5805 -0.1081
  245SOL    MW4  980   4.019   2.463   1.089 -0.5628 -0.2977 -0.1481
  246SOL     OW  981   0.352   3.094   9.977  0.1444  0.2966 -0.2801
  246SOL    HW2  982   0.305   3.037  10.038  1.2155  0.2578  0.5188
  246SOL    HW3  983   0.336   3.056   9.891 -0.7741 -0.0681  0.0427
  246SOL    MW4  984   0.344   3.082   9.973  0.1645  0.2434 -0.1321
  247SOL     OW  985   4.216   0.055   1.458  0.1709 -0.1821  0.5769
  247SOL    HW2  986   4.241   0.028   1.547  0.1054 -2.5261 -0.0654
  247SOL    HW3  987   4.299   0.078   1.417  0.6178 -2.1892  0.2917
  247SOL    MW4  988   4.230   0.054   1.465  0.2212 -0.7562  0.4545
  248SOL     OW  989   1.574   3.089   1.519 -0.0415  0.2301  0.3356
  248SOL    HW2  990   1.651   3.142   1.498 -0.9284  1.8480  1.1022
  248SOL    HW3  991   1.500   3.146   1.500 -1.0371 -0.9099  0.7445
  248SOL    MW4  992   1.575   3.103   1.514 -0.2899  0.2931  0.4907
  249SOL     OW  993   4.029   1.418   0.933 -0.5391  0.0458  0.3623
  249SOL    HW2  994   4.038   1.407   0.839 -2.4750  0.1090  0.1435
  249SOL    HW3  995   4.097   1.362   0.971  0.1815 -0.0512 -1.0674
  249SOL    MW4  996   4.039   1.409   0.926 -0.6994  0.0413  0.1448
  250SOL     OW  997   4.033   1.921   1.472 -0.0148 -0.0866 -0.0452
  250SOL    HW2  998   4.106   1.966   1.429  1.2451  0.4752  2.5710
  250SOL    HW3  999   4.037   1.832   1.437  2.2036 -0.1686  0.3380
  250SOL    MW4 1000   4.043   1.915   1.462  0.4441 -0.0233  0.3506
  251SOL     OW 1001   2.873   1.738   0.612  0.0722 -0.1289 -0.0858
  251SOL    HW2 1002   2.855   1.645   0.630 -0.6347 -0.2591 -1.4349
  251SOL    HW3 1003   2.834   1.784   0.687 -3.7566 -0.6078 -1.6879
  251SOL    MW4 1004   2.865   1.732   0.625 -0.5262 -0.2093 -0.4752
  252SOL     OW 1005   1.169   3.078   1.486  0.0943 -0.1049 -0.3231
  252SOL    HW2 1006   1.152   2.996   1.440 -0.8668 -0.6735  1.0138
  252SOL    HW3 1007   1.142   3.062   1.576  0.8117  1.3741  0.1887
  252SOL    MW4 1008   1.163   3.065   1.491  0.0622  0.0152 -0.0792
  253SOL     OW 1009   3.708   3.688   0.326 -0.1166  0.7687 -0.3414
  253SOL    HW2 1010   3.797   3.655   0.339 -1.1518 -1.7601  0.6225
  253SOL    HW3 1011   3.677   3.707   0.415 -1.2010 -0.1820 -0.5093
  253SOL    MW4 1012   3.715   3.686   0.340 -0.3963  0.3096 -0.2364
  254SOL     OW 1013   3.601   0.448   0.602  0.2024 -0.3366 -0.6635
  254SOL    HW2 1014   3.676   0.393   0.626  0.7982 -0.0259 -1.7628
  254SOL    HW3 1015   3.628   0.536   0.628 -0.4444 -0.4487  0.4093
  254SOL    MW4 1016   3.615   0.452   0.608  0.1957 -0.3104 -0.6670
  255SOL     OW 1017   2.265   1.949   0.317  0.6078 -0.0636 -0.0756
  255SOL    HW2 1018   2.326   1.999   0.372  1.0418 -1.4432  0.7119
  255SOL    HW3 1019   2.293   1.858   0.326 -0.4726 -0.5128 -1.1191
  255SOL    MW4 1020   2.277   1.944   0.326  0.5225 -0.3048 -0.1094
  256SOL     OW 1021   2.997   4.541   0.476 -0.4104  0.6882 -0.2852
  256SOL    HW2 1022   3.065   4.604   0.451 -0.7596  1.1751 -0.0346
  256SOL    HW3 1023   3.037   4.488   0.544 -0.7920  2.0113  1.0112
  256SOL    MW4 1024   3.011   4.543   0.482 -0.5068  0.9270 -0.0811
  257SOL     OW 1025   2.928   4.031   0.982 -0.4353 -0.1716 -0.5462
  257SOL    HW2 1026   2.930   3.996   0.892 -2.3460  0.2017 -0.7516
  257SOL    HW3 1027   2.845   3.999   1.018  0.2149 -0.1196  1.0185
  257SOL    MW4 1028   2.917   4.022   0.975 -0.6016 -0.1155 -0.3668
  258SOL     OW 1029   0.297   4.131   0.948 -0.5047  0.2655  0.1322
  258SOL    HW2 1030   0.268   4.219   0.972 -1.0018 -0.1427  1.0355
  258SOL    HW3 1031   0.217   4.086   0.921 -0.2553  0.0618 -0.2768
  258SOL    MW4 1032   0.283   4.137   0.947 -0.5374  0.1847  0.1974
  259SOL     OW 1033   1.505   4.610   0.307  0.6517 -0.3707 -0.3615
  259SOL    HW2 1034   1.412   4.620   0.288  0.8343 -0.7516 -1.5004
  259SOL    HW3 1035   1.514   4.520   0.339  0.7406 -0.6029 -1.0224
  259SOL    MW4 1036   1.494   4.599   0.308  0.6876 -0.4516 -0.5989
  260SOL     OW 1037   3.580   0.883   0.571  0.0807  0.2289 -0.1797
  260SOL    HW2 1038   3.490   0.907   0.594  0.2408  0.3605  0.3237
  260SOL    HW3 1039   3.572   0.841   0.485 -0.4672  0.1855 -0.1140
  260SOL    MW4 1040   3.567   0.881   0.563  0.0295  0.2405 -0.1046
  261SOL     OW 1041   3.588   3.463   1.531 -0.1415 -0.1914  0.2480
  261SOL    HW2 1042   3.602   3.381   1.483 -0.5746 -0.5611  0.7522
  261SOL    HW3 1043   3.654   3.523   1.495 -0.3208 -0.5282 -0.6549
  261SOL    MW4 1044   3.599   3.460   1.520 -0.2223 -0.2846  0.1954
  262SOL     OW 1045   4.127   0.096   0.318 -0.1031  0.2782  0.1997
  262SOL    HW2 1046   4.144   0.003   0.306 -2.8379 -0.0622 -1.5194
  262SOL    HW3 1047   4.204   0.140   0.282  0.7879 -1.2727  0.1736
  262SOL    MW4 1048   4.139   0.090   0.312 -0.3464  0.0287 -0.0306
  263SOL     OW 1049   0.044   3.006   1.022  0.6100 -0.0310  0.2244
  263SOL    HW2 1050   0.038   3.088   1.071  0.8075 -0.3407  0.7693
  263SOL    HW3 1051  -0.031   2.955   1.052  1.3676 -0.6734  1.0476
  263SOL    MW4 1052   0.033   3.010   1.033  0.7360 -0.1566  0.4049
  264SOL     OW 1053   3.553   1.892   0.671  0.0257 -0.0406 -0.0456
  264SOL    HW2 1054   3.472   1.841   0.679  0.2267 -0.6075 -1.5259
  264SOL    HW3 1055   3.622   1.831   0.697  0.0806  0.1419  0.2451
  264SOL    MW4 1056   3.552   1.877   0.676  0.0595 -0.0913 -0.2026
  265SOL     OW 1057   0.466   1.700   1.068  0.2549  0.2284  0.1716
  265SOL    HW2 1058   0.474   1.708   1.163  1.9390 -1.4065  0.1961
  265SOL    HW3 1059   0.545   1.743   1.034 -0.5567  1.1876 -0.5037
  265SOL    MW4 1060   0.478   1.707   1.076  0.3700  0.1392  0.0858
  266SOL     OW 1061   3.209   4.276   1.720  0.0441 -0.1650 -0.3391
  266SOL    HW2 1062   3.214   4.265   1.625  0.7371  0.5367 -0.3848
  266SOL    HW3 1063   3.201   4.187   1.754 -0.0719 -0.4272 -1.0443
  266SOL    MW4 1064   3.209   4.263   1.712  0.1202 -0.1070 -0.4382
  267SOL     OW 1065   2.765   2.080   0.291  0.4534 -0.0762  0.1965
  267SOL    HW2 1066   2.853   2.086   0.329 -0.5096  0.4722  2.4682
  267SOL    HW3 1067   2.742   1.987   0.299  0.7248 -0.1804 -0.1972
  267SOL    MW4 1068   2.774   2.068   0.297  0.3621 -0.0176  0.4442
  268SOL     OW 1069   4.031   4.048   1.385  0.4764  0.2803  0.5084
  268SOL    HW2 1070   4.112   4.006   1.415  0.9981  0.3928 -0.7431
  268SOL    HW3 1071   4.033   4.040   1.290 -0.5470  1.0968  0.4097
  268SOL    MW4 1072   4.042   4.041   1.377  0.4102  0.4029  0.3303
  269SOL     OW 1073   0.142   2.991   0.540  0.6800  0.6249 -0.3954
  269SOL    HW2 1074   0.201   2.918   0.558  0.9733  1.1925  0.9804
  269SOL    HW3 1075   0.186   3.042   0.472  1.1396  0.3043 -0.3387
  269SOL    MW4 1076   0.156   2.988   0.534  0.7794  0.6575 -0.2064
  270SOL     OW 1077   2.440   1.002   1.005 -0.3130  0.4844 -0.1707
  270SOL    HW2 1078   2.422   1.001   0.911 -0.1631  0.5158 -0.2002
  270SOL    HW3 1079   2.443   1.096   1.028 -1.7575  0.4665  0.1388
  270SOL    MW4 1080   2.438   1.015   0.996 -0.4838  0.4862 -0.1338
  271SOL     OW 1081   0.031   3.115   0.766  0.1445 -0.0707 -0.4917
  271SOL    HW2 1082   0.063   3.051   0.701 -1.3854 -1.3408 -0.0195
  271SOL    HW3 1083   0.052   3.076   0.850 -1.3139 -0.2489 -0.1921
  271SOL    MW4 1084   0.038   3.101   0.768 -0.2498 -0.2618 -0.3899
  272SOL     OW 1085   2.699   1.665   1.093  0.4577  0.5386  0.1551
  272SOL    HW2 1086   2.693   1.579   1.052  0.7012  0.9749 -0.7962
  272SOL    HW3 1087   2.618   1.709   1.068  0.3553  0.6077  0.6001
  272SOL    MW4 1088   2.687   1.659   1.084  0.4763  0.6053  0.0883
  273SOL     OW 1089   3.800   0.266   0.963  0.8271  0.0638 -0.5547
  273SOL    HW2 1090   3.891   0.244   0.980  1.0435  1.0100 -0.5045
  273SOL    HW3 1091   3.795   0.278   0.869  0.5149 -1.0311 -0.6959
  273SOL    MW4 1092   3.811   0.264   0.953  0.8145  0.0442 -0.5667
  274SOL     OW 1093   0.378   3.201   1.116  0.2467 -0.1007 -0.3345
  274SOL    HW2 1094   0.394   3.203   1.210  1.9520 -0.0364 -0.6081
  274SOL    HW3 1095   0.316   3.273   1.101  0.2211  0.1002  0.6805
  274SOL    MW4 1096   0.372   3.211   1.126  0.4683 -0.0657 -0.2367
  275SOL     OW 1097   0.917   0.915   1.128  0.1799  0.2987  0.0643
  275SOL    HW2 1098   0.836   0.958   1.100  0.9152  3.5544  2.6088
  275SOL    HW3 1099   0.985   0.951   1.071  0.6184  1.6848  1.4315
  275SOL    MW4 1100   0.915   0.925   1.117  0.3348  0.9111  0.5804
  276SOL     OW 1101   0.517   3.237   0.355  0.1632 -0.1597  0.0214
  276SOL    HW2 1102   0.548   3.307   0.412 -3.9506  1.3690  0.5883
  276SOL    HW3 1103   0.526   3.272   0.266 -1.2317  0.8656  0.2656
  276SOL    MW4 1104   0.522   3.251   0.351 -0.5636  0.1773  0.1284
  277SOL     OW 1105   4.130   4.545   0.731 -0.2063  0.2206  0.4477
  277SOL    HW2 1106   4.105   4.553   0.823 -0.1097 -2.2809  0.7192
  277SOL    HW3 1107   4.049   4.565   0.683 -0.3416  1.2041  1.0603
  277SOL    MW4 1108   4.116   4.549   0.737 -0.2114  0.0204  0.5643
  278SOL     OW 1109   2.189   2.172   0.929 -0.3780  0.0362  0.3319
  278SOL    HW2 1110   2.224   2.254   0.964 -1.0821  0.0716  0.9671
  278SOL    HW3 1111   2.188   2.184   0.834  2.8625 -0.5720  0.1789
  278SOL    MW4 1112   2.193   2.184   0.921 -0.0433 -0.0393  0.3955
  279SOL     OW 1113   2.442   3.166   0.713  0.1114 -0.4649 -0.0069
  279SOL    HW2 1114   2.430   3.228   0.785 -1.4972 -1.2156  0.3703
  279SOL    HW3 1115   2.522   3.118   0.736  0.6234  0.5330  0.3529
  279SOL    MW4 1116   2.451   3.168   0.725 -0.0333 -0.4323  0.0904
  280SOL     OW 1117   3.587   1.493   0.756 -0.4906 -0.4887  0.2356
  280SOL    HW2 1118   3.636   1.436   0.697 -0.9262 -1.2075  0.5636
  280SOL    HW3 1119   3.518   1.530   0.702  0.2797  0.3621 -0.1775
  280SOL    MW4 1120   3.584   1.490   0.741 -0.4464 -0.4713  0.2244
  281SOL     OW 1121   1.852   3.482   1.507  0.9506  0.3700  0.0899
  281SOL    HW2 1122   1.866   3.396   1.469 -2.1700 -0.1188 -0.0966
  281SOL    HW3 1123   1.861   3.469   1.601  0.5449 -0.1652  0.0584
  281SOL    MW4 1124   1.855   3.469   1.514  0.4854  0.2349  0.0612
  282SOL     OW 1125   1.222   0.039   0.578  0.5638 -0.4015  0.6015
  282SOL    HW2 1126   1.240  -0.029   0.643 -0.9405 -1.7502 -0.3594
  282SOL    HW3 1127   1.158   0.096   0.620 -0.4031 -1.2689  0.3420
  282SOL    MW4 1128   1.216   0.037   0.592  0.2378 -0.6939  0.4405
  283SOL     OW 1129   1.533   4.433   1.115 -0.3388 -0.1843 -0.1219
  283SOL    HW2 1130   1.548   4.401   1.204 -2.0468 -1.0372 -0.1079
  283SOL    HW3 1131   1.542   4.356   1.060 -0.5031  0.0922 -0.5369
  283SOL    MW4 1132   1.536   4.419   1.120 -0.5858 -0.2603 -0.1748
  284SOL     OW 1133   1.755   4.615   0.758  0.3480 -0.7783 -0.2516
  284SOL    HW2 1134   1.780   4.591   0.847  0.8348 -0.9104 -0.4218
  284SOL    HW3 1135   1.703   4.540   0.726 -0.3213 -0.4774  0.1241
  284SOL    MW4 1136   1.751   4.602   0.765  0.3239 -0.7560 -0.2245
  285SOL     OW 1137   2.865   0.736   0.638 -0.1517 -0.2130 -0.4721
  285SOL    HW2 1138   2.910   0.811   0.679  0.1669 -1.3192  1.2419
  285SOL    HW3 1139   2.836   0.683   0.711 -0.8006 -1.5436 -1.6818
  285SOL    MW4 1140   2.867   0.739   0.653 -0.1953 -0.5345 -0.4055
  286SOL     OW 1141   3.372   3.038   0.368 -0.1521  0.1429  0.2759
  286SOL    HW2 1142   3.292   2.993   0.341 -0.1608  0.7039 -0.6389
  286SOL    HW3 1143   3.358   3.129   0.343  0.0609  0.5761  1.6943
  286SOL    MW4 1144   3.360   3.044   0.361 -0.1251  0.2741  0.3423
  287SOL     OW 1145   0.330   2.786   0.591  0.5213  0.2020  0.2579
  287SOL    HW2 1146   0.379   2.820   0.666  2.3178 -0.5395 -0.5543
  287SOL    HW3 1147   0.261   2.732   0.629 -0.8944  2.7679  1.4876
  287SOL    MW4 1148   0.327   2.784   0.606  0.5716  0.4427  0.3130
  288SOL     OW 1149   0.682   3.051   0.241 -0.0352 -0.2732  0.6732
  288SOL    HW2 1150   0.768   3.084   0.267  0.0854 -0.7476  0.8747
  288SOL    HW3 1151   0.620   3.100   0.296  0.0617  0.5041  0.1039
  288SOL    MW4 1152   0.685   3.062   0.252 -0.0065 -0.2333  0.6247
  289SOL     OW 1153   2.002   1.773   0.947 -0.5329 -0.1651 -0.6169
  289SOL    HW2 1154   1.994   1.859   0.989  1.1096 -0.3544  0.1109
  289SOL    HW3 1155   1.934   1.720   0.988 -1.2047  0.6173 -0.6866
  289SOL    MW4 1156   1.992   1.778   0.958 -0.4048 -0.0868 -0.5301
  290SOL     OW 1157   0.458   0.920   1.382  0.5364  0.4331 -0.5486
  290SOL    HW2 1158   0.527   0.854   1.395 -0.8623 -0.8123  0.7676
  290SOL    HW3 1159   0.441   0.918   1.288  0.6989 -0.9213 -0.5631
  290SOL    MW4 1160   0.465   0.911   1.371  0.3733  0.0901 -0.3769
  291SOL     OW 1161   0.485   0.363   1.470  0.3545  0.6001  0.0847
  291SOL    HW2 1162   0.404   0.405   1.442  0.3196  0.6302  0.2289
  291SOL    HW3 1163   0.552   0.398   1.412  0.2551  0.5330 -0.0706
  291SOL    MW4 1164   0.483   0.373   1.459  0.3368  0.5952  0.0832
  292SOL     OW 1165   0.659   4.632   1.503 -0.0572 -0.0695  0.5663
  292SOL    HW2 1166   0.736   4.667   1.457 -0.5898 -0.1714 -0.4284
  292SOL    HW3 1167   0.645   4.546   1.464 -1.1380  0.2719  0.1805
  292SOL    MW4 1168   0.667   4.625   1.492 -0.2701 -0.0379  0.3841
  293SOL     OW 1169   0.364   4.069   0.664 -0.1716 -0.8184 -0.1581
  293SOL    HW2 1170   0.372   4.095   0.756  1.2929  0.2216 -0.5724
  293SOL    HW3 1171   0.377   4.150   0.615 -1.1291 -1.3444 -1.2816
  293SOL    MW4 1172   0.367   4.083   0.670 -0.1047 -0.7506 -0.3610
  294SOL     OW 1173   1.028   1.960   0.373  0.3299  0.4033  0.1929
  294SOL    HW2 1174   1.101   1.905   0.342 -0.3348 -0.7063  0.5611
  294SOL    HW3 1175   0.959   1.947   0.308 -0.0393  0.3540  0.5971
  294SOL    MW4 1176   1.029   1.951   0.360  0.1935  0.2504  0.2948
  295SOL     OW 1177   1.543   4.359   0.464 -0.0941 -0.0326 -0.3170
  295SOL    HW2 1178   1.544   4.402   0.549  1.6509  1.2096 -0.9366
  295SOL    HW3 1179   1.613   4.294   0.470 -0.6747 -0.6725 -0.4450
  295SOL    MW4 1180   1.553   4.356   0.476  0.0596  0.0469 -0.4156
  296SOL     OW 1181   2.243   1.189   0.579 -0.2203 -0.3015  0.0255
  296SOL    HW2 1182   2.268   1.274   0.616  0.2401 -0.5766  0.3589
  296SOL    HW3 1183   2.155   1.173   0.613 -0.2495 -0.0245  0.0831
  296SOL    MW4 1184   2.235   1.198   0.588 -0.1634 -0.3013  0.0771
  297SOL     OW 1185   3.825   2.533   0.734 -0.6497 -0.4668  0.0375
  297SOL    HW2 1186   3.816   2.442   0.708 -0.4833 -0.7608  1.0237
  297SOL    HW3 1187   3.800   2.535   0.826  1.3247  0.1331  0.5725
  297SOL    MW4 1188   3.820   2.522   0.743 -0.3673 -0.4265  0.2382
  298SOL     OW 1189   4.017   0.366   1.485 -0.5651  0.2409  0.2609
  298SOL    HW2 1190   3.932   0.408   1.466 -1.8055 -0.9354  3.0038
  298SOL    HW3 1191   4.011   0.280   1.443 -1.0691 -0.1665  1.1617
  298SOL    MW4 1192   4.005   0.361   1.477 -0.7953  0.0320  0.7417
  299SOL     OW 1193   1.570   0.777   1.511  0.1750 -0.0104 -0.1316
  299SOL    HW2 1194   1.653   0.814   1.484  0.6317  0.5514  1.8972
  299SOL    HW3 1195   1.569   0.689   1.474  1.8154 -0.1311  0.0621
  299SOL    MW4 1196   1.581   0.770   1.503  0.4517  0.0478  0.1616
  300SOL     OW 1197   1.870   4.136   0.724  0.0437  0.2396 -0.1171
  300SOL    HW2 1198   1.918   4.151   0.805 -0.5234 -0.9876  0.4575
  300SOL    HW3 1199   1.936   4.147   0.655  1.4218 -2.3529  0.6983
  300SOL    MW4 1200   1.885   4.140   0.725  0.1507 -0.2644  0.0663
  301SOL     OW 1201   1.081   1.811   1.033 -0.3501 -0.1838  0.2681
  301SOL    HW2 1202   1.081   1.820   0.938 -0.4664 -0.5083  0.2371
  301SOL    HW3 1203   1.000   1.764   1.053  0.2947 -1.2527  0.4096
  301SOL    MW4 1204   1.071   1.806   1.023 -0.2804 -0.3676  0.2827
  302SOL     OW 1205   3.552   1.666   0.267  0.4747 -0.1484 -0.3499
  302SOL    HW2 1206   3.462   1.636   0.255 -0.0795  2.1108 -2.3463
  302SOL    HW3 1207   3.544   1.748   0.316  1.4299  0.0302 -0.4747
  302SOL    MW4 1208   3.539   1.673   0.272  0.5276  0.1732 -0.6297
  303SOL     OW 1209   1.784   4.287   1.496  0.4464  0.2835  0.4229
  303SOL    HW2 1210   1.694   4.304   1.470  0.0572 -1.6750  0.4395
  303SOL    HW3 1211   1.799   4.195   1.475  3.0891  1.0667 -1.4026
  303SOL    MW4 1212   1.774   4.277   1.490  0.7437  0.1284  0.1842
  304SOL     OW 1213   0.398   4.308   0.538  0.4854 -0.4740  0.0178
  304SOL    HW2 1214   0.360   4.316   0.451 -0.9759 -1.0085  0.5952
  304SOL    HW3 1215   0.396   4.397   0.573  2.1016 -0.0555 -0.8989
  304SOL    MW4 1216   0.393   4.321   0.531  0.5058 -0.4893 -0.0270
  305SOL     OW 1217   1.911   0.421   1.104  0.0291  0.2799  0.2207
  305SOL    HW2 1218   1.993   0.397   1.060 -0.2439 -0.3029  0.0313
  305SOL    HW3 1219   1.937   0.438   1.195  0.1769 -1.0166  0.4265
  305SOL    MW4 1220   1.926   0.420   1.110  0.0125  0.0319  0.2229
  306SOL     OW 1221   2.741   1.492   0.688 -0.4630 -0.1931  0.2513
  306SOL    HW2 1222   2.787   1.415   0.654 -0.9370 -0.6013  0.5243
  306SOL    HW3 1223   2.736   1.477   0.783  0.3650  0.6762  0.4395
  306SOL    MW4 1224   2.746   1.480   0.696 -0.4163 -0.1323  0.3121
  307SOL     OW 1225   3.836   3.394   0.735  0.4189 -0.1365  0.2620
  307SOL    HW2 1226   3.860   3.303   0.717 -0.3956 -0.4898  0.8723
  307SOL    HW3 1227   3.760   3.410   0.679  1.1313  0.4731 -0.5322
  307SOL    MW4 1228   3.829   3.384   0.725  0.4055 -0.1027  0.2377
  308SOL     OW 1229   2.717   3.994   1.822  0.4882 -0.4472  0.4090
  308SOL    HW2 1230   2.657   3.945   1.766 -0.5149  0.4782  0.6620
  308SOL    HW3 1231   2.801   3.951   1.810 -0.2587 -1.8569  0.1721
  308SOL    MW4 1232   2.720   3.982   1.813  0.2573 -0.5111  0.4111
  309SOL     OW 1233   0.684   2.858   1.448  0.2837  0.6102 -0.0998
  309SOL    HW2 1234   0.668   2.948   1.476 -0.3959  0.4544  0.0230
  309SOL    HW3 1235   0.606   2.810   1.476  1.2936 -0.3168  1.1287
  309SOL    MW4 1236   0.672   2.863   1.455  0.3273  0.4673  0.0785
  310SOL     OW 1237   1.940   1.154   0.376  0.6326 -0.0321  0.1477
  310SOL    HW2 1238   1.863   1.102   0.355 -0.3003  1.3706  0.0468
  310SOL    HW3 1239   2.008   1.089   0.394 -0.9014 -1.3169  1.5401
  310SOL    MW4 1240   1.939   1.138   0.376  0.3071 -0.0165  0.3181
  311SOL     OW 1241   0.727   0.811   0.641  0.7120 -0.5235  0.2446
  311SOL    HW2 1242   0.747   0.821   0.548 -1.3137  1.1168 -0.0643
  311SOL    HW3 1243   0.650   0.753   0.643  0.9490 -0.8145  0.9085
  311SOL    MW4 1244   0.719   0.805   0.629  0.4760 -0.3455  0.2914
  312SOL     OW 1245   3.132   1.405   0.945  0.0158 -0.6804  0.3579
  312SOL    HW2 1246   3.167   1.383   0.858  0.5735  1.5790 -0.0054
  312SOL    HW3 1247   3.202   1.379   1.006  0.8759  0.5396 -0.1014
  312SOL    MW4 1248   3.146   1.399   0.942  0.2028 -0.2214  0.2494
  313SOL     OW 1249   1.773   2.668   1.503 -0.2201 -0.3159 -0.5219
  313SOL    HW2 1250   1.708   2.729   1.469  0.1402  0.6763  0.5376
  313SOL    HW3 1251   1.857   2.712   1.490 -0.0533 -0.0305  1.3926
  313SOL    MW4 1252   1.775   2.682   1.496 -0.1506 -0.1473 -0.1296
  314SOL     OW 1253   0.279   2.431   0.089 -0.1275  0.4484  0.1007
  314SOL    HW2 1254   0.277   2.518   0.128  0.6820  0.3744  0.3293
  314SOL    HW3 1255   0.209   2.383   0.133  2.3516 -0.3990  3.3791
  314SOL    MW4 1256   0.270   2.436   0.100  0.3064  0.3268  0.5634
  315SOL     OW 1257   0.221   2.846   1.172  0.0735  0.5166 -0.3581
  315SOL    HW2 1258   0.211   2.768   1.117 -3.3649  0.2903  0.5173
  315SOL    HW3 1259   0.167   2.913   1.130  1.0825  1.7330  0.2373
  315SOL    MW4 1260   0.213   2.845   1.159 -0.2470  0.6472 -0.1641
  316SOL     OW 1261   2.328   1.731   0.714 -0.1615  0.3851  0.2943
  316SOL    HW2 1262   2.352   1.639   0.706 -1.0629  0.0509  1.3603
  316SOL    HW3 1263   2.233   1.733   0.702 -0.2644  1.0647  1.1785
  316SOL    MW4 1264   2.319   1.719   0.711 -0.2940  0.4306  0.5516
  317SOL     OW 1265   3.237   2.877   0.759  0.0459  0.0397 -0.0888
  317SOL    HW2 1266   3.276   2.789   0.760 -0.6916 -0.3177 -1.7077
  317SOL    HW3 1267   3.299   2.929   0.708  0.3449  0.4117  0.6415
  317SOL    MW4 1268   3.251   2.872   0.752 -0.0120  0.0416 -0.2060
  318SOL     OW 1269   4.458   4.418   0.393 -0.0657  0.2548  0.6317
  318SOL    HW2 1270   4.430   4.355   0.327  0.6823  1.2680 -0.6844
  318SOL    HW3 1271   4.472   4.366   0.472  2.7530 -1.6213 -1.0123
  318SOL    MW4 1272   4.456   4.403   0.395  0.4049  0.1409  0.2411
  319SOL     OW 1273   3.327   1.286   1.099 -0.4054 -0.2582 -0.0651
  319SOL    HW2 1274   3.337   1.210   1.041  0.9986  0.1486 -0.3713
  319SOL    HW3 1275   3.393   1.348   1.068 -1.6509  1.1618  0.0768
  319SOL    MW4 1276   3.337   1.284   1.087 -0.3845 -0.0172 -0.0868
  320SOL     OW 1277   4.049   1.656   1.372 -0.0985 -0.0180  0.4301
  320SOL    HW2 1278   4.040   1.661   1.277 -0.9604  0.9175  0.5404
  320SOL    HW3 1279   3.962   1.630   1.402  0.5941 -1.9084  0.8757
  320SOL    MW4 1280   4.036   1.653   1.363 -0.1208 -0.1440  0.5035
  321SOL     OW 1281   2.728   0.349   1.485  0.1140 -0.3572  0.2126
  321SOL    HW2 1282   2.716   0.337   1.580  0.9908  0.4535  0.4378
  321SOL    HW3 1283   2.703   0.265   1.447  1.6291 -1.3552  1.3216
  321SOL    MW4 1284   2.723   0.337   1.493  0.4296 -0.3819  0.3886
  322SOL     OW 1285   2.911   1.295   1.361  0.4245 -0.2781 -0.0189
  322SOL    HW2 1286   2.909   1.296   1.266  1.7968  1.1440 -0.0447
  322SOL    HW3 1287   2.921   1.387   1.387  1.0401 -0.7348  1.4564
  322SOL    MW4 1288   2.912   1.307   1.352  0.6868 -0.1507  0.1723
  323SOL     OW 1289   2.939   2.800   1.117 -0.0950  0.8056 -0.4383
  323SOL    HW2 1290   3.008   2.849   1.073  0.0910  0.0468 -0.9969
  323SOL    HW3 1291   2.962   2.805   1.210  0.2893  1.2056 -0.5532
  323SOL    MW4 1292   2.951   2.807   1.123 -0.0198  0.7583 -0.5272
  324SOL     OW 1293   2.001   0.723   1.446 -0.5535 -0.1469 -0.3922
  324SOL    HW2 1294   2.074   0.770   1.407 -0.0799 -1.2033 -0.7899
  324SOL    HW3 1295   1.928   0.786   1.445  0.5992  1.2566  0.9334
  324SOL    MW4 1296   2.001   0.738   1.441 -0.3389 -0.1011 -0.2698
  325SOL     OW 1297   3.827   4.411   1.083  0.3342  0.1642 -0.1530
  325SOL    HW2 1298   3.803   4.319   1.072  0.8001  0.1330 -0.8914
  325SOL    HW3 1299   3.756   4.459   1.041  0.4580  0.1257 -0.4064
  325SOL    MW4 1300   3.815   4.405   1.076  0.4120  0.1550 -0.2839
  326SOL     OW 1301   2.681   3.957   1.087 -0.2097 -0.2463 -0.0452
  326SOL    HW2 1302   2.671   3.875   1.039 -0.2795  0.1626 -0.7454
  326SOL    HW3 1303   2.615   4.015   1.048 -0.1146  0.1613  0.4000
  326SOL    MW4 1304   2.671   3.954   1.075 -0.2063 -0.1386 -0.0789
  327SOL     OW 1305   2.674   0.890   1.385  0.0248 -0.2441 -0.5057
  327SOL    HW2 1306   2.678   0.870   1.292 -2.0294 -0.1841 -0.6330
  327SOL    HW3 1307   2.675   0.985   1.390 -1.3011 -0.2287 -0.5492
  327SOL    MW4 1308   2.675   0.900   1.374 -0.4212 -0.2341 -0.5282
  328SOL     OW 1309   0.469   2.942   1.070  0.1973 -0.1774 -0.0866
  328SOL    HW2 1310   0.428   3.027   1.059 -0.8944 -0.7427 -0.4062
  328SOL    HW3 1311   0.402   2.887   1.110  1.1288 -0.6961  0.8033
  328SOL    MW4 1312   0.455   2.946   1.074  0.1761 -0.3204 -0.0114
  329SOL     OW 1313   4.073   4.003   1.876  0.1608  0.1414  1.0323
  329SOL    HW2 1314   4.007   3.952   1.830 -0.0902 -1.1303  2.7273
  329SOL    HW3 1315   4.056   4.094   1.851 -0.4368 -0.4480 -0.7390
  329SOL    MW4 1316   4.062   4.008   1.867  0.0488 -0.1041  1.0222
  330SOL     OW 1317   4.208   4.171   0.964  0.0016 -0.0021 -0.2609
  330SOL    HW2 1318   4.299   4.153   0.942  0.2135 -0.6902  1.1319
  330SOL    HW3 1319   4.168   4.201   0.881  1.1722 -0.8823 -1.1515
  330SOL    MW4 1320   4.214   4.173   0.950  0.1840 -0.2090 -0.1946
  331SOL     OW 1321   4.313   3.262   0.409 -0.0647 -0.4846  0.3664
  331SOL    HW2 1322   4.301   3.266   0.504 -0.0029 -0.7325  0.3848
  331SOL    HW3 1323   4.398   3.304   0.393  0.6714 -1.8585  0.5765
  331SOL    MW4 1324   4.323   3.268   0.419  0.0406 -0.6986  0.3965
  332SOL     OW 1325   3.992   1.678   0.345  0.0376  0.6140 -0.8158
  332SOL    HW2 1326   4.070   1.651   0.295 -1.0102 -1.5511 -1.3782
  332SOL    HW3 1327   3.963   1.758   0.302  0.8348  0.3697 -1.8411
  332SOL    MW4 1328   3.999   1.685   0.332  0.0045  0.2961 -1.0253
  333SOL     OW 1329   0.442   3.740   0.994  0.3763  1.0061 -0.2372
  333SOL    HW2 1330   0.520   3.703   1.033 -0.3196 -0.2205  0.0013
  333SOL    HW3 1331   0.459   3.737   0.899 -0.3617 -1.4831 -0.3054
  333SOL    MW4 1332   0.454   3.735   0.986  0.1871  0.5158 -0.2147
  334SOL     OW 1333   3.189   1.348   0.672  0.0352 -0.3981 -0.0361
  334SOL    HW2 1334   3.274   1.393   0.674  0.1573 -0.5886 -0.7940
  334SOL    HW3 1335   3.148   1.378   0.591 -1.0672  0.4831  0.8324
  334SOL    MW4 1336   3.195   1.358   0.662 -0.0942 -0.3069 -0.0215
  335SOL     OW 1337   2.333   4.082   0.713 -0.4598  0.5288  0.1678
  335SOL    HW2 1338   2.398   4.054   0.647  0.3249  0.5546  0.9227
  335SOL    HW3 1339   2.274   4.139   0.665 -0.9795 -0.9223 -0.9629
  335SOL    MW4 1340   2.334   4.086   0.698 -0.4248  0.3407  0.1183
  336SOL     OW 1341   0.924   2.030   0.623 -0.4588 -0.1627 -0.2801
  336SOL    HW2 1342   0.954   2.000   0.537  0.4714 -1.5332  0.5037
  336SOL    HW3 1343   0.838   1.990   0.634  0.1629 -1.4092  0.1450
  336SOL    MW4 1344   0.917   2.021   0.613 -0.2540 -0.5080 -0.1206
  337SOL     OW 1345   1.563   1.031   0.524 -0.2781  0.0838  0.1280
  337SOL    HW2 1346   1.571   1.122   0.551 -1.2846  0.3844 -0.5635
  337SOL    HW3 1347   1.469   1.018   0.510 -0.2464 -1.3320  1.1643
  337SOL    MW4 1348   1.551   1.041   0.526 -0.4067 -0.0633  0.1735
  338SOL     OW 1349   0.669   1.650   0.379 -0.0961  0.1555  0.0171
  338SOL    HW2 1350   0.576   1.666   0.366  0.2317  3.2645  1.1338
  338SOL    HW3 1351   0.713   1.725   0.339  2.0001 -1.7321 -1.3467
  338SOL    MW4 1352   0.663   1.662   0.372  0.2237  0.3167 -0.0155
  339SOL     OW 1353   3.374   0.383   0.752 -0.0068 -0.3242  0.3335
  339SOL    HW2 1354   3.346   0.296   0.724  1.0372 -0.7214  0.4792
  339SOL    HW3 1355   3.458   0.396   0.707  0.4607  0.0737  1.3059
  339SOL    MW4 1356   3.382   0.373   0.742  0.1926 -0.3241  0.4810
  340SOL     OW 1357   4.457   4.248   1.418 -0.2278 -0.2612 -0.2466
  340SOL    HW2 1358   4.390   4.313   1.396 -1.3056 -1.2220  0.1105
  340SOL    HW3 1359   4.455   4.243   1.514 -1.8995 -2.5520 -0.3401
  340SOL    MW4 1360   4.448   4.256   1.428 -0.5905 -0.6902 -0.2118
  341SOL     OW 1361   1.809   3.251   1.126 -0.5273 -0.2113  0.3841
  341SOL    HW2 1362   1.880   3.303   1.088 -1.2405 -0.5301 -1.4296
  341SOL    HW3 1363   1.729   3.289   1.089 -1.2358 -0.7142  1.3674
  341SOL    MW4 1364   1.808   3.263   1.116 -0.7149 -0.3197  0.2745
  342SOL     OW 1365   4.470   4.512   1.004 -0.1815  0.3420 -0.0232
  342SOL    HW2 1366   4.453   4.605   1.019  0.5267  0.7483 -1.6490
  342SOL    HW3 1367   4.403   4.467   1.055 -2.2030  1.8047 -1.3143
  342SOL    MW4 1368   4.459   4.519   1.013 -0.3548  0.5886 -0.4081
  343SOL     OW 1369   4.042   4.309   1.462  0.4343  0.4767 -0.2884
  343SOL    HW2 1370   3.951   4.336   1.446  0.2328  0.3859  0.6647
  343SOL    HW3 1371   4.045   4.218   1.434  0.0831  0.3149  0.1901
  343SOL    MW4 1372   4.030   4.301   1.456  0.3614  0.4434 -0.0995
  344SOL     OW 1373   1.526   4.138   0.721  0.7976  0.2978 -0.1046
  344SOL    HW2 1374   1.572   4.111   0.642  0.6974 -3.0077  0.8883
  344SOL    HW3 1375   1.438   4.102   0.711  0.3914  0.9940  0.9110
  344SOL    MW4 1376   1.520   4.130   0.709  0.7308 -0.0465  0.1604
  345SOL     OW 1377   0.533   1.818   0.096  0.1179 -0.5395  0.1130
  345SOL    HW2 1378   0.471   1.753   0.129 -1.1298  0.9165  0.7004
  345SOL    HW3 1379   0.488   1.902   0.107  2.3343  0.5863  0.9126
  345SOL    MW4 1380   0.519   1.820   0.102  0.2457 -0.1989  0.2960
  346SOL     OW 1381   4.035   4.261   1.781  0.2716  0.8271 -0.0584
  346SOL    HW2 1382   4.033   4.234   1.690 -0.0294  3.5223 -0.9099
  346SOL    HW3 1383   4.119   4.306   1.791  0.4337  0.3014  1.0718
  346SOL    MW4 1384   4.046   4.264   1.771  0.2533  1.1134 -0.0217
  347SOL     OW 1385   3.026   2.073   0.386  0.1843 -0.0093  0.0199
  347SOL    HW2 1386   3.111   2.100   0.351 -0.3306  0.7796 -0.6506
  347SOL    HW3 1387   3.019   2.118   0.470 -0.4789  1.6361 -0.8949
  347SOL    MW4 1388   3.036   2.083   0.393  0.0289  0.3118 -0.1892
  348SOL     OW 1389   2.419   2.063   1.008 -0.9524  0.4581 -0.8271
  348SOL    HW2 1390   2.331   2.073   0.971 -0.5662 -0.9157 -2.1606
  348SOL    HW3 1391   2.442   1.972   0.991  1.0574  1.0199 -1.2062
  348SOL    MW4 1392   2.410   2.052   1.001 -0.6363  0.3509 -1.0530
  349SOL     OW 1393   0.214   2.397   0.705 -0.2996 -0.0891  0.6586
  349SOL    HW2 1394   0.140   2.364   0.653 -0.4037 -0.4144  1.0125
  349SOL    HW3 1395   0.203   2.492   0.704 -0.2534 -0.0870  0.0123
  349SOL    MW4 1396   0.202   2.405   0.698 -0.3073 -0.1318  0.6200
  350SOL     OW 1397   0.218   1.005   0.992  0.3083  0.1898  0.6039
  350SOL    HW2 1398   0.223   1.090   1.036  2.0650  0.2329  0.3400
  350SOL    HW3 1399   0.220   1.025   0.899  0.5870 -0.1436  0.5385
  350SOL    MW4 1400   0.219   1.019   0.986  0.5768  0.1515  0.5605
  351SOL     OW 1401   1.993   1.912   0.428  0.2811 -0.2192 -0.3046
  351SOL    HW2 1402   2.015   1.849   0.496  0.6103 -1.4096 -1.4962
  351SOL    HW3 1403   2.072   1.918   0.375  0.3784  1.4804 -0.0041
  351SOL    MW4 1404   2.006   1.905   0.430  0.3374 -0.1521 -0.4222
  352SOL     OW 1405   2.467   1.798   0.970 -0.0606 -0.0202  0.0304
  352SOL    HW2 1406   2.387   1.762   1.009 -0.0923 -0.9689 -0.8903
  352SOL    HW3 1407   2.455   1.788   0.876  1.2187 -0.3530 -0.1141
  352SOL    MW4 1408   2.455   1.792   0.963  0.1040 -0.1893 -0.1102
  353SOL     OW 1409   2.352   1.221   0.314 -0.3870 -0.2549  0.0966
  353SOL    HW2 1410   2.286   1.181   0.259 -0.4145 -0.2103  0.0970
  353SOL    HW3 1411   2.315   1.220   0.402 -0.2422 -0.5491  0.1557
  353SOL    MW4 1412   2.339   1.216   0.318 -0.3715 -0.2878  0.1045
  354SOL     OW 1413   2.003   3.783   0.570  0.1408  0.3540 -0.1443
  354SOL    HW2 1414   2.084   3.789   0.621  0.6663 -0.8016 -0.8234
  354SOL    HW3 1415   2.030   3.801   0.480 -0.0810 -1.5479 -0.6057
  354SOL    MW4 1416   2.017   3.786   0.565  0.1809 -0.0494 -0.2948
  355SOL     OW 1417   2.624   1.278   0.216  0.5647 -0.0958 -0.0322
  355SOL    HW2 1418   2.626   1.258   0.123  1.3619 -1.9183  0.3536
  355SOL    HW3 1419   2.532   1.273   0.240  0.0128  3.0465 -1.2355
  355SOL    MW4 1420   2.613   1.275   0.207  0.5971  0.0783 -0.1401
  356SOL     OW 1421   3.555   0.381   1.448 -0.3677 -0.1691  0.5113
  356SOL    HW2 1422   3.487   0.444   1.425 -0.8645 -0.4850  1.1082
  356SOL    HW3 1423   3.633   0.411   1.401 -0.6022  0.8792  0.7842
  356SOL    MW4 1424   3.556   0.393   1.439 -0.4642 -0.0725  0.6261
  357SOL     OW 1425   2.930   3.556   1.093  0.4019  0.0697 -0.6955
  357SOL    HW2 1426   2.921   3.470   1.053  1.0236 -0.2854 -0.1008
  357SOL    HW3 1427   3.020   3.583   1.072  0.7571 -0.1515  0.4966
  357SOL    MW4 1428   2.941   3.548   1.085  0.5308 -0.0063 -0.4597
  358SOL     OW 1429   3.838   0.310   0.694 -0.0756  0.0719 -0.1364
  358SOL    HW2 1430   3.828   0.255   0.615 -1.6430  0.8347 -0.4882
  358SOL    HW3 1431   3.915   0.363   0.676 -0.4450  0.2671 -1.1881
  358SOL    MW4 1432   3.847   0.310   0.681 -0.3312  0.1983 -0.3216
  359SOL     OW 1433   0.452   2.113   0.090  0.1136 -1.0606 -0.5570
  359SOL    HW2 1434   0.466   2.203   0.061 -0.3157 -1.1450 -1.0414
  359SOL    HW3 1435   0.491   2.109   0.177 -1.3453  0.0568  0.1738
  359SOL    MW4 1436   0.459   2.124   0.098 -0.1355 -0.9243 -0.5245
  360SOL     OW 1437   4.322   2.401   0.229 -0.4726  0.0307  0.6181
  360SOL    HW2 1438   4.384   2.466   0.264  0.1203 -0.4527  0.4762
  360SOL    HW3 1439   4.256   2.392   0.297 -1.4236  1.9493 -0.0199
  360SOL    MW4 1440   4.322   2.409   0.242 -0.5199  0.2200  0.5152
  361SOL     OW 1441   1.128   2.595   1.037 -0.1843  0.0032  0.5700
  361SOL    HW2 1442   1.060   2.542   1.078 -1.1842 -1.2100 -2.4528
  361SOL    HW3 1443   1.207   2.541   1.044 -0.1639  0.1520  1.5554
  361SOL    MW4 1444   1.130   2.581   1.043 -0.3135 -0.1373  0.3012
  362SOL     OW 1445   1.318   1.688   1.140 -0.1692  0.2385  0.2416
  362SOL    HW2 1446   1.310   1.605   1.093 -0.0604  0.3258  0.0694
  362SOL    HW3 1447   1.245   1.741   1.108 -0.9093 -0.1858  1.1681
  362SOL    MW4 1448   1.307   1.684   1.130 -0.2525  0.1940  0.3411
  363SOL     OW 1449   2.207   3.244   0.261 -0.1996 -0.0569 -0.0902
  363SOL    HW2 1450   2.125   3.195   0.266 -0.5656  0.2996 -2.1232
  363SOL    HW3 1451   2.260   3.196   0.197  0.6502  0.4706  0.2068
  363SOL    MW4 1452   2.203   3.232   0.253 -0.1358  0.0597 -0.3193
  364SOL     OW 1453   3.216   2.435   0.575  0.2548  0.2590 -0.1995
  364SOL    HW2 1454   3.250   2.429   0.486 -0.3499 -1.5267 -0.3364
  364SOL    HW3 1455   3.245   2.354   0.618 -0.7675  0.3642  0.7456
  364SOL    MW4 1456   3.224   2.424   0.569  0.0402  0.0373 -0.0928
  365SOL     OW 1457   4.237   3.717   1.105  0.0930 -0.4040 -0.4944
  365SOL    HW2 1458   4.308   3.779   1.091  1.1710 -1.5721 -0.3294
  365SOL    HW3 1459   4.269   3.635   1.067 -0.7173 -1.2310  0.5619
  365SOL    MW4 1460   4.251   3.714   1.098  0.1284 -0.6672 -0.3332
  366SOL     OW 1461   0.453   2.490   1.116 -0.0183 -0.6052  0.3657
  366SOL    HW2 1462   0.456   2.400   1.085  0.2003  0.2732 -2.2874
  366SOL    HW3 1463   0.540   2.524   1.098 -0.1914  0.2349  1.0831
  366SOL    MW4 1464   0.465   2.483   1.109 -0.0123 -0.3784  0.1103
  367SOL     OW 1465   1.590   1.280   1.398  0.1644  0.0951  0.1026
  367SOL    HW2 1466   1.591   1.372   1.421  0.2615  0.6726 -2.0909
  367SOL    HW3 1467   1.502   1.249   1.421  0.6103  0.3439  2.2144
  367SOL    MW4 1468   1.579   1.288   1.404  0.2361  0.2041  0.0918
  368SOL     OW 1469   2.669   4.218   1.450 -0.3513  0.2501  0.2642
  368SOL    HW2 1470   2.661   4.123   1.438 -1.0463  0.1968  1.1207
  368SOL    HW3 1471   2.680   4.229   1.544  0.5742  0.9698  0.0745
  368SOL    MW4 1472   2.669   4.207   1.460 -0.3209  0.3380  0.3522
  369SOL     OW 1473   2.904   2.021   1.365 -0.4276  0.2333  0.5624
  369SOL    HW2 1474   2.981   1.980   1.406 -0.7802 -1.9951 -0.9352
  369SOL    HW3 1475   2.830   1.974   1.402 -0.9504  0.7073  0.1155
  369SOL    MW4 1476   2.905   2.009   1.376 -0.5431  0.0018  0.3058
  370SOL     OW 1477   1.310   1.905   1.492  0.2607  0.0372  0.3053
  370SOL    HW2 1478   1.320   1.932   1.583 -0.6022  2.2973 -0.2312
  370SOL    HW3 1479   1.383   1.947   1.447 -2.1210  3.1889 -0.8533
  370SOL    MW4 1480   1.321   1.914   1.498 -0.1674  0.7513  0.0817
  371SOL     OW 1481   1.788   0.913   1.121  0.1099  0.3668 -0.5869
  371SOL    HW2 1482   1.880   0.925   1.102  0.1649 -0.4428 -0.8474
  371SOL    HW3 1483   1.774   0.818   1.115  0.0392  0.0926  2.8351
  371SOL    MW4 1484   1.798   0.902   1.118  0.1078  0.2238 -0.1698
  372SOL     OW 1485   4.252   3.825   1.757  0.2725 -0.0804 -0.4499
  372SOL    HW2 1486   4.243   3.842   1.663 -0.0190  1.4279 -0.1550
  372SOL    HW3 1487   4.196   3.890   1.799 -1.2225 -2.0364  0.7032
  372SOL    MW4 1488   4.243   3.836   1.750  0.0368 -0.1395 -0.2589
  373SOL     OW 1489   1.620   3.632   1.120  0.1961  0.0275  0.5935
  373SOL    HW2 1490   1.613   3.621   1.215  0.1551 -0.8450  0.4950
  373SOL    HW3 1491   1.610   3.543   1.085  0.6431  0.2854 -0.1986
  373SOL    MW4 1492   1.618   3.618   1.128  0.2496 -0.0536  0.4760
  374SOL     OW 1493   2.220   4.018   1.100 -0.2156 -0.1842 -0.0192
  374SOL    HW2 1494   2.290   4.058   1.049 -1.7476 -1.3122 -3.0886
  374SOL    HW3 1495   2.248   4.028   1.191  2.7955  1.4519 -1.0728
  374SOL    MW4 1496   2.233   4.025   1.106 -0.0204 -0.1172 -0.5632
  375SOL     OW 1497   2.887   2.583   0.978  0.0646 -0.4007 -0.2972
  375SOL    HW2 1498   2.819   2.544   1.033 -1.7406  2.8940 -0.1224
  375SOL    HW3 1499   2.915   2.661   1.025  2.6475 -0.6689 -1.3015
  375SOL    MW4 1500   2.882   2.588   0.991  0.1672 -0.0014 -0.4066
  376SOL     OW 1501   4.179   4.495   0.350  0.2983  0.3114  0.0453
  376SOL    HW2 1502   4.254   4.465   0.401 -0.4608 -0.0170  0.9688
  376SOL    HW3 1503   4.107   4.437   0.376 -0.0122 -0.0875 -1.6451
  376SOL    MW4 1504   4.179   4.483   0.360  0.1572  0.2155 -0.0559
  377SOL     OW 1505   3.768   3.618   1.393 -0.7470 -0.2058 -1.2079
  377SOL    HW2 1506   3.771   3.709   1.423  2.1557 -0.2695 -1.1696
  377SOL    HW3 1507   3.769   3.625   1.297  0.1758 -0.2134 -1.1984
  377SOL    MW4 1508   3.768   3.631   1.384 -0.2423 -0.2152 -1.2016
  378SOL     OW 1509   1.412   0.257   0.622  0.3653 -0.1991  0.1408
  378SOL    HW2 1510   1.479   0.227   0.683  0.4028 -1.1440 -0.3603
  378SOL    HW3 1511   1.368   0.177   0.593 -1.4575  0.4474  1.0072
  378SOL    MW4 1512   1.415   0.243   0.626  0.1298 -0.2385  0.1890
  379SOL     OW 1513   0.436   2.462   1.391 -0.2840 -0.2048 -0.2961
  379SOL    HW2 1514   0.363   2.402   1.408 -0.5395  0.0633 -0.4241
  379SOL    HW3 1515   0.430   2.481   1.298 -0.8580  0.8430 -0.0577
  379SOL    MW4 1516   0.425   2.457   1.381 -0.3934 -0.0312 -0.2815
  380SOL     OW 1517   0.727   4.563   0.431 -0.0133  0.2134 -0.1399
  380SOL    HW2 1518   0.819   4.552   0.405 -0.2835 -1.8356 -0.3120
  380SOL    HW3 1519   0.700   4.476   0.460 -2.4113  0.3798 -1.7355
  380SOL    MW4 1520   0.736   4.550   0.431 -0.3653 -0.0350 -0.3731
  381SOL     OW 1521   2.906   3.383   0.735 -0.2126  0.3424 -0.3146
  381SOL    HW2 1522   2.992   3.420   0.715 -0.3462  1.3358  0.8710
  381SOL    HW3 1523   2.905   3.298   0.690  0.8441  0.9314 -1.4736
  381SOL    MW4 1524   2.917   3.377   0.727 -0.0908  0.5512 -0.3111
  382SOL     OW 1525   0.286   2.651   0.260 -0.2521  0.2366  0.3257
  382SOL    HW2 1526   0.274   2.741   0.230 -0.6397  0.6774  1.7270
  382SOL    HW3 1527   0.373   2.650   0.301  0.3465 -0.3953 -0.9385
  382SOL    MW4 1528   0.296   2.663   0.262 -0.2242  0.2114  0.3438
  383SOL     OW 1529   3.157   3.514   1.458 -0.1342  0.1180  0.0484
  383SOL    HW2 1530   3.171   3.507   1.553  0.2129 -0.4373 -0.0420
  383SOL    HW3 1531   3.066   3.542   1.449  0.0832  1.0375  0.5748
  383SOL    MW4 1532   3.147   3.517   1.470 -0.0597  0.1661  0.1059
  384SOL     OW 1533   1.517   0.518   1.396 -0.3981  0.6108  0.1452
  384SOL    HW2 1534   1.444   0.466   1.431  0.8289  0.0867  2.0165
  384SOL    HW3 1535   1.594   0.462   1.408  0.5118  1.6978 -0.5465
  384SOL    MW4 1536   1.518   0.504   1.402 -0.1161  0.6851  0.3008
  385SOL     OW 1537   1.151   3.588   1.389  0.4738  0.1809  0.6511
  385SOL    HW2 1538   1.148   3.683   1.402 -0.7766  0.1572  0.5846
  385SOL    HW3 1539   1.231   3.560   1.434  0.2338  1.1166  1.6786
  385SOL    MW4 1540   1.161   3.597   1.397  0.2772  0.3012  0.7779
  386SOL     OW 1541   2.607   0.844   0.579 -0.3934  0.0986  0.0927
  386SOL    HW2 1542   2.699   0.840   0.606 -0.3220  1.0975  0.0113
  386SOL    HW3 1543   2.610   0.845   0.484 -0.5273 -0.7006  0.0782
  386SOL    MW4 1544   2.619   0.844   0.570 -0.4017  0.1249  0.0800
  387SOL     OW 1545   0.408   4.232   1.459 -0.1860  0.5262  0.0184
  387SOL    HW2 1546   0.488   4.283   1.443 -0.2004  0.7707  0.7248
  387SOL    HW3 1547   0.420   4.153   1.406  0.8743  0.2023  0.7145
  387SOL    MW4 1548   0.420   4.228   1.450 -0.0480  0.5157  0.2034
  388SOL     OW 1549   3.791   3.625   1.119 -0.0802 -0.2169  0.0933
  388SOL    HW2 1550   3.804   3.537   1.083 -0.5451 -0.0737 -0.4200
  388SOL    HW3 1551   3.702   3.649   1.094  0.3765  0.7901 -0.6066
  388SOL    MW4 1552   3.781   3.617   1.111 -0.0813 -0.0651 -0.0668
  389SOL     OW 1553   3.843   4.086   0.496  0.3569  0.1303 -0.3827
  389SOL    HW2 1554   3.909   4.155   0.482  1.1371 -0.5774 -0.2740
  389SOL    HW3 1555   3.845   4.034   0.415 -0.4296  0.4038 -0.5767
  389SOL    MW4 1556   3.852   4.088   0.483  0.3561  0.0730 -0.3939
  390SOL     OW 1557   0.669   0.259   0.992 -0.2169 -0.0521  0.1562
  390SOL    HW2 1558   0.656   0.267   0.898  1.7122 -1.0036 -0.2167
  390SOL    HW3 1559   0.670   0.350   1.024  0.0232  0.3154 -0.8708
  390SOL    MW4 1560   0.667   0.272   0.984  0.0693 -0.1292 -0.0285
  391SOL     OW 1561   0.399   0.855   1.125 -0.3591 -0.0819 -0.1963
  391SOL    HW2 1562   0.325   0.898   1.082 -0.8352 -0.1343  0.5493
  391SOL    HW3 1563   0.422   0.783   1.066  0.5020  1.2205 -1.4901
  391SOL    MW4 1564   0.392   0.851   1.111 -0.3083  0.0830 -0.2686
  392SOL     OW 1565   2.685   4.481   1.053  0.3672  0.2656  0.4013
  392SOL    HW2 1566   2.615   4.425   1.085  0.8570 -1.5556 -1.5914
  392SOL    HW3 1567   2.764   4.428   1.060  0.9614  0.9736 -0.7830
  392SOL    MW4 1568   2.686   4.467   1.058  0.5102  0.1187 -0.0179
  393SOL     OW 1569   1.747   1.772   0.650 -0.3405  0.3631 -0.2289
  393SOL    HW2 1570   1.696   1.847   0.680  1.7247  1.7745 -0.1427
  393SOL    HW3 1571   1.838   1.797   0.665  0.4052 -2.0181 -0.5476
  393SOL    MW4 1572   1.752   1.785   0.656  0.0304  0.2352 -0.2595
  394SOL     OW 1573   1.103   2.281   1.507  0.5765  0.3045 -0.0906
  394SOL    HW2 1574   1.180   2.324   1.469  0.5548  0.8349  0.4462
  394SOL    HW3 1575   1.098   2.196   1.464  2.0872 -0.1617  0.6458
  394SOL    MW4 1576   1.112   2.276   1.496  0.7730  0.3130  0.0774
  395SOL     OW 1577   0.742   4.567   0.916  0.1841  0.6532  0.2616
  395SOL    HW2 1578   0.768   4.621   0.841  1.3833  1.5603  1.3215
  395SOL    HW3 1579   0.647   4.560   0.908  0.2229  1.3039 -0.9704
  395SOL    MW4 1580   0.733   4.573   0.905  0.3474  0.8587  0.2389
  396SOL     OW 1581   1.367   3.532   0.350 -0.0372  0.3797  0.0857
  396SOL    HW2 1582   1.338   3.525   0.441  0.0816  1.0572  0.1782
  396SOL    HW3 1583   1.458   3.563   0.356  0.7783 -1.8501 -0.1864
  396SOL    MW4 1584   1.375   3.535   0.363  0.0861  0.1749  0.0620
  397SOL     OW 1585   3.032   2.875   0.592 -0.0962  0.5398  0.3629
  397SOL    HW2 1586   3.104   2.858   0.653  0.3730  0.6573 -0.1594
  397SOL    HW3 1587   2.966   2.811   0.615  0.0046  0.7007  1.1232
  397SOL    MW4 1588   3.033   2.865   0.603 -0.0210  0.5765  0.3943
  398SOL     OW 1589   2.782   3.741   0.339  0.1417 -0.0710  0.1076
  398SOL    HW2 1590   2.700   3.734   0.291  0.3379  0.6886 -0.3429
  398SOL    HW3 1591   2.816   3.651   0.343 -1.4456 -0.6280  1.6023
  398SOL    MW4 1592   2.776   3.728   0.333 -0.0418 -0.0442  0.2454
  399SOL     OW 1593   3.140   0.712   0.915  0.2557  0.1469  0.1465
  399SOL    HW2 1594   3.205   0.665   0.967  0.7813 -0.6337 -1.1657
  399SOL    HW3 1595   3.136   0.799   0.954  0.5045 -0.4687  1.5784
  399SOL    MW4 1596   3.148   0.717   0.927  0.3579 -0.0373  0.1623
  400SOL     OW 1597   4.263   3.971   0.432  0.2986 -0.2993  0.1393
  400SOL    HW2 1598   4.269   3.964   0.527  1.1744 -1.0326  0.0445
  400SOL    HW3 1599   4.325   3.905   0.400 -0.8595 -0.8810 -0.9447
  400SOL    MW4 1600   4.272   3.961   0.440  0.2613 -0.4728 -0.0163
  401SOL     OW 1601   2.986   2.129   0.668 -0.2265 -0.0986 -0.4697
  401SOL    HW2 1602   3.036   2.112   0.748 -0.5129  1.3346  0.0316
  401SOL    HW3 1603   2.902   2.086   0.684  0.1056 -0.7609 -0.4679
  401SOL    MW4 1604   2.981   2.121   0.681 -0.2205  0.0031 -0.4033
  402SOL     OW 1605   0.473   2.891   0.810 -0.4113 -0.8054 -0.0937
  402SOL    HW2 1606   0.539   2.826   0.785 -0.5754 -0.9741 -0.0925
  402SOL    HW3 1607   0.481   2.898   0.905 -1.8227 -2.3923  0.1710
  402SOL    MW4 1608   0.483   2.883   0.819 -0.6192 -1.0370 -0.0587
  403SOL     OW 1609   1.796   0.906   1.411  0.3400  0.5236 -0.0855
  403SOL    HW2 1610   1.793   0.899   1.316 -0.4044  1.4183 -0.1365
  403SOL    HW3 1611   1.788   1.000   1.429  1.5024  0.4616  0.8248
  403SOL    MW4 1612   1.794   0.917   1.401  0.3952  0.6334  0.0278
  404SOL     OW 1613   2.052   3.417   0.573 -0.1540  0.3091  0.6568
  404SOL    HW2 1614   2.076   3.325   0.583  0.0389  0.2867  0.0545
  404SOL    HW3 1615   1.957   3.419   0.584 -0.2150 -0.0341  0.2039
  404SOL    MW4 1616   2.043   3.405   0.575 -0.1366  0.2609  0.5176
  405SOL     OW 1617   1.640   1.165   0.154  0.1709 -0.1034  0.0799
  405SOL    HW2 1618   1.603   1.214   0.227  0.8475  0.5549 -0.0113
  405SOL    HW3 1619   1.568   1.159   0.090  0.3357  1.5892 -0.3088
  405SOL    MW4 1620   1.626   1.171   0.155  0.2819  0.2068  0.0166
  406SOL     OW 1621   0.731   2.105   1.102 -0.4183 -0.5598 -0.0253
  406SOL    HW2 1622   0.799   2.147   1.049 -0.7752  0.5426  0.3869
  406SOL    HW3 1623   0.716   2.020   1.059  1.3437 -0.8982 -0.0096
  406SOL    MW4 1624   0.738   2.099   1.089 -0.2329 -0.4590  0.0312
  407SOL     OW 1625   4.452   0.876   1.052  0.2627  0.0135  0.8224
  407SOL    HW2 1626   4.535   0.920   1.039  0.1064  0.1156  0.1446
  407SOL    HW3 1627   4.445   0.865   1.147  0.3105  1.4331  0.9976
  407SOL    MW4 1628   4.462   0.880   1.063  0.2484  0.2143  0.7561
  408SOL     OW 1629   0.433   1.159   1.519 -0.2601  0.1220  0.0546
  408SOL    HW2 1630   0.439   1.069   1.486  1.9002  0.3167 -0.2143
  408SOL    HW3 1631   0.368   1.201   1.463  0.0278 -0.7974 -1.0048
  408SOL    MW4 1632   0.425   1.152   1.507  0.0629  0.0264 -0.1207
  409SOL     OW 1633   2.545   3.995   0.548 -0.4783 -0.0237 -0.1384
  409SOL    HW2 1634   2.620   3.941   0.574  0.4282  0.6899 -1.1926
  409SOL    HW3 1635   2.542   3.986   0.452 -2.1661 -0.5826 -0.0365
  409SOL    MW4 1636   2.555   3.986   0.538 -0.5814 -0.0033 -0.2640
  410SOL     OW 1637   3.636   3.416   0.299  0.0684 -0.1298 -0.0331
  410SOL    HW2 1638   3.712   3.380   0.253 -0.0703 -0.4053 -0.0496
  410SOL    HW3 1639   3.647   3.511   0.294  2.5466 -0.1062  3.4547
  410SOL    MW4 1640   3.648   3.424   0.292  0.3771 -0.1631  0.4249
  411SOL     OW 1641   1.118   3.323   0.781  0.1046 -0.2844 -0.2947
  411SOL    HW2 1642   1.040   3.368   0.747 -0.0118 -0.2815 -0.0265
  411SOL    HW3 1643   1.114   3.236   0.742  0.5435  0.0635 -1.1322
  411SOL    MW4 1644   1.107   3.317   0.772  0.1472 -0.2381 -0.3698
  412SOL     OW 1645   4.039   0.178   1.070  0.0262 -0.1353  0.0348
  412SOL    HW2 1646   4.020   0.182   1.164 -1.1395 -2.4994 -0.0698
  412SOL    HW3 1647   4.044   0.085   1.051  0.5962  0.3330 -2.2079
  412SOL    MW4 1648   4.037   0.167   1.080 -0.0524 -0.3854 -0.2749
  413SOL     OW 1649   3.169   4.244   1.459  0.0516 -0.5187 -0.3141
  413SOL    HW2 1650   3.082   4.265   1.424  0.3050 -1.0993 -1.3295
  413SOL    HW3 1651   3.183   4.153   1.431  1.4189 -0.0865 -1.0628
  413SOL    MW4 1652   3.159   4.234   1.450  0.2654 -0.5383 -0.5468
  414SOL     OW 1653   4.487   0.479   0.171  0.4588 -0.7498 -0.0982
  414SOL    HW2 1654   4.582   0.478   0.187  0.4659  2.0146  0.2568
  414SOL    HW3 1655   4.471   0.564   0.131 -1.8251 -1.4357 -0.6869
  414SOL    MW4 1656   4.498   0.490   0.167  0.1584 -0.4756 -0.1290
  415SOL     OW 1657   1.802   2.810   0.104  0.1135 -0.1492  0.2158
  415SOL    HW2 1658   1.896   2.794   0.105  0.0443 -0.7316 -1.2980
  415SOL    HW3 1659   1.764   2.737   0.154  0.5117  0.4906  1.4647
  415SOL    MW4 1660   1.809   2.798   0.111  0.1569 -0.1416  0.1809
  416SOL     OW 1661   4.098   1.208   0.238  0.1054  0.7474 -0.0343
  416SOL    HW2 1662   4.007   1.216   0.210  0.3857 -1.0682 -1.6090
  416SOL    HW3 1663   4.135   1.295   0.226 -0.7057  0.8419 -2.0603
  416SOL    MW4 1664   4.091   1.220   0.233  0.0354  0.5203 -0.5093
  417SOL     OW 1665   2.186   0.831   0.690  0.1305 -0.1172  0.1925
  417SOL    HW2 1666   2.263   0.882   0.714 -0.2039  0.4147  0.1262
  417SOL    HW3 1667   2.117   0.862   0.747 -0.3403  0.2565 -0.5750
  417SOL    MW4 1668   2.187   0.842   0.700  0.0243  0.0023  0.0825
  418SOL     OW 1669   1.200   3.109   0.390  0.3389  0.0949 -0.2951
  418SOL    HW2 1670   1.223   3.182   0.333  0.5159 -0.4991 -0.9926
  418SOL    HW3 1671   1.262   3.040   0.367  0.4360 -0.1379  0.6466
  418SOL    MW4 1672   1.211   3.109   0.380  0.3750 -0.0142 -0.2628
  419SOL     OW 1673   3.644   1.180   1.450  0.5068 -0.0328 -0.4111
  419SOL    HW2 1674   3.643   1.101   1.395  0.8167  1.5871 -2.8059
  419SOL    HW3 1675   3.557   1.217   1.441  0.7312  0.5379 -0.2200
  419SOL    MW4 1676   3.633   1.174   1.442  0.5773  0.2562 -0.7019
  420SOL     OW 1677   2.374   2.365   0.063 -0.4520 -0.0002 -0.5223
  420SOL    HW2 1678   2.352   2.301  -0.006 -1.2366 -0.7810  0.4340
  420SOL    HW3 1679   2.437   2.319   0.118 -0.1431  0.4756 -0.4835
  420SOL    MW4 1680   2.380   2.350   0.061 -0.5148 -0.0404 -0.3910
  421SOL     OW 1681   1.110   4.603   1.451 -0.2501  0.6973 -0.1916
  421SOL    HW2 1682   1.168   4.673   1.419  0.6913 -0.6999 -1.6541
  421SOL    HW3 1683   1.114   4.610   1.546  1.6879  1.1695 -0.2884
  421SOL    MW4 1684   1.118   4.613   1.459  0.1298  0.5753 -0.3973
  422SOL     OW 1685   4.246   0.754   1.492 -0.5088  0.3485  0.1764
  422SOL    HW2 1686   4.163   0.794   1.465 -0.8458 -1.1964 -1.1276
  422SOL    HW3 1687   4.251   0.673   1.442  1.9544  0.5831 -0.0195
  422SOL    MW4 1688   4.235   0.749   1.482 -0.2283  0.1756 -0.0215
  423SOL     OW 1689   2.125   4.452   0.736  0.3611  0.4428 -0.0556
  423SOL    HW2 1690   2.213   4.444   0.698  0.3079  1.3199 -0.3932
  423SOL    HW3 1691   2.079   4.510   0.675 -1.0261 -1.4723 -0.8533
  423SOL    MW4 1692   2.131   4.459   0.723  0.1711  0.3059 -0.2054
  424SOL     OW 1693   2.011   2.030   1.355  0.6295  0.3480  0.1635
  424SOL    HW2 1694   2.034   2.121   1.377  1.1280 -0.0469  1.3246
  424SOL    HW3 1695   2.093   1.982   1.366  0.0534 -0.4753  0.8691
  424SOL    MW4 1696   2.025   2.036   1.359  0.6192  0.1873  0.4098
  425SOL     OW 1697   3.081   2.419   1.064 -0.4504  0.4322  0.2977
  425SOL    HW2 1698   3.006   2.470   1.034 -0.6501 -0.1724 -0.2373
  425SOL    HW3 1699   3.156   2.476   1.048 -0.6949  0.6604 -0.0557
  425SOL    MW4 1700   3.081   2.434   1.058 -0.5090  0.3826  0.1805
  426SOL     OW 1701   1.356   4.063   1.120  0.0830 -0.3620 -0.2386
  426SOL    HW2 1702   1.370   3.969   1.110  2.3601 -0.0677 -0.1178
  426SOL    HW3 1703   1.423   4.103   1.065 -0.0157  1.1960  0.7394
  426SOL    MW4 1704   1.367   4.056   1.111  0.3704 -0.1176 -0.0936
  427SOL     OW 1705   3.774   2.604   1.020  0.2857  0.6265 -0.6423
  427SOL    HW2 1706   3.856   2.564   1.047  1.1508  2.5978 -0.2525
  427SOL    HW3 1707   3.780   2.694   1.051 -1.6416  1.0494 -1.4151
  427SOL    MW4 1708   3.785   2.611   1.027  0.1456  0.9424 -0.6928
  428SOL     OW 1709   0.921   2.240   0.983  0.0063  0.3844  0.0249
  428SOL    HW2 1710   0.935   2.279   0.897 -0.6905  1.7904  0.5203
  428SOL    HW3 1711   0.931   2.314   1.044 -0.0253 -0.4862  1.1094
  428SOL    MW4 1712   0.924   2.255   0.980 -0.0898  0.4551  0.2333
  429SOL     OW 1713   3.712   1.109   0.435  0.3192  0.0543  0.3315
  429SOL    HW2 1714   3.710   1.181   0.498  1.2253  0.9079 -0.5976
  429SOL    HW3 1715   3.658   1.041   0.475  2.5972 -0.2390  3.0088
  429SOL    MW4 1716   3.704   1.110   0.449  0.7393  0.1282  0.5621
  430SOL     OW 1717   0.479   1.645   1.359 -0.1853 -0.5933 -0.1765
  430SOL    HW2 1718   0.478   1.733   1.396  0.1802 -0.7157  0.1377
  430SOL    HW3 1719   0.406   1.600   1.401 -1.5412  0.1123 -1.7440
  430SOL    MW4 1720   0.469   1.651   1.370 -0.3160 -0.5163 -0.3418
  431SOL     OW 1721   3.792   0.750   1.443 -0.5652  0.1968 -0.0635
  431SOL    HW2 1722   3.880   0.777   1.420 -1.1267  1.2577 -1.0320
  431SOL    HW3 1723   3.790   0.751   1.539  0.6707 -0.5563 -0.0208
  431SOL    MW4 1724   3.803   0.753   1.453 -0.4762  0.2374 -0.1857
  432SOL     OW 1725   1.968   2.026   1.078 -0.2099  0.2860 -0.4408
  432SOL    HW2 1726   1.990   2.016   1.171  0.0091 -0.9473 -0.6238
  432SOL    HW3 1727   2.039   2.079   1.042 -0.2432  0.6850  0.0718
  432SOL    MW4 1728   1.980   2.032   1.086 -0.1854  0.1759 -0.3973
  433SOL     OW 1729   1.574   4.184   1.004 -0.2189  0.2784 -0.3123
  433SOL    HW2 1730   1.577   4.150   0.914 -1.2875 -0.5894 -0.0377
  433SOL    HW3 1731   1.649   4.145   1.048  0.9691  1.5959 -1.1154
  433SOL    MW4 1732   1.584   4.174   0.998 -0.2032  0.3377 -0.3820
  434SOL     OW 1733   0.567   0.686   0.344 -0.3724  0.1073  0.0521
  434SOL    HW2 1734   0.518   0.753   0.390 -0.3743  0.2142 -0.1057
  434SOL    HW3 1735   0.562   0.609   0.401  1.6526  0.9135  1.4159
  434SOL    MW4 1736   0.560   0.685   0.358 -0.1055  0.2278  0.2112
  435SOL     OW 1737   0.662   2.436   0.684 -0.5733  0.6434  0.3737
  435SOL    HW2 1738   0.645   2.440   0.590  0.3715 -0.3132  0.1441
  435SOL    HW3 1739   0.586   2.390   0.721  0.5121 -1.8288 -0.3677
  435SOL    MW4 1740   0.650   2.430   0.677 -0.3054  0.1910  0.2456
  436SOL     OW 1741   1.335   2.199   0.992 -0.0251  0.2114  0.5706
  436SOL    HW2 1742   1.328   2.184   0.898 -0.1373  1.9351  0.2859
  436SOL    HW3 1743   1.285   2.127   1.032 -0.5316 -0.1514 -0.6962
  436SOL    MW4 1744   1.327   2.187   0.985 -0.1068  0.3910  0.3659
  437SOL     OW 1745   3.006   0.953   0.383 -0.0112 -0.6236  0.5182
  437SOL    HW2 1746   2.971   0.868   0.408  0.3848 -0.9920 -0.1627
  437SOL    HW3 1747   2.929   1.006   0.364 -0.2365 -1.1250  0.0001
  437SOL    MW4 1748   2.991   0.949   0.384  0.0113 -0.7384  0.3600
  438SOL     OW 1749   4.001   4.306   0.464 -0.2132 -0.2761  0.1312
  438SOL    HW2 1750   3.950   4.385   0.483 -0.5498 -0.3250 -0.5832
  438SOL    HW3 1751   4.058   4.296   0.540 -0.7609  0.1835  0.6092
  438SOL    MW4 1752   4.002   4.315   0.477 -0.3299 -0.2219  0.1000
  439SOL     OW 1753   3.794   4.380   1.371 -0.3874 -0.0886 -0.4605
  439SOL    HW2 1754   3.780   4.467   1.409 -0.6752 -0.7847  1.0446
  439SOL    HW3 1755   3.826   4.398   1.282  2.4258  1.5788  0.8208
  439SOL    MW4 1756   3.797   4.394   1.364 -0.0542  0.0395 -0.0929
  440SOL     OW 1757   0.035   0.516   0.736  0.1933 -0.3960  0.4499
  440SOL    HW2 1758  -0.039   0.480   0.687  1.2631 -0.2641 -1.2874
  440SOL    HW3 1759   0.095   0.442   0.746  1.7973  0.5467 -1.9705
  440SOL    MW4 1760   0.033   0.501   0.731  0.5461 -0.2542 -0.0987
  441SOL     OW 1761   0.578   0.459   0.507 -0.1580  0.5299 -0.0333
  441SOL    HW2 1762   0.613   0.405   0.435  1.1670  2.7540 -1.1005
  441SOL    HW3 1763   0.598   0.409   0.586  1.4039 -0.3498 -0.9608
  441SOL    MW4 1764   0.585   0.445   0.508  0.2229  0.7073 -0.2965
  442SOL     OW 1765   2.508   1.526   0.528  0.4950  0.0968  0.3212
  442SOL    HW2 1766   2.433   1.488   0.574 -0.4754  2.5425  0.8656
  442SOL    HW3 1767   2.582   1.512   0.588  0.0738 -0.5454  0.6967
  442SOL    MW4 1768   2.508   1.519   0.542  0.3114  0.3347  0.4426
  443SOL     OW 1769   3.803   1.305   1.071  0.3363 -0.1349 -0.4518
  443SOL    HW2 1770   3.711   1.322   1.051  0.1788  1.1725  1.2556
  443SOL    HW3 1771   3.851   1.361   1.009 -0.0501  0.4321 -0.2443
  443SOL    MW4 1772   3.797   1.315   1.060  0.2645  0.1124 -0.1992
  444SOL     OW 1773   2.304   0.602   0.543  0.7194 -0.1306 -0.1283
  444SOL    HW2 1774   2.241   0.649   0.597  1.2637  0.1174  0.2960
  444SOL    HW3 1775   2.381   0.592   0.599  1.5874  0.8518 -1.1326
  444SOL    MW4 1776   2.306   0.607   0.558  0.9057  0.0317 -0.2048
  445SOL     OW 1777   3.603   3.987   1.421 -0.0656  0.3454 -0.2002
  445SOL    HW2 1778   3.595   3.974   1.327  1.0099 -0.1959 -0.2218
  445SOL    HW3 1779   3.596   4.082   1.433 -3.0109  0.1988 -0.5331
  445SOL    MW4 1780   3.601   3.998   1.410 -0.3123  0.2547 -0.2469
  446SOL     OW 1781   4.267   1.735   0.737 -0.0919 -0.0748  0.5949
  446SOL    HW2 1782   4.195   1.694   0.689  0.4479 -2.5423  1.7895
  446SOL    HW3 1783   4.337   1.669   0.735  1.1044  1.1278  1.9241
  446SOL    MW4 1784   4.267   1.721   0.730  0.1371 -0.2417  0.9279
  447SOL     OW 1785   2.807   3.845   0.588  0.2771 -0.6100  0.2303
  447SOL    HW2 1786   2.806   3.808   0.500 -1.7584  0.7238 -0.3666
  447SOL    HW3 1787   2.775   3.774   0.644  0.8187 -1.2096 -0.2096
  447SOL    MW4 1788   2.802   3.831   0.584  0.0800 -0.5132  0.0935
  448SOL     OW 1789   2.222   4.511   1.003 -0.1869 -0.5712 -0.2476
  448SOL    HW2 1790   2.228   4.602   1.032 -0.9508 -1.1168  1.6947
  448SOL    HW3 1791   2.173   4.515   0.921  0.7278  0.8571 -0.7481
  448SOL    MW4 1792   2.217   4.524   0.996 -0.1670 -0.4548 -0.0574
  449SOL     OW 1793   3.547   0.107   1.380 -0.5869  0.3737  0.0444
  449SOL    HW2 1794   3.539   0.198   1.406 -0.7355  0.0222  1.2711
  449SOL    HW3 1795   3.465   0.066   1.408 -0.1363 -0.3354  0.3381
  449SOL    MW4 1796   3.535   0.113   1.387 -0.5471  0.2338  0.2450
  450SOL     OW 1797   2.471   3.554   1.406 -0.2288 -0.2721  0.5532
  450SOL    HW2 1798   2.464   3.649   1.408 -1.7628 -0.3919  1.7212
  450SOL    HW3 1799   2.383   3.523   1.427  0.0796 -1.9478 -0.5536
  450SOL    MW4 1800   2.458   3.562   1.409 -0.3905 -0.5090  0.5613
  451SOL     OW 1801   4.271   1.264   1.053  0.1920 -0.0790 -0.3484
  451SOL    HW2 1802   4.272   1.245   1.146 -0.4822 -0.4322 -0.4081
  451SOL    HW3 1803   4.352   1.313   1.037 -1.1090  2.5927  0.9581
  451SOL    MW4 1804   4.282   1.268   1.063 -0.0686  0.2269 -0.1839
  452SOL     OW 1805   0.813   0.800   0.385  0.4850 -0.0824  0.2975
  452SOL    HW2 1806   0.826   0.887   0.347 -0.8411  0.4139  0.9621
  452SOL    HW3 1807   0.744   0.761   0.332  0.9447 -0.6716  0.1206
  452SOL    MW4 1808   0.806   0.806   0.373  0.3707 -0.0947  0.3619
  453SOL     OW 1809   3.046   3.837   0.283 -0.2458 -0.1089  0.1797
  453SOL    HW2 1810   3.034   3.931   0.270 -1.2497 -0.1077  1.0666
  453SOL    HW3 1811   2.960   3.805   0.311  0.5192 -0.9767  1.6271
  453SOL    MW4 1812   3.033   3.845   0.285 -0.2773 -0.2233  0.4877
  454SOL     OW 1813   2.250   0.851   1.404  0.0372 -0.3701  0.1712
  454SOL    HW2 1814   2.310   0.788   1.444  1.9689  0.3630 -1.4488
  454SOL    HW3 1815   2.268   0.844   1.310 -1.4377  0.8795 -0.2246
  454SOL    MW4 1816   2.260   0.842   1.397  0.0975 -0.1085 -0.0948
  455SOL     OW 1817   1.789   1.914   1.450 -0.0224 -0.5962 -0.0116
  455SOL    HW2 1818   1.797   1.822   1.426  2.3345 -0.5446  0.4604
  455SOL    HW3 1819   1.865   1.956   1.409 -0.0559  0.8124  1.3303
  455SOL    MW4 1820   1.800   1.908   1.441  0.2841 -0.4036  0.2277
  456SOL     OW 1821   1.552   2.830   1.423  0.7487 -0.1052  0.5204
  456SOL    HW2 1822   1.577   2.915   1.459  0.5329  0.0734  0.2519
  456SOL    HW3 1823   1.563   2.839   1.329 -1.1826  0.2840  0.3127
  456SOL    MW4 1824   1.556   2.842   1.416  0.4654 -0.0303  0.4576
  457SOL     OW 1825   1.338   1.941   1.775  0.4965 -0.1101  0.1407
  457SOL    HW2 1826   1.248   1.959   1.802  0.4973  1.1493 -0.6231
  457SOL    HW3 1827   1.355   1.852   1.805 -1.0540 -0.4127  0.1811
  457SOL    MW4 1828   1.328   1.931   1.782  0.2920  0.0161  0.0452
  458SOL     OW 1829   1.949   3.122   0.291  0.3237 -0.4330  0.0576
  458SOL    HW2 1830   1.879   3.101   0.230  0.6402 -0.1419 -0.4129
  458SOL    HW3 1831   1.908   3.177   0.357 -0.2440 -1.5614  0.6546
  458SOL    MW4 1832   1.935   3.126   0.291  0.2905 -0.5435  0.0743
  459SOL     OW 1833   3.985   3.598   0.394 -0.5339 -0.4441  0.0137
  459SOL    HW2 1834   3.994   3.596   0.490 -1.4266  0.9633  0.1395
  459SOL    HW3 1835   4.016   3.512   0.366  0.9101 -0.4346  1.4618
  459SOL    MW4 1836   3.990   3.587   0.403 -0.4612 -0.2572  0.2214
  460SOL     OW 1837   2.856   0.704   0.925 -0.5086 -0.1502  0.2639
  460SOL    HW2 1838   2.951   0.709   0.935 -0.5034  0.1600  0.0545
  460SOL    HW3 1839   2.832   0.619   0.963 -0.3504  0.4780  1.8287
  460SOL    MW4 1840   2.865   0.694   0.932 -0.4870 -0.0264  0.4427
  461SOL     OW 1841   1.995   0.461   1.358 -0.1293 -0.0233  0.1979
  461SOL    HW2 1842   2.010   0.555   1.370  0.5865 -0.3159  1.6217
  461SOL    HW3 1843   2.070   0.419   1.399  0.6526 -1.1905 -2.2949
  461SOL    MW4 1844   2.007   0.468   1.365  0.0683 -0.2159  0.0569
  462SOL     OW 1845   0.526   2.628   0.422  0.3061 -0.0342  0.5556
  462SOL    HW2 1846   0.469   2.652   0.495  0.0288 -0.1808  0.3888
  462SOL    HW3 1847   0.582   2.705   0.410  0.4407 -0.0578  1.0028
  462SOL    MW4 1848   0.526   2.642   0.430  0.2872 -0.0567  0.5926
  463SOL     OW 1849   3.179   3.955   1.078 -0.5285 -0.4109  0.4162
  463SOL    HW2 1850   3.107   4.013   1.055  0.1098  0.1202 -0.2557
  463SOL    HW3 1851   3.191   3.969   1.173 -0.7574  0.1267  0.3685
  463SOL    MW4 1852   3.171   3.964   1.088 -0.4745 -0.2699  0.3213
  464SOL     OW 1853   3.088   1.831   0.481  0.4613 -0.4532  0.2465
  464SOL    HW2 1854   3.060   1.912   0.438  0.9338 -0.7040 -0.5478
  464SOL    HW3 1855   3.009   1.797   0.522  0.0439 -0.0985 -0.2543
  464SOL    MW4 1856   3.074   1.837   0.480  0.4686 -0.4395  0.0756
  465SOL     OW 1857   1.680   3.041   0.187 -0.1443 -0.4224 -0.3399
  465SOL    HW2 1858   1.713   2.957   0.155 -0.8612 -0.9541  0.2783
  465SOL    HW3 1859   1.662   3.025   0.280 -0.0982  0.4734 -0.1748
  465SOL    MW4 1860   1.682   3.028   0.195 -0.2328 -0.3744 -0.2366
  466SOL     OW 1861   0.247   4.356   0.288  0.3710 -0.1196  0.0486
  466SOL    HW2 1862   0.165   4.402   0.309  1.2769  1.5887 -0.0695
  466SOL    HW3 1863   0.289   4.410   0.221  2.9619  0.6090  2.1699
  466SOL    MW4 1864   0.242   4.369   0.282  0.8323  0.2019  0.3129
  467SOL     OW 1865   3.560   1.686   1.394  0.0772  0.1278 -0.0109
  467SOL    HW2 1866   3.643   1.654   1.430 -0.5899 -0.1244  1.2961
  467SOL    HW3 1867   3.494   1.629   1.431 -0.8454  1.2735  0.1393
  467SOL    MW4 1868   3.563   1.674   1.403 -0.1326  0.2457  0.1813
  468SOL     OW 1869   1.597   3.376   1.011  0.0471 -0.2219  0.1186
  468SOL    HW2 1870   1.523   3.318   1.030 -0.4350  0.6465  0.9123
  468SOL    HW3 1871   1.601   3.379   0.916 -2.4304  1.5958  0.0319
  468SOL    MW4 1872   1.588   3.369   1.001 -0.3434  0.1325  0.2119
  469SOL     OW 1873   2.522   3.072   1.445  0.4537 -0.4488  0.5483
  469SOL    HW2 1874   2.442   3.121   1.429  0.8208  0.0871  0.3242
  469SOL    HW3 1875   2.497   2.980   1.435 -0.7149 -0.4438  3.0720
  469SOL    MW4 1876   2.508   3.066   1.441  0.3480 -0.3775  0.8517
  470SOL     OW 1877   3.334   2.209   0.690 -0.1727 -0.2655  0.1032
  470SOL    HW2 1878   3.422   2.191   0.721  0.1018  1.8304  0.6679
  470SOL    HW3 1879   3.277   2.183   0.762  0.2365  1.4281  1.0695
  470SOL    MW4 1880   3.338   2.203   0.703 -0.0825  0.2345  0.3052
  471SOL     OW 1881   4.046   0.724   0.735  0.3615  0.1376 -0.5615
  471SOL    HW2 1882   4.076   0.648   0.685 -1.0500 -0.1970 -0.9183
  471SOL    HW3 1883   4.029   0.689   0.823  1.1082  0.3464 -0.3344
  471SOL    MW4 1884   4.048   0.709   0.740  0.2738  0.1210 -0.5787
  472SOL     OW 1885   3.840   3.865   1.493  0.1667  0.3870 -0.2583
  472SOL    HW2 1886   3.753   3.904   1.483  0.9926  2.1382 -0.6889
  472SOL    HW3 1887   3.901   3.936   1.474  1.7006 -1.0148 -0.7003
  472SOL    MW4 1888   3.836   3.879   1.489  0.4781  0.4331 -0.3734
  473SOL     OW 1889   0.546   2.357   0.099  0.2214  0.0426 -0.2008
  473SOL    HW2 1890   0.457   2.390   0.088  0.4563  0.9671  0.6055
  473SOL    HW3 1891   0.566   2.369   0.192  0.5858 -1.7159 -0.0436
  473SOL    MW4 1892   0.537   2.363   0.110  0.3005 -0.0674 -0.0737
  474SOL     OW 1893   3.375   2.321   1.485 -0.2384 -0.5699  0.2881
  474SOL    HW2 1894   3.304   2.383   1.471 -0.5278 -0.8527  0.5145
  474SOL    HW3 1895   3.454   2.369   1.459 -0.4136  0.0452  0.8835
  474SOL    MW4 1896   3.376   2.335   1.480 -0.2997 -0.5261  0.3965
  475SOL     OW 1897   2.893   1.323   1.064 -0.2889  0.5225 -0.0738
  475SOL    HW2 1898   2.971   1.344   1.013 -1.7400  1.6668 -1.9097
  475SOL    HW3 1899   2.880   1.229   1.051  0.5455  0.4057 -0.0845
  475SOL    MW4 1900   2.902   1.313   1.055 -0.3702  0.6581 -0.3174
  476SOL     OW 1901   1.091   1.499   1.467  0.4070  0.1344 -0.4388
  476SOL    HW2 1902   1.020   1.535   1.414 -0.6159 -0.5698  0.4395
  476SOL    HW3 1903   1.171   1.534   1.426 -0.3124 -1.0298 -2.9311
  476SOL    MW4 1904   1.092   1.509   1.455  0.1771 -0.1121 -0.6517
  477SOL     OW 1905   3.570   2.431   0.245  0.1440  0.0063 -0.0475
  477SOL    HW2 1906   3.580   2.518   0.284  0.5677 -0.0573 -0.0090
  477SOL    HW3 1907   3.570   2.447   0.150  1.3826 -0.0655 -0.0646
  477SOL    MW4 1908   3.571   2.445   0.238  0.3634 -0.0116 -0.0447
  478SOL     OW 1909   1.909   0.730   0.404 -0.8592 -0.1441 -0.0296
  478SOL    HW2 1910   1.836   0.781   0.368 -0.8089 -0.0139  0.0497
  478SOL    HW3 1911   1.979   0.795   0.416 -0.8205 -0.2183  0.1469
  478SOL    MW4 1912   1.909   0.746   0.401 -0.8474 -0.1367  0.0042
  479SOL     OW 1913   3.109   2.157   0.921 -0.7448  0.3182 -0.0961
  479SOL    HW2 1914   3.053   2.097   0.971  1.4272 -0.0300  2.0133
  479SOL    HW3 1915   3.103   2.240   0.968 -0.6143  0.6661 -0.6933
  479SOL    MW4 1916   3.100   2.160   0.934 -0.4411  0.3181  0.1034
  480SOL     OW 1917   0.712   1.294   0.341  0.2939  0.1072 -0.0333
  480SOL    HW2 1918   0.737   1.361   0.277 -0.1508 -0.1431 -0.4608
  480SOL    HW3 1919   0.621   1.314   0.363  0.6268  0.5744  0.9917
  480SOL    MW4 1920   0.703   1.306   0.336  0.2791  0.1358  0.0455
  481SOL     OW 1921   4.467   3.860   1.099  0.1871 -0.0076 -0.4669
  481SOL    HW2 1922   4.548   3.811   1.086 -0.2891 -0.8026 -0.5316
  481SOL    HW3 1923   4.478   3.902   1.184  0.5085 -0.4447 -0.2890
  481SOL    MW4 1924   4.479   3.859   1.109  0.1667 -0.1702 -0.4519
  482SOL     OW 1925   0.388   0.848   0.485  0.3489 -0.6357 -0.3728
  482SOL    HW2 1926   0.307   0.833   0.435  0.6665 -1.7167 -0.5638
  482SOL    HW3 1927   0.374   0.934   0.526 -1.9891 -1.9288  1.6962
  482SOL    MW4 1928   0.375   0.858   0.484  0.0823 -0.9489 -0.1250
  483SOL     OW 1929   1.125   1.274   1.122  0.3605  0.1396 -0.0781
  483SOL    HW2 1930   1.200   1.332   1.106  1.1796 -0.6800  0.7972
  483SOL    HW3 1931   1.114   1.275   1.217  0.3666 -1.1365 -0.0617
  483SOL    MW4 1932   1.134   1.282   1.132  0.4693 -0.1369  0.0395
  484SOL     OW 1933   1.384   3.234   1.128  0.2552 -0.1727 -0.0829
  484SOL    HW2 1934   1.299   3.269   1.103 -0.7509 -0.2941  2.9643
  484SOL    HW3 1935   1.380   3.142   1.105 -0.4924 -0.2033  0.1635
  484SOL    MW4 1936   1.373   3.227   1.122  0.0238 -0.1927  0.3516
  485SOL     OW 1937   1.583   4.647   1.452 -0.0741  0.2964 -0.0629
  485SOL    HW2 1938   1.664   4.690   1.425 -0.8815  1.3010 -0.8896
  485SOL    HW3 1939   1.584   4.652   1.548  0.7476  0.4616 -0.0774
  485SOL    MW4 1940   1.594   4.653   1.461 -0.0722  0.4507 -0.1739
  486SOL     OW 1941   3.766   1.494   0.346 -0.1875 -0.0743 -0.3421
  486SOL    HW2 1942   3.698   1.558   0.322  0.0941  0.0277 -0.8768
  486SOL    HW3 1943   3.849   1.538   0.324  0.0347 -0.3498 -0.0567
  486SOL    MW4 1944   3.768   1.509   0.340 -0.1210 -0.0972 -0.3750
  487SOL     OW 1945   3.163   3.216   1.087  0.0590  0.4438  0.1461
  487SOL    HW2 1946   3.223   3.286   1.062  0.2872  0.2838  0.2379
  487SOL    HW3 1947   3.079   3.242   1.051 -0.3096  1.7359  1.8865
  487SOL    MW4 1948   3.160   3.228   1.079  0.0405  0.5932  0.3879
  488SOL     OW 1949   2.383   4.260   0.390  0.0214  0.0581  0.3358
  488SOL    HW2 1950   2.469   4.280   0.355 -0.3453  1.7094  0.3213
  488SOL    HW3 1951   2.384   4.296   0.479 -0.7600  0.4308  0.2079
  488SOL    MW4 1952   2.394   4.268   0.397 -0.1301  0.3251  0.3170
  489SOL     OW 1953   0.768   3.120   0.561  0.1005 -0.3696  0.1753
  489SOL    HW2 1954   0.804   3.072   0.635 -0.2792 -0.7032  0.1469
  489SOL    HW3 1955   0.838   3.121   0.496  0.0244 -1.0938  0.0830
  489SOL    MW4 1956   0.782   3.114   0.562  0.0404 -0.5092  0.1594
  490SOL     OW 1957   0.648   0.523   1.039 -0.3243 -0.1690 -0.1855
  490SOL    HW2 1958   0.732   0.561   1.014  0.1791 -0.7438  0.5990
  490SOL    HW3 1959   0.657   0.506   1.133 -0.3222 -2.6923 -0.6031
  490SOL    MW4 1960   0.661   0.526   1.048 -0.2576 -0.5777 -0.1371
  491SOL     OW 1961   4.263   2.096   1.071 -0.2955  0.2854 -0.1496
  491SOL    HW2 1962   4.258   2.002   1.052  0.8672  0.3503 -0.8261
  491SOL    HW3 1963   4.256   2.101   1.166  0.0952 -0.5301 -0.0733
  491SOL    MW4 1964   4.261   2.084   1.081 -0.0905  0.1863 -0.2288
  492SOL     OW 1965   4.190   3.488   0.762  0.3508 -0.3793  0.4700
  492SOL    HW2 1966   4.113   3.532   0.728  0.7622 -0.5271 -0.6722
  492SOL    HW3 1967   4.263   3.522   0.710  0.8319 -1.4521  0.4207
  492SOL    MW4 1968   4.189   3.498   0.751  0.4685 -0.5404  0.3128
  493SOL     OW 1969   0.576   2.084   0.354 -0.0088 -0.2085 -0.3342
  493SOL    HW2 1970   0.512   2.080   0.425 -0.3590 -1.7038 -0.7242
  493SOL    HW3 1971   0.619   2.168   0.366 -1.7591  0.6394  0.1860
  493SOL    MW4 1972   0.573   2.094   0.365 -0.2860 -0.2939 -0.3170
  494SOL     OW 1973   1.037   1.418   0.254  0.2374  0.0071  0.4728
  494SOL    HW2 1974   0.965   1.429   0.193  0.7079 -0.1288 -0.1157
  494SOL    HW3 1975   0.998   1.430   0.340 -0.3305  0.7168  0.1184
  494SOL    MW4 1976   1.023   1.421   0.257  0.2245  0.0828  0.3484
  495SOL     OW 1977   2.755   1.073   0.343 -0.3194 -0.1199 -0.3174
  495SOL    HW2 1978   2.706   1.133   0.287 -0.5600  0.2119  0.2483
  495SOL    HW3 1979   2.713   0.988   0.329 -1.1572  0.1933  0.2872
  495SOL    MW4 1980   2.743   1.070   0.334 -0.4617 -0.0348 -0.1630
  496SOL     OW 1981   4.414   1.513   0.374 -0.3994 -0.6416  0.1450
  496SOL    HW2 1982   4.415   1.606   0.398 -1.1309 -0.6496  0.2222
  496SOL    HW3 1983   4.397   1.467   0.457 -2.2764 -0.7078 -0.2404
  496SOL    MW4 1984   4.412   1.519   0.388 -0.7435 -0.6514  0.1043
  497SOL     OW 1985   3.559   3.982   1.155 -0.1868  0.2394 -0.0770
  497SOL    HW2 1986   3.643   4.020   1.127 -0.1209  1.1349  1.3220
  497SOL    HW3 1987   3.498   4.006   1.085  0.3820  0.8948 -0.3566
  497SOL    MW4 1988   3.562   3.990   1.142 -0.1031  0.4440  0.0707
  498SOL     OW 1989   2.233   3.470   0.755 -0.0612 -0.3900  0.0918
  498SOL    HW2 1990   2.166   3.441   0.693  0.7111  0.1667 -1.0037
  498SOL    HW3 1991   2.183   3.492   0.834 -1.1244 -0.4418 -0.5513
  498SOL    MW4 1992   2.217   3.469   0.758 -0.0996 -0.3234 -0.1376
  499SOL     OW 1993   4.234   3.419   1.042 -0.5501  0.0655  0.5932
  499SOL    HW2 1994   4.165   3.355   1.062  0.5532 -1.3791 -0.0709
  499SOL    HW3 1995   4.223   3.438   0.949  0.3080 -0.6411  0.3372
  499SOL    MW4 1996   4.224   3.413   1.032 -0.2913 -0.2184  0.4718
  500SOL     OW 1997   2.374   4.415   0.617 -0.2972 -0.2970  0.3735
  500SOL    HW2 1998   2.453   4.426   0.670  1.3184 -0.3406 -1.9454
  500SOL    HW3 1999   2.366   4.496   0.568 -2.1013 -0.0302  1.0647
  500SOL    MW4 2000   2.383   4.427   0.617 -0.3220 -0.2676  0.1588
  501SOL     OW 2001   1.796   3.571   0.598 -0.1619  0.3696  0.0642
  501SOL    HW2 2002   1.878   3.619   0.582 -0.5989  0.6727 -1.3212
  501SOL    HW3 2003   1.727   3.636   0.586 -0.6614 -0.1556  0.0780
  501SOL    MW4 2004   1.798   3.586   0.594 -0.2854  0.3403 -0.1168
  502SOL     OW 2005   3.372   4.364   1.310  0.2235 -0.1909  0.2680
  502SOL    HW2 2006   3.445   4.316   1.348 -0.1686 -1.4052 -0.4864
  502SOL    HW3 2007   3.294   4.319   1.342 -0.1718  0.4935  0.2803
  502SOL    MW4 2008   3.371   4.352   1.319  0.1196 -0.2608  0.1701
  503SOL     OW 2009   3.285   1.748   1.084  0.1335  0.1983 -0.1936
  503SOL    HW2 2010   3.232   1.729   1.007 -2.6422 -0.6927  1.8982
  503SOL    HW3 2011   3.291   1.844   1.086  1.5192  0.1986 -2.3051
  503SOL    MW4 2012   3.279   1.758   1.074 -0.0499  0.0808 -0.1962
  504SOL     OW 2013   1.248   4.484   1.030 -0.0342  0.2967  0.3321
  504SOL    HW2 2014   1.246   4.579   1.023  0.8330  0.2270 -1.1879
  504SOL    HW3 2015   1.332   4.464   1.071 -0.1528  0.1763  0.5197
  504SOL    MW4 2016   1.259   4.494   1.034  0.0646  0.2716  0.1563
  505SOL     OW 2017   0.302   0.178   0.302  0.6180 -0.4429 -0.9220
  505SOL    HW2 2018   0.225   0.122   0.305  0.7209 -0.5155  0.7510
  505SOL    HW3 2019   0.375   0.118   0.289  0.7088 -0.7018  0.6831
  505SOL    MW4 2020   0.302   0.163   0.301  0.6435 -0.4866 -0.4895
  506SOL     OW 2021   0.785   0.032   0.675  0.0604  0.1667  0.0207
  506SOL    HW2 2022   0.869   0.078   0.672 -1.1125  2.3358 -1.2205
  506SOL    HW3 2023   0.789  -0.030   0.603  0.8238 -0.1552  0.3360
  506SOL    MW4 2024   0.796   0.030   0.665  0.0064  0.4104 -0.1014
  507SOL     OW 2025   4.074   3.830   0.250 -0.9636  0.4100  0.0047
  507SOL    HW2 2026   4.047   3.758   0.307  0.0139 -0.5132 -0.6836
  507SOL    HW3 2027   4.122   3.889   0.307 -1.5216  0.3742  0.5147
  507SOL    MW4 2028   4.077   3.828   0.265 -0.9083  0.2835 -0.0188
  508SOL     OW 2029   1.610   2.958   0.443  0.1946 -0.3277  0.4771
  508SOL    HW2 2030   1.671   2.890   0.470  0.0342 -0.8267 -0.3997
  508SOL    HW3 2031   1.620   3.027   0.509  1.0726 -0.7745  0.8158
  508SOL    MW4 2032   1.619   2.958   0.455  0.2893 -0.4525  0.4061
  509SOL     OW 2033   2.453   2.790   1.399  0.3665 -0.0074 -0.0478
  509SOL    HW2 2034   2.463   2.801   1.304  0.7994 -1.3819 -0.1650
  509SOL    HW3 2035   2.539   2.758   1.429  0.0054 -0.2890  0.7012
  509SOL    MW4 2036   2.466   2.787   1.391  0.3760 -0.2259  0.0355
  510SOL     OW 2037   1.418   3.648   0.785 -0.3185 -0.0763 -0.3965
  510SOL    HW2 2038   1.422   3.702   0.863 -1.7341 -0.6869  0.1209
  510SOL    HW3 2039   1.483   3.685   0.726 -0.3045  1.3175  0.4867
  510SOL    MW4 2040   1.427   3.660   0.787 -0.5034  0.0271 -0.2117
  511SOL     OW 2041   4.403   0.762   0.193  0.2463  0.3472 -0.0711
  511SOL    HW2 2042   4.365   0.834   0.143  0.4670  0.4179 -0.1375
  511SOL    HW3 2043   4.375   0.778   0.283 -0.6760 -0.1245 -0.2604
  511SOL    MW4 2044   4.394   0.773   0.198  0.1538  0.2943 -0.1049
  512SOL     OW 2045   0.901   3.985   1.417 -0.0788  0.3334  0.0882
  512SOL    HW2 2046   0.819   3.939   1.401 -0.3105  1.4218 -2.0667
  512SOL    HW3 2047   0.875   4.068   1.457  0.0386  0.2343  0.3688
  512SOL    MW4 2048   0.887   3.990   1.420 -0.0939  0.4639 -0.1591
  513SOL     OW 2049   4.418   4.263   0.622  0.0976 -0.3899  0.2678
  513SOL    HW2 2050   4.475   4.192   0.593 -0.1681 -0.2797 -0.5521
  513SOL    HW3 2051   4.473   4.317   0.679  0.0347 -1.7443  1.6204
  513SOL    MW4 2052   4.433   4.261   0.626  0.0543 -0.5540  0.3381
  514SOL     OW 2053   0.451   0.117   1.086  0.2560  0.0517  0.1036
  514SOL    HW2 2054   0.464   0.077   1.173  1.6451 -0.2509 -0.2315
  514SOL    HW3 2055   0.528   0.172   1.073 -0.0799  0.3087 -0.8259
  514SOL    MW4 2056   0.463   0.119   1.096  0.3950  0.0457 -0.0633
  515SOL     OW 2057   0.688   0.358   0.272  0.3446  0.6202  0.5222
  515SOL    HW2 2058   0.781   0.381   0.269  0.2491  1.0215  0.6100
  515SOL    HW3 2059   0.648   0.410   0.202  0.0145  1.2401  1.1645
  515SOL    MW4 2060   0.695   0.368   0.262  0.2885  0.7550  0.6185
  516SOL     OW 2061   2.713   2.433   1.350  0.0542  0.2285 -0.0197
  516SOL    HW2 2062   2.714   2.421   1.255 -1.2248  2.0033 -0.2784
  516SOL    HW3 2063   2.784   2.376   1.382 -0.3933 -1.4208 -1.8825
  516SOL    MW4 2064   2.723   2.424   1.342 -0.1736  0.2450 -0.2996
  517SOL     OW 2065   3.715   0.692   0.689  0.1021  0.1959 -0.0746
  517SOL    HW2 2066   3.809   0.697   0.671  0.1236 -0.7971 -0.2924
  517SOL    HW3 2067   3.678   0.769   0.647  0.6130 -0.2839 -1.4345
  517SOL    MW4 2068   3.722   0.703   0.681  0.1723  0.0016 -0.2827
  518SOL     OW 2069   1.976   2.723   0.715  0.2549 -0.4760  0.1530
  518SOL    HW2 2070   2.001   2.813   0.736  0.4888 -0.4712 -0.1377
  518SOL    HW3 2071   2.052   2.687   0.670  0.1843 -0.8405  0.3242
  518SOL    MW4 2072   1.990   2.730   0.712  0.2765 -0.5234  0.1372
  519SOL     OW 2073   2.452   0.103   0.244  0.3899 -0.1706 -0.0265
  519SOL    HW2 2074   2.541   0.134   0.228  0.4822 -0.1382  0.5206
  519SOL    HW3 2075   2.396   0.174   0.213  0.5255 -0.6549 -1.3755
  519SOL    MW4 2076   2.457   0.117   0.238  0.4200 -0.2302 -0.1323
  520SOL     OW 2077   0.797   4.446   1.170 -0.3522  0.3007 -0.0730
  520SOL    HW2 2078   0.884   4.409   1.154 -1.0450 -1.7859  0.8528
  520SOL    HW3 2079   0.768   4.476   1.084  0.6642 -0.3652 -0.6617
  520SOL    MW4 2080   0.805   4.445   1.157 -0.3095 -0.0624 -0.0285
  521SOL     OW 2081   1.127   0.682   1.485  0.1327 -0.1953 -0.0721
  521SOL    HW2 2082   1.205   0.727   1.453 -0.3983 -0.2503 -1.4732
  521SOL    HW3 2083   1.127   0.698   1.580  1.6174  0.1318 -0.1257
  521SOL    MW4 2084   1.137   0.690   1.493  0.2585 -0.1594 -0.2640
  522SOL     OW 2085   0.664   2.079   1.372 -0.2795  0.4911 -0.2038
  522SOL    HW2 2086   0.689   2.097   1.281 -0.1346 -0.2698 -0.3234
  522SOL    HW3 2087   0.677   2.162   1.418  0.3130  0.6980 -0.7352
  522SOL    MW4 2088   0.669   2.092   1.366 -0.1822  0.4180 -0.2897
  523SOL     OW 2089   2.579   3.162   0.100  0.6278 -0.1694  0.3166
  523SOL    HW2 2090   2.532   3.131   0.022  1.9898 -0.7726 -0.2827
  523SOL    HW3 2091   2.541   3.113   0.172 -1.6415  1.4187  0.2534
  523SOL    MW4 2092   2.568   3.151   0.099  0.5081 -0.0395  0.2292
  524SOL     OW 2093   0.233   4.387   1.049  0.5754 -0.0903 -0.3215
  524SOL    HW2 2094   0.151   4.423   1.016  1.9417  1.9868 -1.6144
  524SOL    HW3 2095   0.227   4.397   1.144 -0.8499 -0.4259 -0.3623
  524SOL    MW4 2096   0.222   4.393   1.057  0.5676  0.1394 -0.4975
  525SOL     OW 2097   4.220   0.539   1.112  0.1188  0.9160  0.5543
  525SOL    HW2 2098   4.238   0.509   1.201  0.6443  1.4688  0.6384
  525SOL    HW3 2099   4.304   0.572   1.081 -0.0786  0.7832 -0.1290
  525SOL    MW4 2100   4.234   0.539   1.119  0.1621  0.9714  0.4753
  526SOL     OW 2101   2.617   3.435   0.204  0.0231 -0.4040 -0.4716
  526SOL    HW2 2102   2.540   3.456   0.257 -0.6397 -0.1368 -1.5140
  526SOL    HW3 2103   2.607   3.342   0.182  0.7827 -0.7592  0.6378
  526SOL    MW4 2104   2.605   3.425   0.208  0.0359 -0.4156 -0.4627
  527SOL     OW 2105   1.235   3.340   0.195 -0.3041  0.0632  0.4402
  527SOL    HW2 2106   1.309   3.295   0.156  0.0418  2.2017 -1.5163
  527SOL    HW3 2107   1.271   3.422   0.229 -1.6344  0.7858  0.1596
  527SOL    MW4 2108   1.249   3.345   0.195 -0.4340  0.4407  0.1451
  528SOL     OW 2109   4.264   2.563   1.008 -0.0465  0.5173 -0.2840
  528SOL    HW2 2110   4.171   2.545   1.026  0.5782 -0.4720  2.2259
  528SOL    HW3 2111   4.276   2.538   0.917 -1.9930 -0.4866 -0.2937
  528SOL    MW4 2112   4.253   2.557   0.999 -0.2209  0.2543  0.0459
  529SOL     OW 2113   3.386   4.107   0.954 -0.0838 -0.3837 -0.0027
  529SOL    HW2 2114   3.381   4.199   0.982  0.5633 -0.3509  0.0233
  529SOL    HW3 2115   3.305   4.068   0.985 -0.4734  0.2412 -0.2200
  529SOL    MW4 2116   3.375   4.114   0.962 -0.0498 -0.2969 -0.0280
  530SOL     OW 2117   1.708   4.116   0.489  0.0618 -0.1376 -0.0179
  530SOL    HW2 2118   1.701   4.030   0.447  0.5441 -0.9170  1.4590
  530SOL    HW3 2119   1.758   4.099   0.569  0.9427  1.6903 -0.1701
  530SOL    MW4 2120   1.714   4.102   0.494  0.2417  0.0007  0.1569
  531SOL     OW 2121   2.795   2.605   0.317 -0.1383  0.0556 -0.3526
  531SOL    HW2 2122   2.773   2.552   0.393 -0.4907  0.3883 -0.2207
  531SOL    HW3 2123   2.889   2.591   0.304 -0.5837 -2.0391 -1.4522
  531SOL    MW4 2124   2.805   2.596   0.325 -0.2436 -0.1769 -0.4802
  532SOL     OW 2125   2.968   3.888   1.744 -0.3110  0.3744 -0.6269
  532SOL    HW2 2126   2.942   3.798   1.766 -1.1432  0.4624 -1.2557
  532SOL    HW3 2127   2.966   3.891   1.649  1.7596  0.4664 -0.6978
  532SOL    MW4 2128   2.964   3.877   1.735 -0.1476  0.3982 -0.7192
  533SOL     OW 2129   1.971   4.625   0.585 -0.2794 -0.1150  0.1941
  533SOL    HW2 2130   1.890   4.610   0.634 -0.6083 -0.3925 -0.4280
  533SOL    HW3 2131   2.011   4.701   0.627 -0.3615 -0.5848  1.1414
  533SOL    MW4 2132   1.966   4.633   0.597 -0.3336 -0.2136  0.2370
  534SOL     OW 2133   0.169   0.702   0.347 -0.6608 -0.5899 -0.1006
  534SOL    HW2 2134   0.099   0.700   0.282 -0.5036  1.1872 -0.3347
  534SOL    HW3 2135   0.217   0.621   0.332 -1.3055 -0.7384 -1.4361
  534SOL    MW4 2136   0.166   0.691   0.337 -0.7251 -0.3750 -0.3077
  535SOL     OW 2137   1.576   2.577   1.025 -0.5415 -0.2890  0.1163
  535SOL    HW2 2138   1.576   2.659   1.075  0.1224  0.7944 -1.6295
  535SOL    HW3 2139   1.582   2.605   0.934 -0.4992 -2.2888 -0.4995
  535SOL    MW4 2140   1.576   2.592   1.020 -0.4483 -0.4099 -0.1953
  536SOL     OW 2141   2.261   3.739   1.015  0.0402 -0.4538  0.3888
  536SOL    HW2 2142   2.237   3.831   1.024 -0.4166 -0.6621  1.4256
  536SOL    HW3 2143   2.277   3.727   0.922  0.2802  0.7167  0.2785
  536SOL    MW4 2144   2.260   3.750   1.004  0.0116 -0.3269  0.5111
  537SOL     OW 2145   3.848   3.078   0.444  0.3633 -0.0468  0.0497
  537SOL    HW2 2146   3.910   3.005   0.444  1.0657  0.5410  0.0381
  537SOL    HW3 2147   3.771   3.044   0.399  0.7061 -0.7627 -0.0091
  537SOL    MW4 2148   3.846   3.064   0.438  0.5012 -0.0637  0.0404
  538SOL     OW 2149   1.167   3.777   0.591 -0.1176 -0.4097  0.2046
  538SOL    HW2 2150   1.189   3.684   0.598  0.9630 -0.1899 -0.2100
  538SOL    HW3 2151   1.124   3.784   0.505  0.7871 -0.3315 -0.2412
  538SOL    MW4 2152   1.164   3.765   0.580  0.1443 -0.3704  0.0911
  539SOL     OW 2153   3.331   4.208   0.359  0.0788 -0.1681 -0.5788
  539SOL    HW2 2154   3.416   4.188   0.319 -0.4455 -0.4698 -1.5862
  539SOL    HW3 2155   3.311   4.130   0.412 -0.7954 -1.3032 -2.4966
  539SOL    MW4 2156   3.340   4.195   0.360 -0.1057 -0.3577 -0.9647
  540SOL     OW 2157   0.672   1.529   1.513  0.0223  0.0848 -0.7229
  540SOL    HW2 2158   0.607   1.571   1.456 -1.5511 -0.6649  0.4919
  540SOL    HW3 2159   0.678   1.440   1.480 -0.0735 -0.0418 -0.3947
  540SOL    MW4 2160   0.664   1.523   1.501 -0.1980 -0.0308 -0.5193
  541SOL     OW 2161   1.165   0.509   0.339 -0.5717  0.2267 -0.7582
  541SOL    HW2 2162   1.240   0.546   0.387 -0.7534 -0.5002  0.0977
  541SOL    HW3 2163   1.203   0.445   0.279 -0.4821  0.0486 -0.5111
  541SOL    MW4 2164   1.180   0.506   0.337 -0.5838  0.1073 -0.6127
  542SOL     OW 2165   0.690   4.320   0.544  0.2307  0.3171  0.0128
  542SOL    HW2 2166   0.595   4.320   0.532  0.2951 -0.4589 -0.4744
  542SOL    HW3 2167   0.701   4.312   0.639 -0.1889  0.3160  0.0651
  542SOL    MW4 2168   0.679   4.319   0.555  0.1838  0.2145 -0.0446
  543SOL     OW 2169   0.446   1.330   0.456  0.0189  0.5198  0.1276
  543SOL    HW2 2170   0.402   1.259   0.502 -0.8668  0.9685 -0.0219
  543SOL    HW3 2171   0.376   1.378   0.413  0.7047  0.9192 -0.5627
  543SOL    MW4 2172   0.431   1.327   0.456 -0.0075  0.6317  0.0168
  544SOL     OW 2173   2.901   4.630   1.444  0.3845 -0.7067 -0.1114
  544SOL    HW2 2174   2.930   4.630   1.535 -1.0855  0.3087  0.3896
  544SOL    HW3 2175   2.900   4.538   1.419  1.6480 -0.9311  0.6066
  544SOL    MW4 2176   2.905   4.618   1.453  0.3572 -0.6024  0.0495
  545SOL     OW 2177   2.929   0.209   1.008  0.1137  0.1580 -0.0276
  545SOL    HW2 2178   2.849   0.172   1.046  1.6895 -1.8108  1.4499
  545SOL    HW3 2179   2.927   0.180   0.917 -0.8755  0.1626 -0.0167
  545SOL    MW4 2180   2.918   0.201   1.001  0.1911 -0.1012  0.1687
  546SOL     OW 2181   2.214   3.460   1.489 -0.1085  0.2070  0.0566
  546SOL    HW2 2182   2.145   3.524   1.469  0.5845  1.2842  1.0346
  546SOL    HW3 2183   2.242   3.482   1.577  0.7692 -0.8984  0.0604
  546SOL    MW4 2184   2.209   3.472   1.498  0.0988  0.2033  0.1861
  547SOL     OW 2185   0.587   3.247   0.064  0.5323  0.1556  0.4494
  547SOL    HW2 2186   0.632   3.171   0.101 -0.2594 -0.3432  0.4086
  547SOL    HW3 2187   0.508   3.211   0.024  0.2148  0.9848  0.3105
  547SOL    MW4 2188   0.582   3.232   0.064  0.3860  0.1992  0.4257
  548SOL     OW 2189   2.800   4.206   0.159  0.0118  0.3312  0.2160
  548SOL    HW2 2190   2.891   4.182   0.178  0.4515  1.6601 -0.1832
  548SOL    HW3 2191   2.797   4.210   0.064 -0.6836 -0.4997  0.1965
  548SOL    MW4 2192   2.812   4.203   0.149 -0.0220  0.3969  0.1607
  549SOL     OW 2193   1.203   3.619   1.117 -0.3408  0.2443 -0.1651
  549SOL    HW2 2194   1.123   3.658   1.084 -0.9110 -1.5617 -0.9583
  549SOL    HW3 2195   1.182   3.592   1.207 -1.1688 -1.6741 -0.8928
  549SOL    MW4 2196   1.190   3.620   1.124 -0.5253 -0.2471 -0.3658
  550SOL     OW 2197   4.353   1.353   0.594  0.0804 -0.1533 -0.1163
  550SOL    HW2 2198   4.395   1.411   0.657  0.0071  1.0399 -1.1437
  550SOL    HW3 2199   4.366   1.265   0.630 -0.0751  0.5019  1.6270
  550SOL    MW4 2200   4.360   1.349   0.607  0.0502  0.0906 -0.0218
  551SOL     OW 2201   1.915   3.989   0.223 -0.2956 -0.8623  0.1130
  551SOL    HW2 2202   1.980   3.919   0.228 -0.3617 -0.7961  3.6047
  551SOL    HW3 2203   1.963   4.068   0.247 -1.3800 -0.6416  1.6536
  551SOL    MW4 2204   1.930   3.990   0.227 -0.4474 -0.8245  0.7769
  552SOL     OW 2205   4.079   1.374   0.659  0.3898  0.4622 -0.2071
  552SOL    HW2 2206   4.058   1.283   0.678 -0.0975  0.5686 -0.2393
  552SOL    HW3 2207   4.165   1.371   0.617 -0.6080 -0.1702 -2.2500
  552SOL    MW4 2208   4.088   1.362   0.656  0.1938  0.3928 -0.4809
  553SOL     OW 2209   3.376   1.260   1.398 -0.2203  0.1477 -0.1735
  553SOL    HW2 2210   3.378   1.268   1.303 -1.4078  1.9742 -0.0649
  553SOL    HW3 2211   3.292   1.219   1.417  0.0592 -0.3055  0.0972
  553SOL    MW4 2212   3.365   1.256   1.388 -0.3401  0.3289 -0.1235
  554SOL     OW 2213   1.736   2.445   0.600  0.1462 -0.0012 -0.0658
  554SOL    HW2 2214   1.796   2.443   0.525  0.3529 -0.7895  0.1104
  554SOL    HW3 2215   1.649   2.451   0.561  0.3330  1.1474 -0.3254
  554SOL    MW4 2216   1.733   2.445   0.585  0.1981  0.0463 -0.0768
  555SOL     OW 2217   1.321   2.404   1.385  0.3599 -0.0865  0.5848
  555SOL    HW2 2218   1.322   2.495   1.413 -1.8219  0.0822  0.2526
  555SOL    HW3 2219   1.331   2.408   1.290 -2.1387  0.0075  0.2832
  555SOL    MW4 2220   1.322   2.416   1.376 -0.2576 -0.0519  0.5012
  556SOL     OW 2221   1.792   3.872   0.744 -0.2364  0.1709  0.7936
  556SOL    HW2 2222   1.873   3.860   0.695 -0.1534 -0.0664  0.9885
  556SOL    HW3 2223   1.795   3.964   0.772  0.3808 -0.0664  1.5335
  556SOL    MW4 2224   1.803   3.883   0.741 -0.1441  0.1083  0.9169
  557SOL     OW 2225   1.533   3.155   0.658 -0.0322 -0.0632  0.2293
  557SOL    HW2 2226   1.590   3.084   0.687  0.0116  0.0163  0.3369
  557SOL    HW3 2227   1.569   3.234   0.699  1.5424  0.4491 -2.0171
  557SOL    MW4 2228   1.545   3.156   0.667  0.1813  0.0149 -0.0529
  558SOL     OW 2229   2.496   3.255   0.439 -0.2703 -0.3461 -0.6029
  558SOL    HW2 2230   2.481   3.256   0.533 -2.0888 -2.0600 -0.8612
  558SOL    HW3 2231   2.454   3.335   0.407  0.9794  0.6176  0.1030
  558SOL    MW4 2232   2.489   3.266   0.447 -0.3453 -0.4451 -0.5439
  559SOL     OW 2233   3.364   1.557   0.582  0.2129  0.2536  0.2076
  559SOL    HW2 2234   3.317   1.631   0.619 -0.7629  0.2733 -1.0326
  559SOL    HW3 2235   3.345   1.561   0.488 -0.4979 -1.9985  0.2191
  559SOL    MW4 2236   3.355   1.567   0.574 -0.0096 -0.0409  0.0455
  560SOL     OW 2237   1.103   2.838   1.374 -0.1174  0.2957  0.1858
  560SOL    HW2 2238   1.019   2.805   1.404 -1.0461  1.4889 -1.0049
  560SOL    HW3 2239   1.094   2.843   1.279  0.6271  2.1584  0.1871
  560SOL    MW4 2240   1.091   2.834   1.365 -0.1417  0.6989  0.0289
  561SOL     OW 2241   3.596   2.724   1.484  0.3028 -0.3384  0.0839
  561SOL    HW2 2242   3.603   2.698   1.576 -2.2800  0.2326  0.4899
  561SOL    HW3 2243   3.593   2.641   1.436  0.7693 -0.6555  0.6026
  561SOL    MW4 2244   3.596   2.710   1.490  0.0236 -0.3049  0.2059
  562SOL     OW 2245   0.845   1.890   1.413  0.5987 -0.1798 -0.5629
  562SOL    HW2 2246   0.779   1.959   1.415 -0.1344 -0.8419 -1.5312
  562SOL    HW3 2247   0.928   1.937   1.406  0.1734  0.6356 -0.2562
  562SOL    MW4 2248   0.847   1.906   1.412  0.4459 -0.1596 -0.6502
  563SOL     OW 2249   2.068   3.002   0.777 -0.0484 -0.1648  0.1111
  563SOL    HW2 2250   2.119   3.062   0.722 -0.2267 -0.9108 -0.8952
  563SOL    HW3 2251   2.131   2.968   0.841  0.2892  0.3092  0.0312
  563SOL    MW4 2252   2.083   3.005   0.778 -0.0274 -0.2007 -0.0322
  564SOL     OW 2253   0.250   1.502   1.460 -0.4545  0.1579  0.4279
  564SOL    HW2 2254   0.190   1.573   1.435 -1.1915 -0.2752  0.9528
  564SOL    HW3 2255   0.247   1.501   1.556  1.2064  0.8191  0.5076
  564SOL    MW4 2256   0.242   1.512   1.469 -0.3326  0.1880  0.5077
  565SOL     OW 2257   1.093   4.322   1.392 -0.4892  0.4282  0.1883
  565SOL    HW2 2258   1.100   4.417   1.398 -0.1507  0.3962  0.2901
  565SOL    HW3 2259   1.088   4.304   1.298 -0.1205  0.5150  0.1518
  565SOL    MW4 2260   1.093   4.332   1.381 -0.3959  0.4354  0.1969
  566SOL     OW 2261   1.371   0.635   0.493 -0.8975  0.2589 -0.0851
  566SOL    HW2 2262   1.337   0.607   0.578 -1.7662  0.2502 -0.4303
  566SOL    HW3 2263   1.349   0.729   0.488  2.5900  1.2176  1.3568
  566SOL    MW4 2264   1.363   0.644   0.504 -0.5520  0.3842  0.0596
  567SOL     OW 2265   0.466   3.207   1.390 -0.2941  0.0267  0.4893
  567SOL    HW2 2266   0.469   3.302   1.406  2.5615  0.1809 -0.6450
  567SOL    HW3 2267   0.382   3.180   1.427 -0.9250  2.9005  1.3623
  567SOL    MW4 2268   0.455   3.216   1.397 -0.0006  0.4262  0.4548
  568SOL     OW 2269   0.883   0.075   1.394 -0.1121 -0.0472 -0.3603
  568SOL    HW2 2270   0.882   0.093   1.300  0.8748 -1.1161 -0.5911
  568SOL    HW3 2271   0.967   0.031   1.409 -0.7587 -0.9140  0.8165
  568SOL    MW4 2272   0.894   0.071   1.384 -0.0672 -0.3026 -0.2355
  569SOL     OW 2273   0.709   2.868   1.167 -0.2305  0.0941  0.0944
  569SOL    HW2 2274   0.621   2.904   1.150 -0.1095  0.2426 -0.2175
  569SOL    HW3 2275   0.719   2.874   1.262 -0.0178  1.3579  0.0068
  569SOL    MW4 2276   0.698   2.874   1.177 -0.1865  0.2804  0.0417
  570SOL     OW 2277   0.123   1.036   0.719 -0.2117 -0.2314 -0.0583
  570SOL    HW2 2278   0.034   1.069   0.725 -0.2043  0.1200 -1.6826
  570SOL    HW3 2279   0.114   0.945   0.693 -0.1193 -0.4055  0.5194
  570SOL    MW4 2280   0.110   1.029   0.716 -0.1985 -0.2080 -0.1964
  571SOL     OW 2281   0.031   2.196   1.053 -0.0275  0.0769  0.0404
  571SOL    HW2 2282   0.025   2.289   1.076  0.6568 -0.3151  1.8878
  571SOL    HW3 2283  -0.059   2.166   1.048 -0.2787  1.0117 -1.3533
  571SOL    MW4 2284   0.019   2.205   1.055  0.0296  0.1486  0.1002
  572SOL     OW 2285   0.641   1.287   1.399  0.4060  0.0817 -0.0803
  572SOL    HW2 2286   0.711   1.222   1.405 -0.2776 -0.5486  1.4484
  572SOL    HW3 2287   0.565   1.244   1.440 -0.8885  0.7322 -1.7452
  572SOL    MW4 2288   0.640   1.273   1.406  0.1450  0.0844 -0.0982
  573SOL     OW 2289   2.938   3.848   1.432 -0.0211 -0.6233  0.1093
  573SOL    HW2 2290   2.924   3.761   1.393 -0.0415 -0.9233  0.7827
  573SOL    HW3 2291   2.854   3.892   1.424 -0.3269 -1.0837  0.8074
  573SOL    MW4 2292   2.925   3.842   1.426 -0.0641 -0.7236  0.2902
  574SOL     OW 2293   3.387   0.828   1.406  0.0109 -0.8959  0.1293
  574SOL    HW2 2294   3.375   0.736   1.382 -1.0791 -0.9056  0.6708
  574SOL    HW3 2295   3.400   0.827   1.501  0.0489 -0.4968  0.1296
  574SOL    MW4 2296   3.387   0.815   1.415 -0.1279 -0.8445  0.2007
  575SOL     OW 2297   1.865   0.068   9.983 -0.2490  0.0571 -0.0955
  575SOL    HW2 2298   1.847   0.074   9.889 -0.3192  0.7589 -0.0441
  575SOL    HW3 2299   1.780   0.082  10.025 -0.3782 -1.1306  0.0618
  575SOL    MW4 2300   1.852   0.071   9.976 -0.2753 -0.0070 -0.0679
  576SOL     OW 2301   1.585   2.820   1.151  0.8384 -0.2218  0.0199
  576SOL    HW2 2302   1.651   2.878   1.112 -0.0153  1.4329  0.9558
  576SOL    HW3 2303   1.501   2.865   1.135  0.4658  0.7523  4.0091
  576SOL    MW4 2304   1.582   2.834   1.144  0.6766  0.1250  0.6697
  577SOL     OW 2305   1.077   0.453   1.338  0.1339  0.3750  0.0089
  577SOL    HW2 2306   1.072   0.545   1.362 -0.3580  0.3489  0.0021
  577SOL    HW3 2307   1.014   0.409   1.395 -0.5033  0.2134 -0.8024
  577SOL    MW4 2308   1.068   0.459   1.349 -0.0151  0.3502 -0.0991
  578SOL     OW 2309   0.908   0.844   1.401 -0.0002 -0.5492 -0.1900
  578SOL    HW2 2310   0.925   0.876   1.313  1.3315  0.9523  0.6074
  578SOL    HW3 2311   0.983   0.787   1.422  0.0581 -0.3153  0.2541
  578SOL    MW4 2312   0.920   0.841   1.392  0.1832 -0.3202 -0.0262
  579SOL     OW 2313   2.489   3.328   0.996 -0.1768 -0.2016 -0.6476
  579SOL    HW2 2314   2.564   3.275   1.022 -0.3999 -0.3752 -0.3489
  579SOL    HW3 2315   2.505   3.414   1.034 -0.2582 -0.3145 -0.3559
  579SOL    MW4 2316   2.501   3.332   1.004 -0.2170 -0.2394 -0.5697
  580SOL     OW 2317   3.586   0.239   0.237 -0.1112  0.2091  0.2474
  580SOL    HW2 2318   3.681   0.238   0.222  0.0817 -1.0753  1.4776
  580SOL    HW3 2319   3.567   0.331   0.256  1.3620  0.0695  2.6705
  580SOL    MW4 2320   3.596   0.251   0.238  0.1086  0.0212  0.7294
  581SOL     OW 2321   4.472   3.283   1.127 -0.1717  0.3096  0.0956
  581SOL    HW2 2322   4.487   3.272   1.221 -0.9166 -0.8303  0.1016
  581SOL    HW3 2323   4.386   3.326   1.122  0.1968  1.0341 -0.0537
  581SOL    MW4 2324   4.463   3.287   1.139 -0.2213  0.2548  0.0767
  582SOL     OW 2325   2.948   0.135   0.738 -0.1584 -0.1749 -0.3622
  582SOL    HW2 2326   2.869   0.097   0.699  0.5146  0.3404 -2.2622
  582SOL    HW3 2327   3.019   0.077   0.713  0.6058  1.3185 -1.7657
  582SOL    MW4 2328   2.947   0.123   0.730  0.0312  0.0902 -0.7980
  583SOL     OW 2329   0.072   1.676   1.354 -0.3267 -0.6444  0.2755
  583SOL    HW2 2330   0.065   1.766   1.386  0.9197 -0.9596  1.4791
  583SOL    HW3 2331  -0.011   1.635   1.380 -0.8527  0.1104 -0.1776
  583SOL    MW4 2332   0.060   1.682   1.362 -0.2317 -0.5864  0.3745
  584SOL     OW 2333   1.414   3.787   1.040 -0.2837  0.2836 -0.1376
  584SOL    HW2 2334   1.481   3.732   1.082 -0.9745 -0.0807  0.5014
  584SOL    HW3 2335   1.331   3.743   1.060 -0.7932  1.2241 -0.1529
  584SOL    MW4 2336   1.412   3.774   1.048 -0.4421  0.3596 -0.0553
  585SOL     OW 2337   1.537   4.430   0.729 -0.1734 -0.1944 -0.0713
  585SOL    HW2 2338   1.447   4.460   0.741 -0.2727 -0.5377  0.0366
  585SOL    HW3 2339   1.532   4.335   0.737  0.1526 -0.2362 -0.3606
  585SOL    MW4 2340   1.524   4.422   0.732 -0.1435 -0.2452 -0.0952
  586SOL     OW 2341   2.680   1.163   1.446 -0.2491 -0.0880  0.2133
  586SOL    HW2 2342   2.701   1.145   1.538 -0.0029  0.2996  0.2322
  586SOL    HW3 2343   2.755   1.213   1.414  0.4797 -1.7099 -0.6755
  586SOL    MW4 2344   2.693   1.167   1.454 -0.1205 -0.2508  0.0985
  587SOL     OW 2345   0.031   1.121   1.506 -0.0406  0.0548  0.0113
  587SOL    HW2 2346   0.002   1.038   1.468  1.1987 -0.6550  0.5956
  587SOL    HW3 2347   0.024   1.109   1.600  0.9236  0.3165  0.1237
  587SOL    MW4 2348   0.026   1.108   1.513  0.2502 -0.0043  0.1032
  588SOL     OW 2349   2.703   2.897   0.999 -0.1784  0.2466 -0.4260
  588SOL    HW2 2350   2.621   2.874   1.043 -0.0892 -0.1390 -0.4578
  588SOL    HW3 2351   2.771   2.858   1.053  0.1419  2.5133  0.8715
  588SOL    MW4 2352   2.701   2.889   1.012 -0.1244  0.4948 -0.2590
  589SOL     OW 2353   1.551   1.984   0.690  0.4373 -0.0333 -0.2708
  589SOL    HW2 2354   1.609   2.059   0.706  1.0460 -0.4623 -0.4297
  589SOL    HW3 2355   1.513   2.002   0.604 -0.8462  0.9985  0.5003
  589SOL    MW4 2356   1.554   1.997   0.681  0.3483  0.0462 -0.1900
  590SOL     OW 2357   2.894   0.759   1.478  0.2485  0.2545  0.0993
  590SOL    HW2 2358   2.965   0.814   1.444  0.5199 -0.9570 -1.3206
  590SOL    HW3 2359   2.814   0.796   1.439 -0.0891  2.3630  2.6304
  590SOL    MW4 2360   2.893   0.771   1.468  0.2397  0.3729  0.2459
  591SOL     OW 2361   2.951   0.403   0.637  0.0294  0.2281 -0.4924
  591SOL    HW2 2362   2.952   0.313   0.669 -0.1762 -0.3588 -2.1199
  591SOL    HW3 2363   3.025   0.445   0.682  1.1513 -1.1911 -0.9832
  591SOL    MW4 2364   2.961   0.397   0.647  0.1503 -0.0366 -0.7719
  592SOL     OW 2365   0.768   1.475   0.154 -0.3089 -0.1904 -0.5764
  592SOL    HW2 2366   0.736   1.540   0.216 -0.4618 -0.0624 -0.7887
  592SOL    HW3 2367   0.724   1.496   0.071  1.8147  1.2202 -1.3833
  592SOL    MW4 2368   0.758   1.486   0.151 -0.0489  0.0126 -0.7109
  593SOL     OW 2369   1.499   0.517   1.110 -0.2671 -0.2459 -0.1836
  593SOL    HW2 2370   1.509   0.512   1.205  1.0642 -1.4379 -0.3761
  593SOL    HW3 2371   1.582   0.554   1.079 -0.8229  0.4636 -0.8616
  593SOL    MW4 2372   1.511   0.521   1.118 -0.1648 -0.3096 -0.2985
  594SOL     OW 2373   0.258   0.493   1.391 -0.4896  0.2546  0.2543
  594SOL    HW2 2374   0.256   0.584   1.420 -2.6360 -0.0695  1.2321
  594SOL    HW3 2375   0.247   0.497   1.296  1.2683  1.0783  0.0700
  594SOL    MW4 2376   0.256   0.505   1.382 -0.5409  0.3205  0.3590
  595SOL     OW 2377   3.135   1.144   1.448 -0.2654 -0.3998 -0.2255
  595SOL    HW2 2378   3.062   1.201   1.423 -0.4269 -0.4545  0.1056
  595SOL    HW3 2379   3.125   1.134   1.543  1.5010  1.4401  0.1883
  595SOL    MW4 2380   3.124   1.150   1.457 -0.0537 -0.1642 -0.1272
  596SOL     OW 2381   3.301   2.132   0.398 -0.4664 -0.3935 -0.3620
  596SOL    HW2 2382   3.299   2.143   0.493  1.5143 -0.1409 -0.3252
  596SOL    HW3 2383   3.367   2.064   0.383 -2.0471 -1.7449 -1.4713
  596SOL    MW4 2384   3.309   2.124   0.408 -0.4136 -0.5384 -0.5035
  597SOL     OW 2385   3.586   2.426   1.101  0.7108  0.1538 -0.0769
  597SOL    HW2 2386   3.649   2.490   1.070  1.1157  0.3737  1.1798
  597SOL    HW3 2387   3.501   2.469   1.093  1.0444  1.1661  1.4779
  597SOL    MW4 2388   3.583   2.440   1.096  0.8083  0.3164  0.2940
  598SOL     OW 2389   1.295   0.906   0.486 -0.3581 -0.2363 -0.2053
  598SOL    HW2 2390   1.232   0.938   0.422 -0.4522  0.8883  0.4418
  598SOL    HW3 2391   1.249   0.910   0.570 -0.7820 -3.1862 -0.2261
  598SOL    MW4 2392   1.281   0.911   0.489 -0.4265 -0.4772 -0.1227
  599SOL     OW 2393   2.640   4.351   0.330 -0.4009 -0.2213 -0.0485
  599SOL    HW2 2394   2.692   4.316   0.258 -1.8229  1.6997 -2.0982
  599SOL    HW3 2395   2.661   4.444   0.331 -0.7736 -0.1474  1.6928
  599SOL    MW4 2396   2.649   4.359   0.321 -0.6377  0.0419 -0.0892
  600SOL     OW 2397   3.628   3.000   0.777  0.0434 -0.1283 -0.1716
  600SOL    HW2 2398   3.717   3.035   0.770  0.4949 -1.3222 -0.6473
  600SOL    HW3 2399   3.609   3.001   0.871  0.5453  0.1785 -0.0731
  600SOL    MW4 2400   3.637   3.005   0.788  0.1692 -0.2453 -0.2214
  601SOL     OW 2401   0.185   3.678   1.084 -0.0621  0.1068  0.0135
  601SOL    HW2 2402   0.185   3.584   1.064  0.2336 -0.4618  2.5624
  601SOL    HW3 2403   0.269   3.709   1.051  0.9425 -1.0560  1.4260
  601SOL    MW4 2404   0.196   3.670   1.077  0.1095 -0.1216  0.5362
  602SOL     OW 2405   2.686   0.440   0.658  0.3179  0.1505 -0.5009
  602SOL    HW2 2406   2.781   0.426   0.654  0.5986  1.7424  0.1386
  602SOL    HW3 2407   2.651   0.360   0.696  1.5443  0.0458  0.4393
  602SOL    MW4 2408   2.694   0.428   0.662  0.5167  0.3467 -0.2925
  603SOL     OW 2409   0.074   3.364   0.360 -0.0080  0.0683  0.1668
  603SOL    HW2 2410   0.077   3.425   0.287 -1.9952 -1.5456 -1.3376
  603SOL    HW3 2411   0.130   3.403   0.427  1.2644  1.9438 -1.9349
  603SOL    MW4 2412   0.081   3.377   0.359 -0.1023  0.1028 -0.3090
  604SOL     OW 2413   0.976   3.975   1.143 -0.0114  0.0912 -0.1195
  604SOL    HW2 2414   0.947   3.982   1.234  2.0539 -0.4717  0.6182
  604SOL    HW3 2415   0.906   4.015   1.092 -1.0182  0.7680  1.7524
  604SOL    MW4 2416   0.963   3.981   1.149  0.1283  0.1062  0.2248
  605SOL     OW 2417   0.018   2.575   0.354  0.2400 -0.8176 -0.0680
  605SOL    HW2 2418  -0.005   2.666   0.370 -1.3332 -0.9492 -1.4510
  605SOL    HW3 2419   0.110   2.578   0.325  0.3788  0.2545  0.4710
  605SOL    MW4 2420   0.027   2.587   0.352  0.0507 -0.6935 -0.1794
  606SOL     OW 2421   0.917   2.700   0.578 -0.0587 -0.2850  0.0044
  606SOL    HW2 2422   1.005   2.694   0.615  0.3072 -1.3562 -1.0350
  606SOL    HW3 2423   0.928   2.681   0.485 -1.6851 -2.5228  0.2313
  606SOL    MW4 2424   0.930   2.697   0.570 -0.2250 -0.7216 -0.1028
  607SOL     OW 2425   1.973   1.161   0.646  0.2058  0.4251  0.0364
  607SOL    HW2 2426   1.904   1.208   0.694  0.2163 -0.1783  0.6516
  607SOL    HW3 2427   1.942   1.159   0.556 -0.3208  0.6483  0.2098
  607SOL    MW4 2428   1.959   1.167   0.641  0.1377  0.3750  0.1404
  608SOL     OW 2429   2.311   3.969   0.294  0.2817  0.1502 -0.6545
  608SOL    HW2 2430   2.399   3.997   0.270  0.9631 -0.6849  0.8140
  608SOL    HW3 2431   2.273   4.045   0.339  1.0108 -0.1885  0.5567
  608SOL    MW4 2432   2.318   3.983   0.297  0.4678 -0.0046 -0.3009
  609SOL     OW 2433   1.727   0.644   1.028 -0.2310  0.2070 -0.0211
  609SOL    HW2 2434   1.692   0.650   0.939 -0.0878 -0.7452 -0.1499
  609SOL    HW3 2435   1.795   0.576   1.022  0.1086  0.4838  0.7097
  609SOL    MW4 2436   1.731   0.635   1.015 -0.1673  0.1179  0.0583
  610SOL     OW 2437   1.025   0.446   0.589  0.2340  0.0136 -0.0891
  610SOL    HW2 2438   1.051   0.456   0.498  0.5130 -0.4890 -0.0644
  610SOL    HW3 2439   0.987   0.531   0.613 -0.4449 -0.0650 -0.8640
  610SOL    MW4 2440   1.023   0.458   0.580  0.1812 -0.0631 -0.1881
  611SOL     OW 2441   2.371   0.371   0.410 -0.3987  0.3357  0.2992
  611SOL    HW2 2442   2.348   0.452   0.455  1.9356 -0.3797  2.9350
  611SOL    HW3 2443   2.356   0.302   0.475  1.2247 -0.9318 -0.6043
  611SOL    MW4 2444   2.366   0.372   0.425  0.1235  0.0741  0.5278
  612SOL     OW 2445   3.897   4.562   0.563 -0.0540  0.4802 -0.1330
  612SOL    HW2 2446   3.851   4.645   0.545 -0.7437  0.4286  1.3191
  612SOL    HW3 2447   3.839   4.515   0.623  1.2295 -0.2258  0.5744
  612SOL    MW4 2448   3.883   4.567   0.569  0.0243  0.3802  0.1519
  613SOL     OW 2449   3.779   0.475   1.350 -0.1851 -0.4753  0.3687
  613SOL    HW2 2450   3.777   0.562   1.390  1.3948  0.3778 -1.3096
  613SOL    HW3 2451   3.775   0.492   1.255 -1.4203 -2.3156  0.0693
  613SOL    MW4 2452   3.778   0.489   1.342 -0.1396 -0.6055  0.1078
  614SOL     OW 2453   2.670   2.162   1.002 -0.2653  0.6297  0.0653
  614SOL    HW2 2454   2.682   2.169   0.907  0.2014 -0.9899 -0.0257
  614SOL    HW3 2455   2.579   2.136   1.013 -0.3481  0.9209  0.0665
  614SOL    MW4 2456   2.659   2.159   0.991 -0.2147  0.4545  0.0534
  615SOL     OW 2457   3.809   2.287   0.615 -0.3797 -0.5666  0.0575
  615SOL    HW2 2458   3.886   2.233   0.633 -1.5126 -2.2056  0.0797
  615SOL    HW3 2459   3.737   2.241   0.658 -1.7948 -0.4047 -2.0781
  615SOL    MW4 2460   3.810   2.273   0.623 -0.7159 -0.7615 -0.2213
  616SOL     OW 2461   0.839   1.199   0.740 -0.0138  0.5342 -0.4458
  616SOL    HW2 2462   0.821   1.248   0.820  2.2808  0.1584  0.3319
  616SOL    HW3 2463   0.767   1.136   0.734  0.3171 -0.1152  1.8891
  616SOL    MW4 2464   0.827   1.197   0.749  0.3326  0.3989 -0.0351
  617SOL     OW 2465   4.288   2.855   1.107 -0.1578  0.3318 -0.0341
  617SOL    HW2 2466   4.283   2.765   1.075 -0.4792  0.0373  0.8337
  617SOL    HW3 2467   4.278   2.847   1.202 -0.8912  1.3417 -0.0177
  617SOL    MW4 2468   4.286   2.842   1.115 -0.2970  0.4262  0.0826
  618SOL     OW 2469   3.602   2.149   0.752  0.4414 -0.2884  0.2743
  618SOL    HW2 2470   3.578   2.061   0.722 -1.3088 -0.0261  0.8514
  618SOL    HW3 2471   3.611   2.141   0.846 -2.1327  0.6566  0.6391
  618SOL    MW4 2472   3.600   2.136   0.760 -0.1291 -0.1291  0.3985
  619SOL     OW 2473   4.270   2.516   0.738 -0.5653 -0.0943 -0.0698
  619SOL    HW2 2474   4.343   2.479   0.688 -1.2146 -0.2279 -0.9394
  619SOL    HW3 2475   4.198   2.519   0.675 -1.3962 -0.2626  0.8743
  619SOL    MW4 2476   4.270   2.512   0.723 -0.7606 -0.1342 -0.0599
  620SOL     OW 2477   2.114   4.221   0.604  0.1914 -0.3584  0.4557
  620SOL    HW2 2478   2.120   4.306   0.647  0.7766 -0.0141 -0.3147
  620SOL    HW3 2479   2.120   4.240   0.511 -1.6076 -1.0585  0.1659
  620SOL    MW4 2480   2.115   4.234   0.597  0.0312 -0.4053  0.3158
  621SOL     OW 2481   0.593   3.467   0.495 -0.3673 -0.5929  0.3213
  621SOL    HW2 2482   0.617   3.428   0.579 -1.0456  0.0126  0.8017
  621SOL    HW3 2483   0.677   3.488   0.454 -0.0303  2.6222  2.5155
  621SOL    MW4 2484   0.607   3.465   0.500 -0.4123 -0.0888  0.6742
  622SOL     OW 2485   0.092   3.238   0.017 -0.6571 -0.0708 -0.2660
  622SOL    HW2 2486   0.173   3.204  -0.021 -1.1057 -0.5996 -0.7459
  622SOL    HW3 2487   0.111   3.330   0.035 -0.3829  0.1456 -1.6101
  622SOL    MW4 2488   0.105   3.245   0.014 -0.6801 -0.1120 -0.5067
  623SOL     OW 2489   1.804   2.989   1.009  0.0945  0.3724  0.4849
  623SOL    HW2 2490   1.883   2.940   1.030 -1.3116 -1.5524  1.3521
  623SOL    HW3 2491   1.813   3.072   1.056  1.3419 -0.0440  0.9792
  623SOL    MW4 2492   1.816   2.994   1.018  0.0736  0.0635  0.6645
  624SOL     OW 2493   3.329   0.549   1.043  0.6003 -0.7028  0.2262
  624SOL    HW2 2494   3.404   0.572   0.988  0.0669 -0.1807 -0.2993
  624SOL    HW3 2495   3.317   0.454   1.029 -0.8018 -0.2350 -2.2285
  624SOL    MW4 2496   3.337   0.539   1.034  0.3449 -0.5722 -0.1670
  625SOL     OW 2497   2.238   2.451   1.330  0.0626  0.6046  0.0868
  625SOL    HW2 2498   2.309   2.399   1.368 -1.4211 -0.1402  1.9569
  625SOL    HW3 2499   2.159   2.402   1.352 -1.0559  1.5878 -1.6821
  625SOL    MW4 2500   2.237   2.437   1.338 -0.2807  0.6361  0.1002
  626SOL     OW 2501   1.768   3.215   0.497 -0.5985  0.3960  0.1065
  626SOL    HW2 2502   1.689   3.261   0.470 -0.9829  0.3250  1.0913
  626SOL    HW3 2503   1.777   3.236   0.590 -0.8818 -1.6400  0.6108
  626SOL    MW4 2504   1.759   3.224   0.506 -0.6866  0.1180  0.3030
  627SOL     OW 2505   0.356   4.548   0.660 -0.1708 -0.0924  0.3587
  627SOL    HW2 2506   0.398   4.553   0.746 -0.3644  0.8804  0.4034
  627SOL    HW3 2507   0.276   4.498   0.676  0.6231 -1.3932  0.3992
  627SOL    MW4 2508   0.351   4.542   0.674 -0.0916 -0.1357  0.3699
  628SOL     OW 2509   1.007   4.575   0.361 -0.3647  0.6663 -0.4722
  628SOL    HW2 2510   1.030   4.516   0.433 -0.6623  1.8702  0.6334
  628SOL    HW3 2511   1.089   4.619   0.339 -0.2293  0.1497 -1.0251
  628SOL    MW4 2512   1.021   4.573   0.368 -0.3861  0.7570 -0.3993
  629SOL     OW 2513   0.675   3.109   1.540 -0.6183 -0.5747 -0.3513
  629SOL    HW2 2514   0.599   3.149   1.498  0.1449  1.3880  0.1252
  629SOL    HW3 2515   0.748   3.167   1.521  0.5283 -1.7595  0.3084
  629SOL    MW4 2516   0.674   3.122   1.532 -0.3663 -0.4721 -0.2014
  630SOL     OW 2517   1.253   0.057   0.309 -0.2830 -0.4584  0.0934
  630SOL    HW2 2518   1.276   0.146   0.282 -0.4413 -0.8634 -1.4631
  630SOL    HW3 2519   1.260   0.057   0.404  0.0400  1.1277  0.0727
  630SOL    MW4 2520   1.257   0.069   0.318 -0.2613 -0.3026 -0.1147
  631SOL     OW 2521   3.325   2.545   1.039  0.1705  0.0723  0.2272
  631SOL    HW2 2522   3.319   2.637   1.064 -2.1710  0.0317 -0.0525
  631SOL    HW3 2523   3.342   2.547   0.944  0.7038  0.2136  0.3258
  631SOL    MW4 2524   3.326   2.557   1.030 -0.0681  0.0856  0.2033
  632SOL     OW 2525   2.558   0.483   1.091  0.2732  0.3515  0.1113
  632SOL    HW2 2526   2.654   0.483   1.083  0.2145  1.2658 -0.6601
  632SOL    HW3 2527   2.542   0.482   1.185  1.0481  0.9411  0.2519
  632SOL    MW4 2528   2.569   0.483   1.102  0.3677  0.5499  0.0280
  633SOL     OW 2529   3.326   2.071   1.389  0.3273 -0.0478 -0.1570
  633SOL    HW2 2530   3.322   2.080   1.294  1.5625  0.4382 -0.1851
  633SOL    HW3 2531   3.346   2.160   1.420  1.6638 -0.5382  0.4185
  633SOL    MW4 2532   3.328   2.084   1.381  0.6666 -0.0484 -0.0848
  634SOL     OW 2533   0.920   0.529   0.233  0.3449 -0.2106  0.0245
  634SOL    HW2 2534   0.872   0.605   0.266  1.4759  0.9165 -0.8612
  634SOL    HW3 2535   1.006   0.535   0.275 -0.0059 -1.7722  0.9910
  634SOL    MW4 2536   0.925   0.540   0.243  0.4479 -0.2679  0.0352
  635SOL     OW 2537   1.129   0.468   1.059  0.1645  0.2371  0.3027
  635SOL    HW2 2538   1.131   0.466   1.154  0.2899 -0.6975  0.2855
  635SOL    HW3 2539   1.203   0.524   1.034 -0.6375  1.5391  0.7741
  635SOL    MW4 2540   1.139   0.475   1.068  0.0753  0.2856  0.3626
  636SOL     OW 2541   1.069   0.210   0.950  0.3963 -0.2506  0.6124
  636SOL    HW2 2542   1.068   0.301   0.980 -2.5301 -0.0052 -0.0368
  636SOL    HW3 2543   1.004   0.166   1.005  0.7371 -1.5936 -0.0535
  636SOL    MW4 2544   1.060   0.216   0.961  0.0552 -0.3954  0.4389
  637SOL     OW 2545   0.209   3.872   1.464  0.0212 -0.4170  0.0984
  637SOL    HW2 2546   0.210   3.779   1.442 -0.3829 -0.2356 -0.7237
  637SOL    HW3 2547   0.289   3.907   1.424  1.0923 -0.7316  1.9130
  637SOL    MW4 2548   0.220   3.864   1.456  0.1092 -0.4346  0.2293
  638SOL     OW 2549   4.272   2.989   0.288  0.1019 -0.0312  0.3577
  638SOL    HW2 2550   4.341   2.934   0.327 -0.6936 -0.3872  1.2761
  638SOL    HW3 2551   4.287   3.076   0.326  0.2238 -0.0389  0.3285
  638SOL    MW4 2552   4.283   2.993   0.298  0.0131 -0.0792  0.4750
  639SOL     OW 2553   2.294   1.441   0.693  0.1872  0.3144 -0.1347
  639SOL    HW2 2554   2.287   1.423   0.787 -0.9761  1.2208 -0.0403
  639SOL    HW3 2555   2.207   1.469   0.667  0.8506  1.4756 -1.1827
  639SOL    MW4 2556   2.282   1.442   0.702  0.1212  0.5872 -0.2606
  640SOL     OW 2557   1.304   2.640   0.352  0.0379 -0.1233 -0.3491
  640SOL    HW2 2558   1.321   2.727   0.317  1.2279 -0.8481 -1.6134
  640SOL    HW3 2559   1.210   2.627   0.339 -0.9020  2.4004  3.2380
  640SOL    MW4 2560   1.293   2.650   0.346  0.0709  0.1140 -0.0426
  641SOL     OW 2561   2.092   0.932   0.438  0.1074  0.1143 -0.1764
  641SOL    HW2 2562   2.133   0.905   0.520 -0.1878  0.8704  0.2283
  641SOL    HW3 2563   2.161   0.923   0.372  0.0049 -1.6448 -0.0685
  641SOL    MW4 2564   2.107   0.928   0.440  0.0549 -0.0180 -0.1088
  642SOL     OW 2565   0.142   2.134   0.520 -0.0554  0.0037  0.2964
  642SOL    HW2 2566   0.234   2.156   0.534 -0.2861  0.5825  0.8596
  642SOL    HW3 2567   0.114   2.193   0.450  0.3445 -1.0464 -0.7876
  642SOL    MW4 2568   0.151   2.145   0.512 -0.0331 -0.0584  0.2277
  643SOL     OW 2569   3.872   2.644   0.317 -0.4397  0.1832 -0.0488
  643SOL    HW2 2570   3.892   2.556   0.285 -1.2149  0.2059 -0.6160
  643SOL    HW3 2571   3.777   2.644   0.330 -0.4293  0.8968  0.0593
  643SOL    MW4 2572   3.862   2.633   0.315 -0.5406  0.2803 -0.1094
  644SOL     OW 2573   1.807   1.156   1.509  0.5070  0.0972  0.4789
  644SOL    HW2 2574   1.726   1.201   1.486  0.0051 -0.7710  0.5020
  644SOL    HW3 2575   1.816   1.170   1.604 -0.5907 -1.3300  0.8092
  644SOL    MW4 2576   1.798   1.164   1.519  0.2959 -0.2057  0.5256
  645SOL     OW 2577   0.128   2.672   0.742  0.2837  0.8442 -0.5387
  645SOL    HW2 2578   0.156   2.654   0.832  1.4203 -0.0481 -1.0614
  645SOL    HW3 2579   0.036   2.697   0.751 -0.8858 -3.3480  0.4967
  645SOL    MW4 2580   0.120   2.673   0.755  0.2793  0.1734 -0.4710
  646SOL     OW 2581   1.283   1.774   0.428  0.3500 -0.1446  0.4144
  646SOL    HW2 2582   1.346   1.711   0.393 -0.8335 -1.0754 -0.0721
  646SOL    HW3 2583   1.254   1.736   0.510 -0.0587 -0.0274  0.3252
  646SOL    MW4 2584   1.288   1.761   0.434  0.1400 -0.2519  0.3385
  647SOL     OW 2585   1.001   4.407   0.613  0.1076 -0.5861 -0.3835
  647SOL    HW2 2586   0.948   4.382   0.689  0.3515 -0.2826 -0.1186
  647SOL    HW3 2587   1.037   4.324   0.581  1.0092 -0.5665  0.5705
  647SOL    MW4 2588   0.999   4.392   0.618  0.2588 -0.5435 -0.2227
  648SOL     OW 2589   1.081   2.030   1.365  0.2562  0.3767  0.0309
  648SOL    HW2 2590   1.162   1.984   1.389  0.7044  1.2254  0.1596
  648SOL    HW3 2591   1.088   2.045   1.271  0.2134  0.4003  0.0314
  648SOL    MW4 2592   1.093   2.026   1.356  0.3097  0.4918  0.0480
  649SOL     OW 2593   4.000   2.833   0.087 -0.1192  0.7439 -0.0544
  649SOL    HW2 2594   4.086   2.847   0.126 -0.6890 -0.5669  1.7544
  649SOL    HW3 2595   3.952   2.780   0.151 -1.3779 -0.8131 -2.1709
  649SOL    MW4 2596   4.005   2.828   0.100 -0.3604  0.3655 -0.0950
  650SOL     OW 2597   2.049   2.870   0.353  0.5101  0.0531  0.0103
  650SOL    HW2 2598   2.044   2.818   0.273 -0.0667  0.1132  0.0001
  650SOL    HW3 2599   2.017   2.956   0.328 -0.2964 -0.1056  0.4456
  650SOL    MW4 2600   2.044   2.874   0.339  0.3276  0.0401  0.0663
  651SOL     OW 2601   2.699   3.175   1.068 -0.3201 -0.5254  0.0835
  651SOL    HW2 2602   2.693   3.081   1.051 -1.9341 -0.5938  0.9585
  651SOL    HW3 2603   2.701   3.182   1.164 -0.0037  0.3140  0.0206
  651SOL    MW4 2604   2.698   3.164   1.078 -0.4913 -0.4237  0.1907
  652SOL     OW 2605   1.570   2.076   1.079  0.2856 -0.3282 -0.2686
  652SOL    HW2 2606   1.647   2.126   1.051  0.0243  0.8781  1.0881
  652SOL    HW3 2607   1.496   2.131   1.057  0.0476  0.4524  2.2476
  652SOL    MW4 2608   1.571   2.090   1.073  0.2197 -0.0661  0.2424
  653SOL     OW 2609   0.850   1.648   1.074 -0.3862  0.2539  0.0907
  653SOL    HW2 2610   0.868   1.558   1.047 -0.4666  0.4457 -0.6024
  653SOL    HW3 2611   0.861   1.646   1.169 -1.0236 -0.6353  0.1576
  653SOL    MW4 2612   0.854   1.635   1.083 -0.4809  0.1619  0.0081
  654SOL     OW 2613   0.443   2.280   0.776 -0.0509 -0.2715  0.1122
  654SOL    HW2 2614   0.448   2.259   0.870 -0.7852  0.1104  0.2370
  654SOL    HW3 2615   0.357   2.320   0.765 -0.2921 -1.0693 -0.8901
  654SOL    MW4 2616   0.433   2.283   0.787 -0.1796 -0.3264 -0.0036
  655SOL     OW 2617   0.457   1.419   0.987  0.2173  0.1266  0.0636
  655SOL    HW2 2618   0.455   1.417   0.892  2.5348 -0.2234 -0.0053
  655SOL    HW3 2619   0.445   1.511   1.010 -0.8471  0.1424 -0.5275
  655SOL    MW4 2620   0.455   1.431   0.978  0.3827  0.0825 -0.0235
  656SOL     OW 2621   1.506   3.288   0.411 -0.2619  0.0628  0.2985
  656SOL    HW2 2622   1.480   3.231   0.483 -1.3362 -0.3322 -0.3896
  656SOL    HW3 2623   1.448   3.364   0.418  0.6690  0.7414  0.7708
  656SOL    MW4 2624   1.495   3.291   0.421 -0.2808  0.1002  0.2700
  657SOL     OW 2625   2.047   2.572   0.967 -0.1478 -0.2051  0.6876
  657SOL    HW2 2626   1.974   2.529   1.012 -1.0682  1.1040  0.4570
  657SOL    HW3 2627   2.008   2.606   0.886  0.6142  0.9031  0.7805
  657SOL    MW4 2628   2.032   2.571   0.962 -0.1687  0.1139  0.6695
  658SOL     OW 2629   1.136   2.550   0.745 -0.6357  0.2287 -0.1874
  658SOL    HW2 2630   1.120   2.561   0.838  0.1738 -0.8460  0.0862
  658SOL    HW3 2631   1.079   2.477   0.719 -1.3348  0.9391 -0.6707
  658SOL    MW4 2632   1.126   2.541   0.754 -0.6211  0.1807 -0.2151
  659SOL     OW 2633   3.290   0.135   0.664 -0.9682  0.5967 -0.0641
  659SOL    HW2 2634   3.260   0.125   0.574  0.0894 -1.5152 -0.2087
  659SOL    HW3 2635   3.357   0.068   0.675 -1.0894  0.8122  2.3092
  659SOL    MW4 2636   3.295   0.125   0.654 -0.8447  0.3465  0.2300
  660SOL     OW 2637   2.907   4.337   1.355 -0.5456 -0.3271  0.0661
  660SOL    HW2 2638   2.915   4.311   1.263 -0.2669  1.9139 -0.5507
  660SOL    HW3 2639   2.834   4.284   1.388  0.9932 -3.0501 -0.7331
  660SOL    MW4 2640   2.899   4.326   1.347 -0.3058 -0.3907 -0.1207
  661SOL     OW 2641   2.246   4.036   1.388 -0.0412 -0.0836 -0.1164
  661SOL    HW2 2642   2.244   4.115   1.441  0.8396 -0.4685  0.4927
  661SOL    HW3 2643   2.168   3.987   1.414 -1.3065  1.1584 -1.4166
  661SOL    MW4 2644   2.235   4.040   1.398 -0.0919  0.0295 -0.2076
  662SOL     OW 2645   2.544   0.198   0.764  0.1807 -0.0545 -0.2671
  662SOL    HW2 2646   2.460   0.194   0.718 -0.0123 -0.5593  0.1198
  662SOL    HW3 2647   2.595   0.126   0.726  0.3164  0.0432 -0.2688
  662SOL    MW4 2648   2.539   0.188   0.753  0.1731 -0.1082 -0.2163
  663SOL     OW 2649   2.074   0.204   0.721 -0.0594  0.2742  0.0800
  663SOL    HW2 2650   2.077   0.258   0.801  0.9447  0.5463 -0.1248
  663SOL    HW3 2651   2.004   0.242   0.669 -0.0773  0.7170  0.4155
  663SOL    MW4 2652   2.065   0.216   0.725  0.0707  0.3685  0.0972
  664SOL     OW 2653   0.379   3.675   0.469 -0.1658 -0.2631  0.0260
  664SOL    HW2 2654   0.445   3.607   0.460  0.4359  0.5363 -1.7665
  664SOL    HW3 2655   0.397   3.716   0.554  0.2990 -1.4479  0.5021
  664SOL    MW4 2656   0.390   3.672   0.479 -0.0251 -0.3140 -0.1477
  665SOL     OW 2657   4.271   4.449   1.424  0.3346  0.0516  0.3570
  665SOL    HW2 2658   4.249   4.538   1.397 -1.1764 -0.2452  0.6119
  665SOL    HW3 2659   4.187   4.407   1.443  1.0741 -1.2215  0.9017
  665SOL    MW4 2660   4.257   4.455   1.423  0.2328 -0.1556  0.4625
  666SOL     OW 2661   1.605   1.548   1.730 -0.3896  0.0791  0.3881
  666SOL    HW2 2662   1.671   1.603   1.773 -1.1222  1.5931 -0.4202
  666SOL    HW3 2663   1.522   1.576   1.768 -0.6745 -1.2283  0.7604
  666SOL    MW4 2664   1.603   1.559   1.741 -0.5239  0.1064  0.3306
  667SOL     OW 2665   1.300   4.276   0.363  0.4002  0.3930  0.5088
  667SOL    HW2 2666   1.391   4.281   0.393  0.7484  0.6324 -0.5590
  667SOL    HW3 2667   1.300   4.319   0.278  0.2154 -3.5129 -1.5685
  667SOL    MW4 2668   1.312   4.282   0.356  0.4217 -0.0908  0.0938
  668SOL     OW 2669   1.921   1.519   0.368  0.3217 -0.3000  0.0216
  668SOL    HW2 2670   1.913   1.470   0.287 -0.9906 -0.0829  0.0183
  668SOL    HW3 2671   1.856   1.589   0.361 -0.2556 -0.6695  1.5406
  668SOL    MW4 2672   1.912   1.522   0.356  0.0724 -0.3201  0.2216
  669SOL     OW 2673   3.097   4.398   0.683  0.0116  0.3201 -0.5839
  669SOL    HW2 2674   3.188   4.399   0.652  0.3869 -1.0233  0.4766
  669SOL    HW3 2675   3.056   4.326   0.636  0.1359 -0.6382  0.7687
  669SOL    MW4 2676   3.104   4.389   0.673  0.0775  0.0164 -0.2655
  670SOL     OW 2677   4.213   4.352   0.107 -0.5403 -0.8046  0.0480
  670SOL    HW2 2678   4.158   4.383   0.035 -0.5349  0.7092  0.6877
  670SOL    HW3 2679   4.200   4.415   0.177 -0.6055 -2.3266  1.4276
  670SOL    MW4 2680   4.204   4.365   0.107 -0.5482 -0.8057  0.3144
  671SOL     OW 2681   2.042   3.610   1.129  0.6228  0.3256  0.0289
  671SOL    HW2 2682   2.120   3.654   1.096  0.0898  1.6440  0.4947
  671SOL    HW3 2683   1.970   3.670   1.109 -0.2061 -0.6300  0.0810
  671SOL    MW4 2684   2.043   3.624   1.122  0.4431  0.3735  0.0972
  672SOL     OW 2685   2.292   3.078   0.046 -0.0279  0.3015 -0.2151
  672SOL    HW2 2686   2.309   2.991   0.082  1.1486  0.6477  0.1137
  672SOL    HW3 2687   2.241   3.062  -0.033  0.0744 -0.6815 -0.0923
  672SOL    MW4 2688   2.288   3.064   0.040  0.1408  0.2175 -0.1555
  673SOL     OW 2689   2.234   1.653   1.058 -0.2154 -0.4836 -0.3142
  673SOL    HW2 2690   2.162   1.699   1.015  0.1345  0.9378  0.5634
  673SOL    HW3 2691   2.216   1.663   1.152  0.2785 -1.4914 -0.1093
  673SOL    MW4 2692   2.222   1.661   1.065 -0.1041 -0.4291 -0.1713
  674SOL     OW 2693   2.269   0.806   1.129 -0.3369 -0.1914  0.0635
  674SOL    HW2 2694   2.288   0.740   1.063 -0.5634  0.9931 -1.2003
  674SOL    HW3 2695   2.327   0.879   1.108  1.0014 -0.5411  2.3534
  674SOL    MW4 2696   2.279   0.807   1.118 -0.1902 -0.0812  0.1989
  675SOL     OW 2697   0.640   3.888   1.445 -0.3473  0.0167 -0.6402
  675SOL    HW2 2698   0.665   3.799   1.420  1.6265  0.3457  0.0280
  675SOL    HW3 2699   0.624   3.883   1.539  2.2744  0.8316 -0.0866
  675SOL    MW4 2700   0.641   3.876   1.454  0.2591  0.1677 -0.4790
  676SOL     OW 2701   1.119   2.237   0.300 -0.1945  0.4781 -0.2992
  676SOL    HW2 2702   1.109   2.149   0.334 -2.6795  0.6776 -0.4589
  676SOL    HW3 2703   1.200   2.269   0.340  0.9445 -1.9939 -0.5742
  676SOL    MW4 2704   1.129   2.230   0.310 -0.3721  0.1783 -0.3565
  677SOL     OW 2705   1.118   2.070   1.089  0.5856  0.0208  0.1711
  677SOL    HW2 2706   1.093   1.984   1.054  0.8379  0.0468 -0.0846
  677SOL    HW3 2707   1.054   2.130   1.051  0.1731 -0.1099  0.6646
  677SOL    MW4 2708   1.107   2.066   1.079  0.5644  0.0070  0.2025
  678SOL     OW 2709   2.896   2.029   1.074 -0.3213  0.4335 -0.0081
  678SOL    HW2 2710   2.819   2.082   1.051 -0.9089 -0.3181  0.2285
  678SOL    HW3 2711   2.896   2.028   1.169 -0.5614 -0.3645 -0.0171
  678SOL    MW4 2712   2.886   2.036   1.083 -0.4305  0.2290  0.0219
  679SOL     OW 2713   0.016   1.413   0.980 -0.1220  0.0904  0.5214
  679SOL    HW2 2714   0.019   1.498   1.023 -0.3190  1.0497 -1.3244
  679SOL    HW3 2715   0.093   1.367   1.013 -0.7628  0.4591  2.5714
  679SOL    MW4 2716   0.027   1.418   0.990 -0.2326  0.2656  0.5483
  680SOL     OW 2717   3.980   3.639   0.667 -0.1768 -0.2485  0.2180
  680SOL    HW2 2718   3.956   3.723   0.706 -0.5784 -0.7991  1.1598
  680SOL    HW3 2719   3.918   3.577   0.703 -0.9636 -0.6643 -1.8080
  680SOL    MW4 2720   3.969   3.642   0.677 -0.3336 -0.3760  0.0749
  681SOL     OW 2721   3.661   3.721   0.598  0.5552  0.0148  0.0721
  681SOL    HW2 2722   3.587   3.781   0.590  1.0494  0.5094 -0.8526
  681SOL    HW3 2723   3.717   3.761   0.666 -0.5425 -0.9208  1.5573
  681SOL    MW4 2724   3.659   3.735   0.606  0.4756 -0.0434  0.1461
  682SOL     OW 2725   3.612   4.535   0.959  0.2206  0.0896 -0.0590
  682SOL    HW2 2726   3.616   4.617   1.008 -0.3936  1.4290 -2.1933
  682SOL    HW3 2727   3.532   4.493   0.991 -0.8167  1.5038 -0.7493
  682SOL    MW4 2728   3.602   4.540   0.970  0.0027  0.4529 -0.4317
  683SOL     OW 2729   2.334   0.608   0.948  0.2077  0.2814  0.2078
  683SOL    HW2 2730   2.397   0.560   1.003 -0.8015  0.1130  1.2289
  683SOL    HW3 2731   2.381   0.624   0.866  1.4933 -0.0804  0.8633
  683SOL    MW4 2732   2.349   0.604   0.944  0.2442  0.2114  0.4290
  684SOL     OW 2733   0.927   2.324   0.718  0.0907  0.0606  0.4969
  684SOL    HW2 2734   0.843   2.370   0.713  0.0983 -0.0723 -1.0307
  684SOL    HW3 2735   0.906   2.234   0.694  0.8276  0.2294 -0.8171
  684SOL    MW4 2736   0.913   2.318   0.714  0.1889  0.0654  0.1220
  685SOL     OW 2737   3.753   4.137   0.751 -0.0384 -0.6807  0.0191
  685SOL    HW2 2738   3.785   4.110   0.665 -0.3885 -2.1413  0.3362
  685SOL    HW3 2739   3.661   4.160   0.736  0.3813  0.8284 -0.3412
  685SOL    MW4 2740   3.745   4.137   0.738 -0.0292 -0.6743  0.0134
  686SOL     OW 2741   4.255   1.808   1.027  0.2275  0.1912 -0.2414
  686SOL    HW2 2742   4.267   1.755   0.948  1.1488 -0.3715  0.2782
  686SOL    HW3 2743   4.169   1.782   1.061  0.0228  0.1196 -0.8082
  686SOL    MW4 2744   4.245   1.798   1.021  0.3221  0.1075 -0.2476
  687SOL     OW 2745   3.891   3.135   0.703 -0.0995  0.4045 -0.7240
  687SOL    HW2 2746   3.862   3.121   0.613  0.9401  0.2169 -1.0272
  687SOL    HW3 2747   3.973   3.087   0.710 -0.1303  0.4831  0.3056
  687SOL    MW4 2748   3.898   3.127   0.692  0.0336  0.3901 -0.6282
  688SOL     OW 2749   3.162   0.046   1.024  0.2645  0.3386 -0.2048
  688SOL    HW2 2750   3.235   0.105   1.003  0.5496  0.8164  2.0404
  688SOL    HW3 2751   3.086   0.103   1.034  0.0221  0.0604 -0.4318
  688SOL    MW4 2752   3.162   0.061   1.022  0.2702  0.3650  0.0615
  689SOL     OW 2753   3.861   2.081   1.090 -0.2477 -0.3270 -0.2500
  689SOL    HW2 2754   3.855   2.067   1.185 -0.5985  0.7058 -0.1095
  689SOL    HW3 2755   3.837   1.997   1.052  0.5994 -0.9580  0.5875
  689SOL    MW4 2756   3.857   2.068   1.098 -0.1823 -0.2740 -0.1210
  690SOL     OW 2757   2.490   2.041   1.329  0.0151  0.0382 -0.0699
  690SOL    HW2 2758   2.479   2.045   1.234 -0.9528 -0.8554 -0.0034
  690SOL    HW3 2759   2.503   2.133   1.355  0.2898  0.2869 -1.0595
  690SOL    MW4 2760   2.490   2.054   1.320 -0.0763 -0.0469 -0.1917
  691SOL     OW 2761   0.749   3.496   9.962  0.4415 -0.3568 -0.1634
  691SOL    HW2 2762   0.679   3.440   9.994  0.9299 -0.3169  0.9951
  691SOL    HW3 2763   0.710   3.584   9.959  0.7900 -0.1251  1.6497
  691SOL    MW4 2764   0.734   3.501   9.966  0.5519 -0.3210  0.2287
  692SOL     OW 2765   4.353   0.766   0.475  0.0469 -0.1499 -0.0676
  692SOL    HW2 2766   4.431   0.787   0.526 -0.8016 -0.3454  1.3511
  692SOL    HW3 2767   4.284   0.822   0.512 -0.4896  0.0431 -1.3119
  692SOL    MW4 2768   4.354   0.776   0.487 -0.1359 -0.1502 -0.0446
  693SOL     OW 2769   0.074   2.269   0.263  0.1078 -0.0413  0.1797
  693SOL    HW2 2770   0.094   2.202   0.198 -0.9512 -1.1482  0.9724
  693SOL    HW3 2771  -0.013   2.302   0.238  0.3230  0.5435  0.1992
  693SOL    MW4 2772   0.065   2.265   0.251 -0.0036 -0.1102  0.2869
  694SOL     OW 2773   3.504   0.491   0.330 -0.3096 -0.3631  0.4748
  694SOL    HW2 2774   3.408   0.493   0.329 -0.2877  0.9708 -0.5945
  694SOL    HW3 2775   3.526   0.467   0.420 -1.6447 -0.5505  0.7702
  694SOL    MW4 2776   3.494   0.488   0.342 -0.4828 -0.2118  0.3727
  695SOL     OW 2777   3.084   1.709   0.888 -0.0440  0.1865  0.5847
  695SOL    HW2 2778   3.069   1.614   0.895 -2.0100  0.5186  1.1149
  695SOL    HW3 2779   2.996   1.747   0.887  0.6933  1.8999 -1.3660
  695SOL    MW4 2780   3.070   1.701   0.889 -0.2061  0.4564  0.3973
  696SOL     OW 2781   0.686   3.628   1.091 -0.1066  0.5160  0.2084
  696SOL    HW2 2782   0.769   3.625   1.044  0.4542 -0.5173  1.2182
  696SOL    HW3 2783   0.651   3.539   1.083 -1.5591  1.1928 -0.9885
  696SOL    MW4 2784   0.693   3.616   1.084 -0.2242  0.4690  0.1837
  697SOL     OW 2785   3.841   3.843   0.777  0.0903 -0.0100 -0.9329
  697SOL    HW2 2786   3.819   3.936   0.773  2.1040  0.4803 -1.2433
  697SOL    HW3 2787   3.887   3.832   0.860  0.3230 -0.6243 -1.1379
  697SOL    MW4 2788   3.844   3.854   0.787  0.3867 -0.0263 -1.0009
  698SOL     OW 2789   0.848   1.050   0.299  0.3634  0.0794  0.3058
  698SOL    HW2 2790   0.896   1.077   0.220 -0.1937  0.1359 -0.0145
  698SOL    HW3 2791   0.787   1.122   0.316 -0.9245 -0.8284 -0.3886
  698SOL    MW4 2792   0.847   1.063   0.291  0.1200 -0.0329  0.1720
  699SOL     OW 2793   1.020   1.085   0.105  0.2324  0.1373  0.6966
  699SOL    HW2 2794   1.084   1.152   0.130  0.1346  0.4320  0.1420
  699SOL    HW3 2795   1.052   1.051   0.021 -0.5303  0.5231  0.2541
  699SOL    MW4 2796   1.033   1.089   0.097  0.1189  0.2271  0.5651
  700SOL     OW 2797   3.190   3.681   1.048 -0.0704 -0.6586 -0.0712
  700SOL    HW2 2798   3.273   3.648   1.082  1.4123 -0.7441 -3.5728
  700SOL    HW3 2799   3.184   3.770   1.084 -0.2060 -1.8200  2.9522
  700SOL    MW4 2800   3.201   3.689   1.058  0.1073 -0.8231 -0.1343
  701SOL     OW 2801   0.158   4.047   0.267  0.5297 -0.3368 -0.2061
  701SOL    HW2 2802   0.214   4.095   0.206  1.2737 -1.0144 -0.0463
  701SOL    HW3 2803   0.069   4.061   0.232  0.7883  0.6890 -0.4777
  701SOL    MW4 2804   0.153   4.056   0.254  0.6619 -0.2908 -0.2208
  702SOL     OW 2805   2.473   1.260   1.076  0.1748  0.3016  0.1334
  702SOL    HW2 2806   2.392   1.294   1.037 -0.1495 -0.2488  0.3215
  702SOL    HW3 2807   2.455   1.259   1.170  0.9125  1.5161  0.2941
  702SOL    MW4 2808   2.460   1.264   1.083  0.2294  0.3892  0.1794
  703SOL     OW 2809   2.592   0.818   0.300  0.1893 -0.1127 -0.4215
  703SOL    HW2 2810   2.498   0.804   0.289  0.1197  0.8166 -0.9961
  703SOL    HW3 2811   2.633   0.758   0.238  0.0197 -1.3186  0.5951
  703SOL    MW4 2812   2.585   0.808   0.291  0.1578 -0.1492 -0.3632
  704SOL     OW 2813   0.707   2.837   0.419  0.1461  0.6446  0.4140
  704SOL    HW2 2814   0.693   2.904   0.352  2.0784  0.4260 -0.2468
  704SOL    HW3 2815   0.773   2.874   0.477  0.0191 -0.0308  0.9944
  704SOL    MW4 2816   0.713   2.851   0.418  0.3843  0.5267  0.4034
  705SOL     OW 2817   0.227   1.922   0.735 -0.3682 -0.4139  0.2147
  705SOL    HW2 2818   0.140   1.959   0.749 -0.1663  0.0188  0.3088
  705SOL    HW3 2819   0.250   1.882   0.819 -1.4604 -2.5925 -0.4563
  705SOL    MW4 2820   0.219   1.921   0.748 -0.4856 -0.6443  0.1386
  706SOL     OW 2821   0.962   3.716   1.021 -0.3580 -0.1644 -0.3793
  706SOL    HW2 2822   0.966   3.802   1.064  1.7587 -1.1109  1.3719
  706SOL    HW3 2823   0.964   3.736   0.927 -0.4277  1.7069 -0.0051
  706SOL    MW4 2824   0.963   3.730   1.014 -0.0879 -0.0424 -0.0989
  707SOL     OW 2825   2.204   2.545   0.639 -0.2283 -0.2755 -0.1672
  707SOL    HW2 2826   2.198   2.451   0.659 -0.3800  0.0181  1.1981
  707SOL    HW3 2827   2.231   2.548   0.547  1.0318 -1.6569  0.1448
  707SOL    MW4 2828   2.207   2.533   0.629 -0.0821 -0.4190  0.0541
  708SOL     OW 2829   2.512   0.479   1.380 -0.2698  0.4442  0.4616
  708SOL    HW2 2830   2.579   0.443   1.438  0.2628  2.0292  0.8509
  708SOL    HW3 2831   2.434   0.427   1.399  0.5598 -0.7057  0.7733
  708SOL    MW4 2832   2.510   0.467   1.390 -0.0901  0.5016  0.5541
  709SOL     OW 2833   1.998   0.014   1.457 -0.7211  0.8542 -0.0205
  709SOL    HW2 2834   2.011   0.004   1.551  0.3273 -0.7384 -0.3187
  709SOL    HW3 2835   1.999  -0.075   1.423  0.5692  1.5083 -1.7519
  709SOL    MW4 2836   1.999   0.001   1.465 -0.4125  0.7304 -0.2883
  710SOL     OW 2837   0.862   3.546   0.422 -0.1613 -0.4972 -0.0755
  710SOL    HW2 2838   0.890   3.496   0.345 -2.1802  0.9710 -1.8269
  710SOL    HW3 2839   0.890   3.635   0.404 -0.2633 -0.2205  1.0957
  710SOL    MW4 2840   0.869   3.551   0.409 -0.4412 -0.2670 -0.1520
  711SOL     OW 2841   1.817   3.206   1.413 -0.0179 -0.0448  0.1644
  711SOL    HW2 2842   1.812   3.228   1.320 -1.9972 -1.9287 -0.2186
  711SOL    HW3 2843   1.895   3.152   1.420  0.8736  1.1830 -0.1563
  711SOL    MW4 2844   1.827   3.202   1.402 -0.1614 -0.1314  0.0715
  712SOL     OW 2845   3.171   3.979   1.359 -0.0758  0.5001  0.0086
  712SOL    HW2 2846   3.091   3.937   1.391 -0.7027  0.1648 -1.8890
  712SOL    HW3 2847   3.242   3.924   1.392 -0.6854  0.2140  0.8497
  712SOL    MW4 2848   3.170   3.966   1.367 -0.2390  0.4181 -0.1308
  713SOL     OW 2849   1.266   4.015   0.697  0.2591  0.2077  0.1498
  713SOL    HW2 2850   1.227   3.935   0.660  1.1289 -0.3147  0.3434
  713SOL    HW3 2851   1.226   4.022   0.784  1.8104 -1.2509  1.0047
  713SOL    MW4 2852   1.255   4.005   0.704  0.5785 -0.0536  0.2882
  714SOL     OW 2853   2.734   3.225   1.336 -0.3030  0.0214 -0.0243
  714SOL    HW2 2854   2.663   3.164   1.357 -0.7482  0.2758 -0.7546
  714SOL    HW3 2855   2.813   3.183   1.370 -0.5486 -1.1533 -0.8636
  714SOL    MW4 2856   2.735   3.212   1.343 -0.3942 -0.1000 -0.2314
  715SOL     OW 2857   3.988   3.772   1.003  0.2450  0.2266 -0.3378
  715SOL    HW2 2858   4.077   3.752   1.034 -0.0524 -0.8895 -0.1802
  715SOL    HW3 2859   3.931   3.723   1.061 -0.4055 -0.3500 -1.4543
  715SOL    MW4 2860   3.993   3.763   1.015  0.1199  0.0033 -0.4643
  716SOL     OW 2861   0.833   4.253   1.508  0.6194  0.1403  0.1129
  716SOL    HW2 2862   0.826   4.277   1.600 -0.2713  1.4488 -0.2844
  716SOL    HW3 2863   0.911   4.297   1.477  0.4426  0.3893  0.0257
  716SOL    MW4 2864   0.842   4.262   1.516  0.4786  0.3458  0.0490
  717SOL     OW 2865   1.589   3.443   0.751 -0.1287 -0.4034  0.5338
  717SOL    HW2 2866   1.523   3.508   0.773 -1.0139 -1.0412 -0.2536
  717SOL    HW3 2867   1.665   3.495   0.724 -1.1299  0.2908 -0.9978
  717SOL    MW4 2868   1.591   3.459   0.751 -0.3776 -0.3960  0.2278
  718SOL     OW 2869   1.866   0.595   0.630  0.0379 -0.3125  0.3454
  718SOL    HW2 2870   1.927   0.645   0.683  1.4145 -1.7709  0.1813
  718SOL    HW3 2871   1.861   0.643   0.547  3.0238 -1.5508 -0.6214
  718SOL    MW4 2872   1.873   0.608   0.626  0.6135 -0.6683  0.1962
  719SOL     OW 2873   2.952   2.806   1.397 -0.2836  0.0179 -0.3510
  719SOL    HW2 2874   2.957   2.899   1.422 -2.9929 -0.0304  0.5277
  719SOL    HW3 2875   3.016   2.763   1.454 -0.1500  1.1274  0.3698
  719SOL    MW4 2876   2.961   2.813   1.408 -0.6235  0.1579 -0.1400
  720SOL     OW 2877   2.000   4.407   1.407  0.3010  0.2638 -0.3276
  720SOL    HW2 2878   1.921   4.361   1.433  0.8039  1.0628  2.8684
  720SOL    HW3 2879   2.008   4.390   1.313 -2.6081 -1.3625 -0.3468
  720SOL    MW4 2880   1.991   4.399   1.398 -0.0165  0.1546  0.0916
  721SOL     OW 2881   0.918   2.691   1.519  0.0490  0.4965  0.3458
  721SOL    HW2 2882   0.832   2.728   1.501  0.5816  1.3153 -0.6122
  721SOL    HW3 2883   0.926   2.692   1.614 -1.8109 -1.5098  0.5710
  721SOL    MW4 2884   0.908   2.696   1.529 -0.1261  0.3398  0.2491
  722SOL     OW 2885   4.481   3.987   1.329 -0.3998 -0.2513  0.5766
  722SOL    HW2 2886   4.557   3.956   1.377  0.7239  1.4323 -0.0788
  722SOL    HW3 2887   4.477   4.081   1.349 -1.0997  0.0747 -0.9973
  722SOL    MW4 2888   4.490   3.995   1.338 -0.3439  0.0139  0.2824
  723SOL     OW 2889   1.803   1.632   1.073 -0.3575 -0.1911 -0.5778
  723SOL    HW2 2890   1.724   1.686   1.064  0.2406  0.5212 -1.6054
  723SOL    HW3 2891   1.823   1.637   1.166  0.0843  1.9619 -0.7510
  723SOL    MW4 2892   1.795   1.640   1.084 -0.2203  0.1869 -0.7362
  724SOL     OW 2893   1.357   2.658   0.626 -0.4624  0.0181  0.2507
  724SOL    HW2 2894   1.320   2.655   0.537 -2.1388  1.6838  0.8740
  724SOL    HW3 2895   1.290   2.618   0.681 -0.5022  1.2736  1.1267
  724SOL    MW4 2896   1.343   2.652   0.621 -0.6888  0.4035  0.4485
  725SOL     OW 2897   2.875   3.094   0.651  0.1835 -0.0597  0.7354
  725SOL    HW2 2898   2.801   3.047   0.690 -0.4362 -0.1426 -0.5206
  725SOL    HW3 2899   2.939   3.026   0.633 -0.4391 -0.3477 -0.4522
  725SOL    MW4 2900   2.873   3.079   0.654  0.0196 -0.1087  0.4130
  726SOL     OW 2901   1.630   0.664   0.771  0.4935  0.1902  0.4143
  726SOL    HW2 2902   1.707   0.640   0.719  0.9476  2.1525  0.1284
  726SOL    HW3 2903   1.626   0.759   0.765 -0.5836  0.3007  2.3879
  726SOL    MW4 2904   1.640   0.673   0.763  0.4113  0.4637  0.6370
  727SOL     OW 2905   3.971   1.140   0.715 -0.7757 -0.6184 -0.2549
  727SOL    HW2 2906   4.027   1.070   0.682 -1.3301 -1.3775  0.3931
  727SOL    HW3 2907   3.936   1.106   0.797  1.8902  1.8932  2.0446
  727SOL    MW4 2908   3.974   1.126   0.721 -0.4971 -0.3872  0.1340
  728SOL     OW 2909   2.915   4.296   1.084  0.7778 -0.2503  0.1522
  728SOL    HW2 2910   2.973   4.353   1.034 -0.5238 -0.3569 -1.5597
  728SOL    HW3 2911   2.905   4.218   1.029  0.8090 -1.1828  1.4572
  728SOL    MW4 2912   2.921   4.293   1.070  0.6102 -0.3874  0.0985
  729SOL     OW 2913   3.758   1.344   0.589  0.4303 -0.4446 -0.2210
  729SOL    HW2 2914   3.761   1.395   0.508  1.4572  0.1684  0.1956
  729SOL    HW3 2915   3.836   1.289   0.585 -0.6840 -1.9950 -0.6725
  729SOL    MW4 2916   3.769   1.344   0.578  0.4187 -0.5683 -0.2256
  730SOL     OW 2917   1.506   1.321   0.350 -0.4360 -0.6968  0.7345
  730SOL    HW2 2918   1.416   1.304   0.320 -0.3359 -0.4313  0.2698
  730SOL    HW3 2919   1.512   1.417   0.355  0.0607 -0.6843  0.0009
  730SOL    MW4 2920   1.495   1.331   0.346 -0.3573 -0.6601  0.5764
  731SOL     OW 2921   1.143   3.350   1.064 -0.1690  0.0060 -0.1878
  731SOL    HW2 2922   1.131   3.339   0.970 -0.9386  0.7578 -0.1793
  731SOL    HW3 2923   1.175   3.439   1.074 -0.3779  0.0294  0.2886
  731SOL    MW4 2924   1.146   3.360   1.053 -0.2981  0.1083 -0.1238
  732SOL     OW 2925   3.189   3.761   0.746  0.8295 -0.0792  0.1541
  732SOL    HW2 2926   3.190   3.675   0.703  0.4367  0.2028 -0.4265
  732SOL    HW3 2927   3.199   3.742   0.839  1.6269 -0.7074 -0.0577
  732SOL    MW4 2928   3.191   3.747   0.752  0.8829 -0.1249  0.0496
  733SOL     OW 2929   2.243   2.930   1.024  0.5992  0.2499 -0.2799
  733SOL    HW2 2930   2.271   2.875   0.951 -1.2235 -1.9756  0.6253
  733SOL    HW3 2931   2.167   2.884   1.061  0.3549  2.2738  1.8577
  733SOL    MW4 2932   2.237   2.917   1.019  0.3265  0.2233  0.1216
  734SOL     OW 2933   0.243   2.063   1.374 -0.0663 -0.2266 -0.6548
  734SOL    HW2 2934   0.238   2.059   1.278 -1.1238 -3.8182 -0.5480
  734SOL    HW3 2935   0.312   2.000   1.396  1.6422  2.1051  0.9029
  734SOL    MW4 2936   0.252   2.054   1.364  0.0196 -0.3929 -0.4352
  735SOL     OW 2937   3.192   0.077   0.423 -0.4308 -0.4200  0.0798
  735SOL    HW2 2938   3.137   0.153   0.401  0.5800  0.4192  0.4204
  735SOL    HW3 2939   3.259   0.075   0.354  0.1236 -0.4158  0.6161
  735SOL    MW4 2940   3.193   0.087   0.411 -0.2243 -0.3087  0.1955
  736SOL     OW 2941   0.686   1.649   0.668  0.2305 -0.3213  0.3061
  736SOL    HW2 2942   0.769   1.618   0.704  0.6615  2.0592  1.4302
  736SOL    HW3 2943   0.694   1.631   0.574  1.7848 -0.6093  0.4722
  736SOL    MW4 2944   0.698   1.642   0.660  0.4924 -0.0452  0.4763
  737SOL     OW 2945   3.564   4.257   1.464  0.3372 -0.1114  0.0045
  737SOL    HW2 2946   3.565   4.283   1.556  0.8655  0.2375 -0.0967
  737SOL    HW3 2947   3.634   4.309   1.423  0.3799 -0.5634 -0.5083
  737SOL    MW4 2948   3.573   4.267   1.470  0.4125 -0.1250 -0.0765
  738SOL     OW 2949   3.359   4.365   0.583 -0.1602 -0.0050  0.2944
  738SOL    HW2 2950   3.337   4.335   0.495 -0.6803  0.2759  0.3258
  738SOL    HW3 2951   3.403   4.291   0.623 -3.0032 -1.3672  0.9782
  738SOL    MW4 2952   3.362   4.351   0.576 -0.6039 -0.1476  0.3887
  739SOL     OW 2953   1.528   1.606   0.632  0.0633 -0.2201 -0.1134
  739SOL    HW2 2954   1.470   1.647   0.696 -0.4660 -1.2086  0.0587
  739SOL    HW3 2955   1.616   1.636   0.656 -0.1080 -0.7463  1.2045
  739SOL    MW4 2956   1.532   1.615   0.644 -0.0292 -0.4199  0.0832
  740SOL     OW 2957   2.364   2.816   0.141  0.2618  0.5131  0.3830
  740SOL    HW2 2958   2.404   2.730   0.133  0.1935  0.5979 -1.0548
  740SOL    HW3 2959   2.407   2.856   0.217  0.7016 -0.5540  0.7065
  740SOL    MW4 2960   2.375   2.810   0.150  0.3108  0.3835  0.2360
  741SOL     OW 2961   0.671   2.317   1.776  0.0499  0.3168 -0.2445
  741SOL    HW2 2962   0.685   2.318   1.681 -0.2963  0.2187 -0.2977
  741SOL    HW3 2963   0.657   2.225   1.797  1.3356  0.1911  0.0840
  741SOL    MW4 2964   0.671   2.305   1.766  0.1739  0.2873 -0.2082
  742SOL     OW 2965   4.281   2.306   1.486  0.1096 -0.0795  0.3122
  742SOL    HW2 2966   4.351   2.369   1.466 -0.3725  0.8169  1.3980
  742SOL    HW3 2967   4.271   2.310   1.581 -0.4007 -1.2970  0.3151
  742SOL    MW4 2968   4.289   2.315   1.496 -0.0214 -0.1219  0.4559
  743SOL     OW 2969   0.226   1.650   0.649  0.5287  0.3154  0.1609
  743SOL    HW2 2970   0.229   1.741   0.681  0.7729 -0.0919  1.3202
  743SOL    HW3 2971   0.303   1.609   0.688  0.2292 -0.4839 -0.0879
  743SOL    MW4 2972   0.236   1.657   0.658  0.5214  0.1562  0.2810
  744SOL     OW 2973   3.273   1.798   0.701  0.6243  0.1533  0.2689
  744SOL    HW2 2974   3.228   1.827   0.622 -0.9031  0.6787  1.3093
  744SOL    HW3 2975   3.203   1.768   0.759  1.8379 -1.4529  0.9242
  744SOL    MW4 2976   3.258   1.798   0.698  0.5829  0.0107  0.4926
  745SOL     OW 2977   0.015   1.653   1.093 -0.1476  0.2403 -0.8859
  745SOL    HW2 2978  -0.062   1.709   1.078  0.5593  1.2459 -0.7753
  745SOL    HW3 2979   0.035   1.664   1.186 -0.7791 -1.2000 -0.5692
  745SOL    MW4 2980   0.007   1.662   1.103 -0.1377  0.1829 -0.8295
  746SOL     OW 2981   0.467   2.716   1.532 -0.2765 -0.5408  0.0454
  746SOL    HW2 2982   0.462   2.629   1.491  1.3419 -1.6621  2.0841
  746SOL    HW3 2983   0.482   2.697   1.625 -0.4605  1.9356  0.6062
  746SOL    MW4 2984   0.469   2.702   1.539 -0.0873 -0.3620  0.3884
  747SOL     OW 2985   1.951   0.953   0.807  0.3331  0.4286 -0.0106
  747SOL    HW2 2986   1.858   0.937   0.791  0.1153  1.6448  0.0148
  747SOL    HW3 2987   1.973   1.028   0.752  0.7559  1.5387  1.6182
  747SOL    MW4 2988   1.942   0.961   0.798  0.3602  0.7356  0.2076
  748SOL     OW 2989   2.094   3.791   0.306 -0.0208 -0.3142  0.1519
  748SOL    HW2 2990   2.100   3.697   0.292  1.1696  0.2118 -3.3459
  748SOL    HW3 2991   2.182   3.824   0.287 -0.6019  1.5767  0.6226
  748SOL    MW4 2992   2.106   3.783   0.302  0.0596  0.0046 -0.2475
  749SOL     OW 2993   1.662   0.926   0.772 -0.1012  0.3886  0.1222
  749SOL    HW2 2994   1.619   0.955   0.852 -1.7262  1.3498 -1.0632
  749SOL    HW3 2995   1.622   0.979   0.703  1.5848 -0.1095 -1.2695
  749SOL    MW4 2996   1.651   0.936   0.773 -0.0932  0.4497 -0.2178
  750SOL     OW 2997   3.300   0.886   0.509  0.2363 -0.6230  0.0410
  750SOL    HW2 2998   3.245   0.810   0.488 -0.1560 -0.2484 -0.3085
  750SOL    HW3 2999   3.309   0.932   0.426  0.8965 -0.5615  0.1497
  750SOL    MW4 3000   3.294   0.882   0.496  0.2716 -0.5655  0.0093
  751SOL     OW 3001   4.207   1.496   0.213 -0.3170  0.0720 -0.2261
  751SOL    HW2 3002   4.242   1.516   0.126  0.9442 -0.6251  0.1050
  751SOL    HW3 3003   4.284   1.493   0.270 -0.8162 -2.2046  0.3924
  751SOL    MW4 3004   4.222   1.498   0.209 -0.2165 -0.3203 -0.1008
  752SOL     OW 3005   1.771   0.141   1.365  0.3215  0.0947 -0.2359
  752SOL    HW2 3006   1.850   0.101   1.401 -0.0030 -0.1989  0.1587
  752SOL    HW3 3007   1.781   0.132   1.270  1.3357  1.1706 -0.2360
  752SOL    MW4 3008   1.782   0.134   1.357  0.4125  0.1979 -0.1838
  753SOL     OW 3009   1.245   4.476   0.754 -0.4348  0.3679 -0.1126
  753SOL    HW2 3010   1.163   4.437   0.723 -0.7975  0.9807  0.0695
  753SOL    HW3 3011   1.243   4.462   0.849 -1.6520  2.8296  0.2664
  753SOL    MW4 3012   1.234   4.469   0.763 -0.6432  0.7735 -0.0386
  754SOL     OW 3013   1.311   0.128   1.368 -0.2409 -0.1213  0.1807
  754SOL    HW2 3014   1.396   0.084   1.375  1.0934  2.3578 -0.2273
  754SOL    HW3 3015   1.289   0.123   1.275 -1.1594 -1.8080  0.4540
  754SOL    MW4 3016   1.319   0.121   1.357 -0.1861 -0.0168  0.1629
  755SOL     OW 3017   2.603   4.441   0.776  0.2868 -0.2522  0.0928
  755SOL    HW2 3018   2.652   4.373   0.730 -1.1843 -0.7638 -0.7549
  755SOL    HW3 3019   2.618   4.423   0.869  0.4012 -1.3754 -0.1370
  755SOL    MW4 3020   2.611   4.430   0.782  0.1078 -0.4679 -0.0494
  756SOL     OW 3021   4.057   2.983   1.009 -0.1719 -0.4501 -0.1064
  756SOL    HW2 3022   3.984   2.944   1.057 -1.0463 -0.9652 -1.8121
  756SOL    HW3 3023   4.135   2.944   1.048 -0.8381 -0.4849  1.2165
  756SOL    MW4 3024   4.058   2.973   1.020 -0.3752 -0.5227 -0.1569
  757SOL     OW 3025   1.550   2.024   1.360 -0.3493 -0.4360  0.2239
  757SOL    HW2 3026   1.562   2.039   1.266 -0.9647 -1.8218 -0.0995
  757SOL    HW3 3027   1.634   1.987   1.389 -0.2366 -0.2221  0.1698
  757SOL    MW4 3028   1.563   2.021   1.352 -0.4156 -0.5906  0.1741
  758SOL     OW 3029   1.375   1.153   1.718 -0.0678 -0.0230  0.1713
  758SOL    HW2 3030   1.356   1.069   1.760 -0.6384 -0.1097 -0.2444
  758SOL    HW3 3031   1.309   1.213   1.753  0.6597  0.3805  0.8591
  758SOL    MW4 3032   1.363   1.150   1.728 -0.0471  0.0188  0.2072
  759SOL     OW 3033   3.086   1.789   0.218 -0.0125  0.2009  0.4133
  759SOL    HW2 3034   3.108   1.799   0.311 -0.8662  0.5105  0.5847
  759SOL    HW3 3035   3.099   1.877   0.182  1.4395 -0.1743 -0.0069
  759SOL    MW4 3036   3.091   1.802   0.226  0.0665  0.1923  0.3805
  760SOL     OW 3037   0.560   0.068   0.266  0.2247 -0.2864 -0.2499
  760SOL    HW2 3038   0.597   0.155   0.253  2.0233 -1.0061 -0.0083
  760SOL    HW3 3039   0.621   0.024   0.325 -1.3637 -1.2718  0.7292
  760SOL    MW4 3040   0.573   0.074   0.272  0.2524 -0.5114 -0.0888
  761SOL     OW 3041   3.602   0.103   1.096 -0.2493  0.3258 -0.0122
  761SOL    HW2 3042   3.688   0.141   1.075 -0.2804  0.8253  0.7410
  761SOL    HW3 3043   3.593   0.117   1.190 -1.0814  0.1113 -0.0647
  761SOL    MW4 3044   3.612   0.110   1.106 -0.3632  0.3634  0.0803
  762SOL     OW 3045   3.224   3.970   0.455  0.1588  0.0028  0.1151
  762SOL    HW2 3046   3.192   3.908   0.389  0.2117  0.6096 -0.4802
  762SOL    HW3 3047   3.157   3.969   0.523 -0.5271  0.3495 -0.5549
  762SOL    MW4 3048   3.211   3.962   0.456  0.0753  0.1286 -0.0518
  763SOL     OW 3049   3.138   0.372   1.397  0.1957 -0.4351  0.0664
  763SOL    HW2 3050   3.138   0.307   1.326 -0.5060 -0.0361 -0.3020
  763SOL    HW3 3051   3.060   0.424   1.382 -0.2204 -0.6432  1.4145
  763SOL    MW4 3052   3.128   0.370   1.386  0.0482 -0.4099  0.1956
  764SOL     OW 3053   4.039   2.404   1.366  0.0712  0.1801 -0.5483
  764SOL    HW2 3054   3.965   2.361   1.410  0.3602  0.4653  0.2319
  764SOL    HW3 3055   4.117   2.361   1.401  0.2560 -0.8369 -2.1547
  764SOL    MW4 3056   4.039   2.393   1.376  0.1337  0.0835 -0.6573
  765SOL     OW 3057   2.722   3.483   1.774 -0.2045 -0.2232 -0.2710
  765SOL    HW2 3058   2.654   3.546   1.798 -0.5671 -0.0220 -1.8113
  765SOL    HW3 3059   2.712   3.471   1.680  0.4232 -1.9355 -0.1359
  765SOL    MW4 3060   2.712   3.490   1.765 -0.1695 -0.4226 -0.4564
  766SOL     OW 3061   0.008   2.459   1.395  0.0662 -0.1899 -0.2124
  766SOL    HW2 3062   0.012   2.545   1.436  2.0848  0.1118 -1.0027
  766SOL    HW3 3063   0.083   2.412   1.430 -1.5056 -1.9549  0.8791
  766SOL    MW4 3064   0.018   2.464   1.405  0.1251 -0.3829 -0.1726
  767SOL     OW 3065   2.041   1.233   1.105 -0.4611  0.1837  0.2364
  767SOL    HW2 3066   2.033   1.140   1.082  1.6094  0.1942 -0.6456
  767SOL    HW3 3067   2.048   1.233   1.201  0.1435 -0.6168  0.1928
  767SOL    MW4 3068   2.041   1.220   1.115 -0.1082  0.0795  0.1143
  768SOL     OW 3069   1.551   0.421   0.432  0.0541  0.2474 -0.0063
  768SOL    HW2 3070   1.520   0.504   0.470 -2.6872 -0.1948 -1.0902
  768SOL    HW3 3071   1.500   0.354   0.477  0.1896 -0.6085 -1.1134
  768SOL    MW4 3072   1.540   0.423   0.443 -0.2897  0.0761 -0.2954
  769SOL     OW 3073   4.452   2.388   0.565 -0.0742 -0.2594 -0.1807
  769SOL    HW2 3074   4.374   2.349   0.527  0.2930 -0.6126 -0.5816
  769SOL    HW3 3075   4.482   2.451   0.500  0.9612 -1.3812 -0.8078
  769SOL    MW4 3076   4.446   2.391   0.552  0.1109 -0.4540 -0.3163
  770SOL     OW 3077   4.274   2.041   1.358  0.2548  0.0140 -0.0462
  770SOL    HW2 3078   4.362   2.029   1.392  1.0562  1.6559 -1.4250
  770SOL    HW3 3079   4.245   2.125   1.395 -1.0210 -0.8758  0.9880
  770SOL    MW4 3080   4.282   2.051   1.367  0.1922  0.1132 -0.0916
  771SOL     OW 3081   4.486   0.593   0.993  0.0077  0.7384 -0.1673
  771SOL    HW2 3082   4.480   0.580   0.898  0.6074  0.4575 -0.1660
  771SOL    HW3 3083   4.479   0.688   1.004 -0.4338  0.7436 -0.4648
  771SOL    MW4 3084   4.484   0.604   0.982  0.0286  0.7020 -0.2064
  772SOL     OW 3085   3.885   0.233   0.260 -0.2788 -0.2537 -0.2074
  772SOL    HW2 3086   3.916   0.320   0.284 -0.5124  0.6091 -2.8256
  772SOL    HW3 3087   3.961   0.176   0.271  0.0368  0.3871  0.9519
  772SOL    MW4 3088   3.899   0.237   0.265 -0.2680 -0.0554 -0.3999
  773SOL     OW 3089   1.370   2.969   1.047 -0.0361 -0.2915 -0.0721
  773SOL    HW2 3090   1.364   2.965   0.951  0.7366  1.5871 -0.2131
  773SOL    HW3 3091   1.283   2.943   1.077 -0.2428 -1.0515 -1.2792
  773SOL    MW4 3092   1.358   2.965   1.038  0.0386 -0.1439 -0.2500
  774SOL     OW 3093   3.786   1.833   1.004 -0.0362  0.0030  0.8280
  774SOL    HW2 3094   3.794   1.796   0.916 -2.1080  2.3366 -0.4218
  774SOL    HW3 3095   3.703   1.797   1.037  0.1110  0.1224  1.3259
  774SOL    MW4 3096   3.776   1.823   0.996 -0.2901  0.3267  0.7288
  775SOL     OW 3097   2.405   2.135   0.476 -0.0996  0.0297  0.4924
  775SOL    HW2 3098   2.458   2.067   0.518 -0.6050 -1.0385 -0.5490
  775SOL    HW3 3099   2.462   2.169   0.407 -0.9957 -1.6253 -1.1005
  775SOL    MW4 3100   2.420   2.130   0.472 -0.2845 -0.3296  0.1448
  776SOL     OW 3101   1.990   4.403   1.110  0.0826 -0.0354 -0.2298
  776SOL    HW2 3102   2.065   4.450   1.074  0.1262  1.3944  1.6515
  776SOL    HW3 3103   1.915   4.457   1.085 -0.0400  0.0781  0.3814
  776SOL    MW4 3104   1.990   4.416   1.102  0.0721  0.1682  0.0991
  777SOL     OW 3105   3.350   2.813   1.123  0.2083  0.2883 -0.2395
  777SOL    HW2 3106   3.366   2.844   1.212 -1.0263 -2.1997  0.8860
  777SOL    HW3 3107   3.297   2.881   1.083  0.3791  1.2093  1.0734
  777SOL    MW4 3108   3.345   2.826   1.129  0.0679  0.0816  0.0822
  778SOL     OW 3109   4.055   4.548   0.998  0.0406 -0.1530  0.3696
  778SOL    HW2 3110   3.970   4.506   1.012 -0.3094  1.1582  2.2420
  778SOL    HW3 3111   4.117   4.491   1.042 -0.2293  0.4104  1.4835
  778SOL    MW4 3112   4.052   4.535   1.005 -0.0412  0.0943  0.7636
  779SOL     OW 3113   0.901   1.380   1.009  0.3111 -0.4771  0.3139
  779SOL    HW2 3114   0.825   1.337   1.047 -0.6119  0.0876 -0.8474
  779SOL    HW3 3115   0.976   1.342   1.055 -0.6167 -1.6873  0.8497
  779SOL    MW4 3116   0.901   1.369   1.020  0.0669 -0.5623  0.2314
  780SOL     OW 3117   1.647   0.108   0.136  0.4560  0.6145 -0.6894
  780SOL    HW2 3118   1.610   0.029   0.176  0.0656  0.5788 -1.1162
  780SOL    HW3 3119   1.692   0.152   0.208 -0.5697  0.7501 -0.1179
  780SOL    MW4 3120   1.648   0.103   0.151  0.2692  0.6277 -0.6703
  781SOL     OW 3121   0.627   4.393   1.377  0.2661  0.1462  0.1773
  781SOL    HW2 3122   0.679   4.327   1.423  1.3107  1.1221  0.4281
  781SOL    HW3 3123   0.672   4.405   1.294  0.1861  0.6756  0.2074
  781SOL    MW4 3124   0.640   4.386   1.372  0.3934  0.3448  0.2143
  782SOL     OW 3125   1.760   0.383   1.460 -0.0708  0.1476 -0.0301
  782SOL    HW2 3126   1.737   0.297   1.425 -0.4282 -1.1207  3.1222
  782SOL    HW3 3127   1.850   0.397   1.433  0.5533 -2.0100  0.8342
  782SOL    MW4 3128   1.769   0.374   1.452 -0.0356 -0.3044  0.4998
  783SOL     OW 3129   4.343   1.082   0.685  0.2436 -0.7905  0.3981
  783SOL    HW2 3130   4.304   1.063   0.771  1.3933 -2.2339  0.6150
  783SOL    HW3 3131   4.280   1.047   0.622 -0.4765  0.0369  0.6490
  783SOL    MW4 3132   4.329   1.075   0.688  0.3003 -0.8717  0.4598
  784SOL     OW 3133   0.917   1.160   1.749  0.1459  0.3398 -0.2981
  784SOL    HW2 3134   0.841   1.210   1.780 -1.4965 -2.0864 -0.3131
  784SOL    HW3 3135   0.901   1.148   1.655  1.0077  0.5726 -0.4787
  784SOL    MW4 3136   0.904   1.165   1.740  0.0429  0.0504 -0.3239
  785SOL     OW 3137   2.693   0.875   1.096 -0.2060  0.1039  0.1455
  785SOL    HW2 3138   2.719   0.811   1.029 -1.9676 -0.8074  0.3155
  785SOL    HW3 3139   2.614   0.915   1.061  0.8427  2.1588  0.0835
  785SOL    MW4 3140   2.686   0.871   1.083 -0.3000  0.2548  0.1598
  786SOL     OW 3141   4.052   3.233   1.412  1.1321  0.2778 -0.2667
  786SOL    HW2 3142   3.975   3.183   1.439  2.4903 -1.5240  0.3668
  786SOL    HW3 3143   4.032   3.323   1.438 -0.7944 -0.1295 -0.2132
  786SOL    MW4 3144   4.039   3.238   1.419  1.0572 -0.0137 -0.1760
  787SOL     OW 3145   1.145   0.994   0.995 -0.1484 -0.8563  0.5566
  787SOL    HW2 3146   1.158   1.087   1.013 -0.6586 -0.6414 -0.1870
  787SOL    HW3 3147   1.205   0.950   1.055  1.3424  0.0066 -0.2757
  787SOL    MW4 3148   1.155   1.001   1.006 -0.0190 -0.7141  0.3487
  788SOL     OW 3149   3.587   3.458   0.577 -0.2045 -0.3969  0.6983
  788SOL    HW2 3150   3.587   3.440   0.483  0.9061 -1.8814  0.9734
  788SOL    HW3 3151   3.623   3.546   0.585  0.9756 -0.7986 -0.1670
  788SOL    MW4 3152   3.592   3.468   0.566  0.0977 -0.6458  0.6204
  789SOL     OW 3153   0.867   0.102   1.116 -0.2540 -0.4902  0.4457
  789SOL    HW2 3154   0.814   0.170   1.075 -0.7871  0.0125  1.9426
  789SOL    HW3 3155   0.844   0.022   1.070 -1.0189  0.0227 -0.0710
  789SOL    MW4 3156   0.857   0.101   1.105 -0.4253 -0.3562  0.5751
  790SOL     OW 3157   2.695   0.092   1.105 -0.0795  0.1506 -0.0818
  790SOL    HW2 3158   2.606   0.126   1.095  0.1302  0.6321 -0.2997
  790SOL    HW3 3159   2.687  -0.001   1.082 -0.0493  0.7197 -2.4969
  790SOL    MW4 3160   2.682   0.084   1.101 -0.0479  0.2892 -0.4292
  791SOL     OW 3161   1.589   3.764   0.593 -0.0033 -0.1047 -0.4351
  791SOL    HW2 3162   1.640   3.827   0.644  0.5433  0.0164 -1.1303
  791SOL    HW3 3163   1.587   3.799   0.505 -2.2669  0.4572 -0.1832
  791SOL    MW4 3164   1.596   3.777   0.588 -0.2299 -0.0146 -0.4936
  792SOL     OW 3165   2.475   4.584   1.453 -0.3255 -0.1316 -0.3937
  792SOL    HW2 3166   2.480   4.587   1.549 -2.7489  0.7660 -0.2658
  792SOL    HW3 3167   2.545   4.641   1.423  0.2492 -0.1693  0.8460
  792SOL    MW4 3168   2.485   4.592   1.462 -0.5694 -0.0182 -0.2133
  793SOL     OW 3169   3.042   4.140   0.285 -0.4254  0.3747 -0.1757
  793SOL    HW2 3170   3.016   4.149   0.377  1.9785 -1.0593  0.6899
  793SOL    HW3 3171   3.129   4.180   0.281 -0.4378  0.2591 -1.7857
  793SOL    MW4 3172   3.050   4.146   0.297 -0.1099  0.1703 -0.2739
  794SOL     OW 3173   2.901   0.510   1.353  0.0417 -0.2267 -0.1902
  794SOL    HW2 3174   2.903   0.592   1.402 -1.7730 -0.4953  0.3421
  794SOL    HW3 3175   2.834   0.458   1.396  0.9736 -1.8911 -0.7128
  794SOL    MW4 3176   2.893   0.514   1.365 -0.0747 -0.4817 -0.1890
  795SOL     OW 3177   2.683   3.580   0.717 -0.0381 -0.1558  0.2084
  795SOL    HW2 3178   2.740   3.504   0.727 -0.0455 -0.0036  1.5447
  795SOL    HW3 3179   2.692   3.627   0.800 -1.8265  0.0437  0.3122
  795SOL    MW4 3180   2.692   3.576   0.730 -0.2750 -0.1094  0.3984
  796SOL     OW 3181   1.553   2.287   1.466  0.3972 -0.2783 -0.0448
  796SOL    HW2 3182   1.465   2.324   1.469  0.3512 -0.2148 -1.7890
  796SOL    HW3 3183   1.540   2.194   1.447  0.6913 -0.3732  0.2108
  796SOL    MW4 3184   1.540   2.280   1.464  0.4299 -0.2824 -0.2412
  797SOL     OW 3185   1.315   1.437   1.017  0.2769 -0.5013 -0.2867
  797SOL    HW2 3186   1.307   1.434   0.922 -0.7224 -1.5218 -0.1792
  797SOL    HW3 3187   1.397   1.391   1.036  1.4357  1.2944 -0.7480
  797SOL    MW4 3188   1.325   1.430   1.007  0.2980 -0.3990 -0.3334
  798SOL     OW 3189   1.789   1.347   1.021  0.1003  0.0592  0.2243
  798SOL    HW2 3190   1.804   1.437   1.050 -0.8630  0.0794  0.6790
  798SOL    HW3 3191   1.869   1.301   1.044  1.6053  1.3229 -2.2173
  798SOL    MW4 3192   1.802   1.353   1.028  0.1718  0.2286 -0.0378
  799SOL     OW 3193   2.888   3.059   0.233  0.4088  0.2924  0.0297
  799SOL    HW2 3194   2.856   3.128   0.292 -2.9289 -0.5779 -0.6369
  799SOL    HW3 3195   2.868   3.093   0.145 -1.6971 -1.6515 -0.2869
  799SOL    MW4 3196   2.881   3.073   0.229 -0.3094 -0.0789 -0.1000
  800SOL     OW 3197   3.213   1.071   0.695 -0.8151 -0.3664  0.2984
  800SOL    HW2 3198   3.241   1.036   0.610  0.7935 -1.0362  1.0683
  800SOL    HW3 3199   3.212   1.166   0.683 -1.2261 -0.4886 -0.6492
  800SOL    MW4 3200   3.217   1.079   0.682 -0.6571 -0.4709  0.2750
  801SOL     OW 3201   0.664   1.006   1.036  0.2818  0.3165  0.1322
  801SOL    HW2 3202   0.584   0.961   1.063  1.2674 -0.4839  1.7539
  801SOL    HW3 3203   0.658   1.091   1.079 -0.5066  0.9402 -1.1530
  801SOL    MW4 3204   0.652   1.011   1.045  0.3078  0.2932  0.1766
  802SOL     OW 3205   0.019   0.027   0.619  0.3665  0.4852  0.1297
  802SOL    HW2 3206   0.044   0.108   0.663  0.4839  1.0558 -0.9792
  802SOL    HW3 3207  -0.065   0.046   0.578  0.4513  0.0895 -0.2392
  802SOL    MW4 3208   0.011   0.040   0.620  0.3932  0.5083 -0.0653
  803SOL     OW 3209   4.293   2.833   1.386  0.1726 -0.1319  0.2976
  803SOL    HW2 3210   4.226   2.776   1.424 -2.3462  1.0161 -2.2830
  803SOL    HW3 3211   4.278   2.919   1.427 -1.1130  0.5566 -1.5551
  803SOL    MW4 3212   4.282   2.837   1.397 -0.3293  0.1104 -0.2873
  804SOL     OW 3213   4.056   2.888   0.446 -0.2848  0.8071 -0.0096
  804SOL    HW2 3214   4.125   2.943   0.409  0.5680 -0.6891 -0.6412
  804SOL    HW3 3215   4.086   2.867   0.534 -0.0192  0.2936 -0.2245
  804SOL    MW4 3216   4.069   2.893   0.453 -0.1372  0.5419 -0.1213
  805SOL     OW 3217   0.846   4.116   0.440  0.1414  0.0140 -0.7673
  805SOL    HW2 3218   0.931   4.139   0.477 -0.1325  0.9821 -0.7430
  805SOL    HW3 3219   0.792   4.193   0.455 -0.4957 -0.2844 -1.5532
  805SOL    MW4 3220   0.850   4.129   0.447  0.0212  0.1024 -0.8678
  806SOL     OW 3221   0.594   1.058   0.768  0.1476  0.1600 -0.2758
  806SOL    HW2 3222   0.620   0.972   0.736 -3.1421 -0.7347 -0.7471
  806SOL    HW3 3223   0.616   1.057   0.861  2.3454 -0.2520 -0.7763
  806SOL    MW4 3224   0.600   1.046   0.776  0.0036 -0.0124 -0.4040
  807SOL     OW 3225   2.607   2.755   0.636  0.8891  0.0301 -0.3896
  807SOL    HW2 3226   2.622   2.802   0.554  1.2231 -1.3315 -1.1361
  807SOL    HW3 3227   2.693   2.723   0.662  0.7650  0.3496  0.4376
  807SOL    MW4 3228   2.620   2.757   0.629  0.9168 -0.1074 -0.3789
  808SOL     OW 3229   2.240   3.821   0.726  0.6002  0.2498  0.1979
  808SOL    HW2 3230   2.264   3.912   0.710  1.5081  0.4921  2.7151
  808SOL    HW3 3231   2.306   3.770   0.679  0.8609  0.9048 -0.1509
  808SOL    MW4 3232   2.252   3.826   0.718  0.7544  0.3682  0.4840
  809SOL     OW 3233   0.218   3.770   0.244 -0.0291  0.2191 -0.5088
  809SOL    HW2 3234   0.281   3.731   0.305 -1.7505  0.2590  1.3530
  809SOL    HW3 3235   0.213   3.862   0.269 -0.6825  0.2557 -0.7511
  809SOL    MW4 3236   0.226   3.777   0.255 -0.3424  0.2292 -0.2951
  810SOL     OW 3237   2.867   2.674   0.697  0.3627 -0.1645 -0.4640
  810SOL    HW2 3238   2.894   2.588   0.666 -0.4722 -0.9916  1.0413
  810SOL    HW3 3239   2.886   2.673   0.791 -2.9681 -0.0432  0.2658
  810SOL    MW4 3240   2.873   2.663   0.705 -0.1869 -0.2576 -0.1691
  811SOL     OW 3241   0.652   2.394   0.368  0.6769  0.2232 -0.4462
  811SOL    HW2 3242   0.735   2.410   0.325  0.4987  0.5666 -0.6637
  811SOL    HW3 3243   0.615   2.481   0.382  0.4600  0.0837 -0.1415
  811SOL    MW4 3244   0.658   2.407   0.364  0.6247  0.2501 -0.4347
  812SOL     OW 3245   3.589   2.143   1.033  0.3945 -0.0535 -0.0017
  812SOL    HW2 3246   3.581   2.233   1.064 -0.9389 -1.1972  3.2232
  812SOL    HW3 3247   3.680   2.119   1.052  0.4083  0.2225  0.2964
  812SOL    MW4 3248   3.600   2.152   1.040  0.2204 -0.1680  0.4631
  813SOL     OW 3249   0.238   1.271   1.076  0.8060 -0.1640  0.1381
  813SOL    HW2 3250   0.228   1.280   1.171  0.6964  1.7572 -0.0457
  813SOL    HW3 3251   0.324   1.309   1.057  0.4796  0.2008 -0.6339
  813SOL    MW4 3252   0.248   1.277   1.086  0.7485  0.1376  0.0120
  814SOL     OW 3253   1.357   4.005   1.426  0.4104 -0.1208  0.3283
  814SOL    HW2 3254   1.447   3.974   1.439  0.3330  0.0349  1.3066
  814SOL    HW3 3255   1.355   4.035   1.336  0.6790 -2.3206 -0.4368
  814SOL    MW4 3256   1.369   4.005   1.416  0.4356 -0.3905  0.3564
  815SOL     OW 3257   0.520   0.573   0.089  0.4084 -0.3512  0.1103
  815SOL    HW2 3258   0.524   0.629   0.167 -1.5085  1.2215 -0.8927
  815SOL    HW3 3259   0.544   0.630   0.017 -1.3322 -0.8828 -0.9048
  815SOL    MW4 3260   0.524   0.588   0.090 -0.0742 -0.2139 -0.1559
  816SOL     OW 3261   4.231   1.009   0.944  0.1664 -0.2610  0.0471
  816SOL    HW2 3262   4.302   0.956   0.981  0.4132  1.0024  1.3972
  816SOL    HW3 3263   4.242   1.096   0.982 -1.5811  0.1912 -0.4080
  816SOL    MW4 3264   4.242   1.013   0.954 -0.0316 -0.0347  0.1652
  817SOL     OW 3265   2.337   2.596   0.402  0.0337  0.0013 -0.4009
  817SOL    HW2 3266   2.411   2.587   0.343 -1.1233  1.3068 -2.1038
  817SOL    HW3 3267   2.339   2.687   0.429 -0.0037 -0.3582  0.8335
  817SOL    MW4 3268   2.347   2.607   0.398 -0.1239  0.1261 -0.4627
  818SOL     OW 3269   4.456   3.506   1.446 -0.0105  0.0096  0.1175
  818SOL    HW2 3270   4.456   3.498   1.541 -0.7477 -0.5858  0.0666
  818SOL    HW3 3271   4.378   3.558   1.426  0.3539  0.4645 -0.1390
  818SOL    MW4 3272   4.446   3.512   1.456 -0.0597 -0.0089  0.0769
  819SOL     OW 3273   0.464   0.673   0.687 -0.1243 -0.2684  0.8657
  819SOL    HW2 3274   0.413   0.722   0.623  2.4877  2.3987  0.7073
  819SOL    HW3 3275   0.491   0.594   0.641  1.6054  1.5454 -1.3733
  819SOL    MW4 3276   0.461   0.669   0.673  0.4485  0.3228  0.5494
  820SOL     OW 3277   1.326   2.655   1.515  0.4366 -0.0377 -0.5923
  820SOL    HW2 3278   1.400   2.713   1.495  1.2135 -0.9020 -0.2394
  820SOL    HW3 3279   1.250   2.702   1.482  0.7014  2.4763  2.1111
  820SOL    MW4 3280   1.326   2.669   1.508  0.5741  0.1800 -0.1890
  821SOL     OW 3281   1.311   0.651   0.973  0.2591 -0.2488  0.1741
  821SOL    HW2 3282   1.380   0.604   1.020  0.0956  0.2460  0.9119
  821SOL    HW3 3283   1.295   0.598   0.895  0.4707 -1.1294  0.7176
  821SOL    MW4 3284   1.318   0.638   0.969  0.2654 -0.2997  0.3432
  822SOL     OW 3285   1.600   3.897   1.475 -0.1744  0.2320  0.8053
  822SOL    HW2 3286   1.587   3.889   1.569 -1.0364 -1.3144  0.5887
  822SOL    HW3 3287   1.610   3.807   1.445  1.2560  0.7865 -0.4351
  822SOL    MW4 3288   1.599   3.884   1.483 -0.0994  0.1011  0.6131
  823SOL     OW 3289   4.277   3.609   0.165 -0.2744  0.5304  0.6197
  823SOL    HW2 3290   4.216   3.681   0.154 -0.8061 -0.1822 -1.4312
  823SOL    HW3 3291   4.222   3.530   0.164  0.5758 -0.0714 -0.5010
  823SOL    MW4 3292   4.262   3.608   0.163 -0.2324  0.3570  0.2012
  824SOL     OW 3293   3.574   0.665   0.936 -0.0312  0.4993  0.1758
  824SOL    HW2 3294   3.639   0.620   0.990  0.7410  0.4092 -0.8109
  824SOL    HW3 3295   3.615   0.671   0.849 -2.1852 -1.4179 -1.0226
  824SOL    MW4 3296   3.588   0.660   0.932 -0.2135  0.2345 -0.1125
  825SOL     OW 3297   2.466   0.718   1.493  0.0788  0.7283  0.0434
  825SOL    HW2 3298   2.538   0.777   1.469 -1.5420  2.3741 -0.8699
  825SOL    HW3 3299   2.466   0.652   1.423  0.6799  0.7271  0.0371
  825SOL    MW4 3300   2.476   0.717   1.480 -0.0558  0.9453 -0.0779
  826SOL     OW 3301   0.881   0.322   1.484 -0.2665 -0.0663 -0.0291
  826SOL    HW2 3302   0.883   0.325   1.579  0.9595  0.1884 -0.0480
  826SOL    HW3 3303   0.874   0.229   1.463 -1.3604 -0.0652  0.3084
  826SOL    MW4 3304   0.881   0.310   1.494 -0.2491 -0.0326  0.0130
  827SOL     OW 3305   0.437   3.991   1.323 -0.2826 -0.3076  0.1572
  827SOL    HW2 3306   0.509   3.951   1.371 -0.8961 -0.6878  0.7745
  827SOL    HW3 3307   0.461   3.983   1.231  0.2609 -0.8121  0.3465
  827SOL    MW4 3308   0.450   3.985   1.317 -0.2918 -0.4243  0.2636
  828SOL     OW 3309   3.840   3.089   1.491 -0.0950  0.0816 -0.9764
  828SOL    HW2 3310   3.756   3.125   1.462  0.0008  1.5962  0.5461
  828SOL    HW3 3311   3.849   3.007   1.443 -3.0877 -0.7590 -0.2069
  828SOL    MW4 3312   3.830   3.083   1.481 -0.4772  0.1705 -0.6740
  829SOL     OW 3313   2.946   1.549   1.467 -0.0616 -0.0442 -0.2706
  829SOL    HW2 3314   2.864   1.589   1.437 -0.5978 -2.0428 -1.5636
  829SOL    HW3 3315   3.013   1.587   1.410 -0.4724 -0.4027 -1.0078
  829SOL    MW4 3316   2.944   1.559   1.455 -0.1866 -0.3552 -0.5385
  830SOL     OW 3317   3.169   3.496   0.641  0.2892  0.4253  0.3917
  830SOL    HW2 3318   3.256   3.457   0.652 -0.9508 -2.7478 -0.2801
  830SOL    HW3 3319   3.150   3.488   0.547 -1.5067 -0.8057  0.8168
  830SOL    MW4 3320   3.178   3.489   0.630 -0.1114 -0.1558  0.3591
  831SOL     OW 3321   3.155   3.549   0.311  0.1891  0.0179  0.0633
  831SOL    HW2 3322   3.075   3.498   0.299  0.4272  0.0353 -1.7436
  831SOL    HW3 3323   3.128   3.640   0.293  0.3465  0.1809  0.6443
  831SOL    MW4 3324   3.141   3.555   0.307  0.2412  0.0417 -0.0984
  832SOL     OW 3325   1.273   3.492   0.607  0.1928  0.1199 -0.2095
  832SOL    HW2 3326   1.330   3.519   0.679  1.0438  0.0107 -0.8414
  832SOL    HW3 3327   1.215   3.426   0.647  0.9399 -0.2573  0.2810
  832SOL    MW4 3328   1.273   3.487   0.622  0.4036  0.0557 -0.2281
  833SOL     OW 3329   0.521   4.015   1.042 -0.0554  0.4108  0.2215
  833SOL    HW2 3330   0.497   3.925   1.017  0.0894  0.3089  0.4405
  833SOL    HW3 3331   0.443   4.067   1.025  0.5208  0.6200 -1.8905
  833SOL    MW4 3332   0.508   4.010   1.037  0.0397  0.4250 -0.0282
  834SOL     OW 3333   1.669   2.933   0.754  0.2617 -0.1861  0.3218
  834SOL    HW2 3334   1.737   2.942   0.820 -0.2951 -0.4073  0.9283
  834SOL    HW3 3335   1.643   2.841   0.758 -0.1738 -0.0689  0.1849
  834SOL    MW4 3336   1.675   2.922   0.763  0.1308 -0.1998  0.3837
  835SOL     OW 3337   2.021   1.470   0.624 -0.4828 -0.3549 -0.1354
  835SOL    HW2 3338   1.991   1.469   0.534 -0.7836 -0.5706 -0.0339
  835SOL    HW3 3339   1.950   1.429   0.674 -0.4661  0.0767  0.2442
  835SOL    MW4 3340   2.008   1.464   0.619 -0.5203 -0.3264 -0.0719
  836SOL     OW 3341   2.481   3.581   1.116 -0.3296 -0.0650 -0.4814
  836SOL    HW2 3342   2.476   3.587   1.211 -1.7612 -0.6814 -0.4989
  836SOL    HW3 3343   2.410   3.637   1.085 -0.7275 -0.9174 -1.1331
  836SOL    MW4 3344   2.471   3.589   1.125 -0.5710 -0.2588 -0.5697
  837SOL     OW 3345   1.349   0.864   1.138  0.0843 -0.5227  0.1707
  837SOL    HW2 3346   1.346   0.799   1.068 -0.2621 -0.1619 -0.1540
  837SOL    HW3 3347   1.413   0.929   1.107 -0.1974 -0.2739  0.1114
  837SOL    MW4 3348   1.357   0.864   1.125  0.0014 -0.4423  0.1200
  838SOL     OW 3349   2.012   2.291   1.438 -0.6330 -0.6913 -0.0410
  838SOL    HW2 3350   2.035   2.321   1.526  0.8985 -0.1550 -0.6040
  838SOL    HW3 3351   1.926   2.330   1.422 -0.4806  0.0397  0.8330
  838SOL    MW4 3352   2.004   2.300   1.447 -0.4108 -0.5241  0.0001
  839SOL     OW 3353   3.560   0.769   0.327 -0.1326 -0.4112  0.2365
  839SOL    HW2 3354   3.472   0.793   0.299  0.6813  0.1898 -1.8956
  839SOL    HW3 3355   3.562   0.674   0.322 -0.4504 -0.3859 -0.3555
  839SOL    MW4 3356   3.548   0.760   0.323 -0.0672 -0.3285 -0.1229
  840SOL     OW 3357   3.610   3.222   1.409  0.4182  0.2880  0.0235
  840SOL    HW2 3358   3.599   3.234   1.315  0.4289  3.5820  0.4016
  840SOL    HW3 3359   3.522   3.202   1.441 -0.0099  1.4642 -0.3863
  840SOL    MW4 3360   3.597   3.221   1.401  0.3631  0.8778  0.0193
  841SOL     OW 3361   4.259   0.119   0.561  0.1064  0.6750 -0.3838
  841SOL    HW2 3362   4.213   0.114   0.478 -0.0013  0.3124 -0.3019
  841SOL    HW3 3363   4.198   0.082   0.625  0.1982  0.9275 -0.1478
  841SOL    MW4 3364   4.245   0.114   0.559  0.1043  0.6605 -0.3419
  842SOL     OW 3365   2.022   3.078   1.734  0.2058  0.7877 -0.4361
  842SOL    HW2 3366   1.948   3.116   1.782  0.2948  1.8529 -1.1459
  842SOL    HW3 3367   2.035   2.992   1.776 -0.5171  1.1785  0.6245
  842SOL    MW4 3368   2.014   3.072   1.746  0.1221  0.9798 -0.3898
  843SOL     OW 3369   1.969   2.163   0.518  0.2653  0.1200  0.7751
  843SOL    HW2 3370   1.988   2.079   0.476  1.1157  0.6575  0.0743
  843SOL    HW3 3371   1.891   2.146   0.572 -0.8340 -0.5712 -0.9943
  843SOL    MW4 3372   1.961   2.149   0.520  0.2324  0.0997  0.4492
  844SOL     OW 3373   4.379   0.214   0.233 -0.0883  0.4087  0.0514
  844SOL    HW2 3374   4.455   0.178   0.278 -0.2339  0.1242  0.0647
  844SOL    HW3 3375   4.409   0.300   0.202  0.0416  0.5682  0.6058
  844SOL    MW4 3376   4.393   0.221   0.235 -0.0903  0.3922  0.1263
  845SOL     OW 3377   1.843   3.453   1.791 -0.7077  0.1672 -0.1686
  845SOL    HW2 3378   1.811   3.366   1.818 -0.4115  0.4403  1.1073
  845SOL    HW3 3379   1.774   3.513   1.818 -0.2529  0.4857  0.2904
  845SOL    MW4 3380   1.829   3.449   1.799 -0.6086  0.2452  0.0603
  846SOL     OW 3381   0.229   1.250   1.366 -0.3304  0.4190 -0.0576
  846SOL    HW2 3382   0.220   1.338   1.403  1.2724  0.0121  1.3593
  846SOL    HW3 3383   0.175   1.195   1.422  1.0962  0.0089  0.9354
  846SOL    MW4 3384   0.220   1.254   1.378  0.0693  0.3112  0.2604
  847SOL     OW 3385   1.414   1.795   0.827  0.1465  0.2866 -0.0433
  847SOL    HW2 3386   1.477   1.793   0.898  0.6313  1.0589 -0.4415
  847SOL    HW3 3387   1.451   1.856   0.763 -1.1604  1.0294 -0.1278
  847SOL    MW4 3388   1.427   1.803   0.828  0.0381  0.4865 -0.1070
  848SOL     OW 3389   0.210   0.226   1.020 -0.2244 -0.5927 -0.1731
  848SOL    HW2 3390   0.293   0.184   1.040 -0.2356  0.2704  1.7127
  848SOL    HW3 3391   0.222   0.317   1.046 -0.7655  0.2516 -2.6708
  848SOL    MW4 3392   0.222   0.232   1.026 -0.2973 -0.3674 -0.2539
  849SOL     OW 3393   0.929   3.138   0.342 -0.6273  0.0054 -0.0785
  849SOL    HW2 3394   0.925   3.223   0.298 -0.9612 -0.7969 -1.6326
  849SOL    HW3 3395   1.021   3.113   0.338 -0.4977  0.3804  0.5491
  849SOL    MW4 3396   0.940   3.146   0.336 -0.6542 -0.0509 -0.2008
  850SOL     OW 3397   1.794   2.208   0.984  0.0586 -0.0530 -0.4161
  850SOL    HW2 3398   1.815   2.290   1.028  0.2497 -0.3520  0.0471
  850SOL    HW3 3399   1.858   2.145   1.017 -1.1711 -0.8221  0.5339
  850SOL    MW4 3400   1.805   2.210   0.994 -0.0784 -0.1939 -0.2297
  851SOL     OW 3401   0.071   0.025   0.332 -0.0143  0.2816 -0.1656
  851SOL    HW2 3402   0.053   0.019   0.426 -0.2736 -0.2677 -0.2480
  851SOL    HW3 3403   0.015  -0.041   0.293 -0.5116  1.0733 -0.7997
  851SOL    MW4 3404   0.062   0.015   0.339 -0.1141  0.3136 -0.2602
  852SOL     OW 3405   2.732   2.863   0.395  0.3439  0.7199  0.2365
  852SOL    HW2 3406   2.766   2.782   0.358 -1.2882  0.5453 -0.9391
  852SOL    HW3 3407   2.785   2.932   0.355 -0.4787  0.4342 -1.4170
  852SOL    MW4 3408   2.743   2.861   0.384  0.0200  0.6591 -0.1368
  853SOL     OW 3409   2.244   0.354   1.453  0.3993  0.1197  0.6071
  853SOL    HW2 3410   2.230   0.260   1.439 -1.0205  0.4966 -0.5297
  853SOL    HW3 3411   2.252   0.363   1.548 -1.1278 -0.9336  0.8420
  853SOL    MW4 3412   2.243   0.343   1.464  0.0105  0.0304  0.4881
  854SOL     OW 3413   2.878   1.055   0.999 -0.1711  0.6456 -0.1152
  854SOL    HW2 3414   2.822   0.981   1.022  1.4977 -0.7778 -0.5056
  854SOL    HW3 3415   2.965   1.028   1.027  1.0677  0.9994 -3.3453
  854SOL    MW4 3416   2.882   1.041   1.006  0.2125  0.5045 -0.5929
  855SOL     OW 3417   2.208   0.103   1.080 -0.4278 -0.3945 -0.2038
  855SOL    HW2 3418   2.214   0.098   1.176  1.0695  0.6133 -0.2144
  855SOL    HW3 3419   2.298   0.121   1.052 -0.7438 -1.3244 -1.8521
  855SOL    MW4 3420   2.221   0.105   1.089 -0.2719 -0.3842 -0.4227
  856SOL     OW 3421   3.638   0.936   1.306  0.0920 -0.3822  0.1917
  856SOL    HW2 3422   3.704   0.881   1.348  0.7510 -0.8209 -1.3749
  856SOL    HW3 3423   3.555   0.901   1.337  0.5416 -1.2710  0.4268
  856SOL    MW4 3424   3.636   0.924   1.315  0.2383 -0.5574  0.0160
  857SOL     OW 3425   4.127   3.388   0.269 -0.4374 -0.1163 -0.0177
  857SOL    HW2 3426   4.198   3.345   0.317  0.8537  0.9655 -0.9208
  857SOL    HW3 3427   4.067   3.317   0.245 -0.0010 -0.9515  1.3260
  857SOL    MW4 3428   4.129   3.373   0.272 -0.2095 -0.0838  0.0404
  858SOL     OW 3429   0.167   2.059   0.085  0.3282  0.0122 -0.4492
  858SOL    HW2 3430   0.151   1.997   0.013 -0.8166 -0.3544  0.1151
  858SOL    HW3 3431   0.260   2.081   0.076  0.3563 -0.5083 -1.6655
  858SOL    MW4 3432   0.177   2.054   0.074  0.1809 -0.1049 -0.5352
  859SOL     OW 3433   2.220   4.271   1.525 -0.3033  0.6139 -0.1071
  859SOL    HW2 3434   2.145   4.324   1.498  0.5852  2.3432  0.7306
  859SOL    HW3 3435   2.293   4.302   1.471  0.0948 -0.1725 -0.0367
  859SOL    MW4 3436   2.220   4.282   1.515 -0.1335  0.7383  0.0127
  860SOL     OW 3437   1.600   1.555   1.445 -0.1396 -0.2781 -0.4368
  860SOL    HW2 3438   1.510   1.588   1.436 -0.6351 -1.3143  0.6104
  860SOL    HW3 3439   1.615   1.554   1.539  1.1986  0.4633 -0.6333
  860SOL    MW4 3440   1.590   1.560   1.456 -0.0284 -0.3170 -0.3245
  861SOL     OW 3441   4.034   3.501   1.502  0.5041  0.5769 -0.3158
  861SOL    HW2 3442   4.050   3.492   1.596 -0.2887  0.3712 -0.1954
  861SOL    HW3 3443   3.950   3.546   1.497 -0.9599 -2.1369 -0.9206
  861SOL    MW4 3444   4.025   3.506   1.514  0.2064  0.1917 -0.3797
  862SOL     OW 3445   2.489   2.314   1.408 -0.1390 -0.0024 -0.1587
  862SOL    HW2 3446   2.563   2.371   1.387 -0.4735  0.5136  0.0463
  862SOL    HW3 3447   2.480   2.319   1.503 -1.4568  1.2351 -0.3262
  862SOL    MW4 3448   2.497   2.322   1.418 -0.3570  0.2290 -0.1537
  863SOL     OW 3449   3.693   2.196   0.368 -0.1157  0.2599 -0.0365
  863SOL    HW2 3450   3.721   2.237   0.450  1.2884 -0.8480  0.0537
  863SOL    HW3 3451   3.664   2.269   0.313 -2.4605  0.8899  1.9546
  863SOL    MW4 3452   3.693   2.211   0.372 -0.2398  0.1969  0.2381
  864SOL     OW 3453   0.441   3.486   1.475  0.0036 -0.1592  0.3473
  864SOL    HW2 3454   0.433   3.480   1.570 -0.8355 -0.8692  0.2371
  864SOL    HW3 3455   0.356   3.519   1.445  1.2541  2.9565  0.0754
  864SOL    MW4 3456   0.429   3.489   1.484  0.0579  0.1582  0.2969
  865SOL     OW 3457   4.451   0.101   1.070  0.1829 -0.5351  0.2254
  865SOL    HW2 3458   4.539   0.139   1.067 -0.3501  0.6386 -2.3131
  865SOL    HW3 3459   4.394   0.171   1.039 -1.4412 -1.8133  0.2603
  865SOL    MW4 3460   4.456   0.115   1.065 -0.1017 -0.5489 -0.1049
  866SOL     OW 3461   1.769   0.183   1.101  0.2214  0.0215 -0.1752
  866SOL    HW2 3462   1.813   0.268   1.092  0.5799 -0.1240  0.2022
  866SOL    HW3 3463   1.678   0.201   1.077  0.4353  0.3758 -0.7247
  866SOL    MW4 3464   1.763   0.196   1.097  0.2969  0.0491 -0.1979
  867SOL     OW 3465   0.088   3.526   0.144 -0.4744 -0.4714 -0.1923
  867SOL    HW2 3466   0.135   3.607   0.162  0.6658 -1.5136  1.6686
  867SOL    HW3 3467  -0.002   3.554   0.128  0.1086  1.2507 -0.5979
  867SOL    MW4 3468   0.083   3.541   0.144 -0.2470 -0.3817 -0.0003
  868SOL     OW 3469   2.017   2.826   1.111  0.6128 -0.1295 -0.2943
  868SOL    HW2 3470   1.985   2.810   1.200  1.6282 -0.5660 -0.0024
  868SOL    HW3 3471   2.016   2.740   1.069 -1.0754  0.2686 -1.1260
  868SOL    MW4 3472   2.012   2.812   1.117  0.5240 -0.1345 -0.3655
  869SOL     OW 3473   2.203   0.584   0.129 -0.0480  0.2964  0.4719
  869SOL    HW2 3474   2.237   0.591   0.039  0.7414 -0.0021  0.7420
  869SOL    HW3 3475   2.199   0.490   0.146 -0.2919  0.3512  0.7122
  869SOL    MW4 3476   2.207   0.572   0.119  0.0240  0.2642  0.5393
  870SOL     OW 3477   0.942   3.385   0.187 -0.0489 -0.7768 -0.0814
  870SOL    HW2 3478   0.903   3.441   0.120  0.4355 -3.4361 -2.7068
  870SOL    HW3 3479   1.036   3.391   0.171 -0.0123 -2.6757 -0.7590
  870SOL    MW4 3480   0.949   3.393   0.176  0.0198 -1.3782 -0.5172
  871SOL     OW 3481   2.233   1.393   0.975 -0.3238 -0.7498  0.4314
  871SOL    HW2 3482   2.153   1.355   1.010  0.6735 -1.3879  2.0723
  871SOL    HW3 3483   2.240   1.479   1.016 -0.3485 -0.5433  0.0111
  871SOL    MW4 3484   2.223   1.399   0.985 -0.1955 -0.8068  0.5925
  872SOL     OW 3485   0.885   3.271   1.162 -0.0221 -0.2322  0.1052
  872SOL    HW2 3486   0.970   3.295   1.125  0.1180 -0.9467 -0.0374
  872SOL    HW3 3487   0.902   3.260   1.255  0.0417 -0.3865  0.0751
  872SOL    MW4 3488   0.898   3.273   1.169  0.0048 -0.3468  0.0824
  873SOL     OW 3489   2.241   1.902   1.438 -0.1865  0.5213 -0.0911
  873SOL    HW2 3490   2.312   1.959   1.409 -0.9021  1.9235  0.8320
  873SOL    HW3 3491   2.251   1.898   1.533  0.1287 -1.2811 -0.1949
  873SOL    MW4 3492   2.251   1.909   1.447 -0.2393  0.4685  0.0170
  874SOL     OW 3493   4.264   3.212   0.708 -0.3611 -0.2086 -0.1090
  874SOL    HW2 3494   4.340   3.196   0.764  1.5073  2.7322 -1.6890
  874SOL    HW3 3495   4.236   3.300   0.730 -3.5067 -1.3556  0.6172
  874SOL    MW4 3496   4.271   3.222   0.718 -0.5296  0.0281 -0.2216
  875SOL     OW 3497   0.214   3.619   1.361  0.1989  0.1136 -0.1077
  875SOL    HW2 3498   0.221   3.637   1.267 -0.7433 -0.7290 -0.3508
  875SOL    HW3 3499   0.126   3.582   1.371 -0.4754  1.9954  1.3916
  875SOL    MW4 3500   0.203   3.617   1.350 -0.0144  0.2507  0.0580
  876SOL     OW 3501   2.746   0.203   0.261  0.3363  0.1993 -0.1537
  876SOL    HW2 3502   2.704   0.280   0.300  1.4404  0.4643  0.5408
  876SOL    HW3 3503   2.814   0.240   0.205  1.7561 -0.3050  1.2298
  876SOL    MW4 3504   2.749   0.218   0.259  0.6693  0.1677  0.1204
  877SOL     OW 3505   2.179   3.169   0.582  0.4295 -0.2021  0.3211
  877SOL    HW2 3506   2.177   3.172   0.487  1.3007 -1.9902  0.2315
  877SOL    HW3 3507   2.272   3.178   0.604  0.2373  0.1647  1.0110
  877SOL    MW4 3508   2.191   3.171   0.573  0.5191 -0.3896  0.4003
  878SOL     OW 3509   3.194   0.549   0.419 -0.0043 -0.2480  0.7717
  878SOL    HW2 3510   3.178   0.560   0.513 -2.0548  0.4424  0.3478
  878SOL    HW3 3511   3.145   0.470   0.395 -1.3609  0.8677 -0.1755
  878SOL    MW4 3512   3.186   0.540   0.428 -0.4539 -0.0097  0.5908
  879SOL     OW 3513   2.502   0.642   0.729  0.0707 -0.2537  0.3737
  879SOL    HW2 3514   2.538   0.723   0.693  0.6115  0.0593  1.5930
  879SOL    HW3 3515   2.562   0.574   0.698 -0.4955 -0.2268 -0.8151
  879SOL    MW4 3516   2.515   0.643   0.720  0.0674 -0.2088  0.3777
  880SOL     OW 3517   0.445   0.101   1.382 -0.1375  0.2524 -0.4460
  880SOL    HW2 3518   0.460   0.190   1.413 -0.1123 -0.0713  0.4797
  880SOL    HW3 3519   0.515   0.050   1.422 -0.6952 -0.3486 -0.2380
  880SOL    MW4 3520   0.456   0.106   1.391 -0.2077  0.1304 -0.2964
  881SOL     OW 3521   4.261   0.293   0.956  0.0275  0.4352  0.6757
  881SOL    HW2 3522   4.266   0.380   0.994  0.0669  0.9184 -0.4424
  881SOL    HW3 3523   4.179   0.257   0.989  0.7683  0.2817  2.4189
  881SOL    MW4 3524   4.251   0.299   0.965  0.1304  0.4787  0.7582
  882SOL     OW 3525   2.038   0.955   1.059 -0.5276 -0.3390 -0.0435
  882SOL    HW2 3526   2.011   0.952   0.967 -1.0735 -0.2142  0.1074
  882SOL    HW3 3527   2.107   0.889   1.066 -0.6850 -0.5533 -0.4819
  882SOL    MW4 3528   2.043   0.946   1.048 -0.6204 -0.3508 -0.0814
  883SOL     OW 3529   2.964   1.543   0.221 -0.1587  0.4928  0.2761
  883SOL    HW2 3530   2.995   1.632   0.203 -1.1625  1.0552  1.2569
  883SOL    HW3 3531   2.868   1.550   0.217 -0.2360 -0.6111  0.0668
  883SOL    MW4 3532   2.955   1.556   0.218 -0.3013  0.4214  0.3779
  884SOL     OW 3533   0.915   3.485   1.480  0.7002 -0.1162  0.2907
  884SOL    HW2 3534   0.845   3.537   1.440  0.7882 -1.1253 -1.1864
  884SOL    HW3 3535   0.996   3.523   1.445  0.8526  0.2191  0.9968
  884SOL    MW4 3536   0.917   3.497   1.470  0.7319 -0.2051  0.1890
  885SOL     OW 3537   2.422   3.610   0.607 -0.3377  0.0488 -0.0820
  885SOL    HW2 3538   2.507   3.596   0.649 -0.5003 -0.1905  0.1726
  885SOL    HW3 3539   2.361   3.557   0.659 -0.6912  0.4588 -0.0745
  885SOL    MW4 3540   2.425   3.601   0.620 -0.4058  0.0713 -0.0475
  886SOL     OW 3541   2.689   2.675   1.483  0.2737  0.2010  0.1418
  886SOL    HW2 3542   2.687   2.592   1.435  0.9657 -0.2222  0.8215
  886SOL    HW3 3543   2.755   2.727   1.438 -2.2221  1.5371 -2.0970
  886SOL    MW4 3544   2.698   2.671   1.471  0.0357  0.3214 -0.0639
  887SOL     OW 3545   2.828   1.849   0.896 -0.0181 -0.4731 -0.6196
  887SOL    HW2 3546   2.784   1.781   0.948  0.7849 -1.1815 -0.8485
  887SOL    HW3 3547   2.854   1.915   0.959  0.8294 -1.2667 -0.1216
  887SOL    MW4 3548   2.826   1.848   0.911  0.1997 -0.6712 -0.5841
  888SOL     OW 3549   1.671   3.890   0.339  0.2306  0.7138 -0.6361
  888SOL    HW2 3550   1.759   3.911   0.309  0.2434 -0.0771 -1.1822
  888SOL    HW3 3551   1.613   3.923   0.270  0.1860 -0.0170 -0.9521
  888SOL    MW4 3552   1.675   3.897   0.326  0.2264  0.5131 -0.7498
  889SOL     OW 3553   2.250   0.307   0.171 -0.2123 -0.0859 -0.3043
  889SOL    HW2 3554   2.285   0.333   0.257  1.3590 -3.3117  0.0944
  889SOL    HW3 3555   2.168   0.262   0.191  0.2249 -0.9622 -0.4857
  889SOL    MW4 3556   2.244   0.305   0.185  0.0527 -0.6271 -0.2757
  890SOL     OW 3557   0.699   2.610   1.058  0.2435  0.3136  0.0680
  890SOL    HW2 3558   0.716   2.695   1.099  0.0429  0.2917  0.2001
  890SOL    HW3 3559   0.719   2.623   0.966 -2.1542  1.2116 -0.3594
  890SOL    MW4 3560   0.704   2.623   1.051 -0.0993  0.4292  0.0290
  891SOL     OW 3561   3.558   1.982   1.463 -0.1959  0.3617  0.1976
  891SOL    HW2 3562   3.552   1.888   1.447  0.9835  0.3393 -0.1522
  891SOL    HW3 3563   3.475   2.017   1.429  1.1466  0.0033 -3.7072
  891SOL    MW4 3564   3.546   1.974   1.457  0.1368  0.3114 -0.3637
  892SOL     OW 3565   4.481   1.542   0.741 -0.2990 -0.2264 -0.1867
  892SOL    HW2 3566   4.567   1.570   0.708  0.1180 -1.2260  0.0573
  892SOL    HW3 3567   4.501   1.492   0.820 -1.2754  1.8997  1.4677
  892SOL    MW4 3568   4.495   1.539   0.747 -0.3728 -0.0778  0.0638
  893SOL     OW 3569   3.374   3.141   1.536 -0.2130 -0.4262 -0.7403
  893SOL    HW2 3570   3.364   3.141   1.631 -0.1118  0.2018 -0.7262
  893SOL    HW3 3571   3.290   3.172   1.503 -0.5391 -1.4755 -0.8909
  893SOL    MW4 3572   3.362   3.145   1.544 -0.2427 -0.4818 -0.7583
  894SOL     OW 3573   0.694   0.479   1.313  0.0181 -0.1767 -0.0649
  894SOL    HW2 3574   0.752   0.436   1.375  3.0712  2.7015 -0.7623
  894SOL    HW3 3575   0.689   0.570   1.344 -1.1580  0.5055 -2.1333
  894SOL    MW4 3576   0.701   0.486   1.326  0.2658  0.2931 -0.4298
  895SOL     OW 3577   0.235   3.273   0.787  0.4476 -0.1959 -0.1077
  895SOL    HW2 3578   0.150   3.232   0.772  0.0775  0.3681  0.4586
  895SOL    HW3 3579   0.297   3.215   0.742 -0.5023  0.8962 -2.9505
  895SOL    MW4 3580   0.232   3.260   0.779  0.2735  0.0226 -0.4081
  896SOL     OW 3581   3.371   0.977   0.208 -0.2781 -0.1684 -0.2462
  896SOL    HW2 3582   3.341   1.057   0.251  0.1610 -0.0924 -0.0863
  896SOL    HW3 3583   3.449   1.003   0.159 -0.3107 -0.4300 -0.4411
  896SOL    MW4 3584   3.377   0.991   0.207 -0.2245 -0.1929 -0.2508
  897SOL     OW 3585   2.696   2.413   1.089 -0.4148  0.0773 -0.1418
  897SOL    HW2 3586   2.680   2.323   1.061  0.7281 -0.0061 -0.5716
  897SOL    HW3 3587   2.635   2.466   1.038 -2.9994 -0.6786  2.0538
  897SOL    MW4 3588   2.686   2.408   1.078 -0.6050 -0.0334  0.0911
  898SOL     OW 3589   1.411   3.101   0.110  0.2289  0.0955  0.3595
  898SOL    HW2 3590   1.413   3.059   0.024 -0.5260  1.4740 -0.3478
  898SOL    HW3 3591   1.503   3.117   0.131  0.4046 -0.0971 -0.2638
  898SOL    MW4 3592   1.424   3.097   0.101  0.1525  0.2519  0.1840
  899SOL     OW 3593   4.161   4.270   0.714  0.1630  0.3709  0.3132
  899SOL    HW2 3594   4.249   4.260   0.678  1.3779  1.4793  2.8884
  899SOL    HW3 3595   4.151   4.364   0.729 -0.9792  0.1199  1.2452
  899SOL    MW4 3596   4.171   4.281   0.711  0.1726  0.4840  0.7759
  900SOL     OW 3597   4.027   0.893   1.066  0.2697 -0.5194 -0.1127
  900SOL    HW2 3598   3.952   0.940   1.029 -0.1688 -0.9700  0.1962
  900SOL    HW3 3599   4.103   0.929   1.020 -0.1213  0.0623 -0.3033
  900SOL    MW4 3600   4.027   0.904   1.055  0.1603 -0.5021 -0.0971
  901SOL     OW 3601   1.273   0.498   0.721  0.1991  0.0655  0.5953
  901SOL    HW2 3602   1.186   0.479   0.687  0.0168  1.4523  0.2399
  901SOL    HW3 3603   1.329   0.428   0.686 -0.7774 -0.8588  0.8840
  901SOL    MW4 3604   1.269   0.487   0.712  0.0462  0.1265  0.5865
  902SOL     OW 3605   3.381   0.787   1.701 -0.0608 -0.1988  0.5446
  902SOL    HW2 3606   3.291   0.811   1.724 -0.0778 -0.1650  0.4420
  902SOL    HW3 3607   3.384   0.692   1.713 -1.0383 -0.6824 -2.6354
  902SOL    MW4 3608   3.369   0.778   1.706 -0.1920 -0.2581  0.1115
  903SOL     OW 3609   2.889   3.593   1.361  0.0814  0.0782 -0.3863
  903SOL    HW2 3610   2.880   3.571   1.268  0.9412 -0.4876 -0.3367
  903SOL    HW3 3611   2.816   3.549   1.404 -0.1658  0.1292 -0.7555
  903SOL    MW4 3612   2.878   3.584   1.354  0.1622  0.0103 -0.4284
  904SOL     OW 3613   3.310   2.401   0.302 -0.1216  0.1823 -0.1864
  904SOL    HW2 3614   3.405   2.413   0.308 -0.3605  1.2997  1.8700
  904SOL    HW3 3615   3.297   2.307   0.319  0.6126  0.0181 -0.5101
  904SOL    MW4 3616   3.321   2.390   0.305 -0.0563  0.3081  0.0422
  905SOL     OW 3617   2.790   3.240   0.444  0.7052 -0.2353  0.0590
  905SOL    HW2 3618   2.829   3.185   0.511  1.9763 -0.8013 -1.1298
  905SOL    HW3 3619   2.696   3.240   0.464  0.7719 -2.2968  0.4497
  905SOL    MW4 3620   2.783   3.233   0.455  0.8817 -0.5819 -0.0463
  906SOL     OW 3621   2.694   3.445   1.500 -0.0720  0.1431 -0.0292
  906SOL    HW2 3622   2.608   3.469   1.464  0.1178 -0.5733 -0.9718
  906SOL    HW3 3623   2.719   3.366   1.452  0.2925 -0.7078  1.5329
  906SOL    MW4 3624   2.686   3.438   1.489  0.0012 -0.0637  0.0525
  907SOL     OW 3625   4.026   4.024   1.104  0.3224  0.0283  0.4385
  907SOL    HW2 3626   4.015   3.934   1.073  0.9876 -0.1925  0.8389
  907SOL    HW3 3627   4.090   4.063   1.044 -0.1267  0.3027  0.1342
  907SOL    MW4 3628   4.033   4.017   1.092  0.3509  0.0354  0.4512
  908SOL     OW 3629   1.319   0.872   1.420  0.2440 -0.1775 -0.5671
  908SOL    HW2 3630   1.403   0.834   1.446 -0.2636 -1.0006 -0.1020
  908SOL    HW3 3631   1.323   0.873   1.324 -0.0958 -2.3043 -0.6379
  908SOL    MW4 3632   1.331   0.867   1.411  0.1322 -0.5667 -0.5151
  909SOL     OW 3633   2.706   1.805   0.390 -0.4536  0.1007  0.1861
  909SOL    HW2 3634   2.775   1.791   0.455  0.8726  1.7637 -0.8019
  909SOL    HW3 3635   2.706   1.726   0.337  1.4692  0.5139 -0.4640
  909SOL    MW4 3636   2.715   1.793   0.391 -0.0249  0.3747 -0.0300
  910SOL     OW 3637   3.725   4.430   0.724 -0.6438 -0.0736  0.2734
  910SOL    HW2 3638   3.671   4.459   0.798 -3.6466 -0.1180 -1.8514
  910SOL    HW3 3639   3.749   4.340   0.746 -2.6189 -0.5364  0.5857
  910SOL    MW4 3640   3.721   4.422   0.737 -1.3006 -0.1405  0.0342
  911SOL     OW 3641   2.681   1.908   1.464 -0.3090  0.3776  0.1315
  911SOL    HW2 3642   2.677   1.933   1.556 -0.7506  0.6637  0.0367
  911SOL    HW3 3643   2.602   1.946   1.425 -0.5801 -0.4952 -0.1810
  911SOL    MW4 3644   2.670   1.916   1.471 -0.4030  0.3002  0.0777
  912SOL     OW 3645   2.249   0.075   1.366  0.1004 -0.0218 -0.3570
  912SOL    HW2 3646   2.172   0.040   1.411 -0.1304  1.1967  0.2347
  912SOL    HW3 3647   2.322   0.022   1.397 -0.0138  0.9850  1.6872
  912SOL    MW4 3648   2.248   0.063   1.376  0.0549  0.2718 -0.0093
  913SOL     OW 3649   0.804   2.315   9.994 -0.1006 -0.1055 -0.3967
  913SOL    HW2 3650   0.818   2.372   9.918 -0.0564  0.4103 -0.0057
  913SOL    HW3 3651   0.710   2.322  10.012  0.0659  0.6104  0.2438
  913SOL    MW4 3652   0.794   2.323   9.986 -0.0728  0.0570 -0.2606
  914SOL     OW 3653   3.378   3.092   1.833 -0.5004 -0.1502  0.3817
  914SOL    HW2 3654   3.381   2.997   1.830 -0.5656 -0.1082 -3.4018
  914SOL    HW3 3655   3.470   3.118   1.841 -0.2489 -0.5380 -1.0477
  914SOL    MW4 3656   3.391   3.083   1.834 -0.4758 -0.1958 -0.3061
  915SOL     OW 3657   1.541   1.032   1.025 -0.4314 -0.3517  0.3808
  915SOL    HW2 3658   1.520   1.118   1.061  0.0150 -0.1936  0.2645
  915SOL    HW3 3659   1.615   1.002   1.077 -0.2099 -0.4137  0.0298
  915SOL    MW4 3660   1.548   1.040   1.037 -0.3433 -0.3391  0.3192
  916SOL     OW 3661   1.526   1.612   0.364  0.4047  0.4679  0.2673
  916SOL    HW2 3662   1.540   1.622   0.459  0.1449  2.1030  0.1531
  916SOL    HW3 3663   1.575   1.684   0.325 -1.1111  1.0172 -0.6947
  916SOL    MW4 3664   1.534   1.623   0.372  0.1704  0.7561  0.1253
  917SOL     OW 3665   2.433   4.335   1.355 -0.0392 -0.0639  0.1648
  917SOL    HW2 3666   2.507   4.287   1.391  0.3013 -0.4729 -1.0400
  917SOL    HW3 3667   2.452   4.427   1.375  0.5102 -0.2209  0.3664
  917SOL    MW4 3668   2.445   4.341   1.362  0.0782 -0.1386  0.0325
  918SOL     OW 3669   3.535   1.442   1.024  0.0111 -0.1844 -0.0747
  918SOL    HW2 3670   3.558   1.460   0.933  1.7333 -0.5975  0.2570
  918SOL    HW3 3671   3.545   1.526   1.069  2.5129 -0.6641  0.3687
  918SOL    MW4 3672   3.540   1.455   1.018  0.5684 -0.3022  0.0276
  919SOL     OW 3673   4.061   2.168   0.664 -0.7412 -0.0048 -0.5833
  919SOL    HW2 3674   4.052   2.189   0.757 -0.6735  0.3252 -0.6512
  919SOL    HW3 3675   4.130   2.101   0.662  1.2813  2.0065 -0.6480
  919SOL    MW4 3676   4.069   2.162   0.676 -0.4654  0.3041 -0.6008
  920SOL     OW 3677   0.785   4.091   0.971 -0.0466 -0.0285  0.3482
  920SOL    HW2 3678   0.779   4.041   0.890 -0.4383  1.5416 -0.5994
  920SOL    HW3 3679   0.700   4.080   1.013  0.1203 -0.7497  0.5127
  920SOL    MW4 3680   0.773   4.083   0.966 -0.0763  0.0835  0.2449
  921SOL     OW 3681   0.660   3.368   0.797 -0.3402 -0.2685 -0.4829
  921SOL    HW2 3682   0.632   3.370   0.888  0.5702  0.6948 -0.2127
  921SOL    HW3 3683   0.618   3.291   0.760  0.3530 -1.4224  1.0994
  921SOL    MW4 3684   0.651   3.358   0.804 -0.1286 -0.2936 -0.2385
  922SOL     OW 3685   3.772   4.634   1.478  0.2773  0.6208 -0.1651
  922SOL    HW2 3686   3.704   4.696   1.449 -0.0110  0.2762 -0.2272
  922SOL    HW3 3687   3.775   4.646   1.573 -0.7967 -0.2887 -0.0013
  922SOL    MW4 3688   3.763   4.644   1.487  0.0976  0.4554 -0.1517
  923SOL     OW 3689   1.011   0.187   0.676 -0.2298  0.2366 -0.0131
  923SOL    HW2 3690   1.018   0.276   0.641  0.9876 -0.0328 -0.4739
  923SOL    HW3 3691   1.026   0.197   0.770 -0.4584  0.5634 -0.0108
  923SOL    MW4 3692   1.014   0.200   0.684 -0.0994  0.2442 -0.0736
  924SOL     OW 3693   3.209   1.136   0.399  0.1556 -0.2752  0.0086
  924SOL    HW2 3694   3.153   1.214   0.401  0.2767 -0.2232  1.8792
  924SOL    HW3 3695   3.149   1.064   0.382 -0.0499  0.1202 -1.0227
  924SOL    MW4 3696   3.194   1.137   0.397  0.1444 -0.2162  0.1193
  925SOL     OW 3697   1.779   4.562   1.038  0.2160  0.1706 -0.1979
  925SOL    HW2 3698   1.769   4.652   1.068 -0.5849 -0.0276  0.1167
  925SOL    HW3 3699   1.697   4.519   1.060  0.8622 -0.8338  0.3079
  925SOL    MW4 3700   1.767   4.569   1.045  0.1956  0.0119 -0.0897
  926SOL     OW 3701   4.039   0.887   1.376  0.0721  0.0359  0.3498
  926SOL    HW2 3702   4.039   0.889   1.280 -1.6261  0.4045  0.3278
  926SOL    HW3 3703   4.041   0.979   1.402 -0.8154 -0.0099  0.6264
  926SOL    MW4 3704   4.039   0.900   1.367 -0.2690  0.0785  0.3834
  927SOL     OW 3705   3.351   0.544   1.325  0.4756  0.0048 -0.1875
  927SOL    HW2 3706   3.352   0.537   1.229  0.9333 -1.0561 -0.1130
  927SOL    HW3 3707   3.278   0.488   1.352 -0.5998  1.4747  0.0081
  927SOL    MW4 3708   3.341   0.536   1.316  0.3941  0.0588 -0.1518
  928SOL     OW 3709   0.083   4.447   0.756  0.0223 -0.6960  0.1178
  928SOL    HW2 3710   0.053   4.526   0.711 -0.0330 -1.4973 -1.2765
  928SOL    HW3 3711   0.059   4.461   0.848 -0.9008  0.4611 -0.2852
  928SOL    MW4 3712   0.076   4.459   0.762 -0.1068 -0.6490 -0.1194
  929SOL     OW 3713   4.059   1.163   1.448  0.3738 -0.1339 -0.1021
  929SOL    HW2 3714   3.996   1.230   1.420  1.1972  0.4947 -0.4764
  929SOL    HW3 3715   4.048   1.158   1.543  0.8678  1.1246  0.0324
  929SOL    MW4 3716   4.050   1.171   1.456  0.5476  0.1151 -0.1337
  930SOL     OW 3717   3.864   1.345   1.358 -0.1061  0.3352  0.0281
  930SOL    HW2 3718   3.856   1.339   1.263  0.7192 -0.8872  0.0379
  930SOL    HW3 3719   3.795   1.288   1.392  1.2779 -1.2937  0.1466
  930SOL    MW4 3720   3.854   1.337   1.350  0.1854 -0.0410  0.0451
  931SOL     OW 3721   1.847   0.309   0.625 -0.2570  0.1779  0.2418
  931SOL    HW2 3722   1.804   0.286   0.542  0.7884 -0.0031 -0.2510
  931SOL    HW3 3723   1.855   0.404   0.622 -1.2230  0.2823  0.6376
  931SOL    MW4 3724   1.842   0.318   0.613 -0.2465  0.1678  0.2290
  932SOL     OW 3725   1.136   3.089   0.655 -0.2017  0.3883  0.1572
  932SOL    HW2 3726   1.208   3.043   0.698 -1.2434 -0.3947  1.0662
  932SOL    HW3 3727   1.163   3.095   0.563  0.3199 -1.2740  0.1905
  932SOL    MW4 3728   1.149   3.084   0.649 -0.2703  0.0657  0.2816
  933SOL     OW 3729   3.807   2.297   1.487  0.2938  0.8562  0.0939
  933SOL    HW2 3730   3.817   2.278   1.580  0.5559  2.5502  0.4394
  933SOL    HW3 3731   3.802   2.212   1.445 -0.2218  0.0743  1.7016
  933SOL    MW4 3732   3.808   2.283   1.494  0.2603  0.9766  0.3516
  934SOL     OW 3733   1.458   1.982   0.402  0.3298  0.1127 -0.6882
  934SOL    HW2 3734   1.537   1.945   0.363  1.2065 -0.0768  1.1977
  934SOL    HW3 3735   1.399   1.907   0.413  0.8008 -0.1558  0.0396
  934SOL    MW4 3736   1.460   1.967   0.398  0.5076  0.0523 -0.3434
  935SOL     OW 3737   3.403   0.019   0.242  0.0782  0.1942  0.0932
  935SOL    HW2 3738   3.476   0.080   0.245  0.7650 -0.5559 -1.0245
  935SOL    HW3 3739   3.410  -0.022   0.156 -1.0154 -0.6751  0.4100
  935SOL    MW4 3740   3.413   0.022   0.231  0.0245 -0.0195 -0.0124
  936SOL     OW 3741   0.617   3.350   1.065 -0.0708  0.4727 -0.0091
  936SOL    HW2 3742   0.690   3.313   1.115  0.7401 -0.4641 -1.8528
  936SOL    HW3 3743   0.540   3.303   1.099  0.4349  0.0293  0.5482
  936SOL    MW4 3744   0.616   3.339   1.076  0.1029  0.2906 -0.1788
  937SOL     OW 3745   4.406   3.898   0.678  0.0745 -0.2324  0.1094
  937SOL    HW2 3746   4.473   3.943   0.628  0.1091  0.1901  0.5278
  937SOL    HW3 3747   4.419   3.805   0.658  0.1546 -0.0769 -0.5675
  937SOL    MW4 3748   4.417   3.892   0.669  0.0896 -0.1562  0.0753
  938SOL     OW 3749   0.192   3.496   0.579  0.2283 -0.1265  0.2864
  938SOL    HW2 3750   0.267   3.554   0.569 -0.4644  0.5240 -1.4027
  938SOL    HW3 3751   0.221   3.428   0.640  3.0623 -1.3378 -2.2872
  938SOL    MW4 3752   0.205   3.494   0.586  0.5108 -0.2005 -0.2760
  939SOL     OW 3753   3.359   1.064   0.953  0.5152 -0.0218  0.1890
  939SOL    HW2 3754   3.453   1.045   0.948  0.5706  0.5338 -1.2826
  939SOL    HW3 3755   3.328   1.053   0.863 -0.5419  1.1922  0.3972
  939SOL    MW4 3756   3.367   1.060   0.941  0.3831  0.2117  0.0223
  940SOL     OW 3757   4.239   0.510   1.392 -0.1952 -0.0428  0.1604
  940SOL    HW2 3758   4.314   0.461   1.427 -0.7107 -1.6329 -0.9097
  940SOL    HW3 3759   4.162   0.462   1.425 -0.6936 -1.0154 -2.2952
  940SOL    MW4 3760   4.239   0.497   1.401 -0.3290 -0.3809 -0.3047
  941SOL     OW 3761   3.559   1.702   1.110 -0.1354 -0.1365 -0.2347
  941SOL    HW2 3762   3.552   1.685   1.204 -1.0833 -0.6861 -0.3945
  941SOL    HW3 3763   3.469   1.723   1.083  0.0540 -0.4193 -1.0957
  941SOL    MW4 3764   3.546   1.702   1.119 -0.2355 -0.2464 -0.3693
  942SOL     OW 3765   0.768   1.879   0.257 -0.1715 -0.0960 -0.0517
  942SOL    HW2 3766   0.744   1.850   0.169  0.0233 -1.9638  0.4980
  942SOL    HW3 3767   0.700   1.942   0.281 -0.6334 -0.1294 -1.2588
  942SOL    MW4 3768   0.756   1.884   0.249 -0.2067 -0.3469 -0.1384
  943SOL     OW 3769   2.036   3.659   1.397  0.0789 -0.1260 -0.7600
  943SOL    HW2 3770   1.963   3.605   1.426 -0.3526  0.1238 -1.3571
  943SOL    HW3 3771   2.033   3.654   1.301  0.4450  0.4019 -0.8037
  943SOL    MW4 3772   2.026   3.651   1.388  0.0703 -0.0234 -0.8446
  944SOL     OW 3773   3.493   3.938   0.536 -0.1906 -0.0476  0.4223
  944SOL    HW2 3774   3.402   3.929   0.506  0.4074 -0.7181 -1.2268
  944SOL    HW3 3775   3.536   3.986   0.465  0.9463 -0.4604  0.8364
  944SOL    MW4 3776   3.487   3.943   0.523  0.0383 -0.1905  0.2593
  945SOL     OW 3777   0.879   1.624   1.352 -0.3805 -0.2380  0.0709
  945SOL    HW2 3778   0.862   1.715   1.377 -0.0552 -0.2322  0.2802
  945SOL    HW3 3779   0.810   1.574   1.395  0.1526 -0.2226  0.9651
  945SOL    MW4 3780   0.868   1.630   1.361 -0.2672 -0.2352  0.2165
  946SOL     OW 3781   4.000   1.629   0.625 -0.2033 -0.5952  0.2777
  946SOL    HW2 3782   3.970   1.655   0.538 -1.4277  0.1018  0.8886
  946SOL    HW3 3783   4.014   1.534   0.619 -2.1008 -0.8594 -0.1569
  946SOL    MW4 3784   3.998   1.620   0.613 -0.6152 -0.5381  0.3010
  947SOL     OW 3785   2.024   1.741   0.675 -0.1862 -0.2145 -0.4157
  947SOL    HW2 3786   2.023   1.646   0.667  0.1617 -0.1887 -0.8341
  947SOL    HW3 3787   2.029   1.758   0.769  0.3563 -0.6193 -0.3704
  947SOL    MW4 3788   2.025   1.731   0.686 -0.0687 -0.2645 -0.4649
  948SOL     OW 3789   1.999   2.822   1.390 -0.0719  0.0760  0.1707
  948SOL    HW2 3790   2.030   2.909   1.414  0.5503 -0.5913  1.8607
  948SOL    HW3 3791   2.075   2.765   1.405 -0.8597 -0.9375  0.3195
  948SOL    MW4 3792   2.013   2.826   1.395 -0.0937 -0.1458  0.4133
  949SOL     OW 3793   2.662   1.432   0.946 -0.1565 -0.4030  0.3653
  949SOL    HW2 3794   2.592   1.378   0.984 -0.2938 -0.9211 -0.5925
  949SOL    HW3 3795   2.742   1.399   0.985 -0.4678  0.3777  1.6842
  949SOL    MW4 3796   2.663   1.420   0.956 -0.2157 -0.3683  0.4129
  950SOL     OW 3797   2.646   2.999   0.761  0.1352  0.6725 -0.2620
  950SOL    HW2 3798   2.679   2.971   0.846 -0.7135 -0.6220 -0.3550
  950SOL    HW3 3799   2.625   2.918   0.714 -2.9879  1.4158 -0.2798
  950SOL    MW4 3800   2.647   2.985   0.766 -0.3888  0.5998 -0.2766
  951SOL     OW 3801   3.356   3.323   0.310 -1.0700 -0.3198 -0.2835
  951SOL    HW2 3802   3.443   3.345   0.277 -0.1852  0.1804  2.2626
  951SOL    HW3 3803   3.311   3.407   0.316 -0.8525 -0.2724  0.7593
  951SOL    MW4 3804   3.362   3.337   0.306 -0.9246 -0.2475  0.1900
  952SOL     OW 3805   0.111   4.063   0.548 -0.2712  0.1194 -0.1673
  952SOL    HW2 3806   0.122   4.074   0.454  0.1109  0.6571 -0.0659
  952SOL    HW3 3807   0.201   4.060   0.583 -0.4070  1.5164  0.3457
  952SOL    MW4 3808   0.124   4.064   0.540 -0.2387  0.3747 -0.0862
  953SOL     OW 3809   1.791   4.048   1.109 -0.0899  0.5407  0.1063
  953SOL    HW2 3810   1.874   4.083   1.078  0.6172  0.6702  2.0470
  953SOL    HW3 3811   1.797   3.954   1.093  0.6435  0.4886  0.6588
  953SOL    MW4 3812   1.803   4.040   1.103  0.1002  0.5509  0.4353
  954SOL     OW 3813   0.906   0.639   1.030  0.2761  0.0924 -0.0293
  954SOL    HW2 3814   0.984   0.590   1.057 -0.7078 -1.0484  0.7813
  954SOL    HW3 3815   0.912   0.722   1.077  0.7742 -0.1582  0.3505
  954SOL    MW4 3816   0.917   0.644   1.040  0.2120 -0.0912  0.1277
  955SOL     OW 3817   3.985   0.499   0.307  0.0038 -0.0159  0.2727
  955SOL    HW2 3818   4.078   0.521   0.312 -0.1123  0.4808  0.2247
  955SOL    HW3 3819   3.948   0.562   0.245 -0.8668  1.4946  2.2687
  955SOL    MW4 3820   3.992   0.510   0.299 -0.1264  0.2489  0.5297
  956SOL     OW 3821   1.348   2.924   0.750  0.0561 -0.3355  0.4757
  956SOL    HW2 3822   1.413   2.981   0.708  0.0820 -0.1924  0.7094
  956SOL    HW3 3823   1.352   2.843   0.700  0.6674 -0.4496  0.7056
  956SOL    MW4 3824   1.357   2.921   0.738  0.1401 -0.3317  0.5369
  957SOL     OW 3825   0.922   3.723   0.748  0.0545  0.0206  0.3592
  957SOL    HW2 3826   1.003   3.740   0.700 -1.6028 -0.4212 -2.6775
  957SOL    HW3 3827   0.899   3.633   0.727 -1.1361  0.0715  1.3710
  957SOL    MW4 3828   0.930   3.714   0.739 -0.3213 -0.0310  0.0920
  958SOL     OW 3829   2.546   2.261   0.264  0.4051 -0.1782  1.0408
  958SOL    HW2 3830   2.582   2.320   0.331  0.4748  0.2591  0.6246
  958SOL    HW3 3831   2.606   2.186   0.264  0.1399 -0.3930  1.7909
  958SOL    MW4 3832   2.559   2.259   0.273  0.3793 -0.1488  1.0848
  959SOL     OW 3833   2.720   2.421   0.520 -0.2814  0.4650 -0.2627
  959SOL    HW2 3834   2.803   2.414   0.567 -1.1907 -1.1841  1.1821
  959SOL    HW3 3835   2.655   2.434   0.590 -1.5893 -1.4009 -1.0967
  959SOL    MW4 3836   2.722   2.421   0.536 -0.5739  0.0012 -0.1821
  960SOL     OW 3837   0.015   2.712   1.517 -0.1932 -0.0472 -0.1690
  960SOL    HW2 3838  -0.042   2.770   1.465 -0.7202  0.6179  1.1147
  960SOL    HW3 3839   0.102   2.752   1.512 -0.4581  0.6005  0.3097
  960SOL    MW4 3840   0.019   2.725   1.509 -0.2977  0.1260  0.0636
  961SOL     OW 3841   4.261   3.037   1.769 -0.5159  0.3619  0.2748
  961SOL    HW2 3842   4.182   3.081   1.800 -1.9397  0.5915 -3.4409
  961SOL    HW3 3843   4.265   2.955   1.818 -2.7746  0.6045  0.8991
  961SOL    MW4 3844   4.251   3.032   1.779 -1.0018  0.4242 -0.1330
  962SOL     OW 3845   3.151   2.962   1.007  0.5132  0.0720 -0.3554
  962SOL    HW2 3846   3.160   3.054   1.028 -0.1596 -0.2613  1.5315
  962SOL    HW3 3847   3.180   2.954   0.916  0.1317  2.2048 -0.6774
  962SOL    MW4 3848   3.156   2.973   0.997  0.3741  0.3094 -0.1489
  963SOL     OW 3849   2.322   0.776   0.308  0.1458 -0.0176 -0.2859
  963SOL    HW2 3850   2.322   0.725   0.389  1.7180 -0.5485 -0.6102
  963SOL    HW3 3851   2.276   0.720   0.245 -2.5769  1.0992  0.6443
  963SOL    MW4 3852   2.316   0.762   0.310 -0.0060  0.0597 -0.2060
  964SOL     OW 3853   2.430   4.346   1.086 -0.3379  0.0333  0.2555
  964SOL    HW2 3854   2.417   4.344   1.181 -2.6450 -1.0669 -0.0417
  964SOL    HW3 3855   2.354   4.393   1.052 -0.0584 -0.4852 -1.1316
  964SOL    MW4 3856   2.418   4.352   1.094 -0.6054 -0.1803  0.0333
  965SOL     OW 3857   3.826   3.945   0.264 -0.1928 -0.5319 -0.7010
  965SOL    HW2 3858   3.778   3.869   0.298  0.0448  0.3522  1.7137
  965SOL    HW3 3859   3.914   3.912   0.246  0.4098 -0.4628  1.9951
  965SOL    MW4 3860   3.831   3.930   0.266 -0.0819 -0.4062 -0.0267
  966SOL     OW 3861   1.732   0.959   0.318 -0.0149 -0.0340 -0.6167
  966SOL    HW2 3862   1.694   0.992   0.237  1.3416  0.9985 -0.8469
  966SOL    HW3 3863   1.667   0.979   0.385 -1.6795 -1.9334 -1.5886
  966SOL    MW4 3864   1.719   0.966   0.316 -0.0556 -0.1484 -0.7753
  967SOL     OW 3865   2.637   0.441   0.374  0.1330 -0.0834  0.4371
  967SOL    HW2 3866   2.678   0.449   0.460  0.9296  0.1938  0.0407
  967SOL    HW3 3867   2.550   0.405   0.391  0.2813 -0.0032  1.3562
  967SOL    MW4 3868   2.631   0.438   0.388  0.2577 -0.0363  0.5061
  968SOL     OW 3869   1.912   2.395   0.382  0.0598 -0.0106  0.1212
  968SOL    HW2 3870   1.933   2.313   0.426  0.8423  0.7252  1.1114
  968SOL    HW3 3871   1.993   2.421   0.339  0.4374  1.3721  1.6253
  968SOL    MW4 3872   1.925   2.387   0.382  0.2128  0.2689  0.4503
  969SOL     OW 3873   1.170   0.901   0.732  0.4357 -0.1477  0.1074
  969SOL    HW2 3874   1.188   0.926   0.823 -0.1415  1.1056 -0.1216
  969SOL    HW3 3875   1.110   0.826   0.740  1.2516 -0.7382  0.7723
  969SOL    MW4 3876   1.164   0.894   0.745  0.4672 -0.0602  0.1649
  970SOL     OW 3877   0.229   4.630   1.743 -0.6691 -0.1448  0.1758
  970SOL    HW2 3878   0.245   4.616   1.650 -0.9325  0.0877  0.0959
  970SOL    HW3 3879   0.310   4.669   1.776 -0.2890 -0.9583  0.2032
  970SOL    MW4 3880   0.242   4.634   1.735 -0.6537 -0.2215  0.1689
  971SOL     OW 3881   0.011   0.097   1.847 -0.2157 -0.0927 -0.4504
  971SOL    HW2 3882   0.028   0.187   1.818 -1.1027  0.6040  1.1072
  971SOL    HW3 3883   0.086   0.047   1.817  0.3345  1.1970 -1.2592
  971SOL    MW4 3884   0.023   0.102   1.839 -0.2602  0.1694 -0.3516
  972SOL     OW 3885   0.007   0.378   1.746 -0.0378 -0.2235 -0.0413
  972SOL    HW2 3886  -0.084   0.402   1.767 -0.3436 -1.0514 -0.4204
  972SOL    HW3 3887   0.013   0.388   1.651  0.7575  1.4855  0.1756
  972SOL    MW4 3888  -0.004   0.383   1.736  0.0268 -0.1073 -0.0627
  973SOL     OW 3889   0.243   0.791   1.741  0.4433  0.0669  0.0024
  973SOL    HW2 3890   0.258   0.700   1.765 -0.7319  0.0517  0.6913
  973SOL    HW3 3891   0.321   0.837   1.771  1.1653 -0.7409 -0.5901
  973SOL    MW4 3892   0.256   0.785   1.748  0.3835 -0.0417  0.0151
  974SOL     OW 3893   0.231   0.522   1.838 -0.0583  0.0041 -0.4415
  974SOL    HW2 3894   0.316   0.479   1.829 -0.1203 -0.5395  1.4265
  974SOL    HW3 3895   0.170   0.464   1.793  0.1984 -0.8012  0.2321
  974SOL    MW4 3896   0.234   0.509   1.831 -0.0326 -0.1739 -0.1062
  975SOL     OW 3897   0.024   0.864   1.876 -0.7880  0.2493 -0.4003
  975SOL    HW2 3898  -0.042   0.811   1.832 -0.3732 -0.3512 -0.3084
  975SOL    HW3 3899   0.107   0.831   1.843 -0.4736 -0.0913  0.6954
  975SOL    MW4 3900   0.026   0.852   1.866 -0.6918  0.1251 -0.2436
  976SOL     OW 3901   4.264   1.234   1.823 -0.2908 -0.2320 -0.5655
  976SOL    HW2 3902   4.186   1.188   1.792 -0.2213 -0.9889  0.3401
  976SOL    HW3 3903   4.248   1.245   1.917  0.5895 -0.1898 -0.4204
  976SOL    MW4 3904   4.251   1.229   1.832 -0.1655 -0.3263 -0.4269
  977SOL     OW 3905   0.224   1.281   1.891 -0.7489 -0.5332 -0.1186
  977SOL    HW2 3906   0.230   1.362   1.840  0.4700  0.6794  1.8824
  977SOL    HW3 3907   0.142   1.240   1.862 -1.7752  1.7977 -0.5796
  977SOL    MW4 3908   0.214   1.286   1.880 -0.7235 -0.0657  0.0846
  978SOL     OW 3909   0.233   1.528   1.734 -0.2969  0.1568 -0.6819
  978SOL    HW2 3910   0.299   1.583   1.775 -0.3583 -0.7480  0.6512
  978SOL    HW3 3911   0.152   1.580   1.738 -0.5441 -0.3238  1.3303
  978SOL    MW4 3912   0.231   1.542   1.740 -0.3376 -0.0260 -0.2405
  979SOL     OW 3913   4.491   1.655   1.819  0.1231 -0.6198 -0.0291
  979SOL    HW2 3914   4.472   1.659   1.913 -2.4718  0.4353 -0.5498
  979SOL    HW3 3915   4.418   1.605   1.782  0.9299 -0.7238 -1.5231
  979SOL    MW4 3916   4.478   1.649   1.827 -0.1128 -0.4944 -0.2949
  980SOL     OW 3917   0.206   2.051   1.850 -0.2284  0.5189  0.5810
  980SOL    HW2 3918   0.209   2.135   1.806 -1.0372  0.3199  0.1316
  980SOL    HW3 3919   0.129   2.007   1.814  0.4462 -0.5965  0.4673
  980SOL    MW4 3920   0.196   2.056   1.840 -0.2461  0.3455  0.5067
  981SOL     OW 3921   4.474   1.938   1.751 -0.1871  0.1630 -0.2297
  981SOL    HW2 3922   4.476   1.843   1.762 -1.5304  0.1415 -0.1194
  981SOL    HW3 3923   4.401   1.968   1.805 -0.4598  1.1376 -1.1116
  981SOL    MW4 3924   4.465   1.929   1.759 -0.4003  0.2888 -0.3315
  982SOL     OW 3925   0.179   2.313   1.748 -0.2776  0.4650 -0.0007
  982SOL    HW2 3926   0.259   2.354   1.781  0.2603 -0.0591 -0.6377
  982SOL    HW3 3927   0.110   2.345   1.806  0.3570  1.1078  0.4099
  982SOL    MW4 3928   0.181   2.323   1.760 -0.1229  0.4807 -0.0306
  983SOL     OW 3929   4.264   2.295   1.760 -0.5105  0.2755 -0.3540
  983SOL    HW2 3930   4.265   2.211   1.805 -1.4463 -0.1167 -1.0717
  983SOL    HW3 3931   4.334   2.345   1.803  0.4691 -1.0651 -0.3350
  983SOL    MW4 3932   4.274   2.291   1.772 -0.5047  0.0469 -0.4462
  984SOL     OW 3933   0.239   2.845   1.437  0.0472  0.0865  0.3220
  984SOL    HW2 3934   0.238   2.836   1.342  0.7629 -1.3298  0.4376
  984SOL    HW3 3935   0.319   2.801   1.464  0.2413  1.1409  1.5250
  984SOL    MW4 3936   0.250   2.838   1.428  0.1673  0.0388  0.4960
  985SOL     OW 3937   0.242   2.860   1.910 -0.1609  0.0566 -0.2601
  985SOL    HW2 3938   0.251   2.947   1.871  1.2281 -0.3731 -0.9469
  985SOL    HW3 3939   0.177   2.816   1.855 -1.3732  0.8803  0.4992
  985SOL    MW4 3940   0.235   2.866   1.897 -0.1376  0.1086 -0.2506
  986SOL     OW 3941   0.223   3.098   1.779 -0.0226 -0.3247 -0.1789
  986SOL    HW2 3942   0.285   3.148   1.832 -1.3080  2.8075 -1.5114
  986SOL    HW3 3943   0.259   3.103   1.690 -0.2315 -1.6819 -0.3380
  986SOL    MW4 3944   0.236   3.106   1.774 -0.2198 -0.0905 -0.3757
  987SOL     OW 3945   4.456   3.195   1.874  0.2832  0.0721  0.4893
  987SOL    HW2 3946   4.388   3.136   1.842  0.1352  0.6749 -0.3472
  987SOL    HW3 3947   4.537   3.146   1.865  0.1570 -0.0233 -0.1618
  987SOL    MW4 3948   4.457   3.181   1.868  0.2470  0.1391  0.2930
  988SOL     OW 3949   0.008   3.435   1.730 -0.6327  0.5580  0.0381
  988SOL    HW2 3950   0.084   3.478   1.770 -0.4197 -0.7469  1.0839
  988SOL    HW3 3951   0.002   3.350   1.775 -1.7692 -0.0017 -1.1284
  988SOL    MW4 3952   0.017   3.429   1.741 -0.7545  0.3120  0.0222
  989SOL     OW 3953   0.208   3.580   1.855 -0.8261  0.1271 -0.3923
  989SOL    HW2 3954   0.203   3.594   1.949  0.9579 -1.3966 -0.0223
  989SOL    HW3 3955   0.223   3.666   1.817 -1.0615  0.6743  0.7691
  989SOL    MW4 3956   0.209   3.593   1.862 -0.6218 -0.0017 -0.1902
  990SOL     OW 3957   0.421   3.438   1.740 -0.3909  0.2929 -0.2353
  990SOL    HW2 3958   0.346   3.490   1.769  0.5041  2.1539 -1.1843
  990SOL    HW3 3959   0.497   3.484   1.775  0.3179 -1.9311  1.2745
  990SOL    MW4 3960   0.421   3.451   1.749 -0.1793  0.2450 -0.1613
  991SOL     OW 3961   0.230   3.843   1.752  0.0629  0.4278 -0.0039
  991SOL    HW2 3962   0.149   3.881   1.787 -1.0781 -0.4774 -1.5554
  991SOL    HW3 3963   0.230   3.870   1.660  1.8344  0.9106  0.1341
  991SOL    MW4 3964   0.219   3.852   1.744  0.1461  0.3720 -0.1904
  992SOL     OW 3965   4.460   4.206   1.706  0.6943  0.0112 -0.0986
  992SOL    HW2 3966   4.538   4.257   1.729  1.0270 -0.4259 -0.2459
  992SOL    HW3 3967   4.387   4.259   1.736  1.0777  0.0237  0.8380
  992SOL    MW4 3968   4.461   4.220   1.713  0.7888 -0.0448  0.0055
  993SOL     OW 3969   0.206   4.362   1.810 -0.1475  1.1710  0.0924
  993SOL    HW2 3970   0.192   4.358   1.905 -0.3476 -0.0599  0.0180
  993SOL    HW3 3971   0.205   4.456   1.790 -0.9239  1.4124  1.1898
  993SOL    MW4 3972   0.204   4.374   1.820 -0.2763  1.0404  0.2274
  994SOL     OW 3973   0.709   4.622   1.776 -0.0357  0.7488 -0.8391
  994SOL    HW2 3974   0.650   4.549   1.795 -1.4423  1.8428 -0.8828
  994SOL    HW3 3975   0.702   4.634   1.681 -0.6172  1.6058 -0.6921
  994SOL    MW4 3976   0.700   4.614   1.766 -0.2980  1.0062 -0.8255
  995SOL     OW 3977   0.471   0.093   1.837  0.3000  0.2017 -0.5920
  995SOL    HW2 3978   0.478   0.171   1.781  0.9499 -0.4037 -1.3610
  995SOL    HW3 3979   0.547   0.040   1.814  0.3618 -0.2433  0.5875
  995SOL    MW4 3980   0.482   0.097   1.826  0.3939  0.0631 -0.5378
  996SOL     OW 3981   0.490   0.409   1.732 -0.1676  0.1507 -0.1873
  996SOL    HW2 3982   0.498   0.407   1.636  1.9103 -1.1706 -0.0140
  996SOL    HW3 3983   0.568   0.456   1.761 -0.6268  0.2551  0.8820
  996SOL    MW4 3984   0.501   0.415   1.723  0.0460 -0.0098 -0.0233
  997SOL     OW 3985   0.723   0.531   1.826  0.1969  0.0038  0.2747
  997SOL    HW2 3986   0.730   0.533   1.922  0.1059  0.6817  0.2670
  997SOL    HW3 3987   0.781   0.460   1.799  0.8956  0.3919  0.7639
  997SOL    MW4 3988   0.731   0.522   1.835  0.2771  0.1445  0.3382
  998SOL     OW 3989   0.695   0.782   1.709 -0.3979 -0.3629 -0.0459
  998SOL    HW2 3990   0.763   0.836   1.750 -1.1859 -0.5449  1.5401
  998SOL    HW3 3991   0.710   0.695   1.746 -1.3660 -0.4427  0.1531
  998SOL    MW4 3992   0.706   0.778   1.719 -0.6296 -0.3974  0.1896
  999SOL     OW 3993   0.461   0.891   1.866 -0.1631 -0.7130  0.7105
  999SOL    HW2 3994   0.446   0.986   1.858 -2.5223 -1.1102 -0.1170
  999SOL    HW3 3995   0.539   0.875   1.812  0.5285  0.8204  1.2274
  999SOL    MW4 3996   0.469   0.902   1.858 -0.3831 -0.5631  0.6695
 1000SOL     OW 3997   0.250   0.753   1.471 -0.2231  0.7111 -0.1876
 1000SOL    HW2 3998   0.333   0.792   1.446  1.4120 -1.9875  0.8238
 1000SOL    HW3 3999   0.242   0.769   1.565  1.6615 -3.3445  0.7499
 1000SOL    MW4 4000   0.260   0.760   1.480  0.2413 -0.1800  0.0696
 1001SOL     OW 4001   0.709   1.291   1.864 -0.1639 -0.7091  0.2425
 1001SOL    HW2 4002   0.705   1.289   1.959 -1.2450  0.8008  0.2492
 1001SOL    HW3 4003   0.623   1.259   1.835 -0.1817 -0.2647 -0.2077
 1001SOL    MW4 4004   0.697   1.287   1.872 -0.3089 -0.4512  0.1840
 1002SOL     OW 4005   0.653   1.550   1.792 -0.6086  0.3238  0.5138
 1002SOL    HW2 4006   0.674   1.460   1.817  1.9566  0.2815 -1.6387
 1002SOL    HW3 4007   0.653   1.549   1.696 -1.5460  2.4236  0.4623
 1002SOL    MW4 4008   0.656   1.538   1.783 -0.3938  0.5953  0.2230
 1003SOL     OW 4009   0.007   1.919   1.455  0.2855  0.3141 -0.8160
 1003SOL    HW2 4010  -0.020   1.931   1.546  0.5699  0.4483 -0.7490
 1003SOL    HW3 4011   0.085   1.974   1.445  1.4156 -1.2015 -0.5871
 1003SOL    MW4 4012   0.014   1.928   1.465  0.4721  0.1318 -0.7769
 1004SOL     OW 4013   4.043   2.227   0.940 -0.3637  0.5607 -0.3804
 1004SOL    HW2 4014   4.125   2.209   0.987 -0.4358  1.3997  0.0732
 1004SOL    HW3 4015   3.979   2.171   0.982  0.2576 -1.1025 -1.6212
 1004SOL    MW4 4016   4.046   2.217   0.952 -0.2912  0.4520 -0.4842
 1005SOL     OW 4017   0.415   1.950   1.719  0.1401  0.0452 -0.1939
 1005SOL    HW2 4018   0.417   1.865   1.763  0.1975 -0.4429 -1.1183
 1005SOL    HW3 4019   0.336   1.992   1.752  0.1686 -0.3175  0.3558
 1005SOL    MW4 4020   0.405   1.944   1.729  0.1514 -0.0671 -0.2433
 1006SOL     OW 4021   0.644   2.053   1.849  0.2718 -0.0309 -0.0659
 1006SOL    HW2 4022   0.567   2.005   1.817 -0.5654  0.9144  0.4959
 1006SOL    HW3 4023   0.633   2.058   1.944  1.2271 -0.2266  0.0607
 1006SOL    MW4 4024   0.632   2.048   1.857  0.2874  0.0680  0.0249
 1007SOL     OW 4025   0.427   2.423   1.829  0.4145 -0.3894  0.4748
 1007SOL    HW2 4026   0.442   2.441   1.922  1.5772  0.9427  0.0426
 1007SOL    HW3 4027   0.513   2.394   1.797  0.3171  0.3107 -0.4415
 1007SOL    MW4 4028   0.441   2.421   1.837  0.5551 -0.1213  0.2969
 1008SOL     OW 4029   0.463   2.695   1.818 -0.6649  0.3257 -0.3935
 1008SOL    HW2 4030   0.441   2.602   1.814 -1.4321  0.5779 -3.6029
 1008SOL    HW3 4031   0.382   2.738   1.845 -0.4282  0.1055  0.6750
 1008SOL    MW4 4032   0.450   2.688   1.821 -0.7349  0.3299 -0.6760
 1009SOL     OW 4033   0.935   2.670   1.801 -0.1861 -0.5980 -0.3690
 1009SOL    HW2 4034   0.857   2.725   1.815  0.4773  0.4505 -0.7457
 1009SOL    HW3 4035   0.915   2.588   1.847 -0.4467  0.6253  1.7873
 1009SOL    MW4 4036   0.922   2.666   1.809 -0.1330 -0.2983 -0.1342
 1010SOL     OW 4037   0.646   3.089   1.809  0.5838 -0.1426 -0.3739
 1010SOL    HW2 4038   0.674   3.000   1.833 -1.1745 -0.9075 -1.0735
 1010SOL    HW3 4039   0.655   3.093   1.714  0.6074  0.4166 -0.3499
 1010SOL    MW4 4040   0.651   3.078   1.800  0.3549 -0.1697 -0.4630
 1011SOL     OW 4041   0.430   3.218   1.906  0.1179 -0.3425 -1.0629
 1011SOL    HW2 4042   0.498   3.166   1.864  0.7647  0.6060 -1.2072
 1011SOL    HW3 4043   0.431   3.301   1.858 -0.3150  0.1129 -0.2833
 1011SOL    MW4 4044   0.439   3.222   1.894  0.1461 -0.1573 -0.9791
 1012SOL     OW 4045   4.391   4.171   0.266 -0.0373  0.1569  0.8238
 1012SOL    HW2 4046   4.332   4.121   0.322 -1.2980  0.7459  0.0578
 1012SOL    HW3 4047   4.335   4.200   0.193  1.1753  0.8269  0.1495
 1012SOL    MW4 4048   4.376   4.168   0.263 -0.0436  0.3230  0.6338
 1013SOL     OW 4049   0.631   3.586   1.825  0.4064 -0.0236  0.1877
 1013SOL    HW2 4050   0.721   3.556   1.810  0.1688 -0.3418 -0.6172
 1013SOL    HW3 4051   0.629   3.674   1.788  0.2778 -0.1695 -0.1528
 1013SOL    MW4 4052   0.643   3.594   1.818  0.3581 -0.0848  0.0366
 1014SOL     OW 4053   0.602   3.849   1.758 -0.1340 -0.0654  0.0928
 1014SOL    HW2 4054   0.528   3.892   1.802  0.9321  2.0036 -0.1017
 1014SOL    HW3 4055   0.679   3.883   1.802  0.7378 -2.5494  0.5907
 1014SOL    MW4 4056   0.602   3.859   1.770  0.1217 -0.1201  0.1328
 1015SOL     OW 4057   0.404   3.979   1.907  0.6640 -0.6676  0.0518
 1015SOL    HW2 4058   0.399   4.055   1.849  0.6352 -0.4251  0.3690
 1015SOL    HW3 4059   0.333   3.921   1.878 -0.8835  0.5220  1.3760
 1015SOL    MW4 4060   0.394   3.982   1.895  0.4561 -0.4786  0.2684
 1016SOL     OW 4061   0.409   4.190   1.739 -0.0990  0.2116  0.4710
 1016SOL    HW2 4062   0.357   4.270   1.750 -0.1808  0.3510 -0.8578
 1016SOL    HW3 4063   0.425   4.185   1.644  0.0372 -1.2678  0.5704
 1016SOL    MW4 4064   0.404   4.200   1.728 -0.0918  0.0348  0.3088
 1017SOL     OW 4065   0.602   4.381   1.867  0.2156 -0.3141 -0.4150
 1017SOL    HW2 4066   0.692   4.353   1.852  0.2453  0.0601 -0.9482
 1017SOL    HW3 4067   0.549   4.306   1.842  0.4065 -0.8074  0.6136
 1017SOL    MW4 4068   0.607   4.367   1.862  0.2447 -0.3298 -0.3497
 1018SOL     OW 4069   1.121   4.648   1.728  0.0953  0.1972  0.3627
 1018SOL    HW2 4070   1.190   4.704   1.763 -0.1113 -0.7008  2.2568
 1018SOL    HW3 4071   1.115   4.575   1.790  0.0942 -1.7466 -1.8422
 1018SOL    MW4 4072   1.129   4.646   1.741  0.0679 -0.1777  0.3217
 1019SOL     OW 4073   0.934   0.098   1.866  0.1357  0.5282  0.4851
 1019SOL    HW2 4074   0.993   0.067   1.797 -1.4072 -0.4376 -0.4302
 1019SOL    HW3 4075   0.853   0.048   1.852  0.2577 -0.7184  3.8559
 1019SOL    MW4 4076   0.931   0.087   1.855 -0.0518  0.2363  0.8091
 1020SOL     OW 4077   0.909   0.330   1.751 -0.3700 -0.3964  0.1475
 1020SOL    HW2 4078   0.979   0.379   1.793 -0.5239 -1.1432  1.3119
 1020SOL    HW3 4079   0.909   0.246   1.795 -1.2506 -0.8164 -0.6340
 1020SOL    MW4 4080   0.918   0.326   1.762 -0.5065 -0.5503  0.1980
 1021SOL     OW 4081   1.111   0.480   1.870 -0.4019 -0.5520  0.2532
 1021SOL    HW2 4082   1.190   0.438   1.836  2.3269  1.7863  3.4437
 1021SOL    HW3 4083   1.110   0.567   1.829 -1.2379 -0.5084  0.3578
 1021SOL    MW4 4084   1.121   0.486   1.860 -0.1522 -0.2377  0.6879
 1022SOL     OW 4085   3.135   0.944   1.057 -0.2860  0.4735  0.2717
 1022SOL    HW2 4086   3.131   0.939   1.153 -0.0285 -0.6916  0.2179
 1022SOL    HW3 4087   3.219   0.986   1.039  0.7254 -1.4471  0.4833
 1022SOL    MW4 4088   3.145   0.949   1.067 -0.1186  0.0664  0.2925
 1023SOL     OW 4089   0.907   0.899   1.843 -0.2660 -0.3561 -0.4152
 1023SOL    HW2 4090   0.890   0.892   1.937 -0.9068  0.8251 -0.4333
 1023SOL    HW3 4091   0.896   0.992   1.824  0.0902 -0.5553 -1.6216
 1023SOL    MW4 4092   0.903   0.910   1.853 -0.3035 -0.2265 -0.5767
 1024SOL     OW 4093   1.114   0.732   1.769  0.0962 -0.3178 -0.5367
 1024SOL    HW2 4094   1.191   0.788   1.777 -0.6447  0.6352  0.1056
 1024SOL    HW3 4095   1.040   0.791   1.788 -0.7076 -1.4511 -0.0912
 1024SOL    MW4 4096   1.114   0.748   1.773 -0.1076 -0.3416 -0.3932
 1025SOL     OW 4097   1.121   1.304   2.123  0.0125 -0.2553  0.0619
 1025SOL    HW2 4098   1.143   1.319   2.031 -0.2733 -0.8241 -0.1011
 1025SOL    HW3 4099   1.199   1.262   2.160  0.3041  0.3938  0.1959
 1025SOL    MW4 4100   1.134   1.300   2.116  0.0132 -0.2447  0.0581
 1026SOL     OW 4101   1.149   1.543   1.755  0.0508  0.0145  0.1541
 1026SOL    HW2 4102   1.141   1.529   1.661  1.2316  1.4008 -0.1713
 1026SOL    HW3 4103   1.074   1.600   1.776 -0.1883 -0.2586  0.0455
 1026SOL    MW4 4104   1.138   1.549   1.745  0.1750  0.1614  0.0968
 1027SOL     OW 4105   0.921   1.688   1.879  0.1158 -0.3338 -0.2197
 1027SOL    HW2 4106   0.909   1.766   1.825  0.0395 -0.0453  0.2102
 1027SOL    HW3 4107   0.844   1.634   1.862 -1.2093  0.9491  1.5852
 1027SOL    MW4 4108   0.910   1.691   1.870 -0.0691 -0.1264  0.0751
 1028SOL     OW 4109   0.877   1.919   1.717 -0.2068 -0.0943 -0.4637
 1028SOL    HW2 4110   0.872   1.928   1.621 -0.4879  0.9344 -0.3628
 1028SOL    HW3 4111   0.797   1.963   1.749 -0.6915 -1.4330  0.1872
 1028SOL    MW4 4112   0.866   1.926   1.708 -0.3078 -0.1352 -0.3645
 1029SOL     OW 4113   1.085   2.030   1.856 -0.0126  0.3034 -0.2027
 1029SOL    HW2 4114   1.096   2.122   1.832  1.6851 -0.4992 -2.7734
 1029SOL    HW3 4115   1.029   1.994   1.788  0.5825 -0.8716 -0.0852
 1029SOL    MW4 4116   1.079   2.037   1.844  0.2899  0.0425 -0.5264
 1030SOL     OW 4117   1.097   2.294   1.788  0.3640  0.4493 -0.1704
 1030SOL    HW2 4118   1.175   2.347   1.807  0.7141  0.0254 -0.4124
 1030SOL    HW3 4119   1.091   2.295   1.692  1.4389 -1.4618 -0.2863
 1030SOL    MW4 4120   1.106   2.301   1.778  0.5521  0.1412 -0.2176
 1031SOL     OW 4121   0.901   2.423   1.900 -0.0637  0.5136  0.2249
 1031SOL    HW2 4122   0.962   2.377   1.842 -0.4108  0.4643 -0.1032
 1031SOL    HW3 4123   0.815   2.390   1.876 -0.2298  0.6588  0.6187
 1031SOL    MW4 4124   0.898   2.413   1.889 -0.1314  0.5262  0.2336
 1032SOL     OW 4125   0.693   2.823   1.864  0.4043 -0.4318 -0.0577
 1032SOL    HW2 4126   0.613   2.772   1.856 -0.7124  1.2974 -0.1458
 1032SOL    HW3 4127   0.711   2.827   1.958  0.8883 -1.5700 -0.0997
 1032SOL    MW4 4128   0.685   2.817   1.875  0.3208 -0.3538 -0.0749
 1033SOL     OW 4129   1.132   2.857   1.904  0.0135 -0.2559  0.0233
 1033SOL    HW2 4130   1.086   2.783   1.866  0.6643 -0.6484 -0.0096
 1033SOL    HW3 4131   1.109   2.855   1.997 -1.8136  0.8798 -0.3846
 1033SOL    MW4 4132   1.123   2.847   1.912 -0.1417 -0.1579 -0.0349
 1034SOL     OW 4133   1.117   3.103   1.767 -0.3337  0.1164 -0.2916
 1034SOL    HW2 4134   1.035   3.146   1.792 -0.3383 -0.4620  0.6867
 1034SOL    HW3 4135   1.117   3.020   1.815  0.6347 -0.0694 -0.5989
 1034SOL    MW4 4136   1.106   3.098   1.776 -0.2066  0.0156 -0.2030
 1035SOL     OW 4137   0.901   3.245   1.862  0.0800  0.0006 -0.0680
 1035SOL    HW2 4138   0.914   3.253   1.956  0.4790 -0.2846 -0.1004
 1035SOL    HW3 4139   0.829   3.183   1.853  0.6894 -0.7248  0.0218
 1035SOL    MW4 4140   0.893   3.238   1.873  0.2131 -0.1327 -0.0604
 1036SOL     OW 4141   0.905   3.501   1.778  0.2751  0.0048  0.3006
 1036SOL    HW2 4142   0.901   3.414   1.818  0.0866 -0.0024  0.2694
 1036SOL    HW3 4143   0.923   3.484   1.685  1.4871  0.0551  0.5204
 1036SOL    MW4 4144   0.907   3.487   1.771  0.4101  0.0105  0.3255
 1037SOL     OW 4145   1.150   3.594   1.869  0.9069 -0.3322 -0.4266
 1037SOL    HW2 4146   1.136   3.608   1.963  0.3997  1.4335 -0.7475
 1037SOL    HW3 4147   1.070   3.553   1.838  0.9138 -0.5494 -0.1539
 1037SOL    MW4 4148   1.138   3.591   1.877  0.8409 -0.1279 -0.4330
 1038SOL     OW 4149   1.127   3.847   1.763 -0.4038 -0.1307  0.1007
 1038SOL    HW2 4150   1.133   3.756   1.792  1.1651  0.0182  0.3053
 1038SOL    HW3 4151   1.117   3.841   1.668 -2.0057 -0.5432  0.2851
 1038SOL    MW4 4152   1.127   3.834   1.754 -0.4082 -0.1654  0.1520
 1039SOL     OW 4153   0.867   3.967   1.840 -0.1795 -0.3140 -0.3925
 1039SOL    HW2 4154   0.883   3.977   1.934  0.6188 -0.0571 -0.5473
 1039SOL    HW3 4155   0.944   3.918   1.808 -1.7261 -2.8111 -0.4474
 1039SOL    MW4 4156   0.879   3.962   1.848 -0.2783 -0.6096 -0.4202
 1040SOL     OW 4157   0.859   4.261   1.808  0.0256 -0.3005 -0.4030
 1040SOL    HW2 4158   0.945   4.290   1.837 -0.7594  0.4435  1.2772
 1040SOL    HW3 4159   0.868   4.167   1.796  1.2229 -0.1374 -0.8400
 1040SOL    MW4 4160   0.872   4.252   1.810  0.0800 -0.1808 -0.2390
 1041SOL     OW 4161   1.100   4.387   1.874  0.1259  0.3080  0.5713
 1041SOL    HW2 4162   1.086   4.378   1.968 -1.7679 -3.2943  0.0472
 1041SOL    HW3 4163   1.175   4.331   1.855 -1.6780 -1.8631 -0.4827
 1041SOL    MW4 4164   1.108   4.378   1.884 -0.3619 -0.4537  0.3631
 1042SOL     OW 4165   1.538   4.643   1.726 -0.0204 -0.1364 -0.1954
 1042SOL    HW2 4166   1.615   4.689   1.759 -1.6958  1.3899  1.7303
 1042SOL    HW3 4167   1.543   4.556   1.766  1.5035 -0.5844 -1.3308
 1042SOL    MW4 4168   1.549   4.637   1.736 -0.0404  0.0059 -0.0911
 1043SOL     OW 4169   1.335   0.112   1.827 -0.3249 -0.1527 -0.1699
 1043SOL    HW2 4170   1.349   0.100   1.921 -4.1479  0.8053  0.6109
 1043SOL    HW3 4171   1.401   0.056   1.786  2.0659  0.1541  3.0340
 1043SOL    MW4 4172   1.346   0.103   1.834 -0.5139  0.0141  0.3558
 1044SOL     OW 4173   1.344   0.377   1.765  0.4325 -0.2611 -0.2567
 1044SOL    HW2 4174   1.348   0.286   1.794  2.7637 -0.6676 -1.7121
 1044SOL    HW3 4175   1.321   0.373   1.673  2.4681  0.4748 -0.8342
 1044SOL    MW4 4176   1.342   0.364   1.757  1.0087 -0.2177 -0.5249
 1045SOL     OW 4177   1.575   0.517   1.867 -0.0055 -0.2912 -0.2656
 1045SOL    HW2 4178   1.653   0.468   1.843 -1.1246 -1.0205 -2.5688
 1045SOL    HW3 4179   1.502   0.464   1.835 -1.3712  1.4317 -0.1329
 1045SOL    MW4 4180   1.575   0.504   1.860 -0.3334 -0.1601 -0.5519
 1046SOL     OW 4181   1.546   0.773   1.775  0.0303  0.4349 -0.1224
 1046SOL    HW2 4182   1.568   0.689   1.815  0.8189  0.9807  0.6012
 1046SOL    HW3 4183   1.556   0.758   1.681  2.0276  0.2378  0.0987
 1046SOL    MW4 4184   1.550   0.760   1.768  0.3979  0.4809  0.0022
 1047SOL     OW 4185   1.324   0.915   1.827 -0.6098 -0.4032  0.2015
 1047SOL    HW2 4186   1.318   0.926   1.922  1.8624 -0.3314  0.3808
 1047SOL    HW3 4187   1.401   0.859   1.815 -1.4339 -1.1605 -1.7249
 1047SOL    MW4 4188   1.334   0.909   1.838 -0.3924 -0.4937 -0.0290
 1048SOL     OW 4189   2.308   4.642   0.452  0.9211  0.0558 -0.3961
 1048SOL    HW2 4190   2.363   4.677   0.382  1.7690 -1.0415 -0.2853
 1048SOL    HW3 4191   2.226   4.619   0.409  1.3746 -0.4443 -1.0025
 1048SOL    MW4 4192   2.304   4.644   0.437  1.0928 -0.1550 -0.4615
 1049SOL     OW 4193   1.579   1.270   1.868 -0.5833  0.2769  0.9544
 1049SOL    HW2 4194   1.573   1.357   1.829  0.3628  0.3556  0.9826
 1049SOL    HW3 4195   1.511   1.219   1.823  0.1217  0.5154 -0.4121
 1049SOL    MW4 4196   1.569   1.275   1.857 -0.3654  0.3187  0.7778
 1050SOL     OW 4197   1.337   1.634   1.413  0.3533  0.2405  0.3687
 1050SOL    HW2 4198   1.338   1.649   1.319  0.4841  1.6201  0.5898
 1050SOL    HW3 4199   1.352   1.720   1.452  2.1629 -0.6219  1.6275
 1050SOL    MW4 4200   1.339   1.647   1.406  0.6093  0.3087  0.5640
 1051SOL     OW 4201   1.378   1.635   1.845 -0.3988 -0.1415 -0.6169
 1051SOL    HW2 4202   1.373   1.668   1.935  2.0284  2.5150 -1.3651
 1051SOL    HW3 4203   1.287   1.617   1.821 -0.9234 -2.9253  3.0274
 1051SOL    MW4 4204   1.365   1.637   1.853 -0.1478 -0.1583 -0.2348
 1052SOL     OW 4205   1.100   1.239   1.389  0.0514  0.0452 -0.5129
 1052SOL    HW2 4206   1.087   1.322   1.433 -2.0742 -1.0865  1.0975
 1052SOL    HW3 4207   1.189   1.212   1.413  0.2221  1.1654  0.1161
 1052SOL    MW4 4208   1.110   1.246   1.398 -0.2065  0.0437 -0.2174
 1053SOL     OW 4209   1.593   2.036   1.834  0.1531 -0.0172 -0.1067
 1053SOL    HW2 4210   1.600   2.122   1.791  1.4790 -0.1795 -0.2369
 1053SOL    HW3 4211   1.507   2.003   1.808  0.2690  0.6040 -1.3143
 1053SOL    MW4 4212   1.583   2.043   1.825  0.3434  0.0434 -0.2832
 1054SOL     OW 4213   1.578   2.318   1.755 -0.0944  0.2786  0.1996
 1054SOL    HW2 4214   1.660   2.364   1.773 -0.5240  1.0287  0.2414
 1054SOL    HW3 4215   1.580   2.303   1.660  0.0883  0.2983  0.1998
 1054SOL    MW4 4216   1.589   2.322   1.745 -0.1269  0.3801  0.2052
 1055SOL     OW 4217   1.358   2.425   1.863 -0.6240 -0.0034 -0.0424
 1055SOL    HW2 4218   1.359   2.520   1.855  1.0348  0.1197  1.2365
 1055SOL    HW3 4219   1.429   2.395   1.806 -0.5215 -0.3825  0.2768
 1055SOL    MW4 4220   1.368   2.433   1.855 -0.3916 -0.0372  0.1685
 1056SOL     OW 4221   1.352   2.707   1.775 -0.0662 -0.2105  0.0316
 1056SOL    HW2 4222   1.283   2.768   1.800 -0.7480 -0.8320 -0.3187
 1056SOL    HW3 4223   1.331   2.685   1.684  0.6765 -0.2934 -0.1190
 1056SOL    MW4 4224   1.340   2.712   1.766 -0.0581 -0.3034 -0.0345
 1057SOL     OW 4225   1.816   2.700   1.781  0.0448  0.1863 -0.3674
 1057SOL    HW2 4226   1.818   2.613   1.822 -1.2084  0.1514 -0.3719
 1057SOL    HW3 4227   1.782   2.684   1.693  1.3659  0.4666 -0.9440
 1057SOL    MW4 4228   1.812   2.686   1.775  0.0538  0.2187 -0.4441
 1058SOL     OW 4229   1.590   2.816   1.889  0.5126  0.2972 -0.0967
 1058SOL    HW2 4230   1.515   2.761   1.865  0.4828  0.6376 -0.7900
 1058SOL    HW3 4231   1.666   2.763   1.866  0.5028 -0.3753  1.3410
 1058SOL    MW4 4232   1.590   2.802   1.883  0.5074  0.2534  0.0015
 1059SOL     OW 4233   1.339   3.212   1.876  0.2514 -0.3956 -0.1710
 1059SOL    HW2 4234   1.413   3.153   1.861 -0.4665 -1.9954  2.3180
 1059SOL    HW3 4235   1.266   3.172   1.827 -0.3303 -1.8384  1.8117
 1059SOL    MW4 4236   1.339   3.199   1.867  0.0799 -0.7970  0.4190
 1060SOL     OW 4237   1.404   3.471   1.796  0.1867 -0.4159  0.6389
 1060SOL    HW2 4238   1.394   3.385   1.837  1.1408 -1.1434 -0.6379
 1060SOL    HW3 4239   1.325   3.519   1.823 -0.1522 -1.5359  1.6995
 1060SOL    MW4 4240   1.392   3.466   1.805  0.2678 -0.6597  0.6104
 1061SOL     OW 4241   1.626   3.600   1.884  0.0695  0.8624 -0.2248
 1061SOL    HW2 4242   1.598   3.607   1.976  0.6823 -0.8548  0.0921
 1061SOL    HW3 4243   1.566   3.536   1.846 -0.0355  1.4031 -0.9777
 1061SOL    MW4 4244   1.614   3.593   1.891  0.1365  0.7072 -0.2823
 1062SOL     OW 4245   1.561   3.830   1.736  0.2766  0.7561  0.0210
 1062SOL    HW2 4246   1.627   3.879   1.786  1.7796 -0.2362 -0.9477
 1062SOL    HW3 4247   1.566   3.741   1.771 -0.5759  0.6874 -0.0413
 1062SOL    MW4 4248   1.571   3.825   1.747  0.3624  0.6161 -0.1151
 1063SOL     OW 4249   1.358   3.988   1.853  0.3293 -0.5623  0.1917
 1063SOL    HW2 4250   1.421   3.933   1.806 -0.5479 -1.5687  0.1637
 1063SOL    HW3 4251   1.272   3.954   1.826 -0.2322  1.0397 -0.0782
 1063SOL    MW4 4252   1.355   3.976   1.843  0.1395 -0.4837  0.1524
 1064SOL     OW 4253   1.332   4.259   1.811 -0.4589 -0.0208  0.5038
 1064SOL    HW2 4254   1.350   4.167   1.831  0.3797  0.3712  1.6275
 1064SOL    HW3 4255   1.330   4.263   1.716  2.0830 -0.7567  0.3749
 1064SOL    MW4 4256   1.334   4.247   1.801 -0.0129 -0.0662  0.6351
 1065SOL     OW 4257   1.545   4.401   1.857  0.0612 -0.1477  0.0787
 1065SOL    HW2 4258   1.541   4.429   1.948 -0.4550  0.4864 -0.1396
 1065SOL    HW3 4259   1.467   4.347   1.845 -0.4334  0.6409 -0.2783
 1065SOL    MW4 4260   1.535   4.397   1.867 -0.0721  0.0401  0.0028
 1066SOL     OW 4261   2.022   0.011   1.740 -0.2727 -0.4091  0.0653
 1066SOL    HW2 4262   2.088   0.058   1.791 -0.7524  0.9599 -0.5732
 1066SOL    HW3 4263   2.022  -0.078   1.777  0.8048  0.0218  1.1082
 1066SOL    MW4 4264   2.030   0.005   1.752 -0.1938 -0.1717  0.1187
 1067SOL     OW 4265   1.781   0.122   1.844  0.1777 -0.1165 -0.1981
 1067SOL    HW2 4266   1.797   0.115   1.938  1.7283  2.4159 -0.2190
 1067SOL    HW3 4267   1.858   0.082   1.804  0.1684  0.0220 -0.3575
 1067SOL    MW4 4268   1.794   0.116   1.851  0.3811  0.2359 -0.2219
 1068SOL     OW 4269   1.804   0.387   1.739  0.1267 -0.2347 -0.3101
 1068SOL    HW2 4270   1.812   0.296   1.770  1.6175  0.4539  1.4370
 1068SOL    HW3 4271   1.789   0.379   1.645 -0.7286 -2.3200 -0.0212
 1068SOL    MW4 4272   1.803   0.374   1.731  0.2105 -0.4190 -0.0415
 1069SOL     OW 4273   2.044   0.523   1.794  0.1851 -0.0086 -0.1198
 1069SOL    HW2 4274   2.039   0.613   1.761 -2.0535  0.2000  0.7258
 1069SOL    HW3 4275   1.962   0.483   1.765 -0.2426 -0.8411  2.1726
 1069SOL    MW4 4276   2.033   0.530   1.786 -0.1667 -0.0909  0.2942
 1070SOL     OW 4277   1.996   0.791   1.723 -0.1197  0.1121  0.1755
 1070SOL    HW2 4278   2.083   0.815   1.756 -0.2785  0.0370  0.6475
 1070SOL    HW3 4279   2.006   0.792   1.627  0.6046 -0.6364  0.2360
 1070SOL    MW4 4280   2.009   0.794   1.714 -0.0451  0.0034  0.2457
 1071SOL     OW 4281   1.773   0.919   1.846 -0.2578  0.0089 -0.3368
 1071SOL    HW2 4282   1.697   0.865   1.826 -0.4217 -0.0205  0.3528
 1071SOL    HW3 4283   1.843   0.883   1.791 -0.7188 -0.0011 -0.9284
 1071SOL    MW4 4284   1.772   0.907   1.836 -0.3403  0.0037 -0.3239
 1072SOL     OW 4285   1.814   1.176   1.778  0.3131 -0.1113 -0.2561
 1072SOL    HW2 4286   1.735   1.217   1.813 -0.0136 -0.9057 -0.0543
 1072SOL    HW3 4287   1.807   1.084   1.804  0.6479 -0.4636 -1.4035
 1072SOL    MW4 4288   1.803   1.169   1.786  0.3141 -0.2626 -0.3808
 1073SOL     OW 4289   2.021   1.308   1.878  0.4088  0.3078  0.1843
 1073SOL    HW2 4290   2.105   1.291   1.834  0.4733 -0.7543  0.7093
 1073SOL    HW3 4291   1.958   1.253   1.831 -0.2259  1.9718 -0.9550
 1073SOL    MW4 4292   2.024   1.298   1.866  0.3336  0.3872  0.1032
 1074SOL     OW 4293   2.032   1.547   1.757  0.0320 -0.4004 -0.2986
 1074SOL    HW2 4294   2.001   1.464   1.794 -0.1955 -0.2522 -0.1530
 1074SOL    HW3 4295   2.034   1.532   1.662 -1.0826 -0.2223 -0.3620
 1074SOL    MW4 4296   2.028   1.534   1.749 -0.1451 -0.3573 -0.2878
 1075SOL     OW 4297   1.807   1.702   1.887  0.0266 -0.0175 -0.8131
 1075SOL    HW2 4298   1.816   1.795   1.864  0.7104  0.3575  0.8695
 1075SOL    HW3 4299   1.871   1.658   1.831  2.0292  0.9329  0.6732
 1075SOL    MW4 4300   1.817   1.709   1.876  0.3810  0.1574 -0.3950
 1076SOL     OW 4301   1.823   1.932   1.734  0.2439 -0.1222 -0.4359
 1076SOL    HW2 4302   1.743   1.970   1.770 -0.4495 -2.9385  1.1110
 1076SOL    HW3 4303   1.800   1.906   1.645  0.5396  2.3465 -1.2823
 1076SOL    MW4 4304   1.810   1.933   1.727  0.1914 -0.1681 -0.3435
 1077SOL     OW 4305   2.050   2.068   1.822  0.2134  0.4515 -0.3539
 1077SOL    HW2 4306   2.126   2.022   1.786  0.3547  0.4216 -0.0188
 1077SOL    HW3 4307   1.974   2.025   1.782  0.3728  0.4797 -0.6852
 1077SOL    MW4 4308   2.050   2.057   1.812  0.2530  0.4513 -0.3534
 1078SOL     OW 4309   2.056   2.320   1.733  0.3392 -0.3632 -0.6201
 1078SOL    HW2 4310   2.123   2.359   1.790  1.4816 -0.8159 -1.6511
 1078SOL    HW3 4311   2.057   2.227   1.754  0.4570 -0.4653 -1.0730
 1078SOL    MW4 4312   2.065   2.313   1.743  0.5054 -0.4364 -0.8159
 1079SOL     OW 4313   1.819   2.449   1.877 -0.3331 -0.1827 -0.1436
 1079SOL    HW2 4314   1.832   2.448   1.972  1.9604  2.0622 -0.4010
 1079SOL    HW3 4315   1.887   2.392   1.842 -0.4495 -0.0972 -0.5157
 1079SOL    MW4 4316   1.829   2.441   1.885 -0.0458  0.1248 -0.2267
 1080SOL     OW 4317   1.776   2.423   1.378  0.4459 -0.1961  0.0974
 1080SOL    HW2 4318   1.769   2.512   1.411 -0.6328  0.1801 -1.1223
 1080SOL    HW3 4319   1.696   2.380   1.407  0.1427 -0.2599 -0.8211
 1080SOL    MW4 4320   1.764   2.429   1.387  0.2636 -0.1549 -0.1847
 1081SOL     OW 4321   2.273   2.702   1.763 -0.1891 -0.0409 -0.1732
 1081SOL    HW2 4322   2.184   2.724   1.789  0.2950  1.8416  0.0097
 1081SOL    HW3 4323   2.266   2.680   1.670 -0.7798  0.5592 -0.2751
 1081SOL    MW4 4324   2.261   2.702   1.754 -0.2032  0.2867 -0.1625
 1082SOL     OW 4325   2.044   2.822   1.862  0.2289  0.4450  0.3394
 1082SOL    HW2 4326   2.045   2.829   1.957 -0.7375 -0.4453  0.4205
 1082SOL    HW3 4327   1.958   2.784   1.841  1.3263 -1.5358 -0.7390
 1082SOL    MW4 4328   2.032   2.818   1.872  0.2462  0.0662  0.2078
 1083SOL     OW 4329   1.787   3.180   1.838 -0.2173 -0.4940  0.1648
 1083SOL    HW2 4330   1.771   3.190   1.932 -1.4475  2.1010 -0.2654
 1083SOL    HW3 4331   1.702   3.158   1.801  0.1069 -0.7571 -0.4282
 1083SOL    MW4 4332   1.774   3.178   1.846 -0.3369 -0.1864  0.0298
 1084SOL     OW 4333   2.068   3.598   1.877  0.5215 -0.3660  0.2060
 1084SOL    HW2 4334   2.025   3.676   1.842 -1.7433 -0.9517  1.5721
 1084SOL    HW3 4335   2.009   3.526   1.855  2.4046 -1.6632 -0.7225
 1084SOL    MW4 4336   2.055   3.598   1.870  0.4712 -0.6144  0.2637
 1085SOL     OW 4337   1.965   3.647   2.134 -0.1744  0.6584 -0.2586
 1085SOL    HW2 4338   1.990   3.629   2.043 -1.0228  2.9690 -1.0014
 1085SOL    HW3 4339   1.888   3.594   2.149  1.2300 -1.3965 -0.1590
 1085SOL    MW4 4340   1.958   3.638   2.124 -0.1010  0.6921 -0.3435
 1086SOL     OW 4341   2.016   3.840   1.761 -0.2760 -0.6326 -0.4573
 1086SOL    HW2 4342   2.088   3.882   1.807 -0.1470 -0.5986 -0.6864
 1086SOL    HW3 4343   2.030   3.864   1.669 -0.7327 -0.3973 -0.4687
 1086SOL    MW4 4344   2.027   3.849   1.755 -0.3192 -0.5971 -0.4891
 1087SOL     OW 4345   1.777   3.960   1.830  0.9379 -0.1775 -0.1366
 1087SOL    HW2 4346   1.783   4.056   1.829  1.4170 -0.1386  2.7404
 1087SOL    HW3 4347   1.859   3.930   1.790  0.1948  0.5788 -2.3186
 1087SOL    MW4 4348   1.789   3.969   1.824  0.9031 -0.0726 -0.0449
 1088SOL     OW 4349   1.777   4.242   1.777 -0.0498  0.0487  0.0387
 1088SOL    HW2 4350   1.695   4.290   1.790  0.2191  0.4926  0.0881
 1088SOL    HW3 4351   1.794   4.249   1.683  0.1462  0.3039  0.0935
 1088SOL    MW4 4352   1.768   4.249   1.767  0.0116  0.1409  0.0525
 1089SOL     OW 4353   1.999   4.402   1.817  0.1099 -0.7008  0.2376
 1089SOL    HW2 4354   2.074   4.350   1.789  0.2375  0.3224 -1.4279
 1089SOL    HW3 4355   1.923   4.350   1.792  0.2497 -1.7017  1.8538
 1089SOL    MW4 4356   1.999   4.388   1.810  0.1452 -0.6979  0.2311
 1090SOL     OW 4357   2.474   4.655   1.722 -0.0880  0.1880  0.3051
 1090SOL    HW2 4358   2.553   4.683   1.767 -0.3108 -0.4496  1.1033
 1090SOL    HW3 4359   2.456   4.568   1.757 -0.1181 -0.4370 -1.1978
 1090SOL    MW4 4360   2.482   4.647   1.732 -0.1213  0.0214  0.2121
 1091SOL     OW 4361   2.243   0.117   1.862 -0.4734  0.2695  0.3085
 1091SOL    HW2 4362   2.235   0.104   1.956  1.2406  2.8360  0.8727
 1091SOL    HW3 4363   2.323   0.071   1.837 -1.5527 -1.4026 -0.1351
 1091SOL    MW4 4364   2.253   0.109   1.871 -0.3897  0.3875  0.3244
 1092SOL     OW 4365   2.263   0.380   1.714 -0.0199 -0.1244  0.0950
 1092SOL    HW2 4366   2.192   0.429   1.755  0.9648  1.5082 -0.1204
 1092SOL    HW3 4367   2.258   0.293   1.753 -1.8599  0.1114  0.4006
 1092SOL    MW4 4368   2.253   0.375   1.725 -0.1328  0.1221  0.1069
 1093SOL     OW 4369   2.500   0.463   1.850  0.3294 -0.5260  0.4295
 1093SOL    HW2 4370   2.555   0.390   1.822 -0.0475 -0.5445 -0.2643
 1093SOL    HW3 4371   2.415   0.447   1.808  0.2090  0.2472  0.3723
 1093SOL    MW4 4372   2.496   0.452   1.841  0.2638 -0.4264  0.3304
 1094SOL     OW 4373   2.492   0.737   1.760 -0.4258  0.5563  0.0717
 1094SOL    HW2 4374   2.503   0.648   1.793  1.5979  1.3362  1.6230
 1094SOL    HW3 4375   2.470   0.726   1.668 -0.3514 -1.5542  0.2810
 1094SOL    MW4 4376   2.491   0.724   1.752 -0.1490  0.3807  0.3040
 1095SOL     OW 4377   2.240   0.875   1.815  0.2169 -0.7268 -0.1173
 1095SOL    HW2 4378   2.218   0.846   1.903 -0.6722 -0.5312 -0.2603
 1095SOL    HW3 4379   2.323   0.833   1.795 -0.3359 -2.0192  0.2295
 1095SOL    MW4 4380   2.248   0.865   1.824  0.0266 -0.8715 -0.0904
 1096SOL     OW 4381   2.242   1.195   1.745 -0.3959 -0.0481 -0.2126
 1096SOL    HW2 4382   2.254   1.107   1.779 -0.8247 -0.7490 -1.8276
 1096SOL    HW3 4383   2.323   1.240   1.766  0.2500 -1.1476 -0.3187
 1096SOL    MW4 4384   2.254   1.190   1.752 -0.3673 -0.2856 -0.4397
 1097SOL     OW 4385   2.484   1.551   1.723  0.1476 -0.3941  0.0778
 1097SOL    HW2 4386   2.490   1.550   1.627  0.6386  0.0219  0.1036
 1097SOL    HW3 4387   2.406   1.604   1.741  0.3342 -0.0580 -0.0841
 1097SOL    MW4 4388   2.474   1.558   1.713  0.2370 -0.2949  0.0599
 1098SOL     OW 4389   2.513   1.275   1.802  0.0068  0.1469 -0.2246
 1098SOL    HW2 4390   2.510   1.280   1.898  1.3737  1.0990 -0.2149
 1098SOL    HW3 4391   2.511   1.367   1.774 -0.3289 -0.1304 -1.1091
 1098SOL    MW4 4392   2.513   1.288   1.811  0.1428  0.2359 -0.3400
 1099SOL     OW 4393   2.250   1.676   1.840  0.1378 -0.2012  0.0623
 1099SOL    HW2 4394   2.174   1.626   1.811  0.1974 -0.5660  0.5179
 1099SOL    HW3 4395   2.258   1.656   1.933  1.9482 -1.7731 -0.3719
 1099SOL    MW4 4396   2.241   1.667   1.848  0.3845 -0.4567  0.0651
 1100SOL     OW 4397   2.272   1.923   1.713 -0.0880 -0.3525  0.0197
 1100SOL    HW2 4398   2.339   1.985   1.742 -1.4547  0.7467  0.8458
 1100SOL    HW3 4399   2.287   1.846   1.768 -0.6798  0.5791  1.5039
 1100SOL    MW4 4400   2.283   1.921   1.724 -0.3464 -0.0846  0.3245
 1101SOL     OW 4401   2.465   2.088   1.835  0.0932  0.1832  0.4493
 1101SOL    HW2 4402   2.557   2.062   1.825  0.4145  1.2071  0.6664
 1101SOL    HW3 4403   2.457   2.168   1.782 -1.0396 -0.6955 -0.7350
 1101SOL    MW4 4404   2.476   2.095   1.827 -0.0139  0.2023  0.3217
 1102SOL     OW 4405   2.471   2.334   1.688 -0.6523  0.3055  0.0957
 1102SOL    HW2 4406   2.554   2.362   1.727 -1.1505 -0.1219  1.4952
 1102SOL    HW3 4407   2.404   2.371   1.746 -1.4164 -0.0250 -0.5775
 1102SOL    MW4 4408   2.473   2.343   1.701 -0.8188  0.2055  0.1916
 1103SOL     OW 4409   2.277   2.442   1.860  0.1548 -0.0783  0.4063
 1103SOL    HW2 4410   2.274   2.435   1.956 -0.3219  0.0944  0.4026
 1103SOL    HW3 4411   2.265   2.535   1.842  2.2476  0.1821  0.2556
 1103SOL    MW4 4412   2.275   2.453   1.870  0.3680 -0.0211  0.3859
 1104SOL     OW 4413   3.148   2.886   0.340 -0.0932 -0.1193  0.2605
 1104SOL    HW2 4414   3.078   2.931   0.293  0.0188 -0.3601 -0.1309
 1104SOL    HW3 4415   3.122   2.892   0.432 -0.7151 -0.3613  0.1029
 1104SOL    MW4 4416   3.135   2.893   0.346 -0.1605 -0.1830  0.1881
 1105SOL     OW 4417   2.221   2.669   1.499  0.1264 -0.3766  0.1835
 1105SOL    HW2 4418   2.295   2.725   1.474  0.0207 -0.6305 -0.7449
 1105SOL    HW3 4419   2.237   2.587   1.452 -0.0078 -0.9295  1.1040
 1105SOL    MW4 4420   2.233   2.666   1.489  0.0947 -0.4830  0.1825
 1106SOL     OW 4421   2.521   2.826   1.827 -0.1919  0.1631 -0.0475
 1106SOL    HW2 4422   2.532   2.907   1.777  0.0836 -0.2475 -0.6603
 1106SOL    HW3 4423   2.433   2.796   1.804  0.0255 -0.1535 -0.4896
 1106SOL    MW4 4424   2.511   2.832   1.817 -0.1269  0.0672 -0.1867
 1107SOL     OW 4425   2.267   3.207   1.819  0.1506 -0.6437 -0.4295
 1107SOL    HW2 4426   2.247   3.208   1.913  1.8400  0.0320 -0.0448
 1107SOL    HW3 4427   2.193   3.162   1.779 -0.5609 -1.0153  1.2421
 1107SOL    MW4 4428   2.255   3.201   1.826  0.2797 -0.6036 -0.1582
 1108SOL     OW 4429   2.291   3.489   1.753 -0.4885 -0.0524 -0.1516
 1108SOL    HW2 4430   2.278   3.396   1.771 -1.0462  0.0239 -0.1477
 1108SOL    HW3 4431   2.216   3.533   1.793 -0.7256  0.3085 -0.9592
 1108SOL    MW4 4432   2.279   3.483   1.760 -0.5934  0.0053 -0.2577
 1109SOL     OW 4433   2.505   3.629   1.856  0.2892  0.0461 -0.6583
 1109SOL    HW2 4434   2.495   3.630   1.951  2.1917 -0.5566 -0.4306
 1109SOL    HW3 4435   2.433   3.574   1.824  0.6910 -1.2006  0.5624
 1109SOL    MW4 4436   2.494   3.622   1.864  0.5932 -0.1979 -0.4672
 1110SOL     OW 4437   2.491   3.870   1.707 -0.6602 -0.1508  0.1532
 1110SOL    HW2 4438   2.416   3.915   1.747 -0.3955 -0.4405  0.9878
 1110SOL    HW3 4439   2.499   3.788   1.756 -0.1090 -0.3518 -0.2668
 1110SOL    MW4 4440   2.482   3.865   1.719 -0.5525 -0.2156  0.2079
 1111SOL     OW 4441   2.282   3.980   1.873 -0.4812  0.6502  0.1552
 1111SOL    HW2 4442   2.273   3.978   1.969  0.3182  0.8010  0.2401
 1111SOL    HW3 4443   2.279   4.073   1.851  0.8780  0.7233  0.2034
 1111SOL    MW4 4444   2.280   3.992   1.883 -0.1964  0.6797  0.1728
 1112SOL     OW 4445   2.247   4.242   1.797 -0.4870 -0.1131  0.4078
 1112SOL    HW2 4446   2.314   4.301   1.832  1.2562 -1.5907 -0.3840
 1112SOL    HW3 4447   2.261   4.243   1.702 -2.9423  1.1501  0.0048
 1112SOL    MW4 4448   2.258   4.250   1.789 -0.5809 -0.1414  0.2502
 1113SOL     OW 4449   2.457   4.398   1.849 -0.4075 -0.1701  0.3840
 1113SOL    HW2 4450   2.475   4.413   1.942  0.4147 -1.3849  0.4235
 1113SOL    HW3 4451   2.528   4.343   1.819 -1.1513 -0.5214 -0.7686
 1113SOL    MW4 4452   2.468   4.393   1.858 -0.3971 -0.3767  0.2371
 1114SOL     OW 4453   3.996   0.630   0.993 -0.2432 -0.3313 -0.0808
 1114SOL    HW2 4454   4.072   0.593   1.038  0.0784 -0.0055 -0.3467
 1114SOL    HW3 4455   3.993   0.721   1.022  0.2301 -0.0036 -1.0593
 1114SOL    MW4 4456   4.006   0.637   1.003 -0.1383 -0.2451 -0.2450
 1115SOL     OW 4457   2.718   0.060   1.872  0.4742 -0.2303  0.1237
 1115SOL    HW2 4458   2.727   0.066   1.967  0.7360  0.5619  0.0519
 1115SOL    HW3 4459   2.803   0.026   1.843  0.4747 -0.2557  0.1552
 1115SOL    MW4 4460   2.731   0.056   1.881  0.5088 -0.1291  0.1184
 1116SOL     OW 4461   2.705   0.313   1.764 -0.0959  0.3334 -0.4673
 1116SOL    HW2 4462   2.778   0.356   1.809  0.0704 -0.0393 -0.3759
 1116SOL    HW3 4463   2.713   0.221   1.790  0.2398  0.0478 -1.5755
 1116SOL    MW4 4464   2.716   0.307   1.774 -0.0297  0.2465 -0.6014
 1117SOL     OW 4465   2.901   0.465   1.872  0.0254 -0.3735  0.3270
 1117SOL    HW2 4466   2.984   0.449   1.827  0.2004  0.2318  0.4315
 1117SOL    HW3 4467   2.865   0.543   1.829  0.4965  0.5844  1.6380
 1117SOL    MW4 4468   2.907   0.473   1.860  0.1106 -0.1672  0.5138
 1118SOL     OW 4469   2.903   0.723   1.748 -0.1312 -0.2745  0.1088
 1118SOL    HW2 4470   2.893   0.734   1.654  0.1286 -2.1793 -0.1626
 1118SOL    HW3 4471   2.981   0.774   1.771 -0.2224  0.2247 -0.6993
 1118SOL    MW4 4472   2.912   0.731   1.739 -0.1090 -0.4599 -0.0336
 1119SOL     OW 4473   2.702   0.899   1.835  0.1635 -0.1275 -0.3611
 1119SOL    HW2 4474   2.778   0.846   1.811  0.1224 -0.1545 -0.4318
 1119SOL    HW3 4475   2.626   0.849   1.804  0.2047  0.8633 -2.1842
 1119SOL    MW4 4476   2.702   0.886   1.827  0.1635 -0.0003 -0.6110
 1120SOL     OW 4477   2.748   1.138   1.727  0.2143  0.4330 -0.0652
 1120SOL    HW2 4478   2.722   1.049   1.753 -0.1541  0.4919 -0.2358
 1120SOL    HW3 4479   2.677   1.194   1.757  1.1659  0.8733  1.4236
 1120SOL    MW4 4480   2.735   1.133   1.734  0.2913  0.4989  0.1087
 1121SOL     OW 4481   2.949   1.248   1.881  0.1171 -0.3472  0.2898
 1121SOL    HW2 4482   2.964   1.332   1.839  0.0833 -0.1774  0.6159
 1121SOL    HW3 4483   2.875   1.210   1.833  1.5306 -1.1543 -1.2626
 1121SOL    MW4 4484   2.941   1.254   1.869  0.2992 -0.4313  0.1280
 1122SOL     OW 4485   2.957   1.514   1.738  0.7451  0.3769 -0.0651
 1122SOL    HW2 4486   3.037   1.560   1.763  1.7121 -0.8898 -0.7644
 1122SOL    HW3 4487   2.957   1.515   1.642 -1.0511  2.0045 -0.0742
 1122SOL    MW4 4488   2.968   1.520   1.728  0.6357  0.4245 -0.1586
 1123SOL     OW 4489   2.709   1.637   1.850 -0.3938 -0.2277  0.6844
 1123SOL    HW2 4490   2.788   1.606   1.807 -0.9401 -0.8258  0.1071
 1123SOL    HW3 4491   2.638   1.588   1.808 -1.2518  1.6857 -0.1566
 1123SOL    MW4 4492   2.710   1.627   1.839 -0.5791 -0.0541  0.4973
 1124SOL     OW 4493   2.670   1.935   1.735 -0.6092  0.0832 -0.1291
 1124SOL    HW2 4494   2.737   1.978   1.788 -0.9427  0.6388 -0.1482
 1124SOL    HW3 4495   2.669   1.845   1.766  0.4817 -0.0457 -0.4680
 1124SOL    MW4 4496   2.679   1.929   1.746 -0.5093  0.1395 -0.1763
 1125SOL     OW 4497   2.866   2.054   1.868  0.2445  0.1996  0.2189
 1125SOL    HW2 4498   2.881   2.065   1.962  1.6199  2.3506 -0.2110
 1125SOL    HW3 4499   2.936   1.996   1.839  0.2252  0.0773  0.4222
 1125SOL    MW4 4500   2.877   2.048   1.876  0.4234  0.4673  0.1890
 1126SOL     OW 4501   2.889   2.303   1.730 -0.0487  0.0433 -0.4790
 1126SOL    HW2 4502   2.972   2.347   1.750 -0.5791 -0.1800  2.3797
 1126SOL    HW3 4503   2.895   2.219   1.775 -2.5900  0.7860  1.3083
 1126SOL    MW4 4504   2.901   2.298   1.738 -0.4540  0.1118  0.1340
 1127SOL     OW 4505   2.685   2.422   1.861 -0.6733  0.0435  0.4090
 1127SOL    HW2 4506   2.683   2.516   1.842 -0.3514 -0.1193 -0.4384
 1127SOL    HW3 4507   2.760   2.389   1.811 -2.6891 -1.2159 -1.8564
 1127SOL    MW4 4508   2.695   2.430   1.852 -0.8968 -0.1441 -0.0017
 1128SOL     OW 4509   2.735   2.686   1.766  0.2246 -0.3910  0.4505
 1128SOL    HW2 4510   2.662   2.733   1.807  1.7062  2.0491  0.3472
 1128SOL    HW3 4511   2.707   2.675   1.675 -0.4507 -0.3776  0.6533
 1128SOL    MW4 4512   2.721   2.691   1.759  0.3310 -0.0673  0.4636
 1129SOL     OW 4513   2.941   2.828   1.874 -0.2693 -0.1335 -0.1451
 1129SOL    HW2 4514   2.869   2.792   1.822 -1.5710  1.2602  0.6602
 1129SOL    HW3 4515   2.939   2.922   1.854  1.6030 -0.1466 -0.4449
 1129SOL    MW4 4516   2.931   2.836   1.864 -0.1940  0.0486 -0.0784
 1130SOL     OW 4517   2.949   3.072   1.759  0.6240 -0.1879 -0.1399
 1130SOL    HW2 4518   3.018   3.128   1.794 -0.0421 -0.6526  1.9637
 1130SOL    HW3 4519   2.867   3.112   1.790  0.0115 -0.6126 -1.1696
 1130SOL    MW4 4520   2.947   3.084   1.767  0.4553 -0.3053  0.0018
 1131SOL     OW 4521   2.506   3.082   1.720 -0.0685  0.3206  0.3231
 1131SOL    HW2 4522   2.512   3.094   1.625  0.5398 -0.2962  0.2832
 1131SOL    HW3 4523   2.429   3.133   1.745  0.6355  1.7180 -0.2897
 1131SOL    MW4 4524   2.497   3.091   1.711  0.1046  0.4236  0.2370
 1132SOL     OW 4525   3.112   0.893   1.345 -0.5639  0.0406  0.4717
 1132SOL    HW2 4526   3.105   0.985   1.370 -1.8901  0.1057 -0.0746
 1132SOL    HW3 4527   3.202   0.868   1.368 -0.2047  1.4580  0.6391
 1132SOL    MW4 4528   3.123   0.901   1.351 -0.6915  0.2362  0.4217
 1133SOL     OW 4529   2.960   3.615   1.832 -0.6439 -0.5961 -0.4029
 1133SOL    HW2 4530   2.945   3.627   1.926  0.1783 -2.0667 -0.0753
 1133SOL    HW3 4531   2.882   3.568   1.802 -0.2448 -1.4093 -0.1750
 1133SOL    MW4 4532   2.947   3.610   1.841 -0.4827 -0.8974 -0.3296
 1134SOL     OW 4533   3.208   4.011   1.842  0.0233  0.3282  0.3806
 1134SOL    HW2 4534   3.131   3.965   1.809  0.7111 -0.8944  0.4404
 1134SOL    HW3 4535   3.188   4.029   1.934 -0.6430  1.0065  0.1021
 1134SOL    MW4 4536   3.195   4.008   1.850  0.0261  0.2563  0.3517
 1135SOL     OW 4537   2.688   4.263   1.758 -0.3263 -0.3360  0.9093
 1135SOL    HW2 4538   2.765   4.305   1.797 -1.0146  1.7726  0.0530
 1135SOL    HW3 4539   2.695   4.171   1.784  3.0591 -0.4101 -0.0290
 1135SOL    MW4 4540   2.699   4.256   1.767  0.0295 -0.0676  0.6726
 1136SOL     OW 4541   0.002   0.878   1.380  0.0118  0.5080 -0.3035
 1136SOL    HW2 4542   0.073   0.817   1.399 -1.1677 -1.3135 -1.4831
 1136SOL    HW3 4543  -0.075   0.839   1.422 -0.7356  1.2698 -0.9329
 1136SOL    MW4 4544   0.001   0.865   1.388 -0.2424  0.3682 -0.5422
 1137SOL     OW 4545   2.945   4.641   1.731 -0.6590 -0.1654  0.1263
 1137SOL    HW2 4546   2.946   4.563   1.787  0.5047 -0.8222 -0.7688
 1137SOL    HW3 4547   3.026   4.687   1.754  0.2782 -0.8809 -1.5671
 1137SOL    MW4 4548   2.956   4.637   1.741 -0.3818 -0.3465 -0.2152
 1138SOL     OW 4549   3.379   2.873   1.400  0.5108  0.2334  0.2353
 1138SOL    HW2 4550   3.374   2.956   1.447  0.6063 -0.0178  0.6900
 1138SOL    HW3 4551   3.461   2.834   1.429  1.0080  0.4761 -0.8045
 1138SOL    MW4 4552   3.389   2.879   1.410  0.5890  0.2323  0.1581
 1139SOL     OW 4553   3.166   0.124   1.833  0.3371 -0.5416 -0.0291
 1139SOL    HW2 4554   3.157   0.125   1.928 -1.4737 -1.6615 -0.1609
 1139SOL    HW3 4555   3.248   0.076   1.817 -0.5635 -2.4763  0.9337
 1139SOL    MW4 4556   3.175   0.118   1.843 -0.0206 -0.9446  0.0805
 1140SOL     OW 4557   3.133   0.372   1.676  0.6856  0.1109  0.2471
 1140SOL    HW2 4558   3.142   0.286   1.717  1.2350  0.2688  0.4765
 1140SOL    HW3 4559   3.132   0.354   1.582 -1.3131 -0.3122  0.3456
 1140SOL    MW4 4560   3.134   0.358   1.669  0.4944  0.0759  0.2904
 1141SOL     OW 4561   3.599   0.374   1.716  0.4931 -0.0393 -0.0400
 1141SOL    HW2 4562   3.592   0.281   1.737 -2.5593  0.1217 -0.1180
 1141SOL    HW3 4563   3.597   0.377   1.620 -0.1248  0.1495 -0.0220
 1141SOL    MW4 4564   3.598   0.362   1.706  0.0088  0.0069 -0.0479
 1142SOL     OW 4565   3.127   0.863   1.777  0.5765 -0.3162 -0.0668
 1142SOL    HW2 4566   3.113   0.955   1.756  0.1879 -0.4775 -0.5230
 1142SOL    HW3 4567   3.158   0.863   1.867 -0.2038  0.2078  0.2085
 1142SOL    MW4 4568   3.129   0.875   1.786  0.4223 -0.2683 -0.0907
 1143SOL     OW 4569   3.163   0.883   2.058 -0.2837 -0.5020  0.4421
 1143SOL    HW2 4570   3.229   0.828   2.099 -2.0027 -3.3514 -0.4568
 1143SOL    HW3 4571   3.079   0.842   2.081 -1.5671  1.1866 -1.0329
 1143SOL    MW4 4572   3.160   0.870   2.066 -0.6798 -0.6551  0.1289
 1144SOL     OW 4573   3.162   1.118   1.735  0.2490 -0.0732  0.0554
 1144SOL    HW2 4574   3.097   1.165   1.787  0.7517 -0.9471  1.5086
 1144SOL    HW3 4575   3.246   1.155   1.763  0.5606 -0.9425  0.2674
 1144SOL    MW4 4576   3.165   1.129   1.746  0.3564 -0.3032  0.2751
 1145SOL     OW 4577   3.386   1.252   1.835 -0.6857  0.1023  0.1261
 1145SOL    HW2 4578   3.376   1.259   1.930 -1.4395 -1.4321  0.1762
 1145SOL    HW3 4579   3.405   1.341   1.806 -2.3969  0.9286  1.4876
 1145SOL    MW4 4580   3.387   1.265   1.844 -1.0109  0.0089  0.3123
 1146SOL     OW 4581   3.392   1.528   1.769  0.6188  0.4280  0.0819
 1146SOL    HW2 4582   3.466   1.582   1.798 -0.7847  1.7981  1.1985
 1146SOL    HW3 4583   3.317   1.565   1.815 -0.7211 -1.1212 -0.8428
 1146SOL    MW4 4584   3.392   1.540   1.779  0.2568  0.4044  0.1072
 1147SOL     OW 4585   3.162   1.678   1.815 -0.5348  0.1844  0.0979
 1147SOL    HW2 4586   3.141   1.693   1.907 -2.3112  0.4586 -0.3318
 1147SOL    HW3 4587   3.145   1.763   1.773  1.4614  0.4093 -0.2891
 1147SOL    MW4 4588   3.157   1.691   1.822 -0.5058  0.2502 -0.0099
 1148SOL     OW 4589   3.111   1.945   1.761  0.1666 -0.2714 -0.5200
 1148SOL    HW2 4590   3.188   1.990   1.795  1.9760 -2.0906 -2.0837
 1148SOL    HW3 4591   3.119   1.954   1.666 -2.4788  0.9762 -0.6733
 1148SOL    MW4 4592   3.122   1.952   1.753  0.0563 -0.3468 -0.7465
 1149SOL     OW 4593   3.365   2.068   1.876  0.5291 -0.0252  0.4321
 1149SOL    HW2 4594   3.441   2.029   1.833  0.9731 -0.0566  1.2278
 1149SOL    HW3 4595   3.367   2.160   1.851  1.5697  0.2498  1.4752
 1149SOL    MW4 4596   3.376   2.075   1.867  0.7250  0.0069  0.6747
 1150SOL     OW 4597   3.375   2.337   1.789 -0.1960  0.2427 -0.4127
 1150SOL    HW2 4598   3.291   2.379   1.810 -0.5742  0.7032 -2.6857
 1150SOL    HW3 4599   3.379   2.339   1.693  1.6718 -1.2518 -0.3913
 1150SOL    MW4 4600   3.364   2.343   1.779  0.0005  0.1063 -0.7097
 1151SOL     OW 4601   3.126   2.445   1.841 -0.2207 -0.3741 -0.1244
 1151SOL    HW2 4602   3.139   2.441   1.936 -0.9789 -0.6802 -0.0323
 1151SOL    HW3 4603   3.127   2.539   1.821  1.7512 -0.3564 -0.0809
 1151SOL    MW4 4604   3.128   2.457   1.851 -0.0606 -0.4121 -0.1065
 1152SOL     OW 4605   3.176   2.718   1.811  0.2919 -0.4824 -0.4939
 1152SOL    HW2 4606   3.091   2.759   1.826  0.1620 -0.9113 -0.0331
 1152SOL    HW3 4607   3.180   2.705   1.716  0.5553  1.0585 -0.7030
 1152SOL    MW4 4608   3.165   2.722   1.800  0.3095 -0.3357 -0.4607
 1153SOL     OW 4609   3.414   2.822   1.892 -0.0708  0.8966 -0.5227
 1153SOL    HW2 4610   3.423   2.815   1.987 -0.2555  2.0505 -0.4118
 1153SOL    HW3 4611   3.329   2.780   1.874  0.2679  0.0795 -0.2697
 1153SOL    MW4 4612   3.404   2.815   1.902 -0.0505  0.9410 -0.4747
 1154SOL     OW 4613   3.148   3.249   1.841 -0.1148  0.3138  0.1284
 1154SOL    HW2 4614   3.179   3.336   1.816  0.0720  0.4948  0.9486
 1154SOL    HW3 4615   3.226   3.194   1.842 -0.4400 -0.2266 -1.7946
 1154SOL    MW4 4616   3.162   3.253   1.838 -0.1330  0.2664 -0.0171
 1155SOL     OW 4617   3.195   3.516   1.729 -0.1987 -0.2793  0.9477
 1155SOL    HW2 4618   3.116   3.548   1.774  0.1324 -0.3245  1.5652
 1155SOL    HW3 4619   3.267   3.542   1.786  0.1774 -0.9436  0.7751
 1155SOL    MW4 4620   3.194   3.524   1.743 -0.1054 -0.3729  1.0064
 1156SOL     OW 4621   2.818   0.448   1.064  0.0500 -0.2775  0.0263
 1156SOL    HW2 4622   2.847   0.364   1.028 -1.6174 -1.2133  0.8172
 1156SOL    HW3 4623   2.855   0.451   1.152  0.1004 -0.1788  0.0024
 1156SOL    MW4 4624   2.826   0.437   1.071 -0.1634 -0.3879  0.1275
 1157SOL     OW 4625   3.398   3.585   1.894 -0.9470  0.3356 -0.5665
 1157SOL    HW2 4626   3.468   3.534   1.853 -1.1169 -0.3038 -0.0774
 1157SOL    HW3 4627   3.407   3.673   1.858  0.1208  0.2598 -0.4905
 1157SOL    MW4 4628   3.408   3.590   1.884 -0.8285  0.2412 -0.4919
 1158SOL     OW 4629   3.427   3.853   1.795  0.0061 -0.3306  0.0683
 1158SOL    HW2 4630   3.357   3.906   1.832 -0.4166 -0.5103 -0.4666
 1158SOL    HW3 4631   3.405   3.845   1.702  0.0630 -1.4345  0.1378
 1158SOL    MW4 4632   3.415   3.859   1.788 -0.0422 -0.4999  0.0069
 1159SOL     OW 4633   3.404   3.628   1.404 -0.2829  0.0361 -0.5387
 1159SOL    HW2 4634   3.470   3.562   1.427  0.7935  0.8747 -1.1291
 1159SOL    HW3 4635   3.322   3.594   1.439  0.5255 -0.8779  0.5006
 1159SOL    MW4 4636   3.402   3.615   1.411 -0.0342  0.0261 -0.4795
 1160SOL     OW 4637   2.921   4.380   1.857 -0.0738 -0.1443  0.7109
 1160SOL    HW2 4638   3.005   4.343   1.829 -0.2371 -0.5811  0.7873
 1160SOL    HW3 4639   2.917   4.360   1.950 -0.6472 -0.8742  0.5290
 1160SOL    MW4 4640   2.932   4.372   1.866 -0.1710 -0.2982  0.6970
 1161SOL     OW 4641   3.413   4.382   1.859  0.1309  0.0868 -0.0231
 1161SOL    HW2 4642   3.338   4.333   1.824 -0.4162  0.0971  1.1248
 1161SOL    HW3 4643   3.490   4.332   1.830 -0.3559 -0.4227 -0.4323
 1161SOL    MW4 4644   3.414   4.369   1.851 -0.0055  0.0210  0.0743
 1162SOL     OW 4645   3.364   4.621   1.736  0.6281 -0.8163 -0.1738
 1162SOL    HW2 4646   3.347   4.607   1.642  0.9874 -1.3101 -0.1653
 1162SOL    HW3 4647   3.383   4.534   1.770  0.5509 -0.6274  0.3529
 1162SOL    MW4 4648   3.364   4.608   1.728  0.6653 -0.8565 -0.1032
 1163SOL     OW 4649   3.598   0.118   1.821  0.1093  0.7953 -0.5451
 1163SOL    HW2 4650   3.579   0.104   1.914  3.4940 -1.7601 -0.1014
 1163SOL    HW3 4651   3.545   0.052   1.776  0.5875  0.1296 -0.1513
 1163SOL    MW4 4652   3.589   0.107   1.827  0.6190  0.3703 -0.4346
 1164SOL     OW 4653   4.302   1.254   1.332  0.4571 -0.3335  0.1046
 1164SOL    HW2 4654   4.223   1.222   1.376 -0.0019 -0.5016 -0.8418
 1164SOL    HW3 4655   4.374   1.220   1.386 -0.0810 -1.2126  0.2921
 1164SOL    MW4 4656   4.301   1.245   1.345  0.3255 -0.4716  0.0045
 1165SOL     OW 4657   3.793   0.487   1.878 -0.1633  0.3569 -0.8858
 1165SOL    HW2 4658   3.867   0.447   1.832 -1.0745 -0.7542 -1.3764
 1165SOL    HW3 4659   3.717   0.435   1.853 -1.0329  1.1357  0.0865
 1165SOL    MW4 4660   3.793   0.475   1.869 -0.3982  0.3131 -0.8222
 1166SOL     OW 4661   3.806   0.711   1.730  0.1379  0.0501  0.6199
 1166SOL    HW2 4662   3.728   0.754   1.766 -1.1196 -1.4411 -0.2696
 1166SOL    HW3 4663   3.810   0.627   1.776  1.9303  0.6057  1.5303
 1166SOL    MW4 4664   3.796   0.706   1.741  0.2085 -0.0733  0.6226
 1167SOL     OW 4665   3.622   0.866   1.851 -1.0182 -0.4669 -0.7437
 1167SOL    HW2 4666   3.627   0.958   1.825 -1.4583 -0.5543 -1.1546
 1167SOL    HW3 4667   3.546   0.832   1.803 -0.0765 -1.3700 -1.6340
 1167SOL    MW4 4668   3.613   0.873   1.841 -0.9520 -0.5976 -0.9154
 1168SOL     OW 4669   3.627   1.105   1.719  0.3411 -0.3090  0.1331
 1168SOL    HW2 4670   3.642   1.136   1.630  0.2412 -0.0504  0.2050
 1168SOL    HW3 4671   3.543   1.145   1.744  0.5519 -0.0845  0.4754
 1168SOL    MW4 4672   3.618   1.115   1.711  0.3557 -0.2453  0.1878
 1169SOL     OW 4673   3.827   1.262   1.837 -0.0125 -0.0137 -0.1053
 1169SOL    HW2 4674   3.824   1.259   1.933 -0.6104  2.1011 -0.0365
 1169SOL    HW3 4675   3.752   1.210   1.809 -0.5302  0.3473  0.5972
 1169SOL    MW4 4676   3.817   1.255   1.846 -0.1597  0.3130 -0.0036
 1170SOL     OW 4677   3.818   1.543   1.759  0.0679  0.1117 -0.1947
 1170SOL    HW2 4678   3.902   1.572   1.793  0.3057 -1.3025  0.4635
 1170SOL    HW3 4679   3.811   1.451   1.788 -1.1793 -0.1185 -1.1996
 1170SOL    MW4 4680   3.828   1.534   1.767 -0.0653 -0.1052 -0.2405
 1171SOL     OW 4681   3.589   1.687   1.862  0.2995  0.7322  0.0031
 1171SOL    HW2 4682   3.583   1.773   1.819 -0.5051  0.7687  0.1734
 1171SOL    HW3 4683   3.676   1.654   1.838  0.7328  1.7210  0.1810
 1171SOL    MW4 4684   3.600   1.694   1.853  0.2505  0.8675  0.0491
 1172SOL     OW 4685   3.545   1.927   1.726  0.3243 -0.0557  0.2682
 1172SOL    HW2 4686   3.639   1.942   1.740  0.7015  0.2358 -2.3853
 1172SOL    HW3 4687   3.531   1.947   1.634 -2.0710 -1.5899  0.2613
 1172SOL    MW4 4688   3.556   1.932   1.716  0.0581 -0.2197 -0.0828
 1173SOL     OW 4689   3.824   1.971   1.895  0.3958  0.3308  0.3158
 1173SOL    HW2 4690   3.904   1.939   1.853 -0.3363  0.2803 -1.0814
 1173SOL    HW3 4691   3.817   2.062   1.867 -0.1308  0.2792  0.2706
 1173SOL    MW4 4692   3.833   1.979   1.885  0.2297  0.3173  0.1255
 1174SOL     OW 4693   3.820   2.248   1.770 -0.6435  0.3714  0.2602
 1174SOL    HW2 4694   3.899   2.301   1.780 -0.3681  0.1411 -0.6688
 1174SOL    HW3 4695   3.751   2.299   1.813 -0.3697  1.4459 -0.5766
 1174SOL    MW4 4696   3.822   2.262   1.777 -0.5710  0.4827  0.0272
 1175SOL     OW 4697   3.621   2.408   1.898 -0.0750 -0.0577  0.0139
 1175SOL    HW2 4698   3.540   2.374   1.862  0.1808 -0.0044 -0.6097
 1175SOL    HW3 4699   3.626   2.498   1.865  0.5347 -0.2552 -0.4249
 1175SOL    MW4 4700   3.611   2.415   1.889  0.0392 -0.0767 -0.1263
 1176SOL     OW 4701   3.605   2.663   1.764  0.3028 -0.7606 -0.5181
 1176SOL    HW2 4702   3.543   2.720   1.809 -0.8442 -1.1557 -1.5570
 1176SOL    HW3 4703   3.691   2.697   1.788 -0.2442 -1.4121  2.5128
 1176SOL    MW4 4704   3.609   2.675   1.773  0.0793 -0.8987 -0.2553
 1177SOL     OW 4705   3.820   2.808   1.830  0.0739 -0.2763 -0.1739
 1177SOL    HW2 4706   3.846   2.801   1.922 -0.4696 -0.2591 -0.0184
 1177SOL    HW3 4707   3.829   2.901   1.810 -0.8034 -0.1151  0.1599
 1177SOL    MW4 4708   3.824   2.819   1.840 -0.1135 -0.2528 -0.1094
 1178SOL     OW 4709   3.840   3.059   1.773 -0.1619 -0.0774 -0.5189
 1178SOL    HW2 4710   3.764   3.087   1.823  0.4746 -0.5324  0.7095
 1178SOL    HW3 4711   3.817   3.079   1.682 -0.8182  1.8915  0.0512
 1178SOL    MW4 4712   3.827   3.066   1.767 -0.1645  0.1223 -0.2816
 1179SOL     OW 4713   3.631   3.178   1.893 -0.8339 -0.1073  0.2687
 1179SOL    HW2 4714   3.614   3.182   1.987 -2.4032  0.2198 -0.0146
 1179SOL    HW3 4715   3.625   3.269   1.864  0.6881 -0.0864  0.0261
 1179SOL    MW4 4716   3.628   3.191   1.902 -0.8401 -0.0614  0.1993
 1180SOL     OW 4717   3.620   3.432   1.802 -0.6224  0.3934  0.3118
 1180SOL    HW2 4718   3.617   3.430   1.707 -2.2430 -1.8525  0.3697
 1180SOL    HW3 4719   3.682   3.502   1.823 -0.2094  0.8742 -2.3705
 1180SOL    MW4 4720   3.628   3.441   1.792 -0.7817  0.1605 -0.0345
 1181SOL     OW 4721   3.817   3.619   1.875 -0.1381 -0.6832  0.1433
 1181SOL    HW2 4722   3.889   3.557   1.861 -1.1236 -1.5393 -1.2489
 1181SOL    HW3 4723   3.851   3.703   1.843  0.6272 -0.8292  0.5526
 1181SOL    MW4 4724   3.831   3.622   1.869 -0.1672 -0.8154  0.0136
 1182SOL     OW 4725   0.420   2.083   0.594  0.3721 -0.1405  0.3741
 1182SOL    HW2 4726   0.362   2.026   0.644 -0.8087  0.2288 -0.5645
 1182SOL    HW3 4727   0.442   2.154   0.655  1.1949 -1.1573  1.2717
 1182SOL    MW4 4728   0.415   2.085   0.609  0.3249 -0.2259  0.3687
 1183SOL     OW 4729   3.645   4.020   1.822  0.3560 -0.4070 -0.3322
 1183SOL    HW2 4730   3.650   4.026   1.917 -1.9448  0.5655 -0.2425
 1183SOL    HW3 4731   3.591   3.943   1.806  1.1226 -0.8370 -0.8665
 1183SOL    MW4 4732   3.638   4.011   1.832  0.1536 -0.3354 -0.3909
 1184SOL     OW 4733   3.651   4.283   1.735  0.0996  0.2490 -0.3215
 1184SOL    HW2 4734   3.716   4.342   1.773  0.6857 -0.1407 -0.7049
 1184SOL    HW3 4735   3.667   4.199   1.778  0.1691  0.0336 -0.7647
 1184SOL    MW4 4736   3.662   4.280   1.746  0.1861  0.1692 -0.4306
 1185SOL     OW 4737   3.852   4.449   1.840 -0.4910 -0.7534  0.2427
 1185SOL    HW2 4738   3.849   4.452   1.935  1.1506 -1.4230  0.3249
 1185SOL    HW3 4739   3.934   4.404   1.819 -0.6032 -0.2057 -1.4897
 1185SOL    MW4 4740   3.863   4.443   1.850 -0.2892 -0.7694  0.0250
 1186SOL     OW 4741   4.260   0.002   1.742  0.8519 -0.4561  0.2140
 1186SOL    HW2 4742   4.342   0.035   1.779  0.3061  1.7157 -0.4021
 1186SOL    HW3 4743   4.194   0.062   1.775  0.2504  1.1838 -3.6945
 1186SOL    MW4 4744   4.262   0.014   1.752  0.7005  0.0468 -0.3830
 1187SOL     OW 4745   3.867   0.040   1.748  0.1565  0.6590  0.6075
 1187SOL    HW2 4746   3.796   0.080   1.797 -1.1773 -0.0120 -0.7313
 1187SOL    HW3 4747   3.863  -0.053   1.770  1.0235  0.7141  1.0167
 1187SOL    MW4 4748   3.857   0.033   1.757  0.0949  0.5777  0.4848
 1188SOL     OW 4749   4.011   0.378   1.766  0.0148  0.5293 -0.4683
 1188SOL    HW2 4750   4.005   0.356   1.673  1.8917  0.9499 -0.7026
 1188SOL    HW3 4751   4.044   0.298   1.807 -1.2074  0.2079 -0.0856
 1188SOL    MW4 4752   4.014   0.364   1.759  0.1012  0.5424 -0.4487
 1189SOL     OW 4753   4.252   0.477   1.819  0.3641 -0.0409 -0.3569
 1189SOL    HW2 4754   4.238   0.461   1.912  0.0896  2.6909  0.1057
 1189SOL    HW3 4755   4.170   0.452   1.777  0.0247  0.0191  0.2825
 1189SOL    MW4 4756   4.240   0.471   1.825  0.2831  0.3275 -0.2115
 1190SOL     OW 4757   4.281   0.748   1.762  0.1809  0.4886 -0.3234
 1190SOL    HW2 4758   4.268   0.657   1.789 -1.6803  0.4937 -1.1470
 1190SOL    HW3 4759   4.279   0.746   1.666  1.4753  1.2175 -0.3790
 1190SOL    MW4 4760   4.279   0.736   1.753  0.1061  0.5854 -0.4394
 1191SOL     OW 4761   4.023   0.857   1.832  0.1584 -0.5800  0.0376
 1191SOL    HW2 4762   4.102   0.819   1.793  0.3742  0.5039 -0.6055
 1191SOL    HW3 4763   3.951   0.806   1.795  0.4385 -0.3409 -0.8388
 1191SOL    MW4 4764   4.024   0.845   1.822  0.2239 -0.4054 -0.1629
 1192SOL     OW 4765   4.042   1.129   1.717 -0.5354  0.4384 -0.1560
 1192SOL    HW2 4766   4.036   1.036   1.738  1.7551  0.0392 -1.1367
 1192SOL    HW3 4767   3.963   1.168   1.757 -0.5004 -1.5783  1.9774
 1192SOL    MW4 4768   4.031   1.122   1.725 -0.2285  0.1197 -0.0039
 1193SOL     OW 4769   4.278   1.510   1.738  0.3944  0.3094 -0.0374
 1193SOL    HW2 4770   4.275   1.416   1.756 -0.8174  0.4564  0.5862
 1193SOL    HW3 4771   4.269   1.516   1.643  1.8033 -0.2602 -0.2111
 1193SOL    MW4 4772   4.276   1.498   1.728  0.4204  0.2536  0.0220
 1194SOL     OW 4773   4.282   1.525   1.441 -0.2985 -0.0606  0.1389
 1194SOL    HW2 4774   4.282   1.436   1.405  1.0448 -0.8546  1.9968
 1194SOL    HW3 4775   4.199   1.563   1.412 -0.9201 -1.9509 -0.6311
 1194SOL    MW4 4776   4.271   1.518   1.433 -0.2033 -0.4148  0.2824
 1195SOL     OW 4777   4.063   1.653   1.852 -0.1128  0.0110 -0.2015
 1195SOL    HW2 4778   4.076   1.670   1.945  2.0125 -1.8801 -0.1278
 1195SOL    HW3 4779   4.139   1.602   1.825 -0.9869  0.0022 -2.8568
 1195SOL    MW4 4780   4.074   1.649   1.861  0.0523 -0.2396 -0.5421
 1196SOL     OW 4781   4.079   1.919   1.755  0.6977  0.4411 -0.0476
 1196SOL    HW2 4782   4.082   1.830   1.792 -0.4037 -0.5168 -2.1492
 1196SOL    HW3 4783   4.063   1.905   1.662  1.4528  2.8512 -0.5632
 1196SOL    MW4 4784   4.077   1.905   1.747  0.6520  0.6327 -0.3929
 1197SOL     OW 4785   4.284   2.055   1.907 -0.0071 -0.1237  0.1036
 1197SOL    HW2 4786   4.283   2.065   2.002 -0.0475  0.8420 -0.0035
 1197SOL    HW3 4787   4.200   2.013   1.886 -0.7674  1.3002  0.3047
 1197SOL    MW4 4788   4.273   2.051   1.917 -0.1127  0.1916  0.1160
 1198SOL     OW 4789   4.465   2.446   1.866 -0.2632 -0.1012  0.2874
 1198SOL    HW2 4790   4.469   2.454   1.961  0.0661  0.4778  0.2256
 1198SOL    HW3 4791   4.501   2.528   1.833 -0.2737 -0.3429 -0.3400
 1198SOL    MW4 4792   4.470   2.458   1.874 -0.2211 -0.0567  0.1965
 1199SOL     OW 4793   4.024   2.433   1.822  0.7709  0.1540  0.2863
 1199SOL    HW2 4794   4.025   2.429   1.918  0.5890 -0.1701  0.2755
 1199SOL    HW3 4795   4.103   2.386   1.796  0.9761  0.4994  0.2857
 1199SOL    MW4 4796   4.035   2.427   1.831  0.7740  0.1568  0.2848
 1200SOL     OW 4797   4.071   2.707   1.739 -0.1408  0.1858  0.1649
 1200SOL    HW2 4798   4.055   2.616   1.763  0.9302  0.9246  3.9691
 1200SOL    HW3 4799   3.992   2.754   1.767  0.8199  0.9523  1.6719
 1200SOL    MW4 4800   4.059   2.701   1.746  0.1273  0.3844  0.8656
 1201SOL     OW 4801   0.061   2.682   1.788  0.1271 -0.4313 -0.2931
 1201SOL    HW2 4802  -0.022   2.719   1.819 -0.8061 -0.7315 -2.3542
 1201SOL    HW3 4803   0.055   2.687   1.693  3.1042  0.8917 -0.4709
 1201SOL    MW4 4804   0.049   2.688   1.780  0.3968 -0.2963 -0.5885
 1202SOL     OW 4805   4.301   2.792   1.883 -0.8898 -0.3006 -1.0134
 1202SOL    HW2 4806   4.214   2.769   1.851 -0.7260 -0.8151 -1.0923
 1202SOL    HW3 4807   4.294   2.787   1.978 -0.9380 -0.3602 -1.0207
 1202SOL    MW4 4808   4.288   2.788   1.891 -0.8746 -0.3764 -1.0247
 1203SOL     OW 4809   4.060   3.201   1.875 -0.0599  0.3777  0.0876
 1203SOL    HW2 4810   4.048   3.220   1.968  1.5721  0.5872  0.2662
 1203SOL    HW3 4811   3.983   3.149   1.851 -0.9406  1.0837  1.3252
 1203SOL    MW4 4812   4.048   3.197   1.884  0.0392  0.4985  0.2745
 1204SOL     OW 4813   4.067   3.469   1.776 -0.2685  0.4026 -0.0514
 1204SOL    HW2 4814   4.071   3.381   1.813 -0.8953  0.2899 -0.2356
 1204SOL    HW3 4815   4.136   3.518   1.820 -0.5491  0.0810  0.7452
 1204SOL    MW4 4816   4.076   3.464   1.786 -0.3882  0.3453  0.0294
 1205SOL     OW 4817   4.242   3.649   1.373 -0.1142 -0.0815  0.5625
 1205SOL    HW2 4818   4.237   3.659   1.278 -0.3280 -0.8057  0.4945
 1205SOL    HW3 4819   4.166   3.595   1.396  0.9955 -1.5226  0.9142
 1205SOL    MW4 4820   4.231   3.644   1.364  0.0040 -0.3672  0.5999
 1206SOL     OW 4821   4.473   3.959   1.852 -0.0631 -0.0606  0.6929
 1206SOL    HW2 4822   4.398   3.900   1.842 -0.7706  0.9187  0.1336
 1206SOL    HW3 4823   4.454   4.033   1.794  1.7532 -0.2031 -0.1146
 1206SOL    MW4 4824   4.460   3.961   1.843  0.0832  0.0498  0.5125
 1207SOL     OW 4825   0.230   0.495   1.099 -0.0235 -0.2580 -0.0244
 1207SOL    HW2 4826   0.141   0.522   1.077 -0.4102 -0.9694  0.6330
 1207SOL    HW3 4827   0.286   0.558   1.054 -0.8240 -0.7018 -1.6618
 1207SOL    MW4 4828   0.226   0.507   1.090 -0.1802 -0.4104 -0.1537
 1208SOL     OW 4829   3.863   3.879   1.759  0.1226  0.3410 -0.2212
 1208SOL    HW2 4830   3.844   3.847   1.671  0.4124  2.4254 -1.0634
 1208SOL    HW3 4831   3.786   3.930   1.783  1.2825  2.2388 -0.4719
 1208SOL    MW4 4832   3.851   3.881   1.751  0.3139  0.8664 -0.3654
 1209SOL     OW 4833   4.270   4.394   1.796 -0.8031 -0.0934 -0.4322
 1209SOL    HW2 4834   4.279   4.413   1.889 -0.7995  0.5623 -0.5607
 1209SOL    HW3 4835   4.262   4.480   1.755 -0.2411 -0.3571 -1.0995
 1209SOL    MW4 4836   4.270   4.408   1.803 -0.7285 -0.0417 -0.5372
 1210SOL     OW 4837   0.246   4.624   2.211 -0.4375  0.2683 -0.3359
 1210SOL    HW2 4838   0.259   4.622   2.306  0.5699  0.3059 -0.4695
 1210SOL    HW3 4839   0.331   4.651   2.176 -0.3085 -1.4274 -1.3539
 1210SOL    MW4 4840   0.259   4.627   2.219 -0.2875  0.0496 -0.4879
 1211SOL     OW 4841   0.002   0.081   2.126 -0.0820 -0.3977 -0.1452
 1211SOL    HW2 4842   0.087   0.039   2.143  0.7750  1.7232  0.9991
 1211SOL    HW3 4843  -0.001   0.090   2.031  1.1008 -0.2688 -0.1819
 1211SOL    MW4 4844   0.013   0.077   2.116  0.1872 -0.1009  0.0009
 1212SOL     OW 4845   4.465   0.333   2.215  0.7952 -0.4186 -0.3199
 1212SOL    HW2 4846   4.533   0.387   2.173  1.7896  0.4789  2.3241
 1212SOL    HW3 4847   4.478   0.246   2.178  1.4613  0.3806 -2.0483
 1212SOL    MW4 4848   4.476   0.329   2.204  1.0143 -0.1947 -0.1991
 1213SOL     OW 4849   0.207   0.491   2.139 -0.3966 -0.3906 -0.3538
 1213SOL    HW2 4850   0.289   0.444   2.156 -0.7243 -0.9794 -0.3881
 1213SOL    HW3 4851   0.202   0.496   2.043 -0.3397 -0.2369 -0.3500
 1213SOL    MW4 4852   0.217   0.486   2.128 -0.4323 -0.4480 -0.3579
 1214SOL     OW 4853   0.175   0.757   2.241 -0.1708 -0.0231 -0.0457
 1214SOL    HW2 4854   0.193   0.754   2.335 -0.3223 -0.6893 -0.0344
 1214SOL    HW3 4855   0.175   0.666   2.213  0.6909  0.2188 -0.8589
 1214SOL    MW4 4856   0.177   0.745   2.249 -0.0771 -0.0791 -0.1515
 1215SOL     OW 4857   4.473   0.916   2.140 -0.0241 -0.2662 -0.0409
 1215SOL    HW2 4858   4.543   0.866   2.183 -0.0728 -0.6153 -0.3666
 1215SOL    HW3 4859   4.474   0.886   2.049 -0.9032 -0.6114  0.0594
 1215SOL    MW4 4860   4.483   0.905   2.134 -0.1465 -0.3578 -0.0706
 1216SOL     OW 4861   4.480   1.181   2.237  0.2470 -0.8087 -0.2292
 1216SOL    HW2 4862   4.460   1.171   2.330 -1.3041  0.6736 -0.3888
 1216SOL    HW3 4863   4.475   1.092   2.202  1.2751 -1.4318  1.1776
 1216SOL    MW4 4864   4.477   1.168   2.244  0.1780 -0.6954 -0.0647
 1217SOL     OW 4865   0.261   1.221   2.156 -0.5669  0.3516  0.5110
 1217SOL    HW2 4866   0.171   1.215   2.188 -0.5502 -3.1088  0.1085
 1217SOL    HW3 4867   0.252   1.229   2.061 -0.4813  0.3605  0.5037
 1217SOL    MW4 4868   0.248   1.221   2.148 -0.5534 -0.1038  0.4569
 1218SOL     OW 4869   4.473   1.621   2.114 -0.1084 -0.0599 -0.1603
 1218SOL    HW2 4870   4.492   1.707   2.150 -2.1654  0.4079 -0.1406
 1218SOL    HW3 4871   4.539   1.563   2.152  0.4016  1.2391  0.9439
 1218SOL    MW4 4872   4.484   1.624   2.123 -0.3125  0.1732 -0.0120
 1219SOL     OW 4873   0.201   1.487   2.246 -0.4426  0.5376  0.0877
 1219SOL    HW2 4874   0.182   1.473   2.338 -0.4313  0.2646  0.0510
 1219SOL    HW3 4875   0.229   1.401   2.214  0.2891  0.8066  0.0018
 1219SOL    MW4 4876   0.202   1.474   2.254 -0.3446  0.5371  0.0715
 1220SOL     OW 4877   0.019   1.894   2.221 -0.0007 -0.4181  0.2009
 1220SOL    HW2 4878  -0.058   1.950   2.220  0.0148 -0.3347  1.7595
 1220SOL    HW3 4879   0.091   1.952   2.194 -0.3495 -0.2915 -0.4676
 1220SOL    MW4 4880   0.018   1.909   2.217 -0.0447 -0.3904  0.3184
 1221SOL     OW 4881   0.251   2.086   2.137  0.0431  0.0127 -0.1876
 1221SOL    HW2 4882   0.328   2.030   2.149  1.2303  1.3896 -1.2162
 1221SOL    HW3 4883   0.224   2.071   2.046 -0.0036  0.6717 -0.2819
 1221SOL    MW4 4884   0.257   2.076   2.126  0.1936  0.2813 -0.3358
 1222SOL     OW 4885   0.222   2.338   2.241  0.3715  0.2938 -0.0489
 1222SOL    HW2 4886   0.208   2.315   2.333  0.5576 -0.1345 -0.1282
 1222SOL    HW3 4887   0.241   2.255   2.198  0.5403  0.5296 -0.4286
 1222SOL    MW4 4888   0.222   2.324   2.248  0.4183  0.2684 -0.1095
 1223SOL     OW 4889   4.473   2.460   2.155 -0.6814 -0.0430 -0.4624
 1223SOL    HW2 4890   4.472   2.543   2.202 -0.9286 -0.1519 -0.2784
 1223SOL    HW3 4891   4.555   2.419   2.181 -0.5655  0.1341 -0.5412
 1223SOL    MW4 4892   4.484   2.466   2.164 -0.6987 -0.0340 -0.4485
 1224SOL     OW 4893   4.480   2.715   2.270  0.3111 -0.0275  0.3387
 1224SOL    HW2 4894   4.503   2.711   2.363  3.0696  0.5922 -0.2827
 1224SOL    HW3 4895   4.561   2.738   2.226 -1.5788  2.5154 -1.9776
 1224SOL    MW4 4896   4.493   2.717   2.277  0.4257  0.3898 -0.0489
 1225SOL     OW 4897   0.190   2.867   2.176 -0.1659  0.1581  0.1954
 1225SOL    HW2 4898   0.270   2.830   2.214 -0.0312 -1.1637 -1.3028
 1225SOL    HW3 4899   0.208   2.871   2.082 -1.9080 -0.3253 -0.1799
 1225SOL    MW4 4900   0.203   2.863   2.168 -0.3780 -0.0800 -0.0518
 1226SOL     OW 4901   0.186   3.120   2.277 -0.7087  0.1249 -0.0368
 1226SOL    HW2 4902   0.105   3.154   2.237 -0.7907 -0.4196 -0.3321
 1226SOL    HW3 4903   0.193   3.031   2.244  1.7704  1.2025 -2.6614
 1226SOL    MW4 4904   0.176   3.113   2.267 -0.3924  0.1953 -0.4221
 1227SOL     OW 4905   4.427   3.202   2.146 -0.1116 -0.8867  0.2271
 1227SOL    HW2 4906   4.436   3.289   2.186  1.6542 -1.5212  1.2743
 1227SOL    HW3 4907   4.429   3.219   2.052  1.8446  0.0867  0.4051
 1227SOL    MW4 4908   4.428   3.216   2.139  0.3794 -0.8420  0.3887
 1228SOL     OW 4909   4.489   3.453   2.264 -0.1987  0.4769 -0.2726
 1228SOL    HW2 4910   4.494   3.446   2.359  1.0153  0.3510 -0.3314
 1228SOL    HW3 4911   4.408   3.501   2.247 -0.0640  1.1249  0.8587
 1228SOL    MW4 4912   4.479   3.459   2.274 -0.0208  0.5457 -0.1311
 1229SOL     OW 4913   0.219   3.615   2.141  0.2004  0.2795 -0.0649
 1229SOL    HW2 4914   0.304   3.581   2.168  0.0852  0.5002  0.5647
 1229SOL    HW3 4915   0.156   3.567   2.193 -0.1372 -0.6621 -1.3011
 1229SOL    MW4 4916   0.222   3.604   2.151  0.1406  0.1844 -0.1449
 1230SOL     OW 4917   0.219   3.856   2.248  0.4804 -0.2845 -0.0518
 1230SOL    HW2 4918   0.156   3.915   2.206  0.0994 -0.4714  0.2584
 1230SOL    HW3 4919   0.202   3.771   2.209  0.6330 -0.3079 -0.0670
 1230SOL    MW4 4920   0.208   3.853   2.237  0.4502 -0.3122 -0.0128
 1231SOL     OW 4921   4.482   4.000   2.150  0.1860  0.0098  0.0037
 1231SOL    HW2 4922   4.468   4.089   2.183  0.1139 -0.6499  1.7800
 1231SOL    HW3 4923   4.468   4.008   2.055  0.4701  1.9456  0.0951
 1231SOL    MW4 4924   4.478   4.013   2.142  0.2139  0.1781  0.2501
 1232SOL     OW 4925   4.457   4.291   2.216 -0.1512  0.4943 -0.2670
 1232SOL    HW2 4926   4.456   4.312   2.309 -1.7155  1.6775 -0.5234
 1232SOL    HW3 4927   4.546   4.311   2.188  0.5169 -0.5335  1.1120
 1232SOL    MW4 4928   4.468   4.297   2.225 -0.2694  0.5148 -0.1189
 1233SOL     OW 4929   0.203   4.364   2.108 -0.0679 -0.4112  0.0741
 1233SOL    HW2 4930   0.267   4.307   2.151 -0.7054 -0.7701  0.5549
 1233SOL    HW3 4931   0.220   4.451   2.144  0.9519 -0.2741 -0.7089
 1233SOL    MW4 4932   0.213   4.368   2.118 -0.0175 -0.4405  0.0342
 1234SOL     OW 4933   0.706   4.647   2.204 -0.2129  0.2954 -0.3183
 1234SOL    HW2 4934   0.692   4.652   2.299 -0.7127 -0.2255 -0.3647
 1234SOL    HW3 4935   0.793   4.685   2.191  0.3005 -0.6070  0.4716
 1234SOL    MW4 4936   0.716   4.653   2.215 -0.2111  0.1076 -0.2202
 1235SOL     OW 4937   0.467   0.089   2.118 -0.0975 -0.2638 -0.3218
 1235SOL    HW2 4938   0.558   0.065   2.133 -0.5738 -1.9603 -0.0826
 1235SOL    HW3 4939   0.460   0.101   2.023  0.0375 -1.5808 -0.5050
 1235SOL    MW4 4940   0.478   0.088   2.107 -0.1425 -0.6614 -0.3144
 1236SOL     OW 4941   0.426   0.349   2.195 -0.2134  0.1282  0.2318
 1236SOL    HW2 4942   0.444   0.351   2.288  2.2338  0.9205 -0.2222
 1236SOL    HW3 4943   0.431   0.256   2.171  0.0918  0.0189  0.7218
 1236SOL    MW4 4944   0.429   0.337   2.204  0.1498  0.2183  0.2365
 1237SOL     OW 4945   0.683   0.458   2.110  0.1079  0.2236  0.0350
 1237SOL    HW2 4946   0.677   0.548   2.142 -2.7347  0.4417 -0.9237
 1237SOL    HW3 4947   0.593   0.425   2.114  0.7385 -1.8572 -1.6350
 1237SOL    MW4 4948   0.670   0.466   2.115 -0.1839 -0.0222 -0.3119
 1238SOL     OW 4949   0.669   0.727   2.207 -0.1475  0.5028 -0.1517
 1238SOL    HW2 4950   0.672   0.742   2.302 -0.2233  2.5901 -0.4726
 1238SOL    HW3 4951   0.586   0.766   2.179  1.0619  2.1976 -1.4616
 1238SOL    MW4 4952   0.658   0.734   2.216  0.0020  1.0018 -0.3668
 1239SOL     OW 4953   0.431   0.849   2.156  0.0183  0.2862  0.0917
 1239SOL    HW2 4954   0.344   0.839   2.194 -0.1431  0.5658 -0.1990
 1239SOL    HW3 4955   0.416   0.857   2.062  0.4348 -0.5992 -0.0508
 1239SOL    MW4 4956   0.417   0.849   2.148  0.0520  0.2062  0.0345
 1240SOL     OW 4957   0.479   1.114   2.274 -0.3578  0.3131  0.2420
 1240SOL    HW2 4958   0.466   1.025   2.240 -1.3428 -0.0073  1.4367
 1240SOL    HW3 4959   0.405   1.164   2.238 -0.0437  0.5582 -0.0725
 1240SOL    MW4 4960   0.468   1.109   2.265 -0.4463  0.3032  0.3581
 1241SOL     OW 4961   0.669   1.282   2.133 -0.3698 -0.3531 -0.2588
 1241SOL    HW2 4962   0.648   1.365   2.174 -0.1386  0.6822 -2.1892
 1241SOL    HW3 4963   0.599   1.223   2.160 -0.6354  0.5043  0.9581
 1241SOL    MW4 4964   0.657   1.285   2.142 -0.3744 -0.1034 -0.3529
 1242SOL     OW 4965   0.396   1.653   2.135  0.2225 -0.3906 -0.2108
 1242SOL    HW2 4966   0.321   1.595   2.151  0.0813 -0.4193 -0.9573
 1242SOL    HW3 4967   0.472   1.601   2.162 -0.0291 -0.3470  0.5881
 1242SOL    MW4 4968   0.396   1.638   2.141  0.1706 -0.3887 -0.2039
 1243SOL     OW 4969   0.434   1.697   1.851  0.4909  0.3472 -0.3374
 1243SOL    HW2 4970   0.511   1.648   1.824  1.3274  2.2310 -1.4130
 1243SOL    HW3 4971   0.427   1.680   1.945  2.1281  0.0648 -0.2578
 1243SOL    MW4 4972   0.443   1.688   1.860  0.8173  0.5585 -0.4688
 1244SOL     OW 4973   0.420   1.898   2.270 -0.1889  0.3299 -0.8526
 1244SOL    HW2 4974   0.499   1.942   2.237  2.0229 -1.7606  1.4065
 1244SOL    HW3 4975   0.422   1.811   2.229 -1.4882  0.3742 -1.0227
 1244SOL    MW4 4976   0.431   1.892   2.260 -0.0685  0.0600 -0.5770
 1245SOL     OW 4977   0.624   2.039   2.131 -0.2941 -0.8018 -0.3805
 1245SOL    HW2 4978   0.704   1.993   2.156  0.1674 -0.1237 -0.5888
 1245SOL    HW3 4979   0.636   2.127   2.165 -1.3871 -0.9640  0.4372
 1245SOL    MW4 4980   0.636   2.044   2.139 -0.3774 -0.7337 -0.3001
 1246SOL     OW 4981   0.653   2.294   2.206  0.5913  0.4494 -0.1196
 1246SOL    HW2 4982   0.643   2.291   2.301 -0.0128  0.1378 -0.1890
 1246SOL    HW3 4983   0.739   2.335   2.192  0.7218  0.4148  0.5571
 1246SOL    MW4 4984   0.663   2.299   2.217  0.5288  0.4037 -0.0395
 1247SOL     OW 4985   0.444   2.475   2.127  0.0755 -0.2231 -0.0713
 1247SOL    HW2 4986   0.520   2.421   2.150 -0.1174 -0.7747 -0.7090
 1247SOL    HW3 4987   0.370   2.429   2.166  0.2180  1.1073  1.8406
 1247SOL    MW4 4988   0.444   2.462   2.135  0.0689 -0.1204  0.0968
 1248SOL     OW 4989   0.437   2.738   2.252 -0.1708  0.2950  0.4349
 1248SOL    HW2 4990   0.437   2.713   2.344  0.6135 -1.0228  0.0859
 1248SOL    HW3 4991   0.441   2.655   2.204  0.3693  1.0008 -0.7769
 1248SOL    MW4 4992   0.437   2.723   2.258  0.0040  0.2143  0.2290
 1249SOL     OW 4993   0.673   2.848   2.163  0.5676  0.3108  0.1745
 1249SOL    HW2 4994   0.596   2.810   2.205  0.6249  2.2889  2.1620
 1249SOL    HW3 4995   0.745   2.790   2.188 -0.0919 -0.9674 -0.8407
 1249SOL    MW4 4996   0.672   2.835   2.172  0.4881  0.4031  0.3028
 1250SOL     OW 4997   0.700   3.116   2.266  0.1183 -0.4554  0.2741
 1250SOL    HW2 4998   0.611   3.146   2.247 -0.3977 -0.8415  1.9864
 1250SOL    HW3 4999   0.699   3.022   2.245 -0.1377 -0.6474  1.1273
 1250SOL    MW4 5000   0.688   3.107   2.260  0.0164 -0.5317  0.6125
 1251SOL     OW 5001   0.442   3.190   2.186  0.3191  0.0769  0.4900
 1251SOL    HW2 5002   0.356   3.157   2.210  1.0754 -2.6205 -0.2244
 1251SOL    HW3 5003   0.444   3.181   2.090  0.3391  2.8762  0.2062
 1251SOL    MW4 5004   0.431   3.184   2.176  0.4215  0.0904  0.3583
 1252SOL     OW 5005   0.438   3.471   2.256 -0.2075 -0.1405 -0.0648
 1252SOL    HW2 5006   0.509   3.510   2.205 -1.5537  1.2448 -0.9222
 1252SOL    HW3 5007   0.435   3.380   2.227 -0.1597  0.3260 -1.5921
 1252SOL    MW4 5008   0.447   3.465   2.245 -0.3788  0.1038 -0.3794
 1253SOL     OW 5009   0.652   3.577   2.111  0.1340  0.3666 -0.4846
 1253SOL    HW2 5010   0.654   3.670   2.131  0.7987  0.5570 -1.3964
 1253SOL    HW3 5011   0.642   3.573   2.016 -1.3223 -0.5027 -0.3038
 1253SOL    MW4 5012   0.651   3.589   2.101  0.0295  0.2770 -0.5811
 1254SOL     OW 5013   0.691   3.841   2.249  0.2419  0.1417 -0.4951
 1254SOL    HW2 5014   0.695   3.862   2.342 -1.2510 -1.5361 -0.0096
 1254SOL    HW3 5015   0.610   3.881   2.219 -0.1949 -0.8231 -0.6404
 1254SOL    MW4 5016   0.681   3.849   2.257 -0.0127 -0.2069 -0.4502
 1255SOL     OW 5017   0.470   3.971   2.171 -0.2016 -0.2055  0.6343
 1255SOL    HW2 5018   0.391   3.924   2.197 -0.6360  0.2403  0.1167
 1255SOL    HW3 5019   0.453   4.001   2.082  0.7684 -0.5757  0.3107
 1255SOL    MW4 5020   0.457   3.969   2.163 -0.1309 -0.1955  0.5233
 1256SOL     OW 5021   0.403   4.246   2.245 -0.6293 -0.3258  0.3679
 1256SOL    HW2 5022   0.487   4.291   2.235 -0.8404 -0.1780 -0.6950
 1256SOL    HW3 5023   0.424   4.153   2.233 -0.5225 -0.3516  0.7203
 1256SOL    MW4 5024   0.417   4.239   2.242 -0.6431 -0.3097  0.2741
 1257SOL     OW 5025   0.635   4.381   2.160  0.1705  0.2236  1.0920
 1257SOL    HW2 5026   0.666   4.468   2.184 -1.3328  0.9155  0.5507
 1257SOL    HW3 5027   0.633   4.383   2.064  0.3523 -0.4892  1.0735
 1257SOL    MW4 5028   0.639   4.393   2.150 -0.0038  0.2208  1.0181
 1258SOL     OW 5029   1.142   4.627   2.239 -0.4130  0.0913  0.7859
 1258SOL    HW2 5030   1.134   4.623   2.335 -1.2829  1.1753  0.7802
 1258SOL    HW3 5031   1.068   4.682   2.212  0.1448  0.2397 -0.4648
 1258SOL    MW4 5032   1.131   4.634   2.248 -0.4542  0.2539  0.6202
 1259SOL     OW 5033   0.939   0.106   2.150  0.0176 -0.1165 -0.4589
 1259SOL    HW2 5034   0.927   0.193   2.189  1.5224  0.0007 -0.2400
 1259SOL    HW3 5035   0.950   0.124   2.056  2.4075  0.1171 -0.1476
 1259SOL    MW4 5036   0.939   0.120   2.143  0.5315 -0.0702 -0.3890
 1260SOL     OW 5037   0.898   0.371   2.240 -0.1980 -0.0487  0.3281
 1260SOL    HW2 5038   0.959   0.438   2.207 -2.4681  1.2751 -1.3292
 1260SOL    HW3 5039   0.813   0.398   2.206 -1.7412 -1.8386  2.6424
 1260SOL    MW4 5040   0.895   0.384   2.231 -0.7011 -0.1102  0.4148
 1261SOL     OW 5041   1.134   0.516   2.151  0.2505 -0.2457 -0.2276
 1261SOL    HW2 5042   1.195   0.448   2.181 -0.0353 -1.0658 -1.4720
 1261SOL    HW3 5043   1.151   0.525   2.058  0.5199  1.6780 -0.0119
 1261SOL    MW4 5044   1.144   0.508   2.143  0.2484 -0.1001 -0.3633
 1262SOL     OW 5045   1.108   0.777   2.230  0.2327 -0.2242  0.0287
 1262SOL    HW2 5046   1.022   0.800   2.195 -0.1262 -1.0885  0.3429
 1262SOL    HW3 5047   1.119   0.685   2.210  0.9939 -0.1713  0.1859
 1262SOL    MW4 5048   1.098   0.768   2.223  0.2858 -0.3312  0.0909
 1263SOL     OW 5049   0.869   0.885   2.114  0.2580 -0.5339 -0.5563
 1263SOL    HW2 5050   0.845   0.964   2.162 -0.2321 -1.2589  0.3942
 1263SOL    HW3 5051   0.812   0.817   2.149  1.8920 -1.6999 -0.1235
 1263SOL    MW4 5052   0.858   0.887   2.125  0.4089 -0.7834 -0.3738
 1264SOL     OW 5053   0.901   1.151   2.219  0.1182 -0.4156 -0.5820
 1264SOL    HW2 5054   0.822   1.196   2.188  0.6914  0.0169 -1.4223
 1264SOL    HW3 5055   0.973   1.210   2.197  0.6594 -0.7044  0.3872
 1264SOL    MW4 5056   0.900   1.165   2.212  0.2652 -0.3966 -0.5650
 1265SOL     OW 5057   1.133   1.578   2.202  0.3998  0.5530 -0.0270
 1265SOL    HW2 5058   1.141   1.484   2.183  0.8523  0.6548 -0.3310
 1265SOL    HW3 5059   1.041   1.597   2.186  0.5282  0.3848 -0.9680
 1265SOL    MW4 5060   1.122   1.568   2.198  0.4764  0.5442 -0.1913
 1266SOL     OW 5061   0.857   1.671   2.154  0.2210 -0.0623 -0.5712
 1266SOL    HW2 5062   0.845   1.763   2.177  0.2009 -0.0281 -0.7182
 1266SOL    HW3 5063   0.876   1.672   2.060 -0.5281 -0.2635 -0.7245
 1266SOL    MW4 5064   0.858   1.684   2.144  0.1195 -0.0843 -0.6108
 1267SOL     OW 5065   0.619   1.527   2.248  0.6763  0.1667 -0.0363
 1267SOL    HW2 5066   0.617   1.542   2.342  1.2781 -2.0683  0.3526
 1267SOL    HW3 5067   0.686   1.587   2.215  0.1174  1.3037  0.8698
 1267SOL    MW4 5068   0.628   1.537   2.256  0.6820  0.0218  0.1346
 1268SOL     OW 5069   0.854   1.935   2.258  0.3848 -0.2960  0.2384
 1268SOL    HW2 5070   0.879   1.912   2.348  2.3870 -0.3208 -0.2927
 1268SOL    HW3 5071   0.935   1.967   2.219 -0.6282  0.3622 -1.3679
 1268SOL    MW4 5072   0.868   1.936   2.265  0.5153 -0.2124 -0.0436
 1269SOL     OW 5073   1.069   2.050   2.146  0.0368 -0.0789  0.1514
 1269SOL    HW2 5074   1.156   2.018   2.170  0.3357  1.1164  0.6622
 1269SOL    HW3 5075   1.067   2.045   2.051  1.0051  0.7784  0.0803
 1269SOL    MW4 5076   1.080   2.045   2.137  0.2040  0.1919  0.2094
 1270SOL     OW 5077   1.122   2.303   2.293  0.4520  0.0011  0.4464
 1270SOL    HW2 5078   1.199   2.339   2.249  0.1630  0.7355  0.5337
 1270SOL    HW3 5079   1.109   2.218   2.253 -0.4752  1.1232 -1.7007
 1270SOL    MW4 5080   1.131   2.297   2.282  0.2915  0.2461  0.1746
 1271SOL     OW 5081   0.910   2.418   2.171  0.2038 -0.0662  0.3575
 1271SOL    HW2 5082   0.978   2.359   2.202  0.3743  0.1780  0.4495
 1271SOL    HW3 5083   0.925   2.424   2.076  0.3034 -0.0226  0.3760
 1271SOL    MW4 5084   0.921   2.411   2.162  0.2394 -0.0283  0.3721
 1272SOL     OW 5085   0.866   2.662   2.291 -0.3585 -0.1831  0.1689
 1272SOL    HW2 5086   0.874   2.655   2.386  1.4645 -0.6769  0.0015
 1272SOL    HW3 5087   0.848   2.573   2.262  0.3706 -0.2679 -0.0424
 1272SOL    MW4 5088   0.865   2.649   2.300 -0.0217 -0.2594  0.1190
 1273SOL     OW 5089   1.112   2.794   2.161 -0.5318  0.2847  0.3509
 1273SOL    HW2 5090   1.188   2.761   2.208  0.0686 -0.1957 -0.9417
 1273SOL    HW3 5091   1.037   2.755   2.207 -0.0125  0.6627  1.5460
 1273SOL    MW4 5092   1.112   2.785   2.174 -0.3841  0.2712  0.3380
 1274SOL     OW 5093   1.145   3.078   2.248  0.4192 -0.0149 -0.1128
 1274SOL    HW2 5094   1.070   3.112   2.198  0.1883 -1.0175 -0.4642
 1274SOL    HW3 5095   1.159   2.990   2.213  1.3654 -0.0700  0.3939
 1274SOL    MW4 5096   1.137   3.071   2.237  0.5136 -0.1544 -0.0923
 1275SOL     OW 5097   0.918   3.241   2.132 -0.4341  0.1281 -0.1911
 1275SOL    HW2 5098   0.926   3.320   2.185  0.4126 -0.2749  0.2851
 1275SOL    HW3 5099   0.834   3.203   2.158 -0.7881  0.8048 -0.3381
 1275SOL    MW4 5100   0.908   3.246   2.142 -0.3691  0.1642 -0.1477
 1276SOL     OW 5101   0.894   3.488   2.247 -0.3971  0.1333 -0.6734
 1276SOL    HW2 5102   0.880   3.474   2.341  1.1858 -1.0022 -0.5948
 1276SOL    HW3 5103   0.806   3.505   2.213 -1.1862 -0.8849  0.7727
 1276SOL    MW4 5104   0.880   3.488   2.255 -0.2924 -0.1509 -0.4723
 1277SOL     OW 5105   1.093   3.672   2.124  0.2237  0.1357  0.1225
 1277SOL    HW2 5106   1.170   3.643   2.174  0.1492 -0.6384 -0.2007
 1277SOL    HW3 5107   1.019   3.627   2.166  0.1916 -0.7253 -0.8303
 1277SOL    MW4 5108   1.094   3.662   2.136  0.2096 -0.0800 -0.0458
 1278SOL     OW 5109   1.116   3.897   2.254  0.1925 -0.2976  0.0313
 1278SOL    HW2 5110   1.190   3.931   2.205 -1.1697  1.2647 -0.9883
 1278SOL    HW3 5111   1.100   3.810   2.217  0.9205 -0.2511 -0.3866
 1278SOL    MW4 5112   1.124   3.890   2.243  0.1088 -0.0854 -0.1584
 1279SOL     OW 5113   0.880   4.008   2.125  0.6917 -0.0533 -0.4000
 1279SOL    HW2 5114   0.960   3.981   2.170  0.0331 -0.4569  0.5533
 1279SOL    HW3 5115   0.811   3.960   2.169 -0.3798  2.2412  0.5194
 1279SOL    MW4 5116   0.882   3.998   2.137  0.4634  0.1962 -0.1529
 1280SOL     OW 5117   0.867   4.274   2.255  0.3444 -0.0146 -0.2898
 1280SOL    HW2 5118   0.877   4.195   2.202  1.8502 -0.6533  0.9454
 1280SOL    HW3 5119   0.778   4.304   2.235 -0.3356 -2.1479 -0.5797
 1280SOL    MW4 5120   0.856   4.268   2.245  0.4533 -0.3803 -0.1651
 1281SOL     OW 5121   1.101   4.360   2.147  0.6585 -0.0332 -0.0087
 1281SOL    HW2 5122   1.026   4.329   2.197  0.4284 -0.6344 -0.7251
 1281SOL    HW3 5123   1.113   4.451   2.175  0.1647 -0.1828  0.6936
 1281SOL    MW4 5124   1.093   4.368   2.157  0.5630 -0.1322 -0.0106
 1282SOL     OW 5125   1.573   4.652   2.255  0.1638 -0.1603  0.0345
 1282SOL    HW2 5126   1.647   4.698   2.215  1.3327 -0.9049  1.2723
 1282SOL    HW3 5127   1.497   4.681   2.205  1.2114  1.0753 -0.8958
 1282SOL    MW4 5128   1.573   4.662   2.243  0.4563 -0.0955  0.0750
 1283SOL     OW 5129   1.364   0.072   2.095 -0.5140  0.2863  0.1155
 1283SOL    HW2 5130   1.359   0.162   2.128  1.0213  0.5621 -0.3416
 1283SOL    HW3 5131   1.303   0.023   2.149 -1.4849  1.6366  0.2721
 1283SOL    MW4 5132   1.355   0.078   2.106 -0.4395  0.5009  0.0758
 1284SOL     OW 5133   1.325   0.323   2.206 -0.2095 -0.2556  0.3966
 1284SOL    HW2 5134   1.337   0.328   2.301  0.7455  0.8582  0.2313
 1284SOL    HW3 5135   1.394   0.380   2.171 -0.3293 -0.9543 -0.9750
 1284SOL    MW4 5136   1.336   0.331   2.214 -0.0993 -0.2009  0.1939
 1285SOL     OW 5137   1.522   0.527   2.141  0.0671  0.0207  0.3727
 1285SOL    HW2 5138   1.608   0.498   2.169 -0.0059 -0.5091  0.0619
 1285SOL    HW3 5139   1.530   0.538   2.046 -0.0799  0.4046  0.4049
 1285SOL    MW4 5140   1.534   0.524   2.132  0.0381  0.0014  0.3360
 1286SOL     OW 5141   1.556   0.793   2.215 -0.1466 -0.2667 -0.4927
 1286SOL    HW2 5142   1.644   0.817   2.187 -0.2543 -0.4589 -1.0166
 1286SOL    HW3 5143   1.542   0.706   2.177 -0.3383 -0.4942  0.0862
 1286SOL    MW4 5144   1.566   0.785   2.206 -0.1861 -0.3221 -0.4855
 1287SOL     OW 5145   1.334   0.928   2.116 -0.1137 -0.3415  0.1526
 1287SOL    HW2 5146   1.414   0.906   2.164 -0.8634 -1.2114  1.0479
 1287SOL    HW3 5147   1.263   0.897   2.173 -1.1547  1.9262  0.1598
 1287SOL    MW4 5148   1.335   0.921   2.130 -0.3499 -0.1571  0.2717
 1288SOL     OW 5149   1.366   1.183   2.213 -0.1298  0.2963 -0.3124
 1288SOL    HW2 5150   1.364   1.180   2.308 -2.0762 -1.1808 -0.3832
 1288SOL    HW3 5151   1.355   1.093   2.185 -0.4172  0.8167 -1.9482
 1288SOL    MW4 5152   1.364   1.171   2.222 -0.4246  0.1701 -0.5376
 1289SOL     OW 5153   1.613   1.324   2.132  0.4598  0.0579 -0.2823
 1289SOL    HW2 5154   1.532   1.279   2.158 -0.8825  2.1281 -0.7043
 1289SOL    HW3 5155   1.615   1.316   2.036  0.3334  0.6422 -0.3398
 1289SOL    MW4 5156   1.602   1.317   2.123  0.2660  0.4081 -0.3456
 1290SOL     OW 5157   1.570   1.572   2.229 -0.0550  0.2661 -0.2081
 1290SOL    HW2 5158   1.650   1.616   2.200 -0.7945  1.1300 -0.9479
 1290SOL    HW3 5159   1.576   1.484   2.189  1.0488 -0.0600  0.6451
 1290SOL    MW4 5160   1.581   1.566   2.220 -0.0069  0.3371 -0.1931
 1291SOL     OW 5161   1.367   1.698   2.105  0.0760 -0.2793 -0.5196
 1291SOL    HW2 5162   1.440   1.662   2.156  0.0107  0.2201 -0.0722
 1291SOL    HW3 5163   1.289   1.661   2.146  0.1171 -2.1541 -2.0273
 1291SOL    MW4 5164   1.367   1.688   2.117  0.0728 -0.4608 -0.6595
 1292SOL     OW 5165   1.322   1.957   2.200 -0.1958 -0.3042  0.4211
 1292SOL    HW2 5166   1.379   2.021   2.156  0.4793 -0.6459  0.7912
 1292SOL    HW3 5167   1.355   1.872   2.170  0.1117 -0.5335  1.3911
 1292SOL    MW4 5168   1.334   1.954   2.190 -0.0662 -0.3795  0.5979
 1293SOL     OW 5169   1.578   2.095   2.113 -0.2940 -0.9090  0.1565
 1293SOL    HW2 5170   1.636   2.024   2.139 -0.9108 -1.7615 -0.8070
 1293SOL    HW3 5171   1.579   2.094   2.018 -0.7804 -0.0174  0.1378
 1293SOL    MW4 5172   1.586   2.086   2.104 -0.4395 -0.9038  0.0269
 1294SOL     OW 5173   1.592   2.339   2.234  0.0596  0.1600 -0.0398
 1294SOL    HW2 5174   1.589   2.314   2.326 -1.0203  0.6655  0.0794
 1294SOL    HW3 5175   1.580   2.257   2.186 -0.0599 -0.0115  0.2831
 1294SOL    MW4 5176   1.590   2.325   2.240 -0.0986  0.2041  0.0185
 1295SOL     OW 5177   1.350   2.429   2.145 -0.2119  0.6000 -0.2103
 1295SOL    HW2 5178   1.437   2.397   2.167 -0.3972  0.3220  0.1304
 1295SOL    HW3 5179   1.343   2.420   2.050  0.0174  0.3433 -0.2019
 1295SOL    MW4 5180   1.361   2.424   2.136 -0.2061  0.5295 -0.1642
 1296SOL     OW 5181   1.347   2.692   2.251  0.4605 -0.0262  0.5937
 1296SOL    HW2 5182   1.421   2.751   2.235 -1.0658  1.4121 -1.3141
 1296SOL    HW3 5183   1.370   2.612   2.204  1.1617  0.1403  0.6503
 1296SOL    MW4 5184   1.360   2.689   2.243  0.3516  0.1855  0.3495
 1297SOL     OW 5185   1.587   2.829   2.188  0.0577  0.7302 -0.3030
 1297SOL    HW2 5186   1.561   2.919   2.203 -0.3192  0.7245 -0.9042
 1297SOL    HW3 5187   1.590   2.820   2.092  2.1449  0.6990 -0.2562
 1297SOL    MW4 5188   1.584   2.839   2.177  0.2834  0.7253 -0.3762
 1298SOL     OW 5189   1.524   3.093   2.253 -0.2099 -0.7500  0.6279
 1298SOL    HW2 5190   1.524   3.110   2.347 -0.5182  0.4768  0.4131
 1298SOL    HW3 5191   1.476   3.167   2.215 -0.5793 -1.5343 -0.4372
 1298SOL    MW4 5192   1.518   3.105   2.261 -0.2993 -0.6916  0.4590
 1299SOL     OW 5193   1.335   3.286   2.140  0.3135 -0.1026  0.1986
 1299SOL    HW2 5194   1.258   3.233   2.160 -0.4096  0.8011 -0.1562
 1299SOL    HW3 5195   1.349   3.274   2.046  0.1298  0.3636  0.1120
 1299SOL    MW4 5196   1.327   3.278   2.130  0.1939  0.0782  0.1404
 1300SOL     OW 5197   1.299   3.527   2.263  0.6370 -0.3044 -0.1343
 1300SOL    HW2 5198   1.327   3.509   2.353 -0.1369  1.4176  0.4764
 1300SOL    HW3 5199   1.294   3.441   2.222  2.3558 -0.9973  1.0664
 1300SOL    MW4 5200   1.302   3.514   2.270  0.7617 -0.1686  0.1047
 1301SOL     OW 5201   1.546   3.614   2.154 -0.2776  0.2337 -0.0434
 1301SOL    HW2 5202   1.565   3.700   2.192 -0.2364  0.2415 -0.0827
 1301SOL    HW3 5203   1.462   3.589   2.195 -0.3926  0.3838 -0.1856
 1301SOL    MW4 5204   1.537   3.622   2.165 -0.2873  0.2545 -0.0673
 1302SOL     OW 5205   1.548   3.882   2.271 -0.3293  0.4075  0.0331
 1302SOL    HW2 5206   1.569   3.872   2.364 -1.5352 -0.7692  0.1941
 1302SOL    HW3 5207   1.621   3.933   2.236  1.1650 -0.8397  1.2189
 1302SOL    MW4 5208   1.561   3.887   2.279 -0.2913  0.0877  0.2108
 1303SOL     OW 5209   1.337   3.996   2.127  0.4413  0.3351 -0.0706
 1303SOL    HW2 5210   1.411   3.945   2.161  0.4950 -0.6997 -1.6984
 1303SOL    HW3 5211   1.348   3.993   2.032 -0.9253  1.3585 -0.2695
 1303SOL    MW4 5212   1.348   3.989   2.119  0.2681  0.3336 -0.3116
 1304SOL     OW 5213   1.350   4.263   2.234 -0.1073  0.1842  0.4471
 1304SOL    HW2 5214   1.359   4.173   2.204  0.0317 -0.8642  3.4633
 1304SOL    HW3 5215   1.263   4.290   2.207  0.2052 -0.5241 -1.2926
 1304SOL    MW4 5216   1.340   4.255   2.227 -0.0478 -0.0476  0.6155
 1305SOL     OW 5217   1.560   4.415   2.129 -0.3175  0.3307 -0.0670
 1305SOL    HW2 5218   1.485   4.369   2.167  0.1980 -0.9376 -0.5649
 1305SOL    HW3 5219   1.566   4.497   2.179 -0.1739 -0.9080  1.9897
 1305SOL    MW4 5220   1.551   4.420   2.141 -0.2305 -0.0000  0.1387
 1306SOL     OW 5221   2.009   4.618   2.251  0.2721 -0.1006 -0.4412
 1306SOL    HW2 5222   2.091   4.658   2.220  0.3488  0.7520  0.8059
 1306SOL    HW3 5223   1.996   4.542   2.195  0.9987  0.7621 -1.8023
 1306SOL    MW4 5224   2.018   4.614   2.240  0.3781  0.1257 -0.4562
 1307SOL     OW 5225   1.794   0.097   2.133  0.5031 -0.3470 -0.0706
 1307SOL    HW2 5226   1.789   0.191   2.149 -0.0934 -0.5200  0.8282
 1307SOL    HW3 5227   1.862   0.066   2.193  2.1488 -0.1924 -1.8278
 1307SOL    MW4 5228   1.802   0.105   2.143  0.6415 -0.3494 -0.1838
 1308SOL     OW 5229   1.781   0.382   2.189 -0.0745 -0.1286 -0.2968
 1308SOL    HW2 5230   1.810   0.360   2.277  0.8542  0.5595 -0.4209
 1308SOL    HW3 5231   1.861   0.402   2.141 -0.6314  0.3167 -1.0652
 1308SOL    MW4 5232   1.795   0.382   2.194 -0.0254  0.0209 -0.4146
 1309SOL     OW 5233   2.025   0.494   2.075  0.5823 -0.3468  0.1217
 1309SOL    HW2 5234   2.001   0.580   2.111 -0.5807  0.2707 -2.0337
 1309SOL    HW3 5235   2.011   0.503   1.981  0.2938 -2.9586 -0.1180
 1309SOL    MW4 5236   2.020   0.507   2.067  0.3908 -0.6099 -0.1943
 1310SOL     OW 5237   1.990   0.729   2.223 -0.0235 -0.6748  0.6076
 1310SOL    HW2 5238   2.074   0.768   2.200 -0.1773  0.4333  1.8497
 1310SOL    HW3 5239   1.924   0.791   2.192 -0.3173 -0.6471  1.2537
 1310SOL    MW4 5240   1.992   0.742   2.216 -0.0826 -0.5249  0.8567
 1311SOL     OW 5241   1.784   0.875   2.123  0.0419 -0.4291  0.0736
 1311SOL    HW2 5242   1.797   0.959   2.167  2.6371 -0.2565 -0.9054
 1311SOL    HW3 5243   1.795   0.895   2.030 -1.3353 -1.4934 -0.3274
 1311SOL    MW4 5244   1.787   0.889   2.116  0.2026 -0.5467 -0.1085
 1312SOL     OW 5245   1.803   1.118   2.226  0.0839  0.2050 -0.0703
 1312SOL    HW2 5246   1.887   1.155   2.200 -0.7026  1.0414 -1.4967
 1312SOL    HW3 5247   1.738   1.170   2.178 -1.1797 -1.2559  0.0152
 1312SOL    MW4 5248   1.805   1.130   2.216 -0.1866  0.1226 -0.2472
 1313SOL     OW 5249   2.031   1.230   2.134  0.2513  0.0471  0.1073
 1313SOL    HW2 5250   2.039   1.315   2.177  2.0043  0.1868 -0.4823
 1313SOL    HW3 5251   2.020   1.250   2.042  0.4180 -0.3640 -0.0026
 1313SOL    MW4 5252   2.030   1.243   2.128  0.5046  0.0113  0.0150
 1314SOL     OW 5253   2.051   1.507   2.245  0.0357 -0.8022 -0.2875
 1314SOL    HW2 5254   2.053   1.523   2.339 -0.3721 -0.1901 -0.3770
 1314SOL    HW3 5255   1.985   1.568   2.212 -0.4556 -1.6340 -0.8556
 1314SOL    MW4 5256   2.043   1.517   2.253 -0.0830 -0.8312 -0.3742
 1315SOL     OW 5257   1.822   1.661   2.153  0.2755 -0.1812  0.0678
 1315SOL    HW2 5258   1.820   1.755   2.172  1.0432 -0.3493  1.0321
 1315SOL    HW3 5259   1.807   1.655   2.059 -1.7054  0.8007  0.2917
 1315SOL    MW4 5260   1.819   1.673   2.143  0.1155 -0.0738  0.2246
 1316SOL     OW 5261   1.801   1.935   2.220 -0.1992 -0.0589  0.3210
 1316SOL    HW2 5262   1.799   1.943   2.315 -0.9983 -0.9409  0.3885
 1316SOL    HW3 5263   1.879   1.983   2.193 -1.1148  2.0109  1.2344
 1316SOL    MW4 5264   1.811   1.942   2.229 -0.4255  0.0978  0.4504
 1317SOL     OW 5265   2.024   2.057   2.119 -0.1525  0.1571 -0.5092
 1317SOL    HW2 5266   2.089   1.998   2.158 -0.8229 -0.9154 -1.0066
 1317SOL    HW3 5267   2.034   2.047   2.025  1.2248  2.5009 -0.6610
 1317SOL    MW4 5268   2.034   2.048   2.112 -0.0593  0.3249 -0.5948
 1318SOL     OW 5269   2.023   2.317   2.236  0.4233 -0.3548 -0.1065
 1318SOL    HW2 5270   2.108   2.350   2.208  1.1117 -1.3068  0.8523
 1318SOL    HW3 5271   2.015   2.231   2.193  0.4460 -0.7661  0.7013
 1318SOL    MW4 5272   2.033   2.310   2.227  0.5171 -0.5347  0.1265
 1319SOL     OW 5273   1.813   2.482   2.167  0.2180 -0.0672  0.5273
 1319SOL    HW2 5274   1.875   2.420   2.204  0.3349 -1.1961 -1.4750
 1319SOL    HW3 5275   1.727   2.443   2.184  0.2276 -0.1422  0.4053
 1319SOL    MW4 5276   1.810   2.469   2.174  0.2347 -0.2261  0.2470
 1320SOL     OW 5277   1.837   2.759   2.277  0.0741  0.1184  0.2075
 1320SOL    HW2 5278   1.821   2.666   2.266  0.1556  0.2596 -1.1461
 1320SOL    HW3 5279   1.759   2.802   2.243  0.8045  0.5962 -0.9107
 1320SOL    MW4 5280   1.825   2.752   2.271  0.1812  0.2001 -0.1187
 1321SOL     OW 5281   2.057   2.873   2.127  0.2181 -0.4166  0.2464
 1321SOL    HW2 5282   2.135   2.827   2.157  0.2599  0.4455  1.5225
 1321SOL    HW3 5283   1.986   2.834   2.177  0.2825  1.0073  1.4883
 1321SOL    MW4 5284   2.058   2.862   2.138  0.2321 -0.1150  0.5786
 1322SOL     OW 5285   2.020   3.130   2.218 -0.1953  0.1967  0.1571
 1322SOL    HW2 5286   2.089   3.174   2.167 -0.1896  1.1397  0.9658
 1322SOL    HW3 5287   2.030   3.037   2.196  0.9378  0.3892 -0.2024
 1322SOL    MW4 5288   2.031   3.124   2.208 -0.0451  0.3465  0.2164
 1323SOL     OW 5289   1.758   3.210   2.121 -0.5518 -0.2141 -0.1899
 1323SOL    HW2 5290   1.835   3.199   2.176 -0.2763 -0.7042 -0.6724
 1323SOL    HW3 5291   1.687   3.168   2.170 -0.4434 -0.0829  0.0819
 1323SOL    MW4 5292   1.759   3.203   2.135 -0.5011 -0.2614 -0.2177
 1324SOL     OW 5293   1.762   3.466   2.226 -0.2994 -0.1981  0.2821
 1324SOL    HW2 5294   1.759   3.397   2.160  0.7590  2.7443 -2.9487
 1324SOL    HW3 5295   1.686   3.521   2.207 -0.8547 -0.1186  2.5288
 1324SOL    MW4 5296   1.751   3.464   2.215 -0.2330  0.2006  0.1523
 1325SOL     OW 5297   2.224   3.521   2.222 -0.0763 -0.2143 -0.7540
 1325SOL    HW2 5298   2.230   3.530   2.317 -0.7317  0.7286 -0.7969
 1325SOL    HW3 5299   2.147   3.572   2.198  0.4291  0.0462 -1.8550
 1325SOL    MW4 5300   2.215   3.529   2.232 -0.0961 -0.0555 -0.9049
 1326SOL     OW 5301   1.994   3.890   2.252  0.0874  0.7596  0.2437
 1326SOL    HW2 5302   1.987   3.889   2.347  0.9718  0.4097  0.3066
 1326SOL    HW3 5303   1.984   3.799   2.225 -0.4410  0.8914 -0.0253
 1326SOL    MW4 5304   1.992   3.878   2.261  0.1344  0.7308  0.2165
 1327SOL     OW 5305   1.773   3.988   2.131 -0.0141  0.1653  0.3315
 1327SOL    HW2 5306   1.859   3.965   2.165  0.0118  0.2116  0.2973
 1327SOL    HW3 5307   1.779   3.974   2.037 -0.6220 -1.6845  0.5333
 1327SOL    MW4 5308   1.785   3.983   2.123 -0.0909 -0.0727  0.3536
 1328SOL     OW 5309   1.779   4.243   2.247  0.4168 -0.5711  0.1129
 1328SOL    HW2 5310   1.783   4.160   2.198  0.2124 -1.5981  1.8029
 1328SOL    HW3 5311   1.701   4.287   2.212  0.6762 -0.9616 -0.9859
 1328SOL    MW4 5312   1.769   4.238   2.236  0.4241 -0.7581  0.1909
 1329SOL     OW 5313   1.988   4.365   2.108  0.2551  0.0614 -0.1710
 1329SOL    HW2 5314   1.909   4.324   2.143  0.2475  0.3455  0.1516
 1329SOL    HW3 5315   1.970   4.378   2.015  0.5483 -1.3507 -0.4379
 1329SOL    MW4 5316   1.975   4.361   2.101  0.2928 -0.0874 -0.1637
 1330SOL     OW 5317   2.461   4.636   2.257  0.2506 -0.6610  0.2537
 1330SOL    HW2 5318   2.536   4.691   2.234 -1.2224  1.4242  0.2400
 1330SOL    HW3 5319   2.478   4.552   2.215 -0.1292  1.5261 -4.5688
 1330SOL    MW4 5320   2.473   4.632   2.249  0.0062 -0.0973 -0.3844
 1331SOL     OW 5321   2.237   0.069   2.139  0.1906 -0.5298 -0.2399
 1331SOL    HW2 5322   2.231   0.164   2.150  0.6589 -0.1766 -2.6246
 1331SOL    HW3 5323   2.320   0.045   2.180  0.6734  0.2940 -0.7211
 1331SOL    MW4 5324   2.248   0.079   2.146  0.3161 -0.3745 -0.6181
 1332SOL     OW 5325   2.201   0.349   2.208  0.4202  0.1436 -0.1478
 1332SOL    HW2 5326   2.285   0.381   2.176 -0.1585 -0.3772 -2.2184
 1332SOL    HW3 5327   2.137   0.413   2.177 -0.0766  0.0121  0.5772
 1332SOL    MW4 5328   2.204   0.362   2.200  0.2783  0.0575 -0.3253
 1333SOL     OW 5329   2.483   0.437   2.156 -0.2360 -0.3645 -0.0958
 1333SOL    HW2 5330   2.555   0.388   2.196  0.7447  0.8244 -0.3714
 1333SOL    HW3 5331   2.515   0.460   2.069 -0.8972  0.2793 -0.1707
 1333SOL    MW4 5332   2.497   0.433   2.150 -0.1939 -0.1227 -0.1420
 1334SOL     OW 5333   2.461   0.709   2.206  0.1693 -0.3195  0.0938
 1334SOL    HW2 5334   2.539   0.744   2.162 -0.8845  2.0872  0.1021
 1334SOL    HW3 5335   2.473   0.614   2.201  1.8745 -0.0541 -2.1401
 1334SOL    MW4 5336   2.473   0.701   2.199  0.2552  0.0330 -0.1999
 1335SOL     OW 5337   2.215   0.842   2.098  0.3783  0.0786 -0.2932
 1335SOL    HW2 5338   2.201   0.920   2.153  0.4115 -0.0299 -0.1308
 1335SOL    HW3 5339   2.297   0.805   2.130  0.3208 -0.0681 -0.3171
 1335SOL    MW4 5340   2.224   0.847   2.110  0.3751  0.0449 -0.2750
 1336SOL     OW 5341   2.249   1.099   2.207 -0.2248 -0.1473 -0.3348
 1336SOL    HW2 5342   2.325   1.147   2.176  0.8520 -2.2248 -0.9807
 1336SOL    HW3 5343   2.174   1.148   2.172  0.8582  0.6150 -1.6503
 1336SOL    MW4 5344   2.249   1.112   2.198  0.0602 -0.3208 -0.5936
 1337SOL     OW 5345   2.490   1.229   2.110 -0.0350 -0.0130  0.2779
 1337SOL    HW2 5346   2.557   1.176   2.153 -0.6882 -0.7895  0.3416
 1337SOL    HW3 5347   2.514   1.319   2.131  1.5323 -0.2392 -0.4912
 1337SOL    MW4 5348   2.502   1.234   2.118  0.0856 -0.1453  0.1848
 1338SOL     OW 5349   2.475   1.535   2.201 -0.0182 -0.0165 -0.2546
 1338SOL    HW2 5350   2.492   1.526   2.295 -1.3707  0.8035  0.0777
 1338SOL    HW3 5351   2.543   1.595   2.171 -0.4451  0.8377  0.4740
 1338SOL    MW4 5352   2.487   1.542   2.209 -0.2530  0.2044 -0.1147
 1339SOL     OW 5353   2.249   1.643   2.107  0.1979  0.3313 -0.0737
 1339SOL    HW2 5354   2.326   1.610   2.152  0.2650  2.1070  1.1785
 1339SOL    HW3 5355   2.175   1.597   2.148  0.3554  1.0448  1.0331
 1339SOL    MW4 5356   2.249   1.633   2.119  0.2275  0.6597  0.2375
 1340SOL     OW 5357   2.239   1.916   2.231 -0.0337  0.0268  0.6939
 1340SOL    HW2 5358   2.314   1.960   2.191 -0.1643  0.3126  0.7610
 1340SOL    HW3 5359   2.247   1.825   2.202 -1.7206  0.7795 -2.3715
 1340SOL    MW4 5360   2.250   1.910   2.222 -0.2735  0.1638  0.2983
 1341SOL     OW 5361   2.443   2.047   2.110 -0.0922  0.1694 -0.0003
 1341SOL    HW2 5362   2.520   1.998   2.138  0.2852  0.5994 -0.2545
 1341SOL    HW3 5363   2.454   2.054   2.015 -0.0622  0.8633  0.0511
 1341SOL    MW4 5364   2.455   2.042   2.101 -0.0384  0.3177 -0.0270
 1342SOL     OW 5365   2.472   2.288   2.248 -0.3693 -0.1150 -0.2716
 1342SOL    HW2 5366   2.555   2.313   2.208 -0.7308  1.1587 -0.2547
 1342SOL    HW3 5367   2.439   2.216   2.195  1.2237 -1.2979  0.3122
 1342SOL    MW4 5368   2.479   2.282   2.236 -0.2068 -0.1030 -0.1924
 1343SOL     OW 5369   2.261   2.434   2.131 -0.2242  0.0457 -0.0521
 1343SOL    HW2 5370   2.265   2.526   2.156 -0.7243 -0.0500  0.3890
 1343SOL    HW3 5371   2.332   2.392   2.179  0.4093  0.3136 -0.7479
 1343SOL    MW4 5372   2.271   2.441   2.141 -0.2066  0.0685 -0.0857
 1344SOL     OW 5373   2.263   2.703   2.199  0.1722  0.1616 -0.2248
 1344SOL    HW2 5374   2.236   2.705   2.290 -0.3543  0.7620 -0.3841
 1344SOL    HW3 5375   2.338   2.763   2.195 -0.2282  0.6585 -0.3133
 1344SOL    MW4 5376   2.270   2.712   2.210  0.0499  0.3064 -0.2575
 1345SOL     OW 5377   2.489   2.868   2.127 -0.3259 -0.2878  0.2847
 1345SOL    HW2 5378   2.564   2.810   2.142  1.0860  1.5084  0.3885
 1345SOL    HW3 5379   2.478   2.868   2.031  0.2858  0.0048  0.2109
 1345SOL    MW4 5380   2.498   2.860   2.116 -0.0589 -0.0122  0.2886
 1346SOL     OW 5381   2.490   3.125   2.242  0.4906 -0.3203  0.4211
 1346SOL    HW2 5382   2.573   3.162   2.214 -0.2819 -0.4528 -2.2685
 1346SOL    HW3 5383   2.495   3.033   2.216 -1.0124  0.0008 -1.1576
 1346SOL    MW4 5384   2.501   3.117   2.235  0.1904 -0.2954 -0.1420
 1347SOL     OW 5385   2.242   3.249   2.102  0.0757  0.3108 -0.4227
 1347SOL    HW2 5386   2.234   3.331   2.150 -0.5967 -1.6706  2.9973
 1347SOL    HW3 5387   2.319   3.205   2.140  1.0981 -0.1948 -2.9567
 1347SOL    MW4 5388   2.251   3.254   2.113  0.1219 -0.0173 -0.3058
 1348SOL     OW 5389   2.252   3.507   2.545 -0.0954 -0.3643 -0.3786
 1348SOL    HW2 5390   2.276   3.424   2.585  1.5148  0.5012  0.4816
 1348SOL    HW3 5391   2.333   3.557   2.542 -1.2585  1.5937  0.0878
 1348SOL    MW4 5392   2.266   3.503   2.550 -0.0364  0.0082 -0.2036
 1349SOL     OW 5393   2.488   3.597   2.134 -0.1670  0.0620  0.8869
 1349SOL    HW2 5394   2.471   3.677   2.183  0.2829 -0.0242  1.1871
 1349SOL    HW3 5395   2.407   3.548   2.139 -1.4420  1.7593 -1.7260
 1349SOL    MW4 5396   2.475   3.601   2.141 -0.2759  0.2746  0.5817
 1350SOL     OW 5397   2.459   3.855   2.238 -0.0438 -0.1519  0.1964
 1350SOL    HW2 5398   2.462   3.875   2.331 -0.5064 -0.3205  0.2485
 1350SOL    HW3 5399   2.382   3.901   2.205  0.6276  0.6488 -0.2850
 1350SOL    MW4 5400   2.449   3.863   2.246 -0.0162 -0.0685  0.1398
 1351SOL     OW 5401   2.233   4.001   2.151  0.6154  0.0037 -0.0540
 1351SOL    HW2 5402   2.244   4.095   2.163  0.9216 -0.1236  0.7165
 1351SOL    HW3 5403   2.149   3.981   2.193 -0.6176  0.3020 -2.2912
 1351SOL    MW4 5404   2.223   4.011   2.158  0.4931  0.0262 -0.2475
 1352SOL     OW 5405   2.241   4.283   2.207  0.5076  0.4614  0.6077
 1352SOL    HW2 5406   2.214   4.285   2.299 -0.6921 -1.9276  0.3347
 1352SOL    HW3 5407   2.166   4.317   2.159  1.9639  3.9314  0.6183
 1352SOL    MW4 5408   2.228   4.288   2.213  0.5415  0.6040  0.5731
 1353SOL     OW 5409   2.478   4.394   2.134  0.1414  0.1893 -0.2457
 1353SOL    HW2 5410   2.545   4.331   2.161  1.3840  1.4986 -0.1830
 1353SOL    HW3 5411   2.395   4.354   2.159  0.9583 -1.0887  0.4573
 1353SOL    MW4 5412   2.476   4.381   2.141  0.4131  0.1934 -0.1447
 1354SOL     OW 5413   2.922   4.647   2.248  0.0460 -0.0915  0.0361
 1354SOL    HW2 5414   3.001   4.684   2.208  0.1515  0.3435  0.6440
 1354SOL    HW3 5415   2.925   4.554   2.224  2.0791 -0.6222  2.1557
 1354SOL    MW4 5416   2.933   4.639   2.239  0.3282 -0.1042  0.3959
 1355SOL     OW 5417   2.700   0.074   2.148 -0.2168  0.6118 -0.2028
 1355SOL    HW2 5418   2.718   0.167   2.165  0.6023  0.3531  0.3926
 1355SOL    HW3 5419   2.776   0.028   2.183 -2.3096 -0.5794  3.0693
 1355SOL    MW4 5420   2.712   0.080   2.155 -0.3849  0.4205  0.3075
 1356SOL     OW 5421   2.721   0.331   2.226  0.2242  0.2157  0.4518
 1356SOL    HW2 5422   2.731   0.330   2.321  1.1099 -1.3294  0.3663
 1356SOL    HW3 5423   2.788   0.392   2.195 -0.2503  0.9309  0.8379
 1356SOL    MW4 5424   2.731   0.339   2.234  0.2784  0.1062  0.4915
 1357SOL     OW 5425   2.918   0.489   2.141  0.0024  0.0281 -0.2137
 1357SOL    HW2 5426   2.906   0.582   2.157 -2.5471 -0.4037  0.6387
 1357SOL    HW3 5427   2.911   0.479   2.046 -0.6162  0.6034 -0.2297
 1357SOL    MW4 5428   2.915   0.500   2.131 -0.4156  0.0471 -0.1033
 1358SOL     OW 5429   2.951   0.779   2.179  0.4832 -0.0200 -0.5175
 1358SOL    HW2 5430   2.955   0.774   2.274  0.1491  1.5359 -0.4129
 1358SOL    HW3 5431   2.858   0.791   2.159  0.5910 -0.0181 -1.0305
 1358SOL    MW4 5432   2.940   0.780   2.189  0.4534  0.1855 -0.5714
 1359SOL     OW 5433   2.685   0.841   2.102  0.2247  0.2698  0.0765
 1359SOL    HW2 5434   2.683   0.925   2.147 -0.7778  0.5323 -0.4446
 1359SOL    HW3 5435   2.696   0.864   2.009  0.8318 -0.2114  0.0196
 1359SOL    MW4 5436   2.686   0.855   2.095  0.1726  0.2409  0.0002
 1360SOL     OW 5437   2.701   1.081   2.204 -0.1688  0.3800 -0.1448
 1360SOL    HW2 5438   2.699   1.098   2.298 -0.5099  0.8915 -0.2380
 1360SOL    HW3 5439   2.770   1.139   2.171 -0.8130  1.0266 -0.3625
 1360SOL    MW4 5440   2.710   1.091   2.212 -0.2988  0.5328 -0.1858
 1361SOL     OW 5441   2.919   1.237   2.144 -0.3043  0.0925 -0.3186
 1361SOL    HW2 5442   3.002   1.193   2.162  0.1721  1.1266  0.0862
 1361SOL    HW3 5443   2.917   1.249   2.049 -1.0552 -1.9760 -0.5790
 1361SOL    MW4 5444   2.929   1.233   2.134 -0.3405 -0.0440 -0.2996
 1362SOL     OW 5445   2.879   1.498   2.218  0.0407  0.7260  0.0388
 1362SOL    HW2 5446   2.918   1.506   2.304 -1.6281 -0.9757  0.9921
 1362SOL    HW3 5447   2.893   1.407   2.193 -1.8646  0.5110 -0.3018
 1362SOL    MW4 5448   2.886   1.487   2.226 -0.4309  0.4732  0.1196
 1363SOL     OW 5449   2.709   1.698   2.121 -0.4125 -0.2367 -0.3807
 1363SOL    HW2 5450   2.784   1.645   2.150 -0.5594 -0.0253  0.3913
 1363SOL    HW3 5451   2.703   1.681   2.027 -0.3277 -1.4194 -0.1750
 1363SOL    MW4 5452   2.718   1.689   2.112 -0.4207 -0.3648 -0.2517
 1364SOL     OW 5453   2.683   1.949   2.226  0.7339 -0.3688 -0.3792
 1364SOL    HW2 5454   2.690   1.966   2.320  0.7905  0.1234 -0.4701
 1364SOL    HW3 5455   2.700   1.855   2.217 -1.6736 -0.9140  0.3660
 1364SOL    MW4 5456   2.686   1.939   2.238  0.4237 -0.3758 -0.2929
 1365SOL     OW 5457   2.940   2.041   2.147 -0.4123 -0.2252  0.5184
 1365SOL    HW2 5458   3.001   1.968   2.162 -0.8594 -0.9497 -1.1160
 1365SOL    HW3 5459   2.854   2.006   2.170 -0.8281 -0.7069 -1.6639
 1365SOL    MW4 5460   2.937   2.027   2.152 -0.5262 -0.3843  0.0148
 1366SOL     OW 5461   2.954   2.300   2.240 -0.2402 -0.2675  0.1275
 1366SOL    HW2 5462   2.973   2.303   2.334  3.2260  0.4883 -0.5001
 1366SOL    HW3 5463   2.964   2.208   2.216  1.4182 -0.0931  0.0805
 1366SOL    MW4 5464   2.958   2.288   2.250  0.4359 -0.1448  0.0385
 1367SOL     OW 5465   2.698   2.401   2.148  0.3850  0.2450  0.5448
 1367SOL    HW2 5466   2.784   2.374   2.179  1.3337  1.2528 -1.1463
 1367SOL    HW3 5467   2.704   2.396   2.052 -1.3269  0.6380  0.3956
 1367SOL    MW4 5468   2.710   2.396   2.139  0.2843  0.4298  0.3020
 1368SOL     OW 5469   2.679   2.688   2.187  0.2971 -0.5257  0.1353
 1368SOL    HW2 5470   2.768   2.715   2.164  0.8751 -1.0852  1.6111
 1368SOL    HW3 5471   2.678   2.594   2.171  0.2925 -0.6889  1.0745
 1368SOL    MW4 5472   2.691   2.679   2.182  0.3727 -0.6210  0.4539
 1369SOL     OW 5473   2.941   2.804   2.155 -0.0021  0.0554 -0.2484
 1369SOL    HW2 5474   2.939   2.895   2.185 -0.3794 -0.2599  0.6998
 1369SOL    HW3 5475   2.932   2.810   2.060 -1.2135  0.9447 -0.0899
 1369SOL    MW4 5476   2.940   2.817   2.147 -0.2117  0.1312 -0.1024
 1370SOL     OW 5477   2.970   3.058   2.241  0.0083 -0.4968 -0.3478
 1370SOL    HW2 5478   3.039   3.103   2.193 -1.1775  0.0128 -1.6434
 1370SOL    HW3 5479   2.893   3.114   2.229 -0.2514 -0.2229  2.4444
 1370SOL    MW4 5480   2.969   3.071   2.233 -0.1824 -0.3934 -0.1504
 1371SOL     OW 5481   2.756   3.225   2.168 -0.2094  0.3982 -0.6255
 1371SOL    HW2 5482   2.728   3.314   2.190 -1.2596  0.0995 -0.7568
 1371SOL    HW3 5483   2.741   3.218   2.073  1.3684  0.6103 -0.9198
 1371SOL    MW4 5484   2.750   3.236   2.158 -0.1398  0.3868 -0.6817
 1372SOL     OW 5485   2.718   3.494   2.238 -0.0846  0.0059  0.2959
 1372SOL    HW2 5486   2.640   3.526   2.193 -0.9139 -0.6497  1.2608
 1372SOL    HW3 5487   2.783   3.563   2.225 -0.6919  0.3818 -0.8385
 1372SOL    MW4 5488   2.717   3.507   2.230 -0.2741 -0.0310  0.2735
 1373SOL     OW 5489   2.956   3.642   2.105  0.1656  0.2076  0.0505
 1373SOL    HW2 5490   3.036   3.597   2.134  0.2092  1.0322  1.2399
 1373SOL    HW3 5491   2.968   3.733   2.132 -0.7450  0.5505 -0.6632
 1373SOL    MW4 5492   2.968   3.648   2.112  0.0512  0.3617  0.1133
 1374SOL     OW 5493   2.954   3.875   2.238  0.3025 -0.0604  0.3970
 1374SOL    HW2 5494   2.936   3.853   2.329  0.0255  0.0283  0.3649
 1374SOL    HW3 5495   2.868   3.897   2.201  0.0620 -2.3505 -0.4986
 1374SOL    MW4 5496   2.940   3.875   2.245  0.2342 -0.3508  0.2746
 1375SOL     OW 5497   2.735   3.938   2.109 -0.0166  0.0772 -0.4683
 1375SOL    HW2 5498   2.651   3.899   2.133 -0.3223 -0.0279 -1.6866
 1375SOL    HW3 5499   2.725   3.962   2.017  1.1096  0.5480 -0.4781
 1375SOL    MW4 5500   2.723   3.936   2.100  0.0917  0.1255 -0.6303
 1376SOL     OW 5501   2.689   4.212   2.212 -0.1564 -0.2312 -0.4771
 1376SOL    HW2 5502   2.681   4.214   2.308  1.8397  0.6923 -0.2984
 1376SOL    HW3 5503   2.696   4.119   2.190 -2.3544 -0.5548  0.0911
 1376SOL    MW4 5504   2.689   4.200   2.222 -0.1831 -0.1520 -0.3785
 1377SOL     OW 5505   2.899   4.382   2.144  0.3791  0.1380 -0.1356
 1377SOL    HW2 5506   2.980   4.339   2.173  0.2886 -0.9212 -1.4441
 1377SOL    HW3 5507   2.830   4.321   2.167 -0.1921  1.4780  1.9003
 1377SOL    MW4 5508   2.901   4.368   2.151  0.2918  0.1751 -0.0396
 1378SOL     OW 5509   3.380   4.640   2.190  0.2917  0.4764  0.4028
 1378SOL    HW2 5510   3.397   4.631   2.284  0.5538  0.3612  0.3443
 1378SOL    HW3 5511   3.461   4.675   2.154 -0.2896  1.8655  0.4317
 1378SOL    MW4 5512   3.393   4.643   2.198  0.2496  0.6444  0.3989
 1379SOL     OW 5513   3.151   0.117   2.114  0.1539 -0.0529 -0.2494
 1379SOL    HW2 5514   3.147   0.199   2.161  1.2974 -0.4317  0.5364
 1379SOL    HW3 5515   3.234   0.078   2.141 -0.0421 -1.1318 -1.1543
 1379SOL    MW4 5516   3.162   0.122   2.123  0.2789 -0.2452 -0.2651
 1380SOL     OW 5517   3.166   0.372   2.216 -0.1852  0.1685  0.2425
 1380SOL    HW2 5518   3.091   0.430   2.199 -0.5126 -0.1129  0.7048
 1380SOL    HW3 5519   3.233   0.401   2.155 -0.4709  0.8114  0.2293
 1380SOL    MW4 5520   3.165   0.383   2.206 -0.2661  0.2162  0.3018
 1381SOL     OW 5521   3.351   0.502   1.772  0.0737 -0.3915 -0.2063
 1381SOL    HW2 5522   3.427   0.454   1.740 -1.0824 -2.3869 -0.0018
 1381SOL    HW3 5523   3.278   0.470   1.720 -0.7628  0.9732  0.1040
 1381SOL    MW4 5524   3.352   0.492   1.761 -0.1892 -0.4748 -0.1384
 1382SOL     OW 5525   3.344   0.503   2.053 -0.1693  0.0513 -0.3678
 1382SOL    HW2 5526   3.430   0.468   2.077 -0.3100 -0.4436 -0.5839
 1382SOL    HW3 5527   3.340   0.493   1.958 -0.5821 -0.1848 -0.3232
 1382SOL    MW4 5528   3.355   0.498   2.044 -0.2423 -0.0451 -0.3904
 1383SOL     OW 5529   3.365   0.742   2.199  0.0222  0.0572 -0.7172
 1383SOL    HW2 5530   3.439   0.795   2.169  0.4864 -0.4753 -0.5172
 1383SOL    HW3 5531   3.375   0.659   2.153  0.2941 -0.4803  0.3111
 1383SOL    MW4 5532   3.376   0.738   2.189  0.1193 -0.0840 -0.5551
 1384SOL     OW 5533   3.148   1.099   2.228  0.2793 -0.0668  0.7700
 1384SOL    HW2 5534   3.220   1.156   2.199 -0.1664 -0.0096 -0.2662
 1384SOL    HW3 5535   3.151   1.025   2.168 -0.8822  0.2175  0.3558
 1384SOL    MW4 5536   3.158   1.097   2.216  0.0672 -0.0218  0.5786
 1385SOL     OW 5537   3.353   1.250   2.106 -0.0746  0.3545  0.0050
 1385SOL    HW2 5538   3.353   1.340   2.138 -1.2483  0.3541  0.0303
 1385SOL    HW3 5539   3.429   1.209   2.149  0.8356  1.4963 -0.5078
 1385SOL    MW4 5540   3.363   1.256   2.116 -0.1094  0.5051 -0.0593
 1386SOL     OW 5541   3.352   1.514   2.175  0.3319 -0.4701  0.0870
 1386SOL    HW2 5542   3.340   1.522   2.270  0.6053  2.6236 -0.0901
 1386SOL    HW3 5543   3.269   1.545   2.138  0.8882  0.0791 -0.7089
 1386SOL    MW4 5544   3.339   1.519   2.183  0.4413  0.0106 -0.0414
 1387SOL     OW 5545   3.111   1.618   2.104  0.5177  0.0707  0.0737
 1387SOL    HW2 5546   3.121   1.693   2.164 -0.8867  0.3353 -0.0028
 1387SOL    HW3 5547   3.023   1.586   2.121  0.7856 -1.0105 -0.5515
 1387SOL    MW4 5548   3.101   1.624   2.115  0.3677 -0.0371 -0.0189
 1388SOL     OW 5549   3.132   1.846   2.234  0.5353 -0.1539  0.1358
 1388SOL    HW2 5550   3.137   1.861   2.329 -1.4867 -0.6781  0.3534
 1388SOL    HW3 5551   3.198   1.904   2.197  2.0252 -0.6317  1.9302
 1388SOL    MW4 5552   3.142   1.856   2.242  0.4651 -0.2861  0.4013
 1389SOL     OW 5553   3.343   2.005   2.150  0.4341 -0.4875 -0.5213
 1389SOL    HW2 5554   3.414   1.950   2.183  0.4403  0.2439  0.7245
 1389SOL    HW3 5555   3.370   2.028   2.062  1.1429 -1.2554 -0.5175
 1389SOL    MW4 5556   3.356   2.001   2.143  0.5284 -0.4923 -0.3564
 1390SOL     OW 5557   3.368   2.266   2.236  0.3485  0.4050  0.7074
 1390SOL    HW2 5558   3.306   2.323   2.190  0.4156  1.0884  1.4693
 1390SOL    HW3 5559   3.352   2.179   2.199 -0.5140  0.7211  0.3301
 1390SOL    MW4 5560   3.357   2.262   2.225  0.2435  0.5369  0.7582
 1391SOL     OW 5561   3.158   2.425   2.121  0.3608 -0.2040 -0.6233
 1391SOL    HW2 5562   3.151   2.515   2.151  1.2414  0.2297 -1.6926
 1391SOL    HW3 5563   3.084   2.380   2.161  1.1570  0.4910  1.7322
 1391SOL    MW4 5564   3.148   2.431   2.130  0.5820 -0.0551 -0.4536
 1392SOL     OW 5565   3.166   2.683   2.231  0.1361 -0.4914  0.1867
 1392SOL    HW2 5566   3.158   2.685   2.326  0.5322  0.5978  0.2043
 1392SOL    HW3 5567   3.096   2.741   2.200  0.3210 -0.4539 -0.1616
 1392SOL    MW4 5568   3.156   2.691   2.239  0.2127 -0.3428  0.1431
 1393SOL     OW 5569   3.411   2.812   2.183  0.1359  0.2612 -0.1442
 1393SOL    HW2 5570   3.385   2.902   2.200  0.8107  0.3574  0.4310
 1393SOL    HW3 5571   3.337   2.759   2.214 -0.2071  0.6067 -0.3678
 1393SOL    MW4 5572   3.398   2.817   2.190  0.1797  0.3195 -0.0978
 1394SOL     OW 5573   3.346   3.084   2.260 -0.5336  0.0084  0.3358
 1394SOL    HW2 5574   3.439   3.105   2.245 -0.6338 -0.6729 -1.2330
 1394SOL    HW3 5575   3.299   3.132   2.192 -1.3108  0.0331  0.8900
 1394SOL    MW4 5576   3.352   3.093   2.249 -0.6494 -0.0782  0.2019
 1395SOL     OW 5577   3.130   3.217   2.110  0.3543  0.2966  0.0395
 1395SOL    HW2 5578   3.110   3.308   2.133  2.6732  0.8807 -0.1220
 1395SOL    HW3 5579   3.148   3.220   2.016  0.5192 -0.3021  0.0541
 1395SOL    MW4 5580   3.130   3.230   2.101  0.6820  0.2947  0.0201
 1396SOL     OW 5581   3.167   3.485   2.179  0.6738 -0.1834 -0.1269
 1396SOL    HW2 5582   3.175   3.477   2.274 -1.0842 -2.0577 -0.1029
 1396SOL    HW3 5583   3.248   3.528   2.151  0.8021  1.2455  2.3061
 1396SOL    MW4 5584   3.179   3.490   2.188  0.4588 -0.2422  0.1973
 1397SOL     OW 5585   3.434   3.593   2.160 -0.4491  0.1412  0.3662
 1397SOL    HW2 5586   3.501   3.530   2.189 -2.5666 -1.7145  1.3855
 1397SOL    HW3 5587   3.445   3.598   2.066  1.6859  0.5364  0.6149
 1397SOL    MW4 5588   3.444   3.585   2.152 -0.4468 -0.0515  0.5335
 1398SOL     OW 5589   3.391   3.866   2.199 -0.0184  0.6132  0.0226
 1398SOL    HW2 5590   3.461   3.905   2.148  1.3544 -0.0814  1.3452
 1398SOL    HW3 5591   3.407   3.771   2.194 -0.7404  0.4591  0.4971
 1398SOL    MW4 5592   3.402   3.858   2.192  0.0674  0.5012  0.2597
 1399SOL     OW 5593   3.159   4.024   2.120  0.1465  0.2814  0.2976
 1399SOL    HW2 5594   3.241   3.974   2.114  0.6946  1.2820 -0.9360
 1399SOL    HW3 5595   3.096   3.963   2.159  1.0838 -1.0152 -0.1680
 1399SOL    MW4 5596   3.162   4.009   2.124  0.3425  0.2423  0.0734
 1400SOL     OW 5597   3.124   4.264   2.250 -0.0831 -0.2347 -0.2852
 1400SOL    HW2 5598   3.208   4.306   2.233 -0.3187  0.2053 -0.3442
 1400SOL    HW3 5599   3.138   4.173   2.223  0.1923 -0.0294 -0.8402
 1400SOL    MW4 5600   3.137   4.257   2.244 -0.0778 -0.1496 -0.3662
 1401SOL     OW 5601   3.367   4.360   2.136  0.0819  0.3570 -0.0043
 1401SOL    HW2 5602   3.353   4.454   2.136 -2.7408  0.0055 -1.6879
 1401SOL    HW3 5603   3.383   4.337   2.045 -0.0102 -0.8849  0.2732
 1401SOL    MW4 5604   3.367   4.369   2.124 -0.3027  0.1468 -0.1898
 1402SOL     OW 5605   4.036   0.120   2.149  0.0485  0.0403  0.1736
 1402SOL    HW2 5606   4.114   0.073   2.177  0.8453  0.6556 -0.9910
 1402SOL    HW3 5607   4.039   0.203   2.196 -0.1530 -0.1206  0.4754
 1402SOL    MW4 5608   4.046   0.125   2.159  0.1270  0.1003  0.0597
 1403SOL     OW 5609   3.613   0.090   2.099 -0.5021  0.2888  0.1241
 1403SOL    HW2 5610   3.680   0.039   2.145 -2.3767 -2.6843 -0.2711
 1403SOL    HW3 5611   3.617   0.177   2.138  0.6754 -1.0457  3.1208
 1403SOL    MW4 5612   3.622   0.095   2.110 -0.5941 -0.2795  0.4673
 1404SOL     OW 5613   3.579   0.369   2.173 -0.0030 -0.3860 -0.1153
 1404SOL    HW2 5614   3.590   0.369   2.268 -1.1541  0.1320  0.0290
 1404SOL    HW3 5615   3.657   0.413   2.140 -0.1751  0.5454  0.6760
 1404SOL    MW4 5616   3.591   0.375   2.181 -0.1776 -0.1948  0.0082
 1405SOL     OW 5617   3.838   0.494   2.140 -0.1991  0.2526  0.0054
 1405SOL    HW2 5618   3.807   0.581   2.166 -0.4014  0.1378  0.1432
 1405SOL    HW3 5619   3.846   0.500   2.044  1.4771  0.9792  0.1705
 1405SOL    MW4 5620   3.835   0.506   2.131 -0.0046  0.3333  0.0454
 1406SOL     OW 5621   3.798   0.757   2.203  0.3984 -0.5691  0.0023
 1406SOL    HW2 5622   3.808   0.751   2.299  0.2178 -0.8496  0.0011
 1406SOL    HW3 5623   3.877   0.805   2.175  0.7205 -0.9592  0.2339
 1406SOL    MW4 5624   3.810   0.763   2.212  0.4170 -0.6576  0.0327
 1407SOL     OW 5625   3.579   0.890   2.117  0.3532 -0.1469  0.4812
 1407SOL    HW2 5626   3.651   0.841   2.156 -1.2425 -1.7561  1.4598
 1407SOL    HW3 5627   3.601   0.893   2.023  2.4341  0.7094  0.9659
 1407SOL    MW4 5628   3.592   0.884   2.109  0.4172 -0.2462  0.6743
 1408SOL     OW 5629   3.577   1.136   2.213  0.7384 -0.3565 -0.1840
 1408SOL    HW2 5630   3.581   1.132   2.308 -1.4098 -0.6821 -0.0816
 1408SOL    HW3 5631   3.575   1.045   2.185  1.6119 -0.2635 -0.5551
 1408SOL    MW4 5632   3.577   1.124   2.222  0.5702 -0.3872 -0.2194
 1409SOL     OW 5633   3.815   1.239   2.108 -0.0149 -0.0174 -0.3789
 1409SOL    HW2 5634   3.839   1.325   2.144  0.7592 -0.6379  0.6190
 1409SOL    HW3 5635   3.723   1.228   2.132  0.4339 -0.3222  1.2316
 1409SOL    MW4 5636   3.806   1.249   2.116  0.1465 -0.1395 -0.0348
 1410SOL     OW 5637   3.855   1.488   2.189 -0.2656  0.7022 -0.2286
 1410SOL    HW2 5638   3.830   1.492   2.281  0.2493  1.6990 -0.1226
 1410SOL    HW3 5639   3.782   1.528   2.142 -0.8797 -0.5162 -0.3344
 1410SOL    MW4 5640   3.842   1.494   2.195 -0.2787  0.6730 -0.2286
 1411SOL     OW 5641   3.585   1.641   2.145 -0.0174  0.2733  0.0955
 1411SOL    HW2 5642   3.504   1.593   2.162 -0.1855 -0.3905 -2.3112
 1411SOL    HW3 5643   3.582   1.660   2.051  1.9521  1.4808  0.2527
 1411SOL    MW4 5644   3.574   1.637   2.135  0.2203  0.3450 -0.2013
 1412SOL     OW 5645   3.579   1.872   2.269  0.2951  0.1696 -0.0536
 1412SOL    HW2 5646   3.663   1.902   2.234 -0.1155  1.2115 -0.1722
 1412SOL    HW3 5647   3.569   1.783   2.235  0.8232  0.4555 -0.9794
 1412SOL    MW4 5648   3.588   1.864   2.260  0.3106  0.3448 -0.1914
 1413SOL     OW 5649   3.814   1.989   2.179 -0.0434 -0.2926 -0.1423
 1413SOL    HW2 5650   3.901   1.975   2.215  0.1401  0.9646 -0.0540
 1413SOL    HW3 5651   3.827   1.993   2.084 -0.1045 -0.7696 -0.1711
 1413SOL    MW4 5652   3.827   1.988   2.171 -0.0272 -0.1897 -0.1344
 1414SOL     OW 5653   3.827   2.256   2.275 -0.4253 -0.3374  0.0124
 1414SOL    HW2 5654   3.763   2.306   2.223 -0.5995 -0.2170  0.3438
 1414SOL    HW3 5655   3.818   2.166   2.244 -1.0451 -0.3933  0.3441
 1414SOL    MW4 5656   3.817   2.251   2.264 -0.5300 -0.3289  0.0999
 1415SOL     OW 5657   3.610   2.388   2.183  0.5046 -0.3628  0.1255
 1415SOL    HW2 5658   3.540   2.331   2.214 -0.2473  0.3499 -0.2278
 1415SOL    HW3 5659   3.606   2.381   2.088  1.0987 -0.5319  0.1127
 1415SOL    MW4 5660   3.600   2.380   2.175  0.4838 -0.2911  0.0772
 1416SOL     OW 5661   3.648   2.668   2.247 -0.2350  0.0136 -0.4134
 1416SOL    HW2 5662   3.618   2.582   2.220  0.1894 -0.2255 -0.1261
 1416SOL    HW3 5663   3.572   2.725   2.234 -0.4150 -0.3355 -0.9231
 1416SOL    MW4 5664   3.634   2.665   2.242 -0.2028 -0.0640 -0.4427
 1417SOL     OW 5665   3.844   2.803   2.116  0.0236 -0.0974  0.6418
 1417SOL    HW2 5666   3.854   2.893   2.147  0.8341 -0.8284  2.5531
 1417SOL    HW3 5667   3.768   2.770   2.164  0.1865 -0.6781  0.4943
 1417SOL    MW4 5668   3.835   2.811   2.126  0.1521 -0.2705  0.8745
 1418SOL     OW 5669   3.837   3.051   2.249  0.3561 -0.2259 -0.0727
 1418SOL    HW2 5670   3.832   3.062   2.344  0.5430  0.3430 -0.1289
 1418SOL    HW3 5671   3.890   3.124   2.219  0.3289 -0.4271 -0.6148
 1418SOL    MW4 5672   3.844   3.062   2.258  0.3772 -0.1774 -0.1516
 1419SOL     OW 5673   3.596   3.165   2.165 -0.3896  0.1437  0.0648
 1419SOL    HW2 5674   3.608   3.252   2.202 -1.4654  0.0138  0.7354
 1419SOL    HW3 5675   3.664   3.111   2.206  0.4444  0.7176 -0.5478
 1419SOL    MW4 5676   3.606   3.169   2.175 -0.4215  0.2023  0.0725
 1420SOL     OW 5677   3.624   3.417   2.251  0.2780  0.5140 -0.2827
 1420SOL    HW2 5678   3.630   3.438   2.344 -0.1467 -2.3216  0.4240
 1420SOL    HW3 5679   3.706   3.451   2.214  0.9900  0.6206  1.3401
 1420SOL    MW4 5680   3.636   3.424   2.259  0.3159  0.1539  0.0246
 1421SOL     OW 5681   3.819   3.576   2.148 -0.4293  0.5929 -0.4849
 1421SOL    HW2 5682   3.810   3.655   2.200  2.1863  1.1043 -0.7623
 1421SOL    HW3 5683   3.804   3.604   2.058 -2.4383  0.1799 -0.3078
 1421SOL    MW4 5684   3.816   3.590   2.143 -0.3492  0.6059 -0.4981
 1422SOL     OW 5685   3.799   3.835   2.252  0.2530 -0.2015  0.0227
 1422SOL    HW2 5686   3.817   3.833   2.345  1.2735  1.2036 -0.1288
 1422SOL    HW3 5687   3.871   3.885   2.214 -1.3118  1.2016 -1.2206
 1422SOL    MW4 5688   3.811   3.841   2.259  0.1812  0.1690 -0.1613
 1423SOL     OW 5689   3.630   3.978   2.089 -0.3460 -0.3391  0.2194
 1423SOL    HW2 5690   3.605   4.057   2.138 -1.8174 -0.2338 -0.7007
 1423SOL    HW3 5691   3.679   3.926   2.153  0.5975  1.2810  0.8617
 1423SOL    MW4 5692   3.633   3.982   2.104 -0.4156 -0.1115  0.1828
 1424SOL     OW 5693   3.614   4.246   2.238  0.1532 -0.4225 -0.3268
 1424SOL    HW2 5694   3.685   4.303   2.209 -0.1755  1.1320  1.8037
 1424SOL    HW3 5695   3.534   4.294   2.215 -0.1652 -0.8010 -0.0134
 1424SOL    MW4 5696   3.613   4.260   2.231  0.0678 -0.2674 -0.0044
 1425SOL     OW 5697   3.833   4.389   2.116 -0.2092  0.1067  0.1099
 1425SOL    HW2 5698   3.900   4.331   2.151 -0.8058 -0.4336  0.3851
 1425SOL    HW3 5699   3.844   4.470   2.165  0.5571  0.1864 -0.1928
 1425SOL    MW4 5700   3.843   4.392   2.127 -0.1868  0.0459  0.1063
 1426SOL     OW 5701   4.234   4.640   2.235 -0.1101  0.4453 -0.1019
 1426SOL    HW2 5702   4.230   4.625   2.330  1.2460  1.2518  0.0841
 1426SOL    HW3 5703   4.319   4.680   2.220 -1.1375  2.2251 -1.4075
 1426SOL    MW4 5704   4.245   4.643   2.246 -0.0667  0.7865 -0.2497
 1427SOL     OW 5705   4.066   0.139   1.884  0.5876  0.7109 -0.1109
 1427SOL    HW2 5706   4.063   0.120   1.977  0.3101  0.7996 -0.1034
 1427SOL    HW3 5707   3.989   0.096   1.847  0.4438  1.0673 -0.2294
 1427SOL    MW4 5708   4.055   0.130   1.891  0.5320  0.7697 -0.1256
 1428SOL     OW 5709   4.035   0.360   2.270  0.2249  0.4261  0.0535
 1428SOL    HW2 5710   4.110   0.398   2.225  0.6289  0.0775  0.4262
 1428SOL    HW3 5711   3.959   0.406   2.234  0.5687  0.3468 -0.7670
 1428SOL    MW4 5712   4.035   0.371   2.260  0.3236  0.3697 -0.0056
 1429SOL     OW 5713   4.242   0.477   2.110  0.4637 -0.3081  0.6566
 1429SOL    HW2 5714   4.247   0.560   2.158  0.9258  0.1284 -0.1329
 1429SOL    HW3 5715   4.319   0.428   2.139  0.6606 -0.1061  0.4849
 1429SOL    MW4 5716   4.253   0.481   2.120  0.5506 -0.2239  0.5298
 1430SOL     OW 5717   4.253   0.735   2.248 -0.0395 -0.0977  0.1726
 1430SOL    HW2 5718   4.168   0.771   2.221 -0.6285 -2.5217 -1.3817
 1430SOL    HW3 5719   4.317   0.798   2.216 -1.2168  1.4294  0.7819
 1430SOL    MW4 5720   4.250   0.748   2.240 -0.2725 -0.2160  0.0479
 1431SOL     OW 5721   4.037   0.862   2.108  0.3185  0.0817 -0.0488
 1431SOL    HW2 5722   4.044   0.954   2.130 -0.4706  0.1137  0.0894
 1431SOL    HW3 5723   4.046   0.859   2.013 -0.3081  0.3684 -0.1167
 1431SOL    MW4 5724   4.039   0.873   2.098  0.1317  0.1237 -0.0395
 1432SOL     OW 5725   4.034   1.124   2.207 -0.0753  0.3500 -0.1447
 1432SOL    HW2 5726   4.016   1.140   2.300  1.0264 -0.9728  0.3241
 1432SOL    HW3 5727   3.953   1.147   2.162 -1.0762 -0.2882  1.2965
 1432SOL    MW4 5728   4.021   1.129   2.213 -0.0620  0.0913  0.1073
 1433SOL     OW 5729   4.251   1.264   2.097  0.1298 -0.4472  0.0550
 1433SOL    HW2 5730   4.182   1.209   2.134 -0.2256 -1.1867 -1.6648
 1433SOL    HW3 5731   4.331   1.236   2.141 -0.1847 -1.7512 -0.1900
 1433SOL    MW4 5732   4.252   1.253   2.107  0.0414 -0.7168 -0.2043
 1434SOL     OW 5733   4.275   1.493   2.243  0.1160  0.1030 -0.1114
 1434SOL    HW2 5734   4.274   1.410   2.196  0.6577  0.0210  0.0175
 1434SOL    HW3 5735   4.341   1.546   2.198 -1.5433  1.1460 -1.3387
 1434SOL    MW4 5736   4.284   1.489   2.231 -0.0315  0.2298 -0.2564
 1435SOL     OW 5737   4.065   1.644   2.138  0.0486  0.2913 -0.2495
 1435SOL    HW2 5738   4.138   1.594   2.174  0.7135  1.6671  0.3560
 1435SOL    HW3 5739   3.987   1.593   2.160  0.8444 -1.3150 -1.1370
 1435SOL    MW4 5740   4.064   1.631   2.146  0.2413  0.2609 -0.2867
 1436SOL     OW 5741   4.061   1.894   2.254  0.3733 -0.7516 -0.3946
 1436SOL    HW2 5742   4.062   1.884   2.349  1.3533  1.3054 -0.1571
 1436SOL    HW3 5743   4.055   1.805   2.220 -1.7861 -1.4198  1.6100
 1436SOL    MW4 5744   4.060   1.881   2.262  0.2177 -0.5684 -0.0988
 1437SOL     OW 5745   4.289   2.065   2.189  0.1488 -0.1778  0.5494
 1437SOL    HW2 5746   4.282   2.154   2.225 -1.3080  0.2665 -0.7827
 1437SOL    HW3 5747   4.212   2.019   2.224 -0.2297 -0.2960 -0.4177
 1437SOL    MW4 5748   4.278   2.071   2.198 -0.0934 -0.1348  0.2461
 1438SOL     OW 5749   4.262   2.313   2.273  0.1510  0.1934 -0.0486
 1438SOL    HW2 5750   4.186   2.352   2.230  0.5481  2.4367  1.2158
 1438SOL    HW3 5751   4.337   2.358   2.235  0.9172 -2.3117 -1.6054
 1438SOL    MW4 5752   4.262   2.324   2.263  0.3045  0.1588 -0.0872
 1439SOL     OW 5753   4.028   2.402   2.115 -0.4622 -0.1547  0.1229
 1439SOL    HW2 5754   4.025   2.493   2.145  0.6763 -0.0486 -0.0716
 1439SOL    HW3 5755   3.982   2.353   2.183  0.5296  0.3193  1.1480
 1439SOL    MW4 5756   4.021   2.408   2.128 -0.1811 -0.0782  0.2325
 1440SOL     OW 5757   4.026   2.645   2.239  0.0472  0.2728  0.3727
 1440SOL    HW2 5758   4.025   2.664   2.333 -0.2957  1.3255  0.1686
 1440SOL    HW3 5759   3.958   2.702   2.202 -1.3604 -1.7477 -0.2361
 1440SOL    MW4 5760   4.017   2.655   2.246 -0.1838  0.1451  0.2654
 1441SOL     OW 5761   4.244   2.812   2.156 -0.0766  0.4606 -0.3175
 1441SOL    HW2 5762   4.169   2.757   2.182  0.2490  0.2977  0.2888
 1441SOL    HW3 5763   4.313   2.789   2.218  0.7782 -0.0628 -1.4465
 1441SOL    MW4 5764   4.243   2.802   2.168  0.0791  0.3700 -0.3865
 1442SOL     OW 5765   4.024   3.236   2.146 -0.2025  0.4317 -0.1225
 1442SOL    HW2 5766   4.033   3.318   2.194 -1.8174 -0.7212  2.2479
 1442SOL    HW3 5767   4.093   3.180   2.181  1.7406  1.1142 -2.6473
 1442SOL    MW4 5768   4.034   3.239   2.157 -0.1592  0.3697 -0.1429
 1443SOL     OW 5769   4.220   3.080   2.270  0.6347  0.1629  0.3505
 1443SOL    HW2 5770   4.216   2.992   2.233  1.1943  0.4271 -0.3640
 1443SOL    HW3 5771   4.292   3.122   2.222  0.7532  0.8123  1.0951
 1443SOL    MW4 5772   4.229   3.074   2.259  0.7242  0.2835  0.3544
 1444SOL     OW 5773   4.056   3.495   2.267 -0.0851  0.4129 -0.4556
 1444SOL    HW2 5774   4.126   3.525   2.208  0.6573  1.3713  0.9049
 1444SOL    HW3 5775   3.976   3.532   2.229  0.2939  0.4453 -1.2479
 1444SOL    MW4 5776   4.055   3.504   2.254  0.0628  0.5436 -0.3806
 1445SOL     OW 5777   4.266   3.598   2.145 -0.6455 -1.1173  0.6354
 1445SOL    HW2 5778   4.253   3.692   2.155 -0.6219 -0.9351 -0.9526
 1445SOL    HW3 5779   4.288   3.586   2.053  0.2004 -2.5899  1.0051
 1445SOL    MW4 5780   4.267   3.609   2.134 -0.5308 -1.2875  0.4747
 1446SOL     OW 5781   4.255   3.873   2.235  0.4541 -0.4838 -0.2332
 1446SOL    HW2 5782   4.260   3.867   2.330 -0.2182  0.0289 -0.1616
 1446SOL    HW3 5783   4.339   3.911   2.209  0.8582 -1.1372  0.1048
 1446SOL    MW4 5784   4.267   3.877   2.244  0.4187 -0.5024 -0.1791
 1447SOL     OW 5785   4.019   3.998   2.159  0.5941  0.0003 -0.4263
 1447SOL    HW2 5786   4.100   3.973   2.205  0.3777 -0.9942 -0.5766
 1447SOL    HW3 5787   4.044   4.000   2.067  0.8122  1.1391 -0.3434
 1447SOL    MW4 5788   4.033   3.995   2.153  0.5943  0.0194 -0.4352
 1448SOL     OW 5789   4.062   4.265   2.232  0.0736 -0.0486 -0.0041
 1448SOL    HW2 5790   4.121   4.316   2.176 -2.5462  1.7427 -1.2341
 1448SOL    HW3 5791   4.041   4.187   2.180 -0.1032  0.2248 -0.3477
 1448SOL    MW4 5792   4.067   4.262   2.218 -0.2954  0.2238 -0.2117
 1449SOL     OW 5793   4.243   4.409   2.080 -0.6295  0.0380  0.0016
 1449SOL    HW2 5794   4.228   4.486   2.135 -0.0768  0.4015 -0.3546
 1449SOL    HW3 5795   4.312   4.360   2.125 -1.6633 -0.7707  0.7509
 1449SOL    MW4 5796   4.250   4.412   2.093 -0.6930 -0.0207  0.0534
 1450SOL     OW 5797   0.208   4.608   2.508 -0.2654 -0.2854 -0.2491
 1450SOL    HW2 5798   0.219   4.528   2.559  0.3798  1.1622  1.9815
 1450SOL    HW3 5799   0.123   4.642   2.536 -1.5672 -1.2790 -2.8240
 1450SOL    MW4 5800   0.199   4.602   2.518 -0.3521 -0.2255 -0.2945
 1451SOL     OW 5801   4.454   0.070   2.615 -0.0872 -0.4696 -0.0624
 1451SOL    HW2 5802   4.468   0.078   2.709  1.4955 -0.7278 -0.2516
 1451SOL    HW3 5803   4.477   0.157   2.580 -0.8919 -0.3035 -0.1960
 1451SOL    MW4 5804   4.459   0.083   2.623  0.0155 -0.4818 -0.1050
 1452SOL     OW 5805   0.024   0.328   2.494 -0.0492 -0.4135  0.0387
 1452SOL    HW2 5806   0.092   0.390   2.519 -0.2426 -0.4369  0.6288
 1452SOL    HW3 5807   0.006   0.348   2.402  0.2339  0.0742  0.0877
 1452SOL    MW4 5808   0.031   0.339   2.485 -0.0374 -0.3523  0.1230
 1453SOL     OW 5809   0.233   0.508   2.559 -0.2586  0.4963 -0.6100
 1453SOL    HW2 5810   0.243   0.485   2.652 -0.4415  0.3652 -0.6215
 1453SOL    HW3 5811   0.306   0.464   2.515  1.0086  2.1785 -0.2675
 1453SOL    MW4 5812   0.244   0.499   2.566 -0.1155  0.7009 -0.5663
 1454SOL     OW 5813   0.217   0.775   2.528 -0.1999  0.0697  0.2774
 1454SOL    HW2 5814   0.292   0.814   2.573  0.4244 -0.1284 -0.5842
 1454SOL    HW3 5815   0.219   0.683   2.554  0.1486 -0.0401 -0.1241
 1454SOL    MW4 5816   0.227   0.768   2.537 -0.0715  0.0291  0.1108
 1455SOL     OW 5817   4.481   0.886   2.620 -0.1227 -0.1703  0.2159
 1455SOL    HW2 5818   4.415   0.825   2.587 -0.4518  1.9740 -3.3003
 1455SOL    HW3 5819   4.564   0.846   2.597 -0.2838 -0.3945  0.0264
 1455SOL    MW4 5820   4.483   0.873   2.613 -0.1874  0.0830 -0.2730
 1456SOL     OW 5821   0.002   1.140   2.517 -0.5299 -0.0643 -0.7456
 1456SOL    HW2 5822   0.077   1.182   2.559 -1.0778  1.0567 -0.8880
 1456SOL    HW3 5823  -0.000   1.052   2.555 -0.6917  0.7427  1.1682
 1456SOL    MW4 5824   0.012   1.134   2.527 -0.6235  0.1901 -0.5119
 1457SOL     OW 5825   0.224   1.255   2.650  0.0216  0.4763  0.4645
 1457SOL    HW2 5826   0.302   1.210   2.618  0.3002  0.4148  1.2300
 1457SOL    HW3 5827   0.229   1.343   2.611 -0.5786 -0.1720 -1.1193
 1457SOL    MW4 5828   0.235   1.261   2.640 -0.0208  0.3827  0.3565
 1458SOL     OW 5829   0.180   1.499   2.526  0.2062  0.1595 -0.0466
 1458SOL    HW2 5830   0.255   1.554   2.549  0.6523  1.0989 -3.3850
 1458SOL    HW3 5831   0.104   1.549   2.553  0.7382 -0.2696  2.2958
 1458SOL    MW4 5832   0.180   1.513   2.532  0.3352  0.2268 -0.1780
 1459SOL     OW 5833   4.444   1.657   2.615  0.5233  0.2863 -0.4192
 1459SOL    HW2 5834   4.485   1.659   2.702  1.1461 -1.5189 -0.6665
 1459SOL    HW3 5835   4.454   1.747   2.583  0.7725  0.8409  1.1437
 1459SOL    MW4 5836   4.451   1.669   2.623  0.6384  0.1213 -0.2456
 1460SOL     OW 5837   4.469   1.922   2.516 -0.1515  0.2328 -0.3888
 1460SOL    HW2 5838   4.540   1.981   2.542  0.8077 -0.9157 -0.3705
 1460SOL    HW3 5839   4.485   1.904   2.424 -0.6540  0.2904 -0.4868
 1460SOL    MW4 5840   4.481   1.928   2.507 -0.0912  0.0889 -0.3993
 1461SOL     OW 5841   0.195   2.060   2.620 -0.1260  0.2083 -0.0506
 1461SOL    HW2 5842   0.277   2.022   2.588  0.1042 -0.1031  0.8795
 1461SOL    HW3 5843   0.203   2.154   2.602  1.0861  0.4001  1.3733
 1461SOL    MW4 5844   0.207   2.068   2.613  0.0643  0.1925  0.2600
 1462SOL     OW 5845   0.220   2.318   2.513  0.1659 -0.5573  0.2007
 1462SOL    HW2 5846   0.298   2.358   2.553  1.2949  1.1365 -3.5307
 1462SOL    HW3 5847   0.148   2.374   2.543  0.9910  0.7191 -0.1328
 1462SOL    MW4 5848   0.221   2.331   2.522  0.4237 -0.1654 -0.3356
 1463SOL     OW 5849   0.015   2.451   2.607 -0.1718  0.2144  0.3520
 1463SOL    HW2 5850   0.003   2.448   2.702 -0.2729 -0.5317  0.3127
 1463SOL    HW3 5851  -0.046   2.386   2.573  2.1610 -1.8177 -0.0043
 1463SOL    MW4 5852   0.005   2.442   2.615  0.1226 -0.1522  0.2998
 1464SOL     OW 5853   0.023   2.733   2.532  0.5704  0.0890  0.1611
 1464SOL    HW2 5854  -0.059   2.781   2.535  0.8291  0.4845  1.7934
 1464SOL    HW3 5855   0.004   2.650   2.576  0.9547  0.0597  0.2814
 1464SOL    MW4 5856   0.010   2.728   2.538  0.6553  0.1373  0.3923
 1465SOL     OW 5857   0.221   2.867   2.651  0.0149  0.0097  0.2951
 1465SOL    HW2 5858   0.156   2.819   2.601  2.0313 -2.6850  0.1519
 1465SOL    HW3 5859   0.217   2.956   2.615 -1.3883 -0.8735 -1.8744
 1465SOL    MW4 5860   0.212   2.873   2.639  0.0958 -0.4624 -0.0101
 1466SOL     OW 5861   0.223   3.126   2.562  0.5499  0.1267 -0.4640
 1466SOL    HW2 5862   0.314   3.154   2.568  1.1461 -1.7257 -0.6378
 1466SOL    HW3 5863   0.206   3.118   2.468  0.1269  0.7068 -0.4404
 1466SOL    MW4 5864   0.233   3.128   2.550  0.5727 -0.0412 -0.4838
 1467SOL     OW 5865   4.467   3.195   2.697  0.0061 -0.0942 -0.0174
 1467SOL    HW2 5866   4.400   3.135   2.666  0.3461 -0.0995 -0.7597
 1467SOL    HW3 5867   4.546   3.170   2.648  0.0805  1.1403 -0.5572
 1467SOL    MW4 5868   4.469   3.184   2.687  0.0608  0.0680 -0.1866
 1468SOL     OW 5869   4.489   3.425   2.550 -0.0922  0.6557  0.2604
 1468SOL    HW2 5870   4.561   3.476   2.585  0.6272  0.7550 -1.2935
 1468SOL    HW3 5871   4.477   3.354   2.613  1.2290  0.7539  0.6416
 1468SOL    MW4 5872   4.497   3.422   2.563  0.1771  0.6817  0.1057
 1469SOL     OW 5873   0.222   3.590   2.667  0.4804  0.8234 -0.1100
 1469SOL    HW2 5874   0.214   3.550   2.754 -0.1948 -0.4715 -0.7553
 1469SOL    HW3 5875   0.296   3.546   2.626 -0.5656 -0.1581 -1.0029
 1469SOL    MW4 5876   0.230   3.579   2.673  0.2533  0.5230 -0.3129
 1470SOL     OW 5877   0.202   3.853   2.546  0.5962  0.2226  0.1765
 1470SOL    HW2 5878   0.204   3.762   2.575  0.5417  0.4086  0.7805
 1470SOL    HW3 5879   0.187   3.848   2.452 -0.8729 -0.3726  0.4203
 1470SOL    MW4 5880   0.200   3.840   2.538  0.3952  0.1686  0.2883
 1471SOL     OW 5881   0.007   4.044   2.648 -0.2223  1.0959 -0.1196
 1471SOL    HW2 5882   0.085   3.999   2.616 -0.1122  0.8887  0.4203
 1471SOL    HW3 5883   0.016   4.134   2.616  0.6270  1.2698  0.5634
 1471SOL    MW4 5884   0.019   4.050   2.640 -0.0957  1.0915  0.0418
 1472SOL     OW 5885   4.455   4.293   2.515  0.2983  0.1523  0.3068
 1472SOL    HW2 5886   4.499   4.356   2.573 -1.2964  1.2687  0.3539
 1472SOL    HW3 5887   4.366   4.288   2.549  0.1932 -1.5596 -0.1886
 1472SOL    MW4 5888   4.449   4.301   2.527  0.0740  0.0738  0.2477
 1473SOL     OW 5889   0.235   4.390   2.659 -0.0805 -0.5416 -0.0434
 1473SOL    HW2 5890   0.246   4.372   2.752 -0.5493 -0.0290  0.1164
 1473SOL    HW3 5891   0.299   4.334   2.616  1.5890  0.7559  0.7095
 1473SOL    MW4 5892   0.245   4.380   2.666  0.0779 -0.3028  0.0770
 1474SOL     OW 5893   0.680   4.649   2.472 -0.2341 -0.2508  0.4383
 1474SOL    HW2 5894   0.759   4.694   2.503  0.6381 -0.8437 -0.8655
 1474SOL    HW3 5895   0.608   4.694   2.516  0.6465  2.1179 -0.4304
 1474SOL    MW4 5896   0.681   4.661   2.482 -0.0028 -0.0165  0.1516
 1475SOL     OW 5897   0.439   0.070   2.588  0.3491  0.1157 -0.2711
 1475SOL    HW2 5898   0.434   0.074   2.683  1.3036 -0.0842 -0.2077
 1475SOL    HW3 5899   0.357   0.026   2.562  0.6608 -0.9890  0.5450
 1475SOL    MW4 5900   0.427   0.065   2.597  0.5161 -0.0565 -0.1550
 1476SOL     OW 5901   0.441   0.346   2.485  0.0482  0.5946  0.1950
 1476SOL    HW2 5902   0.504   0.383   2.547  1.4166  1.1852 -1.4825
 1476SOL    HW3 5903   0.435   0.254   2.509  0.4824  0.8412  1.2627
 1476SOL    MW4 5904   0.449   0.339   2.496  0.2860  0.7051  0.1145
 1477SOL     OW 5905   0.626   0.495   2.629 -0.2297  0.0483  0.1119
 1477SOL    HW2 5906   0.641   0.504   2.723 -0.0930  0.4928  0.0469
 1477SOL    HW3 5907   0.713   0.475   2.593 -0.4795 -1.2741  0.2225
 1477SOL    MW4 5908   0.640   0.493   2.636 -0.2446 -0.0675  0.1179
 1478SOL     OW 5909   0.659   0.743   2.498  0.2182 -0.2363 -0.0017
 1478SOL    HW2 5910   0.727   0.794   2.543  0.4254 -1.2973  0.9213
 1478SOL    HW3 5911   0.652   0.663   2.550  0.8515 -1.7400 -2.1781
 1478SOL    MW4 5912   0.667   0.739   2.511  0.3291 -0.5747 -0.1671
 1479SOL     OW 5913   0.441   0.871   2.629  0.0345 -0.2608  0.3034
 1479SOL    HW2 5914   0.433   0.961   2.598 -0.7944 -0.0480  1.1116
 1479SOL    HW3 5915   0.498   0.828   2.565 -0.4656  0.5500 -0.6893
 1479SOL    MW4 5916   0.448   0.877   2.617 -0.1409 -0.1258  0.2791
 1480SOL     OW 5917   0.463   1.133   2.555  0.1234  0.1506 -0.3583
 1480SOL    HW2 5918   0.532   1.186   2.596  0.8520 -1.4528  0.5602
 1480SOL    HW3 5919   0.490   1.126   2.463  0.9544 -0.0617 -0.1071
 1480SOL    MW4 5920   0.476   1.139   2.548  0.3292 -0.0890 -0.2039
 1481SOL     OW 5921   0.654   1.320   2.636 -0.2239  0.4060 -0.1393
 1481SOL    HW2 5922   0.647   1.281   2.723 -2.1709  1.0732  0.0360
 1481SOL    HW3 5923   0.726   1.273   2.594 -0.9734 -1.7426  0.8914
 1481SOL    MW4 5924   0.662   1.309   2.642 -0.5797  0.2106  0.0198
 1482SOL     OW 5925   0.640   1.575   2.528  0.7608 -0.1011  0.4326
 1482SOL    HW2 5926   0.559   1.619   2.552  1.4169  1.1603  0.3623
 1482SOL    HW3 5927   0.640   1.494   2.580  0.0900  0.5235  1.4148
 1482SOL    MW4 5928   0.630   1.570   2.538  0.7588  0.1478  0.5529
 1483SOL     OW 5929   0.405   1.654   2.626 -0.2014 -0.1918  0.7138
 1483SOL    HW2 5930   0.429   1.658   2.719 -0.9464  0.9090  0.8680
 1483SOL    HW3 5931   0.387   1.744   2.602  1.6288 -0.2520 -0.9632
 1483SOL    MW4 5932   0.405   1.666   2.635 -0.0582 -0.0545  0.5129
 1484SOL     OW 5933   0.417   1.916   2.557 -0.2363 -0.2490  0.3661
 1484SOL    HW2 5934   0.495   1.969   2.569 -0.3568  0.3480 -1.3193
 1484SOL    HW3 5935   0.410   1.905   2.462 -2.3413 -0.0486  0.4686
 1484SOL    MW4 5936   0.426   1.921   2.546 -0.5299 -0.1438  0.1573
 1485SOL     OW 5937   0.672   2.039   2.594 -0.4706 -0.1107 -0.2856
 1485SOL    HW2 5938   0.695   2.063   2.684  1.6159 -0.6839 -0.6270
 1485SOL    HW3 5939   0.733   1.968   2.572 -0.7473  0.2181 -2.2439
 1485SOL    MW4 5940   0.683   2.032   2.603 -0.2318 -0.1429 -0.5890
 1486SOL     OW 5941   0.653   2.290   2.496 -0.0689  0.1621  0.2245
 1486SOL    HW2 5942   0.734   2.327   2.531 -0.3459  0.6694  0.3465
 1486SOL    HW3 5943   0.658   2.197   2.515  0.6400  0.1439 -0.0763
 1486SOL    MW4 5944   0.664   2.283   2.503 -0.0119  0.2267  0.2009
 1487SOL     OW 5945   0.457   2.444   2.606  0.1303 -0.6063  0.2469
 1487SOL    HW2 5946   0.444   2.532   2.571 -1.2660 -1.0354 -0.3543
 1487SOL    HW3 5947   0.504   2.397   2.538 -0.1894 -0.6618  0.0612
 1487SOL    MW4 5948   0.461   2.449   2.592 -0.0961 -0.6702  0.1431
 1488SOL     OW 5949   0.426   2.722   2.531 -0.5352  0.2811  0.3217
 1488SOL    HW2 5950   0.511   2.762   2.550  0.0444 -0.3261 -0.9121
 1488SOL    HW3 5951   0.362   2.777   2.577  0.5385  0.6564  1.3776
 1488SOL    MW4 5952   0.429   2.735   2.540 -0.3171  0.2505  0.2982
 1489SOL     OW 5953   0.669   2.822   2.638 -0.1974 -0.1126  0.0383
 1489SOL    HW2 5954   0.653   2.812   2.732 -0.1956  1.4731  0.2263
 1489SOL    HW3 5955   0.661   2.916   2.623 -2.0378 -0.5453 -1.8820
 1489SOL    MW4 5956   0.666   2.833   2.648 -0.4400  0.0395 -0.1903
 1490SOL     OW 5957   0.695   3.093   2.545  0.3310  0.1607  0.0561
 1490SOL    HW2 5958   0.785   3.118   2.566  0.6219  0.7531 -1.7805
 1490SOL    HW3 5959   0.690   3.102   2.450 -1.4300 -0.6887  0.0579
 1490SOL    MW4 5960   0.706   3.097   2.535  0.1371  0.1268 -0.1860
 1491SOL     OW 5961   0.482   3.241   2.637  0.2085  0.2449  0.1241
 1491SOL    HW2 5962   0.483   3.256   2.732  1.4068  0.4282  0.0897
 1491SOL    HW3 5963   0.564   3.196   2.619  0.1569  0.5476 -0.8858
 1491SOL    MW4 5964   0.493   3.237   2.647  0.3598  0.3090 -0.0137
 1492SOL     OW 5965   0.445   3.496   2.538 -0.5543  0.4538  0.0109
 1492SOL    HW2 5966   0.464   3.408   2.571  1.8087  1.0256  0.2833
 1492SOL    HW3 5967   0.471   3.493   2.446  1.9759  1.5177  0.6255
 1492SOL    MW4 5968   0.451   3.484   2.531  0.0913  0.6696  0.1279
 1493SOL     OW 5969   0.677   3.611   2.620  0.2293  0.2123 -0.5087
 1493SOL    HW2 5970   0.689   3.612   2.715  1.4945 -0.0491 -0.6624
 1493SOL    HW3 5971   0.588   3.578   2.608  0.3789 -0.6235  0.5617
 1493SOL    MW4 5972   0.667   3.607   2.631  0.4160  0.0676 -0.3878
 1494SOL     OW 5973   0.672   3.888   2.525 -0.1789 -0.1571  0.3547
 1494SOL    HW2 5974   0.589   3.919   2.563 -0.1681 -1.3402  1.3820
 1494SOL    HW3 5975   0.681   3.799   2.559  2.0791  0.3517  1.1479
 1494SOL    MW4 5976   0.662   3.880   2.535  0.1205 -0.2461  0.5949
 1495SOL     OW 5977   0.414   3.965   2.682  0.3311 -0.1207 -0.5316
 1495SOL    HW2 5978   0.422   4.050   2.640 -0.0253 -0.5168 -1.4301
 1495SOL    HW3 5979   0.342   3.922   2.636  0.1248 -0.6812  0.3007
 1495SOL    MW4 5980   0.406   3.970   2.670  0.2569 -0.2469 -0.5403
 1496SOL     OW 5981   0.394   4.220   2.529 -0.1698  0.0896 -0.1355
 1496SOL    HW2 5982   0.471   4.273   2.547 -0.3519  0.7042 -1.1321
 1496SOL    HW3 5983   0.385   4.222   2.434 -1.8275  0.6234  0.0164
 1496SOL    MW4 5984   0.403   4.227   2.519 -0.4126  0.2411 -0.2469
 1497SOL     OW 5985   0.613   4.386   2.564  0.1212 -0.1765 -0.3261
 1497SOL    HW2 5986   0.699   4.345   2.556 -0.0062 -1.0199  2.1218
 1497SOL    HW3 5987   0.628   4.478   2.540  1.5518 -0.4596 -0.5579
 1497SOL    MW4 5988   0.626   4.393   2.560  0.2931 -0.3251 -0.0337
 1498SOL     OW 5989   1.111   4.632   2.525  0.0893  0.5153 -0.0516
 1498SOL    HW2 5990   1.198   4.662   2.550  0.2970  1.0751 -1.4184
 1498SOL    HW3 5991   1.113   4.537   2.539  0.7310  0.6008  0.4325
 1498SOL    MW4 5992   1.122   4.623   2.530  0.2014  0.6004 -0.1680
 1499SOL     OW 5993   0.893   0.116   2.574  0.4491 -0.0204 -0.3165
 1499SOL    HW2 5994   0.890   0.114   2.669 -0.3743  0.1415 -0.3385
 1499SOL    HW3 5995   0.980   0.080   2.552 -0.0359 -1.6945  0.4197
 1499SOL    MW4 5996   0.904   0.111   2.583  0.2765 -0.2199 -0.2223
 1500SOL     OW 5997   0.878   0.414   2.510 -0.0366  0.0364 -0.1252
 1500SOL    HW2 5998   0.878   0.331   2.557  1.5119  0.4305  0.6144
 1500SOL    HW3 5999   0.888   0.390   2.418 -1.8076 -0.6809 -0.1593
 1500SOL    MW4 6000   0.879   0.400   2.504 -0.0659 -0.0062 -0.0321
 1501SOL     OW 6001   1.143   0.479   2.589 -0.3052 -0.2107 -0.4017
 1501SOL    HW2 6002   1.140   0.572   2.566 -0.5061  0.0167  0.5079
 1501SOL    HW3 6003   1.065   0.441   2.549 -0.4146  0.0874 -0.4713
 1501SOL    MW4 6004   1.132   0.486   2.581 -0.3462 -0.1414 -0.2909
 1502SOL     OW 6005   1.100   0.762   2.510  0.5178 -0.7345  0.1542
 1502SOL    HW2 6006   1.171   0.823   2.531  1.3211 -1.4130 -0.5806
 1502SOL    HW3 6007   1.095   0.764   2.414 -1.9076  0.9723  0.2588
 1502SOL    MW4 6008   1.108   0.771   2.500  0.3037 -0.5988  0.0711
 1503SOL     OW 6009   0.871   0.881   2.600 -0.3545 -0.0194  0.2488
 1503SOL    HW2 6010   0.874   0.895   2.695  0.4754  0.1629  0.2002
 1503SOL    HW3 6011   0.953   0.837   2.580  0.1765  1.3268 -0.6001
 1503SOL    MW4 6012   0.882   0.877   2.610 -0.1749  0.1822  0.1304
 1504SOL     OW 6013   0.855   1.158   2.511 -0.0879  0.1331 -0.1266
 1504SOL    HW2 6014   0.863   1.069   2.545 -0.2264  0.5459  0.9985
 1504SOL    HW3 6015   0.864   1.148   2.416  1.0372 -0.9411  0.0759
 1504SOL    MW4 6016   0.857   1.144   2.503  0.0423  0.0458  0.0486
 1505SOL     OW 6017   1.097   1.262   2.600 -0.5526 -0.4436 -0.0942
 1505SOL    HW2 6018   1.109   1.351   2.566  2.4009 -0.3060  1.1811
 1505SOL    HW3 6019   1.009   1.238   2.572 -1.8722  3.3163  0.4982
 1505SOL    MW4 6020   1.087   1.271   2.592 -0.3370  0.0706  0.1522
 1506SOL     OW 6021   1.129   1.535   2.500  0.0578  0.2134  0.3065
 1506SOL    HW2 6022   1.050   1.566   2.545 -0.3867 -0.4241 -0.0257
 1506SOL    HW3 6023   1.110   1.550   2.407  0.0323 -0.5968  0.1752
 1506SOL    MW4 6024   1.116   1.541   2.494 -0.0042  0.0224  0.2454
 1507SOL     OW 6025   0.906   1.633   2.631 -0.2064  0.4032  0.1001
 1507SOL    HW2 6026   0.914   1.619   2.725  0.9871  1.4109  0.1635
 1507SOL    HW3 6027   0.815   1.613   2.611 -0.0978 -1.2604  1.2143
 1507SOL    MW4 6028   0.895   1.629   2.640 -0.0346  0.3167  0.2555
 1508SOL     OW 6029   0.905   1.870   2.521 -0.4594  0.2353  0.0650
 1508SOL    HW2 6030   0.974   1.921   2.565  1.0685 -1.6855 -0.0370
 1508SOL    HW3 6031   0.905   1.786   2.566 -1.9121 -0.2200 -0.7606
 1508SOL    MW4 6032   0.914   1.866   2.532 -0.4495 -0.0782 -0.0574
 1509SOL     OW 6033   1.112   2.048   2.626  0.2219  0.0408  0.6332
 1509SOL    HW2 6034   1.181   2.019   2.567 -1.4281 -1.1529 -0.7827
 1509SOL    HW3 6035   1.105   2.142   2.612 -0.8029 -0.3723 -1.8289
 1509SOL    MW4 6036   1.120   2.056   2.616 -0.1310 -0.1712  0.1215
 1510SOL     OW 6037   1.110   2.322   2.577 -0.2126 -0.3068 -0.1622
 1510SOL    HW2 6038   1.122   2.322   2.482 -0.4983  0.1825 -0.1987
 1510SOL    HW3 6039   1.185   2.370   2.612 -1.2066  1.3651 -0.2853
 1510SOL    MW4 6040   1.121   2.328   2.569 -0.3815 -0.0217 -0.1832
 1511SOL     OW 6041   0.867   2.411   2.631 -0.3855 -0.1820  0.0655
 1511SOL    HW2 6042   0.880   2.505   2.618  0.4817 -0.2203  0.6284
 1511SOL    HW3 6043   0.954   2.372   2.618 -0.7549 -0.9192 -0.2660
 1511SOL    MW4 6044   0.881   2.418   2.627 -0.3198 -0.2843  0.0960
 1512SOL     OW 6045   0.905   2.670   2.561 -0.0265  0.2098  0.3806
 1512SOL    HW2 6046   0.982   2.718   2.592  0.1326  0.3410 -0.2055
 1512SOL    HW3 6047   0.831   2.725   2.586  0.2407  1.5531 -1.6869
 1512SOL    MW4 6048   0.906   2.684   2.569  0.0298  0.4043  0.0305
 1513SOL     OW 6049   1.131   2.844   2.616 -0.1155 -0.1399 -0.5637
 1513SOL    HW2 6050   1.202   2.781   2.599 -1.0925 -1.7129  1.1372
 1513SOL    HW3 6051   1.127   2.851   2.711 -1.8097  0.4468 -0.6665
 1513SOL    MW4 6052   1.140   2.837   2.626 -0.4679 -0.2700 -0.3529
 1514SOL     OW 6053   1.146   3.103   2.512  0.2788 -0.4779 -0.2677
 1514SOL    HW2 6054   1.142   3.012   2.542  0.2476 -0.4457 -0.1713
 1514SOL    HW3 6055   1.143   3.098   2.417 -1.6054 -0.5030 -0.2425
 1514SOL    MW4 6056   1.145   3.090   2.504  0.0261 -0.4769 -0.2516
 1515SOL     OW 6057   0.931   3.212   2.637  0.5684  0.5457  0.1288
 1515SOL    HW2 6058   0.914   3.298   2.599  0.3583  0.5976  0.3437
 1515SOL    HW3 6059   1.016   3.187   2.600 -1.1113 -0.8642 -3.0376
 1515SOL    MW4 6060   0.940   3.220   2.627  0.3190  0.3665 -0.2606
 1516SOL     OW 6061   0.887   3.462   2.531  0.0000  0.0000  0.3082
 1516SOL    HW2 6062   0.961   3.509   2.571  0.0000  0.0000  0.3581
 1516SOL    HW3 6063   0.810   3.512   2.560  0.0000  0.0000  0.2293
 1516SOL    MW4 6064   0.887   3.475   2.540  0.0000  0.0000  0.3044
 1517SOL     OW 6065   1.102   3.599   2.632  0.0000  0.0000  0.0067
 1517SOL    HW2 6066   1.101   3.626   2.724  0.0000  0.0000  0.0070
 1517SOL    HW3 6067   1.100   3.681   2.583  0.0000  0.0000  0.0065
 1517SOL    MW4 6068   1.102   3.613   2.637  0.0000  0.0000  0.0067
 1518SOL     OW 6069   1.098   3.851   2.522  0.0000  0.0000  0.0240
 1518SOL    HW2 6070   1.178   3.889   2.560  0.0000  0.0000  0.0191
 1518SOL    HW3 6071   1.110   3.859   2.428  0.0000  0.0000  0.0231
 1518SOL    MW4 6072   1.110   3.857   2.515  0.0000  0.0000  0.0232
 1519SOL     OW 6073   0.893   4.008   2.643  0.0000  0.0000 -0.0685
 1519SOL    HW2 6074   0.957   3.963   2.588  0.0000  0.0000 -0.0789
 1519SOL    HW3 6075   0.809   3.969   2.617  0.0000  0.0000 -0.0531
 1519SOL    MW4 6076   0.890   3.997   2.632  0.0000  0.0000 -0.0678
 1520SOL     OW 6077   0.888   4.266   2.534  0.0000  0.0000  0.1669
 1520SOL    HW2 6078   0.892   4.173   2.559  0.0000  0.0000  0.1661
 1520SOL    HW3 6079   0.884   4.265   2.438  0.0000  0.0000  0.1670
 1520SOL    MW4 6080   0.888   4.254   2.525  0.0000  0.0000  0.1668
 1521SOL     OW 6081   1.144   4.351   2.634  0.0000  0.0000  0.4900
 1521SOL    HW2 6082   1.137   4.378   2.725  0.0000  0.0000  0.4899
 1521SOL    HW3 6083   1.055   4.327   2.609  0.0000  0.0000  0.4910
 1521SOL    MW4 6084   1.131   4.351   2.642  0.0000  0.0000  0.4901
 1522SOL     OW 6085   1.593   4.643   2.534  0.0000  0.0000 -0.4005
 1522SOL    HW2 6086   1.588   4.549   2.550  0.0000  0.0000 -0.4035
 1522SOL    HW3 6087   1.581   4.652   2.439  0.0000  0.0000 -0.4003
 1522SOL    MW4 6088   1.591   4.632   2.524  0.0000  0.0000 -0.4008
 1523SOL     OW 6089   1.351   0.086   2.615  0.0000  0.0000 -0.0317
 1523SOL    HW2 6090   1.350   0.171   2.570  0.0000  0.0000 -0.0416
 1523SOL    HW3 6091   1.437   0.049   2.594  0.0000  0.0000 -0.0396
 1523SOL    MW4 6092   1.362   0.092   2.607  0.0000  0.0000 -0.0340
 1524SOL     OW 6093   1.360   0.344   2.479  0.0000  0.0000 -0.2217
 1524SOL    HW2 6094   1.437   0.387   2.516  0.0000  0.0000 -0.1722
 1524SOL    HW3 6095   1.286   0.396   2.513  0.0000  0.0000 -0.2713
 1524SOL    MW4 6096   1.360   0.357   2.489  0.0000  0.0000 -0.2217
 1525SOL     OW 6097   1.571   0.477   2.583  0.0478 -0.5967 -0.1112
 1525SOL    HW2 6098   1.658   0.454   2.550 -0.6471 -0.4746 -2.0855
 1525SOL    HW3 6099   1.559   0.568   2.558 -0.9672 -0.8442 -0.5380
 1525SOL    MW4 6100   1.581   0.486   2.576 -0.1778 -0.6133 -0.4280
 1526SOL     OW 6101   1.532   0.737   2.484  0.2669 -0.0253  0.0281
 1526SOL    HW2 6102   1.451   0.781   2.511  0.5494  0.3965  0.1907
 1526SOL    HW3 6103   1.541   0.759   2.391 -0.5930 -1.3030 -0.3700
 1526SOL    MW4 6104   1.523   0.746   2.475  0.1907 -0.1383 -0.0030
 1527SOL     OW 6105   1.327   0.895   2.590 -0.5583  0.0838 -0.2287
 1527SOL    HW2 6106   1.332   0.900   2.685  1.0019  1.3129 -0.3531
 1527SOL    HW3 6107   1.316   0.986   2.562  1.3504  0.0001 -1.3268
 1527SOL    MW4 6108   1.326   0.908   2.599 -0.1006  0.2350 -0.3900
 1528SOL     OW 6109   1.339   1.158   2.495  0.4022 -0.0197  0.1134
 1528SOL    HW2 6110   1.408   1.199   2.549 -1.1677  1.0875  1.3414
 1528SOL    HW3 6111   1.260   1.207   2.518 -1.1599 -2.5159  0.1526
 1528SOL    MW4 6112   1.338   1.170   2.505 -0.0110 -0.2029  0.2806
 1529SOL     OW 6113   1.578   1.229   2.613  0.6234 -0.3535  0.0331
 1529SOL    HW2 6114   1.574   1.217   2.708  0.8670 -0.4218  0.0353
 1529SOL    HW3 6115   1.649   1.172   2.585  0.1630 -0.7746 -0.2651
 1529SOL    MW4 6116   1.587   1.220   2.622  0.5948 -0.4181 -0.0060
 1530SOL     OW 6117   1.571   1.552   2.512  0.0905  0.1519 -0.0478
 1530SOL    HW2 6118   1.527   1.471   2.540 -2.7643  1.0723 -1.7199
 1530SOL    HW3 6119   1.580   1.543   2.417  0.7772  1.3281 -0.1010
 1530SOL    MW4 6120   1.567   1.540   2.504 -0.1956  0.4285 -0.2755
 1531SOL     OW 6121   1.355   1.715   2.603  0.9277  0.4022  0.2399
 1531SOL    HW2 6122   1.300   1.642   2.576  0.6008  1.1897 -1.2694
 1531SOL    HW3 6123   1.444   1.688   2.583  0.7519  0.6612 -0.8990
 1531SOL    MW4 6124   1.360   1.702   2.597  0.8614  0.5403 -0.1095
 1532SOL     OW 6125   1.316   1.951   2.478  0.8204 -0.3135 -0.4404
 1532SOL    HW2 6126   1.321   1.858   2.500  1.1436 -0.4818 -1.2222
 1532SOL    HW3 6127   1.321   1.953   2.382  1.7336  0.5757 -0.3751
 1532SOL    MW4 6128   1.317   1.939   2.468  0.9836 -0.2184 -0.5350
 1533SOL     OW 6129   1.549   2.065   2.628 -0.0801  0.0907  0.4460
 1533SOL    HW2 6130   1.621   2.025   2.580 -0.5282 -0.0963 -0.0816
 1533SOL    HW3 6131   1.470   2.034   2.583 -0.4215  1.9996 -0.3403
 1533SOL    MW4 6132   1.548   2.056   2.616 -0.1842  0.3179  0.2726
 1534SOL     OW 6133   1.529   2.304   2.502  0.7852 -0.2903  1.0111
 1534SOL    HW2 6134   1.599   2.365   2.528  0.9308 -0.2402  0.5036
 1534SOL    HW3 6135   1.543   2.227   2.558  2.7806 -1.2923 -0.7862
 1534SOL    MW4 6136   1.540   2.302   2.513  1.0677 -0.4159  0.7070
 1535SOL     OW 6137   1.361   2.432   2.668 -0.2237  0.3880  0.0067
 1535SOL    HW2 6138   1.350   2.522   2.637 -1.9934 -0.7511 -2.9916
 1535SOL    HW3 6139   1.403   2.387   2.594  0.0522 -1.3703  1.2136
 1535SOL    MW4 6140   1.365   2.438   2.654 -0.4208  0.0057 -0.2297
 1536SOL     OW 6141   1.338   2.659   2.542  0.7005  0.1607 -0.4901
 1536SOL    HW2 6142   1.416   2.703   2.576 -0.0054  1.1876 -0.1776
 1536SOL    HW3 6143   1.342   2.670   2.447  0.3800  1.1617 -0.3927
 1536SOL    MW4 6144   1.349   2.666   2.534  0.5651  0.4283 -0.4361
 1537SOL     OW 6145   1.540   2.853   2.648  0.0234  0.2110  0.3859
 1537SOL    HW2 6146   1.548   2.838   2.742 -0.0004 -2.2813  0.0189
 1537SOL    HW3 6147   1.617   2.810   2.610 -1.1578 -0.8045 -0.9096
 1537SOL    MW4 6148   1.552   2.845   2.655 -0.1356 -0.2518  0.1666
 1538SOL     OW 6149   1.558   3.112   2.559 -0.0753  0.5342  0.3363
 1538SOL    HW2 6150   1.646   3.134   2.591  0.2428  0.3708 -0.4343
 1538SOL    HW3 6151   1.546   3.020   2.583  1.2457 -0.4026 -2.4228
 1538SOL    MW4 6152   1.568   3.103   2.567  0.1410  0.3890 -0.1294
 1539SOL     OW 6153   1.346   3.258   2.629  0.3540 -0.2285 -0.4728
 1539SOL    HW2 6154   1.421   3.210   2.595  1.4160  1.1961 -0.2048
 1539SOL    HW3 6155   1.270   3.216   2.589  1.3757 -0.7867 -1.8708
 1539SOL    MW4 6156   1.346   3.246   2.619  0.6289 -0.1142 -0.6219
 1540SOL     OW 6157   1.351   3.502   2.531  0.2782 -0.0483 -0.3168
 1540SOL    HW2 6158   1.351   3.411   2.560  0.1591  0.0474 -0.0067
 1540SOL    HW3 6159   1.275   3.541   2.575  0.6875  0.3559  0.0481
 1540SOL    MW4 6160   1.341   3.495   2.540  0.3165  0.0177 -0.2278
 1541SOL     OW 6161   1.591   3.592   2.650 -0.0009  0.6541 -0.2014
 1541SOL    HW2 6162   1.660   3.541   2.609 -0.0312 -0.3195  0.9332
 1541SOL    HW3 6163   1.510   3.548   2.625 -0.1198  0.9717 -0.3781
 1541SOL    MW4 6164   1.589   3.580   2.641 -0.0206  0.5676 -0.0750
 1542SOL     OW 6165   1.553   3.859   2.561  0.3859  0.2907 -0.0061
 1542SOL    HW2 6166   1.465   3.894   2.578  0.0564  0.0279 -1.1670
 1542SOL    HW3 6167   1.547   3.767   2.587 -0.6668 -0.6056 -3.2882
 1542SOL    MW4 6168   1.541   3.851   2.567  0.2036  0.1378 -0.5923
 1543SOL     OW 6169   1.313   3.982   2.614  0.3955  0.1348  0.0748
 1543SOL    HW2 6170   1.312   3.990   2.709 -1.1677  1.0689  0.0064
 1543SOL    HW3 6171   1.328   4.072   2.583  3.3656 -0.5297 -0.5538
 1543SOL    MW4 6172   1.315   3.995   2.622  0.5811  0.1704 -0.0172
 1544SOL     OW 6173   1.347   4.227   2.520 -0.1687  0.1352  0.2941
 1544SOL    HW2 6174   1.274   4.269   2.565 -0.1158 -0.0334  0.5406
 1544SOL    HW3 6175   1.325   4.233   2.427  0.1662  1.3207  0.2804
 1544SOL    MW4 6176   1.335   4.234   2.513 -0.1176  0.2693  0.3248
 1545SOL     OW 6177   1.540   4.383   2.609  0.0286 -0.1121 -0.1859
 1545SOL    HW2 6178   1.509   4.385   2.700 -0.6383  2.1837 -0.4151
 1545SOL    HW3 6179   1.470   4.341   2.561 -0.8016  1.0278 -0.0075
 1545SOL    MW4 6180   1.527   4.378   2.615 -0.1689  0.3412 -0.1926
 1546SOL     OW 6181   2.018   4.633   2.523 -0.2274  0.5553 -0.4682
 1546SOL    HW2 6182   2.092   4.694   2.525  0.9872 -0.8793 -0.8189
 1546SOL    HW3 6183   2.012   4.607   2.431 -1.6769  1.2525 -0.5788
 1546SOL    MW4 6184   2.027   4.638   2.511 -0.2584  0.4580 -0.5291
 1547SOL     OW 6185   1.810   0.111   2.604  0.5892  0.3125  0.2179
 1547SOL    HW2 6186   1.878   0.057   2.564  0.2410  0.9062 -1.2057
 1547SOL    HW3 6187   1.728   0.070   2.576  0.3338  0.9986 -0.0505
 1547SOL    MW4 6188   1.808   0.098   2.595  0.5096  0.4813 -0.0054
 1548SOL     OW 6189   1.811   0.345   2.466 -0.2677 -0.3489 -0.2098
 1548SOL    HW2 6190   1.881   0.389   2.515 -0.5508  0.0250 -0.1374
 1548SOL    HW3 6191   1.806   0.258   2.504  0.8138 -0.7052 -0.8627
 1548SOL    MW4 6192   1.819   0.339   2.477 -0.1624 -0.3466 -0.2864
 1549SOL     OW 6193   2.040   0.472   2.577 -0.1741  0.1828  0.2085
 1549SOL    HW2 6194   2.118   0.441   2.530  0.1051  0.3505  0.5582
 1549SOL    HW3 6195   2.036   0.566   2.556 -0.1812  0.2101  0.3325
 1549SOL    MW4 6196   2.050   0.481   2.568 -0.1382  0.2085  0.2710
 1550SOL     OW 6197   1.991   0.738   2.504  0.1101  0.0696  0.2911
 1550SOL    HW2 6198   1.920   0.791   2.541 -0.2201  0.5199 -0.9694
 1550SOL    HW3 6199   1.976   0.740   2.410  1.6315 -0.0893  0.0364
 1550SOL    MW4 6200   1.979   0.745   2.497  0.2672  0.1081  0.0912
 1551SOL     OW 6201   1.754   0.864   2.611 -0.1222 -0.7872 -0.1688
 1551SOL    HW2 6202   1.745   0.952   2.576  0.6345  0.2418  2.1247
 1551SOL    HW3 6203   1.676   0.817   2.579 -0.3121  0.5543 -1.7549
 1551SOL    MW4 6204   1.742   0.869   2.602 -0.0475 -0.4744 -0.0755
 1552SOL     OW 6205   1.800   1.112   2.512 -0.1302 -0.3237 -0.0425
 1552SOL    HW2 6206   1.881   1.162   2.521 -0.0086 -0.6461  0.6823
 1552SOL    HW3 6207   1.788   1.103   2.418  0.6276 -0.1819 -0.1588
 1552SOL    MW4 6208   1.809   1.117   2.501 -0.0142 -0.3475  0.0378
 1553SOL     OW 6209   2.015   1.288   2.551  0.1929 -0.5116 -0.7352
 1553SOL    HW2 6210   2.008   1.278   2.646 -0.5386 -0.1418 -0.7445
 1553SOL    HW3 6211   2.080   1.223   2.524  0.4043 -0.6130  0.0162
 1553SOL    MW4 6212   2.023   1.278   2.560  0.1243 -0.4762 -0.6373
 1554SOL     OW 6213   2.036   1.557   2.524  0.0705  0.4442 -0.7671
 1554SOL    HW2 6214   1.950   1.583   2.559  1.3001 -0.1999  2.9875
 1554SOL    HW3 6215   2.032   1.461   2.521 -0.1704  0.5074 -2.9179
 1554SOL    MW4 6216   2.024   1.548   2.528  0.2009  0.3676 -0.5555
 1555SOL     OW 6217   1.803   1.674   2.628 -0.8397  0.1748  0.2520
 1555SOL    HW2 6218   1.807   1.655   2.721 -0.8313 -1.2650 -0.0303
 1555SOL    HW3 6219   1.739   1.611   2.593 -0.1132  0.0392 -0.8667
 1555SOL    MW4 6220   1.795   1.663   2.636 -0.7428 -0.0330  0.0672
 1556SOL     OW 6221   1.777   1.914   2.491  0.1141  0.0377 -0.0139
 1556SOL    HW2 6222   1.847   1.967   2.528  0.3429 -0.0820 -0.2725
 1556SOL    HW3 6223   1.779   1.833   2.542  0.0368  0.1086  0.1038
 1556SOL    MW4 6224   1.786   1.910   2.503  0.1341  0.0313 -0.0325
 1557SOL     OW 6225   2.010   2.019   2.601 -0.1340 -0.1455  0.1670
 1557SOL    HW2 6226   2.021   2.028   2.695 -0.6935 -0.6724  0.2839
 1557SOL    HW3 6227   2.009   2.109   2.568 -0.3155  0.0487  0.7019
 1557SOL    MW4 6228   2.011   2.032   2.609 -0.2317 -0.1894  0.2530
 1558SOL     OW 6229   2.003   2.280   2.514  0.5023 -0.2036 -0.1026
 1558SOL    HW2 6230   2.081   2.325   2.547  0.9736 -0.6079 -0.6361
 1558SOL    HW3 6231   2.007   2.293   2.419 -1.2844  1.6567  0.0621
 1558SOL    MW4 6232   2.014   2.288   2.506  0.3288 -0.0115 -0.1513
 1559SOL     OW 6233   1.780   2.438   2.563 -0.1295  0.1981  0.6387
 1559SOL    HW2 6234   1.791   2.440   2.658 -0.2883 -1.2563  0.6984
 1559SOL    HW3 6235   1.856   2.390   2.531 -0.1197  0.6121  0.0275
 1559SOL    MW4 6236   1.792   2.432   2.572 -0.1491  0.0608  0.5660
 1560SOL     OW 6237   1.774   2.728   2.558 -0.2709 -0.6563 -0.1416
 1560SOL    HW2 6238   1.787   2.742   2.464  1.0077 -1.0124 -0.0260
 1560SOL    HW3 6239   1.789   2.635   2.571 -1.0851 -0.7277  0.3254
 1560SOL    MW4 6240   1.777   2.718   2.548 -0.2097 -0.7127 -0.0647
 1561SOL     OW 6241   2.062   2.837   2.610  0.3211 -0.0966 -0.1978
 1561SOL    HW2 6242   2.119   2.779   2.559 -1.5052 -1.4102 -0.8136
 1561SOL    HW3 6243   1.976   2.796   2.605 -0.5263  1.4281  1.3746
 1561SOL    MW4 6244   2.058   2.824   2.603 -0.0317 -0.0687 -0.0716
 1562SOL     OW 6245   2.026   3.094   2.521  0.6052  0.4228 -0.6486
 1562SOL    HW2 6246   2.026   3.009   2.564  0.1713 -0.0105 -1.4988
 1562SOL    HW3 6247   2.037   3.074   2.428 -0.4383  1.2406 -0.9560
 1562SOL    MW4 6248   2.028   3.080   2.514  0.4102  0.4736 -0.8013
 1563SOL     OW 6249   1.806   3.211   2.606 -0.2548 -0.0387  0.1151
 1563SOL    HW2 6250   1.805   3.298   2.568 -1.4651  0.0546  0.3453
 1563SOL    HW3 6251   1.875   3.165   2.558 -0.4472  0.6649 -0.8531
 1563SOL    MW4 6252   1.815   3.216   2.595 -0.4399  0.0664  0.0177
 1564SOL     OW 6253   1.790   3.473   2.518  0.0342  0.0927 -0.1612
 1564SOL    HW2 6254   1.877   3.505   2.541  0.9287 -1.6994 -0.9317
 1564SOL    HW3 6255   1.789   3.474   2.422 -0.1231 -1.6036 -0.1865
 1564SOL    MW4 6256   1.801   3.477   2.508  0.1315 -0.3675 -0.2662
 1565SOL     OW 6257   2.009   3.602   2.625 -0.0614 -0.2689  0.3606
 1565SOL    HW2 6258   2.016   3.605   2.721  0.5315 -1.2744  0.3527
 1565SOL    HW3 6259   2.094   3.570   2.596 -0.2461  0.0314 -0.5092
 1565SOL    MW4 6260   2.021   3.598   2.634 -0.0075 -0.3620  0.2448
 1566SOL     OW 6261   1.998   3.864   2.517 -0.4513  0.3494 -0.1198
 1566SOL    HW2 6262   1.924   3.912   2.554  1.0414  1.7189  1.1937
 1566SOL    HW3 6263   1.994   3.778   2.558  0.1638  1.2764  1.9743
 1566SOL    MW4 6264   1.988   3.859   2.528 -0.1732  0.6524  0.3298
 1567SOL     OW 6265   1.803   4.007   2.632 -0.2323 -0.2659  0.2308
 1567SOL    HW2 6266   1.785   4.094   2.598 -0.4771  0.1060  1.2855
 1567SOL    HW3 6267   1.720   3.960   2.623 -0.1125 -0.3723 -0.2984
 1567SOL    MW4 6268   1.790   4.012   2.626 -0.2488 -0.2308  0.3001
 1568SOL     OW 6269   1.789   4.259   2.523 -0.0869 -0.6135 -0.4007
 1568SOL    HW2 6270   1.709   4.304   2.553  1.0124  0.9364  0.2967
 1568SOL    HW3 6271   1.782   4.259   2.428 -0.7415 -0.1348 -0.3554
 1568SOL    MW4 6272   1.777   4.265   2.514 -0.0282 -0.3458 -0.3027
 1569SOL     OW 6273   2.003   4.384   2.651  0.3736 -0.4783 -0.4334
 1569SOL    HW2 6274   1.928   4.353   2.602  1.1344  0.3134 -2.1531
 1569SOL    HW3 6275   2.019   4.472   2.617  1.8665 -0.5089  0.1489
 1569SOL    MW4 6276   1.995   4.392   2.640  0.6709 -0.3779 -0.5835
 1570SOL     OW 6277   2.470   4.641   2.545 -0.1542  0.0782  0.5513
 1570SOL    HW2 6278   2.541   4.694   2.583  0.3224  0.2831 -0.5939
 1570SOL    HW3 6279   2.485   4.645   2.451 -1.4789 -0.1983  0.3167
 1570SOL    MW4 6280   2.482   4.648   2.538 -0.2661  0.0688  0.3693
 1571SOL     OW 6281   2.249   0.135   2.569 -0.7519  0.2024  0.2196
 1571SOL    HW2 6282   2.248   0.150   2.663 -0.1449  0.1652  0.2306
 1571SOL    HW3 6283   2.330   0.086   2.553 -1.2407 -0.4843 -0.2108
 1571SOL    MW4 6284   2.259   0.130   2.579 -0.7363  0.1069  0.1643
 1572SOL     OW 6285   2.298   0.382   2.465  0.6255 -0.4479 -0.2626
 1572SOL    HW2 6286   2.292   0.293   2.500  1.0520 -0.3949 -0.0547
 1572SOL    HW3 6287   2.247   0.379   2.383 -1.5481 -0.2109  1.0534
 1572SOL    MW4 6288   2.290   0.370   2.458  0.3950 -0.4097 -0.0615
 1573SOL     OW 6289   2.504   0.534   2.585  0.0816 -0.2295 -0.2854
 1573SOL    HW2 6290   2.503   0.616   2.536 -0.9019 -0.1846 -0.1991
 1573SOL    HW3 6291   2.435   0.480   2.545  0.7838 -1.0523 -0.4059
 1573SOL    MW4 6292   2.495   0.538   2.573  0.0445 -0.3321 -0.2899
 1574SOL     OW 6293   2.458   0.775   2.475  0.3118  0.3482 -0.4663
 1574SOL    HW2 6294   2.372   0.798   2.510 -0.1998 -0.6242 -1.0516
 1574SOL    HW3 6295   2.441   0.753   2.384  1.0158 -0.8355 -0.3169
 1574SOL    MW4 6296   2.444   0.775   2.468  0.3372  0.0637 -0.5238
 1575SOL     OW 6297   2.214   0.862   2.583  0.0005  0.2675  0.3740
 1575SOL    HW2 6298   2.210   0.876   2.678 -0.0820  1.1229  0.2458
 1575SOL    HW3 6299   2.135   0.812   2.563  0.0535  0.0269  0.7688
 1575SOL    MW4 6300   2.203   0.857   2.593 -0.0034  0.3486  0.4092
 1576SOL     OW 6301   2.201   1.121   2.472  0.3667 -0.1464  0.1791
 1576SOL    HW2 6302   2.214   1.031   2.500  2.6546 -0.0223 -0.3820
 1576SOL    HW3 6303   2.221   1.120   2.378  0.0846  0.8653  0.1063
 1576SOL    MW4 6304   2.206   1.109   2.463  0.6313  0.0034  0.0955
 1577SOL     OW 6305   2.419   1.256   2.582 -0.4704  0.0457  0.6081
 1577SOL    HW2 6306   2.505   1.217   2.570 -0.9901 -1.2380  1.0151
 1577SOL    HW3 6307   2.358   1.194   2.543 -1.3233  0.3356  1.4419
 1577SOL    MW4 6308   2.422   1.243   2.575 -0.6515 -0.0854  0.7718
 1578SOL     OW 6309   2.488   1.503   2.470 -0.1158  0.4913  0.0567
 1578SOL    HW2 6310   2.418   1.560   2.500 -1.8082 -1.3239 -0.3414
 1578SOL    HW3 6311   2.458   1.415   2.491  1.7122 -0.3719 -0.8038
 1578SOL    MW4 6312   2.475   1.499   2.477 -0.0979  0.1379 -0.1094
 1579SOL     OW 6313   2.287   1.657   2.596  0.1145 -0.4491 -0.2001
 1579SOL    HW2 6314   2.267   1.746   2.567  2.1300 -0.3824 -1.5197
 1579SOL    HW3 6315   2.205   1.609   2.586 -0.5951  0.9034 -0.9304
 1579SOL    MW4 6316   2.274   1.662   2.591  0.2868 -0.2619 -0.4706
 1580SOL     OW 6317   2.259   1.910   2.512  0.3785  0.2679  0.2782
 1580SOL    HW2 6318   2.177   1.948   2.543 -1.0516 -2.4903 -0.0019
 1580SOL    HW3 6319   2.247   1.898   2.418  1.2127  0.1199  0.1827
 1580SOL    MW4 6320   2.246   1.913   2.504  0.2999 -0.1155  0.2287
 1581SOL     OW 6321   2.474   2.036   2.615  0.0091  0.1936 -0.0026
 1581SOL    HW2 6322   2.461   2.126   2.585  1.5038  0.5166  0.2708
 1581SOL    HW3 6323   2.394   1.991   2.589 -1.5284  2.0072  1.4751
 1581SOL    MW4 6324   2.462   2.042   2.607  0.0035  0.4755  0.2284
 1582SOL     OW 6325   2.457   2.296   2.522 -0.0697  0.5131  0.8533
 1582SOL    HW2 6326   2.536   2.327   2.564  0.3587 -0.4128  0.7337
 1582SOL    HW3 6327   2.476   2.301   2.428  0.5438 -1.5073  0.8588
 1582SOL    MW4 6328   2.470   2.301   2.515  0.0677  0.1244  0.8382
 1583SOL     OW 6329   2.221   2.453   2.610  0.1825 -0.2342  0.1773
 1583SOL    HW2 6330   2.222   2.453   2.705 -0.0125 -0.0786  0.1796
 1583SOL    HW3 6331   2.295   2.398   2.585 -0.5944 -1.4025  0.4297
 1583SOL    MW4 6332   2.231   2.446   2.619  0.0542 -0.3678  0.2109
 1584SOL     OW 6333   2.244   2.687   2.466  0.4704 -0.3830  0.3534
 1584SOL    HW2 6334   2.327   2.728   2.491  0.4852 -1.0612  1.4523
 1584SOL    HW3 6335   2.244   2.603   2.511 -1.4922  0.2521  1.6234
 1584SOL    MW4 6336   2.255   2.681   2.475  0.2134 -0.3887  0.6659
 1585SOL     OW 6337   2.462   2.827   2.562 -0.1947  0.4429 -0.0179
 1585SOL    HW2 6338   2.547   2.786   2.545 -0.4925 -0.1468 -0.0836
 1585SOL    HW3 6339   2.471   2.916   2.527  0.2993  0.2882 -0.2824
 1585SOL    MW4 6340   2.475   2.834   2.555 -0.1688  0.3447 -0.0615
 1586SOL     OW 6341   2.487   3.100   2.515 -0.4731 -0.3389  0.3693
 1586SOL    HW2 6342   2.414   3.152   2.547  0.6924  0.7070  1.3331
 1586SOL    HW3 6343   2.503   3.133   2.426  0.5083  1.2078  1.1185
 1586SOL    MW4 6344   2.479   3.111   2.507 -0.1898  0.0032  0.5953
 1587SOL     OW 6345   2.268   3.247   2.615 -0.4012  0.1812  0.1420
 1587SOL    HW2 6346   2.271   3.253   2.711 -0.2985  0.3725  0.1259
 1587SOL    HW3 6347   2.186   3.201   2.597 -0.4662  0.2282  0.3179
 1587SOL    MW4 6348   2.258   3.242   2.625 -0.3962  0.2127  0.1631
 1588SOL     OW 6349   2.488   3.649   2.557 -0.3099 -0.0553  0.0347
 1588SOL    HW2 6350   2.479   3.743   2.540  2.6400  0.2647 -0.1582
 1588SOL    HW3 6351   2.495   3.644   2.653  0.5602  0.0744 -0.0105
 1588SOL    MW4 6352   2.488   3.661   2.568  0.1941  0.0040  0.0033
 1589SOL     OW 6353   2.454   3.911   2.523  0.4316  0.1786 -0.5519
 1589SOL    HW2 6354   2.373   3.954   2.552 -0.6077 -1.0751 -1.4835
 1589SOL    HW3 6355   2.524   3.956   2.571 -0.8639  0.9168  0.7064
 1589SOL    MW4 6356   2.452   3.922   2.533  0.1235  0.1106 -0.5088
 1590SOL     OW 6357   2.692   4.003   2.617 -0.7423  0.0115  0.0916
 1590SOL    HW2 6358   2.756   3.938   2.588 -1.3917 -1.2973  1.5778
 1590SOL    HW3 6359   2.714   4.081   2.566  0.8022 -0.9950 -0.8405
 1590SOL    MW4 6360   2.704   4.005   2.606 -0.6242 -0.2940  0.1647
 1591SOL     OW 6361   2.199   4.027   2.603 -0.2267 -0.6428 -0.0237
 1591SOL    HW2 6362   2.206   4.021   2.698 -1.5103 -0.8080  0.0696
 1591SOL    HW3 6363   2.128   3.967   2.580 -0.4189 -0.0494 -1.0106
 1591SOL    MW4 6364   2.191   4.018   2.613 -0.4214 -0.5863 -0.1416
 1592SOL     OW 6365   2.181   4.277   2.482  0.0413  0.0118 -0.1804
 1592SOL    HW2 6366   2.176   4.183   2.500 -1.5076 -0.2235 -1.7075
 1592SOL    HW3 6367   2.109   4.315   2.531 -0.8635  0.0662 -1.5337
 1592SOL    MW4 6368   2.171   4.270   2.491 -0.2824 -0.0121 -0.5604
 1593SOL     OW 6369   2.436   4.372   2.587 -0.1610 -0.4460  0.2434
 1593SOL    HW2 6370   2.352   4.349   2.546 -0.4435 -0.9060  1.0608
 1593SOL    HW3 6371   2.439   4.467   2.582 -1.1138 -0.3702  0.9240
 1593SOL    MW4 6372   2.425   4.382   2.581 -0.3240 -0.4967  0.4410
 1594SOL     OW 6373   2.929   0.020   2.529 -0.4817 -0.2838  0.2820
 1594SOL    HW2 6374   3.017   0.034   2.565 -1.4745  0.8034  2.4100
 1594SOL    HW3 6375   2.941   0.023   2.434  1.6039  0.8973  0.5524
 1594SOL    MW4 6376   2.942   0.022   2.521 -0.3375  0.0155  0.5984
 1595SOL     OW 6377   2.695   0.127   2.614  0.2745  0.0911 -0.0385
 1595SOL    HW2 6378   2.695   0.141   2.708 -1.5161 -2.1894  0.3389
 1595SOL    HW3 6379   2.786   0.106   2.593  0.6399  0.3788  1.2197
 1595SOL    MW4 6380   2.707   0.126   2.624  0.0865 -0.1718  0.1773
 1596SOL     OW 6381   2.729   0.373   2.495  0.5178 -0.0643  0.2252
 1596SOL    HW2 6382   2.718   0.283   2.526 -1.5411  0.6897  1.8671
 1596SOL    HW3 6383   2.664   0.423   2.545  0.0317  1.9600 -2.3310
 1596SOL    MW4 6384   2.719   0.368   2.506  0.1820  0.3023  0.1046
 1597SOL     OW 6385   2.948   0.493   2.582 -0.4079  0.2642  0.0262
 1597SOL    HW2 6386   2.947   0.581   2.545 -0.8168 -0.5208 -1.9000
 1597SOL    HW3 6387   2.871   0.450   2.545 -0.0242 -1.0047  0.6524
 1597SOL    MW4 6388   2.938   0.499   2.572 -0.4113 -0.0068 -0.1453
 1598SOL     OW 6389   2.925   0.736   2.454 -0.0514  0.4918 -0.0943
 1598SOL    HW2 6390   2.986   0.777   2.516 -0.4252  1.0088 -0.0699
 1598SOL    HW3 6391   2.841   0.778   2.471  0.0137  1.2233 -1.5157
 1598SOL    MW4 6392   2.922   0.747   2.465 -0.0921  0.6565 -0.2786
 1599SOL     OW 6393   2.707   0.877   2.562 -0.7096 -0.0481 -0.1541
 1599SOL    HW2 6394   2.691   0.888   2.656 -0.1102 -1.4608  0.1177
 1599SOL    HW3 6395   2.630   0.831   2.529 -0.8151  0.2421 -0.3168
 1599SOL    MW4 6396   2.695   0.873   2.570 -0.6445 -0.1962 -0.1397
 1600SOL     OW 6397   2.664   1.156   2.503 -0.0323 -0.3413 -0.6141
 1600SOL    HW2 6398   2.748   1.188   2.537  0.1104 -1.6339  0.2524
 1600SOL    HW3 6399   2.660   1.065   2.530 -0.8904 -0.7978 -2.2417
 1600SOL    MW4 6400   2.675   1.148   2.511 -0.1267 -0.5721 -0.7145
 1601SOL     OW 6401   2.904   1.248   2.600  0.7856  0.1927  0.4898
 1601SOL    HW2 6402   2.905   1.253   2.696  1.2661  1.8559  0.4225
 1601SOL    HW3 6403   2.979   1.192   2.579  1.2175  0.5370  1.0666
 1601SOL    MW4 6404   2.914   1.242   2.610  0.9060  0.4576  0.5570
 1602SOL     OW 6405   2.948   1.511   2.496 -0.4666  0.1452  0.5400
 1602SOL    HW2 6406   2.879   1.565   2.536 -0.7482  0.4988 -0.3973
 1602SOL    HW3 6407   2.933   1.423   2.531 -1.5922  0.1563  0.1025
 1602SOL    MW4 6408   2.937   1.507   2.506 -0.6523  0.1933  0.3586
 1603SOL     OW 6409   2.721   1.660   2.584 -0.5209 -0.4761  0.0896
 1603SOL    HW2 6410   2.717   1.680   2.677 -0.2072  0.5260 -0.1072
 1603SOL    HW3 6411   2.648   1.600   2.569 -0.1094 -1.2699  1.1217
 1603SOL    MW4 6412   2.711   1.655   2.594 -0.4252 -0.4486  0.1998
 1604SOL     OW 6413   2.694   1.930   2.511  0.2477 -0.3915  0.8082
 1604SOL    HW2 6414   2.699   1.842   2.550  0.6727 -0.3551  0.8388
 1604SOL    HW3 6415   2.611   1.965   2.542  0.6477 -0.3072  1.8024
 1604SOL    MW4 6416   2.684   1.923   2.521  0.3565 -0.3756  0.9434
 1605SOL     OW 6417   2.950   2.074   2.604  0.0414  0.1002  0.5681
 1605SOL    HW2 6418   2.945   2.164   2.573 -0.6977  0.3296  1.3353
 1605SOL    HW3 6419   2.874   2.031   2.566 -0.6782  0.2954  1.7560
 1605SOL    MW4 6420   2.939   2.080   2.595 -0.1510  0.1562  0.8261
 1606SOL     OW 6421   2.943   2.334   2.510  0.1608 -0.2427 -0.0699
 1606SOL    HW2 6422   3.004   2.392   2.555  0.5004 -1.0806  0.5609
 1606SOL    HW3 6423   2.857   2.372   2.525  0.3516 -0.0721  0.5952
 1606SOL    MW4 6424   2.940   2.346   2.518  0.2308 -0.3308  0.1011
 1607SOL     OW 6425   2.695   2.417   2.589 -0.0873 -0.2190 -0.7544
 1607SOL    HW2 6426   2.689   2.435   2.683 -0.5945  2.0593 -1.1808
 1607SOL    HW3 6427   2.679   2.502   2.547  0.4848 -1.1225 -2.8973
 1607SOL    MW4 6428   2.692   2.431   2.596 -0.0787 -0.0376 -1.0934
 1608SOL     OW 6429   2.679   2.692   2.485 -0.0287 -0.2007  0.0326
 1608SOL    HW2 6430   2.758   2.728   2.526 -0.7983  1.9644 -0.3229
 1608SOL    HW3 6431   2.697   2.694   2.391 -0.4167  0.0555 -0.0354
 1608SOL    MW4 6432   2.692   2.697   2.478 -0.1814  0.1188 -0.0233
 1609SOL     OW 6433   2.905   2.801   2.597 -0.1288 -0.0441 -0.1645
 1609SOL    HW2 6434   2.925   2.800   2.691 -0.6784  0.3341 -0.0392
 1609SOL    HW3 6435   2.906   2.894   2.573  0.5179 -0.1700 -0.6476
 1609SOL    MW4 6436   2.907   2.813   2.606 -0.1160 -0.0108 -0.2117
 1610SOL     OW 6437   2.954   3.085   2.524  0.0245  0.1859  0.1480
 1610SOL    HW2 6438   2.866   3.122   2.538  0.8686  1.4712  2.3710
 1610SOL    HW3 6439   2.962   3.078   2.429 -2.8014 -0.7370 -0.0856
 1610SOL    MW4 6440   2.943   3.089   2.514 -0.2370  0.2337  0.4105
 1611SOL     OW 6441   2.710   3.207   2.616 -0.0663 -0.1928  0.6820
 1611SOL    HW2 6442   2.710   3.295   2.579 -0.1097 -0.6807 -0.5033
 1611SOL    HW3 6443   2.627   3.168   2.588 -0.1760 -0.5061  1.4362
 1611SOL    MW4 6444   2.699   3.213   2.607 -0.0865 -0.2985  0.6251
 1612SOL     OW 6445   2.699   3.463   2.510  0.1485  0.0496  0.4254
 1612SOL    HW2 6446   2.641   3.535   2.534  0.3313  0.3852 -0.1270
 1612SOL    HW3 6447   2.706   3.468   2.415 -1.3472 -1.8769  0.1862
 1612SOL    MW4 6448   2.693   3.473   2.501 -0.0247 -0.1603  0.3210
 1613SOL     OW 6449   2.936   3.603   2.599  0.0591 -0.0719  0.1663
 1613SOL    HW2 6450   2.912   3.620   2.690 -2.4221 -1.1789 -0.2460
 1613SOL    HW3 6451   2.864   3.550   2.564  0.4693  1.1389 -2.7192
 1613SOL    MW4 6452   2.923   3.598   2.606 -0.2141 -0.0582 -0.2688
 1614SOL     OW 6453   2.902   3.843   2.506 -0.0082  0.3280 -0.1073
 1614SOL    HW2 6454   2.983   3.890   2.525  0.8041 -0.8903 -0.5616
 1614SOL    HW3 6455   2.918   3.753   2.534 -1.7994  0.4394  1.4113
 1614SOL    MW4 6456   2.914   3.838   2.512 -0.1373  0.1819  0.0331
 1615SOL     OW 6457   2.651   4.027   2.878  0.0208 -0.0520 -0.5603
 1615SOL    HW2 6458   2.645   4.121   2.897  0.3172 -0.5083  1.8663
 1615SOL    HW3 6459   2.661   4.023   2.783 -2.4389  2.2746 -0.9704
 1615SOL    MW4 6460   2.652   4.039   2.868 -0.2646  0.1948 -0.2942
 1616SOL     OW 6461   2.663   4.250   2.478  0.4845 -0.5328  0.1294
 1616SOL    HW2 6462   2.730   4.309   2.512  0.5750 -0.8552  0.5220
 1616SOL    HW3 6463   2.581   4.285   2.513  0.3794  0.2395 -0.8893
 1616SOL    MW4 6464   2.661   4.262   2.487  0.4825 -0.4734  0.0468
 1617SOL     OW 6465   2.884   4.409   2.588  0.2235  0.1562  0.1764
 1617SOL    HW2 6466   2.884   4.418   2.683 -0.1004 -0.3591  0.2242
 1617SOL    HW3 6467   2.889   4.499   2.556  0.6762  0.3165  0.6797
 1617SOL    MW4 6468   2.885   4.422   2.596  0.2405  0.1094  0.2491
 1618SOL     OW 6469   3.439   4.627   2.463  0.2251  0.8952 -0.4709
 1618SOL    HW2 6470   3.423   4.534   2.480 -0.1379  0.9165 -0.6925
 1618SOL    HW3 6471   3.374   4.672   2.517 -0.3352  0.9869 -1.2099
 1618SOL    MW4 6472   3.428   4.621   2.473  0.1033  0.9101 -0.5977
 1619SOL     OW 6473   3.209   0.045   2.594 -0.5211 -0.3393  0.2484
 1619SOL    HW2 6474   3.206   0.036   2.689  1.6790 -1.2865  0.2538
 1619SOL    HW3 6475   3.203   0.139   2.579 -0.0049 -0.1183  1.3696
 1619SOL    MW4 6476   3.208   0.056   2.605 -0.1627 -0.4351  0.3970
 1620SOL     OW 6477   3.152   0.309   2.496 -0.3003  0.0476 -0.1891
 1620SOL    HW2 6478   3.079   0.369   2.514  0.0926  0.7110 -0.7570
 1620SOL    HW3 6479   3.162   0.312   2.401 -0.3972 -1.0782 -0.2343
 1620SOL    MW4 6480   3.143   0.318   2.486 -0.2613 -0.0134 -0.2700
 1621SOL     OW 6481   3.362   0.458   2.597 -0.1477  0.4866 -0.0607
 1621SOL    HW2 6482   3.361   0.544   2.557 -2.1939  0.9933  1.0120
 1621SOL    HW3 6483   3.292   0.410   2.553  0.5444 -0.4286 -0.1918
 1621SOL    MW4 6484   3.353   0.463   2.586 -0.3264  0.4327  0.0635
 1622SOL     OW 6485   3.364   0.712   2.494  0.2444 -0.0314  0.5751
 1622SOL    HW2 6486   3.434   0.766   2.532 -0.9907  1.4742  0.7591
 1622SOL    HW3 6487   3.361   0.738   2.402 -1.2844  1.2487  0.9709
 1622SOL    MW4 6488   3.373   0.723   2.487 -0.1203  0.3361  0.6516
 1623SOL     OW 6489   3.134   0.848   2.595  0.0532  0.4715  0.0698
 1623SOL    HW2 6490   3.144   0.865   2.689  0.5417 -0.5839  0.2112
 1623SOL    HW3 6491   3.200   0.781   2.575 -1.4166 -0.8002 -0.6253
 1623SOL    MW4 6492   3.144   0.842   2.605 -0.0763  0.1645 -0.0033
 1624SOL     OW 6493   3.105   1.105   2.496  0.0730 -0.0703 -0.3079
 1624SOL    HW2 6494   3.134   1.021   2.532 -2.4305 -0.7927  0.1327
 1624SOL    HW3 6495   3.116   1.095   2.402 -1.2512 -1.3474 -0.3543
 1624SOL    MW4 6496   3.111   1.092   2.489 -0.4320 -0.3341 -0.2559
 1625SOL     OW 6497   3.330   1.272   2.557  0.1100  0.6046 -0.1551
 1625SOL    HW2 6498   3.325   1.281   2.652  0.0573  0.4923 -0.1473
 1625SOL    HW3 6499   3.257   1.215   2.534  1.6233 -1.4542  0.0180
 1625SOL    MW4 6500   3.320   1.266   2.566  0.3027  0.3181 -0.1312
 1626SOL     OW 6501   3.353   1.520   2.465  0.3971 -0.6072 -0.2822
 1626SOL    HW2 6502   3.286   1.567   2.516 -0.7724 -0.4293 -1.9661
 1626SOL    HW3 6503   3.333   1.428   2.479 -1.0147 -0.5540 -1.8066
 1626SOL    MW4 6504   3.342   1.514   2.474  0.0565 -0.5767 -0.7055
 1627SOL     OW 6505   3.160   1.658   2.602 -0.3570 -0.0272  0.0130
 1627SOL    HW2 6506   3.144   1.750   2.582  2.0607  0.6049  0.8113
 1627SOL    HW3 6507   3.083   1.612   2.568 -1.8448  2.3317  0.0903
 1627SOL    MW4 6508   3.148   1.664   2.595 -0.2343  0.3674  0.1286
 1628SOL     OW 6509   3.149   1.917   2.505  0.0769 -0.3413  0.2785
 1628SOL    HW2 6510   3.234   1.936   2.545 -0.5675 -0.7530  1.8695
 1628SOL    HW3 6511   3.088   1.978   2.546 -0.6133 -0.8394 -0.0007
 1628SOL    MW4 6512   3.152   1.927   2.516 -0.0992 -0.4614  0.4516
 1629SOL     OW 6513   3.382   2.014   2.610 -0.4168 -0.3668  0.1032
 1629SOL    HW2 6514   3.396   2.031   2.703  1.0715  0.6277 -0.2911
 1629SOL    HW3 6515   3.368   2.100   2.571 -2.4010 -0.8923 -0.3968
 1629SOL    MW4 6516   3.382   2.027   2.618 -0.4822 -0.3049 -0.0148
 1630SOL     OW 6517   3.336   2.276   2.521 -0.1339 -0.6712 -0.1944
 1630SOL    HW2 6518   3.428   2.298   2.536 -0.6398  1.4187 -0.0408
 1630SOL    HW3 6519   3.330   2.265   2.426  0.1472 -0.2270 -0.2650
 1630SOL    MW4 6520   3.347   2.278   2.510 -0.1635 -0.3369 -0.1834
 1631SOL     OW 6521   3.169   2.452   2.647 -0.0842  0.1900 -0.0203
 1631SOL    HW2 6522   3.148   2.539   2.613 -1.3864 -0.7094 -1.5923
 1631SOL    HW3 6523   3.242   2.422   2.593  2.6155  1.6088  2.6974
 1631SOL    MW4 6524   3.176   2.460   2.636  0.1002  0.2585  0.1308
 1632SOL     OW 6525   3.139   2.686   2.498 -0.1233 -0.2293 -0.1562
 1632SOL    HW2 6526   3.205   2.746   2.534 -0.6660  1.7869 -2.4283
 1632SOL    HW3 6527   3.056   2.720   2.530 -0.3720 -0.3563 -0.6706
 1632SOL    MW4 6528   3.137   2.698   2.507 -0.2277  0.0200 -0.5238
 1633SOL     OW 6529   3.368   2.803   2.611 -0.1509 -0.8967  0.6925
 1633SOL    HW2 6530   3.380   2.813   2.705  1.6057 -2.5274  0.6536
 1633SOL    HW3 6531   3.446   2.758   2.580 -0.4244  0.1256 -1.6512
 1633SOL    MW4 6532   3.380   2.799   2.619  0.0448 -0.9770  0.3782
 1634SOL     OW 6533   3.387   3.067   2.521  0.4120 -0.3637 -0.4419
 1634SOL    HW2 6534   3.385   2.973   2.542  2.1964 -0.7624 -1.9226
 1634SOL    HW3 6535   3.374   3.070   2.426  0.6976  0.8714 -0.4407
 1634SOL    MW4 6536   3.385   3.055   2.511  0.6851 -0.2533 -0.6371
 1635SOL     OW 6537   3.161   3.226   2.604  0.3594  0.0378 -0.2426
 1635SOL    HW2 6538   3.228   3.164   2.576 -0.6667 -2.0694  1.7848
 1635SOL    HW3 6539   3.078   3.181   2.587 -0.3991  0.6724  1.6144
 1635SOL    MW4 6540   3.159   3.212   2.598  0.1239 -0.1565  0.2699
 1636SOL     OW 6541   3.181   3.496   2.490 -0.2895 -0.1200  0.1904
 1636SOL    HW2 6542   3.191   3.404   2.517 -2.6550 -0.5945 -0.4303
 1636SOL    HW3 6543   3.103   3.526   2.536  1.0035  1.9198  1.1533
 1636SOL    MW4 6544   3.172   3.488   2.500 -0.4310  0.0865  0.2355
 1637SOL     OW 6545   3.395   3.646   2.571  0.3368  0.0754 -0.4065
 1637SOL    HW2 6546   3.388   3.646   2.666  2.0447 -0.4291 -0.2703
 1637SOL    HW3 6547   3.311   3.609   2.541 -0.2200  0.2832  0.8839
 1637SOL    MW4 6548   3.383   3.641   2.579  0.4887  0.0363 -0.2183
 1638SOL     OW 6549   3.385   3.914   2.502 -0.0059 -0.2850 -0.6201
 1638SOL    HW2 6550   3.408   3.824   2.524  1.2951  0.1691 -0.0939
 1638SOL    HW3 6551   3.398   3.919   2.407 -0.9690 -0.9025 -0.7868
 1638SOL    MW4 6552   3.390   3.903   2.492  0.0387 -0.3066 -0.5727
 1639SOL     OW 6553   3.123   3.999   2.541 -0.2741  0.5827 -0.2414
 1639SOL    HW2 6554   3.130   4.094   2.546  0.1688  0.5019  0.7289
 1639SOL    HW3 6555   3.213   3.969   2.528 -0.2481  0.2265  0.7260
 1639SOL    MW4 6556   3.136   4.008   2.540 -0.2123  0.5250  0.0142
 1640SOL     OW 6557   3.117   4.270   2.532 -0.0033 -0.2955 -0.2862
 1640SOL    HW2 6558   3.036   4.307   2.566  0.5521  1.6019 -0.9270
 1640SOL    HW3 6559   3.110   4.279   2.437  1.9198  2.1170 -0.2666
 1640SOL    MW4 6560   3.106   4.276   2.524  0.3237  0.2731 -0.3682
 1641SOL     OW 6561   3.375   4.374   2.560  0.0337 -0.0226  0.3042
 1641SOL    HW2 6562   3.369   4.399   2.652 -2.0358 -0.3303  0.2932
 1641SOL    HW3 6563   3.292   4.329   2.542  0.8945 -0.9652 -1.4113
 1641SOL    MW4 6564   3.363   4.372   2.570 -0.1258 -0.1876  0.0764
 1642SOL     OW 6565   3.832   4.634   2.221  0.0640 -0.1678  0.5091
 1642SOL    HW2 6566   3.831   4.635   2.317  0.6386 -0.7879  0.5316
 1642SOL    HW3 6567   3.911   4.683   2.197 -0.8250  1.1767  0.3140
 1642SOL    MW4 6568   3.843   4.640   2.230  0.0225 -0.0722  0.4863
 1643SOL     OW 6569   3.619   0.120   2.581 -0.2557 -0.0656  0.0777
 1643SOL    HW2 6570   3.603   0.205   2.541 -2.0530 -0.0984  0.6910
 1643SOL    HW3 6571   3.560   0.060   2.535  0.2967 -0.7951  0.3058
 1643SOL    MW4 6572   3.609   0.123   2.569 -0.4199 -0.1662  0.1887
 1644SOL     OW 6573   3.589   0.366   2.475 -0.0687 -0.0704  0.6723
 1644SOL    HW2 6574   3.649   0.416   2.530 -1.3549  0.8274  1.2743
 1644SOL    HW3 6575   3.502   0.399   2.498 -0.6371  0.1589 -1.7555
 1644SOL    MW4 6576   3.586   0.377   2.485 -0.3133  0.0783  0.4314
 1645SOL     OW 6577   3.805   0.517   2.624 -0.1774 -0.3056 -0.2052
 1645SOL    HW2 6578   3.782   0.520   2.717 -0.2523  2.5152 -0.2824
 1645SOL    HW3 6579   3.887   0.467   2.621 -0.5857 -1.1048  1.2669
 1645SOL    MW4 6580   3.813   0.511   2.636 -0.2411 -0.0389 -0.0212
 1646SOL     OW 6581   3.781   0.740   2.474  0.5493  0.6304  0.4029
 1646SOL    HW2 6582   3.704   0.785   2.507 -0.5845 -0.2698 -0.9684
 1646SOL    HW3 6583   3.787   0.660   2.526  0.3345  0.5121  0.2446
 1646SOL    MW4 6584   3.772   0.736   2.485  0.3714  0.4960  0.2011
 1647SOL     OW 6585   3.563   0.864   2.593 -0.2149 -0.5404 -0.1982
 1647SOL    HW2 6586   3.603   0.881   2.678 -1.0321 -0.6713  0.2187
 1647SOL    HW3 6587   3.551   0.950   2.554 -0.3880 -0.4346  0.0824
 1647SOL    MW4 6588   3.566   0.878   2.599 -0.3455 -0.5438 -0.1061
 1648SOL     OW 6589   3.565   1.134   2.483 -0.5633  0.0060  0.1639
 1648SOL    HW2 6590   3.635   1.181   2.527 -1.3783  2.2538 -0.8447
 1648SOL    HW3 6591   3.485   1.182   2.506 -1.4310 -0.9165 -0.8499
 1648SOL    MW4 6592   3.564   1.146   2.492 -0.7853  0.1808 -0.1030
 1649SOL     OW 6593   3.804   1.252   2.593 -0.1485  0.0374  0.2766
 1649SOL    HW2 6594   3.883   1.204   2.569 -0.6891 -0.1537 -1.1877
 1649SOL    HW3 6595   3.810   1.333   2.542  0.2190  1.0688  1.8998
 1649SOL    MW4 6596   3.815   1.256   2.583 -0.1713  0.1482  0.2976
 1650SOL     OW 6597   3.809   1.492   2.472 -0.0988 -0.2231 -0.2348
 1650SOL    HW2 6598   3.882   1.540   2.510 -0.6580 -0.2988  0.9580
 1650SOL    HW3 6599   3.731   1.529   2.515 -0.8458  0.4824 -2.1326
 1650SOL    MW4 6600   3.808   1.503   2.483 -0.2711 -0.1400 -0.3278
 1651SOL     OW 6601   3.579   1.606   2.591  0.2349 -0.4954 -0.6383
 1651SOL    HW2 6602   3.593   1.699   2.579  1.1906 -0.6204 -0.4987
 1651SOL    HW3 6603   3.499   1.587   2.542 -0.0189  0.4080 -0.5812
 1651SOL    MW4 6604   3.570   1.615   2.583  0.3275 -0.3927 -0.6123
 1652SOL     OW 6605   3.609   1.880   2.548  0.0342  0.0519 -0.0441
 1652SOL    HW2 6606   3.531   1.932   2.567  0.2158  0.5798 -0.7253
 1652SOL    HW3 6607   3.617   1.883   2.453 -0.1492 -1.5197 -0.1176
 1652SOL    MW4 6608   3.600   1.888   2.538  0.0340 -0.0858 -0.1437
 1653SOL     OW 6609   3.843   2.021   2.662  0.3501 -0.1215 -0.4809
 1653SOL    HW2 6610   3.912   1.973   2.616 -0.4310 -1.7987  0.0161
 1653SOL    HW3 6611   3.764   1.969   2.644 -0.2476  0.1393  1.3474
 1653SOL    MW4 6612   3.842   2.008   2.653  0.1682 -0.3083 -0.1741
 1654SOL     OW 6613   3.795   2.270   2.557 -0.2898 -0.1198 -0.1721
 1654SOL    HW2 6614   3.812   2.184   2.595  0.6894  0.1179 -0.0522
 1654SOL    HW3 6615   3.791   2.254   2.463 -1.7506 -0.5507 -0.0532
 1654SOL    MW4 6616   3.797   2.256   2.550 -0.3533 -0.1453 -0.1406
 1655SOL     OW 6617   3.569   2.407   2.591  0.0688 -0.6752 -0.7796
 1655SOL    HW2 6618   3.552   2.415   2.685 -1.6485  0.1976 -1.1372
 1655SOL    HW3 6619   3.641   2.345   2.585  0.7044 -0.1770  1.1564
 1655SOL    MW4 6620   3.577   2.400   2.603 -0.0739 -0.4943 -0.5713
 1656SOL     OW 6621   3.618   2.668   2.525  0.1053 -0.8948  0.1839
 1656SOL    HW2 6622   3.607   2.573   2.537 -1.1840 -0.7011  0.6296
 1656SOL    HW3 6623   3.611   2.681   2.430 -0.0524 -1.2044  0.1516
 1656SOL    MW4 6624   3.616   2.657   2.514 -0.0856 -0.9101  0.2384
 1657SOL     OW 6625   3.827   2.823   2.639  0.4413 -0.0053 -0.5210
 1657SOL    HW2 6626   3.905   2.777   2.608  0.7428  1.3254 -1.7881
 1657SOL    HW3 6627   3.754   2.773   2.603  0.7676  0.5854 -2.0222
 1657SOL    MW4 6628   3.828   2.810   2.630  0.5241  0.2482 -0.8863
 1658SOL     OW 6629   3.780   3.090   2.511 -0.0287  0.6589 -0.2502
 1658SOL    HW2 6630   3.721   3.144   2.562  0.4879  1.3919 -0.4117
 1658SOL    HW3 6631   3.761   3.000   2.537 -0.9334  0.9203 -0.0214
 1658SOL    MW4 6632   3.770   3.085   2.521 -0.0799  0.7901 -0.2414
 1659SOL     OW 6633   3.569   3.226   2.639 -0.1299 -0.2450 -0.4440
 1659SOL    HW2 6634   3.559   3.303   2.582 -1.3874 -1.5698 -2.0860
 1659SOL    HW3 6635   3.501   3.165   2.609  0.6685 -1.8946  1.0005
 1659SOL    MW4 6636   3.559   3.228   2.627 -0.1905 -0.6375 -0.4700
 1660SOL     OW 6637   3.615   3.479   2.519  0.4307 -0.2547  0.4883
 1660SOL    HW2 6638   3.694   3.513   2.560  0.1983  0.8637  0.0122
 1660SOL    HW3 6639   3.545   3.537   2.550 -0.3210 -1.6308  1.4417
 1660SOL    MW4 6640   3.616   3.491   2.529  0.3008 -0.2887  0.5513
 1661SOL     OW 6641   3.813   3.592   2.661  0.6167 -0.3593  0.0329
 1661SOL    HW2 6642   3.892   3.555   2.623  0.6656 -0.8007  0.5589
 1661SOL    HW3 6643   3.810   3.682   2.629  0.8545 -0.6107 -0.7041
 1661SOL    MW4 6644   3.823   3.599   2.652  0.6545 -0.4507  0.0051
 1662SOL     OW 6645   3.814   3.842   2.532 -0.0955  0.5286  0.2191
 1662SOL    HW2 6646   3.901   3.880   2.542  0.3268 -0.5617  0.7291
 1662SOL    HW3 6647   3.755   3.910   2.564  0.5009  1.6190 -0.9573
 1662SOL    MW4 6648   3.818   3.856   2.538  0.0389  0.5286  0.1312
 1663SOL     OW 6649   3.628   4.286   2.514  0.0356 -0.4642 -0.3595
 1663SOL    HW2 6650   3.633   4.289   2.418  0.5746 -0.0539 -0.3218
 1663SOL    HW3 6651   3.539   4.315   2.534 -0.4045 -1.5115 -0.7781
 1663SOL    MW4 6652   3.617   4.290   2.504  0.0487 -0.5483 -0.4098
 1664SOL     OW 6653   3.844   4.416   2.609 -0.6255  0.4725 -0.0759
 1664SOL    HW2 6654   3.767   4.367   2.579 -0.5648  0.5312 -0.3302
 1664SOL    HW3 6655   3.919   4.369   2.571 -0.5682  0.7817 -0.3468
 1664SOL    MW4 6656   3.844   4.403   2.600 -0.6099  0.5211 -0.1452
 1665SOL     OW 6657   3.834   0.010   2.496  0.2093 -0.1417 -0.5127
 1665SOL    HW2 6658   3.826  -0.073   2.544 -1.3966  0.2686 -0.0287
 1665SOL    HW3 6659   3.756   0.059   2.521  1.5089  1.8333 -0.2134
 1665SOL    MW4 6660   3.823   0.005   2.506  0.1689  0.1730 -0.4094
 1666SOL     OW 6661   4.229   4.592   2.520  0.2095  0.1559 -0.4230
 1666SOL    HW2 6662   4.159   4.653   2.541  0.7348  0.5529  0.2023
 1666SOL    HW3 6663   4.309   4.635   2.551  0.7532 -0.2063 -1.2922
 1666SOL    MW4 6664   4.231   4.606   2.527  0.3506  0.1605 -0.4552
 1667SOL     OW 6665   4.075   0.122   2.611 -0.2636 -0.0754  0.5614
 1667SOL    HW2 6666   3.990   0.080   2.598 -0.9958  1.3968  0.4900
 1667SOL    HW3 6667   4.097   0.102   2.702 -0.2693 -1.1814  0.3306
 1667SOL    MW4 6668   4.067   0.113   2.622 -0.3610 -0.0271  0.5215
 1668SOL     OW 6669   4.062   0.418   2.543  0.1085 -0.2391 -0.5877
 1668SOL    HW2 6670   4.069   0.331   2.582  2.6155 -0.5003 -1.4968
 1668SOL    HW3 6671   4.052   0.401   2.449 -0.0689  0.4323 -0.6885
 1668SOL    MW4 6672   4.062   0.404   2.536  0.4159 -0.1850 -0.7209
 1669SOL     OW 6673   4.315   0.471   2.645 -0.3385 -0.1908 -0.5247
 1669SOL    HW2 6674   4.236   0.437   2.602  0.0916 -2.3187  0.3526
 1669SOL    HW3 6675   4.387   0.441   2.590  0.0109  0.0009 -0.1671
 1669SOL    MW4 6676   4.314   0.463   2.632 -0.2357 -0.4462 -0.3617
 1670SOL     OW 6677   4.268   0.719   2.513 -0.1596  0.2780 -0.5229
 1670SOL    HW2 6678   4.288   0.636   2.556 -1.4215 -0.3958 -1.2069
 1670SOL    HW3 6679   4.278   0.701   2.420 -2.4329  0.3082 -0.7928
 1670SOL    MW4 6680   4.272   0.706   2.506 -0.6260  0.1931 -0.6488
 1671SOL     OW 6681   4.026   0.877   2.563  0.0293 -0.0258 -0.4374
 1671SOL    HW2 6682   4.103   0.825   2.540  0.9989  1.2893 -0.2099
 1671SOL    HW3 6683   3.953   0.816   2.556  1.0492 -1.1967 -1.0115
 1671SOL    MW4 6684   4.027   0.862   2.559  0.2918 -0.0068 -0.4831
 1672SOL     OW 6685   4.025   1.134   2.488  0.1011 -0.0931 -0.3670
 1672SOL    HW2 6686   4.109   1.168   2.519 -0.5874  0.4939  0.9039
 1672SOL    HW3 6687   4.029   1.041   2.509 -0.0200  0.1438  0.7697
 1672SOL    MW4 6688   4.037   1.126   2.495 -0.0057  0.0156 -0.0494
 1673SOL     OW 6689   4.247   1.235   2.624 -0.0297  0.3677 -0.2740
 1673SOL    HW2 6690   4.242   1.327   2.599  0.3521  0.1722 -1.1103
 1673SOL    HW3 6691   4.334   1.207   2.594  0.5146  0.1609  1.4533
 1673SOL    MW4 6692   4.258   1.243   2.617  0.0925  0.3146 -0.1564
 1674SOL     OW 6693   4.228   1.504   2.516  0.4140  0.2545  0.0155
 1674SOL    HW2 6694   4.305   1.553   2.544  0.9218 -0.3384 -0.3103
 1674SOL    HW3 6695   4.234   1.501   2.421  0.0883  0.0469 -0.0027
 1674SOL    MW4 6696   4.239   1.510   2.507  0.4380  0.1489 -0.0299
 1675SOL     OW 6697   4.001   1.638   2.600  0.1613  0.2378  0.1172
 1675SOL    HW2 6698   3.994   1.643   2.696  0.6824  0.8656  0.1324
 1675SOL    HW3 6699   4.081   1.587   2.585  0.1370  0.2295  0.0190
 1675SOL    MW4 6700   4.011   1.632   2.611  0.2268  0.3195  0.1062
 1676SOL     OW 6701   4.050   1.905   2.529  0.8945  0.2544  0.0195
 1676SOL    HW2 6702   4.114   1.941   2.591  1.8691 -1.3602 -0.0186
 1676SOL    HW3 6703   4.033   1.817   2.561 -0.8731  0.4440 -0.3277
 1676SOL    MW4 6704   4.056   1.898   2.542  0.7899  0.0664 -0.0313
 1677SOL     OW 6705   4.249   2.018   2.675  0.0064  0.3498 -0.4921
 1677SOL    HW2 6706   4.265   2.105   2.639  0.3268  0.5591  0.1351
 1677SOL    HW3 6707   4.322   1.965   2.643  1.2515  0.9649  1.2348
 1677SOL    MW4 6708   4.261   2.023   2.666  0.2129  0.4586 -0.1815
 1678SOL     OW 6709   4.280   2.274   2.566 -0.1171  0.0493  0.0730
 1678SOL    HW2 6710   4.197   2.319   2.582  0.1804  0.7500 -0.3175
 1678SOL    HW3 6711   4.291   2.279   2.471  0.9020  0.9055  0.2312
 1678SOL    MW4 6712   4.271   2.280   2.555  0.0566  0.2547  0.0423
 1679SOL     OW 6713   4.029   2.401   2.615 -0.0098 -0.1908 -0.1525
 1679SOL    HW2 6714   4.041   2.399   2.710  0.2179 -0.1722 -0.1809
 1679SOL    HW3 6715   3.952   2.345   2.599 -1.2956  1.4570  0.2263
 1679SOL    MW4 6716   4.020   2.393   2.625 -0.1494  0.0291 -0.1063
 1680SOL     OW 6717   4.030   2.672   2.511  0.2231 -0.1682  0.0412
 1680SOL    HW2 6718   4.100   2.710   2.564 -1.2497 -0.6041  2.3754
 1680SOL    HW3 6719   4.032   2.579   2.531 -0.6387 -0.2749 -0.3346
 1680SOL    MW4 6720   4.039   2.665   2.521 -0.0849 -0.2398  0.2996
 1681SOL     OW 6721   4.234   2.809   2.640 -0.1805 -0.1384  0.2841
 1681SOL    HW2 6722   4.258   2.805   2.732  2.4838  0.1963 -0.3319
 1681SOL    HW3 6723   4.218   2.902   2.624  3.5031  0.4671 -0.4695
 1681SOL    MW4 6724   4.235   2.821   2.650  0.6570 -0.0143  0.1034
 1682SOL     OW 6725   4.238   3.090   2.549  0.2932  0.0194 -0.2132
 1682SOL    HW2 6726   4.167   3.150   2.573 -0.2814 -0.4974 -0.6133
 1682SOL    HW3 6727   4.242   3.094   2.454  2.4568  1.9348 -0.1035
 1682SOL    MW4 6728   4.229   3.098   2.540  0.5029  0.2039 -0.2515
 1683SOL     OW 6729   4.021   3.233   2.643  0.0164  0.2947  0.4436
 1683SOL    HW2 6730   4.020   3.325   2.617  0.9629  0.3276  0.5009
 1683SOL    HW3 6731   3.936   3.199   2.615  0.0247  0.9570 -0.4053
 1683SOL    MW4 6732   4.010   3.240   2.636  0.1424  0.3864  0.3392
 1684SOL     OW 6733   4.041   3.487   2.555  0.6601 -0.1790  0.0991
 1684SOL    HW2 6734   4.122   3.521   2.593  0.3944  0.7245 -0.1199
 1684SOL    HW3 6735   4.055   3.491   2.461  1.5077 -2.8946  0.0621
 1684SOL    MW4 6736   4.053   3.492   2.548  0.7369 -0.4181  0.0653
 1685SOL     OW 6737   4.304   3.609   2.647 -0.6869  0.0119 -0.3014
 1685SOL    HW2 6738   4.303   3.617   2.742  0.8808  1.1637 -0.3619
 1685SOL    HW3 6739   4.373   3.545   2.629  0.4759  1.3527 -0.7323
 1685SOL    MW4 6740   4.313   3.602   2.657 -0.3267  0.3407 -0.3662
 1686SOL     OW 6741   4.315   3.873   2.504 -0.0166  0.3738  0.2387
 1686SOL    HW2 6742   4.341   3.796   2.555 -0.4003  0.4068  0.4891
 1686SOL    HW3 6743   4.373   3.943   2.535  0.8021  0.0273 -0.4829
 1686SOL    MW4 6744   4.326   3.872   2.515  0.0408  0.3325  0.1766
 1687SOL     OW 6745   4.058   3.981   2.588 -0.6879  0.0449  0.2203
 1687SOL    HW2 6746   4.049   3.975   2.683  2.4071  0.1104  0.5677
 1687SOL    HW3 6747   4.135   3.928   2.567 -1.0500  0.3896 -2.2242
 1687SOL    MW4 6748   4.067   3.973   2.597 -0.3273  0.0990 -0.0564
 1688SOL     OW 6749   4.032   4.252   2.501  0.0750 -0.2771 -0.5846
 1688SOL    HW2 6750   4.043   4.158   2.512  1.1438 -0.3362 -2.0883
 1688SOL    HW3 6751   4.049   4.268   2.409  0.2065  1.4334 -0.2806
 1688SOL    MW4 6752   4.036   4.242   2.491  0.2334 -0.0592 -0.7429
 1689SOL     OW 6753   4.211   4.351   2.671  0.0099 -0.1909  0.1701
 1689SOL    HW2 6754   4.142   4.313   2.617 -1.1983  0.7698  1.0365
 1689SOL    HW3 6755   4.217   4.442   2.642  1.0737 -0.3246 -0.0541
 1689SOL    MW4 6756   4.203   4.358   2.660 -0.0092 -0.0818  0.2549
 1690SOL     OW 6757   0.213   4.584   2.968  0.0351  0.4747  0.0265
 1690SOL    HW2 6758   0.143   4.640   2.936  0.0754  0.8243  0.5325
 1690SOL    HW3 6759   0.218   4.604   3.062 -1.4300 -1.9486  0.6683
 1690SOL    MW4 6760   0.204   4.594   2.976 -0.1529  0.2011  0.1780
 1691SOL     OW 6761   4.288   4.629   3.026 -0.8140 -0.2889 -0.3831
 1691SOL    HW2 6762   4.291   4.636   3.121 -0.6657 -0.2677 -0.3891
 1691SOL    HW3 6763   4.271   4.536   3.010 -0.8141 -0.2970 -0.3367
 1691SOL    MW4 6764   4.286   4.617   3.036 -0.7944 -0.2872 -0.3777
 1692SOL     OW 6765   0.003   0.076   2.880  0.4075 -0.0339 -0.1142
 1692SOL    HW2 6766  -0.068   0.033   2.928  0.0795 -1.2537 -1.6461
 1692SOL    HW3 6767  -0.002   0.168   2.908 -2.4724  0.1381 -0.9466
 1692SOL    MW4 6768  -0.007   0.082   2.890 -0.0158 -0.1721 -0.4261
 1693SOL     OW 6769   0.238   0.433   2.841 -0.0077  0.0308 -0.5260
 1693SOL    HW2 6770   0.305   0.400   2.901  0.5180  1.7829 -0.1100
 1693SOL    HW3 6771   0.157   0.391   2.870  0.4907 -0.2049  0.5447
 1693SOL    MW4 6772   0.236   0.423   2.853  0.1274  0.2309 -0.3299
 1694SOL     OW 6773   0.230   0.683   2.971  0.0422  0.2792  0.5293
 1694SOL    HW2 6774   0.241   0.674   3.066 -0.8045 -0.8236  0.5183
 1694SOL    HW3 6775   0.233   0.594   2.938 -0.8725  0.5820 -0.3629
 1694SOL    MW4 6776   0.232   0.670   2.979 -0.1902  0.1736  0.4101
 1695SOL     OW 6777   0.013   0.877   2.922 -0.1077  0.4794  0.3444
 1695SOL    HW2 6778   0.081   0.817   2.953  0.4020  1.1537  0.5350
 1695SOL    HW3 6779   0.025   0.879   2.827 -1.1675 -0.9739  0.1516
 1695SOL    MW4 6780   0.024   0.869   2.914 -0.1803  0.3766  0.3441
 1696SOL     OW 6781   4.446   1.136   3.032  0.0600 -0.0827 -0.0014
 1696SOL    HW2 6782   4.377   1.175   2.979 -1.0538 -1.4821  0.3968
 1696SOL    HW3 6783   4.438   1.041   3.017  1.1759 -0.3351  0.8962
 1696SOL    MW4 6784   4.436   1.128   3.023  0.0603 -0.3007  0.1696
 1697SOL     OW 6785   0.208   1.234   2.925  0.5556  0.4042 -0.4880
 1697SOL    HW2 6786   0.126   1.194   2.952  1.1648  0.0718  0.9077
 1697SOL    HW3 6787   0.212   1.220   2.830 -0.5402 -0.3993 -0.4217
 1697SOL    MW4 6788   0.197   1.227   2.916  0.4914  0.2544 -0.2951
 1698SOL     OW 6789   0.261   1.506   2.948  0.0650  0.2299  0.4295
 1698SOL    HW2 6790   0.181   1.555   2.931 -0.1936 -0.7067 -1.2170
 1698SOL    HW3 6791   0.236   1.414   2.937  1.1567 -0.1192  0.7630
 1698SOL    MW4 6792   0.247   1.500   2.944  0.1749  0.0602  0.2562
 1699SOL     OW 6793   0.039   1.656   2.897 -0.1728 -0.1813  0.1042
 1699SOL    HW2 6794  -0.045   1.613   2.903 -1.0023  1.0320 -2.1987
 1699SOL    HW3 6795   0.033   1.730   2.958  0.0593 -1.3623  1.5827
 1699SOL    MW4 6796   0.027   1.660   2.905 -0.2516 -0.1770 -0.0046
 1700SOL     OW 6797   4.483   1.919   3.065  0.0259 -0.0812 -0.0158
 1700SOL    HW2 6798   4.399   1.954   3.034 -0.2619  0.4318  1.3129
 1700SOL    HW3 6799   4.548   1.959   3.007 -0.6221 -0.2900 -0.9018
 1700SOL    MW4 6800   4.481   1.929   3.053 -0.0976 -0.0410  0.0426
 1701SOL     OW 6801   0.201   2.012   2.894  0.4312  0.2242  0.4095
 1701SOL    HW2 6802   0.195   2.104   2.918  0.1367  0.0573  1.0077
 1701SOL    HW3 6803   0.197   2.011   2.798  0.2642  0.8178  0.4084
 1701SOL    MW4 6804   0.199   2.024   2.885  0.3703  0.2805  0.4883
 1702SOL     OW 6805   0.211   2.309   2.968 -0.5250  0.7044  0.3782
 1702SOL    HW2 6806   0.223   2.306   3.063 -2.0716  1.2484  0.6122
 1702SOL    HW3 6807   0.283   2.363   2.937  0.0756  0.4092  1.2244
 1702SOL    MW4 6808   0.222   2.316   2.977 -0.6498  0.7372  0.5207
 1703SOL     OW 6809   4.458   2.414   2.908  0.1631 -0.2964  0.1828
 1703SOL    HW2 6810   4.466   2.506   2.936 -0.4883  0.8435 -3.1066
 1703SOL    HW3 6811   4.534   2.371   2.947  0.6532  1.7306  1.5656
 1703SOL    MW4 6812   4.469   2.421   2.917  0.1418  0.1215 -0.0687
 1704SOL     OW 6813   0.003   2.677   3.012  0.2861 -0.4671  0.2098
 1704SOL    HW2 6814   0.010   2.668   3.107 -0.8882 -0.6959  0.2883
 1704SOL    HW3 6815   0.076   2.734   2.987  1.5649 -1.7170  1.0389
 1704SOL    MW4 6816   0.014   2.684   3.021  0.2999 -0.6622  0.3295
 1705SOL     OW 6817   0.221   2.819   2.927  0.4552  0.4761  0.5939
 1705SOL    HW2 6818   0.306   2.790   2.958  0.1486 -0.4523  0.5730
 1705SOL    HW3 6819   0.230   2.825   2.832  0.4869  0.3362  0.5881
 1705SOL    MW4 6820   0.233   2.816   2.918  0.4189  0.3351  0.5904
 1706SOL     OW 6821   0.290   3.091   2.980  0.1918  0.0524  0.4877
 1706SOL    HW2 6822   0.207   3.136   2.995 -0.5056 -1.3571  0.9089
 1706SOL    HW3 6823   0.266   3.004   2.949  1.5197 -0.1900  0.0871
 1706SOL    MW4 6824   0.276   3.086   2.978  0.2750 -0.1656  0.4904
 1707SOL     OW 6825   0.021   3.171   2.978 -0.3929  0.4914 -0.3281
 1707SOL    HW2 6826  -0.059   3.124   2.999 -1.0588  1.3866 -0.8162
 1707SOL    HW3 6827   0.006   3.208   2.891  0.4915  0.7860 -0.3700
 1707SOL    MW4 6828   0.009   3.170   2.970 -0.3641  0.6484 -0.3980
 1708SOL     OW 6829   4.465   3.430   3.066 -0.1427 -0.2657  0.3673
 1708SOL    HW2 6830   4.386   3.459   3.021  0.8822  0.5652 -0.9445
 1708SOL    HW3 6831   4.475   3.338   3.041 -0.0242 -0.0319 -0.4484
 1708SOL    MW4 6832   4.456   3.422   3.057  0.0081 -0.1252  0.0866
 1709SOL     OW 6833   0.198   3.527   2.938  0.0739 -0.4175 -0.1276
 1709SOL    HW2 6834   0.163   3.616   2.942 -0.0650 -0.5115  0.7427
 1709SOL    HW3 6835   0.140   3.476   2.994 -0.6433 -1.3296 -1.6668
 1709SOL    MW4 6836   0.186   3.532   2.946 -0.0391 -0.5502 -0.2159
 1710SOL     OW 6837   0.149   3.829   3.028 -0.0316  0.1682 -0.0744
 1710SOL    HW2 6838   0.133   3.856   3.118 -1.4219 -0.7385 -0.0276
 1710SOL    HW3 6839   0.239   3.855   3.010  0.3601  0.0683  1.6825
 1710SOL    MW4 6840   0.159   3.836   3.037 -0.1633  0.0354  0.1636
 1711SOL     OW 6841   4.423   3.958   2.916 -0.3881 -0.2720  0.4538
 1711SOL    HW2 6842   4.502   3.906   2.934 -0.3742 -0.0188  1.1415
 1711SOL    HW3 6843   4.430   3.982   2.823  0.3548 -0.2376  0.5169
 1711SOL    MW4 6844   4.434   3.954   2.906 -0.2883 -0.2341  0.5529
 1712SOL     OW 6845   4.478   4.220   3.002 -0.9458  0.5090  0.3712
 1712SOL    HW2 6846   4.477   4.230   3.097  2.5686  0.4808  0.4849
 1712SOL    HW3 6847   4.478   4.126   2.988  2.6460  0.4239  0.5401
 1712SOL    MW4 6848   4.478   4.209   3.013 -0.0083  0.4941  0.4085
 1713SOL     OW 6849   0.229   4.313   2.929 -0.1824  0.4541 -0.0005
 1713SOL    HW2 6850   0.145   4.274   2.954 -0.2609  1.0659  0.7380
 1713SOL    HW3 6851   0.219   4.406   2.952  0.8378  0.4507  0.4804
 1713SOL    MW4 6852   0.217   4.320   2.935 -0.0582  0.5344  0.1604
 1714SOL     OW 6853   0.680   4.629   2.928  0.3061  0.2309 -0.4438
 1714SOL    HW2 6854   0.686   4.538   2.898  0.9218  0.1491 -0.0896
 1714SOL    HW3 6855   0.590   4.655   2.909  0.0129 -0.5838 -0.1964
 1714SOL    MW4 6856   0.669   4.620   2.922  0.3486  0.1126 -0.3644
 1715SOL     OW 6857   0.421   0.070   2.864 -0.1202 -0.1905  0.2028
 1715SOL    HW2 6858   0.409   0.151   2.914 -0.9346  0.5488 -1.1640
 1715SOL    HW3 6859   0.350   0.013   2.892  0.3563 -0.3763  1.0447
 1715SOL    MW4 6860   0.410   0.073   2.874 -0.1648 -0.1174  0.1335
 1716SOL     OW 6861   0.641   4.506   3.629 -0.2545  0.4104  0.0796
 1716SOL    HW2 6862   0.695   4.448   3.682  0.6918  1.2387  0.0364
 1716SOL    HW3 6863   0.701   4.576   3.601 -0.8041  0.1768 -1.7822
 1716SOL    MW4 6864   0.656   4.508   3.632 -0.2022  0.4889 -0.1718
 1717SOL     OW 6865   0.901   0.875   2.877 -0.0142  0.0832  0.2885
 1717SOL    HW2 6866   0.916   0.946   2.940  0.6860  0.8635 -0.7447
 1717SOL    HW3 6867   0.821   0.833   2.907  0.1693  0.6066  1.5627
 1717SOL    MW4 6868   0.893   0.879   2.890  0.1024  0.2552  0.3203
 1718SOL     OW 6869   0.656   0.763   2.981  0.1672  0.4018  0.0365
 1718SOL    HW2 6870   0.573   0.809   2.968  0.4903  1.4116  1.4876
 1718SOL    HW3 6871   0.652   0.728   3.070  1.7581  1.4668  0.5598
 1718SOL    MW4 6872   0.645   0.764   2.991  0.4197  0.6756  0.2970
 1719SOL     OW 6873   0.417   0.872   2.908  0.0588 -1.0242 -0.1871
 1719SOL    HW2 6874   0.351   0.810   2.939  0.8869 -1.9750 -0.3239
 1719SOL    HW3 6875   0.411   0.868   2.813 -1.0164  0.3403 -0.2097
 1719SOL    MW4 6876   0.407   0.863   2.900  0.0262 -0.9696 -0.2081
 1720SOL     OW 6877   0.449   1.118   3.017 -0.1454 -0.1337  0.6190
 1720SOL    HW2 6878   0.446   1.034   2.973  1.7397  0.5405 -0.8905
 1720SOL    HW3 6879   0.371   1.165   2.987 -0.3683 -0.7482  0.2387
 1720SOL    MW4 6880   0.439   1.113   3.008  0.0739 -0.1258  0.3696
 1721SOL     OW 6881   0.671   1.262   2.921  0.4509 -0.4162 -0.4234
 1721SOL    HW2 6882   0.749   1.217   2.953  0.4863 -0.3951 -0.4800
 1721SOL    HW3 6883   0.598   1.207   2.950  0.4725 -0.3007 -0.1500
 1721SOL    MW4 6884   0.671   1.248   2.929  0.4584 -0.3982 -0.3948
 1722SOL     OW 6885   0.692   1.508   3.023 -0.1846 -0.7277  0.3043
 1722SOL    HW2 6886   0.665   1.510   3.115  3.0866 -2.0409  1.3556
 1722SOL    HW3 6887   0.675   1.418   2.995  1.1720 -1.0073  0.3775
 1722SOL    MW4 6888   0.686   1.497   3.032  0.4260 -0.9379  0.4527
 1723SOL     OW 6889   0.485   1.640   2.889 -0.1583  0.0047 -0.1131
 1723SOL    HW2 6890   0.560   1.611   2.941 -0.3581  2.2222  1.4746
 1723SOL    HW3 6891   0.416   1.576   2.908  0.3234 -0.1955  0.9851
 1723SOL    MW4 6892   0.486   1.628   2.898 -0.1211  0.2709  0.2413
 1724SOL     OW 6893   0.463   1.911   2.923  0.2500  0.1634 -0.6987
 1724SOL    HW2 6894   0.464   1.817   2.910  0.3833 -0.1302  1.2200
 1724SOL    HW3 6895   0.371   1.936   2.913  0.1668 -0.2172 -0.8943
 1724SOL    MW4 6896   0.451   1.902   2.920  0.2566  0.0744 -0.4714
 1725SOL     OW 6897   0.701   2.029   2.872  0.1125  0.1704  0.3910
 1725SOL    HW2 6898   0.625   1.974   2.892  1.0320 -1.8060 -1.3302
 1725SOL    HW3 6899   0.774   1.987   2.917  0.8735 -0.2354 -1.1714
 1725SOL    MW4 6900   0.700   2.016   2.880  0.3342 -0.1439 -0.0422
 1726SOL     OW 6901   0.651   2.290   2.994  0.0373 -0.5293  0.3475
 1726SOL    HW2 6902   0.667   2.279   3.088  0.6753 -1.8299  0.1049
 1726SOL    HW3 6903   0.669   2.203   2.957 -0.5931 -0.1232 -0.9212
 1726SOL    MW4 6904   0.656   2.277   3.002  0.0383 -0.6473  0.1481
 1727SOL     OW 6905   0.448   2.440   2.875  0.1319 -0.3304 -0.0154
 1727SOL    HW2 6906   0.507   2.376   2.913  0.3535 -0.5170 -0.6745
 1727SOL    HW3 6907   0.452   2.425   2.781 -0.9061 -0.3004 -0.0756
 1727SOL    MW4 6908   0.456   2.430   2.868  0.0242 -0.3511 -0.1103
 1728SOL     OW 6909   0.678   2.798   2.902 -0.1895  0.0858  0.3342
 1728SOL    HW2 6910   0.679   2.893   2.916 -0.5178 -0.0192  1.1272
 1728SOL    HW3 6911   0.750   2.765   2.956 -1.0227 -0.2586  1.2550
 1728SOL    MW4 6912   0.687   2.806   2.911 -0.3427  0.0265  0.5603
 1729SOL     OW 6913   0.884   2.690   3.036  0.2971 -0.1135 -0.1327
 1729SOL    HW2 6914   0.874   2.601   3.004  1.1549 -1.0992  2.2163
 1729SOL    HW3 6915   0.883   2.682   3.132  2.2494  2.1745  0.1341
 1729SOL    MW4 6916   0.882   2.677   3.045  0.6678  0.0583  0.2124
 1730SOL     OW 6917   0.692   3.073   2.960  0.6533  0.1293 -0.1081
 1730SOL    HW2 6918   0.682   3.070   3.055 -0.3353  0.5740 -0.1875
 1730SOL    HW3 6919   0.631   3.141   2.932  0.5883 -0.3319 -1.1038
 1730SOL    MW4 6920   0.682   3.081   2.969  0.5143  0.1271 -0.2500
 1731SOL     OW 6921   0.498   3.261   2.906 -0.1810 -0.4061  0.0695
 1731SOL    HW2 6922   0.493   3.344   2.953  0.9892  0.0690 -0.6213
 1731SOL    HW3 6923   0.416   3.216   2.926 -0.0470  0.1481  1.8959
 1731SOL    MW4 6924   0.487   3.266   2.915 -0.0089 -0.2703  0.2193
 1732SOL     OW 6925   0.450   3.504   3.018  0.0712 -0.0199  0.5869
 1732SOL    HW2 6926   0.448   3.530   3.110  0.7671  0.8864  0.3488
 1732SOL    HW3 6927   0.359   3.513   2.989  0.3308  2.5728  0.4144
 1732SOL    MW4 6928   0.438   3.509   3.026  0.1972  0.4418  0.5327
 1733SOL     OW 6929   0.693   3.611   2.925 -0.0279  0.1838  0.1533
 1733SOL    HW2 6930   0.753   3.549   2.966 -0.7590 -1.2015 -0.8609
 1733SOL    HW3 6931   0.606   3.580   2.949 -0.4110  0.3769 -0.9876
 1733SOL    MW4 6932   0.689   3.599   2.934 -0.1749  0.0265 -0.1310
 1734SOL     OW 6933   0.701   3.867   3.023 -0.2376 -0.0462 -0.0573
 1734SOL    HW2 6934   0.694   3.866   3.119  3.9054  0.3102  0.3368
 1734SOL    HW3 6935   0.697   3.774   2.998 -0.4413 -0.2018  0.5411
 1734SOL    MW4 6936   0.699   3.854   3.032  0.2821 -0.0197  0.0736
 1735SOL     OW 6937   0.429   3.950   2.974  0.0023  0.2350 -0.0840
 1735SOL    HW2 6938   0.520   3.922   2.990 -0.2958 -0.5729  0.2245
 1735SOL    HW3 6939   0.421   3.950   2.878  0.4825  0.8303 -0.1321
 1735SOL    MW4 6940   0.440   3.946   2.963  0.0264  0.2070 -0.0496
 1736SOL     OW 6941   0.492   4.214   2.957  0.7004  0.0403 -0.1781
 1736SOL    HW2 6942   0.458   4.124   2.953  0.7099  0.0451 -0.3733
 1736SOL    HW3 6943   0.413   4.269   2.951  0.7220  0.0486 -0.3991
 1736SOL    MW4 6944   0.477   4.209   2.956  0.7045  0.0420 -0.2330
 1737SOL     OW 6945   0.688   4.369   2.838 -0.6314  0.0723  0.1743
 1737SOL    HW2 6946   0.623   4.317   2.886 -0.4235  0.2579  0.6622
 1737SOL    HW3 6947   0.650   4.381   2.751 -0.8583 -0.5624  0.1865
 1737SOL    MW4 6948   0.674   4.364   2.833 -0.6339  0.0130  0.2403
 1738SOL     OW 6949   1.095   4.640   3.009  0.6337  0.5598  0.1854
 1738SOL    HW2 6950   1.185   4.652   2.981  0.1877  1.2516 -0.9825
 1738SOL    HW3 6951   1.043   4.690   2.946 -0.7182 -1.4639 -0.3641
 1738SOL    MW4 6952   1.100   4.648   2.997  0.3965  0.3840 -0.0412
 1739SOL     OW 6953   0.898   0.092   2.850 -0.4911  0.2556  0.0151
 1739SOL    HW2 6954   0.898   0.182   2.885  0.4716  0.5401 -0.6914
 1739SOL    HW3 6955   0.815   0.055   2.879 -0.2694  0.9017  1.5453
 1739SOL    MW4 6956   0.887   0.099   2.858 -0.3348  0.3784  0.1238
 1740SOL     OW 6957   0.878   0.336   2.961 -0.2765 -0.1708 -0.2830
 1740SOL    HW2 6958   0.892   0.326   3.055  0.7127 -0.2714 -0.4448
 1740SOL    HW3 6959   0.956   0.381   2.929 -0.4701 -0.4163 -1.1125
 1740SOL    MW4 6960   0.890   0.341   2.969 -0.1715 -0.2165 -0.4138
 1741SOL     OW 6961   1.099   0.474   2.851 -0.1977  0.0251  0.1937
 1741SOL    HW2 6962   1.179   0.424   2.867 -0.0158 -0.5103 -2.1706
 1741SOL    HW3 6963   1.096   0.483   2.756 -2.4381  0.9011  0.3331
 1741SOL    MW4 6964   1.109   0.468   2.841 -0.4693  0.0701 -0.0999
 1742SOL     OW 6965   1.129   0.731   2.935  0.2118  0.0895 -0.1462
 1742SOL    HW2 6966   1.052   0.777   2.901  0.3637  0.5430  0.1166
 1742SOL    HW3 6967   1.120   0.642   2.901  0.1368  0.4204 -1.0184
 1742SOL    MW4 6968   1.118   0.725   2.926  0.2219  0.1930 -0.2266
 1743SOL     OW 6969   0.825   1.110   3.317 -0.2605  0.0887 -0.8086
 1743SOL    HW2 6970   0.884   1.148   3.382  0.0053  0.6843 -1.3791
 1743SOL    HW3 6971   0.830   1.016   3.331  0.9033  0.1215 -0.8972
 1743SOL    MW4 6972   0.834   1.103   3.327 -0.0719  0.1716 -0.8956
 1744SOL     OW 6973   0.902   1.142   3.016  0.2746 -0.2864  0.4901
 1744SOL    HW2 6974   0.977   1.187   2.976  0.3643 -0.4251  0.5018
 1744SOL    HW3 6975   0.914   1.156   3.110  0.1143 -0.0397  0.4735
 1744SOL    MW4 6976   0.914   1.150   3.023  0.2653 -0.2721  0.4894
 1745SOL     OW 6977   1.132   1.247   2.891  0.0024 -0.4692 -0.4101
 1745SOL    HW2 6978   1.205   1.196   2.926 -0.0085 -1.0629 -1.2320
 1745SOL    HW3 6979   1.133   1.229   2.797 -1.4317 -0.7952 -0.3827
 1745SOL    MW4 6980   1.141   1.238   2.883 -0.1883 -0.5905 -0.5149
 1746SOL     OW 6981   1.135   1.512   2.987  0.7224 -0.1861 -0.0283
 1746SOL    HW2 6982   1.218   1.541   2.951  0.9772 -1.9374 -0.8916
 1746SOL    HW3 6983   1.127   1.421   2.959 -1.8899  0.2142 -0.7147
 1746SOL    MW4 6984   1.145   1.504   2.979  0.4113 -0.3644 -0.2327
 1747SOL     OW 6985   0.894   1.646   2.906 -0.0216  0.0507 -0.0715
 1747SOL    HW2 6986   0.970   1.597   2.936 -0.6850 -1.2594 -0.4803
 1747SOL    HW3 6987   0.819   1.595   2.939 -0.7191  0.5752 -0.8466
 1747SOL    MW4 6988   0.894   1.632   2.915 -0.2012 -0.0529 -0.2277
 1748SOL     OW 6989   0.900   1.916   2.977  0.3354 -0.6246 -0.3761
 1748SOL    HW2 6990   0.899   1.908   3.073  1.1566 -1.0088 -0.4022
 1748SOL    HW3 6991   0.911   1.827   2.946 -0.5427 -0.5741 -0.8517
 1748SOL    MW4 6992   0.901   1.903   2.986  0.3279 -0.6687 -0.4423
 1749SOL     OW 6993   1.153   2.039   2.916  0.3986  0.0949 -0.1534
 1749SOL    HW2 6994   1.065   2.009   2.941  1.1808 -1.9611  0.2538
 1749SOL    HW3 6995   1.157   2.024   2.821  0.9991 -1.6960  0.1453
 1749SOL    MW4 6996   1.142   2.033   2.907  0.5810 -0.4127 -0.0603
 1750SOL     OW 6997   1.114   2.292   2.998  0.0165  0.1936 -0.4684
 1750SOL    HW2 6998   1.117   2.213   2.945  0.1416  0.4984 -0.9193
 1750SOL    HW3 6999   1.027   2.330   2.980 -0.1806 -0.0270  0.0167
 1750SOL    MW4 7000   1.103   2.287   2.989  0.0070  0.2047 -0.4639
 1751SOL     OW 7001   0.873   2.442   2.913 -0.0935 -0.1910  0.1599
 1751SOL    HW2 7002   0.791   2.405   2.947 -0.8100  1.1489 -0.0741
 1751SOL    HW3 7003   0.865   2.435   2.818 -0.1716  0.4168  0.1174
 1751SOL    MW4 7004   0.861   2.436   2.905 -0.1983  0.0660  0.1234
 1752SOL     OW 7005   0.906   2.657   3.306  0.4431 -0.7562 -0.0313
 1752SOL    HW2 7006   0.991   2.698   3.321  0.6658 -1.0580 -0.4597
 1752SOL    HW3 7007   0.921   2.564   3.321  0.6971 -1.0898 -2.1558
 1752SOL    MW4 7008   0.919   2.650   3.310  0.5060 -0.8400 -0.3681
 1753SOL     OW 7009   1.118   2.800   2.888 -0.1337  0.6759 -0.0449
 1753SOL    HW2 7010   1.116   2.892   2.917  0.6087  0.6646  0.0299
 1753SOL    HW3 7011   1.042   2.760   2.932  1.3224  0.5050  2.4055
 1753SOL    MW4 7012   1.107   2.807   2.898  0.1563  0.6519  0.2882
 1754SOL     OW 7013   1.147   3.068   3.031 -0.1826  0.3487  0.1234
 1754SOL    HW2 7014   1.215   3.118   2.986 -0.2012 -0.0391 -0.3378
 1754SOL    HW3 7015   1.065   3.110   3.005  0.0486  3.0140  3.4094
 1754SOL    MW4 7016   1.145   3.080   3.022 -0.1546  0.6492  0.4961
 1755SOL     OW 7017   0.924   3.193   2.917 -0.1466 -0.0264 -0.0793
 1755SOL    HW2 7018   0.849   3.136   2.933 -0.7626  0.6595 -0.5042
 1755SOL    HW3 7019   0.931   3.198   2.822  0.0755  0.3660 -0.0454
 1755SOL    MW4 7020   0.915   3.186   2.906 -0.1986  0.1158 -0.1309
 1756SOL     OW 7021   0.889   3.454   3.037  0.0829 -0.1344 -0.1900
 1756SOL    HW2 7022   0.958   3.492   2.983 -0.8918 -0.3046 -1.5736
 1756SOL    HW3 7023   0.866   3.372   2.993  1.5602 -1.9406  2.2771
 1756SOL    MW4 7024   0.895   3.448   3.024  0.1492 -0.3951 -0.0470
 1757SOL     OW 7025   1.102   3.587   2.905  0.1739  0.4983  0.3220
 1757SOL    HW2 7026   1.182   3.541   2.929  0.9310  1.0382 -1.1119
 1757SOL    HW3 7027   1.104   3.668   2.956  0.9344  0.8663 -0.2811
 1757SOL    MW4 7028   1.113   3.592   2.915  0.3741  0.6181  0.0533
 1758SOL     OW 7029   1.136   3.837   3.038  0.0518  0.5148  0.1666
 1758SOL    HW2 7030   1.112   3.842   3.131  0.4411  0.6917  0.2600
 1758SOL    HW3 7031   1.066   3.883   2.992 -1.9838 -2.5764  0.0477
 1758SOL    MW4 7032   1.124   3.844   3.044 -0.1654  0.1303  0.1632
 1759SOL     OW 7033   0.929   3.959   2.906  0.2370  0.1146 -0.3755
 1759SOL    HW2 7034   0.845   3.938   2.947 -0.1842 -1.0015 -1.7773
 1759SOL    HW3 7035   0.910   3.964   2.813  1.3124  2.0802 -0.5116
 1759SOL    MW4 7036   0.915   3.957   2.899  0.3233  0.2267 -0.5784
 1760SOL     OW 7037   0.911   4.223   2.951 -0.1413  0.3984  0.0506
 1760SOL    HW2 7038   0.939   4.135   2.925  1.8090  1.1033 -0.3294
 1760SOL    HW3 7039   0.839   4.243   2.892 -0.7227 -1.0129  0.2557
 1760SOL    MW4 7040   0.905   4.214   2.940  0.0393  0.3052  0.0275
 1761SOL     OW 7041   1.114   4.392   2.910  0.5720  0.1123  0.5392
 1761SOL    HW2 7042   1.041   4.333   2.932  1.2474  0.3774  3.7559
 1761SOL    HW3 7043   1.086   4.478   2.942  1.7495  0.4761  0.6137
 1761SOL    MW4 7044   1.100   4.395   2.917  0.8164  0.1953  0.9735
 1762SOL     OW 7045   1.585   4.613   3.117  0.3743 -0.2093 -0.2905
 1762SOL    HW2 7046   1.567   4.700   3.151 -0.8651 -0.0967 -1.2254
 1762SOL    HW3 7047   1.585   4.557   3.194  0.4766  0.5063  0.2316
 1762SOL    MW4 7048   1.583   4.617   3.132  0.2242 -0.1000 -0.3449
 1763SOL     OW 7049   1.355   0.044   2.884 -0.1370 -0.0511  0.3453
 1763SOL    HW2 7050   1.384  -0.048   2.882 -1.8769 -0.6049 -0.1087
 1763SOL    HW3 7051   1.348   0.069   2.791  0.4694  0.5871  0.4700
 1763SOL    MW4 7052   1.358   0.035   2.871 -0.2866 -0.0399  0.3018
 1764SOL     OW 7053   1.275   0.444   3.202  0.1116 -0.1812 -0.5786
 1764SOL    HW2 7054   1.367   0.462   3.224  0.4418 -2.6051  0.2717
 1764SOL    HW3 7055   1.279   0.372   3.140 -1.2054  0.1760 -1.0930
 1764SOL    MW4 7056   1.288   0.437   3.197 -0.0186 -0.4539 -0.5343
 1765SOL     OW 7057   1.589   0.435   2.863  0.0557  0.1433  0.2483
 1765SOL    HW2 7058   1.567   0.524   2.889  1.4335  0.5536  0.0306
 1765SOL    HW3 7059   1.570   0.432   2.769 -0.9822 -0.1054  0.4647
 1765SOL    MW4 7060   1.584   0.446   2.854  0.1005  0.1646  0.2481
 1766SOL     OW 7061   1.540   0.695   2.939 -0.4186 -0.1106 -0.2181
 1766SOL    HW2 7062   1.522   0.690   3.033  0.2122  0.2173 -0.0790
 1766SOL    HW3 7063   1.461   0.735   2.902  0.0074  1.3623  0.3984
 1766SOL    MW4 7064   1.527   0.700   2.946 -0.2792  0.1270 -0.1184
 1767SOL     OW 7065   1.340   0.870   2.856 -0.2259  0.4268 -0.6755
 1767SOL    HW2 7066   1.346   0.954   2.901  1.2444  0.1468 -0.3218
 1767SOL    HW3 7067   1.261   0.829   2.890 -1.1570  1.8278 -1.1345
 1767SOL    MW4 7068   1.331   0.876   2.866 -0.1548  0.5747 -0.6894
 1768SOL     OW 7069   1.329   1.102   3.028  0.5105  0.5261  0.2132
 1768SOL    HW2 7070   1.316   1.098   3.123  0.6415  1.1131  0.2569
 1768SOL    HW3 7071   1.413   1.147   3.018  0.2036  1.0045 -0.2016
 1768SOL    MW4 7072   1.339   1.107   3.039  0.4873  0.6667  0.1643
 1769SOL     OW 7073   1.567   1.219   2.932  0.2339 -0.1715  0.1287
 1769SOL    HW2 7074   1.653   1.177   2.942  0.9676  1.2362 -0.2172
 1769SOL    HW3 7075   1.582   1.310   2.959 -1.0422  0.1987 -0.4168
 1769SOL    MW4 7076   1.581   1.225   2.937  0.1623  0.0631  0.0111
 1770SOL     OW 7077   1.572   1.515   2.992 -0.2968 -0.2802  0.2541
 1770SOL    HW2 7078   1.653   1.543   2.949 -1.6060  0.5276 -1.7679
 1770SOL    HW3 7079   1.504   1.571   2.954 -1.8703 -1.2350  1.5951
 1770SOL    MW4 7080   1.573   1.526   2.981 -0.6772 -0.2996  0.1642
 1771SOL     OW 7081   1.358   1.656   2.876  0.1488 -0.0748  0.5480
 1771SOL    HW2 7082   1.361   1.735   2.929 -1.5022 -0.2111  0.8471
 1771SOL    HW3 7083   1.365   1.688   2.786 -1.1079  0.4648  0.6339
 1771SOL    MW4 7084   1.359   1.671   2.871 -0.2348 -0.0216  0.5988
 1772SOL     OW 7085   1.371   1.883   3.024 -0.2250 -0.2622 -0.1953
 1772SOL    HW2 7086   1.362   1.873   3.118 -1.1828 -1.4965 -0.4088
 1772SOL    HW3 7087   1.296   1.937   2.998  1.1611  1.8401  0.0055
 1772SOL    MW4 7088   1.360   1.889   3.033 -0.1685 -0.1477 -0.1970
 1773SOL     OW 7089   1.567   2.028   2.914 -0.3140  0.0650  0.7274
 1773SOL    HW2 7090   1.502   1.967   2.950  0.0346 -0.4513  0.4868
 1773SOL    HW3 7091   1.541   2.041   2.823  0.0801 -0.3673  0.5499
 1773SOL    MW4 7092   1.555   2.022   2.907 -0.2160 -0.0602  0.6722
 1774SOL     OW 7093   1.596   2.314   2.964 -0.0062 -0.1489  0.1049
 1774SOL    HW2 7094   1.506   2.345   2.954 -0.2291 -0.6544  0.5178
 1774SOL    HW3 7095   1.588   2.219   2.970  0.6024 -0.2308 -0.3601
 1774SOL    MW4 7096   1.583   2.305   2.963  0.0447 -0.2264  0.0980
 1775SOL     OW 7097   1.340   2.433   2.933 -0.3152  0.1714 -0.1680
 1775SOL    HW2 7098   1.262   2.390   2.967 -0.3781  0.1704 -0.3116
 1775SOL    HW3 7099   1.328   2.433   2.838  0.4598 -0.9915 -0.2707
 1775SOL    MW4 7100   1.328   2.428   2.925 -0.2213  0.0179 -0.2005
 1776SOL     OW 7101   1.367   2.717   2.977  0.0446  0.0334  0.6497
 1776SOL    HW2 7102   1.358   2.622   2.966  1.6563  0.1741 -2.2982
 1776SOL    HW3 7103   1.283   2.753   2.947  0.9961 -0.2241 -2.4731
 1776SOL    MW4 7104   1.355   2.709   2.972  0.3828  0.0180 -0.1512
 1777SOL     OW 7105   1.584   2.879   2.922  0.9224 -0.6272 -0.1818
 1777SOL    HW2 7106   1.669   2.837   2.935  1.6911  1.2651  1.0943
 1777SOL    HW3 7107   1.520   2.810   2.941  2.1314 -2.5973 -2.9522
 1777SOL    MW4 7108   1.587   2.864   2.926  1.1833 -0.6374 -0.3789
 1778SOL     OW 7109   1.581   3.169   2.940  0.5708  0.1028  0.3882
 1778SOL    HW2 7110   1.555   3.176   3.032  1.5605 -1.2383  0.7908
 1778SOL    HW3 7111   1.568   3.077   2.918 -1.2863  0.7359 -1.3350
 1778SOL    MW4 7112   1.576   3.158   2.949  0.4563  0.0094  0.2140
 1779SOL     OW 7113   1.331   3.209   2.889 -0.3309 -0.5390 -0.0796
 1779SOL    HW2 7114   1.422   3.183   2.901 -0.4220 -1.2688 -0.9117
 1779SOL    HW3 7115   1.324   3.231   2.796 -0.2281  2.6123  0.5846
 1779SOL    MW4 7116   1.342   3.209   2.879 -0.3294 -0.2195 -0.1018
 1780SOL     OW 7117   1.355   3.469   3.004  0.4108  0.1314 -0.1278
 1780SOL    HW2 7118   1.335   3.459   3.097 -0.4599  0.5577 -0.2672
 1780SOL    HW3 7119   1.345   3.380   2.969  2.6683 -0.4341  0.5308
 1780SOL    MW4 7120   1.351   3.456   3.012  0.5938  0.1130 -0.0593
 1781SOL     OW 7121   1.564   3.643   2.914 -0.2440 -0.2018  0.1167
 1781SOL    HW2 7122   1.485   3.596   2.941 -1.7404  1.1965 -1.7350
 1781SOL    HW3 7123   1.571   3.627   2.820 -0.0548  2.2119 -0.2937
 1781SOL    MW4 7124   1.555   3.634   2.905 -0.4165  0.3011 -0.1818
 1782SOL     OW 7125   1.587   3.904   3.007  0.3478 -0.4128 -0.2172
 1782SOL    HW2 7126   1.670   3.940   2.975 -0.7036  0.5189 -2.0232
 1782SOL    HW3 7127   1.590   3.812   2.981  0.8364 -0.3919 -0.2456
 1782SOL    MW4 7128   1.598   3.897   2.999  0.2736 -0.2871 -0.4592
 1783SOL     OW 7129   1.341   4.011   2.905  0.1724  0.4597 -0.3226
 1783SOL    HW2 7130   1.278   3.965   2.959  1.1861 -0.0061  0.4829
 1783SOL    HW3 7131   1.427   3.985   2.940  0.8194  0.7303 -1.6779
 1783SOL    MW4 7132   1.344   4.002   2.917  0.3915  0.4339 -0.3951
 1784SOL     OW 7133   1.330   4.263   3.010 -0.2167  0.0998  0.1534
 1784SOL    HW2 7134   1.318   4.177   2.970 -0.3854  0.3271 -0.3017
 1784SOL    HW3 7135   1.255   4.314   2.978  0.8684  0.9505 -1.0666
 1784SOL    MW4 7136   1.318   4.258   3.000 -0.0958  0.2420 -0.0676
 1785SOL     OW 7137   1.465   4.459   2.896  0.4982 -0.5337 -0.0788
 1785SOL    HW2 7138   1.423   4.385   2.940  1.2063 -0.3351  0.9448
 1785SOL    HW3 7139   1.498   4.514   2.967  0.5118  0.4617 -0.8424
 1785SOL    MW4 7140   1.464   4.456   2.911  0.5934 -0.3762 -0.0445
 1786SOL     OW 7141   1.751   0.056   3.444  0.3657 -0.1455  0.2866
 1786SOL    HW2 7142   1.833   0.029   3.403 -0.0277 -1.3795  0.2694
 1786SOL    HW3 7143   1.773   0.135   3.493  1.4692 -0.2340 -0.0539
 1786SOL    MW4 7144   1.764   0.063   3.445  0.4594 -0.3200  0.2394
 1787SOL     OW 7145   1.951   0.085   2.877  0.0013  0.8851  0.1112
 1787SOL    HW2 7146   1.921   0.160   2.929  0.8070  0.5751  1.0336
 1787SOL    HW3 7147   1.912   0.099   2.791 -0.9834  1.6381  0.6678
 1787SOL    MW4 7148   1.942   0.097   2.873 -0.0223  0.9435  0.3063
 1788SOL     OW 7149   1.855   0.316   2.994 -0.1414 -0.2950  0.7055
 1788SOL    HW2 7150   1.767   0.341   2.964  0.2434 -0.0630 -0.2606
 1788SOL    HW3 7151   1.861   0.350   3.083  0.2265  2.7893 -0.4204
 1788SOL    MW4 7152   1.844   0.324   3.002 -0.0421  0.1425  0.4295
 1789SOL     OW 7153   2.024   0.474   2.857 -0.0631  0.2214 -0.1516
 1789SOL    HW2 7154   1.950   0.428   2.897 -0.8653  1.1676 -0.5186
 1789SOL    HW3 7155   2.016   0.456   2.763  0.8639 -0.6450 -0.0729
 1789SOL    MW4 7156   2.013   0.465   2.850 -0.0466  0.2319 -0.1897
 1790SOL     OW 7157   2.017   0.737   2.959 -0.4035 -0.2735  0.1156
 1790SOL    HW2 7158   2.025   0.649   2.923  1.0945  1.1548 -3.2860
 1790SOL    HW3 7159   1.933   0.769   2.927  0.1950  0.4240 -0.7692
 1790SOL    MW4 7160   2.007   0.730   2.950 -0.1269  0.0070 -0.4499
 1791SOL     OW 7161   1.762   0.830   2.883  0.6594  0.4479  0.2316
 1791SOL    HW2 7162   1.684   0.784   2.914  0.7141 -0.1734 -0.5178
 1791SOL    HW3 7163   1.753   0.829   2.787  1.7752  0.0165  0.1193
 1791SOL    MW4 7164   1.750   0.824   2.874  0.8138  0.3090  0.1179
 1792SOL     OW 7165   1.828   1.094   2.927 -0.0762  0.7159  0.2176
 1792SOL    HW2 7166   1.842   1.107   3.020 -1.0564  0.3563  0.4128
 1792SOL    HW3 7167   1.806   1.001   2.918 -0.3276  0.8267 -0.3346
 1792SOL    MW4 7168   1.827   1.083   2.938 -0.2387  0.6830  0.1705
 1793SOL     OW 7169   2.055   1.230   2.842  0.1378 -0.6434 -0.2627
 1793SOL    HW2 7170   2.128   1.204   2.898 -1.5509  0.4988  2.5987
 1793SOL    HW3 7171   1.980   1.179   2.874 -1.5149  2.1342  0.5489
 1793SOL    MW4 7172   2.054   1.220   2.854 -0.3030 -0.1262  0.2219
 1794SOL     OW 7173   2.061   1.494   2.940 -0.0882 -0.4324 -0.2786
 1794SOL    HW2 7174   2.057   1.486   3.035  0.6866  2.8061  0.0706
 1794SOL    HW3 7175   2.052   1.404   2.908 -0.5786 -1.5413  2.8249
 1794SOL    MW4 7176   2.059   1.481   2.948 -0.0507 -0.1515  0.1769
 1795SOL     OW 7177   1.812   1.612   2.897  0.1481  0.1822  0.3012
 1795SOL    HW2 7178   1.817   1.704   2.922 -0.4679  0.0934  0.7456
 1795SOL    HW3 7179   1.898   1.576   2.919 -0.3689  0.1110  2.2723
 1795SOL    MW4 7180   1.824   1.619   2.903 -0.0014  0.1611  0.6199
 1796SOL     OW 7181   1.794   1.884   2.974 -0.4336 -0.0144 -0.1674
 1796SOL    HW2 7182   1.859   1.939   2.930  0.7009 -0.9321  0.3579
 1796SOL    HW3 7183   1.710   1.924   2.951  0.2824  0.9023 -1.2312
 1796SOL    MW4 7184   1.791   1.897   2.965 -0.1894 -0.0146 -0.2384
 1797SOL     OW 7185   2.016   2.036   2.869 -0.1154 -0.1598  0.2226
 1797SOL    HW2 7186   2.102   2.009   2.904 -0.3725 -1.5340 -0.1604
 1797SOL    HW3 7187   2.013   2.130   2.884  1.0815 -0.2365  1.0911
 1797SOL    MW4 7188   2.027   2.045   2.876  0.0086 -0.3512  0.2867
 1798SOL     OW 7189   2.016   2.315   2.948 -0.0688  0.1536 -1.0602
 1798SOL    HW2 7190   2.091   2.373   2.935 -0.8779  2.0668  2.1940
 1798SOL    HW3 7191   1.941   2.367   2.921 -0.6181 -0.1283 -0.0971
 1798SOL    MW4 7192   2.016   2.330   2.943 -0.2480  0.3688 -0.5038
 1799SOL     OW 7193   1.798   2.463   2.851 -0.4619 -0.0586 -0.3252
 1799SOL    HW2 7194   1.803   2.555   2.877  1.5210 -0.1996 -0.1160
 1799SOL    HW3 7195   1.722   2.429   2.896 -0.6845  1.2589  0.3201
 1799SOL    MW4 7196   1.789   2.471   2.860 -0.2296  0.0966 -0.2125
 1800SOL     OW 7197   1.804   2.725   2.968 -0.3440 -0.0212 -0.0698
 1800SOL    HW2 7198   1.815   2.714   3.063 -0.7484  2.2874  0.2627
 1800SOL    HW3 7199   1.883   2.771   2.940 -0.1882 -0.7759 -0.8757
 1800SOL    MW4 7200   1.816   2.729   2.977 -0.3768  0.1838 -0.1323
 1801SOL     OW 7201   2.033   2.865   2.872  0.0169 -0.5265  0.2328
 1801SOL    HW2 7202   2.032   2.957   2.899  0.2845 -0.3903 -0.2208
 1801SOL    HW3 7203   2.035   2.868   2.777  0.0851 -1.0034  0.2187
 1801SOL    MW4 7204   2.033   2.877   2.863  0.0612 -0.5715  0.1711
 1802SOL     OW 7205   2.052   3.128   2.973  0.5013 -0.1535  0.0634
 1802SOL    HW2 7206   2.050   3.154   3.065  2.8589  1.2446 -0.2389
 1802SOL    HW3 7207   1.976   3.172   2.934  2.2534  3.3171  0.3659
 1802SOL    MW4 7208   2.042   3.137   2.980  1.0435  0.4889  0.0634
 1803SOL     OW 7209   1.821   3.255   2.862  0.1414  0.5621  0.3503
 1803SOL    HW2 7210   1.819   3.231   2.770  0.9390  0.1458  0.4390
 1803SOL    HW3 7211   1.731   3.244   2.892 -0.2876  1.4434 -0.5640
 1803SOL    MW4 7212   1.809   3.251   2.854  0.1900  0.6235  0.2414
 1804SOL     OW 7213   1.785   3.502   2.984  0.7672 -0.1738 -0.6397
 1804SOL    HW2 7214   1.797   3.420   2.936  0.5260 -0.6054  0.0300
 1804SOL    HW3 7215   1.710   3.544   2.942  0.2293 -0.7967 -0.3101
 1804SOL    MW4 7216   1.777   3.497   2.972  0.6644 -0.3130 -0.5079
 1805SOL     OW 7217   2.007   3.632   2.907  0.2210  0.0615 -0.1154
 1805SOL    HW2 7218   2.006   3.726   2.925  0.2675  0.3267 -1.4352
 1805SOL    HW3 7219   1.922   3.601   2.936 -1.0642  1.1019 -2.6120
 1805SOL    MW4 7220   1.996   3.641   2.913  0.0576  0.2338 -0.6189
 1806SOL     OW 7221   2.006   3.894   3.001  0.0413 -0.0829 -0.2089
 1806SOL    HW2 7222   2.000   3.892   3.097  1.6951  0.6280 -0.0686
 1806SOL    HW3 7223   1.931   3.948   2.973 -0.5638 -0.4617  0.6608
 1806SOL    MW4 7224   1.995   3.901   3.010  0.1796 -0.0391 -0.0757
 1807SOL     OW 7225   1.790   4.063   2.913  0.3457 -0.3841 -0.3139
 1807SOL    HW2 7226   1.849   4.136   2.933 -0.4270  0.0190  0.5177
 1807SOL    HW3 7227   1.801   4.049   2.819  2.5124 -0.9776 -0.0069
 1807SOL    MW4 7228   1.799   4.071   2.903  0.5296 -0.4092 -0.1636
 1808SOL     OW 7229   1.829   4.526   3.024 -0.0770 -0.3765  0.4018
 1808SOL    HW2 7230   1.740   4.545   3.053 -0.1123  0.9123 -0.5104
 1808SOL    HW3 7231   1.860   4.608   2.986  1.3306 -0.9549  0.2754
 1808SOL    MW4 7232   1.821   4.539   3.023  0.1040 -0.2828  0.2647
 1809SOL     OW 7233   1.953   4.276   2.942  0.4561  0.2848 -0.3457
 1809SOL    HW2 7234   1.913   4.355   2.978  0.9877  0.9831 -1.2672
 1809SOL    HW3 7235   1.962   4.294   2.849 -0.6782 -1.4108 -0.7976
 1809SOL    MW4 7236   1.949   4.289   2.935  0.3765  0.1532 -0.5269
 1810SOL     OW 7237   2.479   0.015   2.959  0.6939 -0.2519 -0.4354
 1810SOL    HW2 7238   2.461  -0.075   2.934 -0.3364 -0.0867 -0.3153
 1810SOL    HW3 7239   2.395   0.060   2.949  1.2232  0.7144 -0.5966
 1810SOL    MW4 7240   2.465   0.009   2.955  0.6278 -0.1026 -0.4408
 1811SOL     OW 7241   2.232   0.150   2.880 -0.5521 -0.4693  0.9930
 1811SOL    HW2 7242   2.230   0.244   2.899  0.5784  0.1865 -1.9051
 1811SOL    HW3 7243   2.141   0.127   2.860 -0.6845  0.2220  0.8057
 1811SOL    MW4 7244   2.219   0.159   2.880 -0.4204 -0.2915  0.5859
 1812SOL     OW 7245   2.265   0.400   2.961 -0.2672 -0.0382  0.2305
 1812SOL    HW2 7246   2.253   0.396   3.055 -0.5002  0.3329  0.2175
 1812SOL    HW3 7247   2.186   0.443   2.928 -0.5343 -0.8538 -0.2063
 1812SOL    MW4 7248   2.253   0.405   2.969 -0.3332 -0.0968  0.1711
 1813SOL     OW 7249   2.497   0.499   2.865 -0.2984  0.1072  0.2479
 1813SOL    HW2 7250   2.413   0.463   2.894 -0.2204 -1.9389 -1.9016
 1813SOL    HW3 7251   2.482   0.524   2.773  1.2206  0.4618  0.0858
 1813SOL    MW4 7252   2.484   0.498   2.857 -0.0877 -0.1160 -0.0571
 1814SOL     OW 7253   2.442   0.754   2.956 -0.4465 -0.4519  0.6274
 1814SOL    HW2 7254   2.520   0.794   2.918 -0.4506  0.8275  1.9406
 1814SOL    HW3 7255   2.451   0.661   2.936  1.3582 -0.2973  0.6396
 1814SOL    MW4 7256   2.453   0.747   2.948 -0.2089 -0.2627  0.8023
 1815SOL     OW 7257   2.227   0.878   2.858 -0.4216  0.1397 -0.4130
 1815SOL    HW2 7258   2.298   0.824   2.892  0.6077  0.8288 -1.4459
 1815SOL    HW3 7259   2.147   0.838   2.893  0.5241 -0.0751  1.5287
 1815SOL    MW4 7260   2.226   0.866   2.867 -0.1610  0.2022 -0.2931
 1816SOL     OW 7261   2.280   1.114   2.978 -0.5058  0.0245  0.2750
 1816SOL    HW2 7262   2.265   1.091   3.070  2.3003  0.4839  0.8948
 1816SOL    HW3 7263   2.271   1.031   2.931  0.0850 -0.5872  1.2315
 1816SOL    MW4 7264   2.276   1.100   2.984 -0.0576  0.0044  0.4830
 1817SOL     OW 7265   2.461   1.289   2.864  0.2508 -0.2860 -0.3760
 1817SOL    HW2 7266   2.457   1.284   2.768  0.0436  0.4669 -0.4098
 1817SOL    HW3 7267   2.399   1.223   2.894 -1.9852  1.5398 -0.7990
 1817SOL    MW4 7268   2.452   1.280   2.855 -0.0715  0.0542 -0.4363
 1818SOL     OW 7269   2.485   1.554   2.972 -0.5452  0.0531 -0.0665
 1818SOL    HW2 7270   2.417   1.610   2.934 -0.6056 -0.5033 -0.7858
 1818SOL    HW3 7271   2.455   1.465   2.954 -0.7434 -0.2186  1.5877
 1818SOL    MW4 7272   2.472   1.550   2.964 -0.5794 -0.0562  0.0569
 1819SOL     OW 7273   2.240   1.704   2.883 -0.3505 -0.4999  0.5325
 1819SOL    HW2 7274   2.184   1.636   2.921  0.1569 -0.4881  1.3065
 1819SOL    HW3 7275   2.233   1.690   2.788 -1.1903 -0.8736  0.6405
 1819SOL    MW4 7276   2.231   1.694   2.875 -0.3943 -0.5477  0.6489
 1820SOL     OW 7277   2.251   1.948   2.988  0.4277  0.1920  0.0313
 1820SOL    HW2 7278   2.331   1.994   2.962  0.9558 -0.3729  0.6299
 1820SOL    HW3 7279   2.254   1.865   2.939  0.3545  0.0503  0.2642
 1820SOL    MW4 7280   2.262   1.943   2.978  0.4877  0.0987  0.1410
 1821SOL     OW 7281   2.454   2.077   2.893  0.3305 -0.2463  0.4275
 1821SOL    HW2 7282   2.523   2.025   2.934  1.8169  0.8035 -0.6822
 1821SOL    HW3 7283   2.461   2.057   2.800  0.4680  1.3928  0.0684
 1821SOL    MW4 7284   2.464   2.068   2.886  0.5448  0.1085  0.2337
 1822SOL     OW 7285   2.450   2.324   3.007  0.1620 -0.0282  0.2792
 1822SOL    HW2 7286   2.470   2.313   3.099 -0.0919 -0.5484  0.2729
 1822SOL    HW3 7287   2.451   2.235   2.971 -1.1971  0.0314  0.0830
 1822SOL    MW4 7288   2.453   2.311   3.014 -0.0508 -0.0890  0.2525
 1823SOL     OW 7289   2.236   2.495   2.889  0.5209 -0.6526  0.5445
 1823SOL    HW2 7290   2.251   2.589   2.897  1.8033 -0.7606 -0.4731
 1823SOL    HW3 7291   2.317   2.455   2.919 -0.2231 -1.4635  1.5161
 1823SOL    MW4 7292   2.248   2.502   2.894  0.5920 -0.7738  0.5384
 1824SOL     OW 7293   2.253   2.772   2.975 -0.3464 -0.2553 -0.3818
 1824SOL    HW2 7294   2.331   2.800   2.927 -0.5268  0.2500 -0.3777
 1824SOL    HW3 7295   2.180   2.812   2.929 -0.6144 -0.7923 -0.4315
 1824SOL    MW4 7296   2.254   2.781   2.963 -0.4056 -0.2594 -0.3878
 1825SOL     OW 7297   2.487   2.844   2.838  0.1046  0.0126  0.2021
 1825SOL    HW2 7298   2.501   2.936   2.860  0.7945 -0.7274  3.0377
 1825SOL    HW3 7299   2.473   2.844   2.743 -0.0507  3.0370  0.1793
 1825SOL    MW4 7300   2.487   2.856   2.828  0.1751  0.3140  0.5732
 1826SOL     OW 7301   2.524   3.098   2.913 -0.0209 -0.1854  0.2057
 1826SOL    HW2 7302   2.604   3.149   2.905  0.3162 -1.0195 -2.1514
 1826SOL    HW3 7303   2.453   3.163   2.907  0.4426  0.3412  0.4000
 1826SOL    MW4 7304   2.525   3.113   2.911  0.0848 -0.2260 -0.0797
 1827SOL     OW 7305   2.295   3.242   2.892 -0.5051  0.2476  0.4683
 1827SOL    HW2 7306   2.295   3.332   2.925 -0.4169  0.4278 -0.0073
 1827SOL    HW3 7307   2.221   3.200   2.935 -0.8056  0.6707  0.3698
 1827SOL    MW4 7308   2.285   3.248   2.902 -0.5331  0.3272  0.3926
 1828SOL     OW 7309   2.248   3.498   2.978  0.0330  0.1811  0.1980
 1828SOL    HW2 7310   2.323   3.528   2.927 -0.7874 -0.0911 -1.2048
 1828SOL    HW3 7311   2.172   3.535   2.933 -0.7294 -0.4813  0.9267
 1828SOL    MW4 7312   2.248   3.507   2.965 -0.1758  0.0578  0.1090
 1829SOL     OW 7313   2.479   3.579   2.854  0.0040  0.3954 -0.0040
 1829SOL    HW2 7314   2.562   3.540   2.885 -0.7600 -0.8409  0.5454
 1829SOL    HW3 7315   2.478   3.666   2.893  2.2925  1.4727 -2.1780
 1829SOL    MW4 7316   2.490   3.585   2.864  0.2052  0.3744 -0.2183
 1830SOL     OW 7317   2.454   3.846   2.951  0.3790 -0.3714 -0.4126
 1830SOL    HW2 7318   2.469   3.859   3.045  0.1910 -1.0277 -0.2914
 1830SOL    HW3 7319   2.523   3.896   2.908  1.0116 -0.8124  0.0921
 1830SOL    MW4 7320   2.465   3.855   2.958  0.4377 -0.5162 -0.3300
 1831SOL     OW 7321   2.250   4.013   2.880  0.3588 -0.0842 -0.0086
 1831SOL    HW2 7322   2.327   3.959   2.897  0.3723  0.2437  1.0391
 1831SOL    HW3 7323   2.178   3.965   2.920 -0.0950 -0.6914 -1.5169
 1831SOL    MW4 7324   2.251   3.999   2.888  0.3007 -0.1211 -0.0694
 1832SOL     OW 7325   2.236   4.282   2.975 -0.2190 -0.2037  0.0691
 1832SOL    HW2 7326   2.248   4.194   2.939  0.3850 -0.4281  0.7911
 1832SOL    HW3 7327   2.142   4.293   2.982 -0.2859 -1.0511  0.5739
 1832SOL    MW4 7328   2.225   4.272   2.971 -0.1481 -0.3451  0.2310
 1833SOL     OW 7329   2.451   4.412   2.872  0.1967 -0.0016 -0.1488
 1833SOL    HW2 7330   2.376   4.364   2.908 -2.0338  2.1458 -1.7845
 1833SOL    HW3 7331   2.452   4.389   2.779  2.2600 -0.8107  0.0294
 1833SOL    MW4 7332   2.441   4.402   2.865  0.1746  0.1750 -0.3411
 1834SOL     OW 7333   2.970   4.621   3.018  0.0857  0.2777 -0.0750
 1834SOL    HW2 7334   3.042   4.664   2.971  0.2491 -0.4805 -0.5204
 1834SOL    HW3 7335   2.956   4.539   2.970 -0.6284  0.1189  0.4140
 1834SOL    MW4 7336   2.978   4.616   3.006  0.0130  0.1567 -0.0693
 1835SOL     OW 7337   2.715   0.120   2.898 -0.0879 -0.0512  0.3429
 1835SOL    HW2 7338   2.786   0.073   2.940 -0.4240 -1.0724 -0.2105
 1835SOL    HW3 7339   2.635   0.077   2.929 -0.4447  0.6866  0.4774
 1835SOL    MW4 7340   2.714   0.108   2.907 -0.1793 -0.0886  0.2876
 1836SOL     OW 7341   2.725   0.401   2.993  0.2481  0.0932  0.0014
 1836SOL    HW2 7342   2.727   0.309   2.965 -0.5973  0.1151 -0.1375
 1836SOL    HW3 7343   2.641   0.434   2.961 -0.1688  0.4695  1.4380
 1836SOL    MW4 7344   2.714   0.393   2.986  0.0816  0.1458  0.1726
 1837SOL     OW 7345   2.936   0.519   2.859  0.2455  0.1417  0.1530
 1837SOL    HW2 7346   2.850   0.495   2.894  0.2356 -1.7359 -1.1100
 1837SOL    HW3 7347   2.923   0.521   2.764  1.1660  1.6153  0.0531
 1837SOL    MW4 7348   2.923   0.516   2.851  0.3656  0.0884 -0.0268
 1838SOL     OW 7349   2.908   0.781   2.963 -0.4030 -0.4609  0.1154
 1838SOL    HW2 7350   2.901   0.762   3.056  1.4922 -0.0755  0.3418
 1838SOL    HW3 7351   2.938   0.699   2.924 -1.9851 -0.8645 -0.2760
 1838SOL    MW4 7352   2.911   0.768   2.970 -0.3617 -0.4633  0.0936
 1839SOL     OW 7353   2.666   0.884   2.844  0.6180 -0.6399 -0.4195
 1839SOL    HW2 7354   2.655   0.964   2.896 -0.6980 -0.7771 -0.4689
 1839SOL    HW3 7355   2.756   0.856   2.863  0.3834 -0.3183  1.2696
 1839SOL    MW4 7356   2.676   0.891   2.854  0.4134 -0.6156 -0.2032
 1840SOL     OW 7357   2.666   1.133   2.962  0.6509  0.3171 -0.5985
 1840SOL    HW2 7358   2.740   1.186   2.933  0.7232  1.1765  1.0743
 1840SOL    HW3 7359   2.589   1.182   2.936  0.7193  2.3131  2.6999
 1840SOL    MW4 7360   2.666   1.146   2.955  0.6695  0.6938  0.0574
 1841SOL     OW 7361   2.903   1.266   2.883 -0.0334 -0.3876  0.3342
 1841SOL    HW2 7362   2.910   1.358   2.908  0.1193 -0.1501 -0.5541
 1841SOL    HW3 7363   2.986   1.228   2.910  2.0425  0.8799 -3.8517
 1841SOL    MW4 7364   2.915   1.273   2.890  0.2607 -0.1890 -0.3353
 1842SOL     OW 7365   2.942   1.523   3.235 -0.2092  0.0055  0.4634
 1842SOL    HW2 7366   2.943   1.432   3.263  1.5574 -0.2089 -0.2213
 1842SOL    HW3 7367   2.862   1.559   3.273 -0.8463 -1.7855  0.8547
 1842SOL    MW4 7368   2.932   1.516   3.244 -0.0602 -0.2591  0.4247
 1843SOL     OW 7369   2.928   1.520   2.952  0.9715 -0.2079  0.4655
 1843SOL    HW2 7370   2.997   1.577   2.917  1.2171 -0.2669  0.8573
 1843SOL    HW3 7371   2.929   1.536   3.047  1.0327 -0.8656  0.5724
 1843SOL    MW4 7372   2.937   1.530   2.960  1.0120 -0.3025  0.5313
 1844SOL     OW 7373   2.716   1.667   2.856  0.4297  0.3301  0.3826
 1844SOL    HW2 7374   2.788   1.610   2.883 -0.5835 -0.8076  0.7220
 1844SOL    HW3 7375   2.639   1.628   2.896 -0.4670  1.1552 -0.5311
 1844SOL    MW4 7376   2.716   1.654   2.865  0.1777  0.2889  0.3068
 1845SOL     OW 7377   2.918   2.068   2.883  0.0169 -0.5051 -0.2867
 1845SOL    HW2 7378   2.915   2.156   2.921  0.6651 -0.4763 -0.2954
 1845SOL    HW3 7379   2.923   2.083   2.788 -1.8507 -0.5799 -0.4167
 1845SOL    MW4 7380   2.919   2.082   2.875 -0.1440 -0.5112 -0.3050
 1846SOL     OW 7381   2.887   2.299   3.017  0.0446  0.2528 -0.1590
 1846SOL    HW2 7382   2.965   2.342   2.980 -0.2120 -0.6972 -1.8238
 1846SOL    HW3 7383   2.814   2.338   2.970 -0.2546 -1.2615 -0.9688
 1846SOL    MW4 7384   2.888   2.310   3.006 -0.0287 -0.0724 -0.4855
 1847SOL     OW 7385   2.676   2.416   2.863  0.0822 -0.5550 -0.1300
 1847SOL    HW2 7386   2.683   2.511   2.877 -0.0142 -0.7568  1.2578
 1847SOL    HW3 7387   2.595   2.391   2.905 -0.4468 -1.1005 -1.4398
 1847SOL    MW4 7388   2.666   2.426   2.870 -0.0003 -0.6536 -0.1197
 1848SOL     OW 7389   2.712   2.680   2.937 -0.0998 -0.1012 -0.0293
 1848SOL    HW2 7390   2.707   2.664   3.032 -1.0469  0.2783 -0.0128
 1848SOL    HW3 7391   2.642   2.743   2.920  0.4663  0.2920 -0.8882
 1848SOL    MW4 7392   2.702   2.686   2.948 -0.1500  0.0007 -0.1404
 1849SOL     OW 7393   2.952   2.845   2.870  0.0899  0.4680 -0.5642
 1849SOL    HW2 7394   3.025   2.790   2.897  0.7783  1.0276 -1.2517
 1849SOL    HW3 7395   2.874   2.795   2.893  0.6762  0.0218  0.5163
 1849SOL    MW4 7396   2.951   2.831   2.877  0.2581  0.4830 -0.5123
 1850SOL     OW 7397   2.952   3.077   3.012  0.7195 -0.1647  0.0112
 1850SOL    HW2 7398   2.874   3.123   2.981 -0.6456  0.0491  3.5031
 1850SOL    HW3 7399   2.956   2.997   2.959 -1.2536  0.3413 -0.9526
 1850SOL    MW4 7400   2.942   3.072   3.001  0.2790 -0.0698  0.3447
 1851SOL     OW 7401   2.752   3.219   2.889  0.2893  0.0667  0.0140
 1851SOL    HW2 7402   2.736   3.311   2.912  0.8541  0.2363 -0.2573
 1851SOL    HW3 7403   2.753   3.218   2.793 -2.0049 -0.6294 -0.0374
 1851SOL    MW4 7404   2.750   3.231   2.879  0.0611 -0.0027 -0.0286
 1852SOL     OW 7405   2.721   3.479   2.970 -0.5155 -0.0652 -0.0099
 1852SOL    HW2 7406   2.696   3.502   3.059  0.1314  0.2866  0.0789
 1852SOL    HW3 7407   2.777   3.551   2.941 -0.6895 -0.1983 -0.6845
 1852SOL    MW4 7408   2.725   3.491   2.978 -0.4531 -0.0364 -0.0872
 1853SOL     OW 7409   2.891   3.657   2.863 -0.0440  0.0448 -0.4156
 1853SOL    HW2 7410   2.981   3.635   2.889  0.8223 -0.2978 -3.5885
 1853SOL    HW3 7411   2.887   3.752   2.869  0.7906  0.1272 -1.0669
 1853SOL    MW4 7412   2.903   3.666   2.868  0.1804  0.0105 -0.9201
 1854SOL     OW 7413   2.897   3.919   2.923 -0.4832  0.5223  0.2401
 1854SOL    HW2 7414   2.918   3.900   3.015 -1.9964 -1.3848  0.2201
 1854SOL    HW3 7415   2.813   3.966   2.927 -1.6004 -1.4068 -0.2716
 1854SOL    MW4 7416   2.889   3.923   2.936 -0.8303  0.0162  0.1699
 1855SOL     OW 7417   2.683   4.289   2.965 -0.1273 -0.7173 -0.2831
 1855SOL    HW2 7418   2.683   4.301   3.060 -2.0925 -0.4182 -0.3132
 1855SOL    HW3 7419   2.603   4.332   2.935  0.1357 -1.3961 -2.0080
 1855SOL    MW4 7420   2.673   4.297   2.974 -0.3519 -0.7674 -0.5147
 1856SOL     OW 7421   2.931   3.867   3.199 -0.0089  0.1977 -0.1999
 1856SOL    HW2 7422   3.004   3.898   3.253 -1.3648  0.7871  1.3305
 1856SOL    HW3 7423   2.854   3.909   3.237 -1.2364 -0.9788 -1.3631
 1856SOL    MW4 7424   2.930   3.877   3.212 -0.3497  0.1202 -0.1514
 1857SOL     OW 7425   2.912   4.390   2.863 -0.5835  0.0166 -0.3012
 1857SOL    HW2 7426   2.991   4.338   2.882 -0.5603 -0.2178 -1.0217
 1857SOL    HW3 7427   2.840   4.337   2.897 -0.3634  0.6218  1.1231
 1857SOL    MW4 7428   2.913   4.376   2.870 -0.5514  0.0655 -0.2083
 1858SOL     OW 7429   3.392   4.624   3.015 -0.2101 -0.0201  0.8290
 1858SOL    HW2 7430   3.467   4.670   2.977 -1.4757  2.0729  0.8155
 1858SOL    HW3 7431   3.370   4.557   2.950  0.0776  0.9988 -0.3468
 1858SOL    MW4 7432   3.399   4.621   3.001 -0.3391  0.3905  0.6721
 1859SOL     OW 7433   3.156   0.082   2.883  0.0825  0.5111  0.0707
 1859SOL    HW2 7434   3.138   0.172   2.913  1.8260  1.4698 -1.6600
 1859SOL    HW3 7435   3.235   0.057   2.930 -0.0359  0.1229  0.0601
 1859SOL    MW4 7436   3.164   0.091   2.894  0.2969  0.5864 -0.1590
 1860SOL     OW 7437   3.123   0.334   2.960  0.2648 -0.1084 -0.5054
 1860SOL    HW2 7438   3.191   0.400   2.948 -1.3480  1.7754  0.4283
 1860SOL    HW3 7439   3.047   0.369   2.914 -0.7661 -1.0532  0.4599
 1860SOL    MW4 7440   3.122   0.347   2.953 -0.0840  0.0155 -0.2549
 1861SOL     OW 7441   3.341   0.497   2.871 -0.0284  0.3929 -0.0694
 1861SOL    HW2 7442   3.421   0.469   2.914  0.1180  1.5257  0.4181
 1861SOL    HW3 7443   3.351   0.470   2.780  0.6114 -0.0572  0.1346
 1861SOL    MW4 7444   3.353   0.490   2.865  0.0753  0.4830  0.0218
 1862SOL     OW 7445   3.358   0.759   2.948  0.2445 -0.0024 -0.0579
 1862SOL    HW2 7446   3.367   0.745   3.042 -2.5654  0.2343  0.2843
 1862SOL    HW3 7447   3.356   0.670   2.911  0.9458 -0.1033  0.1348
 1862SOL    MW4 7448   3.359   0.745   2.955 -0.0337  0.0155  0.0127
 1863SOL     OW 7449   3.135   0.897   2.872  0.3749 -0.4519 -0.1717
 1863SOL    HW2 7450   3.205   0.840   2.906 -0.3398 -1.8790 -1.0298
 1863SOL    HW3 7451   3.055   0.849   2.891 -0.2569  0.3741 -0.7458
 1863SOL    MW4 7452   3.134   0.883   2.879  0.1972 -0.5312 -0.3607
 1864SOL     OW 7453   3.126   1.141   2.975 -0.3174  0.4028 -0.3297
 1864SOL    HW2 7454   3.198   1.197   2.946  1.2087 -0.6922  1.2223
 1864SOL    HW3 7455   3.146   1.055   2.938 -1.8205  0.4922 -1.4049
 1864SOL    MW4 7456   3.138   1.137   2.966 -0.3144  0.2701 -0.2668
 1865SOL     OW 7457   3.329   1.299   2.835 -0.5152 -0.0222  0.3572
 1865SOL    HW2 7458   3.408   1.256   2.866  0.1221  0.0372 -1.1358
 1865SOL    HW3 7459   3.335   1.388   2.870  1.3233  0.7235 -1.7621
 1865SOL    MW4 7460   3.340   1.305   2.844 -0.1886  0.0840 -0.1194
 1866SOL     OW 7461   3.381   1.540   2.945  0.1621  0.0006 -0.3143
 1866SOL    HW2 7462   3.379   1.552   3.040 -0.3554  0.9635 -0.4375
 1866SOL    HW3 7463   3.469   1.567   2.919  0.2551 -0.1193 -0.1174
 1866SOL    MW4 7464   3.392   1.545   2.954  0.1061  0.1118 -0.3045
 1867SOL     OW 7465   3.146   1.658   2.873  0.4672 -0.0915 -0.0759
 1867SOL    HW2 7466   3.222   1.611   2.906  0.7046  0.0228 -0.4630
 1867SOL    HW3 7467   3.164   1.673   2.781  0.5126  0.9716  0.0912
 1867SOL    MW4 7468   3.158   1.654   2.866  0.5045  0.0638 -0.1049
 1868SOL     OW 7469   3.152   1.923   2.967 -0.7248 -0.4380  0.0676
 1868SOL    HW2 7470   3.157   1.839   2.923  0.1561  0.1200 -0.9157
 1868SOL    HW3 7471   3.068   1.960   2.938 -0.1213 -0.0459 -1.2005
 1868SOL    MW4 7472   3.141   1.917   2.958 -0.5290 -0.3127 -0.2295
 1869SOL     OW 7473   3.380   2.071   2.876 -0.3171 -0.7950 -0.0371
 1869SOL    HW2 7474   3.301   2.026   2.905 -0.9430 -0.5905 -1.4031
 1869SOL    HW3 7475   3.452   2.023   2.918 -1.0814 -1.8930  0.0232
 1869SOL    MW4 7476   3.379   2.059   2.886 -0.5005 -0.9129 -0.2094
 1870SOL     OW 7477   3.362   2.303   3.011  0.3380  0.5863  0.5847
 1870SOL    HW2 7478   3.345   2.291   3.104  2.0124  0.2585  0.8708
 1870SOL    HW3 7479   3.377   2.215   2.977  2.0857  0.8963  0.5040
 1870SOL    MW4 7480   3.362   2.290   3.019  0.7895  0.5839  0.6118
 1871SOL     OW 7481   3.127   2.413   2.925 -0.1188  0.2717 -0.1627
 1871SOL    HW2 7482   3.134   2.415   2.829 -1.3829 -1.2122 -0.3181
 1871SOL    HW3 7483   3.207   2.372   2.954  0.4457  1.0725 -0.5477
 1871SOL    MW4 7484   3.138   2.408   2.916 -0.2111  0.1815 -0.2340
 1872SOL     OW 7485   3.161   2.684   2.953 -0.3846  0.1204  0.6782
 1872SOL    HW2 7486   3.165   2.684   3.049  0.8513 -2.0186  0.6729
 1872SOL    HW3 7487   3.151   2.592   2.930  0.0618  0.5411 -1.2721
 1872SOL    MW4 7488   3.160   2.672   2.963 -0.1626 -0.1063  0.4202
 1873SOL     OW 7489   3.394   2.814   2.905 -0.1375 -0.6031 -0.3407
 1873SOL    HW2 7490   3.380   2.906   2.930 -0.2717 -1.0854  1.3710
 1873SOL    HW3 7491   3.307   2.775   2.911  0.2551 -1.3029  0.8316
 1873SOL    MW4 7492   3.380   2.821   2.909 -0.1034 -0.7591  0.0398
 1874SOL     OW 7493   3.322   3.080   2.995 -0.1616  0.5333 -0.0469
 1874SOL    HW2 7494   3.326   3.085   3.091  0.3112  1.1083 -0.0932
 1874SOL    HW3 7495   3.249   3.137   2.972  0.8361  1.7855 -0.1368
 1874SOL    MW4 7496   3.313   3.088   3.005  0.0324  0.7744 -0.0649
 1875SOL     OW 7497   3.135   3.266   2.901  0.7549 -0.6067  0.0980
 1875SOL    HW2 7498   3.069   3.199   2.920 -0.7732  0.3030 -1.8332
 1875SOL    HW3 7499   3.142   3.267   2.806 -0.6908  3.2478 -0.0739
 1875SOL    MW4 7500   3.127   3.257   2.891  0.3626  0.0218 -0.1795
 1876SOL     OW 7501   3.142   3.571   2.928  0.0401 -0.5135 -0.1873
 1876SOL    HW2 7502   3.235   3.581   2.908  0.2467 -0.3376  0.8296
 1876SOL    HW3 7503   3.123   3.479   2.911  1.4860 -1.6847  3.8558
 1876SOL    MW4 7504   3.152   3.560   2.923  0.2581 -0.6448  0.4803
 1877SOL     OW 7505   3.409   3.632   2.850  0.1319 -0.0671 -0.8853
 1877SOL    HW2 7506   3.469   3.579   2.902 -0.6334 -0.1104 -0.0278
 1877SOL    HW3 7507   3.410   3.718   2.892 -1.4576 -0.4540  0.0083
 1877SOL    MW4 7508   3.417   3.637   2.862 -0.1788 -0.1239 -0.6543
 1878SOL     OW 7509   3.335   3.893   2.960  0.1191  0.3268  0.4149
 1878SOL    HW2 7510   3.331   3.921   3.051  0.9872  2.2309 -0.1167
 1878SOL    HW3 7511   3.256   3.930   2.920 -0.6787 -1.1675  0.5324
 1878SOL    MW4 7512   3.324   3.901   2.966  0.1284  0.3809  0.3603
 1879SOL     OW 7513   3.129   4.015   2.822 -0.1766 -0.6512  0.0383
 1879SOL    HW2 7514   3.036   3.995   2.836  0.0385 -1.3637  0.4676
 1879SOL    HW3 7515   3.140   4.008   2.727 -0.8479  0.7148 -0.1532
 1879SOL    MW4 7516   3.118   4.011   2.811 -0.2368 -0.5650  0.0697
 1880SOL     OW 7517   3.152   4.261   2.931  0.2213  0.4170  0.0080
 1880SOL    HW2 7518   3.143   4.253   3.026 -0.1573  0.9391  0.0154
 1880SOL    HW3 7519   3.142   4.172   2.898  0.6534  0.1891  0.4818
 1880SOL    MW4 7520   3.150   4.248   2.939  0.2284  0.4558  0.0715
 1881SOL     OW 7521   3.341   4.436   2.818 -0.2877 -0.2108 -0.4516
 1881SOL    HW2 7522   3.421   4.385   2.830 -0.2993 -0.4873 -1.5141
 1881SOL    HW3 7523   3.271   4.378   2.849 -0.0805  0.0362  0.4922
 1881SOL    MW4 7524   3.342   4.422   2.823 -0.2619 -0.2147 -0.4673
 1882SOL     OW 7525   3.841   4.653   2.993 -0.1277 -0.1377  0.6023
 1882SOL    HW2 7526   3.842   4.562   2.962  3.2707  0.4705 -1.3694
 1882SOL    HW3 7527   3.761   4.690   2.956 -0.2695 -1.6722 -0.6882
 1882SOL    MW4 7528   3.830   4.646   2.984  0.3020 -0.2599  0.1719
 1883SOL     OW 7529   3.610   0.089   2.898 -0.0909 -0.4041  0.4069
 1883SOL    HW2 7530   3.603   0.177   2.935  0.9064  0.0723 -0.5011
 1883SOL    HW3 7531   3.624   0.103   2.805 -0.3484 -1.5413  0.1910
 1883SOL    MW4 7532   3.611   0.102   2.891  0.0067 -0.4913  0.2586
 1884SOL     OW 7533   3.578   0.346   2.986 -0.2639  0.5935 -0.3406
 1884SOL    HW2 7534   3.583   0.361   3.081  1.7073 -0.8335 -0.1759
 1884SOL    HW3 7535   3.653   0.394   2.951 -0.3190  0.1682 -1.0392
 1884SOL    MW4 7536   3.589   0.355   2.994 -0.0111  0.3491 -0.4110
 1885SOL     OW 7537   4.013   0.351   2.973  0.3060  0.1375 -0.0868
 1885SOL    HW2 7538   4.102   0.382   2.958 -0.0579  1.7009  0.9155
 1885SOL    HW3 7539   4.019   0.256   2.961  2.2770  0.1317  0.7310
 1885SOL    MW4 7540   4.025   0.342   2.970  0.5180  0.3430  0.1533
 1886SOL     OW 7541   3.771   0.504   2.890 -0.1890  0.3204 -0.5179
 1886SOL    HW2 7542   3.789   0.592   2.923 -1.4873 -0.1344  1.4518
 1886SOL    HW3 7543   3.851   0.454   2.907  0.6227  1.1444 -1.8248
 1886SOL    MW4 7544   3.784   0.509   2.896 -0.2532  0.3691 -0.4304
 1887SOL     OW 7545   3.569   0.924   2.859 -0.1548  0.0884  0.3262
 1887SOL    HW2 7546   3.643   0.870   2.887 -0.1515 -0.6572 -1.1019
 1887SOL    HW3 7547   3.493   0.866   2.867 -0.3612  0.3468  0.2354
 1887SOL    MW4 7548   3.569   0.909   2.864 -0.1816  0.0241  0.1258
 1888SOL     OW 7549   3.547   1.180   2.944  0.0240  0.1863 -0.0420
 1888SOL    HW2 7550   3.630   1.221   2.918  0.1055  0.4980  0.7112
 1888SOL    HW3 7551   3.551   1.093   2.905  0.8226  0.1019  0.2052
 1888SOL    MW4 7552   3.559   1.174   2.935  0.1401  0.2163  0.0900
 1889SOL     OW 7553   3.807   1.231   2.859 -0.0188  0.2242  0.4195
 1889SOL    HW2 7554   3.824   1.320   2.889  0.4827  0.1501  0.3549
 1889SOL    HW3 7555   3.808   1.237   2.764 -0.9226  0.3258  0.4079
 1889SOL    MW4 7556   3.809   1.243   2.850 -0.0719  0.2278  0.4095
 1890SOL     OW 7557   3.831   1.468   2.978  0.1423  0.5594  0.2566
 1890SOL    HW2 7558   3.818   1.445   3.070 -0.5304  1.7867  0.4808
 1890SOL    HW3 7559   3.754   1.521   2.956  1.0178  1.4775 -0.6131
 1890SOL    MW4 7560   3.819   1.472   2.987  0.1691  0.8425  0.1714
 1891SOL     OW 7561   3.629   1.626   2.860  0.1414  0.1850  0.1240
 1891SOL    HW2 7562   3.613   1.720   2.866 -0.2261  0.1834 -0.6632
 1891SOL    HW3 7563   3.612   1.605   2.768  1.4554 -0.4238  0.0029
 1891SOL    MW4 7564   3.625   1.635   2.848  0.2663  0.1045  0.0041
 1892SOL     OW 7565   3.579   1.878   2.972 -0.0379  0.3559  0.0787
 1892SOL    HW2 7566   3.577   1.848   3.063 -1.8427 -0.6479 -0.2787
 1892SOL    HW3 7567   3.666   1.917   2.962  0.8629 -1.1565  1.7088
 1892SOL    MW4 7568   3.590   1.879   2.983 -0.1572  0.0239  0.2466
 1893SOL     OW 7569   3.832   1.986   2.960  0.4330  0.0254 -0.2084
 1893SOL    HW2 7570   3.798   2.075   2.971  0.7606  0.2276 -0.7993
 1893SOL    HW3 7571   3.852   1.980   2.867 -0.7129 -1.0780 -0.4001
 1893SOL    MW4 7572   3.830   1.997   2.949  0.3251 -0.0935 -0.3117
 1894SOL     OW 7573   3.793   2.255   2.964  0.1632  0.0491 -0.2913
 1894SOL    HW2 7574   3.793   2.259   3.060 -0.6075 -1.9485 -0.1700
 1894SOL    HW3 7575   3.716   2.305   2.938  0.9444  1.4503  0.0781
 1894SOL    MW4 7576   3.783   2.262   2.974  0.1646 -0.0296 -0.2265
 1895SOL     OW 7577   3.595   2.412   2.888 -0.6182 -0.1807  0.8386
 1895SOL    HW2 7578   3.602   2.508   2.890 -0.9761 -0.0975 -0.6909
 1895SOL    HW3 7579   3.516   2.393   2.937  0.5399  0.1508  2.8798
 1895SOL    MW4 7580   3.586   2.422   2.895 -0.5126 -0.1260  0.9061
 1896SOL     OW 7581   3.619   2.660   2.995 -0.1092  0.0077  0.3627
 1896SOL    HW2 7582   3.690   2.714   2.958 -0.8047 -0.0225 -1.0610
 1896SOL    HW3 7583   3.539   2.703   2.965 -0.6729 -1.7810 -0.7677
 1896SOL    MW4 7584   3.618   2.673   2.986 -0.2753 -0.2323  0.0257
 1897SOL     OW 7585   3.828   2.813   2.918 -0.1610  0.0377  0.1505
 1897SOL    HW2 7586   3.820   2.904   2.944  0.3639 -0.1619  1.0302
 1897SOL    HW3 7587   3.815   2.814   2.823  0.7108  1.1441  0.0217
 1897SOL    MW4 7588   3.826   2.825   2.909  0.0233  0.1573  0.2496
 1898SOL     OW 7589   3.803   3.075   2.993 -0.5729  0.0401 -0.0629
 1898SOL    HW2 7590   3.886   3.102   2.954 -0.3096 -0.2134  0.3216
 1898SOL    HW3 7591   3.737   3.130   2.949 -0.2000  0.2893 -0.3176
 1898SOL    MW4 7592   3.805   3.086   2.982 -0.4890  0.0395 -0.0457
 1899SOL     OW 7593   3.559   3.211   2.916  0.1863  0.2753 -0.6924
 1899SOL    HW2 7594   3.472   3.175   2.930 -0.0308  0.5583 -1.2995
 1899SOL    HW3 7595   3.563   3.230   2.822  0.6075  1.0240 -0.5298
 1899SOL    MW4 7596   3.548   3.209   2.905  0.2132  0.4114 -0.7511
 1900SOL     OW 7597   3.583   3.457   3.010  0.4765  0.1033  0.2978
 1900SOL    HW2 7598   3.673   3.481   2.988  0.9504  0.8916  2.9680
 1900SOL    HW3 7599   3.573   3.368   2.976  2.8311 -0.6240  1.4458
 1900SOL    MW4 7600   3.593   3.448   3.002  0.8497  0.1114  0.8016
 1901SOL     OW 7601   3.780   3.850   3.010 -0.4990  0.0408  0.1077
 1901SOL    HW2 7602   3.799   3.875   3.100  1.2846  2.8202 -0.9647
 1901SOL    HW3 7603   3.701   3.899   2.988 -1.0299 -0.7670  0.2124
 1901SOL    MW4 7604   3.772   3.860   3.019 -0.3337  0.3009 -0.0200
 1902SOL     OW 7605   3.570   4.015   2.902  0.6523 -0.2660  0.9361
 1902SOL    HW2 7606   3.481   3.982   2.918 -0.0253  0.7912 -0.5000
 1902SOL    HW3 7607   3.587   3.992   2.810  2.1730 -1.1259  1.4160
 1902SOL    MW4 7608   3.560   4.007   2.892  0.7635 -0.2400  0.8099
 1903SOL     OW 7609   3.616   4.032   2.624 -0.1969  0.1411  0.1378
 1903SOL    HW2 7610   3.541   4.003   2.572  0.6493 -0.1748 -0.9259
 1903SOL    HW3 7611   3.629   4.123   2.597 -0.0165  0.1031  0.0959
 1903SOL    MW4 7612   3.607   4.040   2.613 -0.0615  0.0944 -0.0081
 1904SOL     OW 7613   3.570   4.290   2.879 -0.0390 -0.2087 -0.0799
 1904SOL    HW2 7614   3.662   4.317   2.874 -0.3776  0.6680 -1.7839
 1904SOL    HW3 7615   3.573   4.194   2.878  0.8770 -0.1845  0.2259
 1904SOL    MW4 7616   3.583   4.281   2.878  0.0372 -0.0898 -0.2644
 1905SOL     OW 7617   3.832   4.404   2.891  0.6274  0.2528 -0.3684
 1905SOL    HW2 7618   3.896   4.341   2.924  0.3462  0.4211  0.5045
 1905SOL    HW3 7619   3.852   4.411   2.798  2.2801  0.7587  0.0009
 1905SOL    MW4 7620   3.844   4.396   2.883  0.8083  0.3418 -0.2045
 1906SOL     OW 7621   0.002   0.070   3.385  0.0932  0.0416  0.0530
 1906SOL    HW2 7622  -0.001   0.157   3.346  1.6656  0.4618  0.8034
 1906SOL    HW3 7623   0.075   0.027   3.342  0.4629 -0.2616  0.9627
 1906SOL    MW4 7624   0.011   0.076   3.374  0.3495  0.0570  0.2720
 1907SOL     OW 7625   4.078   0.092   2.901 -0.3721  0.2381  0.0439
 1907SOL    HW2 7626   4.145   0.037   2.943  1.1888 -0.7543 -3.5184
 1907SOL    HW3 7627   3.995   0.055   2.930  0.6598 -1.6690  0.6998
 1907SOL    MW4 7628   4.076   0.080   2.910 -0.0300 -0.1445 -0.3396
 1908SOL     OW 7629   2.278   4.173   3.651 -0.3292  0.2847 -0.2992
 1908SOL    HW2 7630   2.194   4.196   3.610 -1.4822  0.6478  2.1720
 1908SOL    HW3 7631   2.278   4.077   3.653 -1.0648  0.2914  0.3962
 1908SOL    MW4 7632   2.267   4.163   3.646 -0.5783  0.3335  0.1186
 1909SOL     OW 7633   4.261   0.446   2.910 -0.5517 -0.4905 -0.0844
 1909SOL    HW2 7634   4.260   0.536   2.944 -0.0149 -0.3579 -0.4013
 1909SOL    HW3 7635   4.273   0.458   2.815 -1.6323 -0.8602 -0.2689
 1909SOL    MW4 7636   4.262   0.460   2.902 -0.6234 -0.5218 -0.1505
 1910SOL     OW 7637   4.271   0.728   2.970 -0.3677 -0.2269  0.3782
 1910SOL    HW2 7638   4.202   0.771   2.918 -0.3981 -0.8545 -0.1068
 1910SOL    HW3 7639   4.350   0.779   2.950 -0.3891 -0.4307 -0.2522
 1910SOL    MW4 7640   4.272   0.741   2.960 -0.3745 -0.3366  0.2311
 1911SOL     OW 7641   4.061   0.874   2.845  0.5810  0.1763  0.5333
 1911SOL    HW2 7642   4.032   0.953   2.892 -0.6466  0.0479  0.0250
 1911SOL    HW3 7643   4.058   0.899   2.753 -3.2446 -1.4726  0.1038
 1911SOL    MW4 7644   4.056   0.888   2.839 -0.0857 -0.0582  0.4096
 1912SOL     OW 7645   4.018   1.115   2.967  0.3701  0.1839  0.3626
 1912SOL    HW2 7646   4.010   1.127   3.062 -0.3480  0.1677  0.3035
 1912SOL    HW3 7647   3.939   1.153   2.931  0.9653  0.8112 -0.2923
 1912SOL    MW4 7648   4.007   1.122   2.975  0.3539  0.2646  0.2684
 1913SOL     OW 7649   4.238   1.265   2.903 -0.4032 -0.0421  0.1589
 1913SOL    HW2 7650   4.164   1.213   2.937 -0.1749 -1.2230 -1.1105
 1913SOL    HW3 7651   4.230   1.259   2.808  0.4776  1.0614  0.0068
 1913SOL    MW4 7652   4.227   1.257   2.895 -0.2569 -0.0523 -0.0286
 1914SOL     OW 7653   4.280   1.533   2.942 -0.1577 -0.0703 -0.0792
 1914SOL    HW2 7654   4.191   1.566   2.926 -0.3742 -0.3078  0.5847
 1914SOL    HW3 7655   4.270   1.438   2.938  0.2882 -0.0713 -1.1095
 1914SOL    MW4 7656   4.267   1.525   2.940 -0.1274 -0.1018 -0.1275
 1915SOL     OW 7657   4.025   1.642   2.885  0.4998 -0.4058 -0.2185
 1915SOL    HW2 7658   4.026   1.728   2.928  1.3980 -0.4138 -0.2093
 1915SOL    HW3 7659   3.960   1.592   2.933  0.5371  0.0214  0.2832
 1915SOL    MW4 7660   4.017   1.647   2.897  0.6233 -0.3505 -0.1511
 1916SOL     OW 7661   4.041   1.862   3.077  0.0916  0.4925 -0.1503
 1916SOL    HW2 7662   4.107   1.921   3.039  0.7601  0.8670  1.5563
 1916SOL    HW3 7663   3.958   1.908   3.063  0.6277  1.9971  1.3837
 1916SOL    MW4 7664   4.039   1.876   3.070  0.2505  0.7404  0.2773
 1917SOL     OW 7665   4.237   2.019   2.959 -0.4189 -0.4114 -0.2249
 1917SOL    HW2 7666   4.260   2.110   2.976 -0.1405 -0.7061  1.0113
 1917SOL    HW3 7667   4.217   2.017   2.865 -1.0974  1.0618 -0.1360
 1917SOL    MW4 7668   4.237   2.031   2.948 -0.4717 -0.2559 -0.0500
 1918SOL     OW 7669   4.260   2.292   3.041  0.0167  0.4185  0.1714
 1918SOL    HW2 7670   4.178   2.313   2.996 -0.3563 -1.2445  0.0439
 1918SOL    HW3 7671   4.326   2.342   2.994 -0.9273  1.8599  0.3352
 1918SOL    MW4 7672   4.258   2.301   3.029 -0.1571  0.3892  0.1762
 1919SOL     OW 7673   4.045   2.380   2.890  0.8301  0.5554 -0.1916
 1919SOL    HW2 7674   4.032   2.469   2.921  0.5102  0.2630  0.5192
 1919SOL    HW3 7675   3.959   2.339   2.899  1.3176 -0.2449  0.8436
 1919SOL    MW4 7676   4.032   2.386   2.895  0.8522  0.4112  0.0388
 1920SOL     OW 7677   4.267   2.809   2.922  0.6854 -0.5772 -0.4373
 1920SOL    HW2 7678   4.343   2.760   2.955  0.4870 -0.7868 -0.2892
 1920SOL    HW3 7679   4.192   2.764   2.961  0.5622  0.6542  0.7907
 1920SOL    MW4 7680   4.268   2.796   2.932  0.6430 -0.4424 -0.2558
 1921SOL     OW 7681   4.032   2.653   3.011 -0.6018 -0.0307  0.3906
 1921SOL    HW2 7682   3.961   2.715   2.994 -1.1297 -0.3964  1.2350
 1921SOL    HW3 7683   4.050   2.662   3.104  0.1058 -0.3263  0.2902
 1921SOL    MW4 7684   4.025   2.663   3.021 -0.5781 -0.1179  0.4887
 1922SOL     OW 7685   4.275   3.063   3.029 -0.2317  0.9154 -0.1510
 1922SOL    HW2 7686   4.202   3.109   2.988 -1.4895  0.2959  1.3790
 1922SOL    HW3 7687   4.271   2.975   2.993 -1.4744  0.3062  1.4360
 1922SOL    MW4 7688   4.265   3.058   3.019 -0.5616  0.7533  0.2602
 1923SOL     OW 7689   4.032   3.190   2.917 -0.0847 -0.0484  0.4544
 1923SOL    HW2 7690   4.027   3.273   2.966  1.2196 -0.3812  1.1705
 1923SOL    HW3 7691   4.026   3.216   2.825 -0.9128  0.7269  0.7172
 1923SOL    MW4 7692   4.031   3.205   2.911 -0.0219  0.0100  0.5835
 1924SOL     OW 7693   3.838   3.582   2.931  0.0917 -0.0290  0.4149
 1924SOL    HW2 7694   3.809   3.671   2.949  0.0801  0.3232 -1.3010
 1924SOL    HW3 7695   3.842   3.576   2.835  0.1129 -1.8553  0.5025
 1924SOL    MW4 7696   3.835   3.593   2.921  0.0929 -0.2235  0.2001
 1925SOL     OW 7697   4.267   3.568   2.922 -0.6653 -0.1689  0.4441
 1925SOL    HW2 7698   4.249   3.654   2.961  0.3272  0.7939 -1.1439
 1925SOL    HW3 7699   4.191   3.515   2.943 -0.8210  0.7723  2.3822
 1925SOL    MW4 7700   4.255   3.572   2.930 -0.5549  0.0823  0.4903
 1926SOL     OW 7701   4.210   3.822   3.001  0.5950 -0.5782  0.1657
 1926SOL    HW2 7702   4.135   3.870   2.967  0.8099  0.2501  0.8419
 1926SOL    HW3 7703   4.286   3.870   2.969  0.8091 -0.2869  1.0967
 1926SOL    MW4 7704   4.210   3.834   2.992  0.6516 -0.4305  0.3777
 1927SOL     OW 7705   4.009   3.962   2.869 -0.5493  0.3194 -0.5463
 1927SOL    HW2 7706   3.995   4.041   2.921 -0.1521 -0.9903  1.6051
 1927SOL    HW3 7707   3.938   3.903   2.895 -0.0397 -0.5520 -1.0836
 1927SOL    MW4 7708   3.998   3.964   2.879 -0.4296  0.0317 -0.3334
 1928SOL     OW 7709   4.011   4.222   2.993  0.0093 -0.3820 -0.4717
 1928SOL    HW2 7710   3.998   4.203   3.086  1.6945 -1.1368 -0.3842
 1928SOL    HW3 7711   4.092   4.272   2.990 -0.1868 -0.1155 -1.5189
 1928SOL    MW4 7712   4.020   4.226   3.005  0.2058 -0.4465 -0.5983
 1929SOL     OW 7713   4.238   4.370   2.936  0.1768  0.0492  0.2388
 1929SOL    HW2 7714   4.312   4.313   2.955  0.0198 -0.5141 -0.8305
 1929SOL    HW3 7715   4.216   4.352   2.845  0.2108  1.9220 -0.1559
 1929SOL    MW4 7716   4.245   4.360   2.927  0.1606  0.2220  0.0457
 1930SOL     OW 7717   0.229   4.600   3.279  0.1648 -0.4098 -0.0634
 1930SOL    HW2 7718   0.311   4.643   3.305 -0.9171  0.3779  2.1494
 1930SOL    HW3 7719   0.233   4.515   3.323  0.4789 -0.9924 -1.2034
 1930SOL    MW4 7720   0.240   4.594   3.289  0.0635 -0.3828  0.0782
 1931SOL     OW 7721   1.124   4.534   4.307 -0.2491 -0.6089 -0.2600
 1931SOL    HW2 7722   1.191   4.493   4.252 -0.0244 -0.3127 -0.2099
 1931SOL    HW3 7723   1.045   4.484   4.289 -0.3143 -0.1462 -1.2991
 1931SOL    MW4 7724   1.123   4.522   4.297 -0.2281 -0.5087 -0.3905
 1932SOL     OW 7725   1.724   4.575   3.731 -0.3178 -0.3619  0.3800
 1932SOL    HW2 7726   1.698   4.515   3.801  0.4967 -2.2689 -0.9413
 1932SOL    HW3 7727   1.643   4.618   3.704 -0.7097  0.0757  2.1806
 1932SOL    MW4 7728   1.710   4.573   3.737 -0.2620 -0.5558  0.4432
 1933SOL     OW 7729   3.659   2.879   4.042 -0.2332 -0.1589 -0.2726
 1933SOL    HW2 7730   3.588   2.815   4.039 -0.2333 -0.1334 -0.8197
 1933SOL    HW3 7731   3.686   2.880   4.134  1.8698 -3.2375 -0.8013
 1933SOL    MW4 7732   3.653   2.870   4.054  0.0442 -0.5617 -0.4146
 1934SOL     OW 7733   4.414   3.186   4.155 -0.2666  0.3115  0.0712
 1934SOL    HW2 7734   4.382   3.111   4.105  0.4433  0.6039 -0.8361
 1934SOL    HW3 7735   4.384   3.262   4.106 -0.5691  0.6214  0.7270
 1934SOL    MW4 7736   4.406   3.186   4.142 -0.2128  0.3910  0.0380
 1935SOL     OW 7737   4.470   1.138   3.319  0.0989  0.2748 -0.0718
 1935SOL    HW2 7738   4.470   1.142   3.223 -1.1482 -0.0612 -0.0969
 1935SOL    HW3 7739   4.547   1.188   3.345  0.5036  0.2869 -1.2543
 1935SOL    MW4 7740   4.480   1.145   3.310 -0.0122  0.2320 -0.2312
 1936SOL     OW 7741   0.057   0.788   4.027  0.0925  0.1215  0.1595
 1936SOL    HW2 7742   0.024   0.877   4.026 -2.4888 -0.7825  0.0449
 1936SOL    HW3 7743  -0.011   0.738   4.074  1.5788 -1.7304  0.4151
 1936SOL    MW4 7744   0.043   0.793   4.033 -0.0520 -0.2421  0.1781
 1937SOL     OW 7745   3.484   2.476   4.119 -0.2409  0.3963 -0.4989
 1937SOL    HW2 7746   3.442   2.466   4.204  0.9270  0.4760  0.1018
 1937SOL    HW3 7747   3.455   2.400   4.068  1.5433 -1.3660  1.0283
 1937SOL    MW4 7748   3.475   2.465   4.123  0.1486  0.1743 -0.2182
 1938SOL     OW 7749   0.214   1.497   3.238 -0.2224  0.1388  0.1513
 1938SOL    HW2 7750   0.285   1.543   3.281 -0.3046  0.3568  0.0572
 1938SOL    HW3 7751   0.233   1.506   3.144  0.5325 -1.2543  0.1627
 1938SOL    MW4 7752   0.226   1.505   3.231 -0.1336 -0.0162  0.1404
 1939SOL     OW 7753   0.620   3.664   3.717 -0.2734 -0.6338  0.6243
 1939SOL    HW2 7754   0.650   3.650   3.627 -0.0824  0.7313  0.4594
 1939SOL    HW3 7755   0.549   3.601   3.729  0.2405 -1.3826 -0.2032
 1939SOL    MW4 7756   0.614   3.654   3.707 -0.1804 -0.5525  0.4934
 1940SOL     OW 7757   0.017   1.647   3.346  0.3575 -0.0491 -0.4185
 1940SOL    HW2 7758  -0.069   1.624   3.310  0.2377 -0.6302  0.2374
 1940SOL    HW3 7759   0.079   1.596   3.293  0.2270 -0.3865 -0.2503
 1940SOL    MW4 7760   0.014   1.637   3.334  0.3245 -0.1703 -0.3097
 1941SOL     OW 7761   0.059   1.916   3.328 -0.1547 -0.9205  0.0126
 1941SOL    HW2 7762   0.022   1.940   3.244  0.5058  0.6518  0.1602
 1941SOL    HW3 7763   0.040   1.822   3.336  0.6843 -1.3262 -2.3400
 1941SOL    MW4 7764   0.052   1.907   3.318  0.0431 -0.7666 -0.2783
 1942SOL     OW 7765   0.463   2.417   3.361  0.1547  0.4248  0.6336
 1942SOL    HW2 7766   0.442   2.408   3.455 -2.8519  1.9556  0.1813
 1942SOL    HW3 7767   0.468   2.512   3.347  1.0428  0.1913 -0.6832
 1942SOL    MW4 7768   0.461   2.429   3.372 -0.1248  0.5960  0.4002
 1943SOL     OW 7769   0.055   2.654   3.281  0.1375  0.1927 -0.1161
 1943SOL    HW2 7770   0.133   2.689   3.325  0.2123 -1.2013  0.8774
 1943SOL    HW3 7771  -0.014   2.716   3.302  0.3708 -0.0112  1.2567
 1943SOL    MW4 7772   0.056   2.667   3.289  0.1781 -0.0181  0.1961
 1944SOL     OW 7773   1.743   0.616   4.298 -0.3192 -0.0207  0.1062
 1944SOL    HW2 7774   1.823   0.659   4.328 -0.7024  0.0600  1.0213
 1944SOL    HW3 7775   1.768   0.524   4.290  0.0487  0.1069 -0.2691
 1944SOL    MW4 7776   1.757   0.610   4.301 -0.3212  0.0068  0.1774
 1945SOL     OW 7777   3.347   0.757   4.409 -0.5129  0.2749 -0.3519
 1945SOL    HW2 7778   3.418   0.781   4.351 -0.7600 -0.6317 -1.0412
 1945SOL    HW3 7779   3.268   0.766   4.356 -0.8718  0.7285  0.2420
 1945SOL    MW4 7780   3.346   0.761   4.395 -0.5928  0.2152 -0.3645
 1946SOL     OW 7781   0.076   3.227   3.399  0.6226  0.6524  0.1114
 1946SOL    HW2 7782  -0.010   3.193   3.375  0.6004  1.2818 -0.7310
 1946SOL    HW3 7783   0.069   3.322   3.386  0.7147  0.9887  2.3176
 1946SOL    MW4 7784   0.064   3.235   3.394  0.6318  0.7798  0.2913
 1947SOL     OW 7785   3.860   4.630   3.261 -0.8632 -0.3087 -0.0451
 1947SOL    HW2 7786   3.920   4.683   3.312 -0.4726 -2.3883  1.7395
 1947SOL    HW3 7787   3.885   4.645   3.170 -0.5344  2.2129  0.4322
 1947SOL    MW4 7788   3.871   4.639   3.255 -0.7683 -0.2504  0.2533
 1948SOL     OW 7789   4.268   0.457   3.339 -0.0179 -0.1836  0.1166
 1948SOL    HW2 7790   4.174   0.442   3.332 -0.2028  1.0443 -0.0512
 1948SOL    HW3 7791   4.283   0.475   3.432  0.1936 -1.2399  0.3010
 1948SOL    MW4 7792   4.258   0.457   3.350 -0.0144 -0.1610  0.1188
 1949SOL     OW 7793   4.326   2.801   3.345  0.1453 -0.2259  0.1418
 1949SOL    HW2 7794   4.237   2.766   3.333 -0.4748  1.1661  0.5429
 1949SOL    HW3 7795   4.317   2.895   3.328  1.7347 -0.2185 -0.7225
 1949SOL    MW4 7796   4.313   2.809   3.341  0.2732 -0.0413  0.0807
 1950SOL     OW 7797   0.246   3.903   3.464 -0.2082 -0.2157  0.2153
 1950SOL    HW2 7798   0.216   3.936   3.549  0.5368  1.6831 -0.2440
 1950SOL    HW3 7799   0.238   3.808   3.471 -1.2988 -0.0129  1.9796
 1950SOL    MW4 7800   0.241   3.895   3.476 -0.2538  0.0615  0.3875
 1951SOL     OW 7801   1.116   3.096   3.795 -0.4805  0.2700  0.4826
 1951SOL    HW2 7802   1.115   3.100   3.890  1.7604 -1.9421  0.6503
 1951SOL    HW3 7803   1.059   3.021   3.773 -0.2851  0.2237  0.1262
 1951SOL    MW4 7804   1.108   3.086   3.804 -0.1590 -0.0280  0.4577
 1952SOL     OW 7805   0.214   4.142   4.146  0.1668  0.5194 -0.0082
 1952SOL    HW2 7806   0.229   4.052   4.175  0.1505  0.8270  0.9829
 1952SOL    HW3 7807   0.288   4.160   4.087  0.1245 -0.1673 -0.2767
 1952SOL    MW4 7808   0.226   4.133   4.142  0.1591  0.4694  0.0872
 1953SOL     OW 7809   4.490   4.210   3.281  0.1964 -0.2071 -0.1010
 1953SOL    HW2 7810   4.413   4.225   3.335 -0.1597  0.5858 -0.8155
 1953SOL    HW3 7811   4.554   4.274   3.312 -0.8896  1.9861 -2.3107
 1953SOL    MW4 7812   4.488   4.220   3.292  0.0062  0.1869 -0.4868
 1954SOL     OW 7813   1.280   0.124   3.309 -0.3696 -0.0031 -0.0520
 1954SOL    HW2 7814   1.206   0.077   3.269 -0.2923  0.3387 -0.6001
 1954SOL    HW3 7815   1.239   0.197   3.355 -0.4581 -0.3908  0.4834
 1954SOL    MW4 7816   1.265   0.127   3.310 -0.3711 -0.0091 -0.0537
 1955SOL     OW 7817   0.245   4.277   3.793 -0.4363 -0.3200  0.9699
 1955SOL    HW2 7818   0.203   4.203   3.748 -0.0649 -0.2246  0.4648
 1955SOL    HW3 7819   0.298   4.319   3.725 -0.3669  0.1986  1.3476
 1955SOL    MW4 7820   0.247   4.272   3.778 -0.3782 -0.2390  0.9531
 1956SOL     OW 7821   3.472   1.103   4.325 -0.0985  0.2810  0.1662
 1956SOL    HW2 7822   3.479   1.159   4.248  0.2976  1.2062  0.8594
 1956SOL    HW3 7823   3.529   1.028   4.306 -0.2147  0.3718 -0.5424
 1956SOL    MW4 7824   3.481   1.100   4.313 -0.0616  0.4150  0.1642
 1957SOL     OW 7825   2.769   0.474   3.971 -0.6257 -0.1468 -0.1226
 1957SOL    HW2 7826   2.763   0.565   3.943 -0.0795 -0.2399 -0.5567
 1957SOL    HW3 7827   2.766   0.478   4.066 -1.7124  0.2391 -0.1664
 1957SOL    MW4 7828   2.768   0.487   3.980 -0.6970 -0.1082 -0.1856
 1958SOL     OW 7829   0.661   0.690   3.242 -0.5374  0.0007  0.1831
 1958SOL    HW2 7830   0.742   0.737   3.259 -1.0521  0.9785 -0.0288
 1958SOL    HW3 7831   0.597   0.731   3.299 -0.8708 -0.8251  0.4111
 1958SOL    MW4 7832   0.663   0.701   3.252 -0.6493  0.0208  0.1853
 1959SOL     OW 7833   2.473   1.241   3.379  0.2037  0.3953  0.0767
 1959SOL    HW2 7834   2.481   1.330   3.346 -1.6574  0.7112  0.4346
 1959SOL    HW3 7835   2.395   1.206   3.336  0.7124 -0.9484  0.2061
 1959SOL    MW4 7836   2.464   1.248   3.369  0.0253  0.2597  0.1410
 1960SOL     OW 7837   0.412   1.106   3.307 -0.0815 -0.2954 -0.8502
 1960SOL    HW2 7838   0.483   1.149   3.356 -1.2151  0.6193  0.0045
 1960SOL    HW3 7839   0.435   1.121   3.215  0.3962  0.7401 -0.5773
 1960SOL    MW4 7840   0.425   1.114   3.301 -0.1680 -0.0381 -0.7014
 1961SOL     OW 7841   1.099   0.674   3.223  0.3021 -0.3481 -0.9019
 1961SOL    HW2 7842   1.121   0.709   3.136  0.7732  1.1005 -0.2007
 1961SOL    HW3 7843   1.153   0.595   3.230  2.5826  1.1549 -0.7184
 1961SOL    MW4 7844   1.109   0.668   3.212  0.6652  0.0413 -0.7852
 1962SOL     OW 7845   0.623   1.272   3.383  0.3564  0.4712  0.2214
 1962SOL    HW2 7846   0.646   1.322   3.462 -0.3709 -0.4915  1.0496
 1962SOL    HW3 7847   0.702   1.221   3.363 -0.0475 -0.6023  1.3428
 1962SOL    MW4 7848   0.637   1.272   3.391  0.2072  0.2026  0.4786
 1963SOL     OW 7849   3.998   3.259   3.698  0.2843  0.1968  0.2086
 1963SOL    HW2 7850   4.092   3.266   3.710  0.2911  0.8372 -0.1882
 1963SOL    HW3 7851   3.978   3.168   3.720  0.9498  0.1326  0.5662
 1963SOL    MW4 7852   4.008   3.248   3.702  0.3730  0.2728  0.2035
 1964SOL     OW 7853   0.491   1.898   3.220 -0.1086 -0.3386 -0.3930
 1964SOL    HW2 7854   0.433   1.964   3.259  3.3553  1.5213  1.8097
 1964SOL    HW3 7855   0.481   1.911   3.125 -0.5854  2.4237 -0.0125
 1964SOL    MW4 7856   0.482   1.908   3.212  0.2856  0.2712 -0.0522
 1965SOL     OW 7857   0.442   2.105   4.206 -0.3734 -0.3875  0.5052
 1965SOL    HW2 7858   0.473   2.189   4.169 -2.3492 -0.2516 -0.9136
 1965SOL    HW3 7859   0.504   2.040   4.171 -0.0976  0.2076 -0.1307
 1965SOL    MW4 7860   0.455   2.108   4.196 -0.5977 -0.2910  0.2341
 1966SOL     OW 7861   0.690   2.258   3.268 -0.5183 -0.6614  0.9463
 1966SOL    HW2 7862   0.613   2.307   3.297 -0.5047 -0.2861  0.3672
 1966SOL    HW3 7863   0.764   2.316   3.287 -0.5034 -0.4450  0.2546
 1966SOL    MW4 7864   0.690   2.272   3.274 -0.5146 -0.5833  0.7786
 1967SOL     OW 7865   3.499   2.203   4.509 -0.4072  0.3866  0.2805
 1967SOL    HW2 7866   3.457   2.189   4.594 -1.9219  0.0620 -0.5105
 1967SOL    HW3 7867   3.445   2.155   4.447  1.0629  0.0812 -0.7935
 1967SOL    MW4 7868   3.487   2.195   4.512 -0.4131  0.3035  0.0344
 1968SOL     OW 7869   0.471   2.669   3.013 -0.3498 -0.0151 -0.0290
 1968SOL    HW2 7870   0.464   2.582   2.974 -0.1314  0.1757 -0.5004
 1968SOL    HW3 7871   0.557   2.701   2.985 -1.0113  0.9148 -1.0507
 1968SOL    MW4 7872   0.481   2.662   3.004 -0.4082  0.1328 -0.2260
 1969SOL     OW 7873   0.706   3.076   3.244 -0.2151  0.2396 -0.0074
 1969SOL    HW2 7874   0.698   2.992   3.290  0.6586 -0.2308 -0.6949
 1969SOL    HW3 7875   0.639   3.132   3.284 -2.0141 -1.3295 -0.7410
 1969SOL    MW4 7876   0.696   3.072   3.256 -0.3372 -0.0295 -0.1949
 1970SOL     OW 7877   0.915   3.157   3.417  0.1971 -0.6262 -0.6419
 1970SOL    HW2 7878   0.839   3.119   3.372  1.1906 -2.6655 -0.6586
 1970SOL    HW3 7879   0.991   3.118   3.374  1.2358  0.4589  0.1684
 1970SOL    MW4 7880   0.915   3.147   3.406  0.4652 -0.7521 -0.5372
 1971SOL     OW 7881   0.840   1.323   3.795 -0.3076  0.1772 -0.5284
 1971SOL    HW2 7882   0.932   1.349   3.798 -0.2679  0.0886 -0.9827
 1971SOL    HW3 7883   0.841   1.228   3.811 -0.3751  0.2883  0.1461
 1971SOL    MW4 7884   0.852   1.314   3.798 -0.3113  0.1802 -0.4994
 1972SOL     OW 7885   0.447   3.540   3.289  0.2006  0.2995 -0.9272
 1972SOL    HW2 7886   0.433   3.449   3.316 -0.6485  1.0148  1.1364
 1972SOL    HW3 7887   0.520   3.570   3.343 -1.9887  1.9743  1.1658
 1972SOL    MW4 7888   0.455   3.532   3.300 -0.2003  0.6149 -0.3788
 1973SOL     OW 7889   0.530   3.862   4.550  0.3425  0.0530 -0.3221
 1973SOL    HW2 7890   0.557   3.857   4.459 -1.6633 -0.2843 -0.9261
 1973SOL    HW3 7891   0.502   3.952   4.562 -1.5884 -0.4567 -0.7269
 1973SOL    MW4 7892   0.530   3.873   4.540 -0.1769 -0.0587 -0.4552
 1974SOL     OW 7893   0.691   3.881   3.289 -0.0175  0.1691  0.0810
 1974SOL    HW2 7894   0.775   3.928   3.294 -0.5728  1.1043  0.6004
 1974SOL    HW3 7895   0.633   3.929   3.348 -0.6887 -0.9715  0.3467
 1974SOL    MW4 7896   0.695   3.894   3.297 -0.1793  0.1420  0.1846
 1975SOL     OW 7897   0.302   3.862   3.918  0.3363 -0.2201  0.2808
 1975SOL    HW2 7898   0.391   3.883   3.891 -0.6667  0.3554 -2.7957
 1975SOL    HW3 7899   0.305   3.860   4.013  3.6987 -0.5600  0.2159
 1975SOL    MW4 7900   0.314   3.864   3.927  0.6476 -0.1890 -0.1337
 1976SOL     OW 7901   1.211   4.059   4.324  0.0785  0.4748  0.3905
 1976SOL    HW2 7902   1.273   3.992   4.353  0.6569  0.0015 -1.8412
 1976SOL    HW3 7903   1.127   4.033   4.361  0.5271 -0.8406  0.4887
 1976SOL    MW4 7904   1.208   4.047   4.333  0.2140  0.2388  0.1090
 1977SOL     OW 7905   2.782   2.170   3.869  0.0110  0.0946 -0.1559
 1977SOL    HW2 7906   2.831   2.131   3.943 -0.7229 -0.3813  0.0887
 1977SOL    HW3 7907   2.829   2.251   3.850  0.7345 -0.2116  0.2605
 1977SOL    MW4 7908   2.795   2.175   3.876  0.0096 -0.0086 -0.0687
 1978SOL     OW 7909   2.967   2.053   4.088  0.1763 -0.2120  0.3026
 1978SOL    HW2 7910   3.026   2.029   4.017  0.3738 -0.6032  0.5997
 1978SOL    HW3 7911   3.015   2.031   4.168 -0.5607 -0.9824  0.5370
 1978SOL    MW4 7912   2.981   2.047   4.089  0.1052 -0.3653  0.3727
 1979SOL     OW 7913   1.070   4.245   3.584 -0.3694 -0.2711 -0.5871
 1979SOL    HW2 7914   1.163   4.225   3.600 -0.4553 -2.0987 -2.2741
 1979SOL    HW3 7915   1.071   4.297   3.503 -0.7211  0.9248  0.1621
 1979SOL    MW4 7916   1.083   4.249   3.576 -0.4271 -0.3545 -0.7108
 1980SOL     OW 7917   3.333   3.269   4.128  0.1413  0.2497 -0.2429
 1980SOL    HW2 7918   3.349   3.326   4.203  0.1605  0.2209 -0.2252
 1980SOL    HW3 7919   3.239   3.252   4.131  0.2164 -0.1285  0.0503
 1980SOL    MW4 7920   3.323   3.274   4.138  0.1537  0.1960 -0.2019
 1981SOL     OW 7921   0.633   0.548   4.030  0.5655  0.5613 -0.4383
 1981SOL    HW2 7922   0.661   0.531   4.120  0.9697  2.3276 -0.2199
 1981SOL    HW3 7923   0.632   0.462   3.989  2.1231 -0.0515  0.7552
 1981SOL    MW4 7924   0.636   0.534   4.036  0.8243  0.7135 -0.2520
 1982SOL     OW 7925   0.976   3.963   4.432 -0.3697  0.2217  0.9011
 1982SOL    HW2 7926   0.945   3.916   4.509  0.0597 -2.1796 -0.3348
 1982SOL    HW3 7927   0.896   3.990   4.387 -0.6215  1.0904  1.8603
 1982SOL    MW4 7928   0.961   3.960   4.436 -0.3462  0.0195  0.8646
 1983SOL     OW 7929   3.577   1.201   3.681 -0.0079  0.0415 -0.1763
 1983SOL    HW2 7930   3.653   1.251   3.651 -0.1199  0.0577 -0.4285
 1983SOL    HW3 7931   3.501   1.250   3.649 -0.1332  0.2361  0.4046
 1983SOL    MW4 7932   3.577   1.214   3.673 -0.0392  0.0693 -0.1329
 1984SOL     OW 7933   1.815   0.327   3.503  0.5835 -0.2244  0.3896
 1984SOL    HW2 7934   1.770   0.409   3.524  2.1713  0.3610  1.6690
 1984SOL    HW3 7935   1.886   0.322   3.567  0.6868 -2.4675  0.1362
 1984SOL    MW4 7936   1.818   0.337   3.514  0.8066 -0.4431  0.5249
 1985SOL     OW 7937   0.899   1.657   3.371 -0.2068 -0.3706 -0.3846
 1985SOL    HW2 7938   0.886   1.677   3.463 -1.2909 -1.9678 -0.1734
 1985SOL    HW3 7939   0.814   1.624   3.341  0.3161 -0.5039 -1.7749
 1985SOL    MW4 7940   0.886   1.655   3.379 -0.2809 -0.5989 -0.5401
 1986SOL     OW 7941   2.451   3.081   4.247  0.2586  0.4274  0.2282
 1986SOL    HW2 7942   2.544   3.080   4.270 -0.0822  1.0259  1.7354
 1986SOL    HW3 7943   2.411   3.015   4.304 -0.7141  2.4281  1.9512
 1986SOL    MW4 7944   2.458   3.072   4.258  0.0853  0.7704  0.6544
 1987SOL     OW 7945   1.422   1.906   3.708  0.0531  0.4520 -0.1382
 1987SOL    HW2 7946   1.446   1.918   3.800  0.7277 -0.5347 -0.1795
 1987SOL    HW3 7947   1.495   1.946   3.660  0.1372  0.1689 -0.2472
 1987SOL    MW4 7948   1.435   1.913   3.714  0.1532  0.2845 -0.1580
 1988SOL     OW 7949   0.009   0.341   2.969 -0.2449  0.0043 -0.2844
 1988SOL    HW2 7950  -0.070   0.386   2.938 -0.3665  0.0158  0.0378
 1988SOL    HW3 7951   0.001   0.342   3.065 -0.0506 -0.3530 -0.2645
 1988SOL    MW4 7952  -0.003   0.347   2.978 -0.2353 -0.0413 -0.2393
 1989SOL     OW 7953   0.683   2.004   3.398  0.2375 -0.2635 -0.3155
 1989SOL    HW2 7954   0.613   1.957   3.353  0.0961 -1.4475  1.0990
 1989SOL    HW3 7955   0.680   2.092   3.361 -0.8424 -0.7893 -1.5291
 1989SOL    MW4 7956   0.673   2.009   3.387  0.0764 -0.4891 -0.2890
 1990SOL     OW 7957   1.163   2.271   3.295 -0.3454  0.3557 -0.1841
 1990SOL    HW2 7958   1.244   2.317   3.318 -0.6936  0.1265  1.5830
 1990SOL    HW3 7959   1.150   2.290   3.202  2.3536 -0.5533 -0.7795
 1990SOL    MW4 7960   1.172   2.280   3.286 -0.0353  0.2056 -0.0295
 1991SOL     OW 7961   0.911   2.384   3.362 -0.0531 -0.0361 -0.2835
 1991SOL    HW2 7962   0.997   2.344   3.358  0.6554  1.3173  1.0237
 1991SOL    HW3 7963   0.885   2.379   3.454 -0.6088  1.1120 -0.3624
 1991SOL    MW4 7964   0.919   2.378   3.373 -0.0330  0.2940 -0.1215
 1992SOL     OW 7965   1.246   2.654   3.667 -0.3782  0.0038  0.1305
 1992SOL    HW2 7966   1.220   2.687   3.581  1.6085  0.2209 -0.4168
 1992SOL    HW3 7967   1.316   2.591   3.648  1.0683  1.1077  1.6628
 1992SOL    MW4 7968   1.252   2.650   3.653  0.0748  0.1781  0.2605
 1993SOL     OW 7969   3.633   2.400   3.618  0.6208 -0.3182 -0.2817
 1993SOL    HW2 7970   3.663   2.315   3.650  0.7980 -0.4146 -0.7159
 1993SOL    HW3 7971   3.696   2.463   3.653 -0.6167 -0.1357  1.7177
 1993SOL    MW4 7972   3.645   2.397   3.627  0.4809 -0.3068 -0.0752
 1994SOL     OW 7973   1.116   3.043   3.308  0.1067  0.4292 -0.0448
 1994SOL    HW2 7974   1.184   3.103   3.337  1.9965 -1.7703  0.2173
 1994SOL    HW3 7975   1.128   3.037   3.213  0.3492  0.0063  0.0072
 1994SOL    MW4 7976   1.126   3.050   3.299  0.3880  0.0832 -0.0034
 1995SOL     OW 7977   2.345   0.925   3.599  0.4203 -0.2852 -0.3302
 1995SOL    HW2 7978   2.296   0.988   3.652  0.0036 -2.0384  1.3997
 1995SOL    HW3 7979   2.289   0.911   3.522 -0.7908 -0.6401  0.6020
 1995SOL    MW4 7980   2.331   0.932   3.596  0.2055 -0.5634  0.0210
 1996SOL     OW 7981   0.894   3.436   3.321  0.5319  0.3441 -0.4551
 1996SOL    HW2 7982   0.904   3.342   3.338 -0.5295  0.2095 -0.5609
 1996SOL    HW3 7983   0.887   3.442   3.225  0.3746  0.5084 -0.4326
 1996SOL    MW4 7984   0.895   3.424   3.310  0.3711  0.3481 -0.4661
 1997SOL     OW 7985   0.912   0.305   3.232 -0.0119  0.5436  0.1250
 1997SOL    HW2 7986   0.913   0.209   3.235 -1.0769  0.5358  0.1824
 1997SOL    HW3 7987   0.831   0.330   3.275 -0.0401  1.4547 -0.4490
 1997SOL    MW4 7988   0.902   0.296   3.238 -0.1561  0.6628  0.0569
 1998SOL     OW 7989   1.096   3.588   3.414  0.0689  0.3924  0.0632
 1998SOL    HW2 7990   1.103   3.560   3.506  1.4719  1.2163  0.2277
 1998SOL    HW3 7991   1.026   3.534   3.378 -0.0039 -0.4659  1.4368
 1998SOL    MW4 7992   1.088   3.577   3.422  0.2444  0.3879  0.2662
 1999SOL     OW 7993   0.916   4.073   3.346 -0.2884  0.0161  0.3141
 1999SOL    HW2 7994   0.978   4.001   3.340 -0.2544 -0.0101  0.9723
 1999SOL    HW3 7995   0.938   4.117   3.427 -1.5352 -0.3793  0.8775
 1999SOL    MW4 7996   0.927   4.069   3.356 -0.4484 -0.0395  0.4753
 2000SOL     OW 7997   0.990   0.041   3.260  0.0571  0.2963 -0.1811
 2000SOL    HW2 7998   0.936  -0.020   3.312 -0.5980  1.4917  0.5746
 2000SOL    HW3 7999   1.004  -0.004   3.177 -0.5641 -0.8184  0.3056
 2000SOL    MW4 8000   0.985   0.027   3.256 -0.1113  0.3069 -0.0172
 2001SOL     OW 8001   0.879   4.640   3.564 -0.0848  0.5386  0.7811
 2001SOL    HW2 8002   0.892   4.733   3.581  1.8066  0.4588 -0.1541
 2001SOL    HW3 8003   0.922   4.595   3.637 -0.2873  0.3706  0.8008
 2001SOL    MW4 8004   0.886   4.646   3.576  0.1380  0.5059  0.6603
 2002SOL     OW 8005   1.542   0.192   3.250  0.0266  0.0079  0.0627
 2002SOL    HW2 8006   1.585   0.158   3.328 -1.0730 -2.5628 -0.4160
 2002SOL    HW3 8007   1.449   0.173   3.263 -0.3550  0.9659 -1.1588
 2002SOL    MW4 8008   1.535   0.185   3.262 -0.1688 -0.2049 -0.1616
 2003SOL     OW 8009   1.442   0.005   3.708  0.4512  0.5277  0.1015
 2003SOL    HW2 8010   1.364  -0.014   3.656  0.2789 -0.5928  0.7521
 2003SOL    HW3 8011   1.451   0.100   3.704 -0.4398  0.5855 -0.7045
 2003SOL    MW4 8012   1.433   0.015   3.701  0.3109  0.3875  0.0810
 2004SOL     OW 8013   3.777   0.253   4.589  0.6347 -0.3594 -0.1339
 2004SOL    HW2 8014   3.710   0.318   4.570 -0.1595 -1.3993 -0.9751
 2004SOL    HW3 8015   3.860   0.297   4.570  0.0148 -0.3504 -3.1177
 2004SOL    MW4 8016   3.779   0.267   4.584  0.4481 -0.4954 -0.6386
 2005SOL     OW 8017   1.768   0.199   3.874 -0.2724  0.6402  0.1395
 2005SOL    HW2 8018   1.798   0.228   3.960 -0.2341 -1.0044  0.7168
 2005SOL    HW3 8019   1.805   0.111   3.865 -0.4802  0.7078 -1.4551
 2005SOL    MW4 8020   1.777   0.191   3.884 -0.2948  0.4321  0.0053
 2006SOL     OW 8021   4.431   3.346   4.515 -1.0460  0.1366 -0.2440
 2006SOL    HW2 8022   4.359   3.368   4.574 -0.4123 -1.6271  1.2237
 2006SOL    HW3 8023   4.405   3.263   4.475  0.5467 -1.0358  1.0385
 2006SOL    MW4 8024   4.418   3.338   4.518 -0.7522 -0.2508  0.1188
 2007SOL     OW 8025   1.223   1.211   3.696 -0.0626 -0.2545 -0.3064
 2007SOL    HW2 8026   1.312   1.240   3.675  0.1403 -1.9313 -1.8878
 2007SOL    HW3 8027   1.178   1.211   3.611 -1.1526 -0.7875  0.2691
 2007SOL    MW4 8028   1.229   1.215   3.682 -0.1796 -0.5461 -0.4391
 2008SOL     OW 8029   2.804   4.652   3.898 -0.1918  0.2396 -0.1624
 2008SOL    HW2 8030   2.794   4.587   3.829  0.5511  0.4327 -0.4609
 2008SOL    HW3 8031   2.867   4.715   3.863  1.1819 -0.3593  1.1808
 2008SOL    MW4 8032   2.811   4.652   3.884  0.0875  0.1861 -0.0246
 2009SOL     OW 8033   1.819   1.139   3.193  0.1531 -0.0571 -0.1256
 2009SOL    HW2 8034   1.888   1.175   3.249 -0.0843 -0.6266  0.5509
 2009SOL    HW3 8035   1.737   1.161   3.238 -0.0394 -0.5061 -0.2517
 2009SOL    MW4 8036   1.817   1.146   3.206  0.0964 -0.1915 -0.0530
 2010SOL     OW 8037   0.029   3.500   3.338  0.2187 -0.5788  0.2992
 2010SOL    HW2 8038  -0.051   3.512   3.389 -0.3911 -0.1336 -0.7310
 2010SOL    HW3 8039  -0.001   3.488   3.248  1.3330  0.3399 -0.2175
 2010SOL    MW4 8040   0.015   3.500   3.333  0.2852 -0.3988  0.0951
 2011SOL     OW 8041   1.153   2.757   3.385  0.0301 -0.0032  0.3152
 2011SOL    HW2 8042   1.239   2.742   3.347 -0.3335 -0.7492 -0.2240
 2011SOL    HW3 8043   1.140   2.852   3.379  1.0048  0.1694  0.8277
 2011SOL    MW4 8044   1.163   2.767   3.379  0.1107 -0.0788  0.3117
 2012SOL     OW 8045   1.353   1.850   3.360 -0.4700 -0.1229  0.0270
 2012SOL    HW2 8046   1.273   1.895   3.388 -0.3805  0.6442 -0.9119
 2012SOL    HW3 8047   1.352   1.767   3.407 -1.0566  0.5225  1.1631
 2012SOL    MW4 8048   1.342   1.845   3.370 -0.5356  0.0635  0.0531
 2013SOL     OW 8049   1.577   2.038   3.302  0.4696  0.4662  0.2838
 2013SOL    HW2 8050   1.636   1.963   3.299 -0.3673 -0.1861  0.0502
 2013SOL    HW3 8051   1.489   2.000   3.313 -0.1874  1.3012 -1.7706
 2013SOL    MW4 8052   1.573   2.023   3.303  0.2725  0.4903 -0.0181
 2014SOL     OW 8053   1.392   2.416   3.326  0.4475 -0.2343  0.1729
 2014SOL    HW2 8054   1.377   2.497   3.277 -0.3117 -0.4809 -0.0139
 2014SOL    HW3 8055   1.482   2.393   3.307  0.7404  0.6910  0.4076
 2014SOL    MW4 8056   1.402   2.424   3.317  0.3860 -0.1448  0.1792
 2015SOL     OW 8057   3.920   3.464   4.062 -0.4081  0.0399  0.0492
 2015SOL    HW2 8058   3.872   3.480   4.144 -1.0882 -0.4280 -0.2590
 2015SOL    HW3 8059   3.884   3.529   4.001 -1.1972 -0.8048 -0.3989
 2015SOL    MW4 8060   3.909   3.475   4.065 -0.6019 -0.1333 -0.0506
 2016SOL     OW 8061   1.386   2.690   3.252  0.1223 -0.6216 -0.2761
 2016SOL    HW2 8062   1.452   2.754   3.278 -0.3335 -0.0951 -0.4133
 2016SOL    HW3 8063   1.371   2.707   3.159 -0.6569 -0.3349 -0.0970
 2016SOL    MW4 8064   1.393   2.701   3.243 -0.0407 -0.5143 -0.2705
 2017SOL     OW 8065   1.561   3.002   3.616 -0.6376 -0.0704 -0.6375
 2017SOL    HW2 8066   1.491   3.057   3.649 -0.9523 -0.8193 -0.0406
 2017SOL    HW3 8067   1.633   3.062   3.600 -1.3424  0.6811 -1.0654
 2017SOL    MW4 8068   1.561   3.017   3.618 -0.7721 -0.0700 -0.6152
 2018SOL     OW 8069   1.539   3.143   3.217 -0.2751  0.2543  0.1741
 2018SOL    HW2 8070   1.617   3.185   3.253 -0.2516  0.8529 -0.5727
 2018SOL    HW3 8071   1.544   3.053   3.250  1.3118 -0.0143 -0.7368
 2018SOL    MW4 8072   1.550   3.136   3.226 -0.0626  0.2979 -0.0446
 2019SOL     OW 8073   1.319   3.460   3.283  0.0465  0.2150  0.5018
 2019SOL    HW2 8074   1.247   3.505   3.328  1.5367  0.2773  2.9204
 2019SOL    HW3 8075   1.321   3.373   3.323  0.8674 -0.0081 -0.0293
 2019SOL    MW4 8076   1.309   3.455   3.294  0.3515  0.1938  0.7508
 2020SOL     OW 8077   4.361   0.117   4.309  0.0625  0.0601 -0.2779
 2020SOL    HW2 8078   4.382   0.117   4.402  0.9617  0.0739 -0.4754
 2020SOL    HW3 8079   4.418   0.185   4.271 -0.7132  0.4566 -0.7442
 2020SOL    MW4 8080   4.371   0.126   4.316  0.0788  0.1142 -0.3655
 2021SOL     OW 8081   1.518   3.628   3.396 -0.2245  0.0721 -0.0445
 2021SOL    HW2 8082   1.603   3.590   3.375 -0.9332 -1.6168  0.0327
 2021SOL    HW3 8083   1.454   3.567   3.357 -1.3931  1.1377  0.1747
 2021SOL    MW4 8084   1.521   3.615   3.388 -0.4722 -0.0101 -0.0054
 2022SOL     OW 8085   1.736   4.035   3.418 -0.2255  0.5667  0.0853
 2022SOL    HW2 8086   1.668   3.983   3.375  0.1553 -0.5153  0.7536
 2022SOL    HW3 8087   1.746   4.112   3.363 -1.7727  0.5856 -0.1910
 2022SOL    MW4 8088   1.729   4.038   3.405 -0.3794  0.4264  0.1371
 2023SOL     OW 8089   0.457   0.821   4.053  0.0462 -0.1340  0.2147
 2023SOL    HW2 8090   0.420   0.734   4.069 -1.9266  0.5465 -0.6220
 2023SOL    HW3 8091   0.406   0.879   4.109 -0.3325  0.8570 -1.1612
 2023SOL    MW4 8092   0.446   0.817   4.063 -0.2640  0.0865 -0.0772
 2024SOL     OW 8093   4.349   2.129   4.218  0.0537 -0.0534 -0.1183
 2024SOL    HW2 8094   4.366   2.055   4.276  0.3320  0.1750  0.0871
 2024SOL    HW3 8095   4.319   2.088   4.136  2.1919 -0.4954 -0.7115
 2024SOL    MW4 8096   4.347   2.114   4.215  0.3725 -0.0816 -0.1695
 2025SOL     OW 8097   2.041   0.951   3.678 -0.1356  0.4111  0.0274
 2025SOL    HW2 8098   2.038   0.881   3.743 -1.2945  0.2332 -0.1988
 2025SOL    HW3 8099   1.963   0.936   3.624  0.4453  0.9534 -0.9823
 2025SOL    MW4 8100   2.030   0.940   3.679 -0.2119  0.4592 -0.1357
 2026SOL     OW 8101   2.204   0.435   3.882  0.1511  0.1168  0.2213
 2026SOL    HW2 8102   2.268   0.456   3.813  1.0803 -0.7455  0.8090
 2026SOL    HW3 8103   2.212   0.508   3.943  0.0514  0.3704 -0.0621
 2026SOL    MW4 8104   2.214   0.448   3.881  0.2606  0.0365  0.2614
 2027SOL     OW 8105   2.006   4.519   3.703 -0.0674  0.2676 -0.1994
 2027SOL    HW2 8106   1.916   4.549   3.699  0.2556  1.3014  0.2021
 2027SOL    HW3 8107   2.056   4.588   3.660  0.3677 -0.9960 -1.7674
 2027SOL    MW4 8108   2.001   4.532   3.697  0.0326  0.2373 -0.3533
 2028SOL     OW 8109   3.142   3.906   3.959 -0.2864 -0.1392  0.0593
 2028SOL    HW2 8110   3.089   3.869   4.029 -0.9357  0.1465 -0.2788
 2028SOL    HW3 8111   3.109   3.995   3.948 -0.5536 -0.3522 -0.9672
 2028SOL    MW4 8112   3.130   3.913   3.967 -0.4073 -0.1296 -0.1208
 2029SOL     OW 8113   1.971   4.633   3.258  0.3420  0.3301 -0.1142
 2029SOL    HW2 8114   2.059   4.671   3.264  0.4551 -0.0689  0.8919
 2029SOL    HW3 8115   1.951   4.632   3.164  0.9779  1.4051 -0.2666
 2029SOL    MW4 8116   1.980   4.638   3.247  0.4408  0.4193 -0.0016
 2030SOL     OW 8117   1.378   0.966   4.222  0.1675  0.2794  0.1989
 2030SOL    HW2 8118   1.391   0.898   4.155 -1.3640  0.3348 -0.1799
 2030SOL    HW3 8119   1.294   0.944   4.262 -0.1266  1.7003  0.3803
 2030SOL    MW4 8120   1.368   0.954   4.218 -0.0733  0.4742  0.1729
 2031SOL     OW 8121   0.208   0.447   3.363  0.0720 -0.2137  0.9862
 2031SOL    HW2 8122   0.286   0.412   3.320 -0.4563  0.6732 -0.7338
 2031SOL    HW3 8123   0.217   0.542   3.354 -1.2070 -0.1123  0.7798
 2031SOL    MW4 8124   0.220   0.455   3.356 -0.1664 -0.0833  0.7321
 2032SOL     OW 8125   0.258   2.955   4.283 -0.0466 -0.0275 -0.1758
 2032SOL    HW2 8126   0.331   2.930   4.228  0.3587 -0.6977  0.6429
 2032SOL    HW3 8127   0.225   3.036   4.245  0.7612 -0.0257 -0.8839
 2032SOL    MW4 8128   0.263   2.962   4.271  0.1134 -0.1157 -0.1612
 2033SOL     OW 8129   4.154   3.297   3.993  0.4461 -0.0693 -0.1667
 2033SOL    HW2 8130   4.091   3.363   4.023  0.0678  0.2815 -1.6914
 2033SOL    HW3 8131   4.117   3.214   4.021 -0.0469  0.2266  0.0642
 2033SOL    MW4 8132   4.141   3.295   4.001  0.3312  0.0160 -0.3374
 2034SOL     OW 8133   2.048   1.512   3.226 -0.0663 -0.3728  0.0060
 2034SOL    HW2 8134   1.969   1.549   3.265 -0.0908 -0.7623  0.3314
 2034SOL    HW3 8135   2.120   1.558   3.268 -0.1419  1.1879 -1.5118
 2034SOL    MW4 8136   2.047   1.523   3.237 -0.0795 -0.2182 -0.1513
 2035SOL     OW 8137   1.067   1.248   3.420 -0.2075  0.1050  0.0730
 2035SOL    HW2 8138   1.087   1.336   3.389  1.2495  0.2067  1.2355
 2035SOL    HW3 8139   1.125   1.190   3.371  0.2409  0.0012  0.7155
 2035SOL    MW4 8140   1.077   1.252   3.410  0.0439  0.1047  0.3111
 2036SOL     OW 8141   1.775   1.854   3.243 -0.2587  0.1240  0.1593
 2036SOL    HW2 8142   1.845   1.918   3.257 -0.0314  0.1898 -1.1968
 2036SOL    HW3 8143   1.774   1.840   3.148 -1.1891 -0.8892  0.3062
 2036SOL    MW4 8144   1.784   1.860   3.232 -0.3515 -0.0010 -0.0003
 2037SOL     OW 8145   1.990   2.027   3.299  0.2437 -0.0843 -1.0235
 2037SOL    HW2 8146   2.084   2.008   3.294  0.3983  0.1168  0.7797
 2037SOL    HW3 8147   1.968   2.015   3.391 -1.3220  0.7557 -1.2661
 2037SOL    MW4 8148   1.999   2.023   3.310  0.0575  0.0530 -0.8176
 2038SOL     OW 8149   2.208   0.891   4.211 -0.5583 -0.6545  0.4962
 2038SOL    HW2 8150   2.245   0.955   4.150 -2.5029 -1.6179 -1.7900
 2038SOL    HW3 8151   2.273   0.884   4.280  0.8481  1.9173 -0.4779
 2038SOL    MW4 8152   2.222   0.899   4.212 -0.6293 -0.4423  0.0660
 2039SOL     OW 8153   3.398   0.726   3.213  0.3421 -0.2577 -0.2179
 2039SOL    HW2 8154   3.475   0.777   3.237  0.7681 -1.2695  0.6009
 2039SOL    HW3 8155   3.324   0.775   3.250  0.8057 -0.5792  1.1876
 2039SOL    MW4 8156   3.398   0.739   3.221  0.4595 -0.4336  0.0756
 2040SOL     OW 8157   2.041   2.305   3.238 -0.0006 -0.2930 -0.3455
 2040SOL    HW2 8158   2.040   2.294   3.143  1.0299 -0.2449 -0.3674
 2040SOL    HW3 8159   2.023   2.217   3.272  0.5809 -0.5085 -0.5823
 2040SOL    MW4 8160   2.039   2.292   3.230  0.2121 -0.3151 -0.3796
 2041SOL     OW 8161   2.024   2.872   3.327  0.1848  0.2931 -0.1424
 2041SOL    HW2 8162   2.108   2.836   3.297 -0.2211 -1.6817  0.9818
 2041SOL    HW3 8163   2.039   2.894   3.419 -0.5351 -0.1002  0.0746
 2041SOL    MW4 8164   2.037   2.870   3.336  0.0362 -0.0193  0.0346
 2042SOL     OW 8165   2.013   3.146   3.242 -0.0952  0.3262  0.3523
 2042SOL    HW2 8166   2.019   3.053   3.266  0.6658  0.4617  0.7064
 2042SOL    HW3 8167   2.093   3.185   3.278  0.0714  0.9296 -0.6652
 2042SOL    MW4 8168   2.025   3.139   3.250  0.0272  0.4237  0.2648
 2043SOL     OW 8169   1.506   3.938   3.882 -0.0457  0.3277  0.1306
 2043SOL    HW2 8170   1.601   3.949   3.891 -0.1074  1.4580 -0.5695
 2043SOL    HW3 8171   1.485   3.866   3.942  0.9897  1.2816  1.6806
 2043SOL    MW4 8172   1.516   3.930   3.891  0.0828  0.6027  0.2428
 2044SOL     OW 8173   1.782   3.255   3.337  0.3068 -0.0904  0.2114
 2044SOL    HW2 8174   1.862   3.214   3.305  0.4064  0.1735  0.1181
 2044SOL    HW3 8175   1.779   3.234   3.430  1.3197  1.2416  0.5620
 2044SOL    MW4 8176   1.792   3.247   3.345  0.4536  0.1202  0.2454
 2045SOL     OW 8177   1.763   3.515   3.278 -0.2104  0.1824 -0.0547
 2045SOL    HW2 8178   1.765   3.423   3.304  1.4812 -0.2216 -1.4908
 2045SOL    HW3 8179   1.765   3.512   3.182  0.2603  1.7228 -0.1000
 2045SOL    MW4 8180   1.764   3.502   3.269  0.0749  0.3323 -0.2502
 2046SOL     OW 8181   2.234   3.497   3.247 -0.0340 -0.2668  0.5020
 2046SOL    HW2 8182   2.232   3.484   3.152  0.1075 -1.0255  0.5975
 2046SOL    HW3 8183   2.242   3.409   3.283  1.7222  0.1524  1.1639
 2046SOL    MW4 8184   2.234   3.484   3.239  0.2163 -0.3116  0.6020
 2047SOL     OW 8185   3.969   1.824   3.716  0.5910 -0.2464 -0.0631
 2047SOL    HW2 8186   4.030   1.763   3.675  0.6556 -0.4205  0.2988
 2047SOL    HW3 8187   4.002   1.835   3.805 -0.9782 -1.7911  0.7345
 2047SOL    MW4 8188   3.981   1.818   3.722  0.3924 -0.4732  0.0899
 2048SOL     OW 8189   2.477   3.881   3.226 -0.6463  0.0026  0.1769
 2048SOL    HW2 8190   2.478   3.793   3.264 -1.0082 -1.6640 -3.4352
 2048SOL    HW3 8191   2.398   3.922   3.262 -0.3895 -1.0758  2.0321
 2048SOL    MW4 8192   2.467   3.875   3.236 -0.6602 -0.3595 -0.0549
 2049SOL     OW 8193   1.754   4.233   3.224  0.1404 -0.1047 -0.1240
 2049SOL    HW2 8194   1.669   4.271   3.242  0.4083  0.1455  0.6208
 2049SOL    HW3 8195   1.743   4.187   3.141 -1.0701 -1.1332  0.5951
 2049SOL    MW4 8196   1.742   4.232   3.216  0.0160 -0.2074  0.0691
 2050SOL     OW 8197   1.131   2.750   4.077 -0.4012 -0.2694  0.0106
 2050SOL    HW2 8198   1.072   2.734   4.150  0.9875  0.5730  1.3481
 2050SOL    HW3 8199   1.197   2.681   4.084 -0.0637  0.0272 -0.2473
 2050SOL    MW4 8200   1.132   2.739   4.087 -0.1734 -0.1191  0.1531
 2051SOL     OW 8201   0.861   4.420   4.248 -0.2074 -0.2198  0.1233
 2051SOL    HW2 8202   0.829   4.340   4.291  1.3562 -1.9680 -1.8597
 2051SOL    HW3 8203   0.788   4.448   4.193 -0.4337 -0.8563  0.0890
 2051SOL    MW4 8204   0.847   4.413   4.246 -0.0309 -0.5345 -0.1428
 2052SOL     OW 8205   2.232   0.840   3.358  0.3986  0.0058  0.2879
 2052SOL    HW2 8206   2.307   0.804   3.309 -0.1830 -1.8404  0.7211
 2052SOL    HW3 8207   2.160   0.780   3.339 -1.0349  1.8362 -0.2151
 2052SOL    MW4 8208   2.233   0.827   3.349  0.1328  0.0037  0.2787
 2053SOL     OW 8209   1.418   3.871   4.306  0.3511  0.5753  0.1070
 2053SOL    HW2 8210   1.466   3.870   4.389  1.1594 -0.0303 -0.3606
 2053SOL    HW3 8211   1.461   3.940   4.254  0.2673  0.5132 -0.0450
 2053SOL    MW4 8212   1.430   3.880   4.310  0.4467  0.4872  0.0253
 2054SOL     OW 8213   1.927   0.448   3.259  0.3762 -0.2724 -0.2797
 2054SOL    HW2 8214   1.884   0.389   3.322  1.6493 -2.0239 -1.0116
 2054SOL    HW3 8215   2.013   0.410   3.246  1.6463  2.3979  0.0301
 2054SOL    MW4 8216   1.932   0.435   3.266  0.7117 -0.1512 -0.3354
 2055SOL     OW 8217   2.374   2.951   3.709 -0.5848  0.4543  0.2135
 2055SOL    HW2 8218   2.463   2.937   3.676 -0.4328 -0.2609  0.9230
 2055SOL    HW3 8219   2.384   2.957   3.804 -1.3588 -0.1088  0.3317
 2055SOL    MW4 8220   2.387   2.950   3.717 -0.6668  0.2857  0.3227
 2056SOL     OW 8221   2.024   1.247   3.354  0.2690 -0.2664  0.0767
 2056SOL    HW2 8222   1.974   1.245   3.436 -2.1704 -0.9149 -1.3908
 2056SOL    HW3 8223   2.029   1.340   3.331  0.3314 -0.1467  0.5600
 2056SOL    MW4 8224   2.018   1.259   3.362 -0.0446 -0.3362 -0.0532
 2057SOL     OW 8225   3.579   2.430   3.341  0.0724  0.3535 -0.0000
 2057SOL    HW2 8226   3.581   2.418   3.436  0.3938  0.1014 -0.0387
 2057SOL    HW3 8227   3.662   2.393   3.310 -0.6319 -0.8374 -0.5220
 2057SOL    MW4 8228   3.590   2.423   3.349  0.0219  0.1631 -0.0740
 2058SOL     OW 8229   2.265   1.669   3.343 -0.1924 -0.2431  0.0890
 2058SOL    HW2 8230   2.291   1.665   3.435  1.0612  0.0882 -0.2366
 2058SOL    HW3 8231   2.339   1.629   3.296 -0.7075 -0.1650 -0.7888
 2058SOL    MW4 8232   2.278   1.663   3.349 -0.0949 -0.1891 -0.0698
 2059SOL     OW 8233   2.364   1.693   3.601 -0.1993  0.3823 -0.1258
 2059SOL    HW2 8234   2.305   1.716   3.672 -1.1277  0.1375 -0.8087
 2059SOL    HW3 8235   2.411   1.616   3.634 -0.7755  0.1389  0.1440
 2059SOL    MW4 8236   2.362   1.686   3.615 -0.3978  0.3179 -0.1803
 2060SOL     OW 8237   2.246   1.942   3.283 -0.2750  0.5342  0.0412
 2060SOL    HW2 8238   2.240   1.851   3.311  0.0112  0.7946  0.9326
 2060SOL    HW3 8239   2.251   1.937   3.187 -0.0789 -0.3923  0.0998
 2060SOL    MW4 8240   2.246   1.929   3.274 -0.2113  0.4463  0.1665
 2061SOL     OW 8241   2.490   2.302   3.280 -0.3080 -0.3499 -0.0936
 2061SOL    HW2 8242   2.556   2.348   3.331 -0.2179  0.2672 -0.7686
 2061SOL    HW3 8243   2.477   2.219   3.327  0.0555  0.0467  0.7094
 2061SOL    MW4 8244   2.497   2.297   3.293 -0.2482 -0.2161 -0.0767
 2062SOL     OW 8245   2.273   2.454   3.280  0.0566 -0.0784  0.1162
 2062SOL    HW2 8246   2.200   2.396   3.261 -0.8696  0.9258  0.5590
 2062SOL    HW3 8247   2.351   2.400   3.266 -0.7447 -0.9581 -1.0244
 2062SOL    MW4 8248   2.274   2.439   3.276 -0.1713 -0.0619  0.0241
 2063SOL     OW 8249   2.817   2.000   3.652 -0.0133  0.1215 -0.1033
 2063SOL    HW2 8250   2.725   1.981   3.634 -0.0445  1.2778 -1.2694
 2063SOL    HW3 8251   2.816   2.074   3.712  0.1424  1.3239 -1.5419
 2063SOL    MW4 8252   2.805   2.007   3.657  0.0031  0.4327 -0.4469
 2064SOL     OW 8253   2.260   2.718   3.234  0.3254 -0.2063 -0.1492
 2064SOL    HW2 8254   2.263   2.622   3.233  1.5856 -0.1766 -0.4636
 2064SOL    HW3 8255   2.246   2.743   3.143  0.0501 -0.0881 -0.0754
 2064SOL    MW4 8256   2.259   2.709   3.222  0.4554 -0.1868 -0.1809
 2065SOL     OW 8257   2.196   1.139   3.782  0.3247 -0.0999 -0.0523
 2065SOL    HW2 8258   2.141   1.074   3.739  0.6591 -0.1280 -0.4459
 2065SOL    HW3 8259   2.134   1.207   3.811 -0.0291 -0.6189  0.4211
 2065SOL    MW4 8260   2.180   1.140   3.780  0.3222 -0.1721 -0.0418
 2066SOL     OW 8261   1.788   0.525   3.892 -0.3535 -0.5405 -0.4882
 2066SOL    HW2 8262   1.749   0.589   3.951 -0.9503  0.0941 -1.5447
 2066SOL    HW3 8263   1.829   0.461   3.949 -0.7201  0.1860  0.6029
 2066SOL    MW4 8264   1.788   0.525   3.907 -0.4806 -0.3609 -0.4837
 2067SOL     OW 8265   3.425   3.589   3.838  0.1020  0.2527  0.4474
 2067SOL    HW2 8266   3.444   3.635   3.756 -1.0061  0.4548  0.2971
 2067SOL    HW3 8267   3.433   3.657   3.905  0.4187  0.2187  0.4465
 2067SOL    MW4 8268   3.429   3.604   3.836 -0.0024  0.2749  0.4275
 2068SOL     OW 8269   1.213   0.529   4.327  0.2183  0.2566 -0.8058
 2068SOL    HW2 8270   1.281   0.596   4.321  0.4080  0.1295 -0.0523
 2068SOL    HW3 8271   1.261   0.446   4.320  0.2182  0.1509  0.3471
 2068SOL    MW4 8272   1.228   0.527   4.325  0.2433  0.2259 -0.5543
 2069SOL     OW 8273   1.119   2.001   3.403 -0.5294 -0.3421  0.3600
 2069SOL    HW2 8274   1.046   1.975   3.347 -0.6228 -0.9651  0.7760
 2069SOL    HW3 8275   1.161   2.073   3.355  0.8608 -2.4452 -1.6994
 2069SOL    MW4 8276   1.115   2.007   3.389 -0.3583 -0.7018  0.1432
 2070SOL     OW 8277   2.917   4.277   3.606 -0.3934 -0.1960 -0.3920
 2070SOL    HW2 8278   2.953   4.299   3.520 -0.8049  0.4221 -0.4081
 2070SOL    HW3 8279   2.989   4.298   3.667 -0.9623  1.7468 -0.3560
 2070SOL    MW4 8280   2.931   4.283   3.603 -0.5227  0.1419 -0.3894
 2071SOL     OW 8281   3.637   3.029   3.596 -0.0982 -0.1774  0.7901
 2071SOL    HW2 8282   3.654   3.095   3.663 -1.1850  0.2123  0.6989
 2071SOL    HW3 8283   3.707   2.964   3.607  1.1999  1.1825  0.6083
 2071SOL    MW4 8284   3.648   3.029   3.606 -0.0703  0.0534  0.7541
 2072SOL     OW 8285   2.237   3.989   3.357  0.2249 -0.3564  0.3617
 2072SOL    HW2 8286   2.243   4.079   3.325 -0.5559  0.1536  1.6291
 2072SOL    HW3 8287   2.152   3.959   3.324  0.9765 -1.0218 -1.0169
 2072SOL    MW4 8288   2.226   3.997   3.348  0.2211 -0.3769  0.3470
 2073SOL     OW 8289   1.939   0.366   4.061  0.4115  0.2830  0.0514
 2073SOL    HW2 8290   2.032   0.344   4.068  0.5630  1.0286  0.3781
 2073SOL    HW3 8291   1.910   0.379   4.151 -0.3049 -1.1202  0.0386
 2073SOL    MW4 8292   1.947   0.365   4.074  0.3370  0.1963  0.0928
 2074SOL     OW 8293   3.606   0.373   3.272 -0.2608 -0.3202 -0.0775
 2074SOL    HW2 8294   3.518   0.396   3.302 -0.5808 -0.9097 -0.5602
 2074SOL    HW3 8295   3.621   0.285   3.307 -0.3654 -0.7326 -1.0462
 2074SOL    MW4 8296   3.596   0.364   3.281 -0.3168 -0.4524 -0.2690
 2075SOL     OW 8297   3.564   4.082   3.325  0.4055  0.1598  0.6813
 2075SOL    HW2 8298   3.544   4.148   3.258  0.3063  0.3343  0.8847
 2075SOL    HW3 8299   3.537   4.122   3.407  0.2046 -0.1944  0.7885
 2075SOL    MW4 8300   3.558   4.096   3.327  0.3659  0.1361  0.7223
 2076SOL     OW 8301   2.706   0.349   3.265  0.5051 -0.1789 -0.1680
 2076SOL    HW2 8302   2.764   0.413   3.306 -0.5450  1.6290 -1.4413
 2076SOL    HW3 8303   2.704   0.373   3.173 -0.6423 -1.4657 -0.5018
 2076SOL    MW4 8304   2.713   0.361   3.259  0.2152 -0.1101 -0.3801
 2077SOL     OW 8305   1.412   1.689   3.941 -0.1247 -0.3023  0.4050
 2077SOL    HW2 8306   1.329   1.683   3.894  0.0420 -0.9164  0.1922
 2077SOL    HW3 8307   1.408   1.622   4.008  0.3469 -0.5716  0.1663
 2077SOL    MW4 8308   1.401   1.680   3.944 -0.0405 -0.4188  0.3454
 2078SOL     OW 8309   2.675   0.847   3.320  0.1110 -0.1729 -0.1161
 2078SOL    HW2 8310   2.688   0.850   3.415  0.7131 -0.6327 -0.1780
 2078SOL    HW3 8311   2.677   0.939   3.293 -1.7089  0.0757  0.5174
 2078SOL    MW4 8312   2.677   0.859   3.329 -0.0496 -0.2007 -0.0407
 2079SOL     OW 8313   4.357   1.579   4.120  0.0353 -0.1904 -0.6628
 2079SOL    HW2 8314   4.446   1.547   4.137 -0.1493 -0.8586 -0.9458
 2079SOL    HW3 8315   4.302   1.534   4.184 -0.2254 -0.4322 -1.0538
 2079SOL    MW4 8316   4.362   1.569   4.131 -0.0235 -0.3105 -0.7517
 2080SOL     OW 8317   1.104   1.389   3.869 -0.0173  0.7098  0.0226
 2080SOL    HW2 8318   1.134   1.374   3.959 -0.9488  0.2087  0.2515
 2080SOL    HW3 8319   1.157   1.329   3.816 -0.0281  0.4348  0.3268
 2080SOL    MW4 8320   1.115   1.379   3.874 -0.1416  0.6074  0.0929
 2081SOL     OW 8321   0.106   3.462   4.337 -0.2713 -0.1645 -0.0376
 2081SOL    HW2 8322   0.037   3.427   4.394  0.3025  0.6104  1.1507
 2081SOL    HW3 8323   0.069   3.455   4.248 -1.2961 -1.0942  0.4395
 2081SOL    MW4 8324   0.092   3.456   4.333 -0.3308 -0.1849  0.1821
 2082SOL     OW 8325   2.717   1.903   3.260  0.2083 -0.1239 -0.0723
 2082SOL    HW2 8326   2.721   1.907   3.165  0.0235 -1.2809 -0.1268
 2082SOL    HW3 8327   2.642   1.958   3.283  0.8983  1.0233 -0.5227
 2082SOL    MW4 8328   2.708   1.911   3.251  0.2749 -0.1252 -0.1389
 2083SOL     OW 8329   2.680   1.917   2.972 -0.1697  0.2228  0.3423
 2083SOL    HW2 8330   2.759   1.969   2.960 -0.5319  0.7543  0.2487
 2083SOL    HW3 8331   2.702   1.831   2.935 -0.3090  0.9735 -1.5491
 2083SOL    MW4 8332   2.693   1.912   2.965 -0.2358  0.3920  0.0804
 2084SOL     OW 8333   2.697   3.602   4.439  0.3874  0.3005 -0.1445
 2084SOL    HW2 8334   2.722   3.683   4.396 -0.4240  1.6145  1.7945
 2084SOL    HW3 8335   2.601   3.601   4.435  0.4018 -0.9070 -0.7202
 2084SOL    MW4 8336   2.688   3.612   4.433  0.2823  0.3146  0.0354
 2085SOL     OW 8337   2.893   2.290   3.294 -0.1651  0.0447 -0.5179
 2085SOL    HW2 8338   2.883   2.278   3.200 -2.1861 -0.5234 -0.2556
 2085SOL    HW3 8339   2.886   2.202   3.331 -1.2009  0.4611  0.3031
 2085SOL    MW4 8340   2.891   2.277   3.287 -0.5684  0.0247 -0.3750
 2086SOL     OW 8341   2.758   0.115   3.421  0.0132  0.5152 -0.0422
 2086SOL    HW2 8342   2.668   0.097   3.447 -0.6225  2.2421 -1.0021
 2086SOL    HW3 8343   2.752   0.185   3.357  2.0158  0.3713 -0.4369
 2086SOL    MW4 8344   2.745   0.122   3.416  0.1936  0.7240 -0.2209
 2087SOL     OW 8345   2.922   2.017   3.379  0.2842 -0.1947  0.0483
 2087SOL    HW2 8346   2.841   1.989   3.336 -0.5518  1.0136  0.8225
 2087SOL    HW3 8347   2.903   2.011   3.473  0.8677  0.7188  0.2308
 2087SOL    MW4 8348   2.909   2.012   3.386  0.2509  0.0852  0.1746
 2088SOL     OW 8349   2.695   2.652   3.208  0.2024  0.1916  0.3892
 2088SOL    HW2 8350   2.774   2.688   3.249 -0.2679  2.0219 -0.2634
 2088SOL    HW3 8351   2.627   2.716   3.228 -0.8822 -0.8181 -0.0110
 2088SOL    MW4 8352   2.697   2.665   3.216 -0.0028  0.2998  0.2503
 2089SOL     OW 8353   2.187   3.593   4.565  0.4537 -0.5187 -0.7804
 2089SOL    HW2 8354   2.216   3.601   4.656 -0.1599 -0.8321 -0.5578
 2089SOL    HW3 8355   2.118   3.658   4.556 -1.8217 -2.7663 -0.0647
 2089SOL    MW4 8356   2.182   3.602   4.576  0.0725 -0.8566 -0.6566
 2090SOL     OW 8357   2.805   4.093   3.797 -0.1269  0.2077  0.5270
 2090SOL    HW2 8358   2.817   4.155   3.725 -0.2197  1.1162  1.2828
 2090SOL    HW3 8359   2.734   4.131   3.850  0.1222 -0.3159  1.2423
 2090SOL    MW4 8360   2.797   4.106   3.795 -0.1063  0.2585  0.7211
 2091SOL     OW 8361   0.841   0.109   3.993  0.0278 -0.1981 -0.0651
 2091SOL    HW2 8362   0.876   0.171   3.929 -0.4526 -0.7652 -0.8875
 2091SOL    HW3 8363   0.890   0.127   4.074 -1.4643  2.5932  0.2715
 2091SOL    MW4 8364   0.852   0.119   3.995 -0.2325  0.0953 -0.1292
 2092SOL     OW 8365   0.420   4.513   4.206 -0.2399  0.3052 -0.3773
 2092SOL    HW2 8366   0.502   4.520   4.157  0.7899 -1.3127  1.0493
 2092SOL    HW3 8367   0.385   4.427   4.182 -0.6452  0.2746  0.3044
 2092SOL    MW4 8368   0.426   4.502   4.197 -0.1575  0.0877 -0.0992
 2093SOL     OW 8369   2.267   3.236   3.330 -0.2555 -0.2510  0.3623
 2093SOL    HW2 8370   2.299   3.226   3.420  0.2399  0.0447  0.2194
 2093SOL    HW3 8371   2.329   3.186   3.277 -1.1640 -1.3265  0.3012
 2093SOL    MW4 8372   2.280   3.228   3.335 -0.3100 -0.3539  0.3354
 2094SOL     OW 8373   0.164   2.068   4.233  0.0618 -0.1015  0.1742
 2094SOL    HW2 8374   0.140   2.152   4.194  0.3853  0.0183  0.2333
 2094SOL    HW3 8375   0.260   2.066   4.230  0.0793 -0.2230  0.6769
 2094SOL    MW4 8376   0.174   2.078   4.227  0.1067 -0.1017  0.2483
 2095SOL     OW 8377   3.260   1.161   3.725 -0.1063 -0.5757  0.1501
 2095SOL    HW2 8378   3.167   1.144   3.739 -0.3105  1.4344  1.3962
 2095SOL    HW3 8379   3.301   1.136   3.808  0.3087 -0.2941  0.0301
 2095SOL    MW4 8380   3.253   1.155   3.738 -0.0785 -0.2733  0.2987
 2096SOL     OW 8381   2.231   4.276   3.259  0.2570  0.6380  0.1454
 2096SOL    HW2 8382   2.144   4.315   3.262  0.3432  0.8970 -0.6366
 2096SOL    HW3 8383   2.248   4.260   3.166  0.2385 -1.2250  0.4328
 2096SOL    MW4 8384   2.222   4.279   3.248  0.2659  0.4263  0.0802
 2097SOL     OW 8385   3.560   4.323   3.158 -0.8657 -0.2020 -0.0038
 2097SOL    HW2 8386   3.479   4.370   3.179 -1.0364  0.0483 -1.2068
 2097SOL    HW3 8387   3.564   4.324   3.063 -0.5041 -2.0151 -0.0199
 2097SOL    MW4 8388   3.550   4.330   3.149 -0.8405 -0.4082 -0.1647
 2098SOL     OW 8389   1.160   3.856   3.977 -0.3497  0.4674  0.1220
 2098SOL    HW2 8390   1.241   3.819   4.012 -0.0962  1.2473  0.3794
 2098SOL    HW3 8391   1.163   3.948   4.003 -0.9492  0.6771 -0.5456
 2098SOL    MW4 8392   1.171   3.863   3.985 -0.3954  0.5980  0.0679
 2099SOL     OW 8393   3.795   3.914   4.524  0.5020 -0.2160 -0.1441
 2099SOL    HW2 8394   3.779   3.841   4.465 -1.9426 -0.1941  0.4139
 2099SOL    HW3 8395   3.719   3.914   4.583  0.5009  2.7112 -0.0820
 2099SOL    MW4 8396   3.783   3.905   4.524  0.1793  0.1731 -0.0623
 2100SOL     OW 8397   2.719   3.936   3.595 -0.1983 -0.3994 -0.9340
 2100SOL    HW2 8398   2.641   3.895   3.631  0.4454 -0.4452  0.4435
 2100SOL    HW3 8399   2.736   4.010   3.653  1.0472 -0.6708 -0.9309
 2100SOL    MW4 8400   2.711   3.940   3.607  0.0510 -0.4412 -0.7518
 2101SOL     OW 8401   1.388   2.428   3.614  0.1378  0.4988 -0.5659
 2101SOL    HW2 8402   1.387   2.436   3.518 -0.6271 -1.8169 -0.7837
 2101SOL    HW3 8403   1.297   2.408   3.637  0.6830 -0.8482  0.4427
 2101SOL    MW4 8404   1.376   2.426   3.604  0.1088  0.0155 -0.4616
 2102SOL     OW 8405   3.822   0.798   3.234  0.0106  0.3916  0.1040
 2102SOL    HW2 8406   3.901   0.836   3.273  0.2332 -0.0688  0.1125
 2102SOL    HW3 8407   3.807   0.718   3.284 -0.6951  0.6852  0.3611
 2102SOL    MW4 8408   3.831   0.792   3.246 -0.0531  0.3696  0.1390
 2103SOL     OW 8409   2.918   0.745   3.233 -0.0987 -0.2379 -0.7054
 2103SOL    HW2 8410   2.849   0.801   3.269 -0.5875 -1.2912  0.0263
 2103SOL    HW3 8411   2.999   0.792   3.252 -0.5002  0.2454 -0.1397
 2103SOL    MW4 8412   2.919   0.759   3.240 -0.2162 -0.3131 -0.5342
 2104SOL     OW 8413   3.148   1.140   3.249  0.4149  0.2346  0.8943
 2104SOL    HW2 8414   3.142   1.135   3.153  0.1726 -1.2040  0.9751
 2104SOL    HW3 8415   3.211   1.210   3.266 -0.2028  1.1094 -0.3000
 2104SOL    MW4 8416   3.155   1.149   3.238  0.3014  0.1602  0.7474
 2105SOL     OW 8417   2.682   3.444   4.207  0.1940 -0.1339  0.2088
 2105SOL    HW2 8418   2.591   3.447   4.178  0.5748  1.1268 -0.8857
 2105SOL    HW3 8419   2.685   3.504   4.281  0.4510  0.9616 -0.6815
 2105SOL    MW4 8420   2.670   3.452   4.213  0.2781  0.1770 -0.0531
 2106SOL     OW 8421   1.521   1.937   3.971  0.2094 -0.2371 -0.4235
 2106SOL    HW2 8422   1.458   1.985   4.024  0.2809  0.6671 -1.1418
 2106SOL    HW3 8423   1.489   1.846   3.973  0.5914 -0.3498  1.6846
 2106SOL    MW4 8424   1.508   1.931   3.978  0.2692 -0.1327 -0.2402
 2107SOL     OW 8425   3.161   1.934   3.240  0.3823  0.2802 -0.2386
 2107SOL    HW2 8426   3.156   1.941   3.145 -0.3997 -2.1101 -0.3977
 2107SOL    HW3 8427   3.074   1.959   3.271  0.3353  0.0803 -0.2109
 2107SOL    MW4 8428   3.149   1.939   3.231  0.2729 -0.0616 -0.2559
 2108SOL     OW 8429   2.947   2.605   4.026 -0.5818  0.3542  0.7739
 2108SOL    HW2 8430   2.939   2.532   3.965  2.6308  0.2801  0.3164
 2108SOL    HW3 8431   2.988   2.674   3.975  0.9945  0.7222  2.4787
 2108SOL    MW4 8432   2.952   2.604   4.011  0.0500  0.3930  0.9384
 2109SOL     OW 8433   3.739   1.778   4.131 -0.6067 -0.7963  0.2091
 2109SOL    HW2 8434   3.685   1.844   4.087 -0.5922 -0.6751  0.3719
 2109SOL    HW3 8435   3.828   1.794   4.099 -0.2449  0.6213  1.8177
 2109SOL    MW4 8436   3.744   1.789   4.121 -0.5571 -0.5933  0.4428
 2110SOL     OW 8437   3.358   2.298   3.282 -0.3041 -0.0775  0.3316
 2110SOL    HW2 8438   3.285   2.357   3.299  0.3825  1.1792 -0.9898
 2110SOL    HW3 8439   3.436   2.348   3.306  0.1696 -1.2309  1.2728
 2110SOL    MW4 8440   3.359   2.312   3.288 -0.1510 -0.0638  0.2814
 2111SOL     OW 8441   3.112   2.442   3.356 -0.1279  0.4231  0.1132
 2111SOL    HW2 8442   3.092   2.525   3.313  0.7285  0.0292 -1.0442
 2111SOL    HW3 8443   3.036   2.386   3.337 -0.1805  0.5601 -0.0801
 2111SOL    MW4 8444   3.099   2.446   3.348 -0.0218  0.3892 -0.0650
 2112SOL     OW 8445   2.998   0.179   3.828 -0.4328  0.3461  0.6129
 2112SOL    HW2 8446   2.942   0.211   3.757 -0.2580 -0.5953  0.0610
 2112SOL    HW3 8447   3.034   0.259   3.867  1.6362  0.7824 -2.0715
 2112SOL    MW4 8448   2.995   0.194   3.824 -0.1367  0.2794  0.1859
 2113SOL     OW 8449   3.354   3.106   3.274  0.3151  0.3771 -0.4584
 2113SOL    HW2 8450   3.439   3.146   3.295  0.2129  0.8704 -0.9703
 2113SOL    HW3 8451   3.291   3.158   3.324  0.4089 -0.7124  0.8428
 2113SOL    MW4 8452   3.357   3.118   3.284  0.3140  0.2984 -0.3543
 2114SOL     OW 8453   3.776   0.513   3.664 -0.1678  0.1527  0.0056
 2114SOL    HW2 8454   3.852   0.461   3.691  0.6779  1.2833 -0.1095
 2114SOL    HW3 8455   3.775   0.506   3.569 -0.1170  0.2389 -0.0019
 2114SOL    MW4 8456   3.786   0.505   3.655 -0.0495  0.3132 -0.0106
 2115SOL     OW 8457   2.496   3.094   3.186  0.0333  0.1194  0.8786
 2115SOL    HW2 8458   2.501   3.089   3.090  0.1605 -0.0699  0.8957
 2115SOL    HW3 8459   2.511   3.004   3.215  0.2862  0.2319  1.0914
 2115SOL    MW4 8460   2.498   3.082   3.177  0.0834  0.1092  0.9090
 2116SOL     OW 8461   3.918   2.815   3.982  0.1001  0.2411 -0.1014
 2116SOL    HW2 8462   3.939   2.722   3.990 -0.2055  0.3074  1.5782
 2116SOL    HW3 8463   3.823   2.820   3.994 -0.1185  0.6059 -1.8048
 2116SOL    MW4 8464   3.908   2.803   3.985  0.0309  0.2980 -0.1045
 2117SOL     OW 8465   4.485   2.862   4.438 -0.1801  0.1470  0.0011
 2117SOL    HW2 8466   4.543   2.872   4.512 -0.7507  1.4147  0.2860
 2117SOL    HW3 8467   4.509   2.777   4.400 -0.6982 -1.0966  2.3411
 2117SOL    MW4 8468   4.496   2.852   4.442 -0.3237  0.1502  0.3474
 2118SOL     OW 8469   3.133   3.543   3.206  0.5668  0.3183 -0.3881
 2118SOL    HW2 8470   3.147   3.449   3.221 -1.8901  0.1653  1.1763
 2118SOL    HW3 8471   3.122   3.550   3.112 -1.7648 -1.3796 -0.2965
 2118SOL    MW4 8472   3.134   3.531   3.196 -0.0650  0.0741 -0.1696
 2119SOL     OW 8473   0.491   0.043   3.351  0.2612  0.0914  0.3535
 2119SOL    HW2 8474   0.567  -0.016   3.351 -0.2353 -0.5660 -0.3498
 2119SOL    HW3 8475   0.464   0.046   3.443  0.6149 -0.3629  0.4782
 2119SOL    MW4 8476   0.498   0.035   3.363  0.2423 -0.0553  0.2772
 2120SOL     OW 8477   0.643   4.107   3.682 -0.0177  0.2423 -0.2625
 2120SOL    HW2 8478   0.598   4.106   3.598  2.0312  0.3747 -1.3670
 2120SOL    HW3 8479   0.727   4.065   3.665 -0.0028 -0.7019  1.9636
 2120SOL    MW4 8480   0.648   4.101   3.669  0.2546  0.1352 -0.1145
 2121SOL     OW 8481   3.115   0.391   3.238  0.1163 -0.1015 -0.7795
 2121SOL    HW2 8482   3.033   0.433   3.266  0.8645  1.1449 -0.4353
 2121SOL    HW3 8483   3.107   0.386   3.143 -0.6864 -0.6729 -0.6895
 2121SOL    MW4 8484   3.103   0.396   3.229  0.1091 -0.0124 -0.7222
 2122SOL     OW 8485   3.495   4.553   3.448  0.1271  0.5541  0.2354
 2122SOL    HW2 8486   3.546   4.624   3.410  0.0488  0.3174 -0.3102
 2122SOL    HW3 8487   3.443   4.595   3.516  1.3494  0.7269  1.0812
 2122SOL    MW4 8488   3.495   4.568   3.452  0.2781  0.5457  0.2750
 2123SOL     OW 8489   2.443   3.642   3.368  0.0418  0.2589 -0.2446
 2123SOL    HW2 8490   2.462   3.625   3.460  1.4913 -0.1815 -0.6060
 2123SOL    HW3 8491   2.358   3.601   3.352 -1.3527  2.4049  1.4788
 2123SOL    MW4 8492   2.434   3.634   3.378  0.0491  0.4840 -0.0649
 2124SOL     OW 8493   3.664   4.220   3.992 -0.2497 -0.1552 -0.3824
 2124SOL    HW2 8494   3.652   4.307   3.952  0.0567  0.4217  0.7574
 2124SOL    HW3 8495   3.575   4.187   4.004 -0.4155  0.5225  0.2946
 2124SOL    MW4 8496   3.651   4.227   3.988 -0.2311  0.0103 -0.1427
 2125SOL     OW 8497   3.598   0.904   3.325  0.1681  0.0741 -0.1510
 2125SOL    HW2 8498   3.682   0.869   3.295 -0.2140 -0.8837 -0.1164
 2125SOL    HW3 8499   3.610   0.918   3.419 -0.8644 -3.5704  0.6116
 2125SOL    MW4 8500   3.611   0.901   3.333 -0.0185 -0.5331 -0.0458
 2126SOL     OW 8501   3.803   0.763   2.939  0.4499 -0.0313 -0.1691
 2126SOL    HW2 8502   3.883   0.795   2.898 -0.0846  1.5190 -0.0328
 2126SOL    HW3 8503   3.815   0.778   3.032  0.4228 -0.7697 -0.0418
 2126SOL    MW4 8504   3.815   0.769   2.946  0.3758  0.0758 -0.1344
 2127SOL     OW 8505   3.062   1.182   4.590  0.5160  0.0260 -0.1557
 2127SOL    HW2 8506   3.137   1.240   4.593  0.7392 -0.1995 -1.4624
 2127SOL    HW3 8507   3.095   1.099   4.624  0.7897 -0.0080 -0.5085
 2127SOL    MW4 8508   3.076   1.179   4.595  0.5816 -0.0082 -0.3747
 2128SOL     OW 8509   3.612   1.148   3.200 -0.1922 -0.2930  0.0220
 2128SOL    HW2 8510   3.599   1.152   3.105  1.3617 -0.3920 -0.2037
 2128SOL    HW3 8511   3.609   1.055   3.220  0.6530 -0.3450 -0.0984
 2128SOL    MW4 8512   3.610   1.136   3.190  0.1243 -0.3129 -0.0237
 2129SOL     OW 8513   2.845   0.916   4.381 -0.0336  0.6405 -0.1658
 2129SOL    HW2 8514   2.876   0.953   4.299 -0.9377  0.0378 -0.7897
 2129SOL    HW3 8515   2.913   0.938   4.445  0.0747  2.2267 -0.7977
 2129SOL    MW4 8516   2.858   0.924   4.379 -0.1386  0.7703 -0.3315
 2130SOL     OW 8517   3.762   1.483   3.249 -0.3898  0.8562 -0.4653
 2130SOL    HW2 8518   3.832   1.543   3.271  0.5025  0.1942 -1.4463
 2130SOL    HW3 8519   3.784   1.402   3.295 -1.9949  1.4694  1.4888
 2130SOL    MW4 8520   3.774   1.480   3.258 -0.4839  0.8498 -0.3369
 2131SOL     OW 8521   0.101   2.298   3.612 -0.2709 -0.4438 -0.0631
 2131SOL    HW2 8522   0.104   2.235   3.684  1.7694 -1.6632 -1.1794
 2131SOL    HW3 8523   0.191   2.332   3.607 -0.6597  0.4297 -1.3321
 2131SOL    MW4 8524   0.114   2.294   3.621 -0.0530 -0.4894 -0.3778
 2132SOL     OW 8525   3.556   1.312   4.473 -0.1113  0.1659 -0.6924
 2132SOL    HW2 8526   3.497   1.250   4.430 -0.2882  1.1634 -1.9093
 2132SOL    HW3 8527   3.644   1.283   4.446  0.0328 -1.5275  1.3967
 2132SOL    MW4 8528   3.560   1.300   4.464 -0.1156  0.0741 -0.5773
 2133SOL     OW 8529   4.011   1.930   3.340 -0.2744  0.0850 -0.0718
 2133SOL    HW2 8530   4.052   1.913   3.255 -0.4361  1.6971 -0.4981
 2133SOL    HW3 8531   4.077   1.981   3.387 -0.7409  0.3999  0.2380
 2133SOL    MW4 8532   4.025   1.935   3.335 -0.3573  0.3392 -0.0872
 2134SOL     OW 8533   3.806   2.280   3.239 -0.5880  0.2840 -0.2500
 2134SOL    HW2 8534   3.891   2.310   3.272 -0.5868  0.7025 -0.6252
 2134SOL    HW3 8535   3.776   2.216   3.303 -0.3755  0.7634  0.3299
 2134SOL    MW4 8536   3.813   2.276   3.252 -0.5598  0.4025 -0.2230
 2135SOL     OW 8537   0.463   4.280   4.026  0.5605 -0.5043 -0.6487
 2135SOL    HW2 8538   0.545   4.284   3.977  1.0238  0.5584  0.2056
 2135SOL    HW3 8539   0.395   4.271   3.958  1.2486  0.2604 -1.4453
 2135SOL    MW4 8540   0.465   4.279   4.010  0.7124 -0.2632 -0.6411
 2136SOL     OW 8541   3.374   2.835   3.322  0.4908 -0.0291  0.2907
 2136SOL    HW2 8542   3.361   2.926   3.294  0.2846  0.3307  1.5143
 2136SOL    HW3 8543   3.463   2.814   3.295  0.3318  0.3358 -0.5330
 2136SOL    MW4 8544   3.384   2.844   3.314  0.4426  0.0665  0.3434
 2137SOL     OW 8545   0.310   0.987   4.241 -0.3302  0.5742  0.6373
 2137SOL    HW2 8546   0.251   1.041   4.190 -1.6907 -0.3685  1.1792
 2137SOL    HW3 8547   0.390   1.039   4.249 -0.7325  1.4446 -0.9377
 2137SOL    MW4 8548   0.313   1.001   4.236 -0.5628  0.5647  0.5010
 2138SOL     OW 8549   3.854   3.063   3.271  0.0213  0.0248  0.1339
 2138SOL    HW2 8550   3.853   3.078   3.176 -2.7619 -0.8750 -0.0140
 2138SOL    HW3 8551   3.937   3.102   3.300  0.9642  0.2300 -2.6666
 2138SOL    MW4 8552   3.865   3.070   3.262 -0.2215 -0.0669 -0.2551
 2139SOL     OW 8553   0.084   2.547   3.975  0.4303  0.1936  0.2323
 2139SOL    HW2 8554   0.094   2.632   4.018 -0.7390 -0.8110  2.6021
 2139SOL    HW3 8555   0.064   2.568   3.884  0.5410  2.4416  0.6967
 2139SOL    MW4 8556   0.083   2.561   3.969  0.2906  0.3577  0.6063
 2140SOL     OW 8557   3.554   3.455   3.286  0.3867 -0.2518  0.5451
 2140SOL    HW2 8558   3.565   3.365   3.317  0.1770  0.1775  1.9275
 2140SOL    HW3 8559   3.544   3.447   3.192  0.0897 -1.7002  0.6843
 2140SOL    MW4 8560   3.554   3.442   3.278  0.3198 -0.3862  0.7459
 2141SOL     OW 8561   4.280   3.563   3.451 -0.2763 -0.0549 -0.2480
 2141SOL    HW2 8562   4.301   3.647   3.410  1.5558 -0.9032 -1.0856
 2141SOL    HW3 8563   4.251   3.586   3.539  0.5396  1.4447 -0.3579
 2141SOL    MW4 8564   4.279   3.577   3.457  0.0731  0.0310 -0.3730
 2142SOL     OW 8565   4.127   1.633   3.603  0.1727 -0.1073 -0.2609
 2142SOL    HW2 8566   4.124   1.541   3.629  0.2921  0.1925  0.8197
 2142SOL    HW3 8567   4.220   1.648   3.582  0.2414 -0.1053  0.0404
 2142SOL    MW4 8568   4.139   1.623   3.603  0.1975 -0.0675 -0.0786
 2143SOL     OW 8569   3.342   3.660   3.337 -0.1366  0.0934 -0.0885
 2143SOL    HW2 8570   3.405   3.589   3.330  0.4847  0.7965 -2.2228
 2143SOL    HW3 8571   3.262   3.626   3.297 -0.5644 -0.1711  0.9682
 2143SOL    MW4 8572   3.339   3.646   3.331 -0.1111  0.1512 -0.2306
 2144SOL     OW 8573   3.042   0.492   3.914 -0.6752 -0.2387 -0.6659
 2144SOL    HW2 8574   2.958   0.501   3.959 -0.2957  1.5095 -0.2515
 2144SOL    HW3 8575   3.100   0.452   3.979 -0.9243 -0.5267 -0.6185
 2144SOL    MW4 8576   3.038   0.488   3.928 -0.6580 -0.0460 -0.6050
 2145SOL     OW 8577   4.060   0.119   3.392 -0.1296 -0.0957  0.2963
 2145SOL    HW2 8578   4.056   0.118   3.488 -1.4644 -0.9225  0.2339
 2145SOL    HW3 8579   4.119   0.047   3.369 -1.3858 -1.1794  0.4275
 2145SOL    MW4 8580   4.068   0.110   3.402 -0.4715 -0.3477  0.3054
 2146SOL     OW 8581   2.323   1.106   4.022  0.1638 -0.0170 -0.9455
 2146SOL    HW2 8582   2.324   1.198   4.049 -0.0234 -0.6234  1.2380
 2146SOL    HW3 8583   2.287   1.107   3.934 -1.2497  1.8704 -0.3732
 2146SOL    MW4 8584   2.319   1.118   4.014 -0.0474  0.1520 -0.5819
 2147SOL     OW 8585   3.168   4.630   3.766  0.0650  0.2486 -0.4045
 2147SOL    HW2 8586   3.222   4.612   3.843  0.3079  0.7541 -0.4570
 2147SOL    HW3 8587   3.108   4.699   3.794  0.4189  0.7146 -0.7898
 2147SOL    MW4 8588   3.167   4.636   3.780  0.1438  0.3768 -0.4622
 2148SOL     OW 8589   0.557   2.681   3.815 -0.1468  0.3593  0.1460
 2148SOL    HW2 8590   0.486   2.712   3.872  0.5562  0.9504  0.6957
 2148SOL    HW3 8591   0.586   2.758   3.768  0.2557  0.1541  0.0549
 2148SOL    MW4 8592   0.551   2.695   3.817 -0.0009  0.4102  0.2065
 2149SOL     OW 8593   0.901   3.261   3.671  0.5279 -0.2179  0.2859
 2149SOL    HW2 8594   0.974   3.210   3.705  0.4415 -0.5938 -0.0812
 2149SOL    HW3 8595   0.896   3.236   3.579 -0.1425 -0.2863  0.3414
 2149SOL    MW4 8596   0.910   3.251   3.663  0.4280 -0.2765  0.2448
 2150SOL     OW 8597   4.489   0.846   3.332 -0.7395 -0.5638  0.0758
 2150SOL    HW2 8598   4.412   0.800   3.298 -2.3283 -0.9724  3.8804
 2150SOL    HW3 8599   4.465   0.939   3.328 -0.4139 -0.5173 -0.9919
 2150SOL    MW4 8600   4.476   0.852   3.327 -0.9062 -0.6115  0.4369
 2151SOL     OW 8601   4.248   0.711   3.252  0.1770  0.7661 -0.2114
 2151SOL    HW2 8602   4.258   0.617   3.267 -0.9729  0.6335 -0.2829
 2151SOL    HW3 8603   4.244   0.720   3.157 -2.3131  0.6143 -0.1422
 2151SOL    MW4 8604   4.249   0.700   3.241 -0.3032  0.7286 -0.2117
 2152SOL     OW 8605   4.010   1.155   3.237 -0.1062  0.0172  0.4971
 2152SOL    HW2 8606   4.026   1.067   3.270  0.5491 -0.7675 -1.8583
 2152SOL    HW3 8607   4.084   1.207   3.268  0.6712 -0.7870  0.0015
 2152SOL    MW4 8608   4.022   1.150   3.245  0.0828 -0.1925  0.1209
 2153SOL     OW 8609   4.224   1.306   3.343 -0.0110 -0.7393  0.2592
 2153SOL    HW2 8610   4.234   1.391   3.301 -2.2716 -0.3677  0.4013
 2153SOL    HW3 8611   4.306   1.260   3.326 -0.2448  0.0071 -3.1911
 2153SOL    MW4 8612   4.236   1.311   3.335 -0.3401 -0.5918 -0.1773
 2154SOL     OW 8613   4.256   1.561   3.227  0.3605  0.6741  0.0316
 2154SOL    HW2 8614   4.259   1.562   3.131  1.0328 -1.5243 -0.0016
 2154SOL    HW3 8615   4.167   1.587   3.248 -0.5034 -1.0777 -1.2961
 2154SOL    MW4 8616   4.245   1.564   3.217  0.3352  0.1530 -0.1479
 2155SOL     OW 8617   3.809   0.804   3.715 -0.3369 -0.4632  0.4401
 2155SOL    HW2 8618   3.806   0.709   3.699  0.3505 -0.5689  0.9323
 2155SOL    HW3 8619   3.794   0.813   3.809 -1.7737  0.0105  0.1841
 2155SOL    MW4 8620   3.807   0.793   3.725 -0.4358 -0.4146  0.4713
 2156SOL     OW 8621   3.993   1.626   3.329  0.0957 -0.0422  0.3092
 2156SOL    HW2 8622   3.986   1.720   3.312 -1.2714 -0.2766 -0.5118
 2156SOL    HW3 8623   4.004   1.620   3.424 -1.2502  0.8858  0.5397
 2156SOL    MW4 8624   3.993   1.638   3.339 -0.2622  0.0493  0.2313
 2157SOL     OW 8625   4.436   1.948   3.598 -0.1669  0.0712 -0.3746
 2157SOL    HW2 8626   4.483   1.940   3.515 -2.1040 -1.6301 -1.3634
 2157SOL    HW3 8627   4.363   2.007   3.579 -0.0675  0.4524  0.3920
 2157SOL    MW4 8628   4.433   1.955   3.585 -0.4093 -0.1030 -0.4040
 2158SOL     OW 8629   4.269   2.272   3.323 -0.3087 -0.4379 -0.6800
 2158SOL    HW2 8630   4.262   2.265   3.228  1.7409  0.9048 -0.9665
 2158SOL    HW3 8631   4.362   2.288   3.339 -0.3740 -2.1928  1.6712
 2158SOL    MW4 8632   4.280   2.273   3.313 -0.0469 -0.4923 -0.4076
 2159SOL     OW 8633   4.205   2.061   3.476 -0.4453 -0.2996 -0.4975
 2159SOL    HW2 8634   4.138   2.092   3.538 -1.0178 -0.4075 -1.0620
 2159SOL    HW3 8635   4.230   2.139   3.427 -0.3512 -0.3112 -0.4666
 2159SOL    MW4 8636   4.199   2.076   3.478 -0.5084 -0.3154 -0.5679
 2160SOL     OW 8637   4.074   2.668   3.308  0.3983  0.2130  0.3048
 2160SOL    HW2 8638   4.058   2.574   3.309  0.1689  0.2153 -1.0915
 2160SOL    HW3 8639   3.991   2.707   3.333  0.1875  0.0622 -0.1545
 2160SOL    MW4 8640   4.061   2.661   3.311  0.3402  0.1934  0.0599
 2161SOL     OW 8641   4.025   2.407   3.375  0.5021 -0.3721  0.3045
 2161SOL    HW2 8642   4.033   2.435   3.465 -1.5613 -2.4771  1.2182
 2161SOL    HW3 8643   4.103   2.354   3.358  0.8312 -0.0679  0.8982
 2161SOL    MW4 8644   4.036   2.403   3.384  0.2733 -0.6097  0.5034
 2162SOL     OW 8645   4.330   3.074   3.310 -0.1222  0.0800  0.5605
 2162SOL    HW2 8646   4.257   3.099   3.366 -0.4189 -1.3378  0.8283
 2162SOL    HW3 8647   4.306   3.104   3.223 -1.9488 -2.1201  0.2590
 2162SOL    MW4 8648   4.317   3.081   3.306 -0.4024 -0.3973  0.5561
 2163SOL     OW 8649   4.068   3.416   3.319  0.6997  0.0594 -0.2315
 2163SOL    HW2 8650   3.980   3.447   3.340 -0.0013 -1.0511 -1.4111
 2163SOL    HW3 8651   4.126   3.483   3.355 -0.6090  0.6436  0.8518
 2163SOL    MW4 8652   4.064   3.429   3.326  0.4345 -0.0101 -0.2442
 2164SOL     OW 8653   4.053   3.448   3.044  0.2775  0.3570 -0.4080
 2164SOL    HW2 8654   4.062   3.440   3.139 -0.0640 -2.1242 -0.5454
 2164SOL    HW3 8655   3.970   3.494   3.032 -0.0528  0.0222  0.4890
 2164SOL    MW4 8656   4.043   3.453   3.055  0.1889 -0.0145 -0.3078
 2165SOL     OW 8657   4.309   3.822   3.317  0.2808  0.1787  0.5243
 2165SOL    HW2 8658   4.392   3.869   3.315  1.5495 -1.9539  0.6824
 2165SOL    HW3 8659   4.288   3.804   3.225  0.1574  0.4480  0.5003
 2165SOL    MW4 8660   4.317   3.826   3.304  0.4319 -0.0671  0.5420
 2166SOL     OW 8661   3.211   2.250   4.202  0.0555  0.0167  0.0961
 2166SOL    HW2 8662   3.242   2.197   4.275  2.5170  0.6831 -0.4107
 2166SOL    HW3 8663   3.271   2.230   4.130 -0.3542  1.7693 -0.7836
 2166SOL    MW4 8664   3.223   2.241   4.202  0.3262  0.3359 -0.0868
 2167SOL     OW 8665   0.205   1.278   3.398 -0.5291  0.1650  0.4717
 2167SOL    HW2 8666   0.214   1.352   3.338  0.3882 -0.6956 -0.4849
 2167SOL    HW3 8667   0.271   1.215   3.367 -1.3679 -1.0824  1.2066
 2167SOL    MW4 8668   0.215   1.280   3.386 -0.5188 -0.1131  0.4425
 2168SOL     OW 8669   3.990   4.141   3.264 -0.5397  0.4731 -0.5239
 2168SOL    HW2 8670   3.927   4.071   3.249 -0.2577 -0.2373  1.4135
 2168SOL    HW3 8671   3.937   4.219   3.280 -0.9949 -0.3387  2.1481
 2168SOL    MW4 8672   3.975   4.142   3.265 -0.5625  0.2723  0.0842
 2169SOL     OW 8673   1.127   0.347   3.417  0.2255 -0.2822  0.1630
 2169SOL    HW2 8674   1.183   0.402   3.362  0.0883  0.9598  1.2392
 2169SOL    HW3 8675   1.053   0.325   3.361  0.9918 -0.5754 -0.7445
 2169SOL    MW4 8676   1.125   0.351   3.402  0.3085 -0.1570  0.1852
 2170SOL     OW 8677   4.487   3.950   4.289  0.9876  0.4617  0.1668
 2170SOL    HW2 8678   4.545   3.886   4.330  0.5582  0.9210  1.4843
 2170SOL    HW3 8679   4.489   4.026   4.347  0.1155  0.9849 -0.4814
 2170SOL    MW4 8680   4.495   3.951   4.302  0.8159  0.5913  0.2551
 2171SOL     OW 8681   2.597   1.478   3.985  0.4299  0.0808  0.6130
 2171SOL    HW2 8682   2.673   1.424   3.966 -0.6721 -1.4232  0.4332
 2171SOL    HW3 8683   2.553   1.489   3.900  0.8937  1.6429  0.5637
 2171SOL    MW4 8684   2.601   1.473   3.971  0.3457  0.0885  0.5828
 2172SOL     OW 8685   3.710   4.501   4.185  0.2301  0.4969  0.3918
 2172SOL    HW2 8686   3.792   4.458   4.210  0.3806  0.5380 -0.0210
 2172SOL    HW3 8687   3.644   4.463   4.242  0.2420 -0.7824 -0.4292
 2172SOL    MW4 8688   3.712   4.491   4.196  0.2515  0.3335  0.2290
 2173SOL     OW 8689   3.285   1.357   4.567  0.4674  0.2210 -0.3981
 2173SOL    HW2 8690   3.278   1.451   4.586  0.3478 -0.4029  2.9295
 2173SOL    HW3 8691   3.379   1.340   4.570  0.4385  0.0878 -0.2722
 2173SOL    MW4 8692   3.297   1.367   4.570  0.4478  0.1211  0.0575
 2174SOL     OW 8693   0.324   2.020   3.390  0.1564  0.2650  0.0144
 2174SOL    HW2 8694   0.319   2.108   3.353  0.8743  0.2492 -0.1162
 2174SOL    HW3 8695   0.237   1.983   3.374  0.6581  0.0134 -2.2887
 2174SOL    MW4 8696   0.312   2.026   3.383  0.3173  0.2297 -0.3067
 2175SOL     OW 8697   0.418   2.111   3.636  0.9033  0.6870  0.5299
 2175SOL    HW2 8698   0.384   2.068   3.558  1.4186 -0.1935  0.7809
 2175SOL    HW3 8699   0.425   2.203   3.612  0.4767  0.5171 -0.2559
 2175SOL    MW4 8700   0.415   2.117   3.623  0.9150  0.5484  0.4594
 2176SOL     OW 8701   0.169   3.738   4.412 -0.7204 -0.5497  0.0641
 2176SOL    HW2 8702   0.142   3.649   4.389 -0.7344 -0.6405  0.4224
 2176SOL    HW3 8703   0.120   3.757   4.492  0.5912 -0.8647  0.9524
 2176SOL    MW4 8704   0.159   3.729   4.420 -0.5492 -0.6032  0.2286
 2177SOL     OW 8705   1.210   3.378   4.592  0.1198 -0.0961 -0.0465
 2177SOL    HW2 8706   1.152   3.426   4.652 -0.3119 -0.0378 -0.5079
 2177SOL    HW3 8707   1.296   3.379   4.635 -0.5213 -1.4014  1.3330
 2177SOL    MW4 8708   1.214   3.384   4.606 -0.0218 -0.2606  0.0746
 2178SOL     OW 8709   3.413   3.755   3.603  0.0495  0.1952  0.0361
 2178SOL    HW2 8710   3.341   3.815   3.624 -0.5794 -0.9128  1.1291
 2178SOL    HW3 8711   3.385   3.711   3.523 -0.0837  0.4116 -0.0366
 2178SOL    MW4 8712   3.400   3.758   3.595 -0.0510  0.0776  0.1707
 2179SOL     OW 8713   3.817   1.247   4.359 -0.1669  0.3280 -0.3654
 2179SOL    HW2 8714   3.787   1.224   4.272 -1.5846  2.0323 -0.3540
 2179SOL    HW3 8715   3.858   1.333   4.348 -0.7032  0.7324  0.6945
 2179SOL    MW4 8716   3.819   1.255   4.346 -0.4247  0.6062 -0.2241
 2180SOL     OW 8717   3.380   4.372   4.556 -0.4600  0.5210  0.2560
 2180SOL    HW2 8718   3.427   4.365   4.473 -1.2295  2.0151 -0.3312
 2180SOL    HW3 8719   3.349   4.283   4.573  2.0179 -0.3734  0.3630
 2180SOL    MW4 8720   3.382   4.359   4.547 -0.2346  0.6001  0.1926
 2181SOL     OW 8721   0.480   0.591   4.557 -0.3890  0.1221  0.5464
 2181SOL    HW2 8722   0.557   0.645   4.540  0.9462 -1.0446  2.5425
 2181SOL    HW3 8723   0.427   0.643   4.617 -0.6643  0.5332 -0.0592
 2181SOL    MW4 8724   0.483   0.605   4.563 -0.2492  0.0224  0.7298
 2182SOL     OW 8725   4.100   0.094   3.659 -0.6416  0.2027  0.1743
 2182SOL    HW2 8726   4.191   0.121   3.673 -0.7130  0.6975 -0.2689
 2182SOL    HW3 8727   4.093   0.008   3.699  0.4730 -0.5527 -1.2018
 2182SOL    MW4 8728   4.111   0.086   3.666 -0.5039  0.1683 -0.0657
 2183SOL     OW 8729   1.540   4.106   4.149 -0.1656  0.3922  0.8346
 2183SOL    HW2 8730   1.481   4.133   4.078 -0.6181 -0.6999  0.7813
 2183SOL    HW3 8731   1.524   4.170   4.218 -0.2761  1.0230  0.2275
 2183SOL    MW4 8732   1.530   4.118   4.149 -0.2399  0.3314  0.7475
 2184SOL     OW 8733   4.115   0.073   4.445 -0.8175  0.0433  0.3393
 2184SOL    HW2 8734   4.091   0.163   4.468  0.2393  0.2483  0.6367
 2184SOL    HW3 8735   4.193   0.083   4.390 -2.4638 -0.5052 -2.1730
 2184SOL    MW4 8736   4.122   0.087   4.440 -0.8953 -0.0020  0.0470
 2185SOL     OW 8737   3.418   1.311   4.138 -0.0506 -0.7470  0.1825
 2185SOL    HW2 8738   3.462   1.394   4.156  1.1102 -1.1132 -0.9564
 2185SOL    HW3 8739   3.341   1.312   4.195 -0.4074  1.4026 -0.3326
 2185SOL    MW4 8740   3.414   1.322   4.148  0.0555 -0.5117 -0.0357
 2186SOL     OW 8741   3.178   0.746   3.914  0.1594  0.4884 -0.1237
 2186SOL    HW2 8742   3.153   0.653   3.915  1.5375  0.1107  1.5852
 2186SOL    HW3 8743   3.237   0.754   3.839 -0.1885  0.0627 -0.4539
 2186SOL    MW4 8744   3.182   0.734   3.904  0.2953  0.3824  0.0582
 2187SOL     OW 8745   3.828   3.653   3.857  0.4117 -0.1137 -0.3060
 2187SOL    HW2 8746   3.749   3.702   3.877  1.2549  0.6529  1.2188
 2187SOL    HW3 8747   3.800   3.587   3.794 -1.3603  0.3859 -0.0607
 2187SOL    MW4 8748   3.814   3.651   3.852  0.2892  0.0534 -0.0724
 2188SOL     OW 8749   2.329   2.315   4.223 -0.2554  0.2871  0.3095
 2188SOL    HW2 8750   2.424   2.319   4.215 -0.2135  1.9041  1.3038
 2188SOL    HW3 8751   2.297   2.360   4.145 -0.1748  0.9781  0.6734
 2188SOL    MW4 8752   2.337   2.322   4.212 -0.2392  0.5916  0.4887
 2189SOL     OW 8753   1.743   3.212   3.604 -0.3756 -0.3941  0.1698
 2189SOL    HW2 8754   1.814   3.195   3.666 -1.0850  0.1649  1.1387
 2189SOL    HW3 8755   1.698   3.289   3.639 -0.6835  0.0261 -1.1280
 2189SOL    MW4 8756   1.747   3.220   3.617 -0.5098 -0.2649  0.1264
 2190SOL     OW 8757   2.914   2.783   3.363 -0.0214 -0.2891 -0.4273
 2190SOL    HW2 8758   2.930   2.875   3.344  4.4409 -0.6398  1.0119
 2190SOL    HW3 8759   2.881   2.782   3.453  0.3471 -0.1152 -0.2890
 2190SOL    MW4 8760   2.912   2.795   3.372  0.6159 -0.3124 -0.2192
 2191SOL     OW 8761   2.704   0.791   4.127  0.4633 -0.3962 -0.0443
 2191SOL    HW2 8762   2.681   0.776   4.218  0.7986 -1.2699 -0.1009
 2191SOL    HW3 8763   2.644   0.860   4.098 -0.6651 -1.1849  0.4033
 2191SOL    MW4 8764   2.693   0.798   4.135  0.3586 -0.6155  0.0073
 2192SOL     OW 8765   2.630   2.914   4.493 -0.2248  0.2753 -0.4609
 2192SOL    HW2 8766   2.623   2.821   4.516  0.6829  0.3810  0.2803
 2192SOL    HW3 8767   2.543   2.950   4.511 -0.1890 -0.1482  0.5840
 2192SOL    MW4 8768   2.618   2.907   4.498 -0.1003  0.2333 -0.2253
 2193SOL     OW 8769   0.224   2.967   4.560 -0.0375  0.2916  0.0285
 2193SOL    HW2 8770   0.203   3.057   4.586  1.1438  0.6099 -0.1158
 2193SOL    HW3 8771   0.216   2.966   4.465 -1.0996 -0.0428  0.1046
 2193SOL    MW4 8772   0.220   2.979   4.551 -0.0218  0.2895  0.0195
 2194SOL     OW 8773   0.415   1.654   3.354 -0.1484 -0.1570 -0.2545
 2194SOL    HW2 8774   0.403   1.675   3.447 -0.0965 -0.6138 -0.1468
 2194SOL    HW3 8775   0.431   1.739   3.313  0.2802  0.0004  0.2272
 2194SOL    MW4 8776   0.416   1.668   3.361 -0.0850 -0.1965 -0.1767
 2195SOL     OW 8777   3.580   1.632   3.405 -0.0419 -0.2215 -0.1784
 2195SOL    HW2 8778   3.627   1.550   3.393 -1.1669 -0.9258  0.1200
 2195SOL    HW3 8779   3.596   1.656   3.497  0.8946  0.2908 -0.4679
 2195SOL    MW4 8780   3.588   1.625   3.416 -0.0668 -0.2468 -0.1773
 2196SOL     OW 8781   2.031   3.172   3.770  0.1707  0.0145 -0.6278
 2196SOL    HW2 8782   2.047   3.135   3.857  0.6187 -0.9034 -1.0974
 2196SOL    HW3 8783   2.058   3.264   3.778 -1.5808  0.4461  0.7355
 2196SOL    MW4 8784   2.037   3.179   3.783 -0.0013 -0.0497 -0.5099
 2197SOL     OW 8785   2.195   3.938   4.004  0.0325 -0.1707 -0.6016
 2197SOL    HW2 8786   2.134   3.939   3.931  0.8957  1.1165 -1.3209
 2197SOL    HW3 8787   2.177   3.855   4.050 -3.6012  1.0875  0.4003
 2197SOL    MW4 8788   2.185   3.927   4.001 -0.3330  0.1651 -0.5643
 2198SOL     OW 8789   0.689   1.886   3.702 -0.0654 -0.2048  0.3795
 2198SOL    HW2 8790   0.596   1.886   3.727 -0.3539  0.1784 -0.6700
 2198SOL    HW3 8791   0.694   1.946   3.628  0.9085 -0.7605 -0.0189
 2198SOL    MW4 8792   0.677   1.894   3.696  0.0250 -0.2276  0.1885
 2199SOL     OW 8793   3.275   2.883   4.073 -0.3846  0.3008 -0.3278
 2199SOL    HW2 8794   3.215   2.840   4.135  0.6266 -2.0846 -0.9583
 2199SOL    HW3 8795   3.332   2.937   4.128 -2.4234  1.8072  0.3751
 2199SOL    MW4 8796   3.274   2.884   4.089 -0.5201  0.1849 -0.3182
 2200SOL     OW 8797   3.766   0.189   3.627 -0.2809  0.1193  0.2015
 2200SOL    HW2 8798   3.843   0.236   3.656 -0.1386  0.5569 -0.8713
 2200SOL    HW3 8799   3.769   0.106   3.675  0.3613  0.5064  0.8382
 2200SOL    MW4 8800   3.776   0.184   3.637 -0.1774  0.2281  0.1439
 2201SOL     OW 8801   1.904   1.319   3.615 -0.3884 -0.1417 -0.2554
 2201SOL    HW2 8802   1.940   1.323   3.704  0.3249 -1.2465 -0.4892
 2201SOL    HW3 8803   1.881   1.410   3.595 -0.2190  0.1703  0.9231
 2201SOL    MW4 8804   1.906   1.332   3.624 -0.2719 -0.2463 -0.1307
 2202SOL     OW 8805   1.979   2.621   4.199 -0.4019 -0.7190 -0.2330
 2202SOL    HW2 8806   1.987   2.614   4.104 -1.6304  1.1750 -0.5079
 2202SOL    HW3 8807   2.062   2.660   4.228 -0.5468 -0.0552 -0.6961
 2202SOL    MW4 8808   1.991   2.625   4.190 -0.5831 -0.3815 -0.3304
 2203SOL     OW 8809   3.713   1.697   3.679  0.1977  0.8366  0.8479
 2203SOL    HW2 8810   3.743   1.607   3.668  0.6339  1.1878 -0.8530
 2203SOL    HW3 8811   3.793   1.748   3.692  0.0149  1.1179  0.8849
 2203SOL    MW4 8812   3.727   1.692   3.679  0.2311  0.9200  0.6283
 2204SOL     OW 8813   1.419   4.253   3.942 -0.2976 -0.0277  0.0844
 2204SOL    HW2 8814   1.405   4.291   3.856  3.3965  2.9030  0.6554
 2204SOL    HW3 8815   1.382   4.317   4.003 -0.1614 -0.6188  0.8018
 2204SOL    MW4 8816   1.412   4.267   3.939  0.2078  0.2809  0.2544
 2205SOL     OW 8817   0.753   3.436   4.112 -0.1783  0.0573  0.4361
 2205SOL    HW2 8818   0.776   3.486   4.034  0.0690 -0.9570 -0.1539
 2205SOL    HW3 8819   0.689   3.490   4.157  1.0840  1.5019  0.5037
 2205SOL    MW4 8820   0.747   3.449   4.107  0.0209  0.1141  0.3672
 2206SOL     OW 8821   3.337   2.887   4.430  0.5829  0.1193  0.3843
 2206SOL    HW2 8822   3.375   2.937   4.358  0.1675 -0.0500  0.0474
 2206SOL    HW3 8823   3.266   2.838   4.390  0.1568  0.2601  0.9727
 2206SOL    MW4 8824   3.333   2.887   4.415  0.4719  0.1155  0.4175
 2207SOL     OW 8825   1.940   2.360   4.321  0.1467  0.0110 -0.6851
 2207SOL    HW2 8826   1.944   2.444   4.274  3.1013  0.0099 -0.5064
 2207SOL    HW3 8827   1.865   2.370   4.379 -1.3675  1.4006 -2.7703
 2207SOL    MW4 8828   1.931   2.373   4.322  0.3367  0.1942 -0.9367
 2208SOL     OW 8829   2.939   4.373   3.365 -0.1475 -0.5674 -0.2366
 2208SOL    HW2 8830   2.958   4.467   3.362  1.4486 -0.8276  0.8905
 2208SOL    HW3 8831   2.861   4.362   3.311 -1.6402  1.7310  1.3841
 2208SOL    MW4 8832   2.931   4.384   3.357 -0.1338 -0.2985  0.1260
 2209SOL     OW 8833   0.705   2.834   3.380 -0.1378 -0.1834 -0.1321
 2209SOL    HW2 8834   0.779   2.776   3.367  0.5431  0.9232 -1.3896
 2209SOL    HW3 8835   0.709   2.859   3.472  1.2729  0.1377 -0.2647
 2209SOL    MW4 8836   0.715   2.830   3.390  0.1382  0.0049 -0.3155
 2210SOL     OW 8837   3.498   1.556   3.801 -0.4014 -0.5368  0.2801
 2210SOL    HW2 8838   3.581   1.595   3.773 -0.2580 -0.4167  0.8676
 2210SOL    HW3 8839   3.470   1.503   3.726  0.3079 -0.7416  0.1536
 2210SOL    MW4 8840   3.506   1.554   3.787 -0.2889 -0.5480  0.3409
 2211SOL     OW 8841   4.159   0.799   4.515  0.0238 -0.0226 -0.0763
 2211SOL    HW2 8842   4.162   0.713   4.557 -1.9683 -0.7564 -1.3712
 2211SOL    HW3 8843   4.244   0.808   4.471  0.5405 -0.9694  0.7247
 2211SOL    MW4 8844   4.171   0.789   4.515 -0.1709 -0.2443 -0.1414
 2212SOL     OW 8845   2.017   3.625   3.381 -0.3986  0.3630  0.0128
 2212SOL    HW2 8846   1.939   3.574   3.361 -0.6721  0.2050  1.4071
 2212SOL    HW3 8847   2.086   3.585   3.328 -1.3364  0.7629 -1.5449
 2212SOL    MW4 8848   2.016   3.613   3.371 -0.5584  0.3949 -0.0088
 2213SOL     OW 8849   4.486   4.433   4.579  0.0169  0.2441  0.1068
 2213SOL    HW2 8850   4.546   4.508   4.583 -0.2801  0.6297 -2.1318
 2213SOL    HW3 8851   4.399   4.472   4.591 -0.0633  0.1455 -0.1498
 2213SOL    MW4 8852   4.482   4.448   4.581 -0.0329  0.2820 -0.2224
 2214SOL     OW 8853   4.467   3.627   3.900 -0.3813 -0.0183  0.3425
 2214SOL    HW2 8854   4.562   3.621   3.912 -0.2254  1.2800 -0.1698
 2214SOL    HW3 8855   4.446   3.717   3.923 -1.3913 -0.0962 -0.2468
 2214SOL    MW4 8856   4.477   3.638   3.905 -0.4940  0.1427  0.1972
 2215SOL     OW 8857   3.873   2.071   4.331  0.0548  0.4832 -0.1900
 2215SOL    HW2 8858   3.860   2.064   4.236  0.2993 -0.2993 -0.1729
 2215SOL    HW3 8859   3.885   2.164   4.347 -0.4889  0.6687 -0.8668
 2215SOL    MW4 8860   3.873   2.082   4.320  0.0153  0.4044 -0.2771
 2216SOL     OW 8861   1.632   0.177   4.193 -0.1154  0.5782 -0.0219
 2216SOL    HW2 8862   1.561   0.213   4.140 -0.1450  1.0434  0.3281
 2216SOL    HW3 8863   1.631   0.083   4.175 -0.0657  0.7444 -0.9103
 2216SOL    MW4 8864   1.623   0.169   4.184 -0.1128  0.6615 -0.0929
 2217SOL     OW 8865   3.385   3.908   3.221 -0.0997  0.2133 -0.0332
 2217SOL    HW2 8866   3.390   3.819   3.255 -1.0963  0.3606  0.5170
 2217SOL    HW3 8867   3.452   3.956   3.270 -3.2319  1.0384  3.7194
 2217SOL    MW4 8868   3.395   3.903   3.232 -0.6445  0.3416  0.5345
 2218SOL     OW 8869   2.689   1.135   3.247  0.2019 -0.1832 -0.2781
 2218SOL    HW2 8870   2.677   1.151   3.154  0.1944  0.7473 -0.1315
 2218SOL    HW3 8871   2.610   1.171   3.287  0.2669 -0.4551  0.0963
 2218SOL    MW4 8872   2.677   1.142   3.240  0.2095 -0.0963 -0.2094
 2219SOL     OW 8873   4.358   1.225   3.788 -0.6292 -0.0386 -0.1147
 2219SOL    HW2 8874   4.302   1.293   3.750  0.7757  1.3203  0.1656
 2219SOL    HW3 8875   4.445   1.243   3.753 -0.1354 -1.3873  0.3819
 2219SOL    MW4 8876   4.362   1.237   3.779 -0.3787 -0.0372 -0.0122
 2220SOL     OW 8877   4.324   0.643   4.137 -0.0220 -0.1445 -0.0273
 2220SOL    HW2 8878   4.384   0.572   4.160  0.1687  0.2826  0.7976
 2220SOL    HW3 8879   4.328   0.703   4.211 -0.0844  0.7967 -0.7776
 2220SOL    MW4 8880   4.333   0.641   4.149 -0.0051  0.0360 -0.0175
 2221SOL     OW 8881   3.190   0.316   4.378  0.3063 -0.1361  0.7133
 2221SOL    HW2 8882   3.099   0.286   4.390 -0.0845  0.6991 -0.0744
 2221SOL    HW3 8883   3.242   0.258   4.433 -0.4663 -2.1584 -0.6102
 2221SOL    MW4 8884   3.184   0.304   4.387  0.1528 -0.2928  0.4347
 2222SOL     OW 8885   2.447   4.500   4.525 -0.5287  0.2792 -0.0326
 2222SOL    HW2 8886   2.403   4.585   4.522 -1.2981 -0.0784  1.0722
 2222SOL    HW3 8887   2.540   4.523   4.530 -0.7853  1.1064  1.6404
 2222SOL    MW4 8888   2.454   4.515   4.526 -0.6641  0.3411  0.3339
 2223SOL     OW 8889   1.278   0.836   3.363 -0.1849  0.0936  0.5133
 2223SOL    HW2 8890   1.366   0.816   3.330 -0.7062  0.1027 -0.8919
 2223SOL    HW3 8891   1.220   0.775   3.318 -0.9955  0.5322  0.9411
 2223SOL    MW4 8892   1.282   0.825   3.353 -0.3606  0.1527  0.3843
 2224SOL     OW 8893   0.276   2.812   3.407 -0.0543  0.3570  0.3609
 2224SOL    HW2 8894   0.287   2.898   3.367 -0.3669  0.5754  0.7409
 2224SOL    HW3 8895   0.351   2.762   3.376 -0.1772  0.5883 -0.3237
 2224SOL    MW4 8896   0.288   2.817   3.398 -0.1118  0.4163  0.3207
 2225SOL     OW 8897   1.618   1.199   3.922 -0.0727 -0.0069  0.0530
 2225SOL    HW2 8898   1.658   1.271   3.971  1.2271  0.1964 -1.2732
 2225SOL    HW3 8899   1.667   1.121   3.949 -1.2738 -0.3835  1.2484
 2225SOL    MW4 8900   1.629   1.198   3.932 -0.0597 -0.0298  0.0357
 2226SOL     OW 8901   2.715   4.261   4.406 -0.4482  0.4304 -0.2001
 2226SOL    HW2 8902   2.765   4.334   4.441 -1.0333  1.6601 -1.8625
 2226SOL    HW3 8903   2.779   4.190   4.398  0.2594  0.9406  0.8450
 2226SOL    MW4 8904   2.730   4.261   4.409 -0.4321  0.6600 -0.2815
 2227SOL     OW 8905   1.804   0.348   4.314 -0.3048  0.1394 -0.7624
 2227SOL    HW2 8906   1.738   0.285   4.285  0.9330 -1.6291  0.1557
 2227SOL    HW3 8907   1.879   0.294   4.341  1.0600  2.0416 -0.6198
 2227SOL    MW4 8908   1.805   0.333   4.314  0.0386  0.1571 -0.6224
 2228SOL     OW 8909   4.476   0.534   4.536 -0.0334 -0.4933  0.1856
 2228SOL    HW2 8910   4.509   0.624   4.526 -0.5046 -0.2903  0.4463
 2228SOL    HW3 8911   4.545   0.479   4.500 -0.2401  0.0423 -1.0626
 2228SOL    MW4 8912   4.489   0.539   4.530 -0.1228 -0.3959  0.0553
 2229SOL     OW 8913   2.744   0.049   4.303  0.3968 -0.1974 -0.1626
 2229SOL    HW2 8914   2.664   0.074   4.256  1.0122  2.3557  0.0734
 2229SOL    HW3 8915   2.792  -0.005   4.240 -0.3468  0.3565 -1.2439
 2229SOL    MW4 8916   2.740   0.045   4.288  0.3799  0.2126 -0.2741
 2230SOL     OW 8917   1.515   0.731   3.203 -0.6842  0.2806  0.5355
 2230SOL    HW2 8918   1.601   0.764   3.231 -0.0228 -0.9692  0.0666
 2230SOL    HW3 8919   1.517   0.638   3.226 -1.6516  0.1005 -0.0832
 2230SOL    MW4 8920   1.527   0.723   3.210 -0.7246  0.0919  0.3920
 2231SOL     OW 8921   2.312   4.179   3.929 -0.9749 -0.0833 -0.5315
 2231SOL    HW2 8922   2.260   4.114   3.977 -0.5277 -0.2622 -0.2817
 2231SOL    HW3 8923   2.269   4.186   3.844  0.5600 -2.7518 -1.5855
 2231SOL    MW4 8924   2.300   4.171   3.924 -0.7134 -0.4590 -0.6376
 2232SOL     OW 8925   1.141   1.478   4.403 -0.0611 -0.4402 -0.0287
 2232SOL    HW2 8926   1.172   1.428   4.327  0.2356  0.7426 -0.7110
 2232SOL    HW3 8927   1.209   1.544   4.417 -0.8493  0.3025  0.3288
 2232SOL    MW4 8928   1.154   1.480   4.395 -0.1259 -0.1861 -0.0715
 2233SOL     OW 8929   1.914   2.021   3.565  0.1150  0.0913 -0.1998
 2233SOL    HW2 8930   1.820   2.037   3.574  0.5227  2.0382  0.7257
 2233SOL    HW3 8931   1.936   1.963   3.638 -0.1857  0.4026  0.1353
 2233SOL    MW4 8932   1.905   2.015   3.575  0.1291  0.3892 -0.0335
 2234SOL     OW 8933   3.415   2.219   4.006  0.5411  0.3588  0.2422
 2234SOL    HW2 8934   3.458   2.133   4.015 -1.0333 -0.3929  0.7543
 2234SOL    HW3 8935   3.391   2.224   3.914 -0.0569 -0.1106  0.3634
 2234SOL    MW4 8936   3.418   2.208   3.995  0.2545  0.1977  0.3258
 2235SOL     OW 8937   0.443   3.274   3.342  0.1574 -0.3707 -0.0730
 2235SOL    HW2 8938   0.417   3.261   3.433 -3.0001  2.1756 -0.5243
 2235SOL    HW3 8939   0.400   3.204   3.294  0.6001 -0.8269  0.1898
 2235SOL    MW4 8940   0.434   3.263   3.348 -0.2008 -0.0950 -0.0979
 2236SOL     OW 8941   1.343   2.113   4.084  0.2934 -0.2156 -0.3647
 2236SOL    HW2 8942   1.391   2.181   4.132 -0.5386  0.3753 -0.3503
 2236SOL    HW3 8943   1.281   2.162   4.029  0.9197 -0.9060 -1.7020
 2236SOL    MW4 8944   1.341   2.129   4.083  0.2662 -0.2287 -0.5392
 2237SOL     OW 8945   3.767   2.047   3.380  0.1719  0.2248 -0.8733
 2237SOL    HW2 8946   3.856   2.016   3.363  0.0167 -0.6894 -0.0120
 2237SOL    HW3 8947   3.710   1.986   3.333 -0.0225  0.7636 -1.3591
 2237SOL    MW4 8948   3.771   2.035   3.371  0.1258  0.1753 -0.8238
 2238SOL     OW 8949   3.808   3.454   4.332 -0.6974 -0.0137  0.4260
 2238SOL    HW2 8950   3.729   3.404   4.353  0.7137 -2.2210  0.6571
 2238SOL    HW3 8951   3.880   3.400   4.365  0.8226  3.1158  2.5465
 2238SOL    MW4 8952   3.807   3.440   4.339 -0.3107  0.1079  0.7362
 2239SOL     OW 8953   3.105   2.786   4.263 -0.1773  0.5490 -0.4307
 2239SOL    HW2 8954   3.061   2.703   4.282 -0.2597  0.3730 -1.3534
 2239SOL    HW3 8955   3.036   2.852   4.272 -0.8965  0.1657 -2.8627
 2239SOL    MW4 8956   3.090   2.784   4.267 -0.2830  0.4752 -0.8733
 2240SOL     OW 8957   4.183   3.415   4.660  0.0561  0.1476  0.0715
 2240SOL    HW2 8958   4.182   3.504   4.625 -2.1871 -0.0473 -0.4235
 2240SOL    HW3 8959   4.166   3.426   4.754  1.1137  0.3142  0.2533
 2240SOL    MW4 8960   4.181   3.428   4.668 -0.1003  0.1439  0.0302
 2241SOL     OW 8961   1.503   1.558   3.676  0.1007 -0.1488 -0.2119
 2241SOL    HW2 8962   1.443   1.580   3.605  0.4179 -0.6246 -0.6312
 2241SOL    HW3 8963   1.482   1.621   3.745 -0.0170  0.5013 -0.8283
 2241SOL    MW4 8964   1.492   1.569   3.676  0.1271 -0.1258 -0.3486
 2242SOL     OW 8965   2.579   2.548   4.201  0.1576 -0.1321  0.0079
 2242SOL    HW2 8966   2.622   2.467   4.173  0.7256 -0.3416  1.4154
 2242SOL    HW3 8967   2.633   2.617   4.162  0.2282 -0.4219 -0.4174
 2242SOL    MW4 8968   2.592   2.546   4.192  0.2418 -0.1980  0.1375
 2243SOL     OW 8969   3.535   4.007   4.628 -0.1770  0.1027 -0.3620
 2243SOL    HW2 8970   3.591   4.059   4.570 -0.4272  0.7724 -0.0021
 2243SOL    HW3 8971   3.490   3.946   4.569 -0.7666  1.0850 -0.9304
 2243SOL    MW4 8972   3.537   4.006   4.612 -0.2878  0.3206 -0.3895
 2244SOL     OW 8973   0.437   1.590   4.312 -0.1809  0.2882 -0.0566
 2244SOL    HW2 8974   0.430   1.625   4.223  1.7805 -0.0632 -0.3618
 2244SOL    HW3 8975   0.520   1.625   4.345 -0.5381 -0.1909  1.3677
 2244SOL    MW4 8976   0.447   1.599   4.305  0.0307  0.1786  0.0910
 2245SOL     OW 8977   2.694   4.624   4.556 -0.1846  0.0122 -0.3809
 2245SOL    HW2 8978   2.720   4.654   4.469  0.1078 -0.3030 -0.4029
 2245SOL    HW3 8979   2.756   4.554   4.577  0.5467  0.9675  0.6288
 2245SOL    MW4 8980   2.705   4.618   4.547 -0.0496  0.0967 -0.2506
 2246SOL     OW 8981   3.376   2.034   3.368 -0.2775  0.2661  0.0204
 2246SOL    HW2 8982   3.305   1.992   3.320  0.7062 -0.1524 -1.0942
 2246SOL    HW3 8983   3.364   2.128   3.352 -0.2327  0.1576 -0.6508
 2246SOL    MW4 8984   3.365   2.041   3.359 -0.1418  0.1965 -0.2152
 2247SOL     OW 8985   0.793   1.039   3.677 -0.3074  0.0158  0.9463
 2247SOL    HW2 8986   0.709   1.016   3.716 -0.9047  0.4281 -0.0583
 2247SOL    HW3 8987   0.857   1.026   3.747 -1.2010 -0.3500  1.7043
 2247SOL    MW4 8988   0.790   1.034   3.691 -0.5041  0.0219  0.9138
 2248SOL     OW 8989   4.055   0.324   4.480 -0.2361  0.4840  0.2715
 2248SOL    HW2 8990   4.075   0.364   4.395 -1.4124  1.3889  0.4035
 2248SOL    HW3 8991   4.124   0.355   4.538 -0.0892  0.8213 -0.0792
 2248SOL    MW4 8992   4.067   0.334   4.476 -0.3719  0.6479  0.2427
 2249SOL     OW 8993   3.804   0.537   3.361  0.8050 -0.2146 -0.0409
 2249SOL    HW2 8994   3.727   0.495   3.323  1.3990 -1.7958  0.4460
 2249SOL    HW3 8995   3.878   0.496   3.317  1.3835  1.0462 -0.2644
 2249SOL    MW4 8996   3.804   0.526   3.351  0.9597 -0.2568 -0.0062
 2250SOL     OW 8997   0.691   1.570   3.882 -0.0878 -0.0364 -0.3391
 2250SOL    HW2 8998   0.754   1.588   3.813  0.8216  2.6809  1.1475
 2250SOL    HW3 8999   0.739   1.517   3.945  0.4588  1.2544  0.3461
 2250SOL    MW4 9000   0.705   1.566   3.881  0.1043  0.4924 -0.0525
 2251SOL     OW 9001   4.049   3.966   3.644  0.1061  0.3646  0.3026
 2251SOL    HW2 9002   3.974   4.026   3.652  0.9506  1.4983 -0.1196
 2251SOL    HW3 9003   4.096   3.998   3.567  0.7033 -0.7077  0.2169
 2251SOL    MW4 9004   4.045   3.978   3.635  0.2963  0.3727  0.2356
 2252SOL     OW 9005   1.009   3.713   4.350 -0.1443  0.3427  0.3522
 2252SOL    HW2 9006   1.003   3.721   4.255 -0.6556  0.3511  0.3846
 2252SOL    HW3 9007   0.996   3.802   4.382 -1.4249  0.1170  0.4965
 2252SOL    MW4 9008   1.007   3.725   4.342 -0.3807  0.3140  0.3755
 2253SOL     OW 9009   0.685   0.978   4.408 -0.0483  0.7344  0.1958
 2253SOL    HW2 9010   0.639   1.049   4.364  1.4925  1.1924 -0.6856
 2253SOL    HW3 9011   0.697   0.911   4.341  0.4441  0.5529  0.4611
 2253SOL    MW4 9012   0.680   0.978   4.394  0.2199  0.7709  0.1145
 2254SOL     OW 9013   2.268   3.286   4.121  0.0326 -0.1875 -0.0262
 2254SOL    HW2 9014   2.347   3.239   4.150  0.0649 -0.0128  0.1695
 2254SOL    HW3 9015   2.223   3.309   4.202 -0.8764 -1.4170 -0.1770
 2254SOL    MW4 9016   2.272   3.283   4.136 -0.0831 -0.3266 -0.0203
 2255SOL     OW 9017   0.378   1.661   3.631  0.3600  0.3548  0.2659
 2255SOL    HW2 9018   0.423   1.594   3.682  0.1010  0.1106  0.1747
 2255SOL    HW3 9019   0.376   1.738   3.688 -0.0540  0.0401  0.6721
 2255SOL    MW4 9020   0.384   1.663   3.645  0.2712  0.2811  0.3074
 2256SOL     OW 9021   0.361   0.141   3.956 -0.2611  0.1389 -0.1830
 2256SOL    HW2 9022   0.318   0.221   3.924  0.7196  0.3895 -0.9144
 2256SOL    HW3 9023   0.314   0.070   3.913 -0.7328  0.3538 -0.0288
 2256SOL    MW4 9024   0.349   0.142   3.946 -0.1939  0.2003 -0.2592
 2257SOL     OW 9025   2.664   3.197   3.560 -0.2831  0.3155  0.1585
 2257SOL    HW2 9026   2.743   3.226   3.606  0.3301 -1.1440  0.0572
 2257SOL    HW3 9027   2.686   3.207   3.467 -0.2538  0.0275  0.1333
 2257SOL    MW4 9028   2.678   3.202   3.554 -0.1983  0.0849  0.1418
 2258SOL     OW 9029   3.030   2.806   3.832 -0.0140 -0.7559  0.1165
 2258SOL    HW2 9030   3.046   2.891   3.875  1.0804 -1.4901  1.1892
 2258SOL    HW3 9031   3.115   2.780   3.797 -0.1153 -1.9021  0.7081
 2258SOL    MW4 9032   3.043   2.814   3.833  0.1170 -1.0040  0.3361
 2259SOL     OW 9033   3.988   2.077   3.646 -0.2591 -0.1558  0.3267
 2259SOL    HW2 9034   3.975   1.982   3.650  0.1824 -0.2635 -0.7662
 2259SOL    HW3 9035   3.900   2.113   3.640 -0.3142 -0.6745 -2.6348
 2259SOL    MW4 9036   3.975   2.069   3.646 -0.2081 -0.2384 -0.2083
 2260SOL     OW 9037   1.561   4.409   3.310  0.1770  0.1274  0.5652
 2260SOL    HW2 9038   1.572   4.388   3.403 -1.8346 -1.3082  0.5190
 2260SOL    HW3 9039   1.468   4.392   3.293  0.6687 -0.2260 -1.8623
 2260SOL    MW4 9040   1.550   4.404   3.320 -0.0235 -0.1087  0.2388
 2261SOL     OW 9041   2.478   0.104   4.257  0.0962  0.0352 -0.0937
 2261SOL    HW2 9042   2.421   0.073   4.327  0.4952 -1.0583 -0.2401
 2261SOL    HW3 9043   2.425   0.098   4.177 -0.2756  1.0440  0.0686
 2261SOL    MW4 9044   2.464   0.099   4.256  0.0998  0.0241 -0.0916
 2262SOL     OW 9045   3.054   1.401   0.433  0.0975  0.4523  0.4099
 2262SOL    HW2 9046   3.013   1.461   0.371 -0.2710  0.8765  1.0496
 2262SOL    HW3 9047   2.983   1.344   0.461 -0.0135  1.0288  1.3354
 2262SOL    MW4 9048   3.039   1.402   0.429  0.0343  0.5844  0.6164
 2263SOL     OW 9049   0.226   3.105   3.779  0.5823 -0.0807  0.0669
 2263SOL    HW2 9050   0.257   3.015   3.790  1.8956  0.2966 -0.5367
 2263SOL    HW3 9051   0.135   3.095   3.751  0.4379 -1.2021  0.8631
 2263SOL    MW4 9052   0.218   3.092   3.777  0.7365 -0.1789  0.0923
 2264SOL     OW 9053   2.363   2.544   4.034 -0.1182  0.2599 -0.0676
 2264SOL    HW2 9054   2.448   2.539   4.078  0.4994  1.4010 -1.1073
 2264SOL    HW3 9055   2.382   2.524   3.942 -1.0205  0.2622 -0.2617
 2264SOL    MW4 9056   2.377   2.541   4.027 -0.1557  0.4108 -0.2304
 2265SOL     OW 9057   4.082   3.031   4.378  0.1435  0.2336  0.2921
 2265SOL    HW2 9058   4.076   3.048   4.284  1.8548 -1.0920 -0.0779
 2265SOL    HW3 9059   4.172   3.053   4.402  0.1341 -0.7577  1.3329
 2265SOL    MW4 9060   4.093   3.036   4.369  0.3680 -0.0721  0.3806
 2266SOL     OW 9061   4.457   3.154   3.668 -0.1767  0.0303 -0.4978
 2266SOL    HW2 9062   4.398   3.224   3.696  0.9522  1.7473 -2.2980
 2266SOL    HW3 9063   4.490   3.182   3.583  1.7798 -1.7867 -0.3944
 2266SOL    MW4 9064   4.454   3.167   3.661  0.2304  0.0171 -0.7217
 2267SOL     OW 9065   2.925   2.369   4.169  0.0627 -0.3770  0.0929
 2267SOL    HW2 9066   2.924   2.455   4.127  0.1209  1.0127  2.8118
 2267SOL    HW3 9067   3.016   2.340   4.163  0.7545  1.2719  2.0368
 2267SOL    MW4 9068   2.937   2.376   4.162  0.1616  0.0239  0.7081
 2268SOL     OW 9069   0.947   0.343   3.874 -0.0662 -0.2677 -0.1407
 2268SOL    HW2 9070   1.022   0.324   3.930  0.3938 -1.0025 -0.9851
 2268SOL    HW3 9071   0.966   0.297   3.792 -0.7670  0.7086 -0.8650
 2268SOL    MW4 9072   0.959   0.334   3.870 -0.0980 -0.2359 -0.3477
 2269SOL     OW 9073   2.205   2.738   3.714 -0.3482  0.5203  0.1076
 2269SOL    HW2 9074   2.276   2.799   3.694 -0.4307  0.3791 -0.6343
 2269SOL    HW3 9075   2.223   2.662   3.659 -0.7102  0.2209  0.4039
 2269SOL    MW4 9076   2.217   2.736   3.704 -0.4068  0.4622  0.0488
 2270SOL     OW 9077   0.355   0.559   4.028  0.3171 -0.3798  0.2138
 2270SOL    HW2 9078   0.330   0.541   4.118  1.0262  3.2150  1.2057
 2270SOL    HW3 9079   0.447   0.534   4.023  0.3978 -0.1556  0.6122
 2270SOL    MW4 9080   0.364   0.553   4.039  0.4213  0.1240  0.3972
 2271SOL     OW 9081   3.108   0.718   4.256  0.2707 -0.1603  0.3055
 2271SOL    HW2 9082   3.023   0.704   4.297  1.0115 -0.6385  1.7085
 2271SOL    HW3 9083   3.112   0.813   4.242 -0.4747 -0.1341  0.2592
 2271SOL    MW4 9084   3.097   0.729   4.259  0.2701 -0.2200  0.4845
 2272SOL     OW 9085   4.104   2.512   3.641  0.1429  0.3355 -0.0368
 2272SOL    HW2 9086   4.161   2.589   3.645  1.0055 -0.2653 -0.6288
 2272SOL    HW3 9087   4.145   2.448   3.699 -0.9013  0.5329  0.9297
 2272SOL    MW4 9088   4.117   2.514   3.649  0.1189  0.2823  0.0126
 2273SOL     OW 9089   2.140   3.079   4.000 -0.7252 -0.1501 -0.5140
 2273SOL    HW2 9090   2.177   3.147   4.056 -1.3336  0.3720 -0.7522
 2273SOL    HW3 9091   2.199   3.004   4.012  1.1489  1.0692 -1.8606
 2273SOL    MW4 9092   2.153   3.078   4.009 -0.5582  0.0797 -0.7231
 2274SOL     OW 9093   2.366   2.228   4.610 -0.1355  0.0024 -0.1525
 2274SOL    HW2 9094   2.323   2.226   4.696 -0.4234  0.1539 -0.2929
 2274SOL    HW3 9095   2.306   2.277   4.554 -0.8539 -1.7302 -0.9295
 2274SOL    MW4 9096   2.353   2.234   4.614 -0.2683 -0.2062 -0.2736
 2275SOL     OW 9097   2.093   0.216   4.355 -0.1860  0.1260  0.3225
 2275SOL    HW2 9098   2.098   0.158   4.280 -1.5145  0.1527  0.2062
 2275SOL    HW3 9099   2.140   0.295   4.328  0.9720 -0.5871  0.2151
 2275SOL    MW4 9100   2.100   0.219   4.342 -0.2085  0.0355  0.2930
 2276SOL     OW 9101   3.589   0.464   4.478 -0.0551 -0.4617  0.3810
 2276SOL    HW2 9102   3.570   0.418   4.396  0.8399 -0.6840  0.2995
 2276SOL    HW3 9103   3.504   0.497   4.507 -0.5079 -1.1130 -0.1960
 2276SOL    MW4 9104   3.575   0.463   4.471  0.0032 -0.5769  0.2941
 2277SOL     OW 9105   1.669   4.386   3.936  0.2668  0.0860 -0.2924
 2277SOL    HW2 9106   1.749   4.333   3.942 -0.0389 -0.4723 -1.0508
 2277SOL    HW3 9107   1.600   4.323   3.914 -0.4026  0.5505  0.4598
 2277SOL    MW4 9108   1.670   4.370   3.934  0.1381  0.0736 -0.2932
 2278SOL     OW 9109   3.445   3.048   4.236  0.3037 -0.4138  0.7826
 2278SOL    HW2 9110   3.531   3.086   4.256  0.9375 -0.6277 -1.3113
 2278SOL    HW3 9111   3.393   3.123   4.208  0.2019 -0.4646  0.8389
 2278SOL    MW4 9112   3.450   3.063   4.235  0.3739 -0.4487  0.5138
 2279SOL     OW 9113   4.298   2.699   4.158 -0.6824  0.0705  0.4484
 2279SOL    HW2 9114   4.366   2.679   4.222 -0.3517  0.1373  0.1227
 2279SOL    HW3 9115   4.269   2.613   4.127 -0.4615  0.0494  0.2956
 2279SOL    MW4 9116   4.303   2.685   4.162 -0.6096  0.0766  0.3853
 2280SOL     OW 9117   2.452   3.361   3.830 -0.3518 -0.5992  0.4195
 2280SOL    HW2 9118   2.425   3.305   3.757  0.6792 -0.8571  0.2282
 2280SOL    HW3 9119   2.522   3.312   3.874 -0.6269 -0.2275  1.2820
 2280SOL    MW4 9120   2.458   3.347   3.826 -0.2521 -0.5841  0.5081
 2281SOL     OW 9121   0.061   2.290   4.091 -0.3170  0.0315 -0.0508
 2281SOL    HW2 9122  -0.018   2.269   4.140  0.4894 -0.9039  0.8598
 2281SOL    HW3 9123   0.054   2.384   4.073 -1.3635  0.0635  0.5096
 2281SOL    MW4 9124   0.050   2.300   4.095 -0.3487 -0.0877  0.1433
 2282SOL     OW 9125   3.843   2.570   3.703  0.4092  0.2896 -0.6395
 2282SOL    HW2 9126   3.831   2.664   3.692  0.7384  0.4784  0.5493
 2282SOL    HW3 9127   3.935   2.555   3.683  0.6683  0.4186  0.4551
 2282SOL    MW4 9128   3.853   2.580   3.699  0.4868  0.3315 -0.3382
 2283SOL     OW 9129   3.926   2.348   4.297  0.0981 -0.3258  0.2549
 2283SOL    HW2 9130   3.905   2.424   4.352  1.0239 -0.8455  1.3247
 2283SOL    HW3 9131   4.010   2.317   4.329 -0.1220 -1.6206 -0.4057
 2283SOL    MW4 9132   3.934   2.354   4.308  0.1912 -0.5652  0.3089
 2284SOL     OW 9133   1.595   4.555   4.159  0.1672  0.1314  0.4017
 2284SOL    HW2 9134   1.586   4.494   4.232 -1.3227  0.3065  0.3798
 2284SOL    HW3 9135   1.621   4.500   4.085  1.0264 -0.1415  0.9047
 2284SOL    MW4 9136   1.597   4.540   4.159  0.0840  0.1185  0.4651
 2285SOL     OW 9137   3.086   3.362   3.606  0.0563 -0.2630 -0.0411
 2285SOL    HW2 9138   3.144   3.312   3.663  0.1645 -0.6807 -0.5133
 2285SOL    HW3 9139   3.108   3.454   3.624  0.7228 -0.4133 -0.0649
 2285SOL    MW4 9140   3.096   3.368   3.616  0.1585 -0.3380 -0.1065
 2286SOL     OW 9141   4.204   3.967   4.274  0.1829  0.1679  0.2806
 2286SOL    HW2 9142   4.297   3.948   4.277  0.3505  1.0767  0.8854
 2286SOL    HW3 9143   4.170   3.936   4.358 -0.1054 -0.3792 -0.0342
 2286SOL    MW4 9144   4.211   3.960   4.285  0.1670  0.2157  0.3188
 2287SOL     OW 9145   3.209   1.012   4.237 -0.5612  0.6194  0.0293
 2287SOL    HW2 9146   3.167   1.090   4.273 -1.7385 -0.4233  0.9977
 2287SOL    HW3 9147   3.299   1.016   4.269 -0.4119  1.9451 -0.5327
 2287SOL    MW4 9148   3.215   1.023   4.246 -0.6968  0.6567  0.0829
 2288SOL     OW 9149   2.157   3.354   4.392  0.1135 -0.0450 -0.2252
 2288SOL    HW2 9150   2.143   3.416   4.464  0.1987 -0.1561 -0.1127
 2288SOL    HW3 9151   2.093   3.380   4.326  0.3186  0.3233 -0.2820
 2288SOL    MW4 9152   2.146   3.366   4.393  0.1518 -0.0110 -0.2179
 2289SOL     OW 9153   2.948   1.473   4.269  0.4206  0.5587  0.0135
 2289SOL    HW2 9154   2.960   1.449   4.177 -0.4611  0.8319 -0.1787
 2289SOL    HW3 9155   2.895   1.402   4.305  0.0808  0.8625  0.1092
 2289SOL    MW4 9156   2.942   1.460   4.261  0.2594  0.6348  0.0008
 2290SOL     OW 9157   4.085   4.518   3.801 -0.2373  0.3070 -0.1680
 2290SOL    HW2 9158   4.097   4.546   3.892 -2.8986  0.3030  0.2285
 2290SOL    HW3 9159   3.991   4.501   3.794  0.2288 -1.4725 -2.4299
 2290SOL    MW4 9160   4.074   4.519   3.812 -0.5269  0.0717 -0.4141
 2291SOL     OW 9161   3.934   0.933   4.194 -0.0240 -0.4231  0.2833
 2291SOL    HW2 9162   3.994   0.935   4.119  1.2457 -1.2815  1.2589
 2291SOL    HW3 9163   3.972   0.995   4.257 -0.5802 -0.4045  0.6023
 2291SOL    MW4 9164   3.947   0.942   4.192  0.0701 -0.5339  0.4541
 2292SOL     OW 9165   4.266   3.319   3.737 -0.1235  0.1470  0.4933
 2292SOL    HW2 9166   4.253   3.309   3.831  1.4405  0.2380  0.7308
 2292SOL    HW3 9167   4.268   3.414   3.723  2.0537  0.1582  0.7363
 2292SOL    MW4 9168   4.264   3.330   3.747  0.3701  0.1605  0.5567
 2293SOL     OW 9169   3.662   3.937   3.615  0.1637 -0.0903 -0.1350
 2293SOL    HW2 9170   3.585   3.882   3.606  0.4541 -0.6048  0.4822
 2293SOL    HW3 9171   3.685   3.932   3.708  1.5866 -0.8198 -0.5146
 2293SOL    MW4 9172   3.655   3.929   3.626  0.3897 -0.2545 -0.1036
 2294SOL     OW 9173   1.142   1.332   4.144 -0.8236  0.2697  0.3410
 2294SOL    HW2 9174   1.222   1.280   4.140 -0.6350  0.1124  4.3512
 2294SOL    HW3 9175   1.071   1.269   4.135 -0.5582 -0.1020  0.9022
 2294SOL    MW4 9176   1.143   1.317   4.142 -0.7637  0.1999  0.9442
 2295SOL     OW 9177   2.610   0.339   3.762 -0.2010  0.1280 -0.0197
 2295SOL    HW2 9178   2.638   0.372   3.847  0.6894 -0.7838  0.0405
 2295SOL    HW3 9179   2.691   0.317   3.716 -0.7154 -0.3467 -0.7175
 2295SOL    MW4 9180   2.624   0.341   3.767 -0.1514 -0.0549 -0.1038
 2296SOL     OW 9181   2.684   0.188   4.703  0.0958  0.2029 -0.0998
 2296SOL    HW2 9182   2.680   0.159   4.794  0.2086 -1.2085 -0.5317
 2296SOL    HW3 9183   2.655   0.113   4.652 -0.0992  1.0223 -1.2304
 2296SOL    MW4 9184   2.680   0.175   4.708  0.0849  0.1248 -0.3060
 2297SOL     OW 9185   1.392   1.228   4.113 -0.1708  0.3441  0.1270
 2297SOL    HW2 9186   1.397   1.153   4.172 -1.0591 -0.7396 -1.1503
 2297SOL    HW3 9187   1.467   1.217   4.054  0.9161  1.6091  1.2310
 2297SOL    MW4 9188   1.403   1.217   4.113 -0.1446  0.3680  0.1041
 2298SOL     OW 9189   2.599   2.924   3.528  0.4193 -0.0773 -0.5874
 2298SOL    HW2 9190   2.627   3.016   3.529 -1.1281  0.4467 -1.9427
 2298SOL    HW3 9191   2.655   2.881   3.593 -0.0903  2.2115  1.4765
 2298SOL    MW4 9192   2.610   2.931   3.537  0.1479  0.2938 -0.4939
 2299SOL     OW 9193   1.335   1.677   4.345  0.0642  0.4297 -0.2151
 2299SOL    HW2 9194   1.373   1.621   4.277  0.2049  0.2053  0.0498
 2299SOL    HW3 9195   1.310   1.757   4.298 -0.4194  0.0260 -0.6512
 2299SOL    MW4 9196   1.337   1.680   4.330  0.0190  0.3468 -0.2377
 2300SOL     OW 9197   4.025   1.771   4.041  0.3948  0.1708 -0.1819
 2300SOL    HW2 9198   4.044   1.786   4.134  0.0645  1.5626 -0.3194
 2300SOL    HW3 9199   4.110   1.755   4.001  0.6393  0.4588  0.2143
 2300SOL    MW4 9200   4.039   1.771   4.048  0.3835  0.3924 -0.1478
 2301SOL     OW 9201   0.393   0.130   3.616 -0.3379  0.2703  0.3328
 2301SOL    HW2 9202   0.362   0.216   3.588  0.4074  0.0826 -1.0753
 2301SOL    HW3 9203   0.484   0.144   3.641 -0.3101 -0.0420  0.4094
 2301SOL    MW4 9204   0.401   0.143   3.616 -0.2359  0.2043  0.1571
 2302SOL     OW 9205   1.540   2.119   4.441  0.5869 -0.1106  0.0887
 2302SOL    HW2 9206   1.622   2.070   4.442  1.0664  0.6720 -0.1773
 2302SOL    HW3 9207   1.536   2.160   4.528 -0.7250 -2.0830  0.9950
 2302SOL    MW4 9208   1.550   2.118   4.453  0.4771 -0.2676  0.1732
 2303SOL     OW 9209   3.312   0.518   4.529 -0.0367 -0.2119  0.2057
 2303SOL    HW2 9210   3.316   0.603   4.486 -0.2573 -0.7022 -0.7808
 2303SOL    HW3 9211   3.267   0.461   4.467  0.5596 -1.1781  0.6426
 2303SOL    MW4 9212   3.307   0.522   4.516  0.0129 -0.4040  0.1332
 2304SOL     OW 9213   3.149   2.701   3.235 -0.0954 -0.4544 -0.1647
 2304SOL    HW2 9214   3.227   2.749   3.262 -0.4626  0.2255 -0.2989
 2304SOL    HW3 9215   3.079   2.736   3.290 -0.6089  0.0534 -1.1179
 2304SOL    MW4 9216   3.150   2.712   3.246 -0.2116 -0.2977 -0.3082
 2305SOL     OW 9217   0.745   4.148   4.339 -0.4272 -0.0032 -0.2316
 2305SOL    HW2 9218   0.662   4.152   4.387 -0.8254 -0.8574 -0.8331
 2305SOL    HW3 9219   0.721   4.117   4.252  0.3547  1.0774 -0.8449
 2305SOL    MW4 9220   0.731   4.145   4.334 -0.3766  0.0267 -0.3919
 2306SOL     OW 9221   0.701   0.475   3.645  0.0122  0.2853  0.0032
 2306SOL    HW2 9222   0.624   0.493   3.699 -0.4096 -0.0581 -0.4680
 2306SOL    HW3 9223   0.769   0.533   3.678  0.0275 -0.5588  1.4810
 2306SOL    MW4 9224   0.700   0.485   3.656 -0.0414  0.1286  0.1360
 2307SOL     OW 9225   0.584   3.184   4.427  0.2540 -0.1621  0.1849
 2307SOL    HW2 9226   0.537   3.103   4.444 -1.0242  0.7505  1.0678
 2307SOL    HW3 9227   0.517   3.252   4.427  1.5773  1.1853  1.6084
 2307SOL    MW4 9228   0.569   3.183   4.429  0.2599  0.1361  0.4892
 2308SOL     OW 9229   0.327   0.207   4.239 -0.8185 -0.2229 -0.2251
 2308SOL    HW2 9230   0.334   0.185   4.146  0.8987  0.7172 -0.3262
 2308SOL    HW3 9231   0.387   0.147   4.283 -0.7781  0.1005  0.1656
 2308SOL    MW4 9232   0.336   0.196   4.233 -0.5866 -0.0562 -0.1869
 2309SOL     OW 9233   1.286   2.953   4.159  0.8761  0.1699 -0.0403
 2309SOL    HW2 9234   1.349   2.964   4.088 -0.9537  2.1366 -1.4096
 2309SOL    HW3 9235   1.231   2.880   4.132  1.1018 -0.0365  0.0559
 2309SOL    MW4 9236   1.287   2.945   4.146  0.6645  0.4021 -0.2083
 2310SOL     OW 9237   0.651   0.188   3.682 -0.5793  0.0466  0.2086
 2310SOL    HW2 9238   0.626   0.203   3.773  0.8265 -0.4988  0.6911
 2310SOL    HW3 9239   0.699   0.267   3.657  0.9348 -0.7249  0.6348
 2310SOL    MW4 9240   0.654   0.201   3.691 -0.1941 -0.1271  0.3285
 2311SOL     OW 9241   2.507   2.118   3.854 -0.2984  0.5395  0.0968
 2311SOL    HW2 9242   2.484   2.063   3.930  0.3494 -0.3592 -0.3530
 2311SOL    HW3 9243   2.602   2.129   3.860 -0.1730  0.0437 -0.8570
 2311SOL    MW4 9244   2.516   2.112   3.865 -0.1964  0.3555 -0.0884
 2312SOL     OW 9245   0.323   3.414   4.121  0.1271 -0.6508 -0.2415
 2312SOL    HW2 9246   0.290   3.485   4.066 -1.2431  0.6356  2.1617
 2312SOL    HW3 9247   0.267   3.339   4.101  0.8274 -0.7489 -1.9192
 2312SOL    MW4 9248   0.312   3.413   4.112  0.0387 -0.4940 -0.1458
 2313SOL     OW 9249   0.913   4.330   3.223 -0.2349 -0.2534 -0.4078
 2313SOL    HW2 9250   0.898   4.254   3.279 -0.4172  0.4612  0.5364
 2313SOL    HW3 9251   0.912   4.295   3.134 -1.3395 -1.1884 -0.0473
 2313SOL    MW4 9252   0.911   4.315   3.219 -0.4047 -0.2825 -0.2357
 2314SOL     OW 9253   0.514   4.247   3.248  0.1985  0.2461  0.0386
 2314SOL    HW2 9254   0.494   4.251   3.155 -2.9793  0.0529  0.6657
 2314SOL    HW3 9255   0.566   4.326   3.265 -1.2682  1.5732 -1.4352
 2314SOL    MW4 9256   0.518   4.258   3.238 -0.4143  0.3957 -0.0731
 2315SOL     OW 9257   1.285   1.095   3.293  0.0245 -0.4262 -0.4574
 2315SOL    HW2 9258   1.276   1.015   3.345 -0.6665 -1.1169 -1.6112
 2315SOL    HW3 9259   1.370   1.131   3.318  0.6433 -1.8805 -0.4030
 2315SOL    MW4 9260   1.295   1.089   3.303  0.0150 -0.7092 -0.6025
 2316SOL     OW 9261   2.705   3.999   3.317 -0.1440  0.2894 -0.3237
 2316SOL    HW2 9262   2.709   3.983   3.411  0.7644 -0.1503 -0.4288
 2316SOL    HW3 9263   2.628   3.951   3.287  0.6449 -1.1425 -0.0975
 2316SOL    MW4 9264   2.695   3.991   3.325  0.0799  0.0424 -0.3077
 2317SOL     OW 9265   4.341   2.946   4.044  0.2349  0.2428  0.2654
 2317SOL    HW2 9266   4.319   2.944   3.951  1.1850 -1.0962  0.0676
 2317SOL    HW3 9267   4.303   2.865   4.079 -0.7477  1.0859  1.1989
 2317SOL    MW4 9268   4.333   2.935   4.037  0.2306  0.1774  0.3624
 2318SOL     OW 9269   0.740   3.982   4.085  0.4694 -0.5806 -0.1827
 2318SOL    HW2 9270   0.707   3.967   3.997  0.6746  0.7297 -0.4881
 2318SOL    HW3 9271   0.819   3.928   4.091  2.3954  1.9830 -1.9930
 2318SOL    MW4 9272   0.746   3.973   4.074  0.7506 -0.0695 -0.4619
 2319SOL     OW 9273   4.442   0.267   3.965  0.0708 -0.8933 -0.4425
 2319SOL    HW2 9274   4.459   0.173   3.974  1.4121 -0.6685 -0.5201
 2319SOL    HW3 9275   4.520   0.302   3.923  0.2445  0.5031  0.9684
 2319SOL    MW4 9276   4.454   0.259   3.961  0.2707 -0.6794 -0.2666
 2320SOL     OW 9277   0.537   3.580   4.559 -0.1649 -0.1987 -0.1814
 2320SOL    HW2 9278   0.507   3.671   4.553  1.3623  0.3915  0.8176
 2320SOL    HW3 9279   0.632   3.586   4.561 -0.0790 -1.7071  1.4710
 2320SOL    MW4 9280   0.545   3.593   4.559  0.0479 -0.3198  0.1684
 2321SOL     OW 9281   0.482   2.922   4.505  0.2442 -0.2678  0.1034
 2321SOL    HW2 9282   0.394   2.939   4.540  0.2220 -1.2838  0.5598
 2321SOL    HW3 9283   0.539   2.925   4.581  0.3977 -1.0908  0.0203
 2321SOL    MW4 9284   0.478   2.925   4.519  0.2615 -0.5105  0.1527
 2322SOL     OW 9285   0.463   1.441   3.781  0.1359  0.2305  0.0976
 2322SOL    HW2 9286   0.465   1.351   3.811  1.1852  0.0505 -0.5093
 2322SOL    HW3 9287   0.541   1.482   3.819 -0.2843  0.8580  0.2996
 2322SOL    MW4 9288   0.473   1.435   3.790  0.2189  0.2895  0.0442
 2323SOL     OW 9289   2.408   0.497   3.684 -0.2912 -0.1861  0.3435
 2323SOL    HW2 9290   2.402   0.520   3.591  3.8865  0.9479  0.2394
 2323SOL    HW3 9291   2.483   0.438   3.690 -0.0213  0.3388  3.0573
 2323SOL    MW4 9292   2.417   0.492   3.673  0.2956  0.0328  0.6878
 2324SOL     OW 9293   0.810   2.946   4.047  0.5480  0.5195  0.2703
 2324SOL    HW2 9294   0.895   2.988   4.061  0.1902  1.2258  0.3443
 2324SOL    HW3 9295   0.751   2.990   4.108  0.1300  0.0234  0.2283
 2324SOL    MW4 9296   0.813   2.957   4.057  0.4457  0.5473  0.2745
 2325SOL     OW 9297   2.014   0.750   3.890  0.4785  0.2495 -0.1923
 2325SOL    HW2 9298   1.954   0.681   3.863  2.0872 -0.7432 -1.2642
 2325SOL    HW3 9299   2.086   0.704   3.934  0.9305  1.3485  0.2494
 2325SOL    MW4 9300   2.016   0.735   3.892  0.7504  0.2635 -0.2755
 2326SOL     OW 9301   0.324   3.497   4.726  0.4316 -0.3273 -0.4176
 2326SOL    HW2 9302   0.346   3.404   4.732  0.9461 -0.1191  1.1246
 2326SOL    HW3 9303   0.407   3.540   4.705  0.0167 -0.2940 -2.0694
 2326SOL    MW4 9304   0.338   3.490   4.724  0.4448 -0.2955 -0.4320
 2327SOL     OW 9305   3.629   2.053   4.838 -0.0658 -0.7707  0.3598
 2327SOL    HW2 9306   3.673   2.039   4.754  0.1628  0.5823  0.2437
 2327SOL    HW3 9307   3.686   2.112   4.886 -1.8405  1.2071  0.1045
 2327SOL    MW4 9308   3.642   2.059   4.833 -0.2698 -0.3313  0.3108
 2328SOL     OW 9309   1.202   0.520   3.717 -0.2549  0.5546  0.7118
 2328SOL    HW2 9310   1.212   0.608   3.681 -1.1703  0.6236  0.6093
 2328SOL    HW3 9311   1.220   0.462   3.643 -1.4174  0.6861  0.3188
 2328SOL    MW4 9312   1.206   0.524   3.703 -0.5291  0.5811  0.6464
 2329SOL     OW 9313   0.831   3.557   4.525  0.3104 -0.3218  0.3440
 2329SOL    HW2 9314   0.837   3.466   4.497  2.2579 -0.9511  2.6744
 2329SOL    HW3 9315   0.890   3.604   4.466 -1.7345 -0.2986 -1.7520
 2329SOL    MW4 9316   0.840   3.551   4.513  0.2975 -0.4018  0.3749
 2330SOL     OW 9317   0.936   1.610   4.257 -0.1022 -0.7830 -0.2328
 2330SOL    HW2 9318   0.984   1.682   4.217 -0.9992  0.9143  1.6465
 2330SOL    HW3 9319   0.999   1.569   4.316  0.4570 -1.6785 -1.4234
 2330SOL    MW4 9320   0.951   1.614   4.260 -0.1467 -0.6772 -0.1420
 2331SOL     OW 9321   1.465   3.499   4.640 -0.4582 -0.2519  0.1059
 2331SOL    HW2 9322   1.531   3.432   4.623 -0.1426 -0.4317  1.9476
 2331SOL    HW3 9323   1.433   3.524   4.554  0.3808 -1.8157 -0.6681
 2331SOL    MW4 9324   1.469   3.494   4.627 -0.3059 -0.4820  0.2467
 2332SOL     OW 9325   3.280   1.475   3.945  0.4016 -0.4306 -0.2322
 2332SOL    HW2 9326   3.323   1.438   4.022  0.4907 -1.0643 -0.5861
 2332SOL    HW3 9327   3.352   1.507   3.891  0.3165  0.4133  0.1499
 2332SOL    MW4 9328   3.295   1.474   3.948  0.4021 -0.4029 -0.2285
 2333SOL     OW 9329   3.034   0.629   4.621 -0.2914  0.0426 -0.0653
 2333SOL    HW2 9330   2.973   0.559   4.643 -0.2505  0.6149  2.0471
 2333SOL    HW3 9331   3.116   0.584   4.599 -0.3987 -0.5938  0.8285
 2333SOL    MW4 9332   3.037   0.614   4.621 -0.3002  0.0341  0.3314
 2334SOL     OW 9333   0.773   2.725   4.201  0.2460 -0.1505 -0.1357
 2334SOL    HW2 9334   0.796   2.785   4.130 -1.5342  0.9370  0.1829
 2334SOL    HW3 9335   0.727   2.653   4.157  2.6220 -1.4719 -0.5528
 2334SOL    MW4 9336   0.770   2.724   4.186  0.3246 -0.1813 -0.1487
 2335SOL     OW 9337   2.639   4.357   4.147 -0.4357 -0.2201 -0.0304
 2335SOL    HW2 9338   2.568   4.415   4.176  0.4656  0.3981  0.9357
 2335SOL    HW3 9339   2.670   4.314   4.227 -0.3914 -1.2655 -0.5954
 2335SOL    MW4 9340   2.634   4.359   4.161 -0.3110 -0.2765  0.0225
 2336SOL     OW 9341   1.361   1.587   3.432  0.5980 -0.7732  0.1838
 2336SOL    HW2 9342   1.281   1.557   3.389  0.0385 -0.7750  1.1970
 2336SOL    HW3 9343   1.431   1.541   3.387 -0.1197 -2.3097  0.5918
 2336SOL    MW4 9344   1.360   1.577   3.420  0.4295 -0.9762  0.3713
 2337SOL     OW 9345   3.689   4.204   4.498 -0.1816  0.2782  0.3050
 2337SOL    HW2 9346   3.746   4.262   4.549  1.1852 -0.9042  0.1498
 2337SOL    HW3 9347   3.749   4.152   4.445 -1.5542  1.1151 -2.1535
 2337SOL    MW4 9348   3.705   4.205   4.498 -0.1824  0.2326 -0.0399
 2338SOL     OW 9349   0.228   0.695   3.253 -0.0341 -0.0081 -0.1469
 2338SOL    HW2 9350   0.154   0.755   3.262 -0.3623 -0.1307 -1.8142
 2338SOL    HW3 9351   0.300   0.738   3.298 -0.8469  0.6187  0.5598
 2338SOL    MW4 9352   0.228   0.708   3.260 -0.1846  0.0584 -0.2736
 2339SOL     OW 9353   2.994   4.640   3.318 -0.4462  0.1844  0.2473
 2339SOL    HW2 9354   2.907   4.680   3.321 -1.0110 -0.8791 -1.2811
 2339SOL    HW3 9355   3.021   4.648   3.227 -0.2834 -2.2162  0.0502
 2339SOL    MW4 9356   2.986   4.646   3.306 -0.4993 -0.2726  0.0196
 2340SOL     OW 9357   2.365   1.370   4.138 -0.1374 -0.1110 -0.0253
 2340SOL    HW2 9358   2.448   1.408   4.108 -0.8812  1.4136 -0.1910
 2340SOL    HW3 9359   2.357   1.398   4.229  0.0815 -1.2177  0.3376
 2340SOL    MW4 9360   2.375   1.379   4.146 -0.2066 -0.0558  0.0007
 2341SOL     OW 9361   4.219   1.404   4.283  0.6019 -0.4474  0.4796
 2341SOL    HW2 9362   4.139   1.428   4.330  0.9904  0.1573  0.8413
 2341SOL    HW3 9363   4.188   1.363   4.202 -0.0862  1.6150 -0.3338
 2341SOL    MW4 9364   4.204   1.402   4.279  0.5624 -0.0955  0.4200
 2342SOL     OW 9365   0.777   1.966   4.368  0.2491  0.0145 -0.4921
 2342SOL    HW2 9366   0.759   1.881   4.409 -0.8217  0.3883 -0.1512
 2342SOL    HW3 9367   0.737   1.959   4.281  1.2649 -0.2723 -0.9375
 2342SOL    MW4 9368   0.769   1.954   4.362  0.2419  0.0260 -0.5059
 2343SOL     OW 9369   3.685   3.208   3.789 -0.4798  0.2291 -0.0334
 2343SOL    HW2 9370   3.608   3.232   3.841  0.1981  0.4817  0.8515
 2343SOL    HW3 9371   3.707   3.288   3.740 -0.1803  0.4494  0.4628
 2343SOL    MW4 9372   3.678   3.222   3.789 -0.3508  0.2915  0.1488
 2344SOL     OW 9373   4.059   0.905   3.324  0.0853 -0.6180  0.4743
 2344SOL    HW2 9374   4.127   0.837   3.316  0.8843  0.3376 -0.8434
 2344SOL    HW3 9375   4.055   0.922   3.418  0.9422 -1.4172  0.6700
 2344SOL    MW4 9376   4.067   0.898   3.336  0.3038 -0.5974  0.3263
 2345SOL     OW 9377   3.796   3.429   3.667 -0.4631  0.3153 -0.2004
 2345SOL    HW2 9378   3.869   3.369   3.686 -0.6016  0.0788 -0.4232
 2345SOL    HW3 9379   3.796   3.439   3.572 -0.7174  0.3256 -0.1996
 2345SOL    MW4 9380   3.806   3.423   3.657 -0.5149  0.2855 -0.2297
 2346SOL     OW 9381   3.787   1.251   3.391 -0.1372 -0.4045  0.1101
 2346SOL    HW2 9382   3.721   1.204   3.341  0.2112  0.8012 -1.5495
 2346SOL    HW3 9383   3.870   1.231   3.347  0.2090  0.4440  0.3554
 2346SOL    MW4 9384   3.789   1.242   3.378 -0.0456 -0.1335 -0.0765
 2347SOL     OW 9385   3.347   1.327   3.311 -0.2012 -0.0558  0.1243
 2347SOL    HW2 9386   3.426   1.274   3.299  0.3331  1.0524 -1.4677
 2347SOL    HW3 9387   3.361   1.404   3.257 -3.2676 -0.7952 -1.9015
 2347SOL    MW4 9388   3.359   1.330   3.302 -0.5353 -0.0072 -0.3530
 2348SOL     OW 9389   4.184   4.283   4.424  0.0824  0.2112 -0.2597
 2348SOL    HW2 9390   4.216   4.365   4.387  0.8752 -0.5556 -1.2736
 2348SOL    HW3 9391   4.262   4.228   4.432 -0.2664 -0.0633  1.4479
 2348SOL    MW4 9392   4.198   4.287   4.420  0.1410  0.0738 -0.1682
 2349SOL     OW 9393   2.435   0.302   4.596  0.3684  0.1352 -0.1163
 2349SOL    HW2 9394   2.520   0.273   4.629  0.2290 -0.3353 -0.1713
 2349SOL    HW3 9395   2.439   0.398   4.600  0.5659  0.0944  0.7473
 2349SOL    MW4 9396   2.446   0.311   4.601  0.3761  0.0677 -0.0096
 2350SOL     OW 9397   3.817   3.933   3.272  0.1317 -0.3700  0.0200
 2350SOL    HW2 9398   3.849   3.873   3.339 -0.2690  0.7942  1.2821
 2350SOL    HW3 9399   3.742   3.977   3.313 -1.1289 -0.7993 -1.7715
 2350SOL    MW4 9400   3.811   3.931   3.286 -0.0875 -0.2731 -0.0498
 2351SOL     OW 9401   3.552   1.941   3.740 -0.1420 -0.1821  0.2056
 2351SOL    HW2 9402   3.596   1.865   3.703  0.3225  0.7400 -1.1757
 2351SOL    HW3 9403   3.471   1.949   3.690 -0.4056 -0.0380  0.6540
 2351SOL    MW4 9404   3.547   1.932   3.729 -0.1155 -0.0414  0.0825
 2352SOL     OW 9405   2.457   2.435   3.801  0.5863 -0.5843  0.1687
 2352SOL    HW2 9406   2.450   2.343   3.826  0.6642 -0.1210  1.9955
 2352SOL    HW3 9407   2.403   2.443   3.723 -0.3638 -1.9364  0.6597
 2352SOL    MW4 9408   2.449   2.424   3.794  0.4712 -0.7015  0.4745
 2353SOL     OW 9409   0.444   2.379   4.121  0.1520 -0.1547 -0.1456
 2353SOL    HW2 9410   0.530   2.400   4.086 -0.5920 -0.2725 -2.0730
 2353SOL    HW3 9411   0.389   2.362   4.044 -1.4174 -0.7709  1.0738
 2353SOL    MW4 9412   0.448   2.380   4.106 -0.1532 -0.2515 -0.2390
 2354SOL     OW 9413   1.780   3.719   4.412  0.3745  0.1186 -0.2690
 2354SOL    HW2 9414   1.797   3.772   4.334 -2.0917  0.1186 -0.8343
 2354SOL    HW3 9415   1.850   3.744   4.473  1.6267  1.0016 -2.0251
 2354SOL    MW4 9416   1.792   3.730   4.410  0.2143  0.2351 -0.5753
 2355SOL     OW 9417   2.223   0.433   4.252 -0.2567 -0.0223 -0.5649
 2355SOL    HW2 9418   2.221   0.494   4.178 -0.1302  0.9214  0.2036
 2355SOL    HW3 9419   2.313   0.438   4.284 -0.0878 -1.0587 -0.8588
 2355SOL    MW4 9420   2.234   0.442   4.247 -0.2177 -0.0345 -0.5023
 2356SOL     OW 9421   4.276   4.597   3.311 -0.2229  0.2622  0.4526
 2356SOL    HW2 9422   4.287   4.508   3.345 -1.6267  0.6540  2.0361
 2356SOL    HW3 9423   4.353   4.645   3.342  0.8744 -0.5512 -0.9784
 2356SOL    MW4 9424   4.287   4.592   3.320 -0.2634  0.2066  0.4727
 2357SOL     OW 9425   4.396   1.675   3.600  0.0464  0.0350  0.5701
 2357SOL    HW2 9426   4.445   1.653   3.521 -2.0709 -0.2509 -0.7115
 2357SOL    HW3 9427   4.396   1.770   3.604  1.7062  0.0186  1.2491
 2357SOL    MW4 9428   4.403   1.684   3.590 -0.0139 -0.0049  0.4906
 2358SOL     OW 9429   2.729   1.916   4.472  0.2960  0.4035  0.0362
 2358SOL    HW2 9430   2.745   1.822   4.487  1.7068  0.7026  0.4909
 2358SOL    HW3 9431   2.634   1.926   4.484  0.0912 -1.0130 -0.2779
 2358SOL    MW4 9432   2.718   1.905   4.476  0.4551  0.2560  0.0548
 2359SOL     OW 9433   3.425   3.665   4.251  0.3809 -0.1739  0.3175
 2359SOL    HW2 9434   3.505   3.660   4.304  0.4101 -0.0599  0.2854
 2359SOL    HW3 9435   3.365   3.604   4.292  0.4976 -0.2867  0.3212
 2359SOL    MW4 9436   3.428   3.656   4.263  0.4001 -0.1738  0.3137
 2360SOL     OW 9437   2.168   2.381   4.464  0.4512 -0.0202 -0.7637
 2360SOL    HW2 9438   2.079   2.380   4.430  0.2374  1.4217 -0.2649
 2360SOL    HW3 9439   2.223   2.370   4.386 -0.1160  0.3600 -1.2200
 2360SOL    MW4 9440   2.164   2.379   4.449  0.3481  0.2202 -0.7581
 2361SOL     OW 9441   3.310   4.450   3.252 -0.2927  0.5085  0.7418
 2361SOL    HW2 9442   3.329   4.524   3.195 -1.3770  1.0919  1.1289
 2361SOL    HW3 9443   3.327   4.483   3.340  0.9984 -0.2712  0.8037
 2361SOL    MW4 9444   3.315   4.464   3.256 -0.2654  0.4826  0.8010
 2362SOL     OW 9445   0.906   2.026   4.022 -0.2576  0.3640  0.0001
 2362SOL    HW2 9446   0.947   2.077   4.092 -0.4885 -0.6468  0.8740
 2362SOL    HW3 9447   0.924   2.076   3.942 -1.5157  2.4546  0.9868
 2362SOL    MW4 9448   0.913   2.040   4.020 -0.4540  0.5064  0.2456
 2363SOL     OW 9449   0.500   2.704   4.329  0.0103  0.4590 -0.4635
 2363SOL    HW2 9450   0.493   2.779   4.388  1.2767  0.1903  0.0410
 2363SOL    HW3 9451   0.593   2.701   4.305  0.2425 -1.7411  0.5851
 2363SOL    MW4 9452   0.512   2.713   4.333  0.2080  0.1333 -0.2586
 2364SOL     OW 9453   2.408   3.524   4.138 -0.4702 -0.3433 -0.5340
 2364SOL    HW2 9454   2.432   3.571   4.058  0.4583 -1.7862 -1.1304
 2364SOL    HW3 9455   2.366   3.444   4.107  0.2250 -1.0893  0.4045
 2364SOL    MW4 9456   2.406   3.519   4.123 -0.2560 -0.6321 -0.4889
 2365SOL     OW 9457   2.427   3.928   4.358  0.0514 -0.0179 -0.0010
 2365SOL    HW2 9458   2.464   3.932   4.269 -2.0138 -1.4603 -0.9554
 2365SOL    HW3 9459   2.417   3.834   4.375 -3.2385  0.3242  0.1820
 2365SOL    MW4 9460   2.431   3.916   4.349 -0.6552 -0.1631 -0.1028
 2366SOL     OW 9461   2.768   2.150   4.306 -0.2065 -0.1385 -0.2904
 2366SOL    HW2 9462   2.844   2.151   4.248 -0.5599 -0.4867 -0.7658
 2366SOL    HW3 9463   2.770   2.062   4.344 -0.3892 -0.1587 -0.3295
 2366SOL    MW4 9464   2.779   2.138   4.303 -0.2772 -0.1871 -0.3583
 2367SOL     OW 9465   2.942   2.525   4.391  0.1480 -0.2674 -0.8270
 2367SOL    HW2 9466   2.886   2.496   4.462  0.1589  0.5318 -0.4894
 2367SOL    HW3 9467   2.919   2.468   4.317 -0.7089 -0.3025 -0.5364
 2367SOL    MW4 9468   2.932   2.513   4.390  0.0364 -0.1666 -0.7441
 2368SOL     OW 9469   3.589   1.858   3.258 -0.1442  0.3327 -0.2519
 2368SOL    HW2 9470   3.580   1.770   3.294  0.5474  0.7598  0.9769
 2368SOL    HW3 9471   3.508   1.902   3.280  0.3508  0.6486  0.9361
 2368SOL    MW4 9472   3.577   1.852   3.265  0.0124  0.4307  0.0669
 2369SOL     OW 9473   3.298   4.143   4.722  0.2216  0.1262 -0.1677
 2369SOL    HW2 9474   3.387   4.109   4.707 -0.1283 -0.7732 -0.2543
 2369SOL    HW3 9475   3.279   4.120   4.813 -0.2123 -0.3667 -0.3822
 2369SOL    MW4 9476   3.307   4.135   4.732  0.1182 -0.0575 -0.2074
 2370SOL     OW 9477   2.288   2.649   4.442  0.1091  0.2931  0.1524
 2370SOL    HW2 9478   2.373   2.607   4.435  0.6442  1.1885  1.0054
 2370SOL    HW3 9479   2.228   2.578   4.467  0.7003 -0.2491  0.0441
 2370SOL    MW4 9480   2.291   2.634   4.445  0.2577  0.3397  0.2507
 2371SOL     OW 9481   2.562   4.064   4.575  0.2689  0.0165  0.2517
 2371SOL    HW2 9482   2.605   4.137   4.531  0.5619 -0.6234 -0.5381
 2371SOL    HW3 9483   2.514   4.019   4.506 -1.6373  0.6737  1.1015
 2371SOL    MW4 9484   2.561   4.067   4.560  0.0561  0.0188  0.2596
 2372SOL     OW 9485   2.021   2.912   3.629 -0.0084 -0.2651 -0.7587
 2372SOL    HW2 9486   2.091   2.861   3.670 -1.2468 -0.5472  1.0929
 2372SOL    HW3 9487   2.037   3.002   3.658 -0.1351 -0.2575 -0.7103
 2372SOL    MW4 9488   2.032   2.918   3.638 -0.1885 -0.3013 -0.5081
 2373SOL     OW 9489   0.913   4.042   3.671  0.0965 -0.0714 -0.1056
 2373SOL    HW2 9490   0.968   3.973   3.708  0.8261  1.0640  0.9865
 2373SOL    HW3 9491   0.974   4.115   3.657 -0.6538  0.3371 -1.2693
 2373SOL    MW4 9492   0.928   4.042   3.674  0.0937  0.1323 -0.1150
 2374SOL     OW 9493   2.458   4.401   3.354 -0.0043  0.3838  0.2137
 2374SOL    HW2 9494   2.380   4.354   3.324 -0.0921  0.2004  0.7351
 2374SOL    HW3 9495   2.460   4.387   3.448  0.5196  0.6028  0.2357
 2374SOL    MW4 9496   2.448   4.393   3.362  0.0532  0.3885  0.2854
 2375SOL     OW 9497   4.076   2.761   4.327 -0.4718  0.3467 -0.1652
 2375SOL    HW2 9498   4.087   2.852   4.354 -1.0081  0.7488 -1.2492
 2375SOL    HW3 9499   4.150   2.744   4.268  0.0293 -0.1483  0.5974
 2375SOL    MW4 9500   4.087   2.771   4.323 -0.4764  0.3345 -0.2076
 2376SOL     OW 9501   0.306   2.291   4.571 -0.0653  0.5879  0.0834
 2376SOL    HW2 9502   0.382   2.235   4.553  0.0255  0.7015  0.1099
 2376SOL    HW3 9503   0.301   2.349   4.495  0.2797  1.0269  0.3895
 2376SOL    MW4 9504   0.315   2.291   4.559 -0.0078  0.6608  0.1273
 2377SOL     OW 9505   0.894   0.836   3.315  0.1879  0.7169 -0.3678
 2377SOL    HW2 9506   0.889   0.807   3.406 -0.3467  0.7433 -0.3883
 2377SOL    HW3 9507   0.966   0.785   3.278 -0.9808 -0.8563 -0.5058
 2377SOL    MW4 9508   0.903   0.826   3.322 -0.0368  0.5128 -0.3887
 2378SOL     OW 9509   0.282   3.051   3.277  0.3871 -0.1496  0.5746
 2378SOL    HW2 9510   0.276   3.043   3.182  2.1714  0.2968  0.4095
 2378SOL    HW3 9511   0.198   3.088   3.304  0.3198  0.8279 -0.9539
 2378SOL    MW4 9512   0.270   3.055   3.268  0.6136  0.0383  0.3511
 2379SOL     OW 9513   0.358   1.206   3.861  0.1023 -0.4323 -0.1206
 2379SOL    HW2 9514   0.292   1.220   3.793  1.1978 -0.0710 -1.1282
 2379SOL    HW3 9515   0.310   1.213   3.943 -1.4020 -1.8001 -0.8716
 2379SOL    MW4 9516   0.343   1.209   3.863  0.0483 -0.5651 -0.3526
 2380SOL     OW 9517   2.771   3.833   4.301 -0.2378 -0.3851  0.2787
 2380SOL    HW2 9518   2.704   3.870   4.242  0.1314 -0.3137 -0.1028
 2380SOL    HW3 9519   2.811   3.910   4.342 -2.3730 -0.5340  2.7388
 2380SOL    MW4 9520   2.767   3.848   4.298 -0.4708 -0.3953  0.5529
 2381SOL     OW 9521   1.327   4.447   4.118 -0.5662  0.6122 -0.2384
 2381SOL    HW2 9522   1.416   4.480   4.129  0.0168 -0.1245 -2.4340
 2381SOL    HW3 9523   1.287   4.507   4.055 -1.2236  0.2215 -0.2014
 2381SOL    MW4 9524   1.333   4.459   4.111 -0.5760  0.4635 -0.5232
 2382SOL     OW 9525   0.642   0.486   2.907 -0.1338 -0.3628  0.5435
 2382SOL    HW2 9526   0.645   0.579   2.931 -0.4963 -0.2828  0.2902
 2382SOL    HW3 9527   0.722   0.449   2.943 -0.7417 -0.2930  2.0232
 2382SOL    MW4 9528   0.653   0.494   2.915 -0.2619 -0.3430  0.7053
 2383SOL     OW 9529   2.716   3.220   3.285  0.1583  0.0291 -0.3345
 2383SOL    HW2 9530   2.700   3.314   3.287 -1.2132 -0.1676 -1.5014
 2383SOL    HW3 9531   2.640   3.183   3.240  0.0109 -1.7858  1.3148
 2383SOL    MW4 9532   2.704   3.228   3.279 -0.0421 -0.2363 -0.2709
 2384SOL     OW 9533   2.801   3.984   4.697 -0.5282 -0.1471  0.0726
 2384SOL    HW2 9534   2.820   3.891   4.689  0.3657  0.0567 -0.1976
 2384SOL    HW3 9535   2.713   3.994   4.659  0.1741 -0.5577 -1.6900
 2384SOL    MW4 9536   2.792   3.973   4.691 -0.3176 -0.1744 -0.1956
 2385SOL     OW 9537   3.371   1.369   3.588  0.1313  0.5626  0.0569
 2385SOL    HW2 9538   3.370   1.369   3.493 -0.1398  1.3226  0.0500
 2385SOL    HW3 9539   3.317   1.294   3.613 -2.7202  2.3866 -0.4017
 2385SOL    MW4 9540   3.364   1.359   3.579 -0.2807  0.9035 -0.0045
 2386SOL     OW 9541   0.907   1.905   3.261 -0.6742  0.4473  0.6049
 2386SOL    HW2 9542   0.905   1.812   3.283 -0.8994  0.0884 -0.8319
 2386SOL    HW3 9543   0.833   1.943   3.307 -0.9176 -0.1969  0.7470
 2386SOL    MW4 9544   0.897   1.898   3.270 -0.7361  0.3149  0.4341
 2387SOL     OW 9545   3.557   1.954   4.013  0.0755  0.0354 -0.1041
 2387SOL    HW2 9546   3.489   1.902   4.056  0.2322  0.2557  0.4144
 2387SOL    HW3 9547   3.540   1.943   3.920 -0.7269  0.1553  0.0196
 2387SOL    MW4 9548   3.546   1.946   4.007 -0.0097  0.0803 -0.0194
 2388SOL     OW 9549   4.014   0.406   3.248  0.3005 -0.1283 -0.3679
 2388SOL    HW2 9550   4.008   0.393   3.154  1.6223 -1.5166 -0.2768
 2388SOL    HW3 9551   4.010   0.318   3.285  2.4381  0.1905  0.7058
 2388SOL    MW4 9552   4.013   0.393   3.241  0.7569 -0.2694 -0.2142
 2389SOL     OW 9553   3.924   1.225   3.700  0.7277  0.5277  0.2751
 2389SOL    HW2 9554   3.939   1.199   3.791 -0.9114 -1.8064 -0.0913
 2389SOL    HW3 9555   3.948   1.148   3.649  0.0611  1.2637 -1.1829
 2389SOL    MW4 9556   3.929   1.212   3.706  0.4235  0.3169  0.0344
 2390SOL     OW 9557   1.834   3.939   4.248  0.2185 -0.0760 -0.1776
 2390SOL    HW2 9558   1.910   3.995   4.228 -1.0395  0.9534 -2.2040
 2390SOL    HW3 9559   1.759   3.997   4.237 -1.1121 -2.0941 -2.0362
 2390SOL    MW4 9560   1.834   3.954   4.244 -0.1231 -0.2065 -0.6902
 2391SOL     OW 9561   2.586   2.267   4.144 -0.2201  0.0126  0.1262
 2391SOL    HW2 9562   2.660   2.226   4.187 -0.5720 -0.3070  0.4266
 2391SOL    HW3 9563   2.576   2.219   4.062 -0.9893 -0.8835  0.7351
 2391SOL    MW4 9564   2.595   2.255   4.139 -0.3680 -0.1478  0.2462
 2392SOL     OW 9565   3.286   2.029   3.650  0.4073  0.2769  0.1938
 2392SOL    HW2 9566   3.322   2.114   3.673  0.8188  0.1204  0.1449
 2392SOL    HW3 9567   3.290   2.026   3.554 -1.3053  0.9303  0.0932
 2392SOL    MW4 9568   3.292   2.040   3.641  0.2356  0.3425  0.1741
 2393SOL     OW 9569   3.823   2.840   3.638  0.2640 -0.0146  0.0104
 2393SOL    HW2 9570   3.842   2.818   3.547  0.4872  1.6554 -0.3634
 2393SOL    HW3 9571   3.902   2.884   3.670 -0.3068  0.6252  0.5895
 2393SOL    MW4 9572   3.836   2.843   3.631  0.2181  0.2902  0.0375
 2394SOL     OW 9573   4.294   2.009   3.954  0.5201  0.5728  0.1577
 2394SOL    HW2 9574   4.202   2.036   3.946 -0.1172 -1.4468  0.1788
 2394SOL    HW3 9575   4.290   1.913   3.948  2.8515  0.5619 -1.8859
 2394SOL    MW4 9576   4.281   2.000   3.952  0.7436  0.3049 -0.1092
 2395SOL     OW 9577   1.315   3.629   4.440  0.5240 -0.1644 -0.4868
 2395SOL    HW2 9578   1.355   3.673   4.365  0.0628  1.6876  0.3241
 2395SOL    HW3 9579   1.221   3.640   4.427  0.4400  0.1695  0.3562
 2395SOL    MW4 9580   1.308   3.636   4.429  0.4521  0.1240 -0.2686
 2396SOL     OW 9581   2.519   1.742   4.120  0.0295 -0.0868  0.3696
 2396SOL    HW2 9582   2.596   1.794   4.099 -1.3942  1.0508 -2.4186
 2396SOL    HW3 9583   2.533   1.660   4.074  0.1152 -0.3362  0.8424
 2396SOL    MW4 9584   2.531   1.738   4.111 -0.1470  0.0304  0.0641
 2397SOL     OW 9585   1.224   1.904   4.226 -0.3510  0.2393  0.4308
 2397SOL    HW2 9586   1.168   1.859   4.163  0.8961 -1.2707  0.3469
 2397SOL    HW3 9587   1.270   1.971   4.174 -0.2624 -0.1581 -0.0066
 2397SOL    MW4 9588   1.223   1.907   4.211 -0.1747 -0.0124  0.3621
 2398SOL     OW 9589   3.250   0.408   4.106  0.1075  0.2211  0.1399
 2398SOL    HW2 9590   3.226   0.377   4.193 -1.3387  2.5030  0.6091
 2398SOL    HW3 9591   3.309   0.481   4.122  0.4258  0.1807 -0.8067
 2398SOL    MW4 9592   3.254   0.414   4.120 -0.0413  0.5168  0.0769
 2399SOL     OW 9593   1.694   1.433   4.097 -0.0966 -0.4208 -0.1945
 2399SOL    HW2 9594   1.747   1.492   4.044 -0.4530 -0.9682 -1.1732
 2399SOL    HW3 9595   1.756   1.369   4.130  0.0138 -0.5032 -0.5539
 2399SOL    MW4 9596   1.709   1.432   4.094 -0.1291 -0.5039 -0.3710
 2400SOL     OW 9597   2.004   0.728   3.237  0.3698 -0.3428 -0.5126
 2400SOL    HW2 9598   1.963   0.642   3.246 -1.1881  0.3271 -0.9059
 2400SOL    HW3 9599   2.027   0.734   3.145  0.9909 -0.5596 -0.3721
 2400SOL    MW4 9600   2.001   0.718   3.226  0.2462 -0.2830 -0.5460
 2401SOL     OW 9601   2.901   0.269   4.376  0.2827  0.4432 -0.3620
 2401SOL    HW2 9602   2.855   0.185   4.371 -0.4626  0.8704 -0.6962
 2401SOL    HW3 9603   2.856   0.325   4.313 -0.1701  1.5621  0.9471
 2401SOL    MW4 9604   2.889   0.265   4.367  0.1247  0.6472 -0.2334
 2402SOL     OW 9605   3.105   3.061   3.926 -0.2764 -0.2867  0.0663
 2402SOL    HW2 9606   3.167   3.109   3.871 -0.9989  0.8307  0.2231
 2402SOL    HW3 9607   3.160   2.999   3.975  0.4432 -0.8438 -1.4339
 2402SOL    MW4 9608   3.120   3.059   3.926 -0.2768 -0.2127 -0.1110
 2403SOL     OW 9609   4.239   0.999   3.711  0.0437 -0.1638  0.6244
 2403SOL    HW2 9610   4.291   1.076   3.734  1.3377 -0.0088 -2.6257
 2403SOL    HW3 9611   4.302   0.938   3.672 -1.1116 -2.5606  2.3642
 2403SOL    MW4 9612   4.255   1.001   3.709  0.0620 -0.4596  0.4251
 2404SOL     OW 9613   0.456   2.836   4.087  0.1650 -0.5509  0.6547
 2404SOL    HW2 9614   0.467   2.780   4.164  0.6980 -0.9124  0.3197
 2404SOL    HW3 9615   0.513   2.911   4.102  1.1043 -1.1524  0.1153
 2404SOL    MW4 9616   0.465   2.838   4.099  0.3593 -0.6779  0.5393
 2405SOL     OW 9617   0.906   2.099   3.762 -0.1154  0.1305  0.0496
 2405SOL    HW2 9618   0.836   2.034   3.760  0.0133  0.0063 -1.8222
 2405SOL    HW3 9619   0.986   2.049   3.742  0.4883  0.3176  1.8819
 2405SOL    MW4 9620   0.908   2.084   3.759 -0.0188  0.1388  0.0444
 2406SOL     OW 9621   4.190   2.336   3.847 -0.2292 -0.0894  0.3584
 2406SOL    HW2 9622   4.193   2.377   3.934 -0.0159 -0.6811  0.6318
 2406SOL    HW3 9623   4.147   2.252   3.861  0.4074 -0.4783  0.0125
 2406SOL    MW4 9624   4.185   2.330   3.860 -0.1171 -0.2188  0.3488
 2407SOL     OW 9625   0.306   2.471   4.347 -0.2277 -0.0576 -0.0464
 2407SOL    HW2 9626   0.344   2.425   4.271 -0.4574  0.7367 -0.6418
 2407SOL    HW3 9627   0.363   2.546   4.360 -1.6746  1.2430 -1.0501
 2407SOL    MW4 9628   0.319   2.475   4.339 -0.4489  0.2188 -0.2574
 2408SOL     OW 9629   2.065   1.414   4.334 -0.5225 -0.4704  0.4205
 2408SOL    HW2 9630   2.155   1.389   4.351 -0.7038 -1.2147  0.2990
 2408SOL    HW3 9631   2.071   1.499   4.290  0.1233 -0.6392  0.1857
 2408SOL    MW4 9632   2.078   1.422   4.331 -0.4612 -0.5909  0.3735
 2409SOL     OW 9633   3.185   4.557   4.481  0.3581  0.5795 -0.4792
 2409SOL    HW2 9634   3.211   4.647   4.502  1.2495 -0.1624  1.7094
 2409SOL    HW3 9635   3.259   4.504   4.508 -0.8315 -0.9722 -0.2032
 2409SOL    MW4 9636   3.198   4.562   4.488  0.3187  0.2769 -0.1540
 2410SOL     OW 9637   3.552   0.311   4.234  0.5324 -0.2532  0.0238
 2410SOL    HW2 9638   3.490   0.260   4.181  0.5025 -0.3492  0.1491
 2410SOL    HW3 9639   3.618   0.341   4.172  0.3272 -0.1034 -0.1197
 2410SOL    MW4 9640   3.553   0.308   4.219  0.5013 -0.2461  0.0214
 2411SOL     OW 9641   3.953   1.500   4.346 -0.3393 -0.7392  0.3123
 2411SOL    HW2 9642   3.918   1.580   4.386 -0.2732 -1.1839  1.2898
 2411SOL    HW3 9643   3.949   1.516   4.252  0.8209  0.9103  0.5223
 2411SOL    MW4 9644   3.948   1.513   4.339 -0.1775 -0.5802  0.4690
 2412SOL     OW 9645   1.691   1.151   3.549 -0.1103  0.0292 -0.5593
 2412SOL    HW2 9646   1.768   1.207   3.561  0.1422 -0.5614  0.6422
 2412SOL    HW3 9647   1.621   1.195   3.597 -0.4693  0.4411 -1.4510
 2412SOL    MW4 9648   1.692   1.164   3.557 -0.1244  0.0056 -0.5184
 2413SOL     OW 9649   1.209   0.773   3.624 -0.3316  0.1772 -0.4531
 2413SOL    HW2 9650   1.247   0.797   3.539  0.0255  0.8078 -0.1251
 2413SOL    HW3 9651   1.115   0.768   3.608 -0.2973  0.6441 -0.8083
 2413SOL    MW4 9652   1.202   0.776   3.611 -0.2799  0.3220 -0.4567
 2414SOL     OW 9653   1.238   0.553   3.992 -0.6083  0.5181 -0.1050
 2414SOL    HW2 9654   1.160   0.536   4.045  0.0156  0.8984  0.9402
 2414SOL    HW3 9655   1.207   0.546   3.901 -1.4988 -0.9312  0.2948
 2414SOL    MW4 9656   1.223   0.550   3.987 -0.6435  0.3771  0.0856
 2415SOL     OW 9657   3.680   0.096   4.392  0.3788  0.2188  0.2252
 2415SOL    HW2 9658   3.733   0.138   4.460 -1.1901  0.0345  1.5882
 2415SOL    HW3 9659   3.643   0.168   4.343  0.3099  0.3811  0.5132
 2415SOL    MW4 9660   3.682   0.111   4.395  0.1627  0.2159  0.4430
 2416SOL     OW 9661   1.878   1.583   3.955 -0.0770 -0.0364  0.2539
 2416SOL    HW2 9662   1.896   1.643   3.883 -0.1535 -0.1120  0.1726
 2416SOL    HW3 9663   1.962   1.575   4.001  0.6924 -2.1956 -1.4664
 2416SOL    MW4 9664   1.892   1.590   3.952  0.0144 -0.3313  0.0162
 2417SOL     OW 9665   1.916   1.263   4.167  0.6055 -0.0118 -0.0287
 2417SOL    HW2 9666   1.969   1.309   4.232  0.3280  0.8064 -0.3744
 2417SOL    HW3 9667   1.915   1.172   4.197  2.2801 -0.0590 -0.0739
 2417SOL    MW4 9668   1.923   1.257   4.179  0.7898  0.0899 -0.0803
 2418SOL     OW 9669   2.075   4.094   4.195 -0.2789  0.0984 -0.4351
 2418SOL    HW2 9670   2.138   4.135   4.255 -0.6391 -0.0106  0.0141
 2418SOL    HW3 9671   2.129   4.037   4.140  0.0915  0.4224 -0.4152
 2418SOL    MW4 9672   2.091   4.092   4.195 -0.2776  0.1267 -0.3732
 2419SOL     OW 9673   2.229   3.910   3.626  0.1054 -0.5761 -0.1051
 2419SOL    HW2 9674   2.194   3.821   3.634 -0.2354 -0.4967 -0.7009
 2419SOL    HW3 9675   2.220   3.932   3.533  1.3301 -0.3805 -0.1818
 2419SOL    MW4 9676   2.223   3.901   3.615  0.2220 -0.5398 -0.1938
 2420SOL     OW 9677   4.429   0.824   3.611 -0.5774  0.2249  0.5297
 2420SOL    HW2 9678   4.415   0.730   3.614 -0.2040  0.1619  0.3355
 2420SOL    HW3 9679   4.465   0.841   3.524 -1.1134  0.6129  0.3825
 2420SOL    MW4 9680   4.432   0.814   3.600 -0.5989  0.2678  0.4847
 2421SOL     OW 9681   1.352   4.260   3.660 -0.2721  0.5190  0.1945
 2421SOL    HW2 9682   1.408   4.328   3.621 -0.4120  1.2435  1.2242
 2421SOL    HW3 9683   1.398   4.178   3.641 -0.9589  0.7189 -2.5376
 2421SOL    MW4 9684   1.366   4.258   3.652 -0.3812  0.6410 -0.0301
 2422SOL     OW 9685   3.868   2.581   4.480  0.4180  0.2480 -0.1728
 2422SOL    HW2 9686   3.793   2.639   4.494  0.4540  0.0888  0.6965
 2422SOL    HW3 9687   3.937   2.639   4.447 -0.1464  0.3585 -1.1734
 2422SOL    MW4 9688   3.867   2.596   4.478  0.3483  0.2416 -0.1902
 2423SOL     OW 9689   2.480   0.667   3.999 -0.1515 -0.1948 -0.1552
 2423SOL    HW2 9690   2.559   0.689   4.047  0.0783  0.1165 -0.6783
 2423SOL    HW3 9691   2.478   0.728   3.926  0.2688 -1.6028 -1.3654
 2423SOL    MW4 9692   2.490   0.678   3.996 -0.0657 -0.3395 -0.3839
 2424SOL     OW 9693   1.646   2.326   3.253 -0.6748  0.2425  0.0631
 2424SOL    HW2 9694   1.622   2.239   3.284 -0.6467 -0.0402 -0.7088
 2424SOL    HW3 9695   1.649   2.318   3.158  1.8016  0.4592  0.0946
 2424SOL    MW4 9696   1.643   2.314   3.244 -0.3444  0.2338 -0.0346
 2425SOL     OW 9697   3.810   4.344   3.284 -0.3366 -0.1953 -0.2222
 2425SOL    HW2 9698   3.835   4.436   3.277 -0.0918 -0.2250  0.2341
 2425SOL    HW3 9699   3.727   4.338   3.238  0.9289 -0.2665 -2.6071
 2425SOL    MW4 9700   3.803   4.355   3.277 -0.1374 -0.2086 -0.4767
 2426SOL     OW 9701   2.896   4.562   4.138 -0.4400 -0.7710  0.0135
 2426SOL    HW2 9702   2.849   4.478   4.141 -1.6085 -0.1278 -0.2204
 2426SOL    HW3 9703   2.863   4.606   4.060  0.8514 -0.4687 -0.3825
 2426SOL    MW4 9704   2.886   4.557   4.128 -0.4238 -0.6463 -0.0696
 2427SOL     OW 9705   3.451   3.303   3.884 -0.3391 -0.0166 -0.3231
 2427SOL    HW2 9706   3.413   3.290   3.971  0.6298 -1.2843 -0.0662
 2427SOL    HW3 9707   3.445   3.397   3.869 -0.6806  0.1964  1.0421
 2427SOL    MW4 9708   3.446   3.313   3.894 -0.2563 -0.1557 -0.1091
 2428SOL     OW 9709   1.515   0.290   3.763  0.1539  0.2872  0.3575
 2428SOL    HW2 9710   1.498   0.334   3.846 -0.5941  1.2978 -0.3272
 2428SOL    HW3 9711   1.608   0.265   3.769 -0.3187 -1.1921  2.2003
 2428SOL    MW4 9712   1.525   0.292   3.775 -0.0072  0.2253  0.5103
 2429SOL     OW 9713   1.001   0.540   4.153  0.3627 -0.2649 -0.5938
 2429SOL    HW2 9714   1.070   0.527   4.218  0.1058  1.4816  0.0522
 2429SOL    HW3 9715   0.921   0.548   4.204  0.0329  0.1879 -1.1686
 2429SOL    MW4 9716   1.000   0.539   4.168  0.2853  0.0253 -0.5844
 2430SOL     OW 9717   2.344   2.929   4.454 -0.0212 -0.4657  0.2051
 2430SOL    HW2 9718   2.262   2.978   4.463  0.1734  0.0112 -0.5918
 2430SOL    HW3 9719   2.316   2.837   4.445 -0.4020 -0.4683  1.2992
 2430SOL    MW4 9720   2.330   2.923   4.454 -0.0458 -0.4032  0.2443
 2431SOL     OW 9721   0.177   3.235   4.618  0.1220  0.0732  0.3430
 2431SOL    HW2 9722   0.234   3.293   4.568  0.8354 -0.4560  0.5412
 2431SOL    HW3 9723   0.090   3.276   4.612  0.4111  0.5814 -0.4160
 2431SOL    MW4 9724   0.173   3.248   4.611  0.2543  0.0704  0.2690
 2432SOL     OW 9725   2.731   3.171   4.180 -0.6650 -0.1230  0.1096
 2432SOL    HW2 9726   2.701   3.257   4.210  0.2633  0.3773 -0.3615
 2432SOL    HW3 9727   2.706   3.168   4.088  0.9004  0.4055 -0.3585
 2432SOL    MW4 9728   2.724   3.182   4.172 -0.3360  0.0127 -0.0143
 2433SOL     OW 9729   4.096   3.907   4.547  0.1847  0.4100 -0.3923
 2433SOL    HW2 9730   4.124   3.963   4.619  0.7558 -0.6626  0.2363
 2433SOL    HW3 9731   4.000   3.909   4.551  0.1798 -0.9481  1.4803
 2433SOL    MW4 9732   4.087   3.914   4.557  0.2594  0.0893 -0.0623
 2434SOL     OW 9733   2.255   2.054   4.276  0.5491 -0.1095 -0.2156
 2434SOL    HW2 9734   2.159   2.049   4.278  0.6274 -1.3085  0.8523
 2434SOL    HW3 9735   2.273   2.147   4.269 -0.7175  0.0325 -2.3037
 2434SOL    MW4 9736   2.244   2.065   4.275  0.3923 -0.2490 -0.3502
 2435SOL     OW 9737   4.277   2.733   3.598  0.0487  0.0761 -0.1427
 2435SOL    HW2 9738   4.296   2.755   3.507 -0.9262  0.0610 -0.3508
 2435SOL    HW3 9739   4.339   2.663   3.619  0.6418  0.4524 -0.6226
 2435SOL    MW4 9740   4.288   2.727   3.589 -0.0017  0.1238 -0.2335
 2436SOL     OW 9741   0.162   0.785   4.406 -0.4630  0.4361  0.3541
 2436SOL    HW2 9742   0.209   0.713   4.363 -1.2946 -0.1410  0.3988
 2436SOL    HW3 9743   0.213   0.863   4.385  0.0004 -0.0545 -0.3744
 2436SOL    MW4 9744   0.175   0.786   4.398 -0.5116  0.2953  0.2639
 2437SOL     OW 9745   0.165   4.572   4.267  0.0665 -0.4658  0.1726
 2437SOL    HW2 9746   0.257   4.555   4.245  0.2672 -0.3057  0.8944
 2437SOL    HW3 9747   0.122   4.487   4.255  0.4817 -0.7574  0.7301
 2437SOL    MW4 9748   0.171   4.558   4.262  0.1478 -0.4832  0.3414
 2438SOL     OW 9749   0.341   0.559   4.306 -0.1890 -0.2867 -0.1090
 2438SOL    HW2 9750   0.285   0.487   4.334  1.4163 -1.2814  0.6289
 2438SOL    HW3 9751   0.400   0.574   4.380  0.1570  1.1005 -0.6493
 2438SOL    MW4 9752   0.342   0.551   4.319  0.0684 -0.2349 -0.0829
 2439SOL     OW 9753   2.365   3.207   3.600 -0.2875  0.4151 -0.0807
 2439SOL    HW2 9754   2.351   3.115   3.623 -1.2659  0.6949  0.4542
 2439SOL    HW3 9755   2.460   3.214   3.586 -0.1207 -0.5123  0.5644
 2439SOL    MW4 9756   2.376   3.195   3.601 -0.3946  0.3297  0.0750
 2440SOL     OW 9757   0.880   3.267   4.474 -0.2380  0.2592  0.0524
 2440SOL    HW2 9758   0.929   3.221   4.543 -1.3829 -0.1872  0.5841
 2440SOL    HW3 9759   0.803   3.212   4.458 -0.1554  0.5356 -1.3513
 2440SOL    MW4 9760   0.876   3.254   4.481 -0.3782  0.2368 -0.0626
 2441SOL     OW 9761   2.436   1.218   3.657 -0.5282 -0.1767 -0.0181
 2441SOL    HW2 9762   2.450   1.211   3.562 -1.0630  2.5801 -0.3457
 2441SOL    HW3 9763   2.342   1.212   3.668 -0.4572 -0.6166  0.3616
 2441SOL    MW4 9764   2.426   1.216   3.646 -0.5894  0.1290 -0.0112
 2442SOL     OW 9765   2.780   3.573   3.718 -0.0491 -0.2860  0.5679
 2442SOL    HW2 9766   2.775   3.576   3.814  1.0567  0.2245  0.6160
 2442SOL    HW3 9767   2.838   3.645   3.695 -0.7412 -0.0685 -0.5312
 2442SOL    MW4 9768   2.787   3.583   3.728  0.0055 -0.1899  0.4292
 2443SOL     OW 9769   2.908   1.267   3.359  0.3936 -0.7337  0.2769
 2443SOL    HW2 9770   2.829   1.228   3.324  0.3390  0.2468 -0.7455
 2443SOL    HW3 9771   2.980   1.221   3.314  0.3315  0.2410 -0.8648
 2443SOL    MW4 9772   2.907   1.256   3.348  0.3782 -0.4758 -0.0086
 2444SOL     OW 9773   0.487   2.683   3.285 -0.3101  0.6388 -0.2297
 2444SOL    HW2 9774   0.488   2.676   3.190 -1.0191  2.0160 -0.3585
 2444SOL    HW3 9775   0.573   2.719   3.308  0.3724 -0.9698 -0.2220
 2444SOL    MW4 9776   0.498   2.687   3.276 -0.3136  0.6083 -0.2457
 2445SOL     OW 9777   4.265   3.605   3.718  0.1087  0.5308 -0.1162
 2445SOL    HW2 9778   4.348   3.614   3.766 -0.4401  0.4693  0.8542
 2445SOL    HW3 9779   4.204   3.662   3.765  0.1283  2.2762 -2.1012
 2445SOL    MW4 9780   4.268   3.614   3.731  0.0389  0.7530 -0.2501
 2446SOL     OW 9781   2.982   1.040   3.757  0.0501  0.7768 -0.3480
 2446SOL    HW2 9782   2.969   0.988   3.836  1.5702  0.5093 -0.2494
 2446SOL    HW3 9783   2.897   1.078   3.738  0.3479  3.5091  3.2991
 2446SOL    MW4 9784   2.969   1.038   3.765  0.2900  1.1020  0.1462
 2447SOL     OW 9785   2.381   4.420   4.264  0.3732  0.1683  0.5725
 2447SOL    HW2 9786   2.334   4.337   4.273  0.6123  0.0573  0.7702
 2447SOL    HW3 9787   2.390   4.453   4.353  2.1333 -0.6084  0.6887
 2447SOL    MW4 9788   2.376   4.414   4.277  0.6370  0.0512  0.6139
 2448SOL     OW 9789   3.212   1.925   4.596  0.6989 -0.0115 -0.3092
 2448SOL    HW2 9790   3.257   1.983   4.658  1.8647 -1.0086 -0.2126
 2448SOL    HW3 9791   3.243   1.837   4.618 -2.1550 -0.8817  0.5187
 2448SOL    MW4 9792   3.222   1.921   4.607  0.4762 -0.2579 -0.1872
 2449SOL     OW 9793   4.106   3.170   3.443 -0.6622  0.0643 -0.2144
 2449SOL    HW2 9794   4.110   3.263   3.421 -0.2583  0.0218 -0.3330
 2449SOL    HW3 9795   4.054   3.167   3.523  0.4046  0.5212  0.5047
 2449SOL    MW4 9796   4.100   3.182   3.450 -0.4682  0.1190 -0.1351
 2450SOL     OW 9797   2.601   0.751   4.379  0.0082 -0.0169  0.4846
 2450SOL    HW2 9798   2.511   0.785   4.376  0.0972  0.0611 -1.4558
 2450SOL    HW3 9799   2.652   0.824   4.414 -0.3297  0.7399 -0.5639
 2450SOL    MW4 9800   2.596   0.765   4.384 -0.0247  0.0933  0.0903
 2451SOL     OW 9801   3.354   0.473   3.627  0.0672  0.1101 -0.0863
 2451SOL    HW2 9802   3.421   0.407   3.645  0.8812  0.8159 -0.4898
 2451SOL    HW3 9803   3.366   0.494   3.534 -1.7629 -0.9257 -0.5619
 2451SOL    MW4 9804   3.365   0.467   3.617 -0.0669  0.0666 -0.2023
 2452SOL     OW 9805   2.090   3.664   3.638 -0.3738  0.4910 -0.0067
 2452SOL    HW2 9806   2.004   3.660   3.680 -0.2165  1.4301  0.4081
 2452SOL    HW3 9807   2.073   3.644   3.546 -0.8040 -0.9607  0.3777
 2452SOL    MW4 9808   2.077   3.661   3.631 -0.4098  0.4234  0.0987
 2453SOL     OW 9809   1.426   0.355   4.090  0.1389 -0.0253 -0.3466
 2453SOL    HW2 9810   1.408   0.359   4.184 -0.8657 -1.1487 -0.4762
 2453SOL    HW3 9811   1.383   0.432   4.054  0.7521  0.5524  0.1466
 2453SOL    MW4 9812   1.418   0.366   4.098  0.0872 -0.0973 -0.2986
 2454SOL     OW 9813   2.647   3.169   3.904  0.1253 -0.3300  0.4258
 2454SOL    HW2 9814   2.721   3.196   3.848  0.7433 -0.8289  0.9922
 2454SOL    HW3 9815   2.635   3.076   3.884 -0.9090 -0.0455 -0.2866
 2454SOL    MW4 9816   2.655   3.161   3.894  0.0704 -0.3583  0.4065
 2455SOL     OW 9817   1.554   4.354   4.345  0.0798  0.0687 -0.3136
 2455SOL    HW2 9818   1.618   4.336   4.415  1.3396  0.5990 -1.3024
 2455SOL    HW3 9819   1.469   4.348   4.388  0.7835 -0.8306  1.0026
 2455SOL    MW4 9820   1.552   4.351   4.360  0.3389  0.0200 -0.2704
 2456SOL     OW 9821   0.571   0.037   4.340  0.3901 -0.5646  0.4175
 2456SOL    HW2 9822   0.523   0.033   4.422 -0.1176 -0.6037  0.1229
 2456SOL    HW3 9823   0.535  -0.035   4.288  0.4060 -0.2758  0.0019
 2456SOL    MW4 9824   0.559   0.027   4.344  0.3252 -0.5317  0.3238
 2457SOL     OW 9825   2.366   1.443   4.398  0.2561  0.1308  0.5960
 2457SOL    HW2 9826   2.355   1.538   4.394  0.9894  0.2144  0.4936
 2457SOL    HW3 9827   2.441   1.430   4.455  0.7292 -0.3462 -0.1178
 2457SOL    MW4 9828   2.375   1.454   4.405  0.4153  0.0789  0.4883
 2458SOL     OW 9829   4.039   3.314   4.411 -0.4382  0.8740 -0.0928
 2458SOL    HW2 9830   4.042   3.218   4.408  2.5706  0.8834  0.2942
 2458SOL    HW3 9831   4.061   3.335   4.502 -1.5570  1.9493 -0.0528
 2458SOL    MW4 9832   4.042   3.304   4.423 -0.1888  1.0171 -0.0364
 2459SOL     OW 9833   1.007   3.338   4.233 -0.1874 -0.8733 -0.0084
 2459SOL    HW2 9834   0.979   3.301   4.316 -0.9642 -0.6113 -0.1534
 2459SOL    HW3 9835   0.927   3.371   4.193  0.0896 -1.5565 -1.1434
 2459SOL    MW4 9836   0.993   3.338   4.239 -0.2533 -0.9289 -0.1773
 2460SOL     OW 9837   1.543   2.637   4.028  0.5718 -0.1753  0.3455
 2460SOL    HW2 9838   1.572   2.705   3.968 -0.7065 -0.5466 -0.7127
 2460SOL    HW3 9839   1.600   2.646   4.104  3.1262 -0.6248 -1.4871
 2460SOL    MW4 9840   1.554   2.647   4.030  0.7402 -0.2836 -0.0359
 2461SOL     OW 9841   2.567   0.976   4.013 -0.0173  0.2857  0.1928
 2461SOL    HW2 9842   2.494   1.036   4.024  0.2630  0.5431  0.6814
 2461SOL    HW3 9843   2.610   1.004   3.932  1.6933  2.4389  1.8107
 2461SOL    MW4 9844   2.563   0.988   4.004  0.2454  0.6038  0.4708
 2462SOL     OW 9845   3.137   4.350   3.773 -0.1751 -0.0052  0.1651
 2462SOL    HW2 9846   3.222   4.314   3.747 -0.8352 -0.4134 -1.5118
 2462SOL    HW3 9847   3.151   4.444   3.778  0.4466 -0.0953  0.1683
 2462SOL    MW4 9848   3.150   4.357   3.770 -0.1801 -0.0710 -0.0557
 2463SOL     OW 9849   3.575   1.044   3.909  0.1256 -0.1003 -0.0262
 2463SOL    HW2 9850   3.576   1.101   3.833 -0.2088  0.1331  0.1430
 2463SOL    HW3 9851   3.485   1.046   3.940 -0.1237 -1.5497 -0.6393
 2463SOL    MW4 9852   3.563   1.052   3.903  0.0486 -0.2608 -0.0848
 2464SOL     OW 9853   4.022   3.047   4.093  0.3257  0.0517  0.5503
 2464SOL    HW2 9854   3.989   2.960   4.072 -1.3924  1.1034 -1.2992
 2464SOL    HW3 9855   3.944   3.103   4.089  1.4527  1.7052  1.4492
 2464SOL    MW4 9856   4.007   3.043   4.090  0.2477  0.4086  0.4249
 2465SOL     OW 9857   3.700   4.390   3.545  0.5468  0.0421 -0.1074
 2465SOL    HW2 9858   3.747   4.348   3.474  0.4797 -0.4000  0.1067
 2465SOL    HW3 9859   3.628   4.437   3.503  1.3838  1.0107 -0.4665
 2465SOL    MW4 9860   3.697   4.391   3.530  0.6484  0.1115 -0.1265
 2466SOL     OW 9861   1.865   2.704   3.754 -0.1567  0.2880  0.3037
 2466SOL    HW2 9862   1.907   2.776   3.707  0.1772  0.1270  0.3547
 2466SOL    HW3 9863   1.932   2.672   3.814 -0.1025 -0.4720 -0.1634
 2466SOL    MW4 9864   1.879   2.709   3.756 -0.1055  0.1665  0.2488
 2467SOL     OW 9865   1.020   4.464   3.770 -0.2793  0.1672  0.5923
 2467SOL    HW2 9866   1.053   4.395   3.713 -0.8861  0.3404  0.0199
 2467SOL    HW3 9867   0.991   4.418   3.849  1.3997  0.0257  1.1525
 2467SOL    MW4 9868   1.020   4.449   3.773 -0.1378  0.1714  0.5907
 2468SOL     OW 9869   0.517   2.115   4.465 -0.2109 -0.5954 -0.0721
 2468SOL    HW2 9870   0.495   2.122   4.372  0.0617  0.5088 -0.0648
 2468SOL    HW3 9871   0.597   2.062   4.467 -0.8566 -1.5851 -0.3743
 2468SOL    MW4 9872   0.525   2.109   4.453 -0.2602 -0.5803 -0.1110
 2469SOL     OW 9873   0.571   3.908   3.855 -0.1484 -0.1475 -0.0860
 2469SOL    HW2 9874   0.590   3.973   3.788  0.4589  0.1574  0.3814
 2469SOL    HW3 9875   0.586   3.824   3.812  2.2655  0.0765  0.2776
 2469SOL    MW4 9876   0.575   3.906   3.840  0.2502 -0.0777  0.0236
 2470SOL     OW 9877   1.092   3.121   4.567 -0.2051  0.4149  0.4151
 2470SOL    HW2 9878   1.149   3.045   4.558 -1.2588 -0.1660 -1.5326
 2470SOL    HW3 9879   1.152   3.195   4.575  0.8310 -0.2463 -1.0872
 2470SOL    MW4 9880   1.108   3.121   4.567 -0.2074  0.2510 -0.0401
 2471SOL     OW 9881   1.306   0.966   3.793 -0.2254 -0.2422 -0.0021
 2471SOL    HW2 9882   1.282   0.901   3.727 -1.3708 -0.4535  0.6068
 2471SOL    HW3 9883   1.277   1.049   3.757 -0.8417 -0.3564  0.2248
 2471SOL    MW4 9884   1.299   0.968   3.780 -0.4578 -0.2851  0.1082
 2472SOL     OW 9885   1.519   3.039   3.979  0.8187  0.2286 -0.3614
 2472SOL    HW2 9886   1.569   2.972   3.933  0.7555  0.5220 -0.8590
 2472SOL    HW3 9887   1.554   3.038   4.068  1.5282  0.2428 -0.6327
 2472SOL    MW4 9888   1.530   3.030   3.985  0.9040  0.2692 -0.4629
 2473SOL     OW 9889   0.466   0.328   3.272 -0.0141  0.7165 -0.2384
 2473SOL    HW2 9890   0.544   0.377   3.299 -1.0995  1.7806  1.0121
 2473SOL    HW3 9891   0.480   0.240   3.306  0.7371  0.8461 -0.1972
 2473SOL    MW4 9892   0.478   0.323   3.280 -0.0582  0.8740 -0.0680
 2474SOL     OW 9893   3.283   1.645   4.537 -0.0342  0.5132 -0.4013
 2474SOL    HW2 9894   3.237   1.664   4.455  1.0407 -1.4651 -1.5026
 2474SOL    HW3 9895   3.376   1.655   4.515  0.2443  0.4358  0.7118
 2474SOL    MW4 9896   3.289   1.649   4.523  0.1444  0.2420 -0.3997
 2475SOL     OW 9897   3.034   4.166   3.943  0.7524  0.1102  0.2010
 2475SOL    HW2 9898   3.087   4.223   3.888  1.4175 -0.1500  0.5784
 2475SOL    HW3 9899   2.951   4.158   3.895  0.5715  1.5549  0.2492
 2475SOL    MW4 9900   3.030   4.172   3.929  0.8163  0.2665  0.2572
 2476SOL     OW 9901   3.559   1.604   4.473  0.0032  0.0127  0.2632
 2476SOL    HW2 9902   3.640   1.654   4.480 -0.4056  0.7056  0.1733
 2476SOL    HW3 9903   3.586   1.512   4.477  0.5959  0.2508  2.2228
 2476SOL    MW4 9904   3.573   1.598   4.474  0.0274  0.1356  0.5099
 2477SOL     OW 9905   0.953   2.352   4.158 -0.2943  0.2970  0.0718
 2477SOL    HW2 9906   0.972   2.283   4.221 -1.1828 -0.5820 -0.6185
 2477SOL    HW3 9907   1.027   2.350   4.097  0.1619  0.6156  0.6026
 2477SOL    MW4 9908   0.966   2.343   4.159 -0.3514  0.2231  0.0508
 2478SOL     OW 9909   3.127   3.814   4.475  0.2289 -0.0982  0.0811
 2478SOL    HW2 9910   3.085   3.801   4.390 -1.2635  0.7054  0.6721
 2478SOL    HW3 9911   3.205   3.865   4.456 -0.1391  0.1426 -0.8087
 2478SOL    MW4 9912   3.132   3.819   4.461 -0.0165  0.0396  0.0417
 2479SOL     OW 9913   3.028   4.174   4.630  0.0869 -0.3586 -0.3985
 2479SOL    HW2 9914   3.117   4.151   4.654 -0.0168 -1.0032 -0.6319
 2479SOL    HW3 9915   2.973   4.108   4.672 -0.2492 -0.2066 -0.5912
 2479SOL    MW4 9916   3.032   4.162   4.638  0.0288 -0.4236 -0.4547
 2480SOL     OW 9917   3.001   1.384   4.029 -0.3093  0.4871  0.3208
 2480SOL    HW2 9918   3.087   1.383   3.988  0.5418 -1.0030  2.1077
 2480SOL    HW3 9919   2.940   1.394   3.955  1.4060  3.1222 -0.8227
 2480SOL    MW4 9920   3.004   1.386   4.014  0.0293  0.6382  0.4057
 2481SOL     OW 9921   1.725   2.436   4.497  0.6129 -0.4863 -0.0231
 2481SOL    HW2 9922   1.644   2.481   4.476  1.1592 -0.1242 -1.4201
 2481SOL    HW3 9923   1.701   2.375   4.566 -0.7857 -0.1993 -0.2352
 2481SOL    MW4 9924   1.711   2.434   4.503  0.5005 -0.4007 -0.2354
 2482SOL     OW 9925   3.350   0.472   3.332  0.0391  0.8731  0.9588
 2482SOL    HW2 9926   3.368   0.552   3.283  0.5827 -0.1394 -0.5578
 2482SOL    HW3 9927   3.260   0.448   3.307  0.1716  0.5733  0.7630
 2482SOL    MW4 9928   3.340   0.479   3.322  0.1283  0.7000  0.7328
 2483SOL     OW 9929   0.644   1.930   4.119  0.0200  0.2632  0.3582
 2483SOL    HW2 9930   0.613   1.854   4.071 -0.1409  0.0347  0.8239
 2483SOL    HW3 9931   0.719   1.962   4.068 -0.1198 -0.0056 -0.0155
 2483SOL    MW4 9932   0.650   1.924   4.106 -0.0197  0.1976  0.3703
 2484SOL     OW 9933   1.316   2.452   4.525 -0.2323 -0.1636 -0.0712
 2484SOL    HW2 9934   1.399   2.499   4.516 -0.3981  0.4924  1.6494
 2484SOL    HW3 9935   1.296   2.420   4.437  1.4428  0.3568 -0.6457
 2484SOL    MW4 9936   1.324   2.454   4.513 -0.0332 -0.0083  0.0800
 2485SOL     OW 9937   0.661   1.537   3.304 -0.0715 -0.2539  0.4570
 2485SOL    HW2 9938   0.578   1.577   3.331  0.8632  1.5103  0.8218
 2485SOL    HW3 9939   0.649   1.443   3.319 -1.9269  0.0063  0.6867
 2485SOL    MW4 9940   0.648   1.530   3.310 -0.1930  0.0132  0.5355
 2486SOL     OW 9941   2.577   2.633   4.468  0.3325  0.3435 -0.3208
 2486SOL    HW2 9942   2.617   2.556   4.507  0.9605  0.4279 -0.7905
 2486SOL    HW3 9943   2.569   2.612   4.375  1.1795  1.1244 -0.5732
 2486SOL    MW4 9944   2.581   2.620   4.461  0.5271  0.4577 -0.4161
 2487SOL     OW 9945   4.436   0.398   4.227  0.2289  0.3173  0.0638
 2487SOL    HW2 9946   4.446   0.355   4.142 -0.6533 -0.2674  0.2474
 2487SOL    HW3 9947   4.343   0.390   4.247  0.2549  1.3485  0.6209
 2487SOL    MW4 9948   4.425   0.391   4.218  0.1159  0.3762  0.1616
 2488SOL     OW 9949   2.619   1.426   4.506 -0.1224  0.2175 -0.3638
 2488SOL    HW2 9950   2.687   1.362   4.486 -1.4898 -1.7335  1.0373
 2488SOL    HW3 9951   2.666   1.508   4.518  1.9652 -1.0297  0.3425
 2488SOL    MW4 9952   2.634   1.428   4.505 -0.0274 -0.2045 -0.0858
 2489SOL     OW 9953   3.275   3.161   3.720  0.2410 -0.4919  0.6247
 2489SOL    HW2 9954   3.350   3.209   3.755  0.5802 -1.1932  0.8803
 2489SOL    HW3 9955   3.312   3.080   3.686 -0.2473 -0.3290 -0.3169
 2489SOL    MW4 9956   3.289   3.157   3.720  0.2214 -0.5630  0.5342
 2490SOL     OW 9957   3.697   3.702   4.327  0.3305 -0.1176  0.3570
 2490SOL    HW2 9958   3.746   3.619   4.326  1.2461  0.4218  0.4697
 2490SOL    HW3 9959   3.714   3.741   4.242  0.3706  0.2266  0.5219
 2490SOL    MW4 9960   3.706   3.696   4.316  0.4566 -0.0010  0.3936
 2491SOL     OW 9961   0.616   3.156   3.761  0.2391  0.2857  0.0601
 2491SOL    HW2 9962   0.704   3.194   3.767  0.3894  0.0291 -0.4176
 2491SOL    HW3 9963   0.573   3.181   3.842  1.1998 -0.6874  0.8829
 2491SOL    MW4 9964   0.622   3.164   3.772  0.3856  0.1235  0.1056
 2492SOL     OW 9965   3.205   2.424   4.420  0.0850 -0.3699 -0.3448
 2492SOL    HW2 9966   3.198   2.363   4.346  0.1016 -0.2306 -0.4613
 2492SOL    HW3 9967   3.121   2.469   4.421  1.7000  2.9174 -3.1440
 2492SOL    MW4 9968   3.193   2.422   4.410  0.3003  0.0822 -0.7295
 2493SOL     OW 9969   2.073   2.337   3.925  0.0380  0.2090  0.5517
 2493SOL    HW2 9970   2.005   2.288   3.971 -0.3186  0.6254  0.4779
 2493SOL    HW3 9971   2.086   2.289   3.843  0.7723 -0.6057  1.1499
 2493SOL    MW4 9972   2.066   2.324   3.920  0.0878  0.1564  0.6209
 2494SOL     OW 9973   0.006   2.580   3.683 -0.5882  0.1294 -0.0992
 2494SOL    HW2 9974   0.027   2.488   3.668 -0.8674  0.2416 -1.1750
 2494SOL    HW3 9975   0.090   2.626   3.676 -0.5933  0.0767 -0.4912
 2494SOL    MW4 9976   0.020   2.574   3.680 -0.6257  0.1373 -0.2929
 2495SOL     OW 9977   1.305   3.331   4.329 -0.2292 -0.0231  0.3764
 2495SOL    HW2 9978   1.260   3.362   4.408 -0.9727 -0.6279  0.2016
 2495SOL    HW3 9979   1.234   3.309   4.268  0.3535  2.7748 -1.3899
 2495SOL    MW4 9980   1.289   3.332   4.332 -0.2504  0.2662  0.1203
 2496SOL     OW 9981   0.228   0.364   3.866  0.1147 -0.0101  0.0144
 2496SOL    HW2 9982   0.266   0.437   3.915  0.5990 -0.4044  0.2353
 2496SOL    HW3 9983   0.275   0.363   3.783 -0.6594  0.6144 -0.4452
 2496SOL    MW4 9984   0.239   0.374   3.862  0.0764  0.0202 -0.0171
 2497SOL     OW 9985   4.402   1.066   4.027 -0.1671  0.3572 -0.3219
 2497SOL    HW2 9986   4.376   1.103   4.111 -1.1751  0.0474 -0.5017
 2497SOL    HW3 9987   4.371   1.129   3.962 -2.7752 -1.2490 -0.6988
 2497SOL    MW4 9988   4.395   1.079   4.029 -0.6442  0.1044 -0.3953
 2498SOL     OW 9989   1.287   4.309   4.439 -0.2828 -0.2444  0.3061
 2498SOL    HW2 9990   1.224   4.380   4.447 -0.7320 -0.7296  1.1912
 2498SOL    HW3 9991   1.234   4.230   4.433  0.1760 -0.3633 -2.5375
 2498SOL    MW4 9992   1.272   4.308   4.440 -0.2815 -0.3241  0.0477
 2499SOL     OW 9993   3.726   1.989   4.549 -0.0931  0.3070  0.3528
 2499SOL    HW2 9994   3.782   2.009   4.474 -0.8612 -1.6000 -0.7677
 2499SOL    HW3 9995   3.646   2.039   4.532 -0.1484  0.1207  0.0609
 2499SOL    MW4 9996   3.723   1.998   4.536 -0.2017  0.0308  0.1664
 2500SOL     OW 9997   3.355   1.784   4.185 -0.1172  0.1022  0.3832
 2500SOL    HW2 9998   3.274   1.752   4.225 -0.9639  0.0478 -1.3027
 2500SOL    HW3 9999   3.409   1.706   4.174 -0.2803 -0.0309  0.5304
 2500SOL    MW410000   3.351   1.769   4.189 -0.2504  0.0775  0.1802
 2501SOL     OW10001   1.115   4.419   3.376  0.1598  0.1895 -0.4644
 2501SOL    HW210002   1.192   4.373   3.344  0.4488  0.9990 -0.9495
 2501SOL    HW310003   1.045   4.395   3.316  0.3474  0.5115 -0.8106
 2501SOL    MW410004   1.116   4.410   3.364  0.2227  0.3388 -0.5740
 2502SOL     OW10005   1.409   0.787   4.005 -0.1467 -0.1957 -0.0861
 2502SOL    HW210006   1.364   0.845   3.944 -0.3098 -0.3892 -0.1489
 2502SOL    HW310007   1.357   0.706   4.005 -0.9215  0.2818  1.3356
 2502SOL    MW410008   1.396   0.784   3.997 -0.2705 -0.1583  0.0932
 2503SOL     OW10009   2.099   3.083   4.452  0.2434 -0.2318  0.2193
 2503SOL    HW210010   2.046   3.054   4.379  0.1171  0.2844  0.1054
 2503SOL    HW310011   2.123   3.173   4.431 -1.0436  0.4448  1.5027
 2503SOL    MW410012   2.095   3.091   4.440  0.0569 -0.0744  0.3736
 2504SOL     OW10013   2.495   2.832   3.286 -0.0893  0.6639  0.6932
 2504SOL    HW210014   2.511   2.852   3.379 -1.6760  2.0866  0.6696
 2504SOL    HW310015   2.413   2.783   3.286  1.0472 -1.3001  0.2227
 2504SOL    MW410016   2.486   2.828   3.298 -0.1487  0.5925  0.6280
 2505SOL     OW10017   0.923   2.889   3.788  0.0043 -0.3102 -0.1603
 2505SOL    HW210018   0.959   2.801   3.801  0.7280 -0.1086 -0.7662
 2505SOL    HW310019   0.893   2.915   3.875  1.6235 -0.3588  0.4278
 2505SOL    MW410020   0.924   2.881   3.801  0.3134 -0.2900 -0.1626
 2506SOL     OW10021   2.371   1.714   4.351  0.3090 -0.1564 -0.5199
 2506SOL    HW210022   2.436   1.719   4.281  0.5565  0.9038 -0.2235
 2506SOL    HW310023   2.394   1.787   4.410 -0.8134 -0.1113 -0.1358
 2506SOL    MW410024   2.383   1.725   4.349  0.1936 -0.0106 -0.4301
 2507SOL     OW10025   2.044   4.292   3.559  0.4759  0.2497  0.3573
 2507SOL    HW210026   2.020   4.374   3.603 -1.0855 -0.3548  0.6495
 2507SOL    HW310027   2.028   4.309   3.467  0.1094  0.2629  0.4219
 2507SOL    MW410028   2.039   4.305   3.553  0.2215  0.1717  0.4044
 2508SOL     OW10029   0.359   3.517   3.706 -0.1702 -0.4519 -0.2747
 2508SOL    HW210030   0.369   3.423   3.691  1.4300 -0.2880 -0.4198
 2508SOL    HW310031   0.317   3.550   3.627 -0.1439 -0.9534 -0.5020
 2508SOL    MW410032   0.355   3.509   3.694  0.0444 -0.4964 -0.3239
 2509SOL     OW10033   0.726   0.440   3.361 -0.5263 -0.1254 -0.0472
 2509SOL    HW210034   0.702   0.518   3.311 -1.3113  0.2667  0.9170
 2509SOL    HW310035   0.703   0.462   3.452 -0.5824 -1.4141  0.2541
 2509SOL    MW410036   0.720   0.454   3.367 -0.6373 -0.2437  0.1198
 2510SOL     OW10037   0.681   3.630   3.432 -0.1691  0.0326 -0.6554
 2510SOL    HW210038   0.696   3.705   3.374 -1.9147  0.7028 -0.2608
 2510SOL    HW310039   0.750   3.568   3.409  0.5983  1.2788 -1.7928
 2510SOL    MW410040   0.692   3.632   3.421 -0.2982  0.2855 -0.7534
 2511SOL     OW10041   0.998   2.608   4.306  0.0018  0.2813  0.3546
 2511SOL    HW210042   0.911   2.638   4.282 -0.4584 -0.3905  1.1537
 2511SOL    HW310043   0.997   2.514   4.291  0.2324  0.1040  1.3660
 2511SOL    MW410044   0.987   2.600   4.301 -0.0285  0.1693  0.5935
 2512SOL     OW10045   0.934   3.757   4.092  0.1584 -0.1327  0.3508
 2512SOL    HW210046   0.908   3.682   4.038  0.2546  0.2109 -0.1851
 2512SOL    HW310047   1.015   3.788   4.051  0.8563 -0.5723  1.3939
 2512SOL    MW410048   0.942   3.751   4.079  0.2632 -0.1453  0.4177
 2513SOL     OW10049   4.097   4.321   4.681  0.2557 -0.1225  0.5689
 2513SOL    HW210050   4.003   4.337   4.672  0.6892  2.5213  0.2972
 2513SOL    HW310051   4.130   4.324   4.591  1.1281  2.7999  0.9402
 2513SOL    MW410052   4.089   4.324   4.668  0.4280  0.6119  0.5820
 2514SOL     OW10053   0.480   1.343   4.455  0.1886 -0.0466  0.1564
 2514SOL    HW210054   0.388   1.333   4.481 -0.0094  0.0487 -0.4994
 2514SOL    HW310055   0.481   1.419   4.398  0.3190 -1.2782 -1.5182
 2514SOL    MW410056   0.468   1.352   4.451  0.1797 -0.1965 -0.1511
 2515SOL     OW10057   0.010   3.778   4.616 -0.4841 -0.3786 -0.0411
 2515SOL    HW210058  -0.075   3.744   4.591 -1.5964  1.5432  0.9725
 2515SOL    HW310059   0.033   3.729   4.695 -1.1543 -0.1620  0.2944
 2515SOL    MW410060   0.002   3.767   4.623 -0.7193 -0.0965  0.1369
 2516SOL     OW10061   3.168   0.868   3.307 -0.2216 -0.2425 -0.3547
 2516SOL    HW210062   3.169   0.963   3.299 -1.4375 -0.1440  0.5947
 2516SOL    HW310063   3.135   0.851   3.395  1.5867 -1.5193  0.1070
 2516SOL    MW410064   3.164   0.878   3.318 -0.1435 -0.3980 -0.1685
 2517SOL     OW10065   1.642   3.300   4.591 -0.0410 -0.4458  0.1177
 2517SOL    HW210066   1.692   3.246   4.653 -0.4469  0.2358  1.0412
 2517SOL    HW310067   1.595   3.236   4.537  0.9439 -1.0660 -0.0312
 2517SOL    MW410068   1.642   3.284   4.592  0.0354 -0.4377  0.2199
 2518SOL     OW10069   2.294   4.451   4.013 -0.0390  0.1534  0.0475
 2518SOL    HW210070   2.320   4.362   3.987 -0.9387 -0.6393  1.7861
 2518SOL    HW310071   2.341   4.466   4.096  0.5375  1.5283 -0.5134
 2518SOL    MW410072   2.304   4.441   4.021 -0.0817  0.2302  0.2029
 2519SOL     OW10073   3.972   4.356   4.251  0.7879  0.2374  0.1269
 2519SOL    HW210074   4.028   4.376   4.176  1.3136  0.3655  0.5469
 2519SOL    HW310075   4.031   4.315   4.314  0.7928  1.9517  1.2680
 2519SOL    MW410076   3.987   4.353   4.249  0.8579  0.4805  0.3329
 2520SOL     OW10077   4.316   1.115   4.301  0.2386 -0.0231  0.1041
 2520SOL    HW210078   4.227   1.106   4.333  0.4746  0.5500  0.9485
 2520SOL    HW310079   4.337   1.208   4.314  1.4312 -0.4346  1.1887
 2520SOL    MW410080   4.307   1.126   4.307  0.4271 -0.0018  0.3586
 2521SOL     OW10081   4.267   1.734   3.913 -0.3379 -0.3044  0.0789
 2521SOL    HW210082   4.306   1.683   3.984  0.7427  2.0692  1.2792
 2521SOL    HW310083   4.287   1.684   3.834  1.2863 -1.3896  1.1300
 2521SOL    MW410084   4.275   1.721   3.912  0.0190 -0.1344  0.3760
 2522SOL     OW10085   3.116   0.882   4.554  0.5060  0.3530  0.3629
 2522SOL    HW210086   3.210   0.869   4.541  0.3871 -0.5401  0.3732
 2522SOL    HW310087   3.087   0.802   4.599 -0.7389 -0.6079 -2.0504
 2522SOL    MW410088   3.125   0.870   4.558  0.3261  0.1084  0.0459
 2523SOL     OW10089   4.285   4.323   3.438 -0.2410  0.7023 -0.4015
 2523SOL    HW210090   4.309   4.345   3.528  1.0820 -0.8485 -0.3629
 2523SOL    HW310091   4.241   4.239   3.445 -0.2507  0.6387 -1.2024
 2523SOL    MW410092   4.282   4.315   3.450 -0.0677  0.4893 -0.5021
 2524SOL     OW10093   1.763   0.859   3.295 -0.2343  0.3812 -0.0628
 2524SOL    HW210094   1.765   0.953   3.275 -1.3017  0.6775  1.1352
 2524SOL    HW310095   1.843   0.825   3.255  0.6946  1.9842  0.3353
 2524SOL    MW410096   1.774   0.867   3.287 -0.2526  0.6318  0.1478
 2525SOL     OW10097   2.822   1.768   3.823  0.2462 -0.6526  0.2037
 2525SOL    HW210098   2.909   1.737   3.847  0.2318  0.3280  1.5468
 2525SOL    HW310099   2.838   1.843   3.766  0.2945  0.0035  1.0688
 2525SOL    MW410100   2.836   1.774   3.819  0.2507 -0.4367  0.4950
 2526SOL     OW10101   2.873   3.721   4.619  0.0350  0.1156 -0.0909
 2526SOL    HW210102   2.826   3.666   4.556  2.2360 -1.4378 -0.4620
 2526SOL    HW310103   2.950   3.751   4.570  0.8551  0.3478  1.3328
 2526SOL    MW410104   2.877   3.718   4.604  0.4336 -0.0587  0.0479
 2527SOL     OW10105   1.666   3.007   4.210 -0.2856  0.7424  0.1053
 2527SOL    HW210106   1.633   3.062   4.281 -0.3375  0.3730  0.3681
 2527SOL    HW310107   1.761   3.018   4.214 -0.2694  0.4929  0.4201
 2527SOL    MW410108   1.674   3.016   4.220 -0.2903  0.6607  0.1815
 2528SOL     OW10109   1.539   2.655   4.458 -0.2553  0.0353 -0.0723
 2528SOL    HW210110   1.481   2.732   4.460  0.4649  0.5614  1.1187
 2528SOL    HW310111   1.613   2.682   4.404 -0.3494 -0.0714 -0.2535
 2528SOL    MW410112   1.541   2.669   4.451 -0.1727  0.0907  0.0610
 2529SOL     OW10113   0.375   4.436   3.611 -0.1779 -0.2040  0.2123
 2529SOL    HW210114   0.458   4.484   3.618  0.3655 -1.3339  1.9529
 2529SOL    HW310115   0.312   4.490   3.660 -0.1536  0.0120  0.0009
 2529SOL    MW410116   0.378   4.450   3.619 -0.1030 -0.3246  0.4141
 2530SOL     OW10117   0.571   1.163   4.233  0.3935 -0.2234 -0.2042
 2530SOL    HW210118   0.546   1.230   4.297  0.8370 -0.8116  0.5949
 2530SOL    HW310119   0.645   1.201   4.187  0.2360  0.1020 -0.1925
 2530SOL    MW410120   0.577   1.177   4.236  0.4312 -0.2581 -0.0973
 2531SOL     OW10121   1.508   3.149   4.395 -0.3920 -0.2904  0.0128
 2531SOL    HW210122   1.433   3.205   4.372 -0.5266 -0.7233 -0.6201
 2531SOL    HW310123   1.468   3.066   4.422 -0.1927 -0.0965  0.9175
 2531SOL    MW410124   1.492   3.145   4.395 -0.3835 -0.3219  0.0487
 2532SOL     OW10125   1.127   1.500   3.284  0.2682  0.9096  0.1904
 2532SOL    HW210126   1.126   1.488   3.189 -1.7343  0.1765  0.2858
 2532SOL    HW310127   1.044   1.542   3.304 -0.6469 -1.6249  1.9232
 2532SOL    MW410128   1.116   1.504   3.274 -0.1167  0.4785  0.4316
 2533SOL     OW10129   1.323   3.988   3.670  0.3893 -0.3697  0.3911
 2533SOL    HW210130   1.248   3.929   3.671  0.5210 -0.5362  1.5329
 2533SOL    HW310131   1.370   3.968   3.751  0.8800  0.7348  0.3894
 2533SOL    MW410132   1.320   3.978   3.681  0.4714 -0.2460  0.5415
 2534SOL     OW10133   2.373   2.908   4.015 -0.3491 -0.2804 -0.4494
 2534SOL    HW210134   2.406   2.970   4.079 -1.8549  0.7126 -0.6142
 2534SOL    HW310135   2.325   2.843   4.068  0.3189 -0.7185 -0.3743
 2534SOL    MW410136   2.371   2.907   4.031 -0.4597 -0.2072 -0.4613
 2535SOL     OW10137   1.114   3.824   3.719 -0.5427  0.1633 -0.0457
 2535SOL    HW210138   1.075   3.736   3.718  0.9427 -0.5262  1.0307
 2535SOL    HW310139   1.147   3.834   3.808  0.7510  1.1638 -0.6303
 2535SOL    MW410140   1.113   3.814   3.730 -0.1761  0.2043  0.0192
 2536SOL     OW10141   3.130   1.699   4.307 -0.4619  0.6091  0.4601
 2536SOL    HW210142   3.068   1.772   4.300 -1.4527 -0.2063  0.7090
 2536SOL    HW310143   3.085   1.625   4.267  0.6001  0.1472  0.0869
 2536SOL    MW410144   3.116   1.699   4.300 -0.4525  0.4406  0.4437
 2537SOL     OW10145   1.556   2.898   3.340  0.6145  0.1700 -0.2006
 2537SOL    HW210146   1.554   2.921   3.433 -1.6763 -2.4082  0.4455
 2537SOL    HW310147   1.637   2.848   3.330  0.2425 -0.6166  0.6856
 2537SOL    MW410148   1.566   2.894   3.351  0.2632 -0.2739  0.0016
 2538SOL     OW10149   3.369   2.102   4.738  0.1135 -0.5506  0.2819
 2538SOL    HW210150   3.338   2.175   4.791  0.5843 -0.3155  0.2316
 2538SOL    HW310151   3.456   2.082   4.772  0.3786 -0.4630 -0.3292
 2538SOL    MW410152   3.376   2.109   4.749  0.2106 -0.5080  0.1946
 2539SOL     OW10153   4.330   4.422   3.694 -0.5019 -0.4423  0.6350
 2539SOL    HW210154   4.242   4.445   3.724 -0.4774  0.0004  0.3671
 2539SOL    HW310155   4.372   4.506   3.676 -0.6376 -0.7016 -0.9625
 2539SOL    MW410156   4.324   4.436   3.696 -0.5166 -0.4181  0.3889
 2540SOL     OW10157   3.404   0.663   4.068 -0.1197 -0.1024 -0.2955
 2540SOL    HW210158   3.331   0.697   4.016 -0.7372 -1.7957 -0.5534
 2540SOL    HW310159   3.469   0.637   4.003  0.0241 -0.1746 -0.1230
 2540SOL    MW410160   3.403   0.664   4.052 -0.1822 -0.3353 -0.3067
 2541SOL     OW10161   2.494   0.372   4.313 -0.1809 -0.2428 -0.0093
 2541SOL    HW210162   2.494   0.329   4.399 -2.1008 -0.7573 -0.2540
 2541SOL    HW310163   2.482   0.300   4.250 -0.3096  0.2963 -0.6052
 2541SOL    MW410164   2.492   0.357   4.316 -0.4512 -0.2396 -0.1202
 2542SOL     OW10165   1.857   2.468   3.365 -0.0328  0.3151 -0.0411
 2542SOL    HW210166   1.785   2.421   3.324 -0.8996  1.6153 -0.0599
 2542SOL    HW310167   1.936   2.422   3.337 -0.7591 -0.1882 -1.2982
 2542SOL    MW410168   1.858   2.456   3.356 -0.2430  0.4202 -0.2094
 2543SOL     OW10169   0.842   2.324   3.629  0.2906 -0.2200 -0.0317
 2543SOL    HW210170   0.845   2.249   3.688 -1.2426 -0.6732 -0.5128
 2543SOL    HW310171   0.816   2.397   3.685 -0.6531 -0.5484 -0.0327
 2543SOL    MW410172   0.839   2.324   3.644 -0.0362 -0.3231 -0.0953
 2544SOL     OW10173   2.154   0.078   3.601 -0.1125 -0.0016 -0.1137
 2544SOL    HW210174   2.222   0.053   3.663 -1.1287  0.0182  1.0068
 2544SOL    HW310175   2.099   0.140   3.649 -1.1938 -0.3671 -0.8697
 2544SOL    MW410176   2.156   0.083   3.615 -0.3892 -0.0472 -0.0656
 2545SOL     OW10177   1.697   2.733   4.234  0.0232  0.1091  0.2494
 2545SOL    HW210178   1.696   2.828   4.221 -0.7167 -0.1166 -1.4166
 2545SOL    HW310179   1.789   2.710   4.237  0.2103  0.7558 -0.3574
 2545SOL    MW410180   1.709   2.743   4.233 -0.0497  0.1646 -0.0504
 2546SOL     OW10181   2.508   0.751   3.747 -0.3295  0.1161  0.2444
 2546SOL    HW210182   2.454   0.811   3.695 -2.0143 -0.3524  1.4252
 2546SOL    HW310183   2.476   0.664   3.723 -0.0539 -0.1637  0.8974
 2546SOL    MW410184   2.497   0.748   3.737 -0.5154  0.0174  0.4863
 2547SOL     OW10185   3.438   0.203   4.001 -0.7171  0.0646  0.1512
 2547SOL    HW210186   3.370   0.268   4.015  1.2471  2.0959  0.4433
 2547SOL    HW310187   3.475   0.226   3.916 -1.2356 -1.8383 -0.6221
 2547SOL    MW410188   3.434   0.215   3.991 -0.5264  0.0815  0.0877
 2548SOL     OW10189   0.465   0.605   3.763  0.4147 -0.0611 -0.0070
 2548SOL    HW210190   0.452   0.694   3.730  0.8428 -0.4554 -1.2543
 2548SOL    HW310191   0.417   0.603   3.846  0.9762  1.5415  0.3731
 2548SOL    MW410192   0.457   0.616   3.770  0.5452  0.0983 -0.1214
 2549SOL     OW10193   1.045   3.496   4.782 -0.1549 -0.5398 -0.1822
 2549SOL    HW210194   0.953   3.467   4.788  0.0425 -0.9435  1.2607
 2549SOL    HW310195   1.040   3.591   4.777 -0.6832 -0.6036 -0.9448
 2549SOL    MW410196   1.032   3.504   4.782 -0.1986 -0.6015 -0.0925
 2550SOL     OW10197   2.489   1.497   3.726 -0.1816 -0.4053  0.2991
 2550SOL    HW210198   2.570   1.529   3.684 -0.1883  1.7069  1.8025
 2550SOL    HW310199   2.478   1.409   3.691  1.7941 -0.0749 -1.3333
 2550SOL    MW410200   2.499   1.490   3.716  0.0782 -0.0830  0.2821
 2551SOL     OW10201   1.043   0.687   4.500 -0.5031  0.0593  0.0413
 2551SOL    HW210202   1.061   0.767   4.451 -0.0791  0.6507  1.1485
 2551SOL    HW310203   1.114   0.627   4.474 -0.3767  0.3118 -0.1992
 2551SOL    MW410204   1.055   0.690   4.490 -0.4305  0.1706  0.1557
 2552SOL     OW10205   3.365   3.915   4.405 -0.4192  0.2999 -0.2628
 2552SOL    HW210206   3.378   3.860   4.328 -0.7832  0.7337 -0.6384
 2552SOL    HW310207   3.369   4.004   4.372 -0.5440  0.4915  0.2270
 2552SOL    MW410208   3.367   3.919   4.391 -0.4837  0.3824 -0.2477
 2553SOL     OW10209   3.164   1.942   3.917  0.2266  0.4593 -0.5555
 2553SOL    HW210210   3.193   1.981   3.835  3.1951  1.5492  0.9311
 2553SOL    HW310211   3.140   1.852   3.894  1.7357  0.5165 -2.4589
 2553SOL    MW410212   3.164   1.936   3.903  0.8174  0.6107 -0.6105
 2554SOL     OW10213   2.214   1.785   3.843 -0.2552 -0.1486  0.6516
 2554SOL    HW210214   2.246   1.857   3.897 -0.8836  0.0058  0.8233
 2554SOL    HW310215   2.210   1.710   3.902 -0.5885 -0.0716  0.7242
 2554SOL    MW410216   2.218   1.785   3.858 -0.3821 -0.1181  0.6838
 2555SOL     OW10217   4.124   4.526   4.075 -0.1012 -0.0484  0.1658
 2555SOL    HW210218   4.062   4.587   4.116 -1.0562  1.1830 -3.0145
 2555SOL    HW310219   4.204   4.534   4.128 -1.0528  2.0427  1.3277
 2555SOL    MW410220   4.127   4.535   4.088 -0.3527  0.3900 -0.1005
 2556SOL     OW10221   3.034   3.250   4.095 -0.3982  0.1696  0.2283
 2556SOL    HW210222   2.960   3.218   4.146 -0.8733 -1.2536 -1.3096
 2556SOL    HW310223   3.049   3.183   4.028  1.1234  1.2884 -0.6123
 2556SOL    MW410224   3.026   3.237   4.093 -0.2601  0.1294 -0.0855
 2557SOL     OW10225   0.175   1.926   3.987  0.1268 -0.3687  0.1152
 2557SOL    HW210226   0.155   1.968   4.071 -0.9968  0.3686 -0.5231
 2557SOL    HW310227   0.125   1.974   3.922  1.3904 -0.6111 -1.0745
 2557SOL    MW410228   0.166   1.938   3.990  0.1453 -0.3034 -0.1260
 2558SOL     OW10229   2.509   3.539   3.620 -0.1704 -0.1366 -0.5660
 2558SOL    HW210230   2.604   3.540   3.625 -0.1257 -0.8593 -1.2445
 2558SOL    HW310231   2.481   3.494   3.700  0.0919 -0.6929 -0.7850
 2558SOL    MW410232   2.518   3.533   3.631 -0.1299 -0.3054 -0.6844
 2559SOL     OW10233   3.573   0.911   3.609  0.1742  0.3817 -0.0958
 2559SOL    HW210234   3.575   1.002   3.639  0.1863  0.1291  0.6927
 2559SOL    HW310235   3.655   0.873   3.640 -0.2679 -0.1565  0.4420
 2559SOL    MW410236   3.584   0.918   3.617  0.1175  0.2774  0.0792
 2560SOL     OW10237   3.784   4.151   4.236  0.3750 -0.2242 -0.5521
 2560SOL    HW210238   3.736   4.197   4.168 -0.0413  1.1222  0.6128
 2560SOL    HW310239   3.855   4.211   4.259 -0.3881  0.0364  1.2420
 2560SOL    MW410240   3.787   4.165   4.230  0.2194 -0.0122 -0.1617
 2561SOL     OW10241   0.127   0.003   4.544  0.3445  0.3531 -0.0323
 2561SOL    HW210242   0.216   0.025   4.570  1.3045 -2.6159 -0.6077
 2561SOL    HW310243   0.136  -0.026   4.452 -1.3239  0.8165 -0.3502
 2561SOL    MW410244   0.140   0.002   4.535  0.2510  0.0225 -0.1502
 2562SOL     OW10245   2.824   2.772   3.654  0.1298 -0.1189  0.2025
 2562SOL    HW210246   2.909   2.772   3.699 -0.9380 -1.0095  2.3024
 2562SOL    HW310247   2.790   2.683   3.668 -1.6669  0.5740  0.4206
 2562SOL    MW410248   2.831   2.760   3.662 -0.2481 -0.1450  0.5083
 2563SOL     OW10249   3.876   3.792   3.505  0.1498 -0.1139 -0.1344
 2563SOL    HW210250   3.811   3.845   3.551  0.0411 -0.4719  0.1277
 2563SOL    HW310251   3.959   3.814   3.549  0.1464  0.0504 -0.2107
 2563SOL    MW410252   3.878   3.802   3.517  0.1350 -0.1394 -0.1099
 2564SOL     OW10253   1.452   2.307   4.247  0.2147 -0.1225 -0.1219
 2564SOL    HW210254   1.526   2.326   4.189  1.7364 -1.3735  1.3647
 2564SOL    HW310255   1.486   2.241   4.308 -2.1173 -0.6619  0.6186
 2564SOL    MW410256   1.467   2.301   4.247  0.1078 -0.3587  0.1720
 2565SOL     OW10257   1.964   1.928   4.263 -0.0312  0.2709 -0.0867
 2565SOL    HW210258   1.895   1.932   4.329 -0.1714 -2.3115 -0.0272
 2565SOL    HW310259   1.920   1.947   4.181 -0.6871 -0.6458  0.0446
 2565SOL    MW410260   1.949   1.931   4.261 -0.1363 -0.1907 -0.0615
 2566SOL     OW10261   0.244   3.607   3.938 -0.3068 -0.1184 -0.1120
 2566SOL    HW210262   0.270   3.698   3.926 -0.6221 -0.1591 -1.1412
 2566SOL    HW310263   0.252   3.568   3.851 -0.5181 -0.9816  0.2544
 2566SOL    MW410264   0.248   3.614   3.925 -0.3763 -0.2376 -0.1995
 2567SOL     OW10265   1.499   2.282   4.687  0.0281 -0.5551 -0.1084
 2567SOL    HW210266   1.418   2.321   4.653  0.7106 -0.0445 -1.1813
 2567SOL    HW310267   1.481   2.267   4.780 -1.5104 -1.0266 -0.4701
 2567SOL    MW410268   1.486   2.285   4.695 -0.0848 -0.5500 -0.2977
 2568SOL     OW10269   1.982   4.366   3.303 -0.1583 -0.0126 -0.1267
 2568SOL    HW210270   1.971   4.461   3.298 -1.6263 -0.1624 -0.0971
 2568SOL    HW310271   1.894   4.331   3.286  0.7515 -1.4411 -2.1361
 2568SOL    MW410272   1.969   4.373   3.300 -0.2319 -0.2209 -0.3879
 2569SOL     OW10273   3.994   0.970   3.582 -0.4381  0.4646  0.4018
 2569SOL    HW210274   4.072   0.942   3.628  0.3294  0.9091 -0.6162
 2569SOL    HW310275   3.925   0.911   3.614  0.4890 -0.5237  0.6205
 2569SOL    MW410276   3.995   0.958   3.592 -0.2145  0.3929  0.2964
 2570SOL     OW10277   3.308   2.035   4.349  0.2980  0.5872 -0.1354
 2570SOL    HW210278   3.279   2.001   4.433 -0.5094  0.7106 -0.3572
 2570SOL    HW310279   3.332   1.957   4.299  1.5284  0.5699  0.4802
 2570SOL    MW410280   3.307   2.020   4.353  0.3538  0.6012 -0.0834
 2571SOL     OW10281   2.490   3.814   3.700  0.3384  0.1718  0.1250
 2571SOL    HW210282   2.408   3.855   3.672  1.3123  0.8900 -1.7235
 2571SOL    HW310283   2.489   3.728   3.657  1.0646  0.6162 -0.7837
 2571SOL    MW410284   2.479   3.808   3.691  0.5627  0.3252 -0.2388
 2572SOL     OW10285   0.265   2.844   3.869 -0.0441  0.1808 -0.1486
 2572SOL    HW210286   0.191   2.839   3.929 -0.1790 -1.5394 -0.4129
 2572SOL    HW310287   0.341   2.857   3.926 -0.3080 -0.2495  0.3076
 2572SOL    MW410288   0.265   2.845   3.884 -0.0967 -0.1029 -0.1233
 2573SOL     OW10289   0.871   0.610   3.816 -0.2855 -0.1089  0.1655
 2573SOL    HW210290   0.808   0.613   3.888 -1.1425  0.3085 -0.5947
 2573SOL    HW310291   0.919   0.529   3.830 -0.8990 -0.3701  0.8276
 2573SOL    MW410292   0.869   0.600   3.828 -0.4795 -0.0883  0.1526
 2574SOL     OW10293   2.720   4.487   3.679 -0.1024 -0.3320  0.0797
 2574SOL    HW210294   2.787   4.421   3.660  0.0824  0.1748 -1.1273
 2574SOL    HW310295   2.638   4.446   3.652 -0.2007 -0.7250  0.9831
 2574SOL    MW410296   2.718   4.473   3.673 -0.0910 -0.3170  0.0396
 2575SOL     OW10297   3.842   2.803   3.361  0.1328  0.0245 -0.1398
 2575SOL    HW210298   3.753   2.784   3.331  0.0260  0.4357 -0.0867
 2575SOL    HW310299   3.859   2.892   3.329  1.4333 -0.9657 -2.2940
 2575SOL    MW410300   3.832   2.812   3.353  0.2903 -0.0519 -0.4170
 2576SOL     OW10301   0.401   1.878   3.797 -0.0764 -0.6900  0.1581
 2576SOL    HW210302   0.336   1.887   3.866  0.4680 -1.0600  0.7222
 2576SOL    HW310303   0.406   1.965   3.757 -0.9872 -0.6838  0.0381
 2576SOL    MW410304   0.393   1.891   3.801 -0.1248 -0.7380  0.2167
 2577SOL     OW10305   2.079   0.092   4.113 -0.3093  0.1992 -0.7053
 2577SOL    HW210306   2.168   0.107   4.080 -0.2439  0.9151 -0.2251
 2577SOL    HW310307   2.052   0.010   4.073  1.2760 -1.0159  0.6062
 2577SOL    MW410308   2.087   0.083   4.104 -0.0915  0.1333 -0.4689
 2578SOL     OW10309   3.316   4.158   4.265 -0.5009 -0.3714 -0.4343
 2578SOL    HW210310   3.334   4.145   4.171 -4.5375 -1.4965 -1.1337
 2578SOL    HW310311   3.223   4.182   4.268 -0.3819 -0.2144  3.3034
 2578SOL    MW410312   3.306   4.160   4.253 -1.0178 -0.4991 -0.0335
 2579SOL     OW10313   2.103   1.692   4.271 -0.8641 -0.2873 -0.5468
 2579SOL    HW210314   2.061   1.778   4.268 -0.0904  0.0938 -0.6832
 2579SOL    HW310315   2.188   1.709   4.312 -1.3375 -1.2608  0.8665
 2579SOL    MW410316   2.109   1.706   4.276 -0.8245 -0.3654 -0.3783
 2580SOL     OW10317   0.802   1.429   4.100  0.0755  0.4592  0.2986
 2580SOL    HW210318   0.841   1.342   4.092 -0.6793  0.1661 -0.3095
 2580SOL    HW310319   0.869   1.482   4.143  0.3284 -0.5738  1.2128
 2580SOL    MW410320   0.816   1.424   4.105  0.0093  0.2843  0.3390
 2581SOL     OW10321   1.640   2.833   3.840 -0.0085 -0.0706 -0.3608
 2581SOL    HW210322   1.713   2.773   3.821 -0.0900 -0.6451  1.0822
 2581SOL    HW310323   1.626   2.880   3.758  2.9518  1.1030 -0.2389
 2581SOL    MW410324   1.648   2.831   3.826  0.3714  0.0084 -0.1543
 2582SOL     OW10325   2.150   3.434   3.773  0.1191 -0.0210  0.1508
 2582SOL    HW210326   2.141   3.505   3.710  0.5210  0.1016  0.2243
 2582SOL    HW310327   2.238   3.400   3.757 -0.0561 -0.4726  0.1454
 2582SOL    MW410328   2.161   3.439   3.763  0.1490 -0.0644  0.1598
 2583SOL     OW10329   2.728   1.597   3.622 -0.4306  0.5130  0.2202
 2583SOL    HW210330   2.763   1.649   3.695 -0.4770 -0.3661  0.8818
 2583SOL    HW310331   2.787   1.521   3.617 -1.5709 -0.4103  0.6138
 2583SOL    MW410332   2.740   1.594   3.631 -0.5872  0.2752  0.3594
 2584SOL     OW10333   0.043   2.091   3.816 -0.4754  0.6205  0.1372
 2584SOL    HW210334  -0.037   2.086   3.868  0.0381  0.6385  0.9333
 2584SOL    HW310335   0.023   2.043   3.735 -0.4373 -1.5941  1.4195
 2584SOL    MW410336   0.030   2.084   3.812 -0.4026  0.3307  0.4114
 2585SOL     OW10337   2.305   0.091   4.485 -0.2322 -0.5815 -0.0337
 2585SOL    HW210338   2.236   0.131   4.433 -0.2921 -1.0616 -0.3232
 2585SOL    HW310339   2.335   0.161   4.543 -1.2644 -0.4965  0.4037
 2585SOL    MW410340   2.300   0.106   4.486 -0.3763 -0.6337 -0.0142
 2586SOL     OW10341   4.472   0.311   3.245  0.2570  0.1189 -0.6851
 2586SOL    HW210342   4.545   0.357   3.288  0.6832  0.4318 -1.7408
 2586SOL    HW310343   4.394   0.348   3.285  0.6157  1.3411 -1.1049
 2586SOL    MW410344   4.472   0.322   3.256  0.3605  0.3214 -0.8798
 2587SOL     OW10345   0.489   1.697   4.042 -0.4195  0.2722 -0.0865
 2587SOL    HW210346   0.407   1.668   4.002 -0.8627  1.9397 -0.4418
 2587SOL    HW310347   0.556   1.642   4.002 -1.3448 -0.9913  0.0732
 2587SOL    MW410348   0.487   1.686   4.031 -0.6000  0.3255 -0.1123
 2588SOL     OW10349   0.086   2.178   4.498  0.5472 -0.2688  0.1229
 2588SOL    HW210350   0.169   2.210   4.533  0.4834 -1.2266  1.1724
 2588SOL    HW310351   0.108   2.144   4.411  1.3388 -0.8668  0.5417
 2588SOL    MW410352   0.100   2.178   4.491  0.6433 -0.4741  0.3167
 2589SOL     OW10353   4.179   3.589   4.280  0.2223 -0.0848 -0.0795
 2589SOL    HW210354   4.123   3.647   4.229 -0.2104  0.6490  1.1971
 2589SOL    HW310355   4.127   3.509   4.292 -1.0718  1.0312  2.0996
 2589SOL    MW410356   4.165   3.586   4.275 -0.0055  0.1593  0.3765
 2590SOL     OW10357   1.880   2.232   4.074  0.0509  0.0250 -0.0094
 2590SOL    HW210358   1.789   2.251   4.049  0.3441 -0.3478 -1.3376
 2590SOL    HW310359   1.895   2.288   4.150 -1.0909  0.5631 -0.1699
 2590SOL    MW410360   1.870   2.242   4.081 -0.0610  0.0468 -0.2058
 2591SOL     OW10361   0.386   3.260   3.614  0.0601  0.1548 -0.0302
 2591SOL    HW210362   0.472   3.229   3.642  0.8762  1.5228 -0.9388
 2591SOL    HW310363   0.324   3.199   3.653  1.4925 -1.3798 -0.1065
 2591SOL    MW410364   0.390   3.248   3.623  0.3567  0.1328 -0.1601
 2592SOL     OW10365   0.055   3.949   3.267 -0.2458 -0.0768  0.0853
 2592SOL    HW210366   0.038   4.043   3.274 -1.3947 -0.2591 -0.2443
 2592SOL    HW310367   0.124   3.933   3.331 -0.2035  0.9477  0.3092
 2592SOL    MW410368   0.062   3.959   3.276 -0.3918  0.0343  0.0714
 2593SOL     OW10369   2.433   1.961   4.480 -0.2502  0.2000 -0.1802
 2593SOL    HW210370   2.380   1.995   4.407 -0.5929  0.1999  0.0668
 2593SOL    HW310371   2.424   2.027   4.548 -0.9831 -0.4272  0.3352
 2593SOL    MW410372   2.425   1.974   4.479 -0.3921  0.1173 -0.0796
 2594SOL     OW10373   0.755   0.512   4.307 -0.3071 -0.0384  0.2457
 2594SOL    HW210374   0.737   0.418   4.319 -1.6493  0.3054  1.0464
 2594SOL    HW310375   0.762   0.546   4.396  0.7975  0.5211 -0.0462
 2594SOL    MW410376   0.754   0.504   4.320 -0.3384  0.0808  0.3128
 2595SOL     OW10377   0.146   4.005   3.710 -0.0033  0.2938  0.2195
 2595SOL    HW210378   0.053   4.012   3.731 -0.3210 -2.4992 -0.0152
 2595SOL    HW310379   0.182   3.950   3.779  0.8742 -1.0026 -1.2283
 2595SOL    MW410380   0.138   3.999   3.722  0.0705 -0.2457 -0.0025
 2596SOL     OW10381   3.151   3.588   3.762 -0.1106 -0.0629  0.0608
 2596SOL    HW210382   3.247   3.591   3.766 -0.1294  0.2462  0.2660
 2596SOL    HW310383   3.124   3.679   3.752 -0.4652  0.0679  2.0227
 2596SOL    MW410384   3.160   3.600   3.761 -0.1599 -0.0049  0.3468
 2597SOL     OW10385   1.460   0.697   4.300 -0.2698 -0.0053  0.3480
 2597SOL    HW210386   1.544   0.659   4.327  0.1383  0.2690 -0.4957
 2597SOL    HW310387   1.470   0.791   4.315  0.6012  0.3708 -2.3023
 2597SOL    MW410388   1.472   0.704   4.305 -0.1010  0.0805 -0.1130
 2598SOL     OW10389   3.922   2.523   3.978  0.2741 -0.2184 -0.3074
 2598SOL    HW210390   3.914   2.526   3.883  0.4289 -2.0496 -0.3927
 2598SOL    HW310391   3.841   2.481   4.007  0.4099 -0.0391  0.3345
 2598SOL    MW410392   3.910   2.518   3.969  0.3125 -0.4364 -0.2340
 2599SOL     OW10393   3.595   0.535   3.877 -0.0184  0.1084 -0.5129
 2599SOL    HW210394   3.527   0.481   3.836  1.4527 -2.5262  0.4420
 2599SOL    HW310395   3.661   0.546   3.809  0.9166 -1.5572  0.1036
 2599SOL    MW410396   3.594   0.529   3.863  0.2991 -0.4590 -0.3056
 2600SOL     OW10397   0.688   1.433   3.603 -0.1153 -0.0431 -0.4116
 2600SOL    HW210398   0.733   1.387   3.674 -1.1722 -0.1208  0.2117
 2600SOL    HW310399   0.599   1.445   3.635 -0.3945  0.5943 -1.4230
 2600SOL    MW410400   0.682   1.428   3.616 -0.2916  0.0307 -0.4628
 2601SOL     OW10401   1.619   2.312   3.744  0.1516  0.6414 -0.1678
 2601SOL    HW210402   1.555   2.356   3.688 -0.1060 -0.8159 -1.0462
 2601SOL    HW310403   1.701   2.357   3.726 -0.2963  1.4017 -0.3203
 2601SOL    MW410404   1.621   2.324   3.734  0.0585  0.5495 -0.3038
 2602SOL     OW10405   0.350   0.405   3.613 -0.0343  0.1681 -0.3928
 2602SOL    HW210406   0.384   0.494   3.626  1.7083 -0.2826 -1.6785
 2602SOL    HW310407   0.278   0.415   3.551 -0.0019  0.7184 -0.3419
 2602SOL    MW410408   0.345   0.418   3.607  0.1999  0.1812 -0.5557
 2603SOL     OW10409   2.341   4.612   3.764  0.2029  0.4797  0.2155
 2603SOL    HW210410   2.427   4.649   3.787  0.4891 -1.1723  1.9461
 2603SOL    HW310411   2.318   4.557   3.839 -0.7825 -1.8280 -1.6993
 2603SOL    MW410412   2.349   4.610   3.777  0.1106 -0.0428  0.1912
 2604SOL     OW10413   2.056   2.262   3.638 -0.1884  0.3615 -0.4199
 2604SOL    HW210414   1.980   2.318   3.648 -0.1997  0.1630  0.7608
 2604SOL    HW310415   2.025   2.187   3.588 -1.0676 -0.2563  1.0133
 2604SOL    MW410416   2.042   2.260   3.633 -0.3059  0.2538 -0.0750
 2605SOL     OW10417   3.363   2.290   3.732  0.0116  0.1920  0.0267
 2605SOL    HW210418   3.284   2.329   3.695 -0.6664 -0.9100  0.2760
 2605SOL    HW310419   3.435   2.344   3.699 -0.7828  0.7125 -0.8655
 2605SOL    MW410420   3.362   2.302   3.722 -0.1827  0.1153 -0.0582
 2606SOL     OW10421   2.222   0.665   4.059 -0.7431 -0.6391  0.2059
 2606SOL    HW210422   2.206   0.744   4.111 -0.1376  0.2388 -0.9057
 2606SOL    HW310423   2.314   0.671   4.034 -1.1584 -0.7233 -1.4553
 2606SOL    MW410424   2.232   0.676   4.062 -0.7180 -0.5344 -0.1599
 2607SOL     OW10425   0.701   0.788   4.214 -0.3136 -0.0678  0.2578
 2607SOL    HW210426   0.724   0.698   4.237 -1.4852  0.1016  2.2097
 2607SOL    HW310427   0.629   0.779   4.152  1.2265 -0.4995 -1.4951
 2607SOL    MW410428   0.694   0.775   4.209 -0.2650 -0.1024  0.2840
 2608SOL     OW10429   3.660   3.873   3.888  0.0854  0.4393 -0.4333
 2608SOL    HW210430   3.730   3.892   3.950  1.9100 -1.0471 -1.9509
 2608SOL    HW310431   3.583   3.860   3.942  1.5764 -0.5876  1.5089
 2608SOL    MW410432   3.659   3.874   3.903  0.5229  0.1077 -0.3773
 2609SOL     OW10433   2.906   2.428   3.806  0.0662  0.5483 -0.0662
 2609SOL    HW210434   2.848   2.487   3.758  1.4134  1.0507 -1.1004
 2609SOL    HW310435   2.993   2.444   3.769  0.5429 -1.7356 -0.0238
 2609SOL    MW410436   2.910   2.438   3.795  0.3068  0.3132 -0.1970
 2610SOL     OW10437   0.607   0.261   3.975  0.2244  0.0847  0.3576
 2610SOL    HW210438   0.681   0.204   3.997  0.2591 -0.2354 -0.5739
 2610SOL    HW310439   0.532   0.201   3.968  0.0660  0.2821  0.3808
 2610SOL    MW410440   0.607   0.245   3.977  0.2081  0.0685  0.2378
 2611SOL     OW10441   0.753   0.682   4.532 -0.7126  0.2166  0.3019
 2611SOL    HW210442   0.846   0.665   4.549 -1.2887 -1.1181  2.2775
 2611SOL    HW310443   0.749   0.776   4.516  0.9617  0.3067  0.2836
 2611SOL    MW410444   0.765   0.692   4.532 -0.5677  0.0524  0.5602
 2612SOL     OW10445   4.017   0.694   4.306 -0.5023  0.2993  0.2845
 2612SOL    HW210446   4.001   0.764   4.243  3.0978 -0.4044 -1.5193
 2612SOL    HW310447   4.050   0.738   4.384  1.7475  0.6717 -0.8477
 2612SOL    MW410448   4.019   0.709   4.308  0.2695  0.2556 -0.1029
 2613SOL     OW10449   0.456   0.831   3.382 -0.1016 -0.5056  0.3633
 2613SOL    HW210450   0.441   0.918   3.347 -0.6734 -1.0791 -0.8539
 2613SOL    HW310451   0.440   0.840   3.476 -0.8888  0.5412  0.1457
 2613SOL    MW410452   0.452   0.843   3.390 -0.2809 -0.4432  0.1740
 2614SOL     OW10453   2.891   0.646   4.398  0.1527  0.0397  0.3791
 2614SOL    HW210454   2.935   0.624   4.480 -1.1105  0.7750  1.2655
 2614SOL    HW310455   2.870   0.739   4.406 -0.5770 -0.0427 -0.4900
 2614SOL    MW410456   2.894   0.656   4.410 -0.1102  0.1258  0.3814
 2615SOL     OW10457   3.986   0.275   4.067  0.5491 -0.1944  0.1205
 2615SOL    HW210458   3.985   0.198   4.124  0.6950 -1.2268 -1.2412
 2615SOL    HW310459   3.902   0.317   4.082 -0.0163 -1.2646  0.0312
 2615SOL    MW410460   3.975   0.270   4.076  0.4937 -0.4718 -0.0710
 2616SOL     OW10461   0.904   1.174   4.099 -0.0523 -0.1710  0.4185
 2616SOL    HW210462   0.935   1.119   4.027  0.0155 -1.4222  1.3775
 2616SOL    HW310463   0.925   1.123   4.178 -1.1288  0.6720  1.2611
 2616SOL    MW410464   0.911   1.160   4.100 -0.1854 -0.2249  0.6562
 2617SOL     OW10465   0.704   2.457   4.079 -0.3441 -0.0563 -0.0625
 2617SOL    HW210466   0.723   2.477   3.987 -2.5230 -0.4444 -0.6377
 2617SOL    HW310467   0.782   2.413   4.111  1.2587  1.9048 -1.1366
 2617SOL    MW410468   0.717   2.454   4.071 -0.4201  0.1512 -0.2801
 2618SOL     OW10469   4.014   2.977   3.757 -0.0139  0.0633  0.2731
 2618SOL    HW210470   3.994   2.931   3.838 -0.4436 -0.5558 -0.1741
 2618SOL    HW310471   4.109   2.987   3.758  0.1195 -1.1292  0.2369
 2618SOL    MW410472   4.024   2.972   3.767 -0.0530 -0.1757  0.2093
 2619SOL     OW10473   0.318   1.931   4.528  0.5126  0.4557  0.1357
 2619SOL    HW210474   0.391   1.987   4.501  0.5366  0.6951  0.7047
 2619SOL    HW310475   0.281   1.974   4.605 -1.3182  1.2511 -1.1651
 2619SOL    MW410476   0.323   1.944   4.534  0.2742  0.5922  0.0392
 2620SOL     OW10477   4.270   0.487   3.654 -0.3402 -0.0983  0.1015
 2620SOL    HW210478   4.359   0.506   3.683 -0.3025  0.1716 -0.1903
 2620SOL    HW310479   4.214   0.534   3.715 -0.3103 -0.9651  0.8134
 2620SOL    MW410480   4.274   0.495   3.665 -0.3313 -0.1770  0.1569
 2621SOL     OW10481   1.402   3.740   4.054 -0.2079 -0.3136 -0.0945
 2621SOL    HW210482   1.437   3.652   4.071  0.2201 -0.2079 -0.4097
 2621SOL    HW310483   1.399   3.782   4.140 -2.5236 -1.4024  0.3836
 2621SOL    MW410484   1.407   3.734   4.068 -0.4570 -0.4433 -0.0730
 2622SOL     OW10485   1.965   4.000   3.875 -0.5179  0.0636 -0.1006
 2622SOL    HW210486   1.936   4.019   3.786 -0.0843 -0.7381 -0.4185
 2622SOL    HW310487   1.951   4.082   3.922  0.2532  0.8348 -1.1684
 2622SOL    MW410488   1.960   4.013   3.869 -0.3589  0.0596 -0.2834
 2623SOL     OW10489   0.195   3.166   4.083  0.2993 -0.8927  0.4631
 2623SOL    HW210490   0.199   3.157   3.987 -1.6632 -0.1565  0.2719
 2623SOL    HW310491   0.101   3.174   4.101  0.8444  2.8090  2.0533
 2623SOL    MW410492   0.183   3.166   4.073  0.1123 -0.3072  0.6477
 2624SOL     OW10493   3.388   1.570   3.208 -0.3480 -0.2841  0.3762
 2624SOL    HW210494   3.295   1.591   3.219 -0.2139  0.7104 -0.3750
 2624SOL    HW310495   3.431   1.615   3.281 -0.4374 -0.6958  0.6895
 2624SOL    MW410496   3.381   1.578   3.219 -0.3421 -0.2072  0.3184
 2625SOL     OW10497   1.623   4.367   3.594 -0.1291  0.2902  0.0074
 2625SOL    HW210498   1.687   4.304   3.628 -0.9561 -1.0767 -0.8943
 2625SOL    HW310499   1.663   4.452   3.610  1.9296 -0.5314 -0.5460
 2625SOL    MW410500   1.637   4.370   3.601  0.0334  0.0014 -0.1846
 2626SOL     OW10501   2.449   0.721   3.232 -0.2629  0.0249  0.4317
 2626SOL    HW210502   2.525   0.773   3.255 -0.5491  0.8286 -0.4107
 2626SOL    HW310503   2.443   0.727   3.137  0.5323 -2.7305  0.1601
 2626SOL    MW410504   2.458   0.729   3.223 -0.1957 -0.2326  0.2847
 2627SOL     OW10505   3.140   3.973   3.348 -0.4697  0.0692  0.0702
 2627SOL    HW210506   3.225   3.960   3.306 -0.7995 -1.9444 -0.0338
 2627SOL    HW310507   3.109   4.056   3.313  1.3761  0.7490 -0.0165
 2627SOL    MW410508   3.147   3.982   3.338 -0.2697 -0.1068  0.0451
 2628SOL     OW10509   2.818   0.405   4.595  0.4238 -0.1117  0.0071
 2628SOL    HW210510   2.780   0.330   4.641 -0.1548  0.5583  0.6294
 2628SOL    HW310511   2.857   0.367   4.516  1.7336 -1.3332  1.2035
 2628SOL    MW410512   2.818   0.390   4.591  0.5203 -0.1845  0.2471
 2629SOL     OW10513   1.785   0.890   3.565 -0.1081 -0.2213 -0.0919
 2629SOL    HW210514   1.791   0.884   3.469  1.4038  0.9434 -0.0797
 2629SOL    HW310515   1.729   0.965   3.581  0.3037  0.0776 -0.0550
 2629SOL    MW410516   1.778   0.899   3.554  0.1457 -0.0282 -0.0854
 2630SOL     OW10517   3.707   3.149   4.295 -0.1454 -0.4748  0.3671
 2630SOL    HW210518   3.756   3.069   4.317  1.5057  1.0705  2.5386
 2630SOL    HW310519   3.745   3.177   4.211 -0.1181 -1.4895  0.0324
 2630SOL    MW410520   3.719   3.142   4.287  0.0761 -0.4048  0.6094
 2631SOL     OW10521   3.603   2.702   3.269  0.2697 -0.1605 -0.2104
 2631SOL    HW210522   3.601   2.608   3.287  2.2920  0.0389  1.2143
 2631SOL    HW310523   3.606   2.708   3.173  1.6171 -1.5831 -0.2708
 2631SOL    MW410524   3.603   2.690   3.259  0.7143 -0.3219 -0.0304
 2632SOL     OW10525   0.522   4.046   3.454 -0.2527  0.2486  0.0986
 2632SOL    HW210526   0.441   3.996   3.454 -0.0781 -0.0890 -2.3721
 2632SOL    HW310527   0.513   4.107   3.381  1.5438  0.4918  0.0431
 2632SOL    MW410528   0.510   4.048   3.444  0.0074  0.2361 -0.2347
 2633SOL     OW10529   0.293   3.870   4.209 -0.0186 -0.1891 -0.2933
 2633SOL    HW210530   0.385   3.865   4.235 -0.0529 -0.6731 -0.2472
 2633SOL    HW310531   0.246   3.822   4.277 -0.2047 -0.7020 -0.7743
 2633SOL    MW410532   0.299   3.863   4.221 -0.0476 -0.3206 -0.3507
 2634SOL     OW10533   1.317   3.214   3.388  0.0673 -0.2281 -0.6840
 2634SOL    HW210534   1.329   3.192   3.481 -0.4924  0.8152 -0.3599
 2634SOL    HW310535   1.388   3.167   3.343  0.2218 -0.9053  0.2422
 2634SOL    MW410536   1.328   3.205   3.395  0.0139 -0.1798 -0.5190
 2635SOL     OW10537   4.328   0.221   3.733  0.0796  0.0122 -0.1411
 2635SOL    HW210538   4.355   0.241   3.822  2.0312 -1.1127 -0.4555
 2635SOL    HW310539   4.302   0.306   3.697 -0.2119  0.5576  1.3171
 2635SOL    MW410540   4.328   0.235   3.740  0.2986 -0.0643  0.0098
 2636SOL     OW10541   3.537   1.556   4.193 -0.0651  0.0134  0.3016
 2636SOL    HW210542   3.607   1.606   4.150 -1.1416  1.3417  0.0521
 2636SOL    HW310543   3.547   1.579   4.286 -0.1190  0.1394  0.2769
 2636SOL    MW410544   3.548   1.566   4.200 -0.2142  0.2053  0.2654
 2637SOL     OW10545   3.363   0.747   3.708 -0.0428 -0.1534  0.3667
 2637SOL    HW210546   3.430   0.805   3.670  0.1102 -0.6252 -0.1001
 2637SOL    HW310547   3.377   0.663   3.664  0.5617 -0.9075  1.9632
 2637SOL    MW410548   3.374   0.743   3.697  0.0572 -0.3152  0.5157
 2638SOL     OW10549   0.668   2.883   3.673 -0.2314 -0.1113  0.0155
 2638SOL    HW210550   0.625   2.966   3.696  0.2338  0.7949 -2.2498
 2638SOL    HW310551   0.757   2.892   3.707  0.0597  0.6719 -0.9352
 2638SOL    MW410552   0.674   2.895   3.681 -0.1316  0.1116 -0.4088
 2639SOL     OW10553   3.980   1.158   3.952 -0.0083  0.6839 -0.2021
 2639SOL    HW210554   4.020   1.072   3.935  1.4011  1.2940 -0.0579
 2639SOL    HW310555   4.053   1.213   3.980 -1.1192  1.6116  0.8974
 2639SOL    MW410556   3.995   1.154   3.953  0.0311  0.8868 -0.0380
 2640SOL     OW10557   1.849   3.628   3.788  0.1933 -0.2474  0.2551
 2640SOL    HW210558   1.782   3.563   3.767 -0.8564  0.2988  1.8424
 2640SOL    HW310559   1.807   3.687   3.850  1.7615  0.8204  0.3326
 2640SOL    MW410560   1.835   3.627   3.793  0.2617 -0.0345  0.4747
 2641SOL     OW10561   0.142   1.538   3.722 -0.1424  0.1447 -0.3467
 2641SOL    HW210562   0.065   1.585   3.691  0.3398 -0.8856 -3.2346
 2641SOL    HW310563   0.216   1.585   3.683  0.4179 -1.8330 -1.7645
 2641SOL    MW410564   0.141   1.550   3.713 -0.0048 -0.2521 -0.9148
 2642SOL     OW10565   0.409   0.874   3.651 -0.2952  0.2713  0.1220
 2642SOL    HW210566   0.331   0.844   3.697  0.4842 -1.3446  0.4513
 2642SOL    HW310567   0.447   0.941   3.708 -0.9062  0.3704  0.4161
 2642SOL    MW410568   0.404   0.879   3.664 -0.2730  0.0712  0.2043
 2643SOL     OW10569   2.867   3.278   3.730 -0.3188  0.1210 -0.0930
 2643SOL    HW210570   2.950   3.301   3.688 -0.4131  1.2753  0.3209
 2643SOL    HW310571   2.828   3.363   3.753 -0.1270 -0.4706  2.5812
 2643SOL    MW410572   2.873   3.292   3.727 -0.3059  0.1952  0.3144
 2644SOL     OW10573   2.216   0.073   3.324  0.2832 -0.3592 -0.0031
 2644SOL    HW210574   2.306   0.039   3.326  0.8617  1.1724  2.1546
 2644SOL    HW310575   2.197   0.094   3.415 -3.1956 -2.9600 -0.0147
 2644SOL    MW410576   2.225   0.071   3.336 -0.0995 -0.5002  0.2801
 2645SOL     OW10577   2.590   0.530   4.598  0.2656  0.5047 -0.0660
 2645SOL    HW210578   2.591   0.608   4.542  0.0948 -0.2743 -1.1857
 2645SOL    HW310579   2.678   0.492   4.587 -0.3118 -0.5627 -1.1437
 2645SOL    MW410580   2.602   0.535   4.589  0.1669  0.2611 -0.3559
 2646SOL     OW10581   2.016   3.530   3.990  0.5442 -0.3798  0.0895
 2646SOL    HW210582   1.949   3.577   3.940  0.0331  0.4595  1.5192
 2646SOL    HW310583   2.071   3.488   3.924 -0.7269 -0.1435 -1.1287
 2646SOL    MW410584   2.015   3.531   3.975  0.3090 -0.2379  0.1174
 2647SOL     OW10585   1.914   4.234   4.000 -0.3069 -0.1752  0.1415
 2647SOL    HW210586   1.959   4.316   3.982  1.0571 -1.5402 -3.2077
 2647SOL    HW310587   1.968   4.190   4.065  0.6744  0.2346 -0.3951
 2647SOL    MW410588   1.927   4.239   4.006  0.0025 -0.3012 -0.3712
 2648SOL     OW10589   1.795   0.979   4.028 -0.5988 -0.6830 -0.5216
 2648SOL    HW210590   1.850   0.970   3.950 -0.9735 -1.0096 -0.7514
 2648SOL    HW310591   1.761   0.891   4.043 -1.3750 -0.3980 -0.6132
 2648SOL    MW410592   1.798   0.966   4.019 -0.7506 -0.6885 -0.5640
 2649SOL     OW10593   4.133   4.226   3.862  0.6108  0.1116 -0.1417
 2649SOL    HW210594   4.159   4.211   3.953  1.9106 -2.4554 -0.8829
 2649SOL    HW310595   4.171   4.311   3.839  1.1274  0.3014  1.4080
 2649SOL    MW410596   4.141   4.235   3.871  0.8505 -0.2020 -0.0350
 2650SOL     OW10597   0.243   4.631   3.784 -0.0884 -0.2985 -0.5449
 2650SOL    HW210598   0.148   4.628   3.772 -0.6300  0.6759  2.8387
 2650SOL    HW310599   0.271   4.706   3.732 -1.4296  0.4139 -0.2768
 2650SOL    MW410600   0.234   4.641   3.776 -0.3368 -0.0760 -0.0631
 2651SOL     OW10601   1.062   3.080   4.108 -0.5144  0.5143 -0.0792
 2651SOL    HW210602   1.145   3.036   4.123 -0.9535 -0.6541 -1.0365
 2651SOL    HW310603   1.072   3.165   4.151  1.5972  0.8584 -1.1769
 2651SOL    MW410604   1.074   3.086   4.116 -0.2938  0.4055 -0.3503
 2652SOL     OW10605   0.778   0.229   4.318  0.2538 -0.3556  0.3214
 2652SOL    HW210606   0.860   0.184   4.296 -0.1491 -1.1198  0.3397
 2652SOL    HW310607   0.710   0.162   4.304 -0.2293 -0.1543  1.6668
 2652SOL    MW410608   0.780   0.214   4.313  0.1369 -0.4299  0.5013
 2653SOL     OW10609   0.278   2.669   3.650  0.4234 -0.0802  0.0259
 2653SOL    HW210610   0.277   2.702   3.560  0.8552 -0.6072 -0.1707
 2653SOL    HW310611   0.282   2.748   3.704  3.0920  0.1743 -0.4712
 2653SOL    MW410612   0.278   2.684   3.645  0.8325 -0.1161 -0.0656
 2654SOL     OW10613   1.529   0.460   3.259  0.0716 -0.0467  0.3747
 2654SOL    HW210614   1.543   0.372   3.225 -2.4424 -0.2586 -0.1882
 2654SOL    HW310615   1.526   0.448   3.354 -0.0276 -0.5416  0.3125
 2654SOL    MW410616   1.530   0.447   3.267 -0.2732 -0.1400  0.2922
 2655SOL     OW10617   4.307   2.961   3.772  0.1146 -0.0221  0.1153
 2655SOL    HW210618   4.336   3.028   3.710  1.3595 -1.0556 -0.4282
 2655SOL    HW310619   4.303   2.880   3.721 -0.6996 -0.5072  0.9330
 2655SOL    MW410620   4.311   2.959   3.757  0.1714 -0.2225  0.1515
 2656SOL     OW10621   0.365   3.363   4.440 -0.2458  0.3309 -0.3308
 2656SOL    HW210622   0.305   3.390   4.370  0.2390  0.0759 -0.8524
 2656SOL    HW310623   0.383   3.444   4.488  0.1509  0.6889 -1.0710
 2656SOL    MW410624   0.359   3.377   4.437 -0.1295  0.3445 -0.4973
 2657SOL     OW10625   2.351   1.950   4.037 -0.3512 -0.2879 -0.0488
 2657SOL    HW210626   2.377   1.860   4.058  0.5063 -0.2176 -0.7938
 2657SOL    HW310627   2.336   1.991   4.122  2.3029 -0.2402  0.4408
 2657SOL    MW410628   2.353   1.943   4.051  0.1121 -0.2723 -0.0825
 2658SOL     OW10629   3.132   4.236   3.201  0.3023 -0.4440 -0.3587
 2658SOL    HW210630   3.056   4.279   3.241  0.6272  2.2894 -2.6079
 2658SOL    HW310631   3.206   4.292   3.224  0.7764  0.0904 -3.0527
 2658SOL    MW410632   3.132   4.249   3.210  0.4077 -0.0128 -1.0109
 2659SOL     OW10633   3.046   3.540   4.015  0.0956  0.4941 -0.0728
 2659SOL    HW210634   3.054   3.449   4.043 -0.4636  0.4803  0.0437
 2659SOL    HW310635   3.081   3.540   3.926  2.8745  0.7455  0.9825
 2659SOL    MW410636   3.052   3.528   4.007  0.3884  0.5254  0.0818
 2660SOL     OW10637   4.111   1.861   4.303 -0.0245  0.2060  0.1798
 2660SOL    HW210638   4.063   1.941   4.322 -0.6880 -0.6200  2.1401
 2660SOL    HW310639   4.180   1.858   4.369  1.3390  0.2413 -1.2205
 2660SOL    MW410640   4.114   1.871   4.314  0.0679  0.1017  0.2537
 2661SOL     OW10641   0.437   0.330   3.002 -0.9185 -0.2465  0.3060
 2661SOL    HW210642   0.467   0.316   3.092 -1.4160  0.2749  0.5600
 2661SOL    HW310643   0.507   0.381   2.960  0.0811 -1.9336 -0.0996
 2661SOL    MW410644   0.450   0.335   3.008 -0.8522 -0.4003  0.2860
 2662SOL     OW10645   1.018   1.008   3.912 -0.5822 -0.0113 -0.6741
 2662SOL    HW210646   1.015   0.941   3.980 -0.5433 -0.2053 -0.8643
 2662SOL    HW310647   1.111   1.026   3.900 -0.6552  1.7487  1.0228
 2662SOL    MW410648   1.029   1.002   3.919 -0.5867  0.1953 -0.4753
 2663SOL     OW10649   1.678   0.733   4.063  0.4102  0.1079  0.2344
 2663SOL    HW210650   1.705   0.675   4.134  1.5440  0.2990 -0.0384
 2663SOL    HW310651   1.583   0.724   4.061  0.4321 -0.5219  1.2415
 2663SOL    MW410652   1.669   0.724   4.072  0.5627  0.0500  0.3313
 2664SOL     OW10653   1.558   1.191   3.312  0.4124  0.4531  0.2769
 2664SOL    HW210654   1.542   1.285   3.311 -3.7493 -0.1444  1.0607
 2664SOL    HW310655   1.597   1.174   3.398 -0.6805  1.1938  0.9207
 2664SOL    MW410656   1.561   1.201   3.323 -0.2809  0.4720  0.4653
 2665SOL     OW10657   3.979   0.299   3.779  0.6081 -0.1212  0.2810
 2665SOL    HW210658   4.029   0.223   3.749  0.2632 -0.2940  0.1405
 2665SOL    HW310659   3.996   0.302   3.874  0.0523 -0.8001  0.4048
 2665SOL    MW410660   3.988   0.289   3.788  0.4892 -0.2336  0.2788
 2666SOL     OW10661   2.415   3.648   4.395 -0.1111 -0.0887  0.2141
 2666SOL    HW210662   2.337   3.630   4.447 -0.5404  0.8684 -0.0866
 2666SOL    HW310663   2.403   3.596   4.316  0.8538 -2.0624  1.3289
 2666SOL    MW410664   2.403   3.639   4.392 -0.0404 -0.2228  0.3215
 2667SOL     OW10665   2.720   2.365   4.498  0.0939 -0.0371 -0.4885
 2667SOL    HW210666   2.649   2.326   4.550  0.3897 -0.9546 -0.7604
 2667SOL    HW310667   2.741   2.298   4.434  1.8754 -0.1691  0.2141
 2667SOL    MW410668   2.713   2.351   4.497  0.3680 -0.1756 -0.4317
 2668SOL     OW10669   1.210   4.652   3.541 -0.1213  0.0736  0.3912
 2668SOL    HW210670   1.255   4.675   3.459  0.0623 -0.1442  0.4295
 2668SOL    HW310671   1.153   4.579   3.518  0.3202 -0.3279  0.5735
 2668SOL    MW410672   1.209   4.645   3.527 -0.0388 -0.0081  0.4203
 2669SOL     OW10673   1.133   0.883   4.324 -0.4685 -0.2006 -0.1667
 2669SOL    HW210674   1.090   0.856   4.242 -0.8351 -0.2322  0.0349
 2669SOL    HW310675   1.092   0.966   4.346  0.4008  0.3366 -0.5858
 2669SOL    MW410676   1.122   0.890   4.316 -0.4022 -0.1339 -0.1954
 2670SOL     OW10677   0.244   4.348   3.388  0.0204 -0.2610 -0.2807
 2670SOL    HW210678   0.287   4.359   3.472  0.0544  0.0545 -0.3388
 2670SOL    HW310679   0.312   4.314   3.330 -0.3814 -1.9592  0.1987
 2670SOL    MW410680   0.259   4.345   3.391 -0.0282 -0.4434 -0.2251
 2671SOL     OW10681   1.557   1.484   3.280 -0.6923 -0.0407 -0.1806
 2671SOL    HW210682   1.636   1.518   3.321 -1.0812  0.8174 -0.1442
 2671SOL    HW310683   1.566   1.508   3.188 -0.8759 -0.0210 -0.1928
 2671SOL    MW410684   1.569   1.492   3.273 -0.7678  0.0751 -0.1774
 2672SOL     OW10685   2.479   4.387   3.620  0.8246  0.0423 -0.2817
 2672SOL    HW210686   2.415   4.317   3.628 -0.5019  1.1428 -1.1206
 2672SOL    HW310687   2.430   4.467   3.636  2.1383  0.8537 -0.2038
 2672SOL    MW410688   2.464   4.388   3.623  0.8229  0.2946 -0.3821
 2673SOL     OW10689   1.149   1.658   3.819  0.2726 -0.1296  0.1138
 2673SOL    HW210690   1.091   1.686   3.748 -1.0476  0.1730  1.2980
 2673SOL    HW310691   1.130   1.565   3.831 -0.6527  0.1872  1.1361
 2673SOL    MW410692   1.139   1.649   3.811 -0.0237 -0.0479  0.4049
 2674SOL     OW10693   0.164   0.356   4.399  0.3185 -0.3890  0.4147
 2674SOL    HW210694   0.084   0.359   4.346  0.5699 -0.0435  0.0513
 2674SOL    HW310695   0.219   0.290   4.357  0.1820 -0.6999  0.7248
 2674SOL    MW410696   0.161   0.348   4.386  0.3336 -0.3844  0.4076
 2675SOL     OW10697   3.486   2.463   4.406  0.5733  0.2426 -0.2127
 2675SOL    HW210698   3.393   2.479   4.424  0.7960  1.1334  0.1692
 2675SOL    HW310699   3.508   2.385   4.456 -0.2519 -0.6372 -1.1962
 2675SOL    MW410700   3.476   2.455   4.415  0.4938  0.2441 -0.2921
 2676SOL     OW10701   1.003   2.648   3.847  0.2037 -0.6676 -0.7500
 2676SOL    HW210702   1.074   2.643   3.783  0.4220  0.3727 -0.6136
 2676SOL    HW310703   1.047   2.670   3.929 -0.3239  0.6784 -0.8014
 2676SOL    MW410704   1.018   2.651   3.849  0.1629 -0.3527 -0.7388
 2677SOL     OW10705   1.059   1.780   4.055 -0.4268  0.3912  0.4871
 2677SOL    HW210706   1.076   1.731   3.974 -0.2294  0.5189  0.4499
 2677SOL    HW310707   0.992   1.844   4.031 -0.5661  0.2448  0.4932
 2677SOL    MW410708   1.052   1.782   4.041 -0.4192  0.3887  0.4830
 2678SOL     OW10709   1.942   1.818   3.786  0.3762 -0.0397  0.3978
 2678SOL    HW210710   1.902   1.864   3.860  0.3558 -1.4432  1.2774
 2678SOL    HW310711   2.035   1.814   3.807  0.3246 -0.7237  0.5010
 2678SOL    MW410712   1.949   1.823   3.798  0.3667 -0.3151  0.5275
 2679SOL     OW10713   4.043   2.097   3.905 -0.2087 -0.0887 -0.0204
 2679SOL    HW210714   4.009   2.100   3.816 -1.1977  0.2194  0.3571
 2679SOL    HW310715   3.965   2.081   3.959  0.2966  0.3051  0.8277
 2679SOL    MW410716   4.028   2.095   3.901 -0.2725  0.0039  0.1413
 2680SOL     OW10717   3.718   1.412   3.948  0.0468  0.1306 -0.4028
 2680SOL    HW210718   3.634   1.438   3.911  0.2969  3.2211  1.0808
 2680SOL    HW310719   3.701   1.326   3.987 -1.6662 -0.5740 -2.5791
 2680SOL    MW410720   3.705   1.404   3.949 -0.1462  0.4454 -0.4942
 2681SOL     OW10721   4.359   1.980   4.496  0.0519 -0.1628  0.1929
 2681SOL    HW210722   4.396   2.061   4.531  0.6331  0.1818 -1.1751
 2681SOL    HW310723   4.436   1.927   4.472 -0.3316 -0.8497  0.4599
 2681SOL    MW410724   4.374   1.984   4.498  0.0780 -0.2080  0.0476
 2682SOL     OW10725   0.550   3.553   4.269 -0.2767  0.1990  0.5744
 2682SOL    HW210726   0.545   3.551   4.364  0.3816 -0.4272  0.5953
 2682SOL    HW310727   0.467   3.514   4.240 -0.6231  0.6983  0.8838
 2682SOL    MW410728   0.538   3.548   4.277 -0.2356  0.1823  0.6180
 2683SOL     OW10729   1.338   0.321   2.940 -0.4013 -0.4883  0.2716
 2683SOL    HW210730   1.351   0.227   2.929 -0.5549 -0.4517 -0.2294
 2683SOL    HW310731   1.424   0.360   2.921 -0.6198 -0.4397 -0.6532
 2683SOL    MW410732   1.351   0.314   2.936 -0.4504 -0.4771  0.0835
 2684SOL     OW10733   3.792   1.442   3.591 -0.3112 -0.3682 -0.4198
 2684SOL    HW210734   3.843   1.382   3.645  0.0096 -0.7740 -1.1828
 2684SOL    HW310735   3.786   1.400   3.506 -2.2303 -0.4914 -0.2489
 2684SOL    MW410736   3.798   1.429   3.587 -0.5221 -0.4380 -0.4979
 2685SOL     OW10737   3.528   4.341   4.336 -0.1671  0.0814 -0.6693
 2685SOL    HW210738   3.466   4.281   4.295  1.3781 -0.6655 -1.9500
 2685SOL    HW310739   3.587   4.284   4.385  0.7030  0.6446 -1.0656
 2685SOL    MW410740   3.527   4.325   4.337  0.1516  0.0571 -0.8906
 2686SOL     OW10741   3.304   1.020   3.975  0.2896 -0.3180 -0.3233
 2686SOL    HW210742   3.263   0.941   3.942  1.8202 -1.6454  0.9009
 2686SOL    HW310743   3.265   1.034   4.061  1.5246 -0.9297  0.3471
 2686SOL    MW410744   3.293   1.012   3.982  0.6545 -0.5738 -0.0734
 2687SOL     OW10745   0.664   4.550   4.062  0.0656  0.3073  0.0802
 2687SOL    HW210746   0.660   4.494   3.985 -0.3498  2.0021 -1.1533
 2687SOL    HW310747   0.714   4.626   4.035 -2.0793  2.0164  0.7260
 2687SOL    MW410748   0.670   4.552   4.048 -0.2722  0.7564  0.0026
 2688SOL     OW10749   0.695   4.508   3.204  0.5747 -0.2764 -0.5016
 2688SOL    HW210750   0.690   4.555   3.121  0.9538  0.0222 -0.3544
 2688SOL    HW310751   0.774   4.454   3.197  1.3916  0.8169  0.2180
 2688SOL    MW410752   0.705   4.507   3.192  0.7325 -0.0928 -0.3872
 2689SOL     OW10753   2.710   1.642   3.358  0.0232 -0.1996  0.3335
 2689SOL    HW210754   2.718   1.633   3.453 -0.2589 -2.4889  0.1591
 2689SOL    HW310755   2.697   1.736   3.344  1.3504  0.3316  2.4519
 2689SOL    MW410756   2.709   1.654   3.369  0.1611 -0.4316  0.5900
 2690SOL     OW10757   1.389   2.885   4.418  0.0017  0.1565  0.4401
 2690SOL    HW210758   1.373   2.900   4.325 -0.1094  0.6817  0.5442
 2690SOL    HW310759   1.315   2.831   4.447 -0.0913  0.2000  0.2812
 2690SOL    MW410760   1.378   2.880   4.410 -0.0252  0.2316  0.4329
 2691SOL     OW10761   0.038   2.367   3.350  0.2088 -0.3044 -0.2268
 2691SOL    HW210762   0.054   2.348   3.443 -0.3725 -0.9518 -0.2539
 2691SOL    HW310763   0.029   2.462   3.347 -0.9774 -0.3752  0.5789
 2691SOL    MW410764   0.039   2.377   3.362 -0.0244 -0.3992 -0.1241
 2692SOL     OW10765   4.318   4.513   4.290  0.2523 -0.0134 -0.0002
 2692SOL    HW210766   4.344   4.605   4.287  1.3228 -0.2452  1.8169
 2692SOL    HW310767   4.392   4.466   4.249 -0.0367 -0.1282 -0.3974
 2692SOL    MW410768   4.331   4.519   4.284  0.3554 -0.0591  0.1871
 2693SOL     OW10769   1.350   4.035   3.383  0.0652  0.1658  0.8166
 2693SOL    HW210770   1.419   3.975   3.353  1.7117  2.0442  0.7295
 2693SOL    HW310771   1.347   4.022   3.478 -1.3482 -1.8271  0.5428
 2693SOL    MW410772   1.359   4.025   3.391  0.0960  0.1507  0.7690
 2694SOL     OW10773   1.192   2.729   4.514 -0.1381  0.2560  0.3372
 2694SOL    HW210774   1.220   2.638   4.521 -0.2637  0.2083  0.2203
 2694SOL    HW310775   1.110   2.726   4.466 -0.4945  0.3727  0.9386
 2694SOL    MW410776   1.185   2.717   4.509 -0.2017  0.2651  0.4011
 2695SOL     OW10777   2.535   0.094   3.881  0.1031 -0.0944 -0.1777
 2695SOL    HW210778   2.564   0.173   3.837  0.8688 -0.7401 -0.8609
 2695SOL    HW310779   2.615   0.041   3.890 -0.2648 -0.4856  0.9021
 2695SOL    MW410780   2.550   0.097   3.877  0.1556 -0.2312 -0.1254
 2696SOL     OW10781   3.806   3.206   4.040  0.2778 -0.1675  0.0750
 2696SOL    HW210782   3.851   3.290   4.036 -0.3880  0.2801  1.6920
 2696SOL    HW310783   3.772   3.192   3.951  0.2806  1.3186 -0.1674
 2696SOL    MW410784   3.808   3.215   4.028  0.1903  0.0876  0.2564
 2697SOL     OW10785   2.730   0.823   3.609 -0.5459  0.3906  0.0384
 2697SOL    HW210786   2.797   0.756   3.622  0.3411  1.3628  0.5527
 2697SOL    HW310787   2.650   0.785   3.646 -0.1255 -0.5027  0.0339
 2697SOL    MW410788   2.728   0.809   3.616 -0.3734  0.4010  0.1057
 2698SOL     OW10789   1.953   3.073   4.212  0.5579  0.2378  0.4640
 2698SOL    HW210790   2.008   3.033   4.145 -0.2237  0.3837 -0.2824
 2698SOL    HW310791   1.965   3.168   4.199  1.5805  0.2635  1.5299
 2698SOL    MW410792   1.962   3.081   4.201  0.5897  0.2605  0.5062
 2699SOL     OW10793   4.396   2.395   4.510 -0.3722  0.0470  0.5940
 2699SOL    HW210794   4.452   2.321   4.486 -1.9784 -0.7944 -0.6811
 2699SOL    HW310795   4.421   2.416   4.600  1.6209 -0.6277  0.2269
 2699SOL    MW410796   4.407   2.388   4.519 -0.3212 -0.1530  0.3773
 2700SOL     OW10797   4.179   4.073   4.752 -0.6102 -0.2002 -0.4147
 2700SOL    HW210798   4.127   4.153   4.744 -0.6212 -0.2352 -0.6846
 2700SOL    HW310799   4.193   4.063   4.846 -2.2435 -0.9362 -0.2407
 2700SOL    MW410800   4.174   4.083   4.763 -0.8271 -0.3019 -0.4274
 2701SOL     OW10801   3.802   3.897   4.115  0.0423  0.1688 -0.3923
 2701SOL    HW210802   3.893   3.870   4.123  0.2364  0.6343 -0.9716
 2701SOL    HW310803   3.795   3.976   4.169 -0.5547 -1.0951  1.4031
 2701SOL    MW410804   3.813   3.904   4.123 -0.0108  0.0635 -0.2318
 2702SOL     OW10805   2.494   2.023   3.367  0.1833  0.0835 -0.1420
 2702SOL    HW210806   2.422   1.978   3.322 -0.5275  1.4442 -0.4298
 2702SOL    HW310807   2.482   2.001   3.459 -0.8222  0.5575 -0.1457
 2702SOL    MW410808   2.483   2.014   3.373 -0.0431  0.3255 -0.1804
 2703SOL     OW10809   0.227   1.648   3.985  0.4092  0.1703 -0.2019
 2703SOL    HW210810   0.179   1.610   3.911 -0.9531  1.6539 -0.0919
 2703SOL    HW310811   0.197   1.739   3.990  2.6509  0.9004  0.3774
 2703SOL    MW410812   0.216   1.655   3.976  0.5253  0.4624 -0.1109
 2704SOL     OW10813   2.950   3.767   3.639  0.1264  0.2343 -0.2675
 2704SOL    HW210814   2.937   3.711   3.561 -0.8527 -0.3016  0.2699
 2704SOL    HW310815   2.883   3.834   3.631 -0.2788 -0.0927  0.3535
 2704SOL    MW410816   2.940   3.768   3.627 -0.0563  0.1205 -0.1147
 2705SOL     OW10817   0.174   0.801   3.774 -0.0703  0.0764  0.7572
 2705SOL    HW210818   0.108   0.840   3.716 -1.0644 -1.1014  1.0764
 2705SOL    HW310819   0.134   0.803   3.861  0.5446 -0.1400  1.0516
 2705SOL    MW410820   0.160   0.807   3.778 -0.1203 -0.1075  0.8382
 2706SOL     OW10821   0.564   3.832   4.274  0.4113  0.3710 -0.5696
 2706SOL    HW210822   0.616   3.884   4.213  0.5224 -0.0478 -0.8370
 2706SOL    HW310823   0.571   3.742   4.240  1.8604 -0.1346  1.0264
 2706SOL    MW410824   0.572   3.827   4.261  0.6171  0.2490 -0.3943
 2707SOL     OW10825   2.750   0.460   4.244  0.7292  0.1318  0.0664
 2707SOL    HW210826   2.661   0.444   4.277  0.9236 -0.1873  0.4502
 2707SOL    HW310827   2.786   0.526   4.303  0.9256 -0.1196  0.2317
 2707SOL    MW410828   2.743   0.466   4.256  0.7808  0.0565  0.1388
 2708SOL     OW10829   1.158   2.012   3.693  0.0633 -0.0564 -0.3349
 2708SOL    HW210830   1.245   1.979   3.716  0.4861  0.3762 -1.2824
 2708SOL    HW310831   1.157   2.013   3.598 -0.4133  1.4267 -0.3312
 2708SOL    MW410832   1.169   2.007   3.684  0.0562  0.1964 -0.4594
 2709SOL     OW10833   1.632   3.454   3.736  0.5205  0.1587 -0.4554
 2709SOL    HW210834   1.603   3.415   3.819 -1.5435  1.0843 -0.7201
 2709SOL    HW310835   1.568   3.523   3.718  1.7610  0.9000 -2.1094
 2709SOL    MW410836   1.619   3.458   3.744  0.4118  0.3786 -0.7085
 2710SOL     OW10837   1.810   1.951   4.016 -0.3746 -0.2217  0.1166
 2710SOL    HW210838   1.825   2.046   4.021 -1.7096  0.0106 -0.1068
 2710SOL    HW310839   1.715   1.943   4.008 -0.2002 -1.5557 -0.6127
 2710SOL    MW410840   1.800   1.963   4.016 -0.5277 -0.3671 -0.0091
 2711SOL     OW10841   1.433   1.510   4.147 -0.3448  0.2759 -0.6514
 2711SOL    HW210842   1.393   1.424   4.146 -2.3545  1.1995 -1.6721
 2711SOL    HW310843   1.526   1.494   4.131 -0.7021 -1.6962 -0.7628
 2711SOL    MW410844   1.440   1.497   4.145 -0.6571  0.1376 -0.8008
 2712SOL     OW10845   1.144   2.309   3.696  0.0804 -0.1756 -0.0028
 2712SOL    HW210846   1.056   2.307   3.660  0.3802 -1.9228 -0.6653
 2712SOL    HW310847   1.173   2.218   3.696  1.7097  0.3166  0.6468
 2712SOL    MW410848   1.136   2.297   3.691  0.3349 -0.3411 -0.0045
 2713SOL     OW10849   2.832   2.934   4.280 -0.0840  0.0643 -0.2525
 2713SOL    HW210850   2.781   2.915   4.358  1.0382  1.1415  0.7469
 2713SOL    HW310851   2.796   3.016   4.246  1.1481  0.9455  0.5852
 2713SOL    MW410852   2.820   2.942   4.286  0.2266  0.3227 -0.0101
 2714SOL     OW10853   4.193   1.331   4.006  0.3134  0.0560  0.1385
 2714SOL    HW210854   4.120   1.392   4.007 -0.6239 -1.0542  0.7613
 2714SOL    HW310855   4.271   1.386   4.014 -0.5120  1.1764  0.5111
 2714SOL    MW410856   4.194   1.346   4.007  0.0808  0.0573  0.2698
 2715SOL     OW10857   1.223   4.619   3.902 -0.0026  0.2950 -0.2811
 2715SOL    HW210858   1.145   4.581   3.862  0.5334 -0.4998 -0.5757
 2715SOL    HW310859   1.281   4.637   3.828  1.5225 -2.3784  0.2337
 2715SOL    MW410860   1.220   4.617   3.887  0.2693 -0.1626 -0.2520
 2716SOL     OW10861   0.278   2.254   3.239  0.0340  0.1696 -0.1802
 2716SOL    HW210862   0.343   2.318   3.271  0.0505  0.1794 -0.2334
 2716SOL    HW310863   0.194   2.291   3.266  0.1529 -0.8551  1.7036
 2716SOL    MW410864   0.276   2.267   3.247  0.0518  0.0357  0.0613
 2717SOL     OW10865   1.984   1.330   3.882 -0.4428  0.1129  0.5973
 2717SOL    HW210866   1.955   1.421   3.891 -0.4493  0.0513  1.2512
 2717SOL    HW310867   1.960   1.289   3.965  1.9011  0.1755  1.3646
 2717SOL    MW410868   1.977   1.337   3.894 -0.1344  0.1131  0.7848
 2718SOL     OW10869   3.796   4.580   3.725  0.0524  0.6251 -0.7902
 2718SOL    HW210870   3.766   4.514   3.663  1.1734  1.2845 -2.0491
 2718SOL    HW310871   3.748   4.560   3.806 -0.6333 -0.8790 -1.5483
 2718SOL    MW410872   3.786   4.569   3.728  0.1098  0.5136 -1.0563
 2719SOL     OW10873   2.929   0.622   3.658  0.1595  0.3700 -0.4149
 2719SOL    HW210874   3.005   0.679   3.653  1.6377 -1.5959 -1.1115
 2719SOL    HW310875   2.963   0.541   3.696 -1.7096 -0.3365 -0.2062
 2719SOL    MW410876   2.944   0.619   3.662  0.1079  0.0174 -0.4792
 2720SOL     OW10877   0.040   2.600   4.353 -0.3281  0.1148 -0.0580
 2720SOL    HW210878   0.127   2.562   4.345 -0.3351  0.4285 -1.7242
 2720SOL    HW310879  -0.013   2.532   4.394  0.4787 -0.3947  0.1418
 2720SOL    MW410880   0.045   2.586   4.358 -0.2226  0.0890 -0.2515
 2721SOL     OW10881   3.186   3.908   3.606 -0.4387  0.2309  0.2600
 2721SOL    HW210882   3.172   3.926   3.513  0.7627  0.2461  0.0710
 2721SOL    HW310883   3.102   3.875   3.637 -0.7342 -0.1714 -0.9356
 2721SOL    MW410884   3.173   3.906   3.598 -0.3192  0.1798  0.0773
 2722SOL     OW10885   2.693   4.282   3.237  0.1533  0.1554  0.1568
 2722SOL    HW210886   2.609   4.314   3.270  0.4976 -0.6049  1.8004
 2722SOL    HW310887   2.694   4.189   3.259  1.0235 -0.0548 -0.7128
 2722SOL    MW410888   2.682   4.274   3.244  0.3136  0.0273  0.2589
 2723SOL     OW10889   3.092   1.687   3.852  0.3287 -0.0311  0.0811
 2723SOL    HW210890   3.137   1.612   3.891 -1.5573 -0.5234  1.4459
 2723SOL    HW310891   3.096   1.672   3.758  2.1167 -0.5537  0.2232
 2723SOL    MW410892   3.098   1.675   3.845  0.3158 -0.1650  0.2799
 2724SOL     OW10893   4.277   0.376   4.625  0.1889  0.2572 -0.4486
 2724SOL    HW210894   4.339   0.444   4.598 -0.7852  1.7266  0.9007
 2724SOL    HW310895   4.327   0.295   4.620  1.2895  1.0047 -2.4101
 2724SOL    MW410896   4.291   0.374   4.621  0.2056  0.5497 -0.5294
 2725SOL     OW10897   3.919   0.615   3.935 -0.3670 -0.1877 -0.1641
 2725SOL    HW210898   3.869   0.695   3.948 -1.7916 -0.9417 -0.9388
 2725SOL    HW310899   3.873   0.549   3.987  0.4219 -0.6551 -0.0543
 2725SOL    MW410900   3.906   0.617   3.943 -0.4509 -0.3489 -0.2519
 2726SOL     OW10901   0.695   4.327   3.840  0.4702  0.1759  0.2535
 2726SOL    HW210902   0.786   4.308   3.860  0.2997  0.0367  0.8842
 2726SOL    HW310903   0.671   4.262   3.774  0.2215 -1.0865  1.5776
 2726SOL    MW410904   0.704   4.316   3.834  0.4149 -0.0090  0.5114
 2727SOL     OW10905   1.943   0.986   4.252 -0.1309 -0.2273 -0.3413
 2727SOL    HW210906   1.886   0.971   4.177 -1.1663 -1.2611  0.6505
 2727SOL    HW310907   2.027   0.948   4.226 -0.5010 -0.6295 -0.9476
 2727SOL    MW410908   1.947   0.979   4.239 -0.3163 -0.4168 -0.2905
 2728SOL     OW10909   4.242   4.187   4.103 -0.0695  0.2535 -0.0382
 2728SOL    HW210910   4.327   4.225   4.126 -0.4156  0.4406  0.9356
 2728SOL    HW310911   4.227   4.120   4.170 -0.8052  0.3895 -0.0604
 2728SOL    MW410912   4.251   4.183   4.115 -0.2123  0.2961  0.0874
 2729SOL     OW10913   0.979   0.807   4.101 -0.9933  0.5863  0.2656
 2729SOL    HW210914   0.893   0.814   4.141 -1.5418 -0.5473 -0.6681
 2729SOL    HW310915   0.998   0.713   4.099 -0.2320  0.7403 -0.5505
 2729SOL    MW410916   0.970   0.796   4.106 -0.9653  0.4571  0.0347
 2730SOL     OW10917   2.845   1.248   4.419 -0.6479  0.3655 -0.1014
 2730SOL    HW210918   2.911   1.218   4.481  0.4086 -0.0551 -1.3851
 2730SOL    HW310919   2.852   1.186   4.345 -2.5293  0.2636 -0.2310
 2730SOL    MW410920   2.854   1.236   4.417 -0.7568  0.2965 -0.2879
 2731SOL     OW10921   4.436   4.169   4.477 -0.0680 -0.5360 -0.4297
 2731SOL    HW210922   4.476   4.254   4.492 -0.2563 -0.4692 -0.3122
 2731SOL    HW310923   4.443   4.124   4.561  1.0358 -1.0575 -0.7825
 2731SOL    MW410924   4.443   4.174   4.490  0.0528 -0.5960 -0.4607
 2732SOL     OW10925   1.811   1.627   3.626 -0.5599  0.0793  0.1672
 2732SOL    HW210926   1.840   1.711   3.663  0.7399 -1.0241  1.7269
 2732SOL    HW310927   1.720   1.619   3.655 -0.3126  0.3890  1.0469
 2732SOL    MW410928   1.803   1.637   3.635 -0.3558 -0.0254  0.4891
 2733SOL     OW10929   3.754   0.433   4.092 -0.0578  0.2815  0.6048
 2733SOL    HW210930   3.762   0.500   4.160  1.7065  1.2461 -0.4902
 2733SOL    HW310931   3.697   0.473   4.026  1.0694  0.7830 -0.0914
 2733SOL    MW410932   3.748   0.447   4.092  0.3237  0.4749  0.3685
 2734SOL     OW10933   2.175   3.705   4.173  0.1770 -0.0385  0.4958
 2734SOL    HW210934   2.243   3.640   4.192 -0.6039 -0.9326  0.3014
 2734SOL    HW310935   2.112   3.658   4.118  0.5327  1.4266 -1.1975
 2734SOL    MW410936   2.175   3.690   4.168  0.1209  0.0369  0.2468
 2735SOL     OW10937   1.484   1.280   3.679 -0.0209  0.2368 -0.0019
 2735SOL    HW210938   1.488   1.375   3.679 -1.2657  0.2952 -0.4846
 2735SOL    HW310939   1.527   1.254   3.761  1.1110  1.1616 -0.2886
 2735SOL    MW410940   1.491   1.289   3.690 -0.0358  0.3665 -0.1034
 2736SOL     OW10941   1.329   4.297   3.282 -0.4024 -0.2763 -0.7381
 2736SOL    HW210942   1.331   4.289   3.187  0.8032 -1.4798 -0.6186
 2736SOL    HW310943   1.363   4.214   3.314 -2.6649 -0.6799  0.7841
 2736SOL    MW410944   1.334   4.285   3.274 -0.5418 -0.4883 -0.5215
 2737SOL     OW10945   4.197   2.329   4.331 -0.4994 -0.1047 -0.3396
 2737SOL    HW210946   4.240   2.364   4.409  0.4141  2.8805 -2.1161
 2737SOL    HW310947   4.246   2.250   4.310  0.6757  0.3010  0.8174
 2737SOL    MW410948   4.209   2.323   4.338 -0.2238  0.3427 -0.4213
 2738SOL     OW10949   1.492   0.465   3.537 -0.8177  0.3154 -0.3013
 2738SOL    HW210950   1.578   0.499   3.563 -0.0142 -1.5177 -0.5174
 2738SOL    HW310951   1.472   0.399   3.603 -0.3332 -1.9162 -2.3211
 2738SOL    MW410952   1.501   0.461   3.549 -0.6478 -0.2209 -0.5963
 2739SOL     OW10953   0.164   1.253   3.682  0.1887 -0.1511  0.2895
 2739SOL    HW210954   0.168   1.343   3.714 -2.0649  0.2134 -0.3448
 2739SOL    HW310955   0.181   1.260   3.588 -0.0110 -0.3680  0.2348
 2739SOL    MW410956   0.166   1.266   3.674 -0.1350 -0.1316  0.1986
 2740SOL     OW10957   4.458   4.032   4.718 -0.3062  0.3791 -0.1079
 2740SOL    HW210958   4.368   4.040   4.750 -0.7272 -0.3897 -1.0875
 2740SOL    HW310959   4.460   3.950   4.670  1.2225 -0.1694  0.8444
 2740SOL    MW410960   4.447   4.022   4.716 -0.1600  0.2053 -0.1115
 2741SOL     OW10961   3.309   4.100   3.751  0.6366 -0.1280 -0.1952
 2741SOL    HW210962   3.377   4.125   3.688  2.4182 -0.4443  1.5639
 2741SOL    HW310963   3.253   4.039   3.702  0.9974  0.9002 -1.9648
 2741SOL    MW410964   3.310   4.095   3.736  0.9192 -0.0341 -0.1966
 2742SOL     OW10965   3.590   2.723   4.442  0.2062  0.3024 -0.0487
 2742SOL    HW210966   3.513   2.774   4.469 -0.1139 -0.4624  0.4844
 2742SOL    HW310967   3.553   2.647   4.397  0.6766  0.3729 -0.5524
 2742SOL    MW410968   3.575   2.720   4.439  0.2261  0.2108 -0.0448
 2743SOL     OW10969   3.383   2.927   3.584  0.1977 -0.5628  0.2055
 2743SOL    HW210970   3.474   2.939   3.609  0.1178 -1.8237  1.1149
 2743SOL    HW310971   3.387   2.882   3.500  0.4077 -1.3767  0.6483
 2743SOL    MW410972   3.395   2.923   3.576  0.2148 -0.8366  0.3839
 2744SOL     OW10973   1.102   3.861   3.309  0.0206  0.2385  0.1833
 2744SOL    HW210974   1.182   3.907   3.335  0.0213  0.7474 -0.6782
 2744SOL    HW310975   1.113   3.772   3.342  1.0065  0.2727 -0.0552
 2744SOL    MW410976   1.114   3.856   3.317  0.1508  0.3102  0.0382
 2745SOL     OW10977   1.036   3.511   3.687 -0.7440  0.5385 -0.3157
 2745SOL    HW210978   1.128   3.490   3.701 -0.6436  0.9016 -0.4314
 2745SOL    HW310979   0.994   3.426   3.674 -0.3133  0.4154 -0.9224
 2745SOL    MW410980   1.043   3.497   3.687 -0.6739  0.5701 -0.4110
 2746SOL     OW10981   3.877   4.135   3.807 -0.1182  0.1491 -0.7358
 2746SOL    HW210982   3.826   4.158   3.885 -0.1436 -1.9154 -0.1279
 2746SOL    HW310983   3.964   4.173   3.824  0.2106 -1.2272  0.8346
 2746SOL    MW410984   3.882   4.143   3.819 -0.0781 -0.3049 -0.4484
 2747SOL     OW10985   2.908   4.053   4.387  0.9024  0.3506 -0.2344
 2747SOL    HW210986   2.969   4.111   4.342  0.2024  1.5710  0.3693
 2747SOL    HW310987   2.938   4.052   4.478  1.3184 -0.7892 -0.3727
 2747SOL    MW410988   2.920   4.061   4.393  0.8649  0.3612 -0.1730
 2748SOL     OW10989   2.663   2.891   3.849 -0.3156 -0.2204  0.0564
 2748SOL    HW210990   2.651   2.831   3.923 -3.3876 -1.1961 -1.1242
 2748SOL    HW310991   2.732   2.850   3.796 -0.3746 -1.2241  0.7391
 2748SOL    MW410992   2.671   2.877   3.852 -0.7287 -0.4815 -0.0093
 2749SOL     OW10993   2.720   2.751   4.082  0.0947  0.4891 -0.2182
 2749SOL    HW210994   2.798   2.699   4.063 -0.2558 -0.6210  1.2766
 2749SOL    HW310995   2.750   2.816   4.146 -0.2566 -0.1716  0.6396
 2749SOL    MW410996   2.734   2.753   4.088  0.0021  0.2555  0.0922
 2750SOL     OW10997   1.551   3.823   4.550 -0.1088  0.0110 -0.1769
 2750SOL    HW210998   1.625   3.790   4.499 -0.0065 -0.7471  0.4429
 2750SOL    HW310999   1.531   3.752   4.611 -0.2545  0.8908  0.8153
 2750SOL    MW411000   1.558   3.809   4.551 -0.1145  0.0270  0.0358
 2751SOL     OW11001   1.482   3.332   3.954 -0.0153 -0.1686  0.1800
 2751SOL    HW211002   1.483   3.376   4.039  2.2590  0.9729 -0.4071
 2751SOL    HW311003   1.501   3.240   3.975  0.8490  0.1625  0.8875
 2751SOL    MW411004   1.484   3.325   3.968  0.3988  0.0257  0.1959
 2752SOL     OW11005   2.495   1.506   3.244 -0.3297 -0.1133  0.4939
 2752SOL    HW211006   2.515   1.500   3.151  1.1038 -1.4182  0.8653
 2752SOL    HW311007   2.568   1.556   3.281 -0.1685 -0.8121  1.1324
 2752SOL    MW411008   2.507   1.512   3.237 -0.1193 -0.3777  0.6271
 2753SOL     OW11009   2.333   4.236   4.606 -0.0748 -0.2192  0.1853
 2753SOL    HW211010   2.417   4.192   4.619 -0.5407 -1.0280  0.4307
 2753SOL    HW311011   2.356   4.329   4.602  1.0545 -0.5342 -1.4579
 2753SOL    MW411012   2.347   4.243   4.607  0.0127 -0.3675  0.0008
 2754SOL     OW11013   3.192   1.316   4.302  0.0775  0.2266 -0.5987
 2754SOL    HW211014   3.203   1.324   4.397  0.9313 -0.0643 -0.6698
 2754SOL    HW311015   3.113   1.367   4.283  0.2751  0.8371  0.1802
 2754SOL    MW411016   3.183   1.324   4.312  0.2162  0.2688 -0.5053
 2755SOL     OW11017   3.099   0.398   3.618  0.3491 -0.0355  0.5797
 2755SOL    HW211018   3.188   0.430   3.633  0.3796  0.8217 -1.2834
 2755SOL    HW311019   3.110   0.314   3.575  0.2488 -0.3794  1.2168
 2755SOL    MW411020   3.112   0.391   3.614  0.3399  0.0322  0.4180
 2756SOL     OW11021   4.252   3.668   4.541 -0.0546  0.0735 -0.5613
 2756SOL    HW211022   4.197   3.745   4.561  1.4348  0.8105  0.7502
 2756SOL    HW311023   4.230   3.648   4.450 -0.0535  2.4339 -1.1350
 2756SOL    MW411024   4.242   3.676   4.531  0.1421  0.4822 -0.4640
 2757SOL     OW11025   3.156   1.673   3.324 -0.2295 -0.0160  0.3449
 2757SOL    HW211026   3.136   1.764   3.301 -1.1973 -0.0397  1.0599
 2757SOL    HW311027   3.077   1.624   3.300 -0.0613 -0.5217  0.8068
 2757SOL    MW411028   3.143   1.679   3.317 -0.3350 -0.0859  0.5002
 2758SOL     OW11029   2.240   2.739   4.195 -0.5951 -0.2350 -0.0600
 2758SOL    HW211030   2.256   2.723   4.288 -1.0928  1.7382  0.3775
 2758SOL    HW311031   2.271   2.659   4.152  2.5105  0.0419  1.5130
 2758SOL    MW411032   2.246   2.726   4.201 -0.2510  0.0619  0.2052
 2759SOL     OW11033   4.043   1.073   4.407 -0.1799 -0.0772 -0.2033
 2759SOL    HW211034   3.966   1.124   4.434 -0.1220 -0.0996  0.0083
 2759SOL    HW311035   4.063   1.019   4.483  0.1176  0.0164 -0.2164
 2759SOL    MW411036   4.036   1.073   4.421 -0.1330 -0.0678 -0.1771
 2760SOL     OW11037   3.668   0.114   3.383 -0.2700 -0.3206  0.1654
 2760SOL    HW211038   3.706   0.125   3.470 -1.5503  0.1800  0.6691
 2760SOL    HW311039   3.733   0.062   3.335  0.8522  0.1793  1.1318
 2760SOL    MW411040   3.682   0.108   3.388 -0.2908 -0.1886  0.3594
 2761SOL     OW11041   4.182   2.471   4.079 -0.1848 -0.1508 -0.2871
 2761SOL    HW211042   4.178   2.419   4.159  0.2997  1.6111  0.9083
 2761SOL    HW311043   4.091   2.489   4.058 -0.2938 -0.0357  0.2717
 2761SOL    MW411044   4.170   2.467   4.087 -0.1352  0.0968 -0.0556
 2762SOL     OW11045   3.967   1.506   4.042 -0.1452  0.7593  0.1646
 2762SOL    HW211046   3.882   1.494   4.000 -0.4543  2.0748  0.3893
 2762SOL    HW311047   3.984   1.600   4.037  0.3515  0.7874  1.9428
 2762SOL    MW411048   3.958   1.516   4.036 -0.1204  0.9365  0.4289
 2763SOL     OW11049   2.951   3.056   3.307 -0.5115  0.2459  0.4825
 2763SOL    HW211050   2.885   3.125   3.307 -0.6811  0.0792  1.0550
 2763SOL    HW311051   2.970   3.041   3.214 -0.3412  1.1897  0.3617
 2763SOL    MW411052   2.945   3.063   3.295 -0.5114  0.3484  0.5421
 2764SOL     OW11053   2.920   4.416   4.529  0.0856  0.3007  0.7546
 2764SOL    HW211054   2.946   4.334   4.571 -2.0991 -0.7766  0.0604
 2764SOL    HW311055   3.000   4.469   4.528  1.7815 -2.2149  0.2674
 2764SOL    MW411056   2.934   4.412   4.534  0.0211 -0.1733  0.5987
 2765SOL     OW11057   3.348   0.129   4.502  0.2021  0.2069  0.1754
 2765SOL    HW211058   3.400   0.094   4.430 -0.2074 -2.4496  1.0906
 2765SOL    HW311059   3.406   0.123   4.578 -0.1349  0.8711  0.4865
 2765SOL    MW411060   3.363   0.124   4.503  0.1036 -0.0559  0.3372
 2766SOL     OW11061   4.357   3.108   4.405  0.0860 -0.3557 -0.5412
 2766SOL    HW211062   4.391   3.020   4.422 -1.0606 -1.0361 -1.6661
 2766SOL    HW311063   4.386   3.128   4.317  1.5969  1.0178  0.2532
 2766SOL    MW411064   4.365   3.099   4.396  0.1341 -0.2643 -0.5848
 2767SOL     OW11065   0.932   1.330   4.514  0.2836 -0.5156 -0.4500
 2767SOL    HW211066   1.006   1.375   4.475  0.3865 -0.4168 -0.1372
 2767SOL    HW311067   0.896   1.392   4.578  1.3960 -1.4818  1.1325
 2767SOL    MW411068   0.937   1.344   4.517  0.4439 -0.6300 -0.1999
 2768SOL     OW11069   0.847   1.671   3.639  0.1114 -0.4824 -0.4705
 2768SOL    HW211070   0.777   1.734   3.655 -0.2341 -1.1879  0.8745
 2768SOL    HW311071   0.802   1.590   3.614  0.4119 -1.0251  0.6918
 2768SOL    MW411072   0.832   1.669   3.638  0.1055 -0.6471 -0.1397
 2769SOL     OW11073   2.200   0.357   3.236 -0.0113 -0.0782  0.4629
 2769SOL    HW211074   2.261   0.401   3.295  0.0263  0.2322  0.1929
 2769SOL    HW311075   2.216   0.264   3.250 -1.9564 -0.0863  3.0049
 2769SOL    MW411076   2.210   0.351   3.246 -0.2630 -0.0383  0.7627
 2770SOL     OW11077   3.521   4.167   3.573 -0.1476 -0.1319 -0.3169
 2770SOL    HW211078   3.588   4.099   3.586 -0.2814  0.1310  2.0996
 2770SOL    HW311079   3.567   4.249   3.590 -0.5935  0.2059 -0.7324
 2770SOL    MW411080   3.536   4.169   3.577 -0.2241 -0.0526 -0.0529
 2771SOL     OW11081   1.812   1.604   3.348  0.1192 -0.0548 -0.3866
 2771SOL    HW211082   1.811   1.629   3.440  1.8565 -0.1219 -0.3418
 2771SOL    HW311083   1.799   1.686   3.301 -1.0397 -0.0589 -0.0793
 2771SOL    MW411084   1.810   1.618   3.354  0.1955 -0.0642 -0.3401
 2772SOL     OW11085   4.246   4.566   4.626  0.2462  0.2142  0.3664
 2772SOL    HW211086   4.195   4.494   4.662  0.4764  1.3168  3.0142
 2772SOL    HW311087   4.191   4.602   4.556 -1.7918  0.1740  1.9050
 2772SOL    MW411088   4.232   4.561   4.622  0.0077  0.3544  0.9187
 2773SOL     OW11089   2.327   0.182   4.033  0.0520  0.1484 -0.1479
 2773SOL    HW211090   2.398   0.167   3.970  1.8947  1.7342  1.5051
 2773SOL    HW311091   2.298   0.271   4.015  0.7361  0.6912  1.3400
 2773SOL    MW411092   2.333   0.192   4.022  0.3853  0.4292  0.2665
 2774SOL     OW11093   4.183   4.051   3.429 -0.0663  0.0028  0.1560
 2774SOL    HW211094   4.221   3.972   3.390  0.6743  1.5361 -2.3445
 2774SOL    HW311095   4.126   4.086   3.361  0.9184  2.5065  0.5704
 2774SOL    MW411096   4.181   4.045   3.415  0.1613  0.5354 -0.1193
 2775SOL     OW11097   0.113   1.437   4.164 -0.5614  0.1694  0.2408
 2775SOL    HW211098   0.158   1.502   4.110  0.8633 -0.3213  0.8166
 2775SOL    HW311099   0.137   1.460   4.254  0.8365 -1.7574  0.4096
 2775SOL    MW411100   0.122   1.449   4.169 -0.1890 -0.1495  0.3391
 2776SOL     OW11101   3.948   0.035   4.226  0.1453 -0.1396 -0.4213
 2776SOL    HW211102   4.018   0.033   4.292 -0.9454 -0.1223  0.7694
 2776SOL    HW311103   3.870   0.009   4.274 -0.6401 -0.2992 -1.7751
 2776SOL    MW411104   3.947   0.032   4.241 -0.1022 -0.1584 -0.4428
 2777SOL     OW11105   1.180   4.124   4.042 -0.3615 -0.0979  0.2297
 2777SOL    HW211106   1.260   4.155   3.999 -0.6446 -0.7306 -0.7609
 2777SOL    HW311107   1.206   4.110   4.133  0.7605 -0.6789 -0.1673
 2777SOL    MW411108   1.194   4.126   4.048 -0.2508 -0.2580  0.0466
 2778SOL     OW11109   4.385   0.858   4.335  0.3006  0.4632  0.0945
 2778SOL    HW211110   4.373   0.952   4.319  0.9904  0.5920  0.3139
 2778SOL    HW311111   4.476   0.850   4.366  0.5936 -0.4144 -0.9605
 2778SOL    MW411112   4.396   0.869   4.337  0.4303  0.3644 -0.0157
 2779SOL     OW11113   0.048   0.535   3.724  0.6050  0.4392  0.2308
 2779SOL    HW211114   0.109   0.479   3.771  0.7037  1.1266  0.9454
 2779SOL    HW311115   0.082   0.624   3.737  0.2029  0.7094 -0.4981
 2779SOL    MW411116   0.060   0.539   3.732  0.5649  0.5655  0.2289
 2780SOL     OW11117   3.140   3.257   3.346  0.2913 -0.5937  0.1860
 2780SOL    HW211118   3.076   3.186   3.343 -1.5450  0.9405  1.1947
 2780SOL    HW311119   3.128   3.296   3.432  1.1175  1.0461 -0.4190
 2780SOL    MW411120   3.130   3.253   3.357  0.1580 -0.1749  0.2393
 2781SOL     OW11121   2.288   2.475   3.572 -0.8394  0.3275  0.4127
 2781SOL    HW211122   2.210   2.421   3.574 -0.3979 -0.3209  0.0758
 2781SOL    HW311123   2.302   2.495   3.480 -1.2023  1.3191  0.5617
 2781SOL    MW411124   2.280   2.471   3.560 -0.8290  0.3728  0.3879
 2782SOL     OW11125   3.359   4.579   3.964  0.5110 -0.1835 -0.3016
 2782SOL    HW211126   3.315   4.553   4.044 -0.0502 -0.9072 -0.8448
 2782SOL    HW311127   3.372   4.674   3.974 -0.6723 -0.0548  0.0979
 2782SOL    MW411128   3.355   4.588   3.976  0.2809 -0.2620 -0.3205
 2783SOL     OW11129   0.183   1.543   4.408 -0.7244  0.0208 -0.2238
 2783SOL    HW211130   0.146   1.631   4.403 -0.1179  0.1736 -2.5488
 2783SOL    HW311131   0.277   1.555   4.395 -0.5767 -0.9214 -0.0998
 2783SOL    MW411132   0.191   1.556   4.406 -0.6249 -0.0833 -0.5142
 2784SOL     OW11133   1.027   0.206   3.622  0.2027  0.5090 -0.3588
 2784SOL    HW211134   1.081   0.133   3.590 -0.4628  0.6538 -1.8483
 2784SOL    HW311135   1.057   0.281   3.572 -1.5042  0.5500 -1.3274
 2784SOL    MW411136   1.038   0.206   3.611 -0.1103  0.5335 -0.6831
 2785SOL     OW11137   4.403   3.479   4.120  0.2146 -0.6559 -0.0924
 2785SOL    HW211138   4.396   3.532   4.041  2.6142  0.4551  0.4132
 2785SOL    HW311139   4.338   3.515   4.179  1.2256  1.1876 -0.0761
 2785SOL    MW411140   4.394   3.491   4.117  0.6646 -0.2661 -0.0235
 2786SOL     OW11141   3.436   4.663   4.283  0.1382 -0.3293 -0.0701
 2786SOL    HW211142   3.393   4.583   4.253  0.4772 -0.6524  0.3042
 2786SOL    HW311143   3.515   4.633   4.328  0.5973  0.2474 -0.4868
 2786SOL    MW411144   3.441   4.649   4.285  0.2435 -0.2958 -0.0757
 2787SOL     OW11145   1.167   0.228   4.028  0.3504 -0.0262  0.0200
 2787SOL    HW211146   1.186   0.144   3.986  0.1353  0.1092 -0.3502
 2787SOL    HW311147   1.252   0.270   4.038  0.2689  0.5569 -1.5748
 2787SOL    MW411148   1.180   0.222   4.024  0.3113  0.0686 -0.2392
 2788SOL     OW11149   1.004   0.104   4.223 -0.6031 -0.0856 -0.6923
 2788SOL    HW211150   1.074   0.145   4.171 -0.1419  0.3896  0.2983
 2788SOL    HW311151   1.047   0.031   4.267 -0.0828  1.7323  1.9503
 2788SOL    MW411152   1.019   0.100   4.222 -0.4736  0.2169 -0.2129
 2789SOL     OW11153   2.521   1.934   3.648 -0.7537  0.4301  0.0065
 2789SOL    HW211154   2.453   1.867   3.652 -1.3046  1.0205  0.6783
 2789SOL    HW311155   2.489   2.004   3.705  0.0959  1.0064 -0.2152
 2789SOL    MW411156   2.508   1.935   3.656 -0.7143  0.5840  0.0659
 2790SOL     OW11157   0.007   4.325   4.181 -0.0220 -0.2068  0.1453
 2790SOL    HW211158   0.027   4.342   4.089 -0.6699 -0.3467 -0.0225
 2790SOL    HW311159   0.056   4.245   4.202 -1.0892 -1.0501 -0.5135
 2790SOL    MW411160   0.016   4.317   4.172 -0.2483 -0.3365  0.0363
 2791SOL     OW11161   3.162   4.510   4.202 -0.1394 -0.2416 -0.3706
 2791SOL    HW211162   3.074   4.543   4.180  0.4000  0.7216 -1.1266
 2791SOL    HW311163   3.169   4.520   4.297 -0.7035  0.0181 -0.3555
 2791SOL    MW411164   3.151   4.515   4.211 -0.1426 -0.0802 -0.4683
 2792SOL     OW11165   3.403   3.824   4.010  0.2967 -0.3556  0.0135
 2792SOL    HW211166   3.406   3.772   4.091 -0.8594  0.9080  0.8866
 2792SOL    HW311167   3.312   3.849   4.002  1.0752  2.7970  0.4171
 2792SOL    MW411168   3.392   3.820   4.020  0.2469  0.2270  0.1819
 2793SOL     OW11169   2.661   1.073   3.762  0.2410 -0.1245 -0.8114
 2793SOL    HW211170   2.577   1.089   3.719 -0.3911  0.7736  0.7402
 2793SOL    HW311171   2.691   0.990   3.725 -2.0626 -1.2420 -0.2876
 2793SOL    MW411172   2.654   1.064   3.752 -0.1463 -0.1534 -0.5376
 2794SOL     OW11173   4.192   0.641   3.893  0.2027 -0.0077 -0.1951
 2794SOL    HW211174   4.103   0.614   3.915  0.2458 -1.1552 -1.3975
 2794SOL    HW311175   4.241   0.634   3.975 -0.5507 -0.4448  0.2209
 2794SOL    MW411176   4.187   0.637   3.906  0.1090 -0.2168 -0.2989
 2795SOL     OW11177   3.393   4.110   4.006  0.4691  0.4350  0.5246
 2795SOL    HW211178   3.361   4.118   3.916  0.8500  2.6085  0.5644
 2795SOL    HW311179   3.402   4.015   4.020  0.6798  0.0864 -1.8192
 2795SOL    MW411180   3.390   4.098   3.996  0.5472  0.6758  0.2207
 2796SOL     OW11181   1.956   3.340   4.198 -0.2653  0.6645  0.3889
 2796SOL    HW211182   1.959   3.406   4.128 -0.8243 -0.2801 -0.5452
 2796SOL    HW311183   1.877   3.361   4.248 -0.6915  0.4472 -0.1813
 2796SOL    MW411184   1.946   3.351   4.195 -0.3953  0.5112  0.1904
 2797SOL     OW11185   2.257   1.087   3.270 -0.1082 -0.1591  0.5507
 2797SOL    HW211186   2.174   1.131   3.291 -0.0039 -0.0966  0.8276
 2797SOL    HW311187   2.241   0.995   3.288  0.2676  0.0078  1.7939
 2797SOL    MW411188   2.244   1.081   3.275 -0.0449 -0.1288  0.7512
 2798SOL     OW11189   0.091   1.815   4.401  0.1759  0.2696  0.0333
 2798SOL    HW211190   0.093   1.857   4.315  0.5577  0.6463  0.2211
 2798SOL    HW311191   0.164   1.855   4.449  1.1520 -1.3243 -0.1090
 2798SOL    MW411192   0.101   1.826   4.396  0.3551  0.1090  0.0393
 2799SOL     OW11193   3.802   1.752   4.426 -0.1590 -0.0587 -0.2945
 2799SOL    HW211194   3.795   1.788   4.338  1.0667  0.3737 -0.2344
 2799SOL    HW311195   3.784   1.825   4.484 -0.3701 -0.1950 -0.1903
 2799SOL    MW411196   3.799   1.766   4.422 -0.0251 -0.0197 -0.2728
 2800SOL     OW11197   1.310   3.463   3.778 -0.0294  0.2004 -0.1449
 2800SOL    HW211198   1.356   3.421   3.851 -0.7380  1.9048  1.3001
 2800SOL    HW311199   1.358   3.544   3.762 -1.3359  1.0139  0.0386
 2800SOL    MW411200   1.323   3.468   3.785 -0.2953  0.5326  0.0700
 2801SOL     OW11201   3.339   0.075   3.605  0.1813 -0.0638  0.0438
 2801SOL    HW211202   3.295   0.112   3.529  0.0008 -0.5763 -0.1083
 2801SOL    HW311203   3.268   0.040   3.659  0.4040 -1.1698 -0.3530
 2801SOL    MW411204   3.324   0.075   3.602  0.1869 -0.2773 -0.0286
 2802SOL     OW11205   3.154   2.475   3.639  0.4465  0.0509  0.2935
 2802SOL    HW211206   3.123   2.476   3.549 -0.7815 -0.1909  0.7035
 2802SOL    HW311207   3.217   2.547   3.644  0.3928  0.1666 -0.7071
 2802SOL    MW411208   3.158   2.485   3.628  0.2774  0.0343  0.2156
 2803SOL     OW11209   2.900   3.646   3.371 -0.1769  0.8050 -0.4715
 2803SOL    HW211210   2.899   3.723   3.314 -0.2253  1.1673  0.0182
 2803SOL    HW311211   2.984   3.604   3.352 -0.0586  1.0916 -0.5898
 2803SOL    MW411212   2.911   3.651   3.361 -0.1677  0.8906 -0.4225
 2804SOL     OW11213   0.813   3.826   4.643 -0.4547  0.0201 -0.2331
 2804SOL    HW211214   0.731   3.863   4.612  0.4339 -0.5870 -3.4472
 2804SOL    HW311215   0.803   3.731   4.629  0.0627 -0.2482  1.1501
 2804SOL    MW411216   0.801   3.818   4.637 -0.2692 -0.0954 -0.4746
 2805SOL     OW11217   1.978   0.748   4.438 -0.4533  0.4448 -0.4367
 2805SOL    HW211218   2.064   0.744   4.480 -0.2684  1.1236 -0.7446
 2805SOL    HW311219   1.971   0.838   4.406 -1.9710  0.9211  1.0938
 2805SOL    MW411220   1.988   0.760   4.440 -0.6292  0.5972 -0.2754
 2806SOL     OW11221   0.770   2.508   3.816 -0.0304 -0.1340 -0.2348
 2806SOL    HW211222   0.692   2.564   3.809 -1.0795 -1.0022  3.3914
 2806SOL    HW311223   0.843   2.570   3.823 -0.9631  0.8084  1.6379
 2806SOL    MW411224   0.769   2.524   3.816 -0.2918 -0.1242  0.4907
 2807SOL     OW11225   2.844   0.265   3.633 -0.2469  0.4778 -0.2591
 2807SOL    HW211226   2.904   0.333   3.603  0.3016  0.6498  1.1513
 2807SOL    HW311227   2.820   0.216   3.554  0.7764  1.1861 -1.0168
 2807SOL    MW411228   2.848   0.267   3.619 -0.0396  0.5939 -0.1730
 2808SOL     OW11229   1.726   0.561   3.628  0.6917 -0.1942 -0.0464
 2808SOL    HW211230   1.755   0.539   3.717  0.1016 -1.3934 -0.1341
 2808SOL    HW311231   1.715   0.656   3.629 -0.3076 -0.3025  1.4672
 2808SOL    MW411232   1.728   0.570   3.640  0.4820 -0.3667  0.1417
 2809SOL     OW11233   4.052   3.780   4.140 -0.1934 -0.2404 -0.5243
 2809SOL    HW211234   4.077   3.773   4.048  0.0382  2.1244 -0.6608
 2809SOL    HW311235   4.117   3.839   4.178 -1.0133 -0.2298  0.9029
 2809SOL    MW411236   4.064   3.787   4.133 -0.2710  0.0730 -0.3540
 2810SOL     OW11237   2.413   0.488   3.372  0.1768  0.0197 -0.3152
 2810SOL    HW211238   2.490   0.437   3.350  1.7305  2.0311  0.2538
 2810SOL    HW311239   2.418   0.566   3.317 -1.7200 -0.0367 -0.6212
 2810SOL    MW411240   2.424   0.492   3.362  0.1315  0.2777 -0.2805
 2811SOL     OW11241   2.919   1.391   3.603  0.1109 -0.6401 -0.1846
 2811SOL    HW211242   2.984   1.462   3.594 -0.9563  0.2631 -0.9355
 2811SOL    HW311243   2.926   1.342   3.522  0.5684 -1.1573  0.1670
 2811SOL    MW411244   2.929   1.394   3.591  0.0305 -0.5892 -0.2373
 2812SOL     OW11245   4.478   4.663   3.652  0.2425  0.7802 -0.0167
 2812SOL    HW211246   4.428   4.735   3.689  0.8473  1.1126  0.1704
 2812SOL    HW311247   4.491   4.688   3.560 -0.7838  0.2199 -0.3149
 2812SOL    MW411248   4.473   4.676   3.645  0.1869  0.7501 -0.0314
 2813SOL     OW11249   1.317   2.523   4.125 -0.3022 -0.1742 -0.3490
 2813SOL    HW211250   1.361   2.463   4.185 -1.6334 -0.4176  0.4173
 2813SOL    HW311251   1.385   2.583   4.096  0.3072  0.1472  1.6684
 2813SOL    MW411252   1.332   2.523   4.129 -0.3974 -0.1639  0.0183
 2814SOL     OW11253   1.786   2.705   3.264  0.2070 -0.2054 -0.0761
 2814SOL    HW211254   1.809   2.615   3.289 -0.1012 -0.0870  0.6586
 2814SOL    HW311255   1.864   2.757   3.287  0.0915 -0.1658  0.2284
 2814SOL    MW411256   1.800   2.700   3.270  0.1511 -0.1846  0.0610
 2815SOL     OW11257   0.562   1.001   3.836  0.5219  0.2738 -0.1919
 2815SOL    HW211258   0.556   0.937   3.907  1.0226 -2.4199 -2.4856
 2815SOL    HW311259   0.493   1.065   3.856  0.1839 -0.8074  2.3023
 2815SOL    MW411260   0.552   1.001   3.848  0.5434 -0.2243 -0.1655
 2816SOL     OW11261   2.470   0.007   3.293 -0.1832  0.7659 -0.2773
 2816SOL    HW211262   2.471  -0.088   3.304 -0.8462  0.8382  0.4409
 2816SOL    HW311263   2.493   0.021   3.201  0.0677 -0.0789 -0.3466
 2816SOL    MW411264   2.473  -0.004   3.282 -0.2376  0.6640 -0.1917
 2817SOL     OW11265   2.721   1.914   4.035 -0.2192  0.1963 -0.3336
 2817SOL    HW211266   2.800   1.960   4.065 -0.3244 -0.0764  0.3686
 2817SOL    HW311267   2.751   1.858   3.964  0.2605 -0.0859  0.0928
 2817SOL    MW411268   2.735   1.913   4.029 -0.1698  0.1231 -0.1847
 2818SOL     OW11269   2.676   3.527   3.243 -0.0265 -0.3798  0.0132
 2818SOL    HW211270   2.599   3.565   3.286  0.0460  0.7240 -0.8031
 2818SOL    HW311271   2.751   3.570   3.285  0.0791 -0.0898 -0.4709
 2818SOL    MW411272   2.676   3.538   3.254 -0.0030 -0.1959 -0.1583
 2819SOL     OW11273   2.007   0.270   3.734 -0.0311 -0.1470  0.4877
 2819SOL    HW211274   1.925   0.237   3.770  1.0257 -1.6805  1.5404
 2819SOL    HW311275   2.048   0.318   3.806 -0.0925  0.8343 -0.1096
 2819SOL    MW411276   2.001   0.272   3.748  0.1002 -0.2199  0.5478
 2820SOL     OW11277   0.825   3.592   3.891  0.3657 -0.2726  0.0801
 2820SOL    HW211278   0.905   3.569   3.843  0.6190 -0.5023  0.6139
 2820SOL    HW311279   0.757   3.592   3.824  0.6960 -0.7286 -0.2582
 2820SOL    MW411280   0.827   3.589   3.875  0.4427 -0.3630  0.1059
 2821SOL     OW11281   0.358   2.388   3.629  0.1050  0.0727 -0.1336
 2821SOL    HW211282   0.352   2.359   3.720 -0.4108  1.3583  0.2407
 2821SOL    HW311283   0.343   2.482   3.632 -0.5924  0.0214 -1.6360
 2821SOL    MW411284   0.356   2.397   3.642 -0.0550  0.2355 -0.2824
 2822SOL     OW11285   1.646   2.072   3.583  0.0587 -0.2134  0.2911
 2822SOL    HW211286   1.624   2.147   3.638 -3.3743 -0.7987 -0.1601
 2822SOL    HW311287   1.597   2.086   3.502 -2.0633 -3.7777  0.8632
 2822SOL    MW411288   1.637   2.084   3.579 -0.6742 -0.7609  0.3071
 2823SOL     OW11289   2.592   4.176   3.948 -0.3484  0.5900  0.1275
 2823SOL    HW211290   2.608   4.238   4.019  0.6661  1.7405 -1.0787
 2823SOL    HW311291   2.497   4.180   3.934 -0.3635  1.4389  0.4458
 2823SOL    MW411292   2.582   4.185   3.955 -0.2165  0.8538  0.0104
 2824SOL     OW11293   4.403   3.877   3.976  0.1303 -0.0303 -0.0868
 2824SOL    HW211294   4.388   3.943   3.907  0.1648  0.8174  0.7041
 2824SOL    HW311295   4.444   3.926   4.047  0.5724 -1.0100  0.3398
 2824SOL    MW411296   4.407   3.892   3.976  0.1932 -0.0477  0.0738
 2825SOL     OW11297   4.399   0.136   4.603  0.0363 -0.6702  0.0628
 2825SOL    HW211298   4.486   0.112   4.570 -0.5769 -1.7361 -0.8247
 2825SOL    HW311299   4.360   0.053   4.629 -0.3233 -0.0746  1.4510
 2825SOL    MW411300   4.405   0.122   4.602 -0.0920 -0.7322  0.1289
 2826SOL     OW11301   0.107   2.802   4.093  0.1262  0.0460  0.0675
 2826SOL    HW211302   0.034   2.862   4.078 -0.1238 -0.2780  0.0072
 2826SOL    HW311303   0.148   2.835   4.173  0.9568  1.2763 -0.8277
 2826SOL    MW411304   0.103   2.815   4.101  0.2028  0.1656 -0.0586
 2827SOL     OW11305   0.282   2.357   3.898 -0.2405  0.7295  0.0483
 2827SOL    HW211306   0.258   2.444   3.929 -0.5064  0.4553  0.6318
 2827SOL    HW311307   0.210   2.301   3.928 -0.5104  0.4587 -1.0909
 2827SOL    MW411308   0.269   2.361   3.906 -0.3112  0.6576 -0.0250
 2828SOL     OW11309   3.797   2.875   4.311  0.1012 -0.3236  0.2869
 2828SOL    HW211310   3.864   2.807   4.302 -0.0722 -0.5933  1.0101
 2828SOL    HW311311   3.719   2.827   4.339  0.0376  0.2063  1.0191
 2828SOL    MW411312   3.795   2.860   4.313  0.0699 -0.2893  0.4789
 2829SOL     OW11313   1.165   2.326   3.975 -0.0228 -0.4216 -0.1086
 2829SOL    HW211314   1.225   2.379   4.027 -0.4260  1.6177 -1.6857
 2829SOL    HW311315   1.184   2.349   3.884 -0.5816 -2.5923 -0.8153
 2829SOL    MW411316   1.175   2.336   3.970 -0.1497 -0.4389 -0.4099
 2830SOL     OW11317   1.833   4.151   3.650 -0.1919 -0.1262 -0.2735
 2830SOL    HW211318   1.800   4.114   3.568  2.9917 -0.4481 -1.4525
 2830SOL    HW311319   1.910   4.201   3.625  0.7410 -0.0643  2.5173
 2830SOL    MW411320   1.839   4.153   3.636  0.3512 -0.1605 -0.0609
 2831SOL     OW11321   4.136   0.423   4.248 -0.7309 -0.0303  0.2694
 2831SOL    HW211322   4.092   0.397   4.167 -2.0167  1.9347  0.2855
 2831SOL    HW311323   4.122   0.518   4.253 -0.7333 -0.1250  2.8055
 2831SOL    MW411324   4.128   0.432   4.238 -0.9009  0.2164  0.6062
 2832SOL     OW11325   3.056   4.260   4.245 -0.5445 -0.3947  0.2053
 2832SOL    HW211326   3.035   4.233   4.155  0.4785  0.4527 -0.2968
 2832SOL    HW311327   3.108   4.339   4.235  0.4439 -0.8574  1.5249
 2832SOL    MW411328   3.060   4.267   4.232 -0.2791 -0.3440  0.3132
 2833SOL     OW11329   3.746   1.179   4.100 -0.6373 -0.5081 -0.1436
 2833SOL    HW211330   3.833   1.182   4.059 -0.7034 -0.2541 -0.2719
 2833SOL    HW311331   3.700   1.110   4.053 -1.0420  0.4411 -1.1753
 2833SOL    MW411332   3.752   1.171   4.088 -0.6994 -0.3494 -0.2967
 2834SOL     OW11333   3.513   0.270   3.728 -0.4530 -0.2741  0.4485
 2834SOL    HW211334   3.452   0.206   3.692  0.3646 -0.1342 -1.2370
 2834SOL    HW311335   3.600   0.237   3.703  0.1022  0.2172  1.6860
 2834SOL    MW411336   3.516   0.257   3.720 -0.2718 -0.1908  0.3894
 2835SOL     OW11337   2.916   1.120   4.171 -0.0504  0.9773  0.0817
 2835SOL    HW211338   2.935   1.205   4.131 -0.2833  0.4693 -1.1527
 2835SOL    HW311339   2.937   1.057   4.102  3.4303 -0.1974  2.1233
 2835SOL    MW411340   2.921   1.123   4.156  0.3781  0.7553  0.1882
 2836SOL     OW11341   0.244   3.640   3.458  0.5915  0.0059  0.2374
 2836SOL    HW211342   0.311   3.611   3.396 -0.5849  1.8369 -1.9614
 2836SOL    HW311343   0.161   3.612   3.419 -0.1084  0.3066  1.4818
 2836SOL    MW411344   0.242   3.633   3.445  0.3439  0.2872  0.1115
 2837SOL     OW11345   2.161   1.563   4.034  0.2598 -0.1915  0.2242
 2837SOL    HW211346   2.130   1.596   4.119  1.0058  0.9062  0.0704
 2837SOL    HW311347   2.215   1.487   4.057  1.4430  0.8239  0.8111
 2837SOL    MW411348   2.164   1.557   4.048  0.5143  0.0873  0.2813
 2838SOL     OW11349   0.101   3.609   4.816  0.0444  0.6144 -0.1954
 2838SOL    HW211350   0.051   3.541   4.861 -0.3289 -1.1600 -3.1568
 2838SOL    HW311351   0.184   3.567   4.794  1.0465  2.1109  0.6119
 2838SOL    MW411352   0.105   3.595   4.819  0.1274  0.5777 -0.4796
 2839SOL     OW11353   1.825   2.453   3.642  0.5772 -0.7505  0.1457
 2839SOL    HW211354   1.827   2.548   3.652  0.5852 -0.7694  0.3319
 2839SOL    HW311355   1.843   2.438   3.550  0.0362 -0.5428  0.0043
 2839SOL    MW411356   1.827   2.463   3.631  0.5069 -0.7256  0.1516
 2840SOL     OW11357   1.619   2.366   4.012 -0.3263  0.1508 -0.5824
 2840SOL    HW211358   1.616   2.335   3.922 -0.6050  0.2923 -0.6208
 2840SOL    HW311359   1.589   2.457   4.007  0.7586  0.5279 -0.5162
 2840SOL    MW411360   1.615   2.374   3.999 -0.2200  0.2192 -0.5787
 2841SOL     OW11361   1.750   3.455   4.355 -0.2626 -0.1362  0.1526
 2841SOL    HW211362   1.777   3.546   4.366 -0.0685 -0.1812  0.0573
 2841SOL    HW311363   1.733   3.423   4.444  0.2867 -0.1937  0.2417
 2841SOL    MW411364   1.751   3.463   4.368 -0.1646 -0.1497  0.1518
 2842SOL     OW11365   0.595   3.063   4.170  0.2428  0.2297 -0.5122
 2842SOL    HW211366   0.572   3.130   4.106  1.2269  0.7317 -0.3484
 2842SOL    HW311367   0.610   3.111   4.251 -1.2864 -0.4319  0.1967
 2842SOL    MW411368   0.594   3.078   4.172  0.1709  0.2086 -0.3971
 2843SOL     OW11369   1.474   3.503   4.177 -0.5057  0.5569 -0.0846
 2843SOL    HW211370   1.417   3.450   4.232 -1.2627  2.3781  0.9087
 2843SOL    HW311371   1.558   3.505   4.224 -0.6254  0.6643  0.1241
 2843SOL    MW411372   1.478   3.496   4.190 -0.6214  0.8113  0.0740
 2844SOL     OW11373   3.141   0.170   3.429  0.1999  0.2895  0.1358
 2844SOL    HW211374   3.126   0.239   3.363 -0.2304 -0.1263 -0.2048
 2844SOL    HW311375   3.087   0.097   3.399  1.5437 -0.6087 -0.1286
 2844SOL    MW411376   3.132   0.170   3.416  0.3204  0.1161  0.0560
 2845SOL     OW11377   4.152   1.366   3.631  0.4198 -0.0398  0.2131
 2845SOL    HW211378   4.065   1.326   3.639  0.6975 -0.4137  1.6573
 2845SOL    HW311379   4.184   1.338   3.546 -1.2416  0.8642 -0.7476
 2845SOL    MW411380   4.145   1.357   3.621  0.2373  0.0301  0.2769
 2846SOL     OW11381   3.145   1.570   3.579 -0.6074  0.0058 -0.2914
 2846SOL    HW211382   3.214   1.506   3.596  0.1723  1.1044  0.7416
 2846SOL    HW311383   3.164   1.602   3.491 -0.7783 -0.8835 -0.6636
 2846SOL    MW411384   3.157   1.565   3.570 -0.5271  0.0334 -0.2042
 2847SOL     OW11385   0.014   0.004   4.036  0.0487  0.0588  0.0597
 2847SOL    HW211386   0.030  -0.078   3.989 -0.1477 -0.5116  0.9722
 2847SOL    HW311387   0.080   0.004   4.105  1.1209  1.4761 -0.9480
 2847SOL    MW411388   0.025  -0.007   4.039  0.1642  0.1705  0.0471
 2848SOL     OW11389   2.685   2.535   3.679 -0.1232  0.0052  0.1409
 2848SOL    HW211390   2.606   2.513   3.728 -0.3476 -1.8518 -0.9940
 2848SOL    HW311391   2.669   2.499   3.592  0.4916  2.7589 -1.1527
 2848SOL    MW411392   2.672   2.527   3.674 -0.0717  0.1235 -0.1795
 2849SOL     OW11393   0.032   4.396   3.909  0.3995 -0.6568  0.0607
 2849SOL    HW211394   0.111   4.362   3.866  0.8258  0.6117 -0.1572
 2849SOL    HW311395  -0.035   4.390   3.841  0.2906 -1.7516  0.2515
 2849SOL    MW411396   0.033   4.391   3.894  0.4413 -0.6338  0.0571
 2850SOL     OW11397   0.925   0.780   3.588 -0.5707  0.0715 -0.3097
 2850SOL    HW211398   0.908   0.864   3.631  0.3374  0.0587  0.0751
 2850SOL    HW311399   0.903   0.714   3.653  0.6783  0.0503  0.1017
 2850SOL    MW411400   0.920   0.783   3.602 -0.2861  0.0670 -0.2047
 2851SOL     OW11401   2.050   2.615   3.932 -0.4076 -0.5210 -0.8941
 2851SOL    HW211402   2.059   2.520   3.925 -2.0854 -0.6524 -1.4059
 2851SOL    HW311403   2.129   2.650   3.889 -0.0082 -1.6629 -1.0982
 2851SOL    MW411404   2.062   2.607   3.925 -0.5763 -0.6890 -0.9885
 2852SOL     OW11405   4.085   0.913   3.939  0.2363  0.0264 -0.1597
 2852SOL    HW211406   4.128   0.944   3.859  1.4488 -0.2282  0.3818
 2852SOL    HW311407   4.115   0.823   3.950 -0.8167 -0.3208 -0.0248
 2852SOL    MW411408   4.095   0.905   3.930  0.2573 -0.0530 -0.0705
 2853SOL     OW11409   3.797   2.087   4.071  0.3646 -0.1248  0.0129
 2853SOL    HW211410   3.774   2.179   4.062 -1.0984 -0.6502 -2.1734
 2853SOL    HW311411   3.716   2.040   4.053  0.9078 -1.8321  1.8881
 2853SOL    MW411412   3.783   2.093   4.067  0.2433 -0.4194 -0.0282
 2854SOL     OW11413   2.798   1.295   3.846 -0.3753  0.2398  0.4368
 2854SOL    HW211414   2.830   1.304   3.756  0.5559 -0.5691  0.6828
 2854SOL    HW311415   2.734   1.225   3.842 -0.7764  0.6091  0.2985
 2854SOL    MW411416   2.794   1.287   3.834 -0.3053  0.1818  0.4510
 2855SOL     OW11417   2.987   1.929   4.360 -0.0956 -0.0398  0.5183
 2855SOL    HW211418   2.901   1.917   4.399  0.1735 -0.1787  1.0747
 2855SOL    HW311419   3.046   1.938   4.434  0.4463 -0.4596  0.1474
 2855SOL    MW411420   2.984   1.929   4.375  0.0114 -0.1135  0.5428
 2856SOL     OW11421   1.466   3.670   3.668 -0.3405 -0.2845 -0.0039
 2856SOL    HW211422   1.483   3.652   3.575 -0.2610 -0.9075  0.1312
 2856SOL    HW311423   1.484   3.763   3.677 -1.8304  0.1271 -0.9499
 2856SOL    MW411424   1.470   3.680   3.657 -0.5266 -0.3124 -0.1109
 2857SOL     OW11425   2.888   0.515   3.395  0.0275 -0.1599  0.1434
 2857SOL    HW211426   2.893   0.594   3.342  0.7580 -0.8131 -0.7751
 2857SOL    HW311427   2.917   0.543   3.482  1.3678  0.3466 -0.4414
 2857SOL    MW411428   2.893   0.529   3.400  0.3007 -0.1793 -0.0549
 2858SOL     OW11429   3.716   0.656   4.329 -0.2225  0.3002 -0.0270
 2858SOL    HW211430   3.676   0.604   4.399 -0.2409  0.8962  0.4088
 2858SOL    HW311431   3.808   0.664   4.354  0.6046 -2.5205 -1.8911
 2858SOL    MW411432   3.722   0.651   4.342 -0.1158  0.0067 -0.2155
 2859SOL     OW11433   2.560   3.937   4.118 -0.1187  0.5832  0.7043
 2859SOL    HW211434   2.569   4.021   4.072  0.6111 -0.6607 -1.5330
 2859SOL    HW311435   2.532   3.876   4.050 -0.3360 -1.0610  2.2368
 2859SOL    MW411436   2.557   3.940   4.103 -0.0511  0.2021  0.6113
 2860SOL     OW11437   3.608   3.173   3.354 -0.3172  0.1909  0.2120
 2860SOL    HW211438   3.615   3.136   3.442 -0.3611 -0.4001 -0.0301
 2860SOL    HW311439   3.680   3.133   3.305  2.0783  3.3754  0.9511
 2860SOL    MW411440   3.618   3.163   3.359 -0.0069  0.5331  0.2776
 2861SOL     OW11441   3.733   2.367   4.096  0.2980  0.4179  0.0271
 2861SOL    HW211442   3.646   2.396   4.124  0.5481  1.2440 -0.0315
 2861SOL    HW311443   3.787   2.374   4.174  0.1413 -0.8252  0.2542
 2861SOL    MW411444   3.728   2.372   4.110  0.3103  0.3629  0.0493
 2862SOL     OW11445   3.450   2.703   3.957  0.7312 -0.1325 -0.3144
 2862SOL    HW211446   3.384   2.752   4.006 -1.0890 -1.5362 -1.2931
 2862SOL    HW311447   3.462   2.622   4.006  1.2497 -0.1537 -0.4755
 2862SOL    MW411448   3.443   2.699   3.970  0.5595 -0.3205 -0.4648
 2863SOL     OW11449   1.554   3.869   3.284 -0.5766 -0.8945 -0.1904
 2863SOL    HW211450   1.566   3.866   3.189 -1.4306 -1.1337 -0.2984
 2863SOL    HW311451   1.532   3.779   3.309  1.3178 -1.1945  0.4811
 2863SOL    MW411452   1.553   3.857   3.275 -0.4394 -0.9656 -0.1161
 2864SOL     OW11453   3.818   3.516   3.386 -0.0631  0.4442 -0.7494
 2864SOL    HW211454   3.733   3.492   3.350 -0.0353 -0.3519 -0.3018
 2864SOL    HW311455   3.806   3.604   3.420 -1.2528 -0.3817  1.0421
 2864SOL    MW411456   3.806   3.524   3.386 -0.2164  0.2302 -0.4539
 2865SOL     OW11457   0.714   1.669   4.402  0.3920 -0.0703  0.5762
 2865SOL    HW211458   0.720   1.595   4.463  1.6771  0.4553  1.1079
 2865SOL    HW311459   0.780   1.651   4.336 -0.4494 -0.2306 -0.2347
 2865SOL    MW411460   0.723   1.657   4.402  0.4505 -0.0221  0.5394
 2866SOL     OW11461   3.039   3.780   4.204 -0.1595 -0.1021  0.5128
 2866SOL    HW211462   3.046   3.704   4.147  0.5870 -1.4262  2.3288
 2866SOL    HW311463   2.945   3.794   4.213 -0.2996 -0.6194 -0.0838
 2866SOL    MW411464   3.028   3.772   4.198 -0.0795 -0.3451  0.6736
 2867SOL     OW11465   2.775   3.585   3.990  0.1051  0.8697 -0.0097
 2867SOL    HW211466   2.746   3.524   4.058 -0.1000  2.3131  1.2133
 2867SOL    HW311467   2.869   3.570   3.982 -0.1719 -0.5956 -0.7352
 2867SOL    MW411468   2.784   3.575   3.998  0.0415  0.8668  0.0560
 2868SOL     OW11469   1.959   3.898   3.282  0.4018  0.1035  0.2724
 2868SOL    HW211470   1.957   3.813   3.327  0.5285  0.6741  1.3772
 2868SOL    HW311471   1.890   3.949   3.324  1.7577  1.2895  1.1267
 2868SOL    MW411472   1.950   3.894   3.294  0.5974  0.3353  0.5308
 2869SOL     OW11473   4.341   4.062   3.776 -0.1724 -0.5035  0.0161
 2869SOL    HW211474   4.297   4.017   3.705 -1.3332 -1.5955  1.3919
 2869SOL    HW311475   4.280   4.132   3.802 -0.3930 -0.9928  0.8505
 2869SOL    MW411476   4.327   4.065   3.770 -0.3547 -0.7122  0.3077
 2870SOL     OW11477   0.961   4.316   3.984 -0.1035  0.2453  0.2452
 2870SOL    HW211478   0.931   4.337   4.072  0.4252  0.1309  0.4556
 2870SOL    HW311479   1.036   4.257   3.997  0.2886  0.6188 -0.2652
 2870SOL    MW411480   0.967   4.311   3.997  0.0180  0.2795  0.2056
 2871SOL     OW11481   0.541   3.294   3.990 -0.0390 -0.1622  0.2121
 2871SOL    HW211482   0.621   3.329   4.028 -0.8929  1.9872  0.1067
 2871SOL    HW311483   0.470   3.340   4.035 -1.2225 -1.7180  0.0069
 2871SOL    MW411484   0.542   3.304   4.001 -0.3078 -0.0839  0.1711
 2872SOL     OW11485   1.793   3.828   3.975 -0.0826 -0.2232  0.4322
 2872SOL    HW211486   1.861   3.879   3.932  0.3021 -1.3176 -0.2781
 2872SOL    HW311487   1.819   3.826   4.067  0.0635  0.5826  0.4146
 2872SOL    MW411488   1.805   3.834   3.982 -0.0126 -0.2613  0.3362
 2873SOL     OW11489   3.279   2.728   3.722 -0.2816 -0.2771  0.2311
 2873SOL    HW211490   3.337   2.707   3.796  0.1433 -1.5752 -0.4533
 2873SOL    HW311491   3.324   2.799   3.677  0.7585 -1.2067 -0.2352
 2873SOL    MW411492   3.293   2.734   3.726 -0.0883 -0.5710  0.0793
 2874SOL     OW11493   0.704   1.468   4.627 -0.0581 -0.0945  0.1369
 2874SOL    HW211494   0.630   1.412   4.604  0.3929 -0.8290  0.4749
 2874SOL    HW311495   0.665   1.541   4.675 -0.4168 -1.1803  1.5300
 2874SOL    MW411496   0.689   1.471   4.630 -0.0459 -0.3347  0.3653
 2875SOL     OW11497   2.672   2.460   3.393 -0.0326 -0.0856 -0.4794
 2875SOL    HW211498   2.680   2.532   3.331 -0.2764 -0.3930 -0.8727
 2875SOL    HW311499   2.744   2.401   3.372  0.4460  0.2763  0.1528
 2875SOL    MW411500   2.682   2.462   3.382 -0.0016 -0.0784 -0.4479
 2876SOL     OW11501   0.944   1.086   4.369 -0.0197 -0.7860 -0.0667
 2876SOL    HW211502   0.951   1.162   4.426 -2.8038  0.7201 -1.5938
 2876SOL    HW311503   0.861   1.045   4.394 -0.5763 -0.9263 -1.9924
 2876SOL    MW411504   0.934   1.091   4.379 -0.4605 -0.6058 -0.5223
 2877SOL     OW11505   1.356   3.185   3.676 -0.1144 -0.1341  0.0162
 2877SOL    HW211506   1.360   3.275   3.708 -0.6385 -0.4201  0.9028
 2877SOL    HW311507   1.278   3.148   3.718  0.1535 -1.0335 -0.2676
 2877SOL    MW411508   1.346   3.192   3.686 -0.1482 -0.2905  0.0957
 2878SOL     OW11509   2.039   4.494   3.980 -0.0512  0.1998  0.6141
 2878SOL    HW211510   2.034   4.520   3.888 -1.5090 -0.3548  0.5221
 2878SOL    HW311511   2.132   4.477   3.995  0.0322 -1.1495 -1.1884
 2878SOL    MW411512   2.051   4.495   3.970 -0.2325 -0.0514  0.3641
 2879SOL     OW11513   3.548   0.839   4.225 -0.6365 -0.3487  0.1692
 2879SOL    HW211514   3.509   0.782   4.158 -1.5004  0.0542  0.3216
 2879SOL    HW311515   3.621   0.789   4.260 -0.1284 -0.5293 -1.1426
 2879SOL    MW411516   3.552   0.825   4.221 -0.6835 -0.3193  0.0162
 2880SOL     OW11517   3.719   2.140   3.631  0.3830 -0.1126  0.0073
 2880SOL    HW211518   3.660   2.084   3.681 -0.2849  0.7170  0.1670
 2880SOL    HW311519   3.722   2.101   3.544 -0.7472  0.0813 -0.1212
 2880SOL    MW411520   3.712   2.128   3.626  0.1458  0.0224  0.0114
 2881SOL     OW11521   2.297   4.173   4.351  0.0855  0.0223 -0.0954
 2881SOL    HW211522   2.306   4.199   4.442  1.6405  0.4647 -0.3452
 2881SOL    HW311523   2.337   4.086   4.347 -0.2122 -0.1059 -0.3005
 2881SOL    MW411524   2.304   4.165   4.362  0.2514  0.0637 -0.1555
 2882SOL     OW11525   3.619   4.487   3.927 -0.0841 -0.0771  0.3833
 2882SOL    HW211526   3.525   4.504   3.936 -0.4060 -1.7178  0.3598
 2882SOL    HW311527   3.656   4.509   4.012 -0.8537 -1.5547  1.1273
 2882SOL    MW411528   3.611   4.492   3.939 -0.2281 -0.4886  0.4784
 2883SOL     OW11529   4.076   3.756   3.862  0.4156  0.0782  0.1557
 2883SOL    HW211530   3.992   3.712   3.857  0.7254 -0.6139  0.9758
 2883SOL    HW311531   4.061   3.842   3.821 -0.9775  0.4366  1.4046
 2883SOL    MW411532   4.063   3.762   3.856  0.2727  0.0342  0.4287
 2884SOL     OW11533   3.119   0.854   3.588  0.1809  0.1162 -0.6812
 2884SOL    HW211534   3.203   0.827   3.625  0.3110  0.5893 -0.6316
 2884SOL    HW311535   3.088   0.922   3.648  0.1531  0.5233 -1.1601
 2884SOL    MW411536   3.126   0.860   3.601  0.1944  0.2323 -0.7379
 2885SOL     OW11537   2.947   0.894   3.985 -0.5173 -0.4220  0.1775
 2885SOL    HW211538   2.876   0.840   4.019  0.5855 -1.2053  1.2340
 2885SOL    HW311539   3.019   0.833   3.968 -0.0629  0.3718 -0.8509
 2885SOL    MW411540   2.947   0.879   3.987 -0.3118 -0.4206  0.1812
 2886SOL     OW11541   3.765   0.828   3.989 -0.0437  0.0733 -0.2868
 2886SOL    HW211542   3.803   0.870   4.066 -0.6745 -0.5493  0.3764
 2886SOL    HW311543   3.692   0.885   3.964  0.3041  0.3980 -0.5668
 2886SOL    MW411544   3.761   0.841   3.996 -0.0810  0.0340 -0.2362
 2887SOL     OW11545   1.036   2.116   4.292  0.0986  0.2994 -0.1949
 2887SOL    HW211546   1.110   2.055   4.289 -0.0910  0.0005  0.8739
 2887SOL    HW311547   0.966   2.066   4.333 -0.2636  1.0225  0.0764
 2887SOL    MW411548   1.037   2.101   4.297  0.0258  0.3554 -0.0181
 2888SOL     OW11549   2.514   3.699   3.958 -0.2856  0.0991 -0.1413
 2888SOL    HW211550   2.508   3.733   3.868  0.3514  0.7928  0.0712
 2888SOL    HW311551   2.608   3.690   3.974 -0.3686  0.6509  0.6959
 2888SOL    MW411552   2.526   3.703   3.948 -0.2125  0.2634 -0.0028
 2889SOL     OW11553   0.168   1.169   4.096  0.0285  0.0219 -0.1247
 2889SOL    HW211554   0.134   1.258   4.103  1.4330  0.5953 -0.5737
 2889SOL    HW311555   0.090   1.116   4.077 -0.8522  1.1023  0.3688
 2889SOL    MW411556   0.153   1.174   4.094  0.0976  0.2401 -0.1188
   4.49070   4.66690  10.00000
