Gromacs Runs On Most of All Computer Systems in water
11524
    1DMSO    SD    1   1.984   2.352   4.781  0.1118 -0.2239 -0.0357
    1DMSO   CD1    2   2.012   2.308   4.955 -0.4241  0.2077 -0.4154
    1DMSO    OD    3   1.855   2.271   4.746  0.5714 -0.8208 -0.0426
    1DMSO   CD2    4   1.921   2.520   4.817  0.1708  0.7104 -0.5801
    2SOL     OW    5   0.164   0.669   0.210  0.0623  0.1942 -0.6632
    2SOL    HW2    6   0.259   0.678   0.202  0.0237  0.2109 -1.0917
    2SOL    HW3    7   0.134   0.648   0.121 -0.4573  1.2944 -0.7493
    2SOL    MW4    8   0.173   0.667   0.197 -0.0114  0.3416 -0.7311
    3SOL     OW    9   4.118   0.103   0.492  0.1214 -0.2295  0.1579
    3SOL    HW2   10   4.180   0.052   0.441 -0.9193 -2.7041  1.2857
    3SOL    HW3   11   4.032   0.069   0.466 -0.5432  0.3626  1.5390
    3SOL    MW4   12   4.115   0.092   0.482 -0.1036 -0.4779  0.4889
    4SOL     OW   13   3.874   0.071   0.365  0.2505  0.4656 -0.1380
    4SOL    HW2   14   3.892   0.142   0.303 -2.1710 -0.1449 -1.5954
    4SOL    HW3   15   3.849  -0.004   0.310 -0.3383 -0.5726  1.4946
    4SOL    MW4   16   3.873   0.070   0.350 -0.1467  0.2481 -0.1148
    5SOL     OW   17   4.366   1.490   0.293 -0.5215 -0.1415  0.0254
    5SOL    HW2   18   4.343   1.572   0.337  0.0315  0.1782 -0.2796
    5SOL    HW3   19   4.310   1.425   0.334 -1.9926  0.6358 -0.7274
    5SOL    MW4   20   4.356   1.492   0.304 -0.6426  0.0033 -0.1141
    6SOL     OW   21   1.353   0.951   0.453  0.0174 -0.1767 -0.4105
    6SOL    HW2   22   1.347   0.857   0.433  0.1534 -0.1245 -0.7092
    6SOL    HW3   23   1.351   0.956   0.548 -1.4296 -0.3812 -0.4176
    6SOL    MW4   24   1.352   0.939   0.463 -0.1556 -0.1968 -0.4508
    7SOL     OW   25   0.109   0.578   0.503 -0.0043 -0.1517  0.0458
    7SOL    HW2   26   0.136   0.486   0.510 -2.3272 -0.8731  0.1561
    7SOL    HW3   27   0.118   0.598   0.410  1.1096 -0.2962  0.1198
    7SOL    MW4   28   0.114   0.568   0.491 -0.1638 -0.2660  0.0701
    8SOL     OW   29   0.415   0.873   0.569 -0.0979  0.1880 -0.4513
    8SOL    HW2   30   0.416   0.780   0.547  0.6382 -0.3389  1.6076
    8SOL    HW3   31   0.432   0.875   0.664 -0.9998  2.3734 -0.3051
    8SOL    MW4   32   0.417   0.861   0.579 -0.1197  0.4068 -0.1604
    9SOL     OW   33   0.567   0.952   0.342  0.3048 -0.1042  0.0166
    9SOL    HW2   34   0.651   0.976   0.380  0.4370 -0.7522  0.1412
    9SOL    HW3   35   0.510   0.939   0.417 -0.0100  0.6795 -0.0764
    9SOL    MW4   36   0.570   0.954   0.357  0.2807 -0.0863  0.0207
   10SOL     OW   37   0.444   0.777   0.163 -0.0152 -0.0163  0.1171
   10SOL    HW2   38   0.498   0.833   0.220 -0.1405  0.3892 -0.1602
   10SOL    HW3   39   0.390   0.839   0.114 -0.8607 -0.4285  0.5206
   10SOL    MW4   40   0.444   0.793   0.164 -0.1433 -0.0172  0.1337
   11SOL     OW   41   0.170   1.760   0.498 -0.0736  0.0839  0.3118
   11SOL    HW2   42   0.120   1.744   0.578  0.8579 -1.4405  0.6027
   11SOL    HW3   43   0.169   1.676   0.452  1.8588  0.1390  0.1183
   11SOL    MW4   44   0.163   1.746   0.503  0.3043 -0.1099  0.3246
   12SOL     OW   45   0.391   0.476   0.247  0.3793  0.6375  0.1874
   12SOL    HW2   46   0.457   0.408   0.256  0.8380  0.8014 -1.7240
   12SOL    HW3   47   0.432   0.543   0.192 -1.6183  0.3533 -1.7691
   12SOL    MW4   48   0.405   0.476   0.241  0.1763  0.6216 -0.3229
   13SOL     OW   49   0.451   1.719   0.504 -0.3678  0.4272  0.0899
   13SOL    HW2   50   0.466   1.666   0.426 -0.9122  1.2967 -0.6190
   13SOL    HW3   51   0.362   1.754   0.493 -0.8586 -0.2980  1.6152
   13SOL    MW4   52   0.441   1.717   0.492 -0.5044  0.4463  0.1976
   14SOL     OW   53   0.416   2.295   0.542  0.4346 -0.0342  0.2841
   14SOL    HW2   54   0.383   2.378   0.506 -1.9898 -1.3358 -0.5894
   14SOL    HW3   55   0.455   2.250   0.468  2.1328  0.4600  0.8454
   14SOL    MW4   56   0.417   2.300   0.528  0.3388 -0.1407  0.2429
   15SOL     OW   57   3.772   2.470   0.467 -0.2544 -0.0443  0.1573
   15SOL    HW2   58   3.720   2.481   0.547 -0.4564 -0.1589  0.0415
   15SOL    HW3   59   3.753   2.549   0.416 -0.6886 -0.3101 -0.0964
   15SOL    MW4   60   3.762   2.482   0.471 -0.3383 -0.0945  0.1086
   16SOL     OW   61   4.487   3.953   0.490 -0.3765  0.9188  0.2241
   16SOL    HW2   62   4.508   3.946   0.583 -0.9274 -1.2551  0.2262
   16SOL    HW3   63   4.570   3.938   0.445 -0.2920  0.9982  0.3560
   16SOL    MW4   64   4.501   3.950   0.496 -0.4380  0.6425  0.2418
   17SOL     OW   65   0.869   3.050   0.502 -0.2681 -0.0041  0.0053
   17SOL    HW2   66   0.774   3.037   0.497 -0.4332  1.4820 -1.0221
   17SOL    HW3   67   0.882   3.106   0.578 -0.2742  0.3995 -0.2932
   17SOL    MW4   68   0.858   3.055   0.511 -0.2907  0.2453 -0.1696
   18SOL     OW   69   0.776   3.523   0.291 -0.0332  0.3388 -0.2494
   18SOL    HW2   70   0.729   3.536   0.208  0.9311  2.1223 -0.5387
   18SOL    HW3   71   0.730   3.579   0.353  0.5297  0.6048 -0.0744
   18SOL    MW4   72   0.764   3.532   0.288  0.1683  0.6092 -0.2645
   19SOL     OW   73   1.034   3.634   0.263 -0.2477  0.2543  0.2039
   19SOL    HW2   74   0.946   3.596   0.269  0.0242 -0.1812  1.7747
   19SOL    HW3   75   1.019   3.728   0.259 -0.8164  0.1485 -0.2346
   19SOL    MW4   76   1.020   3.641   0.263 -0.2869  0.1829  0.3533
   20SOL     OW   77   3.863   3.613   0.485  0.0996  0.1988 -0.2396
   20SOL    HW2   78   3.774   3.637   0.463  0.3472  1.0833 -0.2757
   20SOL    HW3   79   3.861   3.597   0.579 -0.3082 -0.7489 -0.3990
   20SOL    MW4   80   3.851   3.614   0.494  0.0784  0.1905 -0.2654
   21SOL     OW   81   0.009   4.232   0.418  0.5746 -0.2002  0.4184
   21SOL    HW2   82  -0.085   4.249   0.418  0.7344  0.7395  0.9919
   21SOL    HW3   83   0.017   4.138   0.435 -0.2647 -0.3035  0.2150
   21SOL    MW4   84  -0.002   4.222   0.420  0.4849 -0.0898  0.4673
   22SOL     OW   85   0.575   4.557   0.501  0.6011 -0.2934  0.2928
   22SOL    HW2   86   0.558   4.489   0.435 -0.4357  0.8790 -0.6697
   22SOL    HW3   87   0.599   4.508   0.580 -1.0928 -1.7987 -0.1025
   22SOL    MW4   88   0.576   4.541   0.502  0.2408 -0.3373  0.1136
   23SOL     OW   89   0.219   4.473   0.459 -0.4344 -0.0710 -0.0059
   23SOL    HW2   90   0.164   4.395   0.447 -1.3372  0.7034 -1.0363
   23SOL    HW3   91   0.159   4.540   0.492 -0.1065  0.7708 -1.0856
   23SOL    MW4   92   0.204   4.472   0.462 -0.5103  0.1422 -0.2843
   24SOL     OW   93   4.230   4.324   0.427  0.2558 -0.3284 -0.0143
   24SOL    HW2   94   4.148   4.287   0.396  0.6900 -0.1415 -1.4570
   24SOL    HW3   95   4.217   4.340   0.520 -0.8534 -1.5982  0.0533
   24SOL    MW4   96   4.218   4.321   0.435  0.1668 -0.4713 -0.1958
   25SOL     OW   97   0.396   3.674   0.341  0.1678 -0.4047  0.0363
   25SOL    HW2   98   0.474   3.694   0.392  0.4870 -1.2985 -0.0900
   25SOL    HW3   99   0.350   3.757   0.333 -0.0421 -0.3083  2.0171
   25SOL    MW4  100   0.400   3.687   0.346  0.1822 -0.5099  0.2810
   26SOL     OW  101   0.445   4.339   0.381 -0.1719 -0.0028 -0.0274
   26SOL    HW2  102   0.366   4.386   0.410 -1.2614 -1.7607 -0.0866
   26SOL    HW3  103   0.420   4.301   0.297 -0.3465 -3.1740  1.3918
   26SOL    MW4  104   0.431   4.340   0.374 -0.3387 -0.6531  0.1520
   27SOL     OW  105   0.443   0.151   0.481 -0.0188  0.1159  0.7120
   27SOL    HW2  106   0.488   0.067   0.481  0.4425  0.3235  2.8367
   27SOL    HW3  107   0.508   0.213   0.446 -0.4561 -0.4350 -1.1205
   27SOL    MW4  108   0.458   0.148   0.477 -0.0156  0.0706  0.7505
   28SOL     OW  109   4.320   0.566   0.539  0.3061  0.1333 -0.7143
   28SOL    HW2  110   4.411   0.568   0.509  0.7237  1.2310  0.5593
   28SOL    HW3  111   4.290   0.656   0.529  0.0280  0.2180  0.8147
   28SOL    MW4  112   4.328   0.578   0.534  0.3245  0.2893 -0.3445
   29SOL     OW  113   1.091   4.371   0.433  0.1113  0.2136 -0.3235
   29SOL    HW2  114   1.038   4.292   0.446  1.0486 -0.6059 -1.3434
   29SOL    HW3  115   1.118   4.396   0.521  0.9154 -1.4122 -0.0757
   29SOL    MW4  116   1.088   4.364   0.446  0.3410 -0.1091 -0.4254
   30SOL     OW  117   1.080   1.090   0.419 -0.2793 -0.0281  0.4357
   30SOL    HW2  118   1.093   1.180   0.451  0.0394 -0.2734  0.9970
   30SOL    HW3  119   1.167   1.052   0.420 -0.4115 -0.3371  0.1613
   30SOL    MW4  120   1.093   1.097   0.423 -0.2547 -0.1012  0.4736
   31SOL     OW  121   0.688   0.535   0.533  0.3106 -0.4314 -0.1865
   31SOL    HW2  122   0.738   0.608   0.495  1.4421 -1.2263 -0.2591
   31SOL    HW3  123   0.598   0.566   0.535  0.7604  0.9171 -0.3625
   31SOL    MW4  124   0.683   0.549   0.528  0.5192 -0.3584 -0.2193
   32SOL     OW  125   0.010   1.081   0.440  0.4076 -0.4537 -0.0558
   32SOL    HW2  126  -0.079   1.078   0.476 -0.0413 -0.5512 -1.1186
   32SOL    HW3  127   0.054   1.005   0.478 -0.4937 -1.3748 -0.8146
   32SOL    MW4  128   0.004   1.070   0.449  0.2294 -0.5881 -0.2961
   33SOL     OW  129   0.407   1.532   0.298 -0.0279  0.1385  0.2854
   33SOL    HW2  130   0.416   1.437   0.299 -0.1713  0.1372  1.0529
   33SOL    HW3  131   0.313   1.547   0.308 -0.1392  0.3358 -0.9606
   33SOL    MW4  132   0.396   1.522   0.299 -0.0615  0.1644  0.2222
   34SOL     OW  133   0.141   1.533   0.360 -0.3053 -0.3578  0.1707
   34SOL    HW2  134   0.143   1.465   0.427 -0.3202 -0.6008 -0.0714
   34SOL    HW3  135   0.058   1.521   0.315 -0.4716  0.0586  0.3682
   34SOL    MW4  136   0.131   1.522   0.363 -0.3292 -0.3349  0.1648
   35SOL     OW  137   4.059   2.426   0.485 -0.2731  0.0187 -0.4501
   35SOL    HW2  138   3.970   2.450   0.460  0.0975  1.3085 -0.5756
   35SOL    HW3  139   4.056   2.420   0.580 -0.4012  0.4785 -0.4220
   35SOL    MW4  140   4.047   2.428   0.494 -0.2411  0.2495 -0.4630
   36SOL     OW  141   0.340   2.567   0.468  0.5293  0.4533 -0.4249
   36SOL    HW2  142   0.342   2.630   0.396 -0.1206 -1.3355 -2.0675
   36SOL    HW3  143   0.247   2.552   0.484  0.6727 -1.0920 -0.9729
   36SOL    MW4  144   0.328   2.573   0.460  0.4625  0.0134 -0.7139
   37SOL     OW  145   3.400   2.182   0.454 -0.2183  0.3328 -0.3208
   37SOL    HW2  146   3.396   2.154   0.545 -2.3997 -1.4754 -0.9330
   37SOL    HW3  147   3.485   2.151   0.423  0.8929  1.6696  1.2848
   37SOL    MW4  148   3.410   2.174   0.462 -0.3595  0.2706 -0.1897
   38SOL     OW  149   0.351   2.767   0.257  0.2213 -0.3610  0.0064
   38SOL    HW2  150   0.338   2.755   0.163 -0.3694  0.5404 -0.0376
   38SOL    HW3  151   0.446   2.773   0.267  0.2798 -0.2805 -0.5628
   38SOL    MW4  152   0.362   2.766   0.245  0.1511 -0.2314 -0.0745
   39SOL     OW  153   0.517   2.115   0.356 -0.3872  0.6350  0.0943
   39SOL    HW2  154   0.556   2.136   0.272 -1.0646  1.5788  0.0131
   39SOL    HW3  155   0.563   2.036   0.385 -0.2416  0.2334 -1.2169
   39SOL    MW4  156   0.528   2.107   0.349 -0.4574  0.7065 -0.0894
   40SOL     OW  157   4.247   2.864   0.512  0.2696  0.0883 -0.0200
   40SOL    HW2  158   4.251   2.778   0.469 -1.0676  0.5696 -1.1277
   40SOL    HW3  159   4.327   2.908   0.485  0.5040 -0.4524 -0.2147
   40SOL    MW4  160   4.258   2.858   0.503  0.1241  0.0805 -0.1918
   41SOL     OW  161   0.448   3.239   0.457 -0.3663  0.1975 -0.2168
   41SOL    HW2  162   0.448   3.245   0.553 -0.7712  1.7832 -0.3011
   41SOL    HW3  163   0.541   3.246   0.433 -0.2626 -0.2213  0.0556
   41SOL    MW4  164   0.460   3.241   0.467 -0.4061  0.3515 -0.1920
   42SOL     OW  165   1.103   4.644   0.363  0.0983 -0.0902 -0.1962
   42SOL    HW2  166   1.082   4.555   0.391 -1.1259  0.5680  1.0305
   42SOL    HW3  167   1.154   4.633   0.282 -0.8375 -1.8627 -0.5509
   42SOL    MW4  168   1.107   4.631   0.356 -0.1867 -0.2372 -0.0812
   43SOL     OW  169   0.264   3.447   0.469 -0.2004  0.0173 -0.3740
   43SOL    HW2  170   0.299   3.519   0.416 -0.2463 -0.5328 -1.1689
   43SOL    HW3  171   0.323   3.374   0.451 -0.6689 -0.3909 -0.2562
   43SOL    MW4  172   0.276   3.447   0.459 -0.2683 -0.1092 -0.4633
   44SOL     OW  173   0.638   3.728   0.448 -0.0936  0.5150 -0.3293
   44SOL    HW2  174   0.627   3.823   0.441  1.2560  0.6175 -1.1752
   44SOL    HW3  175   0.653   3.712   0.541  0.0986  1.1717 -0.2451
   44SOL    MW4  176   0.638   3.738   0.459  0.1098  0.6152 -0.4298
   45SOL     OW  177   1.422   3.563   0.337  0.0790  0.0130  0.0514
   45SOL    HW2  178   1.348   3.517   0.297 -1.5824  0.3804  2.5878
   45SOL    HW3  179   1.458   3.501   0.400  0.1510  0.8336  0.8366
   45SOL    MW4  180   1.417   3.549   0.340 -0.1307  0.1698  0.4897
   46SOL     OW  181   0.274   3.917   0.440 -0.2769 -0.1451 -0.0308
   46SOL    HW2  182   0.352   3.956   0.401  0.2696 -3.1962 -2.1389
   46SOL    HW3  183   0.293   3.913   0.534  0.6659  2.1802 -0.0759
   46SOL    MW4  184   0.287   3.922   0.447 -0.0804 -0.2409 -0.3149
   47SOL     OW  185   1.061   3.121   0.304  0.0840  0.3387 -0.3835
   47SOL    HW2  186   0.990   3.082   0.355  0.2280  1.2617  0.5444
   47SOL    HW3  187   1.135   3.063   0.318  0.2708  0.8604  0.9143
   47SOL    MW4  188   1.061   3.108   0.313  0.1277  0.5293 -0.0899
   48SOL     OW  189   0.696   4.261   0.466 -0.3779  0.0736  0.8807
   48SOL    HW2  190   0.719   4.309   0.545 -1.0557  0.4831  0.8413
   48SOL    HW3  191   0.605   4.287   0.448  0.2526  1.1629 -0.8837
   48SOL    MW4  192   0.687   4.270   0.474 -0.3842  0.2714  0.6427
   49SOL     OW  193   0.823   1.028   0.450 -0.1702  0.6137 -0.2358
   49SOL    HW2  194   0.906   1.032   0.401  0.1076 -0.3238  0.1492
   49SOL    HW3  195   0.849   1.032   0.542 -0.6597  1.8363 -0.1353
   49SOL    MW4  196   0.837   1.029   0.456 -0.1982  0.6513 -0.1718
   50SOL     OW  197   0.206   0.274   0.409  0.2500  0.3979  0.1785
   50SOL    HW2  198   0.286   0.228   0.435 -0.2134 -0.6453 -0.2283
   50SOL    HW3  199   0.221   0.299   0.317 -0.2994 -0.7164 -0.2243
   50SOL    MW4  200   0.219   0.271   0.400  0.1164  0.1132  0.0717
   51SOL     OW  201   0.409   0.593   0.537  0.0240 -0.2428 -0.1086
   51SOL    HW2  202   0.381   0.555   0.454  0.7934 -0.2353 -0.3834
   51SOL    HW3  203   0.358   0.546   0.603  0.3081 -1.1326 -0.5027
   51SOL    MW4  204   0.399   0.581   0.535  0.1630 -0.3592 -0.1969
   52SOL     OW  205   1.351   0.677   0.444  0.1281 -0.3026  0.2083
   52SOL    HW2  206   1.264   0.642   0.426 -0.9242  1.8157  1.0873
   52SOL    HW3  207   1.376   0.639   0.528 -0.2132 -0.4387  0.2483
   52SOL    MW4  208   1.343   0.667   0.452 -0.0558 -0.0410  0.3295
   53SOL     OW  209   1.560   1.090   0.334  0.0475  0.5183 -0.0973
   53SOL    HW2  210   1.493   1.043   0.383  1.0038 -1.3952 -0.5387
   53SOL    HW3  211   1.536   1.077   0.242  0.2439  1.0180 -0.2200
   53SOL    MW4  212   1.548   1.082   0.328  0.1996  0.3318 -0.1717
   54SOL     OW  213   1.565   1.344   0.479 -0.2349 -0.3872 -0.1511
   54SOL    HW2  214   1.569   1.272   0.415 -1.7142  0.5232 -1.3007
   54SOL    HW3  215   1.641   1.399   0.457  0.0096 -0.7656 -0.2681
   54SOL    MW4  216   1.576   1.341   0.467 -0.3978 -0.3170 -0.3182
   55SOL     OW  217   0.470   1.238   0.305  0.4517  0.1460 -0.0264
   55SOL    HW2  218   0.485   1.144   0.294  1.2914 -0.0879  2.7574
   55SOL    HW3  219   0.538   1.266   0.366 -0.5342  2.3307  0.1182
   55SOL    MW4  220   0.481   1.229   0.311  0.4324  0.4034  0.3599
   56SOL     OW  221   0.847   0.737   0.427  0.3050 -0.0277 -0.0590
   56SOL    HW2  222   0.937   0.715   0.450  0.8349  0.6782 -1.3329
   56SOL    HW3  223   0.836   0.827   0.459 -0.0875 -0.2602  0.4624
   56SOL    MW4  224   0.858   0.746   0.434  0.3231  0.0348 -0.1583
   57SOL     OW  225   1.102   0.566   0.369  0.1854 -0.1184 -0.1230
   57SOL    HW2  226   1.072   0.544   0.280 -0.2696 -0.3468  0.0865
   57SOL    HW3  227   1.104   0.483   0.415  0.0562  0.0501  0.1904
   57SOL    MW4  228   1.098   0.552   0.363  0.1084 -0.1263 -0.0540
   58SOL     OW  229   0.695   1.288   0.459  0.3666 -0.3669  0.2214
   58SOL    HW2  230   0.745   1.370   0.461  1.8906 -1.2806  0.1507
   58SOL    HW3  231   0.760   1.221   0.441 -1.2621 -1.3007 -2.4286
   58SOL    MW4  232   0.710   1.290   0.457  0.3528 -0.6107 -0.1376
   59SOL     OW  233   0.860   1.519   0.488  0.0680 -0.0604  0.2350
   59SOL    HW2  234   0.872   1.597   0.434  0.9921 -0.9348 -0.8480
   59SOL    HW3  235   0.861   1.551   0.578  1.2801  1.0765 -0.1755
   59SOL    MW4  236   0.861   1.533   0.493  0.3499 -0.0258  0.0379
   60SOL     OW  237   0.651   1.911   0.491  0.4021 -0.0328  0.2241
   60SOL    HW2  238   0.591   1.837   0.501 -0.3713  0.4442 -0.7620
   60SOL    HW3  239   0.731   1.873   0.456  0.1505 -0.4806  0.1322
   60SOL    MW4  240   0.653   1.896   0.487  0.2669 -0.0289  0.0819
   61SOL     OW  241   0.873   2.754   0.476  0.3054  0.0117 -0.0697
   61SOL    HW2  242   0.811   2.731   0.545  2.3949 -1.1263  1.4925
   61SOL    HW3  243   0.890   2.848   0.489  0.7563 -0.2132  1.0607
   61SOL    MW4  244   0.867   2.763   0.487  0.6405 -0.1681  0.2856
   62SOL     OW  245   0.641   2.606   0.577 -0.1315  0.2150 -0.4385
   62SOL    HW2  246   0.624   2.557   0.657 -0.0939  1.1526  0.1379
   62SOL    HW3  247   0.555   2.613   0.535 -0.3091  0.5519 -0.0165
   62SOL    MW4  248   0.627   2.600   0.582 -0.1500  0.3832 -0.3067
   63SOL     OW  249   0.891   1.819   0.374 -0.1428 -0.0692  0.0453
   63SOL    HW2  250   0.974   1.837   0.420  0.1686 -0.6791 -0.2699
   63SOL    HW3  251   0.908   1.845   0.284 -0.4897  0.3441  0.0943
   63SOL    MW4  252   0.904   1.825   0.368 -0.1475 -0.0951  0.0102
   64SOL     OW  253   0.621   2.801   0.316 -0.1403 -0.2475 -0.0022
   64SOL    HW2  254   0.698   2.750   0.341  0.1716 -0.2988 -1.0463
   64SOL    HW3  255   0.618   2.872   0.380 -0.1714 -1.1723  1.0316
   64SOL    MW4  256   0.631   2.804   0.328 -0.1032 -0.3763 -0.0036
   65SOL     OW  257   1.159   1.904   0.469 -0.1809  0.4670 -0.1607
   65SOL    HW2  258   1.247   1.868   0.476 -0.5940 -0.5801 -0.3186
   65SOL    HW3  259   1.142   1.945   0.553 -0.6987 -1.9779  0.9668
   65SOL    MW4  260   1.168   1.905   0.481 -0.3037  0.0063 -0.0328
   66SOL     OW  261   0.254   2.936   0.478  0.0956  0.1281 -0.0292
   66SOL    HW2  262   0.289   2.870   0.418  2.4710  1.0933  0.2498
   66SOL    HW3  263   0.283   3.020   0.442 -2.5354  1.0163 -0.1434
   66SOL    MW4  264   0.263   2.938   0.465  0.0619  0.3726 -0.0074
   67SOL     OW  265   0.719   3.268   0.373 -0.3886  0.0110  0.1420
   67SOL    HW2  266   0.795   3.213   0.354  0.4796  0.9407  0.8935
   67SOL    HW3  267   0.744   3.355   0.345 -0.5858  0.6217  1.8220
   67SOL    MW4  268   0.732   3.272   0.367 -0.3000  0.2142  0.4628
   68SOL     OW  269   1.226   3.679   0.488 -0.0098  0.4507  0.2631
   68SOL    HW2  270   1.299   3.643   0.437 -1.7904  0.0531 -2.0710
   68SOL    HW3  271   1.152   3.677   0.429 -1.9602  0.8512  2.6062
   68SOL    MW4  272   1.226   3.674   0.474 -0.5020  0.4511  0.2643
   69SOL     OW  273   1.033   3.913   0.294 -0.3320  0.0750  0.8244
   69SOL    HW2  274   1.125   3.938   0.289 -0.6474  1.0470 -0.2328
   69SOL    HW3  275   0.994   3.975   0.355 -0.1034 -0.9342  2.0226
   69SOL    MW4  276   1.040   3.925   0.301 -0.3434  0.0701  0.8430
   70SOL     OW  277   0.530   3.998   0.443  0.5587  0.1263  0.2268
   70SOL    HW2  278   0.587   4.072   0.422 -0.6708  0.9175 -0.3255
   70SOL    HW3  279   0.518   4.003   0.537  0.9982  0.2366  0.2800
   70SOL    MW4  280   0.536   4.008   0.452  0.4544  0.2453  0.1609
   71SOL     OW  281   1.319   4.038   0.228  0.3793 -0.0646  0.0994
   71SOL    HW2  282   1.296   4.130   0.220  2.0352  0.4364  0.7486
   71SOL    HW3  283   1.394   4.027   0.170  0.5207 -0.8770  0.4283
   71SOL    MW4  284   1.326   4.049   0.219  0.6164 -0.1057  0.2284
   72SOL     OW  285   0.646   0.325   0.348 -1.2823 -0.4878 -0.2869
   72SOL    HW2  286   0.662   0.400   0.405 -1.6371 -0.5499 -0.1055
   72SOL    HW3  287   0.721   0.267   0.363 -1.2296 -0.3715 -0.0994
   72SOL    MW4  288   0.658   0.327   0.357 -1.3222 -0.4806 -0.2382
   73SOL     OW  289   0.888   0.167   0.447 -0.0060  0.0609  0.1604
   73SOL    HW2  290   0.934   0.094   0.405 -0.0186  0.2775 -0.2372
   73SOL    HW3  291   0.888   0.146   0.540 -0.1556 -0.5265  0.0270
   73SOL    MW4  292   0.894   0.155   0.454 -0.0274  0.0120  0.0903
   74SOL     OW  293   1.306   0.148   0.461  0.3159  0.0799  0.2754
   74SOL    HW2  294   1.245   0.095   0.410  1.3856  0.1977 -1.1465
   74SOL    HW3  295   1.391   0.134   0.419  0.2589  4.6976 -1.5555
   74SOL    MW4  296   1.309   0.139   0.449  0.4495  0.7047 -0.1538
   75SOL     OW  297   1.570   0.491   0.438  0.9906  0.0952  0.3528
   75SOL    HW2  298   1.571   0.480   0.533  0.2485  1.4579  0.5423
   75SOL    HW3  299   1.505   0.560   0.423  0.6772 -0.5176 -1.1958
   75SOL    MW4  300   1.561   0.499   0.449  0.8513  0.1941  0.1735
   76SOL     OW  301   1.090   0.340   0.519 -0.4691 -0.2278 -0.2637
   76SOL    HW2  302   1.170   0.287   0.510 -1.2248 -1.3531 -0.4844
   76SOL    HW3  303   1.022   0.287   0.478 -1.5605  0.2112  0.9673
   76SOL    MW4  304   1.092   0.326   0.512 -0.7128 -0.3184 -0.1304
   77SOL     OW  305   1.702   0.289   0.267  0.3264 -0.2843  0.2674
   77SOL    HW2  306   1.636   0.327   0.326 -0.8616  1.0111 -1.8313
   77SOL    HW3  307   1.767   0.358   0.257  0.6133 -0.5676  0.1871
   77SOL    MW4  308   1.702   0.303   0.273  0.2075 -0.1508 -0.0201
   78SOL     OW  309   1.831   1.013   0.401 -0.1861  0.0262  0.2186
   78SOL    HW2  310   1.745   1.053   0.389 -0.0386  0.2431 -0.1380
   78SOL    HW3  311   1.827   0.973   0.487 -0.1985  1.1718  0.7611
   78SOL    MW4  312   1.819   1.013   0.410 -0.1683  0.2060  0.2431
   79SOL     OW  313   1.350   1.517   0.491  0.1671  0.3458 -0.0758
   79SOL    HW2  314   1.362   1.566   0.573  0.3412 -0.2356  0.2536
   79SOL    HW3  315   1.429   1.463   0.484  0.2624  0.5747 -0.7561
   79SOL    MW4  316   1.362   1.516   0.501  0.2026  0.2993 -0.1221
   80SOL     OW  317   1.102   1.356   0.484 -0.1728  0.2312  0.4223
   80SOL    HW2  318   1.171   1.418   0.464  1.1713 -0.6976  2.0343
   80SOL    HW3  319   1.025   1.410   0.502  0.4776  1.3271 -0.0761
   80SOL    MW4  320   1.101   1.371   0.484  0.0904  0.2533  0.5692
   81SOL     OW  321   1.772   1.505   0.411 -0.2880 -0.7619 -0.3874
   81SOL    HW2  322   1.860   1.506   0.374 -0.5335  0.5849 -0.9632
   81SOL    HW3  323   1.761   1.593   0.449 -0.8361 -1.4060  0.9696
   81SOL    MW4  324   1.782   1.517   0.412 -0.3927 -0.6692 -0.2843
   82SOL     OW  325   1.745   2.228   0.381 -0.3445  0.0787  0.0961
   82SOL    HW2  326   1.654   2.196   0.377 -0.6623  1.0229 -0.3634
   82SOL    HW3  327   1.790   2.165   0.437 -1.3633 -0.2137  0.6012
   82SOL    MW4  328   1.739   2.215   0.388 -0.5208  0.1647  0.1021
   83SOL     OW  329   0.804   2.391   0.456  0.2211  0.2953  0.2246
   83SOL    HW2  330   0.854   2.395   0.538 -0.2348 -1.2650  0.6038
   83SOL    HW3  331   0.748   2.468   0.457  1.4047  1.1703  0.5890
   83SOL    MW4  332   0.803   2.401   0.467  0.3171  0.2049  0.3227
   84SOL     OW  333   1.103   2.578   0.436 -1.1336  0.2757 -0.7130
   84SOL    HW2  334   1.024   2.628   0.459 -0.1821  2.2202 -1.5732
   84SOL    HW3  335   1.082   2.539   0.351 -1.3758  0.3429 -0.6852
   84SOL    MW4  336   1.090   2.579   0.428 -1.0400  0.5411 -0.8228
   85SOL     OW  337   2.080   2.344   0.463 -0.0821 -0.5156  0.0703
   85SOL    HW2  338   2.167   2.380   0.444 -0.8076  1.8065  0.9515
   85SOL    HW3  339   2.086   2.314   0.554 -1.0060  2.3401  1.1261
   85SOL    MW4  340   2.092   2.345   0.473 -0.2997  0.1675  0.3259
   86SOL     OW  341   1.833   2.474   0.429  0.1125 -0.1488 -0.5664
   86SOL    HW2  342   1.799   2.389   0.402  1.0098 -0.7217  0.0724
   86SOL    HW3  343   1.928   2.464   0.422  0.2208  0.7703 -0.3822
   86SOL    MW4  344   1.841   2.461   0.424  0.2452 -0.1031 -0.4578
   87SOL     OW  345   1.234   2.173   0.373 -0.0392  0.5093 -0.0417
   87SOL    HW2  346   1.192   2.091   0.397 -0.1298  1.4582  3.1984
   87SOL    HW3  347   1.167   2.222   0.326 -0.9722 -0.0024  0.7456
   87SOL    MW4  348   1.220   2.169   0.370 -0.1742  0.5670  0.4897
   88SOL     OW  349   0.601   2.973   0.544  0.0958 -0.1846  0.8456
   88SOL    HW2  350   0.534   3.041   0.553  0.2920 -0.0110  1.0172
   88SOL    HW3  351   0.616   2.943   0.633 -0.2713 -0.7299  0.7235
   88SOL    MW4  352   0.594   2.978   0.557  0.0733 -0.2336  0.8522
   89SOL     OW  353   2.024   2.116   0.296  0.1193 -0.1696  0.4334
   89SOL    HW2  354   2.046   2.191   0.352  0.8722  0.1987 -0.3505
   89SOL    HW3  355   1.936   2.136   0.264  0.5505  0.6767 -0.2476
   89SOL    MW4  356   2.015   2.129   0.299  0.2756 -0.0093  0.2401
   90SOL     OW  357   1.761   4.130   0.316 -0.0517  0.4524 -0.0124
   90SOL    HW2  358   1.687   4.177   0.354 -0.1378  0.1758  0.1655
   90SOL    HW3  359   1.771   4.053   0.372 -0.1089  0.0965 -0.4989
   90SOL    MW4  360   1.753   4.126   0.329 -0.0706  0.3689 -0.0531
   91SOL     OW  361   1.373   3.928   0.481  0.0255  0.2311 -0.0984
   91SOL    HW2  362   1.331   3.842   0.481 -0.1655  0.3046  1.5742
   91SOL    HW3  363   1.346   3.968   0.399 -1.1198 -0.7259 -0.2059
   91SOL    MW4  364   1.364   3.922   0.470 -0.1508  0.1145  0.1081
   92SOL     OW  365   1.326   3.231   0.538  0.0875 -0.1246 -0.5186
   92SOL    HW2  366   1.261   3.283   0.491 -0.3466  0.6091  0.8918
   92SOL    HW3  367   1.310   3.141   0.508 -1.3536  0.0939 -0.4426
   92SOL    MW4  368   1.315   3.226   0.527 -0.1599  0.0010 -0.3225
   93SOL     OW  369   1.781   3.217   0.481 -0.0216 -0.2057  0.1920
   93SOL    HW2  370   1.713   3.157   0.450 -1.1528  1.1443  0.0467
   93SOL    HW3  371   1.848   3.215   0.412 -0.2871 -0.8932 -0.0538
   93SOL    MW4  372   1.781   3.209   0.468 -0.2059 -0.1183  0.1404
   94SOL     OW  373   1.300   2.739   0.516  0.1539  0.2556  0.1839
   94SOL    HW2  374   1.238   2.676   0.480 -0.7871  0.6792  1.0409
   94SOL    HW3  375   1.386   2.705   0.491 -0.3178 -1.5075  0.8475
   94SOL    MW4  376   1.303   2.726   0.508 -0.0325  0.0789  0.3845
   95SOL     OW  377   1.315   2.994   0.389  0.0770  0.3377 -0.0842
   95SOL    HW2  378   1.303   2.909   0.430 -0.5001  1.2563  1.6776
   95SOL    HW3  379   1.409   3.011   0.394  0.0472  0.3128  0.6155
   95SOL    MW4  380   1.326   2.985   0.395 -0.0031  0.4556  0.2406
   96SOL     OW  381   0.945   4.121   0.479  0.2366  0.5036  0.3167
   96SOL    HW2  382   0.955   4.109   0.574  0.0574  1.7271  0.5000
   96SOL    HW3  383   0.855   4.151   0.468 -0.5988 -2.1785 -0.5126
   96SOL    MW4  384   0.934   4.123   0.490  0.1027  0.3111  0.2315
   97SOL     OW  385   2.190   0.134   0.743  0.2973 -0.5884  0.0926
   97SOL    HW2  386   2.272   0.090   0.767 -0.3396 -1.2693  1.0086
   97SOL    HW3  387   2.172   0.103   0.654  0.1058 -1.8393  0.5492
   97SOL    MW4  388   2.199   0.124   0.734  0.1880 -0.8433  0.2737
   98SOL     OW  389   1.822   0.535   0.337  0.0186 -0.0426  0.2098
   98SOL    HW2  390   1.739   0.542   0.385 -0.4465  2.1538 -0.8698
   98SOL    HW3  391   1.852   0.626   0.328  1.4907 -0.6566 -1.2443
   98SOL    MW4  392   1.815   0.548   0.342  0.1515  0.1662 -0.1245
   99SOL     OW  393   1.889   0.140   0.436  0.1910  0.4584  0.1570
   99SOL    HW2  394   1.844   0.107   0.514  0.2570 -0.1242 -0.0506
   99SOL    HW3  395   1.821   0.185   0.386 -0.1363 -0.3364 -0.1095
   99SOL    MW4  396   1.874   0.142   0.440  0.1565  0.2766  0.0944
  100SOL     OW  397   1.280   4.584   0.143  0.0244 -0.0179  0.2968
  100SOL    HW2  398   1.279   4.489   0.152  1.1296 -0.1853 -1.1214
  100SOL    HW3  399   1.372   4.607   0.148 -0.1212  0.8276 -0.7970
  100SOL    MW4  400   1.292   4.575   0.145  0.1510  0.0716 -0.0346
  101SOL     OW  401   2.017   0.392   0.484  0.4388 -0.3949 -0.1808
  101SOL    HW2  402   1.982   0.303   0.485 -0.7178  0.0597  1.9427
  101SOL    HW3  403   1.954   0.441   0.430  0.8300 -0.7393 -0.9676
  101SOL    MW4  404   2.004   0.387   0.477  0.3378 -0.3803 -0.0044
  102SOL     OW  405   2.077   1.465   0.363 -0.0694  0.1231 -0.3555
  102SOL    HW2  406   2.057   1.384   0.410  0.3860  0.7598  0.9482
  102SOL    HW3  407   2.109   1.436   0.277  1.4908 -1.1306  0.6271
  102SOL    MW4  408   2.079   1.450   0.358  0.1965  0.0417 -0.0538
  103SOL     OW  409   2.244   1.050   0.504  0.1825  0.4674 -0.0188
  103SOL    HW2  410   2.241   0.976   0.444 -1.8001  1.1289 -0.7621
  103SOL    HW3  411   2.330   1.090   0.489  0.0787  0.0763 -1.7341
  103SOL    MW4  412   2.255   1.046   0.494 -0.0928  0.5031 -0.3432
  104SOL     OW  413   2.019   1.221   0.470 -0.3747 -0.3220  0.4879
  104SOL    HW2  414   1.957   1.164   0.424 -0.0152  0.9107 -1.5659
  104SOL    HW3  415   2.095   1.166   0.484 -1.6431 -1.6527  2.4430
  104SOL    MW4  416   2.021   1.206   0.466 -0.4946 -0.3350  0.4749
  105SOL     OW  417   2.523   1.477   0.390 -0.3855 -0.0266 -0.4054
  105SOL    HW2  418   2.608   1.513   0.412  0.4549 -2.1905  0.0107
  105SOL    HW3  419   2.461   1.547   0.410  1.1946  1.2345  0.1667
  105SOL    MW4  420   2.526   1.491   0.395 -0.0662 -0.1457 -0.2750
  106SOL     OW  421   1.693   1.770   0.553 -0.4528  1.0165 -0.0806
  106SOL    HW2  422   1.738   1.847   0.517  1.1981 -0.1359 -0.5284
  106SOL    HW3  423   1.736   1.754   0.637 -1.4668  1.1591  0.4740
  106SOL    MW4  424   1.705   1.778   0.559 -0.3688  0.8832 -0.0665
  107SOL     OW  425   2.289   1.649   0.435  0.1806  0.2522 -0.2380
  107SOL    HW2  426   2.211   1.598   0.411 -1.0706  1.4013  1.2755
  107SOL    HW3  427   2.267   1.739   0.411  1.5962  0.3971 -1.0430
  107SOL    MW4  428   2.276   1.654   0.429  0.2023  0.4229 -0.1445
  108SOL     OW  429   2.349   2.400   0.450 -0.4009  0.1076 -0.6485
  108SOL    HW2  430   2.387   2.465   0.390  1.2770 -0.5006 -0.2585
  108SOL    HW3  431   2.359   2.438   0.537 -0.8697  0.0250 -0.5555
  108SOL    MW4  432   2.355   2.414   0.453 -0.2414  0.0165 -0.5848
  109SOL     OW  433   1.606   2.994   0.473 -0.3721 -0.8209 -0.4910
  109SOL    HW2  434   1.684   2.958   0.431 -0.1962 -0.0354 -0.8483
  109SOL    HW3  435   1.609   2.958   0.562  1.0561  0.1270 -0.1213
  109SOL    MW4  436   1.617   2.984   0.479 -0.1605 -0.5922 -0.4893
  110SOL     OW  437   1.024   2.383   0.246 -0.0271  0.0532 -0.1540
  110SOL    HW2  438   0.943   2.379   0.296 -0.2439 -0.6203 -0.5517
  110SOL    HW3  439   0.998   2.363   0.156  0.7242 -1.1316 -0.1143
  110SOL    MW4  440   1.010   2.380   0.241  0.0434 -0.1920 -0.2013
  111SOL     OW  441   1.158   3.385   0.346 -0.4138  0.0869 -0.0796
  111SOL    HW2  442   1.125   3.300   0.317 -1.9951  0.2565  1.1189
  111SOL    HW3  443   1.111   3.448   0.292 -0.3644  0.2440  0.0601
  111SOL    MW4  444   1.147   3.382   0.335 -0.6159  0.1300  0.0969
  112SOL     OW  445   1.494   2.081   0.436  0.1177  0.0564 -0.3733
  112SOL    HW2  446   1.478   1.987   0.442 -0.6110  0.1144 -1.3384
  112SOL    HW3  447   1.412   2.117   0.402  0.7203  0.9318 -0.9182
  112SOL    MW4  448   1.481   2.073   0.433  0.1011  0.1796 -0.5725
  113SOL     OW  449   3.851   2.017   0.490 -0.0792 -0.6631  0.1496
  113SOL    HW2  450   3.783   2.068   0.446 -0.3191 -0.4247  0.7933
  113SOL    HW3  451   3.842   1.929   0.454 -0.6377 -0.5989  0.1311
  113SOL    MW4  452   3.841   2.013   0.480 -0.1845 -0.6232  0.2321
  114SOL     OW  453   2.090   2.904   0.462 -0.6784 -0.0734  0.5747
  114SOL    HW2  454   2.174   2.858   0.457  0.0937  1.3087  0.7147
  114SOL    HW3  455   2.058   2.883   0.550 -0.1855 -0.0847  0.7539
  114SOL    MW4  456   2.097   2.895   0.473 -0.5115  0.1074  0.6168
  115SOL     OW  457   1.526   2.586   0.450 -0.2951 -0.3052 -0.3319
  115SOL    HW2  458   1.615   2.552   0.441  0.4210  1.2504  0.5212
  115SOL    HW3  459   1.469   2.510   0.439  1.1332 -1.2942 -1.0241
  115SOL    MW4  460   1.530   2.572   0.448 -0.0121 -0.2304 -0.3107
  116SOL     OW  461   1.538   3.409   0.543  0.2387 -0.3534 -0.0940
  116SOL    HW2  462   1.477   3.336   0.555  0.4762 -0.3717  1.0799
  116SOL    HW3  463   1.611   3.372   0.495  0.0283 -0.7124 -0.1429
  116SOL    MW4  464   1.539   3.395   0.538  0.2423 -0.4032  0.0544
  117SOL     OW  465   2.203   3.141   0.443 -0.0915  0.1831  0.5012
  117SOL    HW2  466   2.155   3.061   0.461 -1.3868  1.0673  1.0536
  117SOL    HW3  467   2.229   3.173   0.530  0.1782  0.4981  0.3045
  117SOL    MW4  468   2.200   3.135   0.457 -0.2268  0.3413  0.5481
  118SOL     OW  469   1.806   3.882   0.535 -0.4522 -0.3577  0.4176
  118SOL    HW2  470   1.743   3.851   0.470  0.8096 -0.1602 -0.9297
  118SOL    HW3  471   1.883   3.826   0.521  0.1575  0.3164  1.1039
  118SOL    MW4  472   1.808   3.870   0.524 -0.2052 -0.2427  0.3303
  119SOL     OW  473   1.566   4.310   0.414 -0.1916  0.1490  0.1418
  119SOL    HW2  474   1.544   4.318   0.507 -1.0192  0.6454 -0.0936
  119SOL    HW3  475   1.632   4.377   0.399  0.2713 -0.2309  0.4723
  119SOL    MW4  476   1.572   4.320   0.425 -0.2397  0.1644  0.1543
  120SOL     OW  477   1.728   4.547   0.439  0.0299  0.1310  0.0433
  120SOL    HW2  478   1.690   4.531   0.526 -0.1614 -1.0423 -0.2477
  120SOL    HW3  479   1.821   4.559   0.455 -0.0772  0.4117  0.4677
  120SOL    MW4  480   1.735   4.546   0.453 -0.0095  0.0132  0.0609
  121SOL     OW  481   1.313   4.326   0.268 -0.3784  0.2552  0.2976
  121SOL    HW2  482   1.255   4.334   0.344  1.1853  1.3974  1.3856
  121SOL    HW3  483   1.399   4.308   0.305  0.0482 -1.1131 -1.2939
  121SOL    MW4  484   1.317   4.324   0.283 -0.1158  0.2253  0.2312
  122SOL     OW  485   2.644   4.247   0.421  0.0499  0.2487  0.3550
  122SOL    HW2  486   2.631   4.193   0.343  0.8031 -0.1829  0.5246
  122SOL    HW3  487   2.556   4.281   0.441 -0.2429 -0.0617 -0.3618
  122SOL    MW4  488   2.630   4.245   0.413  0.1107  0.1508  0.2828
  123SOL     OW  489   2.154   0.053   0.478 -0.3998 -0.4044 -0.0811
  123SOL    HW2  490   2.221   0.038   0.411  0.1281  0.2805  0.2855
  123SOL    HW3  491   2.077   0.082   0.429 -0.0629 -0.0561 -0.4098
  123SOL    MW4  492   2.153   0.055   0.463 -0.2857 -0.2681 -0.0761
  124SOL     OW  493   2.733   1.068   0.391  0.4395  0.5038 -0.1902
  124SOL    HW2  494   2.779   1.148   0.419  0.7066  0.8455 -1.5809
  124SOL    HW3  495   2.742   1.067   0.296 -0.4056 -0.6835 -0.2673
  124SOL    MW4  496   2.740   1.079   0.383  0.3632  0.3922 -0.3838
  125SOL     OW  497   2.298   0.515   0.441  0.0561 -0.3441 -0.3375
  125SOL    HW2  498   2.222   0.457   0.445 -0.2679  0.0978  0.0366
  125SOL    HW3  499   2.368   0.461   0.405 -0.2080 -1.0020  0.1307
  125SOL    MW4  500   2.297   0.500   0.437 -0.0215 -0.3726 -0.2264
  126SOL     OW  501   2.867   1.294   0.493 -0.6475 -0.5139  0.0083
  126SOL    HW2  502   2.878   1.287   0.588  2.7018  0.5622 -0.2266
  126SOL    HW3  503   2.822   1.377   0.480  1.0142  0.5071  0.5884
  126SOL    MW4  504   2.863   1.304   0.504  0.0136 -0.2372  0.0538
  127SOL     OW  505   2.903   0.828   0.491 -0.1117 -0.2441  0.0980
  127SOL    HW2  506   2.843   0.895   0.457 -0.8984 -1.2682 -0.5822
  127SOL    HW3  507   2.986   0.874   0.504 -0.9682  1.1333  0.7858
  127SOL    MW4  508   2.906   0.843   0.488 -0.3285 -0.1975  0.0990
  128SOL     OW  509   2.490   1.209   0.481 -0.0253  0.4061  0.1324
  128SOL    HW2  510   2.508   1.299   0.453 -0.8817  0.7234  0.5719
  128SOL    HW3  511   2.571   1.161   0.461 -0.3488  0.7652 -2.2009
  128SOL    MW4  512   2.503   1.214   0.475 -0.1810  0.4953 -0.1175
  129SOL     OW  513   2.245   1.938   0.431  0.1190  0.0238 -0.9719
  129SOL    HW2  514   2.190   2.000   0.383 -1.0909  0.8307  1.3801
  129SOL    HW3  515   2.327   1.984   0.446  0.1934  0.0720 -1.5323
  129SOL    MW4  516   2.249   1.952   0.427 -0.0308  0.1367 -0.7355
  130SOL     OW  517   2.957   0.560   0.433 -0.4488 -0.1209 -0.4557
  130SOL    HW2  518   3.049   0.544   0.453 -0.3867  0.4175 -0.2999
  130SOL    HW3  519   2.945   0.654   0.448 -1.1871 -0.3099  0.2191
  130SOL    MW4  520   2.968   0.571   0.438 -0.5380 -0.0748 -0.3461
  131SOL     OW  521   1.861   1.974   0.473 -0.4231  0.4520  0.3916
  131SOL    HW2  522   1.898   1.981   0.561 -1.0163 -1.2570  0.7872
  131SOL    HW3  523   1.935   1.992   0.415  0.0036  1.4523  1.2249
  131SOL    MW4  524   1.876   1.977   0.477 -0.4451  0.3585  0.5538
  132SOL     OW  525   1.432   1.815   0.461  0.4502  0.3122  0.0614
  132SOL    HW2  526   1.516   1.802   0.504  0.9782 -0.9982 -1.3087
  132SOL    HW3  527   1.414   1.731   0.418 -0.3171  1.3792 -1.7728
  132SOL    MW4  528   1.441   1.802   0.461  0.4186  0.2801 -0.3614
  133SOL     OW  529   2.463   2.159   0.488 -0.2503 -0.1695  0.9038
  133SOL    HW2  530   2.432   2.247   0.465  1.0330  0.1795  0.5049
  133SOL    HW3  531   2.557   2.161   0.470 -0.3072 -1.7943  0.3561
  133SOL    MW4  532   2.471   2.171   0.482 -0.0885 -0.3378  0.7789
  134SOL     OW  533   2.745   2.186   0.464 -0.1353 -0.4540 -0.1158
  134SOL    HW2  534   2.826   2.184   0.414  0.9040  0.8508  1.4443
  134SOL    HW3  535   2.771   2.160   0.553 -1.4526 -0.2670  0.3409
  134SOL    MW4  536   2.759   2.182   0.469 -0.1720 -0.2571  0.1503
  135SOL     OW  537   2.360   2.823   0.446  0.2634  0.3602  0.5537
  135SOL    HW2  538   2.371   2.913   0.417  0.5588  0.0302 -0.3842
  135SOL    HW3  539   2.392   2.822   0.536  0.9841  1.0253  0.3060
  135SOL    MW4  540   2.366   2.835   0.454  0.3975  0.4044  0.3972
  136SOL     OW  541   1.302   2.390   0.525 -0.1264  0.2528 -0.3715
  136SOL    HW2  542   1.272   2.314   0.475 -1.6418  1.3098 -1.1237
  136SOL    HW3  543   1.238   2.459   0.504  0.5152  1.3726  1.2463
  136SOL    MW4  544   1.290   2.389   0.516 -0.2417  0.5400 -0.2573
  137SOL     OW  545   1.836   2.865   0.381  0.4663 -0.2917 -0.0198
  137SOL    HW2  546   1.822   2.778   0.418  0.7360 -1.0728 -1.6787
  137SOL    HW3  547   1.928   2.884   0.397  0.8792 -1.1363 -1.2772
  137SOL    MW4  548   1.846   2.856   0.388  0.5564 -0.5062 -0.4046
  138SOL     OW  549   1.986   3.223   0.288 -0.0278 -0.1547  0.1364
  138SOL    HW2  550   2.053   3.171   0.331  0.8076  0.4941 -0.3618
  138SOL    HW3  551   1.994   3.202   0.195 -1.5309 -1.2175  0.2188
  138SOL    MW4  552   1.996   3.214   0.281 -0.1159 -0.2093  0.0816
  139SOL     OW  553   2.253   4.160   0.507 -0.0923  0.7960  0.3557
  139SOL    HW2  554   2.191   4.172   0.435  0.5177 -0.8715 -0.4927
  139SOL    HW3  555   2.311   4.236   0.503 -0.0965  0.7344 -0.8957
  139SOL    MW4  556   2.253   4.171   0.497 -0.0124  0.5678  0.0786
  140SOL     OW  557   1.590   3.797   0.364  0.4641 -0.2422 -0.3758
  140SOL    HW2  558   1.549   3.716   0.332 -0.8176  0.0613  0.4568
  140SOL    HW3  559   1.517   3.848   0.398  1.7111 -0.2907  2.4889
  140SOL    MW4  560   1.575   3.793   0.364  0.4595 -0.2086  0.1120
  141SOL     OW  561   2.027   3.467   0.391 -0.2881  0.7488  0.2167
  141SOL    HW2  562   2.121   3.466   0.408 -0.3872  1.5977  0.8743
  141SOL    HW3  563   2.008   3.381   0.352  0.4462 -0.1663  1.8322
  141SOL    MW4  564   2.037   3.455   0.388 -0.2043  0.7401  0.5166
  142SOL     OW  565   2.017   4.462   0.514 -0.6088 -0.7983  0.2385
  142SOL    HW2  566   2.083   4.523   0.482 -0.0885 -0.7179  1.4612
  142SOL    HW3  567   2.021   4.388   0.453 -0.4637 -0.1196 -0.5816
  142SOL    MW4  568   2.026   4.460   0.502 -0.5210 -0.6982  0.2916
  143SOL     OW  569   2.035   4.231   0.343  0.0732  0.2094 -0.0390
  143SOL    HW2  570   2.043   4.233   0.248  2.0299 -0.2130  0.0874
  143SOL    HW3  571   1.959   4.176   0.360  0.2825 -0.5021 -1.3498
  143SOL    MW4  572   2.026   4.224   0.333  0.3590  0.0598 -0.1953
  144SOL     OW  573   2.410   4.417   0.470  0.0274  0.1088 -0.5839
  144SOL    HW2  574   2.443   4.460   0.549 -0.9618  1.4737 -0.8983
  144SOL    HW3  575   2.456   4.460   0.398 -0.4654  0.1739 -0.8619
  144SOL    MW4  576   2.420   4.428   0.471 -0.1682  0.2974 -0.6621
  145SOL     OW  577   2.585   3.574   0.488 -0.2180 -0.1623  0.2095
  145SOL    HW2  578   2.557   3.589   0.578 -0.3786  0.0748  0.1229
  145SOL    HW3  579   2.680   3.583   0.490 -0.1931 -0.4810  0.4154
  145SOL    MW4  580   2.594   3.577   0.500 -0.2359 -0.1731  0.2252
  146SOL     OW  581   2.706   3.972   0.503  0.0687  0.2630 -0.4134
  146SOL    HW2  582   2.641   3.913   0.465  0.2655 -0.5388  0.4728
  146SOL    HW3  583   2.666   4.058   0.498 -0.4476 -0.0175 -1.2287
  146SOL    MW4  584   2.692   3.975   0.498  0.0266  0.1202 -0.4040
  147SOL     OW  585   2.483   0.309   0.385  0.0393 -0.4315  0.2050
  147SOL    HW2  586   2.571   0.346   0.384 -0.2535  0.2954  0.5080
  147SOL    HW3  587   2.487   0.238   0.449  0.0877  0.4389  1.1818
  147SOL    MW4  588   2.495   0.305   0.394  0.0070 -0.2208  0.3739
  148SOL     OW  589   1.544   0.042   0.327 -0.4081  0.1076  0.3373
  148SOL    HW2  590   1.606  -0.019   0.367 -0.8719 -1.3227 -1.0782
  148SOL    HW3  591   1.598   0.110   0.289  0.1855 -0.1153  0.7769
  148SOL    MW4  592   1.559   0.043   0.327 -0.3910 -0.1105  0.2086
  149SOL     OW  593   3.221   0.466   0.487  0.2448  0.2621 -0.1067
  149SOL    HW2  594   3.299   0.506   0.449 -0.2780  0.1741 -1.2921
  149SOL    HW3  595   3.217   0.378   0.448  0.4729 -0.3413  1.2130
  149SOL    MW4  596   3.230   0.459   0.477  0.2059  0.1709 -0.0890
  150SOL     OW  597   2.186   0.798   0.392  0.6782 -0.0447  0.1814
  150SOL    HW2  598   2.225   0.711   0.404 -1.6405 -1.3263 -1.2754
  150SOL    HW3  599   2.107   0.782   0.341 -0.4860  2.7852  1.0154
  150SOL    MW4  600   2.181   0.784   0.387  0.2186  0.1596  0.0992
  151SOL     OW  601   3.478   0.897   0.503  0.1659 -0.3208  0.2797
  151SOL    HW2  602   3.527   0.904   0.585 -0.1533  0.4488  0.4028
  151SOL    HW3  603   3.472   0.987   0.470 -0.9275 -0.4437  0.1282
  151SOL    MW4  604   3.484   0.910   0.509 -0.0205 -0.2355  0.2760
  152SOL     OW  605   2.988   1.740   0.360 -0.2188 -0.0893  0.3822
  152SOL    HW2  606   2.994   1.794   0.439  1.2399  0.1470  0.1119
  152SOL    HW3  607   2.980   1.802   0.288 -1.7535 -0.3087  0.3319
  152SOL    MW4  608   2.987   1.755   0.361 -0.2288 -0.0871  0.3399
  153SOL     OW  609   3.148   1.266   0.403  0.2386  0.1217 -0.1699
  153SOL    HW2  610   3.154   1.171   0.405 -0.7291  0.0372 -0.9312
  153SOL    HW3  611   3.061   1.286   0.438  0.0053  0.6642 -1.0399
  153SOL    MW4  612   3.138   1.256   0.408  0.0801  0.1821 -0.3852
  154SOL     OW  613   3.195   1.556   0.438  0.1849  0.1418  0.1654
  154SOL    HW2  614   3.131   1.610   0.392 -0.4342 -0.4779  0.2961
  154SOL    HW3  615   3.177   1.467   0.409  2.2187  0.1593 -1.2345
  154SOL    MW4  616   3.184   1.551   0.428  0.3715  0.0623 -0.0021
  155SOL     OW  617   2.787   0.118   0.634  0.1508  0.2973 -0.6154
  155SOL    HW2  618   2.756   0.200   0.673  0.8515  0.7840 -1.0612
  155SOL    HW3  619   2.837   0.146   0.558  2.9056 -0.3709  0.8929
  155SOL    MW4  620   2.789   0.133   0.629  0.6067  0.2733 -0.4752
  156SOL     OW  621   3.067   1.909   0.583  0.2465  0.1814  0.1121
  156SOL    HW2  622   3.018   1.988   0.606  0.5372  0.2424  0.5387
  156SOL    HW3  623   3.128   1.897   0.656  0.5081 -0.1859 -0.1657
  156SOL    MW4  624   3.068   1.918   0.596  0.3194  0.1410  0.1317
  157SOL     OW  625   2.699   2.469   0.461  0.5942  0.0971 -0.1558
  157SOL    HW2  626   2.714   2.379   0.432  0.3103 -0.4212  1.2288
  157SOL    HW3  627   2.786   2.510   0.458  0.6933 -0.1748 -0.9527
  157SOL    MW4  628   2.712   2.462   0.457  0.5698 -0.0071 -0.0782
  158SOL     OW  629   2.775   1.568   0.457  0.1941  0.0644  0.0909
  158SOL    HW2  630   2.769   1.607   0.544 -1.1053  1.6640 -0.7038
  158SOL    HW3  631   2.838   1.622   0.410 -0.9180  0.6725 -0.7208
  158SOL    MW4  632   2.783   1.580   0.462 -0.1241  0.3556 -0.1210
  159SOL     OW  633   2.498   2.586   0.303  0.4246 -0.2794 -0.1368
  159SOL    HW2  634   2.556   2.565   0.376  0.5012 -0.9172 -0.3814
  159SOL    HW3  635   2.451   2.665   0.332 -0.3213 -1.1457  1.0383
  159SOL    MW4  636   2.499   2.594   0.317  0.3363 -0.4778 -0.0140
  160SOL     OW  637   2.750   2.972   0.318  0.0145 -0.1943 -0.4710
  160SOL    HW2  638   2.747   2.902   0.254 -0.5947  0.0835 -0.7464
  160SOL    HW3  639   2.659   2.988   0.341  0.1229  0.7590 -0.6863
  160SOL    MW4  640   2.738   2.965   0.313 -0.0515 -0.0319 -0.5357
  161SOL     OW  641   2.879   3.585   0.480  0.0702 -0.3616  0.1802
  161SOL    HW2  642   2.887   3.664   0.426  0.1278 -0.0789  0.5985
  161SOL    HW3  643   2.957   3.534   0.460  0.5976  0.2084  0.7375
  161SOL    MW4  644   2.890   3.589   0.470  0.1474 -0.2491  0.3089
  162SOL     OW  645   3.154   3.039   0.442  0.3224  0.1962 -0.0778
  162SOL    HW2  646   3.098   3.093   0.387  1.1860 -0.4128 -1.5759
  162SOL    HW3  647   3.157   3.085   0.526  2.0897  3.2046 -1.7179
  162SOL    MW4  648   3.147   3.052   0.446  0.6695  0.5128 -0.4918
  163SOL     OW  649   2.663   3.301   0.483 -0.3238 -0.1588  0.2582
  163SOL    HW2  650   2.628   3.390   0.475  0.0076 -0.1705 -1.5307
  163SOL    HW3  651   2.676   3.289   0.577 -1.3777  1.2916  0.6118
  163SOL    MW4  652   2.660   3.311   0.494 -0.4191  0.0310  0.0688
  164SOL     OW  653   2.045   3.728   0.515 -0.1395  0.6528  0.0480
  164SOL    HW2  654   2.033   3.643   0.473  0.7626  0.4065  0.2838
  164SOL    HW3  655   2.043   3.710   0.609  1.6054  0.6505  0.1076
  164SOL    MW4  656   2.043   3.715   0.522  0.2097  0.6200  0.0870
  165SOL     OW  657   4.472   3.011   0.438  0.2417  0.1090 -0.6474
  165SOL    HW2  658   4.479   3.106   0.431 -0.8272  0.2456  0.0403
  165SOL    HW3  659   4.560   2.982   0.460  0.4277  1.0009 -0.1902
  165SOL    MW4  660   4.484   3.020   0.440  0.1252  0.2447 -0.4963
  166SOL     OW  661   2.346   0.093   0.278  0.3434 -0.2182 -0.1674
  166SOL    HW2  662   2.381   0.176   0.312 -0.6197 -0.6396  1.9465
  166SOL    HW3  663   2.421   0.034   0.277  0.7851  0.3379 -0.5948
  166SOL    MW4  664   2.360   0.096   0.282  0.2746 -0.2004  0.0551
  167SOL     OW  665   2.529   3.815   0.371  0.0875 -0.0529  0.0309
  167SOL    HW2  666   2.546   3.723   0.392 -0.7527 -0.7664 -2.2820
  167SOL    HW3  667   2.442   3.833   0.405  0.2276 -0.1226  0.4267
  167SOL    MW4  668   2.520   3.806   0.378 -0.0049 -0.1563 -0.2220
  168SOL     OW  669   3.699   4.229   0.092 -0.1902  0.0190  0.2016
  168SOL    HW2  670   3.699   4.171   0.016  0.8827  2.7837 -1.9337
  168SOL    HW3  671   3.610   4.220   0.128 -1.2300 -0.0715 -2.3077
  168SOL    MW4  672   3.687   4.220   0.087 -0.1859  0.3718 -0.4112
  169SOL     OW  673   2.569   4.593   0.339  0.0595 -0.6699  0.4940
  169SOL    HW2  674   2.659   4.582   0.310 -0.2141 -2.8037  0.4155
  169SOL    HW3  675   2.575   4.655   0.412  1.4213  0.1745 -0.3129
  169SOL    MW4  676   2.582   4.600   0.345  0.2031 -0.8400  0.3772
  170SOL     OW  677   3.239   4.509   0.237  0.1702  0.0830 -0.0233
  170SOL    HW2  678   3.299   4.439   0.210 -0.1381 -0.3187  0.3208
  170SOL    HW3  679   3.296   4.579   0.269  0.4317 -0.5751  0.9457
  170SOL    MW4  680   3.254   4.509   0.238  0.1641 -0.0568  0.1499
  171SOL     OW  681   3.406   0.016   0.365  0.1076  0.3522 -0.6578
  171SOL    HW2  682   3.481   0.073   0.384  1.0203 -0.7621 -0.9431
  171SOL    HW3  683   3.331   0.075   0.371  1.0196  1.5469 -0.6868
  171SOL    MW4  684   3.406   0.032   0.368  0.3484  0.3628 -0.6993
  172SOL     OW  685   2.887   4.391   0.505  0.2927  0.5591  0.2950
  172SOL    HW2  686   2.895   4.385   0.600 -0.0969 -1.4276  0.2385
  172SOL    HW3  687   2.809   4.339   0.485  1.5142 -0.7411 -1.2731
  172SOL    MW4  688   2.878   4.383   0.515  0.4024  0.1254  0.0806
  173SOL     OW  689   1.931   0.800   0.237 -0.2397  0.3750 -0.3797
  173SOL    HW2  690   1.898   0.879   0.278  0.9728  0.7137 -0.0425
  173SOL    HW3  691   1.939   0.823   0.144 -0.3854  0.4817 -0.3660
  173SOL    MW4  692   1.927   0.813   0.230 -0.0989  0.4338 -0.3334
  174SOL     OW  693   3.466   0.576   0.485  0.6356 -0.0243  0.2415
  174SOL    HW2  694   3.538   0.548   0.429 -2.2134  1.1160 -4.2492
  174SOL    HW3  695   3.476   0.671   0.492 -0.0672  0.0593  0.1354
  174SOL    MW4  696   3.477   0.585   0.479  0.1670  0.1372 -0.3650
  175SOL     OW  697   2.763   0.387   0.337 -0.0818 -0.3687  0.2907
  175SOL    HW2  698   2.835   0.441   0.368 -0.0025 -0.4912  0.3203
  175SOL    HW3  699   2.758   0.405   0.243  0.4865 -0.9390  0.1441
  175SOL    MW4  700   2.772   0.396   0.329  0.0036 -0.4601  0.2752
  176SOL     OW  701   3.717   0.444   0.385 -0.1445 -0.0776 -0.2285
  176SOL    HW2  702   3.775   0.411   0.316  0.9005  0.4767  0.3711
  176SOL    HW3  703   3.774   0.498   0.440 -1.7227  2.4017 -0.9455
  176SOL    MW4  704   3.732   0.447   0.383 -0.2149  0.3226 -0.2440
  177SOL     OW  705   3.175   0.938   0.503 -0.0398 -0.5532  0.1998
  177SOL    HW2  706   3.258   0.898   0.476 -0.0263 -1.1248  1.0712
  177SOL    HW3  707   3.184   0.950   0.598  0.0054  1.6207 -0.0461
  177SOL    MW4  708   3.187   0.934   0.512 -0.0321 -0.3418  0.2823
  178SOL     OW  709   3.652   1.617   0.468  0.3518 -0.0021  0.6532
  178SOL    HW2  710   3.631   1.628   0.561 -0.7968  0.0936  0.3950
  178SOL    HW3  711   3.587   1.672   0.423  1.0937  0.1901 -0.1861
  178SOL    MW4  712   3.640   1.626   0.474  0.2982  0.0358  0.5084
  179SOL     OW  713   3.205   2.003   0.355  0.5745 -0.0227  0.0792
  179SOL    HW2  714   3.163   1.961   0.430  2.0768 -2.5526 -0.4371
  179SOL    HW3  715   3.272   2.060   0.393 -0.1087  0.3609  0.7137
  179SOL    MW4  716   3.208   2.005   0.370  0.6826 -0.3059  0.0948
  180SOL     OW  717   3.622   0.858   0.774  0.0159  0.0073  0.2030
  180SOL    HW2  718   3.547   0.819   0.817  0.0974 -1.6556 -1.1329
  180SOL    HW3  719   3.698   0.812   0.811  0.3448  1.1988  1.0400
  180SOL    MW4  720   3.622   0.847   0.785  0.0701 -0.0549  0.1372
  181SOL     OW  721   3.402   1.758   0.386 -0.0572  0.2142 -0.0448
  181SOL    HW2  722   3.352   1.681   0.412  0.4053  0.3353  1.2663
  181SOL    HW3  723   3.336   1.824   0.366 -0.4460 -0.1154  0.1397
  181SOL    MW4  724   3.387   1.757   0.387 -0.0475  0.1867  0.1526
  182SOL     OW  725   2.994   2.204   0.328  0.0675 -0.3838 -0.4957
  182SOL    HW2  726   3.052   2.128   0.317  0.4608  0.0575 -1.5397
  182SOL    HW3  727   3.050   2.272   0.365 -1.1548 -1.7323  4.1125
  182SOL    MW4  728   3.009   2.203   0.331 -0.0419 -0.5035 -0.0255
  183SOL     OW  729   2.936   2.853   0.471  0.0579 -0.3788 -0.6153
  183SOL    HW2  730   3.010   2.911   0.456  0.0744  0.0085  0.8204
  183SOL    HW3  731   2.865   2.890   0.419  0.0713  0.9510  0.2797
  183SOL    MW4  732   2.936   2.865   0.462  0.0618 -0.1523 -0.3078
  184SOL     OW  733   2.484   3.092   0.378 -0.5962  0.1269 -0.1258
  184SOL    HW2  734   2.401   3.139   0.371 -0.2035  0.6109 -1.9716
  184SOL    HW3  735   2.544   3.155   0.418 -0.1758  1.1130 -2.2250
  184SOL    MW4  736   2.481   3.107   0.382 -0.4889  0.3208 -0.6463
  185SOL     OW  737   2.945   2.614   0.359  0.1751  0.4397 -0.3501
  185SOL    HW2  738   2.954   2.700   0.399  0.5840  0.6437 -0.8878
  185SOL    HW3  739   3.034   2.587   0.337  0.2073 -0.7273  1.0753
  185SOL    MW4  740   2.958   2.622   0.362  0.2333  0.3126 -0.2330
  186SOL     OW  741   2.907   2.852   0.752  0.0541  0.2923 -0.2219
  186SOL    HW2  742   2.898   2.846   0.657  0.6265  1.0976 -0.3369
  186SOL    HW3  743   2.987   2.803   0.771  0.3157  0.6962 -0.2474
  186SOL    MW4  744   2.917   2.845   0.742  0.1642  0.4519 -0.2404
  187SOL     OW  745   3.223   0.205   0.414 -0.6145 -0.0741  0.8845
  187SOL    HW2  746   3.224   0.178   0.506 -0.7881  0.0836  0.9320
  187SOL    HW3  747   3.130   0.201   0.389 -0.6680  0.7265  0.9612
  187SOL    MW4  748   3.211   0.201   0.423 -0.6445  0.0524  0.9009
  188SOL     OW  749   3.152   3.841   0.443  0.0019 -0.4236  0.6520
  188SOL    HW2  750   3.181   3.879   0.526  0.0553  0.0196  0.4330
  188SOL    HW3  751   3.205   3.762   0.434  0.7352  0.0764  0.5408
  188SOL    MW4  752   3.163   3.836   0.453  0.1057 -0.2992  0.6084
  189SOL     OW  753   3.455   4.261   0.222  0.1652 -0.3882  0.4767
  189SOL    HW2  754   3.402   4.199   0.271 -0.0430 -0.6338 -0.0584
  189SOL    HW3  755   3.483   4.325   0.288  0.1880 -0.9126  0.9836
  189SOL    MW4  756   3.452   4.261   0.237  0.1408 -0.4898  0.4730
  190SOL     OW  757   3.684   3.137   0.561 -0.4107 -0.0936 -0.1450
  190SOL    HW2  758   3.661   3.074   0.493 -0.3221 -0.6407  0.3280
  190SOL    HW3  759   3.776   3.157   0.546 -0.3581 -0.3120 -0.1097
  190SOL    MW4  760   3.693   3.132   0.550 -0.3920 -0.1946 -0.0779
  191SOL     OW  761   3.090   3.405   0.430 -0.1911 -0.0517 -0.2333
  191SOL    HW2  762   3.093   3.361   0.515 -0.5049 -1.8233 -1.1150
  191SOL    HW3  763   3.064   3.336   0.369 -1.0708  1.4650 -1.5964
  191SOL    MW4  764   3.087   3.390   0.433 -0.3486 -0.0853 -0.5295
  192SOL     OW  765   3.330   4.086   0.404 -0.0755  0.1137 -0.9325
  192SOL    HW2  766   3.272   4.154   0.439 -0.3000 -0.7646  0.4668
  192SOL    HW3  767   3.274   4.009   0.393  0.7898 -0.7571  0.4661
  192SOL    MW4  768   3.315   4.085   0.407  0.0091 -0.1171 -0.5633
  193SOL     OW  769   2.261   3.865   0.433 -0.0849  0.1375 -0.0211
  193SOL    HW2  770   2.218   3.949   0.451 -0.1441  0.1155 -0.0608
  193SOL    HW3  771   2.202   3.799   0.470 -0.3419  0.0752 -0.5378
  193SOL    MW4  772   2.247   3.868   0.440 -0.1266  0.1264 -0.0945
  194SOL     OW  773   4.274   4.597   0.340 -0.5846 -0.0599  0.1586
  194SOL    HW2  774   4.253   4.510   0.374 -1.2419 -0.0059 -0.1131
  194SOL    HW3  775   4.367   4.608   0.361 -0.3349 -1.0877 -0.3713
  194SOL    MW4  776   4.284   4.587   0.347 -0.6384 -0.1884  0.0528
  195SOL     OW  777   3.612   0.180   0.476  0.0200  0.0713  0.5672
  195SOL    HW2  778   3.614   0.272   0.450  0.3142  0.2005  1.0414
  195SOL    HW3  779   3.699   0.146   0.452 -0.3402 -0.2776 -0.2888
  195SOL    MW4  780   3.624   0.188   0.469  0.0113  0.0423  0.5168
  196SOL     OW  781   3.153   4.317   0.476 -0.2917 -0.3254  0.2794
  196SOL    HW2  782   3.061   4.338   0.490 -0.4433 -1.0776  0.4401
  196SOL    HW3  783   3.172   4.348   0.387 -0.2975  1.1841  0.8042
  196SOL    MW4  784   3.144   4.324   0.466 -0.3125 -0.2255  0.3698
  197SOL     OW  785   3.908   0.566   0.548 -0.0682  0.5887  0.3031
  197SOL    HW2  786   3.901   0.530   0.637 -0.3290  0.5647  0.2753
  197SOL    HW3  787   3.970   0.509   0.503 -1.3427 -0.5415 -0.0879
  197SOL    MW4  788   3.915   0.554   0.554 -0.2707  0.4364  0.2478
  198SOL     OW  789   3.925   0.327   0.224  0.2140 -0.4221  0.3869
  198SOL    HW2  790   3.939   0.358   0.135  0.1289 -0.7970  0.2436
  198SOL    HW3  791   4.006   0.350   0.270  0.6708 -1.1454 -0.0395
  198SOL    MW4  792   3.938   0.334   0.218  0.2630 -0.5670  0.3117
  199SOL     OW  793   4.218   0.834   0.502  0.1087  0.2409 -0.1593
  199SOL    HW2  794   4.278   0.827   0.428  1.1166  0.5146  0.6135
  199SOL    HW3  795   4.235   0.920   0.539 -1.1408  0.5364 -0.2340
  199SOL    MW4  796   4.228   0.844   0.497  0.0768  0.3160 -0.0672
  200SOL     OW  797   3.903   1.196   0.464 -0.1303  0.3615 -0.2973
  200SOL    HW2  798   3.811   1.220   0.451 -0.0040  1.6092  0.9732
  200SOL    HW3  799   3.907   1.103   0.442 -1.6568  0.3438 -0.5556
  200SOL    MW4  800   3.892   1.187   0.460 -0.3151  0.5238 -0.1637
  201SOL     OW  801   4.356   1.770   0.414 -0.2906  0.1179 -1.1847
  201SOL    HW2  802   4.356   1.864   0.397 -0.6149 -0.0294 -1.9989
  201SOL    HW3  803   4.445   1.752   0.446 -0.6719  0.9434  0.3620
  201SOL    MW4  804   4.368   1.780   0.416 -0.3837  0.2074 -1.0880
  202SOL     OW  805   4.142   1.343   0.427  0.6402  0.3403 -0.2918
  202SOL    HW2  806   4.123   1.436   0.415 -0.7897  0.1788  0.5174
  202SOL    HW3  807   4.058   1.299   0.412  1.0508 -0.7177  0.4094
  202SOL    MW4  808   4.128   1.349   0.424  0.5057  0.1794 -0.0925
  203SOL     OW  809   3.403   1.179   0.515 -0.0699 -0.0952 -0.4677
  203SOL    HW2  810   3.393   1.210   0.605  0.5604 -1.5172  0.1128
  203SOL    HW3  811   3.344   1.234   0.464  0.5481  1.6184  0.6149
  203SOL    MW4  812   3.394   1.191   0.520  0.0948 -0.0567 -0.2483
  204SOL     OW  813   3.646   1.318   0.495  0.1827 -0.1704  0.0110
  204SOL    HW2  814   3.557   1.282   0.502  0.1422  0.0166  0.5119
  204SOL    HW3  815   3.633   1.408   0.466  0.1569  0.1252  0.9265
  204SOL    MW4  816   3.632   1.325   0.492  0.1739 -0.1067  0.1979
  205SOL     OW  817   3.348   2.835   0.454 -0.0368 -1.0348  0.3872
  205SOL    HW2  818   3.327   2.759   0.400  0.5449 -0.6392 -0.4069
  205SOL    HW3  819   3.281   2.899   0.432  0.9402 -0.4182 -0.8131
  205SOL    MW4  820   3.336   2.833   0.444  0.1689 -0.9013  0.1241
  206SOL     OW  821   3.674   2.204   0.332 -0.0340 -0.0028 -0.1989
  206SOL    HW2  822   3.672   2.227   0.239 -1.0962  0.5824 -0.0474
  206SOL    HW3  823   3.718   2.278   0.374 -0.0169 -0.0247 -0.1788
  206SOL    MW4  824   3.680   2.217   0.326 -0.1719  0.0715 -0.1763
  207SOL     OW  825   3.240   2.620   0.297 -0.3217 -0.5521  0.4610
  207SOL    HW2  826   3.272   2.580   0.217 -1.3347 -0.8241  0.1893
  207SOL    HW3  827   3.234   2.548   0.360 -1.0922 -0.6278  0.2986
  207SOL    MW4  828   3.243   2.605   0.295 -0.5570 -0.5980  0.4037
  208SOL     OW  829   2.897   3.827   0.342 -0.0221 -0.3467 -0.3423
  208SOL    HW2  830   2.983   3.841   0.381 -0.2531 -0.3495  0.1789
  208SOL    HW3  831   2.837   3.878   0.397 -0.4046 -0.6621 -0.4600
  208SOL    MW4  832   2.900   3.835   0.354 -0.1030 -0.3887 -0.2891
  209SOL     OW  833   2.921   3.189   0.363 -0.4195  0.1435 -0.5600
  209SOL    HW2  834   2.875   3.106   0.348 -0.6964  0.5010 -1.7366
  209SOL    HW3  835   2.854   3.249   0.394 -0.5388  0.3696 -1.2529
  209SOL    MW4  836   2.906   3.186   0.365 -0.4718  0.2205 -0.8067
  210SOL     OW  837   3.774   2.736   0.346  0.1025 -0.2753  0.4093
  210SOL    HW2  838   3.715   2.811   0.338  0.8828  0.4325  1.1447
  210SOL    HW3  839   3.839   2.764   0.411  0.1044 -1.7861  1.0632
  210SOL    MW4  840   3.775   2.750   0.353  0.2057 -0.3813  0.5926
  211SOL     OW  841   3.961   3.168   0.495 -0.0873 -0.1521  0.1013
  211SOL    HW2  842   3.997   3.198   0.578 -0.7484 -0.9023  0.6720
  211SOL    HW3  843   3.992   3.232   0.430  1.4050 -0.2212  0.7309
  211SOL    MW4  844   3.969   3.180   0.497  0.0224 -0.2602  0.2597
  212SOL     OW  845   3.782   4.073   0.337 -0.0355 -0.2682  0.3674
  212SOL    HW2  846   3.761   4.107   0.250 -1.5577  0.9691  1.2036
  212SOL    HW3  847   3.818   4.148   0.384 -2.6939  0.0546  1.9757
  212SOL    MW4  848   3.784   4.087   0.331 -0.5871 -0.0623  0.6900
  213SOL     OW  849   3.218   2.394   0.442 -0.1198 -0.0814 -0.7399
  213SOL    HW2  850   3.198   2.406   0.535  2.5899  2.1176 -0.3892
  213SOL    HW3  851   3.282   2.323   0.440  1.9292  1.7333 -0.6457
  213SOL    MW4  852   3.224   2.386   0.454  0.5081  0.4481 -0.6812
  214SOL     OW  853   3.300   3.601   0.462 -0.1352  0.0823 -0.6535
  214SOL    HW2  854   3.304   3.581   0.556  0.3757 -0.0695 -0.7063
  214SOL    HW3  855   3.235   3.540   0.428 -1.2828  1.0170 -0.1775
  214SOL    MW4  856   3.292   3.590   0.470 -0.2192  0.1856 -0.5976
  215SOL     OW  857   4.284   3.464   0.515  0.2236  0.3290  0.4897
  215SOL    HW2  858   4.196   3.452   0.481 -0.3822  0.7360  1.9048
  215SOL    HW3  859   4.311   3.549   0.483  0.6403 -0.3804 -1.0905
  215SOL    MW4  860   4.276   3.473   0.506  0.1987  0.2891  0.4679
  216SOL     OW  861   2.858   4.579   0.301  0.0091 -0.0620  0.5594
  216SOL    HW2  862   2.929   4.551   0.244 -1.7400 -1.8145 -0.8182
  216SOL    HW3  863   2.873   4.533   0.384  1.1616  0.5774  0.7185
  216SOL    MW4  864   2.870   4.569   0.305 -0.0696 -0.2088  0.3986
  217SOL     OW  865   3.539   4.436   0.428  0.1325 -0.1611 -0.3134
  217SOL    HW2  866   3.504   4.526   0.426  0.0414 -0.1801  0.4537
  217SOL    HW3  867   3.505   4.399   0.509 -1.2112 -1.4475 -1.4436
  217SOL    MW4  868   3.530   4.443   0.438 -0.0568 -0.3333 -0.3613
  218SOL     OW  869   0.046   0.026   0.498  0.3628  0.1787 -0.8102
  218SOL    HW2  870   0.087   0.104   0.460 -0.1435  0.3766 -0.9559
  218SOL    HW3  871   0.017   0.055   0.585  1.1856 -0.1679 -0.4180
  218SOL    MW4  872   0.048   0.040   0.505  0.4045  0.1591 -0.7777
  219SOL     OW  873   4.382   0.832   0.268  0.4085  0.2941 -0.2680
  219SOL    HW2  874   4.469   0.819   0.305 -0.1652 -1.1458  0.5967
  219SOL    HW3  875   4.371   0.927   0.266  1.6352  0.4644  0.4426
  219SOL    MW4  876   4.392   0.843   0.272  0.4946  0.1266 -0.0602
  220SOL     OW  877   0.244   2.050   0.454 -0.3779  0.3919  0.2893
  220SOL    HW2  878   0.327   2.057   0.407 -1.3701  1.7496 -1.3036
  220SOL    HW3  879   0.216   1.959   0.440  0.2627  0.2638 -0.1473
  220SOL    MW4  880   0.251   2.039   0.446 -0.4243  0.5542  0.0215
  221SOL     OW  881   4.107   0.392   0.441 -0.0464  0.1026  0.2184
  221SOL    HW2  882   4.121   0.304   0.476 -0.1991 -0.7466 -1.7828
  221SOL    HW3  883   4.177   0.445   0.480  0.6891 -1.1394  0.6157
  221SOL    MW4  884   4.118   0.388   0.450  0.0305 -0.1733  0.0068
  222SOL     OW  885   0.133   0.867   0.557  0.2096 -0.2514 -0.2542
  222SOL    HW2  886   0.122   0.773   0.538  0.2032 -0.0328 -1.3623
  222SOL    HW3  887   0.228   0.880   0.556  0.3246 -0.6413  1.9403
  222SOL    MW4  888   0.144   0.856   0.554  0.2239 -0.2740 -0.1109
  223SOL     OW  889   3.904   4.305   0.452 -0.8624  0.3949 -0.1863
  223SOL    HW2  890   3.871   4.349   0.530 -1.9373 -0.8120  0.0599
  223SOL    HW3  891   3.868   4.355   0.379  0.2881  1.6293  0.0628
  223SOL    MW4  892   3.895   4.317   0.452 -0.8525  0.3986 -0.1210
  224SOL     OW  893   4.264   1.108   0.552  0.3367  0.3128  0.6827
  224SOL    HW2  894   4.302   1.169   0.615  1.1880  0.7124 -0.1938
  224SOL    HW3  895   4.198   1.160   0.506  0.1178  0.1871  0.8557
  224SOL    MW4  896   4.260   1.123   0.554  0.4202  0.3490  0.5898
  225SOL     OW  897   0.226   1.286   0.468  0.5895  0.0349  0.0014
  225SOL    HW2  898   0.297   1.259   0.409 -0.3702  0.7257 -1.5035
  225SOL    HW3  899   0.154   1.227   0.446 -0.0156  0.7889 -0.0367
  225SOL    MW4  900   0.226   1.275   0.457  0.3830  0.2255 -0.2022
  226SOL     OW  901   3.865   1.767   0.365  0.5231 -0.3259  0.5833
  226SOL    HW2  902   3.796   1.704   0.388 -0.3936  0.5931  0.3650
  226SOL    HW3  903   3.877   1.756   0.271 -1.3783  1.5387  0.0952
  226SOL    MW4  904   3.857   1.757   0.356  0.1513  0.0414  0.4901
  227SOL     OW  905   4.094   1.629   0.427  0.1497 -0.0249  0.0431
  227SOL    HW2  906   4.018   1.686   0.417 -0.1247 -0.3226  0.3991
  227SOL    HW3  907   4.169   1.686   0.414 -0.1405  0.2306 -0.5067
  227SOL    MW4  908   4.094   1.644   0.424  0.0752 -0.0304  0.0175
  228SOL     OW  909   0.045   2.245   0.362  0.2929 -0.2463  0.2730
  228SOL    HW2  910   0.126   2.209   0.398 -0.1228 -0.8073  0.6549
  228SOL    HW3  911   0.032   2.327   0.409  0.6297 -0.1674  0.2257
  228SOL    MW4  912   0.054   2.251   0.373  0.2825 -0.3099  0.3171
  229SOL     OW  913   4.353   2.042   0.429  0.3533  0.1160 -0.2284
  229SOL    HW2  914   4.270   2.077   0.398  0.4487  1.7195  1.2749
  229SOL    HW3  915   4.418   2.106   0.401  0.9754 -0.6825 -0.6178
  229SOL    MW4  916   4.351   2.055   0.421  0.4480  0.2222 -0.0814
  230SOL     OW  917   4.268   2.628   0.377 -0.4178 -0.2145 -0.1152
  230SOL    HW2  918   4.252   2.605   0.286  1.6381 -0.5711 -0.4112
  230SOL    HW3  919   4.227   2.557   0.427 -0.7936 -0.4699 -0.7799
  230SOL    MW4  920   4.260   2.616   0.372 -0.1961 -0.2953 -0.2420
  231SOL     OW  921   3.595   2.949   0.386  0.4753  0.3758  0.0977
  231SOL    HW2  922   3.518   2.909   0.427  0.1792 -0.0970 -0.9047
  231SOL    HW3  923   3.563   2.980   0.301  0.8979  2.0195  0.5205
  231SOL    MW4  924   3.580   2.948   0.381  0.4920  0.5303  0.0213
  232SOL     OW  925   4.096   2.141   0.368  0.2505  0.1057  0.2426
  232SOL    HW2  926   4.019   2.089   0.391  1.0140 -0.8248  0.7322
  232SOL    HW3  927   4.079   2.227   0.406 -0.1115 -0.3817  1.1942
  232SOL    MW4  928   4.084   2.145   0.376  0.3035 -0.0814  0.4327
  233SOL     OW  929   0.036   3.279   0.477 -0.0182 -0.1106  0.0225
  233SOL    HW2  930  -0.043   3.321   0.512  0.7785  0.5175  1.1335
  233SOL    HW3  931   0.104   3.347   0.485  0.4580 -0.3863 -1.6300
  233SOL    MW4  932   0.035   3.294   0.483  0.1498 -0.0641 -0.0489
  234SOL     OW  933   4.023   3.414   0.388  0.0854  0.3664  0.1464
  234SOL    HW2  934   4.069   3.450   0.312  0.3821  0.2319  0.2605
  234SOL    HW3  935   3.949   3.472   0.401 -0.2569  0.0953 -0.5600
  234SOL    MW4  936   4.020   3.426   0.380  0.0794  0.3129  0.0682
  235SOL     OW  937   0.063   2.519   0.467 -0.3016  0.3880 -0.2476
  235SOL    HW2  938  -0.009   2.576   0.442 -1.0304  0.3327  1.6453
  235SOL    HW3  939   0.041   2.490   0.556  1.0774 -1.1821 -0.3983
  235SOL    MW4  940   0.050   2.523   0.476 -0.2158  0.1735 -0.0177
  236SOL     OW  941   3.603   3.708   0.451 -0.1066 -0.3477 -0.1848
  236SOL    HW2  942   3.524   3.654   0.442 -0.6869  0.7500 -1.9844
  236SOL    HW3  943   3.571   3.797   0.464  0.8530 -0.1517  1.0156
  236SOL    MW4  944   3.589   3.713   0.451 -0.0566 -0.1770 -0.2638
  237SOL     OW  945   3.970   2.870   0.521 -0.1526 -0.2327 -0.0572
  237SOL    HW2  946   4.063   2.868   0.499  0.2096 -1.3599  1.5072
  237SOL    HW3  947   3.943   2.960   0.502  1.4596  0.3343  0.2893
  237SOL    MW4  948   3.979   2.882   0.515  0.1079 -0.3066  0.1950
  238SOL     OW  949   4.279   3.743   0.454  0.0712  0.0430 -0.1749
  238SOL    HW2  950   4.349   3.808   0.463  0.6993 -0.6736  0.2609
  238SOL    HW3  951   4.199   3.794   0.446  0.7166  0.8894 -1.2708
  238SOL    MW4  952   4.278   3.758   0.454  0.2392  0.0601 -0.2620
  239SOL     OW  953   4.015   3.861   0.475  0.0425 -0.2739 -0.4398
  239SOL    HW2  954   3.967   3.778   0.473 -0.5802  0.0970 -0.9258
  239SOL    HW3  955   3.967   3.918   0.415  0.6354  0.3494 -0.3233
  239SOL    MW4  956   4.002   3.857   0.467  0.0386 -0.1428 -0.4885
  240SOL     OW  957   3.572   3.989   0.496 -0.9105 -0.2844 -0.1489
  240SOL    HW2  958   3.499   4.041   0.463 -1.4318 -0.8448  0.1136
  240SOL    HW3  959   3.645   4.011   0.438 -1.3984 -0.0450 -0.6795
  240SOL    MW4  960   3.572   3.999   0.484 -1.0436 -0.3268 -0.1843
  241SOL     OW  961   3.772   4.463   0.269 -0.1770  0.0877  0.1373
  241SOL    HW2  962   3.759   4.398   0.199  0.2506  0.8498 -0.6456
  241SOL    HW3  963   3.695   4.452   0.326 -0.7285 -0.2486 -0.6703
  241SOL    MW4  964   3.760   4.453   0.268 -0.1934  0.1439 -0.0725
  242SOL     OW  965   0.239   4.619   0.850  0.4050 -0.3137 -0.2261
  242SOL    HW2  966   0.218   4.532   0.817 -0.7116 -0.5294  1.0456
  242SOL    HW3  967   0.165   4.673   0.823  0.2534 -0.1452  0.5420
  242SOL    MW4  968   0.227   4.615   0.842  0.2377 -0.3200  0.0431
  243SOL     OW  969   4.491   0.087   0.784 -0.2252 -0.1599 -0.1947
  243SOL    HW2  970   4.414   0.050   0.829 -0.4797  2.7399  1.9242
  243SOL    HW3  971   4.488   0.180   0.806  2.5866  0.4149 -2.0896
  243SOL    MW4  972   4.480   0.094   0.793  0.1122  0.2985 -0.1651
  244SOL     OW  973   0.046   0.352   0.872  0.1842  0.3340 -0.2929
  244SOL    HW2  974   0.036   0.372   0.965  2.0463 -1.3283  0.3166
  244SOL    HW3  975   0.130   0.391   0.848  0.7505 -1.0877 -0.7034
  244SOL    MW4  976   0.056   0.360   0.881  0.5046 -0.0729 -0.2666
  245SOL     OW  977   0.286   0.483   0.770 -0.0938  0.2110  0.1804
  245SOL    HW2  978   0.362   0.451   0.818 -0.1860  0.8938  0.7886
  245SOL    HW3  979   0.267   0.568   0.810 -0.3461  0.6569 -0.8672
  245SOL    MW4  980   0.294   0.490   0.781 -0.1393  0.3600  0.1224
  246SOL     OW  981   0.236   0.718   0.904 -0.1970  0.4835  0.6114
  246SOL    HW2  982   0.242   0.733   0.998  0.1417 -0.1400  0.6970
  246SOL    HW3  983   0.166   0.776   0.874  0.3918  1.4430  1.0772
  246SOL    MW4  984   0.228   0.727   0.912 -0.0747  0.5278  0.6841
  247SOL     OW  985   0.036   0.884   0.818 -0.2204  0.2282  0.4002
  247SOL    HW2  986  -0.048   0.844   0.837  0.8786 -1.4393  1.9173
  247SOL    HW3  987   0.048   0.871   0.723 -0.4491 -1.9695  0.6497
  247SOL    MW4  988   0.027   0.877   0.808 -0.1056 -0.2818  0.6333
  248SOL     OW  989   0.053   1.163   0.876  0.2211 -0.3646 -0.1137
  248SOL    HW2  990   0.065   1.174   0.970 -1.1356  0.0206  0.0284
  248SOL    HW3  991   0.044   1.068   0.863 -0.1956 -0.3718  0.2259
  248SOL    MW4  992   0.053   1.152   0.886 -0.0129 -0.3148 -0.0502
  249SOL     OW  993   0.279   1.304   0.774  0.1953 -0.2557  0.1881
  249SOL    HW2  994   0.203   1.267   0.820 -0.3354 -0.2546 -0.6686
  249SOL    HW3  995   0.253   1.303   0.682  0.3370  1.8566  0.1035
  249SOL    MW4  996   0.266   1.299   0.768  0.1440  0.0232  0.0639
  250SOL     OW  997   0.256   1.549   0.887 -0.2259  0.4541  0.2518
  250SOL    HW2  998   0.338   1.591   0.860  1.0090 -1.3915  0.9993
  250SOL    HW3  999   0.260   1.461   0.848 -1.8351  0.3325  0.3344
  250SOL    MW4 1000   0.267   1.543   0.878 -0.2753  0.1945  0.3613
  251SOL     OW 1001   0.038   1.687   0.752  0.2373 -0.6223  0.0350
  251SOL    HW2 1002  -0.042   1.652   0.791 -0.4130 -0.1683 -0.8848
  251SOL    HW3 1003   0.108   1.632   0.789 -0.4922 -1.0509  0.8037
  251SOL    MW4 1004   0.037   1.675   0.762  0.0553 -0.6189  0.0151
  252SOL     OW 1005   0.015   1.941   0.846  0.0455 -0.3578  0.6332
  252SOL    HW2 1006   0.098   1.977   0.816 -1.1939 -0.0440 -2.5216
  252SOL    HW3 1007   0.013   1.852   0.810 -1.0845 -0.3059  0.5602
  252SOL    MW4 1008   0.026   1.934   0.837 -0.2671 -0.3095  0.2074
  253SOL     OW 1009   0.241   2.060   0.728  0.3088 -0.1744  0.0317
  253SOL    HW2 1010   0.256   2.149   0.760 -0.7296 -0.2690  0.7917
  253SOL    HW3 1011   0.267   2.064   0.636 -0.6068  1.1622 -0.1926
  253SOL    MW4 1012   0.246   2.073   0.720  0.0510 -0.0105  0.1024
  254SOL     OW 1013   0.257   2.346   0.824  0.2319  0.0218 -0.2604
  254SOL    HW2 1014   0.237   2.336   0.917  0.0972  0.7977 -0.2073
  254SOL    HW3 1015   0.350   2.370   0.822  0.0606  0.6600 -0.2997
  254SOL    MW4 1016   0.267   2.348   0.836  0.1915  0.2084 -0.2586
  255SOL     OW 1017   0.013   2.448   0.728 -0.0635  0.1132  0.1829
  255SOL    HW2 1018  -0.060   2.392   0.752  0.0666  0.5544  1.6735
  255SOL    HW3 1019   0.090   2.402   0.760  0.2455  0.0561 -0.6263
  255SOL    MW4 1020   0.014   2.435   0.736 -0.0055  0.1639  0.2728
  256SOL     OW 1021   0.035   2.721   0.814  0.5174  0.5803  0.2083
  256SOL    HW2 1022   0.030   2.717   0.910 -1.8371  1.5381  0.1683
  256SOL    HW3 1023   0.036   2.630   0.786  1.7543  0.2960  1.1696
  256SOL    MW4 1024   0.034   2.709   0.823  0.3699  0.6692  0.3299
  257SOL     OW 1025   0.272   2.844   0.751 -0.2686 -0.7235 -0.0938
  257SOL    HW2 1026   0.195   2.791   0.770 -1.3494  1.4536  1.7373
  257SOL    HW3 1027   0.258   2.877   0.663 -1.6650  0.0456  0.4098
  257SOL    MW4 1028   0.260   2.841   0.742 -0.5954 -0.3348  0.2143
  258SOL     OW 1029   0.247   3.090   0.877  0.1566  0.0534 -0.1875
  258SOL    HW2 1030   0.245   3.094   0.973 -1.3611  0.9441 -0.2417
  258SOL    HW3 1031   0.253   2.996   0.858 -0.7566 -0.2157  0.7744
  258SOL    MW4 1032   0.247   3.078   0.887 -0.1641  0.1354 -0.0678
  259SOL     OW 1033   0.046   3.229   0.763  0.1743 -0.4532 -0.2707
  259SOL    HW2 1034   0.109   3.170   0.805  2.6961  1.3625 -1.4008
  259SOL    HW3 1035   0.063   3.220   0.670 -0.5853  0.8363 -0.5438
  259SOL    MW4 1036   0.056   3.220   0.757  0.4068 -0.0435 -0.4558
  260SOL     OW 1037   0.042   3.474   0.900 -0.1389 -0.1534 -0.5354
  260SOL    HW2 1038  -0.034   3.525   0.874 -0.9376 -0.5039  1.0399
  260SOL    HW3 1039   0.027   3.387   0.863  0.0527  0.0859 -1.1825
  260SOL    MW4 1040   0.030   3.469   0.892 -0.2190 -0.1680 -0.4129
  261SOL     OW 1041   0.257   3.550   0.754  0.0274  0.6121  0.1068
  261SOL    HW2 1042   0.171   3.524   0.788 -0.9235  2.2654 -0.9741
  261SOL    HW3 1043   0.250   3.538   0.660  0.8658  1.0876 -0.0225
  261SOL    MW4 1044   0.245   3.545   0.746  0.0125  0.8930 -0.0529
  262SOL     OW 1045   0.300   3.815   0.843 -0.2297 -0.2930 -0.2717
  262SOL    HW2 1046   0.278   3.809   0.936  0.7164  0.5521  0.0102
  262SOL    HW3 1047   0.292   3.725   0.812 -1.8970 -0.3657  0.3041
  262SOL    MW4 1048   0.296   3.802   0.852 -0.3248 -0.1911 -0.1585
  263SOL     OW 1049   0.043   3.936   0.750 -0.5260 -0.0052  0.5294
  263SOL    HW2 1050  -0.033   3.891   0.787  0.2012 -0.3858  1.6147
  263SOL    HW3 1051   0.118   3.895   0.794  0.2981  0.4328 -0.4462
  263SOL    MW4 1052   0.043   3.924   0.761 -0.3213  0.0024  0.5439
  264SOL     OW 1053   0.008   4.225   0.816 -0.1870 -0.3387 -0.0545
  264SOL    HW2 1054  -0.005   4.224   0.911  1.1516 -1.6245  0.1391
  264SOL    HW3 1055   0.020   4.133   0.793 -0.8968 -0.0708 -1.5308
  264SOL    MW4 1056   0.008   4.213   0.826 -0.1041 -0.4730 -0.2238
  265SOL     OW 1057   0.232   4.372   0.723 -0.5367 -0.3056 -0.0816
  265SOL    HW2 1058   0.152   4.328   0.751 -0.4635 -1.3501 -1.4241
  265SOL    HW3 1059   0.217   4.393   0.631  0.2241  0.6705  0.0117
  265SOL    MW4 1060   0.220   4.369   0.714 -0.4267 -0.3147 -0.2464
  266SOL     OW 1061   0.653   4.664   0.833 -0.3310  0.0280 -0.1619
  266SOL    HW2 1062   0.642   4.651   0.928 -0.5373  0.4108 -0.1338
  266SOL    HW3 1063   0.583   4.724   0.809 -0.6922 -0.5984 -0.6793
  266SOL    MW4 1064   0.642   4.670   0.843 -0.4059 -0.0041 -0.2265
  267SOL     OW 1065   0.430   0.139   0.758 -0.5222  0.0598  0.4626
  267SOL    HW2 1066   0.370   0.070   0.787  0.7925 -0.9067  0.9890
  267SOL    HW3 1067   0.410   0.151   0.666 -1.4455 -0.3295  0.6051
  267SOL    MW4 1068   0.419   0.131   0.750 -0.4706 -0.1191  0.5508
  268SOL     OW 1069   0.493   0.358   0.914  0.4527 -0.3565 -0.2527
  268SOL    HW2 1070   0.563   0.396   0.860 -0.3866  0.4055 -0.8204
  268SOL    HW3 1071   0.458   0.286   0.861 -1.2257  1.1929 -1.3184
  268SOL    MW4 1072   0.498   0.353   0.900  0.1205 -0.0515 -0.4682
  269SOL     OW 1073   0.706   0.507   0.796 -0.7716 -0.0282  0.3786
  269SOL    HW2 1074   0.785   0.459   0.821 -0.3050  0.5776  0.0992
  269SOL    HW3 1075   0.704   0.503   0.701 -1.1527 -0.1678  0.3955
  269SOL    MW4 1076   0.716   0.500   0.787 -0.7604  0.0333  0.3440
  270SOL     OW 1077   0.705   0.785   0.879  0.2136  0.3352  0.3869
  270SOL    HW2 1078   0.613   0.810   0.876 -0.1757 -1.0644  0.2832
  270SOL    HW3 1079   0.707   0.697   0.841  1.8574  1.0693 -1.2784
  270SOL    MW4 1080   0.693   0.776   0.874  0.3791  0.2474  0.1535
  271SOL     OW 1081   0.450   0.877   0.843  0.5565 -0.4008  0.1370
  271SOL    HW2 1082   0.362   0.844   0.860 -0.0992  0.2827 -1.8072
  271SOL    HW3 1083   0.448   0.967   0.873 -0.1289  0.3190 -1.9470
  271SOL    MW4 1084   0.438   0.884   0.849  0.3795 -0.2157 -0.3944
  272SOL     OW 1085   0.477   1.144   0.904 -0.4700  0.2689 -0.1439
  272SOL    HW2 1086   0.554   1.157   0.849 -0.6688  0.8751 -0.2831
  272SOL    HW3 1087   0.415   1.210   0.874 -0.2158  1.2702  1.4414
  272SOL    MW4 1088   0.479   1.155   0.893 -0.4627  0.4810  0.0469
  273SOL     OW 1089   0.679   1.240   0.729 -0.2026  0.1001  0.2570
  273SOL    HW2 1090   0.659   1.328   0.761 -1.0097  0.5596 -1.4216
  273SOL    HW3 1091   0.671   1.247   0.634 -0.5041 -1.8528  0.1193
  273SOL    MW4 1092   0.675   1.252   0.721 -0.3489 -0.0969  0.0174
  274SOL     OW 1093   0.651   1.482   0.892 -0.1195  0.0222 -0.1645
  274SOL    HW2 1094   0.663   1.516   0.980  0.0243  0.9419 -0.5348
  274SOL    HW3 1095   0.590   1.542   0.851 -2.4103 -1.9782  0.1883
  274SOL    MW4 1096   0.645   1.494   0.898 -0.4028 -0.1204 -0.1668
  275SOL     OW 1097   0.491   1.666   0.779  0.3739 -0.0348 -0.0689
  275SOL    HW2 1098   0.482   1.748   0.828  0.2230  0.2539 -0.5764
  275SOL    HW3 1099   0.448   1.684   0.695 -1.0703 -1.1400  0.4226
  275SOL    MW4 1100   0.484   1.680   0.774  0.1634 -0.1426 -0.0710
  276SOL     OW 1101   0.426   1.933   0.881 -0.1703  0.5569  0.3317
  276SOL    HW2 1102   0.400   1.947   0.972 -0.1971  1.1656  0.2342
  276SOL    HW3 1103   0.364   1.985   0.830  0.5521  1.1392  0.0337
  276SOL    MW4 1104   0.414   1.942   0.887 -0.0786  0.7140  0.2795
  277SOL     OW 1105   0.656   2.025   0.758  0.2593 -0.2405 -0.1608
  277SOL    HW2 1106   0.577   1.988   0.797  0.0956 -1.0780 -1.2716
  277SOL    HW3 1107   0.651   2.000   0.666  0.2375  2.3587 -0.9230
  277SOL    MW4 1108   0.645   2.017   0.751  0.2348 -0.0081 -0.4079
  278SOL     OW 1109   0.729   2.281   0.836  0.7366  0.6428 -0.0569
  278SOL    HW2 1110   0.722   2.277   0.932 -2.3306 -0.0648 -0.2697
  278SOL    HW3 1111   0.713   2.191   0.808  2.2851  0.7172 -1.2399
  278SOL    MW4 1112   0.726   2.269   0.845  0.5363  0.5592 -0.2410
  279SOL     OW 1113   0.517   2.436   0.770 -0.1620  0.2409  0.1520
  279SOL    HW2 1114   0.581   2.381   0.816 -0.0957 -0.3032 -0.5871
  279SOL    HW3 1115   0.501   2.390   0.688 -1.0435  0.6969  0.0716
  279SOL    MW4 1116   0.524   2.423   0.765 -0.2695  0.2293  0.0439
  280SOL     OW 1117   0.491   2.700   0.858 -0.0039 -0.2353 -0.2110
  280SOL    HW2 1118   0.470   2.610   0.834 -1.8207 -0.1578  0.9722
  280SOL    HW3 1119   0.420   2.752   0.819  0.0086  0.4637  0.6871
  280SOL    MW4 1120   0.478   2.695   0.850 -0.2420 -0.1329  0.0636
  281SOL     OW 1121   0.700   2.872   0.798 -0.1619 -0.1504  0.2939
  281SOL    HW2 1122   0.780   2.821   0.806 -0.3473 -0.5022 -0.0603
  281SOL    HW3 1123   0.631   2.812   0.827 -0.5752 -0.6529 -1.6596
  281SOL    MW4 1124   0.701   2.857   0.803 -0.2409 -0.2631 -0.0106
  282SOL     OW 1125   0.661   3.131   0.913  0.0953 -0.0530 -0.0132
  282SOL    HW2 1126   0.605   3.164   0.843  1.5674  0.9056 -0.7602
  282SOL    HW3 1127   0.688   3.044   0.883  0.8587  0.4249 -0.7259
  282SOL    MW4 1128   0.657   3.123   0.900  0.3903  0.1365 -0.2058
  283SOL     OW 1129   0.463   3.226   0.741 -0.0861  0.1105  0.3067
  283SOL    HW2 1130   0.477   3.316   0.771 -0.7792  1.1146 -2.2443
  283SOL    HW3 1131   0.376   3.203   0.774 -1.0729  1.3972 -1.3104
  283SOL    MW4 1132   0.453   3.235   0.749 -0.3077  0.4127 -0.2432
  284SOL     OW 1133   0.516   3.486   0.859  0.2867 -0.1131 -0.2248
  284SOL    HW2 1134   0.506   3.498   0.953  0.2202  0.4231 -0.2979
  284SOL    HW3 1135   0.431   3.511   0.822  0.7008  0.8869 -0.5289
  284SOL    MW4 1136   0.504   3.491   0.866  0.3325  0.0896 -0.2745
  285SOL     OW 1137   0.712   3.645   0.726  0.2820 -0.1717  0.1580
  285SOL    HW2 1138   0.638   3.588   0.748 -1.5129  1.3258 -1.7074
  285SOL    HW3 1139   0.706   3.718   0.788  1.4658 -1.0513  1.3387
  285SOL    MW4 1140   0.701   3.647   0.737  0.2013 -0.0902  0.0677
  286SOL     OW 1141   0.730   3.891   0.863 -0.7319 -0.1201  0.5660
  286SOL    HW2 1142   0.807   3.942   0.837 -0.7908 -0.5260 -0.4071
  286SOL    HW3 1143   0.657   3.935   0.820 -1.0360  0.1877  1.3893
  286SOL    MW4 1144   0.731   3.904   0.854 -0.7798 -0.1330  0.5463
  287SOL     OW 1145   0.505   4.011   0.727  0.0643 -0.0412 -0.2421
  287SOL    HW2 1146   0.493   4.103   0.750 -2.3905  0.1072 -1.8747
  287SOL    HW3 1147   0.449   3.963   0.787  1.4759 -0.4975  0.7209
  287SOL    MW4 1148   0.496   4.017   0.738 -0.0734 -0.0818 -0.3304
  288SOL     OW 1149   0.468   4.277   0.833 -0.1192 -0.4295  0.0395
  288SOL    HW2 1150   0.445   4.257   0.924 -0.6363 -1.7358 -0.3699
  288SOL    HW3 1151   0.386   4.308   0.794  0.3465  1.1926  0.2841
  288SOL    MW4 1152   0.454   4.279   0.840 -0.1260 -0.3879  0.0177
  289SOL     OW 1153   0.697   4.378   0.721 -0.7690 -0.2176  0.3943
  289SOL    HW2 1154   0.628   4.331   0.768 -0.6921  0.5411  1.2772
  289SOL    HW3 1155   0.692   4.468   0.755  0.5616 -0.1183  0.3556
  289SOL    MW4 1156   0.687   4.384   0.731 -0.5833 -0.1044  0.5057
  290SOL     OW 1157   1.131   4.654   0.813 -0.5230 -0.3408  0.1907
  290SOL    HW2 1158   1.206   4.706   0.782 -0.4851 -0.2057  0.5094
  290SOL    HW3 1159   1.055   4.693   0.770 -0.3432 -0.8672 -0.6191
  290SOL    MW4 1160   1.131   4.666   0.803 -0.4943 -0.3925  0.1259
  291SOL     OW 1161   0.894   0.105   0.721 -0.6967  0.4651  0.1811
  291SOL    HW2 1162   0.896   0.186   0.771 -0.5107  1.2708 -1.1027
  291SOL    HW3 1163   0.822   0.054   0.759 -0.2954  0.8792  1.5093
  291SOL    MW4 1164   0.884   0.109   0.732 -0.6192  0.6260  0.1870
  292SOL     OW 1165   0.908   0.347   0.874  0.6764  0.0903  0.1500
  292SOL    HW2 1166   0.913   0.359   0.968  0.7972  0.2320  0.1258
  292SOL    HW3 1167   0.981   0.398   0.839 -0.8070  2.0261 -0.1885
  292SOL    MW4 1168   0.918   0.355   0.882  0.4966  0.3644  0.1022
  293SOL     OW 1169   1.115   0.514   0.742 -0.2602 -0.2708 -0.0512
  293SOL    HW2 1170   1.194   0.484   0.787 -0.3868 -1.5724 -0.6758
  293SOL    HW3 1171   1.109   0.459   0.664 -1.9396 -0.3918  0.1395
  293SOL    MW4 1172   1.124   0.503   0.738 -0.4985 -0.4585 -0.1084
  294SOL     OW 1173   1.105   0.783   0.842  0.0100  0.2442 -0.1919
  294SOL    HW2 1174   1.109   0.788   0.937  1.2570  1.2449 -0.2856
  294SOL    HW3 1175   1.106   0.689   0.822  1.2701  0.0583  0.7175
  294SOL    MW4 1176   1.106   0.771   0.852  0.3408  0.3517 -0.0843
  295SOL     OW 1177   0.889   0.928   0.731 -0.3683  0.4829 -0.2558
  295SOL    HW2 1178   0.965   0.876   0.759 -0.7218 -0.5938 -1.2291
  295SOL    HW3 1179   0.814   0.885   0.773 -0.4747  1.4216  0.5379
  295SOL    MW4 1180   0.889   0.915   0.740 -0.4290  0.4647 -0.2795
  296SOL     OW 1181   0.950   1.179   0.855 -0.0206  0.3386 -0.0307
  296SOL    HW2 1182   0.946   1.084   0.842 -0.1038  0.5145 -1.3922
  296SOL    HW3 1183   0.870   1.212   0.815 -1.0114  0.8153  2.2760
  296SOL    MW4 1184   0.939   1.171   0.848 -0.1623  0.4247  0.0940
  297SOL     OW 1185   1.165   1.318   0.748 -0.1887 -0.5158  0.2167
  297SOL    HW2 1186   1.083   1.283   0.783 -0.4970  1.7547  1.9019
  297SOL    HW3 1187   1.153   1.319   0.653 -2.1545 -0.1063  0.4556
  297SOL    MW4 1188   1.153   1.313   0.740 -0.4887 -0.1622  0.4706
  298SOL     OW 1189   1.123   1.577   0.815 -0.2700  0.1290  0.0968
  298SOL    HW2 1190   1.029   1.591   0.803 -0.6104  0.0217  2.4370
  298SOL    HW3 1191   1.136   1.484   0.799 -0.5183  0.1863 -0.4542
  298SOL    MW4 1192   1.112   1.567   0.811 -0.3477  0.1224  0.3329
  299SOL     OW 1193   0.866   1.618   0.741 -0.0993  0.1518  0.0327
  299SOL    HW2 1194   0.869   1.710   0.766  0.7401  0.2732 -0.4812
  299SOL    HW3 1195   0.793   1.581   0.791  0.9095  0.6119  1.8637
  299SOL    MW4 1196   0.857   1.625   0.751  0.1445  0.2285  0.2065
  300SOL     OW 1197   0.893   1.878   0.830 -0.0426  0.6370  0.1491
  300SOL    HW2 1198   0.899   1.882   0.925 -0.1746  0.1234  0.1760
  300SOL    HW3 1199   0.810   1.920   0.809 -0.4443 -0.0748  0.3162
  300SOL    MW4 1200   0.883   1.884   0.840 -0.1130  0.4753  0.1747
  301SOL     OW 1201   1.114   1.998   0.722 -0.0044  0.0009  0.1437
  301SOL    HW2 1202   1.126   2.088   0.752 -0.8742  0.2696 -0.2853
  301SOL    HW3 1203   1.038   1.967   0.771  0.5676 -0.6551  0.6216
  301SOL    MW4 1204   1.106   2.006   0.733 -0.0437 -0.0502  0.1501
  302SOL     OW 1205   1.157   2.259   0.820  0.6828  0.0398  0.2038
  302SOL    HW2 1206   1.149   2.298   0.907  0.7719  1.8550 -0.5653
  302SOL    HW3 1207   1.245   2.284   0.790 -0.2442  1.5450 -1.3714
  302SOL    MW4 1208   1.168   2.267   0.827  0.5722  0.4779 -0.1055
  303SOL     OW 1209   0.927   2.413   0.716 -0.7569 -0.0847 -0.1912
  303SOL    HW2 1210   1.012   2.374   0.734 -0.7774 -0.9391 -1.8830
  303SOL    HW3 1211   0.865   2.362   0.768 -0.7885 -2.3898 -2.4156
  303SOL    MW4 1212   0.930   2.401   0.726 -0.7638 -0.5016 -0.7079
  304SOL     OW 1213   0.917   2.709   0.833 -0.1905 -0.6614 -0.4415
  304SOL    HW2 1214   0.918   2.698   0.928 -1.3645 -0.7983 -0.4370
  304SOL    HW3 1215   0.918   2.619   0.799  2.5272 -0.6022 -0.6098
  304SOL    MW4 1216   0.917   2.696   0.841  0.0132 -0.6717 -0.4631
  305SOL     OW 1217   1.146   2.841   0.740 -0.1420  0.1685  0.0970
  305SOL    HW2 1218   1.071   2.784   0.758 -1.2616  1.6825  0.3073
  305SOL    HW3 1219   1.185   2.804   0.661 -0.2903 -1.4319  0.7431
  305SOL    MW4 1220   1.141   2.829   0.732 -0.3093  0.1571  0.2100
  306SOL     OW 1221   1.077   3.082   0.878  0.0460  0.1542  0.1321
  306SOL    HW2 1222   0.998   3.125   0.845  0.7159  1.0350 -0.3249
  306SOL    HW3 1223   1.094   3.012   0.815 -0.2462  0.0917  0.1186
  306SOL    MW4 1224   1.069   3.079   0.866  0.0959  0.2622  0.0700
  307SOL     OW 1225   0.877   3.217   0.758 -0.0720 -0.3004  0.2081
  307SOL    HW2 1226   0.901   3.309   0.766 -0.1970 -0.2733  0.2650
  307SOL    HW3 1227   0.806   3.205   0.822 -1.4677  0.0439 -1.2467
  307SOL    MW4 1228   0.871   3.228   0.768 -0.2726 -0.2514  0.0236
  308SOL     OW 1229   0.925   3.490   0.808 -0.1525 -0.2244 -0.4523
  308SOL    HW2 1230   1.000   3.544   0.783 -0.4298  0.9451  1.0999
  308SOL    HW3 1231   0.851   3.532   0.765 -0.4388  0.9958  1.1393
  308SOL    MW4 1232   0.925   3.503   0.799 -0.2269  0.0909 -0.0375
  309SOL     OW 1233   1.152   3.645   0.758 -0.5661 -0.0602 -0.2243
  309SOL    HW2 1234   1.212   3.586   0.804 -1.4423 -0.6207  0.2317
  309SOL    HW3 1235   1.184   3.647   0.668  1.1182  0.9724  0.3749
  309SOL    MW4 1236   1.164   3.637   0.752 -0.4595  0.0021 -0.0851
  310SOL     OW 1237   1.126   3.893   0.851 -0.1638 -0.0484 -0.3601
  310SOL    HW2 1238   1.120   3.887   0.947 -1.4317 -1.7682 -0.5430
  310SOL    HW3 1239   1.119   3.803   0.820  0.0863  0.5069 -2.0962
  310SOL    MW4 1240   1.125   3.881   0.860 -0.2981 -0.2020 -0.6133
  311SOL     OW 1241   0.936   4.042   0.738 -0.1045  0.2528  0.1145
  311SOL    HW2 1242   0.954   4.124   0.784 -0.4587  0.3364  0.1091
  311SOL    HW3 1243   0.998   3.979   0.774 -1.5437 -0.1388  2.0034
  311SOL    MW4 1244   0.946   4.044   0.749 -0.3411  0.2122  0.3630
  312SOL     OW 1245   0.925   4.294   0.857 -0.5080  0.2912 -0.0151
  312SOL    HW2 1246   1.002   4.327   0.810 -0.9718 -0.2122 -1.1268
  312SOL    HW3 1247   0.850   4.323   0.805 -1.0872  0.8218  1.0924
  312SOL    MW4 1248   0.926   4.303   0.844 -0.6456  0.2948 -0.0156
  313SOL     OW 1249   1.145   4.396   0.708  0.4366 -0.2442 -0.0376
  313SOL    HW2 1250   1.226   4.360   0.745  0.0470  0.0551  1.1277
  313SOL    HW3 1251   1.145   4.487   0.737  0.5599  0.2547 -1.5298
  313SOL    MW4 1252   1.156   4.404   0.716  0.4015 -0.1389 -0.0808
  314SOL     OW 1253   1.528   4.620   0.825 -1.2405  0.0042  0.3157
  314SOL    HW2 1254   1.518   4.642   0.917 -0.3724  2.1950 -0.0970
  314SOL    HW3 1255   1.466   4.677   0.779  0.6668  1.2883 -0.7272
  314SOL    MW4 1256   1.519   4.630   0.831 -0.8743  0.4627  0.1236
  315SOL     OW 1257   1.344   0.142   0.737  0.3577  0.2948  0.3983
  315SOL    HW2 1258   1.351   0.232   0.770  1.3477  0.1983  0.4887
  315SOL    HW3 1259   1.346   0.152   0.642 -1.0467  0.4720  0.3842
  315SOL    MW4 1260   1.345   0.155   0.729  0.3030  0.3055  0.4084
  316SOL     OW 1261   1.361   0.393   0.851 -0.1942  0.1382  0.2321
  316SOL    HW2 1262   1.371   0.391   0.946  0.5715  0.7732  0.1674
  316SOL    HW3 1263   1.439   0.438   0.819 -1.1651  1.2487 -0.6005
  316SOL    MW4 1264   1.372   0.399   0.859 -0.2213  0.3685  0.1137
  317SOL     OW 1265   1.577   0.493   0.715  0.2510 -0.0766  0.0383
  317SOL    HW2 1266   1.591   0.581   0.751  1.3366 -0.9917  1.8862
  317SOL    HW3 1267   1.649   0.441   0.749 -0.5463 -1.7784 -0.8030
  317SOL    MW4 1268   1.588   0.498   0.724  0.2890 -0.4219  0.1711
  318SOL     OW 1269   1.591   0.753   0.801 -0.1376  0.4932 -0.0461
  318SOL    HW2 1270   1.658   0.800   0.751 -0.2188  1.7739  1.0110
  318SOL    HW3 1271   1.510   0.800   0.782 -0.5005 -0.2033 -0.2323
  318SOL    MW4 1272   1.589   0.766   0.792 -0.1962  0.5703  0.0688
  319SOL     OW 1273   1.341   0.915   0.733  0.6037  0.7560 -0.0359
  319SOL    HW2 1274   1.346   1.002   0.771  0.1059  0.6899  0.1788
  319SOL    HW3 1275   1.254   0.883   0.756  0.7494  0.2380 -0.1892
  319SOL    MW4 1276   1.330   0.922   0.741  0.5572  0.6789 -0.0278
  320SOL     OW 1277   1.366   1.157   0.852 -0.3907  0.0051  0.1782
  320SOL    HW2 1278   1.443   1.198   0.811 -0.5453 -1.9206 -2.1509
  320SOL    HW3 1279   1.292   1.211   0.824 -0.3623 -0.6648 -1.2519
  320SOL    MW4 1280   1.366   1.170   0.843 -0.4074 -0.3373 -0.3178
  321SOL     OW 1281   1.590   1.276   0.745  0.3656  0.5899  0.0688
  321SOL    HW2 1282   1.591   1.370   0.762  1.9292  0.5506  0.2693
  321SOL    HW3 1283   1.570   1.269   0.651 -0.3696  1.0947  0.1882
  321SOL    MW4 1284   1.588   1.288   0.735  0.4749  0.6513  0.1110
  322SOL     OW 1285   1.607   1.551   0.829 -0.1082 -0.1859  0.2053
  322SOL    HW2 1286   1.586   1.558   0.922 -0.2653  1.6769  0.0508
  322SOL    HW3 1287   1.529   1.583   0.784  0.1127 -0.7087 -0.5651
  322SOL    MW4 1288   1.594   1.556   0.835 -0.0998 -0.0091  0.0833
  323SOL     OW 1289   1.372   1.651   0.741 -0.2639  0.0669 -0.2163
  323SOL    HW2 1290   1.385   1.742   0.768  0.5081  0.3915 -1.6385
  323SOL    HW3 1291   1.285   1.629   0.774 -0.8679  1.6350 -0.7171
  323SOL    MW4 1292   1.362   1.660   0.749 -0.2417  0.3166 -0.4700
  324SOL     OW 1293   1.373   1.925   0.855 -0.1518  0.0027  0.0315
  324SOL    HW2 1294   1.357   1.919   0.949 -2.2029 -1.5165 -0.3988
  324SOL    HW3 1295   1.287   1.943   0.817  0.4268 -0.7477 -1.6769
  324SOL    MW4 1296   1.360   1.927   0.862 -0.3461 -0.2968 -0.2507
  325SOL     OW 1297   1.563   2.092   0.718 -0.3506 -0.0252  0.2673
  325SOL    HW2 1298   1.478   2.059   0.746 -0.1286 -2.4890 -1.7515
  325SOL    HW3 1299   1.557   2.096   0.622  0.8705  2.4678  0.2563
  325SOL    MW4 1300   1.551   2.088   0.709 -0.1602 -0.0213 -0.0005
  326SOL     OW 1301   1.657   2.335   0.822 -0.1243 -0.1885 -0.0821
  326SOL    HW2 1302   1.578   2.385   0.806  0.3178  0.3725 -0.5416
  326SOL    HW3 1303   1.641   2.250   0.781 -1.6056 -1.1060  2.3026
  326SOL    MW4 1304   1.645   2.330   0.814 -0.2615 -0.2355  0.1719
  327SOL     OW 1305   1.417   2.425   0.769  0.4476 -0.0461 -0.2432
  327SOL    HW2 1306   1.410   2.518   0.792  0.3331 -0.4913  1.6683
  327SOL    HW3 1307   1.391   2.421   0.677  0.9515  1.8790 -0.5033
  327SOL    MW4 1308   1.412   2.437   0.760  0.4990  0.1491 -0.0253
  328SOL     OW 1309   1.363   2.701   0.845 -0.2398 -0.3225 -0.1022
  328SOL    HW2 1310   1.380   2.715   0.938 -1.4149  0.0236  0.0658
  328SOL    HW3 1311   1.290   2.759   0.824  1.1941  0.9816 -1.6777
  328SOL    MW4 1312   1.356   2.711   0.854 -0.2056 -0.1048 -0.2879
  329SOL     OW 1313   1.581   2.850   0.725 -0.4573  0.5327  0.6491
  329SOL    HW2 1314   1.574   2.924   0.785  0.8828  0.1402  1.2992
  329SOL    HW3 1315   1.517   2.786   0.758  0.8721 -0.0289  2.1761
  329SOL    MW4 1316   1.572   2.851   0.737 -0.1051  0.4068  0.9364
  330SOL     OW 1317   1.576   3.090   0.884 -0.2745 -0.0992  0.3257
  330SOL    HW2 1318   1.577   3.069   0.977 -2.2396 -1.4268  0.0747
  330SOL    HW3 1319   1.504   3.153   0.874  0.3527  0.5410 -0.1892
  330SOL    MW4 1320   1.566   3.095   0.895 -0.4510 -0.1899  0.2246
  331SOL     OW 1321   1.321   3.216   0.826  0.1548 -0.5965  0.3710
  331SOL    HW2 1322   1.242   3.168   0.852 -0.9388  0.3841 -1.0482
  331SOL    HW3 1323   1.324   3.208   0.731 -0.0864  2.1278  0.0961
  331SOL    MW4 1324   1.311   3.209   0.817 -0.0213 -0.1077  0.1475
  332SOL     OW 1325   1.341   3.495   0.887  0.1198 -0.1521  0.8941
  332SOL    HW2 1326   1.427   3.517   0.852  0.2658 -0.2127  1.2130
  332SOL    HW3 1327   1.337   3.399   0.883 -0.3227 -0.1029 -0.0368
  332SOL    MW4 1328   1.352   3.485   0.882  0.0807 -0.1536  0.8134
  333SOL     OW 1329   1.575   3.596   0.749  0.6071 -0.0883  0.1578
  333SOL    HW2 1330   1.655   3.553   0.779  1.1552 -0.3353 -1.5856
  333SOL    HW3 1331   1.561   3.561   0.661 -1.4804 -0.1164  0.4891
  333SOL    MW4 1332   1.584   3.585   0.741  0.4040 -0.1246 -0.0285
  334SOL     OW 1333   1.581   3.869   0.859  0.2729  0.3659  0.3827
  334SOL    HW2 1334   1.513   3.914   0.808  0.3576  0.1917  0.1127
  334SOL    HW3 1335   1.576   3.778   0.829  0.4835  0.3124  0.5137
  334SOL    MW4 1336   1.572   3.863   0.848  0.3119  0.3359  0.3644
  335SOL     OW 1337   1.365   4.006   0.739 -0.1419  0.1843 -0.3930
  335SOL    HW2 1338   1.280   3.966   0.759  0.4872 -1.6547 -1.3033
  335SOL    HW3 1339   1.373   4.000   0.644  1.0094  0.3601 -0.3164
  335SOL    MW4 1340   1.355   4.000   0.729  0.0930 -0.0351 -0.5030
  336SOL     OW 1341   1.354   4.267   0.824  0.6072  0.1470  0.0832
  336SOL    HW2 1342   1.422   4.313   0.774  0.6432  0.7214  0.6447
  336SOL    HW3 1343   1.370   4.174   0.806 -0.1883  0.3840 -2.0035
  336SOL    MW4 1344   1.365   4.261   0.815  0.5070  0.2540 -0.1180
  337SOL     OW 1345   1.578   4.381   0.692  0.1068  0.2450  0.0868
  337SOL    HW2 1346   1.653   4.353   0.744  1.3245  1.3298 -1.0614
  337SOL    HW3 1347   1.558   4.469   0.724  0.5644  0.7271 -0.9445
  337SOL    MW4 1348   1.585   4.389   0.703  0.3279  0.4517 -0.2007
  338SOL     OW 1349   1.978   4.639   0.841  0.0998 -1.0576 -0.2157
  338SOL    HW2 1350   2.055   4.689   0.814 -0.7688 -0.8463 -2.3308
  338SOL    HW3 1351   2.001   4.548   0.822  0.2432 -1.1054  0.1788
  338SOL    MW4 1352   1.991   4.634   0.835  0.0041 -1.0361 -0.4427
  339SOL     OW 1353   1.765   0.077   0.717  0.4322  0.0401  0.4340
  339SOL    HW2 1354   1.839   0.038   0.765 -0.1492 -0.6506  0.7712
  339SOL    HW3 1355   1.688   0.030   0.749  0.0774 -0.8032 -1.5497
  339SOL    MW4 1356   1.765   0.065   0.727  0.3087 -0.1623  0.2168
  340SOL     OW 1357   1.772   0.333   0.811  0.0753 -0.2072  0.2585
  340SOL    HW2 1358   1.778   0.247   0.771  1.0452  1.3010 -2.9467
  340SOL    HW3 1359   1.856   0.375   0.793 -0.6414  1.6958  1.1431
  340SOL    MW4 1360   1.784   0.328   0.804  0.1087  0.2429 -0.0477
  341SOL     OW 1361   1.997   0.484   0.746  0.4276 -0.0141  0.4774
  341SOL    HW2 1362   2.086   0.463   0.774 -0.2886 -1.4400  1.7495
  341SOL    HW3 1363   1.996   0.462   0.652  1.6736  0.9618  0.2184
  341SOL    MW4 1364   2.008   0.478   0.737  0.4975 -0.0735  0.6111
  342SOL     OW 1365   2.007   0.766   0.799  0.1830  0.2026  0.3133
  342SOL    HW2 1366   2.097   0.799   0.799  0.4542 -0.5227  1.0514
  342SOL    HW3 1367   2.016   0.672   0.781 -0.5916  0.5310 -1.9774
  342SOL    MW4 1368   2.020   0.758   0.797  0.1166  0.1502  0.1084
  343SOL     OW 1369   1.797   0.919   0.682 -0.0474 -0.3091  0.1845
  343SOL    HW2 1370   1.802   0.999   0.735  0.8293 -0.4018  0.2586
  343SOL    HW3 1371   1.862   0.860   0.722  0.5600 -0.4073 -0.9317
  343SOL    MW4 1372   1.806   0.922   0.695  0.1484 -0.3343  0.0470
  344SOL     OW 1373   1.807   1.133   0.846 -0.1679  0.2804  0.0959
  344SOL    HW2 1374   1.877   1.190   0.816  0.8918 -0.9224  0.2314
  344SOL    HW3 1375   1.727   1.181   0.826  0.6038  0.7870 -1.9866
  344SOL    MW4 1376   1.806   1.147   0.839  0.0738  0.1885 -0.1610
  345SOL     OW 1377   2.007   1.284   0.735 -0.0297  0.4976 -0.2420
  345SOL    HW2 1378   2.093   1.253   0.761 -0.2928 -0.5593 -0.6139
  345SOL    HW3 1379   2.000   1.262   0.642 -1.4518 -1.2121  0.2260
  345SOL    MW4 1380   2.017   1.277   0.726 -0.2521  0.1326 -0.2293
  346SOL     OW 1381   2.060   1.538   0.820 -0.2374  0.2546  0.1966
  346SOL    HW2 1382   2.141   1.569   0.780  0.1247 -0.4086  0.4155
  346SOL    HW3 1383   2.054   1.446   0.794 -1.2576  0.4755 -0.3794
  346SOL    MW4 1384   2.070   1.530   0.811 -0.3242  0.1963  0.1495
  347SOL     OW 1385   1.848   1.710   0.778 -0.0362 -0.3782 -0.4108
  347SOL    HW2 1386   1.924   1.653   0.766 -0.3243 -0.6017 -1.2441
  347SOL    HW3 1387   1.777   1.649   0.801 -0.1558 -0.2611 -0.4716
  347SOL    MW4 1388   1.849   1.694   0.779 -0.0900 -0.3922 -0.5287
  348SOL     OW 1389   1.794   1.983   0.856  0.3843  0.3271  0.4472
  348SOL    HW2 1390   1.807   1.891   0.832  1.6272 -0.0014  2.3171
  348SOL    HW3 1391   1.703   2.001   0.832  0.7354 -0.7484 -1.9192
  348SOL    MW4 1392   1.784   1.973   0.849  0.5946  0.1419  0.3817
  349SOL     OW 1393   1.985   2.085   0.696  0.1453  0.6647 -0.5071
  349SOL    HW2 1394   2.003   2.174   0.726  1.3145  0.0344  0.7112
  349SOL    HW3 1395   1.913   2.054   0.751 -1.2561  1.3463 -1.9057
  349SOL    MW4 1396   1.978   2.093   0.707  0.1146  0.6715 -0.5309
  350SOL     OW 1397   2.070   2.336   0.793  0.1638 -0.2071  0.2699
  350SOL    HW2 1398   2.041   2.325   0.883 -1.3052 -0.7577 -0.2626
  350SOL    HW3 1399   2.010   2.401   0.756 -0.3229 -1.2367 -0.7924
  350SOL    MW4 1400   2.058   2.343   0.800 -0.0942 -0.4156  0.0595
  351SOL     OW 1401   1.844   2.499   0.720  0.2315 -0.3112 -0.1135
  351SOL    HW2 1402   1.787   2.432   0.758 -0.8683 -0.1075 -1.3728
  351SOL    HW3 1403   1.828   2.494   0.626 -0.2158  2.0609 -0.1873
  351SOL    MW4 1404   1.835   2.489   0.713  0.0274  0.0286 -0.2894
  352SOL     OW 1405   1.815   2.747   0.877 -0.0699  0.3116 -0.1207
  352SOL    HW2 1406   1.824   2.666   0.828 -2.0866 -0.4363  0.6936
  352SOL    HW3 1407   1.732   2.783   0.849 -0.3067  0.8910  1.2571
  352SOL    MW4 1408   1.805   2.741   0.867 -0.3672  0.2894  0.1685
  353SOL     OW 1409   2.025   2.827   0.736  0.0293 -0.0277  0.1381
  353SOL    HW2 1410   2.101   2.781   0.771 -0.0336  1.3646  2.2154
  353SOL    HW3 1411   1.952   2.797   0.790 -0.2127  1.5676  0.7163
  353SOL    MW4 1412   2.026   2.817   0.748 -0.0110  0.3664  0.4884
  354SOL     OW 1413   2.043   3.093   0.825  0.5543  0.4507 -0.1040
  354SOL    HW2 1414   1.955   3.127   0.809  1.1817  2.2718  0.2869
  354SOL    HW3 1415   2.038   3.001   0.797 -1.7217  0.2645  0.7788
  354SOL    MW4 1416   2.031   3.085   0.820  0.3368  0.6664  0.0641
  355SOL     OW 1417   1.802   3.213   0.757 -0.0478  0.0663  0.1429
  355SOL    HW2 1418   1.724   3.164   0.783 -0.2820  0.3268 -0.0741
  355SOL    HW3 1419   1.798   3.215   0.662  0.1303  0.2370  0.1398
  355SOL    MW4 1420   1.791   3.207   0.748 -0.0552  0.1232  0.1138
  356SOL     OW 1421   1.839   3.487   0.820  0.1254 -0.0058 -0.1196
  356SOL    HW2 1422   1.826   3.474   0.914 -1.1128  0.1330 -0.2628
  356SOL    HW3 1423   1.832   3.400   0.782  2.0750 -0.2688  0.0619
  356SOL    MW4 1424   1.836   3.474   0.828  0.2192 -0.0222 -0.1146
  357SOL     OW 1425   2.060   3.667   0.776  0.0564  0.1717  0.7464
  357SOL    HW2 1426   2.048   3.751   0.820 -2.4745 -0.4518  1.3284
  357SOL    HW3 1427   1.977   3.621   0.789  0.5598 -1.4900 -1.5553
  357SOL    MW4 1428   2.048   3.672   0.783 -0.2111 -0.1298  0.5195
  358SOL     OW 1429   2.067   3.923   0.838  0.0800 -0.6393 -0.6458
  358SOL    HW2 1430   2.058   3.916   0.933  1.7633  1.9629 -0.2420
  358SOL    HW3 1431   1.978   3.934   0.806 -0.4383 -0.8020  0.6924
  358SOL    MW4 1432   2.054   3.924   0.846  0.2337 -0.3174 -0.4159
  359SOL     OW 1433   1.789   4.027   0.775 -0.0508  0.1515 -0.0073
  359SOL    HW2 1434   1.735   3.967   0.827  0.5398 -0.6775 -0.3419
  359SOL    HW3 1435   1.793   3.985   0.689 -1.0418  1.5229 -0.7259
  359SOL    MW4 1436   1.782   4.013   0.770 -0.1036  0.2231 -0.1463
  360SOL     OW 1437   1.777   4.286   0.861 -0.0035  0.1174  0.3814
  360SOL    HW2 1438   1.780   4.292   0.956  0.2687  0.1143  0.3732
  360SOL    HW3 1439   1.767   4.192   0.843  1.3298 -0.0309  0.3758
  360SOL    MW4 1440   1.776   4.274   0.871  0.2083  0.0974  0.3796
  361SOL     OW 1441   2.033   4.372   0.781  0.0578  0.4878  0.1842
  361SOL    HW2 1442   1.962   4.326   0.825  0.5616 -0.9881 -0.5203
  361SOL    HW3 1443   2.007   4.374   0.689  0.7708  0.2261 -0.0257
  361SOL    MW4 1444   2.020   4.367   0.775  0.2183  0.2585  0.0636
  362SOL     OW 1445   2.526   0.087   0.563  0.3610 -0.6761  0.2625
  362SOL    HW2 1446   2.619   0.094   0.587  0.2433  1.1591  0.2846
  362SOL    HW3 1447   2.480   0.081   0.647  0.3798 -0.2239  0.3106
  362SOL    MW4 1448   2.532   0.087   0.577  0.3479 -0.3743  0.2717
  363SOL     OW 1449   2.430   0.031   0.831 -0.2743 -0.5357  0.9059
  363SOL    HW2 1450   2.424   0.024   0.926 -1.4924 -0.2093  0.8523
  363SOL    HW3 1451   2.476  -0.049   0.804  0.8292 -0.2218  1.8334
  363SOL    MW4 1452   2.435   0.019   0.840 -0.2894 -0.4512  1.0212
  364SOL     OW 1453   2.242   0.402   0.841 -0.3714  0.3160 -0.0786
  364SOL    HW2 1454   2.318   0.436   0.793 -0.1299  0.6321  0.5190
  364SOL    HW3 1455   2.216   0.324   0.793 -0.2994  0.7777 -0.8789
  364SOL    MW4 1456   2.249   0.397   0.828 -0.3300  0.4186 -0.1054
  365SOL     OW 1457   2.430   0.542   0.676  0.3612  0.3272 -0.2593
  365SOL    HW2 1458   2.514   0.499   0.662  0.7797  1.0029  0.1470
  365SOL    HW3 1459   2.382   0.529   0.594  0.3072 -1.2940  0.0275
  365SOL    MW4 1460   2.435   0.535   0.664  0.4093  0.2024 -0.1679
  366SOL     OW 1461   2.509   0.803   0.771  0.0626  0.4061 -0.1964
  366SOL    HW2 1462   2.602   0.826   0.765 -0.0836  1.1175  0.3118
  366SOL    HW3 1463   2.506   0.713   0.738  0.9850  0.2461  0.1179
  366SOL    MW4 1464   2.521   0.794   0.766  0.1650  0.4789 -0.0879
  367SOL     OW 1465   2.245   0.906   0.760 -0.1812 -0.0144  0.1565
  367SOL    HW2 1466   2.331   0.863   0.760 -0.5232 -0.7030  0.2817
  367SOL    HW3 1467   2.229   0.928   0.669  0.9082  1.6847  0.3550
  367SOL    MW4 1468   2.254   0.903   0.748 -0.0826  0.1189  0.1992
  368SOL     OW 1469   2.254   1.193   0.834  0.3502  0.5558  0.5991
  368SOL    HW2 1470   2.272   1.191   0.928  0.3304  1.1301  0.6198
  368SOL    HW3 1471   2.269   1.103   0.805 -0.6827  0.1352  1.3388
  368SOL    MW4 1472   2.258   1.181   0.843  0.2113  0.5760  0.6994
  369SOL     OW 1473   2.513   1.258   0.737  0.5764 -0.4033  0.4174
  369SOL    HW2 1474   2.427   1.247   0.778  0.7684  0.7712  1.1680
  369SOL    HW3 1475   2.498   1.242   0.644 -0.3839 -0.5447  0.5936
  369SOL    MW4 1476   2.500   1.254   0.731  0.4750 -0.2670  0.5397
  370SOL     OW 1477   2.525   1.559   0.803  0.6938 -0.4753 -0.1020
  370SOL    HW2 1478   2.608   1.601   0.779  1.2785 -1.6879 -0.2357
  370SOL    HW3 1479   2.533   1.469   0.771 -0.8900 -0.4640 -0.5769
  370SOL    MW4 1480   2.537   1.553   0.796  0.5620 -0.6338 -0.1823
  371SOL     OW 1481   2.289   1.656   0.713  0.2694 -0.2514  0.0184
  371SOL    HW2 1482   2.373   1.630   0.751  0.2883 -0.3259 -0.0759
  371SOL    HW3 1483   2.301   1.648   0.619 -0.4591 -2.1999  0.0556
  371SOL    MW4 1484   2.302   1.651   0.706  0.1758 -0.5183  0.0109
  372SOL     OW 1485   2.230   1.929   0.780  0.0002  0.0053 -0.4974
  372SOL    HW2 1486   2.240   1.841   0.744  0.6524 -0.0136 -0.2683
  372SOL    HW3 1487   2.160   1.968   0.728  1.3802  0.2148 -2.2188
  372SOL    MW4 1488   2.222   1.922   0.769  0.2683  0.0304 -0.6943
  373SOL     OW 1489   2.475   2.061   0.733 -0.0879  0.2444  0.4049
  373SOL    HW2 1490   2.387   2.031   0.753  0.0392  0.1299  0.7881
  373SOL    HW3 1491   2.471   2.088   0.641 -0.3856 -0.2549  0.2735
  373SOL    MW4 1492   2.463   2.061   0.723 -0.1104  0.1634  0.4381
  374SOL     OW 1493   2.501   2.323   0.879  0.1013  0.1214  0.2077
  374SOL    HW2 1494   2.585   2.356   0.848 -1.1857  1.4484 -1.9620
  374SOL    HW3 1495   2.493   2.237   0.838  0.7621 -0.3820  1.1077
  374SOL    MW4 1496   2.511   2.316   0.869  0.0187  0.2301  0.0402
  375SOL     OW 1497   2.305   2.472   0.737 -0.0124  0.2141  0.0788
  375SOL    HW2 1498   2.376   2.420   0.774 -0.2281 -0.1410 -0.0131
  375SOL    HW3 1499   2.225   2.425   0.760 -0.2505  0.8462  0.5764
  375SOL    MW4 1500   2.304   2.459   0.745 -0.0723  0.2506  0.1324
  376SOL     OW 1501   2.283   2.741   0.836  0.0817 -0.4281  0.3139
  376SOL    HW2 1502   2.254   2.734   0.927  1.3018 -1.2758  0.6596
  376SOL    HW3 1503   2.305   2.651   0.812  2.4034  0.1560  0.0992
  376SOL    MW4 1504   2.282   2.728   0.845  0.5490 -0.4629  0.3312
  377SOL     OW 1505   2.487   2.853   0.705 -0.1062  0.3353  0.5008
  377SOL    HW2 1506   2.559   2.794   0.727  1.0020  1.2361 -0.6452
  377SOL    HW3 1507   2.418   2.830   0.767  1.0445 -0.7667  1.4089
  377SOL    MW4 1508   2.488   2.842   0.716  0.1918  0.3087  0.4694
  378SOL     OW 1509   2.457   3.121   0.805 -0.0468  0.1863 -0.4125
  378SOL    HW2 1510   2.449   3.106   0.899 -1.0659  0.7644 -0.3963
  378SOL    HW3 1511   2.468   3.034   0.768  0.3872 -0.0427  0.2422
  378SOL    MW4 1512   2.457   3.108   0.813 -0.1240  0.2324 -0.3240
  379SOL     OW 1513   2.239   3.250   0.704 -0.1472 -0.6877 -0.7947
  379SOL    HW2 1514   2.169   3.206   0.753 -0.7229 -0.3523 -1.3151
  379SOL    HW3 1515   2.320   3.218   0.745 -0.5816 -1.6112 -0.6410
  379SOL    MW4 1516   2.240   3.240   0.716 -0.2805 -0.7653 -0.8431
  380SOL     OW 1517   2.269   3.494   0.830 -0.1662 -0.1557  0.3180
  380SOL    HW2 1518   2.247   3.423   0.770 -2.0195  0.6147  0.0334
  380SOL    HW3 1519   2.200   3.559   0.816  1.8822  2.0242  0.0497
  380SOL    MW4 1520   2.257   3.493   0.821 -0.1405  0.2335  0.2451
  381SOL     OW 1521   2.491   3.614   0.746 -0.0852  0.0520  0.2399
  381SOL    HW2 1522   2.552   3.574   0.809  0.3698  1.3267  0.6224
  381SOL    HW3 1523   2.410   3.565   0.757  0.4161 -0.6499  0.8337
  381SOL    MW4 1524   2.488   3.602   0.756  0.0410  0.1276  0.3687
  382SOL     OW 1525   2.485   3.876   0.865 -0.4608  0.1362 -0.1802
  382SOL    HW2 1526   2.421   3.929   0.818  0.7711  0.2993 -1.7206
  382SOL    HW3 1527   2.481   3.790   0.823 -1.1929 -0.5036  1.1488
  382SOL    MW4 1528   2.476   3.872   0.853 -0.3948  0.0733 -0.2081
  383SOL     OW 1529   2.287   4.020   0.746  0.6473 -0.3378 -0.0933
  383SOL    HW2 1530   2.203   3.982   0.772  0.4996  1.8659  2.9756
  383SOL    HW3 1531   2.271   4.059   0.660 -1.0061 -1.3174 -0.2394
  383SOL    MW4 1532   2.274   4.020   0.738  0.4097 -0.1763  0.2923
  384SOL     OW 1533   2.293   4.306   0.827  0.3198 -0.0809  0.2793
  384SOL    HW2 1534   2.289   4.213   0.804 -2.0919 -0.4538  1.9488
  384SOL    HW3 1535   2.204   4.338   0.811  0.7610  1.6153  1.0880
  384SOL    MW4 1536   2.280   4.298   0.822  0.0598  0.0937  0.6062
  385SOL     OW 1537   2.509   4.438   0.731  0.0925  0.2970  0.2906
  385SOL    HW2 1538   2.577   4.388   0.777 -0.5397 -1.0950 -0.2674
  385SOL    HW3 1539   2.427   4.403   0.764 -0.3758  1.3646  0.2982
  385SOL    MW4 1540   2.507   4.427   0.742 -0.0527  0.2542  0.2180
  386SOL     OW 1541   2.945   0.001   0.827 -0.1484 -0.1494 -0.0179
  386SOL    HW2 1542   2.962  -0.092   0.816  1.7328  0.1809 -0.0893
  386SOL    HW3 1543   2.884   0.023   0.756  0.2756 -1.0871 -0.6866
  386SOL    MW4 1544   2.939  -0.008   0.816  0.1558 -0.2296 -0.1155
  387SOL     OW 1545   2.945   0.176   0.373  0.1960  0.1399  0.5804
  387SOL    HW2 1546   2.883   0.237   0.333 -0.3458  0.2217  1.5266
  387SOL    HW3 1547   2.918   0.090   0.342 -0.5666  0.1481  1.1900
  387SOL    MW4 1548   2.933   0.173   0.364  0.0239  0.1518  0.7857
  388SOL     OW 1549   2.695   0.391   0.726  0.5911  0.1685 -0.1861
  388SOL    HW2 1550   2.691   0.372   0.819 -0.0196 -1.4252 -0.5308
  388SOL    HW3 1551   2.779   0.436   0.714  1.6358 -1.5014  0.7958
  388SOL    MW4 1552   2.705   0.395   0.737  0.6483 -0.2621 -0.1020
  389SOL     OW 1553   2.958   0.505   0.705 -0.1371 -0.0751 -0.0867
  389SOL    HW2 1554   3.041   0.460   0.722 -1.0843 -2.0747 -0.6193
  389SOL    HW3 1555   2.962   0.527   0.612  0.3693  1.0742  0.1963
  389SOL    MW4 1556   2.970   0.502   0.695 -0.1953 -0.1873 -0.1196
  390SOL     OW 1557   2.991   0.720   0.889 -0.1375  0.3634  0.2968
  390SOL    HW2 1558   2.963   0.700   0.978  2.3068 -0.7041  0.8435
  390SOL    HW3 1559   2.964   0.644   0.838  1.2121 -0.4099  0.7185
  390SOL    MW4 1560   2.983   0.707   0.894  0.3631  0.1206  0.4245
  391SOL     OW 1561   2.772   0.838   0.726  0.3935  0.0234 -0.0353
  391SOL    HW2 1562   2.828   0.793   0.790  1.3321  1.2385  0.0059
  391SOL    HW3 1563   2.815   0.821   0.642  0.4107  0.3141 -0.0854
  391SOL    MW4 1564   2.785   0.830   0.724  0.5196  0.2221 -0.0365
  392SOL     OW 1565   2.714   1.081   0.860 -0.0831 -0.2484 -0.3394
  392SOL    HW2 1566   2.727   1.001   0.809 -0.5042 -1.6730  1.7322
  392SOL    HW3 1567   2.634   1.120   0.824 -0.5260 -1.3627 -0.5912
  392SOL    MW4 1568   2.705   1.076   0.848 -0.1971 -0.5833 -0.0993
  393SOL     OW 1569   2.892   1.269   0.763  0.2323 -0.9332  0.0955
  393SOL    HW2 1570   2.974   1.220   0.772 -0.0494 -1.5731 -0.7701
  393SOL    HW3 1571   2.825   1.213   0.802  0.2645 -0.2516  1.1284
  393SOL    MW4 1572   2.894   1.255   0.769  0.1994 -0.9277  0.1176
  394SOL     OW 1573   2.939   1.543   0.868 -0.1030 -0.6055 -0.1254
  394SOL    HW2 1574   3.017   1.567   0.818  0.7714 -1.6250  0.7183
  394SOL    HW3 1575   2.927   1.450   0.851  0.9608 -1.2697  2.5443
  394SOL    MW4 1576   2.948   1.534   0.860  0.1527 -0.8276  0.3382
  395SOL     OW 1577   2.761   1.679   0.714  0.1339  0.0805 -0.4139
  395SOL    HW2 1578   2.755   1.767   0.751 -2.3123 -0.4255  0.5031
  395SOL    HW3 1579   2.832   1.638   0.763 -0.9345  0.4861  1.5569
  395SOL    MW4 1580   2.770   1.685   0.726 -0.3298  0.0672 -0.0329
  396SOL     OW 1581   2.718   1.948   0.818 -0.7072 -0.3270  0.0445
  396SOL    HW2 1582   2.702   1.919   0.908  0.7050 -0.1447  0.3742
  396SOL    HW3 1583   2.636   1.990   0.791 -0.5558  1.2794  1.9182
  396SOL    MW4 1584   2.705   1.950   0.826 -0.5009 -0.0910  0.3352
  397SOL     OW 1585   2.903   2.105   0.698 -0.0103  0.2941  0.7114
  397SOL    HW2 1586   2.919   2.188   0.742 -1.4970  0.5335  0.8385
  397SOL    HW3 1587   2.846   2.057   0.758  0.0050 -0.3957  0.1797
  397SOL    MW4 1588   2.897   2.110   0.711 -0.2044  0.2346  0.6580
  398SOL     OW 1589   2.949   2.350   0.810 -0.1457 -0.2539  0.3335
  398SOL    HW2 1590   2.955   2.349   0.905  1.9504 -0.1600  0.2279
  398SOL    HW3 1591   2.860   2.381   0.792 -0.3843  0.2633  2.2502
  398SOL    MW4 1592   2.938   2.354   0.820  0.0994 -0.1733  0.5725
  399SOL     OW 1593   2.697   2.434   0.740  0.6981 -0.2592  0.3102
  399SOL    HW2 1594   2.680   2.411   0.649 -1.1654 -1.7340  0.9849
  399SOL    HW3 1595   2.685   2.529   0.744  1.6117 -0.0775 -1.1349
  399SOL    MW4 1596   2.693   2.443   0.729  0.5728 -0.4298  0.2085
  400SOL     OW 1597   2.693   2.701   0.815  0.7543 -0.9551  0.2176
  400SOL    HW2 1598   2.692   2.704   0.911  0.9361  0.9280  0.1842
  400SOL    HW3 1599   2.766   2.757   0.790 -0.9227  0.7239 -1.0730
  400SOL    MW4 1600   2.702   2.709   0.825  0.5570 -0.4851  0.0429
  401SOL     OW 1601   2.742   2.736   0.169 -0.0712 -0.3464 -0.0770
  401SOL    HW2 1602   2.660   2.699   0.201  0.4653  1.0472  3.0224
  401SOL    HW3 1603   2.808   2.671   0.191 -0.0070 -0.4225 -0.4849
  401SOL    MW4 1604   2.740   2.723   0.176  0.0081 -0.1726  0.2781
  402SOL     OW 1605   2.931   3.131   0.843 -0.7778  0.1083  0.0488
  402SOL    HW2 1606   2.847   3.169   0.815  0.5131  1.3297 -2.3216
  402SOL    HW3 1607   2.924   3.038   0.819 -0.5739  0.6877 -2.4365
  402SOL    MW4 1608   2.919   3.123   0.836 -0.5806  0.3459 -0.5918
  403SOL     OW 1609   2.692   3.246   0.746 -0.3718  0.1025 -0.4569
  403SOL    HW2 1610   2.689   3.334   0.782  1.6907 -0.5893  1.5032
  403SOL    HW3 1611   2.608   3.207   0.771  0.1298  0.3670  1.6966
  403SOL    MW4 1612   2.680   3.252   0.754 -0.0335  0.0461  0.0858
  404SOL     OW 1613   2.705   3.492   0.881 -0.2534  0.0680  0.2808
  404SOL    HW2 1614   2.716   3.479   0.975 -0.4430  0.4523  0.3572
  404SOL    HW3 1615   2.784   3.540   0.854  0.7049 -1.7041 -0.0982
  404SOL    MW4 1616   2.717   3.497   0.890 -0.1520 -0.1151  0.2409
  405SOL     OW 1617   2.911   3.639   0.788 -0.3181  0.0395  0.3228
  405SOL    HW2 1618   2.904   3.733   0.803  0.5551  0.1337  0.1504
  405SOL    HW3 1619   2.888   3.628   0.695  1.5271  0.3258 -0.1883
  405SOL    MW4 1620   2.907   3.650   0.778  0.0405  0.0897  0.2327
  406SOL     OW 1621   2.972   3.918   0.862  0.0058  0.4566 -0.4953
  406SOL    HW2 1622   2.959   3.917   0.957 -0.3386  1.5582 -0.5314
  406SOL    HW3 1623   2.889   3.949   0.827  0.3913  0.7775 -1.1196
  406SOL    MW4 1624   2.960   3.922   0.870  0.0113  0.6443 -0.5824
  407SOL     OW 1625   2.726   4.005   0.765 -0.1202  0.3245 -0.2254
  407SOL    HW2 1626   2.646   3.970   0.805 -0.8335  1.3699 -0.7201
  407SOL    HW3 1627   2.722   3.975   0.674  0.6980 -0.7016  0.0719
  407SOL    MW4 1628   2.715   3.996   0.758 -0.1064  0.3271 -0.2514
  408SOL     OW 1629   2.710   4.283   0.823  0.6640 -0.0209  0.1961
  408SOL    HW2 1630   2.715   4.280   0.919 -0.2641 -1.3558  0.2050
  408SOL    HW3 1631   2.714   4.192   0.795 -0.1430  0.2944 -0.9902
  408SOL    MW4 1632   2.711   4.271   0.832  0.4350 -0.1555  0.0408
  409SOL     OW 1633   2.955   4.398   0.775  0.0480  0.2379 -0.1287
  409SOL    HW2 1634   3.026   4.336   0.790  0.7752  1.2445  0.6297
  409SOL    HW3 1635   2.879   4.357   0.815  0.3224 -0.5676 -0.4102
  409SOL    MW4 1636   2.954   4.384   0.782  0.1802  0.2644 -0.0658
  410SOL     OW 1637   3.364   4.597   0.796  0.4829  0.2693  0.5146
  410SOL    HW2 1638   3.370   4.602   0.891  1.5806  1.3361  0.4055
  410SOL    HW3 1639   3.304   4.667   0.771  0.1459 -0.0493  0.4172
  410SOL    MW4 1640   3.357   4.607   0.805  0.5832  0.3680  0.4874
  411SOL     OW 1641   3.187   0.117   0.699 -0.0844 -0.5811 -0.1596
  411SOL    HW2 1642   3.189   0.203   0.742 -1.0986 -0.2570 -0.7428
  411SOL    HW3 1643   3.110   0.073   0.736 -0.6426 -0.5142 -1.2115
  411SOL    MW4 1644   3.177   0.123   0.710 -0.2919 -0.5295 -0.3753
  412SOL     OW 1645   3.187   0.379   0.829 -0.0283 -0.1598  0.1465
  412SOL    HW2 1646   3.161   0.409   0.917 -0.7055 -1.6777  0.4765
  412SOL    HW3 1647   3.269   0.425   0.812 -0.5071  1.0907  1.0554
  412SOL    MW4 1648   3.194   0.389   0.839 -0.1808 -0.1951  0.3099
  413SOL     OW 1649   3.419   0.516   0.763  0.3732  0.1672 -0.2319
  413SOL    HW2 1650   3.483   0.447   0.782  0.6438  0.4063 -0.2815
  413SOL    HW3 1651   3.433   0.538   0.671 -1.4870 -1.5557 -0.9755
  413SOL    MW4 1652   3.429   0.510   0.754  0.1634 -0.0285 -0.3366
  414SOL     OW 1653   3.402   0.760   0.901 -0.1896  0.0140  0.1754
  414SOL    HW2 1654   3.334   0.813   0.859  0.7839  1.8164  0.8306
  414SOL    HW3 1655   3.395   0.674   0.859 -1.6355  0.7306 -1.0841
  414SOL    MW4 1656   3.392   0.756   0.890 -0.2519  0.3463  0.0957
  415SOL     OW 1657   3.163   0.911   0.777  0.1918 -0.3165 -0.1743
  415SOL    HW2 1658   3.150   0.995   0.821 -0.5905  0.3288 -1.6215
  415SOL    HW3 1659   3.108   0.850   0.826  1.6569 -0.2534  1.6059
  415SOL    MW4 1660   3.154   0.914   0.789  0.2819 -0.2231 -0.1303
  416SOL     OW 1661   3.139   1.166   0.874 -0.1174  0.1389  0.1196
  416SOL    HW2 1662   3.143   1.151   0.969 -0.6569  0.0797  0.1389
  416SOL    HW3 1663   3.228   1.191   0.850  0.3996 -1.3918  0.3876
  416SOL    MW4 1664   3.151   1.167   0.884 -0.1204 -0.0709  0.1575
  417SOL     OW 1665   3.383   1.235   0.798  0.1872 -0.4114 -0.2217
  417SOL    HW2 1666   3.469   1.194   0.808  0.6120  0.4784 -0.1580
  417SOL    HW3 1667   3.391   1.318   0.845 -0.6460 -0.2345 -0.3901
  417SOL    MW4 1668   3.395   1.240   0.806  0.1333 -0.2707 -0.2355
  418SOL     OW 1669   3.405   1.489   0.870  0.0562  0.1070 -0.1450
  418SOL    HW2 1670   3.385   1.512   0.960 -0.4720  0.4163 -0.3429
  418SOL    HW3 1671   3.482   1.542   0.848 -1.3574  1.9757 -0.7115
  418SOL    MW4 1672   3.413   1.499   0.879 -0.2000  0.3944 -0.2458
  419SOL     OW 1673   3.180   1.600   0.724  0.0668  0.2291 -0.0633
  419SOL    HW2 1674   3.250   1.547   0.762  0.4660  0.6432 -0.2265
  419SOL    HW3 1675   3.184   1.581   0.630  0.0905  0.4057 -0.0981
  419SOL    MW4 1676   3.190   1.590   0.716  0.1226  0.3070 -0.0894
  420SOL     OW 1677   3.231   1.874   0.791  0.3900 -0.1004  0.3314
  420SOL    HW2 1678   3.187   1.887   0.875 -0.4675 -0.3549 -0.0819
  420SOL    HW3 1679   3.236   1.779   0.781  1.1753 -0.0800  0.4435
  420SOL    MW4 1680   3.226   1.863   0.801  0.3805 -0.1313  0.2916
  421SOL     OW 1681   3.432   2.051   0.696  0.2623  0.1435 -0.0751
  421SOL    HW2 1682   3.420   2.138   0.736  0.0613  0.5866 -1.0963
  421SOL    HW3 1683   3.352   2.004   0.719  0.5862  0.0497  0.9101
  421SOL    MW4 1684   3.420   2.056   0.704  0.2786  0.1896 -0.0799
  422SOL     OW 1685   3.398   2.306   0.811 -0.3556 -0.2289 -0.5335
  422SOL    HW2 1686   3.389   2.299   0.906 -0.1306  0.3490 -0.4717
  422SOL    HW3 1687   3.475   2.361   0.797 -1.1454  0.7787 -1.0390
  422SOL    MW4 1688   3.407   2.312   0.822 -0.4301 -0.0197 -0.5920
  423SOL     OW 1689   3.185   2.469   0.709 -0.1668  0.4601  0.1586
  423SOL    HW2 1690   3.256   2.411   0.737 -1.1373 -0.8540 -0.0184
  423SOL    HW3 1691   3.105   2.428   0.743 -0.8481  1.8907  0.3267
  423SOL    MW4 1692   3.184   2.456   0.717 -0.3847  0.4754  0.1574
  424SOL     OW 1693   3.141   2.727   0.816 -0.0097  0.2037 -0.2162
  424SOL    HW2 1694   3.175   2.644   0.782  0.3207  0.7208 -1.1700
  424SOL    HW3 1695   3.200   2.794   0.781  0.4111  0.7450  1.5059
  424SOL    MW4 1696   3.153   2.725   0.807  0.0894  0.3433 -0.1148
  425SOL     OW 1697   3.367   2.877   0.720 -0.2315  0.0285  0.5384
  425SOL    HW2 1698   3.360   2.845   0.630 -1.8795  0.3062  0.5671
  425SOL    HW3 1699   3.430   2.818   0.761  0.4898 -0.1366 -0.7705
  425SOL    MW4 1700   3.375   2.865   0.714 -0.3537  0.0433  0.3695
  426SOL     OW 1701   3.346   3.131   0.831  0.7290 -0.6414 -0.1733
  426SOL    HW2 1702   3.350   3.123   0.927  0.4093 -0.2431 -0.1246
  426SOL    HW3 1703   3.366   3.043   0.799  1.9985 -0.4983  0.2289
  426SOL    MW4 1704   3.349   3.118   0.840  0.8543 -0.5700 -0.1138
  427SOL     OW 1705   3.116   3.256   0.677  0.1241  0.2470  0.0270
  427SOL    HW2 1706   3.201   3.227   0.710 -0.6621 -1.0344  0.9523
  427SOL    HW3 1707   3.053   3.216   0.736 -1.2217 -0.5494 -1.9426
  427SOL    MW4 1708   3.119   3.247   0.689 -0.1572 -0.0272 -0.1108
  428SOL     OW 1709   3.119   3.478   0.883  0.5696  0.1611 -0.1189
  428SOL    HW2 1710   3.135   3.406   0.821 -0.9878  0.2931 -0.6984
  428SOL    HW3 1711   3.042   3.523   0.848  1.3444  1.9348  0.4102
  428SOL    MW4 1712   3.111   3.475   0.870  0.4663  0.4126 -0.1255
  429SOL     OW 1713   3.366   3.582   0.763  0.3358  0.4362  0.0456
  429SOL    HW2 1714   3.376   3.676   0.771 -2.0392  0.6348  1.1149
  429SOL    HW3 1715   3.293   3.560   0.821  0.9595 -2.0814 -0.0517
  429SOL    MW4 1716   3.358   3.591   0.771  0.1047  0.1303  0.1739
  430SOL     OW 1717   3.399   3.855   0.807 -0.2393  0.3189  0.0048
  430SOL    HW2 1718   3.390   3.858   0.902  0.5610 -1.5595  0.1693
  430SOL    HW3 1719   3.484   3.896   0.790 -0.4712  0.8329  0.0816
  430SOL    MW4 1720   3.409   3.861   0.817 -0.1643  0.1389  0.0366
  431SOL     OW 1721   3.183   3.990   0.691 -0.2802 -0.1086 -0.0090
  431SOL    HW2 1722   3.266   3.955   0.724  0.3086  0.3242 -1.0158
  431SOL    HW3 1723   3.117   3.954   0.750  0.5949 -0.6963  0.6242
  431SOL    MW4 1724   3.185   3.980   0.703 -0.0871 -0.1291 -0.0583
  432SOL     OW 1725   3.170   4.223   0.830 -0.3051  0.3587 -0.1725
  432SOL    HW2 1726   3.238   4.273   0.785 -0.5541 -0.1244 -1.1129
  432SOL    HW3 1727   3.162   4.142   0.779 -2.4577  0.9584 -0.8398
  432SOL    MW4 1728   3.178   4.219   0.817 -0.6219  0.3741 -0.3846
  433SOL     OW 1729   3.363   4.355   0.657  0.4800  0.1863  0.0599
  433SOL    HW2 1730   3.367   4.440   0.700  1.4703  0.8029 -1.2244
  433SOL    HW3 1731   3.290   4.363   0.595 -0.0798 -0.2533  0.6497
  433SOL    MW4 1732   3.354   4.367   0.654  0.5368  0.2096 -0.0317
  434SOL     OW 1733   3.843   4.609   0.850 -0.5307 -0.2123 -0.2849
  434SOL    HW2 1734   3.913   4.671   0.827 -1.1243  0.7943  0.5796
  434SOL    HW3 1735   3.763   4.648   0.814 -0.9888 -0.2029  0.7189
  434SOL    MW4 1736   3.842   4.623   0.842 -0.6695 -0.0783 -0.0384
  435SOL     OW 1737   3.602   0.052   0.736  0.0219 -0.0908  0.1012
  435SOL    HW2 1738   3.520   0.009   0.759  0.0453  0.8606  2.0605
  435SOL    HW3 1739   3.589   0.083   0.647 -2.3534  1.4607  0.9411
  435SOL    MW4 1740   3.590   0.050   0.727 -0.2884  0.2394  0.4706
  436SOL     OW 1741   3.597   0.320   0.837 -0.4827 -0.4523 -0.0650
  436SOL    HW2 1742   3.606   0.320   0.933  2.1574  0.4487 -0.2590
  436SOL    HW3 1743   3.611   0.229   0.812 -0.0069 -0.4900  0.3251
  436SOL    MW4 1744   3.600   0.308   0.847 -0.0716 -0.3384 -0.0391
  437SOL     OW 1745   3.852   0.443   0.785  0.1965  0.1068  0.2336
  437SOL    HW2 1746   3.835   0.533   0.812  0.4545  0.3824 -0.5006
  437SOL    HW3 1747   3.767   0.399   0.794  0.0989  0.3950  0.7111
  437SOL    MW4 1748   3.838   0.449   0.789  0.2176  0.1812  0.1997
  438SOL     OW 1749   3.834   0.704   0.881  0.2289 -0.0159 -0.3939
  438SOL    HW2 1750   3.842   0.726   0.974  0.8047 -1.0100 -0.1989
  438SOL    HW3 1751   3.889   0.769   0.836 -1.2800  1.4429 -0.1930
  438SOL    MW4 1752   3.842   0.716   0.887  0.1058  0.0454 -0.3417
  439SOL     OW 1753   3.920   0.887   0.514  0.1726  0.1460 -0.1388
  439SOL    HW2 1754   3.846   0.838   0.478  0.2225  0.7754 -1.1431
  439SOL    HW3 1755   3.993   0.825   0.513  0.1945  0.1715 -1.2333
  439SOL    MW4 1756   3.920   0.872   0.509  0.1820  0.2324 -0.4157
  440SOL     OW 1757   3.636   1.142   0.847 -0.2087  0.1633 -0.0141
  440SOL    HW2 1758   3.650   1.148   0.941  2.1363  0.4862 -0.3367
  440SOL    HW3 1759   3.658   1.051   0.825 -1.2633 -0.0572 -0.1816
  440SOL    MW4 1760   3.641   1.131   0.856 -0.0384  0.1769 -0.0788
  441SOL     OW 1761   3.855   1.275   0.737 -0.0863 -0.2987  0.0188
  441SOL    HW2 1762   3.776   1.233   0.769 -0.1849 -0.6265 -0.6282
  441SOL    HW3 1763   3.849   1.267   0.641  1.5892 -1.9605  0.0101
  441SOL    MW4 1764   3.844   1.268   0.728  0.1218 -0.5612 -0.0677
  442SOL     OW 1765   3.878   1.528   0.863  0.5461  0.3493  0.0483
  442SOL    HW2 1766   3.947   1.580   0.822  2.3965  0.3199  3.0291
  442SOL    HW3 1767   3.881   1.444   0.816  0.4212  1.3847 -1.8834
  442SOL    MW4 1768   3.888   1.524   0.851  0.7738  0.4820  0.1867
  443SOL     OW 1769   3.637   1.646   0.758 -0.1699 -0.6405 -0.1401
  443SOL    HW2 1770   3.649   1.740   0.771  0.3137 -0.8066  0.6606
  443SOL    HW3 1771   3.714   1.607   0.798 -0.9852 -1.4470  0.6592
  443SOL    MW4 1772   3.649   1.654   0.765 -0.2137 -0.7689  0.0710
  444SOL     OW 1773   3.643   1.917   0.837 -0.0779  0.4748 -0.2724
  444SOL    HW2 1774   3.716   1.973   0.812 -0.1654 -0.0847 -1.8691
  444SOL    HW3 1775   3.567   1.957   0.795 -0.1987 -0.6069 -1.1032
  444SOL    MW4 1776   3.643   1.930   0.828 -0.1054  0.2583 -0.5927
  445SOL     OW 1777   3.888   2.061   0.764 -0.1930  0.1030  0.3177
  445SOL    HW2 1778   3.964   2.012   0.796 -0.6699 -0.1114  1.1463
  445SOL    HW3 1779   3.873   2.027   0.676 -0.4835 -1.2001  0.8627
  445SOL    MW4 1780   3.896   2.050   0.757 -0.2943 -0.0972  0.4989
  446SOL     OW 1781   3.809   2.342   0.852 -0.3318 -0.3472  0.2288
  446SOL    HW2 1782   3.825   2.344   0.946  0.4363 -0.4652  0.0992
  446SOL    HW3 1783   3.833   2.254   0.825 -0.5773 -0.3223 -0.0776
  446SOL    MW4 1784   3.814   2.331   0.861 -0.2628 -0.3595  0.1712
  447SOL     OW 1785   3.602   2.475   0.715 -0.8745 -0.1405  0.3782
  447SOL    HW2 1786   3.581   2.559   0.755 -0.0984 -0.7621  2.1245
  447SOL    HW3 1787   3.673   2.439   0.768  0.2457 -0.9708 -1.5908
  447SOL    MW4 1788   3.608   2.481   0.727 -0.6243 -0.3320  0.3488
  448SOL     OW 1789   3.570   2.710   0.832  0.0855  0.1526  0.2741
  448SOL    HW2 1790   3.570   2.724   0.927  2.4031 -0.2961  0.3584
  448SOL    HW3 1791   3.653   2.748   0.803  0.0415 -1.0011 -1.3808
  448SOL    MW4 1792   3.581   2.717   0.841  0.3855 -0.0588  0.0669
  449SOL     OW 1793   3.836   2.808   0.786 -0.5472 -0.2993  0.4598
  449SOL    HW2 1794   3.865   2.827   0.697 -2.2496 -0.7441 -0.2107
  449SOL    HW3 1795   3.831   2.894   0.828 -1.2955  0.0810 -0.3782
  449SOL    MW4 1796   3.839   2.822   0.780 -0.8706 -0.3078  0.2608
  450SOL     OW 1797   3.851   3.071   0.870  0.4114  0.1371 -0.3291
  450SOL    HW2 1798   3.914   3.124   0.821  0.2298 -0.2994 -1.0363
  450SOL    HW3 1799   3.767   3.114   0.856  0.5889  0.8671  0.8261
  450SOL    MW4 1800   3.848   3.084   0.862  0.4109  0.1758 -0.2700
  451SOL     OW 1801   3.618   3.209   0.808  0.2625 -0.2649 -0.3317
  451SOL    HW2 1802   3.526   3.184   0.815  0.2550 -0.3385 -0.6861
  451SOL    HW3 1803   3.641   3.192   0.716  0.0190  1.8766 -0.8093
  451SOL    MW4 1804   3.609   3.203   0.797  0.2294  0.0079 -0.4415
  452SOL     OW 1805   3.609   3.496   0.867  0.6539  0.0627 -0.0051
  452SOL    HW2 1806   3.626   3.403   0.855  0.7046  0.1632 -0.7019
  452SOL    HW3 1807   3.531   3.514   0.815  1.3594  0.6670 -0.8643
  452SOL    MW4 1808   3.601   3.486   0.859  0.7537  0.1557 -0.2104
  453SOL     OW 1809   3.851   3.612   0.770 -0.0400  0.2920 -0.2048
  453SOL    HW2 1810   3.919   3.565   0.819  0.2106  1.3145  0.4509
  453SOL    HW3 1811   3.769   3.573   0.799  0.1575  0.3160  0.3922
  453SOL    MW4 1812   3.849   3.600   0.780  0.0191  0.4301 -0.0395
  454SOL     OW 1813   3.865   3.875   0.826  0.1093 -0.6647  0.3291
  454SOL    HW2 1814   3.780   3.900   0.792 -1.3019 -1.3611  3.2179
  454SOL    HW3 1815   3.867   3.780   0.821  0.5199 -0.6815  0.7011
  454SOL    MW4 1816   3.854   3.866   0.821 -0.0227 -0.7588  0.7593
  455SOL     OW 1817   3.637   3.993   0.756  0.1629  0.2660  0.1789
  455SOL    HW2 1818   3.639   4.084   0.788  0.0157  0.2310  0.2880
  455SOL    HW3 1819   3.622   4.001   0.661  1.3431  0.3936 -0.0011
  455SOL    MW4 1820   3.635   4.006   0.748  0.2992  0.2782  0.1695
  456SOL     OW 1821   3.592   4.281   0.799 -0.3043  0.1946  0.0324
  456SOL    HW2 1822   3.663   4.336   0.764  0.2165 -1.1412 -1.0598
  456SOL    HW3 1823   3.516   4.302   0.744 -0.4156  0.6526  0.3550
  456SOL    MW4 1824   3.591   4.291   0.787 -0.2502  0.0788 -0.0691
  457SOL     OW 1825   3.840   4.388   0.699  0.1557  0.5654  0.2629
  457SOL    HW2 1826   3.905   4.326   0.731  0.4213  0.1077 -1.1032
  457SOL    HW3 1827   3.860   4.469   0.745  0.4759 -0.0900  1.2832
  457SOL    MW4 1828   3.852   4.391   0.709  0.2330  0.4186  0.2173
  458SOL     OW 1829   4.247   4.597   0.853 -0.5607 -0.2643 -0.0043
  458SOL    HW2 1830   4.253   4.606   0.948 -0.0080  0.9540 -0.1417
  458SOL    HW3 1831   4.176   4.657   0.828 -0.3953 -0.2344 -0.4070
  458SOL    MW4 1832   4.238   4.606   0.862 -0.4660 -0.0996 -0.0756
  459SOL     OW 1833   4.044   0.100   0.763 -0.3090 -0.1275 -0.0242
  459SOL    HW2 1834   4.074   0.190   0.780  1.3145 -0.5013 -0.7344
  459SOL    HW3 1835   4.062   0.087   0.669 -0.8662 -1.0734 -0.0034
  459SOL    MW4 1836   4.051   0.110   0.753 -0.1683 -0.3016 -0.1151
  460SOL     OW 1837   4.093   0.339   0.881 -0.0339 -0.2594 -0.2321
  460SOL    HW2 1838   4.154   0.397   0.835 -0.2034 -0.0797 -0.2366
  460SOL    HW3 1839   4.007   0.377   0.862 -0.0351  0.4920  1.1737
  460SOL    MW4 1840   4.090   0.352   0.873 -0.0565 -0.1366 -0.0472
  461SOL     OW 1841   4.295   0.520   0.808  0.1114 -0.2926  0.0036
  461SOL    HW2 1842   4.384   0.499   0.834 -0.0141 -2.0590 -0.9183
  461SOL    HW3 1843   4.301   0.540   0.714 -0.4545 -0.5074 -0.0859
  461SOL    MW4 1844   4.307   0.520   0.799  0.0201 -0.5540 -0.1299
  462SOL     OW 1845   4.278   0.782   0.892 -0.1911  0.5435  0.2023
  462SOL    HW2 1846   4.200   0.815   0.847 -0.0147 -0.5297 -0.9175
  462SOL    HW3 1847   4.273   0.687   0.881  1.1531  0.4544  0.3364
  462SOL    MW4 1848   4.267   0.774   0.884  0.0095  0.3902  0.0723
  463SOL     OW 1849   4.031   0.869   0.783 -0.0620  0.3520  0.1348
  463SOL    HW2 1850   4.021   0.959   0.813 -1.5312  0.6078 -1.0356
  463SOL    HW3 1851   3.996   0.870   0.694  1.0175 -1.1245 -0.3246
  463SOL    MW4 1852   4.025   0.881   0.775 -0.1134  0.1909 -0.0802
  464SOL     OW 1853   4.072   1.133   0.858  0.2554  0.0441  0.6416
  464SOL    HW2 1854   4.063   1.140   0.954 -0.8932 -1.6080  0.6776
  464SOL    HW3 1855   3.998   1.183   0.824  0.3033  0.1088  0.6323
  464SOL    MW4 1856   4.061   1.141   0.866  0.1102 -0.1653  0.6451
  465SOL     OW 1857   4.303   1.254   0.773  0.1252 -0.4836  0.8339
  465SOL    HW2 1858   4.229   1.197   0.796  0.1426 -0.8132  0.0969
  465SOL    HW3 1859   4.377   1.218   0.823  0.2765 -1.5030 -0.1064
  465SOL    MW4 1860   4.303   1.241   0.783  0.1475 -0.6616  0.6126
  466SOL     OW 1861   4.283   1.524   0.821  0.2935  0.2281  0.2982
  466SOL    HW2 1862   4.271   1.528   0.916  1.1787  0.6697  0.4010
  466SOL    HW3 1863   4.287   1.431   0.801 -0.4043  0.1282  0.6309
  466SOL    MW4 1864   4.282   1.513   0.831  0.3182  0.2732  0.3557
  467SOL     OW 1865   4.069   1.664   0.700  0.3858 -0.8035  0.0567
  467SOL    HW2 1866   4.134   1.615   0.751  0.7040 -0.3544  0.0870
  467SOL    HW3 1867   4.087   1.641   0.609  1.9341  0.9263 -0.0878
  467SOL    MW4 1868   4.080   1.654   0.695  0.6320 -0.5160  0.0416
  468SOL     OW 1869   4.081   1.893   0.847 -0.3103 -0.0499 -0.2739
  468SOL    HW2 1870   4.144   1.942   0.794 -0.7369 -0.4894 -1.1933
  468SOL    HW3 1871   4.077   1.807   0.806 -0.9632 -0.2550  0.2213
  468SOL    MW4 1872   4.089   1.888   0.834 -0.4527 -0.1349 -0.3299
  469SOL     OW 1873   4.325   2.083   0.710 -0.1776  0.2166 -0.2698
  469SOL    HW2 1874   4.388   2.028   0.757 -0.5254 -0.6916 -0.8577
  469SOL    HW3 1875   4.338   2.060   0.618 -1.4957 -0.1201 -0.3762
  469SOL    MW4 1876   4.335   2.072   0.704 -0.3974  0.0523 -0.3614
  470SOL     OW 1877   4.277   2.330   0.839 -0.2709  0.3635  0.2088
  470SOL    HW2 1878   4.210   2.381   0.794  0.0414 -1.5182 -2.5389
  470SOL    HW3 1879   4.280   2.247   0.791  2.0980 -0.6362  1.9829
  470SOL    MW4 1880   4.269   2.325   0.827  0.0829 -0.0167  0.0803
  471SOL     OW 1881   4.046   2.462   0.761  0.2174 -0.2463 -0.0003
  471SOL    HW2 1882   4.049   2.548   0.803 -0.3649 -0.9558  1.5045
  471SOL    HW3 1883   3.960   2.427   0.783 -0.3796 -0.3666 -2.3493
  471SOL    MW4 1884   4.035   2.469   0.769  0.0618 -0.3558 -0.1117
  472SOL     OW 1885   4.064   2.701   0.887 -0.0188  0.0653  0.1255
  472SOL    HW2 1886   4.122   2.761   0.840  1.0575 -0.7103  0.4434
  472SOL    HW3 1887   3.976   2.731   0.865  0.4996  2.0325  0.6359
  472SOL    MW4 1888   4.060   2.713   0.877  0.1916  0.2225  0.2348
  473SOL     OW 1889   4.273   2.847   0.776 -0.2868  0.2165 -0.6571
  473SOL    HW2 1890   4.358   2.803   0.773  0.6986  1.9401  0.9648
  473SOL    HW3 1891   4.252   2.864   0.684  1.4071  0.2804 -1.0501
  473SOL    MW4 1892   4.282   2.844   0.763  0.0667  0.4523 -0.4949
  474SOL     OW 1893   4.291   3.113   0.861 -0.6913 -0.0505 -0.0745
  474SOL    HW2 1894   4.306   3.025   0.826 -0.2036 -0.1181  0.2985
  474SOL    HW3 1895   4.365   3.164   0.828 -2.0753  0.7393 -2.0301
  474SOL    MW4 1896   4.303   3.108   0.852 -0.8096  0.0448 -0.2833
  475SOL     OW 1897   4.053   3.244   0.758 -0.1458 -0.3948  0.1355
  475SOL    HW2 1898   4.046   3.319   0.816 -0.2482 -0.5556  0.3325
  475SOL    HW3 1899   4.124   3.191   0.794 -0.5978 -0.7903  0.4579
  475SOL    MW4 1900   4.061   3.247   0.770 -0.2189 -0.4682  0.2040
  476SOL     OW 1901   4.056   3.484   0.922 -0.0690  0.4794  0.0695
  476SOL    HW2 1902   4.070   3.498   1.016 -0.2384  0.8304  0.0436
  476SOL    HW3 1903   4.140   3.504   0.882  0.0488  0.1695  0.1638
  476SOL    MW4 1904   4.069   3.489   0.929 -0.0758  0.4848  0.0785
  477SOL     OW 1905   4.290   3.561   0.781  0.1941  0.3260  0.3267
  477SOL    HW2 1906   4.294   3.656   0.771  0.9527  0.2070 -0.6015
  477SOL    HW3 1907   4.272   3.529   0.692  1.1873 -0.4654  0.4045
  477SOL    MW4 1908   4.288   3.569   0.768  0.4252  0.2059  0.2145
  478SOL     OW 1909   4.289   3.836   0.843 -0.0766 -0.2687 -0.3682
  478SOL    HW2 1910   4.279   3.857   0.936  0.3461 -0.3353 -0.3059
  478SOL    HW3 1911   4.214   3.877   0.801 -0.9906 -1.3506  0.1732
  478SOL    MW4 1912   4.278   3.844   0.850 -0.1414 -0.4202 -0.2885
  479SOL     OW 1913   4.082   3.990   0.731 -0.0431 -0.6662 -0.0063
  479SOL    HW2 1914   4.003   3.947   0.761 -0.8230  0.1844 -0.8259
  479SOL    HW3 1915   4.093   3.961   0.641  0.2472 -0.3071 -0.0903
  479SOL    MW4 1916   4.073   3.980   0.723 -0.1077 -0.5066 -0.1255
  480SOL     OW 1917   4.053   4.244   0.821 -0.2305  0.2259  0.4966
  480SOL    HW2 1918   4.131   4.288   0.785 -0.0052  0.4658  1.2667
  480SOL    HW3 1919   4.056   4.156   0.783  0.4139  0.2374  0.5143
  480SOL    MW4 1920   4.064   4.238   0.811 -0.1157  0.2591  0.6006
  481SOL     OW 1921   4.279   4.350   0.709  0.5453  0.2138 -0.2340
  481SOL    HW2 1922   4.284   4.423   0.770  0.1925  0.0083  0.0397
  481SOL    HW3 1923   4.340   4.285   0.745  1.3139  0.6136 -0.8038
  481SOL    MW4 1924   4.288   4.351   0.722  0.6001  0.2394 -0.2731
  482SOL     OW 1925   0.211   4.649   1.122 -0.0607  0.2109 -0.0329
  482SOL    HW2 1926   0.292   4.691   1.152 -0.1859  2.1669 -2.3018
  482SOL    HW3 1927   0.226   4.634   1.029 -2.6592  1.5053 -0.6945
  482SOL    MW4 1928   0.224   4.653   1.114 -0.4200  0.6397 -0.4195
  483SOL     OW 1929   0.003   0.113   1.226  0.0982  0.0414 -0.2668
  483SOL    HW2 1930  -0.065   0.052   1.198 -0.0016  1.0109 -2.2651
  483SOL    HW3 1931   0.084   0.074   1.193  0.3958 -0.5536  1.1456
  483SOL    MW4 1932   0.005   0.100   1.218  0.1243  0.0908 -0.3441
  484SOL     OW 1933   0.005   0.374   1.143 -0.1108  0.2944  0.0511
  484SOL    HW2 1934  -0.062   0.426   1.187 -0.6399  0.4018 -0.8734
  484SOL    HW3 1935  -0.016   0.284   1.167  0.8111  0.4826  1.6618
  484SOL    MW4 1936  -0.007   0.369   1.152 -0.0590  0.3334  0.1416
  485SOL     OW 1937   0.238   0.471   1.263  0.4293 -0.2414 -0.0363
  485SOL    HW2 1938   0.243   0.564   1.240  1.6722 -0.5405 -1.0363
  485SOL    HW3 1939   0.154   0.442   1.229  0.1996  0.4318 -0.0500
  485SOL    MW4 1940   0.228   0.479   1.255  0.5630 -0.1921 -0.1700
  486SOL     OW 1941   0.221   0.746   1.198  0.4252  0.2501  0.4021
  486SOL    HW2 1942   0.301   0.793   1.222 -0.2443  0.9639  1.2754
  486SOL    HW3 1943   0.150   0.804   1.225 -0.3950  0.6906 -2.5029
  486SOL    MW4 1944   0.222   0.760   1.205  0.2287  0.4024  0.1341
  487SOL     OW 1945   0.031   0.927   1.281 -0.3388  0.0858  0.5990
  487SOL    HW2 1946   0.014   0.901   1.371  0.1965  0.2589  0.7528
  487SOL    HW3 1947  -0.036   0.882   1.229 -1.5735  1.1584  1.2420
  487SOL    MW4 1948   0.020   0.918   1.286 -0.4311  0.2502  0.7041
  488SOL     OW 1949   0.075   1.191   1.141  0.0405  0.6340 -0.2629
  488SOL    HW2 1950   0.001   1.241   1.177  1.0359  0.9776  1.3345
  488SOL    HW3 1951   0.074   1.109   1.190 -0.9050 -0.4840 -2.1077
  488SOL    MW4 1952   0.065   1.187   1.152  0.0471  0.5318 -0.2955
  489SOL     OW 1953   0.299   1.282   1.285 -0.1636 -0.2263 -0.0150
  489SOL    HW2 1954   0.363   1.219   1.252 -0.1903 -0.2967  0.0648
  489SOL    HW3 1955   0.217   1.258   1.242 -0.0371  0.1590 -0.4763
  489SOL    MW4 1956   0.296   1.270   1.275 -0.1504 -0.1848 -0.0653
  490SOL     OW 1957   0.245   1.541   1.152  0.0204 -0.5407 -0.4368
  490SOL    HW2 1958   0.237   1.448   1.170 -1.3922 -0.3244  0.0919
  490SOL    HW3 1959   0.257   1.546   1.057 -0.5199 -1.2219 -0.5446
  490SOL    MW4 1960   0.246   1.530   1.142 -0.2372 -0.6020 -0.3813
  491SOL     OW 1961   4.489   1.678   1.238  0.5837 -0.3926 -0.1112
  491SOL    HW2 1962   4.490   1.765   1.198 -0.5026 -1.2120 -2.0197
  491SOL    HW3 1963   4.568   1.635   1.204  0.0050 -0.8666 -0.8736
  491SOL    MW4 1964   4.500   1.684   1.228  0.3640 -0.5633 -0.4636
  492SOL     OW 1965   0.009   1.936   1.133  0.2229  0.3442  0.3453
  492SOL    HW2 1966  -0.065   1.988   1.164  0.3024  0.1885  0.8022
  492SOL    HW3 1967   0.000   1.935   1.038 -0.5951 -0.0143  0.4185
  492SOL    MW4 1968  -0.002   1.942   1.125  0.1254  0.2763  0.4152
  493SOL     OW 1969   0.202   2.083   1.257 -0.1900 -0.0102  0.1172
  493SOL    HW2 1970   0.222   2.153   1.195 -0.0384  0.3450  0.5686
  493SOL    HW3 1971   0.135   2.031   1.213  0.0509  0.1363 -0.4209
  493SOL    MW4 1972   0.195   2.085   1.243 -0.1382  0.0560  0.1058
  494SOL     OW 1973   0.239   2.307   1.089 -0.5356 -0.6799 -0.6310
  494SOL    HW2 1974   0.318   2.341   1.130 -0.0874 -0.5193 -1.6015
  494SOL    HW3 1975   0.168   2.363   1.121 -0.0607  0.0259 -0.8185
  494SOL    MW4 1976   0.240   2.319   1.098 -0.4138 -0.5656 -0.7838
  495SOL     OW 1977   4.485   2.445   1.202 -0.1997 -0.1306  0.4641
  495SOL    HW2 1978   4.477   2.458   1.296 -1.4053 -0.0120  0.3534
  495SOL    HW3 1979   4.411   2.388   1.179 -0.3352  0.4187 -0.5140
  495SOL    MW4 1980   4.474   2.439   1.211 -0.3767 -0.0425  0.3204
  496SOL     OW 1981   0.029   2.694   1.085 -0.0644 -0.3584  0.1131
  496SOL    HW2 1982  -0.036   2.746   1.132 -1.0019 -0.8063 -0.6666
  496SOL    HW3 1983   0.027   2.608   1.128 -0.4012 -0.5453 -0.2677
  496SOL    MW4 1984   0.020   2.689   1.097 -0.2325 -0.4422 -0.0400
  497SOL     OW 1985   0.247   2.797   1.214 -0.1045 -0.0779  0.1405
  497SOL    HW2 1986   0.222   2.819   1.303  0.5985  0.0091  0.3169
  497SOL    HW3 1987   0.167   2.761   1.175 -1.3498  2.8878 -0.2061
  497SOL    MW4 1988   0.233   2.796   1.220 -0.1761  0.3249  0.1181
  498SOL     OW 1989   0.242   3.071   1.143  0.1013 -0.5032 -0.3530
  498SOL    HW2 1990   0.310   3.118   1.190  1.0275 -0.4963 -1.6770
  498SOL    HW3 1991   0.258   2.979   1.164  1.4608 -0.6320 -1.8341
  498SOL    MW4 1992   0.253   3.065   1.152  0.4028 -0.5193 -0.7231
  499SOL     OW 1993   0.024   3.169   1.270  0.1631  0.4679 -0.3599
  499SOL    HW2 1994  -0.047   3.125   1.223 -1.1524  0.2515  1.7490
  499SOL    HW3 1995   0.104   3.129   1.236 -0.7946 -0.3910 -1.6572
  499SOL    MW4 1996   0.025   3.158   1.260 -0.1369  0.3260 -0.2528
  500SOL     OW 1997   0.041   3.446   1.183  0.1761 -0.3112 -0.1961
  500SOL    HW2 1998   0.021   3.358   1.213 -0.3205 -0.1348 -0.0081
  500SOL    HW3 1999   0.041   3.440   1.088 -1.1343 -0.2296 -0.1995
  500SOL    MW4 2000   0.039   3.434   1.174 -0.0623 -0.2771 -0.1717
  501SOL     OW 2001   0.254   3.621   1.255  0.3899 -0.2622 -0.2712
  501SOL    HW2 2002   0.261   3.638   1.349  0.1224 -0.0526 -0.2876
  501SOL    HW3 2003   0.181   3.558   1.248  0.1085  0.0754 -0.3778
  501SOL    MW4 2004   0.245   3.615   1.266  0.3175 -0.1900 -0.2874
  502SOL     OW 2005   0.229   3.840   1.099 -0.2920 -0.3016 -0.5593
  502SOL    HW2 2006   0.164   3.904   1.128  0.4091  0.6347 -1.0191
  502SOL    HW3 2007   0.224   3.770   1.163  0.2550  1.0934  1.0574
  502SOL    MW4 2008   0.220   3.839   1.111 -0.1273  0.0060 -0.4067
  503SOL     OW 2009   0.016   3.974   1.223  0.1525  0.0707 -0.1442
  503SOL    HW2 2010   0.004   3.995   1.315  1.4093 -1.5733  0.4100
  503SOL    HW3 2011  -0.067   3.934   1.197 -0.1898  0.4970  0.2644
  503SOL    MW4 2012   0.003   3.972   1.232  0.2731 -0.0900 -0.0171
  504SOL     OW 2013   4.471   4.214   1.114  0.4881  0.2646 -0.1898
  504SOL    HW2 2014   4.550   4.252   1.151 -0.0218 -0.7519  2.0065
  504SOL    HW3 2015   4.470   4.124   1.146 -2.8801  0.9830  2.0775
  504SOL    MW4 2016   4.481   4.207   1.123 -0.0236  0.2253  0.3991
  505SOL     OW 2017   0.206   4.372   1.206 -0.3507  0.0680  0.0015
  505SOL    HW2 2018   0.226   4.385   1.299 -0.2111  0.4987 -0.0894
  505SOL    HW3 2019   0.198   4.460   1.170  1.0802 -0.0741 -0.7181
  505SOL    MW4 2020   0.208   4.385   1.214 -0.1435  0.1061 -0.1054
  506SOL     OW 2021   0.632   4.646   1.115 -0.1719  0.5989  0.1576
  506SOL    HW2 2022   0.722   4.677   1.128 -1.2359  2.8925  2.6576
  506SOL    HW3 2023   0.634   4.556   1.146  1.3569  0.5129 -0.1259
  506SOL    MW4 2024   0.645   4.638   1.121 -0.1106  0.8902  0.4501
  507SOL     OW 2025   0.421   0.156   1.221  0.0349 -0.1473 -0.6866
  507SOL    HW2 2026   0.446   0.248   1.211  1.2590 -0.3236  0.6389
  507SOL    HW3 2027   0.488   0.108   1.173 -0.5503 -0.3525 -1.2958
  507SOL    MW4 2028   0.433   0.162   1.213  0.1192 -0.1976 -0.5921
  508SOL     OW 2029   0.510   0.422   1.191 -0.3085  0.2766 -0.2764
  508SOL    HW2 2030   0.423   0.462   1.193 -0.9749 -1.1437 -0.3678
  508SOL    HW3 2031   0.523   0.396   1.100 -0.5275 -1.0852  0.0702
  508SOL    MW4 2032   0.501   0.424   1.179 -0.4253 -0.0905 -0.2428
  509SOL     OW 2033   0.755   0.523   1.295  0.1388 -0.0534 -0.3432
  509SOL    HW2 2034   0.755   0.613   1.262 -1.3984  0.4146  0.8235
  509SOL    HW3 2035   0.667   0.490   1.273  0.2974 -0.8778  0.2357
  509SOL    MW4 2036   0.743   0.530   1.288 -0.0431 -0.1004 -0.1129
  510SOL     OW 2037   0.749   0.761   1.148  0.0842  0.0886 -0.2755
  510SOL    HW2 2038   0.661   0.791   1.172  0.2351 -0.2484  0.7143
  510SOL    HW3 2039   0.755   0.779   1.054 -0.7710  0.7808 -0.2080
  510SOL    MW4 2040   0.738   0.767   1.139 -0.0087  0.1355 -0.1360
  511SOL     OW 2041   0.478   0.848   1.256  0.4501  0.4758  0.1203
  511SOL    HW2 2042   0.472   0.866   1.350  0.2829 -0.9860  0.4030
  511SOL    HW3 2043   0.492   0.934   1.216 -0.0473  1.1833  1.4281
  511SOL    MW4 2044   0.479   0.862   1.263  0.3624  0.3762  0.3301
  512SOL     OW 2045   0.514   1.107   1.192  0.1749 -0.1657  0.2072
  512SOL    HW2 2046   0.595   1.151   1.219  0.4302  0.0000 -0.8123
  512SOL    HW3 2047   0.503   1.130   1.100 -1.1868  0.0408  0.4029
  512SOL    MW4 2048   0.523   1.116   1.184  0.0289 -0.1166  0.0985
  513SOL     OW 2049   0.709   1.269   1.288 -0.4253 -0.5247 -0.2706
  513SOL    HW2 2050   0.789   1.240   1.244  0.0781 -1.3134  1.1415
  513SOL    HW3 2051   0.696   1.358   1.256  1.7062  0.0621  0.3827
  513SOL    MW4 2052   0.718   1.277   1.278 -0.0777 -0.5513  0.0019
  514SOL     OW 2053   0.659   1.535   1.190 -0.1604 -0.2544  0.0376
  514SOL    HW2 2054   0.738   1.581   1.219  0.2571 -0.3872 -0.8520
  514SOL    HW3 2055   0.586   1.590   1.220  0.3476  1.4615 -1.7247
  514SOL    MW4 2056   0.660   1.548   1.198 -0.0383 -0.0455 -0.3123
  515SOL     OW 2057   0.443   1.697   1.269 -0.0880  0.1864  0.0089
  515SOL    HW2 2058   0.433   1.679   1.362  0.6432  0.3427  0.1225
  515SOL    HW3 2059   0.371   1.650   1.227 -0.7926  0.6169  0.7075
  515SOL    MW4 2060   0.432   1.689   1.276 -0.0845  0.2638  0.1161
  516SOL     OW 2061   0.407   1.949   1.163 -0.2762  0.2265  0.5200
  516SOL    HW2 2062   0.416   1.865   1.208  0.3710  0.2775  0.4969
  516SOL    HW3 2063   0.330   1.990   1.203 -0.4594 -0.2798  0.6860
  516SOL    MW4 2064   0.398   1.943   1.174 -0.2150  0.1664  0.5389
  517SOL     OW 2065   0.664   2.026   1.207 -0.5932 -0.3670 -0.0429
  517SOL    HW2 2066   0.694   2.028   1.298 -0.4799  1.8634 -0.0987
  517SOL    HW3 2067   0.581   1.978   1.210 -0.3123 -0.7993  1.1427
  517SOL    MW4 2068   0.657   2.020   1.220 -0.5412 -0.1298  0.1062
  518SOL     OW 2069   0.698   2.284   1.116 -0.5087 -0.2278 -0.3539
  518SOL    HW2 2070   0.625   2.333   1.153  0.5870 -0.0892  1.6969
  518SOL    HW3 2071   0.684   2.194   1.145  0.4137 -0.0988  0.5314
  518SOL    MW4 2072   0.687   2.278   1.125 -0.2424 -0.1925  0.0335
  519SOL     OW 2073   0.471   2.390   1.211 -0.0923  0.2209 -0.0318
  519SOL    HW2 2074   0.473   2.388   1.306 -0.4366  1.7000  0.0183
  519SOL    HW3 2075   0.491   2.481   1.188  2.3686 -0.6329 -1.4457
  519SOL    MW4 2076   0.474   2.402   1.220  0.1870  0.3034 -0.2117
  520SOL     OW 2077   0.490   2.670   1.141  0.5522  0.1337 -0.2672
  520SOL    HW2 2078   0.405   2.709   1.160  0.9082  1.2686 -0.9298
  520SOL    HW3 2079   0.492   2.661   1.046  0.1694 -2.2691 -0.0688
  520SOL    MW4 2080   0.479   2.674   1.131  0.5487 -0.0336 -0.3285
  521SOL     OW 2081   0.703   2.815   1.248 -0.5406  0.0686  0.1451
  521SOL    HW2 2082   0.690   2.902   1.209  0.6000  0.3233  0.3398
  521SOL    HW3 2083   0.627   2.765   1.218 -0.2097  0.5578 -1.5930
  521SOL    MW4 2084   0.691   2.820   1.239 -0.3465  0.1667 -0.0585
  522SOL     OW 2085   0.623   3.086   1.192  0.1196 -0.2602 -0.3572
  522SOL    HW2 2086   0.709   3.124   1.211  0.8540 -1.7288 -0.6424
  522SOL    HW3 2087   0.618   3.087   1.096 -0.4927  0.4470 -0.3297
  522SOL    MW4 2088   0.634   3.091   1.182  0.1357 -0.3607 -0.3912
  523SOL     OW 2089   0.416   3.247   1.277 -0.4634 -0.1550  0.2155
  523SOL    HW2 2090   0.410   3.325   1.222  0.4234 -0.7466 -0.7394
  523SOL    HW3 2091   0.499   3.207   1.252 -0.4814 -0.9078  1.3635
  523SOL    MW4 2092   0.426   3.252   1.266 -0.3488 -0.3323  0.2410
  524SOL     OW 2093   0.454   3.478   1.122 -0.1885 -0.0689  0.1902
  524SOL    HW2 2094   0.534   3.503   1.168 -0.4347  0.1476  0.5054
  524SOL    HW3 2095   0.385   3.527   1.166 -0.3297  0.7708 -0.9394
  524SOL    MW4 2096   0.455   3.488   1.134 -0.2396  0.0704  0.0827
  525SOL     OW 2097   0.719   3.573   1.207 -0.1200 -0.0347 -0.4123
  525SOL    HW2 2098   0.718   3.573   1.302 -1.3101 -1.2173 -0.4093
  525SOL    HW3 2099   0.715   3.665   1.182 -0.3928  0.2501  0.6804
  525SOL    MW4 2100   0.718   3.585   1.216 -0.3130 -0.1532 -0.2678
  526SOL     OW 2101   0.686   3.860   1.153  0.0328 -0.4013 -0.3362
  526SOL    HW2 2102   0.595   3.884   1.165 -0.3727 -2.0895  0.1005
  526SOL    HW3 2103   0.702   3.875   1.059 -0.6640  0.0015 -0.3930
  526SOL    MW4 2104   0.676   3.865   1.142 -0.1126 -0.5709 -0.2861
  527SOL     OW 2105   0.449   3.970   1.221  0.5102  0.0253  0.2221
  527SOL    HW2 2106   0.445   4.059   1.187  0.1512 -0.0832 -0.0188
  527SOL    HW3 2107   0.375   3.925   1.181  0.1056 -0.1195  1.1193
  527SOL    MW4 2108   0.439   3.976   1.211  0.4094 -0.0081  0.3087
  528SOL     OW 2109   0.440   4.225   1.097 -0.1207  0.1086  0.3252
  528SOL    HW2 2110   0.515   4.274   1.131 -0.4243 -0.8571  2.4459
  528SOL    HW3 2111   0.364   4.270   1.132 -0.4076 -1.6859  2.0903
  528SOL    MW4 2112   0.440   4.238   1.106 -0.1986 -0.2556  0.8379
  529SOL     OW 2113   0.622   4.393   1.203 -0.4164 -0.1967 -0.3934
  529SOL    HW2 2114   0.619   4.400   1.298  0.3917  3.1807 -0.5305
  529SOL    HW3 2115   0.712   4.366   1.183 -0.6905 -1.2591 -0.1817
  529SOL    MW4 2116   0.634   4.390   1.213 -0.3459  0.1088 -0.3835
  530SOL     OW 2117   1.102   4.660   1.097  0.1786  0.7636  0.2169
  530SOL    HW2 2118   1.113   4.565   1.106  0.8280  0.8373  0.1985
  530SOL    HW3 2119   1.105   4.676   1.003  1.4225  0.9599  0.2796
  530SOL    MW4 2120   1.104   4.649   1.086  0.4284  0.7992  0.2227
  531SOL     OW 2121   0.868   0.109   1.198 -0.1293 -0.3503  0.2967
  531SOL    HW2 2122   0.877   0.086   1.290  2.6368 -1.8173 -0.2802
  531SOL    HW3 2123   0.931   0.052   1.153 -1.5961  0.1786 -2.5192
  531SOL    MW4 2124   0.878   0.098   1.204  0.0421 -0.4741 -0.1509
  532SOL     OW 2125   0.931   0.360   1.145  0.5420 -0.0921 -0.6869
  532SOL    HW2 2126   0.909   0.267   1.152 -1.2476  0.3855  0.2044
  532SOL    HW3 2127   0.858   0.405   1.187  0.6932  1.7947 -2.4082
  532SOL    MW4 2128   0.919   0.354   1.152  0.3258  0.2199 -0.7964
  533SOL     OW 2129   1.149   0.512   1.239 -0.1492 -0.3049 -0.0664
  533SOL    HW2 2130   1.130   0.489   1.330 -0.0518 -1.2191 -0.2678
  533SOL    HW3 2131   1.085   0.464   1.188 -1.2167  1.4442 -0.4104
  533SOL    MW4 2132   1.138   0.503   1.244 -0.2772 -0.1948 -0.1383
  534SOL     OW 2133   1.132   0.782   1.132  0.1552 -0.3569  0.3340
  534SOL    HW2 2134   1.064   0.827   1.182 -0.1172  0.4971 -0.7918
  534SOL    HW3 2135   1.131   0.692   1.166 -0.6424 -0.0160  1.2253
  534SOL    MW4 2136   1.123   0.776   1.143  0.0140 -0.1992  0.3030
  535SOL     OW 2137   0.923   0.931   1.247  0.1491 -0.2389 -0.1491
  535SOL    HW2 2138   0.920   1.007   1.188 -0.6055 -0.4088 -0.3386
  535SOL    HW3 2139   0.862   0.868   1.208 -0.0945 -0.4892  0.6286
  535SOL    MW4 2140   0.914   0.933   1.234  0.0174 -0.2944 -0.0715
  536SOL     OW 2141   0.910   1.175   1.120  0.3946 -0.0568 -0.0489
  536SOL    HW2 2142   1.000   1.175   1.151  0.4839  1.1003 -0.2817
  536SOL    HW3 2143   0.917   1.194   1.026 -0.1732  1.3559  0.1906
  536SOL    MW4 2144   0.923   1.177   1.111  0.3315  0.2823 -0.0480
  537SOL     OW 2145   1.161   1.272   1.208  0.0178  0.3850  0.2915
  537SOL    HW2 2146   1.154   1.289   1.302  0.6159 -1.0120  0.6042
  537SOL    HW3 2147   1.252   1.243   1.195 -0.3238 -0.3461 -0.5546
  537SOL    MW4 2148   1.172   1.270   1.218  0.0517  0.1042  0.2211
  538SOL     OW 2149   1.147   1.536   1.092  0.6199 -0.2334 -0.3757
  538SOL    HW2 2150   1.154   1.442   1.106 -0.6723 -0.3778 -0.6334
  538SOL    HW3 2151   1.155   1.547   0.997  2.4335  0.0829 -0.2003
  538SOL    MW4 2152   1.149   1.525   1.082  0.6887 -0.2107 -0.3866
  539SOL     OW 2153   0.929   1.646   1.218  0.5190  0.3595 -0.1921
  539SOL    HW2 2154   0.928   1.730   1.172  0.5914  0.4667  0.0018
  539SOL    HW3 2155   1.007   1.602   1.184  1.0870  0.8173  0.5064
  539SOL    MW4 2156   0.939   1.651   1.207  0.6035  0.4341 -0.0743
  540SOL     OW 2157   0.915   1.902   1.095 -0.1677  0.3895  0.2083
  540SOL    HW2 2158   0.993   1.952   1.120  0.2039 -0.6042  1.0980
  540SOL    HW3 2159   0.842   1.958   1.121  0.2450  0.3661  1.4804
  540SOL    MW4 2160   0.916   1.916   1.102 -0.0642  0.2553  0.4935
  541SOL     OW 2161   1.132   2.072   1.188  0.0250  0.5506  0.0920
  541SOL    HW2 2162   1.136   2.093   1.282 -0.7631  0.8899  0.0543
  541SOL    HW3 2163   1.135   2.157   1.144 -2.2040  0.5517 -0.0950
  541SOL    MW4 2164   1.133   2.086   1.195 -0.3731  0.5955  0.0623
  542SOL     OW 2165   1.125   2.336   1.072  0.0716 -0.1901 -0.1390
  542SOL    HW2 2166   1.199   2.378   1.116  1.0137  0.4415 -2.2540
  542SOL    HW3 2167   1.047   2.369   1.118  1.0540 -0.2130  1.5718
  542SOL    MW4 2168   1.124   2.346   1.084  0.3255 -0.1097 -0.1923
  543SOL     OW 2169   0.914   2.413   1.229  0.2043 -0.1132  0.3046
  543SOL    HW2 2170   0.922   2.422   1.324  0.6763  1.2113  0.1584
  543SOL    HW3 2171   0.838   2.357   1.215 -0.3273  0.3163  1.4557
  543SOL    MW4 2172   0.905   2.407   1.239  0.1964  0.1182  0.4372
  544SOL     OW 2173   0.905   2.693   1.113  0.1866  0.3304  0.0618
  544SOL    HW2 2174   0.894   2.609   1.159  3.1967  0.7330  1.6322
  544SOL    HW3 2175   0.847   2.753   1.160  0.1321 -0.2162  0.7101
  544SOL    MW4 2176   0.896   2.690   1.126  0.5766  0.3114  0.3545
  545SOL     OW 2177   1.145   2.806   1.226 -0.1150  0.2837  0.3429
  545SOL    HW2 2178   1.145   2.799   1.322  0.1853  0.6876  0.3713
  545SOL    HW3 2179   1.059   2.773   1.200  0.4167 -1.3842  0.6422
  545SOL    MW4 2180   1.133   2.800   1.235 -0.0053  0.1170  0.3861
  546SOL     OW 2181   1.093   3.063   1.167  0.3909  0.3093 -0.5607
  546SOL    HW2 2182   1.122   2.973   1.175 -0.1103  0.1980  0.0229
  546SOL    HW3 2183   1.081   3.076   1.073 -2.1135 -1.0605 -0.4852
  546SOL    MW4 2184   1.095   3.053   1.156 -0.0056  0.1139 -0.4737
  547SOL     OW 2185   0.868   3.213   1.211 -0.4846 -0.2526 -0.4682
  547SOL    HW2 2186   0.897   3.298   1.178  0.5064 -0.7015 -0.7760
  547SOL    HW3 2187   0.941   3.154   1.191  0.2173 -0.5320  2.6027
  547SOL    MW4 2188   0.882   3.217   1.204 -0.2612 -0.3487 -0.1036
  548SOL     OW 2189   0.925   3.455   1.080 -0.0677  0.0937  0.2145
  548SOL    HW2 2190   0.844   3.497   1.109 -0.2756 -0.8944  1.0760
  548SOL    HW3 2191   0.924   3.463   0.985 -1.3909 -0.2904  0.1949
  548SOL    MW4 2192   0.914   3.462   1.071 -0.2697 -0.0873  0.3255
  549SOL     OW 2193   1.121   3.615   1.238  0.0670  0.0058  0.3608
  549SOL    HW2 2194   1.192   3.552   1.225 -0.4244 -0.2344 -1.3220
  549SOL    HW3 2195   1.051   3.584   1.181 -0.7967  1.1513  0.7765
  549SOL    MW4 2196   1.121   3.603   1.229 -0.1118  0.1252  0.1936
  550SOL     OW 2197   1.132   3.875   1.137  0.2516  0.1093 -0.1400
  550SOL    HW2 2198   1.060   3.922   1.179  0.7724  0.0493  0.8315
  550SOL    HW3 2199   1.127   3.786   1.173  0.7302  0.0720 -0.1623
  550SOL    MW4 2200   1.122   3.869   1.148  0.3834  0.0965 -0.0147
  551SOL     OW 2201   0.912   4.002   1.246 -0.0448 -0.1149  0.1900
  551SOL    HW2 2202   0.923   4.007   1.341  1.4713  0.2071  0.0012
  551SOL    HW3 2203   0.824   3.966   1.235 -0.1393 -0.4143  1.7195
  551SOL    MW4 2204   0.902   3.998   1.257  0.1427 -0.1119  0.3669
  552SOL     OW 2205   0.880   4.287   1.136  0.1996  0.1587  0.1586
  552SOL    HW2 2206   0.883   4.197   1.170 -0.7493 -0.1110 -0.4535
  552SOL    HW3 2207   0.883   4.277   1.041  0.5852  0.8018  0.0999
  552SOL    MW4 2208   0.881   4.274   1.128  0.1253  0.2080  0.0701
  553SOL     OW 2209   1.136   4.400   1.197  0.2214  0.0081 -0.2117
  553SOL    HW2 2210   1.122   4.413   1.291  0.9796  1.9419 -0.3292
  553SOL    HW3 2211   1.055   4.361   1.166 -0.0745 -0.5504  1.2383
  553SOL    MW4 2212   1.123   4.397   1.205  0.2824  0.1896 -0.0359
  554SOL     OW 2213   1.526   0.027   1.115 -0.6140  0.1003  0.5031
  554SOL    HW2 2214   1.605   0.070   1.148 -0.1129  0.6914 -1.4022
  554SOL    HW3 2215   1.538  -0.065   1.137 -0.2823  0.4676  1.9140
  554SOL    MW4 2216   1.538   0.020   1.123 -0.5041  0.2268  0.4378
  555SOL     OW 2217   1.314   0.136   1.245  0.1851 -0.0021 -0.0767
  555SOL    HW2 2218   1.386   0.094   1.199 -0.0991 -0.0394 -0.4856
  555SOL    HW3 2219   1.235   0.103   1.203 -0.0867 -0.2658  0.6283
  555SOL    MW4 2220   1.313   0.126   1.233  0.1117 -0.0418 -0.0376
  556SOL     OW 2221   1.361   0.391   1.130  0.2809 -0.6066 -0.3618
  556SOL    HW2 2222   1.362   0.313   1.184 -1.1943 -0.7813 -0.5752
  556SOL    HW3 2223   1.291   0.445   1.167  1.2161  0.5693 -0.2778
  556SOL    MW4 2224   1.352   0.388   1.142  0.2097 -0.4745 -0.3789
  557SOL     OW 2225   1.589   0.507   1.224 -0.1747  0.7028  0.0388
  557SOL    HW2 2226   1.606   0.596   1.192 -0.2705  1.3284  1.7085
  557SOL    HW3 2227   1.505   0.483   1.184 -1.0161  2.0434  0.9568
  557SOL    MW4 2228   1.580   0.515   1.214 -0.2984  0.9622  0.3802
  558SOL     OW 2229   1.609   0.742   1.103  0.2040  0.0597  0.7243
  558SOL    HW2 2230   1.664   0.815   1.129  0.3181 -0.1027  0.9404
  558SOL    HW3 2231   1.613   0.740   1.007  0.9005 -0.2111  0.7607
  558SOL    MW4 2232   1.617   0.751   1.094  0.3109  0.0025  0.7576
  559SOL     OW 2233   1.364   0.911   1.200 -0.1960 -0.2405 -0.3323
  559SOL    HW2 2234   1.435   0.858   1.164 -0.2361 -0.3045 -0.3180
  559SOL    HW3 2235   1.286   0.858   1.186  0.1329 -1.5600  2.4256
  559SOL    MW4 2236   1.363   0.897   1.193 -0.1579 -0.4230  0.0335
  560SOL     OW 2237   1.403   1.180   1.159  0.0990 -0.0241 -0.1865
  560SOL    HW2 2238   1.413   1.086   1.175  0.5628  0.0869  0.1632
  560SOL    HW3 2239   1.374   1.185   1.068 -0.6334 -0.5425  0.0112
  560SOL    MW4 2240   1.401   1.168   1.149  0.0635 -0.0778 -0.1143
  561SOL     OW 2241   1.636   1.269   1.254  0.0941  0.0692 -0.4553
  561SOL    HW2 2242   1.708   1.232   1.203  0.4375 -0.6548  0.5274
  561SOL    HW3 2243   1.559   1.220   1.226  0.2706 -0.2812 -0.3373
  561SOL    MW4 2244   1.635   1.257   1.244  0.1627 -0.0725 -0.3101
  562SOL     OW 2245   1.611   1.523   1.111  0.3638 -0.4809 -0.5139
  562SOL    HW2 2246   1.688   1.565   1.148  0.8009 -1.4861 -0.2614
  562SOL    HW3 2247   1.607   1.438   1.154 -1.2133 -0.2207 -0.1115
  562SOL    MW4 2248   1.620   1.517   1.121  0.2134 -0.5792 -0.4275
  563SOL     OW 2249   1.368   1.626   1.233  0.1200  0.1129  0.6601
  563SOL    HW2 2250   1.443   1.586   1.190  0.2713 -0.2615  1.2739
  563SOL    HW3 2251   1.292   1.580   1.196  0.2510 -0.2258  0.8102
  563SOL    MW4 2252   1.368   1.615   1.223  0.1573  0.0188  0.7609
  564SOL     OW 2253   1.360   1.900   1.130  0.2145 -0.1157 -0.0943
  564SOL    HW2 2254   1.358   1.808   1.156 -1.6348  0.0558  0.4773
  564SOL    HW3 2255   1.285   1.939   1.176  1.0165  1.6817 -0.2820
  564SOL    MW4 2256   1.350   1.893   1.140  0.0764  0.1440 -0.0437
  565SOL     OW 2257   1.547   2.075   1.274 -0.8153 -0.0110 -0.8678
  565SOL    HW2 2258   1.529   2.147   1.214 -0.4227 -0.8942 -2.0530
  565SOL    HW3 2259   1.493   2.003   1.242 -2.0683  0.0609  0.9732
  565SOL    MW4 2260   1.537   2.075   1.262 -0.9288 -0.1180 -0.7813
  566SOL     OW 2261   1.605   2.309   1.101 -0.4794 -0.3265  0.1110
  566SOL    HW2 2262   1.525   2.353   1.131  0.6800  1.6375  0.4070
  566SOL    HW3 2263   1.606   2.322   1.006  0.1057  0.7046  0.2572
  566SOL    MW4 2264   1.595   2.316   1.092 -0.2492  0.0687  0.1693
  567SOL     OW 2265   1.369   2.435   1.185  0.0959 -0.1318  0.2010
  567SOL    HW2 2266   1.362   2.451   1.279 -1.6243 -1.0188  0.2423
  567SOL    HW3 2267   1.380   2.522   1.147 -1.8292  0.4884  1.0220
  567SOL    MW4 2268   1.369   2.449   1.193 -0.3851 -0.1670  0.3147
  568SOL     OW 2269   1.394   2.705   1.120  0.1862  0.1786  0.0447
  568SOL    HW2 2270   1.456   2.743   1.182  0.0841 -0.4399  0.5248
  568SOL    HW3 2271   1.308   2.730   1.152  0.2068  2.5429 -1.5890
  568SOL    MW4 2272   1.391   2.714   1.132  0.1755  0.4089 -0.1075
  569SOL     OW 2273   1.588   2.816   1.272 -0.0525 -0.4714 -0.1921
  569SOL    HW2 2274   1.661   2.771   1.230  0.3833 -0.3010  0.3641
  569SOL    HW3 2275   1.585   2.901   1.230  1.4931  0.3556  1.2753
  569SOL    MW4 2276   1.597   2.821   1.261  0.2089 -0.3398  0.0749
  570SOL     OW 2277   1.564   3.062   1.162  0.3020  0.5973  0.0403
  570SOL    HW2 2278   1.635   3.117   1.195  0.3254  2.0158 -2.2863
  570SOL    HW3 2279   1.484   3.110   1.184  0.2518  0.8336 -0.6434
  570SOL    MW4 2280   1.563   3.075   1.170  0.2985  0.8156 -0.3569
  571SOL     OW 2281   1.333   3.196   1.238 -0.4294 -0.5987  0.4858
  571SOL    HW2 2282   1.346   3.208   1.332  0.7731  1.2670  0.1012
  571SOL    HW3 2283   1.255   3.140   1.232 -1.0345 -0.0373  2.5737
  571SOL    MW4 2284   1.324   3.190   1.250 -0.3506 -0.2785  0.7105
  572SOL     OW 2285   1.354   3.461   1.150  0.2818  0.0524  0.0053
  572SOL    HW2 2286   1.349   3.365   1.158 -0.1783 -0.0007 -0.8525
  572SOL    HW3 2287   1.359   3.476   1.056  0.5609  0.8681  0.1539
  572SOL    MW4 2288   1.354   3.450   1.139  0.2579  0.1530 -0.0883
  573SOL     OW 2289   1.560   3.620   1.235  0.0877  0.1820  0.1691
  573SOL    HW2 2290   1.542   3.710   1.208  0.9729  0.4519  0.4551
  573SOL    HW3 2291   1.480   3.572   1.214 -0.5558  1.1221  0.4136
  573SOL    MW4 2292   1.547   3.626   1.229  0.1196  0.3416  0.2391
  574SOL     OW 2293   1.593   3.893   1.136 -0.3586  0.6753 -0.2461
  574SOL    HW2 2294   1.507   3.932   1.147 -0.1971  0.8817  0.3005
  574SOL    HW3 2295   1.605   3.887   1.041 -0.3706  1.9951 -0.3488
  574SOL    MW4 2296   1.584   3.898   1.125 -0.3389  0.8766 -0.1876
  575SOL     OW 2297   1.363   4.017   1.209  0.0153  0.4268  0.1651
  575SOL    HW2 2298   1.356   4.097   1.158 -1.6657  0.0313 -0.2796
  575SOL    HW3 2299   1.288   3.964   1.181 -0.3663 -0.2253  2.2925
  575SOL    MW4 2300   1.352   4.020   1.199 -0.2569  0.2886  0.3871
  576SOL     OW 2301   1.375   4.282   1.108  0.2320  0.3011  0.0499
  576SOL    HW2 2302   1.296   4.328   1.137  0.3110  0.4050  0.1007
  576SOL    HW3 2303   1.373   4.290   1.013 -0.1329 -0.2168  0.0147
  576SOL    MW4 2304   1.364   4.289   1.099  0.1943  0.2465  0.0519
  577SOL     OW 2305   1.583   4.423   1.227  0.1600  0.0357  0.1685
  577SOL    HW2 2306   1.566   4.429   1.321  0.1455  0.0211  0.1667
  577SOL    HW3 2307   1.510   4.371   1.193 -0.9048  1.6710 -0.1441
  577SOL    MW4 2308   1.571   4.417   1.235  0.0176  0.2496  0.1270
  578SOL     OW 2309   1.996   0.019   1.103  0.0745  0.4483 -0.6191
  578SOL    HW2 2310   2.007  -0.069   1.139  1.1991  0.9396  0.2803
  578SOL    HW3 2311   1.978   0.005   1.010 -0.6565 -0.7603 -0.3007
  578SOL    MW4 2312   1.995   0.005   1.096  0.1264  0.3537 -0.4584
  579SOL     OW 2313   1.761   0.160   1.194  0.0672 -0.4837 -0.1718
  579SOL    HW2 2314   1.784   0.246   1.157  0.7020 -0.9453 -0.8714
  579SOL    HW3 2315   1.833   0.103   1.167 -0.7337 -1.4164 -0.3696
  579SOL    MW4 2316   1.774   0.164   1.185  0.0453 -0.6677 -0.2902
  580SOL     OW 2317   1.801   0.419   1.077 -0.1636 -0.3987 -0.3388
  580SOL    HW2 2318   1.718   0.433   1.123  0.0384  2.9812 -0.8700
  580SOL    HW3 2319   1.776   0.407   0.986 -0.1880 -1.7092 -0.1747
  580SOL    MW4 2320   1.787   0.419   1.071 -0.1402 -0.1257 -0.3872
  581SOL     OW 2321   2.036   0.541   1.194  0.4361  0.1965  0.4374
  581SOL    HW2 2322   2.033   0.552   1.289  0.1635  0.4245  0.4065
  581SOL    HW3 2323   1.949   0.508   1.171  1.2801 -2.1839  0.5301
  581SOL    MW4 2324   2.024   0.538   1.203  0.5115 -0.0875  0.4456
  582SOL     OW 2325   2.026   0.792   1.078  0.3222  0.5057  0.0522
  582SOL    HW2 2326   2.039   0.706   1.119  0.8251  0.4099 -0.3020
  582SOL    HW3 2327   2.013   0.772   0.986 -0.8031  0.7222  0.1632
  582SOL    MW4 2328   2.026   0.778   1.071  0.2401  0.5216  0.0201
  583SOL     OW 2329   1.818   0.909   1.217  0.4129 -0.2145 -0.1576
  583SOL    HW2 2330   1.818   0.886   1.310  0.1064  0.3360 -0.0201
  583SOL    HW3 2331   1.897   0.868   1.182 -0.2741 -1.7255  0.0204
  583SOL    MW4 2332   1.829   0.900   1.224  0.2818 -0.3412 -0.1160
  584SOL     OW 2333   1.859   1.165   1.122  0.0535  0.4532 -0.3834
  584SOL    HW2 2334   1.845   1.083   1.170 -0.7801  1.0964  0.5015
  584SOL    HW3 2335   1.852   1.140   1.030  2.5160 -0.9627 -0.2480
  584SOL    MW4 2336   1.856   1.151   1.116  0.2684  0.3513 -0.2488
  585SOL     OW 2337   2.059   1.335   1.200  0.5199  0.3995 -0.4524
  585SOL    HW2 2338   2.140   1.291   1.174  0.3910  0.0067 -0.2013
  585SOL    HW3 2339   1.990   1.277   1.172  0.2814  1.1913 -1.5235
  585SOL    MW4 2340   2.061   1.322   1.193  0.4714  0.4521 -0.5606
  586SOL     OW 2341   2.055   1.599   1.091  0.4869 -0.0807  0.3908
  586SOL    HW2 2342   2.060   1.508   1.122 -0.9273 -0.5908 -0.7934
  586SOL    HW3 2343   2.049   1.591   0.995 -1.6493  1.1459  0.3892
  586SOL    MW4 2344   2.055   1.586   1.082  0.0185  0.0139  0.2343
  587SOL     OW 2345   1.816   1.673   1.215  0.0323  0.3841  0.1157
  587SOL    HW2 2346   1.796   1.764   1.195 -1.9010 -0.0029  0.1995
  587SOL    HW3 2347   1.905   1.660   1.182 -0.2692  1.8526 -1.3273
  587SOL    MW4 2348   1.825   1.683   1.208 -0.2625  0.5268 -0.0636
  588SOL     OW 2349   1.765   1.955   1.127 -0.1975  0.3749 -0.0068
  588SOL    HW2 2350   1.709   2.022   1.167  0.5650  0.2809  1.2723
  588SOL    HW3 2351   1.771   1.979   1.035 -2.1550  0.5089 -0.1104
  588SOL    MW4 2352   1.759   1.967   1.120 -0.3552  0.3802  0.1483
  589SOL     OW 2353   2.018   2.058   1.182 -0.2502 -0.5196  0.0610
  589SOL    HW2 2354   2.010   2.071   1.276  0.8316 -1.9450  0.3638
  589SOL    HW3 2355   1.943   2.003   1.158  1.5923 -3.4472  0.7842
  589SOL    MW4 2356   2.007   2.053   1.191  0.1356 -1.0939  0.1964
  590SOL     OW 2357   2.034   2.315   1.067  0.1819 -0.1283  0.5493
  590SOL    HW2 2358   2.114   2.330   1.118 -0.0461 -0.6384  1.0587
  590SOL    HW3 2359   2.010   2.225   1.087  0.2566 -0.4307 -0.6950
  590SOL    MW4 2360   2.042   2.305   1.076  0.1617 -0.2355  0.4523
  591SOL     OW 2361   1.832   2.430   1.218 -0.2994 -0.1756 -0.2866
  591SOL    HW2 2362   1.904   2.395   1.165  0.8542  2.1724 -0.3148
  591SOL    HW3 2363   1.755   2.382   1.188  0.9356 -1.4387 -1.5401
  591SOL    MW4 2364   1.832   2.419   1.207  0.0158 -0.0325 -0.4557
  592SOL     OW 2365   1.791   2.699   1.148 -0.1351  0.1612 -0.2945
  592SOL    HW2 2366   1.806   2.605   1.158  1.1967  0.5267  1.2869
  592SOL    HW3 2367   1.805   2.715   1.054 -1.2514 -1.3478 -0.7519
  592SOL    MW4 2368   1.795   2.688   1.137 -0.1067  0.0104 -0.1462
  593SOL     OW 2369   2.021   2.824   1.234 -0.2588  0.1265  0.1658
  593SOL    HW2 2370   2.016   2.918   1.220 -1.9205  0.3914  2.1651
  593SOL    HW3 2371   1.938   2.790   1.201 -0.8442 -0.2345  1.9141
  593SOL    MW4 2372   2.009   2.832   1.228 -0.5553  0.1138  0.6602
  594SOL     OW 2373   2.020   3.092   1.116 -0.3309  0.1049  0.0593
  594SOL    HW2 2374   1.934   3.132   1.133 -0.1640  0.5674 -0.1912
  594SOL    HW3 2375   2.024   3.082   1.021  0.2020  0.7738  0.0082
  594SOL    MW4 2376   2.009   3.096   1.106 -0.2386  0.2542  0.0195
  595SOL     OW 2377   1.795   3.212   1.228 -0.1729  0.0242  0.6009
  595SOL    HW2 2378   1.813   3.218   1.322  2.6036  2.1318  0.0075
  595SOL    HW3 2379   1.803   3.301   1.196  1.2626 -0.9836 -2.0071
  595SOL    MW4 2380   1.799   3.224   1.236  0.3828  0.1693  0.1785
  596SOL     OW 2381   1.801   3.496   1.124 -0.4113 -0.0237  0.3412
  596SOL    HW2 2382   1.873   3.551   1.154  0.3794 -0.4735 -0.6989
  596SOL    HW3 2383   1.726   3.525   1.175  0.8926 -0.8307  2.7917
  596SOL    MW4 2384   1.801   3.507   1.135 -0.1349 -0.1895  0.5273
  597SOL     OW 2385   2.009   3.655   1.211 -0.1335 -0.5653 -0.2434
  597SOL    HW2 2386   2.024   3.663   1.305  0.4711  0.1220 -0.3888
  597SOL    HW3 2387   2.079   3.597   1.180 -0.1500 -0.5454 -0.3187
  597SOL    MW4 2388   2.020   3.648   1.220 -0.0559 -0.4720 -0.2725
  598SOL     OW 2389   2.030   3.918   1.146 -0.1788 -0.4863 -0.0281
  598SOL    HW2 2390   1.949   3.957   1.178 -0.5623 -1.0352 -0.3136
  598SOL    HW3 2391   2.029   3.829   1.181  1.3885  0.1682  1.8393
  598SOL    MW4 2392   2.020   3.911   1.155 -0.0226 -0.4724  0.1806
  599SOL     OW 2393   1.807   4.039   1.247 -0.3090 -0.6117  0.0204
  599SOL    HW2 2394   1.815   4.040   1.342  1.3978 -2.0524 -0.0728
  599SOL    HW3 2395   1.749   3.966   1.228  0.2610 -1.0360 -0.0933
  599SOL    MW4 2396   1.801   4.030   1.257 -0.0086 -0.8578 -0.0069
  600SOL     OW 2397   1.804   4.289   1.132  0.3847 -0.3667 -0.0939
  600SOL    HW2 2398   1.803   4.202   1.172  0.7956 -0.4359 -0.2382
  600SOL    HW3 2399   1.741   4.339   1.184  1.7954 -0.1137  1.3982
  600SOL    MW4 2400   1.795   4.284   1.144  0.6250 -0.3425  0.0839
  601SOL     OW 2401   2.034   4.404   1.187  0.0876  0.7505 -0.0446
  601SOL    HW2 2402   2.041   4.405   1.282  1.4816  0.3443 -0.1228
  601SOL    HW3 2403   1.946   4.370   1.169 -0.4187  1.4511  1.0954
  601SOL    MW4 2404   2.024   4.400   1.197  0.2047  0.7893  0.0955
  602SOL     OW 2405   2.449   0.008   1.108 -0.2958 -0.0188  0.2862
  602SOL    HW2 2406   2.525   0.062   1.129 -0.2610  0.1980 -0.3660
  602SOL    HW3 2407   2.378   0.047   1.159 -0.1947  0.4254  0.0918
  602SOL    MW4 2408   2.450   0.020   1.117 -0.2779  0.0684  0.1745
  603SOL     OW 2409   2.234   0.137   1.210 -0.5312  0.4748 -0.3932
  603SOL    HW2 2410   2.241   0.214   1.154  0.0633 -0.1005 -1.1137
  603SOL    HW3 2411   2.161   0.087   1.173 -0.7357  0.5481 -0.0940
  603SOL    MW4 2412   2.225   0.140   1.198 -0.4797  0.4085 -0.4488
  604SOL     OW 2413   2.265   0.388   1.112  0.8469 -0.3528 -0.4171
  604SOL    HW2 2414   2.185   0.437   1.129  0.3027 -1.5604  0.5013
  604SOL    HW3 2415   2.283   0.405   1.019 -0.3163  0.1334 -0.5667
  604SOL    MW4 2416   2.257   0.397   1.102  0.6216 -0.4480 -0.3157
  605SOL     OW 2417   2.510   0.493   1.217  0.0369 -0.2254  0.0858
  605SOL    HW2 2418   2.512   0.490   1.313  1.0525 -0.6736  0.0619
  605SOL    HW3 2419   2.422   0.466   1.194 -0.2839  0.1037  0.9046
  605SOL    MW4 2420   2.499   0.489   1.227  0.1286 -0.2411  0.1907
  606SOL     OW 2421   2.473   0.761   1.083  0.0224 -0.0230 -0.3956
  606SOL    HW2 2422   2.472   0.669   1.110 -1.7702 -0.3046 -1.3425
  606SOL    HW3 2423   2.467   0.758   0.987 -0.9892  1.0914 -0.3744
  606SOL    MW4 2424   2.472   0.749   1.074 -0.3476  0.0869 -0.5177
  607SOL     OW 2425   2.267   0.920   1.195  0.0185 -0.4120  0.5252
  607SOL    HW2 2426   2.341   0.872   1.156 -0.1863 -1.5766  1.5273
  607SOL    HW3 2427   2.190   0.874   1.162 -0.2602  0.6492 -0.3151
  607SOL    MW4 2428   2.267   0.907   1.185 -0.0453 -0.4256  0.5465
  608SOL     OW 2429   2.273   1.188   1.100 -0.1315  0.6184  0.2650
  608SOL    HW2 2430   2.358   1.219   1.131  0.2597 -0.0001 -0.2005
  608SOL    HW3 2431   2.269   1.097   1.127  0.2878  0.0096 -1.6595
  608SOL    MW4 2432   2.284   1.180   1.108 -0.0246  0.4564 -0.0503
  609SOL     OW 2433   2.512   1.306   1.222  0.7726  0.3905 -0.0491
  609SOL    HW2 2434   2.583   1.256   1.183  1.3627  0.1593  1.3086
  609SOL    HW3 2435   2.519   1.393   1.181  0.9840 -0.0352 -0.9209
  609SOL    MW4 2436   2.522   1.311   1.211  0.8784  0.3038  0.0150
  610SOL     OW 2437   2.511   1.554   1.079  0.0040 -0.1038 -0.0657
  610SOL    HW2 2438   2.447   1.622   1.100  1.2974  1.3309 -0.6534
  610SOL    HW3 2439   2.523   1.563   0.984  1.9332  0.4198  0.2202
  610SOL    MW4 2440   2.504   1.564   1.069  0.4292  0.1546 -0.1055
  611SOL     OW 2441   2.298   1.717   1.153 -0.0869 -0.3823  0.1276
  611SOL    HW2 2442   2.297   1.809   1.127 -0.7290 -0.1940  0.8045
  611SOL    HW3 2443   2.216   1.681   1.118  0.5837 -0.9269 -0.9225
  611SOL    MW4 2444   2.287   1.724   1.145 -0.0832 -0.4293  0.0784
  612SOL     OW 2445   2.258   1.965   1.057 -0.2684  0.0571  0.4808
  612SOL    HW2 2446   2.175   2.000   1.091  0.0914  0.5435  0.8511
  612SOL    HW3 2447   2.243   1.956   0.963 -0.9285 -0.3646  0.6176
  612SOL    MW4 2448   2.245   1.968   1.049 -0.3080  0.0657  0.5477
  613SOL     OW 2449   2.497   2.060   1.200 -0.1071  0.1195  0.3572
  613SOL    HW2 2450   2.571   2.008   1.169  0.2735  1.3639 -0.8741
  613SOL    HW3 2451   2.422   2.029   1.150  0.3963  1.7222 -1.4489
  613SOL    MW4 2452   2.497   2.049   1.189  0.0095  0.4951 -0.0435
  614SOL     OW 2453   2.502   2.323   1.147 -0.0525 -0.2558  0.0568
  614SOL    HW2 2454   2.510   2.231   1.175 -0.0147 -0.0420  0.7723
  614SOL    HW3 2455   2.491   2.318   1.052  0.7461 -0.9635 -0.0133
  614SOL    MW4 2456   2.502   2.310   1.138  0.0578 -0.3209  0.1419
  615SOL     OW 2457   2.260   2.442   1.201  0.2135 -0.3270  0.0265
  615SOL    HW2 2458   2.252   2.452   1.296 -0.6434 -3.6871  0.3810
  615SOL    HW3 2459   2.347   2.405   1.188  0.8270  1.3176 -0.6302
  615SOL    MW4 2460   2.271   2.438   1.212  0.1814 -0.5534 -0.0134
  616SOL     OW 2461   2.235   2.698   1.119  0.1352 -0.0828 -0.5421
  616SOL    HW2 2462   2.243   2.604   1.138  1.3301  0.2446  0.6386
  616SOL    HW3 2463   2.167   2.729   1.179  1.2027  0.1974  0.5456
  616SOL    MW4 2464   2.227   2.689   1.130  0.4337 -0.0027 -0.2428
  617SOL     OW 2465   2.482   2.824   1.219 -0.6617  0.5185 -0.1260
  617SOL    HW2 2466   2.475   2.816   1.314  0.6184 -1.9772 -0.2120
  617SOL    HW3 2467   2.402   2.784   1.185 -0.4098  0.0302 -0.1453
  617SOL    MW4 2468   2.470   2.818   1.227 -0.4595  0.1248 -0.1399
  618SOL     OW 2469   2.447   3.082   1.085 -0.1822 -0.1092 -0.0235
  618SOL    HW2 2470   2.362   3.115   1.113  0.2563  0.6777  0.4096
  618SOL    HW3 2471   2.458   3.000   1.132 -0.8923 -0.4345 -0.4165
  618SOL    MW4 2472   2.437   3.076   1.095 -0.2181 -0.0483 -0.0182
  619SOL     OW 2473   2.245   3.236   1.191 -0.5397 -0.0174  0.1400
  619SOL    HW2 2474   2.240   3.323   1.151 -1.9415  0.6639  1.7324
  619SOL    HW3 2475   2.162   3.194   1.170 -0.1243 -0.7458 -0.0877
  619SOL    MW4 2476   2.234   3.242   1.183 -0.6699 -0.0236  0.3201
  620SOL     OW 2477   2.210   3.525   1.096  0.0481  0.4040  0.4822
  620SOL    HW2 2478   2.299   3.538   1.128  0.0131  1.1500  0.2929
  620SOL    HW3 2479   2.222   3.502   1.003  0.0374  0.7059  0.4049
  620SOL    MW4 2480   2.223   3.524   1.088  0.0420  0.5422  0.4470
  621SOL     OW 2481   2.455   3.594   1.207 -0.1468  0.1249  0.5511
  621SOL    HW2 2482   2.455   3.592   1.303  0.2919  0.4288  0.5608
  621SOL    HW3 2483   2.457   3.687   1.185 -1.7658  0.0888  0.2390
  621SOL    MW4 2484   2.456   3.606   1.217 -0.3025  0.1602  0.5112
  622SOL     OW 2485   2.468   3.866   1.146 -0.5690  0.1578  0.2593
  622SOL    HW2 2486   2.404   3.928   1.181  0.2551  0.6176  0.9871
  622SOL    HW3 2487   2.465   3.880   1.051 -1.9839 -0.2724  0.2318
  622SOL    MW4 2488   2.459   3.876   1.138 -0.6470  0.1617  0.3517
  623SOL     OW 2489   2.264   4.046   1.239 -0.0782  0.1002 -0.3794
  623SOL    HW2 2490   2.280   4.130   1.196 -1.0562  0.3795 -0.1971
  623SOL    HW3 2491   2.178   4.019   1.208  0.3923 -1.0288 -0.7403
  623SOL    MW4 2492   2.255   4.053   1.229 -0.1451 -0.0119 -0.4030
  624SOL     OW 2493   2.301   4.293   1.126 -0.2840  0.2499 -0.5688
  624SOL    HW2 2494   2.216   4.327   1.153  0.0935  1.3491 -0.7155
  624SOL    HW3 2495   2.312   4.325   1.036  0.9140  1.3798 -0.0436
  624SOL    MW4 2496   2.291   4.302   1.118 -0.0761  0.5440 -0.5189
  625SOL     OW 2497   2.518   4.434   1.224  0.0074  0.4416  0.0237
  625SOL    HW2 2498   2.455   4.376   1.182  0.4778  0.3788 -0.6003
  625SOL    HW3 2499   2.495   4.521   1.191 -0.1934  0.5166  0.3482
  625SOL    MW4 2500   2.506   4.438   1.214  0.0429  0.4432 -0.0158
  626SOL     OW 2501   2.925   0.004   1.108  0.0600  0.6661 -0.3980
  626SOL    HW2 2502   2.922  -0.089   1.128 -0.3725  0.6385 -0.5961
  626SOL    HW3 2503   2.925   0.008   1.012 -0.1612  0.8785 -0.3877
  626SOL    MW4 2504   2.925  -0.008   1.098 -0.0263  0.6905 -0.4228
  627SOL     OW 2505   2.682   0.135   1.189 -0.2903  0.3298 -0.0954
  627SOL    HW2 2506   2.682   0.118   1.283 -0.0385  0.3599 -0.0896
  627SOL    HW3 2507   2.767   0.104   1.158 -1.0666 -1.3163 -0.6207
  627SOL    MW4 2508   2.693   0.129   1.197 -0.3595  0.1166 -0.1639
  628SOL     OW 2509   2.658   0.353   1.024  0.3824 -0.1196  0.1027
  628SOL    HW2 2510   2.667   0.273   1.074 -1.0936  0.2481  0.9818
  628SOL    HW3 2511   2.594   0.405   1.072 -0.3500  0.6499 -1.6353
  628SOL    MW4 2512   2.651   0.350   1.037  0.0910  0.0304 -0.0107
  629SOL     OW 2513   2.890   0.427   1.205  0.4610 -0.4285  0.1006
  629SOL    HW2 2514   2.898   0.520   1.183  2.4836 -0.2323  1.4913
  629SOL    HW3 2515   2.819   0.395   1.150 -0.1594  1.9070 -0.5131
  629SOL    MW4 2516   2.882   0.435   1.195  0.6460 -0.0945  0.2031
  630SOL     OW 2517   2.902   0.695   1.156 -0.0478 -0.1077  0.0522
  630SOL    HW2 2518   2.982   0.738   1.186  0.2450 -1.0981  0.7251
  630SOL    HW3 2519   2.832   0.756   1.179  0.6300  1.4908 -1.9627
  630SOL    MW4 2520   2.903   0.709   1.163  0.0802 -0.0275 -0.1249
  631SOL     OW 2521   2.703   0.850   1.252  0.4990  0.4861  0.0830
  631SOL    HW2 2522   2.694   0.942   1.225 -2.2140  0.4042  0.6526
  631SOL    HW3 2523   2.626   0.807   1.217  0.9686 -1.2787  1.1648
  631SOL    MW4 2524   2.692   0.857   1.244  0.2030  0.2425  0.3009
  632SOL     OW 2525   2.690   1.104   1.136  0.1371  0.0001 -0.3797
  632SOL    HW2 2526   2.762   1.162   1.160 -0.9889  1.2540  0.0297
  632SOL    HW3 2527   2.703   1.087   1.043 -0.5064  2.3432 -0.9203
  632SOL    MW4 2528   2.701   1.109   1.127 -0.0963  0.4747 -0.3970
  633SOL     OW 2529   2.910   1.250   1.220 -0.1098 -0.0657  0.0747
  633SOL    HW2 2530   2.919   1.262   1.314 -0.8517  0.1740  0.1184
  633SOL    HW3 2531   2.904   1.339   1.185  1.4776 -0.1130 -0.3349
  633SOL    MW4 2532   2.910   1.263   1.227  0.0017 -0.0403  0.0264
  634SOL     OW 2533   2.938   1.521   1.137  0.3179 -0.3379 -0.0920
  634SOL    HW2 2534   3.020   1.554   1.175  0.0440  0.6521 -0.3383
  634SOL    HW3 2535   2.952   1.528   1.043  0.0952 -0.5243 -0.1367
  634SOL    MW4 2536   2.951   1.526   1.130  0.2524 -0.2319 -0.1304
  635SOL     OW 2537   2.721   1.667   1.215 -0.2361  0.2065 -0.2184
  635SOL    HW2 2538   2.804   1.630   1.184 -0.1573  0.0664  0.1560
  635SOL    HW3 2539   2.654   1.621   1.165 -0.1331 -0.3711  0.1641
  635SOL    MW4 2540   2.723   1.656   1.205 -0.2121  0.1118 -0.1185
  636SOL     OW 2541   2.686   1.896   1.103  0.2090 -0.3974 -0.0801
  636SOL    HW2 2542   2.761   1.948   1.130 -0.5218  0.4076  0.4041
  636SOL    HW3 2543   2.696   1.814   1.151 -0.2343  0.4248  1.4229
  636SOL    MW4 2544   2.697   1.892   1.113  0.0541 -0.1827  0.1821
  637SOL     OW 2545   2.926   2.062   1.140  0.1089  0.2205  0.0102
  637SOL    HW2 2546   2.945   2.049   1.233 -0.5168 -0.2001  0.0817
  637SOL    HW3 2547   2.946   2.154   1.124  1.2537  0.0326  0.3100
  637SOL    MW4 2548   2.931   2.073   1.150  0.1774  0.1402  0.0592
  638SOL     OW 2549   2.950   2.324   1.094  0.2398 -0.2150  0.0177
  638SOL    HW2 2550   3.034   2.351   1.130  0.1255  1.2405 -0.7891
  638SOL    HW3 2551   2.885   2.366   1.150  0.0382 -1.1726  0.5149
  638SOL    MW4 2552   2.953   2.333   1.106  0.1981 -0.1493 -0.0231
  639SOL     OW 2553   2.749   2.453   1.226 -0.3480  0.2630  0.6138
  639SOL    HW2 2554   2.733   2.473   1.318 -0.5255 -0.5250  0.7648
  639SOL    HW3 2555   2.664   2.421   1.194  0.1237 -1.0118  0.6110
  639SOL    MW4 2556   2.736   2.451   1.234 -0.3092 -0.0091  0.6333
  640SOL     OW 2557   2.693   2.700   1.103 -0.6041  0.5499  0.4903
  640SOL    HW2 2558   2.711   2.616   1.145 -0.4821  0.6669  0.6744
  640SOL    HW3 2559   2.623   2.738   1.155 -1.3036  0.1532 -0.1465
  640SOL    MW4 2560   2.686   2.694   1.115 -0.6803  0.5130  0.4306
  641SOL     OW 2561   2.906   2.823   1.189 -0.4673  0.5321  0.2361
  641SOL    HW2 2562   2.899   2.807   1.283 -0.3945  0.0780  0.1620
  641SOL    HW3 2563   2.834   2.772   1.151  0.0722 -0.0201 -0.0423
  641SOL    MW4 2564   2.895   2.815   1.197 -0.3865  0.3993  0.1896
  642SOL     OW 2565   2.902   3.092   1.119 -0.1790 -0.2176 -0.0114
  642SOL    HW2 2566   2.901   2.997   1.125  0.3891 -0.2318 -0.0268
  642SOL    HW3 2567   2.911   3.109   1.025 -1.1909 -0.1346 -0.0917
  642SOL    MW4 2568   2.903   3.082   1.107 -0.2376 -0.2085 -0.0241
  643SOL     OW 2569   2.672   3.201   1.202  0.0433  0.3957  0.3524
  643SOL    HW2 2570   2.746   3.156   1.162  0.4204  0.3109  1.1196
  643SOL    HW3 2571   2.595   3.155   1.170  0.4093 -0.5492  0.8179
  643SOL    MW4 2572   2.672   3.189   1.193  0.1414  0.2599  0.5150
  644SOL     OW 2573   2.733   3.462   1.149  0.2218 -0.0498 -0.3373
  644SOL    HW2 2574   2.712   3.370   1.162  1.8868 -0.2407  1.2218
  644SOL    HW3 2575   2.649   3.508   1.160 -0.2438 -1.1892  0.9725
  644SOL    MW4 2576   2.719   3.456   1.152  0.3800 -0.2253  0.0412
  645SOL     OW 2577   2.944   3.612   1.241  0.1416  0.0841 -0.5860
  645SOL    HW2 2578   3.020   3.568   1.203 -0.0939 -1.1259  0.3457
  645SOL    HW3 2579   2.870   3.554   1.222 -0.3689  0.6780 -0.4439
  645SOL    MW4 2580   2.944   3.599   1.233  0.0432  0.0028 -0.4443
  646SOL     OW 2581   2.923   3.884   1.146  0.3324  0.1619  0.5151
  646SOL    HW2 2582   3.010   3.909   1.175  1.0087 -0.0499 -1.3197
  646SOL    HW3 2583   2.923   3.788   1.149 -0.1066  0.1736  1.2343
  646SOL    MW4 2584   2.934   3.875   1.150  0.3637  0.1355  0.3679
  647SOL     OW 2585   2.712   4.026   1.240  0.4562  0.0121  0.3422
  647SOL    HW2 2586   2.792   3.977   1.221  0.6223  0.6470 -0.6377
  647SOL    HW3 2587   2.643   3.974   1.199  0.6968  0.8556 -1.1831
  647SOL    MW4 2588   2.714   4.013   1.232  0.5098  0.2071  0.0116
  648SOL     OW 2589   2.710   4.251   1.090 -0.1777 -0.2810  0.0855
  648SOL    HW2 2590   2.713   4.167   1.137  0.2340 -0.4757 -0.2865
  648SOL    HW3 2591   2.647   4.304   1.140 -0.4091 -0.7951  0.3467
  648SOL    MW4 2592   2.702   4.247   1.103 -0.1539 -0.3745  0.0709
  649SOL     OW 2593   2.932   4.404   1.145 -0.1917 -0.0276  0.2288
  649SOL    HW2 2594   3.006   4.346   1.128  0.4153  0.4682  1.1353
  649SOL    HW3 2595   2.856   4.347   1.141  0.3502 -0.7874  0.5952
  649SOL    MW4 2596   2.932   4.389   1.142 -0.0401 -0.0624  0.3968
  650SOL     OW 2597   3.354   4.650   1.057 -0.2618  0.2352  0.0993
  650SOL    HW2 2598   3.425   4.692   1.105  0.2904  1.5571 -1.8220
  650SOL    HW3 2599   3.276   4.700   1.081 -0.1512  0.2685  0.3876
  650SOL    MW4 2600   3.353   4.663   1.066 -0.1743  0.4140 -0.1162
  651SOL     OW 2601   3.163   0.135   1.189 -0.1455  0.3852  0.0201
  651SOL    HW2 2602   3.168   0.113   1.282 -2.7449 -1.1369 -0.1477
  651SOL    HW3 2603   3.092   0.080   1.155  1.0238  0.6186 -2.9555
  651SOL    MW4 2604   3.154   0.125   1.197 -0.3342  0.2151 -0.3946
  652SOL     OW 2605   3.157   0.400   1.125 -0.1142  0.1176  0.1573
  652SOL    HW2 2606   3.175   0.310   1.153  0.0127 -0.3040 -1.2175
  652SOL    HW3 2607   3.067   0.416   1.154 -0.2265 -0.5477  0.1960
  652SOL    MW4 2608   3.147   0.390   1.132 -0.1123 -0.0258 -0.0190
  653SOL     OW 2609   3.405   0.491   1.187 -0.2898 -0.0861  0.2945
  653SOL    HW2 2610   3.382   0.584   1.184 -0.9090 -0.2605 -0.5724
  653SOL    HW3 2611   3.324   0.446   1.165 -0.4340 -0.9161  2.4155
  653SOL    MW4 2612   3.391   0.498   1.184 -0.3906 -0.2186  0.4599
  654SOL     OW 2613   3.380   0.784   1.207 -0.1074  0.1604 -0.1488
  654SOL    HW2 2614   3.289   0.802   1.230 -0.2348 -0.6197 -0.0405
  654SOL    HW3 2615   3.385   0.802   1.113 -0.7602 -1.3083 -0.4766
  654SOL    MW4 2616   3.369   0.789   1.198 -0.2103 -0.1363 -0.1777
  655SOL     OW 2617   3.127   0.855   1.254 -0.0554  0.1195 -0.2572
  655SOL    HW2 2618   3.118   0.867   1.348 -1.9286  1.0430 -0.5257
  655SOL    HW3 2619   3.143   0.943   1.219 -2.0992  0.2152 -1.0516
  655SOL    MW4 2620   3.127   0.868   1.261 -0.5722  0.2540 -0.3975
  656SOL     OW 2621   3.152   1.134   1.157 -0.4032 -0.2119  0.4914
  656SOL    HW2 2622   3.225   1.189   1.187 -1.3384  0.4613  1.5740
  656SOL    HW3 2623   3.074   1.180   1.186 -1.2482 -1.3334  0.0286
  656SOL    MW4 2624   3.151   1.147   1.165 -0.6381 -0.2711  0.5732
  657SOL     OW 2625   3.378   1.277   1.207  0.1754 -0.0523 -0.5022
  657SOL    HW2 2626   3.384   1.283   1.302 -0.8586  0.4259 -0.4581
  657SOL    HW3 2627   3.375   1.368   1.177  0.0226 -0.2004 -0.9486
  657SOL    MW4 2628   3.378   1.290   1.216  0.0188 -0.0088 -0.5552
  658SOL     OW 2629   3.348   1.540   1.128 -0.0310 -0.1428  0.0775
  658SOL    HW2 2630   3.421   1.598   1.150 -0.5212  0.3459  0.4287
  658SOL    HW3 2631   3.270   1.588   1.155 -0.5370 -0.3472 -0.9883
  658SOL    MW4 2632   3.347   1.554   1.135 -0.1625 -0.1053 -0.0168
  659SOL     OW 2633   3.140   1.678   1.242  0.4037 -0.4406 -0.3516
  659SOL    HW2 2634   3.156   1.716   1.329  2.3501 -1.2797 -0.3364
  659SOL    HW3 2635   3.143   1.752   1.182  0.6451 -0.0891  0.0942
  659SOL    MW4 2636   3.142   1.692   1.246  0.6923 -0.5050 -0.2908
  660SOL     OW 2637   3.143   1.895   1.055  0.3631 -0.0427  0.1163
  660SOL    HW2 2638   3.210   1.944   1.102  0.6898 -0.2447 -0.1356
  660SOL    HW3 2639   3.069   1.955   1.049  0.5288  0.1879  0.3799
  660SOL    MW4 2640   3.142   1.909   1.060  0.4281 -0.0389  0.1178
  661SOL     OW 2641   3.360   2.035   1.178 -0.4602  0.5814 -0.1868
  661SOL    HW2 2642   3.450   2.006   1.167 -0.8243 -0.3091 -0.8370
  661SOL    HW3 2643   3.360   2.126   1.148  0.4686  0.9662  0.9254
  661SOL    MW4 2644   3.372   2.043   1.173 -0.3857  0.5147 -0.1259
  662SOL     OW 2645   3.387   2.310   1.108  0.0984  0.4008 -0.5357
  662SOL    HW2 2646   3.472   2.344   1.136 -0.6054  1.4542  0.3588
  662SOL    HW3 2647   3.323   2.363   1.155 -1.0550 -0.9001 -0.5908
  662SOL    MW4 2648   3.390   2.321   1.118 -0.1466  0.3682 -0.4249
  663SOL     OW 2649   3.170   2.418   1.233  0.0702  0.3765 -0.3186
  663SOL    HW2 2650   3.123   2.422   1.317 -0.0726  1.0213 -0.4298
  663SOL    HW3 2651   3.154   2.503   1.192 -0.3608 -0.1533 -1.2750
  663SOL    MW4 2652   3.161   2.430   1.239 -0.0055  0.3916 -0.4595
  664SOL     OW 2653   3.130   2.673   1.117  0.4560 -0.1201 -0.2258
  664SOL    HW2 2654   3.053   2.725   1.137  0.7029  0.1079  0.1230
  664SOL    HW3 2655   3.139   2.679   1.022  0.0742 -0.1097 -0.2631
  664SOL    MW4 2656   3.121   2.680   1.107  0.4382 -0.0887 -0.1847
  665SOL     OW 2657   3.349   2.809   1.234 -0.4273  0.0390 -0.1901
  665SOL    HW2 2658   3.350   2.898   1.200 -0.5071  0.2898  0.4687
  665SOL    HW3 2659   3.282   2.764   1.181  0.6857 -0.0515 -1.5598
  665SOL    MW4 2660   3.340   2.815   1.222 -0.2910  0.0602 -0.2839
  666SOL     OW 2661   3.361   3.061   1.134  0.0723  0.5643  0.0712
  666SOL    HW2 2662   3.441   3.106   1.160  0.1935  0.2830  0.1883
  666SOL    HW3 2663   3.292   3.125   1.148  0.3494  1.0289 -0.6378
  666SOL    MW4 2664   3.363   3.075   1.140  0.1248  0.5885 -0.0069
  667SOL     OW 2665   3.152   3.201   1.234  0.1391 -0.6470 -0.2889
  667SOL    HW2 2666   3.156   3.287   1.193  0.0811 -1.2599 -1.6116
  667SOL    HW3 2667   3.067   3.166   1.209 -1.2447  0.2096  2.9737
  667SOL    MW4 2668   3.142   3.208   1.226 -0.0511 -0.6149 -0.0330
  668SOL     OW 2669   3.164   3.468   1.146 -0.2540  0.2867  0.0623
  668SOL    HW2 2670   3.238   3.524   1.164  1.3159 -1.3713 -1.0613
  668SOL    HW3 2671   3.158   3.465   1.050 -1.7792  0.4136  0.1340
  668SOL    MW4 2672   3.173   3.475   1.136 -0.2481  0.0847 -0.0765
  669SOL     OW 2673   3.374   3.637   1.245  0.4719  0.0855 -0.5591
  669SOL    HW2 2674   3.344   3.629   1.335 -2.4708  0.4423 -1.4595
  669SOL    HW3 2675   3.447   3.576   1.238  0.1877 -0.5526  1.8310
  669SOL    MW4 2676   3.380   3.628   1.256  0.0462  0.0484 -0.3625
  670SOL     OW 2677   3.379   3.865   1.099  0.1870 -0.1372  0.4749
  670SOL    HW2 2678   3.302   3.896   1.149 -0.1821 -0.0851 -0.1216
  670SOL    HW3 2679   3.411   3.791   1.149  1.1390  1.2634  1.9847
  670SOL    MW4 2680   3.373   3.859   1.112  0.2639  0.0544  0.5954
  671SOL     OW 2681   3.161   3.997   1.223  0.4483 -0.0572 -0.3018
  671SOL    HW2 2682   3.178   4.012   1.317 -0.2935 -0.4618 -0.1011
  671SOL    HW3 2683   3.164   4.084   1.184 -0.9839  0.3079  0.3844
  671SOL    MW4 2684   3.164   4.011   1.231  0.1614 -0.0624 -0.1848
  672SOL     OW 2685   3.160   4.246   1.118  0.0748 -0.0576  0.2691
  672SOL    HW2 2686   3.243   4.281   1.152 -0.8202  1.9919  0.4210
  672SOL    HW3 2687   3.173   4.244   1.023 -0.2934  1.9489  0.1491
  672SOL    MW4 2688   3.173   4.250   1.110 -0.0918  0.4776  0.2733
  673SOL     OW 2689   3.380   4.413   1.216 -0.1718  0.2470 -0.2934
  673SOL    HW2 2690   3.457   4.367   1.184  0.3030  1.1121 -0.4315
  673SOL    HW3 2691   3.378   4.494   1.165 -0.4496  0.8009  0.5724
  673SOL    MW4 2692   3.390   4.418   1.205 -0.1458  0.4342 -0.1974
  674SOL     OW 2693   3.815   4.641   1.132  0.0790  0.2177  0.1159
  674SOL    HW2 2694   3.814   4.551   1.165 -1.1922  0.5531  1.0565
  674SOL    HW3 2695   3.830   4.632   1.038  0.7107 -0.9415  0.3195
  674SOL    MW4 2696   3.817   4.628   1.124 -0.0054  0.1090  0.2668
  675SOL     OW 2697   3.568   0.078   1.213  0.0040 -0.0574 -0.2249
  675SOL    HW2 2698   3.578   0.169   1.186 -0.2251 -0.1762 -0.7061
  675SOL    HW3 2699   3.646   0.034   1.179  0.8523  0.2484  1.2656
  675SOL    MW4 2700   3.580   0.084   1.205  0.0857 -0.0327 -0.0918
  676SOL     OW 2701   3.630   0.328   1.116  0.2394 -0.6552  0.0981
  676SOL    HW2 2702   3.713   0.372   1.135  0.3818 -0.8531 -0.0721
  676SOL    HW3 2703   3.563   0.395   1.131  0.4331 -0.4836  0.1886
  676SOL    MW4 2704   3.632   0.343   1.121  0.2838 -0.6587  0.0876
  677SOL     OW 2705   3.818   0.494   1.248 -0.2820 -0.0242 -0.0737
  677SOL    HW2 2706   3.900   0.461   1.211 -0.2618 -0.1089  0.0482
  677SOL    HW3 2707   3.810   0.583   1.212  0.4662  0.4339  0.8832
  677SOL    MW4 2708   3.828   0.501   1.238 -0.1806  0.0250  0.0686
  678SOL     OW 2709   3.824   0.754   1.145  0.0814  0.2253 -0.6675
  678SOL    HW2 2710   3.908   0.791   1.174  0.0157 -0.3690  0.3280
  678SOL    HW3 2711   3.760   0.792   1.205 -0.0663 -0.9970 -0.0199
  678SOL    MW4 2712   3.827   0.764   1.157  0.0533 -0.0144 -0.4507
  679SOL     OW 2713   3.612   0.916   1.270 -0.5146 -0.5387 -0.0657
  679SOL    HW2 2714   3.609   0.989   1.208 -0.0470 -0.1824  0.3218
  679SOL    HW3 2715   3.523   0.881   1.271 -0.7797  0.1159 -0.1593
  679SOL    MW4 2716   3.600   0.921   1.262 -0.4879 -0.4053 -0.0269
  680SOL     OW 2717   3.626   1.168   1.130 -0.1192 -0.3014  0.5020
  680SOL    HW2 2718   3.695   1.228   1.160  0.6735 -0.1183 -1.5955
  680SOL    HW3 2719   3.545   1.208   1.162  0.6229  0.3372  1.6322
  680SOL    MW4 2720   3.624   1.181   1.138  0.0833 -0.1930  0.3744
  681SOL     OW 2721   3.844   1.294   1.216 -0.2300 -0.0645 -0.1619
  681SOL    HW2 2722   3.848   1.300   1.311  1.1172 -0.3127 -0.1914
  681SOL    HW3 2723   3.837   1.385   1.186 -0.4959  0.0229  0.1713
  681SOL    MW4 2724   3.844   1.307   1.225 -0.0873 -0.0857 -0.1218
  682SOL     OW 2725   3.812   1.554   1.131 -0.0536  0.2308 -0.0866
  682SOL    HW2 2726   3.884   1.601   1.173  0.8362 -0.4355 -0.8433
  682SOL    HW3 2727   3.840   1.544   1.040  0.0020 -2.1813  0.1736
  682SOL    MW4 2728   3.825   1.559   1.124  0.0711 -0.1754 -0.1521
  683SOL     OW 2729   3.567   1.669   1.216  0.3533 -0.3625 -0.0182
  683SOL    HW2 2730   3.576   1.760   1.190  1.0884  0.1712  1.9863
  683SOL    HW3 2731   3.643   1.625   1.179  0.7967  0.1528  0.2799
  683SOL    MW4 2732   3.578   1.675   1.208  0.5088 -0.2241  0.2856
  684SOL     OW 2733   3.603   1.914   1.110 -0.2243  0.2599 -0.1999
  684SOL    HW2 2734   3.665   1.971   1.156  0.8705 -0.8485 -0.2890
  684SOL    HW3 2735   3.633   1.914   1.019 -2.3942  2.4530 -0.9855
  684SOL    MW4 2736   3.615   1.922   1.104 -0.3662  0.4030 -0.3153
  685SOL     OW 2737   3.800   2.076   1.217  0.1831  0.3771 -0.1316
  685SOL    HW2 2738   3.804   2.070   1.313 -0.1699 -2.1816 -0.2476
  685SOL    HW3 2739   3.883   2.038   1.188 -0.3792 -0.2685 -0.8879
  685SOL    MW4 2740   3.812   2.070   1.226  0.0623 -0.0457 -0.2467
  686SOL     OW 2741   3.819   2.340   1.118 -0.1268  0.2359  0.1129
  686SOL    HW2 2742   3.893   2.380   1.163 -0.2589  0.2594  0.3106
  686SOL    HW3 2743   3.824   2.247   1.140  1.0913 -0.1277 -1.6176
  686SOL    MW4 2744   3.829   2.333   1.127  0.0165  0.1910 -0.0893
  687SOL     OW 2745   3.605   2.476   1.217  0.1029 -0.2348  0.5045
  687SOL    HW2 2746   3.602   2.447   1.308 -1.5443 -1.8906 -0.0434
  687SOL    HW3 2747   3.679   2.429   1.179  0.4664  0.0549  0.8548
  687SOL    MW4 2748   3.614   2.466   1.224 -0.0664 -0.4150  0.4784
  688SOL     OW 2749   3.605   2.740   1.104 -0.2068  0.0978 -0.6609
  688SOL    HW2 2750   3.608   2.647   1.128 -0.5654  0.4073  0.6336
  688SOL    HW3 2751   3.522   2.771   1.140  0.0068  0.9666 -0.9121
  688SOL    MW4 2752   3.594   2.732   1.112 -0.2260  0.2532 -0.5233
  689SOL     OW 2753   3.846   2.846   1.233 -0.0424  0.3939 -0.5967
  689SOL    HW2 2754   3.817   2.841   1.324  0.5561  0.6807 -0.3885
  689SOL    HW3 2755   3.770   2.817   1.182 -0.6719  1.0666 -0.0569
  689SOL    MW4 2756   3.832   2.842   1.238 -0.0465  0.5205 -0.4980
  690SOL     OW 2757   3.853   3.112   1.147  0.4174 -0.5933 -0.0308
  690SOL    HW2 2758   3.839   3.023   1.181 -0.7639  0.2312  1.7063
  690SOL    HW3 2759   3.845   3.103   1.052  0.6145 -2.3937  0.1031
  690SOL    MW4 2760   3.850   3.099   1.139  0.2875 -0.7221  0.2161
  691SOL     OW 2761   3.587   3.203   1.192  0.1567 -0.3956 -0.0622
  691SOL    HW2 2762   3.582   3.298   1.179  0.0178 -0.6083 -1.6173
  691SOL    HW3 2763   3.680   3.182   1.178  0.1452 -0.5289  0.0572
  691SOL    MW4 2764   3.599   3.213   1.189  0.1368 -0.4412 -0.2516
  692SOL     OW 2765   3.591   3.477   1.150 -0.0891  0.4206  0.1070
  692SOL    HW2 2766   3.670   3.516   1.185 -0.7862  3.2091 -1.2639
  692SOL    HW3 2767   3.595   3.495   1.056 -0.4708 -2.8687 -0.6100
  692SOL    MW4 2768   3.602   3.485   1.142 -0.2315  0.3546 -0.1684
  693SOL     OW 2769   3.818   3.603   1.251 -0.0544  0.3575  0.3109
  693SOL    HW2 2770   3.792   3.612   1.343 -1.1338  1.6597 -0.1048
  693SOL    HW3 2771   3.819   3.693   1.217 -2.7583 -0.2880 -1.7516
  693SOL    MW4 2772   3.814   3.616   1.259 -0.5536  0.4441 -0.0161
  694SOL     OW 2773   3.803   3.860   1.119  0.4789 -0.4379 -0.5693
  694SOL    HW2 2774   3.730   3.919   1.135 -0.1820 -1.2526 -0.5453
  694SOL    HW3 2775   3.819   3.866   1.025 -0.3376 -1.0797 -0.7542
  694SOL    MW4 2776   3.796   3.868   1.108  0.2839 -0.6301 -0.5905
  695SOL     OW 2777   3.589   4.021   1.174 -0.1889 -0.3607  0.3393
  695SOL    HW2 2778   3.602   4.016   1.269  1.7000 -1.4885  0.0504
  695SOL    HW3 2779   3.509   3.970   1.158  0.1450 -1.1801  1.2122
  695SOL    MW4 2780   3.580   4.013   1.184  0.1043 -0.6176  0.4164
  696SOL     OW 2781   3.596   4.290   1.078  0.1534  0.2799 -0.1316
  696SOL    HW2 2782   3.569   4.199   1.087  0.6287  0.0655 -0.8513
  696SOL    HW3 2783   3.604   4.304   0.984 -1.2333  1.4546 -0.0856
  696SOL    MW4 2784   3.594   4.280   1.067  0.0331  0.4066 -0.2205
  697SOL     OW 2785   3.824   4.376   1.214  0.7014  0.0459 -0.3335
  697SOL    HW2 2786   3.823   4.360   1.309  0.0063 -0.0903 -0.3613
  697SOL    HW3 2787   3.744   4.334   1.182  0.3436  1.1024 -0.8212
  697SOL    MW4 2788   3.814   4.368   1.222  0.5625  0.1673 -0.4015
  698SOL     OW 2789   4.277   4.613   1.127  0.1257 -0.6747 -0.0460
  698SOL    HW2 2790   4.250   4.524   1.149 -1.2188 -0.4282 -0.6348
  698SOL    HW3 2791   4.205   4.669   1.157  0.4431  0.0964 -0.6862
  698SOL    MW4 2792   4.264   4.609   1.134 -0.0098 -0.5404 -0.2082
  699SOL     OW 2793   4.071   0.098   1.224  0.4795  0.2969  0.7815
  699SOL    HW2 2794   4.079   0.086   1.319  0.5473 -0.9706  0.6232
  699SOL    HW3 2795   3.986   0.059   1.202 -0.3684  2.2259  0.5810
  699SOL    MW4 2796   4.061   0.091   1.234  0.3766  0.3842  0.7342
  700SOL     OW 2797   4.090   0.361   1.158 -0.0286  0.3584  0.0026
  700SOL    HW2 2798   4.093   0.266   1.167  1.1720  0.4372  0.5304
  700SOL    HW3 2799   4.107   0.376   1.065  1.9040  0.1259  0.2885
  700SOL    MW4 2800   4.093   0.350   1.147  0.3848  0.3382  0.1099
  701SOL     OW 2801   4.287   0.537   1.261  0.2549 -0.3171 -0.4752
  701SOL    HW2 2802   4.271   0.521   1.354  0.6294 -1.5615 -0.6208
  701SOL    HW3 2803   4.225   0.480   1.216 -1.2724  1.6865 -1.0089
  701SOL    MW4 2804   4.277   0.527   1.267  0.1028 -0.2169 -0.5648
  702SOL     OW 2805   4.325   0.795   1.154 -0.1303 -0.0225  0.3732
  702SOL    HW2 2806   4.298   0.711   1.190 -0.9186  0.2361  0.3814
  702SOL    HW3 2807   4.305   0.788   1.060 -0.0993  0.1206  0.3562
  702SOL    MW4 2808   4.319   0.783   1.146 -0.2302  0.0305  0.3720
  703SOL     OW 2809   4.059   0.880   1.235  0.3345  0.0616 -0.2553
  703SOL    HW2 2810   4.062   0.890   1.330  0.1797 -0.6339 -0.1737
  703SOL    HW3 2811   4.149   0.863   1.209  0.1845 -1.1184 -0.0667
  703SOL    MW4 2812   4.071   0.879   1.244  0.2943 -0.1858 -0.2196
  704SOL     OW 2813   4.073   1.160   1.142  0.4139  0.2491 -0.1894
  704SOL    HW2 2814   4.049   1.076   1.181  2.7359  0.5768  2.0073
  704SOL    HW3 2815   4.000   1.218   1.163 -0.9078 -1.0196 -1.1661
  704SOL    MW4 2816   4.060   1.156   1.150  0.5459  0.1249 -0.0284
  705SOL     OW 2817   4.305   1.303   1.225  0.4585 -0.1270  0.0663
  705SOL    HW2 2818   4.297   1.269   1.315  0.8215 -0.0097  0.1400
  705SOL    HW3 2819   4.226   1.270   1.181  0.5823 -0.6904  0.2630
  705SOL    MW4 2820   4.293   1.294   1.231  0.5227 -0.1859  0.1019
  706SOL     OW 2821   4.279   1.554   1.113  0.3824  0.1258 -0.2358
  706SOL    HW2 2822   4.294   1.470   1.156 -0.0930  0.0869 -0.1509
  706SOL    HW3 2823   4.341   1.614   1.156  0.6478 -0.1520 -0.2245
  706SOL    MW4 2824   4.289   1.551   1.124  0.3547  0.0840 -0.2231
  707SOL     OW 2825   4.032   1.668   1.240 -0.2351 -0.0856 -0.2238
  707SOL    HW2 2826   4.056   1.665   1.333 -0.2453  2.7087 -0.1110
  707SOL    HW3 2827   4.106   1.629   1.194  0.8641  0.8362  0.7624
  707SOL    MW4 2828   4.045   1.662   1.246 -0.0915  0.4047 -0.0788
  708SOL     OW 2829   4.031   1.944   1.161  0.1940 -0.3043 -0.3837
  708SOL    HW2 2830   4.008   1.855   1.185 -1.0757  0.4832  1.3790
  708SOL    HW3 2831   4.061   1.937   1.070  0.4689 -2.5599 -0.1500
  708SOL    MW4 2832   4.032   1.931   1.152  0.0628 -0.4980 -0.1203
  709SOL     OW 2833   4.276   2.054   1.247 -0.9388  0.0753  0.1166
  709SOL    HW2 2834   4.274   2.135   1.196 -1.1678 -0.6598 -1.0646
  709SOL    HW3 2835   4.192   2.012   1.230  0.4447 -2.0188 -2.0071
  709SOL    MW4 2836   4.265   2.059   1.238 -0.7864 -0.2980 -0.3194
  710SOL     OW 2837   4.284   2.308   1.118  0.0604 -0.2551 -0.3478
  710SOL    HW2 2838   4.202   2.353   1.138 -0.8890 -2.3519  0.6930
  710SOL    HW3 2839   4.291   2.313   1.022 -1.0073  0.4419 -0.3964
  710SOL    MW4 2840   4.274   2.314   1.108 -0.2058 -0.4398 -0.2169
  711SOL     OW 2841   4.049   2.439   1.224 -0.1772 -0.5005  0.0486
  711SOL    HW2 2842   4.065   2.435   1.319  0.5272 -1.9491 -0.1286
  711SOL    HW3 2843   4.068   2.530   1.201 -1.3295  0.1205  1.4645
  711SOL    MW4 2844   4.054   2.451   1.234 -0.2363 -0.6097  0.2120
  712SOL     OW 2845   4.089   2.693   1.155  0.4242 -0.4174  0.1241
  712SOL    HW2 2846   4.010   2.740   1.181  1.2462  0.8666  0.3305
  712SOL    HW3 2847   4.081   2.684   1.060  0.7625  1.1235 -0.0727
  712SOL    MW4 2848   4.078   2.698   1.146  0.5773 -0.0447  0.1254
  713SOL     OW 2849   4.314   2.822   1.200 -0.3990 -0.1044  0.0641
  713SOL    HW2 2850   4.303   2.910   1.164  0.8073 -0.8740 -2.2784
  713SOL    HW3 2851   4.231   2.778   1.180  0.1114 -0.4002 -1.4420
  713SOL    MW4 2852   4.302   2.828   1.193 -0.1725 -0.2450 -0.4437
  714SOL     OW 2853   4.293   3.082   1.133  0.0194  0.1725 -0.5012
  714SOL    HW2 2854   4.241   3.145   1.181  1.4928  1.0461 -0.0223
  714SOL    HW3 2855   4.279   3.103   1.041  1.4350  1.9896 -0.3256
  714SOL    MW4 2856   4.284   3.093   1.127  0.4006  0.5275 -0.4149
  715SOL     OW 2857   4.067   3.227   1.266 -0.0019  0.2265  0.3422
  715SOL    HW2 2858   4.026   3.251   1.349 -2.3953 -0.6477 -0.5528
  715SOL    HW3 2859   3.996   3.190   1.214  2.0689 -1.8714 -1.0521
  715SOL    MW4 2860   4.052   3.226   1.270 -0.0445 -0.1656  0.0401
  716SOL     OW 2861   4.077   3.519   1.194 -0.2914 -0.0959  0.1195
  716SOL    HW2 2862   4.079   3.425   1.212 -1.1429 -0.0547  0.4361
  716SOL    HW3 2863   3.987   3.545   1.213 -0.1411  0.7222 -0.2875
  716SOL    MW4 2864   4.066   3.510   1.199 -0.3839  0.0174  0.1076
  717SOL     OW 2865   4.326   3.631   1.224  0.0161  0.1791  0.0699
  717SOL    HW2 2866   4.241   3.590   1.206 -0.3480  1.2269 -0.5848
  717SOL    HW3 2867   4.390   3.560   1.209 -0.8293 -1.0590  2.0903
  717SOL    MW4 2868   4.324   3.616   1.220 -0.1435  0.1540  0.2501
  718SOL     OW 2869   4.271   3.892   1.123 -0.3796 -0.0394 -0.0995
  718SOL    HW2 2870   4.193   3.916   1.173  0.2669  0.8807  0.4877
  718SOL    HW3 2871   4.294   3.805   1.155 -1.1153 -0.2750 -0.2079
  718SOL    MW4 2872   4.264   3.884   1.134 -0.3913  0.0509 -0.0363
  719SOL     OW 2873   4.037   3.975   1.248  0.2255 -0.1377  0.9718
  719SOL    HW2 2874   4.035   4.051   1.191  1.8156 -0.0606  1.0143
  719SOL    HW3 2875   3.968   3.917   1.213 -0.4538  0.9594  0.4790
  719SOL    MW4 2876   4.027   3.977   1.236  0.3457  0.0172  0.9124
  720SOL     OW 2877   4.031   4.220   1.091 -0.4745  0.2430 -0.3427
  720SOL    HW2 2878   3.960   4.275   1.124 -0.5377  0.3668 -0.6886
  720SOL    HW3 2879   4.031   4.234   0.997 -0.7560 -0.6691 -0.4828
  720SOL    MW4 2880   4.022   4.229   1.083 -0.5200  0.1390 -0.4068
  721SOL     OW 2881   4.238   4.357   1.253  0.5437 -0.1663 -0.1976
  721SOL    HW2 2882   4.161   4.319   1.211  0.7778 -0.3827 -0.4292
  721SOL    HW3 2883   4.312   4.319   1.206  0.7740  0.8587 -0.6881
  721SOL    MW4 2884   4.237   4.347   1.241  0.6050 -0.0596 -0.2929
  722SOL     OW 2885   0.231   0.011   1.620 -0.1228 -0.1139  0.1643
  722SOL    HW2 2886   0.304   0.061   1.584 -0.2971 -0.1299 -0.2156
  722SOL    HW3 2887   0.153   0.054   1.585 -0.3129  0.1953  0.9542
  722SOL    MW4 2888   0.231   0.023   1.610 -0.1709 -0.0752  0.2184
  723SOL     OW 2889   4.481   0.117   1.522  0.1403 -0.3907 -0.4307
  723SOL    HW2 2890   4.404   0.073   1.558 -0.0856  0.4369  0.1118
  723SOL    HW3 2891   4.468   0.115   1.427 -1.0246  0.5770 -0.3061
  723SOL    MW4 2892   4.469   0.111   1.514 -0.0432 -0.1539 -0.3427
  724SOL     OW 2893   4.488   0.387   1.628 -0.2456  0.4389  0.0410
  724SOL    HW2 2894   4.483   0.378   1.723 -0.4612 -0.6233 -0.0640
  724SOL    HW3 2895   4.478   0.298   1.595 -1.4043  0.9380 -1.0245
  724SOL    MW4 2896   4.486   0.374   1.636 -0.4269  0.3646 -0.1134
  725SOL     OW 2897   0.241   0.495   1.532  0.5081 -0.4553 -0.2397
  725SOL    HW2 2898   0.162   0.460   1.572 -0.1101  0.2446 -0.8447
  725SOL    HW3 2899   0.232   0.475   1.439 -0.4428  2.3478 -0.8042
  725SOL    MW4 2900   0.230   0.488   1.525  0.3010  0.0069 -0.3940
  726SOL     OW 2901   0.288   0.740   1.660 -0.1887 -0.3519 -0.4984
  726SOL    HW2 2902   0.360   0.787   1.618 -1.2998  0.3443 -1.6667
  726SOL    HW3 2903   0.279   0.660   1.608  0.1704 -0.7458  0.0486
  726SOL    MW4 2904   0.296   0.736   1.647 -0.2879 -0.3120 -0.5804
  727SOL     OW 2905   0.039   0.874   1.559  0.2766  0.4021  0.6383
  727SOL    HW2 2906   0.043   0.966   1.584  0.6450  0.1454  1.5996
  727SOL    HW3 2907   0.123   0.838   1.590 -0.4369 -0.5418  1.5195
  727SOL    MW4 2908   0.051   0.881   1.567  0.2311  0.2437  0.8814
  728SOL     OW 2909   0.046   1.137   1.637  0.6304  0.1216 -0.2025
  728SOL    HW2 2910   0.046   1.147   1.732 -0.5600  2.3630 -0.4060
  728SOL    HW3 2911   0.130   1.175   1.609  0.4184  0.6306 -0.1510
  728SOL    MW4 2912   0.057   1.143   1.646  0.4454  0.4845 -0.2226
  729SOL     OW 2913   0.278   1.294   1.578  0.1313 -0.1826 -0.6027
  729SOL    HW2 2914   0.271   1.387   1.601 -0.0688 -0.2282 -0.4835
  729SOL    HW3 2915   0.272   1.292   1.482 -0.6253 -0.1449 -0.5604
  729SOL    MW4 2916   0.277   1.306   1.568  0.0051 -0.1836 -0.5814
  730SOL     OW 2917   0.242   1.551   1.637  0.1614 -0.0153 -0.0004
  730SOL    HW2 2918   0.244   1.587   1.725 -1.9302  0.1742 -0.0190
  730SOL    HW3 2919   0.160   1.582   1.599 -0.1913 -2.1738 -1.1188
  730SOL    MW4 2920   0.232   1.560   1.643 -0.1611 -0.2751 -0.1504
  731SOL     OW 2921   0.012   1.661   1.531  0.1135 -0.4564  0.8650
  731SOL    HW2 2922   0.002   1.751   1.560 -0.5142 -0.2408  0.0002
  731SOL    HW3 2923   0.019   1.668   1.435  0.2298 -1.3090  0.8101
  731SOL    MW4 2924   0.012   1.674   1.522  0.0460 -0.5405  0.7437
  732SOL     OW 2925   4.476   1.917   1.627 -0.0642  0.2972  0.2834
  732SOL    HW2 2926   4.479   1.929   1.722 -1.7686  0.5388  0.3207
  732SOL    HW3 2927   4.399   1.966   1.598  0.1254 -0.2142 -1.1580
  732SOL    MW4 2928   4.466   1.925   1.636 -0.2640  0.2616  0.0981
  733SOL     OW 2929   0.203   2.067   1.545 -0.4002 -0.1239 -0.0209
  733SOL    HW2 2930   0.131   2.012   1.574 -0.9100  1.1292  1.1370
  733SOL    HW3 2931   0.185   2.085   1.453 -1.4909  0.0657  0.2315
  733SOL    MW4 2932   0.191   2.062   1.537 -0.6114  0.0664  0.1652
  734SOL     OW 2933   0.216   2.339   1.619 -0.1553 -0.3439 -0.0108
  734SOL    HW2 2934   0.210   2.346   1.714 -1.1932 -0.6651 -0.0470
  734SOL    HW3 2935   0.192   2.248   1.599  0.4316 -0.3898 -0.5529
  734SOL    MW4 2936   0.212   2.328   1.629 -0.2148 -0.3923 -0.0871
  735SOL     OW 2937   0.012   2.474   1.481 -0.2028 -0.1375  0.3388
  735SOL    HW2 2938  -0.060   2.423   1.518 -0.0151 -1.2108 -0.7400
  735SOL    HW3 2939   0.091   2.436   1.519 -0.1968  0.9602  1.4291
  735SOL    MW4 2940   0.013   2.462   1.491 -0.1772 -0.1343  0.3403
  736SOL     OW 2941   0.018   2.727   1.618  0.1622  0.0665 -0.0411
  736SOL    HW2 2942  -0.062   2.764   1.582 -0.2969 -1.5434 -0.7638
  736SOL    HW3 2943   0.014   2.634   1.592  2.2366 -0.0284 -0.0759
  736SOL    MW4 2944   0.007   2.719   1.609  0.3753 -0.1584 -0.1410
  737SOL     OW 2945   0.218   2.852   1.486  0.2582 -0.4064 -0.1215
  737SOL    HW2 2946   0.288   2.798   1.523  1.0434 -0.9420 -2.3407
  737SOL    HW3 2947   0.137   2.809   1.514  0.8298 -0.9320  0.7500
  737SOL    MW4 2948   0.216   2.839   1.495  0.4372 -0.5464 -0.2993
  738SOL     OW 2949   0.218   3.082   1.643 -0.1428  0.6027  0.1916
  738SOL    HW2 2950   0.132   3.117   1.617 -0.9644 -1.0229  0.6189
  738SOL    HW3 2951   0.227   3.002   1.591  0.6316  0.1905  0.9656
  738SOL    MW4 2952   0.208   3.076   1.632 -0.1491  0.3338  0.3501
  739SOL     OW 2953   4.470   3.242   1.566  0.0263 -0.4081  0.3216
  739SOL    HW2 2954   4.503   3.331   1.576 -0.6461 -0.1196 -0.0840
  739SOL    HW3 2955   4.497   3.216   1.478 -1.3146  0.0234 -0.2138
  739SOL    MW4 2956   4.478   3.250   1.556 -0.2393 -0.3131  0.1974
  740SOL     OW 2957   0.046   3.500   1.636 -0.6672 -0.0428 -0.3445
  740SOL    HW2 2958   0.031   3.510   1.730 -0.2295  1.0160 -0.3875
  740SOL    HW3 2959  -0.028   3.544   1.595 -1.0634 -0.8408 -0.5023
  740SOL    MW4 2960   0.034   3.507   1.643 -0.6617 -0.0084 -0.3710
  741SOL     OW 2961   0.287   3.632   1.533 -0.5903  0.3222  0.3894
  741SOL    HW2 2962   0.279   3.725   1.553 -0.4385 -0.0522  2.3550
  741SOL    HW3 2963   0.215   3.591   1.581  1.2441 -0.8971  2.2134
  741SOL    MW4 2964   0.276   3.639   1.542 -0.3282  0.1119  0.8894
  742SOL     OW 2965   0.202   3.883   1.613  0.3880  0.2718  0.0297
  742SOL    HW2 2966   0.216   3.863   1.706  0.5784 -0.1474 -0.0863
  742SOL    HW3 2967   0.282   3.928   1.586  0.5213 -0.0009 -0.0381
  742SOL    MW4 2968   0.215   3.886   1.622  0.4307  0.1805  0.0055
  743SOL     OW 2969   4.472   4.038   1.500  0.1493  0.4521 -0.0928
  743SOL    HW2 2970   4.471   4.125   1.539  1.1937  0.8528 -0.9566
  743SOL    HW3 2971   4.539   3.990   1.548 -0.0026  0.3063 -0.0231
  743SOL    MW4 2972   4.481   4.043   1.511  0.2670  0.4857 -0.1976
  744SOL     OW 2973   0.012   4.288   1.597  0.0023  0.0822  0.0395
  744SOL    HW2 2974   0.007   4.273   1.691  0.5806  0.6469  0.1679
  744SOL    HW3 2975  -0.074   4.322   1.573  0.0508  0.5311  0.4792
  744SOL    MW4 2976   0.000   4.291   1.606  0.0850  0.2159  0.1145
  745SOL     OW 2977   0.241   4.423   1.502 -0.2720 -0.2386  0.5790
  745SOL    HW2 2978   0.154   4.399   1.535 -0.0769 -0.1164  1.1954
  745SOL    HW3 2979   0.260   4.507   1.544 -0.0338 -0.0633  0.1212
  745SOL    MW4 2980   0.232   4.431   1.512 -0.2148 -0.1993  0.5999
  746SOL     OW 2981   0.690   4.637   1.601  0.0448 -0.0358 -0.2160
  746SOL    HW2 2982   0.762   4.677   1.553  0.5548 -1.6971 -0.8549
  746SOL    HW3 2983   0.611   4.670   1.558  0.4527  0.5855 -0.4838
  746SOL    MW4 2984   0.689   4.647   1.589  0.1659 -0.1730 -0.3356
  747SOL     OW 2985   0.464   0.116   1.502 -0.3788 -0.2552  0.3034
  747SOL    HW2 2986   0.470   0.201   1.545 -3.0622 -0.9651  2.2117
  747SOL    HW3 2987   0.445   0.136   1.411 -1.7881  1.1825  0.9032
  747SOL    MW4 2988   0.463   0.130   1.496 -0.9188 -0.1592  0.6343
  748SOL     OW 2989   0.460   0.361   1.630 -0.2501 -0.2657 -0.1746
  748SOL    HW2 2990   0.529   0.420   1.601  0.1982 -1.2558 -1.1729
  748SOL    HW3 2991   0.378   0.406   1.608  0.0617  0.7731  0.7310
  748SOL    MW4 2992   0.458   0.375   1.623 -0.1498 -0.2593 -0.1868
  749SOL     OW 2993   0.693   0.502   1.575  0.4593 -0.1420  0.1812
  749SOL    HW2 2994   0.710   0.593   1.601  0.3467 -0.3394  0.9740
  749SOL    HW3 2995   0.718   0.498   1.483  0.5588  0.6699  0.1660
  749SOL    MW4 2996   0.698   0.514   1.567  0.4576 -0.0610  0.2838
  750SOL     OW 2997   0.719   0.788   1.638 -0.1401 -0.0131 -0.1500
  750SOL    HW2 2998   0.714   0.782   1.733 -0.4305  0.6879 -0.1117
  750SOL    HW3 2999   0.803   0.832   1.621 -0.6566  0.9868 -0.1556
  750SOL    MW4 3000   0.729   0.793   1.648 -0.2466  0.2113 -0.1457
  751SOL     OW 3001   0.480   0.884   1.532  0.1087  0.1767 -0.3993
  751SOL    HW2 3002   0.473   0.975   1.560 -2.1670 -0.2618  0.5642
  751SOL    HW3 3003   0.564   0.854   1.569  0.5127  1.6387 -0.0866
  751SOL    MW4 3004   0.490   0.892   1.541 -0.1382  0.3117 -0.2309
  752SOL     OW 3005   0.487   1.145   1.654  0.2331  0.1058  0.4057
  752SOL    HW2 3006   0.565   1.195   1.632 -0.5587  1.4551  0.6279
  752SOL    HW3 3007   0.414   1.197   1.620 -0.6382 -0.6211  1.1341
  752SOL    MW4 3008   0.488   1.158   1.646  0.0136  0.1879  0.5311
  753SOL     OW 3009   0.699   1.297   1.569 -0.2016  0.1735 -0.3174
  753SOL    HW2 3010   0.696   1.392   1.584  1.3247  0.3674 -1.2598
  753SOL    HW3 3011   0.701   1.287   1.474  0.4569 -0.7890 -0.2060
  753SOL    MW4 3012   0.699   1.308   1.559  0.0866  0.0721 -0.4270
  754SOL     OW 3013   0.695   1.564   1.658 -0.5424  0.4598  0.1627
  754SOL    HW2 3014   0.773   1.605   1.622 -0.6026  0.6387  0.2338
  754SOL    HW3 3015   0.623   1.617   1.626 -0.5873  0.7094  0.6686
  754SOL    MW4 3016   0.696   1.576   1.649 -0.5563  0.5164  0.2388
  755SOL     OW 3017   0.479   1.670   1.532  0.3010  0.2447 -0.2901
  755SOL    HW2 3018   0.468   1.764   1.547  0.7090  0.5402 -1.7306
  755SOL    HW3 3019   0.399   1.631   1.567 -0.6487  1.3134 -1.2210
  755SOL    MW4 3020   0.467   1.677   1.538  0.2295  0.4247 -0.6030
  756SOL     OW 3021   0.452   1.946   1.606  0.3061 -0.2246 -0.2958
  756SOL    HW2 3022   0.468   1.938   1.700 -0.4601 -0.2906 -0.1723
  756SOL    HW3 3023   0.366   1.987   1.599  0.4832  0.0358 -0.9683
  756SOL    MW4 3024   0.443   1.950   1.617  0.2284 -0.1989 -0.3683
  757SOL     OW 3025   0.677   2.044   1.473  0.3099  0.1637 -0.5071
  757SOL    HW2 3026   0.753   2.011   1.521  0.0258  0.1668 -0.0424
  757SOL    HW3 3027   0.603   1.996   1.511  0.0075  0.6305 -0.5059
  757SOL    MW4 3028   0.677   2.033   1.485  0.2325  0.2257 -0.4456
  758SOL     OW 3029   0.681   2.314   1.593 -0.2020  0.0166  0.1090
  758SOL    HW2 3030   0.612   2.365   1.550  0.1541 -0.7126 -1.3458
  758SOL    HW3 3031   0.673   2.226   1.556  1.3874 -0.1218  0.0649
  758SOL    MW4 3032   0.671   2.309   1.583  0.0547 -0.0979 -0.0887
  759SOL     OW 3033   0.463   2.423   1.489  0.1568  0.3867  0.0530
  759SOL    HW2 3034   0.451   2.515   1.514  2.0471  0.1908  1.8281
  759SOL    HW3 3035   0.387   2.379   1.528  0.2454  0.9166  0.8600
  759SOL    MW4 3036   0.451   2.430   1.498  0.4179  0.4308  0.3937
  760SOL     OW 3037   0.462   2.705   1.546  0.4299  0.2613 -0.2247
  760SOL    HW2 3038   0.457   2.694   1.641 -0.8422  2.5630  0.0133
  760SOL    HW3 3039   0.532   2.769   1.533  1.3127 -0.8403 -0.9171
  760SOL    MW4 3040   0.470   2.712   1.557  0.3785  0.4196 -0.2847
  761SOL     OW 3041   0.690   2.847   1.511 -0.2628  0.3299 -0.2202
  761SOL    HW2 3042   0.700   2.933   1.553  1.7830 -0.2846  0.5934
  761SOL    HW3 3043   0.687   2.866   1.418 -0.8439  1.3767  0.0018
  761SOL    MW4 3044   0.691   2.861   1.504 -0.0696  0.3869 -0.0836
  762SOL     OW 3045   0.680   3.111   1.599 -0.0580  0.0888  0.9526
  762SOL    HW2 3046   0.744   3.168   1.558  0.7371 -0.8579  0.8593
  762SOL    HW3 3047   0.595   3.146   1.572  0.4376 -1.5664 -2.9786
  762SOL    MW4 3048   0.677   3.123   1.590  0.1123 -0.2545  0.4216
  763SOL     OW 3049   0.437   3.240   1.565  0.0897 -0.1949 -0.0633
  763SOL    HW2 3050   0.355   3.205   1.599 -0.5508  1.8433  0.5691
  763SOL    HW3 3051   0.421   3.251   1.471 -1.9001  4.0844  0.6544
  763SOL    MW4 3052   0.424   3.237   1.557 -0.2574  0.6386  0.1148
  764SOL     OW 3053   0.512   3.490   1.647 -0.3128  0.0959  0.6505
  764SOL    HW2 3054   0.473   3.403   1.638  0.6022 -0.1681 -0.9277
  764SOL    HW3 3055   0.441   3.550   1.626 -0.9889 -0.2566  1.8892
  764SOL    MW4 3056   0.498   3.487   1.643 -0.2813  0.0146  0.6057
  765SOL     OW 3057   0.726   3.581   1.473 -0.3799 -0.4824 -0.1562
  765SOL    HW2 3058   0.804   3.543   1.512  0.0823 -0.1575 -0.7614
  765SOL    HW3 3059   0.654   3.530   1.510 -0.0178  0.3200  1.7122
  765SOL    MW4 3060   0.727   3.569   1.483 -0.2711 -0.3337  0.0105
  766SOL     OW 3061   0.696   3.831   1.599  0.0213  0.0581 -0.2495
  766SOL    HW2 3062   0.779   3.869   1.572 -0.3302  0.9037 -0.1462
  766SOL    HW3 3063   0.700   3.740   1.569  1.5289 -0.2835  0.9415
  766SOL    MW4 3064   0.707   3.824   1.592  0.1738  0.1246 -0.0787
  767SOL     OW 3065   0.454   3.980   1.503  0.1965 -0.6592  0.1314
  767SOL    HW2 3066   0.546   3.954   1.499  0.8391  1.7915 -1.6521
  767SOL    HW3 3067   0.422   3.971   1.413 -0.9562 -0.1884  0.4844
  767SOL    MW4 3068   0.462   3.975   1.491  0.1292 -0.2738 -0.0574
  768SOL     OW 3069   0.438   4.270   1.614 -0.8413  0.3197  0.1638
  768SOL    HW2 3070   0.438   4.184   1.571 -1.3369  0.5546 -0.3283
  768SOL    HW3 3071   0.375   4.321   1.563 -0.9942  0.7903  0.8207
  768SOL    MW4 3072   0.429   4.265   1.601 -0.9268  0.4128  0.1855
  769SOL     OW 3073   0.658   4.381   1.485  0.2294  0.1650 -0.0010
  769SOL    HW2 3074   0.582   4.359   1.538 -1.7020  2.9840 -1.4537
  769SOL    HW3 3075   0.686   4.466   1.518  1.5701  0.0142 -0.7437
  769SOL    MW4 3076   0.651   4.389   1.496  0.1515  0.5170 -0.2907
  770SOL     OW 3077   1.135   4.620   1.619  0.1653  0.5889  0.4060
  770SOL    HW2 3078   1.141   4.648   1.710  0.0266 -2.1172  1.2897
  770SOL    HW3 3079   1.207   4.665   1.575  1.6064  0.2050  2.3165
  770SOL    MW4 3080   1.145   4.630   1.625  0.3372  0.1812  0.7746
  771SOL     OW 3081   0.923   0.099   1.497 -0.0346  0.3611 -0.1824
  771SOL    HW2 3082   0.905   0.185   1.535 -1.0239  0.0716  0.0225
  771SOL    HW3 3083   0.993   0.062   1.551  0.0207  0.8128  0.0575
  771SOL    MW4 3084   0.930   0.105   1.509 -0.1578  0.3825 -0.1237
  772SOL     OW 3085   0.905   0.329   1.630  0.2289  0.2511 -0.3892
  772SOL    HW2 3086   0.932   0.334   1.722 -0.1862  0.0467 -0.2538
  772SOL    HW3 3087   0.830   0.388   1.624 -1.3027 -1.5859 -0.0156
  772SOL    MW4 3088   0.898   0.338   1.641 -0.0279 -0.0182 -0.3220
  773SOL     OW 3089   1.105   0.491   1.521 -0.2927  0.0835  0.2855
  773SOL    HW2 3090   1.096   0.585   1.541  0.6961  0.4710 -1.0184
  773SOL    HW3 3091   1.026   0.451   1.558 -0.0071  1.2052  2.1878
  773SOL    MW4 3092   1.093   0.498   1.529 -0.1245  0.2826  0.3645
  774SOL     OW 3093   1.142   0.784   1.617 -0.2370 -0.6249  0.1087
  774SOL    HW2 3094   1.155   0.759   1.709  1.7897 -0.7309 -0.1801
  774SOL    HW3 3095   1.216   0.841   1.598 -0.8220 -0.3647 -1.3783
  774SOL    MW4 3096   1.153   0.788   1.627 -0.0468 -0.6045 -0.1256
  775SOL     OW 3097   0.938   0.925   1.529  0.2434 -0.0957 -0.3083
  775SOL    HW2 3098   1.017   0.880   1.559  0.1878  0.1928  0.2901
  775SOL    HW3 3099   0.944   0.925   1.434  1.2077  0.3360 -0.2540
  775SOL    MW4 3100   0.949   0.919   1.521  0.3633 -0.0007 -0.2222
  776SOL     OW 3101   0.930   1.170   1.628 -0.0659  0.3345  0.3761
  776SOL    HW2 3102   0.939   1.084   1.587  0.7179  0.6955 -0.2188
  776SOL    HW3 3103   0.841   1.198   1.607  0.0116  0.1030 -0.2631
  776SOL    MW4 3104   0.920   1.162   1.620  0.0477  0.3516  0.2133
  777SOL     OW 3105   1.131   1.315   1.479 -0.1173 -0.3165 -0.3226
  777SOL    HW2 3106   1.214   1.278   1.509  0.2693  0.5860 -0.2992
  777SOL    HW3 3107   1.065   1.266   1.530  0.3376 -1.6212 -0.9534
  777SOL    MW4 3108   1.133   1.303   1.490 -0.0063 -0.3696 -0.4027
  778SOL     OW 3109   1.131   1.558   1.606  0.1603  0.0095 -0.2574
  778SOL    HW2 3110   1.215   1.593   1.577 -0.7473  0.9484 -1.8050
  778SOL    HW3 3111   1.124   1.472   1.564 -0.7000  0.9408 -2.0739
  778SOL    MW4 3112   1.141   1.551   1.597 -0.0730  0.2563 -0.7013
  779SOL     OW 3113   0.906   1.682   1.516 -0.5693 -0.2378 -0.3366
  779SOL    HW2 3114   0.982   1.635   1.550  1.1576  2.8100  0.1843
  779SOL    HW3 3115   0.915   1.676   1.420  0.0497 -0.3315 -0.2759
  779SOL    MW4 3116   0.917   1.675   1.508 -0.2598  0.1520 -0.2598
  780SOL     OW 3117   0.896   1.944   1.603 -0.0250 -0.2166  0.1771
  780SOL    HW2 3118   0.957   1.985   1.541 -1.0660  0.5344 -0.3866
  780SOL    HW3 3119   0.896   1.852   1.579  0.7433 -0.1908  0.0581
  780SOL    MW4 3120   0.904   1.938   1.592 -0.0610 -0.1141  0.0870
  781SOL     OW 3121   1.122   2.104   1.473  0.0053  0.3499  0.1145
  781SOL    HW2 3122   1.186   2.046   1.516 -0.7554  0.1452  0.9816
  781SOL    HW3 3123   1.133   2.188   1.516 -0.0958  0.3986  0.0454
  781SOL    MW4 3124   1.132   2.107   1.484 -0.1084  0.3293  0.2198
  782SOL     OW 3125   1.129   2.329   1.616  0.0609 -0.5608 -0.2421
  782SOL    HW2 3126   1.199   2.383   1.579  1.0901 -2.0427 -0.4797
  782SOL    HW3 3127   1.050   2.381   1.603  1.1398  1.2694  0.2769
  782SOL    MW4 3128   1.128   2.343   1.610  0.3391 -0.5149 -0.2050
  783SOL     OW 3129   0.906   2.484   1.507 -0.0450  0.2697  0.5353
  783SOL    HW2 3130   0.894   2.568   1.552 -0.9100  0.2023  0.4482
  783SOL    HW3 3131   0.830   2.432   1.534 -0.2090 -0.0176 -0.4603
  783SOL    MW4 3132   0.894   2.488   1.517 -0.1808  0.2229  0.3924
  784SOL     OW 3133   0.909   2.719   1.623 -0.3718  0.1507  0.4298
  784SOL    HW2 3134   0.900   2.729   1.718 -0.8518 -1.0031  0.5200
  784SOL    HW3 3135   0.831   2.762   1.587 -1.1527 -1.0238  0.6725
  784SOL    MW4 3136   0.897   2.726   1.631 -0.5382 -0.1565  0.4737
  785SOL     OW 3137   1.135   2.848   1.510 -0.4139  0.0588  0.3332
  785SOL    HW2 3138   1.133   2.943   1.526 -0.2940  0.4924 -1.9764
  785SOL    HW3 3139   1.059   2.814   1.557  0.2152  1.1266  2.1615
  785SOL    MW4 3140   1.125   2.856   1.518 -0.3151  0.2569  0.2697
  786SOL     OW 3141   1.094   3.120   1.568 -0.3763  0.2609 -0.2511
  786SOL    HW2 3142   1.104   3.120   1.663 -0.8803 -0.3412 -0.1930
  786SOL    HW3 3143   1.176   3.156   1.534  0.5918 -1.3607  0.3229
  786SOL    MW4 3144   1.106   3.125   1.576 -0.3151 -0.0325 -0.1677
  787SOL     OW 3145   0.887   3.268   1.491  0.2488  0.2482 -0.4253
  787SOL    HW2 3146   0.957   3.219   1.534  0.1429  1.5537  1.3160
  787SOL    HW3 3147   0.908   3.263   1.398  1.2799 -1.4654 -0.1214
  787SOL    MW4 3148   0.899   3.261   1.484  0.3709  0.1943 -0.1554
  788SOL     OW 3149   0.959   3.505   1.617  0.0061 -0.4540 -0.2449
  788SOL    HW2 3150   1.022   3.557   1.566 -0.1589  0.1500  0.1582
  788SOL    HW3 3151   0.943   3.427   1.563 -0.9495  0.6551 -1.5945
  788SOL    MW4 3152   0.965   3.502   1.603 -0.1417 -0.2280 -0.3698
  789SOL     OW 3153   1.159   3.639   1.502 -0.0421 -0.1060 -0.0262
  789SOL    HW2 3154   1.235   3.584   1.521  0.5348  0.8897  0.6046
  789SOL    HW3 3155   1.137   3.618   1.411  1.1562 -0.2146 -0.3098
  789SOL    MW4 3156   1.166   3.629   1.493  0.1921  0.0110  0.0196
  790SOL     OW 3157   1.180   3.896   1.614  0.1041  0.0952 -0.1300
  790SOL    HW2 3158   1.256   3.941   1.576  0.3477  0.0458  0.2920
  790SOL    HW3 3159   1.182   3.809   1.576  0.2544  0.0965 -0.1255
  790SOL    MW4 3160   1.190   3.891   1.604  0.1561  0.0888 -0.0738
  791SOL     OW 3161   0.928   3.967   1.546 -0.0460 -0.0486 -0.4130
  791SOL    HW2 3162   0.922   4.059   1.571 -1.3182 -0.0432 -0.7361
  791SOL    HW3 3163   1.020   3.944   1.562  0.0261  0.9769  0.6752
  791SOL    MW4 3164   0.940   3.976   1.551 -0.2044  0.0874 -0.3120
  792SOL     OW 3165   0.882   4.245   1.581 -0.3328  0.4831  0.3573
  792SOL    HW2 3166   0.879   4.261   1.676 -0.6095  1.1123  0.2398
  792SOL    HW3 3167   0.802   4.285   1.548  0.1862  1.0020 -0.2642
  792SOL    MW4 3168   0.871   4.252   1.589 -0.3008  0.6346  0.2598
  793SOL     OW 3169   1.083   4.383   1.476  0.0769  0.1180 -0.0307
  793SOL    HW2 3170   1.008   4.338   1.513  1.6884 -1.5502  1.2928
  793SOL    HW3 3171   1.080   4.471   1.514 -1.5795  0.3103 -0.5645
  793SOL    MW4 3172   1.073   4.389   1.486  0.0709 -0.0767  0.0735
  794SOL     OW 3173   1.595   0.022   1.587 -0.3654  0.0958  0.0712
  794SOL    HW2 3174   1.590   0.023   1.682 -1.3309 -0.6946  0.0337
  794SOL    HW3 3175   1.517   0.069   1.558 -0.1394  0.2245 -0.3302
  794SOL    MW4 3176   1.584   0.028   1.596 -0.4630  0.0085  0.0133
  795SOL     OW 3177   1.346   0.116   1.519 -0.2378 -0.1798 -0.3008
  795SOL    HW2 3178   1.338   0.202   1.561 -0.1066 -0.1708 -0.2953
  795SOL    HW3 3179   1.330   0.134   1.426  0.4380 -0.0478 -0.3884
  795SOL    MW4 3180   1.343   0.130   1.512 -0.1313 -0.1612 -0.3116
  796SOL     OW 3181   1.353   0.373   1.603  0.1289  0.1674 -0.3330
  796SOL    HW2 3182   1.420   0.430   1.563 -1.0967  2.7316  1.1452
  796SOL    HW3 3183   1.270   0.413   1.576 -0.7527 -0.9236  0.7644
  796SOL    MW4 3184   1.351   0.386   1.594 -0.1491  0.3617  0.0068
  797SOL     OW 3185   1.573   0.535   1.507 -0.5076  0.2122 -0.5085
  797SOL    HW2 3186   1.652   0.495   1.543  0.2959  1.0128 -1.3606
  797SOL    HW3 3187   1.583   0.527   1.412 -0.8708  1.4042 -0.6572
  797SOL    MW4 3188   1.585   0.528   1.499 -0.4495  0.4751 -0.6405
  798SOL     OW 3189   1.551   0.792   1.583  0.4395 -0.1169 -0.2117
  798SOL    HW2 3190   1.570   0.786   1.677  0.5731 -0.5002 -0.2626
  798SOL    HW3 3191   1.564   0.703   1.550  0.6454  0.0716 -0.6409
  798SOL    MW4 3192   1.555   0.779   1.591  0.4843 -0.1426 -0.2750
  799SOL     OW 3193   1.349   0.956   1.467 -0.0588  0.1160 -0.1567
  799SOL    HW2 3194   1.416   0.895   1.495 -0.5926 -0.3784  0.0543
  799SOL    HW3 3195   1.345   0.947   1.372  0.1760  0.1555 -0.1703
  799SOL    MW4 3196   1.357   0.947   1.458 -0.0982  0.0560 -0.1306
  800SOL     OW 3197   1.368   1.207   1.565  0.8126 -0.0140  0.4135
  800SOL    HW2 3198   1.360   1.188   1.658  2.0304 -0.1665  0.4924
  800SOL    HW3 3199   1.370   1.121   1.523  0.0690  0.0558  0.2160
  800SOL    MW4 3200   1.367   1.193   1.572  0.8751 -0.0249  0.3978
  801SOL     OW 3201   1.607   1.328   1.511  0.7427  0.4331  0.5232
  801SOL    HW2 3202   1.524   1.292   1.542  1.9607 -0.1542  3.2702
  801SOL    HW3 3203   1.611   1.303   1.419 -2.7902  1.7791 -0.0593
  801SOL    MW4 3204   1.597   1.320   1.503  0.4373  0.5332  0.8088
  802SOL     OW 3205   1.612   1.582   1.602 -0.0432  0.0405 -0.5289
  802SOL    HW2 3206   1.590   1.556   1.691 -1.0736 -0.2462 -0.8574
  802SOL    HW3 3207   1.618   1.499   1.554  0.4000  0.1982 -0.7416
  802SOL    MW4 3208   1.610   1.568   1.607 -0.1207  0.0234 -0.6003
  803SOL     OW 3209   1.363   1.672   1.508  0.0653  0.1172 -0.7188
  803SOL    HW2 3210   1.447   1.642   1.543  0.2019  0.0234 -1.1349
  803SOL    HW3 3211   1.368   1.656   1.414 -1.1339 -1.5825 -0.5083
  803SOL    MW4 3212   1.374   1.666   1.501 -0.0749 -0.1195 -0.7459
  804SOL     OW 3213   1.315   1.949   1.584  0.0578 -0.2364  0.2791
  804SOL    HW2 3214   1.320   1.953   1.679 -0.3993 -1.3335  0.3660
  804SOL    HW3 3215   1.325   1.856   1.564  0.3594  0.0129 -0.7536
  804SOL    MW4 3216   1.317   1.937   1.594  0.0373 -0.3483  0.1543
  805SOL     OW 3217   1.575   2.082   1.542  0.2799  0.0270  0.0075
  805SOL    HW2 3218   1.490   2.050   1.571 -0.4432  0.9223 -1.0838
  805SOL    HW3 3219   1.572   2.076   1.446  1.2508  0.5369 -0.0652
  805SOL    MW4 3220   1.563   2.077   1.533  0.3126  0.2124 -0.1461
  806SOL     OW 3221   1.582   2.354   1.610  0.1959 -0.6345  0.4150
  806SOL    HW2 3222   1.658   2.398   1.572  1.0235 -2.1501  0.2360
  806SOL    HW3 3223   1.597   2.261   1.591 -1.3963 -1.0176  0.9283
  806SOL    MW4 3224   1.594   2.347   1.602  0.0950 -0.8850  0.4591
  807SOL     OW 3225   1.336   2.442   1.455  0.3915  0.1434  0.1654
  807SOL    HW2 3226   1.339   2.528   1.497 -0.1155 -0.4802  1.5226
  807SOL    HW3 3227   1.410   2.395   1.493  0.4442 -0.1412 -0.2928
  807SOL    MW4 3228   1.346   2.447   1.466  0.3316  0.0236  0.2840
  808SOL     OW 3229   1.363   2.702   1.586  0.1067  0.4119  0.3143
  808SOL    HW2 3230   1.435   2.764   1.575  0.9961 -0.5643  0.5442
  808SOL    HW3 3231   1.285   2.753   1.566  0.8186  1.6020  0.4760
  808SOL    MW4 3232   1.362   2.717   1.582  0.3180  0.4401  0.3660
  809SOL     OW 3233   1.617   2.853   1.540  0.1599 -0.0752 -0.2603
  809SOL    HW2 3234   1.686   2.799   1.577  0.2329 -0.0441 -0.3496
  809SOL    HW3 3235   1.617   2.831   1.446  1.2678  1.2458 -0.5899
  809SOL    MW4 3236   1.626   2.843   1.532  0.3157  0.1032 -0.3156
  810SOL     OW 3237   1.573   3.090   1.640 -0.0801  0.3301 -0.2336
  810SOL    HW2 3238   1.642   3.128   1.584  0.3509  0.4206  0.3590
  810SOL    HW3 3239   1.584   2.996   1.629  0.8283  0.3153  0.6750
  810SOL    MW4 3240   1.584   3.083   1.631  0.0966  0.3401 -0.0355
  811SOL     OW 3241   1.351   3.211   1.530  0.2708 -0.0787  0.0649
  811SOL    HW2 3242   1.375   3.303   1.547 -3.6129  0.6319  2.4431
  811SOL    HW3 3243   1.410   3.160   1.585  1.9246  1.0408 -0.6513
  811SOL    MW4 3244   1.362   3.217   1.540 -0.0234  0.1628  0.2842
  812SOL     OW 3245   1.366   3.479   1.570 -0.5278  0.0476  0.5566
  812SOL    HW2 3246   1.370   3.483   1.665 -0.0539  1.1166  0.5016
  812SOL    HW3 3247   1.441   3.531   1.541 -2.0055  1.7087 -0.4062
  812SOL    MW4 3248   1.376   3.486   1.578 -0.6602  0.4078  0.4223
  813SOL     OW 3249   1.599   3.607   1.513  0.3321  0.2460  0.0976
  813SOL    HW2 3250   1.624   3.694   1.543 -0.5185  0.4663  0.1921
  813SOL    HW3 3251   1.584   3.618   1.419  0.6420  0.1057  0.0323
  813SOL    MW4 3252   1.600   3.620   1.505  0.2608  0.2566  0.1015
  814SOL     OW 3253   1.619   3.873   1.581 -0.2013  0.1241 -0.1256
  814SOL    HW2 3254   1.614   3.882   1.676  0.9131 -0.4125 -0.0118
  814SOL    HW3 3255   1.553   3.934   1.548 -0.0370  0.9017  0.9536
  814SOL    MW4 3256   1.610   3.882   1.589 -0.0326  0.1559  0.0318
  815SOL     OW 3257   1.420   4.048   1.510 -0.6339  0.0858  0.0456
  815SOL    HW2 3258   1.398   4.136   1.541 -1.8054 -0.2448  0.1751
  815SOL    HW3 3259   1.402   4.052   1.416 -1.5758 -0.2789  0.2055
  815SOL    MW4 3260   1.415   4.060   1.501 -0.9127 -0.0060  0.0838
  816SOL     OW 3261   1.325   4.289   1.563 -0.4085 -0.3272 -0.2496
  816SOL    HW2 3262   1.389   4.360   1.562 -0.2934 -0.4355 -0.4550
  816SOL    HW3 3263   1.243   4.330   1.535 -0.5472 -0.0753  0.4955
  816SOL    MW4 3264   1.323   4.304   1.559 -0.4116 -0.3083 -0.1784
  817SOL     OW 3265   1.558   4.425   1.501  0.1645 -0.3924 -0.2535
  817SOL    HW2 3266   1.646   4.391   1.519  0.4144 -0.0599 -0.8388
  817SOL    HW3 3267   1.555   4.509   1.546 -0.1296 -0.7497  0.4120
  817SOL    MW4 3268   1.569   4.431   1.509  0.1587 -0.3957 -0.2429
  818SOL     OW 3269   2.016   0.015   1.558 -0.3348 -0.3627 -0.2311
  818SOL    HW2 3270   2.015   0.005   1.654  0.5592 -1.1102 -0.2987
  818SOL    HW3 3271   1.942   0.074   1.540  1.0187  1.8182  1.1359
  818SOL    MW4 3272   2.006   0.022   1.568 -0.0383 -0.1736 -0.0597
  819SOL     OW 3273   1.809   0.171   1.477 -0.0609 -0.0036 -0.9151
  819SOL    HW2 3274   1.735   0.119   1.509 -0.6858  0.7126 -1.1740
  819SOL    HW3 3275   1.803   0.164   1.382 -0.4657  0.9781 -0.9642
  819SOL    MW4 3276   1.798   0.163   1.469 -0.1968  0.2204 -0.9557
  820SOL     OW 3277   1.816   0.420   1.601  0.2232 -0.2737 -0.0830
  820SOL    HW2 3278   1.883   0.469   1.555  0.3051  0.2730  0.5941
  820SOL    HW3 3279   1.809   0.336   1.555  1.1671 -0.2194 -0.3168
  820SOL    MW4 3280   1.824   0.415   1.589  0.3586 -0.1944 -0.0245
  821SOL     OW 3281   2.046   0.540   1.478  0.1897 -0.3855 -0.0600
  821SOL    HW2 3282   2.107   0.479   1.519 -0.9413 -0.6896  1.2282
  821SOL    HW3 3283   2.058   0.622   1.526  0.8153  0.0494 -0.9552
  821SOL    MW4 3284   2.056   0.543   1.490  0.1230 -0.3683 -0.0082
  822SOL     OW 3285   2.034   0.795   1.614 -0.5392  0.0706 -0.0577
  822SOL    HW2 3286   2.103   0.837   1.564 -1.0950  0.0202 -0.8906
  822SOL    HW3 3287   1.955   0.807   1.561 -1.4562  1.3855  1.5462
  822SOL    MW4 3288   2.032   0.802   1.601 -0.7335  0.2375  0.0441
  823SOL     OW 3289   1.807   0.863   1.479  0.4420  0.3839 -0.0509
  823SOL    HW2 3290   1.804   0.950   1.520  0.0219 -0.2714  1.3678
  823SOL    HW3 3291   1.720   0.826   1.497  0.3194 -0.0000 -1.3942
  823SOL    MW4 3292   1.795   0.869   1.487  0.3704  0.2468 -0.0409
  824SOL     OW 3293   1.802   1.141   1.581 -0.3086  0.0893 -0.1621
  824SOL    HW2 3294   1.874   1.178   1.529 -0.6830  0.2051 -0.5964
  824SOL    HW3 3295   1.730   1.203   1.570 -0.7594 -0.4818 -0.4453
  824SOL    MW4 3296   1.802   1.154   1.573 -0.4174  0.0292 -0.2568
  825SOL     OW 3297   2.043   1.241   1.477 -0.4774  0.1871 -0.2494
  825SOL    HW2 3298   2.038   1.324   1.523 -1.2731 -0.5248  0.9812
  825SOL    HW3 3299   2.054   1.265   1.385 -0.0523  1.6337  0.1639
  825SOL    MW4 3300   2.044   1.255   1.471 -0.5263  0.2840 -0.0325
  826SOL     OW 3301   2.050   1.495   1.608 -0.3223 -0.3446 -0.0182
  826SOL    HW2 3302   2.122   1.522   1.551 -0.2156  0.5180  0.5277
  826SOL    HW3 3303   1.977   1.551   1.583  0.0395  0.8095  1.4384
  826SOL    MW4 3304   2.050   1.506   1.597 -0.2605 -0.0786  0.2460
  827SOL     OW 3305   1.847   1.680   1.520  0.4049  0.2573  0.7573
  827SOL    HW2 3306   1.765   1.655   1.562 -0.0911  0.7049  0.0527
  827SOL    HW3 3307   1.835   1.659   1.428  1.0372  0.4365  0.6279
  827SOL    MW4 3308   1.835   1.674   1.513  0.4229  0.3400  0.6473
  828SOL     OW 3309   1.812   1.928   1.620  0.3807 -0.5310 -0.2426
  828SOL    HW2 3310   1.830   1.842   1.581  0.3793 -0.5299 -0.2457
  828SOL    HW3 3311   1.740   1.963   1.568  0.1429 -0.6814 -0.0165
  828SOL    MW4 3312   1.805   1.921   1.608  0.3492 -0.5507 -0.2132
  829SOL     OW 3313   2.008   2.086   1.469 -0.0771  0.4663  0.3752
  829SOL    HW2 3314   2.079   2.022   1.475 -0.3066  0.2720  0.9871
  829SOL    HW3 3315   1.942   2.056   1.531 -1.6421 -0.5176 -1.7060
  829SOL    MW4 3316   2.009   2.073   1.478 -0.3139  0.3109  0.1814
  830SOL     OW 3317   2.035   2.335   1.581 -0.4878 -0.1752 -0.5222
  830SOL    HW2 3318   2.031   2.319   1.675 -0.5048 -1.2675 -0.6917
  830SOL    HW3 3319   2.040   2.247   1.542  1.3884  0.3277 -1.4582
  830SOL    MW4 3320   2.035   2.321   1.588 -0.2425 -0.2529 -0.6680
  831SOL     OW 3321   1.820   2.463   1.490  0.1727 -0.5569 -0.1219
  831SOL    HW2 3322   1.907   2.431   1.516  1.1195  0.6584 -1.7539
  831SOL    HW3 3323   1.813   2.441   1.398 -0.8703  0.2261 -0.2336
  831SOL    MW4 3324   1.831   2.456   1.482  0.1600 -0.2932 -0.3519
  832SOL     OW 3325   1.810   2.699   1.632  0.2596 -0.3795 -0.3487
  832SOL    HW2 3326   1.895   2.739   1.613  0.2640 -0.5754 -0.7419
  832SOL    HW3 3327   1.812   2.616   1.584 -0.9633  0.5383 -2.0467
  832SOL    MW4 3328   1.822   2.694   1.623  0.0988 -0.2843 -0.6246
  833SOL     OW 3329   2.021   2.826   1.521 -0.3249  0.0597 -0.4242
  833SOL    HW2 3330   2.032   2.920   1.535  0.1100 -0.1290  0.5189
  833SOL    HW3 3331   2.015   2.817   1.426 -0.0238  0.9983 -0.5409
  833SOL    MW4 3332   2.022   2.837   1.510 -0.2278  0.1586 -0.3152
  834SOL     OW 3333   2.046   3.092   1.592 -0.1103 -0.2401  0.1909
  834SOL    HW2 3334   2.054   3.096   1.688 -0.3838  1.6835  0.1432
  834SOL    HW3 3335   2.126   3.131   1.559 -1.2586  1.7411 -0.3346
  834SOL    MW4 3336   2.058   3.098   1.600 -0.2978  0.2751  0.1153
  835SOL     OW 3337   1.801   3.200   1.502  0.3528  0.0787  0.0068
  835SOL    HW2 3338   1.796   3.290   1.534  0.0331 -0.3477  1.1904
  835SOL    HW3 3339   1.879   3.163   1.544  0.2775 -0.3110 -0.1878
  835SOL    MW4 3340   1.811   3.207   1.512  0.3007 -0.0290  0.1373
  836SOL     OW 3341   1.816   3.460   1.600 -0.1529  0.1173 -0.3765
  836SOL    HW2 3342   1.829   3.448   1.694 -0.4863 -0.7564 -0.4325
  836SOL    HW3 3343   1.726   3.492   1.592  0.9045  3.2484 -0.1938
  836SOL    MW4 3344   1.806   3.462   1.611 -0.0574  0.4151 -0.3598
  837SOL     OW 3345   2.025   3.637   1.499 -0.3861  0.4872  0.7543
  837SOL    HW2 3346   2.091   3.572   1.525 -0.3293  0.2603  0.0484
  837SOL    HW3 3347   1.942   3.598   1.525 -0.3459  0.1615  0.4028
  837SOL    MW4 3348   2.023   3.623   1.506 -0.3733  0.4143  0.6148
  838SOL     OW 3349   2.050   3.891   1.610  0.3062 -0.0148 -0.0094
  838SOL    HW2 3350   2.127   3.938   1.579  0.7115  0.0504  1.0674
  838SOL    HW3 3351   2.057   3.804   1.570  0.6647  0.1619 -0.3317
  838SOL    MW4 3352   2.061   3.886   1.601  0.4070  0.0171  0.0901
  839SOL     OW 3353   1.828   4.047   1.525  0.4660 -0.4628  0.3442
  839SOL    HW2 3354   1.916   4.018   1.547  0.3854 -2.3075 -1.5318
  839SOL    HW3 3355   1.770   3.984   1.569  0.1439 -0.4117 -0.0018
  839SOL    MW4 3356   1.832   4.035   1.534  0.4129 -0.6994  0.0511
  840SOL     OW 3357   1.804   4.324   1.593 -0.3774 -0.1066  0.0318
  840SOL    HW2 3358   1.879   4.369   1.554 -0.5299 -0.5737 -0.8014
  840SOL    HW3 3359   1.812   4.233   1.563 -2.1767  0.1879 -1.4273
  840SOL    MW4 3360   1.815   4.318   1.584 -0.6349 -0.1294 -0.2706
  841SOL     OW 3361   2.039   4.417   1.470  0.2112 -0.5293 -0.2791
  841SOL    HW2 3362   2.106   4.380   1.526 -0.1573 -0.6918  0.0532
  841SOL    HW3 3363   2.043   4.511   1.487 -1.3935 -0.7813  1.6787
  841SOL    MW4 3364   2.048   4.425   1.479 -0.0492 -0.5840  0.0231
  842SOL     OW 3365   2.458   0.001   1.596  0.1108 -0.1774  0.3110
  842SOL    HW2 3366   2.470   0.012   1.690  0.0803  0.1398  0.2780
  842SOL    HW3 3367   2.385   0.059   1.574 -0.1235 -0.5261  0.1544
  842SOL    MW4 3368   2.450   0.010   1.605  0.0758 -0.1816  0.2860
  843SOL     OW 3369   2.258   0.153   1.488 -0.3768 -0.4156  0.3527
  843SOL    HW2 3370   2.174   0.109   1.496  0.5591 -2.2507  0.3990
  843SOL    HW3 3371   2.268   0.171   1.395 -1.1098  0.4305  0.4293
  843SOL    MW4 3372   2.248   0.150   1.477 -0.3500 -0.5461  0.3689
  844SOL     OW 3373   2.250   0.394   1.589  0.7974  0.5985  0.1489
  844SOL    HW2 3374   2.253   0.381   1.684 -1.3546 -0.5322  0.1046
  844SOL    HW3 3375   2.251   0.305   1.553 -0.3600  0.9567 -0.7924
  844SOL    MW4 3376   2.251   0.380   1.597  0.3607  0.4966  0.0188
  845SOL     OW 3377   2.519   0.507   1.504  0.4101 -0.0158  0.2333
  845SOL    HW2 3378   2.593   0.450   1.526  0.9176  0.2387 -0.7634
  845SOL    HW3 3379   2.442   0.458   1.533  0.9270 -0.5773  0.6778
  845SOL    MW4 3380   2.519   0.493   1.511  0.5452 -0.0563  0.1605
  846SOL     OW 3381   2.522   0.739   1.614 -0.1507  0.2971  0.0588
  846SOL    HW2 3382   2.442   0.777   1.578  0.6850  1.0687 -1.0015
  846SOL    HW3 3383   2.518   0.647   1.589 -0.2178  0.5515 -0.8797
  846SOL    MW4 3384   2.511   0.732   1.606 -0.0493  0.4325 -0.2049
  847SOL     OW 3385   2.300   0.869   1.483  0.6112 -0.0540  0.8464
  847SOL    HW2 3386   2.292   0.962   1.508  1.6287  0.2089  0.2501
  847SOL    HW3 3387   2.290   0.869   1.388  0.0483 -0.6385  0.9002
  847SOL    MW4 3388   2.298   0.882   1.474  0.6712 -0.0964  0.7748
  848SOL     OW 3389   2.263   1.121   1.581  0.3774  0.1987  0.3262
  848SOL    HW2 3390   2.259   1.139   1.675 -1.0971 -3.3016  1.0121
  848SOL    HW3 3391   2.185   1.164   1.545  1.0522  1.7144  0.6227
  848SOL    MW4 3392   2.252   1.129   1.589  0.2719 -0.0632  0.4558
  849SOL     OW 3393   2.489   1.288   1.488  0.0511 -0.1053 -0.4030
  849SOL    HW2 3394   2.426   1.220   1.512  0.6206 -0.5592 -0.1786
  849SOL    HW3 3395   2.478   1.298   1.393 -0.9420  0.4151 -0.2295
  849SOL    MW4 3396   2.480   1.280   1.479 -0.0048 -0.0965 -0.3505
  850SOL     OW 3397   2.480   1.547   1.578 -0.2714  0.0270 -0.0075
  850SOL    HW2 3398   2.563   1.587   1.552  0.1421 -0.9995 -0.3075
  850SOL    HW3 3399   2.490   1.454   1.555 -1.1012 -0.3000  0.9215
  850SOL    MW4 3400   2.492   1.540   1.571 -0.3264 -0.1516  0.0755
  851SOL     OW 3401   2.271   1.618   1.425 -0.1939  0.3126  0.2638
  851SOL    HW2 3402   2.355   1.581   1.455 -0.5332 -1.2136 -0.6322
  851SOL    HW3 3403   2.287   1.644   1.335 -0.9963 -1.0765 -0.2998
  851SOL    MW4 3404   2.285   1.616   1.417 -0.3445 -0.0721  0.0712
  852SOL     OW 3405   2.219   1.902   1.521 -0.4350  0.0765 -0.2987
  852SOL    HW2 3406   2.226   1.896   1.616  0.1113  2.3086 -0.1809
  852SOL    HW3 3407   2.230   1.812   1.490  0.7947 -0.4536  1.6478
  852SOL    MW4 3408   2.221   1.889   1.529 -0.2007  0.3011 -0.0263
  853SOL     OW 3409   2.494   2.044   1.486 -0.1240 -0.0726  0.1663
  853SOL    HW2 3410   2.412   1.996   1.502  0.2648 -0.5726  0.6962
  853SOL    HW3 3411   2.505   2.042   1.391 -0.3397 -0.6677  0.1486
  853SOL    MW4 3412   2.484   2.037   1.476 -0.1012 -0.2171  0.2339
  854SOL     OW 3413   2.471   2.296   1.595  0.0736  0.0283  0.1696
  854SOL    HW2 3414   2.480   2.279   1.688 -1.0285 -0.0198  0.2751
  854SOL    HW3 3415   2.493   2.213   1.553 -0.6892 -0.3271  0.4565
  854SOL    MW4 3416   2.475   2.283   1.602 -0.1724 -0.0250  0.2213
  855SOL     OW 3417   2.250   2.465   1.479 -0.0947  0.3246  0.3540
  855SOL    HW2 3418   2.320   2.405   1.505 -0.0809 -0.2332 -0.8893
  855SOL    HW3 3419   2.170   2.424   1.511  0.0366  0.3458  0.7136
  855SOL    MW4 3420   2.249   2.452   1.486 -0.0756  0.2538  0.2374
  856SOL     OW 3421   2.247   2.704   1.619 -0.2641 -0.0455  0.3783
  856SOL    HW2 3422   2.253   2.620   1.573  2.0098  0.5051 -0.3820
  856SOL    HW3 3423   2.167   2.744   1.585 -0.2028 -0.9553 -0.8746
  856SOL    MW4 3424   2.237   2.698   1.608  0.0440 -0.0929  0.1127
  857SOL     OW 3425   2.478   2.805   1.506  0.6362 -0.0349 -0.2203
  857SOL    HW2 3426   2.448   2.894   1.523  0.8505 -0.2825  1.4829
  857SOL    HW3 3427   2.408   2.748   1.540  1.9002 -0.5590  1.5695
  857SOL    MW4 3428   2.465   2.809   1.513  0.8313 -0.1367  0.2406
  858SOL     OW 3429   2.484   3.072   1.574  0.2397  0.1662  0.5781
  858SOL    HW2 3430   2.566   3.117   1.554  0.0221  0.5450  0.5509
  858SOL    HW3 3431   2.415   3.132   1.545 -0.0439 -0.4188  0.0257
  858SOL    MW4 3432   2.486   3.086   1.568  0.1736  0.1390  0.5016
  859SOL     OW 3433   2.277   3.210   1.472  0.0117  0.1534 -0.2776
  859SOL    HW2 3434   2.264   3.299   1.505 -0.1977 -0.4139  1.2375
  859SOL    HW3 3435   2.273   3.219   1.377  1.9841  2.0576 -0.2133
  859SOL    MW4 3436   2.274   3.223   1.464  0.2443  0.3298 -0.0692
  860SOL     OW 3437   2.238   3.452   1.588  0.4332 -0.4299  0.0360
  860SOL    HW2 3438   2.249   3.459   1.683  0.4058  0.2502 -0.0114
  860SOL    HW3 3439   2.319   3.488   1.551  0.7765 -1.4077 -0.1891
  860SOL    MW4 3440   2.250   3.458   1.595  0.4749 -0.4692  0.0001
  861SOL     OW 3441   2.457   3.603   1.490 -0.0815 -0.2549  0.7308
  861SOL    HW2 3442   2.528   3.554   1.532 -0.6901 -1.7695  0.0317
  861SOL    HW3 3443   2.452   3.684   1.539  1.2625 -0.6944  1.6317
  861SOL    MW4 3444   2.466   3.607   1.502  0.0155 -0.5127  0.7575
  862SOL     OW 3445   2.433   3.867   1.604  0.3869 -0.4474 -0.0038
  862SOL    HW2 3446   2.443   3.877   1.699 -0.1762  0.6412 -0.0479
  862SOL    HW3 3447   2.502   3.922   1.567 -0.2283  0.2045 -0.2190
  862SOL    MW4 3448   2.443   3.876   1.611  0.2314 -0.2177 -0.0380
  863SOL     OW 3449   2.239   4.055   1.501 -0.3847  0.4952 -0.1146
  863SOL    HW2 3450   2.311   4.005   1.539  0.0139  0.7021 -0.5860
  863SOL    HW3 3451   2.256   4.054   1.407 -2.9260 -2.4737 -0.6104
  863SOL    MW4 3452   2.251   4.049   1.493 -0.6674  0.1308 -0.2422
  864SOL     OW 3453   2.259   4.296   1.615 -0.2368  0.1192  0.5749
  864SOL    HW2 3454   2.347   4.327   1.593 -0.3646  0.1757  0.1448
  864SOL    HW3 3455   2.245   4.219   1.560 -0.3112 -0.1107  0.9140
  864SOL    MW4 3456   2.269   4.290   1.605 -0.2635  0.0963  0.5629
  865SOL     OW 3457   2.488   4.408   1.487 -0.1904  0.6796  0.1859
  865SOL    HW2 3458   2.481   4.494   1.528  2.5064  0.5295  1.0679
  865SOL    HW3 3459   2.511   4.426   1.396  0.5170  0.8992  0.4061
  865SOL    MW4 3460   2.490   4.422   1.480  0.2588  0.6888  0.3313
  866SOL     OW 3461   2.931   0.031   1.549 -0.0094 -0.3432 -0.4160
  866SOL    HW2 3462   2.925   0.026   1.645 -0.3445  0.6886 -0.3685
  866SOL    HW3 3463   2.844   0.060   1.521  0.1536 -0.4217 -1.0138
  866SOL    MW4 3464   2.918   0.034   1.558 -0.0321 -0.2174 -0.4886
  867SOL     OW 3465   2.677   0.105   1.461  0.4964 -0.3012 -0.0739
  867SOL    HW2 3466   2.697   0.184   1.510  0.4520  0.4079 -1.1690
  867SOL    HW3 3467   2.593   0.075   1.496 -0.0328  0.7635 -0.4125
  867SOL    MW4 3468   2.669   0.111   1.472  0.4207 -0.0672 -0.2631
  868SOL     OW 3469   2.719   0.344   1.583 -0.3591 -0.1065  0.0532
  868SOL    HW2 3470   2.718   0.364   1.677 -1.9186  0.2599 -0.0284
  868SOL    HW3 3471   2.803   0.378   1.552 -1.1329  2.5177  0.7419
  868SOL    MW4 3472   2.730   0.351   1.591 -0.6670  0.2880  0.1333
  869SOL     OW 3473   2.954   0.466   1.474 -0.2669 -0.4980  0.0500
  869SOL    HW2 3474   2.951   0.561   1.483  0.4410 -0.6485  1.9524
  869SOL    HW3 3475   2.933   0.450   1.382 -0.2208  1.5012 -0.3187
  869SOL    MW4 3476   2.950   0.476   1.463 -0.1674 -0.2541  0.2524
  870SOL     OW 3477   2.935   0.729   1.582  0.2152 -0.0906  0.1783
  870SOL    HW2 3478   2.930   0.737   1.677 -0.6457  2.5580 -0.0389
  870SOL    HW3 3479   2.857   0.775   1.550  0.1247 -1.5501 -1.8005
  870SOL    MW4 3480   2.924   0.736   1.591  0.0897  0.0663 -0.1114
  871SOL     OW 3481   2.738   0.896   1.517  0.0069  0.5453 -0.3282
  871SOL    HW2 3482   2.670   0.842   1.557  1.3855 -1.6843 -0.8760
  871SOL    HW3 3483   2.735   0.872   1.424  1.9804 -0.1491 -0.2435
  871SOL    MW4 3484   2.728   0.885   1.510  0.4491  0.1595 -0.3893
  872SOL     OW 3485   2.722   1.163   1.589 -0.0971 -0.2976  0.5487
  872SOL    HW2 3486   2.732   1.072   1.561 -1.1386 -0.5483  0.9315
  872SOL    HW3 3487   2.637   1.189   1.553 -0.1687  0.2594  1.1189
  872SOL    MW4 3488   2.712   1.154   1.581 -0.2440 -0.2572  0.6745
  873SOL     OW 3489   2.951   1.272   1.506  0.3848  0.1043  0.0092
  873SOL    HW2 3490   3.022   1.226   1.550  1.0046 -0.4080 -1.4673
  873SOL    HW3 3491   2.871   1.236   1.544  0.8996 -0.8346  0.2167
  873SOL    MW4 3492   2.950   1.261   1.517  0.5345 -0.0872 -0.1582
  874SOL     OW 3493   2.962   1.553   1.578  0.4531 -0.2250  0.1990
  874SOL    HW2 3494   2.877   1.586   1.550  0.5966  0.2596  0.3219
  874SOL    HW3 3495   2.969   1.467   1.537  0.2767  0.0963 -0.5153
  874SOL    MW4 3496   2.952   1.546   1.569  0.4488 -0.1187  0.1210
  875SOL     OW 3497   2.718   1.642   1.494  0.3418 -0.1321  0.0043
  875SOL    HW2 3498   2.731   1.732   1.523  1.1532 -0.4874  0.7789
  875SOL    HW3 3499   2.712   1.648   1.399 -0.4163  0.8262  0.0965
  875SOL    MW4 3500   2.719   1.655   1.485  0.3488 -0.0526  0.1187
  876SOL     OW 3501   2.746   1.940   1.582 -0.0841 -0.3370 -0.4151
  876SOL    HW2 3502   2.735   1.928   1.677  0.3844 -1.6524 -0.5124
  876SOL    HW3 3503   2.662   1.976   1.553 -0.4044 -0.3800  0.4343
  876SOL    MW4 3504   2.733   1.943   1.591 -0.0646 -0.5162 -0.3159
  877SOL     OW 3505   2.953   2.065   1.425 -0.1422 -0.3494  0.1554
  877SOL    HW2 3506   2.943   2.149   1.471  0.7143 -0.0787 -0.1353
  877SOL    HW3 3507   2.899   2.004   1.474 -1.8012  0.6537 -0.3604
  877SOL    MW4 3508   2.945   2.068   1.438 -0.2481 -0.1813  0.0490
  878SOL     OW 3509   2.891   2.315   1.552  0.3559  0.1185 -0.1139
  878SOL    HW2 3510   2.903   2.334   1.645  0.3961  2.6608 -0.5983
  878SOL    HW3 3511   2.812   2.362   1.527  0.4982 -0.3012 -1.4295
  878SOL    MW4 3512   2.882   2.323   1.561  0.3800  0.3986 -0.3514
  879SOL     OW 3513   2.661   2.467   1.497 -0.3046  0.8124 -0.1484
  879SOL    HW2 3514   2.671   2.552   1.540  0.8828  0.2397  0.7476
  879SOL    HW3 3515   2.594   2.422   1.549  0.0865  0.6726  0.2419
  879SOL    MW4 3516   2.653   2.472   1.510 -0.0964  0.7184  0.0213
  880SOL     OW 3517   2.723   2.727   1.626 -0.8797  0.4939 -0.3392
  880SOL    HW2 3518   2.791   2.769   1.573 -0.7422  1.3663  0.5092
  880SOL    HW3 3519   2.641   2.764   1.594 -1.0046 -0.8588 -1.6367
  880SOL    MW4 3520   2.721   2.737   1.615 -0.8781  0.4306 -0.3985
  881SOL     OW 3521   2.905   2.827   1.469 -0.3905  0.0535  0.2177
  881SOL    HW2 3522   2.975   2.785   1.519  0.0186 -0.3316 -0.6666
  881SOL    HW3 3523   2.908   2.919   1.496  0.4229  0.0291  0.2228
  881SOL    MW4 3524   2.915   2.834   1.479 -0.2292 -0.0005  0.1017
  882SOL     OW 3525   2.925   3.102   1.590 -0.3040 -0.2499 -0.1911
  882SOL    HW2 3526   2.928   3.095   1.685  2.0762 -0.8988 -0.2990
  882SOL    HW3 3527   3.008   3.142   1.565 -0.1510 -1.6832 -2.1244
  882SOL    MW4 3528   2.936   3.106   1.599  0.0302 -0.5246 -0.4604
  883SOL     OW 3529   2.692   3.203   1.496 -0.2243 -0.3185 -0.0927
  883SOL    HW2 3530   2.767   3.154   1.530 -0.6703 -0.3851  0.8111
  883SOL    HW3 3531   2.692   3.185   1.402  0.3225 -1.0936  0.0521
  883SOL    MW4 3532   2.702   3.194   1.488 -0.2110 -0.4295  0.0456
  884SOL     OW 3533   2.673   3.463   1.592  0.2143  0.2822  0.0748
  884SOL    HW2 3534   2.679   3.451   1.687  0.0604  2.3890  0.3733
  884SOL    HW3 3535   2.672   3.374   1.557 -2.1429 -0.6081  2.1937
  884SOL    MW4 3536   2.674   3.450   1.600 -0.1170  0.4427  0.3938
  885SOL     OW 3537   2.889   3.631   1.527  0.1462 -0.2891  0.0814
  885SOL    HW2 3538   2.819   3.569   1.546 -1.1583  0.8931 -0.7876
  885SOL    HW3 3539   2.901   3.625   1.432  1.5072 -0.7651  0.2712
  885SOL    MW4 3540   2.881   3.622   1.517  0.1537 -0.1959 -0.0082
  886SOL     OW 3541   2.878   3.897   1.604 -0.5196  0.1163  0.3169
  886SOL    HW2 3542   2.800   3.936   1.563 -1.7181 -1.1497  1.3174
  886SOL    HW3 3543   2.876   3.805   1.576  0.0443 -0.1642  1.1896
  886SOL    MW4 3544   2.867   3.890   1.595 -0.6033 -0.0878  0.5641
  887SOL     OW 3545   2.634   4.017   1.511 -0.4298 -0.1085  0.2154
  887SOL    HW2 3546   2.663   4.100   1.550 -1.5552  0.1154  0.5853
  887SOL    HW3 3547   2.652   4.026   1.418  0.2049  0.2276  0.3667
  887SOL    MW4 3548   2.641   4.029   1.504 -0.4945 -0.0346  0.2841
  888SOL     OW 3549   2.723   4.283   1.577  0.3033 -0.7474 -0.0982
  888SOL    HW2 3550   2.804   4.320   1.542 -0.1400 -0.7587 -1.1679
  888SOL    HW3 3551   2.655   4.310   1.515 -0.5084 -0.7870  0.7535
  888SOL    MW4 3552   2.725   4.291   1.564  0.1377 -0.7541 -0.1270
  889SOL     OW 3553   2.923   4.437   1.450  0.2287  0.3222  0.3512
  889SOL    HW2 3554   2.941   4.527   1.477 -1.2580  0.3547  1.2932
  889SOL    HW3 3555   2.904   4.443   1.357  0.0300  1.0018  0.4346
  889SOL    MW4 3556   2.923   4.450   1.441  0.0063  0.4162  0.4865
  890SOL     OW 3557   3.391   4.628   1.636  0.1219 -0.1726 -0.1756
  890SOL    HW2 3558   3.456   4.688   1.598 -0.1520 -0.4024 -1.0231
  890SOL    HW3 3559   3.394   4.551   1.579 -0.7215 -0.2811 -0.0761
  890SOL    MW4 3560   3.400   4.626   1.623 -0.0255 -0.2172 -0.2743
  891SOL     OW 3561   3.210   0.074   1.455  0.7416  0.0760 -0.3127
  891SOL    HW2 3562   3.275   0.047   1.520  0.4944  1.5923  0.5997
  891SOL    HW3 3563   3.127   0.037   1.486  0.6423  0.7139  0.2075
  891SOL    MW4 3564   3.207   0.066   1.468  0.6959  0.3602 -0.1237
  892SOL     OW 3565   3.206   0.348   1.533  0.2154  0.7335  0.3068
  892SOL    HW2 3566   3.211   0.254   1.514  0.1618  0.7731  0.0852
  892SOL    HW3 3567   3.135   0.379   1.477 -0.5095  0.7046  1.2062
  892SOL    MW4 3568   3.197   0.340   1.523  0.1127  0.7349  0.3962
  893SOL     OW 3569   3.412   0.507   1.476 -0.1549  0.2590 -0.1828
  893SOL    HW2 3570   3.332   0.456   1.492  0.0652 -0.5195 -1.5285
  893SOL    HW3 3571   3.431   0.493   1.384  0.9023  1.3826 -0.1452
  893SOL    MW4 3572   3.404   0.499   1.466  0.0136  0.3046 -0.3554
  894SOL     OW 3573   3.378   0.763   1.564  0.0590  0.5739 -0.2458
  894SOL    HW2 3574   3.384   0.755   1.659  0.5994 -0.6434 -0.3607
  894SOL    HW3 3575   3.395   0.674   1.532 -0.7640  0.8356 -1.4501
  894SOL    MW4 3576   3.381   0.750   1.573  0.0217  0.4478 -0.4198
  895SOL     OW 3577   3.149   0.910   1.553 -0.0125  0.1619 -0.3658
  895SOL    HW2 3578   3.226   0.854   1.546  0.7239  1.2067 -0.7152
  895SOL    HW3 3579   3.076   0.849   1.557  0.7810 -0.8317 -0.7170
  895SOL    MW4 3580   3.149   0.894   1.553  0.1893  0.1686 -0.4582
  896SOL     OW 3581   3.165   1.172   1.639 -0.6895 -0.2139  0.6898
  896SOL    HW2 3582   3.169   1.184   1.734  1.3195 -1.5374  0.8137
  896SOL    HW3 3583   3.148   1.079   1.627  1.6722 -0.5630 -0.2147
  896SOL    MW4 3584   3.164   1.162   1.650 -0.1128 -0.4346  0.5868
  897SOL     OW 3585   3.376   1.284   1.485 -0.2316  0.1937  0.2977
  897SOL    HW2 3586   3.459   1.249   1.517 -0.4897 -1.1646 -0.4768
  897SOL    HW3 3587   3.310   1.242   1.541 -0.6214 -1.5159 -1.3956
  897SOL    MW4 3588   3.378   1.273   1.497 -0.3170 -0.2110 -0.0279
  898SOL     OW 3589   3.372   1.550   1.592  0.2647  0.2047 -0.0515
  898SOL    HW2 3590   3.361   1.538   1.686  1.7342  0.5728  0.1732
  898SOL    HW3 3591   3.365   1.462   1.555 -1.2835  0.1664  0.2788
  898SOL    MW4 3592   3.370   1.537   1.599  0.2543  0.2482  0.0217
  899SOL     OW 3593   3.170   1.733   1.514  0.1029  0.0554  0.0372
  899SOL    HW2 3594   3.242   1.677   1.541 -0.5127 -0.7218  0.0862
  899SOL    HW3 3595   3.091   1.686   1.539 -0.4229  1.3035  0.7800
  899SOL    MW4 3596   3.169   1.720   1.521 -0.0477  0.1175  0.1416
  900SOL     OW 3597   3.165   1.985   1.583 -0.0022 -0.4752 -0.5737
  900SOL    HW2 3598   3.165   1.893   1.558 -1.2590 -0.7824  0.4733
  900SOL    HW3 3599   3.100   2.026   1.526 -0.6641 -0.5738  0.1056
  900SOL    MW4 3600   3.156   1.978   1.572 -0.2553 -0.5288 -0.3459
  901SOL     OW 3601   3.382   2.061   1.462  0.6476  0.2029  0.1298
  901SOL    HW2 3602   3.301   2.043   1.511  0.4036  2.6963  0.7198
  901SOL    HW3 3603   3.357   2.051   1.370  0.0511 -0.5440  0.3714
  901SOL    MW4 3604   3.368   2.058   1.456  0.5367  0.4333  0.2395
  902SOL     OW 3605   3.358   2.319   1.541  0.3221  0.1287  0.1014
  902SOL    HW2 3606   3.429   2.369   1.501  1.0906 -1.0416 -0.0016
  902SOL    HW3 3607   3.368   2.231   1.507 -0.2686 -0.4020  1.2731
  902SOL    MW4 3608   3.369   2.314   1.531  0.3455 -0.0957  0.2424
  903SOL     OW 3609   3.108   2.455   1.512  0.0469 -0.0617  0.5032
  903SOL    HW2 3610   3.185   2.399   1.525  0.6818  0.7593  0.2624
  903SOL    HW3 3611   3.034   2.397   1.530  0.5949 -1.7149 -2.1902
  903SOL    MW4 3612   3.109   2.440   1.516  0.2029 -0.1715  0.1160
  904SOL     OW 3613   3.101   2.703   1.622 -0.2586 -0.1290 -0.5834
  904SOL    HW2 3614   3.183   2.738   1.588 -1.2952  1.4536 -1.4733
  904SOL    HW3 3615   3.102   2.611   1.595  1.1690 -0.1171 -0.6440
  904SOL    MW4 3616   3.112   2.695   1.614 -0.2070  0.0814 -0.7088
  905SOL     OW 3617   3.330   2.811   1.511 -0.0412  0.0154 -0.0217
  905SOL    HW2 3618   3.350   2.903   1.529 -0.5567  0.1014  0.1266
  905SOL    HW3 3619   3.327   2.805   1.416 -0.4220  0.2469 -0.0253
  905SOL    MW4 3620   3.332   2.822   1.501 -0.1595  0.0573 -0.0026
  906SOL     OW 3621   3.388   3.061   1.570  0.4184 -0.2619  0.0243
  906SOL    HW2 3622   3.378   3.065   1.665  1.8242 -1.7120  0.2720
  906SOL    HW3 3623   3.468   3.111   1.552  0.0145  0.2283 -0.4271
  906SOL    MW4 3624   3.398   3.068   1.580  0.5506 -0.3886 -0.0025
  907SOL     OW 3625   3.157   3.241   1.511 -0.3911 -0.1093 -0.5407
  907SOL    HW2 3626   3.232   3.184   1.526 -0.5289 -0.2560 -0.4074
  907SOL    HW3 3627   3.138   3.231   1.418 -0.6951 -0.6302 -0.4272
  907SOL    MW4 3628   3.164   3.232   1.501 -0.4494 -0.1974 -0.5081
  908SOL     OW 3629   3.121   3.487   1.627 -0.4472  0.4020  0.4085
  908SOL    HW2 3630   3.112   3.405   1.579  1.5356  0.9735 -0.9729
  908SOL    HW3 3631   3.047   3.541   1.598 -0.8968 -0.3222  0.2031
  908SOL    MW4 3632   3.110   3.483   1.617 -0.2449  0.3819  0.1991
  909SOL     OW 3633   3.342   3.600   1.513  0.1027 -0.1822 -0.4057
  909SOL    HW2 3634   3.414   3.547   1.548  0.6135  1.3492  0.9626
  909SOL    HW3 3635   3.264   3.564   1.555  0.2646 -0.7854 -0.6151
  909SOL    MW4 3636   3.342   3.588   1.523  0.1915 -0.0598 -0.2528
  910SOL     OW 3637   3.368   3.859   1.605 -0.5323 -0.1413 -0.5907
  910SOL    HW2 3638   3.283   3.900   1.590 -1.0558 -0.9693  0.0199
  910SOL    HW3 3639   3.352   3.766   1.591 -0.4819 -0.6712  2.4837
  910SOL    MW4 3640   3.354   3.852   1.601 -0.5947 -0.3204 -0.1045
  911SOL     OW 3641   3.128   4.010   1.525  0.4204  0.0267  0.2760
  911SOL    HW2 3642   3.126   4.102   1.551 -1.3794  0.9956 -2.9967
  911SOL    HW3 3643   3.043   3.975   1.551  0.1976 -0.0721 -0.5639
  911SOL    MW4 3644   3.117   4.017   1.532  0.1536  0.1415 -0.2666
  912SOL     OW 3645   3.103   4.267   1.577 -0.7611  0.1662 -0.5027
  912SOL    HW2 3646   3.094   4.287   1.670 -0.2274  1.6845 -0.7619
  912SOL    HW3 3647   3.039   4.324   1.534  0.3972  0.9523 -1.2155
  912SOL    MW4 3648   3.093   4.277   1.584 -0.5379  0.4703 -0.6309
  913SOL     OW 3649   3.345   4.379   1.499 -0.0548 -0.5198 -0.4760
  913SOL    HW2 3650   3.256   4.348   1.514 -0.1679 -0.7939 -1.6185
  913SOL    HW3 3651   3.355   4.377   1.403  1.2513 -0.7010 -0.3450
  913SOL    MW4 3652   3.334   4.375   1.488  0.1026 -0.5798 -0.6094
  914SOL     OW 3653   3.841   4.618   1.591  0.3291  0.3743 -0.2236
  914SOL    HW2 3654   3.832   4.620   1.687 -0.0547  0.0932 -0.2534
  914SOL    HW3 3655   3.913   4.679   1.573 -0.3901  1.3586  0.1552
  914SOL    MW4 3656   3.849   4.626   1.601  0.1835  0.4671 -0.1775
  915SOL     OW 3657   3.611   0.111   1.498  0.0152  0.4162 -0.0098
  915SOL    HW2 3658   3.676   0.048   1.530 -0.5008 -0.1245 -0.0189
  915SOL    HW3 3659   3.621   0.111   1.403 -0.2248  0.0792 -0.0366
  915SOL    MW4 3660   3.621   0.103   1.490 -0.0845  0.3004 -0.0145
  916SOL     OW 3661   3.614   0.344   1.622  0.4238 -0.4160 -0.0364
  916SOL    HW2 3662   3.622   0.254   1.588 -0.4250 -0.5356  0.0742
  916SOL    HW3 3663   3.542   0.382   1.572  0.2572 -0.0573  0.4744
  916SOL    MW4 3664   3.605   0.337   1.611  0.2898 -0.3845  0.0456
  917SOL     OW 3665   3.810   0.519   1.526 -0.1661 -0.3289 -0.0703
  917SOL    HW2 3666   3.732   0.472   1.556 -0.7593  0.1377 -0.8748
  917SOL    HW3 3667   3.821   0.493   1.435  0.3248  0.0097 -0.1140
  917SOL    MW4 3668   3.801   0.510   1.518 -0.1796 -0.2227 -0.1822
  918SOL     OW 3669   3.835   0.773   1.647 -0.0648  0.0378 -0.1587
  918SOL    HW2 3670   3.759   0.827   1.625  0.9383  1.0453 -1.2299
  918SOL    HW3 3671   3.822   0.691   1.599 -1.5114 -0.6457  1.3431
  918SOL    MW4 3672   3.823   0.769   1.638 -0.1233  0.0805 -0.1019
  919SOL     OW 3673   3.607   0.918   1.544 -0.0022 -0.3260 -0.2253
  919SOL    HW2 3674   3.524   0.872   1.556  0.4541 -1.1481 -0.1607
  919SOL    HW3 3675   3.622   0.918   1.449 -0.3615  0.3414 -0.2845
  919SOL    MW4 3676   3.598   0.912   1.533  0.0106 -0.3464 -0.2246
  920SOL     OW 3677   3.603   1.182   1.598 -0.5104  0.2571 -0.3600
  920SOL    HW2 3678   3.684   1.215   1.560 -0.1360 -0.4501 -0.1934
  920SOL    HW3 3679   3.605   1.088   1.581 -1.6451  0.3435 -0.9940
  920SOL    MW4 3680   3.614   1.174   1.591 -0.6107  0.1752 -0.4217
  921SOL     OW 3681   3.850   1.278   1.506 -0.3930  0.1804 -0.2393
  921SOL    HW2 3682   3.921   1.226   1.544 -0.7315 -0.2082 -0.1340
  921SOL    HW3 3683   3.865   1.367   1.539 -0.3538 -0.0383  0.3455
  921SOL    MW4 3684   3.861   1.283   1.515 -0.4325  0.1002 -0.1482
  922SOL     OW 3685   3.835   1.549   1.605 -0.1142  0.2718  0.2399
  922SOL    HW2 3686   3.819   1.533   1.698  0.5518  0.2372  0.3530
  922SOL    HW3 3687   3.758   1.597   1.575 -0.3111  0.3244  0.8235
  922SOL    MW4 3688   3.823   1.554   1.614 -0.0523  0.2742  0.3318
  923SOL     OW 3689   3.604   1.653   1.487 -0.0277 -0.4794  0.0628
  923SOL    HW2 3690   3.519   1.620   1.515 -1.9766  3.2982 -1.1301
  923SOL    HW3 3691   3.608   1.634   1.394  1.0473 -1.8413  0.3721
  923SOL    MW4 3692   3.594   1.646   1.479 -0.1430 -0.1607 -0.0537
  924SOL     OW 3693   3.584   1.926   1.572  0.0643  0.1635 -0.3495
  924SOL    HW2 3694   3.593   1.834   1.545 -1.3118  0.2439 -1.1591
  924SOL    HW3 3695   3.508   1.957   1.523  0.2646  1.6194  0.2546
  924SOL    MW4 3696   3.575   1.918   1.562 -0.0908  0.3662 -0.3766
  925SOL     OW 3697   3.809   2.070   1.487  0.0908  0.4177  0.5780
  925SOL    HW2 3698   3.807   2.153   1.536  0.7084  0.5633  0.3579
  925SOL    HW3 3699   3.728   2.026   1.513  0.0640  0.8067  1.1887
  925SOL    MW4 3700   3.798   2.075   1.497  0.1687  0.4883  0.6296
  926SOL     OW 3701   3.813   2.304   1.636 -0.0941 -0.1821  0.7371
  926SOL    HW2 3702   3.821   2.299   1.732 -0.4825  0.6955  0.8220
  926SOL    HW3 3703   3.900   2.328   1.606  0.4400 -2.0156  0.7312
  926SOL    MW4 3704   3.825   2.306   1.645 -0.0748 -0.3083  0.7475
  927SOL     OW 3705   3.618   2.424   1.487 -0.0322  0.1373  0.2042
  927SOL    HW2 3706   3.606   2.510   1.527  0.7353  0.0597  0.6192
  927SOL    HW3 3707   3.689   2.384   1.538  2.2550  0.7597 -2.3954
  927SOL    MW4 3708   3.626   2.430   1.499  0.3709  0.2092 -0.0841
  928SOL     OW 3709   3.579   2.677   1.600  0.0189 -0.1927  0.0227
  928SOL    HW2 3710   3.583   2.688   1.695  1.1411  1.1096 -0.1578
  928SOL    HW3 3711   3.506   2.732   1.572 -0.9310 -1.3421  0.2330
  928SOL    MW4 3712   3.570   2.686   1.609  0.0416 -0.1725  0.0266
  929SOL     OW 3713   3.786   2.813   1.503  0.1042  0.0573 -0.4822
  929SOL    HW2 3714   3.860   2.763   1.537 -0.3764 -0.3124  0.0315
  929SOL    HW3 3715   3.709   2.764   1.531 -0.3475  0.6812 -0.6180
  929SOL    MW4 3716   3.786   2.800   1.511 -0.0188  0.0909 -0.4324
  930SOL     OW 3717   3.796   3.060   1.604  0.0550 -0.0361  0.1876
  930SOL    HW2 3718   3.877   3.103   1.574  1.0314 -1.3671  0.8350
  930SOL    HW3 3719   3.791   2.980   1.552 -0.6647 -0.1317  0.3988
  930SOL    MW4 3720   3.806   3.055   1.593  0.0889 -0.2243  0.3009
  931SOL     OW 3721   3.595   3.216   1.508  0.1722  0.0018 -0.4820
  931SOL    HW2 3722   3.665   3.157   1.537  0.4096 -0.0323 -1.1118
  931SOL    HW3 3723   3.591   3.204   1.413 -1.1347 -0.4838 -0.3835
  931SOL    MW4 3724   3.604   3.207   1.499  0.0311 -0.0668 -0.5521
  932SOL     OW 3725   3.573   3.474   1.619  0.1696 -0.2341 -0.2784
  932SOL    HW2 3726   3.635   3.531   1.574  0.1080 -0.4405 -0.6275
  932SOL    HW3 3727   3.585   3.388   1.579 -0.7577 -0.1395 -0.7665
  932SOL    MW4 3728   3.582   3.470   1.608  0.0392 -0.2488 -0.3888
  933SOL     OW 3729   3.786   3.615   1.514  0.1214  0.4373 -0.5501
  933SOL    HW2 3730   3.873   3.588   1.545 -0.4272 -1.4045 -0.5590
  933SOL    HW3 3731   3.776   3.705   1.545  1.8597  0.5245 -0.1912
  933SOL    MW4 3732   3.796   3.623   1.522  0.2783  0.2058 -0.5039
  934SOL     OW 3733   3.775   3.877   1.614 -0.5521  0.3808  0.2017
  934SOL    HW2 3734   3.855   3.909   1.571 -0.3973 -1.0838 -0.6511
  934SOL    HW3 3735   3.704   3.918   1.566 -0.3261  1.1665  0.5301
  934SOL    MW4 3736   3.776   3.886   1.602 -0.5019  0.2912  0.1325
  935SOL     OW 3737   3.568   3.984   1.446  0.0708 -0.0372 -0.1772
  935SOL    HW2 3738   3.558   4.074   1.479  0.9776 -0.1171  0.3501
  935SOL    HW3 3739   3.501   3.934   1.491  0.1487  0.2039  0.2093
  935SOL    MW4 3740   3.558   3.990   1.456  0.2007 -0.0159 -0.0566
  936SOL     OW 3741   3.563   4.239   1.578  0.1364 -0.1146 -0.1394
  936SOL    HW2 3742   3.550   4.244   1.673 -0.7681  1.2115 -0.3150
  936SOL    HW3 3743   3.489   4.287   1.541 -0.2937 -1.8133 -1.5742
  936SOL    MW4 3744   3.551   4.246   1.586 -0.0397 -0.1637 -0.3519
  937SOL     OW 3745   3.802   4.360   1.493  0.0859 -0.1276 -0.1981
  937SOL    HW2 3746   3.725   4.327   1.538  0.8917  0.3149  1.5395
  937SOL    HW3 3747   3.821   4.443   1.535  1.1878  0.0412 -0.9960
  937SOL    MW4 3748   3.794   4.367   1.504  0.3376 -0.0469 -0.0741
  938SOL     OW 3749   4.267   4.653   1.639 -0.2280  0.2637 -0.0667
  938SOL    HW2 3750   4.277   4.654   1.734  2.5578 -2.2172 -0.2740
  938SOL    HW3 3751   4.258   4.560   1.617 -1.5469  0.8687 -2.1681
  938SOL    MW4 3752   4.267   4.641   1.649 -0.0345  0.0162 -0.3713
  939SOL     OW 3753   4.073   0.112   1.510  0.0828 -0.2873 -0.0796
  939SOL    HW2 3754   4.060   0.201   1.541  3.3048  0.5392 -0.8863
  939SOL    HW3 3755   4.138   0.075   1.570 -0.2544 -1.6329 -0.5384
  939SOL    MW4 3756   4.080   0.119   1.522  0.4634 -0.3558 -0.2466
  940SOL     OW 3757   4.035   0.363   1.618 -0.3482  0.0457 -0.3166
  940SOL    HW2 3758   4.035   0.380   1.712  2.1291 -1.2253 -0.0368
  940SOL    HW3 3759   3.958   0.409   1.585 -1.0858  0.7561  2.2784
  940SOL    MW4 3760   4.025   0.371   1.626 -0.1187 -0.0283  0.0627
  941SOL     OW 3761   4.255   0.513   1.544  0.2788  0.1276  0.1695
  941SOL    HW2 3762   4.185   0.450   1.561  0.7067 -0.2169  0.6780
  941SOL    HW3 3763   4.336   0.463   1.556  0.6124  0.4875 -0.5655
  941SOL    MW4 3764   4.257   0.498   1.548  0.3793  0.1296  0.1396
  942SOL     OW 3765   4.272   0.764   1.622  0.1797 -0.0723 -0.0676
  942SOL    HW2 3766   4.268   0.670   1.604  0.1571 -0.1494  0.3386
  942SOL    HW3 3767   4.364   0.787   1.607  0.1673 -0.1445 -0.2463
  942SOL    MW4 3768   4.284   0.754   1.618  0.1751 -0.0920 -0.0376
  943SOL     OW 3769   4.062   0.895   1.506  0.6374  0.0241  0.2143
  943SOL    HW2 3770   4.132   0.844   1.548  1.6452  0.9083 -0.3750
  943SOL    HW3 3771   3.981   0.851   1.534  1.2666  0.5452  3.0117
  943SOL    MW4 3772   4.061   0.882   1.516  0.8533  0.2095  0.5056
  944SOL     OW 3773   4.078   1.157   1.607  0.1881 -0.2582  0.2374
  944SOL    HW2 3774   4.065   1.151   1.702 -0.3756  0.9883  0.2544
  944SOL    HW3 3775   4.075   1.067   1.576 -0.4927 -0.6032  1.2945
  944SOL    MW4 3776   4.076   1.144   1.616  0.0239 -0.1393  0.3791
  945SOL     OW 3777   4.319   1.264   1.528  0.2412 -0.3889 -0.2759
  945SOL    HW2 3778   4.234   1.230   1.555  0.8671 -2.4345 -0.8592
  945SOL    HW3 3779   4.382   1.212   1.577  1.1845  0.9249 -0.0721
  945SOL    MW4 3780   4.316   1.253   1.538  0.4482 -0.4855 -0.3260
  946SOL     OW 3781   4.291   1.532   1.644 -0.1751 -0.3114  0.4234
  946SOL    HW2 3782   4.297   1.437   1.629  1.1222 -0.5242  2.1961
  946SOL    HW3 3783   4.377   1.565   1.619 -1.1925  0.6969 -1.9518
  946SOL    MW4 3784   4.303   1.524   1.639 -0.1382 -0.2065  0.3439
  947SOL     OW 3785   4.074   1.669   1.513 -0.1292  0.3998 -0.2790
  947SOL    HW2 3786   4.145   1.614   1.546  0.0306  0.0818 -1.1400
  947SOL    HW3 3787   3.996   1.634   1.556  0.4094  1.7041  1.8187
  947SOL    MW4 3788   4.073   1.657   1.523 -0.0371  0.5299 -0.1159
  948SOL     OW 3789   4.023   1.938   1.587  0.1572 -0.1185  0.2413
  948SOL    HW2 3790   4.049   1.855   1.547  0.3923  0.8359 -1.6534
  948SOL    HW3 3791   3.940   1.960   1.545  0.5341  1.0266  0.0497
  948SOL    MW4 3792   4.016   1.930   1.576  0.2380  0.1585 -0.0340
  949SOL     OW 3793   4.270   2.057   1.534  0.0697 -0.3555  0.1391
  949SOL    HW2 3794   4.180   2.036   1.559  0.0575 -0.8368 -0.2936
  949SOL    HW3 3795   4.270   2.051   1.438  0.2198  1.0555  0.0406
  949SOL    MW4 3796   4.258   2.053   1.525  0.0879 -0.2329  0.0690
  950SOL     OW 3797   4.301   2.332   1.580 -0.0638  0.2137 -0.3348
  950SOL    HW2 3798   4.275   2.358   1.668 -0.1720 -0.7636 -0.0655
  950SOL    HW3 3799   4.296   2.236   1.581  0.3522  0.1724 -1.2714
  950SOL    MW4 3800   4.297   2.323   1.592 -0.0232  0.0793 -0.4229
  951SOL     OW 3801   4.056   2.423   1.508 -0.3026  0.2112 -0.0501
  951SOL    HW2 3802   4.042   2.509   1.549 -0.4625  0.2900 -0.2736
  951SOL    HW3 3803   4.149   2.405   1.522 -0.4106  0.1132  0.5969
  951SOL    MW4 3804   4.067   2.432   1.515 -0.3379  0.2086  0.0058
  952SOL     OW 3805   4.040   2.693   1.612 -0.2583 -0.5772  0.3729
  952SOL    HW2 3806   4.063   2.702   1.704 -0.0504  0.2236  0.2426
  952SOL    HW3 3807   4.111   2.737   1.565  0.0613 -1.6836 -0.2065
  952SOL    MW4 3808   4.052   2.700   1.618 -0.1887 -0.6175  0.2793
  953SOL     OW 3809   4.262   2.815   1.503 -0.0985 -0.3840 -0.0592
  953SOL    HW2 3810   4.259   2.910   1.514  3.4494 -0.2025 -0.1117
  953SOL    HW3 3811   4.255   2.801   1.409  0.3047 -0.1337 -0.1235
  953SOL    MW4 3812   4.261   2.825   1.492  0.4228 -0.3270 -0.0746
  954SOL     OW 3813   4.258   3.076   1.620  0.0184 -0.5537 -0.2710
  954SOL    HW2 3814   4.262   3.068   1.715 -1.5864  1.4463  0.0135
  954SOL    HW3 3815   4.331   3.133   1.597 -0.9000  0.7475  0.0180
  954SOL    MW4 3816   4.268   3.082   1.630 -0.3145 -0.1182 -0.1954
  955SOL     OW 3817   4.016   3.235   1.558 -0.2688 -0.3180 -0.2869
  955SOL    HW2 3818   4.032   3.324   1.591 -0.8560 -0.3619  0.1197
  955SOL    HW3 3819   4.100   3.190   1.571 -0.0990  0.0465 -0.0846
  955SOL    MW4 3820   4.029   3.241   1.564 -0.3238 -0.2757 -0.2066
  956SOL     OW 3821   4.041   3.508   1.613  0.1216  0.0605  0.5957
  956SOL    HW2 3822   4.046   3.515   1.709  1.4356 -1.9751  0.7033
  956SOL    HW3 3823   4.128   3.534   1.582  0.7389 -2.3653  0.1949
  956SOL    MW4 3824   4.053   3.512   1.622  0.3764 -0.5281  0.5570
  957SOL     OW 3825   4.317   3.616   1.529 -0.6507  0.1126 -0.4208
  957SOL    HW2 3826   4.300   3.707   1.553  1.0729  0.2501  0.3227
  957SOL    HW3 3827   4.343   3.620   1.437  0.7357  0.5327 -0.0168
  957SOL    MW4 3828   4.318   3.629   1.520 -0.2404  0.1862 -0.2694
  958SOL     OW 3829   4.269   3.884   1.613  0.3829 -0.0023  0.3961
  958SOL    HW2 3830   4.183   3.912   1.583  0.2459 -1.8048 -0.9188
  958SOL    HW3 3831   4.330   3.941   1.566 -0.0758  1.3394  1.3989
  958SOL    MW4 3832   4.266   3.896   1.603  0.3043 -0.0631  0.3549
  959SOL     OW 3833   4.016   3.974   1.523 -0.4542  0.1221 -0.7446
  959SOL    HW2 3834   4.016   4.065   1.551  1.3488  0.0871 -0.5538
  959SOL    HW3 3835   4.040   3.977   1.431  0.8676 -0.2298 -0.4205
  959SOL    MW4 3836   4.019   3.986   1.515 -0.0420  0.0711 -0.6767
  960SOL     OW 3837   4.015   4.243   1.593  0.0302  0.4993  0.3378
  960SOL    HW2 3838   4.022   4.259   1.687  0.9772 -0.3132  0.4260
  960SOL    HW3 3839   3.932   4.283   1.567  0.1634  1.4558  1.3599
  960SOL    MW4 3840   4.005   4.250   1.602  0.1727  0.5183  0.4843
  961SOL     OW 3841   4.252   4.385   1.533  0.2962  0.5160 -0.2375
  961SOL    HW2 3842   4.178   4.328   1.556  0.0106  0.6126 -0.9230
  961SOL    HW3 3843   4.251   4.388   1.438  1.4959  0.1061 -0.2678
  961SOL    MW4 3844   4.242   4.378   1.524  0.4168  0.4746 -0.3319
  962SOL     OW 3845   0.214   4.656   1.892 -0.3042 -0.6820  0.3749
  962SOL    HW2 3846   0.289   4.699   1.933 -0.3879 -0.1851  0.0158
  962SOL    HW3 3847   0.225   4.673   1.798 -1.1093 -0.2131  0.3591
  962SOL    MW4 3848   0.225   4.664   1.885 -0.4215 -0.5546  0.3255
  963SOL     OW 3849   4.485   0.139   1.973 -0.1264 -0.1312 -0.0673
  963SOL    HW2 3850   4.488   0.227   1.937  1.5042 -0.0050  0.3348
  963SOL    HW3 3851   4.563   0.096   1.937 -0.3402 -1.0683  0.5778
  963SOL    MW4 3852   4.496   0.145   1.964  0.0606 -0.2382  0.0708
  964SOL     OW 3853   4.488   0.398   1.904 -0.0947  0.2860 -0.3858
  964SOL    HW2 3854   4.412   0.427   1.955  0.3480 -0.2497  0.6059
  964SOL    HW3 3855   4.563   0.436   1.950  0.4421 -1.8215  0.5574
  964SOL    MW4 3856   4.488   0.407   1.917  0.0345 -0.0627 -0.1305
  965SOL     OW 3857   0.236   0.498   2.019  0.1220 -0.0258  0.0825
  965SOL    HW2 3858   0.302   0.432   2.000  0.2635  0.2468 -0.3639
  965SOL    HW3 3859   0.274   0.580   1.990  0.0199  0.2857  0.8073
  965SOL    MW4 3860   0.250   0.500   2.013  0.1272  0.0513  0.1193
  966SOL     OW 3861   0.253   0.781   1.934  0.6441 -0.5000 -0.3417
  966SOL    HW2 3862   0.335   0.825   1.957 -0.5989  1.1205  1.1309
  966SOL    HW3 3863   0.268   0.747   1.846  3.1262 -0.8193  0.1788
  966SOL    MW4 3864   0.265   0.783   1.925  0.8076 -0.3283 -0.0787
  967SOL     OW 3865   0.016   0.899   2.010 -0.2222  0.4980  0.0727
  967SOL    HW2 3866  -0.049   0.849   1.961  1.2219 -0.2822 -1.1142
  967SOL    HW3 3867   0.099   0.854   1.992  0.9229  2.5540  0.0258
  967SOL    MW4 3868   0.018   0.886   2.001  0.1194  0.6663 -0.0901
  968SOL     OW 3869   0.046   1.164   1.909 -0.3013 -0.0399 -0.1374
  968SOL    HW2 3870  -0.034   1.210   1.935 -0.8854 -0.9304 -0.3364
  968SOL    HW3 3871   0.034   1.075   1.943  0.8696 -0.0145  0.3489
  968SOL    MW4 3872   0.034   1.158   1.917 -0.2239 -0.1540 -0.0995
  969SOL     OW 3873   0.252   1.322   2.014  0.1664 -0.3100 -0.2960
  969SOL    HW2 3874   0.256   1.413   1.984 -0.9162  0.1182  0.8634
  969SOL    HW3 3875   0.175   1.286   1.971 -0.5388 -0.1159  0.7993
  969SOL    MW4 3876   0.242   1.329   2.004 -0.0695 -0.2279  0.0014
  970SOL     OW 3877   0.266   1.576   1.922  0.0549  0.5246  0.2208
  970SOL    HW2 3878   0.342   1.631   1.936 -0.2203  1.1058 -0.5841
  970SOL    HW3 3879   0.193   1.626   1.958 -0.3239  1.0688 -1.2668
  970SOL    MW4 3880   0.266   1.590   1.929 -0.0314  0.6731 -0.0817
  971SOL     OW 3881   0.034   1.728   2.052  0.0133 -0.1414  0.0821
  971SOL    HW2 3882   0.025   1.726   2.148 -0.3881  0.4894  0.0598
  971SOL    HW3 3883  -0.038   1.672   2.020  0.7906 -1.2202  0.1805
  971SOL    MW4 3884   0.023   1.720   2.061  0.0629 -0.2005  0.0922
  972SOL     OW 3885   0.024   1.956   1.896 -0.2280 -0.0319 -0.4207
  972SOL    HW2 3886  -0.045   2.018   1.916  0.2281  0.6229 -0.8609
  972SOL    HW3 3887   0.017   1.889   1.965 -0.7292  0.4913  0.0418
  972SOL    MW4 3888   0.014   1.955   1.908 -0.2339  0.1235 -0.4178
  973SOL     OW 3889   0.272   2.089   2.001 -0.3561 -0.2540  0.1887
  973SOL    HW2 3890   0.267   2.164   1.942 -1.1673 -1.5304 -1.4326
  973SOL    HW3 3891   0.192   2.039   1.983 -0.3033 -1.0037  1.9312
  973SOL    MW4 3892   0.260   2.092   1.991 -0.4562 -0.5213  0.2047
  974SOL     OW 3893   0.229   2.330   1.886  0.2445  0.0784  0.3243
  974SOL    HW2 3894   0.305   2.375   1.924  0.9163 -1.9938  1.5368
  974SOL    HW3 3895   0.154   2.372   1.928  0.8468  0.1267  1.3990
  974SOL    MW4 3896   0.229   2.342   1.897  0.4126 -0.1887  0.6261
  975SOL     OW 3897   4.469   2.436   1.988 -0.2794 -0.1542 -0.5330
  975SOL    HW2 3898   4.485   2.447   2.081 -0.6535 -0.1995 -0.4612
  975SOL    HW3 3899   4.474   2.525   1.952 -1.2374  0.0043 -0.2888
  975SOL    MW4 3900   4.471   2.449   1.995 -0.4551 -0.1392 -0.4913
  976SOL     OW 3901   0.008   2.688   1.896  0.0151  0.0558 -0.3684
  976SOL    HW2 3902  -0.072   2.740   1.903 -0.1229 -0.2082  0.0211
  976SOL    HW3 3903   0.035   2.699   1.805 -0.2100  0.5182 -0.3821
  976SOL    MW4 3904   0.001   2.696   1.885 -0.0328  0.0820 -0.3188
  977SOL     OW 3905   0.225   2.820   1.983  0.2911 -0.0156 -0.0153
  977SOL    HW2 3906   0.214   2.911   1.958  0.9277 -0.1261 -0.7186
  977SOL    HW3 3907   0.148   2.776   1.948 -0.3914  0.3808  0.9811
  977SOL    MW4 3908   0.214   2.826   1.975  0.2850  0.0221  0.0234
  978SOL     OW 3909   0.218   3.092   1.917  0.2438 -0.2290  0.3048
  978SOL    HW2 3910   0.292   3.148   1.940  1.5285 -2.3824  1.5294
  978SOL    HW3 3911   0.218   3.090   1.821  0.3779  1.5704  0.2530
  978SOL    MW4 3912   0.228   3.099   1.907  0.4310 -0.2757  0.4595
  979SOL     OW 3913   0.010   3.249   1.997 -0.1874  0.3705 -0.1381
  979SOL    HW2 3914  -0.064   3.202   1.960 -0.0795 -0.5984  0.8506
  979SOL    HW3 3915   0.087   3.198   1.970 -0.0560  0.0732  0.7888
  979SOL    MW4 3916   0.011   3.236   1.989 -0.1558  0.2034  0.1146
  980SOL     OW 3917   0.014   3.518   1.906  0.0994  0.2514  0.2792
  980SOL    HW2 3918   0.101   3.538   1.940  0.5224 -1.7875  0.4860
  980SOL    HW3 3919   0.004   3.424   1.921 -1.4069  0.1192 -1.4041
  980SOL    MW4 3920   0.024   3.508   1.913 -0.0436 -0.0351  0.0844
  981SOL     OW 3921   0.257   3.608   1.989 -0.2555 -0.1142 -0.1273
  981SOL    HW2 3922   0.250   3.611   2.085 -1.7276 -2.0445 -0.1360
  981SOL    HW3 3923   0.342   3.567   1.972  0.1734  0.5754  0.3522
  981SOL    MW4 3924   0.267   3.603   2.000 -0.3932 -0.2779 -0.0652
  982SOL     OW 3925   0.251   3.862   1.874 -0.1028  0.3754  0.7514
  982SOL    HW2 3926   0.313   3.926   1.909  0.3949  0.0275  0.5076
  982SOL    HW3 3927   0.266   3.783   1.927  0.7061 -0.1807 -0.2746
  982SOL    MW4 3928   0.261   3.860   1.886  0.0696  0.2561  0.5839
  983SOL     OW 3929   0.012   4.012   1.977 -0.4868 -0.0515 -0.4076
  983SOL    HW2 3930   0.026   4.100   1.940 -1.0455 -0.7136 -2.2555
  983SOL    HW3 3931   0.086   3.961   1.943 -1.1384 -0.7323 -0.8047
  983SOL    MW4 3932   0.024   4.017   1.967 -0.6465 -0.2287 -0.7038
  984SOL     OW 3933   4.487   4.265   1.871 -0.2541 -0.1210 -0.1498
  984SOL    HW2 3934   4.409   4.302   1.913 -0.0634 -0.0986  0.1893
  984SOL    HW3 3935   4.558   4.322   1.900  0.1741 -1.2556  1.0614
  984SOL    MW4 3936   4.486   4.278   1.880 -0.1725 -0.2677  0.0548
  985SOL     OW 3937   0.217   4.399   1.994  0.2368  0.8214  0.6679
  985SOL    HW2 3938   0.210   4.407   2.089 -0.5442 -1.6849  0.8735
  985SOL    HW3 3939   0.207   4.488   1.961 -1.8828  1.4207  2.8021
  985SOL    MW4 3940   0.215   4.411   2.002 -0.1459  0.5698  0.9766
  986SOL     OW 3941   0.686   0.004   1.893  0.3472  0.1541  0.3638
  986SOL    HW2 3942   0.675  -0.084   1.928  0.9658 -0.0909 -0.0344
  986SOL    HW3 3943   0.685  -0.008   1.798  0.6030  0.5498  0.3096
  986SOL    MW4 3944   0.685  -0.009   1.885  0.4626  0.1740  0.3041
  987SOL     OW 3945   0.446   0.111   1.980 -0.0716  0.0880 -0.1367
  987SOL    HW2 3946   0.450   0.205   1.963  1.2450 -0.2782 -1.9488
  987SOL    HW3 3947   0.531   0.078   1.952 -0.0781 -1.4867  1.5873
  987SOL    MW4 3948   0.458   0.119   1.974  0.1013 -0.1681 -0.1483
  988SOL     OW 3949   0.467   0.374   1.916  0.4791  0.3095  0.4216
  988SOL    HW2 3950   0.545   0.420   1.948  0.4916  0.8139 -0.3350
  988SOL    HW3 3951   0.460   0.399   1.824 -0.9809  0.7964  0.6613
  988SOL    MW4 3952   0.477   0.383   1.908  0.2882  0.4403  0.3534
  989SOL     OW 3953   0.707   0.506   1.997 -0.3167  0.2016  0.1150
  989SOL    HW2 3954   0.706   0.507   2.093  0.9329 -0.8511  0.1618
  989SOL    HW3 3955   0.782   0.451   1.975 -0.1934  0.9816 -1.4751
  989SOL    MW4 3956   0.717   0.499   2.007 -0.1356  0.1657 -0.0886
  990SOL     OW 3957   0.736   0.746   1.897 -0.4686  0.4784  0.3145
  990SOL    HW2 3958   0.807   0.784   1.950 -1.1026  1.2347  0.6371
  990SOL    HW3 3959   0.723   0.659   1.935  0.8251  0.0151 -0.2645
  990SOL    MW4 3960   0.744   0.740   1.909 -0.3816  0.5171  0.2807
  991SOL     OW 3961   0.505   0.890   2.013 -0.4015  0.1715 -0.3827
  991SOL    HW2 3962   0.509   0.983   1.992 -1.0223 -0.2164 -2.2709
  991SOL    HW3 3963   0.592   0.857   1.990  0.2419  0.4954  1.4649
  991SOL    MW4 3964   0.517   0.897   2.007 -0.3985  0.1631 -0.3881
  992SOL     OW 3965   0.493   1.155   1.939 -0.0477  0.4406 -0.7789
  992SOL    HW2 3966   0.410   1.195   1.965 -1.6682 -3.1536 -0.0928
  992SOL    HW3 3967   0.491   1.154   1.844 -1.8798 -1.6538 -0.7509
  992SOL    MW4 3968   0.482   1.161   1.930 -0.5032 -0.3099 -0.6847
  993SOL     OW 3969   0.711   1.282   2.039  0.2134  0.3405 -0.7426
  993SOL    HW2 3970   0.696   1.295   2.133  1.4145 -1.4698 -0.2730
  993SOL    HW3 3971   0.629   1.247   2.006 -0.1074  0.6743 -0.3011
  993SOL    MW4 3972   0.698   1.279   2.047  0.3295  0.1457 -0.6224
  994SOL     OW 3973   0.713   1.531   1.944 -0.6787 -0.3624  0.1372
  994SOL    HW2 3974   0.717   1.440   1.973  3.3041 -0.2731  0.1168
  994SOL    HW3 3975   0.728   1.527   1.849  0.1265  0.3453  0.2292
  994SOL    MW4 3976   0.716   1.519   1.935 -0.0470 -0.2572  0.1466
  995SOL     OW 3977   0.497   1.696   1.971  0.1964 -0.5043 -0.1157
  995SOL    HW2 3978   0.494   1.698   2.067  1.1038  1.2242 -0.1040
  995SOL    HW3 3979   0.565   1.632   1.951  1.0784  0.2477  0.4333
  995SOL    MW4 3980   0.506   1.688   1.981  0.4325 -0.1770 -0.0417
  996SOL     OW 3981   0.476   1.952   1.871  0.1821 -0.1038  0.3104
  996SOL    HW2 3982   0.487   1.874   1.925  0.6520 -0.8650 -0.8730
  996SOL    HW3 3983   0.401   1.997   1.910 -1.7924 -2.5158 -0.5653
  996SOL    MW4 3984   0.467   1.948   1.883 -0.0165 -0.5225  0.0387
  997SOL     OW 3985   0.692   2.087   1.974 -0.1763  0.0969 -0.5124
  997SOL    HW2 3986   0.675   2.080   2.068  0.2769  0.9804 -0.3598
  997SOL    HW3 3987   0.618   2.042   1.933 -0.5742  0.0387  0.2620
  997SOL    MW4 3988   0.680   2.080   1.981 -0.1690  0.2058 -0.3901
  998SOL     OW 3989   0.681   2.353   1.874 -0.3159 -0.0958  0.1131
  998SOL    HW2 3990   0.674   2.265   1.911  2.1778 -0.1795  0.4887
  998SOL    HW3 3991   0.683   2.339   1.779 -0.1957 -0.4353  0.1635
  998SOL    MW4 3992   0.681   2.339   1.866  0.0290 -0.1516  0.1693
  999SOL     OW 3993   0.447   2.479   1.992  0.1106 -0.7486 -0.5141
  999SOL    HW2 3994   0.453   2.477   2.088 -1.7429 -0.6653 -0.3652
  999SOL    HW3 3995   0.531   2.447   1.962  0.6375 -1.0024  1.1581
  999SOL    MW4 3996   0.459   2.474   2.001 -0.0644 -0.7711 -0.2739
 1000SOL     OW 3997   0.441   2.700   1.843  0.2417 -0.0415 -0.0627
 1000SOL    HW2 3998   0.435   2.617   1.890  0.1960 -0.4001 -0.7017
 1000SOL    HW3 3999   0.387   2.760   1.894  0.2416 -0.4110  0.3769
 1000SOL    MW4 4000   0.433   2.697   1.856  0.2356 -0.1375 -0.0890
 1001SOL     OW 4001   0.648   2.865   1.944  0.0613  0.2742  0.5714
 1001SOL    HW2 4002   0.640   2.867   2.040  1.0093 -0.7354  0.6698
 1001SOL    HW3 4003   0.577   2.807   1.915 -0.6859  1.1552  0.5983
 1001SOL    MW4 4004   0.637   2.858   1.953  0.0878  0.2572  0.5879
 1002SOL     OW 4005   0.708   3.124   1.894  0.0029 -0.0147 -0.2113
 1002SOL    HW2 4006   0.700   3.032   1.919  2.2546  0.1287  1.2217
 1002SOL    HW3 4007   0.690   3.125   1.800 -1.1751 -1.7317 -0.0330
 1002SOL    MW4 4008   0.705   3.112   1.885  0.1446 -0.2223  0.0013
 1003SOL     OW 4009   0.467   3.220   1.969  0.2738 -0.0800  0.1814
 1003SOL    HW2 4010   0.480   3.314   1.956  0.6187 -0.2809 -0.9878
 1003SOL    HW3 4011   0.554   3.182   1.956  0.0388 -0.6080  0.1420
 1003SOL    MW4 4012   0.480   3.228   1.966  0.2883 -0.1762  0.0219
 1004SOL     OW 4013   0.493   3.485   1.924 -0.1612 -0.1036 -0.3205
 1004SOL    HW2 4014   0.558   3.543   1.965 -1.8385  0.7805  1.1392
 1004SOL    HW3 4015   0.509   3.494   1.830  1.3746  0.6379  0.0001
 1004SOL    MW4 4016   0.504   3.494   1.917 -0.1799  0.1109 -0.0856
 1005SOL     OW 4017   0.705   3.649   1.995 -0.3088  0.1068 -0.4279
 1005SOL    HW2 4018   0.781   3.609   1.954  0.1342  0.5452 -0.0410
 1005SOL    HW3 4019   0.708   3.741   1.968  0.8783  0.7575  1.8580
 1005SOL    MW4 4020   0.715   3.656   1.986 -0.0937  0.2505 -0.0753
 1006SOL     OW 4021   0.679   3.906   1.874 -0.3492 -0.6302 -0.2423
 1006SOL    HW2 4022   0.766   3.943   1.887 -0.7425  0.1946  0.0859
 1006SOL    HW3 4023   0.674   3.887   1.780  1.0702 -2.9635  0.0888
 1006SOL    MW4 4024   0.689   3.908   1.864 -0.2138 -0.8292 -0.1553
 1007SOL     OW 4025   0.444   4.028   1.983 -0.1317 -0.5623 -0.4200
 1007SOL    HW2 4026   0.441   4.122   1.966  1.6865 -0.3900  0.1636
 1007SOL    HW3 4027   0.531   4.000   1.954 -0.3929 -1.9321  0.0578
 1007SOL    MW4 4028   0.455   4.037   1.977  0.0737 -0.7203 -0.2799
 1008SOL     OW 4029   0.458   4.289   1.892 -0.2085  0.5994  0.2444
 1008SOL    HW2 4030   0.374   4.317   1.927 -0.1366  1.4852 -0.2803
 1008SOL    HW3 4031   0.442   4.278   1.798  0.0067 -0.2031  0.2974
 1008SOL    MW4 4032   0.445   4.291   1.884 -0.1706  0.6104  0.1822
 1009SOL     OW 4033   0.682   4.409   1.993  0.0137 -0.4372  0.1004
 1009SOL    HW2 4034   0.743   4.350   1.948  0.9287  0.1536  0.5513
 1009SOL    HW3 4035   0.595   4.378   1.968  0.5094 -0.9043 -1.0461
 1009SOL    MW4 4036   0.679   4.397   1.984  0.1998 -0.4209  0.0087
 1010SOL     OW 4037   1.147   4.657   1.906 -0.2624 -0.7504  0.2425
 1010SOL    HW2 4038   1.231   4.699   1.925 -0.4893 -0.4521  0.5931
 1010SOL    HW3 4039   1.159   4.566   1.933  0.3419 -1.0046 -0.8250
 1010SOL    MW4 4040   1.160   4.651   1.912 -0.2126 -0.7446  0.1479
 1011SOL     OW 4041   0.908   0.123   1.989  0.3519 -0.2533  0.5592
 1011SOL    HW2 4042   0.972   0.070   1.941  0.5816 -0.4038  1.0244
 1011SOL    HW3 4043   0.823   0.087   1.963  0.4939 -0.6503  0.6264
 1011SOL    MW4 4044   0.905   0.111   1.979  0.4010 -0.3255  0.6295
 1012SOL     OW 4045   0.915   0.367   1.898 -0.1570 -1.0102 -0.1485
 1012SOL    HW2 4046   0.994   0.407   1.935  0.5653 -2.1522 -0.4259
 1012SOL    HW3 4047   0.914   0.278   1.934  0.3364 -2.0140 -2.4942
 1012SOL    MW4 4048   0.926   0.360   1.908  0.0034 -1.2933 -0.4946
 1013SOL     OW 4049   1.151   0.487   1.996 -0.5540  0.4569 -0.0648
 1013SOL    HW2 4050   1.225   0.433   1.968 -1.5726 -0.7467 -0.4708
 1013SOL    HW3 4051   1.163   0.570   1.949  2.0246  1.2871  1.9589
 1013SOL    MW4 4052   1.162   0.491   1.986 -0.3482  0.4076  0.1486
 1014SOL     OW 4053   1.158   0.752   1.889  0.0450  0.0436  0.1286
 1014SOL    HW2 4054   1.225   0.805   1.932  0.6692 -0.4424 -0.2400
 1014SOL    HW3 4055   1.075   0.785   1.924  0.5549 -0.7802  2.2261
 1014SOL    MW4 4056   1.156   0.763   1.899  0.1946 -0.1292  0.3567
 1015SOL     OW 4057   0.944   0.873   2.002  0.0616 -0.3899 -0.0119
 1015SOL    HW2 4058   0.949   0.865   2.097  2.0817 -0.6535 -0.1127
 1015SOL    HW3 4059   0.941   0.967   1.986  0.6005 -0.3166  0.2944
 1015SOL    MW4 4060   0.944   0.884   2.013  0.3993 -0.4150  0.0152
 1016SOL     OW 4061   0.935   1.133   1.912 -0.5372 -0.1107 -0.1239
 1016SOL    HW2 4062   0.844   1.153   1.933 -1.4616 -2.4012 -1.7385
 1016SOL    HW3 4063   0.939   1.131   1.817  1.2594  0.1639 -0.0827
 1016SOL    MW4 4064   0.924   1.135   1.902 -0.4221 -0.3766 -0.3315
 1017SOL     OW 4065   1.146   1.279   1.989  0.3197 -0.0706 -0.1850
 1017SOL    HW2 4066   1.137   1.364   1.946  1.2464 -0.6474 -1.5274
 1017SOL    HW3 4067   1.066   1.232   1.967  0.2073  0.1228 -0.1884
 1017SOL    MW4 4068   1.134   1.284   1.981  0.4271 -0.1212 -0.3626
 1018SOL     OW 4069   1.160   1.549   1.885  0.3478 -0.0940 -0.1996
 1018SOL    HW2 4070   1.080   1.589   1.918  0.4543  0.1438 -0.2322
 1018SOL    HW3 4071   1.146   1.542   1.790  0.4645  0.1650 -0.2348
 1018SOL    MW4 4072   1.147   1.553   1.877  0.3773 -0.0285 -0.2085
 1019SOL     OW 4073   0.946   1.683   1.986  0.4531 -0.5581  0.7095
 1019SOL    HW2 4074   0.935   1.775   1.963  0.4487 -0.0149  2.7902
 1019SOL    HW3 4075   0.859   1.645   1.979  0.0942  0.0616  1.7526
 1019SOL    MW4 4076   0.933   1.690   1.982  0.4052 -0.4047  1.1217
 1020SOL     OW 4077   0.912   1.975   1.877 -0.0991 -0.2158  0.1635
 1020SOL    HW2 4078   0.837   2.030   1.901  0.6883  1.2048 -0.5274
 1020SOL    HW3 4079   0.914   1.980   1.781  1.6047  0.7556  0.2392
 1020SOL    MW4 4080   0.902   1.983   1.867  0.2296  0.0998  0.0823
 1021SOL     OW 4081   1.149   2.084   1.995 -0.1984  0.3096  0.0253
 1021SOL    HW2 4082   1.164   2.169   1.954  0.0270 -0.2824 -1.1587
 1021SOL    HW3 4083   1.078   2.045   1.943  0.1903 -0.5212  0.1093
 1021SOL    MW4 4084   1.142   2.090   1.983 -0.1173  0.1219 -0.1198
 1022SOL     OW 4085   1.126   2.342   1.904  0.1346 -0.1210  0.0296
 1022SOL    HW2 4086   1.195   2.401   1.936  1.1762 -1.8827  1.1222
 1022SOL    HW3 4087   1.139   2.340   1.809  1.0211  0.2672  0.1362
 1022SOL    MW4 4088   1.137   2.350   1.896  0.3890 -0.3022  0.1878
 1023SOL     OW 4089   0.894   2.470   2.009 -0.3034 -0.0041  0.3122
 1023SOL    HW2 4090   0.971   2.422   1.983  0.0202  0.1968  0.8784
 1023SOL    HW3 4091   0.824   2.436   1.954  0.3069  0.2327 -0.6154
 1023SOL    MW4 4092   0.895   2.459   1.998 -0.1802  0.0536  0.2645
 1024SOL     OW 4093   0.886   2.739   1.877 -0.7199  0.2574 -0.3730
 1024SOL    HW2 4094   0.890   2.660   1.931  1.1100  0.6308  0.0653
 1024SOL    HW3 4095   0.798   2.774   1.894 -0.8719 -0.6643  0.8693
 1024SOL    MW4 4096   0.875   2.733   1.887 -0.4985  0.1850 -0.1512
 1025SOL     OW 4097   1.121   2.881   1.930 -0.1585  0.1005  0.0237
 1025SOL    HW2 4098   1.109   2.889   2.025  0.1325 -0.3092  0.0970
 1025SOL    HW3 4099   1.040   2.839   1.899 -1.0000  1.8018 -0.1485
 1025SOL    MW4 4100   1.109   2.876   1.939 -0.2311  0.2709  0.0106
 1026SOL     OW 4101   1.153   3.135   1.844 -0.1571  0.1115 -0.9659
 1026SOL    HW2 4102   1.087   3.181   1.896  0.4674  0.0173 -0.0767
 1026SOL    HW3 4103   1.142   3.043   1.870  0.5347  0.1368 -0.5668
 1026SOL    MW4 4104   1.143   3.129   1.855  0.0166  0.1024 -0.7959
 1027SOL     OW 4105   0.941   3.243   1.979 -0.1908 -0.2386 -0.0922
 1027SOL    HW2 4106   0.940   3.240   2.074 -1.4231  1.2870 -0.0502
 1027SOL    HW3 4107   0.860   3.200   1.952  0.4484 -1.2208 -0.4759
 1027SOL    MW4 4108   0.930   3.237   1.988 -0.2690 -0.1669 -0.1373
 1028SOL     OW 4109   0.904   3.505   1.880 -0.4606 -0.2735  0.2151
 1028SOL    HW2 4110   0.897   3.415   1.912 -2.1508 -0.2151  0.0496
 1028SOL    HW3 4111   0.935   3.495   1.790  1.4110 -0.5720  0.8654
 1028SOL    MW4 4112   0.907   3.492   1.872 -0.4366 -0.3051  0.2791
 1029SOL     OW 4113   1.146   3.624   1.971  0.1568 -0.0822 -0.3313
 1029SOL    HW2 4114   1.130   3.622   2.065 -0.3772  1.8619 -0.3472
 1029SOL    HW3 4115   1.068   3.583   1.933 -0.1345  0.1329  0.0259
 1029SOL    MW4 4116   1.134   3.618   1.978  0.0479  0.2027 -0.2863
 1030SOL     OW 4117   1.163   3.887   1.895 -0.3302 -0.0686 -0.4950
 1030SOL    HW2 4118   1.124   3.800   1.907  0.5246 -0.4793 -0.6531
 1030SOL    HW3 4119   1.179   3.892   1.800 -0.1306  0.1485 -0.4490
 1030SOL    MW4 4120   1.160   3.876   1.884 -0.1911 -0.0941 -0.5098
 1031SOL     OW 4121   0.915   4.024   1.938  0.0223  0.1733  0.9669
 1031SOL    HW2 4122   0.908   4.027   2.033 -0.6117 -0.3651  0.9401
 1031SOL    HW3 4123   0.998   3.980   1.921 -0.7864 -1.5002  1.2737
 1031SOL    MW4 4124   0.925   4.018   1.948 -0.1681 -0.1185  1.0039
 1032SOL     OW 4125   0.892   4.295   1.866 -0.2822  0.0733  0.1097
 1032SOL    HW2 4126   0.969   4.343   1.895  0.7283  0.0625 -2.4694
 1032SOL    HW3 4127   0.914   4.203   1.882  0.2433  0.0692 -0.6378
 1032SOL    MW4 4128   0.905   4.289   1.872 -0.0795  0.0714 -0.3292
 1033SOL     OW 4129   1.144   4.390   1.988  0.2584 -0.1005 -0.2880
 1033SOL    HW2 4130   1.150   4.384   2.084  0.2267  0.3878 -0.2511
 1033SOL    HW3 4131   1.209   4.328   1.956  1.6893  1.1908  0.0686
 1033SOL    MW4 4132   1.153   4.381   1.997  0.4430  0.1343 -0.2361
 1034SOL     OW 4133   1.585   4.628   1.862  0.0767  0.5944  0.0849
 1034SOL    HW2 4134   1.663   4.675   1.891 -0.4557  0.6731  1.3777
 1034SOL    HW3 4135   1.602   4.537   1.887 -0.4742  0.6974  0.8198
 1034SOL    MW4 4136   1.598   4.622   1.869 -0.0662  0.6184  0.3524
 1035SOL     OW 4137   1.393   0.107   1.980 -0.2852 -0.1309 -0.4562
 1035SOL    HW2 4138   1.391   0.063   2.065  0.5491 -0.2606 -0.4999
 1035SOL    HW3 4139   1.464   0.064   1.933  0.0404  0.7565 -0.7806
 1035SOL    MW4 4140   1.402   0.095   1.985 -0.1322 -0.0310 -0.5047
 1036SOL     OW 4141   1.368   0.366   1.886 -0.0909 -0.0688 -0.2058
 1036SOL    HW2 4142   1.385   0.279   1.922 -1.0231  0.0768  0.6205
 1036SOL    HW3 4143   1.367   0.353   1.791 -0.8842 -1.0957 -0.0688
 1036SOL    MW4 4144   1.370   0.353   1.878 -0.3186 -0.1851 -0.0787
 1037SOL     OW 4145   1.609   0.515   1.973  0.2692  0.1144 -0.1043
 1037SOL    HW2 4146   1.696   0.491   1.943 -0.0054 -0.2405 -0.6152
 1037SOL    HW3 4147   1.552   0.443   1.946 -0.1355  0.1967  0.4934
 1037SOL    MW4 4148   1.613   0.502   1.966  0.1796  0.0784 -0.0928
 1038SOL     OW 4149   1.591   0.779   1.872  0.2297  0.1073  0.0314
 1038SOL    HW2 4150   1.679   0.818   1.876  0.4870 -0.2481 -1.6896
 1038SOL    HW3 4151   1.603   0.690   1.903  0.3546  0.2545  0.4111
 1038SOL    MW4 4152   1.604   0.773   1.877  0.2801  0.0798 -0.1456
 1039SOL     OW 4153   1.366   0.886   1.988  0.2554 -0.0539  0.0831
 1039SOL    HW2 4154   1.363   0.875   2.083 -0.2851 -1.6511 -0.1078
 1039SOL    HW3 4155   1.447   0.842   1.961 -0.0428 -0.3609 -0.3083
 1039SOL    MW4 4156   1.377   0.879   1.997  0.1447 -0.3051  0.0063
 1040SOL     OW 4157   1.350   1.137   1.861  0.3198  0.0336  0.1800
 1040SOL    HW2 4158   1.350   1.049   1.898  0.2566 -0.6794 -1.4523
 1040SOL    HW3 4159   1.275   1.180   1.901 -1.1656 -1.4957 -0.8661
 1040SOL    MW4 4160   1.341   1.131   1.871  0.1155 -0.2623 -0.1734
 1041SOL     OW 4161   1.558   1.264   1.992 -0.0617  0.7590 -0.1151
 1041SOL    HW2 4162   1.555   1.349   1.949  1.1854  1.4383  1.1030
 1041SOL    HW3 4163   1.489   1.213   1.948 -0.5710  2.2496 -1.1140
 1041SOL    MW4 4164   1.548   1.268   1.980  0.0357  1.0453 -0.0862
 1042SOL     OW 4165   1.572   1.528   1.895  0.3185 -0.0272  0.0254
 1042SOL    HW2 4166   1.651   1.575   1.921  1.5559 -1.7735 -0.5449
 1042SOL    HW3 4167   1.501   1.575   1.939  1.5603  2.1429 -0.2204
 1042SOL    MW4 4168   1.573   1.541   1.904  0.6456  0.0287 -0.0823
 1043SOL     OW 4169   1.378   1.720   1.989  0.2257  0.2351  0.1246
 1043SOL    HW2 4170   1.378   1.715   2.085 -0.3735  1.0287  0.1677
 1043SOL    HW3 4171   1.298   1.676   1.962  0.1969  0.3593  0.0064
 1043SOL    MW4 4172   1.368   1.713   1.998  0.1429  0.3562  0.1147
 1044SOL     OW 4173   1.342   1.955   1.849 -0.3589  0.6934  0.2084
 1044SOL    HW2 4174   1.368   1.876   1.896  0.3973  0.5672 -0.4052
 1044SOL    HW3 4175   1.276   1.996   1.904 -0.0172  0.1616  1.0112
 1044SOL    MW4 4176   1.336   1.950   1.862 -0.2141  0.6066  0.2334
 1045SOL     OW 4177   1.576   2.065   1.963 -0.4392 -0.1434  0.0091
 1045SOL    HW2 4178   1.564   2.157   1.941 -0.8432 -0.2144 -0.0812
 1045SOL    HW3 4179   1.498   2.022   1.927  0.6684 -0.8148 -1.6215
 1045SOL    MW4 4180   1.564   2.072   1.955 -0.3463 -0.2413 -0.2179
 1046SOL     OW 4181   1.550   2.320   1.881 -0.5371 -0.3801  0.3484
 1046SOL    HW2 4182   1.630   2.369   1.897 -1.2624  0.5917  1.0814
 1046SOL    HW3 4183   1.542   2.317   1.786 -0.0240  0.1657  0.2849
 1046SOL    MW4 4184   1.559   2.326   1.871 -0.5651 -0.1798  0.4367
 1047SOL     OW 4185   1.353   2.467   2.010  0.2326 -0.1792  0.2826
 1047SOL    HW2 4186   1.359   2.558   1.984 -0.1695  0.0444  0.9531
 1047SOL    HW3 4187   1.426   2.424   1.965 -0.7034  0.0936 -1.5430
 1047SOL    MW4 4188   1.363   2.473   2.001  0.0561 -0.1137  0.1302
 1048SOL     OW 4189   1.366   2.709   1.873 -0.1123  0.2805 -0.0345
 1048SOL    HW2 4190   1.287   2.758   1.895 -0.3117  0.7928 -1.8263
 1048SOL    HW3 4191   1.365   2.703   1.777  0.6447 -1.9848  0.0646
 1048SOL    MW4 4192   1.356   2.714   1.863 -0.0388  0.0492 -0.2578
 1049SOL     OW 4193   1.582   2.833   1.997  0.2706 -0.9142 -0.3136
 1049SOL    HW2 4194   1.661   2.789   1.966  0.0875 -0.9428 -0.7451
 1049SOL    HW3 4195   1.510   2.784   1.956  0.1153  0.7817 -2.0883
 1049SOL    MW4 4196   1.583   2.820   1.988  0.2259 -0.6942 -0.6047
 1050SOL     OW 4197   1.592   3.096   1.915  0.1246  0.1111  0.4408
 1050SOL    HW2 4198   1.581   3.010   1.957  1.8336  0.2403  1.1800
 1050SOL    HW3 4199   1.584   3.078   1.821 -0.6397 -0.6775  0.6486
 1050SOL    MW4 4200   1.589   3.082   1.908  0.2493  0.0241  0.5658
 1051SOL     OW 4201   1.358   3.242   1.982  0.2613  0.3502 -0.2005
 1051SOL    HW2 4202   1.443   3.210   1.950  0.1405 -1.4528  1.2272
 1051SOL    HW3 4203   1.293   3.191   1.934  0.0220  0.0767  0.4104
 1051SOL    MW4 4204   1.361   3.231   1.971  0.2138  0.0762  0.0685
 1052SOL     OW 4205   1.352   3.479   1.846 -0.1185  0.1963 -0.8444
 1052SOL    HW2 4206   1.357   3.399   1.899 -0.5256 -0.5251 -1.8627
 1052SOL    HW3 4207   1.295   3.537   1.896 -1.5730 -0.9712 -1.0794
 1052SOL    MW4 4208   1.345   3.476   1.859 -0.3641 -0.0529 -1.0097
 1053SOL     OW 4209   1.571   3.612   1.948 -0.4331 -0.1375 -0.6061
 1053SOL    HW2 4210   1.553   3.597   2.041 -3.5720  0.1630 -1.1006
 1053SOL    HW3 4211   1.506   3.557   1.903  0.0704  0.8730 -2.5942
 1053SOL    MW4 4212   1.560   3.602   1.955 -0.7808  0.0355 -0.9337
 1054SOL     OW 4213   1.630   3.899   1.862 -0.3253 -0.3375  0.2898
 1054SOL    HW2 4214   1.712   3.929   1.901  0.4891 -0.4803 -1.2776
 1054SOL    HW3 4215   1.620   3.809   1.892  0.4733 -0.5589 -0.1011
 1054SOL    MW4 4216   1.639   3.891   1.871 -0.1125 -0.3856  0.0314
 1055SOL     OW 4217   1.395   4.010   1.989 -0.2990  0.1304 -0.2161
 1055SOL    HW2 4218   1.466   3.958   1.951  0.0830 -0.0204  0.6859
 1055SOL    HW3 4219   1.315   3.965   1.962 -0.0400  0.1074 -0.9518
 1055SOL    MW4 4220   1.394   3.997   1.981 -0.2144  0.1075 -0.1942
 1056SOL     OW 4221   1.373   4.278   1.849 -0.4759  0.5054 -0.0260
 1056SOL    HW2 4222   1.391   4.188   1.876 -2.1661 -0.2740 -1.4172
 1056SOL    HW3 4223   1.369   4.274   1.754 -0.9090  1.9970 -0.0820
 1056SOL    MW4 4224   1.375   4.266   1.840 -0.7560  0.5993 -0.2170
 1057SOL     OW 4225   1.642   4.387   1.955  0.7253 -0.1307 -0.1856
 1057SOL    HW2 4226   1.636   4.367   2.049 -0.3618  1.2596  0.0554
 1057SOL    HW3 4227   1.556   4.366   1.920  1.3090 -1.2187 -1.0110
 1057SOL    MW4 4228   1.630   4.381   1.963  0.6589 -0.0908 -0.2627
 1058SOL     OW 4229   2.034   4.661   1.858  0.3004 -0.0529 -0.0322
 1058SOL    HW2 4230   2.114   4.695   1.898 -0.2042  0.2658  0.7050
 1058SOL    HW3 4231   2.020   4.576   1.899 -0.4401  0.4511  0.7795
 1058SOL    MW4 4232   2.043   4.654   1.868  0.1361  0.0556  0.1722
 1059SOL     OW 4233   1.803   0.127   1.935 -0.0682  0.3302  0.2240
 1059SOL    HW2 4234   1.810   0.126   2.030 -1.4358 -1.3535  0.3414
 1059SOL    HW3 4235   1.882   0.084   1.904  0.7342  1.5465  0.5617
 1059SOL    MW4 4236   1.814   0.121   1.943 -0.1428  0.2686  0.2841
 1060SOL     OW 4237   1.833   0.386   1.866  0.4989  0.2043  0.5352
 1060SOL    HW2 4238   1.827   0.293   1.888 -0.9628  0.1043 -0.2366
 1060SOL    HW3 4239   1.832   0.389   1.771  2.1125  0.9307  0.5234
 1060SOL    MW4 4240   1.832   0.374   1.857  0.5190  0.2869  0.4318
 1061SOL     OW 4241   2.049   0.507   1.966 -0.3476  0.0778 -0.0350
 1061SOL    HW2 4242   2.047   0.598   1.938 -0.2925  0.0585 -0.1018
 1061SOL    HW3 4243   1.967   0.469   1.933  0.0678 -0.1428 -0.8396
 1061SOL    MW4 4244   2.038   0.514   1.958 -0.2856  0.0461 -0.1500
 1062SOL     OW 4245   2.097   0.765   1.882 -0.3457  0.8638  0.1880
 1062SOL    HW2 4246   2.169   0.825   1.903 -0.0017  0.3521  0.4725
 1062SOL    HW3 4247   2.072   0.787   1.792  1.7095 -0.5134 -0.7509
 1062SOL    MW4 4248   2.103   0.776   1.873 -0.0291  0.6146  0.1017
 1063SOL     OW 4249   1.850   0.902   1.982  0.1501 -0.4781  0.1931
 1063SOL    HW2 4250   1.843   0.990   1.945  0.5751 -0.6188 -0.2276
 1063SOL    HW3 4251   1.932   0.868   1.947  1.1228 -0.2016  2.2030
 1063SOL    MW4 4252   1.860   0.909   1.972  0.3345 -0.4602  0.4028
 1064SOL     OW 4253   1.828   1.163   1.867  0.2411  0.3359 -0.2432
 1064SOL    HW2 4254   1.743   1.200   1.893 -0.0468 -0.4527 -0.0634
 1064SOL    HW3 4255   1.824   1.159   1.772  0.1673  0.5146 -0.2490
 1064SOL    MW4 4256   1.816   1.167   1.858  0.1934  0.2554 -0.2203
 1065SOL     OW 4257   2.040   1.289   1.990 -0.5994 -0.0573  0.2900
 1065SOL    HW2 4258   2.120   1.258   1.947 -0.3323 -1.0503  1.4422
 1065SOL    HW3 4259   1.969   1.248   1.942 -0.5237  2.1723 -1.8093
 1065SOL    MW4 4260   2.042   1.280   1.978 -0.5541  0.1059  0.1650
 1066SOL     OW 4261   1.987   1.532   1.876  0.3053  0.3108  0.1785
 1066SOL    HW2 4262   2.011   1.452   1.923  1.5719  0.6478  0.0979
 1066SOL    HW3 4263   2.009   1.513   1.785 -0.0148  0.5065  0.0604
 1066SOL    MW4 4264   1.993   1.519   1.870  0.4302  0.3811  0.1522
 1067SOL     OW 4265   1.784   1.673   1.970 -0.1532  0.2166  0.4758
 1067SOL    HW2 4266   1.785   1.766   1.950 -1.1387  0.3195  0.8738
 1067SOL    HW3 4267   1.867   1.640   1.935 -0.8614  0.7877 -1.8587
 1067SOL    MW4 4268   1.795   1.681   1.963 -0.3767  0.3055  0.2203
 1068SOL     OW 4269   1.813   1.938   1.908  0.2505 -0.0525  0.0532
 1068SOL    HW2 4270   1.745   1.996   1.943 -0.5999 -0.2571 -1.2079
 1068SOL    HW3 4271   1.794   1.933   1.814  1.6083 -0.6627 -0.2062
 1068SOL    MW4 4272   1.801   1.945   1.900  0.3175 -0.1600 -0.1474
 1069SOL     OW 4273   2.085   2.036   1.976  0.1308 -0.2651  0.4342
 1069SOL    HW2 4274   2.153   1.988   1.929  0.0364 -0.3276  0.3610
 1069SOL    HW3 4275   2.003   1.996   1.947 -0.0513  1.1383 -1.0180
 1069SOL    MW4 4276   2.083   2.024   1.966  0.0943 -0.0882  0.2329
 1070SOL     OW 4277   2.047   2.282   1.858 -0.2018 -0.1627  0.1425
 1070SOL    HW2 4278   2.122   2.331   1.893 -0.2856 -1.5671  2.4137
 1070SOL    HW3 4279   2.062   2.192   1.888 -0.8090 -1.2512 -2.6992
 1070SOL    MW4 4280   2.059   2.276   1.867 -0.2930 -0.4916  0.0672
 1071SOL     OW 4281   1.822   2.410   1.961  0.2142 -0.1140  0.2885
 1071SOL    HW2 4282   1.840   2.426   2.054  2.3957  0.0428 -0.1237
 1071SOL    HW3 4283   1.895   2.355   1.932 -1.1461 -1.2528 -1.0341
 1071SOL    MW4 4284   1.834   2.405   1.970  0.3226 -0.2436  0.0596
 1072SOL     OW 4285   1.807   2.679   1.914  0.3170  0.2590 -0.0920
 1072SOL    HW2 4286   1.804   2.584   1.925  0.4210  0.2574 -0.0769
 1072SOL    HW3 4287   1.811   2.691   1.819 -0.5189  0.2719 -0.1229
 1072SOL    MW4 4288   1.807   2.668   1.903  0.2205  0.2605 -0.0941
 1073SOL     OW 4289   2.043   2.819   1.992  0.1393  0.0393  0.1138
 1073SOL    HW2 4290   2.053   2.824   2.087  0.3750  2.5261 -0.0056
 1073SOL    HW3 4291   1.974   2.753   1.978 -0.2255 -0.0042  2.0066
 1073SOL    MW4 4292   2.035   2.811   2.002  0.1223  0.3617  0.3478
 1074SOL     OW 4293   2.044   3.078   1.874 -0.1329  0.1857 -0.3903
 1074SOL    HW2 4294   1.962   3.120   1.900 -0.0799 -0.3374  0.6903
 1074SOL    HW3 4295   2.040   2.991   1.915  0.2659 -0.4217 -1.6264
 1074SOL    MW4 4296   2.033   3.072   1.883 -0.0733  0.0365 -0.4108
 1075SOL     OW 4297   1.830   3.200   1.990 -0.2229 -0.0888 -0.0770
 1075SOL    HW2 4298   1.840   3.182   2.083 -1.8719  2.2567  0.5744
 1075SOL    HW3 4299   1.743   3.168   1.968 -0.1456  0.0784 -0.6445
 1075SOL    MW4 4300   1.820   3.193   1.999 -0.4303  0.2427 -0.0659
 1076SOL     OW 4301   1.803   3.479   1.896 -0.1489  0.2791  0.1422
 1076SOL    HW2 4302   1.810   3.396   1.944  0.6829  0.6585  0.6837
 1076SOL    HW3 4303   1.721   3.518   1.927 -0.1385  0.0352  0.4785
 1076SOL    MW4 4304   1.793   3.473   1.906 -0.0378  0.2970  0.2580
 1077SOL     OW 4305   2.041   3.601   2.000 -0.5340 -0.2867  0.5076
 1077SOL    HW2 4306   2.028   3.689   1.965 -2.8651 -0.3651  1.1152
 1077SOL    HW3 4307   1.964   3.551   1.972  1.1841 -2.4128 -0.6172
 1077SOL    MW4 4308   2.029   3.606   1.992 -0.6149 -0.5775  0.4394
 1078SOL     OW 4309   2.046   3.866   1.885  0.1572  0.4304  0.4242
 1078SOL    HW2 4310   2.117   3.926   1.908  0.9145  0.0500 -0.8747
 1078SOL    HW3 4311   2.044   3.867   1.790 -1.4924  0.3165  0.4507
 1078SOL    MW4 4312   2.055   3.874   1.876  0.0395  0.3652  0.2564
 1079SOL     OW 4313   1.853   4.012   2.000 -0.1207  0.4707  0.4995
 1079SOL    HW2 4314   1.850   4.096   1.953 -0.4165  1.4122  2.1533
 1079SOL    HW3 4315   1.930   3.968   1.965  0.2089  1.5651 -0.1919
 1079SOL    MW4 4316   1.863   4.018   1.989 -0.1162  0.7393  0.6265
 1080SOL     OW 4317   1.847   4.250   1.857  0.2683  0.3677  0.1126
 1080SOL    HW2 4318   1.765   4.295   1.877  1.1251  1.5652  1.0449
 1080SOL    HW3 4319   1.859   4.262   1.763 -0.3128  0.7002  0.0759
 1080SOL    MW4 4320   1.838   4.258   1.848  0.3047  0.5696  0.2308
 1081SOL     OW 4321   2.023   4.425   1.986 -0.0052 -0.2928 -0.3483
 1081SOL    HW2 4322   2.098   4.380   1.947 -0.3250  0.5065 -1.9499
 1081SOL    HW3 4323   1.947   4.373   1.959 -0.2862  0.6142 -1.3699
 1081SOL    MW4 4324   2.023   4.412   1.977 -0.0845 -0.0677 -0.6944
 1082SOL     OW 4325   2.478   4.652   1.871  0.0630 -0.0066  0.2770
 1082SOL    HW2 4326   2.560   4.692   1.900  0.9215 -1.3337 -0.3016
 1082SOL    HW3 4327   2.488   4.559   1.890 -0.5039 -0.4789 -1.5927
 1082SOL    MW4 4328   2.490   4.645   1.877  0.1015 -0.2440 -0.0460
 1083SOL     OW 4329   2.256   0.110   1.977  0.3442 -0.1294 -0.7735
 1083SOL    HW2 4330   2.272   0.119   2.071 -1.3607  0.2322 -0.4987
 1083SOL    HW3 4331   2.333   0.063   1.943  0.9149 -0.3482  0.8087
 1083SOL    MW4 4332   2.269   0.105   1.985  0.1946 -0.1106 -0.5285
 1084SOL     OW 4333   2.255   0.363   1.868  0.2328 -1.1338  0.3098
 1084SOL    HW2 4334   2.244   0.279   1.913 -2.6540 -1.4615 -0.8642
 1084SOL    HW3 4335   2.184   0.417   1.902 -0.1759 -0.4102 -1.6082
 1084SOL    MW4 4336   2.244   0.359   1.878 -0.2020 -1.0816 -0.0982
 1085SOL     OW 4337   2.495   0.470   1.963  0.0422 -0.0482  0.3248
 1085SOL    HW2 4338   2.564   0.444   1.902 -1.1970  0.5425 -1.3556
 1085SOL    HW3 4339   2.414   0.437   1.924 -0.8262  0.7029  1.4393
 1085SOL    MW4 4340   2.493   0.462   1.950 -0.2359  0.1288  0.2501
 1086SOL     OW 4341   2.511   0.736   1.902 -0.7623  0.0546  0.4927
 1086SOL    HW2 4342   2.487   0.649   1.934 -1.6633  0.0131 -0.2681
 1086SOL    HW3 4343   2.506   0.729   1.806  1.7568  0.2113  0.3184
 1086SOL    MW4 4344   2.507   0.724   1.893 -0.5488  0.0698  0.3693
 1087SOL     OW 4345   2.313   0.933   1.925  0.5788 -0.1326  0.0392
 1087SOL    HW2 4346   2.302   0.925   2.019 -0.0671 -3.2515 -0.2482
 1087SOL    HW3 4347   2.386   0.876   1.903 -0.2048 -0.5846 -1.5200
 1087SOL    MW4 4348   2.321   0.925   1.934  0.3902 -0.6038 -0.2044
 1088SOL     OW 4349   2.267   1.200   1.845  0.1572 -0.0486 -0.0702
 1088SOL    HW2 4350   2.343   1.248   1.878  1.2099 -1.1079 -0.9171
 1088SOL    HW3 4351   2.283   1.109   1.870 -1.4157 -0.1027  0.7844
 1088SOL    MW4 4352   2.279   1.194   1.852  0.0886 -0.1955 -0.0692
 1089SOL     OW 4353   2.500   1.274   1.959 -0.2087 -0.0443 -0.5834
 1089SOL    HW2 4354   2.484   1.275   2.053  0.2735 -0.8064 -0.4845
 1089SOL    HW3 4355   2.539   1.359   1.940 -0.1872  0.0610 -0.0663
 1089SOL    MW4 4356   2.503   1.285   1.969 -0.1422 -0.1310 -0.5021
 1090SOL     OW 4357   2.509   1.558   1.873  0.0039  0.3490 -0.6994
 1090SOL    HW2 4358   2.425   1.591   1.904 -0.0292 -0.9368  0.6445
 1090SOL    HW3 4359   2.508   1.573   1.779 -1.5743  0.6881 -0.6373
 1090SOL    MW4 4360   2.498   1.564   1.865 -0.2087  0.2241 -0.5139
 1091SOL     OW 4361   2.244   1.651   1.945 -0.1945  0.3854  0.4570
 1091SOL    HW2 4362   2.258   1.676   2.036  0.2103 -0.8279  0.7376
 1091SOL    HW3 4363   2.155   1.616   1.943 -0.2315  0.4820  0.3622
 1091SOL    MW4 4364   2.234   1.650   1.957 -0.1460  0.2381  0.4815
 1092SOL     OW 4365   2.250   1.900   1.802  0.1307 -0.6259 -0.3996
 1092SOL    HW2 4366   2.316   1.928   1.866 -1.7244 -0.2004  1.3860
 1092SOL    HW3 4367   2.221   1.815   1.833 -0.2655 -0.7378 -1.0791
 1092SOL    MW4 4368   2.255   1.893   1.814 -0.1663 -0.5845 -0.2537
 1093SOL     OW 4369   2.472   1.980   1.956 -0.2841  0.1308  0.0467
 1093SOL    HW2 4370   2.550   1.939   1.918 -1.1733 -0.9301 -0.6902
 1093SOL    HW3 4371   2.478   2.072   1.931  1.4506  0.3463  1.2006
 1093SOL    MW4 4372   2.483   1.986   1.947 -0.1725  0.0192  0.1017
 1094SOL     OW 4373   2.490   2.250   1.875 -0.0884  0.3474  0.0714
 1094SOL    HW2 4374   2.554   2.319   1.894 -0.2182  1.0805 -2.0645
 1094SOL    HW3 4375   2.409   2.281   1.917  0.7834 -0.3073  2.2840
 1094SOL    MW4 4376   2.488   2.263   1.883  0.0095  0.3577  0.0815
 1095SOL     OW 4377   2.281   2.396   1.967  0.0034 -0.4976 -0.0513
 1095SOL    HW2 4378   2.276   2.393   2.062  1.3170 -1.0854  0.0077
 1095SOL    HW3 4379   2.276   2.489   1.946 -1.7217 -0.4437  0.4867
 1095SOL    MW4 4380   2.279   2.408   1.977 -0.0509 -0.5681  0.0274
 1096SOL     OW 4381   2.232   2.662   1.896  0.1532  0.5492  0.5954
 1096SOL    HW2 4382   2.173   2.729   1.932  0.7810  0.6057  1.5363
 1096SOL    HW3 4383   2.226   2.674   1.802 -0.9497  0.8989  0.6940
 1096SOL    MW4 4384   2.223   2.672   1.889  0.0905  0.6028  0.7325
 1097SOL     OW 4385   2.475   2.808   2.004 -0.0389 -0.2105  0.3092
 1097SOL    HW2 4386   2.485   2.893   1.960 -0.1069  0.2833  1.2472
 1097SOL    HW3 4387   2.396   2.771   1.965  0.7521 -0.4680 -1.1050
 1097SOL    MW4 4388   2.466   2.814   1.993  0.0565 -0.1793  0.2464
 1098SOL     OW 4389   2.463   3.054   1.876 -0.4027 -0.1878 -0.3877
 1098SOL    HW2 4390   2.389   3.095   1.920 -1.0144  0.8042 -2.3244
 1098SOL    HW3 4391   2.451   3.074   1.783  2.2222 -0.1010 -0.7545
 1098SOL    MW4 4392   2.452   3.062   1.870 -0.1371 -0.0455 -0.6916
 1099SOL     OW 4393   2.248   3.223   1.975 -0.1444  0.3360  0.0298
 1099SOL    HW2 4394   2.234   3.218   2.070 -1.3745  0.5332 -0.1364
 1099SOL    HW3 4395   2.169   3.184   1.937 -0.0546  1.0805 -0.9335
 1099SOL    MW4 4396   2.236   3.217   1.982 -0.2948  0.4603 -0.1193
 1100SOL     OW 4397   2.269   3.465   1.866  0.6468 -0.3833 -0.2047
 1100SOL    HW2 4398   2.260   3.373   1.891  1.7411  0.1518  2.3764
 1100SOL    HW3 4399   2.190   3.507   1.901  0.7250 -0.1425 -0.3208
 1100SOL    MW4 4400   2.257   3.458   1.874  0.8015 -0.2810  0.1205
 1101SOL     OW 4401   2.467   3.619   1.963  0.0673  0.3992 -0.0345
 1101SOL    HW2 4402   2.470   3.598   2.056 -1.1128 -0.6986 -0.2395
 1101SOL    HW3 4403   2.393   3.570   1.929  0.8409  0.3294 -1.6800
 1101SOL    MW4 4404   2.458   3.610   1.971  0.0137  0.2451 -0.2787
 1102SOL     OW 4405   2.442   3.884   1.873 -0.5642  0.3759  0.4881
 1102SOL    HW2 4406   2.379   3.932   1.926 -1.1663  0.1740 -0.0462
 1102SOL    HW3 4407   2.441   3.796   1.911 -1.2141  0.1511 -0.0370
 1102SOL    MW4 4408   2.434   3.878   1.885 -0.7293  0.3196  0.3484
 1103SOL     OW 4409   2.253   4.023   1.984  0.2142 -0.5150 -0.3168
 1103SOL    HW2 4410   2.264   4.035   2.078  1.2334  0.0187 -0.4946
 1103SOL    HW3 4411   2.239   4.111   1.950 -2.8668 -0.9616 -0.3607
 1103SOL    MW4 4412   2.253   4.036   1.992 -0.0578 -0.5035 -0.3460
 1104SOL     OW 4413   2.233   4.281   1.892 -0.1184  0.1391  0.2347
 1104SOL    HW2 4414   2.312   4.321   1.929 -1.6001  2.5688  0.8649
 1104SOL    HW3 4415   2.239   4.298   1.798 -0.1491  0.7707  0.3469
 1104SOL    MW4 4416   2.244   4.288   1.885 -0.3179  0.5430  0.3326
 1105SOL     OW 4417   2.481   4.394   1.964  0.2254 -0.3378  0.3082
 1105SOL    HW2 4418   2.488   4.402   2.059 -0.0027  1.2393  0.2064
 1105SOL    HW3 4419   2.558   4.343   1.938  0.0862 -1.0857  1.3759
 1105SOL    MW4 4420   2.492   4.389   1.973  0.1770 -0.2284  0.4356
 1106SOL     OW 4421   2.909   4.653   1.808 -0.2236  0.2841  0.7128
 1106SOL    HW2 4422   2.992   4.688   1.843  0.6292 -0.9041 -0.0773
 1106SOL    HW3 4423   2.906   4.563   1.841  0.4355 -0.7604 -1.9692
 1106SOL    MW4 4424   2.920   4.645   1.817 -0.0241 -0.0105  0.2547
 1107SOL     OW 4425   2.700   0.131   1.957 -0.0471  0.5002 -0.0419
 1107SOL    HW2 4426   2.706   0.117   2.051 -1.6767  1.3031  0.1908
 1107SOL    HW3 4427   2.781   0.092   1.922  1.2274  1.4075  1.8055
 1107SOL    MW4 4428   2.712   0.124   1.965 -0.0939  0.7258  0.2326
 1108SOL     OW 4429   2.728   0.385   1.857  0.4356  0.1406  0.4104
 1108SOL    HW2 4430   2.819   0.414   1.867  0.2122  0.8315  0.4562
 1108SOL    HW3 4431   2.727   0.297   1.894  1.4239 -0.4768 -0.9869
 1108SOL    MW4 4432   2.740   0.377   1.863  0.5365  0.1503  0.2321
 1109SOL     OW 4433   2.964   0.498   1.987  0.1160  0.3467 -0.1694
 1109SOL    HW2 4434   3.040   0.461   1.943 -0.2828 -0.0056 -0.5646
 1109SOL    HW3 4435   2.949   0.582   1.944  0.7261  0.7440  0.3998
 1109SOL    MW4 4436   2.972   0.504   1.976  0.1439  0.3527 -0.1464
 1110SOL     OW 4437   2.930   0.741   1.861  0.3091 -0.6686  0.0681
 1110SOL    HW2 4438   3.010   0.777   1.900 -0.1262  0.2222  0.1662
 1110SOL    HW3 4439   2.859   0.786   1.908 -0.2396 -1.2449 -0.2112
 1110SOL    MW4 4440   2.931   0.752   1.873  0.1793 -0.6271  0.0442
 1111SOL     OW 4441   2.723   0.876   1.986  0.1652 -0.0985  0.2323
 1111SOL    HW2 4442   2.706   0.965   1.957 -0.5785 -0.1799  0.3912
 1111SOL    HW3 4443   2.646   0.827   1.957  0.9613 -0.8716 -0.6368
 1111SOL    MW4 4444   2.710   0.881   1.978  0.1721 -0.2113  0.1386
 1112SOL     OW 4445   2.712   1.124   1.886 -0.1781  0.4362  0.4519
 1112SOL    HW2 4446   2.630   1.166   1.913 -0.2571 -0.3834  1.5274
 1112SOL    HW3 4447   2.723   1.150   1.794 -1.6676  0.5239  0.2828
 1112SOL    MW4 4448   2.703   1.133   1.877 -0.3851  0.3397  0.5715
 1113SOL     OW 4449   2.929   1.249   2.019  0.1130  0.6391 -0.2095
 1113SOL    HW2 4450   2.925   1.335   1.977 -0.2579  0.9824  0.5292
 1113SOL    HW3 4451   2.850   1.204   1.989  0.0316  0.7526 -0.1647
 1113SOL    MW4 4452   2.918   1.254   2.009  0.0534  0.6994 -0.1061
 1114SOL     OW 4453   2.934   1.497   1.865  0.0510 -0.0172  0.1565
 1114SOL    HW2 4454   3.007   1.549   1.899  0.7632 -0.4386 -0.7030
 1114SOL    HW3 4455   2.944   1.502   1.770 -0.1506 -1.3194  0.0543
 1114SOL    MW4 4456   2.945   1.505   1.857  0.1184 -0.2446  0.0296
 1115SOL     OW 4457   2.732   1.649   1.975 -0.4579  0.4971  0.0374
 1115SOL    HW2 4458   2.802   1.600   1.933 -0.4497  1.1029 -0.6667
 1115SOL    HW3 4459   2.651   1.614   1.937 -0.4517  1.0388 -0.4756
 1115SOL    MW4 4460   2.730   1.638   1.965 -0.4560  0.6485 -0.1232
 1116SOL     OW 4461   2.708   1.892   1.853 -0.3890  0.0715  0.2549
 1116SOL    HW2 4462   2.777   1.951   1.884  0.6340 -0.0939 -1.6288
 1116SOL    HW3 4463   2.722   1.811   1.903  0.9148 -0.0332 -0.2738
 1116SOL    MW4 4464   2.719   1.889   1.864 -0.0820  0.0359 -0.0634
 1117SOL     OW 4465   2.914   2.057   1.961 -0.0495  0.1462  0.0927
 1117SOL    HW2 4466   2.910   2.050   2.056  0.6952 -0.8820  0.0614
 1117SOL    HW3 4467   3.004   2.034   1.939 -0.3706 -0.2056 -0.9060
 1117SOL    MW4 4468   2.925   2.053   1.971  0.0064 -0.0358 -0.0432
 1118SOL     OW 4469   2.929   2.334   1.833 -0.5609  0.4296  0.5588
 1118SOL    HW2 4470   3.008   2.372   1.870  0.4943 -0.1308 -1.0343
 1118SOL    HW3 4471   2.931   2.242   1.860 -0.1555  0.1864 -0.2842
 1118SOL    MW4 4472   2.939   2.327   1.841 -0.3682  0.3236  0.2374
 1119SOL     OW 4473   2.682   2.418   1.941 -0.1302 -0.4012  0.0512
 1119SOL    HW2 4474   2.679   2.513   1.927 -0.2037 -0.3100  0.6500
 1119SOL    HW3 4475   2.775   2.395   1.937 -0.1791 -0.4498 -0.9924
 1119SOL    MW4 4476   2.694   2.427   1.939 -0.1464 -0.3956 -0.0074
 1120SOL     OW 4477   2.703   2.688   1.905  0.2639  0.0795 -0.0241
 1120SOL    HW2 4478   2.620   2.726   1.935  0.1659  0.2098 -0.4483
 1120SOL    HW3 4479   2.706   2.710   1.812  0.4167 -0.5857 -0.1730
 1120SOL    MW4 4480   2.692   2.696   1.897  0.2711  0.0089 -0.0997
 1121SOL     OW 4481   2.909   2.837   1.999 -0.4462  0.6768  0.1637
 1121SOL    HW2 4482   2.895   2.919   1.951  0.2283 -0.0886 -1.3948
 1121SOL    HW3 4483   2.840   2.778   1.967  0.1281  0.0984 -0.0313
 1121SOL    MW4 4484   2.898   2.840   1.988 -0.2815  0.4995 -0.0676
 1122SOL     OW 4485   2.929   3.093   1.879  0.0441  0.3194  0.3283
 1122SOL    HW2 4486   3.007   3.111   1.932  1.2803  0.4126 -1.4934
 1122SOL    HW3 4487   2.860   3.146   1.919  0.9872  0.5082  1.7462
 1122SOL    MW4 4488   2.930   3.102   1.891  0.3316  0.3566  0.2750
 1123SOL     OW 4489   2.696   3.208   1.963  0.2300 -0.4007 -0.0711
 1123SOL    HW2 4490   2.682   3.302   1.954  1.1145 -0.3341 -0.8584
 1123SOL    HW3 4491   2.613   3.168   1.935  0.3720  0.0936 -1.2469
 1123SOL    MW4 4492   2.683   3.215   1.958  0.3654 -0.3267 -0.3301
 1124SOL     OW 4493   2.685   3.475   1.876 -0.1265 -0.0892 -0.4638
 1124SOL    HW2 4494   2.760   3.522   1.911 -0.6727  0.7035 -0.3279
 1124SOL    HW3 4495   2.609   3.527   1.904 -0.7977 -1.5574  0.4666
 1124SOL    MW4 4496   2.685   3.488   1.884 -0.2871 -0.1783 -0.3231
 1125SOL     OW 4497   2.897   3.605   1.994  0.1880  0.1290  0.1582
 1125SOL    HW2 4498   2.915   3.575   2.083  0.4454  0.2080  0.1318
 1125SOL    HW3 4499   2.972   3.577   1.943  0.3667  0.6936  0.1063
 1125SOL    MW4 4500   2.909   3.598   1.999  0.2456  0.2139  0.1479
 1126SOL     OW 4501   2.900   3.875   1.889 -0.3590 -0.2387 -0.5494
 1126SOL    HW2 4502   2.890   3.783   1.913  0.2155 -0.4230 -1.0070
 1126SOL    HW3 4503   2.894   3.875   1.793 -0.2817  0.1952 -0.5544
 1126SOL    MW4 4504   2.898   3.863   1.879 -0.2730 -0.2057 -0.6104
 1127SOL     OW 4505   2.677   4.018   1.953  0.6367  0.2857 -0.4885
 1127SOL    HW2 4506   2.758   3.972   1.932  1.4084  1.7114 -0.6672
 1127SOL    HW3 4507   2.609   3.967   1.909  1.4278 -0.9092 -0.3455
 1127SOL    MW4 4508   2.679   4.005   1.944  0.8429  0.3161 -0.4932
 1128SOL     OW 4509   2.705   4.281   1.855  0.6228 -0.1685 -0.5532
 1128SOL    HW2 4510   2.708   4.192   1.890  1.2621  0.0676  0.0089
 1128SOL    HW3 4511   2.699   4.270   1.760 -5.1413 -0.8875 -0.2987
 1128SOL    MW4 4512   2.704   4.268   1.847 -0.0534 -0.2322 -0.4455
 1129SOL     OW 4513   2.907   4.426   1.975  0.1301 -0.5283 -0.8069
 1129SOL    HW2 4514   2.903   4.408   2.069 -0.8319  0.1557 -0.7092
 1129SOL    HW3 4515   2.833   4.377   1.939 -0.4957  0.5559 -0.9874
 1129SOL    MW4 4516   2.897   4.417   1.983 -0.0794 -0.2950 -0.8178
 1130SOL     OW 4517   3.389   4.655   1.898 -0.2165 -0.4543 -0.1327
 1130SOL    HW2 4518   3.398   4.564   1.929  0.2163  0.0335  1.2054
 1130SOL    HW3 4519   3.375   4.646   1.804  0.0598 -1.9078 -0.0584
 1130SOL    MW4 4520   3.388   4.642   1.890 -0.1229 -0.5817  0.0537
 1131SOL     OW 4521   3.136   0.126   1.924  0.0239  0.2871  0.1614
 1131SOL    HW2 4522   3.108   0.144   2.014  0.6528  1.6718  0.0970
 1131SOL    HW3 4523   3.217   0.076   1.935 -0.8142 -1.0485  0.3520
 1131SOL    MW4 4524   3.143   0.122   1.938 -0.0037  0.2936  0.1781
 1132SOL     OW 4525   3.189   0.387   1.851 -0.0303  0.2641  0.3013
 1132SOL    HW2 4526   3.172   0.300   1.887 -0.1029  0.7698  1.5150
 1132SOL    HW3 4527   3.187   0.375   1.757  1.2400 -1.2961  0.4671
 1132SOL    MW4 4528   3.186   0.374   1.844  0.1277  0.1249  0.4833
 1133SOL     OW 4529   3.386   0.497   1.986 -0.2567  0.0931  0.1076
 1133SOL    HW2 4530   3.465   0.457   1.950 -0.1980 -1.0008  1.4577
 1133SOL    HW3 4531   3.315   0.461   1.933  0.0649  0.4651 -0.5854
 1133SOL    MW4 4532   3.387   0.487   1.974 -0.2065 -0.0022  0.1943
 1134SOL     OW 4533   3.377   0.754   1.855  0.2720  0.2851 -0.3102
 1134SOL    HW2 4534   3.304   0.807   1.887 -0.3300 -0.0876 -1.0545
 1134SOL    HW3 4535   3.370   0.672   1.903 -0.3572 -0.1017 -1.0611
 1134SOL    MW4 4536   3.366   0.750   1.866  0.1096  0.1849 -0.5075
 1135SOL     OW 4537   3.142   0.887   1.973 -0.3183  0.3144  0.5562
 1135SOL    HW2 4538   3.156   0.865   2.066 -0.5398  0.4633  0.6252
 1135SOL    HW3 4539   3.146   0.983   1.971  1.8588  0.2412  0.0621
 1135SOL    MW4 4540   3.144   0.897   1.985 -0.0603  0.3244  0.5001
 1136SOL     OW 4541   3.193   1.146   1.935 -0.5291 -0.4291 -0.1061
 1136SOL    HW2 4542   3.269   1.201   1.956 -0.0251 -1.0870 -0.1817
 1136SOL    HW3 4543   3.123   1.179   1.992 -0.3729  0.6063 -0.5067
 1136SOL    MW4 4544   3.194   1.157   1.945 -0.4420 -0.3793 -0.1689
 1137SOL     OW 4545   3.423   1.284   1.981 -0.3404 -0.6050 -0.4394
 1137SOL    HW2 4546   3.412   1.306   2.074 -0.4024  0.3603 -0.6663
 1137SOL    HW3 4547   3.405   1.367   1.935  2.3037 -0.4095 -1.1604
 1137SOL    MW4 4548   3.419   1.298   1.987  0.0003 -0.4519 -0.5645
 1138SOL     OW 4549   3.342   1.544   1.868 -0.1365  0.2167  0.0824
 1138SOL    HW2 4550   3.418   1.584   1.910 -0.3091 -0.2164  0.8186
 1138SOL    HW3 4551   3.267   1.589   1.907 -0.2710  0.4570 -0.4458
 1138SOL    MW4 4552   3.342   1.555   1.879 -0.1770  0.1913  0.1098
 1139SOL     OW 4553   3.121   1.669   1.967 -0.1082 -0.5245  0.1107
 1139SOL    HW2 4554   3.133   1.683   2.061  3.3831  0.4260 -0.4027
 1139SOL    HW3 4555   3.124   1.757   1.929 -1.2684 -0.9184 -0.9214
 1139SOL    MW4 4556   3.123   1.682   1.975  0.1994 -0.4510 -0.0932
 1140SOL     OW 4557   3.138   1.935   1.844 -0.0565  0.2935  0.2335
 1140SOL    HW2 4558   3.220   1.973   1.875 -0.9179  1.2827  1.3572
 1140SOL    HW3 4559   3.141   1.945   1.749  0.8343  0.9195  0.3245
 1140SOL    MW4 4560   3.149   1.941   1.836 -0.0526  0.5066  0.3938
 1141SOL     OW 4561   3.389   2.074   1.973  0.2154  0.0196  0.1653
 1141SOL    HW2 4562   3.460   2.019   1.938  1.9183  0.6003  2.6364
 1141SOL    HW3 4563   3.392   2.154   1.920  0.0859 -0.7626 -1.0431
 1141SOL    MW4 4564   3.398   2.077   1.961  0.4230 -0.0069  0.3319
 1142SOL     OW 4565   3.397   2.297   1.808 -0.2287  0.0003  0.0019
 1142SOL    HW2 4566   3.319   2.338   1.845 -0.5004 -0.6042  0.1218
 1142SOL    HW3 4567   3.389   2.308   1.714 -0.1352  0.5055  0.0541
 1142SOL    MW4 4568   3.386   2.304   1.801 -0.2522 -0.0128  0.0246
 1143SOL     OW 4569   3.189   2.430   1.933 -0.0421 -0.3037  0.0705
 1143SOL    HW2 4570   3.179   2.424   2.028  1.5989  1.7342  0.4008
 1143SOL    HW3 4571   3.160   2.519   1.912 -0.0776 -0.6349 -1.3117
 1143SOL    MW4 4572   3.184   2.441   1.943  0.1697 -0.0785 -0.0682
 1144SOL     OW 4573   3.114   2.700   1.899  0.3603 -0.6550  0.2723
 1144SOL    HW2 4574   3.044   2.752   1.937  0.3482 -0.4057 -0.0837
 1144SOL    HW3 4575   3.093   2.697   1.805  1.2328  0.0540  0.0547
 1144SOL    MW4 4576   3.102   2.706   1.891  0.4738 -0.5286  0.1966
 1145SOL     OW 4577   3.367   2.819   1.954 -0.0804 -0.1063  0.0911
 1145SOL    HW2 4578   3.353   2.821   2.049 -1.7312  0.3260 -0.1572
 1145SOL    HW3 4579   3.292   2.772   1.919  0.3668  0.0012 -1.0422
 1145SOL    MW4 4580   3.355   2.813   1.962 -0.2392 -0.0351 -0.0912
 1146SOL     OW 4581   3.371   3.084   1.845  0.3589  0.0608 -0.3320
 1146SOL    HW2 4582   3.427   3.140   1.899 -0.0911 -0.4957  0.7165
 1146SOL    HW3 4583   3.375   2.998   1.887  1.0384 -0.7039 -1.9261
 1146SOL    MW4 4584   3.379   3.080   1.858  0.3892 -0.1135 -0.4040
 1147SOL     OW 4585   3.151   3.196   2.008  0.0887 -0.5101  0.3140
 1147SOL    HW2 4586   3.135   3.287   1.980 -0.0519 -0.2082  1.3374
 1147SOL    HW3 4587   3.212   3.161   1.944  1.8516  1.0060  1.1244
 1147SOL    MW4 4588   3.157   3.204   1.996  0.3027 -0.2702  0.5559
 1148SOL     OW 4589   3.124   3.471   1.911  0.4466  0.6511  0.0357
 1148SOL    HW2 4590   3.205   3.517   1.933  0.7298 -0.0705  0.5054
 1148SOL    HW3 4591   3.116   3.480   1.816  0.2561  2.0650  0.1717
 1148SOL    MW4 4592   3.133   3.479   1.901  0.4588  0.7425  0.1156
 1149SOL     OW 4593   3.358   3.625   1.971 -0.2244  0.0769  0.6639
 1149SOL    HW2 4594   3.431   3.575   1.936  0.8333  0.8605  1.6920
 1149SOL    HW3 4595   3.373   3.715   1.941 -1.4371  0.0260 -0.1450
 1149SOL    MW4 4596   3.370   3.630   1.962 -0.2449  0.1736  0.6928
 1150SOL     OW 4597   3.363   3.880   1.891 -0.1272  0.0533 -0.1587
 1150SOL    HW2 4598   3.288   3.938   1.905  0.7624  0.9853  0.8630
 1150SOL    HW3 4599   3.357   3.855   1.799 -2.2564 -0.6947  0.1630
 1150SOL    MW4 4600   3.352   3.885   1.881 -0.2907  0.0776  0.0186
 1151SOL     OW 4601   3.134   4.030   1.941 -0.1498  0.1509  0.1808
 1151SOL    HW2 4602   3.147   4.025   2.036  1.1212 -0.3979 -0.0118
 1151SOL    HW3 4603   3.066   3.965   1.923 -0.5022  0.3639  0.7361
 1151SOL    MW4 4604   3.127   4.020   1.951 -0.0286  0.1066  0.2286
 1152SOL     OW 4605   3.136   4.289   1.866 -0.2577 -0.3471 -0.1948
 1152SOL    HW2 4606   3.139   4.203   1.908  0.3039 -0.8760 -1.2986
 1152SOL    HW3 4607   3.065   4.335   1.911 -0.2805 -1.2288  0.6931
 1152SOL    MW4 4608   3.127   4.283   1.878 -0.1866 -0.5332 -0.2233
 1153SOL     OW 4609   3.348   4.409   2.000 -0.2945  0.3017  0.2415
 1153SOL    HW2 4610   3.429   4.370   1.970  0.8508  2.6496  0.1906
 1153SOL    HW3 4611   3.279   4.361   1.953  0.9555 -2.3444  0.9972
 1153SOL    MW4 4612   3.349   4.397   1.990  0.0215  0.2624  0.3345
 1154SOL     OW 4613   3.810   4.653   1.856 -0.1852 -0.7981 -0.1358
 1154SOL    HW2 4614   3.796   4.565   1.892 -0.4065 -0.6886  0.0461
 1154SOL    HW3 4615   3.735   4.704   1.888 -0.1767 -0.6016 -0.4271
 1154SOL    MW4 4616   3.798   4.648   1.865 -0.2133 -0.7578 -0.1503
 1155SOL     OW 4617   3.588   0.129   2.006 -0.0443 -0.4036 -0.0572
 1155SOL    HW2 4618   3.585   0.119   2.101  0.5971 -0.4195 -0.0333
 1155SOL    HW3 4619   3.509   0.084   1.975 -0.0836 -0.6933  0.4445
 1155SOL    MW4 4620   3.577   0.122   2.015  0.0352 -0.4439  0.0121
 1156SOL     OW 4621   3.641   0.376   1.904 -0.0638 -0.5440  0.2728
 1156SOL    HW2 4622   3.625   0.290   1.944 -0.4664 -0.6916 -0.2064
 1156SOL    HW3 4623   3.619   0.365   1.812 -1.1580  0.3532  0.4136
 1156SOL    MW4 4624   3.636   0.364   1.897 -0.2613 -0.4451  0.2281
 1157SOL     OW 4625   3.866   0.488   2.024  0.1713 -0.2753  0.2993
 1157SOL    HW2 4626   3.876   0.572   1.979  0.3906 -0.4792 -0.0350
 1157SOL    HW3 4627   3.788   0.450   1.985 -0.8000  0.4444  1.5233
 1157SOL    MW4 4628   3.857   0.494   2.013  0.0721 -0.2073  0.4167
 1158SOL     OW 4629   3.840   0.752   1.920 -0.0802 -0.4804 -0.0563
 1158SOL    HW2 4630   3.762   0.796   1.952  0.9339  1.3544 -0.0479
 1158SOL    HW3 4631   3.832   0.754   1.825  0.0477 -0.1255 -0.0594
 1158SOL    MW4 4632   3.829   0.758   1.912  0.0705 -0.1915 -0.0556
 1159SOL     OW 4633   3.597   0.892   1.983 -0.5874 -0.0550 -0.0359
 1159SOL    HW2 4634   3.613   0.975   1.938 -0.8781  0.1055  0.1585
 1159SOL    HW3 4635   3.523   0.853   1.937  0.2186 -0.7050 -0.8050
 1159SOL    MW4 4636   3.590   0.898   1.971 -0.5194 -0.1195 -0.1118
 1160SOL     OW 4637   3.635   1.142   1.871 -0.2853 -0.2724 -0.1388
 1160SOL    HW2 4638   3.562   1.185   1.915  1.0529  2.6677 -0.6610
 1160SOL    HW3 4639   3.622   1.160   1.778  0.6916 -0.4032 -0.3058
 1160SOL    MW4 4640   3.624   1.150   1.865  0.0201  0.0982 -0.2298
 1161SOL     OW 4641   3.815   1.291   2.018  0.4099  0.3699  0.3080
 1161SOL    HW2 4642   3.810   1.278   2.112 -0.6005  0.5665  0.2824
 1161SOL    HW3 4643   3.743   1.239   1.982 -0.5253  1.9548 -0.1753
 1161SOL    MW4 4644   3.805   1.282   2.026  0.1532  0.6050  0.2409
 1162SOL     OW 4645   3.816   1.524   1.873  0.3955 -0.9271 -0.1752
 1162SOL    HW2 4646   3.895   1.575   1.891 -0.3631  0.2102 -0.0056
 1162SOL    HW3 4647   3.820   1.451   1.934  1.2453 -0.8017 -0.0726
 1162SOL    MW4 4648   3.827   1.521   1.883  0.4076 -0.7605 -0.1393
 1163SOL     OW 4649   3.576   1.632   1.943 -0.0724  0.3386  0.5418
 1163SOL    HW2 4650   3.576   1.727   1.929  0.0390  0.1535 -0.7409
 1163SOL    HW3 4651   3.660   1.603   1.907 -0.5308 -0.3699  0.0403
 1163SOL    MW4 4652   3.587   1.641   1.937 -0.1182  0.2207  0.3064
 1164SOL     OW 4653   3.596   1.923   1.871  0.0254 -0.7050 -0.5245
 1164SOL    HW2 4654   3.653   1.986   1.916 -1.4232 -0.3221  0.8234
 1164SOL    HW3 4655   3.605   1.945   1.779  1.8638 -0.4878 -0.3194
 1164SOL    MW4 4656   3.605   1.934   1.865  0.0768 -0.6258 -0.3196
 1165SOL     OW 4657   3.787   2.061   1.992 -0.1434 -0.0480 -0.1774
 1165SOL    HW2 4658   3.862   2.014   1.955 -0.4301 -0.0869 -0.7164
 1165SOL    HW3 4659   3.793   2.149   1.954  1.2414  0.8238  1.9787
 1165SOL    MW4 4660   3.798   2.067   1.982  0.0015  0.0619  0.0360
 1166SOL     OW 4661   3.798   2.328   1.926 -0.6023  0.2582 -0.0253
 1166SOL    HW2 4662   3.865   2.387   1.961  0.2658  0.0429 -1.2854
 1166SOL    HW3 4663   3.716   2.360   1.964  0.0107  1.5209  0.2838
 1166SOL    MW4 4664   3.796   2.340   1.936 -0.4069  0.3964 -0.1507
 1167SOL     OW 4665   3.573   2.444   2.011  0.1763 -0.1961  0.3939
 1167SOL    HW2 4666   3.594   2.532   1.978  0.3799 -0.1098  0.7528
 1167SOL    HW3 4667   3.513   2.408   1.945  0.4429  0.0427  0.0157
 1167SOL    MW4 4668   3.568   2.451   1.998  0.2383 -0.1532  0.3914
 1168SOL     OW 4669   3.607   2.684   1.892 -0.1669  0.2023  0.5095
 1168SOL    HW2 4670   3.684   2.733   1.921  0.1840 -0.1833  0.2391
 1168SOL    HW3 4671   3.533   2.740   1.914  0.2882  1.3085 -0.7626
 1168SOL    MW4 4672   3.608   2.698   1.899 -0.0606  0.2974  0.3060
 1169SOL     OW 4673   3.847   2.834   1.986 -0.3705 -0.2573  0.0478
 1169SOL    HW2 4674   3.818   2.836   2.077  0.9051  1.0157  0.4489
 1169SOL    HW3 4675   3.832   2.922   1.953  3.0104  0.5029  0.3136
 1169SOL    MW4 4676   3.841   2.846   1.993  0.2439  0.0109  0.1358
 1170SOL     OW 4677   3.808   3.096   1.876  0.2675  0.2909 -0.2887
 1170SOL    HW2 4678   3.734   3.144   1.914 -0.4152 -0.4667 -0.6386
 1170SOL    HW3 4679   3.796   3.104   1.781  0.7384  0.3152 -0.3489
 1170SOL    MW4 4680   3.797   3.103   1.868  0.2395  0.1941 -0.3428
 1171SOL     OW 4681   3.583   3.211   1.972  0.1888  0.3153  0.1269
 1171SOL    HW2 4682   3.566   3.205   2.066  0.9084 -0.0622  0.2390
 1171SOL    HW3 4683   3.595   3.304   1.955  0.3953  0.3500  0.4684
 1171SOL    MW4 4684   3.582   3.223   1.982  0.3110  0.2701  0.1868
 1172SOL     OW 4685   3.579   3.476   1.900 -0.3113  0.0453 -0.0996
 1172SOL    HW2 4686   3.653   3.533   1.922  0.6222 -1.1838 -0.0143
 1172SOL    HW3 4687   3.581   3.471   1.804 -0.4885  0.2567 -0.1170
 1172SOL    MW4 4688   3.589   3.483   1.890 -0.2116 -0.0889 -0.0907
 1173SOL     OW 4689   3.791   3.630   1.968 -0.3034  0.1861  0.2204
 1173SOL    HW2 4690   3.872   3.590   1.936 -0.0025  0.6953  0.3451
 1173SOL    HW3 4691   3.802   3.724   1.951 -0.5964  0.3327  0.8084
 1173SOL    MW4 4692   3.803   3.637   1.962 -0.3023  0.2726  0.3144
 1174SOL     OW 4693   3.842   3.903   1.886 -0.2632 -0.3312  0.1158
 1174SOL    HW2 4694   3.758   3.948   1.889 -0.9994 -1.7074  0.9150
 1174SOL    HW3 4695   3.846   3.866   1.797 -0.5447 -0.3506  0.1121
 1174SOL    MW4 4696   3.831   3.904   1.875 -0.3975 -0.5153  0.2208
 1175SOL     OW 4697   3.592   4.026   1.940  0.0187  0.3967  0.0226
 1175SOL    HW2 4698   3.586   4.017   2.035  1.9732 -0.2714  0.1065
 1175SOL    HW3 4699   3.516   3.979   1.906  0.4611 -1.2009  1.1761
 1175SOL    MW4 4700   3.581   4.019   1.948  0.3349  0.0977  0.1859
 1176SOL     OW 4701   3.561   4.289   1.875 -0.5099 -0.1102 -0.2869
 1176SOL    HW2 4702   3.647   4.330   1.878 -0.7328  0.3880 -0.5825
 1176SOL    HW3 4703   3.577   4.197   1.896  0.1646 -0.1303 -0.8545
 1176SOL    MW4 4704   3.574   4.282   1.878 -0.4503 -0.0471 -0.4008
 1177SOL     OW 4705   3.799   4.406   1.955 -1.0635  0.1238 -0.0550
 1177SOL    HW2 4706   3.800   4.393   2.050 -0.7790  0.9844  0.0716
 1177SOL    HW3 4707   3.860   4.341   1.921 -0.3900  0.4757  0.4542
 1177SOL    MW4 4708   3.807   4.396   1.963 -0.9371  0.2837  0.0289
 1178SOL     OW 4709   4.257   4.651   1.911 -0.0596 -0.3763  0.1856
 1178SOL    HW2 4710   4.185   4.701   1.951  0.1011  0.2581 -0.3067
 1178SOL    HW3 4711   4.335   4.704   1.926  0.0876 -0.3924 -0.4857
 1178SOL    MW4 4712   4.257   4.665   1.918 -0.0190 -0.2947  0.0321
 1179SOL     OW 4713   4.008   0.103   1.992  0.0131  0.1369 -0.0605
 1179SOL    HW2 4714   3.994   0.092   2.086 -0.7717 -0.7817 -0.2807
 1179SOL    HW3 4715   3.937   0.053   1.951  1.1061 -0.5511 -1.1552
 1179SOL    MW4 4716   3.997   0.095   1.999  0.0537 -0.0751 -0.2340
 1180SOL     OW 4717   4.064   0.339   1.891  0.1482  0.4061  0.1546
 1180SOL    HW2 4718   4.046   0.252   1.927  1.5127 -0.2042 -0.6040
 1180SOL    HW3 4719   4.003   0.397   1.936 -0.7865 -0.9497  0.6624
 1180SOL    MW4 4720   4.053   0.335   1.902  0.2049  0.1467  0.1215
 1181SOL     OW 4721   4.251   0.498   2.004 -0.3474  0.3753  0.2946
 1181SOL    HW2 4722   4.224   0.490   2.095 -0.7299 -1.6725  0.0297
 1181SOL    HW3 4723   4.197   0.433   1.957  0.3320  0.9135 -1.2707
 1181SOL    MW4 4724   4.240   0.488   2.010 -0.3083  0.1761  0.0531
 1182SOL     OW 4725   4.278   0.759   1.907  0.1583 -0.0760 -0.3990
 1182SOL    HW2 4726   4.263   0.672   1.943 -0.4421 -0.6123 -1.8965
 1182SOL    HW3 4727   4.282   0.745   1.812 -0.5394  1.6081 -0.6930
 1182SOL    MW4 4728   4.276   0.746   1.899 -0.0130  0.0754 -0.6353
 1183SOL     OW 4729   4.043   0.944   1.964  0.7306  0.4139  0.0544
 1183SOL    HW2 4730   4.119   0.900   1.927  1.0650  0.1787  1.0090
 1183SOL    HW3 4731   3.975   0.877   1.966  1.6633 -0.5037  2.8536
 1183SOL    MW4 4732   4.044   0.929   1.959  0.8978  0.2618  0.5497
 1184SOL     OW 4733   4.053   1.197   1.897 -0.4575 -0.3450  0.4331
 1184SOL    HW2 4734   4.049   1.106   1.928  0.1355 -1.0217 -1.4120
 1184SOL    HW3 4735   3.972   1.236   1.929 -0.8167 -1.5768  1.0910
 1184SOL    MW4 4736   4.042   1.190   1.906 -0.4267 -0.5968  0.2764
 1185SOL     OW 4737   4.301   1.293   1.992 -0.3079  0.2901 -0.6008
 1185SOL    HW2 4738   4.291   1.273   2.085  0.3711  1.4100 -0.2771
 1185SOL    HW3 4739   4.217   1.267   1.953  0.3034 -2.5347 -0.1365
 1185SOL    MW4 4740   4.288   1.287   1.999 -0.1377  0.0652 -0.4968
 1186SOL     OW 4741   4.316   1.551   1.919 -0.5972 -0.1912  0.1972
 1186SOL    HW2 4742   4.315   1.459   1.946 -1.2263 -0.1307  0.3889
 1186SOL    HW3 4743   4.302   1.548   1.824 -0.9779 -0.2811  0.2529
 1186SOL    MW4 4744   4.314   1.538   1.910 -0.7304 -0.1951  0.2298
 1187SOL     OW 4745   4.043   1.681   1.974  0.0538  0.1884  0.0495
 1187SOL    HW2 4746   4.043   1.667   2.069  0.5659  2.3343  0.3908
 1187SOL    HW3 4747   4.127   1.646   1.945  0.1354  0.0284  0.4762
 1187SOL    MW4 4748   4.054   1.675   1.983  0.1321  0.4504  0.1509
 1188SOL     OW 4749   4.022   1.941   1.874 -0.2047 -0.1427 -0.3630
 1188SOL    HW2 4750   4.050   1.858   1.913 -1.4069 -0.4529 -0.1377
 1188SOL    HW3 4751   4.023   1.925   1.780  0.7536 -0.0194 -0.3812
 1188SOL    MW4 4752   4.026   1.928   1.867 -0.2369 -0.1674 -0.3357
 1189SOL     OW 4753   4.242   2.096   1.937 -0.0392 -0.2402 -0.1827
 1189SOL    HW2 4754   4.251   2.069   2.028 -1.9980  0.2849  0.1971
 1189SOL    HW3 4755   4.157   2.060   1.909  0.2420  0.1390 -1.5939
 1189SOL    MW4 4756   4.232   2.088   1.945 -0.2605 -0.1209 -0.3187
 1190SOL     OW 4757   4.248   2.357   1.859 -0.0045  0.3276 -0.4901
 1190SOL    HW2 4758   4.243   2.263   1.880 -1.9733  0.4959 -0.1533
 1190SOL    HW3 4759   4.329   2.386   1.902  1.1870 -1.4175 -1.4672
 1190SOL    MW4 4760   4.258   2.348   1.867 -0.1070  0.1195 -0.5746
 1191SOL     OW 4761   4.044   2.474   2.005  0.1344 -0.1307 -0.2024
 1191SOL    HW2 4762   4.072   2.465   2.096 -1.2538 -2.5252  0.0147
 1191SOL    HW3 4763   4.114   2.434   1.954 -0.0973 -0.7293 -0.0499
 1191SOL    MW4 4764   4.057   2.468   2.010 -0.0793 -0.5256 -0.1536
 1192SOL     OW 4765   4.082   2.717   1.883  0.3343  0.3451 -0.3536
 1192SOL    HW2 4766   4.075   2.636   1.935 -1.0157  0.6296 -0.0610
 1192SOL    HW3 4767   3.995   2.757   1.891 -0.0548  0.1514 -3.2552
 1192SOL    MW4 4768   4.070   2.712   1.891  0.1049  0.3571 -0.6978
 1193SOL     OW 4769   4.295   2.857   1.947  0.4097  0.5809 -0.4898
 1193SOL    HW2 4770   4.283   2.857   2.042 -1.5224 -0.8292 -0.7152
 1193SOL    HW3 4771   4.218   2.812   1.912  0.9165  1.3695 -2.7568
 1193SOL    MW4 4772   4.283   2.851   1.955  0.2217  0.4989 -0.8186
 1194SOL     OW 4773   4.286   3.123   1.893 -0.1981  0.1810 -0.2478
 1194SOL    HW2 4774   4.198   3.150   1.918 -0.2575  0.7805 -1.0913
 1194SOL    HW3 4775   4.290   3.030   1.918 -0.8244  0.3289  0.4296
 1194SOL    MW4 4776   4.275   3.114   1.899 -0.2886  0.2796 -0.2697
 1195SOL     OW 4777   4.035   3.237   1.940  0.9378 -0.2320  0.0588
 1195SOL    HW2 4778   4.026   3.239   2.036  1.0391 -0.4782  0.0737
 1195SOL    HW3 4779   3.971   3.172   1.912  0.5123  0.2479 -0.0883
 1195SOL    MW4 4780   4.026   3.229   1.949  0.8951 -0.2012  0.0414
 1196SOL     OW 4781   4.046   3.525   1.891  0.0825  0.2008  0.1647
 1196SOL    HW2 4782   4.119   3.571   1.934 -0.3860  1.1110  0.0009
 1196SOL    HW3 4783   4.053   3.435   1.923  1.1306  0.3338  0.3494
 1196SOL    MW4 4784   4.057   3.519   1.901  0.1590  0.3384  0.1675
 1197SOL     OW 4785   4.279   3.642   2.003  0.1104  0.2842  0.0380
 1197SOL    HW2 4786   4.284   3.732   1.972  0.3714  1.4320  3.2075
 1197SOL    HW3 4787   4.367   3.606   1.989  0.8342  1.4826  1.4917
 1197SOL    MW4 4788   4.291   3.649   1.997  0.2403  0.5937  0.6480
 1198SOL     OW 4789   4.251   3.914   1.899  0.2820  0.1655  0.6617
 1198SOL    HW2 4790   4.334   3.955   1.924  0.4696  0.4803 -0.4512
 1198SOL    HW3 4791   4.263   3.888   1.808 -0.9583  0.5343  0.3721
 1198SOL    MW4 4792   4.263   3.916   1.890  0.1431  0.2557  0.4766
 1199SOL     OW 4793   4.042   4.039   2.027  0.4126 -0.0985  0.3967
 1199SOL    HW2 4794   4.127   4.014   1.989 -0.7143  0.2603 -2.4762
 1199SOL    HW3 4795   3.979   3.980   1.985 -1.0374  1.1276  0.8109
 1199SOL    MW4 4796   4.045   4.028   2.016  0.0726  0.1106  0.0723
 1200SOL     OW 4797   4.024   4.263   1.862 -0.3101 -0.1669 -0.3319
 1200SOL    HW2 4798   4.103   4.304   1.896  1.4059 -2.0326 -1.9307
 1200SOL    HW3 4799   4.008   4.189   1.921  0.2123 -0.8904 -1.0964
 1200SOL    MW4 4800   4.032   4.259   1.875 -0.0148 -0.5085 -0.6437
 1201SOL     OW 4801   4.253   4.369   1.978 -0.2283 -0.0581  0.1939
 1201SOL    HW2 4802   4.247   4.387   2.072  3.3447 -0.2237  0.4969
 1201SOL    HW3 4803   4.254   4.455   1.938  0.1048  0.0573  0.4445
 1201SOL    MW4 4804   4.252   4.382   1.985  0.2870 -0.0647  0.2670
 1202SOL     OW 4805   0.207   4.649   2.388 -0.0531  0.1185 -0.1059
 1202SOL    HW2 4806   0.207   4.631   2.482 -0.0035  1.3901  0.1486
 1202SOL    HW3 4807   0.288   4.697   2.373 -0.4635  0.6358 -0.6607
 1202SOL    MW4 4808   0.218   4.653   2.399 -0.1007  0.3545 -0.1455
 1203SOL     OW 4809   4.480   0.154   2.267 -0.3911 -0.0511 -0.0518
 1203SOL    HW2 4810   4.536   0.090   2.310 -1.7137  0.2438  2.2009
 1203SOL    HW3 4811   4.492   0.138   2.174  0.1911 -2.7913  0.4608
 1203SOL    MW4 4812   4.489   0.143   2.261 -0.4888 -0.3738  0.3130
 1204SOL     OW 4813   0.004   0.410   2.355  0.1429  0.9481 -0.3895
 1204SOL    HW2 4814   0.097   0.433   2.348  0.3239  0.5596  0.5827
 1204SOL    HW3 4815  -0.005   0.329   2.306  0.6090  0.2499  0.6552
 1204SOL    MW4 4816   0.015   0.402   2.348  0.2283  0.8047 -0.1234
 1205SOL     OW 4817   0.255   0.520   2.307  0.1001  0.2892 -0.6332
 1205SOL    HW2 4818   0.336   0.470   2.323 -0.6535 -0.6501  0.4134
 1205SOL    HW3 4819   0.240   0.512   2.213  1.7866  1.3740 -1.0203
 1205SOL    MW4 4820   0.264   0.512   2.297  0.2232  0.3084 -0.5462
 1206SOL     OW 4821   0.270   0.779   2.367 -0.1163  0.4590  0.0503
 1206SOL    HW2 4822   0.282   0.770   2.461  0.4631 -0.3981 -0.0931
 1206SOL    HW3 4823   0.277   0.690   2.333  2.5091  1.0393 -1.1063
 1206SOL    MW4 4824   0.273   0.766   2.375  0.3065  0.4224 -0.1212
 1207SOL     OW 4825   0.017   0.884   2.309  0.1114 -0.4736 -0.1352
 1207SOL    HW2 4826   0.097   0.841   2.339 -0.3775 -0.7846  0.7507
 1207SOL    HW3 4827   0.015   0.870   2.214  1.9502  0.9617 -0.4162
 1207SOL    MW4 4828   0.027   0.877   2.300  0.2895 -0.3253 -0.0554
 1208SOL     OW 4829   0.024   1.147   2.396  0.1627 -0.3627  0.2613
 1208SOL    HW2 4830   0.003   1.135   2.488 -1.6320 -1.6223 -0.2692
 1208SOL    HW3 4831   0.019   1.058   2.359 -0.4571  0.3083 -1.2961
 1208SOL    MW4 4832   0.021   1.133   2.403 -0.1559 -0.4404 -0.0142
 1209SOL     OW 4833   0.241   1.287   2.297  0.1714 -0.2622  0.1112
 1209SOL    HW2 4834   0.160   1.238   2.311  0.1791 -0.7623 -1.4812
 1209SOL    HW3 4835   0.246   1.298   2.202  0.7599  1.8421  0.3508
 1209SOL    MW4 4836   0.231   1.282   2.286  0.2501 -0.0505 -0.0673
 1210SOL     OW 4837   0.276   1.546   2.393 -0.2156  0.2172 -0.1971
 1210SOL    HW2 4838   0.284   1.536   2.488 -0.9267 -0.8338 -0.2334
 1210SOL    HW3 4839   0.259   1.457   2.361 -0.9082  0.7014 -1.2096
 1210SOL    MW4 4840   0.275   1.533   2.401 -0.4008  0.1424 -0.3355
 1211SOL     OW 4841   0.003   1.673   2.327 -0.5162 -0.5864 -0.3884
 1211SOL    HW2 4842   0.010   1.762   2.361 -0.1118 -0.1598 -1.5413
 1211SOL    HW3 4843   0.087   1.633   2.348 -0.9729 -0.9414  0.7871
 1211SOL    MW4 4844   0.015   1.680   2.334 -0.5231 -0.5770 -0.3854
 1212SOL     OW 4845   0.029   1.925   2.387  0.1398  0.1031  0.1510
 1212SOL    HW2 4846  -0.043   1.960   2.334  0.1771  0.2982  0.2300
 1212SOL    HW3 4847   0.097   1.992   2.382 -0.5289  0.9301  1.8958
 1212SOL    MW4 4848   0.028   1.939   2.379  0.0565  0.2380  0.3916
 1213SOL     OW 4849   0.250   2.100   2.297 -0.2514  0.3380  0.4407
 1213SOL    HW2 4850   0.317   2.037   2.324 -0.8840 -0.4739  0.1548
 1213SOL    HW3 4851   0.263   2.108   2.202  0.3854  1.3047  0.6060
 1213SOL    MW4 4852   0.261   2.093   2.288 -0.2509  0.3584  0.4248
 1214SOL     OW 4853   0.212   2.367   2.365  0.3185  0.6034  0.2511
 1214SOL    HW2 4854   0.215   2.368   2.461  0.9760  0.8809  0.2319
 1214SOL    HW3 4855   0.216   2.274   2.342  1.2998  0.5918  0.4628
 1214SOL    MW4 4856   0.213   2.355   2.375  0.5347  0.6385  0.2765
 1215SOL     OW 4857   4.481   2.505   2.262 -0.0681 -0.3482 -0.6684
 1215SOL    HW2 4858   4.485   2.600   2.271 -0.9892 -0.4384  0.8959
 1215SOL    HW3 4859   4.565   2.474   2.296  0.7373 -0.0424 -2.3143
 1215SOL    MW4 4860   4.493   2.513   2.268 -0.0833 -0.3197 -0.6792
 1216SOL     OW 4861   4.462   2.789   2.335  0.5903  0.6693 -0.0783
 1216SOL    HW2 4862   4.492   2.753   2.418  0.4214 -1.3192 -0.8359
 1216SOL    HW3 4863   4.540   2.830   2.297  0.8250  1.0137  0.7732
 1216SOL    MW4 4864   4.476   2.789   2.341  0.5990  0.4524 -0.0659
 1217SOL     OW 4865   0.233   2.867   2.259  0.3934 -0.6369  0.3378
 1217SOL    HW2 4866   0.281   2.793   2.298 -0.3192 -1.1372  0.2646
 1217SOL    HW3 4867   0.234   2.850   2.165  0.1450 -0.6005  0.3277
 1217SOL    MW4 4868   0.240   2.855   2.252  0.2666 -0.6981  0.3268
 1218SOL     OW 4869   0.258   3.113   2.374 -0.3091 -0.1575  0.7096
 1218SOL    HW2 4870   0.185   3.157   2.331 -0.0573  0.0550  0.4979
 1218SOL    HW3 4871   0.258   3.025   2.337  0.8241  0.4751 -0.8316
 1218SOL    MW4 4872   0.248   3.107   2.363 -0.1263 -0.0460  0.4784
 1219SOL     OW 4873   0.007   3.212   2.269 -0.2898  0.2650 -0.1417
 1219SOL    HW2 4874   0.020   3.299   2.306  1.8107  0.2692 -0.8250
 1219SOL    HW3 4875  -0.004   3.228   2.175  0.6626 -0.2441 -0.3434
 1219SOL    MW4 4876   0.007   3.226   2.261  0.1130  0.1984 -0.2584
 1220SOL     OW 4877   0.016   3.471   2.370  0.3205 -0.2105  0.3240
 1220SOL    HW2 4878   0.014   3.483   2.464  0.4867  0.5400  0.2362
 1220SOL    HW3 4879  -0.073   3.491   2.340  0.5569  0.6779  0.1957
 1220SOL    MW4 4880   0.004   3.476   2.378  0.3736  0.0058  0.2955
 1221SOL     OW 4881   0.237   3.605   2.272 -0.2357  0.6620 -0.3619
 1221SOL    HW2 4882   0.306   3.547   2.305 -1.1731 -1.1456 -1.5152
 1221SOL    HW3 4883   0.157   3.572   2.312 -1.0046  0.1147 -2.2894
 1221SOL    MW4 4884   0.236   3.593   2.282 -0.4609  0.3513 -0.7684
 1222SOL     OW 4885   0.234   3.851   2.357 -0.0023  0.0843 -0.1565
 1222SOL    HW2 4886   0.150   3.881   2.323  0.2188  0.7782 -0.0941
 1222SOL    HW3 4887   0.240   3.759   2.331 -0.3358  0.3112 -1.0160
 1222SOL    MW4 4888   0.224   3.843   2.349 -0.0171  0.2058 -0.2616
 1223SOL     OW 4889   0.003   4.010   2.258  0.3391  0.2850  0.8146
 1223SOL    HW2 4890   0.014   4.101   2.284  0.8372  0.5465 -0.2774
 1223SOL    HW3 4891   0.002   4.012   2.162  0.3030 -0.8500  0.7813
 1223SOL    MW4 4892   0.004   4.022   2.248  0.4001  0.1698  0.6661
 1224SOL     OW 4893   4.466   4.276   2.358 -0.5399 -0.5067 -0.1521
 1224SOL    HW2 4894   4.468   4.289   2.453 -2.6833 -2.1202  0.1554
 1224SOL    HW3 4895   4.545   4.320   2.326  0.0235  0.3722  2.3293
 1224SOL    MW4 4896   4.477   4.284   2.366 -0.7483 -0.6036  0.2159
 1225SOL     OW 4897   0.211   4.399   2.265 -0.0094  0.2099  0.3367
 1225SOL    HW2 4898   0.288   4.358   2.305  0.1150  0.6876  0.5944
 1225SOL    HW3 4899   0.211   4.488   2.301 -2.1481 -0.5676  2.4014
 1225SOL    MW4 4900   0.221   4.406   2.275 -0.2752  0.1703  0.6431
 1226SOL     OW 4901   0.647   4.650   2.383 -0.6549  0.1805 -0.0491
 1226SOL    HW2 4902   0.661   4.645   2.478 -0.9227  0.8284  0.0263
 1226SOL    HW3 4903   0.732   4.676   2.348  0.1731 -2.6436 -0.2457
 1226SOL    MW4 4904   0.660   4.652   2.391 -0.5810 -0.1066 -0.0651
 1227SOL     OW 4905   0.438   0.115   2.271  0.2967 -0.1832  0.1050
 1227SOL    HW2 4906   0.509   0.072   2.319  0.4987 -1.8761 -1.6546
 1227SOL    HW3 4907   0.465   0.110   2.180 -1.4899  0.3318 -0.4610
 1227SOL    MW4 4908   0.451   0.108   2.266  0.0876 -0.3386 -0.2019
 1228SOL     OW 4909   0.476   0.367   2.377  0.3036  0.4545  0.2529
 1228SOL    HW2 4910   0.480   0.353   2.472 -1.3407  1.2870  0.4518
 1228SOL    HW3 4911   0.455   0.281   2.340  0.5801  0.2101  0.6628
 1228SOL    MW4 4912   0.474   0.354   2.385  0.1231  0.5321  0.3332
 1229SOL     OW 4913   0.682   0.506   2.268  0.1249 -0.1256 -0.1844
 1229SOL    HW2 4914   0.687   0.596   2.299 -0.1577  0.2073 -1.0905
 1229SOL    HW3 4915   0.603   0.470   2.308 -0.0156  0.1717 -0.1978
 1229SOL    MW4 4916   0.673   0.513   2.277  0.0691 -0.0424 -0.3057
 1230SOL     OW 4917   0.712   0.768   2.360  0.3824  0.4544  0.0055
 1230SOL    HW2 4918   0.711   0.744   2.452  0.1877 -1.2240 -0.4209
 1230SOL    HW3 4919   0.647   0.838   2.353 -0.7917 -0.5342  0.8473
 1230SOL    MW4 4920   0.703   0.774   2.371  0.2018  0.1025  0.0603
 1231SOL     OW 4921   0.483   0.921   2.287  0.4082  0.1662 -0.2982
 1231SOL    HW2 4922   0.400   0.875   2.295  1.1440 -1.1560 -0.1945
 1231SOL    HW3 4923   0.510   0.907   2.196  1.1204 -0.4681  0.0024
 1231SOL    MW4 4924   0.476   0.913   2.276  0.5992 -0.0919 -0.2449
 1232SOL     OW 4925   0.452   1.161   2.430 -0.2828 -0.2318  0.4180
 1232SOL    HW2 4926   0.450   1.073   2.393 -2.6733 -0.0423  0.0338
 1232SOL    HW3 4927   0.373   1.203   2.396  0.3278  1.7405  1.3771
 1232SOL    MW4 4928   0.441   1.155   2.421 -0.5176  0.0534  0.4939
 1233SOL     OW 4929   0.664   1.275   2.307  0.0677 -0.1342 -0.1529
 1233SOL    HW2 4930   0.656   1.365   2.339  0.2682 -0.7642  1.7281
 1233SOL    HW3 4931   0.594   1.227   2.352  2.3490 -1.7180  1.8552
 1233SOL    MW4 4932   0.653   1.280   2.318  0.3951 -0.4263  0.3602
 1234SOL     OW 4933   0.714   1.559   2.373  0.3329  0.1042 -0.0110
 1234SOL    HW2 4934   0.732   1.551   2.466  1.8375 -1.1596 -0.3732
 1234SOL    HW3 4935   0.793   1.600   2.337  0.2123 -0.4055 -0.8737
 1234SOL    MW4 4936   0.727   1.563   2.380  0.5155 -0.1298 -0.1726
 1235SOL     OW 4937   0.486   1.668   2.251  0.4726 -0.2824 -0.0222
 1235SOL    HW2 4938   0.566   1.635   2.292  0.1293 -1.6039 -0.3877
 1235SOL    HW3 4939   0.415   1.633   2.304  0.0961  0.0146 -0.3217
 1235SOL    MW4 4940   0.487   1.659   2.263  0.3776 -0.4176 -0.1099
 1236SOL     OW 4941   0.471   1.936   2.381  0.6305  0.6208  0.2062
 1236SOL    HW2 4942   0.547   1.973   2.337  0.8141 -0.3202 -0.2613
 1236SOL    HW3 4943   0.459   1.850   2.342  0.1209  0.2289  1.2063
 1236SOL    MW4 4944   0.479   1.930   2.370  0.5875  0.4450  0.2765
 1237SOL     OW 4945   0.682   2.063   2.251 -0.2781  0.4200 -0.2831
 1237SOL    HW2 4946   0.765   2.030   2.285 -0.4077  1.4582  1.0522
 1237SOL    HW3 4947   0.670   2.148   2.293 -0.6941  1.5283 -2.5255
 1237SOL    MW4 4948   0.691   2.070   2.261 -0.3501  0.7032 -0.4028
 1238SOL     OW 4949   0.672   2.313   2.388 -0.0794  0.1643 -0.2702
 1238SOL    HW2 4950   0.673   2.305   2.483  1.3404  0.9552 -0.2060
 1238SOL    HW3 4951   0.744   2.373   2.368  1.2133 -1.8603 -2.0122
 1238SOL    MW4 4952   0.682   2.320   2.398  0.2785  0.0015 -0.4916
 1239SOL     OW 4953   0.466   2.443   2.265  0.2511 -0.3021 -0.0514
 1239SOL    HW2 4954   0.531   2.390   2.311 -0.1108  0.7712  1.7252
 1239SOL    HW3 4955   0.383   2.402   2.287 -0.0599  1.1886  1.6191
 1239SOL    MW4 4956   0.464   2.431   2.274  0.1623  0.0362  0.4034
 1240SOL     OW 4957   0.446   2.700   2.381 -0.0276  0.1057 -0.3288
 1240SOL    HW2 4958   0.458   2.694   2.476  2.2213 -0.1515 -0.6130
 1240SOL    HW3 4959   0.453   2.609   2.350  2.3944  0.5221 -1.0795
 1240SOL    MW4 4960   0.448   2.687   2.389  0.5887  0.1267 -0.4654
 1241SOL     OW 4961   0.644   2.850   2.234  0.0134 -0.2096  0.2605
 1241SOL    HW2 4962   0.731   2.819   2.260 -0.4476 -1.6578  0.1148
 1241SOL    HW3 4963   0.583   2.800   2.289 -0.7483  0.5481  0.1165
 1241SOL    MW4 4964   0.648   2.839   2.245 -0.1479 -0.3007  0.2223
 1242SOL     OW 4965   0.690   3.113   2.358 -0.1796  0.0838 -0.1575
 1242SOL    HW2 4966   0.634   3.173   2.308 -0.5944  0.6072  0.9224
 1242SOL    HW3 4967   0.669   3.026   2.322 -0.4977  0.4489 -0.8696
 1242SOL    MW4 4968   0.680   3.109   2.346 -0.2763  0.2010 -0.1090
 1243SOL     OW 4969   0.475   3.247   2.242 -0.2894  0.0117 -0.2671
 1243SOL    HW2 4970   0.411   3.201   2.298 -0.4947  0.3553 -0.2198
 1243SOL    HW3 4971   0.459   3.213   2.154 -0.9169  0.5153 -0.3471
 1243SOL    MW4 4972   0.465   3.236   2.238 -0.3993  0.1235 -0.2714
 1244SOL     OW 4973   0.477   3.490   2.378 -0.4274  0.3854 -0.1570
 1244SOL    HW2 4974   0.547   3.536   2.331 -0.7225 -1.0772 -2.0868
 1244SOL    HW3 4975   0.473   3.404   2.336 -1.8192 -0.3780  1.5000
 1244SOL    MW4 4976   0.486   3.484   2.366 -0.6499  0.0917 -0.1930
 1245SOL     OW 4977   0.700   3.651   2.281 -0.1635 -0.1739  0.2234
 1245SOL    HW2 4978   0.675   3.741   2.302 -0.7613  0.0650 -1.4366
 1245SOL    HW3 4979   0.711   3.651   2.186 -3.9998 -2.7698 -0.3053
 1245SOL    MW4 4980   0.698   3.663   2.271 -0.7486 -0.4849 -0.0654
 1246SOL     OW 4981   0.670   3.920   2.337 -0.0610 -0.2947 -0.4429
 1246SOL    HW2 4982   0.664   3.901   2.431  0.0861 -0.1044 -0.3952
 1246SOL    HW3 4983   0.581   3.946   2.313  0.0459  0.2973 -0.2151
 1246SOL    MW4 4984   0.657   3.921   2.347 -0.0275 -0.1915 -0.4065
 1247SOL     OW 4985   0.440   4.022   2.254 -0.2722 -0.0565  0.0700
 1247SOL    HW2 4986   0.363   3.971   2.277  1.8964 -3.3719  0.3594
 1247SOL    HW3 4987   0.439   4.027   2.159 -1.1065  0.3838  0.0970
 1247SOL    MW4 4988   0.430   4.016   2.245 -0.0961 -0.4358  0.1117
 1248SOL     OW 4989   0.432   4.289   2.377 -0.0150 -0.0107 -0.0704
 1248SOL    HW2 4990   0.508   4.328   2.334 -0.8185 -0.2063 -1.7005
 1248SOL    HW3 4991   0.426   4.201   2.340 -0.5950 -0.2584  0.5982
 1248SOL    MW4 4992   0.441   4.283   2.367 -0.1975 -0.0692 -0.1973
 1249SOL     OW 4993   0.656   4.378   2.275 -0.3359 -0.1982  0.5844
 1249SOL    HW2 4994   0.644   4.468   2.305 -0.1545 -0.6261  1.9673
 1249SOL    HW3 4995   0.660   4.385   2.179  0.6916  1.3903  0.7216
 1249SOL    MW4 4996   0.655   4.391   2.266 -0.1764 -0.0451  0.7849
 1250SOL     OW 4997   1.099   4.625   2.391  0.0305 -0.2751 -0.0741
 1250SOL    HW2 4998   1.104   4.632   2.487 -0.6651 -0.7514  0.0004
 1250SOL    HW3 4999   1.029   4.686   2.367  0.6365  0.3265 -0.3471
 1250SOL    MW4 5000   1.090   4.634   2.401  0.0187 -0.2586 -0.1003
 1251SOL     OW 5001   0.892   0.099   2.264 -0.2523 -0.4850 -0.1742
 1251SOL    HW2 5002   0.901   0.191   2.290 -0.1024 -0.3643 -0.6530
 1251SOL    HW3 5003   0.915   0.098   2.171 -0.5259 -0.9621 -0.2354
 1251SOL    MW4 5004   0.896   0.111   2.255 -0.2686 -0.5321 -0.2455
 1252SOL     OW 5005   0.911   0.362   2.366 -0.4401 -0.0289  0.2127
 1252SOL    HW2 5006   0.985   0.399   2.318 -0.3020 -0.3374  0.1843
 1252SOL    HW3 5007   0.836   0.417   2.342 -0.1943  0.3715  0.3522
 1252SOL    MW4 5008   0.911   0.374   2.357 -0.3894 -0.0167  0.2274
 1253SOL     OW 5009   1.127   0.496   2.270 -0.1413  0.0221  0.4399
 1253SOL    HW2 5010   1.201   0.441   2.294 -0.5799 -0.1932  1.2979
 1253SOL    HW3 5011   1.137   0.510   2.176  0.3794 -0.9089  0.3547
 1253SOL    MW4 5012   1.138   0.491   2.261 -0.1305 -0.1291  0.5419
 1254SOL     OW 5013   1.158   0.736   2.406  0.4591 -0.0885  0.4832
 1254SOL    HW2 5014   1.074   0.762   2.369 -0.0936 -0.3934  1.5202
 1254SOL    HW3 5015   1.174   0.649   2.370  0.3071 -0.0539  0.3293
 1254SOL    MW4 5016   1.149   0.728   2.397  0.3661 -0.1241  0.5997
 1255SOL     OW 5017   0.953   0.860   2.282 -0.3613 -0.0996  0.4331
 1255SOL    HW2 5018   0.955   0.949   2.318  0.3486  0.2974 -0.5697
 1255SOL    HW3 5019   0.871   0.823   2.313 -1.1517  1.2777 -0.0084
 1255SOL    MW4 5020   0.943   0.867   2.291 -0.3719  0.1345  0.2426
 1256SOL     OW 5021   0.902   1.143   2.376  0.0390 -0.1437 -0.2379
 1256SOL    HW2 5022   0.978   1.189   2.341 -0.7419  1.0000 -0.4536
 1256SOL    HW3 5023   0.826   1.189   2.339 -0.8022  0.5272  2.1933
 1256SOL    MW4 5024   0.902   1.155   2.367 -0.1750  0.0957  0.0544
 1257SOL     OW 5025   1.119   1.251   2.262 -0.0863 -0.2853 -0.2824
 1257SOL    HW2 5026   1.194   1.203   2.297  0.4251  1.3859  1.0208
 1257SOL    HW3 5027   1.138   1.260   2.169  1.0058 -0.5040 -0.0943
 1257SOL    MW4 5028   1.132   1.246   2.255  0.1252 -0.0937 -0.0856
 1258SOL     OW 5029   1.131   1.529   2.343  0.2088 -0.2967 -0.3608
 1258SOL    HW2 5030   1.050   1.567   2.309  0.9294  0.1114 -1.6420
 1258SOL    HW3 5031   1.118   1.435   2.336  0.2903 -0.2193 -1.6502
 1258SOL    MW4 5032   1.119   1.522   2.338  0.3147 -0.2326 -0.7000
 1259SOL     OW 5033   0.930   1.697   2.268  0.6320  0.0034 -0.3598
 1259SOL    HW2 5034   0.915   1.790   2.286 -1.0943 -0.1799 -0.8000
 1259SOL    HW3 5035   0.931   1.690   2.173 -1.2614 -0.7180 -0.3495
 1259SOL    MW4 5036   0.928   1.708   2.258  0.1545 -0.1159 -0.4165
 1260SOL     OW 5037   0.910   1.942   2.366 -0.4143 -0.2609 -0.0331
 1260SOL    HW2 5038   0.899   1.934   2.461 -1.8375 -0.5701 -0.2056
 1260SOL    HW3 5039   0.993   1.988   2.355 -0.5510  0.3578  1.3830
 1260SOL    MW4 5040   0.919   1.947   2.377 -0.6201 -0.2201  0.1310
 1261SOL     OW 5041   1.131   2.083   2.276  0.2771 -0.0020  0.4434
 1261SOL    HW2 5042   1.214   2.041   2.299 -0.1527 -2.0276 -1.5489
 1261SOL    HW3 5043   1.126   2.076   2.181 -1.3417  1.7462  0.3739
 1261SOL    MW4 5044   1.141   2.077   2.266  0.0068 -0.0386  0.1714
 1262SOL     OW 5045   1.130   2.349   2.336 -0.3467 -0.3217  0.0337
 1262SOL    HW2 5046   1.206   2.395   2.302 -0.6288 -0.2090 -0.4452
 1262SOL    HW3 5047   1.136   2.261   2.299  0.6887 -0.9550  1.6809
 1262SOL    MW4 5048   1.141   2.343   2.327 -0.2473 -0.3904  0.1879
 1263SOL     OW 5049   0.881   2.486   2.299  0.3052 -0.1403  0.0902
 1263SOL    HW2 5050   0.961   2.437   2.318  1.4502  1.4025 -0.5630
 1263SOL    HW3 5051   0.866   2.473   2.205  1.3163  1.6614 -0.3675
 1263SOL    MW4 5052   0.890   2.478   2.289  0.5896  0.3010 -0.0564
 1264SOL     OW 5053   0.888   2.761   2.359 -0.1680  0.2155  0.4696
 1264SOL    HW2 5054   0.901   2.750   2.453 -0.9004 -0.9498  0.4424
 1264SOL    HW3 5055   0.897   2.673   2.323  1.1442  0.8011 -0.6908
 1264SOL    MW4 5056   0.891   2.748   2.366 -0.0915  0.1390  0.3129
 1265SOL     OW 5057   1.100   2.850   2.218  0.4097  0.0191 -0.1632
 1265SOL    HW2 5058   1.179   2.818   2.261  0.5437 -1.5833 -1.5221
 1265SOL    HW3 5059   1.028   2.810   2.267  0.4138  1.5649  1.1410
 1265SOL    MW4 5060   1.101   2.840   2.230  0.4279  0.0116 -0.1704
 1266SOL     OW 5061   1.150   3.075   2.366  0.6857  0.3662  0.0816
 1266SOL    HW2 5062   1.073   3.126   2.340  0.0065 -0.9615 -0.6035
 1266SOL    HW3 5063   1.140   2.992   2.319  1.8285 -0.3458  1.0621
 1266SOL    MW4 5064   1.139   3.071   2.356  0.7469  0.0971  0.1206
 1267SOL     OW 5065   0.929   3.230   2.275  0.6666  0.4770 -0.0671
 1267SOL    HW2 5066   0.910   3.315   2.316  0.5961  1.2180 -1.6017
 1267SOL    HW3 5067   0.855   3.175   2.299 -1.2456  2.0063 -2.2489
 1267SOL    MW4 5068   0.917   3.234   2.284  0.4050  0.7765 -0.5574
 1268SOL     OW 5069   0.892   3.480   2.388 -0.1997  0.1534  0.4585
 1268SOL    HW2 5070   0.897   3.484   2.484 -1.0908  0.3999  0.5000
 1268SOL    HW3 5071   0.821   3.540   2.366 -0.6446 -0.6555 -0.2961
 1268SOL    MW4 5072   0.883   3.489   2.398 -0.3760  0.0792  0.3644
 1269SOL     OW 5073   1.104   3.610   2.251 -0.0934  0.3666  0.5651
 1269SOL    HW2 5074   1.187   3.573   2.279  0.1979 -0.2277 -1.0276
 1269SOL    HW3 5075   1.037   3.558   2.295  0.3525 -0.5473  0.1650
 1269SOL    MW4 5076   1.106   3.598   2.260  0.0039  0.1676  0.3022
 1270SOL     OW 5077   1.109   3.875   2.355  0.0250 -0.3840  0.0056
 1270SOL    HW2 5078   1.198   3.902   2.331  0.1286 -0.5635  0.1842
 1270SOL    HW3 5079   1.100   3.787   2.320 -0.1526 -0.2904 -0.1825
 1270SOL    MW4 5080   1.119   3.867   2.348  0.0153 -0.3954  0.0043
 1271SOL     OW 5081   0.902   4.027   2.219  0.2005  0.3509 -0.1609
 1271SOL    HW2 5082   0.968   3.970   2.258  0.2537  0.6220  0.1435
 1271SOL    HW3 5083   0.818   3.992   2.250  0.2285  0.3703 -0.0636
 1271SOL    MW4 5084   0.899   4.015   2.228  0.2112  0.3892 -0.1079
 1272SOL     OW 5085   0.902   4.257   2.345  0.3856 -0.1520 -0.0429
 1272SOL    HW2 5086   0.912   4.171   2.304 -1.6404 -1.6672  2.5033
 1272SOL    HW3 5087   0.825   4.295   2.303 -0.1908 -0.6244  0.5951
 1272SOL    MW4 5088   0.893   4.251   2.334  0.0422 -0.4142  0.3772
 1273SOL     OW 5089   1.132   4.394   2.265  0.2471  0.3041 -0.0825
 1273SOL    HW2 5090   1.062   4.334   2.288  0.7229 -0.4669 -0.6075
 1273SOL    HW3 5091   1.107   4.478   2.305 -0.4805 -0.2085  0.5463
 1273SOL    MW4 5092   1.120   4.397   2.274  0.2139  0.1348 -0.0688
 1274SOL     OW 5093   1.590   4.643   2.348  0.2264 -0.4130 -0.6839
 1274SOL    HW2 5094   1.660   4.693   2.306  0.6725  0.3596  0.9503
 1274SOL    HW3 5095   1.510   4.688   2.322  0.4401 -0.3503 -1.2477
 1274SOL    MW4 5096   1.589   4.655   2.339  0.3135 -0.3028 -0.5427
 1275SOL     OW 5097   1.358   0.074   2.259  0.0981 -0.9213 -0.4271
 1275SOL    HW2 5098   1.368   0.163   2.293  2.7538 -1.9157  1.6277
 1275SOL    HW3 5099   1.277   0.042   2.300  1.0044 -0.6203  1.6725
 1275SOL    MW4 5100   1.348   0.081   2.269  0.5681 -1.0128  0.1210
 1276SOL     OW 5101   1.351   0.353   2.360 -0.0416 -0.2162  0.2024
 1276SOL    HW2 5102   1.353   0.353   2.456 -0.2801  0.0212  0.2061
 1276SOL    HW3 5103   1.433   0.396   2.335 -0.4936  0.7167  0.3068
 1276SOL    MW4 5104   1.362   0.359   2.369 -0.1327 -0.0618  0.2167
 1277SOL     OW 5105   1.585   0.479   2.248 -0.3697  0.3236  0.5753
 1277SOL    HW2 5106   1.674   0.459   2.277 -0.9614 -0.7002  1.7183
 1277SOL    HW3 5107   1.594   0.494   2.154  0.7525 -1.4892  0.3631
 1277SOL    MW4 5108   1.598   0.478   2.239 -0.2997 -0.0507  0.6981
 1278SOL     OW 5109   1.571   0.733   2.363 -0.1773 -0.5053  0.3152
 1278SOL    HW2 5110   1.647   0.778   2.326 -0.7732  0.0229 -0.2757
 1278SOL    HW3 5111   1.563   0.653   2.312 -0.6096 -0.0860 -0.2825
 1278SOL    MW4 5112   1.580   0.729   2.351 -0.3129 -0.3803  0.1584
 1279SOL     OW 5113   1.350   0.865   2.272 -0.2471  0.0031  0.0280
 1279SOL    HW2 5114   1.432   0.831   2.309 -0.0667 -1.1337 -1.3658
 1279SOL    HW3 5115   1.282   0.811   2.311 -0.1173 -0.6921 -0.6842
 1279SOL    MW4 5116   1.352   0.854   2.282 -0.2062 -0.2386 -0.2498
 1280SOL     OW 5117   1.341   1.127   2.366  0.2059  0.2458 -0.4714
 1280SOL    HW2 5118   1.345   1.130   2.462  0.0986  2.0272 -0.5144
 1280SOL    HW3 5119   1.334   1.034   2.346  0.1626 -0.1458  1.2554
 1280SOL    MW4 5120   1.341   1.115   2.376  0.1860  0.4292 -0.2492
 1281SOL     OW 5121   1.555   1.247   2.268  0.4369  0.1578 -0.7549
 1281SOL    HW2 5122   1.474   1.199   2.281 -0.0799  1.1281 -0.3351
 1281SOL    HW3 5123   1.557   1.266   2.174 -0.5935  1.4700 -0.5229
 1281SOL    MW4 5124   1.545   1.243   2.257  0.2328  0.4590 -0.6689
 1282SOL     OW 5125   1.561   1.510   2.375 -0.8005 -0.0377  0.0407
 1282SOL    HW2 5126   1.636   1.563   2.348 -0.8926  0.6936  1.1935
 1282SOL    HW3 5127   1.577   1.424   2.337 -0.3128  0.6256 -1.2999
 1282SOL    MW4 5128   1.573   1.506   2.366 -0.7483  0.1463  0.0159
 1283SOL     OW 5129   1.354   1.672   2.276 -0.2598  0.5947 -0.2047
 1283SOL    HW2 5130   1.420   1.611   2.309 -0.4710  1.3783  1.7344
 1283SOL    HW3 5131   1.271   1.626   2.287 -0.3076  0.7578  0.1145
 1283SOL    MW4 5132   1.352   1.658   2.281 -0.2940  0.7196  0.0932
 1284SOL     OW 5133   1.361   1.971   2.375 -0.1125  0.2247  0.0667
 1284SOL    HW2 5134   1.440   2.001   2.329  0.1022 -0.4121  0.0110
 1284SOL    HW3 5135   1.349   1.881   2.345 -1.0396  0.4232 -0.1596
 1284SOL    MW4 5136   1.370   1.963   2.365 -0.2065  0.1669  0.0295
 1285SOL     OW 5137   1.572   2.065   2.240  0.1431  0.0564  0.3381
 1285SOL    HW2 5138   1.659   2.042   2.271 -0.3460 -1.2573  0.7549
 1285SOL    HW3 5139   1.578   2.060   2.145  0.5666  0.1358  0.3612
 1285SOL    MW4 5140   1.584   2.061   2.232  0.1345 -0.1064  0.3961
 1286SOL     OW 5141   1.562   2.334   2.333 -0.1492  0.2446 -0.2239
 1286SOL    HW2 5142   1.563   2.316   2.427  0.2529  0.3216 -0.2143
 1286SOL    HW3 5143   1.562   2.248   2.292  0.3240  0.2114 -0.1593
 1286SOL    MW4 5144   1.562   2.320   2.340 -0.0337  0.2504 -0.2141
 1287SOL     OW 5145   1.357   2.492   2.284  0.2643 -0.1358 -0.1448
 1287SOL    HW2 5146   1.434   2.444   2.314  1.0035 -0.1620 -2.0492
 1287SOL    HW3 5147   1.350   2.472   2.191 -0.2734  2.2658 -0.6615
 1287SOL    MW4 5148   1.366   2.483   2.276  0.2909  0.1776 -0.4642
 1288SOL     OW 5149   1.332   2.766   2.335  0.1189 -0.0470 -0.4764
 1288SOL    HW2 5150   1.413   2.813   2.314 -0.2416  0.5710 -0.5059
 1288SOL    HW3 5151   1.352   2.675   2.316  0.4421  0.2432 -1.6186
 1288SOL    MW4 5152   1.345   2.761   2.329  0.1140  0.0728 -0.6310
 1289SOL     OW 5153   1.582   2.852   2.276  0.0547  0.2674 -0.1301
 1289SOL    HW2 5154   1.589   2.940   2.313  1.3767 -0.5372  1.6443
 1289SOL    HW3 5155   1.575   2.865   2.182  0.0311  2.2708  0.1362
 1289SOL    MW4 5156   1.582   2.865   2.269  0.2260  0.4256  0.1392
 1290SOL     OW 5157   1.597   3.105   2.385 -0.0628  0.4770 -0.3027
 1290SOL    HW2 5158   1.589   3.090   2.479  0.3282 -0.1152 -0.3640
 1290SOL    HW3 5159   1.515   3.148   2.360 -0.1468  0.6769  0.3125
 1290SOL    MW4 5160   1.585   3.109   2.394 -0.0223  0.4252 -0.2296
 1291SOL     OW 5161   1.342   3.227   2.266 -0.5317 -0.1051  0.2005
 1291SOL    HW2 5162   1.283   3.158   2.297 -0.7128  0.2489  0.6530
 1291SOL    HW3 5163   1.340   3.219   2.171 -1.8882  0.3574  0.1694
 1291SOL    MW4 5164   1.334   3.217   2.258 -0.7346  0.0027  0.2561
 1292SOL     OW 5165   1.333   3.509   2.316  0.1751  0.2522  0.1524
 1292SOL    HW2 5166   1.343   3.514   2.411 -0.8274  0.3567  0.2626
 1292SOL    HW3 5167   1.333   3.415   2.296  0.2780  0.2278  0.2689
 1292SOL    MW4 5168   1.334   3.497   2.326  0.0564  0.2628  0.1823
 1293SOL     OW 5169   1.579   3.607   2.232 -0.4197 -0.0376  0.3777
 1293SOL    HW2 5170   1.581   3.698   2.260 -0.3041  0.1167 -0.1175
 1293SOL    HW3 5171   1.496   3.573   2.266 -0.2512  0.1259  0.9517
 1293SOL    MW4 5172   1.568   3.614   2.240 -0.3822  0.0043  0.3881
 1294SOL     OW 5173   1.596   3.848   2.362 -0.6543  0.4165  0.1420
 1294SOL    HW2 5174   1.592   3.866   2.456 -1.0456 -0.3867  0.2879
 1294SOL    HW3 5175   1.675   3.893   2.332 -0.8021  1.0928  0.7582
 1294SOL    MW4 5176   1.606   3.856   2.370 -0.7254  0.3997  0.2426
 1295SOL     OW 5177   1.364   3.987   2.278  0.0967  0.1039  0.0228
 1295SOL    HW2 5178   1.444   3.948   2.312  0.9588  1.3256 -0.5553
 1295SOL    HW3 5179   1.383   4.006   2.186 -0.7568  0.6329 -0.0572
 1295SOL    MW4 5180   1.377   3.985   2.270  0.0978  0.3349 -0.0640
 1296SOL     OW 5181   1.349   4.263   2.361  0.1199 -0.1212 -0.0338
 1296SOL    HW2 5182   1.339   4.170   2.341  0.2454  0.0329 -0.8322
 1296SOL    HW3 5183   1.277   4.306   2.315  0.5441  0.2674 -0.3378
 1296SOL    MW4 5184   1.338   4.256   2.353  0.1924 -0.0496 -0.1793
 1297SOL     OW 5185   1.568   4.382   2.232  0.2371  0.1630 -0.4642
 1297SOL    HW2 5186   1.499   4.335   2.278  2.4950 -1.8855  0.9313
 1297SOL    HW3 5187   1.560   4.472   2.263 -2.2539  0.1270 -0.9007
 1297SOL    MW4 5188   1.558   4.388   2.242  0.2064 -0.1120 -0.3376
 1298SOL     OW 5189   2.048   0.031   2.344 -0.1913  0.4450 -0.0945
 1298SOL    HW2 5190   2.129   0.079   2.324 -0.5725  1.3958  0.6177
 1298SOL    HW3 5191   2.063  -0.057   2.307  0.4720  1.1209 -1.4976
 1298SOL    MW4 5192   2.061   0.025   2.336 -0.1541  0.6596 -0.1856
 1299SOL     OW 5193   1.810   0.119   2.211  0.0196  0.6312 -0.0761
 1299SOL    HW2 5194   1.808   0.200   2.263 -0.8111  0.0152  0.8764
 1299SOL    HW3 5195   1.888   0.074   2.241 -0.8497 -0.0692  1.2152
 1299SOL    MW4 5196   1.820   0.124   2.222 -0.2047  0.4575  0.2199
 1300SOL     OW 5197   1.823   0.367   2.342  0.1509 -0.1101  0.1915
 1300SOL    HW2 5198   1.798   0.362   2.434 -0.1235 -1.2195  0.0697
 1300SOL    HW3 5199   1.905   0.415   2.342  0.7877 -1.1727  1.1511
 1300SOL    MW4 5200   1.830   0.373   2.354  0.1987 -0.3967  0.3020
 1301SOL     OW 5201   2.040   0.510   2.279 -0.2181 -0.6445  0.5919
 1301SOL    HW2 5202   2.041   0.606   2.288  0.8727 -0.6599  0.6298
 1301SOL    HW3 5203   2.043   0.495   2.185  1.7418 -0.6686  0.6542
 1301SOL    MW4 5204   2.040   0.521   2.268  0.1844 -0.6497  0.6051
 1302SOL     OW 5205   2.038   0.778   2.327  0.3281 -0.3008 -0.3078
 1302SOL    HW2 5206   2.102   0.818   2.268 -1.4242  0.2862 -1.8729
 1302SOL    HW3 5207   1.954   0.815   2.300 -0.7007 -1.1230  1.6414
 1302SOL    MW4 5208   2.036   0.788   2.316 -0.0388 -0.3319 -0.2571
 1303SOL     OW 5209   1.786   0.869   2.245  0.4099  0.1252  0.0837
 1303SOL    HW2 5210   1.789   0.954   2.288 -0.1448 -0.1173  0.6132
 1303SOL    HW3 5211   1.818   0.886   2.156  2.2935  0.4783  0.7991
 1303SOL    MW4 5212   1.791   0.883   2.239  0.5852  0.1398  0.2480
 1304SOL     OW 5213   1.799   1.125   2.357  0.0637 -0.3647 -0.4661
 1304SOL    HW2 5214   1.869   1.188   2.340  0.3073 -0.7555 -0.9302
 1304SOL    HW3 5215   1.719   1.169   2.328 -0.0114  0.4735  1.0059
 1304SOL    MW4 5216   1.798   1.139   2.351  0.0860 -0.3056 -0.3331
 1305SOL     OW 5217   2.011   1.326   2.283 -0.1097 -0.3994 -0.5154
 1305SOL    HW2 5218   2.021   1.421   2.288 -2.7819 -0.1605  0.7329
 1305SOL    HW3 5219   1.999   1.308   2.189 -0.5891  0.6041 -0.6540
 1305SOL    MW4 5220   2.011   1.336   2.271 -0.5255 -0.2355 -0.3690
 1306SOL     OW 5221   2.019   1.606   2.379 -0.0147  0.4718  0.4985
 1306SOL    HW2 5222   2.006   1.593   2.473  0.7281 -0.5367  0.4735
 1306SOL    HW3 5223   1.935   1.638   2.347 -0.9927 -1.3735  1.1185
 1306SOL    MW4 5224   2.006   1.608   2.388 -0.0457  0.0953  0.5770
 1307SOL     OW 5225   1.771   1.671   2.265  0.0652  0.0412 -0.4919
 1307SOL    HW2 5226   1.760   1.762   2.294  0.0160  0.2309 -1.0934
 1307SOL    HW3 5227   1.766   1.676   2.170  0.2999 -0.5640 -0.5367
 1307SOL    MW4 5228   1.769   1.684   2.256  0.0897 -0.0136 -0.5771
 1308SOL     OW 5229   1.809   1.943   2.324  0.0780 -0.1497 -0.0080
 1308SOL    HW2 5230   1.810   1.949   2.420 -1.3716 -1.3318  0.1133
 1308SOL    HW3 5231   1.901   1.950   2.298  0.3176  1.9175  1.3340
 1308SOL    MW4 5232   1.821   1.944   2.333 -0.0816 -0.0329  0.1851
 1309SOL     OW 5233   2.068   2.000   2.257  0.4697  0.7955 -0.0368
 1309SOL    HW2 5234   2.152   1.974   2.296  1.3669  1.1183 -1.6997
 1309SOL    HW3 5235   2.087   2.009   2.163 -1.2960  1.4170 -0.3521
 1309SOL    MW4 5236   2.082   1.998   2.249  0.3551  0.9201 -0.2978
 1310SOL     OW 5237   1.996   2.266   2.347 -0.3888 -0.0965  0.4159
 1310SOL    HW2 5238   2.067   2.308   2.299 -1.0253  1.0884  0.4828
 1310SOL    HW3 5239   1.994   2.176   2.313 -0.2836  0.4749 -1.1706
 1310SOL    MW4 5240   2.005   2.260   2.336 -0.4589  0.1352  0.2154
 1311SOL     OW 5241   1.807   2.446   2.242 -0.2148 -0.0647  0.0387
 1311SOL    HW2 5242   1.869   2.384   2.281 -0.9398  0.0180  1.3534
 1311SOL    HW3 5243   1.721   2.413   2.270 -0.7597 -0.1354 -1.6951
 1311SOL    MW4 5244   1.804   2.433   2.251 -0.3824 -0.0631 -0.0166
 1312SOL     OW 5245   1.830   2.698   2.391  0.0091 -0.0413  0.0370
 1312SOL    HW2 5246   1.836   2.617   2.341  0.5115 -0.6134  1.0020
 1312SOL    HW3 5247   1.750   2.740   2.360 -0.4338 -1.0780 -0.2264
 1312SOL    MW4 5248   1.820   2.693   2.381  0.0170 -0.2535  0.1296
 1313SOL     OW 5249   2.046   2.828   2.260  0.3784  0.5193  0.1298
 1313SOL    HW2 5250   2.119   2.768   2.274 -1.4872 -2.3716 -1.9288
 1313SOL    HW3 5251   1.971   2.785   2.301 -1.3281  0.5962 -2.7154
 1313SOL    MW4 5252   2.046   2.815   2.267 -0.0929  0.1480 -0.5172
 1314SOL     OW 5253   2.001   3.097   2.406  0.5597 -0.5214  0.2051
 1314SOL    HW2 5254   2.086   3.132   2.381  0.0961 -0.0562 -0.7822
 1314SOL    HW3 5255   2.001   3.007   2.372  0.3536 -0.2513 -0.5286
 1314SOL    MW4 5256   2.012   3.090   2.398  0.4713 -0.4244 -0.0220
 1315SOL     OW 5257   1.811   3.235   2.254 -0.0074 -0.0096 -0.0590
 1315SOL    HW2 5258   1.887   3.200   2.301  0.3736  1.3550  0.3933
 1315SOL    HW3 5259   1.736   3.189   2.291  0.5195 -0.6937  0.1668
 1315SOL    MW4 5260   1.811   3.225   2.265  0.1124  0.0802  0.0304
 1316SOL     OW 5261   1.792   3.487   2.358  0.0506  0.1302 -0.1370
 1316SOL    HW2 5262   1.809   3.400   2.323 -1.2543 -0.1361 -0.1391
 1316SOL    HW3 5263   1.718   3.519   2.306 -0.7013  0.4761  1.1313
 1316SOL    MW4 5264   1.784   3.480   2.346 -0.2208  0.1407  0.0300
 1317SOL     OW 5265   2.024   3.629   2.274  0.5159 -0.1026  0.2996
 1317SOL    HW2 5266   1.951   3.581   2.314  1.4020 -0.5742  1.3871
 1317SOL    HW3 5267   2.006   3.626   2.180 -0.5545 -0.7251  0.5158
 1317SOL    MW4 5268   2.012   3.622   2.267  0.4916 -0.2470  0.4716
 1318SOL     OW 5269   2.091   3.913   2.332  0.2290  0.4372 -0.1037
 1318SOL    HW2 5270   2.067   3.922   2.424 -0.1450 -0.0331 -0.1496
 1318SOL    HW3 5271   2.068   3.822   2.310 -0.4639  0.7882 -0.8704
 1318SOL    MW4 5272   2.084   3.902   2.341  0.0883  0.4214 -0.2109
 1319SOL     OW 5273   1.835   3.960   2.264  0.2380 -0.0448  0.2416
 1319SOL    HW2 5274   1.926   3.963   2.295  0.2878 -1.6998  0.2764
 1319SOL    HW3 5275   1.843   3.960   2.168  0.2407  0.4803  0.2385
 1319SOL    MW4 5276   1.848   3.960   2.255  0.2449 -0.1939  0.2458
 1320SOL     OW 5277   1.808   4.262   2.315  0.1333 -0.4867 -0.8188
 1320SOL    HW2 5278   1.795   4.168   2.301 -1.5507 -0.2641 -0.8786
 1320SOL    HW3 5279   1.732   4.303   2.275  1.2005  0.9629 -1.4063
 1320SOL    MW4 5280   1.796   4.255   2.308  0.0519 -0.2661 -0.9042
 1321SOL     OW 5281   2.029   4.418   2.272 -0.1836 -0.1392 -0.4547
 1321SOL    HW2 5282   1.951   4.369   2.299  0.2689 -0.7483 -0.2396
 1321SOL    HW3 5283   2.030   4.414   2.177 -0.7920  0.4633 -0.4908
 1321SOL    MW4 5284   2.019   4.411   2.263 -0.2041 -0.1401 -0.4311
 1322SOL     OW 5285   2.492   0.016   2.336 -0.3707  0.1649  0.2127
 1322SOL    HW2 5286   2.576   0.031   2.293 -0.0161 -0.1898  0.7620
 1322SOL    HW3 5287   2.466  -0.072   2.308  0.9610 -1.0029  2.4506
 1322SOL    MW4 5288   2.500   0.007   2.327 -0.1482 -0.0360  0.5805
 1323SOL     OW 5289   2.276   0.163   2.243  0.2797 -0.3552  0.2543
 1323SOL    HW2 5290   2.276   0.248   2.288 -1.0495  0.3306 -1.0120
 1323SOL    HW3 5291   2.354   0.119   2.277  1.3447  1.6111  0.4923
 1323SOL    MW4 5292   2.286   0.169   2.254  0.2448 -0.0053  0.1186
 1324SOL     OW 5293   2.275   0.410   2.368  0.0079  0.3942  0.1795
 1324SOL    HW2 5294   2.350   0.432   2.313 -0.3642  0.7501 -0.1912
 1324SOL    HW3 5295   2.204   0.465   2.335 -0.1408  0.8380  1.2194
 1324SOL    MW4 5296   2.275   0.420   2.356 -0.0608  0.4997  0.2678
 1325SOL     OW 5297   2.510   0.519   2.239 -0.5223 -0.2170  0.0982
 1325SOL    HW2 5298   2.576   0.461   2.277 -0.1347 -0.2426 -0.6141
 1325SOL    HW3 5299   2.504   0.492   2.147 -1.0901  0.1765  0.0181
 1325SOL    MW4 5300   2.518   0.508   2.232 -0.5461 -0.1685 -0.0064
 1326SOL     OW 5301   2.465   0.795   2.327  0.1161  0.2551  0.3098
 1326SOL    HW2 5302   2.548   0.829   2.293 -0.0632  0.1844 -0.2055
 1326SOL    HW3 5303   2.466   0.702   2.302  0.4735 -0.0502  1.4530
 1326SOL    MW4 5304   2.476   0.787   2.319  0.1396  0.2055  0.3927
 1327SOL     OW 5305   2.240   0.920   2.192 -0.0534 -0.3018 -0.7201
 1327SOL    HW2 5306   2.228   0.995   2.250  0.3146  0.2979 -1.4077
 1327SOL    HW3 5307   2.299   0.861   2.240  0.4232  0.2885 -0.5741
 1327SOL    MW4 5308   2.246   0.922   2.206  0.0580 -0.1447 -0.7916
 1328SOL     OW 5309   2.222   1.155   2.356 -0.0225  0.0804 -0.1107
 1328SOL    HW2 5310   2.297   1.196   2.313 -0.1926  1.7338  1.1076
 1328SOL    HW3 5311   2.148   1.211   2.333 -0.7184 -1.0351 -0.5774
 1328SOL    MW4 5312   2.222   1.168   2.348 -0.1367  0.1514 -0.0116
 1329SOL     OW 5313   2.459   1.267   2.236 -0.3410 -0.1146 -0.1459
 1329SOL    HW2 5314   2.535   1.220   2.269 -0.0922  0.0634 -0.4664
 1329SOL    HW3 5315   2.465   1.353   2.276 -0.5048 -0.1785  0.0178
 1329SOL    MW4 5316   2.470   1.272   2.246 -0.3298 -0.0995 -0.1666
 1330SOL     OW 5317   2.455   1.540   2.323  0.4664 -0.2184 -0.2130
 1330SOL    HW2 5318   2.436   1.549   2.416  0.9011  2.8866 -0.3744
 1330SOL    HW3 5319   2.543   1.574   2.312 -0.2141  1.0516 -2.0025
 1330SOL    MW4 5320   2.464   1.546   2.333  0.4339  0.3588 -0.4704
 1331SOL     OW 5321   2.254   1.670   2.216  0.4165 -0.1540 -0.4298
 1331SOL    HW2 5322   2.338   1.629   2.236 -0.2965 -0.7160  1.5183
 1331SOL    HW3 5323   2.191   1.622   2.269 -1.1669  0.1726 -2.0018
 1331SOL    MW4 5324   2.257   1.659   2.226  0.1135 -0.1851 -0.3802
 1332SOL     OW 5325   2.312   1.913   2.363  0.3917  0.1856  0.3204
 1332SOL    HW2 5326   2.380   1.957   2.313 -0.4625 -0.3847 -1.3735
 1332SOL    HW3 5327   2.301   1.827   2.321 -2.0327  0.6314 -0.0769
 1332SOL    MW4 5328   2.319   1.907   2.351 -0.0409  0.1692  0.0445
 1333SOL     OW 5329   2.511   2.082   2.222 -0.0709  0.1569  0.2901
 1333SOL    HW2 5330   2.576   2.027   2.266 -1.2631 -1.4415  0.1037
 1333SOL    HW3 5331   2.503   2.044   2.135 -2.5099 -0.8031  0.8738
 1333SOL    MW4 5332   2.519   2.069   2.217 -0.5500 -0.1807  0.3425
 1334SOL     OW 5333   2.441   2.307   2.361  0.1141 -0.5769 -0.7838
 1334SOL    HW2 5334   2.512   2.363   2.331 -0.4238 -0.6394 -2.2035
 1334SOL    HW3 5335   2.465   2.219   2.330  0.0264 -0.8222 -0.1814
 1334SOL    MW4 5336   2.453   2.303   2.353  0.0316 -0.6175 -0.8916
 1335SOL     OW 5337   2.207   2.413   2.236  0.2615 -0.3048 -0.3871
 1335SOL    HW2 5338   2.203   2.498   2.280  1.2884  0.5457 -1.8766
 1335SOL    HW3 5339   2.288   2.374   2.268  0.9602  0.2739 -1.4252
 1335SOL    MW4 5340   2.217   2.419   2.246  0.4892 -0.1162 -0.7206
 1336SOL     OW 5341   2.236   2.666   2.364  0.1687  0.1759  0.2377
 1336SOL    HW2 5342   2.228   2.683   2.458  0.5623  1.0261  0.1236
 1336SOL    HW3 5343   2.307   2.724   2.335  2.2386 -2.4044  0.0115
 1336SOL    MW4 5344   2.244   2.676   2.372  0.4938 -0.0523  0.1928
 1337SOL     OW 5345   2.444   2.830   2.271 -0.2528 -0.7017  0.1791
 1337SOL    HW2 5346   2.530   2.795   2.297  0.7766  2.5901  1.5985
 1337SOL    HW3 5347   2.447   2.833   2.175  1.5755  0.0894  0.2314
 1337SOL    MW4 5348   2.456   2.826   2.262  0.1242 -0.1630  0.3732
 1338SOL     OW 5349   2.441   3.095   2.360 -0.3254 -0.5753  0.2394
 1338SOL    HW2 5350   2.524   3.136   2.334 -0.2771 -0.2327  0.9147
 1338SOL    HW3 5351   2.450   3.004   2.333  0.6579 -0.7616  1.1353
 1338SOL    MW4 5352   2.453   3.088   2.353 -0.1893 -0.5547  0.4467
 1339SOL     OW 5353   2.214   3.208   2.258 -0.2009  0.5959 -0.3924
 1339SOL    HW2 5354   2.226   3.301   2.275 -1.0763  0.4899  0.9036
 1339SOL    HW3 5355   2.297   3.168   2.285 -0.6769  0.7383  1.3925
 1339SOL    MW4 5356   2.227   3.215   2.264 -0.3792  0.6007  0.0141
 1340SOL     OW 5357   2.236   3.467   2.322 -0.6928  0.0292  0.4322
 1340SOL    HW2 5358   2.256   3.462   2.415 -1.8137 -1.4089  0.6087
 1340SOL    HW3 5359   2.162   3.527   2.316  0.4151  1.4015  0.2889
 1340SOL    MW4 5360   2.229   3.474   2.333 -0.6945  0.0205  0.4366
 1341SOL     OW 5361   2.475   3.561   2.233 -0.0661  0.4904 -0.2767
 1341SOL    HW2 5362   2.494   3.639   2.286  0.6176  0.2719 -0.1976
 1341SOL    HW3 5363   2.390   3.530   2.266 -0.2070  1.0445 -0.1192
 1341SOL    MW4 5364   2.467   3.567   2.245  0.0055  0.5347 -0.2455
 1342SOL     OW 5365   2.525   3.832   2.319 -0.5861  0.1243  0.0861
 1342SOL    HW2 5366   2.529   3.829   2.414 -1.4035  1.2250  0.1725
 1342SOL    HW3 5367   2.449   3.887   2.300 -0.5433 -0.2364 -1.2030
 1342SOL    MW4 5368   2.516   3.839   2.329 -0.6883  0.2219 -0.0725
 1343SOL     OW 5369   2.321   4.020   2.247 -0.1684  0.3184  0.2315
 1343SOL    HW2 5370   2.311   4.109   2.283 -0.4851 -0.0027  0.9388
 1343SOL    HW3 5371   2.239   3.976   2.269  0.0495 -0.1957  0.0079
 1343SOL    MW4 5372   2.309   4.026   2.255 -0.1815  0.2082  0.2953
 1344SOL     OW 5373   2.260   4.270   2.337 -0.0500 -0.3991  0.3608
 1344SOL    HW2 5374   2.268   4.258   2.431  1.8443  0.5779  0.3337
 1344SOL    HW3 5375   2.185   4.328   2.326  0.1943  0.0930  1.2960
 1344SOL    MW4 5376   2.251   4.276   2.348  0.2322 -0.2053  0.4806
 1345SOL     OW 5377   2.491   4.407   2.252  0.0055 -0.1982 -0.2752
 1345SOL    HW2 5378   2.570   4.358   2.277  0.0926  0.1967  0.2330
 1345SOL    HW3 5379   2.418   4.352   2.282  0.0866 -0.4732 -0.5730
 1345SOL    MW4 5380   2.492   4.393   2.259  0.0277 -0.1824 -0.2474
 1346SOL     OW 5381   2.956   4.664   2.375  0.1163  0.6848 -0.1747
 1346SOL    HW2 5382   3.034   4.704   2.335  1.8706 -1.6126  0.8515
 1346SOL    HW3 5383   2.949   4.579   2.333  0.1595 -0.4977  2.1756
 1346SOL    MW4 5384   2.965   4.658   2.364  0.3535  0.2257  0.2708
 1347SOL     OW 5385   2.737   0.105   2.216 -0.2997 -0.0596  0.1757
 1347SOL    HW2 5386   2.726   0.193   2.254 -0.6672 -0.3825  0.8274
 1347SOL    HW3 5387   2.818   0.072   2.256 -2.1334 -1.4896  2.8486
 1347SOL    MW4 5388   2.746   0.112   2.227 -0.5901 -0.2909  0.6144
 1348SOL     OW 5389   2.697   0.350   2.340  0.3515 -0.3710  0.2969
 1348SOL    HW2 5390   2.668   0.375   2.429  0.4671  1.2055 -0.0870
 1348SOL    HW3 5391   2.774   0.404   2.324 -0.0921 -0.1135 -1.0391
 1348SOL    MW4 5392   2.703   0.361   2.350  0.3082 -0.1290  0.0700
 1349SOL     OW 5393   2.929   0.468   2.265  0.0140 -0.3365 -0.0962
 1349SOL    HW2 5394   2.925   0.562   2.284  0.0129 -0.5254  0.8602
 1349SOL    HW3 5395   2.930   0.463   2.169  0.5961  0.6629 -0.1508
 1349SOL    MW4 5396   2.929   0.480   2.254  0.0906 -0.2296  0.0228
 1350SOL     OW 5397   2.944   0.741   2.329 -0.3426  0.1739 -0.1394
 1350SOL    HW2 5398   2.944   0.757   2.423  0.2266  1.0860 -0.2876
 1350SOL    HW3 5399   2.881   0.804   2.294 -0.2011  0.1605 -0.4194
 1350SOL    MW4 5400   2.936   0.752   2.337 -0.2488  0.2925 -0.1959
 1351SOL     OW 5401   2.717   0.891   2.253 -0.4664 -0.1974  0.0851
 1351SOL    HW2 5402   2.685   0.981   2.267 -2.4807 -0.5845 -1.7823
 1351SOL    HW3 5403   2.730   0.885   2.158 -0.3478 -1.8860  0.1943
 1351SOL    MW4 5404   2.714   0.902   2.242 -0.7165 -0.4713 -0.1469
 1352SOL     OW 5405   2.660   1.143   2.357  0.0239  0.1746 -0.0072
 1352SOL    HW2 5406   2.650   1.141   2.453 -0.9723  0.4834 -0.0975
 1352SOL    HW3 5407   2.744   1.185   2.343 -0.2300  0.9357  0.7139
 1352SOL    MW4 5408   2.670   1.148   2.368 -0.1410  0.3157  0.0760
 1353SOL     OW 5409   2.929   1.263   2.294  0.0398 -0.0633  0.2791
 1353SOL    HW2 5410   3.000   1.211   2.333 -1.1464 -0.9532  1.3011
 1353SOL    HW3 5411   2.941   1.253   2.200  1.8219  0.5515  0.4164
 1353SOL    MW4 5412   2.940   1.254   2.287  0.1184 -0.0996  0.4320
 1354SOL     OW 5413   2.928   1.537   2.372  0.3466 -0.3749  0.0510
 1354SOL    HW2 5414   2.937   1.538   2.467 -0.1694 -0.0437  0.0967
 1354SOL    HW3 5415   2.897   1.449   2.351 -0.4143 -0.1588  0.2690
 1354SOL    MW4 5416   2.925   1.526   2.382  0.1781 -0.3027  0.0858
 1355SOL     OW 5417   2.698   1.634   2.239  0.0347 -0.4207  0.0469
 1355SOL    HW2 5418   2.773   1.600   2.288 -0.6746 -0.2561  1.2723
 1355SOL    HW3 5419   2.733   1.652   2.152  0.7955 -2.7627 -0.1587
 1355SOL    MW4 5420   2.713   1.632   2.234  0.0415 -0.7080  0.1814
 1356SOL     OW 5421   2.690   1.910   2.332 -0.2893  0.0274 -0.0230
 1356SOL    HW2 5422   2.703   1.900   2.426  1.0386  0.4243 -0.1575
 1356SOL    HW3 5423   2.685   1.820   2.298 -1.1864 -0.1145  0.4670
 1356SOL    MW4 5424   2.691   1.897   2.340 -0.2324  0.0611  0.0239
 1357SOL     OW 5425   2.910   2.078   2.244  0.0535  0.3575 -0.3967
 1357SOL    HW2 5426   2.995   2.047   2.273 -0.2277  0.3543  0.4311
 1357SOL    HW3 5427   2.847   2.020   2.287 -0.3412 -0.0736 -1.5442
 1357SOL    MW4 5428   2.913   2.067   2.253 -0.0357  0.3002 -0.4389
 1358SOL     OW 5429   2.903   2.343   2.291  0.4642  0.0370 -0.0339
 1358SOL    HW2 5430   2.915   2.343   2.386 -2.3216  0.1222  0.3495
 1358SOL    HW3 5431   2.901   2.250   2.267  0.0195 -0.0023  0.1541
 1358SOL    MW4 5432   2.905   2.331   2.300  0.0379  0.0431  0.0415
 1359SOL     OW 5433   2.655   2.431   2.224 -0.1769  0.1894 -0.2996
 1359SOL    HW2 5434   2.741   2.391   2.237 -1.1829 -1.4873  1.4646
 1359SOL    HW3 5435   2.637   2.420   2.131  0.8230 -0.9053 -0.3744
 1359SOL    MW4 5436   2.664   2.425   2.214 -0.1777 -0.1762 -0.0767
 1360SOL     OW 5437   2.697   2.690   2.345  0.1596  0.2005  0.8589
 1360SOL    HW2 5438   2.778   2.717   2.301  0.6734  0.1617  1.7788
 1360SOL    HW3 5439   2.682   2.601   2.313  0.7674  0.0093  1.0964
 1360SOL    MW4 5440   2.706   2.682   2.335  0.3076  0.1702  1.0116
 1361SOL     OW 5441   2.935   2.800   2.266  0.3668  0.2971  0.0327
 1361SOL    HW2 5442   2.932   2.883   2.312 -2.9987  0.3158 -0.0941
 1361SOL    HW3 5443   2.936   2.823   2.173 -1.0028  0.2332 -0.0124
 1361SOL    MW4 5444   2.934   2.814   2.260 -0.2579  0.2912  0.0100
 1362SOL     OW 5445   2.926   3.055   2.368  0.3690  0.3270  0.0325
 1362SOL    HW2 5446   3.000   3.110   2.342 -0.6857  1.8862  0.2560
 1362SOL    HW3 5447   2.850   3.096   2.327 -0.4842 -0.7448  0.5213
 1362SOL    MW4 5448   2.926   3.068   2.359  0.1173  0.3913  0.1265
 1363SOL     OW 5449   2.696   3.193   2.263  0.4272 -0.6180  0.3473
 1363SOL    HW2 5450   2.682   3.284   2.287  1.7606 -0.0074 -1.0864
 1363SOL    HW3 5451   2.709   3.195   2.168 -0.1835 -2.3809  0.2047
 1363SOL    MW4 5452   2.696   3.205   2.253  0.5226 -0.7700  0.1393
 1364SOL     OW 5453   2.690   3.440   2.351  0.2941 -0.0704 -0.1325
 1364SOL    HW2 5454   2.772   3.479   2.322  0.5854 -0.0472  0.7054
 1364SOL    HW3 5455   2.622   3.484   2.299  0.7273  0.6434 -0.0971
 1364SOL    MW4 5456   2.692   3.451   2.340  0.3897  0.0269 -0.0173
 1365SOL     OW 5457   2.919   3.571   2.270  0.0986  0.3883 -0.4730
 1365SOL    HW2 5458   2.996   3.524   2.301  0.7991  1.6530 -0.2389
 1365SOL    HW3 5459   2.936   3.663   2.292 -1.8069  0.5954  0.2600
 1365SOL    MW4 5460   2.931   3.577   2.277 -0.0604  0.5825 -0.3454
 1366SOL     OW 5461   2.948   3.854   2.347 -0.3404 -0.4727 -0.2646
 1366SOL    HW2 5462   2.933   3.834   2.439 -0.0649 -0.7178 -0.2708
 1366SOL    HW3 5463   2.874   3.909   2.321  0.2050  0.6255  0.4355
 1366SOL    MW4 5464   2.936   3.859   2.356 -0.2321 -0.3602 -0.1731
 1367SOL     OW 5465   2.736   3.993   2.238  0.0538 -0.0239  0.0508
 1367SOL    HW2 5466   2.659   3.943   2.265  0.4141 -0.7363 -0.2245
 1367SOL    HW3 5467   2.731   3.994   2.142 -0.3169  1.0517  0.0777
 1367SOL    MW4 5468   2.725   3.986   2.229  0.0525  0.0240  0.0180
 1368SOL     OW 5469   2.702   4.252   2.349 -0.3057 -0.2672  0.1989
 1368SOL    HW2 5470   2.678   4.239   2.441 -0.8757 -0.6563 -0.0008
 1368SOL    HW3 5471   2.689   4.166   2.309  0.3605 -0.2013 -0.1535
 1368SOL    MW4 5472   2.697   4.239   2.356 -0.2930 -0.3098  0.1261
 1369SOL     OW 5473   2.912   4.387   2.268  0.1080  0.1578  0.3375
 1369SOL    HW2 5474   2.991   4.350   2.307 -0.4338  0.9530  2.2722
 1369SOL    HW3 5475   2.841   4.337   2.308 -0.4787  1.3007  0.7452
 1369SOL    MW4 5476   2.913   4.376   2.278 -0.0409  0.4135  0.6466
 1370SOL     OW 5477   3.364   0.000   2.319 -0.6822  0.4623  0.4183
 1370SOL    HW2 5478   3.377   0.011   2.413 -0.5420 -0.4192  0.5057
 1370SOL    HW3 5479   3.436   0.049   2.279  0.5792 -1.0397  0.8247
 1370SOL    MW4 5480   3.375   0.008   2.326 -0.4973  0.1478  0.4835
 1371SOL     OW 5481   3.148   0.130   2.234  0.4672 -0.7675  0.1043
 1371SOL    HW2 5482   3.142   0.204   2.295 -0.2886 -2.2789  1.8868
 1371SOL    HW3 5483   3.230   0.086   2.257  0.5507 -0.9135 -0.4641
 1371SOL    MW4 5484   3.158   0.134   2.245  0.3785 -0.9862  0.2645
 1372SOL     OW 5485   3.157   0.373   2.377 -0.1601 -0.3662  0.1950
 1372SOL    HW2 5486   3.233   0.421   2.344 -1.3235  1.1733 -0.3234
 1372SOL    HW3 5487   3.082   0.413   2.332 -1.0654 -3.6044 -1.2832
 1372SOL    MW4 5488   3.157   0.385   2.367 -0.4330 -0.5903 -0.0684
 1373SOL     OW 5489   3.370   0.494   2.259  0.1513  0.0595  0.2669
 1373SOL    HW2 5490   3.445   0.453   2.302 -0.4906 -0.8646  0.5162
 1373SOL    HW3 5491   3.386   0.481   2.166  0.5973  0.3975  0.2927
 1373SOL    MW4 5492   3.382   0.487   2.252  0.1254 -0.0179  0.3032
 1374SOL     OW 5493   3.402   0.756   2.355 -0.6542 -0.5241  0.1374
 1374SOL    HW2 5494   3.483   0.799   2.329  1.2173 -1.9347  3.3661
 1374SOL    HW3 5495   3.398   0.677   2.301 -0.1715 -0.1495 -0.4457
 1374SOL    MW4 5496   3.412   0.751   2.345 -0.3436 -0.6608  0.4865
 1375SOL     OW 5497   3.197   0.901   2.251 -0.2891  0.0672 -0.0088
 1375SOL    HW2 5498   3.273   0.853   2.285 -0.1966  0.4614  0.3485
 1375SOL    HW3 5499   3.121   0.852   2.283 -0.1863 -0.3530 -0.4038
 1375SOL    MW4 5500   3.197   0.888   2.260 -0.2633  0.0638 -0.0137
 1376SOL     OW 5501   3.172   1.144   2.353 -0.1982  0.2362  0.2131
 1376SOL    HW2 5502   3.235   1.202   2.311  0.1918 -0.5197 -0.2601
 1376SOL    HW3 5503   3.188   1.058   2.313 -0.7295 -0.2056  0.9356
 1376SOL    MW4 5504   3.182   1.140   2.342 -0.2169  0.0781  0.2460
 1377SOL     OW 5505   3.364   1.326   2.256 -0.1441  0.4353 -0.0095
 1377SOL    HW2 5506   3.426   1.271   2.304 -1.5575 -1.3333 -0.1226
 1377SOL    HW3 5507   3.367   1.411   2.299  0.8754 -0.2285  1.2414
 1377SOL    MW4 5508   3.372   1.330   2.268 -0.1961  0.1144  0.1406
 1378SOL     OW 5509   3.376   1.570   2.363  0.2380 -0.0575 -0.4415
 1378SOL    HW2 5510   3.374   1.572   2.459 -0.1622  1.6543 -0.4713
 1378SOL    HW3 5511   3.295   1.615   2.337  1.1541  0.9446 -1.5748
 1378SOL    MW4 5512   3.365   1.576   2.372  0.3061  0.3006 -0.5950
 1379SOL     OW 5513   3.151   1.670   2.246  0.2169  0.0632  0.0484
 1379SOL    HW2 5514   3.140   1.759   2.279 -0.9872  0.1750 -0.6132
 1379SOL    HW3 5515   3.069   1.626   2.266  0.4004 -0.5829 -0.5803
 1379SOL    MW4 5516   3.139   1.676   2.253  0.0822 -0.0073 -0.1219
 1380SOL     OW 5517   3.143   1.923   2.322 -0.1958 -0.2238 -0.3271
 1380SOL    HW2 5518   3.157   1.924   2.416 -1.1944 -3.4680 -0.0964
 1380SOL    HW3 5519   3.221   1.965   2.286 -0.3853  2.2456  1.9396
 1380SOL    MW4 5520   3.155   1.929   2.329 -0.3526 -0.3260  0.0024
 1381SOL     OW 5521   3.343   2.087   2.225  0.1932  0.2855  0.0491
 1381SOL    HW2 5522   3.418   2.040   2.262 -0.5989 -1.3882 -0.4035
 1381SOL    HW3 5523   3.353   2.077   2.131 -1.0042 -0.6575  0.0018
 1381SOL    MW4 5524   3.354   2.079   2.218 -0.0693 -0.0598 -0.0169
 1382SOL     OW 5525   3.365   2.320   2.357 -0.0445 -0.2411 -0.0359
 1382SOL    HW2 5526   3.304   2.369   2.303 -0.8366 -2.1211 -0.8939
 1382SOL    HW3 5527   3.362   2.231   2.322  0.9640 -1.0259  1.7988
 1382SOL    MW4 5528   3.357   2.315   2.346 -0.0160 -0.5927  0.0929
 1383SOL     OW 5529   3.151   2.448   2.212 -0.2389 -0.1837  0.1662
 1383SOL    HW2 5530   3.164   2.531   2.259 -0.5617  0.2350 -0.4761
 1383SOL    HW3 5531   3.067   2.415   2.246  0.5410 -0.9320  1.4186
 1383SOL    MW4 5532   3.142   2.455   2.223 -0.1786 -0.2272  0.2467
 1384SOL     OW 5533   3.171   2.684   2.361 -0.7528  0.1349 -0.4164
 1384SOL    HW2 5534   3.164   2.663   2.454  0.3677 -0.1521 -0.3866
 1384SOL    HW3 5535   3.087   2.725   2.339 -1.9236 -1.9304  0.1524
 1384SOL    MW4 5536   3.159   2.687   2.370 -0.7595 -0.1754 -0.3374
 1385SOL     OW 5537   3.374   2.821   2.226  0.0549  0.3987 -0.4694
 1385SOL    HW2 5538   3.376   2.904   2.274 -0.0302 -0.6722  1.4404
 1385SOL    HW3 5539   3.311   2.767   2.274 -1.5436 -0.0215 -2.9807
 1385SOL    MW4 5540   3.366   2.825   2.239 -0.1673  0.2020 -0.5487
 1386SOL     OW 5541   3.379   3.042   2.394  0.2951  0.5168  0.1852
 1386SOL    HW2 5542   3.449   3.084   2.343  0.6500  0.0524  0.2776
 1386SOL    HW3 5543   3.299   3.084   2.365  0.6409  1.2282  0.2517
 1386SOL    MW4 5544   3.378   3.053   2.383  0.3875  0.5494  0.2061
 1387SOL     OW 5545   3.158   3.174   2.285  0.0837 -0.3470  0.0710
 1387SOL    HW2 5546   3.160   3.265   2.315 -0.3062 -0.5972  0.8897
 1387SOL    HW3 5547   3.162   3.180   2.190  0.0936  0.5255  0.1179
 1387SOL    MW4 5548   3.159   3.187   2.277  0.0335 -0.2649  0.1852
 1388SOL     OW 5549   3.173   3.457   2.352  0.1752  0.0265 -0.3119
 1388SOL    HW2 5550   3.187   3.455   2.447  0.7298 -0.3230 -0.3979
 1388SOL    HW3 5551   3.243   3.513   2.319 -0.5173  0.8209 -0.4315
 1388SOL    MW4 5552   3.184   3.464   2.361  0.1570  0.0852 -0.3390
 1389SOL     OW 5553   3.369   3.630   2.256  0.5915  0.2269  0.3509
 1389SOL    HW2 5554   3.442   3.576   2.285  0.2325 -0.5747 -0.2262
 1389SOL    HW3 5555   3.364   3.614   2.162 -0.2557  0.3786  0.3699
 1389SOL    MW4 5556   3.378   3.621   2.247  0.4324  0.1411  0.2773
 1390SOL     OW 5557   3.359   3.902   2.349  0.1326 -0.0283  0.6508
 1390SOL    HW2 5558   3.444   3.936   2.321 -1.0321  2.7302  0.2837
 1390SOL    HW3 5559   3.356   3.813   2.314  2.8050 -0.1453  0.5804
 1390SOL    MW4 5560   3.370   3.895   2.341  0.3315  0.3203  0.5931
 1391SOL     OW 5561   3.159   4.032   2.228  0.0505  0.7381  0.3466
 1391SOL    HW2 5562   3.240   3.986   2.250  0.6636  1.0941 -1.1221
 1391SOL    HW3 5563   3.091   3.982   2.274  0.8369 -0.9082 -0.2207
 1391SOL    MW4 5564   3.161   4.019   2.237  0.2352  0.5679  0.0779
 1392SOL     OW 5565   3.145   4.267   2.364  0.1318 -0.3497  0.2216
 1392SOL    HW2 5566   3.228   4.307   2.339  0.0147 -0.1041  0.2271
 1392SOL    HW3 5567   3.147   4.180   2.324  0.7139 -0.6262  0.8304
 1392SOL    MW4 5568   3.156   4.260   2.356  0.1932 -0.3537  0.3027
 1393SOL     OW 5569   3.388   4.386   2.272  0.2361 -0.6945 -0.0382
 1393SOL    HW2 5570   3.389   4.480   2.288 -0.7095 -0.9061  1.3796
 1393SOL    HW3 5571   3.359   4.377   2.181 -2.2257  0.3034  0.6148
 1393SOL    MW4 5572   3.384   4.397   2.262 -0.2135 -0.5907  0.2350
 1394SOL     OW 5573   3.774   4.628   2.355 -0.5100  0.5190 -0.3159
 1394SOL    HW2 5574   3.769   4.615   2.449 -0.5030  0.3491 -0.3395
 1394SOL    HW3 5575   3.862   4.664   2.340 -0.2412 -0.1513 -0.3428
 1394SOL    MW4 5576   3.785   4.631   2.365 -0.4736  0.4082 -0.3226
 1395SOL     OW 5577   3.586   0.160   2.275  0.3362 -0.1204  0.5045
 1395SOL    HW2 5578   3.594   0.252   2.301 -1.2189  0.2375 -0.1853
 1395SOL    HW3 5579   3.668   0.120   2.303  1.4209  1.6685  0.0324
 1395SOL    MW4 5580   3.598   0.167   2.282  0.2742  0.1628  0.3512
 1396SOL     OW 5581   3.597   0.408   2.373 -0.6090 -0.0580 -0.1734
 1396SOL    HW2 5582   3.614   0.412   2.467 -0.1949 -0.5116 -0.2292
 1396SOL    HW3 5583   3.667   0.460   2.334 -1.5911  1.3326 -0.1455
 1396SOL    MW4 5584   3.608   0.416   2.381 -0.6839  0.0656 -0.1770
 1397SOL     OW 5585   3.804   0.552   2.287  0.2631 -0.1397 -0.0198
 1397SOL    HW2 5586   3.818   0.646   2.302  0.4918 -0.1213 -0.3581
 1397SOL    HW3 5587   3.814   0.540   2.193 -1.4360 -0.2220 -0.2066
 1397SOL    MW4 5588   3.807   0.563   2.277  0.0691 -0.1481 -0.0891
 1398SOL     OW 5589   3.855   0.813   2.346  0.2684  0.3445 -0.0610
 1398SOL    HW2 5590   3.871   0.817   2.441  2.3430 -0.1767 -0.3727
 1398SOL    HW3 5591   3.929   0.860   2.308 -0.8509  1.0396 -1.4232
 1398SOL    MW4 5592   3.867   0.820   2.354  0.3944  0.3675 -0.2819
 1399SOL     OW 5593   3.624   0.909   2.261  0.0283 -0.4112 -0.4520
 1399SOL    HW2 5594   3.714   0.884   2.282  0.2624  0.3348 -0.5813
 1399SOL    HW3 5595   3.621   0.910   2.165  0.4541  1.6173 -0.4640
 1399SOL    MW4 5596   3.636   0.906   2.251  0.1153 -0.0451 -0.4706
 1400SOL     OW 5597   3.562   1.153   2.392 -0.4665  0.0805 -0.3883
 1400SOL    HW2 5598   3.572   1.139   2.486  1.4421  2.3144 -0.2254
 1400SOL    HW3 5599   3.565   1.066   2.354 -1.5336 -0.8669  1.6428
 1400SOL    MW4 5600   3.563   1.140   2.400 -0.3555  0.2503 -0.0989
 1401SOL     OW 5601   3.829   1.266   2.297  0.4923  0.4652 -0.5027
 1401SOL    HW2 5602   3.824   1.361   2.303 -0.3319  0.4063 -0.2105
 1401SOL    HW3 5603   3.750   1.235   2.340  0.8516 -0.3635 -0.4242
 1401SOL    MW4 5604   3.818   1.274   2.303  0.4310  0.3481 -0.4538
 1402SOL     OW 5605   3.832   1.549   2.325 -0.0077  0.8661 -0.0402
 1402SOL    HW2 5606   3.838   1.552   2.421 -0.1226  0.0819 -0.0080
 1402SOL    HW3 5607   3.754   1.601   2.304 -0.0547  0.9352  0.2999
 1402SOL    MW4 5608   3.823   1.556   2.335 -0.0291  0.7717  0.0089
 1403SOL     OW 5609   3.602   1.662   2.244  0.3160  0.1902 -0.3594
 1403SOL    HW2 5610   3.526   1.625   2.288  1.2849  0.0160  1.1989
 1403SOL    HW3 5611   3.593   1.634   2.153 -1.9407  0.9221 -0.3955
 1403SOL    MW4 5612   3.591   1.653   2.238  0.1461  0.2638 -0.1585
 1404SOL     OW 5613   3.587   1.926   2.327 -0.6580 -0.7760 -0.1492
 1404SOL    HW2 5614   3.673   1.967   2.320 -0.9888  0.0150  0.2869
 1404SOL    HW3 5615   3.597   1.841   2.286  0.4904 -0.9215  0.4249
 1404SOL    MW4 5616   3.600   1.921   2.321 -0.5501 -0.6908 -0.0159
 1405SOL     OW 5617   3.825   2.053   2.272  0.4336 -0.2637  0.0730
 1405SOL    HW2 5618   3.909   2.023   2.306  0.0656 -2.9475 -1.2506
 1405SOL    HW3 5619   3.833   2.045   2.177 -0.2110  2.5810 -0.2660
 1405SOL    MW4 5620   3.837   2.048   2.264  0.3000 -0.2425 -0.1463
 1406SOL     OW 5621   3.836   2.308   2.342  0.7445 -0.3969  0.4760
 1406SOL    HW2 5622   3.754   2.350   2.317  0.9601 -0.0299  0.3888
 1406SOL    HW3 5623   3.827   2.218   2.309 -0.0836 -0.6857  1.4443
 1406SOL    MW4 5624   3.824   2.301   2.334  0.6637 -0.3866  0.5923
 1407SOL     OW 5625   3.599   2.421   2.273  0.0325 -0.1141  0.0800
 1407SOL    HW2 5626   3.522   2.371   2.301  1.4944 -2.2739  0.4245
 1407SOL    HW3 5627   3.595   2.420   2.177 -0.4961 -0.0263  0.1017
 1407SOL    MW4 5628   3.588   2.414   2.264  0.1556 -0.3875  0.1283
 1408SOL     OW 5629   3.589   2.676   2.368  0.5020 -0.3166 -0.2618
 1408SOL    HW2 5630   3.595   2.588   2.332 -2.0740 -0.9054  0.6238
 1408SOL    HW3 5631   3.515   2.716   2.322  0.7061  0.8609  0.4094
 1408SOL    MW4 5632   3.580   2.670   2.357  0.1891 -0.2389 -0.0564
 1409SOL     OW 5633   3.788   2.840   2.252 -0.2775  0.3075  0.1733
 1409SOL    HW2 5634   3.791   2.933   2.274 -1.4114  0.7341 -1.4388
 1409SOL    HW3 5635   3.704   2.810   2.286 -1.0751  0.4831 -1.6031
 1409SOL    MW4 5636   3.778   2.849   2.259 -0.5323  0.3869 -0.2738
 1410SOL     OW 5637   3.797   3.124   2.320 -0.0631 -0.1922 -0.3569
 1410SOL    HW2 5638   3.813   3.127   2.414  0.3255 -2.4335 -0.3360
 1410SOL    HW3 5639   3.880   3.152   2.281 -0.2310  0.7576 -0.0541
 1410SOL    MW4 5640   3.810   3.128   2.327 -0.0340 -0.3626 -0.3142
 1411SOL     OW 5641   3.554   3.204   2.249  0.1075 -0.3260 -0.3658
 1411SOL    HW2 5642   3.562   3.295   2.279  0.6633 -1.0819  1.8532
 1411SOL    HW3 5643   3.639   3.165   2.268  0.0710 -1.1861 -1.8553
 1411SOL    MW4 5644   3.566   3.211   2.255  0.1760 -0.5392 -0.2695
 1412SOL     OW 5645   3.565   3.473   2.354  0.0054 -0.3494  0.1197
 1412SOL    HW2 5646   3.580   3.480   2.449 -0.8491  0.5642  0.2005
 1412SOL    HW3 5647   3.644   3.509   2.314 -0.4623  1.1307  0.5055
 1412SOL    MW4 5648   3.577   3.479   2.362 -0.1690 -0.0336  0.1812
 1413SOL     OW 5649   3.804   3.580   2.251  0.0586 -0.1744 -0.0557
 1413SOL    HW2 5650   3.790   3.671   2.278 -0.7726 -0.0866 -0.7775
 1413SOL    HW3 5651   3.787   3.580   2.157 -0.0366 -1.1049 -0.0408
 1413SOL    MW4 5652   3.800   3.592   2.242 -0.0636 -0.2856 -0.1490
 1414SOL     OW 5653   3.767   3.838   2.340  0.1039  0.3326  0.2288
 1414SOL    HW2 5654   3.758   3.837   2.435 -0.2542  1.2296  0.2084
 1414SOL    HW3 5655   3.843   3.893   2.324  0.2161  0.1114 -0.0042
 1414SOL    MW4 5656   3.776   3.845   2.351  0.0714  0.4218  0.1954
 1415SOL     OW 5657   3.581   3.991   2.207  0.0834  0.3211  0.0910
 1415SOL    HW2 5658   3.608   4.075   2.245  0.2264  0.6928 -0.8002
 1415SOL    HW3 5659   3.653   3.931   2.228 -1.0719 -0.2006  2.7333
 1415SOL    MW4 5660   3.594   3.994   2.215 -0.0502  0.3013  0.3221
 1416SOL     OW 5661   3.604   4.230   2.332  0.2293 -0.1618  0.4757
 1416SOL    HW2 5662   3.686   4.265   2.296 -0.7287  1.7578  0.1020
 1416SOL    HW3 5663   3.536   4.287   2.297 -0.8979  0.8797  4.1208
 1416SOL    MW4 5664   3.606   4.242   2.323 -0.0458  0.2289  0.9073
 1417SOL     OW 5665   3.818   4.395   2.238  0.4784  0.4004  0.2566
 1417SOL    HW2 5666   3.896   4.369   2.288  0.1629  0.5792  0.8354
 1417SOL    HW3 5667   3.785   4.473   2.282  0.6455  1.0178 -0.6913
 1417SOL    MW4 5668   3.824   4.402   2.250  0.4588  0.5054  0.2079
 1418SOL     OW 5669   4.250   0.017   2.338 -0.3154 -0.1415  0.1266
 1418SOL    HW2 5670   4.258   0.009   2.433  0.3370 -1.9223 -0.0669
 1418SOL    HW3 5671   4.328   0.067   2.312  0.2654 -0.8977  0.3839
 1418SOL    MW4 5672   4.262   0.023   2.347 -0.1527 -0.4762  0.1350
 1419SOL     OW 5673   3.999   0.102   2.284  0.1605  0.2722 -0.1562
 1419SOL    HW2 5674   3.996   0.196   2.298 -0.4841  0.2586 -0.2103
 1419SOL    HW3 5675   4.088   0.077   2.308  0.0884  0.7686  0.6264
 1419SOL    MW4 5676   4.011   0.111   2.289  0.0660  0.3359 -0.0601
 1420SOL     OW 5677   3.999   0.370   2.360  0.3731 -0.3188  0.0918
 1420SOL    HW2 5678   4.072   0.426   2.333  0.7561 -1.2009 -0.7415
 1420SOL    HW3 5679   3.921   0.426   2.352  0.9498  0.6309  1.0056
 1420SOL    MW4 5680   3.998   0.385   2.355  0.4998 -0.3099  0.1024
 1421SOL     OW 5681   4.232   0.497   2.294 -0.5850  0.4653  0.4941
 1421SOL    HW2 5682   4.223   0.591   2.310 -0.2704  0.9558 -2.0901
 1421SOL    HW3 5683   4.321   0.477   2.324 -0.3589  1.1673  0.3148
 1421SOL    MW4 5684   4.242   0.507   2.300 -0.5137  0.6226  0.1295
 1422SOL     OW 5685   4.255   0.762   2.392 -0.1588  0.1076 -0.1282
 1422SOL    HW2 5686   4.211   0.834   2.348 -0.0482 -0.2827 -0.8911
 1422SOL    HW3 5687   4.348   0.775   2.371 -0.1435 -0.2758 -0.3149
 1422SOL    MW4 5688   4.262   0.773   2.383 -0.1422  0.0055 -0.2535
 1423SOL     OW 5689   4.078   0.942   2.251 -0.2916  0.0912  0.2785
 1423SOL    HW2 5690   4.065   1.029   2.290  0.7204 -0.1155  1.1068
 1423SOL    HW3 5691   4.090   0.959   2.158  0.4712  0.8998  0.5179
 1423SOL    MW4 5692   4.078   0.956   2.244 -0.0574  0.1706  0.4193
 1424SOL     OW 5693   4.063   1.176   2.408 -0.0680  0.4414  0.1471
 1424SOL    HW2 5694   4.052   1.172   2.503 -1.3902 -1.7847 -0.0544
 1424SOL    HW3 5695   3.980   1.212   2.376 -0.6422 -1.2519 -0.3164
 1424SOL    MW4 5696   4.051   1.180   2.416 -0.3182 -0.0757  0.0594
 1425SOL     OW 5697   4.300   1.247   2.263 -0.4408  0.0449  0.4501
 1425SOL    HW2 5698   4.221   1.209   2.301 -0.1914 -1.4101 -0.4670
 1425SOL    HW3 5699   4.372   1.211   2.315 -0.2002 -0.8129 -0.4594
 1425SOL    MW4 5700   4.299   1.238   2.275 -0.3762 -0.2602  0.2091
 1426SOL     OW 5701   4.264   1.509   2.371  0.3718 -0.2468 -0.0608
 1426SOL    HW2 5702   4.269   1.425   2.326 -0.5241  0.3908 -1.3600
 1426SOL    HW3 5703   4.343   1.555   2.345  0.0950 -0.0724 -0.5969
 1426SOL    MW4 5704   4.275   1.504   2.362  0.2171 -0.1397 -0.3030
 1427SOL     OW 5705   4.075   1.660   2.260 -0.0687 -0.0462 -0.4349
 1427SOL    HW2 5706   4.135   1.596   2.300 -0.8454 -1.2065 -1.0977
 1427SOL    HW3 5707   3.988   1.627   2.281 -0.4796  1.0969 -0.3415
 1427SOL    MW4 5708   4.072   1.647   2.268 -0.2254 -0.0485 -0.5101
 1428SOL     OW 5709   4.064   1.941   2.335  0.1993 -0.4776  0.0467
 1428SOL    HW2 5710   4.081   1.951   2.429  2.2773 -1.3142 -0.2187
 1428SOL    HW3 5711   4.079   1.848   2.318  0.3095 -0.2323 -1.2039
 1428SOL    MW4 5712   4.069   1.930   2.345  0.4880 -0.5556 -0.1533
 1429SOL     OW 5713   4.290   2.018   2.206  0.3210 -0.4020 -0.0196
 1429SOL    HW2 5714   4.295   2.110   2.232 -0.8364 -0.6039  0.9291
 1429SOL    HW3 5715   4.213   1.984   2.252  0.6340 -1.7971 -0.5167
 1429SOL    MW4 5716   4.280   2.026   2.215  0.2096 -0.6127  0.0400
 1430SOL     OW 5717   4.333   2.271   2.295 -0.0979 -0.1880  0.4856
 1430SOL    HW2 5718   4.248   2.315   2.294 -0.1643 -0.3273 -0.6165
 1430SOL    HW3 5719   4.397   2.341   2.284 -0.1523 -0.2439 -0.2259
 1430SOL    MW4 5720   4.330   2.286   2.293 -0.1138 -0.2137  0.2463
 1431SOL     OW 5721   4.087   2.424   2.271 -0.0315 -0.1087  0.0440
 1431SOL    HW2 5722   4.089   2.517   2.293 -0.0621 -0.1865  0.3827
 1431SOL    HW3 5723   4.004   2.393   2.306 -0.5968  0.0076 -1.1959
 1431SOL    MW4 5724   4.077   2.432   2.279 -0.1101 -0.1037 -0.0749
 1432SOL     OW 5725   4.028   2.692   2.318  0.2204  0.0146  0.3233
 1432SOL    HW2 5726   4.030   2.703   2.413  0.5584 -0.6521  0.3924
 1432SOL    HW3 5727   3.949   2.740   2.290 -0.0719 -0.0885  0.9720
 1432SOL    MW4 5728   4.018   2.700   2.327  0.2264 -0.0870  0.4180
 1433SOL     OW 5729   4.240   2.869   2.214 -0.1156  0.1620  0.3072
 1433SOL    HW2 5730   4.164   2.814   2.233  0.0310  0.0758  0.6555
 1433SOL    HW3 5731   4.310   2.832   2.268 -0.1231  0.9415  0.8522
 1433SOL    MW4 5732   4.240   2.857   2.224 -0.0972  0.2535  0.4251
 1434SOL     OW 5733   4.270   3.106   2.384  0.1072 -0.2625  0.0930
 1434SOL    HW2 5734   4.267   3.020   2.343 -0.7095  0.3531 -1.2058
 1434SOL    HW3 5735   4.354   3.143   2.357  0.6125 -0.7954  0.9469
 1434SOL    MW4 5736   4.281   3.100   2.375  0.0661 -0.2516  0.0343
 1435SOL     OW 5737   4.042   3.205   2.232 -0.2647  0.2837 -0.0567
 1435SOL    HW2 5738   4.035   3.299   2.251  0.3617 -0.0616  1.9509
 1435SOL    HW3 5739   4.116   3.175   2.285 -2.1397 -1.8671  1.4344
 1435SOL    MW4 5740   4.051   3.214   2.241 -0.4295 -0.0457  0.4049
 1436SOL     OW 5741   4.051   3.472   2.306  0.5381  0.1906  0.4728
 1436SOL    HW2 5742   4.120   3.538   2.310 -0.8803  1.7835 -0.5249
 1436SOL    HW3 5743   3.969   3.521   2.317 -0.4802 -1.5789  1.1033
 1436SOL    MW4 5744   4.049   3.487   2.308  0.2166  0.1673  0.4244
 1437SOL     OW 5745   4.275   3.634   2.278 -0.7319  0.1515  0.2942
 1437SOL    HW2 5746   4.251   3.724   2.299  0.7962  0.6549 -0.0973
 1437SOL    HW3 5747   4.272   3.630   2.183 -1.5785 -0.4464  0.3361
 1437SOL    MW4 5748   4.271   3.645   2.268 -0.6420  0.1390  0.2481
 1438SOL     OW 5749   4.244   3.889   2.353 -0.3456  0.0346 -0.0090
 1438SOL    HW2 5750   4.273   3.870   2.442  0.4998 -0.2855 -0.3456
 1438SOL    HW3 5751   4.323   3.917   2.307 -0.4563 -1.3234 -1.0707
 1438SOL    MW4 5752   4.258   3.890   2.359 -0.2486 -0.1868 -0.1935
 1439SOL     OW 5753   3.994   4.007   2.295  0.3268  0.2380 -0.1778
 1439SOL    HW2 5754   4.074   3.962   2.322 -0.1247 -0.0427  0.6934
 1439SOL    HW3 5755   4.001   4.013   2.199  0.1667 -2.1142 -0.3577
 1439SOL    MW4 5756   4.005   4.002   2.286  0.2461 -0.1094 -0.0866
 1440SOL     OW 5757   4.034   4.286   2.376  0.2204  0.0706  0.0074
 1440SOL    HW2 5758   4.116   4.324   2.344 -0.3043  1.0903 -0.1622
 1440SOL    HW3 5759   4.040   4.193   2.352  0.7116  0.4126 -1.2675
 1440SOL    MW4 5760   4.046   4.279   2.368  0.2160  0.2503 -0.1832
 1441SOL     OW 5761   4.249   4.405   2.262  0.3864  0.6260  0.0102
 1441SOL    HW2 5762   4.261   4.499   2.280  1.6202  0.1237  1.9491
 1441SOL    HW3 5763   4.324   4.363   2.303  0.0430 -1.2059 -1.1671
 1441SOL    MW4 5764   4.260   4.412   2.269  0.5039  0.3180  0.1107
 1442SOL     OW 5765   0.247   4.616   2.669  0.0684  0.3967 -0.0519
 1442SOL    HW2 5766   0.244   4.529   2.708  1.0422  1.3414  2.1877
 1442SOL    HW3 5767   0.165   4.658   2.694  0.2108  0.6156  0.0542
 1442SOL    MW4 5768   0.236   4.610   2.677  0.2157  0.5502  0.2576
 1443SOL     OW 5769   0.006   0.058   2.732 -0.2707 -0.5572  0.5939
 1443SOL    HW2 5770   0.002   0.064   2.828 -0.6569  0.7397  0.5056
 1443SOL    HW3 5771   0.012   0.149   2.703 -1.7700 -0.8465 -0.6779
 1443SOL    MW4 5772   0.006   0.071   2.741 -0.5195 -0.4243  0.4145
 1444SOL     OW 5773   0.010   0.331   2.634 -0.2069  0.5036 -0.2293
 1444SOL    HW2 5774   0.086   0.382   2.665  1.3132 -0.9766 -1.4458
 1444SOL    HW3 5775   0.008   0.346   2.540 -1.0941  0.0949 -0.2734
 1444SOL    MW4 5776   0.020   0.340   2.626 -0.1234  0.2544 -0.3956
 1445SOL     OW 5777   0.245   0.471   2.732  0.5667  0.0302 -0.3895
 1445SOL    HW2 5778   0.236   0.463   2.827 -1.2748  0.6566 -0.4863
 1445SOL    HW3 5779   0.326   0.424   2.712  0.1794 -1.4584  1.3057
 1445SOL    MW4 5780   0.255   0.464   2.742  0.2726 -0.0836 -0.1787
 1446SOL     OW 5781   0.243   0.728   2.633  0.4708 -0.5437 -0.6883
 1446SOL    HW2 5782   0.328   0.752   2.669 -0.8767  1.1009  1.4838
 1446SOL    HW3 5783   0.229   0.638   2.662  1.1214 -0.5533 -0.4045
 1446SOL    MW4 5784   0.252   0.719   2.641  0.3789 -0.3280 -0.3642
 1447SOL     OW 5785   0.012   0.852   2.737  0.1527  0.1976 -1.1928
 1447SOL    HW2 5786  -0.060   0.792   2.714  0.7339 -1.5279  1.2260
 1447SOL    HW3 5787   0.090   0.812   2.698  0.4094 -0.1990 -0.2976
 1447SOL    MW4 5788   0.013   0.839   2.729  0.2633 -0.0824 -0.7555
 1448SOL     OW 5789   4.486   1.131   2.664 -0.4197 -0.3206  0.4021
 1448SOL    HW2 5790   4.568   1.169   2.696 -0.3417  1.2951 -1.6004
 1448SOL    HW3 5791   4.486   1.041   2.697  0.8376  0.5102  2.7418
 1448SOL    MW4 5792   4.497   1.124   2.673 -0.2436  0.0022  0.4466
 1449SOL     OW 5793   0.235   1.242   2.768  0.2271 -0.0605 -0.2927
 1449SOL    HW2 5794   0.312   1.188   2.753  0.1134  0.0589 -1.3310
 1449SOL    HW3 5795   0.255   1.326   2.726 -0.5236 -0.0878 -0.7303
 1449SOL    MW4 5796   0.248   1.246   2.760  0.1130 -0.0483 -0.4875
 1450SOL     OW 5797   0.253   1.491   2.663 -0.0966 -0.4239 -0.1916
 1450SOL    HW2 5798   0.310   1.565   2.681 -0.0354 -0.4543 -0.2618
 1450SOL    HW3 5799   0.165   1.524   2.679 -0.0010 -0.6413  0.8138
 1450SOL    MW4 5800   0.249   1.505   2.667 -0.0759 -0.4566 -0.0682
 1451SOL     OW 5801   0.015   1.620   2.729 -0.3798 -0.0550  0.0566
 1451SOL    HW2 5802   0.020   1.625   2.824  0.8184  0.8763 -0.0427
 1451SOL    HW3 5803   0.005   1.711   2.700  1.7239 -0.0510 -0.7975
 1451SOL    MW4 5804   0.015   1.633   2.737  0.0558  0.0684 -0.0692
 1452SOL     OW 5805   4.489   1.896   2.671 -0.1042 -0.0956  0.5788
 1452SOL    HW2 5806   4.563   1.944   2.709 -0.5310  0.9118  0.1801
 1452SOL    HW3 5807   4.492   1.918   2.578 -2.2740  1.8640  0.9225
 1452SOL    MW4 5808   4.500   1.905   2.664 -0.4468  0.2959  0.5715
 1453SOL     OW 5809   0.199   2.080   2.735  0.6544  0.0323 -0.2159
 1453SOL    HW2 5810   0.281   2.038   2.708 -0.5121 -1.4670 -1.5201
 1453SOL    HW3 5811   0.207   2.170   2.704  1.9753  0.0151  0.0376
 1453SOL    MW4 5812   0.211   2.086   2.728  0.6747 -0.1678 -0.3545
 1454SOL     OW 5813   0.208   2.340   2.633  0.2853 -0.0550 -0.0312
 1454SOL    HW2 5814   0.277   2.387   2.679 -0.8541  1.5246  0.1365
 1454SOL    HW3 5815   0.128   2.388   2.656 -0.7873 -1.5150 -0.6518
 1454SOL    MW4 5816   0.206   2.353   2.642 -0.0066 -0.0392 -0.0910
 1455SOL     OW 5817   4.460   2.460   2.714  0.0680 -0.2527 -0.2166
 1455SOL    HW2 5818   4.452   2.466   2.809  0.4138  0.9402 -0.2621
 1455SOL    HW3 5819   4.398   2.391   2.689 -1.3777  0.6937  0.6785
 1455SOL    MW4 5820   4.451   2.451   2.723 -0.0771  0.0296 -0.1045
 1456SOL     OW 5821   0.013   2.707   2.603  0.2045  0.1844  0.1767
 1456SOL    HW2 5822  -0.067   2.752   2.631 -0.6417 -0.2848 -1.4538
 1456SOL    HW3 5823   0.002   2.618   2.635 -0.2828 -0.0823 -0.7357
 1456SOL    MW4 5824   0.001   2.701   2.611  0.0286  0.0873 -0.1588
 1457SOL     OW 5825   0.215   2.833   2.717 -0.1410  0.3217  0.2589
 1457SOL    HW2 5826   0.209   2.924   2.688  0.6841  0.1664 -0.4452
 1457SOL    HW3 5827   0.149   2.787   2.666  0.3260  0.3056 -0.3422
 1457SOL    MW4 5828   0.206   2.839   2.706  0.0295  0.2991  0.0867
 1458SOL     OW 5829   0.222   3.100   2.638 -0.3351 -0.1402 -0.5192
 1458SOL    HW2 5830   0.290   3.153   2.681 -0.3796 -1.2514  0.9493
 1458SOL    HW3 5831   0.247   3.101   2.546  1.8578 -0.7607  0.0169
 1458SOL    MW4 5832   0.235   3.107   2.632 -0.0516 -0.3687 -0.2547
 1459SOL     OW 5833   4.470   3.236   2.748  0.4231 -0.1557 -0.1646
 1459SOL    HW2 5834   4.397   3.183   2.717  0.3179 -0.9810  1.4209
 1459SOL    HW3 5835   4.548   3.188   2.718  0.3214 -0.5997  0.2751
 1459SOL    MW4 5836   4.471   3.222   2.740  0.3958 -0.3232  0.1026
 1460SOL     OW 5837   0.006   3.497   2.648 -0.1055  0.2040  0.3259
 1460SOL    HW2 5838   0.089   3.538   2.672  0.9356 -0.6757 -1.5927
 1460SOL    HW3 5839   0.010   3.410   2.687  0.0405  0.0261 -0.0859
 1460SOL    MW4 5840   0.017   3.491   2.656  0.0511  0.0644  0.0185
 1461SOL     OW 5841   0.235   3.632   2.733 -0.7769 -0.3006 -0.2071
 1461SOL    HW2 5842   0.247   3.625   2.828 -1.0951 -0.2407 -0.1601
 1461SOL    HW3 5843   0.308   3.583   2.696 -1.8240 -2.1273  0.0891
 1461SOL    MW4 5844   0.246   3.624   2.741 -0.9570 -0.5337 -0.1618
 1462SOL     OW 5845   0.210   3.896   2.624 -0.0383 -0.0315  0.2316
 1462SOL    HW2 5846   0.208   3.811   2.667  0.1101 -0.1029  0.1012
 1462SOL    HW3 5847   0.214   3.875   2.530 -1.0242  0.1179  0.1456
 1462SOL    MW4 5848   0.210   3.882   2.617 -0.1488 -0.0212  0.2030
 1463SOL     OW 5849   4.490   4.010   2.740 -0.6736 -0.2296 -0.3925
 1463SOL    HW2 5850   4.470   4.096   2.704 -2.2024 -0.2733  0.3136
 1463SOL    HW3 5851   4.563   3.978   2.687 -0.5380  1.2085 -1.0944
 1463SOL    MW4 5852   4.497   4.017   2.728 -0.8574 -0.0456 -0.3919
 1464SOL     OW 5853   0.010   4.289   2.644  0.6292 -0.3308  0.3590
 1464SOL    HW2 5854  -0.058   4.344   2.682  1.9374  0.5037  1.5442
 1464SOL    HW3 5855   0.089   4.309   2.695  1.0289 -3.6616  1.1943
 1464SOL    MW4 5856   0.012   4.299   2.656  0.8545 -0.6601  0.6256
 1465SOL     OW 5857   0.235   4.372   2.779  0.0015 -0.4386  0.2481
 1465SOL    HW2 5858   0.236   4.381   2.874  0.5874  0.6449  0.1500
 1465SOL    HW3 5859   0.312   4.318   2.760  1.4046  1.5094  0.2098
 1465SOL    MW4 5860   0.245   4.366   2.789  0.2639 -0.0387  0.2301
 1466SOL     OW 5861   0.684   4.645   2.678 -0.6097 -0.0776 -0.4577
 1466SOL    HW2 5862   0.760   4.694   2.710 -1.1124 -0.5726  1.5561
 1466SOL    HW3 5863   0.610   4.701   2.698 -0.9870 -0.6458 -0.2625
 1466SOL    MW4 5864   0.684   4.659   2.685 -0.7258 -0.2178 -0.1662
 1467SOL     OW 5865   0.462   0.099   2.775  0.3417  0.3131  0.0602
 1467SOL    HW2 5866   0.451   0.090   2.869  1.3422  0.2163  0.1802
 1467SOL    HW3 5867   0.390   0.049   2.737  0.3929 -0.3083  0.7657
 1467SOL    MW4 5868   0.451   0.091   2.782  0.4805  0.2184  0.1691
 1468SOL     OW 5869   0.467   0.343   2.649 -0.4504  0.2392  0.1629
 1468SOL    HW2 5870   0.549   0.382   2.679 -1.0280  1.4190  0.2668
 1468SOL    HW3 5871   0.453   0.268   2.707  1.1065 -0.6454 -0.5803
 1468SOL    MW4 5872   0.476   0.338   2.661 -0.3212  0.2782  0.0785
 1469SOL     OW 5873   0.690   0.442   2.742 -0.2692  0.1071 -0.0657
 1469SOL    HW2 5874   0.696   0.459   2.836 -1.1592 -1.9876  0.4037
 1469SOL    HW3 5875   0.777   0.410   2.718 -0.2081  0.1113  0.1490
 1469SOL    MW4 5876   0.703   0.440   2.751 -0.3786 -0.1687  0.0245
 1470SOL     OW 5877   0.705   0.699   2.640  0.0474 -0.1051  0.2594
 1470SOL    HW2 5878   0.781   0.744   2.676 -1.2478  0.9356  1.7653
 1470SOL    HW3 5879   0.712   0.609   2.672  1.1526 -0.2830 -0.4467
 1470SOL    MW4 5880   0.716   0.693   2.649  0.0223  0.0088  0.3649
 1471SOL     OW 5881   0.480   0.827   2.737  0.0313  0.0381  0.3611
 1471SOL    HW2 5882   0.494   0.919   2.716 -1.3088  0.1575 -0.0772
 1471SOL    HW3 5883   0.557   0.782   2.703  0.4941  0.9487  0.2140
 1471SOL    MW4 5884   0.492   0.833   2.730 -0.0845  0.1740  0.2838
 1472SOL     OW 5885   0.494   1.106   2.703 -0.0199 -0.2084  0.0129
 1472SOL    HW2 5886   0.559   1.175   2.713  0.2808 -0.2152 -1.7131
 1472SOL    HW3 5887   0.478   1.102   2.608 -2.8999  0.1327  0.4330
 1472SOL    MW4 5888   0.501   1.115   2.691 -0.3602 -0.1643 -0.1594
 1473SOL     OW 5889   0.694   1.296   2.752  0.0211  0.0281 -0.3818
 1473SOL    HW2 5890   0.683   1.269   2.843  2.8002 -0.3443 -0.1112
 1473SOL    HW3 5891   0.744   1.225   2.712 -0.1784  0.7344 -1.9105
 1473SOL    MW4 5892   0.699   1.283   2.759  0.3614  0.0721 -0.5478
 1474SOL     OW 5893   0.700   1.572   2.649 -0.1046 -0.2303  0.0906
 1474SOL    HW2 5894   0.614   1.613   2.657  0.5369  1.1598 -0.1165
 1474SOL    HW3 5895   0.691   1.489   2.697 -1.6235 -0.2051 -0.1330
 1474SOL    MW4 5896   0.688   1.566   2.657 -0.2204 -0.0436  0.0338
 1475SOL     OW 5897   0.462   1.700   2.707 -0.2842  0.0088  0.0353
 1475SOL    HW2 5898   0.469   1.701   2.803  0.5038  0.5796 -0.0158
 1475SOL    HW3 5899   0.457   1.793   2.683  0.3350 -0.0939 -0.5197
 1475SOL    MW4 5900   0.462   1.713   2.717 -0.0985  0.0705 -0.0447
 1476SOL     OW 5901   0.425   1.965   2.648  0.5096 -0.1766  0.1782
 1476SOL    HW2 5902   0.501   2.007   2.688  0.1705 -0.5153  1.1732
 1476SOL    HW3 5903   0.448   1.958   2.555  2.0947 -1.1670  0.6283
 1476SOL    MW4 5904   0.438   1.970   2.641  0.6740 -0.3520  0.3688
 1477SOL     OW 5905   0.657   2.052   2.774 -0.3577 -0.4830 -0.1839
 1477SOL    HW2 5906   0.652   2.043   2.869  1.5105 -0.2217 -0.0315
 1477SOL    HW3 5907   0.741   2.011   2.750 -0.4175  0.1707 -1.6090
 1477SOL    MW4 5908   0.668   2.045   2.783 -0.1191 -0.3623 -0.3518
 1478SOL     OW 5909   0.651   2.315   2.658 -0.0324  0.2361 -0.2221
 1478SOL    HW2 5910   0.729   2.363   2.688 -0.4414  0.3504  0.7055
 1478SOL    HW3 5911   0.663   2.227   2.693 -0.4655  0.3389  0.1854
 1478SOL    MW4 5912   0.663   2.310   2.667 -0.1435  0.2647 -0.0460
 1479SOL     OW 5913   0.431   2.452   2.747 -0.8350  0.0667 -0.5799
 1479SOL    HW2 5914   0.438   2.539   2.709 -0.4649 -0.0013 -0.6663
 1479SOL    HW3 5915   0.509   2.406   2.717 -0.9642 -0.2533 -0.4287
 1479SOL    MW4 5916   0.442   2.457   2.738 -0.8032  0.0155 -0.5714
 1480SOL     OW 5917   0.453   2.705   2.647  0.3741 -0.1408  0.0828
 1480SOL    HW2 5918   0.527   2.758   2.678  0.4767 -1.2187  1.7524
 1480SOL    HW3 5919   0.376   2.757   2.670  0.5285 -0.1103  0.5470
 1480SOL    MW4 5920   0.453   2.719   2.654  0.4080 -0.2790  0.3644
 1481SOL     OW 5921   0.679   2.800   2.750  0.0034 -0.0984 -0.2148
 1481SOL    HW2 5922   0.671   2.791   2.845  1.2401 -0.5278 -0.1381
 1481SOL    HW3 5923   0.693   2.894   2.736 -1.3980  0.1410 -0.0802
 1481SOL    MW4 5924   0.680   2.811   2.761 -0.0183 -0.1234 -0.1869
 1482SOL     OW 5925   0.694   3.070   2.653  0.2721  0.2362 -0.2672
 1482SOL    HW2 5926   0.772   3.112   2.687  0.3056  0.9762 -1.2551
 1482SOL    HW3 5927   0.699   3.081   2.558 -1.7474  1.5542 -0.2523
 1482SOL    MW4 5928   0.705   3.077   2.645  0.0101  0.5077 -0.3956
 1483SOL     OW 5929   0.465   3.227   2.728 -0.3255  0.5346  0.1279
 1483SOL    HW2 5930   0.482   3.229   2.822 -1.1302  1.8121  0.2558
 1483SOL    HW3 5931   0.544   3.187   2.690 -0.1271 -0.2857  1.3579
 1483SOL    MW4 5932   0.478   3.222   2.735 -0.4055  0.5949  0.3071
 1484SOL     OW 5933   0.458   3.484   2.648 -0.0911  0.0079 -0.4491
 1484SOL    HW2 5934   0.466   3.391   2.670 -0.7877 -0.2929 -1.4502
 1484SOL    HW3 5935   0.473   3.488   2.554  1.1085  1.0640 -0.2237
 1484SOL    MW4 5936   0.461   3.473   2.638 -0.0247  0.1076 -0.5514
 1485SOL     OW 5937   0.668   3.604   2.765  0.1696 -0.3678 -0.0993
 1485SOL    HW2 5938   0.666   3.594   2.860 -0.0148  0.0345 -0.0609
 1485SOL    HW3 5939   0.587   3.563   2.734  0.5684 -1.1353 -0.1464
 1485SOL    MW4 5940   0.657   3.597   2.773  0.1979 -0.4160 -0.1005
 1486SOL     OW 5941   0.662   3.883   2.652  0.0207  0.0830  0.4118
 1486SOL    HW2 5942   0.580   3.917   2.687  0.7378  1.0656  1.1451
 1486SOL    HW3 5943   0.665   3.793   2.684 -0.4819  0.2277  0.8786
 1486SOL    MW4 5944   0.652   3.875   2.661  0.0490  0.2318  0.5702
 1487SOL     OW 5945   0.437   4.003   2.751 -0.1992  0.3895  0.1571
 1487SOL    HW2 5946   0.441   4.096   2.729  1.7272 -0.0524 -1.4552
 1487SOL    HW3 5947   0.355   3.973   2.711  0.3213  0.9076 -1.3272
 1487SOL    MW4 5948   0.426   4.011   2.743  0.1236  0.3995 -0.2514
 1488SOL     OW 5949   0.448   4.259   2.664 -0.4014  0.7164  0.1275
 1488SOL    HW2 5950   0.524   4.311   2.689 -0.8169  0.8328  1.1937
 1488SOL    HW3 5951   0.441   4.271   2.569  0.0773  1.8448  0.2212
 1488SOL    MW4 5952   0.457   4.268   2.654 -0.3931  0.8806  0.2805
 1489SOL     OW 5953   0.675   4.385   2.757 -0.4407 -0.5110 -0.1602
 1489SOL    HW2 5954   0.750   4.341   2.716 -0.8724 -0.9968 -0.4437
 1489SOL    HW3 5955   0.669   4.469   2.713 -0.1943 -0.5603 -0.2895
 1489SOL    MW4 5956   0.685   4.390   2.746 -0.4652 -0.5816 -0.2147
 1490SOL     OW 5957   1.122   4.627   2.684  0.0211  0.0553  0.1983
 1490SOL    HW2 5958   1.197   4.674   2.719 -0.5047  0.5893  0.6235
 1490SOL    HW3 5959   1.146   4.534   2.691  1.4476  0.2684 -1.5447
 1490SOL    MW4 5960   1.135   4.621   2.690  0.1399  0.1539  0.0245
 1491SOL     OW 5961   0.919   0.127   2.763  0.2662  0.2286 -0.1844
 1491SOL    HW2 5962   0.926   0.135   2.859  2.2948  0.3017 -0.3071
 1491SOL    HW3 5963   0.995   0.075   2.738 -0.1315  0.3912 -1.7876
 1491SOL    MW4 5964   0.930   0.121   2.773  0.4814  0.2597 -0.4121
 1492SOL     OW 5965   0.944   0.368   2.653 -0.1865  0.2997 -0.1897
 1492SOL    HW2 5966   0.928   0.281   2.689 -2.4176  0.7394 -0.0103
 1492SOL    HW3 5967   0.924   0.358   2.559 -1.5201  0.8650  0.0294
 1492SOL    MW4 5968   0.939   0.355   2.645 -0.6568  0.4323 -0.1371
 1493SOL     OW 5969   1.159   0.485   2.758 -0.6396  0.3341  0.5588
 1493SOL    HW2 5970   1.145   0.573   2.725  0.3972  0.5630  0.7022
 1493SOL    HW3 5971   1.082   0.436   2.731 -1.4851  1.4244  0.9700
 1493SOL    MW4 5972   1.147   0.490   2.750 -0.6144  0.5081  0.6320
 1494SOL     OW 5973   1.143   0.746   2.683 -0.1953 -0.0976 -0.0913
 1494SOL    HW2 5974   1.219   0.797   2.711  0.6292 -0.8782 -0.8524
 1494SOL    HW3 5975   1.147   0.747   2.587 -0.0274 -1.7772 -0.1206
 1494SOL    MW4 5976   1.153   0.753   2.674 -0.0644 -0.4222 -0.1956
 1495SOL     OW 5977   0.905   0.855   2.745  0.0595 -0.2659 -0.4345
 1495SOL    HW2 5978   0.894   0.860   2.840  0.4559 -1.5992 -0.3129
 1495SOL    HW3 5979   0.997   0.831   2.733  0.7675  2.6657 -1.2338
 1495SOL    MW4 5980   0.916   0.853   2.756  0.2052 -0.0550 -0.5239
 1496SOL     OW 5981   0.842   1.104   2.645  0.0238 -0.3706 -0.5273
 1496SOL    HW2 5982   0.863   1.014   2.670  1.9793 -0.0465 -0.9106
 1496SOL    HW3 5983   0.848   1.104   2.549 -1.6222 -0.2128 -0.6500
 1496SOL    MW4 5984   0.846   1.092   2.635  0.0646 -0.3070 -0.5941
 1497SOL     OW 5985   1.077   1.219   2.733  0.0277  0.5420 -0.0844
 1497SOL    HW2 5986   1.079   1.309   2.700 -0.2921  0.7990  0.5889
 1497SOL    HW3 5987   0.992   1.185   2.706 -1.2614  1.5447  2.5069
 1497SOL    MW4 5988   1.066   1.226   2.725 -0.1846  0.7082  0.3463
 1498SOL     OW 5989   1.096   1.515   2.626  0.9062  0.2156  0.5470
 1498SOL    HW2 5990   1.027   1.571   2.662 -1.1305 -0.5184 -2.0341
 1498SOL    HW3 5991   1.100   1.538   2.533  1.8209 -2.0553 -0.0193
 1498SOL    MW4 5992   1.087   1.525   2.618  0.7582 -0.1808  0.1317
 1499SOL     OW 5993   0.936   1.697   2.745  0.4014  0.2618  0.1537
 1499SOL    HW2 5994   0.941   1.702   2.840 -2.0778 -0.0424  0.3383
 1499SOL    HW3 5995   0.857   1.645   2.728 -0.2261  1.8801 -2.0610
 1499SOL    MW4 5996   0.926   1.691   2.755 -0.0085  0.4352 -0.1141
 1500SOL     OW 5997   0.885   1.945   2.641  0.4823 -0.2171 -0.1668
 1500SOL    HW2 5998   0.960   1.999   2.665 -0.1785  0.9465 -0.6766
 1500SOL    HW3 5999   0.899   1.862   2.687  2.3613 -0.2128 -0.6922
 1500SOL    MW4 6000   0.896   1.941   2.650  0.6430 -0.0630 -0.3034
 1501SOL     OW 6001   1.091   2.099   2.748 -0.3606 -0.2281  0.2299
 1501SOL    HW2 6002   1.170   2.051   2.725  0.1305 -0.3370  2.0722
 1501SOL    HW3 6003   1.090   2.175   2.689  0.9196 -0.4108 -0.0297
 1501SOL    MW4 6004   1.101   2.103   2.737 -0.1269 -0.2666  0.4387
 1502SOL     OW 6005   1.106   2.364   2.616  0.3458  0.2546  0.1668
 1502SOL    HW2 6006   1.190   2.400   2.645  0.5168  1.0118 -1.2225
 1502SOL    HW3 6007   1.115   2.356   2.521 -1.2795  0.6923 -0.0377
 1502SOL    MW4 6008   1.119   2.368   2.607  0.1539  0.4122 -0.0435
 1503SOL     OW 6009   0.870   2.439   2.752  0.3376  0.4347  0.6257
 1503SOL    HW2 6010   0.853   2.530   2.729  1.2420  0.7262  1.0888
 1503SOL    HW3 6011   0.952   2.417   2.708  0.2292 -0.0868  0.6807
 1503SOL    MW4 6012   0.879   2.448   2.743  0.4426  0.4043  0.6940
 1504SOL     OW 6013   0.899   2.697   2.623 -0.0334 -0.0715  0.0802
 1504SOL    HW2 6014   0.985   2.725   2.656 -0.0510  0.0184  0.0465
 1504SOL    HW3 6015   0.836   2.743   2.678 -0.0859  1.2760 -1.0794
 1504SOL    MW4 6016   0.902   2.707   2.635 -0.0426  0.1181 -0.0772
 1505SOL     OW 6017   1.130   2.798   2.723 -0.2425  0.7522 -0.4743
 1505SOL    HW2 6018   1.139   2.810   2.818  0.8714  1.5006 -0.6527
 1505SOL    HW3 6019   1.212   2.757   2.697 -1.9597 -2.6969 -0.6415
 1505SOL    MW4 6020   1.142   2.794   2.732 -0.3221  0.3959 -0.5199
 1506SOL     OW 6021   1.177   3.077   2.642 -0.2035  0.1353  0.3488
 1506SOL    HW2 6022   1.164   2.987   2.668 -1.6557  0.1892 -0.1646
 1506SOL    HW3 6023   1.173   3.075   2.546  1.3754  0.4999  0.2580
 1506SOL    MW4 6024   1.175   3.065   2.633 -0.1868  0.1905  0.2691
 1507SOL     OW 6025   0.900   3.209   2.765 -0.1373  0.0462 -0.1192
 1507SOL    HW2 6026   0.897   3.302   2.742  0.1338  0.4005  1.2415
 1507SOL    HW3 6027   0.983   3.178   2.728 -0.4277  0.2305 -0.9454
 1507SOL    MW4 6028   0.911   3.217   2.757 -0.1399  0.1173 -0.0487
 1508SOL     OW 6029   0.887   3.462   2.668  0.0000  0.0000  0.3194
 1508SOL    HW2 6030   0.961   3.509   2.708  0.0000  0.0000  0.2819
 1508SOL    HW3 6031   0.810   3.512   2.697  0.0000  0.0000  0.3571
 1508SOL    MW4 6032   0.887   3.475   2.678  0.0000  0.0000  0.3194
 1509SOL     OW 6033   1.102   3.599   2.755  0.0000  0.0000  0.0388
 1509SOL    HW2 6034   1.101   3.626   2.847  0.0000  0.0000  0.0389
 1509SOL    HW3 6035   1.100   3.681   2.706  0.0000  0.0000  0.0395
 1509SOL    MW4 6036   1.102   3.613   2.760  0.0000  0.0000  0.0389
 1510SOL     OW 6037   1.098   3.851   2.630  0.0000  0.0000 -0.1353
 1510SOL    HW2 6038   1.178   3.889   2.668  0.0000  0.0000 -0.1322
 1510SOL    HW3 6039   1.110   3.859   2.536  0.0000  0.0000 -0.1349
 1510SOL    MW4 6040   1.110   3.857   2.623  0.0000  0.0000 -0.1348
 1511SOL     OW 6041   0.893   4.008   2.748  0.0000  0.0000 -0.3357
 1511SOL    HW2 6042   0.957   3.963   2.693  0.0000  0.0000 -0.3212
 1511SOL    HW3 6043   0.809   3.969   2.722  0.0000  0.0000 -0.3467
 1511SOL    MW4 6044   0.890   3.997   2.737  0.0000  0.0000 -0.3352
 1512SOL     OW 6045   0.888   4.266   2.661  0.0000  0.0000  0.3107
 1512SOL    HW2 6046   0.892   4.173   2.686  0.0000  0.0000  0.3091
 1512SOL    HW3 6047   0.884   4.265   2.565  0.0000  0.0000  0.3107
 1512SOL    MW4 6048   0.888   4.254   2.652  0.0000  0.0000  0.3105
 1513SOL     OW 6049   1.144   4.351   2.768  0.0000  0.0000  0.8073
 1513SOL    HW2 6050   1.137   4.378   2.860  0.0000  0.0000  0.8091
 1513SOL    HW3 6051   1.055   4.327   2.743  0.0000  0.0000  0.8176
 1513SOL    MW4 6052   1.131   4.351   2.777  0.0000  0.0000  0.8089
 1514SOL     OW 6053   1.593   4.643   2.610  0.0000  0.0000  0.0378
 1514SOL    HW2 6054   1.588   4.549   2.626  0.0000  0.0000  0.0325
 1514SOL    HW3 6055   1.581   4.652   2.515  0.0000  0.0000  0.0389
 1514SOL    MW4 6056   1.591   4.632   2.599  0.0000  0.0000  0.0372
 1515SOL     OW 6057   1.351   0.086   2.757  0.0000  0.0000 -0.1309
 1515SOL    HW2 6058   1.350   0.171   2.712  0.0000  0.0000 -0.1170
 1515SOL    HW3 6059   1.437   0.049   2.735  0.0000  0.0000 -0.1560
 1515SOL    MW4 6060   1.362   0.092   2.748  0.0000  0.0000 -0.1323
 1516SOL     OW 6061   1.360   0.344   2.644  0.0000  0.0000 -0.1647
 1516SOL    HW2 6062   1.437   0.387   2.682  0.0000  0.0000 -0.1367
 1516SOL    HW3 6063   1.286   0.396   2.678  0.0000  0.0000 -0.1989
 1516SOL    MW4 6064   1.360   0.357   2.654  0.0000  0.0000 -0.1655
 1517SOL     OW 6065   1.554   0.497   2.765 -0.1019 -0.6522 -0.3434
 1517SOL    HW2 6066   1.623   0.454   2.714 -0.8362 -1.6502 -0.5068
 1517SOL    HW3 6067   1.547   0.584   2.727  0.6818 -0.7385 -0.7007
 1517SOL    MW4 6068   1.562   0.502   2.753 -0.0954 -0.7952 -0.4121
 1518SOL     OW 6069   1.556   0.733   2.639 -0.0585 -0.4876 -0.1356
 1518SOL    HW2 6070   1.478   0.778   2.670  0.3864 -0.4073  0.9053
 1518SOL    HW3 6071   1.554   0.743   2.544  0.7256  2.9013  0.1434
 1518SOL    MW4 6072   1.546   0.740   2.631  0.1036 -0.0299  0.0385
 1519SOL     OW 6073   1.357   0.863   2.776  0.1190  0.3096  0.1116
 1519SOL    HW2 6074   1.363   0.870   2.871  0.0261  0.7738  0.0877
 1519SOL    HW3 6075   1.347   0.954   2.746 -0.0043  0.1547 -0.3286
 1519SOL    MW4 6076   1.356   0.876   2.784  0.0905  0.3504  0.0504
 1520SOL     OW 6077   1.330   1.121   2.661 -0.3664 -0.2758  0.1138
 1520SOL    HW2 6078   1.383   1.190   2.700 -0.6792 -0.7157  1.3436
 1520SOL    HW3 6079   1.239   1.150   2.675 -0.5507 -1.7827  2.2733
 1520SOL    MW4 6080   1.325   1.134   2.668 -0.4320 -0.5326  0.5610
 1521SOL     OW 6081   1.535   1.291   2.738 -0.2281  0.2216 -0.1274
 1521SOL    HW2 6082   1.554   1.288   2.831  0.1128 -0.5543 -0.2175
 1521SOL    HW3 6083   1.603   1.237   2.698 -0.3932  0.5229 -0.8201
 1521SOL    MW4 6084   1.546   1.284   2.745 -0.2049  0.1590 -0.2307
 1522SOL     OW 6085   1.517   1.554   2.660 -0.0134  0.7381  0.1475
 1522SOL    HW2 6086   1.517   1.464   2.691  0.4496  1.1565  1.3650
 1522SOL    HW3 6087   1.531   1.546   2.565  0.4484 -0.4436  0.3042
 1522SOL    MW4 6088   1.519   1.541   2.651  0.1086  0.6374  0.3288
 1523SOL     OW 6089   1.295   1.686   2.721 -0.1164 -0.0410 -0.1616
 1523SOL    HW2 6090   1.377   1.640   2.702 -0.2108 -0.0601 -0.5225
 1523SOL    HW3 6091   1.226   1.624   2.698 -0.2266 -0.2778  0.7933
 1523SOL    MW4 6092   1.297   1.672   2.715 -0.1434 -0.0747 -0.0833
 1524SOL     OW 6093   1.310   1.954   2.655  0.3044 -0.2106  0.0289
 1524SOL    HW2 6094   1.299   1.860   2.670 -1.8643 -0.0963 -0.6149
 1524SOL    HW3 6095   1.317   1.962   2.560  0.1020  0.2924  0.0554
 1524SOL    MW4 6096   1.309   1.942   2.644 -0.0084 -0.1291 -0.0526
 1525SOL     OW 6097   1.569   2.059   2.731 -0.0410 -0.1555 -0.0737
 1525SOL    HW2 6098   1.638   2.013   2.684  1.2580  1.4361  0.2503
 1525SOL    HW3 6099   1.488   2.021   2.698  0.9454 -1.0311 -1.5152
 1525SOL    MW4 6100   1.567   2.048   2.721  0.2605 -0.0611 -0.2211
 1526SOL     OW 6101   1.553   2.298   2.597  0.6248  0.3830 -0.1677
 1526SOL    HW2 6102   1.623   2.351   2.637  1.0633  0.1530 -0.6375
 1526SOL    HW3 6103   1.552   2.217   2.648 -1.2070  1.5102  1.6882
 1526SOL    MW4 6104   1.562   2.295   2.609  0.4409  0.5014  0.0152
 1527SOL     OW 6105   1.349   2.435   2.731 -0.2630  0.0004 -0.0405
 1527SOL    HW2 6106   1.370   2.519   2.689 -1.5979  1.1722  1.5346
 1527SOL    HW3 6107   1.406   2.372   2.689  1.3174  1.8407 -0.7501
 1527SOL    MW4 6108   1.359   2.438   2.720 -0.2306  0.3978  0.0737
 1528SOL     OW 6109   1.356   2.699   2.600  0.8103 -0.1856 -0.0142
 1528SOL    HW2 6110   1.421   2.760   2.636 -0.0579  0.3005  0.7472
 1528SOL    HW3 6111   1.339   2.732   2.512  1.0744  0.0931  0.0352
 1528SOL    MW4 6112   1.363   2.711   2.593  0.7306 -0.0847  0.0928
 1529SOL     OW 6113   1.577   2.853   2.719  0.2364  0.2188 -0.4749
 1529SOL    HW2 6114   1.577   2.865   2.814 -1.6860 -1.5387 -0.2158
 1529SOL    HW3 6115   1.658   2.806   2.701  0.8767  1.0416  0.2198
 1529SOL    MW4 6116   1.587   2.848   2.729  0.0672  0.0955 -0.3491
 1530SOL     OW 6117   1.590   3.118   2.659 -0.0548  0.1115 -0.0922
 1530SOL    HW2 6118   1.666   3.155   2.704  0.0330  0.3578 -0.4387
 1530SOL    HW3 6119   1.585   3.028   2.690  0.0017  0.2767  0.4121
 1530SOL    MW4 6120   1.599   3.111   2.669 -0.0357  0.1658 -0.0714
 1531SOL     OW 6121   1.355   3.262   2.744 -0.0086 -0.3702 -0.1143
 1531SOL    HW2 6122   1.433   3.214   2.717  0.3837  0.4955 -0.5406
 1531SOL    HW3 6123   1.282   3.208   2.713  0.3573 -2.2777  2.1819
 1531SOL    MW4 6124   1.356   3.248   2.736  0.0915 -0.5076  0.1324
 1532SOL     OW 6125   1.325   3.507   2.603  0.4508  0.5642 -0.4024
 1532SOL    HW2 6126   1.350   3.418   2.629  0.6490  0.0206 -2.3990
 1532SOL    HW3 6127   1.251   3.529   2.660 -0.6981 -1.5483 -1.0183
 1532SOL    MW4 6128   1.318   3.498   2.614  0.3254  0.2137 -0.7471
 1533SOL     OW 6129   1.536   3.638   2.737  0.3754  0.4493 -0.3504
 1533SOL    HW2 6130   1.605   3.577   2.713  0.3718  0.3830 -0.1931
 1533SOL    HW3 6131   1.458   3.606   2.692  0.2239 -0.0376  0.2485
 1533SOL    MW4 6132   1.535   3.626   2.728  0.3550  0.3763 -0.2506
 1534SOL     OW 6133   1.568   3.890   2.651  0.3463  0.1150 -0.3872
 1534SOL    HW2 6134   1.496   3.935   2.696  0.9230 -0.1390  0.8242
 1534SOL    HW3 6135   1.565   3.801   2.685  1.1833  0.0832 -0.3915
 1534SOL    MW4 6136   1.558   3.884   2.662  0.5328  0.0773 -0.2279
 1535SOL     OW 6137   1.334   3.988   2.763 -0.1211  0.5001  0.0768
 1535SOL    HW2 6138   1.359   3.998   2.855  0.7757  1.4878 -0.2718
 1535SOL    HW3 6139   1.338   4.076   2.727 -0.0421  0.0541 -1.0165
 1535SOL    MW4 6140   1.338   4.001   2.771  0.0077  0.5716 -0.1135
 1536SOL     OW 6141   1.336   4.225   2.639  0.8028 -0.0411  0.0147
 1536SOL    HW2 6142   1.263   4.278   2.671  0.3395 -0.8488  0.3144
 1536SOL    HW3 6143   1.342   4.245   2.546 -0.2528 -0.5032 -0.1522
 1536SOL    MW4 6144   1.327   4.235   2.631  0.6024 -0.2087  0.0322
 1537SOL     OW 6145   1.562   4.383   2.694 -0.1468  0.3908  0.1727
 1537SOL    HW2 6146   1.578   4.384   2.788  1.1110  0.7887 -0.0274
 1537SOL    HW3 6147   1.484   4.330   2.683 -1.7003  2.2784  1.6567
 1537SOL    MW4 6148   1.554   4.376   2.705 -0.1858  0.6923  0.3421
 1538SOL     OW 6149   2.013   4.646   2.625  0.0862  0.1338 -0.0457
 1538SOL    HW2 6150   2.098   4.680   2.656 -0.1481 -0.7212  1.6089
 1538SOL    HW3 6151   2.012   4.666   2.532  2.7622 -1.1440 -0.3977
 1538SOL    MW4 6152   2.024   4.653   2.617  0.4084 -0.1476  0.1262
 1539SOL     OW 6153   1.800   0.105   2.726  0.1993  0.4346 -0.2809
 1539SOL    HW2 6154   1.880   0.060   2.699 -0.3980 -0.9349  0.1576
 1539SOL    HW3 6155   1.729   0.055   2.686 -0.5539  0.0107  1.5066
 1539SOL    MW4 6156   1.801   0.092   2.717  0.0211  0.1979  0.0128
 1540SOL     OW 6157   1.792   0.379   2.658 -0.2658 -0.0998  0.1861
 1540SOL    HW2 6158   1.866   0.423   2.699 -0.6512  0.2989  0.4672
 1540SOL    HW3 6159   1.810   0.286   2.669  0.5027 -0.0156 -0.3108
 1540SOL    MW4 6160   1.804   0.373   2.665 -0.2153 -0.0361  0.1577
 1541SOL     OW 6161   2.034   0.506   2.761  0.5177  0.1973  0.0092
 1541SOL    HW2 6162   2.106   0.468   2.710  0.2629 -0.4549  0.1327
 1541SOL    HW3 6163   2.018   0.591   2.720  0.2305 -0.3696 -1.0881
 1541SOL    MW4 6164   2.041   0.512   2.749  0.4461  0.0365 -0.1193
 1542SOL     OW 6165   2.001   0.766   2.636 -0.1689 -0.3341 -0.1483
 1542SOL    HW2 6166   1.923   0.812   2.667  0.0377  0.1911 -0.3887
 1542SOL    HW3 6167   1.987   0.756   2.542  0.1494 -0.0347 -0.2309
 1542SOL    MW4 6168   1.989   0.771   2.628 -0.0996 -0.2253 -0.1909
 1543SOL     OW 6169   1.768   0.892   2.733  0.0249  0.3615 -0.1547
 1543SOL    HW2 6170   1.749   0.979   2.698 -1.1896  0.2561  0.2382
 1543SOL    HW3 6171   1.702   0.835   2.695  0.1997 -0.2109  0.3768
 1543SOL    MW4 6172   1.757   0.896   2.724 -0.1122  0.2721 -0.0328
 1544SOL     OW 6173   1.748   1.138   2.631  0.4358  0.3988  0.2881
 1544SOL    HW2 6174   1.828   1.180   2.662  0.4336  0.4514  0.2230
 1544SOL    HW3 6175   1.761   1.130   2.536  0.2680  0.6120  0.2473
 1544SOL    MW4 6176   1.760   1.142   2.622  0.4134  0.4339  0.2742
 1545SOL     OW 6177   1.974   1.269   2.724  0.2000 -0.4908  0.0522
 1545SOL    HW2 6178   1.978   1.256   2.819  1.7003  0.0967  0.0741
 1545SOL    HW3 6179   2.040   1.209   2.689  0.5533  0.2325 -0.5210
 1545SOL    MW4 6180   1.983   1.260   2.732  0.4446 -0.3178 -0.0205
 1546SOL     OW 6181   1.992   1.554   2.683  0.0665  0.0852 -0.2176
 1546SOL    HW2 6182   1.905   1.592   2.692  0.1673  0.3132 -0.2083
 1546SOL    HW3 6183   1.983   1.464   2.715 -0.4990 -0.3417 -1.5746
 1546SOL    MW4 6184   1.980   1.547   2.689  0.0052  0.0589 -0.3954
 1547SOL     OW 6185   1.749   1.691   2.726  0.4924  0.3838  0.3075
 1547SOL    HW2 6186   1.753   1.694   2.821 -0.1755 -1.1135  0.3878
 1547SOL    HW3 6187   1.667   1.645   2.706  0.4439  0.9961 -0.9873
 1547SOL    MW4 6188   1.739   1.685   2.736  0.3979  0.2671  0.1473
 1548SOL     OW 6189   1.789   1.939   2.600  0.0571  0.3494  0.2468
 1548SOL    HW2 6190   1.867   1.978   2.640 -0.1018  0.4249  0.4784
 1548SOL    HW3 6191   1.773   1.859   2.650 -0.5098  0.7672  0.7357
 1548SOL    MW4 6192   1.797   1.934   2.612 -0.0387  0.4145  0.3419
 1549SOL     OW 6193   2.026   2.047   2.701  0.1446 -0.3265 -0.0877
 1549SOL    HW2 6194   2.020   2.043   2.796 -0.5795 -1.3012 -0.1662
 1549SOL    HW3 6195   2.017   2.140   2.680 -0.3326 -0.1821  0.7466
 1549SOL    MW4 6196   2.024   2.059   2.710 -0.0139 -0.4361  0.0120
 1550SOL     OW 6197   1.994   2.308   2.615 -0.0571 -0.1243  0.1907
 1550SOL    HW2 6198   2.066   2.365   2.642 -0.2867  0.0380  0.4782
 1550SOL    HW3 6199   2.004   2.298   2.521 -0.0640  0.4682  0.1255
 1550SOL    MW4 6200   2.005   2.315   2.606 -0.0883 -0.0247  0.2200
 1551SOL     OW 6201   1.756   2.439   2.729  0.1257  0.2072 -0.2608
 1551SOL    HW2 6202   1.772   2.429   2.823  0.1752 -0.0389 -0.2957
 1551SOL    HW3 6203   1.833   2.401   2.687 -0.1574 -0.2062 -0.4111
 1551SOL    MW4 6204   1.768   2.432   2.736  0.0949  0.1202 -0.2852
 1552SOL     OW 6205   1.798   2.725   2.662 -0.0194 -0.0472  0.2926
 1552SOL    HW2 6206   1.770   2.636   2.680 -0.0924 -0.0180  0.3233
 1552SOL    HW3 6207   1.824   2.724   2.569  0.7860 -0.3102  0.5152
 1552SOL    MW4 6208   1.798   2.713   2.652  0.0772 -0.0781  0.3260
 1553SOL     OW 6209   2.011   2.825   2.795  0.3933  0.2529  0.2352
 1553SOL    HW2 6210   2.074   2.792   2.731  0.1327  0.7350 -0.2702
 1553SOL    HW3 6211   1.926   2.796   2.763  0.2980  0.1312  0.5928
 1553SOL    MW4 6212   2.008   2.817   2.783  0.3464  0.3004  0.2157
 1554SOL     OW 6213   2.019   3.097   2.684  0.1578  0.0557 -0.4426
 1554SOL    HW2 6214   2.001   3.006   2.709 -1.2895  0.5687  0.4776
 1554SOL    HW3 6215   2.011   3.097   2.588 -1.6811 -0.4480 -0.3255
 1554SOL    MW4 6216   2.015   3.085   2.674 -0.2758  0.0569 -0.3057
 1555SOL     OW 6217   1.807   3.259   2.775  0.4066  0.4031 -0.0696
 1555SOL    HW2 6218   1.811   3.342   2.727  1.6662  0.0326 -0.6243
 1555SOL    HW3 6219   1.879   3.207   2.739 -1.4183 -1.5713 -0.9252
 1555SOL    MW4 6220   1.817   3.263   2.764  0.3320  0.0937 -0.2557
 1556SOL     OW 6221   1.780   3.497   2.638 -0.4478 -0.0626  0.6138
 1556SOL    HW2 6222   1.866   3.536   2.656  0.0796 -0.7279 -0.4476
 1556SOL    HW3 6223   1.775   3.493   2.543 -1.1303 -1.2382  0.6982
 1556SOL    MW4 6224   1.790   3.502   2.628 -0.4683 -0.3055  0.4849
 1557SOL     OW 6225   2.033   3.604   2.666 -0.1370 -0.2665  0.3443
 1557SOL    HW2 6226   2.039   3.599   2.761 -0.1909  1.6228  0.4572
 1557SOL    HW3 6227   2.114   3.562   2.635  0.1282 -0.4110  1.2203
 1557SOL    MW4 6228   2.045   3.597   2.674 -0.1091 -0.0363  0.4747
 1558SOL     OW 6229   2.030   3.868   2.612 -0.3221  0.4879  0.5137
 1558SOL    HW2 6230   1.945   3.898   2.643 -0.1784  0.5027  0.8972
 1558SOL    HW3 6231   2.030   3.774   2.631 -0.0083  0.5986  1.0949
 1558SOL    MW4 6232   2.019   3.859   2.619 -0.2617  0.5045  0.6410
 1559SOL     OW 6233   1.807   4.000   2.732 -0.3092 -0.3562  0.2398
 1559SOL    HW2 6234   1.804   4.082   2.682 -0.8588  1.9282  3.7804
 1559SOL    HW3 6235   1.725   3.955   2.709 -0.6851  0.7632 -0.6712
 1559SOL    MW4 6236   1.795   4.005   2.722 -0.4313  0.0929  0.5868
 1560SOL     OW 6237   1.797   4.265   2.597  0.5515  0.1243 -0.0056
 1560SOL    HW2 6238   1.719   4.308   2.631  0.9808  0.1372  0.9801
 1560SOL    HW3 6239   1.784   4.262   2.503 -1.2045 -0.9442  0.2479
 1560SOL    MW4 6240   1.785   4.270   2.589  0.3765 -0.0150  0.1579
 1561SOL     OW 6241   2.036   4.379   2.730  0.5781  0.0072  0.5432
 1561SOL    HW2 6242   1.958   4.347   2.687  0.0211  0.2698  1.3427
 1561SOL    HW3 6243   2.050   4.466   2.693  0.3517  0.0546  0.5667
 1561SOL    MW4 6244   2.028   4.386   2.720  0.4748  0.0481  0.6518
 1562SOL     OW 6245   2.457   4.640   2.605  0.1257 -0.6299  0.6218
 1562SOL    HW2 6246   2.534   4.677   2.649  0.5458  1.0026 -1.3974
 1562SOL    HW3 6247   2.475   4.652   2.512 -3.3452  1.4162  0.1317
 1562SOL    MW4 6248   2.470   4.646   2.599 -0.2768 -0.1446  0.2907
 1563SOL     OW 6249   2.246   0.109   2.703 -0.0534  0.1304  0.0765
 1563SOL    HW2 6250   2.265   0.122   2.796  0.6975  1.9397 -0.3033
 1563SOL    HW3 6251   2.327   0.074   2.667 -0.4122 -0.7693  0.1288
 1563SOL    MW4 6252   2.259   0.106   2.711 -0.0017  0.2504  0.0333
 1564SOL     OW 6253   2.253   0.383   2.641 -0.1085  0.0851  0.0961
 1564SOL    HW2 6254   2.241   0.290   2.659  2.1976 -0.2667 -0.0203
 1564SOL    HW3 6255   2.275   0.387   2.548  0.2669  0.6790  0.2085
 1564SOL    MW4 6256   2.255   0.371   2.631  0.2453  0.1170  0.0955
 1565SOL     OW 6257   2.471   0.533   2.742  0.1743 -0.3212 -0.3358
 1565SOL    HW2 6258   2.472   0.607   2.681  0.5171  0.1486  0.2446
 1565SOL    HW3 6259   2.398   0.479   2.712 -0.7295  0.7703 -0.1348
 1565SOL    MW4 6260   2.462   0.535   2.730  0.1003 -0.1152 -0.2327
 1566SOL     OW 6261   2.487   0.776   2.617  0.1523 -0.2305  0.1640
 1566SOL    HW2 6262   2.409   0.810   2.661  0.4114  0.1864  0.3046
 1566SOL    HW3 6263   2.467   0.783   2.524  1.9092  4.4915  0.0205
 1566SOL    MW4 6264   2.474   0.782   2.611  0.4183  0.4475  0.1636
 1567SOL     OW 6265   2.254   0.865   2.717 -0.1517 -0.1930 -0.1415
 1567SOL    HW2 6266   2.250   0.855   2.812  0.3988 -0.1046 -0.1080
 1567SOL    HW3 6267   2.167   0.838   2.687 -1.1322  1.9718  0.5777
 1567SOL    MW4 6268   2.242   0.860   2.726 -0.2085  0.1042 -0.0422
 1568SOL     OW 6269   2.184   1.118   2.639 -0.7036 -0.7207 -0.0804
 1568SOL    HW2 6270   2.216   1.030   2.661  1.7438  0.2809  0.5235
 1568SOL    HW3 6271   2.208   1.129   2.547  1.4879  0.3254  0.5792
 1568SOL    MW4 6272   2.192   1.107   2.630 -0.0916 -0.4505  0.0863
 1569SOL     OW 6273   2.423   1.254   2.723  0.1266  0.2715  0.1532
 1569SOL    HW2 6274   2.503   1.212   2.693  0.3947  0.2168  0.9194
 1569SOL    HW3 6275   2.352   1.195   2.696  0.4704 -0.4839  0.8817
 1569SOL    MW4 6276   2.424   1.241   2.716  0.2074  0.1646  0.3504
 1570SOL     OW 6277   2.426   1.519   2.625 -0.2525 -0.0328 -0.3393
 1570SOL    HW2 6278   2.351   1.561   2.666  0.4505  0.4220  0.5068
 1570SOL    HW3 6279   2.422   1.428   2.654  0.3000  0.3115  0.8475
 1570SOL    MW4 6280   2.416   1.513   2.634 -0.0869  0.0726 -0.0711
 1571SOL     OW 6281   2.237   1.654   2.768 -0.0469  0.9526 -0.1897
 1571SOL    HW2 6282   2.242   1.746   2.742  0.2953  0.8220 -0.5814
 1571SOL    HW3 6283   2.152   1.624   2.735 -0.1232  1.1013 -0.1304
 1571SOL    MW4 6284   2.226   1.663   2.760 -0.0118  0.9550 -0.2335
 1572SOL     OW 6285   2.269   1.905   2.652 -0.0553 -0.8582 -0.0032
 1572SOL    HW2 6286   2.183   1.947   2.656 -0.6128 -1.9240 -0.5576
 1572SOL    HW3 6287   2.291   1.903   2.559  1.5929  1.3911  0.2769
 1572SOL    MW4 6288   2.261   1.910   2.641  0.0886 -0.7021 -0.0394
 1573SOL     OW 6289   2.485   2.044   2.737  0.1826  0.4455 -0.4306
 1573SOL    HW2 6290   2.460   2.136   2.727 -1.0197  0.3912  1.5789
 1573SOL    HW3 6291   2.410   1.995   2.702  0.9897  0.2105 -1.8646
 1573SOL    MW4 6292   2.472   2.049   2.731  0.1305  0.4073 -0.3547
 1574SOL     OW 6293   2.425   2.285   2.640 -0.0637  0.3491  0.1376
 1574SOL    HW2 6294   2.503   2.326   2.679  0.1328  1.0065 -0.9392
 1574SOL    HW3 6295   2.441   2.289   2.546 -0.7217 -0.8751 -0.0313
 1574SOL    MW4 6296   2.438   2.291   2.633 -0.1246  0.2744 -0.0268
 1575SOL     OW 6297   2.208   2.446   2.719  0.1098 -0.8359 -0.1499
 1575SOL    HW2 6298   2.204   2.426   2.812 -0.4526 -0.2123 -0.0316
 1575SOL    HW3 6299   2.283   2.397   2.686  1.3257  0.2443  0.9609
 1575SOL    MW4 6300   2.217   2.437   2.727  0.1960 -0.6111  0.0123
 1576SOL     OW 6301   2.224   2.713   2.633 -0.1072 -0.0331  0.0775
 1576SOL    HW2 6302   2.305   2.747   2.671 -1.6358  0.8483  2.6513
 1576SOL    HW3 6303   2.225   2.619   2.655  0.5118 -0.1401 -0.4202
 1576SOL    MW4 6304   2.235   2.705   2.641 -0.2272  0.0691  0.3514
 1577SOL     OW 6305   2.475   2.802   2.759  0.5992  0.0642  0.3036
 1577SOL    HW2 6306   2.534   2.745   2.709 -1.6042 -1.1567 -0.9540
 1577SOL    HW3 6307   2.486   2.888   2.718  1.8840 -0.0372  0.4069
 1577SOL    MW4 6308   2.484   2.806   2.747  0.4780 -0.1103  0.1513
 1578SOL     OW 6309   2.473   3.070   2.653 -1.2271 -0.2864 -0.0181
 1578SOL    HW2 6310   2.394   3.115   2.681 -1.4281  0.2482 -1.3772
 1578SOL    HW3 6311   2.464   3.063   2.558  0.6079  0.2566 -0.2599
 1578SOL    MW4 6312   2.461   3.075   2.644 -1.0115 -0.1442 -0.2293
 1579SOL     OW 6313   2.249   3.226   2.738  0.2773  0.3830 -0.0501
 1579SOL    HW2 6314   2.267   3.211   2.830  0.5240  0.1565 -0.1338
 1579SOL    HW3 6315   2.171   3.172   2.720 -1.0605  2.0697  0.5286
 1579SOL    MW4 6316   2.241   3.217   2.748  0.1334  0.5757  0.0152
 1580SOL     OW 6317   2.278   3.491   2.595  0.0998 -0.3263 -0.1165
 1580SOL    HW2 6318   2.348   3.541   2.637  0.5840 -1.0215 -0.0828
 1580SOL    HW3 6319   2.278   3.407   2.641  0.0431 -0.7647 -0.9095
 1580SOL    MW4 6320   2.288   3.487   2.606  0.1562 -0.4758 -0.2167
 1581SOL     OW 6321   2.488   3.605   2.720 -0.7483  0.0592 -0.3621
 1581SOL    HW2 6322   2.460   3.609   2.812  0.8472 -0.0507  0.1418
 1581SOL    HW3 6323   2.492   3.697   2.693 -0.0870  0.1611  0.0482
 1581SOL    MW4 6324   2.485   3.618   2.729 -0.4505  0.0581 -0.2415
 1582SOL     OW 6325   2.514   3.850   2.606 -0.3842 -0.6658 -0.1298
 1582SOL    HW2 6326   2.584   3.900   2.647 -0.1019 -0.1803 -1.1953
 1582SOL    HW3 6327   2.434   3.894   2.634 -0.1568  0.1462 -0.7480
 1582SOL    MW4 6328   2.513   3.862   2.615 -0.3170 -0.4946 -0.3519
 1583SOL     OW 6329   2.278   3.965   2.707  0.0891 -0.1207  0.1497
 1583SOL    HW2 6330   2.266   3.970   2.802 -1.2756  1.6571 -0.1079
 1583SOL    HW3 6331   2.192   3.939   2.673  0.4596 -0.3211 -0.6438
 1583SOL    MW4 6332   2.265   3.962   2.715 -0.0421  0.0874  0.0110
 1584SOL     OW 6333   2.260   4.244   2.638 -0.2628 -0.3194  0.0530
 1584SOL    HW2 6334   2.251   4.152   2.664  0.4417 -0.0393  1.3022
 1584SOL    HW3 6335   2.178   4.285   2.666 -0.8631 -0.6827 -1.1022
 1584SOL    MW4 6336   2.248   4.237   2.645 -0.2491 -0.3304  0.0654
 1585SOL     OW 6337   2.470   4.394   2.736 -0.1098  0.0158  0.4772
 1585SOL    HW2 6338   2.390   4.345   2.718 -0.6476  1.0941 -0.1112
 1585SOL    HW3 6339   2.460   4.476   2.688  1.2450  0.2671  0.5911
 1585SOL    MW4 6340   2.459   4.399   2.728 -0.0020  0.1912  0.4146
 1586SOL     OW 6341   2.877   4.654   2.636 -0.0015  0.3755 -0.0626
 1586SOL    HW2 6342   2.935   4.695   2.700  1.8668 -2.3916  0.1265
 1586SOL    HW3 6343   2.928   4.654   2.555 -0.9765  0.7196 -0.6758
 1586SOL    MW4 6344   2.892   4.659   2.634  0.1163  0.0558 -0.1185
 1587SOL     OW 6345   2.670   0.134   2.723  0.1339  0.0631 -0.0566
 1587SOL    HW2 6346   2.684   0.144   2.817  0.8328  1.3921 -0.2854
 1587SOL    HW3 6347   2.745   0.083   2.692 -1.5973 -2.9435  0.5487
 1587SOL    MW4 6348   2.682   0.129   2.731 -0.0023 -0.1582 -0.0069
 1588SOL     OW 6349   2.674   0.384   2.609  0.1548 -0.1743 -0.0566
 1588SOL    HW2 6350   2.684   0.295   2.643  0.1275  0.6805  2.3019
 1588SOL    HW3 6351   2.601   0.421   2.659 -0.0968  1.0444 -1.2839
 1588SOL    MW4 6352   2.665   0.377   2.620  0.1180  0.0993  0.0927
 1589SOL     OW 6353   2.902   0.507   2.729  0.0620  1.2030 -0.1479
 1589SOL    HW2 6354   2.923   0.589   2.685 -0.3302  0.5854 -1.4892
 1589SOL    HW3 6355   2.827   0.471   2.681  0.1549  0.1048  0.4962
 1589SOL    MW4 6356   2.895   0.513   2.717  0.0225  0.9767 -0.2399
 1590SOL     OW 6357   2.947   0.777   2.604  0.1493 -0.2061  0.0110
 1590SOL    HW2 6358   3.023   0.823   2.640 -0.4427 -0.3549  1.4630
 1590SOL    HW3 6359   2.872   0.817   2.648 -0.8318  1.5081 -3.0227
 1590SOL    MW4 6360   2.947   0.788   2.614 -0.0582  0.0004 -0.1977
 1591SOL     OW 6361   2.729   0.889   2.712 -0.2702  0.3600  0.3804
 1591SOL    HW2 6362   2.714   0.891   2.806 -0.2308 -1.5994  0.4556
 1591SOL    HW3 6363   2.648   0.854   2.675  0.9516 -2.2817  0.0519
 1591SOL    MW4 6364   2.717   0.884   2.720 -0.1038 -0.2471  0.3470
 1592SOL     OW 6365   2.654   1.153   2.636 -0.0193 -0.2045 -0.1541
 1592SOL    HW2 6366   2.717   1.204   2.687 -0.1138  0.9572 -1.1871
 1592SOL    HW3 6367   2.673   1.062   2.660  2.0030  0.1276 -0.3706
 1592SOL    MW4 6368   2.665   1.148   2.646  0.2351 -0.0074 -0.3190
 1593SOL     OW 6369   2.894   1.283   2.740  0.3108 -0.2096 -0.6246
 1593SOL    HW2 6370   2.907   1.276   2.834  0.9035  1.7268 -0.5541
 1593SOL    HW3 6371   2.969   1.235   2.702  0.2626 -0.6837 -0.1272
 1593SOL    MW4 6372   2.906   1.276   2.747  0.3826 -0.0167 -0.5497
 1594SOL     OW 6373   2.933   1.535   2.650  0.1323  0.1882 -0.1462
 1594SOL    HW2 6374   2.858   1.587   2.679  0.3221 -0.3922  1.4361
 1594SOL    HW3 6375   2.920   1.450   2.691  0.7264 -0.4732 -1.3322
 1594SOL    MW4 6376   2.921   1.531   2.660  0.2357  0.0244 -0.0939
 1595SOL     OW 6377   2.658   1.665   2.715 -0.6781  0.0137  0.0686
 1595SOL    HW2 6378   2.647   1.653   2.810 -1.5014 -1.2441 -0.1749
 1595SOL    HW3 6379   2.582   1.623   2.676 -0.6295  1.0244 -1.1408
 1595SOL    MW4 6380   2.647   1.658   2.723 -0.7804 -0.0189 -0.1231
 1596SOL     OW 6381   2.705   1.929   2.611 -0.5107 -0.0873  0.0205
 1596SOL    HW2 6382   2.703   1.847   2.661 -0.2315 -0.4269 -0.5091
 1596SOL    HW3 6383   2.631   1.979   2.643 -2.1448 -1.5776 -1.3595
 1596SOL    MW4 6384   2.695   1.925   2.622 -0.6894 -0.3287 -0.2314
 1597SOL     OW 6385   2.950   2.084   2.695  0.7328  0.1140  0.7960
 1597SOL    HW2 6386   2.921   2.172   2.673  0.4016 -0.1184  0.3076
 1597SOL    HW3 6387   2.877   2.027   2.672  1.4816 -0.4517 -0.2298
 1597SOL    MW4 6388   2.937   2.088   2.689  0.7879  0.0087  0.5962
 1598SOL     OW 6389   2.902   2.341   2.568 -0.6678 -0.2405 -0.4514
 1598SOL    HW2 6390   2.978   2.371   2.617 -0.4115  0.2654 -1.1468
 1598SOL    HW3 6391   2.827   2.363   2.623 -0.4572  1.2674 -0.7335
 1598SOL    MW4 6392   2.902   2.348   2.582 -0.6062  0.0252 -0.5804
 1599SOL     OW 6393   2.675   2.397   2.717  0.1473  0.4603 -0.0971
 1599SOL    HW2 6394   2.682   2.397   2.813 -0.7390  1.0581 -0.0325
 1599SOL    HW3 6395   2.655   2.487   2.694  2.2157  0.7165 -0.9992
 1599SOL    MW4 6396   2.673   2.409   2.727  0.3033  0.5729 -0.2076
 1600SOL     OW 6397   2.651   2.648   2.616  0.2360  0.1500  0.2027
 1600SOL    HW2 6398   2.732   2.677   2.658  0.4038  1.3287 -0.9293
 1600SOL    HW3 6399   2.660   2.674   2.525 -1.6527  0.7726  0.1789
 1600SOL    MW4 6400   2.663   2.655   2.610  0.0090  0.3876  0.0502
 1601SOL     OW 6401   2.891   2.779   2.739 -0.1448 -0.0615  0.1056
 1601SOL    HW2 6402   2.904   2.790   2.833 -0.2199  0.0729  0.0993
 1601SOL    HW3 6403   2.904   2.866   2.702 -0.6179 -0.0115  0.0478
 1601SOL    MW4 6404   2.894   2.792   2.746 -0.2171 -0.0372  0.0972
 1602SOL     OW 6405   2.931   3.047   2.655  0.1519  0.4741 -0.2066
 1602SOL    HW2 6406   2.858   3.102   2.686  0.4225  0.7851 -0.1219
 1602SOL    HW3 6407   2.919   3.044   2.560  1.2401  2.2601 -0.4171
 1602SOL    MW4 6408   2.920   3.054   2.647  0.3312  0.7508 -0.2232
 1603SOL     OW 6409   2.721   3.210   2.738  0.2812 -0.1608  0.3014
 1603SOL    HW2 6410   2.719   3.300   2.707  0.2667 -0.5716 -0.8952
 1603SOL    HW3 6411   2.637   3.173   2.711  0.3379 -0.5785  0.6778
 1603SOL    MW4 6412   2.709   3.217   2.731  0.2868 -0.2701  0.1932
 1604SOL     OW 6413   2.703   3.465   2.631  0.5325  0.1881 -0.4189
 1604SOL    HW2 6414   2.620   3.508   2.654 -0.2650 -1.4525 -0.1408
 1604SOL    HW3 6415   2.707   3.470   2.536 -0.7221 -1.1594 -0.5724
 1604SOL    MW4 6416   2.693   3.471   2.622  0.2618 -0.2062 -0.4024
 1605SOL     OW 6417   2.931   3.621   2.730 -0.6293  0.2723  0.5441
 1605SOL    HW2 6418   2.936   3.607   2.825  0.9244  1.1088  0.5961
 1605SOL    HW3 6419   2.860   3.563   2.701 -1.3718  0.3056  2.2687
 1605SOL    MW4 6420   2.923   3.611   2.739 -0.5223  0.3871  0.7785
 1606SOL     OW 6421   2.881   3.859   2.625  0.6198  0.0508  0.2643
 1606SOL    HW2 6422   2.960   3.907   2.650  0.7427  0.9342 -1.7790
 1606SOL    HW3 6423   2.891   3.773   2.667  1.9069  0.6845  1.2950
 1606SOL    MW4 6424   2.893   3.854   2.634  0.8058  0.2509  0.1307
 1607SOL     OW 6425   2.693   4.000   2.758 -0.7636 -0.2099 -0.5266
 1607SOL    HW2 6426   2.692   4.087   2.717  2.6049  0.8956  1.5309
 1607SOL    HW3 6427   2.768   3.956   2.717  0.1768 -0.5377  1.4983
 1607SOL    MW4 6428   2.703   4.006   2.747 -0.1951 -0.1073  0.0120
 1608SOL     OW 6429   2.679   4.239   2.648 -0.2692 -0.0009  0.1801
 1608SOL    HW2 6430   2.753   4.295   2.673 -0.6247  0.8842 -0.7118
 1608SOL    HW3 6431   2.602   4.286   2.680 -0.5087 -0.4499  0.2587
 1608SOL    MW4 6432   2.679   4.253   2.656 -0.3477  0.0566  0.0728
 1609SOL     OW 6433   2.923   4.397   2.727 -0.2928  0.1491 -0.7122
 1609SOL    HW2 6434   2.917   4.398   2.823 -0.6130  0.4416 -0.7355
 1609SOL    HW3 6435   2.911   4.488   2.701  2.1830  0.4587 -0.8999
 1609SOL    MW4 6436   2.920   4.409   2.736 -0.0084  0.2285 -0.7401
 1610SOL     OW 6437   3.335   4.663   2.625 -0.2965  0.6090 -0.0490
 1610SOL    HW2 6438   3.351   4.571   2.649  0.6266  1.1004  1.2637
 1610SOL    HW3 6439   3.258   4.688   2.675  0.0925  0.8690  0.4211
 1610SOL    MW4 6440   3.327   4.654   2.635 -0.1234  0.7081  0.1862
 1611SOL     OW 6441   3.092   0.104   2.745  0.4071 -0.2266  0.2294
 1611SOL    HW2 6442   3.099   0.104   2.841 -1.4413  0.8907  0.3983
 1611SOL    HW3 6443   3.091   0.197   2.721 -0.6051 -0.4782 -0.7415
 1611SOL    MW4 6444   3.093   0.116   2.755  0.0297 -0.1124  0.1236
 1612SOL     OW 6445   3.129   0.368   2.667  0.5676 -0.0869  0.2339
 1612SOL    HW2 6446   3.061   0.429   2.694  0.7850  0.1152  0.3316
 1612SOL    HW3 6447   3.119   0.360   2.573 -1.1050 -1.8965  0.5299
 1612SOL    MW4 6448   3.119   0.375   2.659  0.3756 -0.2990  0.2859
 1613SOL     OW 6449   3.353   0.518   2.771  0.4725  0.1852  0.1835
 1613SOL    HW2 6450   3.364   0.592   2.711  2.4846 -0.7018 -0.5927
 1613SOL    HW3 6451   3.285   0.464   2.731  0.1044  0.8379 -0.0617
 1613SOL    MW4 6452   3.346   0.520   2.758  0.6894  0.1543  0.0488
 1614SOL     OW 6453   3.366   0.752   2.645 -0.3730  0.8022  0.1435
 1614SOL    HW2 6454   3.436   0.800   2.689  0.3429  1.2306 -1.4416
 1614SOL    HW3 6455   3.378   0.771   2.552 -2.7334  1.0598 -0.1413
 1614SOL    MW4 6456   3.377   0.761   2.639 -0.5900  0.8927 -0.1032
 1615SOL     OW 6457   3.156   0.901   2.754 -0.4208  0.2383 -0.3092
 1615SOL    HW2 6458   3.135   0.915   2.847 -0.0104 -0.7017 -0.0728
 1615SOL    HW3 6459   3.237   0.849   2.755 -0.7306 -0.2691 -1.1935
 1615SOL    MW4 6460   3.164   0.896   2.767 -0.4075  0.0473 -0.3947
 1616SOL     OW 6461   3.140   1.167   2.640  0.4644 -0.2167  0.0393
 1616SOL    HW2 6462   3.149   1.080   2.678  0.2095  0.4215  1.5924
 1616SOL    HW3 6463   3.152   1.153   2.546 -0.7123 -2.0990  0.1304
 1616SOL    MW4 6464   3.142   1.153   2.632  0.2755 -0.3808  0.2562
 1617SOL     OW 6465   3.363   1.290   2.737 -0.2872  0.7654  0.2667
 1617SOL    HW2 6466   3.366   1.281   2.832  0.5825  1.1133  0.2752
 1617SOL    HW3 6467   3.280   1.249   2.711 -0.4718  0.5770  1.1601
 1617SOL    MW4 6468   3.352   1.283   2.746 -0.1968  0.7865  0.3857
 1618SOL     OW 6469   3.376   1.557   2.641 -0.2762  0.0289 -0.0166
 1618SOL    HW2 6470   3.296   1.603   2.663 -0.6479  0.2655 -1.7968
 1618SOL    HW3 6471   3.364   1.469   2.678 -1.1360  0.2105  0.1371
 1618SOL    MW4 6472   3.364   1.551   2.649 -0.4386  0.0841 -0.2312
 1619SOL     OW 6473   3.148   1.683   2.734 -0.8591  0.4019 -0.3090
 1619SOL    HW2 6474   3.165   1.760   2.680 -1.8908  0.6574 -0.2661
 1619SOL    HW3 6475   3.081   1.634   2.686 -1.2961  0.2951  0.4066
 1619SOL    MW4 6476   3.142   1.687   2.720 -1.0529  0.4215 -0.2089
 1620SOL     OW 6477   3.168   1.923   2.618  0.7306 -0.4548  0.5478
 1620SOL    HW2 6478   3.249   1.974   2.623  0.1920  0.4852 -0.1951
 1620SOL    HW3 6479   3.099   1.986   2.637  0.0202 -0.7948 -0.8308
 1620SOL    MW4 6480   3.169   1.938   2.621  0.5658 -0.3756  0.2679
 1621SOL     OW 6481   3.412   2.034   2.672 -0.3239  0.4878  0.2388
 1621SOL    HW2 6482   3.391   2.035   2.766 -2.0650 -0.1776 -0.1294
 1621SOL    HW3 6483   3.424   2.126   2.650  0.7765  0.6051  1.2495
 1621SOL    MW4 6484   3.411   2.046   2.682 -0.4084  0.4155  0.3236
 1622SOL     OW 6485   3.394   2.315   2.661 -0.0977 -0.2232 -0.2034
 1622SOL    HW2 6486   3.471   2.359   2.696 -1.1323  0.9653  0.6461
 1622SOL    HW3 6487   3.386   2.347   2.571 -1.4408  2.2171  0.7331
 1622SOL    MW4 6488   3.403   2.325   2.654 -0.4114  0.2556  0.0322
 1623SOL     OW 6489   3.131   2.398   2.767 -0.3667  0.0979 -0.1144
 1623SOL    HW2 6490   3.148   2.477   2.717  0.8738  2.1588  3.4145
 1623SOL    HW3 6491   3.213   2.348   2.763 -0.1453  0.4382  0.1629
 1623SOL    MW4 6492   3.144   2.402   2.760 -0.1739  0.4147  0.3878
 1624SOL     OW 6493   3.146   2.647   2.634  0.5084  0.2707  0.1745
 1624SOL    HW2 6494   3.200   2.717   2.673 -0.4347  0.7088  0.7111
 1624SOL    HW3 6495   3.056   2.669   2.660  0.2093 -1.2182  0.4531
 1624SOL    MW4 6496   3.141   2.659   2.643  0.3445  0.1321  0.2821
 1625SOL     OW 6497   3.342   2.826   2.772 -0.1710  0.2902 -0.0419
 1625SOL    HW2 6498   3.362   2.812   2.864 -0.6057 -1.2118 -0.1657
 1625SOL    HW3 6499   3.421   2.800   2.726 -0.7476 -1.1470 -0.2328
 1625SOL    MW4 6500   3.355   2.821   2.778 -0.3044 -0.0976 -0.0834
 1626SOL     OW 6501   3.357   3.082   2.667  0.0107  0.0983 -0.2832
 1626SOL    HW2 6502   3.337   2.996   2.705  0.0616 -0.0599 -0.6098
 1626SOL    HW3 6503   3.372   3.064   2.574 -1.0263  0.6136 -0.5554
 1626SOL    MW4 6504   3.356   3.068   2.660 -0.1194  0.1454 -0.3622
 1627SOL     OW 6505   3.134   3.207   2.762  0.2041  0.2621  0.2614
 1627SOL    HW2 6506   3.221   3.169   2.746 -0.3052 -0.9154  0.2297
 1627SOL    HW3 6507   3.073   3.144   2.724 -0.6552  1.2677 -0.0381
 1627SOL    MW4 6508   3.137   3.193   2.755  0.0235  0.2394  0.2177
 1628SOL     OW 6509   3.150   3.458   2.644 -0.1918 -0.2759  0.1203
 1628SOL    HW2 6510   3.145   3.385   2.706 -0.2114 -0.3985 -0.0262
 1628SOL    HW3 6511   3.081   3.518   2.672  0.5797  0.2351  0.9507
 1628SOL    MW4 6512   3.140   3.457   2.656 -0.0926 -0.2247  0.2105
 1629SOL     OW 6513   3.368   3.622   2.714 -0.3761  0.3638 -0.3305
 1629SOL    HW2 6514   3.368   3.638   2.809  2.3064  1.1931 -0.4301
 1629SOL    HW3 6515   3.294   3.563   2.700 -0.9348  0.3723  2.2561
 1629SOL    MW4 6516   3.358   3.616   2.725 -0.0959  0.4743 -0.0024
 1630SOL     OW 6517   3.340   3.888   2.635 -0.2526 -0.6585 -0.3802
 1630SOL    HW2 6518   3.349   3.796   2.661 -1.2427 -0.3698  1.0028
 1630SOL    HW3 6519   3.345   3.886   2.539  3.9537 -1.6752 -0.2542
 1630SOL    MW4 6520   3.342   3.876   2.626  0.1718 -0.7546 -0.1811
 1631SOL     OW 6521   3.103   3.973   2.755 -0.1738 -0.2834 -0.0225
 1631SOL    HW2 6522   3.104   4.060   2.715 -2.8262 -0.9113 -1.5663
 1631SOL    HW3 6523   3.190   3.937   2.737  0.9531  2.0044  0.6295
 1631SOL    MW4 6524   3.115   3.980   2.747 -0.3751 -0.0644 -0.1401
 1632SOL     OW 6525   3.138   4.241   2.641  0.3064  0.1653  0.0236
 1632SOL    HW2 6526   3.065   4.290   2.679  0.9225  0.8330  0.3686
 1632SOL    HW3 6527   3.132   4.258   2.547 -0.3997 -0.3583 -0.0273
 1632SOL    MW4 6528   3.128   4.250   2.634  0.2945  0.1843  0.0624
 1633SOL     OW 6529   3.361   4.407   2.717  0.6957  0.3253  0.4578
 1633SOL    HW2 6530   3.374   4.391   2.810  1.0419 -0.8763  0.2127
 1633SOL    HW3 6531   3.294   4.344   2.691  1.1318  0.1429 -0.2573
 1633SOL    MW4 6532   3.354   4.397   2.726  0.7989  0.1427  0.3311
 1634SOL     OW 6533   3.812   4.637   2.641 -0.0491  0.3701 -0.3714
 1634SOL    HW2 6534   3.795   4.546   2.666 -0.4201  0.9392  1.5487
 1634SOL    HW3 6535   3.736   4.685   2.673  0.6256  1.5111 -0.4462
 1634SOL    MW4 6536   3.800   4.631   2.649 -0.0090  0.5957 -0.1279
 1635SOL     OW 6537   3.578   0.129   2.716 -0.1793  0.4256  0.5667
 1635SOL    HW2 6538   3.579   0.221   2.688 -0.3929 -0.3879 -2.3554
 1635SOL    HW3 6539   3.491   0.097   2.692 -0.0169 -0.6113  1.3136
 1635SOL    MW4 6540   3.567   0.137   2.709 -0.1861  0.1814  0.2797
 1636SOL     OW 6541   3.579   0.402   2.653 -0.7335  0.3480  0.1576
 1636SOL    HW2 6542   3.640   0.473   2.672 -1.6145  0.6411  2.0575
 1636SOL    HW3 6543   3.493   0.437   2.677 -1.5017 -0.5164 -1.2224
 1636SOL    MW4 6544   3.575   0.416   2.659 -0.9511  0.2726  0.2262
 1637SOL     OW 6545   3.844   0.540   2.734 -0.0297 -0.1150 -0.0444
 1637SOL    HW2 6546   3.845   0.518   2.827 -0.7450 -0.0022 -0.0061
 1637SOL    HW3 6547   3.902   0.476   2.693  0.8703  0.2895  0.5730
 1637SOL    MW4 6548   3.852   0.529   2.741 -0.0053 -0.0468  0.0421
 1638SOL     OW 6549   3.844   0.809   2.624 -0.0173 -0.0805  0.5298
 1638SOL    HW2 6550   3.780   0.855   2.679  0.0419  0.6459 -0.0003
 1638SOL    HW3 6551   3.841   0.718   2.654 -0.7908  0.0919  0.9837
 1638SOL    MW4 6552   3.835   0.803   2.635 -0.1116  0.0381  0.5197
 1639SOL     OW 6553   3.593   0.905   2.743 -0.0397 -0.0345 -0.1600
 1639SOL    HW2 6554   3.602   0.905   2.838 -1.9868  0.8978  0.0600
 1639SOL    HW3 6555   3.577   0.996   2.720  0.7864 -0.1932 -1.4352
 1639SOL    MW4 6556   3.592   0.917   2.753 -0.1876  0.0676 -0.2992
 1640SOL     OW 6557   3.590   1.167   2.660 -0.1602  0.1169  0.0198
 1640SOL    HW2 6558   3.650   1.229   2.701 -1.2268  0.4719  1.0729
 1640SOL    HW3 6559   3.503   1.206   2.672 -0.6554 -0.6215 -1.0671
 1640SOL    MW4 6560   3.586   1.180   2.667 -0.3662  0.0663  0.0153
 1641SOL     OW 6561   3.826   1.323   2.743 -0.1448  0.1048 -0.4555
 1641SOL    HW2 6562   3.897   1.273   2.704  0.1006  0.2380 -0.1782
 1641SOL    HW3 6563   3.828   1.408   2.698 -0.0386  0.1590 -0.3479
 1641SOL    MW4 6564   3.836   1.328   2.732 -0.0984  0.1295 -0.4047
 1642SOL     OW 6565   3.815   1.575   2.614 -0.0652 -0.2440 -0.3376
 1642SOL    HW2 6566   3.894   1.610   2.656  0.5087 -1.0479 -0.7345
 1642SOL    HW3 6567   3.745   1.595   2.676  0.4952  0.1850  0.1725
 1642SOL    MW4 6568   3.817   1.583   2.628  0.0845 -0.2935 -0.3227
 1643SOL     OW 6569   3.590   1.691   2.746 -0.3913  0.0076  0.0210
 1643SOL    HW2 6570   3.601   1.773   2.699  0.0342  0.4503  0.8940
 1643SOL    HW3 6571   3.520   1.646   2.698 -1.5882  1.4762  0.3531
 1643SOL    MW4 6572   3.582   1.695   2.733 -0.4931  0.2597  0.1800
 1644SOL     OW 6573   3.658   1.922   2.597 -0.3575 -0.0555  0.5291
 1644SOL    HW2 6574   3.568   1.935   2.627 -0.5345 -0.0400 -0.0119
 1644SOL    HW3 6575   3.652   1.921   2.502  0.2795  0.4252  0.4780
 1644SOL    MW4 6576   3.645   1.924   2.589 -0.2968  0.0100  0.4510
 1645SOL     OW 6577   3.835   2.109   2.700 -0.0337 -0.1487 -0.7188
 1645SOL    HW2 6578   3.913   2.055   2.688  0.3128  0.3841 -0.9262
 1645SOL    HW3 6579   3.763   2.056   2.667  0.2283 -0.6831 -0.4360
 1645SOL    MW4 6580   3.836   2.095   2.694  0.0466 -0.1489 -0.7089
 1646SOL     OW 6581   3.806   2.376   2.610  0.1966  0.0787 -0.2682
 1646SOL    HW2 6582   3.827   2.290   2.646 -1.4782 -0.5716 -0.8304
 1646SOL    HW3 6583   3.814   2.365   2.515 -1.4290  0.1630 -0.4206
 1646SOL    MW4 6584   3.810   2.363   2.602 -0.2389  0.0040 -0.3625
 1647SOL     OW 6585   3.594   2.474   2.747 -0.2837  0.0476  0.8442
 1647SOL    HW2 6586   3.616   2.443   2.835 -0.7542  0.7225  1.1953
 1647SOL    HW3 6587   3.660   2.433   2.691 -1.2750 -2.0980  1.2184
 1647SOL    MW4 6588   3.606   2.464   2.751 -0.4765 -0.1464  0.9399
 1648SOL     OW 6589   3.591   2.728   2.637  0.1686 -0.0759 -0.0532
 1648SOL    HW2 6590   3.601   2.640   2.675  1.7544  0.0636 -0.1447
 1648SOL    HW3 6591   3.588   2.713   2.543 -1.1650 -0.1646 -0.0163
 1648SOL    MW4 6592   3.592   2.714   2.630  0.2019 -0.0692 -0.0604
 1649SOL     OW 6593   3.823   2.860   2.735  0.2966 -0.3291 -0.3506
 1649SOL    HW2 6594   3.893   2.806   2.701  0.8359 -0.3559  0.7810
 1649SOL    HW3 6595   3.743   2.814   2.711  0.7446 -1.5140  0.3854
 1649SOL    MW4 6596   3.821   2.847   2.728  0.4269 -0.4890 -0.1042
 1650SOL     OW 6597   3.819   3.105   2.624  0.1357  0.1480 -0.4836
 1650SOL    HW2 6598   3.739   3.129   2.670 -0.3685 -0.9955 -0.7346
 1650SOL    HW3 6599   3.834   3.013   2.647  0.5725 -0.0719 -1.5910
 1650SOL    MW4 6600   3.811   3.096   2.633  0.1268 -0.0319 -0.6629
 1651SOL     OW 6601   3.609   3.234   2.763  0.1830  0.0621  0.3291
 1651SOL    HW2 6602   3.621   3.318   2.719  1.1467  0.4132  1.2480
 1651SOL    HW3 6603   3.529   3.197   2.724 -0.1370  1.3156 -0.2055
 1651SOL    MW4 6604   3.600   3.240   2.752  0.2679  0.2738  0.3798
 1652SOL     OW 6605   3.586   3.468   2.635 -0.2444 -0.4084  0.2941
 1652SOL    HW2 6606   3.661   3.519   2.665  0.0151 -0.5205 -0.1663
 1652SOL    HW3 6607   3.510   3.522   2.657 -0.0412 -0.3999  0.9737
 1652SOL    MW4 6608   3.586   3.482   2.642 -0.1833 -0.4221  0.3230
 1653SOL     OW 6609   3.813   3.594   2.697 -0.3698  0.6236  0.0587
 1653SOL    HW2 6610   3.893   3.549   2.668 -0.9575 -0.7459  0.4969
 1653SOL    HW3 6611   3.819   3.681   2.659  1.3576  0.5503  0.1174
 1653SOL    MW4 6612   3.824   3.600   2.689 -0.2194  0.4333  0.1243
 1654SOL     OW 6613   3.779   3.858   2.630  0.5212 -0.2231 -0.1365
 1654SOL    HW2 6614   3.857   3.902   2.663  0.4079 -0.3024  0.2496
 1654SOL    HW3 6615   3.708   3.922   2.641  0.5390 -0.1391 -0.5167
 1654SOL    MW4 6616   3.780   3.872   2.636  0.5086 -0.2225 -0.1357
 1655SOL     OW 6617   3.572   4.008   2.725  0.1404  0.4213  0.3914
 1655SOL    HW2 6618   3.549   4.098   2.699  0.2829  0.7622  1.4216
 1655SOL    HW3 6619   3.496   3.956   2.699 -0.5510  1.0743  1.0770
 1655SOL    MW4 6620   3.559   4.013   2.718  0.0679  0.5524  0.6178
 1656SOL     OW 6621   3.564   4.257   2.607  0.4431 -0.4351 -0.0489
 1656SOL    HW2 6622   3.495   4.319   2.631  1.5137  0.7029  0.1711
 1656SOL    HW3 6623   3.574   4.267   2.512 -0.1529 -1.0794 -0.1770
 1656SOL    MW4 6624   3.557   4.267   2.598  0.5057 -0.3700 -0.0368
 1657SOL     OW 6625   3.786   4.371   2.736  0.2561 -0.3747 -0.4647
 1657SOL    HW2 6626   3.862   4.322   2.703  0.2417  0.6597 -2.0814
 1657SOL    HW3 6627   3.711   4.331   2.694  0.1642  0.4442 -1.0917
 1657SOL    MW4 6628   3.786   4.360   2.726  0.2421 -0.1302 -0.7608
 1658SOL     OW 6629   4.260   4.639   2.602 -0.1315 -0.3445  0.3008
 1658SOL    HW2 6630   4.185   4.688   2.636 -0.6244  0.2246 -1.5335
 1658SOL    HW3 6631   4.337   4.682   2.641 -0.6634  0.4914  0.4383
 1658SOL    MW4 6632   4.260   4.651   2.612 -0.2667 -0.1591  0.0769
 1659SOL     OW 6633   4.043   0.104   2.719  0.3789  0.3101  0.1869
 1659SOL    HW2 6634   4.047   0.101   2.815  0.3552 -0.0658  0.1742
 1659SOL    HW3 6635   3.966   0.052   2.697  0.6063  0.0770 -0.0574
 1659SOL    MW4 6636   4.034   0.097   2.729  0.4058  0.2298  0.1530
 1660SOL     OW 6637   4.057   0.364   2.628  0.1135 -0.1164  0.3815
 1660SOL    HW2 6638   4.058   0.274   2.660 -1.0875  0.0874  1.0239
 1660SOL    HW3 6639   4.035   0.356   2.535 -0.1441 -0.4746  0.4741
 1660SOL    MW4 6640   4.054   0.351   2.620 -0.0789 -0.1367  0.4785
 1661SOL     OW 6641   4.293   0.458   2.745  0.1946  0.1275  0.3894
 1661SOL    HW2 6642   4.218   0.423   2.696 -0.4906 -0.4242  1.7893
 1661SOL    HW3 6643   4.365   0.399   2.724 -0.1340 -0.1978  0.1596
 1661SOL    MW4 6644   4.292   0.445   2.736  0.0608  0.0118  0.5438
 1662SOL     OW 6645   4.266   0.733   2.670  0.2364 -0.3114  0.1036
 1662SOL    HW2 6646   4.274   0.638   2.682 -1.7049 -0.3034  1.6872
 1662SOL    HW3 6647   4.245   0.744   2.578 -0.8766 -1.5355  0.1902
 1662SOL    MW4 6648   4.264   0.722   2.660 -0.1666 -0.4719  0.3240
 1663SOL     OW 6649   4.061   0.890   2.787 -0.8075  0.1817 -0.0050
 1663SOL    HW2 6650   4.137   0.849   2.746 -1.1659 -0.4208 -0.0762
 1663SOL    HW3 6651   3.986   0.861   2.734 -1.1867  0.0360  0.6033
 1663SOL    MW4 6652   4.061   0.881   2.775 -0.9048  0.0830  0.0658
 1664SOL     OW 6653   4.044   1.158   2.680 -0.3640 -0.2175  0.2078
 1664SOL    HW2 6654   4.134   1.189   2.690 -0.4991  0.4667 -0.7251
 1664SOL    HW3 6655   4.042   1.075   2.729  0.3897  0.4693  1.4156
 1664SOL    MW4 6656   4.055   1.151   2.688 -0.2824 -0.0366  0.2441
 1665SOL     OW 6657   4.285   1.288   2.782  0.6032  0.3968  0.4069
 1665SOL    HW2 6658   4.259   1.359   2.723  1.0109  1.1878  1.1719
 1665SOL    HW3 6659   4.359   1.246   2.737  0.5361  0.6276  0.0783
 1665SOL    MW4 6660   4.292   1.292   2.768  0.6481  0.5316  0.4645
 1666SOL     OW 6661   4.258   1.524   2.645 -0.1247  0.5314  0.2807
 1666SOL    HW2 6662   4.340   1.560   2.677  0.2562  0.2305 -0.3505
 1666SOL    HW3 6663   4.267   1.522   2.550 -0.9811  0.7767  0.1842
 1666SOL    MW4 6664   4.270   1.528   2.637 -0.1874  0.5241  0.1847
 1667SOL     OW 6665   4.051   1.681   2.748 -0.2032  0.1037  0.2657
 1667SOL    HW2 6666   4.043   1.657   2.840  0.5508 -0.3440  0.2281
 1667SOL    HW3 6667   4.133   1.639   2.720 -0.4451  0.2045 -0.6126
 1667SOL    MW4 6668   4.061   1.672   2.757 -0.1356  0.0580  0.1448
 1668SOL     OW 6669   4.047   1.936   2.645 -0.1246  0.4962  0.3729
 1668SOL    HW2 6670   4.125   1.958   2.696  0.0543  0.5132  0.0964
 1668SOL    HW3 6671   4.028   1.845   2.667 -0.6566  0.8205  1.2533
 1668SOL    MW4 6672   4.055   1.927   2.654 -0.1712  0.5412  0.4526
 1669SOL     OW 6673   4.272   2.049   2.761 -0.2970 -0.1982  0.0527
 1669SOL    HW2 6674   4.264   2.123   2.701  1.2837  0.2874  0.4247
 1669SOL    HW3 6675   4.353   2.006   2.736 -0.6653 -1.1960  0.5254
 1669SOL    MW4 6676   4.281   2.053   2.750 -0.1370 -0.2658  0.1641
 1670SOL     OW 6677   4.287   2.282   2.593  0.0930 -0.2056 -0.0501
 1670SOL    HW2 6678   4.205   2.329   2.611  1.1508  1.8564 -0.4050
 1670SOL    HW3 6679   4.295   2.283   2.498  0.4039 -0.6516 -0.0311
 1670SOL    MW4 6680   4.277   2.288   2.583  0.2736  0.0076 -0.0944
 1671SOL     OW 6681   4.070   2.433   2.693 -0.2878 -0.1893 -0.3583
 1671SOL    HW2 6682   4.083   2.449   2.787 -0.8567 -1.3464 -0.0646
 1671SOL    HW3 6683   3.975   2.429   2.683 -0.2421  0.5387 -1.0997
 1671SOL    MW4 6684   4.059   2.435   2.704 -0.3568 -0.2459 -0.4174
 1672SOL     OW 6685   4.051   2.716   2.604 -0.0414 -0.3975 -0.1828
 1672SOL    HW2 6686   4.133   2.745   2.644 -0.3699  0.9833 -0.5158
 1672SOL    HW3 6687   4.049   2.621   2.621  0.9344 -0.2125  1.0432
 1672SOL    MW4 6688   4.062   2.707   2.611  0.0440 -0.1909 -0.0650
 1673SOL     OW 6689   4.276   2.820   2.710 -0.4658 -0.1926 -0.1370
 1673SOL    HW2 6690   4.275   2.820   2.805 -2.4939  1.0496 -0.1349
 1673SOL    HW3 6691   4.282   2.913   2.686  0.0877 -0.4944 -1.2330
 1673SOL    MW4 6692   4.277   2.832   2.719 -0.6604 -0.0685 -0.2813
 1674SOL     OW 6693   4.240   3.101   2.669  0.0499  0.3042 -0.1034
 1674SOL    HW2 6694   4.159   3.142   2.700  0.2649  1.2274 -0.7204
 1674SOL    HW3 6695   4.241   3.120   2.575  1.4673  1.1768  0.0677
 1674SOL    MW4 6696   4.229   3.109   2.661  0.2653  0.5411 -0.1622
 1675SOL     OW 6697   4.005   3.242   2.755  0.7273 -0.0516  0.5637
 1675SOL    HW2 6698   4.006   3.329   2.714 -2.0412 -0.7518 -1.1941
 1675SOL    HW3 6699   3.942   3.192   2.702  0.0785 -2.2558  3.3076
 1675SOL    MW4 6700   3.996   3.247   2.742  0.2764 -0.4348  0.6938
 1676SOL     OW 6701   4.036   3.474   2.586  0.1605  0.0687  0.4420
 1676SOL    HW2 6702   4.101   3.536   2.620  0.9190 -0.3850 -0.1371
 1676SOL    HW3 6703   4.051   3.473   2.492 -0.3411 -0.4313  0.3640
 1676SOL    MW4 6704   4.047   3.482   2.578  0.1944 -0.0571  0.3553
 1677SOL     OW 6705   4.249   3.601   2.738 -0.1734 -0.1811 -0.6825
 1677SOL    HW2 6706   4.264   3.590   2.832  0.5543  1.8628 -0.5318
 1677SOL    HW3 6707   4.329   3.568   2.697 -0.0367 -0.0551 -0.5175
 1677SOL    MW4 6708   4.261   3.595   2.745 -0.0594  0.1052 -0.6408
 1678SOL     OW 6709   4.285   3.843   2.636  0.8401 -0.7508 -0.3396
 1678SOL    HW2 6710   4.267   3.768   2.692 -1.8153  0.6436  0.7816
 1678SOL    HW3 6711   4.362   3.885   2.676 -1.2383  0.4477  2.5675
 1678SOL    MW4 6712   4.293   3.839   2.649  0.2155 -0.4087  0.1919
 1679SOL     OW 6713   4.048   3.977   2.696  0.1993  0.4001  0.0206
 1679SOL    HW2 6714   4.034   3.975   2.791 -0.4924  1.3172 -0.0505
 1679SOL    HW3 6715   4.133   3.935   2.683 -0.5512 -1.4256  0.8726
 1679SOL    MW4 6716   4.057   3.972   2.707  0.0090  0.2802  0.1236
 1680SOL     OW 6717   4.019   4.251   2.646 -0.0311 -0.1321  0.5377
 1680SOL    HW2 6718   4.031   4.158   2.662 -1.7368 -0.5290 -0.4412
 1680SOL    HW3 6719   4.027   4.261   2.551 -0.9847  0.5599  0.5266
 1680SOL    MW4 6720   4.022   4.240   2.635 -0.3820 -0.0932  0.4071
 1681SOL     OW 6721   4.258   4.389   2.710  0.0503 -0.1707 -0.0413
 1681SOL    HW2 6722   4.178   4.341   2.687  0.2601 -0.6987  0.3149
 1681SOL    HW3 6723   4.247   4.475   2.670 -0.5747 -0.3358 -0.2308
 1681SOL    MW4 6724   4.246   4.394   2.702 -0.0045 -0.2622 -0.0193
 1682SOL     OW 6725   0.230   4.642   3.154 -0.0899  0.6855 -0.3191
 1682SOL    HW2 6726   0.203   4.650   3.245  0.6555  0.0880 -0.0367
 1682SOL    HW3 6727   0.164   4.690   3.105 -1.2375 -0.1342  0.4098
 1682SOL    MW4 6728   0.218   4.649   3.160 -0.1430  0.4985 -0.1857
 1683SOL     OW 6729   0.018   0.082   3.000  0.2232 -0.1158 -0.1867
 1683SOL    HW2 6730  -0.060   0.034   3.026 -0.0908 -0.1172 -1.1349
 1683SOL    HW3 6731   0.001   0.172   3.026 -0.1381 -0.0958 -0.4963
 1683SOL    MW4 6732   0.006   0.087   3.007  0.1341 -0.1133 -0.3527
 1684SOL     OW 6733   4.459   0.324   3.112  0.4884  0.1773  0.0845
 1684SOL    HW2 6734   4.472   0.328   3.207  0.2340  3.0945  0.0417
 1684SOL    HW3 6735   4.379   0.375   3.097  0.5201 -0.2919 -1.6911
 1684SOL    MW4 6736   4.450   0.331   3.123  0.4590  0.5003 -0.1555
 1685SOL     OW 6737   0.202   0.452   3.012  0.2376  0.7351 -0.4449
 1685SOL    HW2 6738   0.277   0.424   3.064 -0.1853  0.8086  0.2130
 1685SOL    HW3 6739   0.127   0.409   3.053 -0.1952  1.4186 -0.5036
 1685SOL    MW4 6740   0.202   0.443   3.024  0.1247  0.8350 -0.3659
 1686SOL     OW 6741   0.193   0.725   3.081 -0.6734 -0.3128 -0.3217
 1686SOL    HW2 6742   0.211   0.716   3.174  0.0345 -0.4210 -0.4652
 1686SOL    HW3 6743   0.191   0.636   3.047 -0.8658 -0.2713 -0.4204
 1686SOL    MW4 6744   0.195   0.712   3.089 -0.6054 -0.3216 -0.3537
 1687SOL     OW 6745   4.480   0.892   3.018  0.0513  0.0713 -0.4937
 1687SOL    HW2 6746   4.546   0.833   3.054 -0.4614 -0.4052 -0.3083
 1687SOL    HW3 6747   4.485   0.880   2.923  0.3534  0.1679 -0.4878
 1687SOL    MW4 6748   4.489   0.882   3.010  0.0235  0.0212 -0.4685
 1688SOL     OW 6749   0.001   1.142   3.098 -0.4197 -0.2199  0.2670
 1688SOL    HW2 6750  -0.085   1.173   3.069 -0.3734 -1.2473 -1.0361
 1688SOL    HW3 6751   0.005   1.051   3.067  1.3828  0.0165 -0.2502
 1688SOL    MW4 6752  -0.010   1.134   3.090 -0.1758 -0.3243  0.0268
 1689SOL     OW 6753   0.253   1.257   3.033  0.3251  0.3645 -0.2269
 1689SOL    HW2 6754   0.165   1.226   3.055  0.2142  0.9618  0.1731
 1689SOL    HW3 6755   0.256   1.253   2.937 -0.0359  0.0650 -0.2294
 1689SOL    MW4 6756   0.241   1.252   3.023  0.2629  0.4038 -0.1744
 1690SOL     OW 6757   0.248   1.537   3.073  0.1886 -0.0125  0.5598
 1690SOL    HW2 6758   0.156   1.560   3.060  0.1097  0.9825  2.6190
 1690SOL    HW3 6759   0.258   1.451   3.031 -1.2971  0.5349 -0.9671
 1690SOL    MW4 6760   0.238   1.529   3.066 -0.0178  0.1910  0.6300
 1691SOL     OW 6761   0.002   1.641   3.001 -0.0964 -0.3374 -0.3396
 1691SOL    HW2 6762  -0.073   1.618   3.056  0.0568 -0.9883 -0.3940
 1691SOL    HW3 6763   0.016   1.734   3.017 -2.5541  0.4344 -2.3441
 1691SOL    MW4 6764  -0.006   1.650   3.010 -0.4005 -0.3214 -0.6112
 1692SOL     OW 6765   0.046   1.890   3.087  0.0564  0.0038  0.5820
 1692SOL    HW2 6766  -0.035   1.933   3.062  0.0096 -0.6824 -0.4457
 1692SOL    HW3 6767   0.115   1.954   3.066 -0.0668 -0.1557 -0.3280
 1692SOL    MW4 6768   0.045   1.904   3.081  0.0339 -0.1078  0.3264
 1693SOL     OW 6769   0.248   2.064   3.026  0.1214  0.0198 -0.0571
 1693SOL    HW2 6770   0.241   2.155   3.055 -0.6409  0.2639 -0.9811
 1693SOL    HW3 6771   0.243   2.069   2.931  1.0303 -0.9096 -0.1566
 1693SOL    MW4 6772   0.246   2.076   3.017  0.1408 -0.0706 -0.1922
 1694SOL     OW 6773   0.201   2.327   3.125  0.0154  0.1817  0.0473
 1694SOL    HW2 6774   0.206   2.358   3.215  1.6533 -0.5584  0.2282
 1694SOL    HW3 6775   0.282   2.356   3.085  0.5602 -1.8625 -0.4080
 1694SOL    MW4 6776   0.212   2.335   3.132  0.3033 -0.1856  0.0111
 1695SOL     OW 6777   4.481   2.470   2.997  0.1967  0.3123  0.3296
 1695SOL    HW2 6778   4.471   2.555   3.041 -0.3558 -0.3709  1.5392
 1695SOL    HW3 6779   4.553   2.427   3.042  0.5359  0.1609 -0.3399
 1695SOL    MW4 6780   4.489   2.476   3.008  0.1686  0.2022  0.4009
 1696SOL     OW 6781   4.459   2.719   3.119  0.2034 -0.1137 -0.2912
 1696SOL    HW2 6782   4.474   2.741   3.211 -0.1843 -0.0472 -0.2443
 1696SOL    HW3 6783   4.540   2.745   3.075 -0.9693  3.3292 -0.5838
 1696SOL    MW4 6784   4.472   2.725   3.125 -0.0024  0.3493 -0.3236
 1697SOL     OW 6785   0.205   2.788   3.006  0.1703  0.3013  0.0815
 1697SOL    HW2 6786   0.277   2.740   3.045 -0.4145  0.1280  0.9519
 1697SOL    HW3 6787   0.213   2.771   2.912  0.8772 -0.2331  0.2368
 1697SOL    MW4 6788   0.215   2.780   2.998  0.1864  0.2079  0.2168
 1698SOL     OW 6789   0.260   3.041   3.098  0.0303 -0.0140  0.1708
 1698SOL    HW2 6790   0.182   3.096   3.084  0.6031  0.6449 -0.4652
 1698SOL    HW3 6791   0.235   2.955   3.065 -0.8330 -0.1199  1.0496
 1698SOL    MW4 6792   0.246   3.037   3.092 -0.0080  0.0590  0.2028
 1699SOL     OW 6793   0.007   3.156   3.020  0.0944 -0.1857 -0.5002
 1699SOL    HW2 6794  -0.083   3.136   3.047 -0.6803  2.1763 -1.1223
 1699SOL    HW3 6795   0.001   3.166   2.925  1.5349 -2.4074 -0.8452
 1699SOL    MW4 6796  -0.006   3.155   3.011  0.1823 -0.1672 -0.6278
 1700SOL     OW 6797   0.024   3.426   3.138  0.4445 -0.2640  0.3704
 1700SOL    HW2 6798  -0.045   3.481   3.101  0.1953 -0.7705  0.0863
 1700SOL    HW3 6799   0.022   3.346   3.086  3.1284  0.8123 -1.5418
 1700SOL    MW4 6800   0.015   3.423   3.126  0.7657 -0.1889  0.0807
 1701SOL     OW 6801   0.248   3.583   3.036 -0.1814  0.5673  0.3387
 1701SOL    HW2 6802   0.235   3.665   3.083  0.5451  1.6069 -1.2007
 1701SOL    HW3 6803   0.172   3.530   3.058 -1.3991  2.2142  0.2404
 1701SOL    MW4 6804   0.236   3.587   3.045 -0.2462  0.9218  0.1226
 1702SOL     OW 6805   0.250   3.848   3.149  0.1235  0.1350 -0.7441
 1702SOL    HW2 6806   0.263   3.863   3.243 -0.2535 -0.3995 -0.6010
 1702SOL    HW3 6807   0.324   3.892   3.107 -0.3835  1.4607 -0.2811
 1702SOL    MW4 6808   0.262   3.856   3.156  0.0068  0.2394 -0.6641
 1703SOL     OW 6809   0.039   4.005   3.015  0.5924 -0.1421  0.2951
 1703SOL    HW2 6810   0.101   3.943   3.052  2.5525  0.7955 -1.3012
 1703SOL    HW3 6811   0.041   3.987   2.921 -1.6082 -0.1161  0.2055
 1703SOL    MW4 6812   0.047   3.995   3.007  0.5607 -0.0150  0.0726
 1704SOL     OW 6813   0.005   4.271   3.099 -0.1325 -0.3440  0.3102
 1704SOL    HW2 6814   0.010   4.258   3.194  0.5490 -0.1209  0.3124
 1704SOL    HW3 6815   0.005   4.182   3.063  2.1967 -0.4203  0.4162
 1704SOL    MW4 6816   0.006   4.257   3.107  0.2647 -0.3247  0.3245
 1705SOL     OW 6817   0.268   4.384   3.060  0.4095  0.4165 -0.0212
 1705SOL    HW2 6818   0.181   4.347   3.080  0.2877  0.4861 -0.4005
 1705SOL    HW3 6819   0.263   4.474   3.089 -0.3388  1.0006 -1.8468
 1705SOL    MW4 6820   0.256   4.391   3.066  0.2947  0.5027 -0.3121
 1706SOL     OW 6821   0.692   4.640   3.131 -0.2596 -0.2801  0.0155
 1706SOL    HW2 6822   0.703   4.556   3.086  0.6822  0.3533 -0.9887
 1706SOL    HW3 6823   0.602   4.666   3.111 -0.8719 -1.4959  1.1364
 1706SOL    MW4 6824   0.682   4.633   3.122 -0.2161 -0.3569  0.0309
 1707SOL     OW 6825   0.445   0.080   3.052 -0.4146 -0.6134  0.0797
 1707SOL    HW2 6826   0.446   0.168   3.092 -0.9018 -1.5488  2.2389
 1707SOL    HW3 6827   0.372   0.036   3.095 -0.6530 -1.8234 -1.5706
 1707SOL    MW4 6828   0.436   0.086   3.063 -0.5103 -0.8965  0.1468
 1708SOL     OW 6829   0.432   0.356   3.136  0.4604  0.3373  0.0009
 1708SOL    HW2 6830   0.447   0.353   3.231  0.9930 -0.6848 -0.1127
 1708SOL    HW3 6831   0.515   0.387   3.100 -0.1384  1.9673 -0.0522
 1708SOL    MW4 6832   0.445   0.360   3.144  0.4517  0.4175 -0.0211
 1709SOL     OW 6833   0.669   0.445   3.043 -0.4002  0.2531  0.1967
 1709SOL    HW2 6834   0.752   0.405   3.067 -0.1380 -0.0589 -1.1618
 1709SOL    HW3 6835   0.673   0.534   3.078  1.0043  0.6271 -0.8547
 1709SOL    MW4 6836   0.680   0.452   3.051 -0.1803  0.2612 -0.1212
 1710SOL     OW 6837   0.663   0.709   3.118  0.3164 -0.0267 -0.0160
 1710SOL    HW2 6838   0.674   0.728   3.211  0.1315  0.7415 -0.1464
 1710SOL    HW3 6839   0.576   0.743   3.096  0.7290  0.6101 -0.6711
 1710SOL    MW4 6840   0.653   0.716   3.127  0.3464  0.1587 -0.1196
 1711SOL     OW 6841   0.429   0.851   3.008 -0.1188  0.3678 -0.3781
 1711SOL    HW2 6842   0.352   0.798   3.029 -0.6097  0.8580 -0.9143
 1711SOL    HW3 6843   0.435   0.847   2.913  0.4984  0.3617 -0.3376
 1711SOL    MW4 6844   0.420   0.843   2.998 -0.1022  0.4317 -0.4435
 1712SOL     OW 6845   0.446   1.099   3.134  0.6000  0.4016 -0.2603
 1712SOL    HW2 6846   0.435   1.008   3.107 -0.2957  0.7444 -1.0570
 1712SOL    HW3 6847   0.369   1.144   3.101  1.2398  1.5405 -0.2360
 1712SOL    MW4 6848   0.435   1.093   3.126  0.5662  0.5971 -0.3622
 1713SOL     OW 6849   0.630   1.266   3.023 -0.3658 -0.3998 -0.6267
 1713SOL    HW2 6850   0.711   1.232   3.061  0.0815 -0.0350 -1.2497
 1713SOL    HW3 6851   0.561   1.211   3.060 -0.0689  0.7466  1.6990
 1713SOL    MW4 6852   0.631   1.254   3.033 -0.2676 -0.2004 -0.4020
 1714SOL     OW 6853   0.668   1.545   3.115 -0.4558 -0.0586 -0.0901
 1714SOL    HW2 6854   0.664   1.534   3.209 -0.6357  1.2284  0.0706
 1714SOL    HW3 6855   0.656   1.457   3.079  0.1589 -0.6344  1.0904
 1714SOL    MW4 6856   0.666   1.532   3.122 -0.3985  0.0352  0.0868
 1715SOL     OW 6857   0.469   1.687   2.990  0.3402 -0.1255 -0.6519
 1715SOL    HW2 6858   0.541   1.634   3.022  0.8026  1.7969  1.6687
 1715SOL    HW3 6859   0.390   1.640   3.016  0.7250  0.9231  2.6553
 1715SOL    MW4 6860   0.468   1.674   2.997  0.4519  0.2664  0.0906
 1716SOL     OW 6861   0.408   1.895   3.175 -0.1268  0.2295  0.0058
 1716SOL    HW2 6862   0.415   1.812   3.128  1.4278 -0.9758  2.2343
 1716SOL    HW3 6863   0.338   1.943   3.131  0.1704 -1.5157 -2.4432
 1716SOL    MW4 6864   0.400   1.891   3.163  0.1175 -0.1598 -0.0233
 1717SOL     OW 6865   0.632   2.037   3.057  0.2774 -0.1356  0.5088
 1717SOL    HW2 6866   0.711   2.002   3.099 -0.2129 -2.2946 -0.3218
 1717SOL    HW3 6867   0.560   1.989   3.098 -0.5900  1.6341  1.0689
 1717SOL    MW4 6868   0.633   2.026   3.068  0.0983 -0.1870  0.4731
 1718SOL     OW 6869   0.665   2.310   3.137  0.3994  0.0691  0.0591
 1718SOL    HW2 6870   0.634   2.308   3.228 -3.6137  1.5166 -1.1481
 1718SOL    HW3 6871   0.653   2.221   3.106  0.4517 -0.1163  0.5587
 1718SOL    MW4 6872   0.659   2.298   3.145 -0.1232  0.2356 -0.0342
 1719SOL     OW 6873   0.437   2.423   3.025 -0.2133  0.3614  0.1476
 1719SOL    HW2 6874   0.511   2.374   3.061  1.6274  1.6189 -1.8363
 1719SOL    HW3 6875   0.450   2.420   2.930 -1.4032  2.6395 -0.1142
 1719SOL    MW4 6876   0.448   2.416   3.017 -0.1274  0.8279 -0.1487
 1720SOL     OW 6877   0.441   2.689   3.107 -0.6779  0.0306 -0.4903
 1720SOL    HW2 6878   0.526   2.731   3.095  0.0757 -0.6489  2.0227
 1720SOL    HW3 6879   0.457   2.597   3.085 -0.6448 -0.1734  0.3694
 1720SOL    MW4 6880   0.455   2.682   3.103 -0.5741 -0.0860 -0.0453
 1721SOL     OW 6881   0.699   2.794   3.049 -0.6054 -0.0415 -0.0848
 1721SOL    HW2 6882   0.781   2.753   3.077 -2.3503 -2.0031  2.3931
 1721SOL    HW3 6883   0.704   2.884   3.082  0.8684  0.0847 -0.6313
 1721SOL    MW4 6884   0.711   2.800   3.057 -0.6412 -0.2837  0.1700
 1722SOL     OW 6885   0.692   3.074   3.112 -0.0312  0.0715  0.2682
 1722SOL    HW2 6886   0.687   3.077   3.208 -0.3661 -0.5095  0.2697
 1722SOL    HW3 6887   0.617   3.125   3.083  0.3797  0.7077  0.3142
 1722SOL    MW4 6888   0.682   3.081   3.121 -0.0212  0.0788  0.2745
 1723SOL     OW 6889   0.487   3.197   2.998 -0.0293  0.2358  0.5445
 1723SOL    HW2 6890   0.473   3.278   3.047 -0.5791  1.2858 -1.3309
 1723SOL    HW3 6891   0.411   3.143   3.019 -0.3210  0.7228  0.7464
 1723SOL    MW4 6892   0.475   3.201   3.007 -0.1403  0.4386  0.3237
 1724SOL     OW 6893   0.459   3.432   3.144 -0.2583 -0.3383  0.0762
 1724SOL    HW2 6894   0.463   3.450   3.238  1.6406 -1.2803  0.1985
 1724SOL    HW3 6895   0.390   3.489   3.112 -0.1166  0.8705  1.8521
 1724SOL    MW4 6896   0.451   3.442   3.152  0.0109 -0.3031  0.3266
 1725SOL     OW 6897   0.679   3.572   3.043  0.1996 -0.3064 -0.1390
 1725SOL    HW2 6898   0.758   3.531   3.078  0.1627 -1.0336 -0.8962
 1725SOL    HW3 6899   0.607   3.526   3.086  0.1706 -0.4424 -0.3337
 1725SOL    MW4 6900   0.680   3.560   3.054  0.1909 -0.4203 -0.2646
 1726SOL     OW 6901   0.646   3.827   3.120 -0.6320  0.5385 -0.1156
 1726SOL    HW2 6902   0.647   3.828   3.216 -0.0461  0.7863 -0.1217
 1726SOL    HW3 6903   0.674   3.739   3.096 -1.9747  0.0855 -0.0512
 1726SOL    MW4 6904   0.650   3.815   3.130 -0.7319  0.5114 -0.1079
 1727SOL     OW 6905   0.443   3.989   3.033  0.6431 -0.6135  0.6397
 1727SOL    HW2 6906   0.512   3.928   3.061  0.8283 -0.8834 -0.3988
 1727SOL    HW3 6907   0.460   4.003   2.940  1.0868  1.6774  1.0536
 1727SOL    MW4 6908   0.454   3.983   3.025  0.7261 -0.3469  0.5573
 1728SOL     OW 6909   0.495   4.238   3.150 -0.4575  0.4022  0.2776
 1728SOL    HW2 6910   0.487   4.147   3.121 -1.0225  0.3044  0.7308
 1728SOL    HW3 6911   0.417   4.281   3.114 -0.4240  0.6003  0.4438
 1728SOL    MW4 6912   0.483   4.231   3.141 -0.5276  0.4154  0.3593
 1729SOL     OW 6913   0.699   4.384   3.032  0.1205 -0.0706 -0.3996
 1729SOL    HW2 6914   0.627   4.333   3.070  0.4006 -1.0346 -1.1280
 1729SOL    HW3 6915   0.682   4.383   2.938  0.5119  0.6060 -0.4805
 1729SOL    MW4 6916   0.687   4.377   3.025  0.2091 -0.1085 -0.5064
 1730SOL     OW 6917   1.127   4.648   3.163  0.1235 -0.4148  0.4411
 1730SOL    HW2 6918   1.204   4.675   3.115  0.2483  1.1913  1.5307
 1730SOL    HW3 6919   1.055   4.698   3.124 -0.5021 -2.3563 -0.9871
 1730SOL    MW4 6920   1.127   4.658   3.151  0.0574 -0.4590  0.3964
 1731SOL     OW 6921   0.921   0.119   3.054  0.2282 -0.5512 -0.0495
 1731SOL    HW2 6922   0.926   0.209   3.084  2.0933 -0.4829 -0.4980
 1731SOL    HW3 6923   0.836   0.088   3.084 -0.9176  1.6989 -0.8851
 1731SOL    MW4 6924   0.910   0.127   3.062  0.3231 -0.2453 -0.2189
 1732SOL     OW 6925   0.913   0.375   3.139  0.3977 -0.0777  0.3768
 1732SOL    HW2 6926   0.899   0.394   3.232  0.5476 -1.4776  0.6892
 1732SOL    HW3 6927   0.996   0.419   3.118 -0.3095  1.3799  0.5495
 1732SOL    MW4 6928   0.922   0.383   3.148  0.3242 -0.0701  0.4408
 1733SOL     OW 6929   1.138   0.483   3.051  0.2314 -0.3389  0.2634
 1733SOL    HW2 6930   1.212   0.425   3.064  0.9151  0.2322 -1.0003
 1733SOL    HW3 6931   1.128   0.489   2.956 -0.4094  0.8571  0.3886
 1733SOL    MW4 6932   1.146   0.476   3.040  0.2370 -0.1057  0.1132
 1734SOL     OW 6933   1.134   0.755   3.124 -0.2824  0.0431 -0.3000
 1734SOL    HW2 6934   1.140   0.749   3.220  0.8251  1.1088 -0.2985
 1734SOL    HW3 6935   1.170   0.671   3.093 -1.1743 -0.5426  0.2211
 1734SOL    MW4 6936   1.139   0.743   3.133 -0.2539  0.1064 -0.2311
 1735SOL     OW 6937   0.907   0.860   3.017  0.0516 -0.2324 -0.2928
 1735SOL    HW2 6938   0.982   0.819   3.061 -0.1389 -0.2694 -0.0013
 1735SOL    HW3 6939   0.834   0.801   3.033  0.1618 -0.6715 -1.3813
 1735SOL    MW4 6940   0.907   0.847   3.025  0.0410 -0.2952 -0.3979
 1736SOL     OW 6941   0.859   1.141   3.136  0.0799  0.3072 -0.5498
 1736SOL    HW2 6942   0.933   1.168   3.081 -0.6847  0.4011 -1.5616
 1736SOL    HW3 6943   0.850   1.047   3.118  0.7428  0.0286  0.5389
 1736SOL    MW4 6944   0.868   1.132   3.126  0.0665  0.2828 -0.5396
 1737SOL     OW 6945   1.067   1.256   2.999  0.4620  0.5682  0.1138
 1737SOL    HW2 6946   1.147   1.213   3.029  0.3769 -0.2580 -0.8383
 1737SOL    HW3 6947   1.071   1.251   2.904 -1.1220 -0.2194  0.0821
 1737SOL    MW4 6948   1.078   1.250   2.991  0.2418  0.3553 -0.0160
 1738SOL     OW 6949   1.113   1.539   3.135  0.2161  0.1023 -0.3738
 1738SOL    HW2 6950   1.181   1.580   3.081 -0.0140  1.1160  0.0824
 1738SOL    HW3 6951   1.099   1.453   3.095  2.6438 -0.6278  0.2904
 1738SOL    MW4 6952   1.120   1.533   3.122  0.5060  0.1397 -0.2259
 1739SOL     OW 6953   0.893   1.655   3.019  0.2438  0.0786  0.8432
 1739SOL    HW2 6954   0.964   1.604   3.058  0.2515 -1.1374 -0.6952
 1739SOL    HW3 6955   0.814   1.610   3.048  0.2840 -1.4289 -1.3227
 1739SOL    MW4 6956   0.892   1.642   3.028  0.2501 -0.2807  0.3545
 1740SOL     OW 6957   0.847   1.903   3.130  0.1455 -0.2627  0.4352
 1740SOL    HW2 6958   0.838   1.894   3.225  0.7541  1.2774  0.6514
 1740SOL    HW3 6959   0.862   1.814   3.099 -1.6610 -0.9976  1.5993
 1740SOL    MW4 6960   0.848   1.890   3.139 -0.0125 -0.1565  0.6173
 1741SOL     OW 6961   1.110   2.010   3.052 -0.1168  0.0981  0.2274
 1741SOL    HW2 6962   1.034   1.964   3.087 -0.3865 -0.6972 -1.3919
 1741SOL    HW3 6963   1.091   2.021   2.959  1.2082  0.9800  0.0495
 1741SOL    MW4 6964   1.097   2.006   3.044  0.0224  0.1095 -0.0097
 1742SOL     OW 6965   1.135   2.284   3.136 -0.3465 -0.2979 -0.0586
 1742SOL    HW2 6966   1.069   2.323   3.078 -0.6415 -0.4167  0.1924
 1742SOL    HW3 6967   1.140   2.193   3.109  0.0960 -0.1651 -0.4216
 1742SOL    MW4 6968   1.127   2.277   3.125 -0.3271 -0.2960 -0.0734
 1743SOL     OW 6969   0.897   2.400   3.025 -0.5753 -0.3416  0.4735
 1743SOL    HW2 6970   0.818   2.360   3.060 -1.5911 -0.6036 -2.0387
 1743SOL    HW3 6971   0.876   2.420   2.934  1.8155  0.7797  0.1228
 1743SOL    MW4 6972   0.884   2.397   3.018 -0.3939 -0.2282  0.0958
 1744SOL     OW 6973   0.949   2.694   3.100 -0.3243  0.0923 -0.3951
 1744SOL    HW2 6974   0.926   2.694   3.193  0.1955  0.3012 -0.2648
 1744SOL    HW3 6975   0.951   2.602   3.076  1.4902 -0.0633  0.2900
 1744SOL    MW4 6976   0.946   2.682   3.109 -0.0163  0.0993 -0.2875
 1745SOL     OW 6977   1.164   2.842   3.013 -0.1418  0.3820  0.2230
 1745SOL    HW2 6978   1.154   2.927   3.054  0.1469  0.6550 -0.2692
 1745SOL    HW3 6979   1.096   2.788   3.052 -0.6615  0.9865  0.1543
 1745SOL    MW4 6980   1.154   2.846   3.023 -0.1723  0.4978  0.1490
 1746SOL     OW 6981   1.172   3.095   3.156  0.4803  0.2575 -0.0146
 1746SOL    HW2 6982   1.242   3.140   3.109  1.4326  0.8750  1.9517
 1746SOL    HW3 6983   1.092   3.139   3.127  1.0611  0.7104 -0.9515
 1746SOL    MW4 6984   1.171   3.107   3.146  0.6825  0.3987  0.1212
 1747SOL     OW 6985   0.946   3.204   3.058  0.0209 -0.0122 -0.1919
 1747SOL    HW2 6986   0.866   3.168   3.097 -0.0437 -1.3112 -1.4761
 1747SOL    HW3 6987   0.939   3.182   2.965  1.9146 -0.2246 -0.3010
 1747SOL    MW4 6988   0.935   3.196   3.051  0.2622 -0.2116 -0.3757
 1748SOL     OW 6989   0.904   3.463   3.125  0.3591  0.3719 -0.0078
 1748SOL    HW2 6990   0.975   3.516   3.088  0.9104  0.3287  0.9616
 1748SOL    HW3 6991   0.922   3.374   3.095  0.4657  0.4347 -0.1297
 1748SOL    MW4 6992   0.916   3.459   3.116  0.4459  0.3745  0.1040
 1749SOL     OW 6993   1.104   3.635   3.045 -0.3481  0.2672  0.2186
 1749SOL    HW2 6994   1.184   3.590   3.073 -0.6790  0.2059  1.0778
 1749SOL    HW3 6995   1.108   3.720   3.088 -1.6872 -0.4625  1.8201
 1749SOL    MW4 6996   1.115   3.640   3.054 -0.5684  0.1628  0.5432
 1750SOL     OW 6997   1.110   3.888   3.129 -0.0560 -0.3588  0.0747
 1750SOL    HW2 6998   1.112   3.887   3.224  2.2134 -0.2322  0.0560
 1750SOL    HW3 6999   1.019   3.908   3.107 -0.4981  0.0724  2.2044
 1750SOL    MW4 7000   1.098   3.891   3.138  0.1851 -0.2852  0.3532
 1751SOL     OW 7001   0.866   3.986   3.041 -0.0004 -0.2975  0.0212
 1751SOL    HW2 7002   0.780   3.946   3.053 -0.2702  0.3051  0.1138
 1751SOL    HW3 7003   0.874   4.001   2.947 -0.8760  1.5776  0.2320
 1751SOL    MW4 7004   0.856   3.983   3.030 -0.1515  0.0294  0.0612
 1752SOL     OW 7005   0.919   4.255   3.126  0.1144 -0.1422 -0.4688
 1752SOL    HW2 7006   0.886   4.169   3.101  0.2134  0.1866 -1.7784
 1752SOL    HW3 7007   0.849   4.316   3.101  0.0157  0.1454  0.5176
 1752SOL    MW4 7008   0.906   4.251   3.119  0.1144 -0.0609 -0.5114
 1753SOL     OW 7009   1.144   4.402   3.028 -0.8397  0.5056 -0.1694
 1753SOL    HW2 7010   1.074   4.352   3.070 -0.5462  0.0595 -0.2126
 1753SOL    HW3 7011   1.134   4.490   3.063 -3.0093  1.0913 -2.0721
 1753SOL    MW4 7012   1.133   4.407   3.038 -1.0872  0.5240 -0.4261
 1754SOL     OW 7013   1.571   4.606   3.127  0.0283 -0.0104 -0.4716
 1754SOL    HW2 7014   1.567   4.594   3.222 -0.6809  0.3791 -0.4548
 1754SOL    HW3 7015   1.494   4.658   3.105 -0.3968 -1.0191 -1.4124
 1754SOL    MW4 7016   1.561   4.611   3.137 -0.1214 -0.0921 -0.5935
 1755SOL     OW 7017   1.335   0.099   3.040  0.2788 -0.4804 -0.3167
 1755SOL    HW2 7018   1.365   0.187   3.063  0.6422 -0.4050 -1.0611
 1755SOL    HW3 7019   1.325   0.101   2.945  1.2774 -1.5574 -0.4522
 1755SOL    MW4 7020   1.337   0.111   3.030  0.4585 -0.6126 -0.4328
 1756SOL     OW 7021   1.369   0.357   3.110  0.0124  0.4036 -0.3756
 1756SOL    HW2 7022   1.357   0.366   3.204  0.4740 -1.7876 -0.0811
 1756SOL    HW3 7023   1.440   0.417   3.089  0.7007  0.0513  0.8851
 1756SOL    MW4 7024   1.377   0.366   3.119  0.1641  0.0680 -0.1704
 1757SOL     OW 7025   1.585   0.500   3.034  0.0534  0.2698  0.3737
 1757SOL    HW2 7026   1.589   0.594   3.051  1.5049  0.3617 -0.3624
 1757SOL    HW3 7027   1.582   0.493   2.938 -1.5979 -0.3987  0.4528
 1757SOL    MW4 7028   1.585   0.511   3.023  0.0271  0.1937  0.2870
 1758SOL     OW 7029   1.606   0.761   3.127  0.3541 -0.4148 -0.2788
 1758SOL    HW2 7030   1.602   0.752   3.222  0.0772 -0.0281 -0.2556
 1758SOL    HW3 7031   1.529   0.813   3.104 -0.2295 -1.5099 -0.8391
 1758SOL    MW4 7032   1.595   0.766   3.137  0.2406 -0.5083 -0.3496
 1759SOL     OW 7033   1.365   0.896   3.059  0.1016  0.2492 -0.0366
 1759SOL    HW2 7034   1.348   0.990   3.061  1.0351  0.4023  0.9271
 1759SOL    HW3 7035   1.280   0.856   3.077 -0.4250  0.8904 -1.0522
 1759SOL    MW4 7036   1.351   0.903   3.061  0.1553  0.3540 -0.0435
 1760SOL     OW 7037   1.303   1.168   3.091 -0.3840  0.0918  0.0308
 1760SOL    HW2 7038   1.311   1.140   3.182  0.6841 -0.7542 -0.3200
 1760SOL    HW3 7039   1.383   1.215   3.073 -0.8846  0.8275 -0.2874
 1760SOL    MW4 7040   1.314   1.170   3.101 -0.3091  0.0772 -0.0575
 1761SOL     OW 7041   1.560   1.274   3.008 -0.2054  0.2282 -0.0270
 1761SOL    HW2 7042   1.618   1.220   3.061 -0.5127  0.3789  0.4682
 1761SOL    HW3 7043   1.551   1.356   3.058 -0.8167  0.2158 -0.1129
 1761SOL    MW4 7044   1.567   1.278   3.022 -0.3266  0.2465  0.0270
 1762SOL     OW 7045   1.539   1.516   3.119  0.0989  0.0075  0.0755
 1762SOL    HW2 7046   1.618   1.559   3.087  0.4727 -0.5841  0.1960
 1762SOL    HW3 7047   1.467   1.564   3.078  0.5458 -0.1438 -0.9075
 1762SOL    MW4 7048   1.540   1.528   3.109  0.2072 -0.0905 -0.0383
 1763SOL     OW 7049   1.323   1.646   2.986  0.0898  0.0308 -0.3878
 1763SOL    HW2 7050   1.349   1.734   3.012 -0.1162 -0.2055  0.6051
 1763SOL    HW3 7051   1.312   1.652   2.891 -0.1904  1.1415 -0.2945
 1763SOL    MW4 7052   1.325   1.658   2.977  0.0256  0.1462 -0.2445
 1764SOL     OW 7053   1.366   1.901   3.095 -0.6150 -0.2005 -0.4259
 1764SOL    HW2 7054   1.352   1.874   3.185  0.7518  0.7611  0.1004
 1764SOL    HW3 7055   1.288   1.952   3.073 -0.6436  0.1366  0.4401
 1764SOL    MW4 7056   1.354   1.904   3.104 -0.4384 -0.0291 -0.2422
 1765SOL     OW 7057   1.584   2.052   3.021 -0.5682 -0.1760 -0.2054
 1765SOL    HW2 7058   1.515   1.995   3.054 -0.0456 -0.5692  0.2181
 1765SOL    HW3 7059   1.570   2.054   2.926  0.6291 -2.6796 -0.4908
 1765SOL    MW4 7060   1.573   2.045   3.013 -0.3413 -0.5582 -0.1872
 1766SOL     OW 7061   1.578   2.297   3.152  0.1460  0.2290  0.1229
 1766SOL    HW2 7062   1.515   2.343   3.096  1.1118  2.3169  0.6784
 1766SOL    HW3 7063   1.583   2.209   3.116 -2.0521  0.4546 -0.7673
 1766SOL    MW4 7064   1.571   2.292   3.140 -0.0166  0.5343  0.0787
 1767SOL     OW 7065   1.375   2.436   3.034  0.4552 -0.3782  0.1476
 1767SOL    HW2 7066   1.290   2.399   3.058  0.2647  0.0653  0.1503
 1767SOL    HW3 7067   1.377   2.430   2.939  0.4527 -0.4546  0.1517
 1767SOL    MW4 7068   1.364   2.430   3.025  0.4298 -0.3298  0.1485
 1768SOL     OW 7069   1.364   2.690   3.130 -0.1168 -0.2915  0.0153
 1768SOL    HW2 7070   1.354   2.608   3.081 -0.3575 -0.0828 -0.2918
 1768SOL    HW3 7071   1.302   2.750   3.088 -0.9386 -0.3510  1.1095
 1768SOL    MW4 7072   1.354   2.687   3.118 -0.2570 -0.2718  0.1192
 1769SOL     OW 7073   1.572   2.820   2.998 -0.0375 -0.6505 -0.0912
 1769SOL    HW2 7074   1.653   2.787   3.037 -0.0193 -0.9042 -0.3417
 1769SOL    HW3 7075   1.503   2.786   3.056  0.0208 -0.6095  0.0031
 1769SOL    MW4 7076   1.573   2.811   3.011 -0.0274 -0.6785 -0.1118
 1770SOL     OW 7077   1.567   3.087   3.083 -0.0884 -0.1081  0.4987
 1770SOL    HW2 7078   1.543   3.101   3.175  2.2542  0.6111  1.0439
 1770SOL    HW3 7079   1.565   2.992   3.073  1.1352 -0.2824  1.7436
 1770SOL    MW4 7080   1.564   3.076   3.094  0.3821 -0.0362  0.7349
 1771SOL     OW 7081   1.365   3.254   3.012  0.0871  0.2760  0.2846
 1771SOL    HW2 7082   1.445   3.207   3.033 -1.3745 -2.3985  0.0764
 1771SOL    HW3 7083   1.352   3.239   2.918 -1.2121 -0.2631  0.5281
 1771SOL    MW4 7084   1.374   3.246   3.002 -0.2772 -0.1480  0.2892
 1772SOL     OW 7085   1.335   3.503   3.136  0.7140 -0.5429 -0.2321
 1772SOL    HW2 7086   1.338   3.482   3.229  0.0569 -0.0335 -0.0968
 1772SOL    HW3 7087   1.358   3.421   3.093 -0.8152 -1.2869  0.3336
 1772SOL    MW4 7088   1.338   3.489   3.142  0.4255 -0.5738 -0.1396
 1773SOL     OW 7089   1.554   3.622   3.024 -0.2264 -0.9167  0.3004
 1773SOL    HW2 7090   1.471   3.581   3.051 -1.2706  0.5539 -0.6699
 1773SOL    HW3 7091   1.548   3.629   2.929  0.2531  0.8380  0.3897
 1773SOL    MW4 7092   1.542   3.617   3.015 -0.3009 -0.4911  0.1841
 1774SOL     OW 7093   1.588   3.868   3.149 -0.1341 -0.4865 -0.1239
 1774SOL    HW2 7094   1.664   3.906   3.104 -1.1775 -0.1776 -1.6468
 1774SOL    HW3 7095   1.569   3.788   3.100 -0.2712 -1.0264  0.7904
 1774SOL    MW4 7096   1.596   3.862   3.136 -0.2898 -0.5169 -0.2042
 1775SOL     OW 7097   1.369   4.012   3.026  0.2575  0.0127 -0.3697
 1775SOL    HW2 7098   1.439   3.966   3.071 -0.6871  1.2653  2.4940
 1775SOL    HW3 7099   1.289   3.968   3.053 -0.3702  1.0984 -0.4325
 1775SOL    MW4 7100   1.368   4.000   3.035  0.0501  0.3212 -0.0001
 1776SOL     OW 7101   1.372   4.265   3.123 -0.3288 -0.3003 -0.1392
 1776SOL    HW2 7102   1.374   4.176   3.086 -1.4058  0.0766 -1.1277
 1776SOL    HW3 7103   1.297   4.307   3.081 -0.1697  0.9030  0.7489
 1776SOL    MW4 7104   1.362   4.259   3.112 -0.4499 -0.0918 -0.1525
 1777SOL     OW 7105   1.593   4.348   2.988  0.1742  0.1346 -0.3442
 1777SOL    HW2 7106   1.516   4.311   3.032 -0.0684  1.1883  0.1621
 1777SOL    HW3 7107   1.594   4.440   3.017  2.8555 -0.3752  1.3733
 1777SOL    MW4 7108   1.583   4.356   2.998  0.4960  0.2064 -0.0508
 1778SOL     OW 7109   2.038   4.643   3.072 -0.4006 -0.3022 -0.1367
 1778SOL    HW2 7110   2.036   4.631   3.167  1.3064 -0.7293 -0.1410
 1778SOL    HW3 7111   1.959   4.693   3.053 -1.3409 -1.1889  1.3673
 1778SOL    MW4 7112   2.028   4.648   3.082 -0.2994 -0.4756  0.0611
 1779SOL     OW 7113   1.786   0.084   3.008  0.0539  0.0615  0.1778
 1779SOL    HW2 7114   1.714   0.027   3.034 -1.2674  1.3046 -0.6904
 1779SOL    HW3 7115   1.783   0.084   2.912  0.6813  0.7763  0.1559
 1779SOL    MW4 7116   1.776   0.076   2.999 -0.0376  0.3198  0.0603
 1780SOL     OW 7117   1.816   0.350   3.100 -0.0046  0.4639  0.5001
 1780SOL    HW2 7118   1.794   0.262   3.070  0.7866  0.6947 -0.8220
 1780SOL    HW3 7119   1.737   0.401   3.088  0.3574  0.5958 -1.4190
 1780SOL    MW4 7120   1.803   0.345   3.095  0.1475  0.5117  0.0724
 1781SOL     OW 7121   2.036   0.489   3.036 -0.3236  0.5760 -0.3611
 1781SOL    HW2 7122   1.962   0.428   3.039 -1.0219  1.4311  0.2424
 1781SOL    HW3 7123   2.048   0.506   2.942 -0.2893 -0.2848 -0.5158
 1781SOL    MW4 7124   2.028   0.483   3.024 -0.4112  0.5753 -0.3019
 1782SOL     OW 7125   2.041   0.753   3.117 -0.0355 -0.1546 -0.0316
 1782SOL    HW2 7126   1.965   0.802   3.086 -0.2061  0.5089  1.3839
 1782SOL    HW3 7127   2.023   0.663   3.092 -0.9287  0.1133 -0.3980
 1782SOL    MW4 7128   2.029   0.748   3.110 -0.1758 -0.0317  0.1068
 1783SOL     OW 7129   1.816   0.917   3.009 -0.1269  0.2205  0.1789
 1783SOL    HW2 7130   1.750   0.859   3.046 -0.6435  0.8928  0.3344
 1783SOL    HW3 7131   1.795   0.921   2.916  0.1275 -0.1294  0.1084
 1783SOL    MW4 7132   1.804   0.910   3.002 -0.1615  0.2630  0.1901
 1784SOL     OW 7133   1.764   1.149   3.133 -0.2298  0.0490 -0.0676
 1784SOL    HW2 7134   1.767   1.139   3.228  2.3401 -0.3237 -0.1415
 1784SOL    HW3 7135   1.774   1.060   3.099 -1.9787  0.0785 -0.7157
 1784SOL    MW4 7136   1.766   1.136   3.141 -0.1215  0.0037 -0.1629
 1785SOL     OW 7137   1.980   1.264   3.005 -0.3312 -0.0348 -1.0172
 1785SOL    HW2 7138   2.057   1.212   3.027 -0.6512 -0.9860 -2.0860
 1785SOL    HW3 7139   1.909   1.224   3.056 -0.3099  0.2170 -0.7904
 1785SOL    MW4 7140   1.981   1.251   3.015 -0.3706 -0.1271 -1.1283
 1786SOL     OW 7141   2.011   1.515   3.112  0.5253 -0.6522 -0.2729
 1786SOL    HW2 7142   1.999   1.506   3.206 -0.5735 -0.9334 -0.4259
 1786SOL    HW3 7143   1.986   1.430   3.076 -0.1365 -0.2073 -0.8976
 1786SOL    MW4 7144   2.006   1.503   3.119  0.2930 -0.6306 -0.3755
 1787SOL     OW 7145   1.795   1.677   3.002  0.3275 -0.4800  0.1463
 1787SOL    HW2 7146   1.799   1.764   3.042  0.2474 -0.0910 -0.6842
 1787SOL    HW3 7147   1.862   1.627   3.049 -0.2732 -0.2488  1.2764
 1787SOL    MW4 7148   1.804   1.682   3.014  0.2377 -0.3982  0.1858
 1788SOL     OW 7149   1.802   1.933   3.125 -0.1118  0.2052  0.4198
 1788SOL    HW2 7150   1.877   1.959   3.072  0.3401  0.3585  1.1213
 1788SOL    HW3 7151   1.734   1.997   3.105  0.1914  0.5017  0.3402
 1788SOL    MW4 7152   1.803   1.945   3.116 -0.0122  0.2646  0.5019
 1789SOL     OW 7153   2.011   2.057   2.991  0.4407  0.5318 -0.2038
 1789SOL    HW2 7154   2.088   2.009   3.022  1.0746  1.2215 -0.7107
 1789SOL    HW3 7155   2.000   2.129   3.053  0.1029  0.3452 -0.0418
 1789SOL    MW4 7156   2.020   2.060   3.003  0.4798  0.5981 -0.2493
 1790SOL     OW 7157   2.011   2.292   3.136  0.0139  0.2231  0.4008
 1790SOL    HW2 7158   2.084   2.323   3.083 -0.7471 -1.0417 -1.4226
 1790SOL    HW3 7159   1.934   2.335   3.099 -0.2737  1.0877  1.9357
 1790SOL    MW4 7160   2.010   2.302   3.124 -0.1245  0.1703  0.3627
 1791SOL     OW 7161   1.786   2.420   3.010 -0.0402  0.1125 -0.4520
 1791SOL    HW2 7162   1.798   2.510   3.041  0.4006 -0.0180 -0.2367
 1791SOL    HW3 7163   1.713   2.386   3.062 -0.4246  0.4512 -0.7674
 1791SOL    MW4 7164   1.778   2.427   3.021 -0.0328  0.1400 -0.4652
 1792SOL     OW 7165   1.772   2.685   3.126  0.5059 -0.2520  0.3831
 1792SOL    HW2 7166   1.768   2.673   3.220  1.6140  0.0482  0.4807
 1792SOL    HW3 7167   1.848   2.742   3.112 -0.1951  0.4742 -0.6132
 1792SOL    MW4 7168   1.781   2.691   3.136  0.5596 -0.1165  0.2646
 1793SOL     OW 7169   2.005   2.838   3.071  0.2206 -0.3728 -0.7717
 1793SOL    HW2 7170   2.004   2.930   3.096  0.3391 -1.0669  1.8717
 1793SOL    HW3 7171   1.998   2.839   2.975 -0.7885  2.3378 -0.7015
 1793SOL    MW4 7172   2.004   2.850   3.061  0.1031 -0.1068 -0.4137
 1794SOL     OW 7173   1.973   3.089   3.131 -0.2671 -0.1036 -0.5809
 1794SOL    HW2 7174   1.958   3.084   3.226  0.1550 -0.1856 -0.5137
 1794SOL    HW3 7175   1.902   3.143   3.098  0.3406  1.0531 -0.0287
 1794SOL    MW4 7176   1.962   3.096   3.139 -0.1312  0.0382 -0.4992
 1795SOL     OW 7177   1.777   3.259   3.042 -0.2014 -0.4948 -0.3120
 1795SOL    HW2 7178   1.705   3.197   3.054 -0.7410  0.0538 -0.6818
 1795SOL    HW3 7179   1.788   3.263   2.947 -1.2184  1.1581 -0.3790
 1795SOL    MW4 7180   1.769   3.251   3.031 -0.4068 -0.2044 -0.3696
 1796SOL     OW 7181   1.796   3.523   3.123 -0.3369 -0.1590  0.0065
 1796SOL    HW2 7182   1.792   3.428   3.108 -0.2408 -0.1824  0.1296
 1796SOL    HW3 7183   1.716   3.557   3.083  0.8413  0.0113 -2.2935
 1796SOL    MW4 7184   1.785   3.515   3.116 -0.1688 -0.1396 -0.2807
 1797SOL     OW 7185   2.020   3.621   2.953  0.0303 -0.1024 -0.2154
 1797SOL    HW2 7186   2.039   3.711   2.979  0.8398 -0.5390  0.7441
 1797SOL    HW3 7187   1.941   3.598   3.003  0.7113 -0.4372  0.7067
 1797SOL    MW4 7188   2.012   3.630   2.963  0.2269 -0.2042  0.0329
 1798SOL     OW 7189   2.035   3.880   3.088  0.0643  0.4563  0.2219
 1798SOL    HW2 7190   2.025   3.876   3.183 -0.4083 -0.0640  0.1536
 1798SOL    HW3 7191   1.960   3.932   3.059  0.6698  1.3312  0.2059
 1798SOL    MW4 7192   2.024   3.886   3.097  0.0818  0.5031  0.2108
 1799SOL     OW 7193   1.793   3.982   3.003 -0.1604 -0.3064  0.0488
 1799SOL    HW2 7194   1.805   4.070   3.039 -0.1303 -0.4265  0.3352
 1799SOL    HW3 7195   1.800   3.994   2.908 -1.1128  0.1571  0.0261
 1799SOL    MW4 7196   1.795   3.996   2.995 -0.2821 -0.2611  0.0836
 1800SOL     OW 7197   1.817   4.235   3.122 -0.2472 -0.2205 -0.1127
 1800SOL    HW2 7198   1.892   4.288   3.095  0.4625 -0.5977  1.0636
 1800SOL    HW3 7199   1.742   4.272   3.076  0.6263  0.3339 -1.0852
 1800SOL    MW4 7200   1.817   4.247   3.113 -0.0383 -0.1971 -0.0858
 1801SOL     OW 7201   2.023   4.383   3.001  0.4864  0.2785 -0.1850
 1801SOL    HW2 7202   2.027   4.476   3.022  0.1165  0.2512  0.0132
 1801SOL    HW3 7203   2.017   4.380   2.905 -1.1163  0.5228 -0.1139
 1801SOL    MW4 7204   2.022   4.395   2.991  0.2261  0.3071 -0.1494
 1802SOL     OW 7205   2.482   0.022   3.136 -0.2591 -0.3951  0.4436
 1802SOL    HW2 7206   2.480  -0.067   3.101 -0.2118 -0.3786  0.3988
 1802SOL    HW3 7207   2.412   0.068   3.088  1.4221  0.2939 -1.4253
 1802SOL    MW4 7208   2.472   0.017   3.125 -0.0310 -0.3020  0.1911
 1803SOL     OW 7209   2.269   0.135   2.983 -0.2477  0.2561 -0.3964
 1803SOL    HW2 7210   2.255   0.222   3.019 -0.5454 -0.9483  2.5684
 1803SOL    HW3 7211   2.187   0.088   3.002  0.2628 -0.9399 -1.0875
 1803SOL    MW4 7212   2.256   0.140   2.990 -0.2197 -0.0606 -0.0964
 1804SOL     OW 7213   2.272   0.374   3.104 -0.2153 -0.8502 -0.0104
 1804SOL    HW2 7214   2.267   0.365   3.199  0.3587  1.5760  0.2996
 1804SOL    HW3 7215   2.194   0.425   3.081  0.3851 -0.1987 -0.6276
 1804SOL    MW4 7216   2.261   0.380   3.114 -0.0604 -0.4442 -0.0510
 1805SOL     OW 7217   2.509   0.482   3.019 -0.3976 -0.6697  0.5683
 1805SOL    HW2 7218   2.425   0.446   3.046  0.2608 -0.7503  2.6253
 1805SOL    HW3 7219   2.496   0.509   2.928 -1.7446 -3.4300 -0.0919
 1805SOL    MW4 7220   2.496   0.481   3.010 -0.4884 -1.0445  0.7526
 1806SOL     OW 7221   2.506   0.730   3.163  0.6554  0.2261 -0.5072
 1806SOL    HW2 7222   2.573   0.782   3.119  0.2079  0.1893 -1.2267
 1806SOL    HW3 7223   2.515   0.642   3.126 -0.7548  0.5608 -1.6758
 1806SOL    MW4 7224   2.516   0.725   3.153  0.4103  0.2654 -0.7563
 1807SOL     OW 7225   2.311   0.839   2.999  0.0205  0.2545  0.3023
 1807SOL    HW2 7226   2.373   0.802   3.062 -0.5410 -1.2834 -0.0267
 1807SOL    HW3 7227   2.227   0.801   3.022 -0.3234  0.2485 -0.9055
 1807SOL    MW4 7228   2.308   0.829   3.010 -0.0990  0.0508  0.0995
 1808SOL     OW 7229   2.231   1.130   3.070  0.2243 -0.3836 -0.5158
 1808SOL    HW2 7230   2.207   1.112   3.161 -0.6844  0.2599 -0.6198
 1808SOL    HW3 7231   2.253   1.044   3.033  1.0044 -0.5866  0.4270
 1808SOL    MW4 7232   2.231   1.116   3.077  0.2074 -0.3255 -0.4052
 1809SOL     OW 7233   2.465   1.266   2.999  0.0700 -0.1517 -0.5372
 1809SOL    HW2 7234   2.379   1.257   3.040  0.4906  1.0902  0.6402
 1809SOL    HW3 7235   2.448   1.258   2.905 -1.6984  2.5453 -0.4828
 1809SOL    MW4 7236   2.452   1.264   2.992 -0.1078  0.3680 -0.3747
 1810SOL     OW 7237   2.485   1.532   3.149 -0.5359 -0.0802 -0.3156
 1810SOL    HW2 7238   2.411   1.583   3.117 -1.2090 -1.3597 -0.8494
 1810SOL    HW3 7239   2.503   1.469   3.078  0.4230 -0.4210  0.2220
 1810SOL    MW4 7240   2.478   1.530   3.135 -0.4982 -0.2940 -0.3151
 1811SOL     OW 7241   2.260   1.654   3.057 -0.0675  0.2183  0.2880
 1811SOL    HW2 7242   2.191   1.589   3.072 -0.5121  0.6733  0.2544
 1811SOL    HW3 7243   2.276   1.651   2.963  0.7357 -0.6593  0.4488
 1811SOL    MW4 7244   2.253   1.645   3.047 -0.0202  0.1626  0.3048
 1812SOL     OW 7245   2.204   1.915   3.122  0.0890 -0.0320 -0.1237
 1812SOL    HW2 7246   2.288   1.945   3.087 -0.6653  0.3352 -1.6582
 1812SOL    HW3 7247   2.186   1.834   3.074 -0.8546  0.3502 -0.4058
 1812SOL    MW4 7248   2.213   1.908   3.111 -0.1350  0.0669 -0.3634
 1813SOL     OW 7249   2.446   2.014   3.023  0.2058  0.3094  0.5665
 1813SOL    HW2 7250   2.535   1.984   3.042 -0.4251 -1.5083  0.6655
 1813SOL    HW3 7251   2.447   2.034   2.929  0.2792 -1.2787  0.2193
 1813SOL    MW4 7252   2.458   2.013   3.013  0.1323 -0.1399  0.5337
 1814SOL     OW 7253   2.471   2.288   3.129 -0.3453  0.4484  0.1216
 1814SOL    HW2 7254   2.479   2.283   3.224  0.5269  0.6389  0.0638
 1814SOL    HW3 7255   2.463   2.197   3.100 -0.9040  0.4105  0.4030
 1814SOL    MW4 7256   2.471   2.276   3.138 -0.3040  0.4686  0.1511
 1815SOL     OW 7257   2.234   2.393   3.000 -0.1796 -0.5414  0.0828
 1815SOL    HW2 7258   2.237   2.487   3.021 -0.6460 -0.2381 -1.1807
 1815SOL    HW3 7259   2.309   2.356   3.046 -0.5443  0.2887  1.3898
 1815SOL    MW4 7260   2.244   2.401   3.009 -0.2893 -0.3919  0.0885
 1816SOL     OW 7261   2.224   2.655   3.083  0.1328 -0.1509 -0.9348
 1816SOL    HW2 7262   2.290   2.721   3.060  0.3216  0.1742  0.4929
 1816SOL    HW3 7263   2.141   2.702   3.082  0.3838  0.3994  1.1315
 1816SOL    MW4 7264   2.222   2.670   3.080  0.1908 -0.0354 -0.4738
 1817SOL     OW 7265   2.439   2.796   3.034  0.5378 -0.0273  0.1813
 1817SOL    HW2 7266   2.435   2.890   3.048  0.9147  0.0335 -0.1308
 1817SOL    HW3 7267   2.432   2.785   2.939  0.6983 -0.3017  0.2006
 1817SOL    MW4 7268   2.437   2.807   3.023  0.6087 -0.0555  0.1427
 1818SOL     OW 7269   2.478   3.062   3.095  0.0362  0.1899  0.0266
 1818SOL    HW2 7270   2.553   3.114   3.065  0.0700 -0.4405 -1.0168
 1818SOL    HW3 7271   2.403   3.121   3.089 -0.1139 -0.2060 -2.2350
 1818SOL    MW4 7272   2.478   3.076   3.090  0.0209  0.0545 -0.4095
 1819SOL     OW 7273   2.246   3.202   3.041  0.1192  0.1557  0.1140
 1819SOL    HW2 7274   2.221   3.293   3.056 -1.0914 -0.1770  0.1668
 1819SOL    HW3 7275   2.166   3.152   3.059  0.1435 -0.7286 -2.1303
 1819SOL    MW4 7276   2.232   3.207   3.046 -0.0373 -0.0049 -0.1751
 1820SOL     OW 7277   2.206   3.465   3.082  0.1164 -0.2954  0.2307
 1820SOL    HW2 7278   2.290   3.504   3.057 -0.2011  0.2090 -0.0651
 1820SOL    HW3 7279   2.141   3.515   3.032 -0.3216 -1.0014  0.0843
 1820SOL    MW4 7280   2.209   3.476   3.072  0.0167 -0.3220  0.1724
 1821SOL     OW 7281   2.440   3.591   2.993  0.0561  0.0834 -0.4994
 1821SOL    HW2 7282   2.524   3.559   3.026  0.0594  1.0196  0.4283
 1821SOL    HW3 7283   2.447   3.686   2.997 -2.1841  0.1847  2.6532
 1821SOL    MW4 7284   2.452   3.599   2.998 -0.2390  0.2203  0.0389
 1822SOL     OW 7285   2.474   3.857   3.063 -0.3083  0.4931  0.2320
 1822SOL    HW2 7286   2.461   3.852   3.158  0.3401 -0.0308  0.2973
 1822SOL    HW3 7287   2.553   3.910   3.053  0.1138 -0.1659  0.0227
 1822SOL    MW4 7288   2.483   3.863   3.074 -0.1671  0.3370  0.2130
 1823SOL     OW 7289   2.250   3.997   2.979 -0.4268  0.4591  0.6254
 1823SOL    HW2 7290   2.326   3.955   3.019  0.0168 -0.6828 -1.3356
 1823SOL    HW3 7291   2.175   3.953   3.019  0.0252 -1.9228 -1.0190
 1823SOL    MW4 7292   2.250   3.986   2.990 -0.3087 -0.0058  0.1497
 1824SOL     OW 7293   2.243   4.254   3.090  0.1876  0.2860 -0.1774
 1824SOL    HW2 7294   2.234   4.168   3.047  0.6730  0.0395  0.2192
 1824SOL    HW3 7295   2.163   4.300   3.066  0.7943  0.4379 -2.0163
 1824SOL    MW4 7296   2.231   4.249   3.081  0.3317  0.2735 -0.3677
 1825SOL     OW 7297   2.470   4.428   3.025 -0.0127 -0.3984 -0.1143
 1825SOL    HW2 7298   2.384   4.394   3.048 -0.8253  2.0188  0.5782
 1825SOL    HW3 7299   2.475   4.419   2.930  0.2602 -3.3597  0.1128
 1825SOL    MW4 7300   2.459   4.422   3.016 -0.0839 -0.4702  0.0070
 1826SOL     OW 7301   2.909   4.635   3.122 -0.0891 -0.5156  0.0831
 1826SOL    HW2 7302   2.983   4.671   3.072 -0.1050 -0.0747  0.3698
 1826SOL    HW3 7303   2.907   4.542   3.099 -0.3167 -0.2455 -0.9962
 1826SOL    MW4 7304   2.919   4.628   3.112 -0.1212 -0.4218 -0.0214
 1827SOL     OW 7305   2.717   0.127   3.006  0.2002 -0.3429 -0.2075
 1827SOL    HW2 7306   2.779   0.073   3.056 -0.4791  1.1366  2.3278
 1827SOL    HW3 7307   2.631   0.092   3.030 -0.0976 -0.6971 -1.7066
 1827SOL    MW4 7308   2.714   0.115   3.016  0.0713 -0.1944 -0.0708
 1828SOL     OW 7309   2.729   0.377   3.143  0.0155  0.4921  0.2469
 1828SOL    HW2 7310   2.745   0.291   3.104  1.3492  1.7472 -2.0944
 1828SOL    HW3 7311   2.642   0.402   3.111 -0.9017 -0.4619  1.9101
 1828SOL    MW4 7312   2.719   0.369   3.134  0.0705  0.5318  0.1574
 1829SOL     OW 7313   2.934   0.514   3.001  0.2806 -0.2357  0.0549
 1829SOL    HW2 7314   2.853   0.472   3.028  0.2221  0.2377  0.6378
 1829SOL    HW3 7315   2.935   0.506   2.905 -0.0476 -0.9598  0.1112
 1829SOL    MW4 7316   2.924   0.508   2.992  0.2296 -0.2688  0.1392
 1830SOL     OW 7317   2.920   0.779   3.084 -0.2853 -0.0602  0.1262
 1830SOL    HW2 7318   2.924   0.752   3.176  3.0053 -0.1767  0.0119
 1830SOL    HW3 7319   2.927   0.696   3.035 -1.0426  0.0831 -0.2253
 1830SOL    MW4 7320   2.922   0.764   3.089  0.0490 -0.0567  0.0647
 1831SOL     OW 7321   2.690   0.882   2.984 -0.1641  0.4558  0.1590
 1831SOL    HW2 7322   2.685   0.962   3.037  1.2165  0.3676  0.4224
 1831SOL    HW3 7323   2.773   0.842   3.008 -0.6595 -0.8559 -0.2864
 1831SOL    MW4 7324   2.700   0.887   2.994 -0.0473  0.2711  0.1350
 1832SOL     OW 7325   2.672   1.117   3.117 -0.2033 -0.3846  0.1676
 1832SOL    HW2 7326   2.746   1.154   3.069 -0.0800  0.4590  0.9823
 1832SOL    HW3 7327   2.595   1.161   3.080 -0.3247 -1.3568 -0.7694
 1832SOL    MW4 7328   2.671   1.128   3.106 -0.2030 -0.4016  0.1514
 1833SOL     OW 7329   2.908   1.267   3.019  0.2384 -0.2426  0.0537
 1833SOL    HW2 7330   2.998   1.245   3.044  0.6307 -0.2044 -1.2984
 1833SOL    HW3 7331   2.895   1.356   3.054  0.9650  0.0281 -0.3546
 1833SOL    MW4 7332   2.919   1.276   3.027  0.3860 -0.2018 -0.1786
 1834SOL     OW 7333   2.891   1.525   3.119  0.7544 -0.3229  0.2776
 1834SOL    HW2 7334   2.894   1.537   3.214 -0.9613  1.2012  0.1548
 1834SOL    HW3 7335   2.973   1.563   3.088  1.3680 -0.9178  1.1376
 1834SOL    MW4 7336   2.903   1.532   3.127  0.6090 -0.2003  0.3749
 1835SOL     OW 7337   2.681   1.662   3.006  0.1884  0.1407 -0.1850
 1835SOL    HW2 7338   2.764   1.633   3.044  0.3791  0.4728 -0.3472
 1835SOL    HW3 7339   2.614   1.618   3.058  0.4761 -0.5270 -0.3734
 1835SOL    MW4 7340   2.683   1.652   3.018  0.2515  0.0964 -0.2313
 1836SOL     OW 7341   2.705   1.933   3.104 -0.7025  0.3930 -0.3342
 1836SOL    HW2 7342   2.791   1.973   3.092 -1.4081  1.6606 -1.3908
 1836SOL    HW3 7343   2.711   1.848   3.061  0.0567  0.4386 -0.3110
 1836SOL    MW4 7344   2.717   1.927   3.097 -0.6954  0.5663 -0.4705
 1837SOL     OW 7345   2.947   2.041   2.969 -0.0319 -0.0156 -0.4361
 1837SOL    HW2 7346   2.927   2.122   3.016 -0.0126  1.2134 -2.5052
 1837SOL    HW3 7347   2.947   2.065   2.877 -0.7271 -2.5403 -1.1442
 1837SOL    MW4 7348   2.944   2.055   2.963 -0.1211 -0.1865 -0.8025
 1838SOL     OW 7349   2.913   2.275   3.120 -0.0431 -0.2603  0.2550
 1838SOL    HW2 7350   2.988   2.333   3.101 -0.1336 -0.3055 -0.2489
 1838SOL    HW3 7351   2.837   2.325   3.093 -0.1868 -0.2822  0.6142
 1838SOL    MW4 7352   2.913   2.289   3.114 -0.0740 -0.2691  0.2359
 1839SOL     OW 7353   2.695   2.404   2.996 -0.4261  0.1465  0.0974
 1839SOL    HW2 7354   2.701   2.491   3.036  1.4384 -0.4511  1.1829
 1839SOL    HW3 7355   2.618   2.364   3.037 -1.6550  1.4616 -0.8449
 1839SOL    MW4 7356   2.686   2.410   3.007 -0.3422  0.2412  0.1163
 1840SOL     OW 7357   2.681   2.662   3.130  0.1963 -0.1899 -0.1180
 1840SOL    HW2 7358   2.673   2.662   3.225  0.4531 -1.7781 -0.0779
 1840SOL    HW3 7359   2.600   2.702   3.099 -0.9188 -1.7282  0.7200
 1840SOL    MW4 7360   2.669   2.667   3.138  0.0830 -0.6024 -0.0022
 1841SOL     OW 7361   2.893   2.803   3.022  0.2394  0.1458 -0.0114
 1841SOL    HW2 7362   2.962   2.753   3.067 -0.4334 -1.7121 -1.0031
 1841SOL    HW3 7363   2.812   2.761   3.049 -0.3598  0.8653 -0.6859
 1841SOL    MW4 7364   2.892   2.791   3.031  0.0716 -0.0044 -0.2313
 1842SOL     OW 7365   2.921   3.049   3.129  0.0734 -0.1602  0.0468
 1842SOL    HW2 7366   2.843   3.096   3.098  0.4492  0.8099  0.5496
 1842SOL    HW3 7367   2.909   2.960   3.098 -0.5805  0.3067 -1.0757
 1842SOL    MW4 7368   2.909   3.044   3.121  0.0367  0.0294 -0.0350
 1843SOL     OW 7369   2.694   3.209   3.031  0.1536 -0.5368 -0.4519
 1843SOL    HW2 7370   2.676   3.301   3.046  2.5382 -0.0126 -0.5391
 1843SOL    HW3 7371   2.700   3.200   2.936 -0.8971 -0.9657 -0.4866
 1843SOL    MW4 7372   2.693   3.220   3.020  0.3296 -0.5242 -0.4680
 1844SOL     OW 7373   2.682   3.483   3.084  0.0580 -0.1001 -0.1111
 1844SOL    HW2 7374   2.688   3.470   3.178  0.4674  0.2328 -0.0863
 1844SOL    HW3 7375   2.770   3.511   3.058 -0.4160  1.2065 -0.3637
 1844SOL    MW4 7376   2.694   3.485   3.093  0.0495  0.1162 -0.1412
 1845SOL     OW 7377   2.926   3.590   2.997  0.2414 -0.2783 -0.2205
 1845SOL    HW2 7378   2.991   3.543   3.049  0.1595 -0.2775 -0.1161
 1845SOL    HW3 7379   2.918   3.675   3.041 -0.2911 -0.5081  0.1421
 1845SOL    MW4 7380   2.934   3.595   3.010  0.1604 -0.3085 -0.1589
 1846SOL     OW 7381   2.915   3.836   3.135  0.3357 -0.0408  0.3053
 1846SOL    HW2 7382   2.924   3.834   3.231  0.2819  0.6500  0.3262
 1846SOL    HW3 7383   2.840   3.893   3.119  1.2100  0.9900 -0.1924
 1846SOL    MW4 7384   2.907   3.844   3.146  0.4440  0.1863  0.2424
 1847SOL     OW 7385   2.720   3.991   3.033 -0.0697 -0.7013  0.0776
 1847SOL    HW2 7386   2.720   4.085   3.051  0.3072 -0.6820 -0.0207
 1847SOL    HW3 7387   2.715   3.985   2.937  0.9726 -0.7697  0.0241
 1847SOL    MW4 7388   2.719   4.002   3.022  0.1175 -0.7077  0.0575
 1848SOL     OW 7389   2.678   4.261   3.104 -0.0903 -0.5057  0.2095
 1848SOL    HW2 7390   2.677   4.267   3.200  0.9495 -1.6824  0.3060
 1848SOL    HW3 7391   2.607   4.319   3.076 -0.4463 -0.1946  1.6899
 1848SOL    MW4 7392   2.669   4.270   3.113 -0.0001 -0.6199  0.4176
 1849SOL     OW 7393   2.923   4.374   2.992  0.2274 -0.4749 -0.4174
 1849SOL    HW2 7394   3.005   4.335   3.024 -0.4925 -0.8331  0.9921
 1849SOL    HW3 7395   2.854   4.328   3.039 -0.7595  0.3805 -1.0137
 1849SOL    MW4 7396   2.925   4.363   3.002  0.0022 -0.4093 -0.3101
 1850SOL     OW 7397   3.381   4.615   3.134  0.0802 -0.1683 -0.9609
 1850SOL    HW2 7398   3.451   4.666   3.093 -0.9378  0.9487 -1.3474
 1850SOL    HW3 7399   3.376   4.536   3.081 -0.7533  0.9582 -2.6089
 1850SOL    MW4 7400   3.390   4.612   3.122 -0.1641  0.1277 -1.2293
 1851SOL     OW 7401   3.139   0.087   3.032  0.4825  0.0894 -0.0050
 1851SOL    HW2 7402   3.150   0.177   3.064 -0.1035  0.0469  0.3317
 1851SOL    HW3 7403   3.217   0.041   3.063 -1.3001 -0.6273  3.8523
 1851SOL    MW4 7404   3.151   0.093   3.041  0.1700 -0.0108  0.5483
 1852SOL     OW 7405   3.134   0.373   3.115  0.1899  0.0399 -0.1505
 1852SOL    HW2 7406   3.214   0.423   3.096  0.9460 -1.2934 -0.5651
 1852SOL    HW3 7407   3.063   0.429   3.086  1.0042  1.0624 -0.1888
 1852SOL    MW4 7408   3.136   0.387   3.109  0.3971 -0.0011 -0.2103
 1853SOL     OW 7409   3.368   0.519   3.049 -0.1079 -0.1506  0.1138
 1853SOL    HW2 7410   3.444   0.465   3.069 -0.6010 -1.1778 -0.7525
 1853SOL    HW3 7411   3.348   0.500   2.957 -0.6486  1.0595 -0.0310
 1853SOL    MW4 7412   3.375   0.509   3.040 -0.2443 -0.1265 -0.0196
 1854SOL     OW 7413   3.378   0.781   3.095 -0.7831 -0.1445  0.7110
 1854SOL    HW2 7414   3.375   0.765   3.190  1.1214  0.2339  0.8694
 1854SOL    HW3 7415   3.391   0.694   3.056  2.2569  0.0639  1.0896
 1854SOL    MW4 7416   3.380   0.767   3.103 -0.1307 -0.0671  0.7818
 1855SOL     OW 7417   3.144   0.922   3.033  0.2271 -0.2923 -0.8677
 1855SOL    HW2 7418   3.211   0.865   3.072 -0.1325  0.2004  0.5219
 1855SOL    HW3 7419   3.062   0.873   3.044  0.2694 -0.6304 -2.0207
 1855SOL    MW4 7420   3.142   0.908   3.040  0.1852 -0.2719 -0.8365
 1856SOL     OW 7421   3.152   1.185   3.093 -0.2653  0.1331  0.2491
 1856SOL    HW2 7422   3.230   1.216   3.048 -0.9900  0.0020 -1.1202
 1856SOL    HW3 7423   3.153   1.090   3.081 -0.5730  0.1206  0.3182
 1856SOL    MW4 7424   3.162   1.177   3.085 -0.4015  0.1142  0.0776
 1857SOL     OW 7425   3.409   1.262   2.993 -0.0311 -0.2772  0.0521
 1857SOL    HW2 7426   3.489   1.230   3.035 -0.1857 -0.4800  0.1909
 1857SOL    HW3 7427   3.397   1.350   3.030  0.6198  0.1101 -0.6386
 1857SOL    MW4 7428   3.418   1.270   3.004  0.0344 -0.2529 -0.0207
 1858SOL     OW 7429   3.363   1.520   3.099  0.2039  0.3327 -0.3491
 1858SOL    HW2 7430   3.364   1.501   3.193 -1.0966 -0.5615 -0.4989
 1858SOL    HW3 7431   3.437   1.579   3.086  0.5865  0.2263  1.1858
 1858SOL    MW4 7432   3.373   1.526   3.110  0.0828  0.2007 -0.1663
 1859SOL     OW 7433   3.124   1.647   3.014  0.0428 -0.1172  0.1107
 1859SOL    HW2 7434   3.197   1.591   3.039 -0.7553 -1.4300 -0.4639
 1859SOL    HW3 7435   3.141   1.669   2.923 -0.5382 -0.8483 -0.1786
 1859SOL    MW4 7436   3.136   1.642   3.006 -0.1391 -0.3869 -0.0033
 1860SOL     OW 7437   3.157   1.907   3.097  0.4850  0.2098 -0.0707
 1860SOL    HW2 7438   3.138   1.816   3.073  0.8189  0.2471 -0.4814
 1860SOL    HW3 7439   3.084   1.957   3.060  1.0359  0.2756 -1.0887
 1860SOL    MW4 7440   3.145   1.901   3.089  0.6018  0.2234 -0.2592
 1861SOL     OW 7441   3.383   2.045   2.973 -0.2324 -0.2052 -0.2470
 1861SOL    HW2 7442   3.460   1.998   3.003  0.4419  0.1621 -1.3824
 1861SOL    HW3 7443   3.309   1.992   3.004  0.4772 -0.8546  0.3545
 1861SOL    MW4 7444   3.383   2.032   2.981 -0.0498 -0.2424 -0.3175
 1862SOL     OW 7445   3.382   2.304   3.076  0.7641 -0.0440 -0.3370
 1862SOL    HW2 7446   3.364   2.301   3.169 -0.5996 -0.0866 -0.6037
 1862SOL    HW3 7447   3.384   2.212   3.048  0.6332 -0.0136 -0.4501
 1862SOL    MW4 7448   3.380   2.292   3.084  0.5669 -0.0456 -0.3871
 1863SOL     OW 7449   3.145   2.429   3.033  0.5470  0.0791  0.2631
 1863SOL    HW2 7450   3.232   2.390   3.044  1.1629  0.9388 -1.3366
 1863SOL    HW3 7451   3.127   2.421   2.940 -0.9361  0.2554  0.5304
 1863SOL    MW4 7452   3.154   2.423   3.022  0.4326  0.2158  0.0873
 1864SOL     OW 7453   3.135   2.689   3.124  0.2029  0.0647  0.2494
 1864SOL    HW2 7454   3.130   2.678   3.219 -1.3642  0.4345  0.2245
 1864SOL    HW3 7455   3.147   2.601   3.090 -2.3922 -0.4749  0.6255
 1864SOL    MW4 7456   3.136   2.676   3.132 -0.3462  0.0423  0.2958
 1865SOL     OW 7457   3.392   2.801   3.061 -0.4142 -0.4506  0.3476
 1865SOL    HW2 7458   3.387   2.892   3.092  0.3028 -0.6658  1.1088
 1865SOL    HW3 7459   3.306   2.764   3.081 -1.4547  0.6578 -1.8991
 1865SOL    MW4 7460   3.380   2.808   3.068 -0.4569 -0.3327  0.1516
 1866SOL     OW 7461   3.389   3.067   3.123 -0.2537 -0.5864 -0.2960
 1866SOL    HW2 7462   3.389   3.062   3.219  2.4617  2.9696 -0.0090
 1866SOL    HW3 7463   3.306   3.110   3.102  0.1698  0.7044  0.6281
 1866SOL    MW4 7464   3.378   3.072   3.133  0.1604  0.0530 -0.1362
 1867SOL     OW 7465   3.144   3.173   3.039  0.4752 -0.3275 -0.0228
 1867SOL    HW2 7466   3.068   3.131   3.079  0.4197  0.5536  0.8067
 1867SOL    HW3 7467   3.121   3.181   2.946 -0.1087 -0.7883  0.0776
 1867SOL    MW4 7468   3.131   3.168   3.032  0.3909 -0.2720  0.0999
 1868SOL     OW 7469   3.135   3.445   3.123  0.2849  0.1429 -0.1040
 1868SOL    HW2 7470   3.200   3.491   3.070 -0.5859  0.4837 -0.8897
 1868SOL    HW3 7471   3.137   3.355   3.091 -0.3274  0.3751 -0.8257
 1868SOL    MW4 7472   3.143   3.439   3.112  0.0892  0.2185 -0.3029
 1869SOL     OW 7473   3.319   3.600   2.977 -0.1471 -0.1158 -0.1817
 1869SOL    HW2 7474   3.404   3.560   2.996  1.0109  2.2461 -0.1775
 1869SOL    HW3 7475   3.324   3.687   3.019 -1.9093  0.6988 -1.6212
 1869SOL    MW4 7476   3.331   3.606   2.985 -0.2268  0.3033 -0.3711
 1870SOL     OW 7477   3.334   3.827   3.113 -0.1371  0.1320 -0.5228
 1870SOL    HW2 7478   3.344   3.822   3.208  1.1846  0.5633 -0.6336
 1870SOL    HW3 7479   3.257   3.881   3.099 -0.3381  0.0580  0.3023
 1870SOL    MW4 7480   3.325   3.833   3.124  0.0108  0.1791 -0.4286
 1871SOL     OW 7481   3.122   3.976   3.024 -0.3071 -0.2584  0.1847
 1871SOL    HW2 7482   3.047   3.932   3.065  0.3178 -0.3653  1.2433
 1871SOL    HW3 7483   3.098   3.985   2.932 -1.9301  0.3713  0.6578
 1871SOL    MW4 7484   3.109   3.971   3.018 -0.4388 -0.1894  0.3868
 1872SOL     OW 7485   3.150   4.238   3.091 -0.1804  0.0230 -0.3823
 1872SOL    HW2 7486   3.138   4.230   3.186 -1.7164  1.9984 -0.3860
 1872SOL    HW3 7487   3.145   4.148   3.059 -0.6457 -0.5659  1.2914
 1872SOL    MW4 7488   3.148   4.225   3.099 -0.4444  0.2059 -0.1620
 1873SOL     OW 7489   3.367   4.380   2.993 -0.0732  0.8552 -0.0121
 1873SOL    HW2 7490   3.439   4.323   3.018 -0.5189  0.2556 -0.0823
 1873SOL    HW3 7491   3.288   4.331   3.016 -0.4572  1.7396  0.5845
 1873SOL    MW4 7492   3.366   4.366   2.999 -0.1827  0.8928  0.0574
 1874SOL     OW 7493   3.801   4.635   3.085  0.5781 -0.1738 -0.0685
 1874SOL    HW2 7494   3.804   4.550   3.039  1.2451 -0.4828  0.5414
 1874SOL    HW3 7495   3.727   4.680   3.045 -0.4762 -1.4841  0.3507
 1874SOL    MW4 7496   3.792   4.630   3.074  0.5270 -0.3874  0.0673
 1875SOL     OW 7497   3.584   0.121   3.003  0.3072  0.0114  0.4506
 1875SOL    HW2 7498   3.588   0.205   3.050  0.0998  0.1583  0.2054
 1875SOL    HW3 7499   3.572   0.145   2.911 -0.5182 -0.3005  0.4703
 1875SOL    MW4 7500   3.583   0.135   2.997  0.1709 -0.0104  0.4209
 1876SOL     OW 7501   3.582   0.367   3.120  0.1162  0.4826 -0.2473
 1876SOL    HW2 7502   3.584   0.358   3.215 -1.0606  1.2153 -0.1479
 1876SOL    HW3 7503   3.662   0.415   3.099 -0.2020  1.3585  0.4920
 1876SOL    MW4 7504   3.593   0.372   3.130 -0.0810  0.6948 -0.1366
 1877SOL     OW 7505   3.799   0.494   3.034  0.0611  0.2716 -0.1384
 1877SOL    HW2 7506   3.883   0.452   3.055  0.5408  1.7461  1.0036
 1877SOL    HW3 7507   3.795   0.569   3.092 -1.4587  0.9789 -1.1237
 1877SOL    MW4 7508   3.810   0.498   3.044 -0.0761  0.5595 -0.1177
 1878SOL     OW 7509   3.805   0.741   3.166  0.1131 -0.1855 -0.3211
 1878SOL    HW2 7510   3.799   0.752   3.260  0.7473  1.4672 -0.4716
 1878SOL    HW3 7511   3.885   0.786   3.141 -0.5518  0.2297 -1.7763
 1878SOL    MW4 7512   3.815   0.748   3.175  0.1091  0.0873 -0.5329
 1879SOL     OW 7513   3.621   0.887   3.021 -0.1729 -0.3732 -0.2817
 1879SOL    HW2 7514   3.676   0.833   3.078 -0.8437 -0.5209  0.2364
 1879SOL    HW3 7515   3.531   0.858   3.041 -0.3622 -1.2099 -2.1983
 1879SOL    MW4 7516   3.616   0.876   3.031 -0.2864 -0.5031 -0.4662
 1880SOL     OW 7517   3.633   1.138   3.121  0.6431 -0.0690  0.2475
 1880SOL    HW2 7518   3.710   1.185   3.090  2.3951 -1.2698  2.4929
 1880SOL    HW3 7519   3.636   1.054   3.075  1.1623 -0.4080  0.8693
 1880SOL    MW4 7520   3.643   1.133   3.111  0.9428 -0.2721  0.6258
 1881SOL     OW 7521   3.823   1.294   3.026 -0.8279  0.3753  0.1299
 1881SOL    HW2 7522   3.851   1.379   3.060  1.5260 -0.4120  0.2546
 1881SOL    HW3 7523   3.826   1.304   2.931 -1.0291  0.5793  0.1445
 1881SOL    MW4 7524   3.827   1.306   3.018 -0.5438  0.2983  0.1483
 1882SOL     OW 7525   3.848   1.545   3.140 -0.2491  0.0530 -0.1574
 1882SOL    HW2 7526   3.845   1.557   3.235 -0.4572 -2.1412  0.1447
 1882SOL    HW3 7527   3.767   1.584   3.108 -1.0690 -0.8304  0.7893
 1882SOL    MW4 7528   3.837   1.552   3.148 -0.3847 -0.3531  0.0074
 1883SOL     OW 7529   3.593   1.670   3.019  0.1706  0.0787  0.0309
 1883SOL    HW2 7530   3.592   1.766   3.023  0.7528  0.0947 -0.1676
 1883SOL    HW3 7531   3.579   1.649   2.927  0.6837 -0.0130 -0.0280
 1883SOL    MW4 7532   3.591   1.680   3.007  0.3151  0.0687 -0.0031
 1884SOL     OW 7533   3.616   1.942   3.086  0.0131  0.0206  0.1729
 1884SOL    HW2 7534   3.607   1.937   3.181 -0.4772 -0.7176  0.0961
 1884SOL    HW3 7535   3.700   1.985   3.072 -0.4251  1.1591  0.9408
 1884SOL    MW4 7536   3.626   1.947   3.097 -0.1094  0.0734  0.2641
 1885SOL     OW 7537   3.848   2.082   2.989 -0.2711  0.3772 -0.2065
 1885SOL    HW2 7538   3.867   2.169   3.026 -2.6119  0.9460 -0.2189
 1885SOL    HW3 7539   3.843   2.096   2.895  2.1532 -0.3687 -0.4797
 1885SOL    MW4 7540   3.850   2.095   2.982 -0.2601  0.3538 -0.2442
 1886SOL     OW 7541   3.867   2.316   3.139 -0.0049 -0.8220  0.0619
 1886SOL    HW2 7542   3.848   2.322   3.233 -1.0708  0.1526 -0.2022
 1886SOL    HW3 7543   3.787   2.349   3.097  0.0279 -2.3416 -1.2146
 1886SOL    MW4 7544   3.854   2.322   3.146 -0.1412 -0.8939 -0.1414
 1887SOL     OW 7545   3.642   2.425   3.022  0.1985  0.3062 -0.4330
 1887SOL    HW2 7546   3.641   2.514   3.057  0.4467  0.1003  0.1053
 1887SOL    HW3 7547   3.561   2.385   3.055  0.1437  0.2991 -0.5774
 1887SOL    MW4 7548   3.631   2.431   3.031  0.2240  0.2781 -0.3810
 1888SOL     OW 7549   3.623   2.674   3.118  0.4666  0.0030  0.3043
 1888SOL    HW2 7550   3.699   2.719   3.082 -0.1215 -0.0855 -1.0772
 1888SOL    HW3 7551   3.548   2.724   3.086 -0.1461 -1.2376 -0.2616
 1888SOL    MW4 7552   3.623   2.686   3.109  0.3082 -0.1724  0.0474
 1889SOL     OW 7553   3.842   2.805   3.025  0.1667 -0.1956 -0.3600
 1889SOL    HW2 7554   3.824   2.892   3.060  0.8828  0.4854 -1.6355
 1889SOL    HW3 7555   3.853   2.819   2.931 -0.6594 -1.8145 -0.7129
 1889SOL    MW4 7556   3.841   2.818   3.017  0.1522 -0.3193 -0.5749
 1890SOL     OW 7557   3.810   3.101   3.120 -0.3743  0.2299 -0.5290
 1890SOL    HW2 7558   3.886   3.153   3.093 -0.4978  0.7950  0.2107
 1890SOL    HW3 7559   3.734   3.152   3.091 -0.4948  0.4151  0.1237
 1890SOL    MW4 7560   3.810   3.114   3.112 -0.4065  0.3289 -0.3453
 1891SOL     OW 7561   3.592   3.250   3.048 -0.4777 -0.0286 -0.6724
 1891SOL    HW2 7562   3.525   3.192   3.083 -1.3736  1.2155 -0.2733
 1891SOL    HW3 7563   3.601   3.225   2.956 -1.2280 -0.4363 -0.6311
 1891SOL    MW4 7564   3.585   3.239   3.040 -0.6949  0.0818 -0.6143
 1892SOL     OW 7565   3.570   3.530   3.067  0.1176  0.5127 -0.5556
 1892SOL    HW2 7566   3.659   3.552   3.038  0.2712  1.0215  0.3024
 1892SOL    HW3 7567   3.568   3.434   3.063  0.6833  0.4973 -0.6367
 1892SOL    MW4 7568   3.582   3.520   3.062  0.2125  0.5778 -0.4531
 1893SOL     OW 7569   3.834   3.601   2.977 -0.0685 -0.1736 -0.0865
 1893SOL    HW2 7570   3.833   3.693   3.006 -0.6781 -0.3006  0.3091
 1893SOL    HW3 7571   3.835   3.606   2.882 -3.0773  0.2556 -0.1513
 1893SOL    MW4 7572   3.834   3.614   2.968 -0.5459 -0.1338 -0.0429
 1894SOL     OW 7573   3.810   3.847   3.119  0.0732 -0.4753 -0.0151
 1894SOL    HW2 7574   3.812   3.863   3.214  0.6866 -0.0530 -0.0927
 1894SOL    HW3 7575   3.721   3.869   3.093 -0.6323 -2.3210  0.7532
 1894SOL    MW4 7576   3.799   3.852   3.128  0.0610 -0.6631  0.0761
 1895SOL     OW 7577   3.573   3.926   3.015  0.6284 -0.4643 -0.4255
 1895SOL    HW2 7578   3.487   3.897   3.046  0.9009 -0.7716  0.0560
 1895SOL    HW3 7579   3.562   3.940   2.921 -0.2844  0.7392 -0.1405
 1895SOL    MW4 7580   3.560   3.924   3.007  0.5439 -0.3460 -0.3243
 1896SOL     OW 7581   3.586   4.215   3.091 -0.1970 -0.1200  0.1332
 1896SOL    HW2 7582   3.675   4.245   3.071  0.0080  0.8705  2.3073
 1896SOL    HW3 7583   3.591   4.119   3.083  0.7150  0.0234 -1.0747
 1896SOL    MW4 7584   3.599   4.206   3.088 -0.0497  0.0296  0.2607
 1897SOL     OW 7585   3.820   4.364   3.007  0.4551 -0.4226 -0.0888
 1897SOL    HW2 7586   3.900   4.315   3.027  0.1472 -1.7903 -2.0935
 1897SOL    HW3 7587   3.817   4.367   2.911 -1.6602  0.0229 -0.0305
 1897SOL    MW4 7588   3.830   4.358   2.997  0.1354 -0.5443 -0.3456
 1898SOL     OW 7589   4.279   4.623   3.084 -0.3755 -0.0714 -0.4161
 1898SOL    HW2 7590   4.270   4.608   3.179 -2.1820  1.3681 -0.3438
 1898SOL    HW3 7591   4.274   4.535   3.046  0.5230 -0.6832  0.8286
 1898SOL    MW4 7592   4.277   4.609   3.092 -0.4953  0.0378 -0.2423
 1899SOL     OW 7593   4.035   0.077   2.997 -0.1509  0.2896  0.3774
 1899SOL    HW2 7594   4.107   0.026   3.035 -0.7087 -1.2011 -0.4972
 1899SOL    HW3 7595   3.956   0.038   3.036 -0.5373  1.1767  0.4825
 1899SOL    MW4 7596   4.034   0.065   3.007 -0.2755  0.2100  0.2759
 1900SOL     OW 7597   4.042   0.338   3.110  0.2136  0.2995 -0.2565
 1900SOL    HW2 7598   4.100   0.388   3.052 -0.0841 -0.7908 -1.4996
 1900SOL    HW3 7599   4.037   0.251   3.070  0.0468 -0.4801  1.4375
 1900SOL    MW4 7600   4.049   0.333   3.097  0.1523  0.0528 -0.1970
 1901SOL     OW 7601   4.261   0.492   3.012 -0.0915  0.0166 -0.3543
 1901SOL    HW2 7602   4.262   0.579   3.053 -1.1443 -1.1096  2.1568
 1901SOL    HW3 7603   4.293   0.508   2.923 -0.2240  2.9688  0.0528
 1901SOL    MW4 7604   4.266   0.506   3.005 -0.2479  0.2575  0.0308
 1902SOL     OW 7605   4.268   0.743   3.127 -0.5679 -0.0463 -0.0085
 1902SOL    HW2 7606   4.189   0.789   3.101 -0.6544 -0.3786 -0.3512
 1902SOL    HW3 7607   4.339   0.793   3.087 -0.6795 -0.3635 -0.6105
 1902SOL    MW4 7608   4.267   0.755   3.118 -0.5940 -0.1320 -0.1331
 1903SOL     OW 7609   4.037   0.868   3.069  0.0999  0.1096  0.2419
 1903SOL    HW2 7610   4.053   0.955   3.106  3.5839 -0.0107 -0.7557
 1903SOL    HW3 7611   4.030   0.882   2.975 -0.5109 -0.5377  0.1879
 1903SOL    MW4 7612   4.038   0.881   3.062  0.4789  0.0083  0.1032
 1904SOL     OW 7613   4.044   1.142   3.128 -0.2048 -0.2602  0.0275
 1904SOL    HW2 7614   4.035   1.168   3.219  1.3217  0.7830 -0.1011
 1904SOL    HW3 7615   3.970   1.184   3.083 -1.0520 -0.9143  0.7958
 1904SOL    MW4 7616   4.033   1.151   3.134 -0.1152 -0.2089  0.1119
 1905SOL     OW 7617   4.256   1.301   3.057  0.0370 -0.0291 -0.4134
 1905SOL    HW2 7618   4.179   1.251   3.082  0.8652 -1.6304 -1.0096
 1905SOL    HW3 7619   4.259   1.295   2.961  2.1644 -1.9528 -0.2820
 1905SOL    MW4 7620   4.247   1.294   3.047  0.4269 -0.4942 -0.4747
 1906SOL     OW 7621   4.273   1.550   3.156 -0.3489 -0.4263  0.0859
 1906SOL    HW2 7622   4.196   1.593   3.119  0.6917 -0.3722 -2.0334
 1906SOL    HW3 7623   4.270   1.461   3.121  0.5747 -0.4126 -0.0324
 1906SOL    MW4 7624   4.262   1.544   3.147 -0.0897 -0.4173 -0.2093
 1907SOL     OW 7625   4.067   1.685   3.036  0.4290 -0.4773  0.3727
 1907SOL    HW2 7626   4.068   1.771   3.078  0.7563 -1.1980  1.8590
 1907SOL    HW3 7627   3.986   1.644   3.067  0.1616 -0.6281 -0.5092
 1907SOL    MW4 7628   4.056   1.691   3.045  0.4369 -0.5923  0.4524
 1908SOL     OW 7629   4.048   1.947   3.128  0.0726  0.4706 -0.0288
 1908SOL    HW2 7630   4.129   1.991   3.104 -1.1124  2.6101 -0.2959
 1908SOL    HW3 7631   3.979   2.004   3.093 -1.5321 -1.5583 -0.2675
 1908SOL    MW4 7632   4.049   1.960   3.120 -0.2955  0.4852 -0.0955
 1909SOL     OW 7633   4.289   2.035   3.039  0.1673  0.3242  0.0615
 1909SOL    HW2 7634   4.290   2.126   3.067 -0.1929  0.1082  0.7842
 1909SOL    HW3 7635   4.299   2.039   2.944 -1.1356  1.1814 -0.0463
 1909SOL    MW4 7636   4.291   2.047   3.030 -0.0521  0.4088  0.1426
 1910SOL     OW 7637   4.272   2.309   3.107  0.2607  0.2725 -0.2993
 1910SOL    HW2 7638   4.197   2.348   3.064  0.4374  1.0189  0.0636
 1910SOL    HW3 7639   4.347   2.363   3.082  0.8780 -1.1202 -1.5631
 1910SOL    MW4 7640   4.272   2.321   3.098  0.3655  0.1873 -0.4182
 1911SOL     OW 7641   4.073   2.418   2.984 -0.3095 -0.1809  0.2854
 1911SOL    HW2 7642   4.092   2.494   3.039 -0.7041 -0.4869  0.8457
 1911SOL    HW3 7643   3.992   2.381   3.021  0.8050 -1.8808  1.0705
 1911SOL    MW4 7644   4.065   2.423   2.996 -0.2145 -0.4456  0.4629
 1912SOL     OW 7645   4.065   2.663   3.131 -0.1030 -0.3399  0.6969
 1912SOL    HW2 7646   4.054   2.670   3.225  0.3682 -1.0976  0.8082
 1912SOL    HW3 7647   3.985   2.701   3.094 -0.0701  0.4108  1.3906
 1912SOL    MW4 7648   4.053   2.669   3.138 -0.0365 -0.3408  0.8031
 1913SOL     OW 7649   4.249   2.826   2.988 -0.3907  0.1578  0.3172
 1913SOL    HW2 7650   4.179   2.772   3.025  0.4385 -1.0270  0.1932
 1913SOL    HW3 7651   4.328   2.795   3.032 -0.1338  2.5152  1.5663
 1913SOL    MW4 7652   4.250   2.815   2.999 -0.2474  0.3125  0.4656
 1914SOL     OW 7653   4.255   3.092   3.129  0.1138 -0.0160 -0.4784
 1914SOL    HW2 7654   4.184   3.142   3.089 -1.0814 -0.9765  0.4061
 1914SOL    HW3 7655   4.259   3.012   3.077  0.7697  0.1766 -0.7254
 1914SOL    MW4 7656   4.246   3.088   3.117  0.0426 -0.1173 -0.3943
 1915SOL     OW 7657   4.031   3.236   3.033  0.3111  0.0236  0.4217
 1915SOL    HW2 7658   4.049   3.327   3.054  0.4279 -0.1235  0.9727
 1915SOL    HW3 7659   4.023   3.234   2.938  0.5254  0.5675  0.3921
 1915SOL    MW4 7660   4.032   3.248   3.023  0.3548  0.0760  0.4905
 1916SOL     OW 7661   4.065   3.511   3.100  0.2173 -0.1534  0.4023
 1916SOL    HW2 7662   4.052   3.504   3.195 -1.7844 -0.2930  0.1198
 1916SOL    HW3 7663   3.981   3.540   3.066  0.4677 -1.6066 -1.5055
 1916SOL    MW4 7664   4.053   3.514   3.108 -0.0138 -0.3636  0.1133
 1917SOL     OW 7665   4.303   3.598   3.029  0.1738 -0.3840  0.4865
 1917SOL    HW2 7666   4.309   3.692   3.048  0.7731 -0.9459  3.3374
 1917SOL    HW3 7667   4.217   3.573   3.063  0.6014 -1.1334  1.0271
 1917SOL    MW4 7668   4.292   3.607   3.036  0.3093 -0.5570  0.9340
 1918SOL     OW 7669   4.299   3.892   3.130 -0.2826  0.0481 -0.6344
 1918SOL    HW2 7670   4.227   3.929   3.078  0.1609 -0.7643 -1.8344
 1918SOL    HW3 7671   4.376   3.942   3.103 -0.2285  0.3466  0.0410
 1918SOL    MW4 7672   4.300   3.904   3.120 -0.2169 -0.0197 -0.7036
 1919SOL     OW 7673   4.045   3.956   2.987  0.2989 -0.0686  0.4048
 1919SOL    HW2 7674   4.043   4.045   3.023  0.3781  0.7595 -1.5301
 1919SOL    HW3 7675   3.969   3.913   3.025 -0.7271  1.3827  0.0528
 1919SOL    MW4 7676   4.035   3.962   2.997  0.1740  0.2321  0.1031
 1920SOL     OW 7677   4.049   4.198   3.097 -0.2547 -0.1562 -0.0216
 1920SOL    HW2 7678   4.050   4.226   3.189 -1.1277  0.6567 -0.2577
 1920SOL    HW3 7679   4.124   4.244   3.058  0.1058 -0.4852  0.2716
 1920SOL    MW4 7680   4.059   4.208   3.104 -0.3223 -0.0924 -0.0140
 1921SOL     OW 7681   4.273   4.365   3.000 -0.2302 -0.4975 -0.8047
 1921SOL    HW2 7682   4.353   4.338   3.045 -0.1271  0.5683 -0.3233
 1921SOL    HW3 7683   4.298   4.369   2.908  0.1040 -0.7726 -0.7274
 1921SOL    MW4 7684   4.287   4.362   2.994 -0.1725 -0.3932 -0.7310
 1922SOL     OW 7685   0.202   4.661   3.435  0.0212 -0.1080 -0.0428
 1922SOL    HW2 7686   0.288   4.701   3.446 -0.3704  1.3506 -1.8287
 1922SOL    HW3 7687   0.214   4.569   3.458  0.8512  1.0474  4.7338
 1922SOL    MW4 7688   0.215   4.654   3.439  0.0790  0.2369  0.3518
 1923SOL     OW 7689   4.459   0.119   3.495 -0.0719  0.1097 -0.2898
 1923SOL    HW2 7690   4.460   0.204   3.451  1.3760 -0.2404 -0.9667
 1923SOL    HW3 7691   4.545   0.082   3.476 -0.5237 -1.3037  0.3992
 1923SOL    MW4 7692   4.470   0.125   3.486  0.0596 -0.1230 -0.2882
 1924SOL     OW 7693   0.004   0.366   3.387  0.2640  0.1433  0.1784
 1924SOL    HW2 7694  -0.062   0.414   3.437  0.2076  0.1886  0.0607
 1924SOL    HW3 7695   0.088   0.394   3.423  0.1686 -1.0141  1.3356
 1924SOL    MW4 7696   0.006   0.376   3.398  0.2440 -0.0034  0.3156
 1925SOL     OW 7697   0.237   0.493   3.494  0.1416  0.1005 -0.0649
 1925SOL    HW2 7698   0.307   0.435   3.463  1.2142  0.4190  1.6888
 1925SOL    HW3 7699   0.258   0.579   3.457 -1.3568 -0.5413 -2.5279
 1925SOL    MW4 7700   0.249   0.497   3.485  0.0854  0.0579 -0.1585
 1926SOL     OW 7701   0.247   0.723   3.377  0.2939 -0.2761  0.3606
 1926SOL    HW2 7702   0.321   0.774   3.408  1.2367 -0.4571 -1.5038
 1926SOL    HW3 7703   0.170   0.771   3.408  1.1666  2.1534 -1.0734
 1926SOL    MW4 7704   0.246   0.736   3.385  0.5335  0.0206 -0.0746
 1927SOL     OW 7705   0.025   0.869   3.469  0.0628  0.5478  0.5826
 1927SOL    HW2 7706   0.049   0.878   3.561 -0.7221  0.7914  0.7664
 1927SOL    HW3 7707   0.009   0.959   3.439  0.4843  0.4868  0.1582
 1927SOL    MW4 7708   0.026   0.882   3.477  0.0149  0.5719  0.5509
 1928SOL     OW 7709   4.463   1.119   3.365  0.3788  0.2092  0.2917
 1928SOL    HW2 7710   4.539   1.169   3.393  1.9056 -1.4623 -0.8141
 1928SOL    HW3 7711   4.467   1.120   3.269 -0.1018 -1.1970  0.2422
 1928SOL    MW4 7712   4.473   1.125   3.356  0.5169 -0.1969  0.1392
 1929SOL     OW 7713   0.187   1.230   3.464  0.0774  0.1709  0.0171
 1929SOL    HW2 7714   0.267   1.185   3.438 -0.4569  0.1396 -1.6088
 1929SOL    HW3 7715   0.198   1.319   3.430  0.2259  0.6899  1.4089
 1929SOL    MW4 7716   0.199   1.236   3.456  0.0265  0.2353 -0.0138
 1930SOL     OW 7717   0.209   1.489   3.370  0.7727 -0.3372 -0.1311
 1930SOL    HW2 7718   0.276   1.530   3.424  0.2006  2.2047 -1.2912
 1930SOL    HW3 7719   0.233   1.512   3.280 -1.3900  0.2585 -0.5908
 1930SOL    MW4 7720   0.221   1.497   3.365  0.4119  0.0768 -0.3448
 1931SOL     OW 7721   0.041   1.667   3.499  0.1315 -0.2499  0.0868
 1931SOL    HW2 7722  -0.047   1.633   3.487 -0.5112  0.9874  1.2950
 1931SOL    HW3 7723   0.098   1.600   3.459 -1.2191 -1.8692  0.8125
 1931SOL    MW4 7724   0.037   1.654   3.492 -0.1315 -0.3003  0.3419
 1932SOL     OW 7725   0.023   1.932   3.365  0.0921  0.1420 -0.1168
 1932SOL    HW2 7726   0.024   1.839   3.389  2.1347  0.1169 -0.2735
 1932SOL    HW3 7727   0.015   1.931   3.269 -0.7816  0.1485 -0.0476
 1932SOL    MW4 7728   0.022   1.919   3.355  0.2464  0.1396 -0.1283
 1933SOL     OW 7729   0.222   2.069   3.481 -0.0387  0.4795  0.3523
 1933SOL    HW2 7730   0.203   2.055   3.574  0.6691  0.5321  0.5121
 1933SOL    HW3 7731   0.152   2.024   3.435 -0.6741  0.8790  0.9172
 1933SOL    MW4 7732   0.210   2.061   3.487 -0.0291  0.5392  0.4479
 1934SOL     OW 7733   0.194   2.340   3.420 -0.0652 -0.1087  0.0767
 1934SOL    HW2 7734   0.125   2.383   3.471  0.7414 -0.1469  1.2192
 1934SOL    HW3 7735   0.185   2.247   3.441  0.3881 -0.1033  0.3103
 1934SOL    MW4 7736   0.184   2.334   3.430  0.1010 -0.1131  0.2583
 1935SOL     OW 7737   4.470   2.483   3.513  0.1293 -0.1795 -0.0203
 1935SOL    HW2 7738   4.469   2.456   3.605  0.0472  0.2288  0.0962
 1935SOL    HW3 7739   4.393   2.440   3.475  0.7251 -1.1619 -0.1289
 1935SOL    MW4 7740   4.460   2.474   3.520  0.1970 -0.2552 -0.0193
 1936SOL     OW 7741   0.026   2.742   3.404 -0.0085 -0.1382  0.0904
 1936SOL    HW2 7742   0.114   2.770   3.431 -0.5179  0.7849  0.8222
 1936SOL    HW3 7743   0.015   2.656   3.444  0.3134  0.0216  0.5236
 1936SOL    MW4 7744   0.036   2.735   3.413 -0.0332  0.0046  0.2441
 1937SOL     OW 7745   0.262   2.809   3.541 -0.1816  0.2649  0.0999
 1937SOL    HW2 7746   0.344   2.769   3.515 -1.6079 -1.4838 -1.8473
 1937SOL    HW3 7747   0.261   2.894   3.498  0.2691 -0.0192 -0.4648
 1937SOL    MW4 7748   0.273   2.815   3.532 -0.3103 -0.0033 -0.2315
 1938SOL     OW 7749   0.281   3.051   3.396  0.1758 -0.2198 -0.1726
 1938SOL    HW2 7750   0.196   3.092   3.414  0.3579  0.3102 -0.4934
 1938SOL    HW3 7751   0.291   3.057   3.301  1.1724  0.9363 -0.0068
 1938SOL    MW4 7752   0.271   3.057   3.386  0.3313  0.0027 -0.1931
 1939SOL     OW 7753   0.034   3.177   3.437  0.1126  0.3025 -0.1060
 1939SOL    HW2 7754  -0.059   3.166   3.421  0.2350  0.2709 -0.8201
 1939SOL    HW3 7755   0.048   3.272   3.433  0.1679  0.2854 -0.3213
 1939SOL    MW4 7756   0.024   3.188   3.434  0.1360  0.2961 -0.2286
 1940SOL     OW 7757   0.015   3.463   3.414  0.1920  0.3359 -0.4560
 1940SOL    HW2 7758  -0.063   3.509   3.444 -0.2692  0.3745 -1.6757
 1940SOL    HW3 7759   0.007   3.462   3.319  1.8902  0.7099 -0.6273
 1940SOL    MW4 7760   0.004   3.469   3.405  0.3552  0.3903 -0.6395
 1941SOL     OW 7761   0.232   3.586   3.530 -0.1176  0.2550 -0.1148
 1941SOL    HW2 7762   0.218   3.583   3.625 -0.6326 -0.7228 -0.2175
 1941SOL    HW3 7763   0.159   3.538   3.494 -1.0560  2.3992 -1.1461
 1941SOL    MW4 7764   0.221   3.579   3.538 -0.3094  0.4089 -0.2644
 1942SOL     OW 7765   0.275   3.851   3.434 -0.1183  0.6195  0.3563
 1942SOL    HW2 7766   0.200   3.891   3.479 -0.3658 -0.6897  1.1137
 1942SOL    HW3 7767   0.277   3.761   3.464  0.4992  0.0587 -1.2804
 1942SOL    MW4 7768   0.265   3.845   3.444 -0.0695  0.3728  0.2403
 1943SOL     OW 7769   0.034   4.002   3.532  0.5559  0.2576 -0.4762
 1943SOL    HW2 7770   0.015   4.010   3.625 -0.8441 -0.3615 -0.7062
 1943SOL    HW3 7771   0.043   4.092   3.501  0.3369  0.4769  0.1056
 1943SOL    MW4 7772   0.033   4.015   3.540  0.3423  0.2048 -0.4298
 1944SOL     OW 7773   0.038   4.237   3.389 -0.7338 -0.2312 -0.1392
 1944SOL    HW2 7774  -0.042   4.288   3.406  0.7476  2.3437 -0.6569
 1944SOL    HW3 7775   0.109   4.297   3.410  1.0833 -1.9713 -1.2078
 1944SOL    MW4 7776   0.037   4.251   3.394 -0.2986 -0.1211 -0.3485
 1945SOL     OW 7777   0.229   4.402   3.499 -0.2077 -0.3995 -0.5345
 1945SOL    HW2 7778   0.230   4.383   3.593  0.7979  0.8540 -0.2778
 1945SOL    HW3 7779   0.309   4.361   3.465  1.0051  1.7000 -0.2977
 1945SOL    MW4 7780   0.240   4.394   3.507  0.0850  0.0429 -0.4694
 1946SOL     OW 7781   0.690   4.646   3.415 -0.1248 -0.0006  0.2040
 1946SOL    HW2 7782   0.746   4.721   3.439  0.0884  0.3133 -1.2336
 1946SOL    HW3 7783   0.683   4.651   3.320 -0.6979 -1.4076  0.1632
 1946SOL    MW4 7784   0.697   4.657   3.406 -0.1723 -0.1448  0.0089
 1947SOL     OW 7785   0.460   0.082   3.506 -0.6092  0.3790  0.0850
 1947SOL    HW2 7786   0.469   0.082   3.601 -0.9168 -0.0760  0.1159
 1947SOL    HW3 7787   0.537   0.033   3.475 -0.7830  0.0784  0.1277
 1947SOL    MW4 7788   0.472   0.075   3.514 -0.6727  0.2793  0.0947
 1948SOL     OW 7789   0.470   0.350   3.405 -0.1979  0.3331 -0.3076
 1948SOL    HW2 7790   0.535   0.414   3.436  0.4760 -0.5748  0.1862
 1948SOL    HW3 7791   0.482   0.274   3.462 -0.6852 -0.4080 -1.1758
 1948SOL    MW4 7792   0.480   0.349   3.417 -0.1733  0.1156 -0.3570
 1949SOL     OW 7793   0.669   0.501   3.522  0.3847  0.0912 -0.0339
 1949SOL    HW2 7794   0.677   0.492   3.617  0.6470 -0.7773 -0.1360
 1949SOL    HW3 7795   0.753   0.469   3.488 -0.1352 -0.6804 -0.6204
 1949SOL    MW4 7796   0.681   0.496   3.530  0.3507 -0.1252 -0.1247
 1950SOL     OW 7797   0.688   0.759   3.396  0.3644  0.2660  0.3360
 1950SOL    HW2 7798   0.601   0.796   3.411 -0.4679 -1.3682 -0.3096
 1950SOL    HW3 7799   0.687   0.675   3.441  1.3398 -0.1214 -0.3254
 1950SOL    MW4 7800   0.677   0.753   3.404  0.3832 -0.0007  0.1635
 1951SOL     OW 7801   0.456   0.859   3.500  0.1002 -0.3008 -0.0468
 1951SOL    HW2 7802   0.464   0.854   3.595 -2.3056 -1.4295  0.1299
 1951SOL    HW3 7803   0.462   0.952   3.479 -1.2611  0.1325  1.4139
 1951SOL    MW4 7804   0.458   0.870   3.510 -0.3968 -0.3926  0.1692
 1952SOL     OW 7805   0.436   1.109   3.411  0.2873  0.1109  0.0959
 1952SOL    HW2 7806   0.511   1.165   3.430  0.7064 -0.4957  0.2404
 1952SOL    HW3 7807   0.435   1.100   3.316  1.1943 -0.9727  0.1876
 1952SOL    MW4 7808   0.445   1.115   3.401  0.4622 -0.1121  0.1271
 1953SOL     OW 7809   0.658   1.276   3.507  0.7397  0.6805  0.1136
 1953SOL    HW2 7810   0.741   1.235   3.483  0.8558  1.1073 -0.2137
 1953SOL    HW3 7811   0.659   1.361   3.463 -0.5224  0.0844 -1.0781
 1953SOL    MW4 7812   0.669   1.282   3.498  0.5885  0.6582 -0.0868
 1954SOL     OW 7813   0.626   1.527   3.392  0.3396  0.1970 -0.1128
 1954SOL    HW2 7814   0.693   1.579   3.437  0.5891  1.2361 -1.6608
 1954SOL    HW3 7815   0.543   1.565   3.421  0.4163 -0.7656  1.4153
 1954SOL    MW4 7816   0.624   1.539   3.402  0.3827  0.2071 -0.1154
 1955SOL     OW 7817   0.393   1.644   3.502  0.0697 -0.6834  0.0218
 1955SOL    HW2 7818   0.426   1.660   3.590 -0.3859 -0.4142  0.1443
 1955SOL    HW3 7819   0.384   1.731   3.463 -0.8063 -0.7264  0.1075
 1955SOL    MW4 7820   0.396   1.657   3.508 -0.1060 -0.6536  0.0492
 1956SOL     OW 7821   0.442   1.907   3.443  0.2171  0.0356 -0.2279
 1956SOL    HW2 7822   0.362   1.953   3.468  1.7471  1.9246  1.3819
 1956SOL    HW3 7823   0.445   1.911   3.348 -2.1021 -0.9534 -0.3607
 1956SOL    MW4 7824   0.432   1.913   3.434  0.1130  0.1543 -0.0331
 1957SOL     OW 7825   0.651   2.064   3.518 -0.0749 -0.4104 -0.1486
 1957SOL    HW2 7826   0.645   2.069   3.614  0.3304 -1.9835 -0.0287
 1957SOL    HW3 7827   0.574   2.014   3.492  0.1721 -0.5628 -0.5849
 1957SOL    MW4 7828   0.640   2.058   3.527  0.0111 -0.6381 -0.1903
 1958SOL     OW 7829   0.627   2.313   3.409  0.1150  0.2048 -0.4431
 1958SOL    HW2 7830   0.712   2.351   3.433  0.6071 -0.4791 -1.0908
 1958SOL    HW3 7831   0.628   2.226   3.448  0.3879 -0.4195 -1.8251
 1958SOL    MW4 7832   0.639   2.307   3.417  0.2159  0.0322 -0.7109
 1959SOL     OW 7833   0.423   2.446   3.533 -0.0531  0.2524  0.0872
 1959SOL    HW2 7834   0.501   2.399   3.504  0.2685 -0.0697  1.4105
 1959SOL    HW3 7835   0.351   2.401   3.489  0.2456 -1.5600  1.3580
 1959SOL    MW4 7836   0.424   2.434   3.524  0.0288 -0.0292  0.4295
 1960SOL     OW 7837   0.495   2.691   3.388 -0.0936 -0.1375 -0.0077
 1960SOL    HW2 7838   0.477   2.603   3.423 -0.0988 -0.3724 -0.5985
 1960SOL    HW3 7839   0.449   2.693   3.304  0.1943  0.3107 -0.1542
 1960SOL    MW4 7840   0.486   2.680   3.382 -0.0563 -0.1093 -0.1050
 1961SOL     OW 7841   0.701   2.835   3.509  0.3474 -0.3283 -0.1407
 1961SOL    HW2 7842   0.784   2.792   3.485  0.5076  0.7916 -1.6731
 1961SOL    HW3 7843   0.637   2.796   3.449  0.0127 -0.2435  0.1680
 1961SOL    MW4 7844   0.704   2.824   3.498  0.3244 -0.1693 -0.3022
 1962SOL     OW 7845   0.669   3.090   3.403 -0.4014 -0.4040 -0.3912
 1962SOL    HW2 7846   0.589   3.130   3.435  0.0026 -0.3405  0.5630
 1962SOL    HW3 7847   0.679   3.010   3.455  0.7947  0.2244  0.3748
 1962SOL    MW4 7848   0.660   3.084   3.414 -0.1903 -0.3127 -0.1643
 1963SOL     OW 7849   0.451   3.204   3.543 -0.3151  0.0173  0.4242
 1963SOL    HW2 7850   0.422   3.225   3.631 -2.0001 -0.1436 -0.0899
 1963SOL    HW3 7851   0.378   3.157   3.503  0.5787 -0.2582 -0.9255
 1963SOL    MW4 7852   0.438   3.201   3.549 -0.4195 -0.0402  0.1783
 1964SOL     OW 7853   0.436   3.451   3.412  0.0194 -0.1621  0.2172
 1964SOL    HW2 7854   0.443   3.363   3.447 -1.1471 -0.0182  0.8336
 1964SOL    HW3 7855   0.366   3.492   3.462 -0.7956  0.4737 -1.3920
 1964SOL    MW4 7856   0.428   3.445   3.423 -0.2420 -0.0593  0.0862
 1965SOL     OW 7857   0.659   3.586   3.506 -0.1355 -0.1453  0.0675
 1965SOL    HW2 7858   0.730   3.546   3.455 -1.0115  0.1025 -1.3797
 1965SOL    HW3 7859   0.580   3.540   3.477 -0.7937  0.7596  0.3982
 1965SOL    MW4 7860   0.658   3.574   3.495 -0.3379  0.0068 -0.0798
 1966SOL     OW 7861   0.662   3.854   3.401  0.3413  0.5266 -0.0302
 1966SOL    HW2 7862   0.610   3.908   3.462 -0.4591  0.4647 -0.6528
 1966SOL    HW3 7863   0.647   3.764   3.430 -1.1858  0.3932 -1.1845
 1966SOL    MW4 7864   0.653   3.850   3.413  0.0342  0.5008 -0.2647
 1967SOL     OW 7865   0.485   4.001   3.528  0.0059  0.5281 -0.5641
 1967SOL    HW2 7866   0.498   4.087   3.490 -0.9501  0.6535 -0.6008
 1967SOL    HW3 7867   0.411   3.964   3.480 -0.9718  0.5456  0.9076
 1967SOL    MW4 7868   0.477   4.007   3.517 -0.2493  0.5470 -0.3748
 1968SOL     OW 7869   0.459   4.271   3.426  0.0836  0.3184  0.2288
 1968SOL    HW2 7870   0.542   4.311   3.449  0.5321 -0.8648  0.7571
 1968SOL    HW3 7871   0.468   4.246   3.334  0.7059 -0.7139  0.5585
 1968SOL    MW4 7872   0.471   4.273   3.417  0.2249  0.0261  0.3420
 1969SOL     OW 7873   0.701   4.386   3.505 -0.4805 -0.2175 -0.5279
 1969SOL    HW2 7874   0.776   4.345   3.462 -1.0137 -1.0444 -0.6700
 1969SOL    HW3 7875   0.705   4.478   3.476 -0.9850 -0.8143 -2.5819
 1969SOL    MW4 7876   0.712   4.393   3.496 -0.6174 -0.4053 -0.8177
 1970SOL     OW 7877   1.105   4.657   3.434  0.2038  0.7670  0.5606
 1970SOL    HW2 7878   1.193   4.684   3.459 -0.2037  2.0191  0.6952
 1970SOL    HW3 7879   1.109   4.643   3.340  0.4324  1.2766  0.4953
 1970SOL    MW4 7880   1.117   4.659   3.425  0.1802  0.9995  0.5698
 1971SOL     OW 7881   0.899   0.141   3.551  0.6059  0.1386 -0.3963
 1971SOL    HW2 7882   0.917   0.147   3.645  0.4822  1.2260 -0.4451
 1971SOL    HW3 7883   0.979   0.104   3.514  0.9976  0.5737  0.0117
 1971SOL    MW4 7884   0.912   0.137   3.558  0.6413  0.3395 -0.3489
 1972SOL     OW 7885   0.885   0.396   3.415  0.3782 -0.4736  0.0658
 1972SOL    HW2 7886   0.962   0.440   3.452  1.1944 -1.3791 -0.5170
 1972SOL    HW3 7887   0.886   0.309   3.456 -0.5075 -0.3878  0.2794
 1972SOL    MW4 7888   0.896   0.390   3.426  0.3690 -0.5817  0.0171
 1973SOL     OW 7889   1.135   0.500   3.513 -0.1220  0.3780 -0.2600
 1973SOL    HW2 7890   1.115   0.516   3.606  1.5582 -1.7242  0.5094
 1973SOL    HW3 7891   1.141   0.587   3.475 -0.3613  1.3020  1.7269
 1973SOL    MW4 7892   1.133   0.514   3.520  0.0681  0.2225  0.1036
 1974SOL     OW 7893   1.173   0.752   3.413  0.6320 -0.3300  0.4948
 1974SOL    HW2 7894   1.250   0.790   3.454  1.2276 -0.9729 -0.0134
 1974SOL    HW3 7895   1.102   0.813   3.432  0.9258 -0.5432  2.3507
 1974SOL    MW4 7896   1.173   0.765   3.421  0.7493 -0.4429  0.6726
 1975SOL     OW 7897   0.951   0.890   3.470 -0.4314 -0.0829 -0.2463
 1975SOL    HW2 7898   0.942   0.985   3.466 -2.0036 -0.1774  0.4046
 1975SOL    HW3 7899   0.868   0.857   3.436 -0.4582 -1.1955  0.8487
 1975SOL    MW4 7900   0.939   0.898   3.465 -0.6424 -0.2421 -0.0159
 1976SOL     OW 7901   0.875   1.146   3.413 -0.3601  0.2983  0.4359
 1976SOL    HW2 7902   0.962   1.183   3.422 -0.2458  0.0758  0.2466
 1976SOL    HW3 7903   0.862   1.136   3.319 -0.5567  0.2587  0.4666
 1976SOL    MW4 7904   0.885   1.149   3.402 -0.3710  0.2637  0.4150
 1977SOL     OW 7905   1.121   1.257   3.472 -0.2339  0.2784  0.2867
 1977SOL    HW2 7906   1.116   1.268   3.567 -0.5850  1.3494  0.1565
 1977SOL    HW3 7907   1.108   1.346   3.438 -0.7203 -0.1975 -0.7796
 1977SOL    MW4 7908   1.118   1.271   3.480 -0.3444  0.3569  0.1288
 1978SOL     OW 7909   1.055   1.532   3.424 -0.3831  0.2191  0.0381
 1978SOL    HW2 7910   1.123   1.573   3.478  0.3453 -0.7350 -0.1464
 1978SOL    HW3 7911   1.072   1.563   3.335 -0.8283  0.8009  0.1490
 1978SOL    MW4 7912   1.066   1.542   3.420 -0.3457  0.1700  0.0284
 1979SOL     OW 7913   0.828   1.652   3.532  0.4126  0.1561 -0.0203
 1979SOL    HW2 7914   0.837   1.743   3.506  0.5823 -0.2060 -1.2701
 1979SOL    HW3 7915   0.909   1.610   3.502  0.3785 -0.3853  0.6263
 1979SOL    MW4 7916   0.840   1.658   3.524  0.4305  0.0369 -0.0999
 1980SOL     OW 7917   0.870   1.924   3.411 -0.0337 -0.4118 -0.3479
 1980SOL    HW2 7918   0.945   1.963   3.457  0.0115  0.8634 -1.4603
 1980SOL    HW3 7919   0.794   1.966   3.451 -0.0758 -0.5083 -0.3269
 1980SOL    MW4 7920   0.870   1.935   3.422 -0.0333 -0.2563 -0.4919
 1981SOL     OW 7921   1.117   2.046   3.504  0.3927 -0.1311 -0.0071
 1981SOL    HW2 7922   1.175   1.994   3.448 -0.9843 -1.0815 -0.5798
 1981SOL    HW3 7923   1.118   2.134   3.465 -0.2918 -0.7028 -1.3319
 1981SOL    MW4 7924   1.125   2.051   3.492  0.1207 -0.3319 -0.2575
 1982SOL     OW 7925   1.093   2.320   3.416 -0.3897 -0.4035  0.1921
 1982SOL    HW2 7926   1.174   2.352   3.457 -1.0147  1.5403 -0.0169
 1982SOL    HW3 7927   1.111   2.324   3.322 -1.2555  1.6283  0.0764
 1982SOL    MW4 7928   1.106   2.325   3.409 -0.5864  0.1210  0.1493
 1983SOL     OW 7929   0.860   2.441   3.483 -0.0136  0.2379 -0.0089
 1983SOL    HW2 7930   0.863   2.436   3.578 -0.0696 -1.3347 -0.0715
 1983SOL    HW3 7931   0.940   2.399   3.453 -0.6233 -0.4853 -0.6748
 1983SOL    MW4 7932   0.871   2.435   3.491 -0.1014 -0.0650 -0.1050
 1984SOL     OW 7933   0.901   2.682   3.369 -0.1228  0.4171  0.1090
 1984SOL    HW2 7934   0.981   2.714   3.411 -0.0884  0.8620 -0.2830
 1984SOL    HW3 7935   0.878   2.603   3.418 -0.0996  0.9360  0.9676
 1984SOL    MW4 7936   0.908   2.676   3.381 -0.1152  0.5443  0.1706
 1985SOL     OW 7937   1.150   2.791   3.512 -0.1177 -0.2684  0.8521
 1985SOL    HW2 7938   1.144   2.790   3.608 -1.7960 -0.2133  0.7713
 1985SOL    HW3 7939   1.227   2.738   3.492  1.3939  1.3344  2.2882
 1985SOL    MW4 7940   1.159   2.784   3.522 -0.1397 -0.0497  1.0309
 1986SOL     OW 7941   1.149   3.071   3.438  0.5128 -0.4262  0.3529
 1986SOL    HW2 7942   1.146   2.981   3.469 -0.7356 -0.7227 -0.5742
 1986SOL    HW3 7943   1.169   3.064   3.344  0.1184  0.2333  0.2139
 1986SOL    MW4 7944   1.151   3.058   3.430  0.2961 -0.3783  0.2122
 1987SOL     OW 7945   0.917   3.202   3.472 -0.1411  0.0800 -0.3980
 1987SOL    HW2 7946   0.998   3.153   3.458 -0.1532  0.1081 -0.5665
 1987SOL    HW3 7947   0.848   3.145   3.439 -0.1052  0.4329 -1.0877
 1987SOL    MW4 7948   0.919   3.188   3.466 -0.1380  0.1303 -0.5112
 1988SOL     OW 7949   0.879   3.467   3.391 -0.3704 -0.1924 -0.2819
 1988SOL    HW2 7950   0.916   3.389   3.434 -1.5520 -0.7802 -0.3074
 1988SOL    HW3 7951   0.874   3.443   3.299 -0.3774  0.0517 -0.3441
 1988SOL    MW4 7952   0.883   3.453   3.385 -0.5272 -0.2377 -0.2935
 1989SOL     OW 7953   1.116   3.599   3.466  0.3033  0.3334  0.0682
 1989SOL    HW2 7954   1.115   3.589   3.562 -0.6789  0.3672  0.0669
 1989SOL    HW3 7955   1.033   3.562   3.437  1.0370 -0.5877 -0.8742
 1989SOL    MW4 7956   1.105   3.593   3.475  0.2705  0.2163 -0.0563
 1990SOL     OW 7957   1.127   3.865   3.398  0.0443 -0.6697 -0.3706
 1990SOL    HW2 7958   1.196   3.916   3.440 -0.7182 -0.5434  0.7516
 1990SOL    HW3 7959   1.141   3.776   3.428 -0.3945 -0.6110  0.0184
 1990SOL    MW4 7960   1.138   3.860   3.407 -0.1142 -0.6453 -0.1712
 1991SOL     OW 7961   0.900   3.984   3.504 -0.0244 -0.1982  0.4166
 1991SOL    HW2 7962   0.977   3.947   3.461 -0.1266 -1.9477  1.6588
 1991SOL    HW3 7963   0.827   3.931   3.472 -0.1251 -1.4008  2.5375
 1991SOL    MW4 7964   0.901   3.972   3.494 -0.0512 -0.5877  0.8603
 1992SOL     OW 7965   0.919   4.240   3.400  0.0881  0.1326 -0.5152
 1992SOL    HW2 7966   0.927   4.152   3.436 -0.9313  0.6224  0.9324
 1992SOL    HW3 7967   0.919   4.226   3.305  0.7509 -1.3454 -0.3168
 1992SOL    MW4 7968   0.920   4.227   3.392  0.0410  0.0022 -0.2981
 1993SOL     OW 7969   1.136   4.376   3.513 -0.3215  0.5556  0.0454
 1993SOL    HW2 7970   1.070   4.320   3.472  0.4330 -1.1355  1.0388
 1993SOL    HW3 7971   1.112   4.465   3.488 -3.3940  0.0493  0.9636
 1993SOL    MW4 7972   1.124   4.380   3.504 -0.6273  0.2657  0.2976
 1994SOL     OW 7973   1.570   4.589   3.416 -0.4516  0.0354  0.3420
 1994SOL    HW2 7974   1.565   4.505   3.463  0.7062  1.2714  2.7891
 1994SOL    HW3 7975   1.493   4.638   3.446 -0.5741  0.2302 -0.2926
 1994SOL    MW4 7976   1.559   4.584   3.426 -0.3150  0.2242  0.5811
 1995SOL     OW 7977   1.355   0.079   3.502 -0.4198 -0.2442 -0.2255
 1995SOL    HW2 7978   1.358   0.093   3.596  0.3948  0.5690 -0.3575
 1995SOL    HW3 7979   1.371   0.166   3.465  0.9335 -0.8443 -1.0980
 1995SOL    MW4 7980   1.358   0.092   3.509 -0.1338 -0.2161 -0.3580
 1996SOL     OW 7981   1.375   0.350   3.411  0.0884 -0.0142  0.3890
 1996SOL    HW2 7982   1.445   0.406   3.445 -0.6389  1.8005 -1.0211
 1996SOL    HW3 7983   1.295   0.386   3.450 -0.2152 -1.2961  0.9925
 1996SOL    MW4 7984   1.374   0.362   3.421 -0.0476  0.0561  0.2826
 1997SOL     OW 7985   1.602   0.474   3.510  0.1313 -0.3522 -0.3431
 1997SOL    HW2 7986   1.603   0.469   3.606 -0.8311 -0.5784 -0.3371
 1997SOL    HW3 7987   1.677   0.421   3.482  1.6731  1.4150  0.3479
 1997SOL    MW4 7988   1.612   0.466   3.519  0.2077 -0.1489 -0.2512
 1998SOL     OW 7989   1.604   0.739   3.425  0.1197 -0.2062  0.4405
 1998SOL    HW2 7990   1.533   0.778   3.476 -0.7902 -2.2759  0.8157
 1998SOL    HW3 7991   1.613   0.651   3.461  0.4855 -1.1903 -1.9661
 1998SOL    MW4 7992   1.596   0.733   3.437  0.0479 -0.6091  0.1725
 1999SOL     OW 7993   1.399   0.888   3.511  0.4412 -0.1862 -0.3544
 1999SOL    HW2 7994   1.376   0.914   3.600  0.3874  1.3392 -0.8027
 1999SOL    HW3 7995   1.379   0.965   3.457 -0.0298 -1.2744 -1.7653
 1999SOL    MW4 7996   1.394   0.902   3.515  0.3719 -0.1285 -0.5997
 2000SOL     OW 7997   1.341   1.130   3.373  0.3802 -0.0610  0.1767
 2000SOL    HW2 7998   1.407   1.177   3.423  1.0897  0.5919 -1.3304
 2000SOL    HW3 7999   1.259   1.178   3.389  0.7083  0.4654  0.2858
 2000SOL    MW4 8000   1.339   1.143   3.382  0.5171  0.0946 -0.0078
 2001SOL     OW 8001   1.536   1.270   3.507  0.0397 -0.1348  0.1485
 2001SOL    HW2 8002   1.547   1.287   3.601  1.5260 -0.9101  0.1395
 2001SOL    HW3 8003   1.616   1.222   3.482 -1.0628 -1.3415 -1.1637
 2001SOL    MW4 8004   1.548   1.266   3.516  0.0903 -0.3963 -0.0258
 2002SOL     OW 8005   1.501   1.523   3.404 -0.6150  0.1558  0.1373
 2002SOL    HW2 8006   1.515   1.431   3.427  1.8816  0.5748  0.4265
 2002SOL    HW3 8007   1.522   1.527   3.311  1.8307  0.8923  0.6858
 2002SOL    MW4 8008   1.506   1.511   3.395  0.0370  0.3082  0.2478
 2003SOL     OW 8009   1.290   1.636   3.529 -0.0719  0.7061 -0.4095
 2003SOL    HW2 8010   1.304   1.636   3.624  1.9590 -0.1352 -0.6845
 2003SOL    HW3 8011   1.374   1.606   3.493 -0.8297  1.0300 -2.4677
 2003SOL    MW4 8012   1.303   1.632   3.537  0.0961  0.6379 -0.7173
 2004SOL     OW 8013   1.326   1.899   3.402  0.1531  0.2538 -0.5748
 2004SOL    HW2 8014   1.410   1.931   3.436  0.6408  0.2387 -1.7204
 2004SOL    HW3 8015   1.317   1.811   3.438  1.7356 -0.6283 -2.2289
 2004SOL    MW4 8016   1.336   1.892   3.411  0.4263  0.1354 -0.9442
 2005SOL     OW 8017   1.575   2.007   3.480  0.2310  0.2774 -0.3357
 2005SOL    HW2 8018   1.658   1.969   3.451  0.8923  0.1610  1.6486
 2005SOL    HW3 8019   1.584   2.101   3.464  0.2808  0.1314 -1.2002
 2005SOL    MW4 8020   1.587   2.014   3.474  0.3248  0.2428 -0.1880
 2006SOL     OW 8021   1.566   2.268   3.428 -0.0031  0.1558 -0.0480
 2006SOL    HW2 8022   1.477   2.301   3.442  0.4829  1.3884  0.2076
 2006SOL    HW3 8023   1.583   2.284   3.335 -0.1302 -0.2972 -0.1508
 2006SOL    MW4 8024   1.557   2.275   3.418  0.0443  0.2586 -0.0278
 2007SOL     OW 8025   1.346   2.400   3.499 -0.3839  0.0266  0.3012
 2007SOL    HW2 8026   1.348   2.428   3.591 -0.8769 -1.2665  0.7217
 2007SOL    HW3 8027   1.351   2.482   3.449  0.9085  0.6860  1.4626
 2007SOL    MW4 8028   1.347   2.415   3.505 -0.2785 -0.0570  0.5099
 2008SOL     OW 8029   1.397   2.646   3.396  0.4972  0.8082 -0.2894
 2008SOL    HW2 8030   1.458   2.712   3.428  2.1060 -0.3684 -0.8120
 2008SOL    HW3 8031   1.397   2.657   3.301  2.3146 -1.1667 -0.5698
 2008SOL    MW4 8032   1.405   2.656   3.388  0.9492  0.3924 -0.3953
 2009SOL     OW 8033   1.549   2.841   3.510 -0.1283 -0.0954 -0.6316
 2009SOL    HW2 8034   1.628   2.796   3.480  0.1420 -1.5094  2.0368
 2009SOL    HW3 8035   1.544   2.919   3.456  2.7324 -0.3270 -1.3166
 2009SOL    MW4 8036   1.558   2.845   3.499  0.2848 -0.3125 -0.3699
 2010SOL     OW 8037   1.514   3.111   3.345 -0.3956 -0.2822  0.0881
 2010SOL    HW2 8038   1.601   3.127   3.380  0.5489  0.6102 -2.5730
 2010SOL    HW3 8039   1.455   3.159   3.403  1.0548  0.6613  0.7978
 2010SOL    MW4 8040   1.517   3.119   3.357 -0.0796 -0.0400 -0.1694
 2011SOL     OW 8041   1.351   3.218   3.538 -0.1106  0.8225  0.4553
 2011SOL    HW2 8042   1.348   3.209   3.634 -0.6348  1.9505  0.5583
 2011SOL    HW3 8043   1.273   3.174   3.507 -0.5377  1.4375  0.6426
 2011SOL    MW4 8044   1.341   3.211   3.547 -0.2361  1.0525  0.4936
 2012SOL     OW 8045   1.347   3.474   3.418  0.2597 -0.6002 -0.1088
 2012SOL    HW2 8046   1.351   3.393   3.469 -0.3666 -0.8053 -0.3756
 2012SOL    HW3 8047   1.267   3.516   3.447 -0.3805 -0.9764 -1.2977
 2012SOL    MW4 8048   1.337   3.469   3.429  0.0926 -0.6769 -0.3009
 2013SOL     OW 8049   1.568   3.605   3.512 -0.0035  0.0220 -0.3331
 2013SOL    HW2 8050   1.576   3.599   3.607 -1.6643  1.2895 -0.0873
 2013SOL    HW3 8051   1.481   3.570   3.493  0.3735 -0.3348 -1.4034
 2013SOL    MW4 8052   1.558   3.600   3.522 -0.1729  0.1421 -0.4419
 2014SOL     OW 8053   1.561   3.857   3.429  0.7842 -0.1709  0.3661
 2014SOL    HW2 8054   1.554   3.764   3.450 -1.3603 -0.3378 -0.8982
 2014SOL    HW3 8055   1.553   3.862   3.334  2.1269  1.2126  0.3007
 2014SOL    MW4 8056   1.559   3.846   3.420  0.6784 -0.0104  0.1907
 2015SOL     OW 8057   1.347   4.000   3.524  0.4454 -0.1988 -0.1181
 2015SOL    HW2 8058   1.373   4.085   3.490  0.0123 -0.1431 -0.3152
 2015SOL    HW3 8059   1.417   3.940   3.495  0.9964  0.1723  0.4385
 2015SOL    MW4 8060   1.360   4.003   3.516  0.4609 -0.1425 -0.0707
 2016SOL     OW 8061   1.363   4.240   3.407  0.3521 -0.1684 -0.8738
 2016SOL    HW2 8062   1.288   4.295   3.431  0.1322 -0.2022 -1.4733
 2016SOL    HW3 8063   1.372   4.251   3.312  0.3703 -1.0861 -0.9814
 2016SOL    MW4 8064   1.354   4.249   3.398  0.3255 -0.2939 -0.9671
 2017SOL     OW 8065   1.563   4.347   3.571  0.0915 -0.5359 -0.1808
 2017SOL    HW2 8066   1.641   4.323   3.521  0.6795 -0.0551  0.5003
 2017SOL    HW3 8067   1.492   4.298   3.529  0.7226 -0.8209 -0.9285
 2017SOL    MW4 8068   1.564   4.337   3.559  0.2524 -0.5101 -0.1896
 2018SOL     OW 8069   2.041   4.583   3.352  0.7020 -0.0154 -0.1059
 2018SOL    HW2 8070   2.113   4.635   3.388  0.3873 -1.0960  2.1603
 2018SOL    HW3 8071   1.962   4.624   3.389  0.3229 -0.6675 -0.1930
 2018SOL    MW4 8072   2.040   4.596   3.362  0.6105 -0.2440  0.1816
 2019SOL     OW 8073   1.817   0.040   3.439  0.2272  0.1745 -0.2560
 2019SOL    HW2 8074   1.813   0.034   3.535  2.6874 -1.1145 -0.1865
 2019SOL    HW3 8075   1.735   0.002   3.409  0.6569 -2.1195  1.2991
 2019SOL    MW4 8076   1.806   0.034   3.448  0.6085 -0.2982 -0.0416
 2020SOL     OW 8077   1.818   0.340   3.395 -0.3985 -0.0379  0.0009
 2020SOL    HW2 8078   1.806   0.247   3.413 -1.4792  0.3569  1.3779
 2020SOL    HW3 8079   1.834   0.344   3.301 -1.2387 -1.5406 -0.2240
 2020SOL    MW4 8080   1.818   0.329   3.385 -0.6519 -0.1840  0.1529
 2021SOL     OW 8081   2.035   0.469   3.510  0.4631  0.4392 -0.2232
 2021SOL    HW2 8082   2.037   0.559   3.476 -0.0584  0.8058  0.7151
 2021SOL    HW3 8083   1.963   0.427   3.463 -0.0270  0.8413  0.1713
 2021SOL    MW4 8084   2.026   0.475   3.499  0.3297  0.5406 -0.0474
 2022SOL     OW 8085   2.045   0.733   3.393 -0.0550  0.0149 -0.0155
 2022SOL    HW2 8086   2.122   0.780   3.426  0.6009 -0.9266 -0.1645
 2022SOL    HW3 8087   2.044   0.752   3.299 -0.6271  0.8938  0.1671
 2022SOL    MW4 8088   2.055   0.742   3.385 -0.0439  0.0066 -0.0111
 2023SOL     OW 8089   1.831   0.887   3.505  0.0695  0.2945  0.3182
 2023SOL    HW2 8090   1.906   0.851   3.457 -0.1545  1.2310 -0.7652
 2023SOL    HW3 8091   1.759   0.827   3.484 -0.2230  1.1399 -1.2117
 2023SOL    MW4 8092   1.831   0.874   3.496  0.0013  0.5296 -0.0266
 2024SOL     OW 8093   1.760   1.126   3.409  0.2037  0.6478  0.4983
 2024SOL    HW2 8094   1.844   1.167   3.430  0.1700  0.4102  1.1284
 2024SOL    HW3 8095   1.769   1.036   3.440 -0.5286  0.8173  1.2435
 2024SOL    MW4 8096   1.772   1.120   3.416  0.1026  0.6388  0.6797
 2025SOL     OW 8097   2.008   1.223   3.461 -0.1082 -0.0474 -0.6883
 2025SOL    HW2 8098   2.016   1.224   3.556  0.4982  0.8240 -0.7385
 2025SOL    HW3 8099   2.015   1.315   3.436 -2.0829 -0.0872 -1.4365
 2025SOL    MW4 8100   2.010   1.236   3.470 -0.2887  0.0623 -0.7936
 2026SOL     OW 8101   1.994   1.500   3.377 -0.0529 -0.2424  0.5189
 2026SOL    HW2 8102   2.061   1.550   3.423  1.7411  1.2719 -3.4853
 2026SOL    HW3 8103   1.912   1.529   3.416  1.1703  3.3024  0.6996
 2026SOL    MW4 8104   1.992   1.511   3.388  0.3452  0.4251  0.0145
 2027SOL     OW 8105   1.749   1.591   3.508  0.0230 -0.5069  0.0053
 2027SOL    HW2 8106   1.762   1.673   3.461  1.2442  0.1894  1.5144
 2027SOL    HW3 8107   1.665   1.558   3.476  0.2575  0.5446 -1.7548
 2027SOL    MW4 8108   1.740   1.597   3.498  0.2151 -0.2763 -0.0278
 2028SOL     OW 8109   1.791   1.853   3.399  0.1056 -0.0999  0.2825
 2028SOL    HW2 8110   1.865   1.898   3.440 -0.2157 -0.0535  0.8176
 2028SOL    HW3 8111   1.793   1.882   3.308  0.7984 -0.1673  0.2775
 2028SOL    MW4 8112   1.801   1.863   3.392  0.1546 -0.1026  0.3524
 2029SOL     OW 8113   2.008   2.053   3.502 -0.1025  0.0665 -0.0487
 2029SOL    HW2 8114   2.077   2.000   3.462  0.6750  0.1576  1.1482
 2029SOL    HW3 8115   2.035   2.144   3.487  0.4354  0.1002  1.0786
 2029SOL    MW4 8116   2.020   2.058   3.495  0.0711  0.0830  0.2579
 2030SOL     OW 8117   1.998   2.324   3.430 -0.0000  0.0205  0.0571
 2030SOL    HW2 8118   2.078   2.375   3.444 -0.9561  1.6255 -0.1333
 2030SOL    HW3 8119   1.995   2.310   3.335 -1.5244  2.7378 -0.3754
 2030SOL    MW4 8120   2.008   2.329   3.419 -0.3273  0.5907 -0.0251
 2031SOL     OW 8121   1.761   2.459   3.510  0.6555  0.1577 -0.4622
 2031SOL    HW2 8122   1.837   2.411   3.477  0.0830  0.2123 -1.8965
 2031SOL    HW3 8123   1.686   2.403   3.489  0.1670  0.7401 -0.2923
 2031SOL    MW4 8124   1.761   2.445   3.503  0.5155  0.2417 -0.6290
 2032SOL     OW 8125   1.765   2.704   3.397 -0.1666  0.3654 -0.0260
 2032SOL    HW2 8126   1.849   2.733   3.432 -0.4196  0.4467  0.5149
 2032SOL    HW3 8127   1.756   2.614   3.429  1.7496 -1.2637 -3.6757
 2032SOL    MW4 8128   1.775   2.696   3.406  0.0528  0.1612 -0.4362
 2033SOL     OW 8129   1.992   2.805   3.475  0.2214  0.1989  0.0461
 2033SOL    HW2 8130   2.004   2.794   3.569  1.6371  1.4413  0.0275
 2033SOL    HW3 8131   2.006   2.898   3.460 -0.0772  0.0255 -1.3886
 2033SOL    MW4 8132   1.996   2.816   3.485  0.3688  0.3399 -0.1456
 2034SOL     OW 8133   2.023   3.078   3.407  0.0739  0.5721  0.5616
 2034SOL    HW2 8134   2.094   3.137   3.431 -0.5866  1.9316 -0.6949
 2034SOL    HW3 8135   1.943   3.126   3.428 -0.4782 -0.1238  0.1078
 2034SOL    MW4 8136   2.022   3.092   3.413 -0.0861  0.6597  0.3359
 2035SOL     OW 8137   1.762   3.185   3.458 -0.2998  0.0445 -0.2018
 2035SOL    HW2 8138   1.777   3.179   3.553 -2.3223 -0.2526  0.1114
 2035SOL    HW3 8139   1.766   3.279   3.440  0.6369  0.0644  0.0763
 2035SOL    MW4 8140   1.765   3.197   3.468 -0.4430  0.0079 -0.1238
 2036SOL     OW 8141   1.756   3.451   3.384  0.3346  0.5202 -0.0772
 2036SOL    HW2 8142   1.694   3.511   3.425  0.8008  0.3474  0.9052
 2036SOL    HW3 8143   1.768   3.484   3.295 -1.7036  0.1391 -0.5042
 2036SOL    MW4 8144   1.750   3.463   3.377  0.1272  0.4471 -0.0039
 2037SOL     OW 8145   1.969   3.617   3.464 -0.5356 -0.1502 -0.0732
 2037SOL    HW2 8146   2.042   3.574   3.419 -2.4461 -1.7332 -1.7695
 2037SOL    HW3 8147   1.895   3.558   3.451 -2.0028  1.1566  2.0889
 2037SOL    MW4 8148   1.969   3.604   3.456 -0.9813 -0.1866 -0.0117
 2038SOL     OW 8149   1.992   3.896   3.371  0.1936 -0.7253  0.0859
 2038SOL    HW2 8150   1.920   3.947   3.409  0.2654 -1.1922  0.8600
 2038SOL    HW3 8151   1.974   3.806   3.397  0.6331 -0.9512 -0.3924
 2038SOL    MW4 8152   1.980   3.891   3.380  0.2610 -0.8167  0.1249
 2039SOL     OW 8153   1.782   4.027   3.495 -0.3421 -0.2418  0.5182
 2039SOL    HW2 8154   1.780   4.029   3.591 -0.6838 -2.1227  0.5689
 2039SOL    HW3 8155   1.714   3.964   3.471 -2.0036  2.0681 -1.0634
 2039SOL    MW4 8156   1.773   4.019   3.505 -0.6064 -0.1852  0.3163
 2040SOL     OW 8157   1.766   4.277   3.391 -0.3926  0.0684 -0.2227
 2040SOL    HW2 8158   1.784   4.190   3.427 -0.3088 -0.1192 -0.7176
 2040SOL    HW3 8159   1.758   4.263   3.297 -2.2213  0.2805 -0.1293
 2040SOL    MW4 8160   1.767   4.264   3.384 -0.6228  0.0717 -0.2757
 2041SOL     OW 8161   2.027   4.324   3.461  0.2264 -0.0780 -0.2657
 2041SOL    HW2 8162   1.946   4.294   3.421  0.4346  0.0385 -0.7964
 2041SOL    HW3 8163   2.043   4.410   3.421 -0.2668  0.6528  1.0961
 2041SOL    MW4 8164   2.019   4.332   3.450  0.1888  0.0338 -0.1561
 2042SOL     OW 8165   2.484   4.657   3.410 -0.1553 -0.3467  0.1202
 2042SOL    HW2 8166   2.481   4.562   3.422  0.1949 -0.3672  0.0211
 2042SOL    HW3 8167   2.497   4.670   3.316  1.4998 -0.2104  0.3682
 2042SOL    MW4 8168   2.485   4.646   3.399  0.1093 -0.3314  0.1399
 2043SOL     OW 8169   2.241   0.065   3.486 -0.0901 -0.1935  0.2804
 2043SOL    HW2 8170   2.229   0.155   3.457 -0.1435 -0.4023 -0.3432
 2043SOL    HW3 8171   2.327   0.040   3.454 -0.4566 -0.6716 -0.3567
 2043SOL    MW4 8172   2.250   0.074   3.478 -0.1455 -0.2842  0.1140
 2044SOL     OW 8173   2.247   0.337   3.388  0.0155 -0.0415  0.2551
 2044SOL    HW2 8174   2.328   0.372   3.424 -0.2170 -0.4117  1.1459
 2044SOL    HW3 8175   2.178   0.389   3.430 -0.2797 -0.8124  0.7356
 2044SOL    MW4 8176   2.248   0.349   3.398 -0.0541 -0.1921  0.4361
 2045SOL     OW 8177   2.469   0.467   3.503 -0.2106  0.3735 -0.3001
 2045SOL    HW2 8178   2.551   0.437   3.465  0.3863  1.4296  0.1390
 2045SOL    HW3 8179   2.474   0.563   3.498 -0.5604  0.4980  1.5145
 2045SOL    MW4 8180   2.480   0.476   3.497 -0.1780  0.5293 -0.0028
 2046SOL     OW 8181   2.448   0.726   3.445  0.2341 -0.3200  0.0082
 2046SOL    HW2 8182   2.514   0.786   3.480  0.2340 -0.9504  1.1148
 2046SOL    HW3 8183   2.465   0.725   3.350  1.0771  0.4049  0.1434
 2046SOL    MW4 8184   2.459   0.733   3.437  0.3453 -0.3075  0.1720
 2047SOL     OW 8185   2.232   0.883   3.542  0.1896  0.3988 -0.0083
 2047SOL    HW2 8186   2.240   0.958   3.484  1.1744  0.1488 -0.2058
 2047SOL    HW3 8187   2.308   0.828   3.521 -0.4200 -0.5582  0.2562
 2047SOL    MW4 8188   2.243   0.886   3.532  0.2391  0.2396  0.0005
 2048SOL     OW 8189   2.225   1.086   3.370 -0.1945 -0.0884 -0.4526
 2048SOL    HW2 8190   2.302   1.135   3.400  0.2963 -1.1817  0.1330
 2048SOL    HW3 8191   2.150   1.134   3.404  0.2769  0.3553 -0.0383
 2048SOL    MW4 8192   2.226   1.099   3.378 -0.0675 -0.1741 -0.3207
 2049SOL     OW 8193   2.449   1.250   3.495 -0.3287 -0.1381  0.4650
 2049SOL    HW2 8194   2.460   1.243   3.590  0.4983 -1.1917  0.2953
 2049SOL    HW3 8195   2.533   1.223   3.459 -0.7642 -0.1043 -0.5812
 2049SOL    MW4 8196   2.461   1.245   3.503 -0.2771 -0.2727  0.3046
 2050SOL     OW 8197   2.429   1.518   3.411 -0.2124  0.0652 -0.0570
 2050SOL    HW2 8198   2.422   1.425   3.436 -0.6227 -0.3139 -1.5325
 2050SOL    HW3 8199   2.461   1.516   3.321  1.3935  1.4060  0.4600
 2050SOL    MW4 8200   2.432   1.505   3.402 -0.0546  0.1921 -0.1834
 2051SOL     OW 8201   2.199   1.642   3.490  0.0910 -0.2008 -0.2788
 2051SOL    HW2 8202   2.208   1.628   3.584 -0.2237 -0.8828 -0.3491
 2051SOL    HW3 8203   2.274   1.598   3.452  0.1117 -0.0933 -0.3634
 2051SOL    MW4 8204   2.210   1.635   3.497  0.0522 -0.2766 -0.2992
 2052SOL     OW 8205   2.223   1.909   3.417  0.2579  0.2356  0.0482
 2052SOL    HW2 8206   2.212   1.819   3.448  1.9225 -0.2547 -0.6722
 2052SOL    HW3 8207   2.222   1.901   3.321 -1.3077  1.2348 -0.0334
 2052SOL    MW4 8208   2.222   1.896   3.408  0.2709  0.3027 -0.0576
 2053SOL     OW 8209   2.464   2.007   3.513 -0.2800  0.3755  0.0052
 2053SOL    HW2 8210   2.447   2.016   3.606  1.4110  2.1420  0.1677
 2053SOL    HW3 8211   2.380   1.980   3.476 -1.1187  0.2351  1.9423
 2053SOL    MW4 8212   2.451   2.004   3.520 -0.1675  0.5900  0.2822
 2054SOL     OW 8213   2.448   2.268   3.408 -0.2334  0.2118  0.1033
 2054SOL    HW2 8214   2.505   2.332   3.451  1.6500 -0.0837 -1.8500
 2054SOL    HW3 8215   2.467   2.185   3.452  0.0739  0.3098  0.1577
 2054SOL    MW4 8216   2.458   2.265   3.419  0.0557  0.1857 -0.1472
 2055SOL     OW 8217   2.231   2.456   3.469  0.2780 -0.3326 -0.3264
 2055SOL    HW2 8218   2.251   2.540   3.428  0.3290 -0.7076 -1.0872
 2055SOL    HW3 8219   2.302   2.399   3.440 -0.7883 -1.1428 -1.3830
 2055SOL    MW4 8220   2.243   2.460   3.460  0.1441 -0.4890 -0.5662
 2056SOL     OW 8221   2.241   2.708   3.361  0.6885  0.0652 -0.0237
 2056SOL    HW2 8222   2.156   2.739   3.391  0.5935  0.1233 -0.3553
 2056SOL    HW3 8223   2.234   2.704   3.265  2.2019  3.4831 -0.3518
 2056SOL    MW4 8224   2.229   2.711   3.352  0.8757  0.5238 -0.1107
 2057SOL     OW 8225   2.468   2.829   3.492  0.7926  0.1554 -0.1395
 2057SOL    HW2 8226   2.474   2.913   3.445  0.6018  0.5716  0.5636
 2057SOL    HW3 8227   2.392   2.786   3.455  0.9504  0.2532 -0.5777
 2057SOL    MW4 8228   2.459   2.835   3.481  0.7882  0.2232 -0.1046
 2058SOL     OW 8229   2.450   3.088   3.372  0.4029 -0.3359 -0.1952
 2058SOL    HW2 8230   2.525   3.129   3.416  0.5285 -0.4851 -0.2685
 2058SOL    HW3 8231   2.471   3.093   3.279 -0.1474  0.5344 -0.2748
 2058SOL    MW4 8232   2.463   3.094   3.365  0.3469 -0.2408 -0.2154
 2059SOL     OW 8233   2.235   3.263   3.469  0.1141  0.0265  0.1347
 2059SOL    HW2 8234   2.229   3.227   3.558 -0.5004  0.8388  0.4270
 2059SOL    HW3 8235   2.304   3.211   3.427 -0.5103 -1.2741  0.6623
 2059SOL    MW4 8236   2.243   3.251   3.475 -0.0494 -0.0379  0.2429
 2060SOL     OW 8237   2.205   3.520   3.357  0.0680 -0.3281  0.4281
 2060SOL    HW2 8238   2.210   3.429   3.387 -0.1422 -0.9297 -1.3127
 2060SOL    HW3 8239   2.204   3.513   3.261  0.1637  1.5163  0.2889
 2060SOL    MW4 8240   2.206   3.507   3.348  0.0529 -0.1641  0.1800
 2061SOL     OW 8241   2.457   3.621   3.497  0.1685  0.4172 -0.1402
 2061SOL    HW2 8242   2.451   3.701   3.444  1.9039 -1.0949 -2.6903
 2061SOL    HW3 8243   2.375   3.574   3.479  0.2442  0.4496 -0.5695
 2061SOL    MW4 8244   2.445   3.626   3.488  0.4074  0.2220 -0.5333
 2062SOL     OW 8245   2.450   3.874   3.375  0.2806  0.2517  0.1489
 2062SOL    HW2 8246   2.526   3.917   3.413  0.5728 -0.6786  0.6379
 2062SOL    HW3 8247   2.375   3.915   3.419  0.4003  2.5010 -1.7131
 2062SOL    MW4 8248   2.450   3.885   3.386  0.3350  0.4258 -0.0323
 2063SOL     OW 8249   2.214   3.977   3.530  0.2152  0.2568 -0.2955
 2063SOL    HW2 8250   2.245   4.054   3.483  1.9601  0.1963  0.7346
 2063SOL    HW3 8251   2.129   3.959   3.491 -0.3810  2.8906 -0.3569
 2063SOL    MW4 8252   2.207   3.985   3.519  0.3668  0.5963 -0.1677
 2064SOL     OW 8253   2.257   4.219   3.389 -0.0819  0.0985 -0.3360
 2064SOL    HW2 8254   2.171   4.245   3.424 -0.6734 -1.9408 -0.1914
 2064SOL    HW3 8255   2.248   4.227   3.295 -0.1253  0.7958 -0.2736
 2064SOL    MW4 8256   2.244   4.223   3.381 -0.1657 -0.0786 -0.3087
 2065SOL     OW 8257   2.468   4.380   3.465 -0.2543  0.0490  0.1542
 2065SOL    HW2 8258   2.455   4.370   3.560 -0.7216 -0.9869 -0.0160
 2065SOL    HW3 8259   2.396   4.331   3.426 -1.3688  2.3158 -0.7435
 2065SOL    MW4 8260   2.457   4.373   3.473 -0.4630  0.2114  0.0133
 2066SOL     OW 8261   2.921   0.007   3.414  0.3015  0.8081  0.0124
 2066SOL    HW2 8262   2.840   0.050   3.444 -1.5443 -1.7370 -1.2051
 2066SOL    HW3 8263   2.915   0.007   3.319  1.0824 -0.6543 -0.0517
 2066SOL    MW4 8264   2.910   0.013   3.405  0.1610  0.2794 -0.1567
 2067SOL     OW 8265   2.691   0.107   3.543  0.0555 -0.2032  0.5396
 2067SOL    HW2 8266   2.698   0.199   3.518  1.1637  0.2708  2.4333
 2067SOL    HW3 8267   2.613   0.075   3.498 -0.2981  1.6436 -0.1968
 2067SOL    MW4 8268   2.681   0.115   3.534  0.1551  0.1030  0.6923
 2068SOL     OW 8269   2.694   0.353   3.412 -0.3811 -0.4240  0.0437
 2068SOL    HW2 8270   2.763   0.411   3.443 -1.6570  0.3781  1.4668
 2068SOL    HW3 8271   2.706   0.350   3.317  1.5379 -0.2293  0.2776
 2068SOL    MW4 8272   2.704   0.360   3.403 -0.2963 -0.2925  0.2623
 2069SOL     OW 8273   2.927   0.488   3.506 -0.1728 -0.4687  0.5520
 2069SOL    HW2 8274   2.923   0.499   3.601  0.6257 -0.1200  0.5494
 2069SOL    HW3 8275   2.918   0.577   3.471 -3.0189 -0.8405  0.1957
 2069SOL    MW4 8276   2.925   0.501   3.514 -0.4430 -0.4718  0.5046
 2070SOL     OW 8277   2.907   0.740   3.359  0.2207  0.1360  0.3042
 2070SOL    HW2 8278   2.987   0.780   3.393  0.2406  0.0722  0.3323
 2070SOL    HW3 8279   2.837   0.793   3.396  0.2324 -0.0914  0.6585
 2070SOL    MW4 8280   2.908   0.752   3.369  0.2248  0.0976  0.3547
 2071SOL     OW 8281   2.687   0.875   3.474 -0.0576  0.1384 -0.2448
 2071SOL    HW2 8282   2.711   0.871   3.566 -0.2704 -2.5493 -0.2674
 2071SOL    HW3 8283   2.709   0.964   3.447  3.3515 -0.1261  1.4667
 2071SOL    MW4 8284   2.693   0.887   3.482  0.3641 -0.2511 -0.0220
 2072SOL     OW 8285   2.690   1.131   3.397 -0.1994  0.3737  0.1767
 2072SOL    HW2 8286   2.772   1.173   3.427 -0.7028  1.3489  0.2187
 2072SOL    HW3 8287   2.701   1.123   3.302  0.0611  0.2541  0.2158
 2072SOL    MW4 8288   2.703   1.136   3.389 -0.2315  0.4866  0.1874
 2073SOL     OW 8289   2.904   1.273   3.480 -0.7606  0.0735  0.0572
 2073SOL    HW2 8290   2.925   1.274   3.573 -0.2893 -0.1750 -0.0456
 2073SOL    HW3 8291   2.983   1.239   3.438 -0.4312  1.5638 -0.5759
 2073SOL    MW4 8292   2.917   1.269   3.487 -0.6550  0.2374 -0.0399
 2074SOL     OW 8293   2.917   1.534   3.399 -0.1923  0.1971 -0.5497
 2074SOL    HW2 8294   2.834   1.568   3.435 -0.8114  0.1306 -1.8782
 2074SOL    HW3 8295   2.917   1.442   3.423 -0.7151  0.0996 -0.9141
 2074SOL    MW4 8296   2.906   1.527   3.407 -0.3430  0.1754 -0.7730
 2075SOL     OW 8297   2.672   1.645   3.498  1.0257  0.1709 -0.4560
 2075SOL    HW2 8298   2.675   1.722   3.441 -2.1404 -0.7220 -1.9297
 2075SOL    HW3 8299   2.583   1.612   3.488  1.2394 -1.5855  2.9728
 2075SOL    MW4 8300   2.661   1.651   3.489  0.6362 -0.1786 -0.1981
 2076SOL     OW 8301   2.664   1.902   3.378  0.2142  0.2286 -0.1107
 2076SOL    HW2 8302   2.590   1.939   3.427  0.0417 -0.8304  0.4326
 2076SOL    HW3 8303   2.640   1.915   3.286 -1.1751 -1.1103  0.0412
 2076SOL    MW4 8304   2.651   1.909   3.372  0.0082 -0.0877 -0.0190
 2077SOL     OW 8305   2.939   2.006   3.461 -0.3734  0.1284  0.3613
 2077SOL    HW2 8306   2.924   2.043   3.548  0.6162  0.1099  0.5523
 2077SOL    HW3 8307   2.860   1.956   3.442 -1.6768  2.1910  0.1656
 2077SOL    MW4 8308   2.927   2.005   3.470 -0.4148  0.3981  0.3607
 2078SOL     OW 8309   2.871   2.271   3.394 -0.1479 -0.5019 -0.1373
 2078SOL    HW2 8310   2.881   2.176   3.403  0.6537 -0.5183 -1.1714
 2078SOL    HW3 8311   2.883   2.287   3.301  0.5640  0.7228  0.1622
 2078SOL    MW4 8312   2.874   2.260   3.383  0.0518 -0.3425 -0.2342
 2079SOL     OW 8313   2.657   2.394   3.531 -0.2572  0.6401  0.3185
 2079SOL    HW2 8314   2.679   2.391   3.624 -1.1045  0.6582  0.5240
 2079SOL    HW3 8315   2.723   2.339   3.489  0.2894  0.8530  0.8988
 2079SOL    MW4 8316   2.668   2.386   3.538 -0.2969  0.6706  0.4222
 2080SOL     OW 8317   2.689   2.674   3.421  0.2830  0.0655 -0.1802
 2080SOL    HW2 8318   2.677   2.595   3.474  0.8751 -1.0982 -1.6974
 2080SOL    HW3 8319   2.610   2.726   3.436  0.0504 -0.6457  1.1316
 2080SOL    MW4 8320   2.677   2.670   3.430  0.3305 -0.1819 -0.2073
 2081SOL     OW 8321   2.930   2.803   3.493 -0.0343 -0.2972  0.2642
 2081SOL    HW2 8322   2.924   2.811   3.589 -0.5563 -0.5358  0.2559
 2081SOL    HW3 8323   2.846   2.764   3.468 -1.1657  2.5909 -0.5984
 2081SOL    MW4 8324   2.918   2.799   3.503 -0.2524  0.0523  0.1493
 2082SOL     OW 8325   2.922   3.082   3.434  0.1005  0.0396 -0.0906
 2082SOL    HW2 8326   2.932   2.988   3.453 -1.3485 -0.1053  0.0804
 2082SOL    HW3 8327   2.928   3.088   3.339  0.2726 -0.2194 -0.0972
 2082SOL    MW4 8328   2.924   3.070   3.424 -0.0680 -0.0137 -0.0689
 2083SOL     OW 8329   2.655   3.223   3.508 -0.0609 -0.0078 -0.2520
 2083SOL    HW2 8330   2.652   3.215   3.603  0.3002 -2.8323 -0.4619
 2083SOL    HW3 8331   2.739   3.187   3.482 -1.0079 -1.2034 -1.8067
 2083SOL    MW4 8332   2.665   3.218   3.517 -0.1382 -0.5382 -0.4848
 2084SOL     OW 8333   2.647   3.479   3.361 -0.1125 -0.3361  0.1721
 2084SOL    HW2 8334   2.633   3.401   3.414 -0.1497 -0.1494  0.4367
 2084SOL    HW3 8335   2.585   3.543   3.395  1.0363  0.3345  1.0261
 2084SOL    MW4 8336   2.637   3.477   3.372  0.0342 -0.2230  0.3197
 2085SOL     OW 8337   2.888   3.553   3.487  0.5142 -0.3277  0.0237
 2085SOL    HW2 8338   2.893   3.643   3.454  1.0695 -0.4037 -0.0956
 2085SOL    HW3 8339   2.803   3.521   3.455 -0.8939  1.0254  2.3036
 2085SOL    MW4 8340   2.877   3.560   3.478  0.4017 -0.1592  0.3088
 2086SOL     OW 8341   2.923   3.832   3.412 -0.4318 -0.0752  0.0547
 2086SOL    HW2 8342   2.997   3.890   3.430  0.5248 -1.2998  0.1359
 2086SOL    HW3 8343   2.845   3.888   3.425  0.4647  1.2544 -0.1681
 2086SOL    MW4 8344   2.922   3.847   3.416 -0.1873 -0.0613  0.0360
 2087SOL     OW 8345   2.692   3.973   3.469 -0.2316 -0.1566 -0.0161
 2087SOL    HW2 8346   2.685   3.983   3.564 -2.5948 -0.6402 -0.1003
 2087SOL    HW3 8347   2.695   4.063   3.436  0.0372  0.0194  0.4851
 2087SOL    MW4 8348   2.691   3.986   3.477 -0.5080 -0.1972  0.0389
 2088SOL     OW 8349   2.694   4.240   3.394  0.3192  0.1938 -0.3809
 2088SOL    HW2 8350   2.760   4.295   3.438  0.1164 -0.8003  1.2111
 2088SOL    HW3 8351   2.611   4.280   3.418  0.2632  0.5042 -1.0792
 2088SOL    MW4 8352   2.692   4.253   3.403  0.2851  0.1036 -0.2630
 2089SOL     OW 8353   2.904   4.390   3.493  0.4241 -0.0996 -0.0092
 2089SOL    HW2 8354   2.915   4.386   3.588  0.4444  0.4101  0.0100
 2089SOL    HW3 8355   2.895   4.483   3.473  0.5769 -0.1930 -0.5269
 2089SOL    MW4 8356   2.904   4.402   3.503  0.4469 -0.0447 -0.0750
 2090SOL     OW 8357   3.402   4.637   3.402 -0.0499 -0.4823  0.5684
 2090SOL    HW2 8358   3.326   4.691   3.425  0.8200  0.7721  0.4899
 2090SOL    HW3 8359   3.402   4.636   3.306 -0.4955 -1.2543  0.5659
 2090SOL    MW4 8360   3.392   4.644   3.392  0.0060 -0.4186  0.5577
 2091SOL     OW 8361   3.185   0.105   3.493 -0.3416  0.0124 -0.2880
 2091SOL    HW2 8362   3.199   0.187   3.444 -0.2982  0.1089 -0.1142
 2091SOL    HW3 8363   3.101   0.072   3.461 -0.2704  0.0302 -0.4925
 2091SOL    MW4 8364   3.176   0.112   3.482 -0.3265  0.0275 -0.2920
 2092SOL     OW 8365   3.183   0.363   3.386 -0.2167 -0.1770  0.3902
 2092SOL    HW2 8366   3.099   0.387   3.427 -1.1480 -0.4252 -1.3301
 2092SOL    HW3 8367   3.163   0.358   3.293  1.7772 -0.0779 -0.0483
 2092SOL    MW4 8368   3.169   0.366   3.379 -0.0765 -0.1967  0.1054
 2093SOL     OW 8369   3.384   0.516   3.504 -0.1044  0.1809  0.4866
 2093SOL    HW2 8370   3.367   0.497   3.597 -1.5424  0.3558  0.2579
 2093SOL    HW3 8371   3.331   0.453   3.456  0.3089  0.3704 -0.2293
 2093SOL    MW4 8372   3.375   0.505   3.510 -0.2396  0.2290  0.3619
 2094SOL     OW 8373   3.366   0.763   3.370 -0.2983 -0.4747  0.0394
 2094SOL    HW2 8374   3.428   0.815   3.422 -2.0414  0.1347  1.5806
 2094SOL    HW3 8375   3.364   0.678   3.412 -1.0656 -0.2580  0.4403
 2094SOL    MW4 8376   3.374   0.759   3.382 -0.6296 -0.3657  0.2956
 2095SOL     OW 8377   3.137   0.903   3.448  0.1461 -0.0242 -0.4348
 2095SOL    HW2 8378   3.125   0.986   3.402  0.5332  0.5448  0.4702
 2095SOL    HW3 8379   3.217   0.866   3.410 -0.0124  0.0263 -0.8200
 2095SOL    MW4 8380   3.146   0.909   3.437  0.1763  0.0576 -0.3662
 2096SOL     OW 8381   3.131   1.183   3.364  0.0835  0.0393  0.4069
 2096SOL    HW2 8382   3.208   1.229   3.398 -0.2470  1.3267 -0.5280
 2096SOL    HW3 8383   3.144   1.182   3.269 -0.6990 -0.3794  0.2971
 2096SOL    MW4 8384   3.143   1.189   3.356 -0.0634  0.1539  0.2690
 2097SOL     OW 8385   3.363   1.301   3.491  0.2746  0.0896 -0.0528
 2097SOL    HW2 8386   3.446   1.258   3.470  0.7640 -0.3112  2.4865
 2097SOL    HW3 8387   3.374   1.391   3.463  1.9758  0.2921  1.1944
 2097SOL    MW4 8388   3.376   1.307   3.485  0.5636  0.0634  0.4468
 2098SOL     OW 8389   3.398   1.552   3.380 -0.0664  0.4882  0.5822
 2098SOL    HW2 8390   3.458   1.610   3.426  0.5067 -0.7369  1.4082
 2098SOL    HW3 8391   3.310   1.582   3.405  0.2388  0.2687  1.9429
 2098SOL    MW4 8392   3.394   1.563   3.390  0.0495  0.2976  0.8707
 2099SOL     OW 8393   3.163   1.647   3.461  0.1887 -0.5722 -0.1677
 2099SOL    HW2 8394   3.166   1.736   3.428  1.7576 -0.2178  0.9152
 2099SOL    HW3 8395   3.075   1.616   3.438 -1.4262  2.2376  2.0363
 2099SOL    MW4 8396   3.151   1.654   3.453  0.1827 -0.1547  0.2659
 2100SOL     OW 8397   3.177   1.896   3.368 -0.0436  0.2155  0.1346
 2100SOL    HW2 8398   3.102   1.932   3.416  0.1911 -0.0978  0.7387
 2100SOL    HW3 8399   3.152   1.904   3.276 -0.4818  0.8557  0.3013
 2100SOL    MW4 8400   3.164   1.902   3.362 -0.0704  0.2587  0.2363
 2101SOL     OW 8401   3.372   2.076   3.501 -0.3115  0.5672  0.3498
 2101SOL    HW2 8402   3.362   2.158   3.452 -1.6035  0.8192  1.0234
 2101SOL    HW3 8403   3.304   2.019   3.466 -0.2050  0.2023  0.7379
 2101SOL    MW4 8404   3.362   2.079   3.490 -0.4679  0.5523  0.4899
 2102SOL     OW 8405   3.339   2.307   3.350 -0.0711  0.5786  0.0589
 2102SOL    HW2 8406   3.410   2.350   3.398 -0.7630  1.2955  0.4444
 2102SOL    HW3 8407   3.260   2.327   3.401 -0.6614  0.4406 -0.7961
 2102SOL    MW4 8408   3.338   2.315   3.363 -0.2403  0.6550 -0.0031
 2103SOL     OW 8409   3.127   2.393   3.498  0.2916 -0.1802  0.1680
 2103SOL    HW2 8410   3.124   2.483   3.464 -1.7731  0.3032  1.5190
 2103SOL    HW3 8411   3.041   2.357   3.477  0.5114 -1.2814  1.1277
 2103SOL    MW4 8412   3.115   2.400   3.490  0.0482 -0.2617  0.4729
 2104SOL     OW 8413   3.133   2.655   3.399  0.0359  0.2920 -0.0153
 2104SOL    HW2 8414   3.216   2.681   3.439 -0.5190 -0.2252  1.5047
 2104SOL    HW3 8415   3.068   2.713   3.438 -0.3089  0.8001 -1.3236
 2104SOL    MW4 8416   3.135   2.666   3.409 -0.0828  0.2908  0.0127
 2105SOL     OW 8417   3.358   2.777   3.513 -0.0609  0.3479  0.5819
 2105SOL    HW2 8418   3.447   2.743   3.497 -0.9217 -1.3671 -0.7497
 2105SOL    HW3 8419   3.359   2.864   3.473  0.6801 -0.1342 -0.4914
 2105SOL    MW4 8420   3.370   2.784   3.506 -0.0767  0.0580  0.2646
 2106SOL     OW 8421   3.382   3.037   3.397  0.2535 -0.4879  0.1624
 2106SOL    HW2 8422   3.456   3.092   3.421  0.1156 -0.7630  1.2619
 2106SOL    HW3 8423   3.306   3.080   3.436 -0.2434  0.0295 -1.3228
 2106SOL    MW4 8424   3.381   3.050   3.405  0.1697 -0.4559  0.1115
 2107SOL     OW 8425   3.177   3.180   3.516  0.6362 -0.1246 -0.5542
 2107SOL    HW2 8426   3.181   3.264   3.471  0.4997 -0.0430 -0.4158
 2107SOL    HW3 8427   3.093   3.142   3.490  0.0822  0.3871  0.4402
 2107SOL    MW4 8428   3.167   3.186   3.507  0.5451 -0.0463 -0.4047
 2108SOL     OW 8429   3.141   3.449   3.403 -0.1393 -0.1200 -0.1897
 2108SOL    HW2 8430   3.068   3.500   3.437  1.2033  1.7452 -0.0527
 2108SOL    HW3 8431   3.125   3.443   3.309 -1.6574 -1.6986  0.1467
 2108SOL    MW4 8432   3.129   3.455   3.395 -0.1624 -0.0821 -0.1273
 2109SOL     OW 8433   3.378   3.572   3.494  0.3669  0.6567 -0.2388
 2109SOL    HW2 8434   3.370   3.658   3.452 -0.8719  0.3513 -0.6499
 2109SOL    HW3 8435   3.309   3.519   3.454  0.9877 -0.4770  0.1605
 2109SOL    MW4 8436   3.368   3.576   3.483  0.2854  0.4668 -0.2404
 2110SOL     OW 8437   3.353   3.809   3.385 -0.0685 -0.3906  0.3027
 2110SOL    HW2 8438   3.431   3.860   3.407 -0.0974  0.5825 -1.7495
 2110SOL    HW3 8439   3.281   3.857   3.426  0.2988 -0.8545  1.5246
 2110SOL    MW4 8440   3.354   3.823   3.393 -0.0238 -0.3234  0.1931
 2111SOL     OW 8441   3.151   3.974   3.501  0.3864  0.0399  0.3076
 2111SOL    HW2 8442   3.143   3.987   3.595  1.6970  1.2728  0.2672
 2111SOL    HW3 8443   3.168   4.061   3.465  0.8848 -0.5479 -0.9466
 2111SOL    MW4 8444   3.152   3.987   3.508  0.6251  0.1250  0.1368
 2112SOL     OW 8445   3.130   4.233   3.368 -0.0698  0.0713 -0.1095
 2112SOL    HW2 8446   3.197   4.290   3.406 -0.3392 -1.7418  3.2590
 2112SOL    HW3 8447   3.047   4.276   3.391 -0.2027  0.1159 -0.6492
 2112SOL    MW4 8448   3.128   4.246   3.376 -0.1229 -0.1620  0.2637
 2113SOL     OW 8449   3.354   4.377   3.501 -0.0312 -0.4509 -0.0430
 2113SOL    HW2 8450   3.372   4.377   3.595  0.2017  0.6068 -0.0794
 2113SOL    HW3 8451   3.377   4.465   3.472 -1.5260 -0.2863 -0.8204
 2113SOL    MW4 8452   3.359   4.388   3.510 -0.1977 -0.2897 -0.1504
 2114SOL     OW 8453   3.822   4.626   3.360  0.2615  0.2988  0.0727
 2114SOL    HW2 8454   3.752   4.686   3.386  0.1578  0.4788 -0.6006
 2114SOL    HW3 8455   3.812   4.618   3.265  0.1027 -1.0162  0.1944
 2114SOL    MW4 8456   3.811   4.633   3.351  0.2269  0.1491 -0.0001
 2115SOL     OW 8457   3.620   0.103   3.491  0.2859  0.0086 -0.0860
 2115SOL    HW2 8458   3.617   0.198   3.480  1.2420  0.0222 -0.2952
 2115SOL    HW3 8459   3.536   0.072   3.456 -0.2490  0.8136  0.4534
 2115SOL    MW4 8460   3.608   0.112   3.485  0.3415  0.1166 -0.0425
 2116SOL     OW 8461   3.614   0.365   3.389 -0.6533  0.5127 -0.0253
 2116SOL    HW2 8462   3.696   0.413   3.395 -0.2364 -0.1866 -0.1004
 2116SOL    HW3 8463   3.547   0.429   3.412 -0.0705  1.0287  0.2395
 2116SOL    MW4 8464   3.616   0.380   3.393 -0.5214  0.4885 -0.0003
 2117SOL     OW 8465   3.856   0.506   3.444 -0.0067 -0.1730 -0.0988
 2117SOL    HW2 8466   3.846   0.476   3.534  0.5396 -1.7683 -0.5491
 2117SOL    HW3 8467   3.931   0.457   3.411  0.8181  1.5862 -0.9347
 2117SOL    MW4 8468   3.865   0.496   3.451  0.1742 -0.1514 -0.2685
 2118SOL     OW 8469   3.803   0.778   3.442 -0.4746 -0.2853 -0.2934
 2118SOL    HW2 8470   3.880   0.824   3.475 -0.2809 -0.8908  0.1208
 2118SOL    HW3 8471   3.829   0.686   3.442 -1.5957 -0.6219  0.9893
 2118SOL    MW4 8472   3.817   0.772   3.447 -0.5969 -0.4096 -0.0695
 2119SOL     OW 8473   3.559   0.918   3.510  0.1869  0.2059  0.4125
 2119SOL    HW2 8474   3.564   0.902   3.604  0.9955  0.6541  0.4503
 2119SOL    HW3 8475   3.636   0.873   3.475  0.1423  0.4355  0.0202
 2119SOL    MW4 8476   3.570   0.910   3.518  0.2877  0.2953  0.3657
 2120SOL     OW 8477   3.597   1.163   3.383  0.2386  0.2704 -0.3564
 2120SOL    HW2 8478   3.595   1.079   3.429  0.8187  0.7507  0.5448
 2120SOL    HW3 8479   3.612   1.139   3.291 -1.1702 -0.6975 -0.3516
 2120SOL    MW4 8480   3.599   1.148   3.377  0.1293  0.2061 -0.2369
 2121SOL     OW 8481   3.804   1.311   3.485  0.1904  0.1260  0.2062
 2121SOL    HW2 8482   3.801   1.289   3.578  0.8016 -0.2613  0.1407
 2121SOL    HW3 8483   3.732   1.262   3.446  1.8125 -2.1319 -0.0065
 2121SOL    MW4 8484   3.794   1.302   3.492  0.4850 -0.2230  0.1695
 2122SOL     OW 8485   3.806   1.593   3.404  0.5908 -0.0254 -0.3164
 2122SOL    HW2 8486   3.883   1.632   3.445  0.5141 -0.9933  0.7758
 2122SOL    HW3 8487   3.812   1.500   3.425 -0.4164 -0.2516 -0.9791
 2122SOL    MW4 8488   3.817   1.586   3.412  0.4478 -0.1829 -0.2597
 2123SOL     OW 8489   3.565   1.719   3.511 -0.1324  0.1033 -0.0709
 2123SOL    HW2 8490   3.550   1.799   3.461  0.3757 -0.3485 -0.9629
 2123SOL    HW3 8491   3.646   1.683   3.474  0.2365 -0.2527  1.0613
 2123SOL    MW4 8492   3.574   1.725   3.499 -0.0167 -0.0033 -0.0392
 2124SOL     OW 8493   3.574   1.964   3.367  0.3656 -0.6030 -0.2285
 2124SOL    HW2 8494   3.653   2.000   3.409  0.3332  0.7172 -1.2612
 2124SOL    HW3 8495   3.502   2.014   3.405  0.1279 -1.0227 -0.1273
 2124SOL    MW4 8496   3.575   1.975   3.377  0.3300 -0.4842 -0.3514
 2125SOL     OW 8497   3.804   2.046   3.509  0.1824 -0.8295 -0.3776
 2125SOL    HW2 8498   3.816   2.057   3.604  0.2493  0.2831 -0.5134
 2125SOL    HW3 8499   3.873   1.984   3.484  0.8964 -0.2353  0.1110
 2125SOL    MW4 8500   3.815   2.039   3.519  0.2854 -0.6043 -0.3311
 2126SOL     OW 8501   3.825   2.302   3.395  0.0354 -0.1312 -0.2710
 2126SOL    HW2 8502   3.884   2.365   3.435  2.4276 -0.6635 -2.7983
 2126SOL    HW3 8503   3.858   2.216   3.421  0.7734 -0.4470 -2.1360
 2126SOL    MW4 8504   3.837   2.299   3.403  0.4484 -0.2431 -0.8505
 2127SOL     OW 8505   3.556   2.395   3.478 -0.5441  0.2736 -0.1991
 2127SOL    HW2 8506   3.572   2.476   3.430 -0.1685 -0.3378 -1.1253
 2127SOL    HW3 8507   3.609   2.329   3.432 -2.7641 -1.0140 -1.0168
 2127SOL    MW4 8508   3.565   2.397   3.465 -0.7875  0.0231 -0.4292
 2128SOL     OW 8509   3.593   2.674   3.396 -0.2226 -0.3477 -0.1021
 2128SOL    HW2 8510   3.667   2.728   3.422 -0.2148 -0.7822  0.8024
 2128SOL    HW3 8511   3.598   2.670   3.300  0.1546  0.6934 -0.1277
 2128SOL    MW4 8512   3.603   2.680   3.387 -0.1718 -0.2677  0.0139
 2129SOL     OW 8513   3.813   2.823   3.489  0.1395 -0.1345  0.0721
 2129SOL    HW2 8514   3.805   2.828   3.584  0.6881 -1.3237  0.1959
 2129SOL    HW3 8515   3.817   2.914   3.460 -1.6722  0.2817  1.0273
 2129SOL    MW4 8516   3.812   2.835   3.498 -0.0272 -0.2365  0.2145
 2130SOL     OW 8517   3.810   3.102   3.404 -0.1876  0.0508  0.1728
 2130SOL    HW2 8518   3.898   3.135   3.421  0.1527 -0.4705 -0.5207
 2130SOL    HW3 8519   3.810   3.085   3.309 -0.6733 -0.9939  0.3577
 2130SOL    MW4 8520   3.822   3.105   3.393 -0.2067 -0.1558  0.1057
 2131SOL     OW 8521   3.579   3.212   3.478  0.0812  0.1301  0.0428
 2131SOL    HW2 8522   3.559   3.282   3.416 -0.3892  0.6938  0.8325
 2131SOL    HW3 8523   3.664   3.178   3.449 -0.2901  0.1688 -1.1092
 2131SOL    MW4 8524   3.588   3.216   3.466 -0.0298  0.2096 -0.0050
 2132SOL     OW 8525   3.603   3.478   3.352 -0.0461 -0.0282 -0.6990
 2132SOL    HW2 8526   3.532   3.507   3.409  0.1147  0.2784 -0.6561
 2132SOL    HW3 8527   3.577   3.507   3.265  0.6004  1.1457 -0.5104
 2132SOL    MW4 8528   3.590   3.486   3.348  0.0604  0.1671 -0.6685
 2133SOL     OW 8529   3.815   3.594   3.504 -0.7125 -0.4600 -0.2465
 2133SOL    HW2 8530   3.801   3.577   3.597 -1.5977  1.1334 -0.0819
 2133SOL    HW3 8531   3.739   3.556   3.461 -0.4099 -1.0056 -0.2993
 2133SOL    MW4 8532   3.803   3.587   3.511 -0.7894 -0.3217 -0.2318
 2134SOL     OW 8533   3.835   3.868   3.419  0.0713 -0.0341  0.1966
 2134SOL    HW2 8534   3.748   3.894   3.448 -0.3580  2.4896 -3.1067
 2134SOL    HW3 8535   3.847   3.780   3.456 -3.9125 -0.5092  0.5722
 2134SOL    MW4 8536   3.825   3.860   3.428 -0.5109  0.2362 -0.1896
 2135SOL     OW 8537   3.572   3.957   3.481 -0.1077 -0.1194  0.4994
 2135SOL    HW2 8538   3.558   3.982   3.572  1.5616 -2.9607  1.6018
 2135SOL    HW3 8539   3.581   4.040   3.434 -0.9399  1.3783  2.9200
 2135SOL    MW4 8540   3.572   3.971   3.487  0.0028 -0.2967  0.9642
 2136SOL     OW 8541   3.577   4.223   3.375 -0.0706 -0.0387 -0.2086
 2136SOL    HW2 8542   3.496   4.267   3.401 -0.5392 -0.7760 -0.4178
 2136SOL    HW3 8543   3.578   4.230   3.279  0.4045  0.4724 -0.1714
 2136SOL    MW4 8544   3.567   4.230   3.365 -0.0697 -0.0685 -0.2313
 2137SOL     OW 8545   3.804   4.370   3.484  0.0777  0.1083 -0.3343
 2137SOL    HW2 8546   3.732   4.321   3.444  1.0039 -2.1182  0.6319
 2137SOL    HW3 8547   3.801   4.456   3.442 -3.3068  0.1693 -0.1183
 2137SOL    MW4 8548   3.794   4.375   3.473 -0.2466 -0.1774 -0.1784
 2138SOL     OW 8549   4.276   4.605   3.373 -0.6297 -0.3821  0.3556
 2138SOL    HW2 8550   4.262   4.518   3.411  1.6249 -0.5232  0.9021
 2138SOL    HW3 8551   4.347   4.643   3.424 -0.1849  0.9609 -1.2093
 2138SOL    MW4 8552   4.284   4.598   3.385 -0.2736 -0.2235  0.2212
 2139SOL     OW 8553   4.063   0.071   3.483  0.0797 -0.1594  0.3093
 2139SOL    HW2 8554   4.140   0.027   3.446  0.0853  0.3186 -0.2635
 2139SOL    HW3 8555   3.988   0.023   3.449  0.0844  0.3008 -0.3519
 2139SOL    MW4 8556   4.064   0.059   3.474  0.0810 -0.0356  0.1465
 2140SOL     OW 8557   4.066   0.332   3.396  0.3003 -0.0197 -0.3361
 2140SOL    HW2 8558   4.066   0.238   3.413 -0.5623 -0.1424 -0.9669
 2140SOL    HW3 8559   4.077   0.339   3.301 -1.6515  0.4354 -0.5671
 2140SOL    MW4 8560   4.067   0.320   3.385 -0.0711  0.0242 -0.4498
 2141SOL     OW 8561   4.280   0.474   3.530 -0.0874  0.0936 -0.4352
 2141SOL    HW2 8562   4.254   0.563   3.504  1.1105  0.0996 -1.6597
 2141SOL    HW3 8563   4.209   0.419   3.500  0.0859  0.4139 -1.4464
 2141SOL    MW4 8564   4.267   0.479   3.523  0.0935  0.1367 -0.7302
 2142SOL     OW 8565   4.274   0.719   3.421 -0.2617 -0.1797  0.2146
 2142SOL    HW2 8566   4.349   0.772   3.450 -0.8546  0.6572  0.2405
 2142SOL    HW3 8567   4.284   0.715   3.326  0.1741 -0.6260  0.2747
 2142SOL    MW4 8568   4.286   0.726   3.412 -0.2824 -0.1282  0.2260
 2143SOL     OW 8569   4.037   0.918   3.492 -0.0037  0.2479  0.3478
 2143SOL    HW2 8570   4.037   1.007   3.455 -0.6433  0.3747  0.6488
 2143SOL    HW3 8571   4.113   0.876   3.452 -0.1372  0.6894 -0.3938
 2143SOL    MW4 8572   4.047   0.924   3.482 -0.1057  0.3229  0.2896
 2144SOL     OW 8573   4.021   1.178   3.403 -0.1220 -0.3433  0.4360
 2144SOL    HW2 8574   4.089   1.230   3.446 -0.6261  0.4727  0.2510
 2144SOL    HW3 8575   3.940   1.205   3.445 -0.6964  0.8975 -1.4114
 2144SOL    MW4 8576   4.019   1.188   3.414 -0.2643 -0.0719  0.1678
 2145SOL     OW 8577   4.277   1.269   3.517  0.3948 -0.0890 -0.4683
 2145SOL    HW2 8578   4.290   1.360   3.488  0.1957  0.2547  0.5071
 2145SOL    HW3 8579   4.333   1.218   3.459  2.0571  0.8629  0.2517
 2145SOL    MW4 8580   4.286   1.274   3.505  0.5878  0.0819 -0.2446
 2146SOL     OW 8581   4.299   1.545   3.449 -0.4865 -0.5195 -0.0273
 2146SOL    HW2 8582   4.207   1.568   3.464 -0.1446  0.1694  1.0772
 2146SOL    HW3 8583   4.312   1.560   3.355 -1.5829 -0.9469 -0.2622
 2146SOL    MW4 8584   4.289   1.550   3.438 -0.5860 -0.4850  0.0875
 2147SOL     OW 8585   4.055   1.637   3.522  0.0901  0.3268 -0.0309
 2147SOL    HW2 8586   4.060   1.636   3.617  1.4253  0.3302 -0.0993
 2147SOL    HW3 8587   4.050   1.730   3.499  0.4505  0.3526 -0.0009
 2147SOL    MW4 8588   4.055   1.650   3.531  0.3138  0.3307 -0.0359
 2148SOL     OW 8589   4.033   1.918   3.431  0.1869 -0.1886  0.4571
 2148SOL    HW2 8590   4.114   1.961   3.460 -0.9368  1.6483  0.9432
 2148SOL    HW3 8591   4.034   1.928   3.336  0.1654  0.5132  0.5267
 2148SOL    MW4 8592   4.044   1.925   3.422  0.0358  0.1463  0.5304
 2149SOL     OW 8593   4.275   2.045   3.483 -0.0623  0.3441  0.4855
 2149SOL    HW2 8594   4.272   2.131   3.442  0.8884  0.2998  0.3069
 2149SOL    HW3 8595   4.360   2.009   3.458 -0.6662 -0.8747  0.1133
 2149SOL    MW4 8596   4.286   2.051   3.475 -0.0166  0.1774  0.4128
 2150SOL     OW 8597   4.290   2.300   3.387  0.6048 -0.3381  0.0255
 2150SOL    HW2 8598   4.209   2.333   3.425  0.6630 -1.6004  1.3177
 2150SOL    HW3 8599   4.277   2.306   3.293 -1.0415 -0.6198  0.2159
 2150SOL    MW4 8600   4.277   2.305   3.380  0.3952 -0.5418  0.2211
 2151SOL     OW 8601   4.056   2.408   3.515 -0.0306  0.4899  0.3597
 2151SOL    HW2 8602   4.017   2.402   3.603 -0.6498 -1.3525 -0.0140
 2151SOL    HW3 8603   4.072   2.501   3.502 -1.3299  0.9373  1.8292
 2151SOL    MW4 8604   4.053   2.419   3.525 -0.2837  0.3059  0.5043
 2152SOL     OW 8605   4.032   2.682   3.409 -0.0889  0.0648  0.0592
 2152SOL    HW2 8606   4.109   2.736   3.430  0.0115 -0.0854  0.0805
 2152SOL    HW3 8607   3.959   2.729   3.449  0.0780 -0.1240  0.6015
 2152SOL    MW4 8608   4.033   2.696   3.417 -0.0537  0.0201  0.1336
 2153SOL     OW 8609   4.262   2.818   3.486  0.2773 -0.3045  0.1518
 2153SOL    HW2 8610   4.266   2.816   3.581  1.6604  0.8265  0.1413
 2153SOL    HW3 8611   4.346   2.781   3.457  0.1014 -0.1299 -0.6086
 2153SOL    MW4 8612   4.274   2.813   3.494  0.4366 -0.1323  0.0501
 2154SOL     OW 8613   4.255   3.091   3.409 -0.0094  0.1271  0.0576
 2154SOL    HW2 8614   4.253   2.999   3.435  0.2228  0.1417  0.1207
 2154SOL    HW3 8615   4.240   3.089   3.314 -0.4842  0.0540  0.1300
 2154SOL    MW4 8616   4.253   3.079   3.400 -0.0414  0.1194  0.0755
 2155SOL     OW 8617   4.056   3.246   3.520 -0.0330  0.2384 -0.8713
 2155SOL    HW2 8618   4.046   3.315   3.454  2.9934  0.6077 -1.0117
 2155SOL    HW3 8619   4.129   3.192   3.487  0.5227 -0.4537  1.4197
 2155SOL    MW4 8620   4.065   3.248   3.507  0.4396  0.1958 -0.5875
 2156SOL     OW 8621   4.047   3.483   3.376  0.1811  0.3535  0.1240
 2156SOL    HW2 8622   4.119   3.535   3.409 -0.0903 -0.0883  1.4446
 2156SOL    HW3 8623   3.969   3.518   3.420 -0.1596 -0.3898  0.1231
 2156SOL    MW4 8624   4.046   3.494   3.386  0.1004  0.1972  0.2981
 2157SOL     OW 8625   4.286   3.620   3.474  0.1885 -0.2454  0.5714
 2157SOL    HW2 8626   4.277   3.626   3.569  0.7812  1.0433  0.5514
 2157SOL    HW3 8627   4.302   3.710   3.445  2.0229 -0.8823 -0.5238
 2157SOL    MW4 8628   4.287   3.632   3.482  0.5087 -0.1594  0.4243
 2158SOL     OW 8629   4.312   3.891   3.404 -0.2853  0.2494  0.4580
 2158SOL    HW2 8630   4.391   3.922   3.449 -0.0776 -0.9348  0.9546
 2158SOL    HW3 8631   4.332   3.900   3.311  0.3086  0.2854  0.5846
 2158SOL    MW4 8632   4.325   3.896   3.398 -0.1795  0.0979  0.5402
 2159SOL     OW 8633   4.055   3.999   3.517 -0.0457  0.0878  0.8548
 2159SOL    HW2 8634   4.137   3.953   3.497  0.0494 -0.6219  2.7939
 2159SOL    HW3 8635   3.987   3.946   3.474  0.4293  0.3087 -0.1936
 2159SOL    MW4 8636   4.057   3.986   3.509  0.0295  0.0233  0.9723
 2160SOL     OW 8637   4.054   4.249   3.403 -0.3344 -0.7164  0.2443
 2160SOL    HW2 8638   4.061   4.158   3.433 -0.1718 -0.4870  0.8921
 2160SOL    HW3 8639   3.977   4.283   3.449 -0.5953 -0.6225 -0.2556
 2160SOL    MW4 8640   4.045   4.241   3.413 -0.3474 -0.6738  0.2638
 2161SOL     OW 8641   4.295   4.349   3.477 -0.0838 -0.0536  0.0209
 2161SOL    HW2 8642   4.297   4.351   3.572 -0.3012 -0.3760  0.0337
 2161SOL    HW3 8643   4.211   4.307   3.456  0.5781 -1.2451 -0.2962
 2161SOL    MW4 8644   4.284   4.344   3.486 -0.0252 -0.2533 -0.0193
 2162SOL     OW 8645   0.207   4.653   3.863 -0.1382  0.3107 -0.2574
 2162SOL    HW2 8646   0.205   4.652   3.958 -0.2962 -2.1871 -0.2536
 2162SOL    HW3 8647   0.126   4.698   3.837 -0.6879 -0.0970  0.7569
 2162SOL    MW4 8648   0.196   4.659   3.872 -0.2316 -0.0726 -0.1231
 2163SOL     OW 8649   4.460   0.110   3.771 -0.2431  0.0965  0.1085
 2163SOL    HW2 8650   4.469   0.200   3.803 -2.5834  0.3140  0.2860
 2163SOL    HW3 8651   4.448   0.120   3.677 -0.0689 -0.0660  0.0696
 2163SOL    MW4 8652   4.459   0.123   3.763 -0.5289  0.1037  0.1268
 2164SOL     OW 8653   0.005   0.359   3.867  0.1162 -0.3299  0.0898
 2164SOL    HW2 8654  -0.075   0.409   3.848 -0.1907 -1.1919 -0.8821
 2164SOL    HW3 8655   0.076   0.412   3.831  0.0800  0.8064  1.6060
 2164SOL    MW4 8656   0.004   0.373   3.860  0.0709 -0.2937  0.1616
 2165SOL     OW 8657   0.253   0.472   3.770 -0.1607  0.0865  0.0474
 2165SOL    HW2 8658   0.276   0.559   3.803 -1.7441  0.5113  0.0424
 2165SOL    HW3 8659   0.256   0.481   3.674  1.6270 -0.3968  0.0462
 2165SOL    MW4 8660   0.257   0.485   3.761 -0.1338  0.0788  0.0465
 2166SOL     OW 8661   0.269   0.730   3.857  0.0170  0.3780  0.5315
 2166SOL    HW2 8662   0.251   0.729   3.951  0.3695  2.1472  0.6259
 2166SOL    HW3 8663   0.192   0.771   3.818  0.5927  1.1813  0.2179
 2166SOL    MW4 8664   0.257   0.735   3.864  0.1394  0.7174  0.5026
 2167SOL     OW 8665   0.070   0.879   3.739 -0.1205 -0.2484 -0.0117
 2167SOL    HW2 8666  -0.015   0.851   3.773 -0.6834 -0.9252 -1.9334
 2167SOL    HW3 8667   0.072   0.973   3.755 -0.5476 -0.4775  1.4857
 2167SOL    MW4 8668   0.059   0.888   3.746 -0.2511 -0.3679 -0.0677
 2168SOL     OW 8669   0.011   1.133   3.894  0.3867  0.2628  0.3280
 2168SOL    HW2 8670  -0.070   1.168   3.856  0.6163 -0.3760 -0.7693
 2168SOL    HW3 8671   0.081   1.185   3.855  0.5328  0.5576  0.9808
 2168SOL    MW4 8672   0.009   1.145   3.884  0.4363  0.2174  0.2693
 2169SOL     OW 8673   0.211   1.278   3.739 -0.0430  0.3040  0.1580
 2169SOL    HW2 8674   0.212   1.370   3.766 -0.8363  0.7638 -1.3671
 2169SOL    HW3 8675   0.213   1.280   3.644  0.6496 -1.2862  0.1151
 2169SOL    MW4 8676   0.211   1.290   3.730 -0.0563  0.1548 -0.0489
 2170SOL     OW 8677   0.213   1.519   3.861 -0.4040 -0.0893  0.6720
 2170SOL    HW2 8678   0.224   1.526   3.956 -1.1191 -0.8481  0.8255
 2170SOL    HW3 8679   0.127   1.558   3.844 -0.3395 -0.0837  0.3584
 2170SOL    MW4 8680   0.203   1.525   3.871 -0.4899 -0.1887  0.6509
 2171SOL     OW 8681   4.465   1.629   3.780 -0.1423 -0.2194  0.0780
 2171SOL    HW2 8682   4.463   1.710   3.831 -0.1239 -0.5428  0.5965
 2171SOL    HW3 8683   4.501   1.655   3.695 -1.4680  0.5785 -0.2479
 2171SOL    MW4 8684   4.469   1.643   3.775 -0.3148 -0.1568  0.1034
 2172SOL     OW 8685   4.429   1.893   3.891 -0.2341  0.0784  0.3308
 2172SOL    HW2 8686   4.420   1.912   3.985 -1.0722  0.2539  0.2121
 2172SOL    HW3 8687   4.355   1.936   3.850  0.3478  0.3295 -0.4692
 2172SOL    MW4 8688   4.418   1.901   3.898 -0.2679  0.1347  0.2096
 2173SOL     OW 8689   0.166   1.990   3.748 -0.5021  0.1348 -0.0363
 2173SOL    HW2 8690   0.166   2.079   3.784 -1.9747  0.3355 -0.4846
 2173SOL    HW3 8691   0.091   1.948   3.789 -1.2183 -0.1543 -1.5932
 2173SOL    MW4 8692   0.156   1.996   3.758 -0.7909  0.1232 -0.3009
 2174SOL     OW 8693   0.234   2.257   3.826 -0.2070 -0.0470 -0.3717
 2174SOL    HW2 8694   0.239   2.264   3.922  1.1578  0.1744 -0.4474
 2174SOL    HW3 8695   0.162   2.315   3.802  1.5854  2.5686  0.2692
 2174SOL    MW4 8696   0.225   2.266   3.836  0.2096  0.3273 -0.2971
 2175SOL     OW 8697   4.489   2.416   3.773  0.1032 -0.1660 -0.1662
 2175SOL    HW2 8698   4.400   2.394   3.800  0.0462  0.9159  0.5537
 2175SOL    HW3 8699   4.498   2.509   3.794  0.4054  0.4676 -2.8863
 2175SOL    MW4 8700   4.479   2.426   3.779  0.1355  0.0604 -0.4301
 2176SOL     OW 8701   4.465   2.667   3.893 -0.0306  0.1039 -0.2530
 2176SOL    HW2 8702   4.463   2.688   3.986  2.1553 -1.6794  0.2351
 2176SOL    HW3 8703   4.541   2.715   3.859 -0.5261  0.3533 -1.0293
 2176SOL    MW4 8704   4.475   2.676   3.901  0.1925 -0.0985 -0.2910
 2177SOL     OW 8705   0.182   2.806   3.802  0.1314 -0.0389 -0.1192
 2177SOL    HW2 8706   0.257   2.773   3.852  1.0986 -0.6380 -1.9258
 2177SOL    HW3 8707   0.211   2.805   3.711 -2.7762 -2.3471 -1.1339
 2177SOL    MW4 8708   0.196   2.801   3.797 -0.1246 -0.4225 -0.4914
 2178SOL     OW 8709   0.170   3.075   3.876  0.1313  0.2080 -0.1941
 2178SOL    HW2 8710   0.193   3.072   3.969  1.7389 -1.2184 -0.6123
 2178SOL    HW3 8711   0.160   2.983   3.850 -1.0358  0.6167 -1.2682
 2178SOL    MW4 8712   0.172   3.062   3.885  0.1894  0.0738 -0.3910
 2179SOL     OW 8713   4.443   3.181   3.741 -0.3271 -0.5321 -0.2600
 2179SOL    HW2 8714   4.520   3.141   3.781  0.5798  1.1457 -0.2852
 2179SOL    HW3 8715   4.452   3.164   3.648  0.4255  0.3642 -0.3474
 2179SOL    MW4 8716   4.454   3.173   3.734 -0.1081 -0.1925 -0.2749
 2180SOL     OW 8717   4.413   3.483   3.895  0.0331 -0.4311  0.5398
 2180SOL    HW2 8718   4.497   3.520   3.866 -0.0928  0.0585  0.7853
 2180SOL    HW3 8719   4.409   3.397   3.853  1.1385 -0.8926  1.3512
 2180SOL    MW4 8720   4.424   3.476   3.886  0.1623 -0.4274  0.6792
 2181SOL     OW 8721   0.166   3.622   3.831 -0.5515  0.0160  0.2408
 2181SOL    HW2 8722   0.248   3.578   3.855 -0.4635  0.2319  0.3349
 2181SOL    HW3 8723   0.177   3.712   3.862 -0.7082  0.1197 -0.0024
 2181SOL    MW4 8724   0.178   3.628   3.838 -0.5605  0.0581  0.2211
 2182SOL     OW 8725   0.227   3.870   3.934 -0.0538 -0.2839  0.1018
 2182SOL    HW2 8726   0.250   3.882   4.026  0.6241 -0.4907 -0.0390
 2182SOL    HW3 8727   0.303   3.902   3.885 -0.1804 -0.6950 -0.3723
 2182SOL    MW4 8728   0.240   3.875   3.939  0.0189 -0.3654  0.0207
 2183SOL     OW 8729   0.019   4.020   3.814 -0.2333  0.7441  0.0549
 2183SOL    HW2 8730  -0.066   3.983   3.838 -0.1472  0.3153 -0.3070
 2183SOL    HW3 8731   0.082   3.972   3.868 -0.2655  1.3966  0.6780
 2183SOL    MW4 8732   0.016   4.009   3.824 -0.2262  0.7736  0.0893
 2184SOL     OW 8733   0.030   4.285   3.903  0.0931 -0.4821  0.7145
 2184SOL    HW2 8734   0.102   4.335   3.866 -0.2726 -0.4160  0.0852
 2184SOL    HW3 8735   0.040   4.197   3.867 -0.2048 -0.4433  0.5365
 2184SOL    MW4 8736   0.041   4.280   3.894  0.0056 -0.4683  0.6080
 2185SOL     OW 8737   0.245   4.399   3.771  0.4135 -1.0282  0.0496
 2185SOL    HW2 8738   0.311   4.368   3.833  2.1968  0.8421 -0.8873
 2185SOL    HW3 8739   0.226   4.488   3.799 -1.0563 -1.2347 -0.2484
 2185SOL    MW4 8740   0.251   4.407   3.783  0.4548 -0.8087 -0.1133
 2186SOL     OW 8741   0.703   4.641   3.860 -0.0154 -0.2992  0.0138
 2186SOL    HW2 8742   0.696   4.547   3.848  1.0204 -0.5697  1.4465
 2186SOL    HW3 8743   0.619   4.675   3.829 -0.7812 -1.7867  0.3994
 2186SOL    MW4 8744   0.691   4.633   3.855  0.0202 -0.5311  0.2537
 2187SOL     OW 8745   0.477   0.097   3.781 -0.0553 -0.2293 -0.4354
 2187SOL    HW2 8746   0.474   0.179   3.830  0.1546 -0.9602  0.8061
 2187SOL    HW3 8747   0.404   0.046   3.815 -0.1795 -0.5720 -1.2031
 2187SOL    MW4 8748   0.467   0.101   3.792 -0.0440 -0.3710 -0.3729
 2188SOL     OW 8749   0.471   0.353   3.904 -0.3303 -0.5201  0.5494
 2188SOL    HW2 8750   0.544   0.399   3.863 -0.9153  0.5564  0.6671
 2188SOL    HW3 8751   0.394   0.406   3.880 -0.9830 -1.2900  0.9300
 2188SOL    MW4 8752   0.470   0.366   3.895 -0.4936 -0.4796  0.6152
 2189SOL     OW 8753   0.682   0.499   3.795 -0.2287  0.3138  0.4611
 2189SOL    HW2 8754   0.766   0.465   3.826 -0.0413  0.1761 -0.1739
 2189SOL    HW3 8755   0.679   0.589   3.828  0.5727  0.6071 -0.2344
 2189SOL    MW4 8756   0.693   0.507   3.803 -0.0982  0.3343  0.2855
 2190SOL     OW 8757   0.714   0.759   3.887  0.0480  0.1528  0.2084
 2190SOL    HW2 8758   0.780   0.809   3.839 -0.7393  0.2379 -0.8062
 2190SOL    HW3 8759   0.631   0.792   3.854 -0.4795 -2.1216 -0.8049
 2190SOL    MW4 8760   0.712   0.770   3.876 -0.1255 -0.1360 -0.0591
 2191SOL     OW 8761   0.496   0.882   3.771  0.0626 -0.1389  0.4920
 2191SOL    HW2 8762   0.491   0.978   3.766 -0.2045 -0.1910 -0.2379
 2191SOL    HW3 8763   0.412   0.856   3.808  0.2631 -0.0674  0.9966
 2191SOL    MW4 8764   0.485   0.892   3.775  0.0538 -0.1364  0.4623
 2192SOL     OW 8765   0.442   1.158   3.830  0.0291  0.1044  0.0849
 2192SOL    HW2 8766   0.509   1.225   3.819  0.3129 -0.0482  0.8987
 2192SOL    HW3 8767   0.362   1.199   3.797  0.1301  0.9712  0.8884
 2192SOL    MW4 8768   0.440   1.172   3.824  0.0799  0.1986  0.2983
 2193SOL     OW 8769   0.637   1.356   3.779  0.5177 -0.2528 -0.6930
 2193SOL    HW2 8770   0.709   1.313   3.825  0.2465  0.5536  0.5149
 2193SOL    HW3 8771   0.658   1.345   3.686  0.8242 -2.3166 -0.3969
 2193SOL    MW4 8772   0.649   1.349   3.773  0.5224 -0.4187 -0.4945
 2194SOL     OW 8773   0.648   1.582   3.925 -0.3824  0.5307  0.0129
 2194SOL    HW2 8774   0.723   1.630   3.890 -0.7393  1.2218  0.1764
 2194SOL    HW3 8775   0.639   1.506   3.868  0.6103  0.2880  0.1574
 2194SOL    MW4 8776   0.657   1.578   3.913 -0.2985  0.5899  0.0535
 2195SOL     OW 8777   0.435   1.683   3.759 -0.2361  0.4857  0.1465
 2195SOL    HW2 8778   0.507   1.665   3.820 -1.8932  1.8577  2.6092
 2195SOL    HW3 8779   0.366   1.622   3.785 -0.7919  0.7779 -0.6457
 2195SOL    MW4 8780   0.436   1.673   3.771 -0.5281  0.7053  0.3669
 2196SOL     OW 8781   0.430   1.932   3.886  0.4720 -0.8538  0.2412
 2196SOL    HW2 8782   0.442   1.843   3.855  0.6931 -0.5080 -0.6782
 2196SOL    HW3 8783   0.357   1.966   3.835 -0.0731 -0.7344  1.0826
 2196SOL    MW4 8784   0.422   1.925   3.876  0.4292 -0.7925  0.2309
 2197SOL     OW 8785   0.666   2.086   3.805 -0.3406  0.0078 -0.1917
 2197SOL    HW2 8786   0.641   2.166   3.852 -0.0573 -0.4120  0.6812
 2197SOL    HW3 8787   0.594   2.025   3.821 -0.4812  0.0346 -0.7222
 2197SOL    MW4 8788   0.653   2.089   3.814 -0.3218 -0.0441 -0.1466
 2198SOL     OW 8789   0.642   2.353   3.938 -0.0246 -0.2184 -0.0720
 2198SOL    HW2 8790   0.717   2.376   3.883  0.0715 -1.8043 -0.6171
 2198SOL    HW3 8791   0.566   2.386   3.889  0.1275 -0.8551 -0.7410
 2198SOL    MW4 8792   0.642   2.361   3.924  0.0082 -0.5116 -0.2322
 2199SOL     OW 8793   0.395   2.477   3.801 -0.3122 -0.2104 -0.2259
 2199SOL    HW2 8794   0.346   2.397   3.819 -0.6132 -0.1491 -0.7674
 2199SOL    HW3 8795   0.409   2.476   3.707 -1.2289  0.8957 -0.3791
 2199SOL    MW4 8796   0.390   2.466   3.791 -0.4729 -0.0564 -0.3176
 2200SOL     OW 8797   0.414   2.719   3.915  0.1675 -0.3964  0.2911
 2200SOL    HW2 8798   0.483   2.771   3.874 -2.0349  1.6818 -0.9064
 2200SOL    HW3 8799   0.425   2.631   3.879  0.6968  0.4853 -1.7149
 2200SOL    MW4 8800   0.425   2.714   3.905 -0.0532 -0.0058 -0.1316
 2201SOL     OW 8801   0.652   2.825   3.794  0.1841  0.0985  0.0436
 2201SOL    HW2 8802   0.733   2.791   3.831 -0.0166  1.3584  1.6919
 2201SOL    HW3 8803   0.670   2.835   3.701  1.7202 -0.2045  0.2973
 2201SOL    MW4 8804   0.665   2.822   3.787  0.3603  0.2247  0.2946
 2202SOL     OW 8805   0.615   3.096   3.840 -0.1750 -0.0708 -0.2104
 2202SOL    HW2 8806   0.641   3.101   3.932  0.2987 -0.6909 -0.3042
 2202SOL    HW3 8807   0.617   3.003   3.820 -3.0386 -0.1853 -0.0814
 2202SOL    MW4 8808   0.619   3.084   3.849 -0.4903 -0.1677 -0.2057
 2203SOL     OW 8809   0.389   3.255   3.813  0.1882  0.2423 -0.0022
 2203SOL    HW2 8810   0.459   3.199   3.845  0.0350  1.1299  1.9945
 2203SOL    HW3 8811   0.308   3.209   3.839  0.0564  0.6314  0.2835
 2203SOL    MW4 8812   0.387   3.241   3.821  0.1506  0.4107  0.2989
 2204SOL     OW 8813   0.427   3.523   3.896  0.4242  0.0199  0.1643
 2204SOL    HW2 8814   0.501   3.560   3.848  1.1913 -0.4240  1.0015
 2204SOL    HW3 8815   0.416   3.435   3.860  0.0860  0.2009 -0.1860
 2204SOL    MW4 8816   0.435   3.517   3.885  0.4808 -0.0148  0.2285
 2205SOL     OW 8817   0.638   3.623   3.768 -0.1730  0.3174  0.0398
 2205SOL    HW2 8818   0.659   3.708   3.806  0.9912  0.1925 -0.2909
 2205SOL    HW3 8819   0.647   3.637   3.674  0.3262 -0.2374  0.0004
 2205SOL    MW4 8820   0.642   3.636   3.761  0.0465  0.2278 -0.0090
 2206SOL     OW 8821   0.697   3.859   3.889  0.1687  0.1819  0.5480
 2206SOL    HW2 8822   0.702   3.873   3.983 -0.0151  0.3071  0.5417
 2206SOL    HW3 8823   0.760   3.921   3.852  1.6330 -1.2065  0.6906
 2206SOL    MW4 8824   0.706   3.869   3.896  0.3376  0.0152  0.5660
 2207SOL     OW 8825   0.448   4.013   3.817 -0.1722 -0.3414  0.3357
 2207SOL    HW2 8826   0.535   3.980   3.840  0.2216  0.8026  0.5013
 2207SOL    HW3 8827   0.450   4.020   3.721  0.1314  0.2789  0.3878
 2207SOL    MW4 8828   0.460   4.009   3.807 -0.0802 -0.1086  0.3644
 2208SOL     OW 8829   0.434   4.267   3.933 -0.0430 -0.1606 -0.2134
 2208SOL    HW2 8830   0.512   4.311   3.898 -0.8955  0.1763 -1.7314
 2208SOL    HW3 8831   0.441   4.177   3.901 -0.3340 -0.1045 -0.4263
 2208SOL    MW4 8832   0.446   4.261   3.924 -0.1939 -0.1087 -0.4417
 2209SOL     OW 8833   0.683   4.375   3.818  0.4639  0.4784 -0.7628
 2209SOL    HW2 8834   0.767   4.338   3.845 -0.6130 -0.8831  0.7854
 2209SOL    HW3 8835   0.681   4.362   3.723  1.1580 -1.3247 -0.5588
 2209SOL    MW4 8836   0.694   4.368   3.809  0.4134  0.0609 -0.5316
 2210SOL     OW 8837   1.140   4.643   3.879  0.5435 -0.2538  0.0034
 2210SOL    HW2 8838   1.213   4.697   3.848 -1.0857  1.0710 -1.6193
 2210SOL    HW3 8839   1.144   4.565   3.824 -0.1337  0.4629 -1.0651
 2210SOL    MW4 8840   1.150   4.640   3.868  0.2392  0.0156 -0.3517
 2211SOL     OW 8841   0.930   0.146   3.829 -0.3595 -0.0208  0.0616
 2211SOL    HW2 8842   1.008   0.092   3.839  0.7387  1.6607  0.8157
 2211SOL    HW3 8843   0.857   0.085   3.835  0.8690 -1.4837  0.3107
 2211SOL    MW4 8844   0.931   0.131   3.831 -0.0526  0.0080  0.1940
 2212SOL     OW 8845   0.912   0.404   3.894  0.0868  0.4052 -0.0305
 2212SOL    HW2 8846   0.893   0.395   3.987 -0.2236 -0.1157 -0.1392
 2212SOL    HW3 8847   0.906   0.315   3.860 -2.8000  0.9477 -1.1003
 2212SOL    MW4 8848   0.909   0.391   3.902 -0.3350  0.4081 -0.1860
 2213SOL     OW 8849   1.126   0.535   3.785  0.8814 -0.1896  1.0335
 2213SOL    HW2 8850   1.210   0.493   3.798  1.5461  1.4683  2.2021
 2213SOL    HW3 8851   1.065   0.484   3.838  1.2087 -1.1272  0.5245
 2213SOL    MW4 8852   1.129   0.523   3.794  1.0123 -0.0946  1.1205
 2214SOL     OW 8853   1.135   0.801   3.852 -0.1334 -0.3230  0.2222
 2214SOL    HW2 8854   1.131   0.804   3.947  2.6563 -0.4749  0.3866
 2214SOL    HW3 8855   1.136   0.708   3.830  0.6939 -0.3032  0.1477
 2214SOL    MW4 8856   1.135   0.789   3.861  0.3438 -0.3404  0.2341
 2215SOL     OW 8857   0.900   0.932   3.757 -0.4599  0.2754 -0.4080
 2215SOL    HW2 8858   0.989   0.900   3.769 -0.5902 -0.2869 -0.9147
 2215SOL    HW3 8859   0.877   0.907   3.668 -0.9806  0.7727 -0.4186
 2215SOL    MW4 8860   0.909   0.924   3.747 -0.5458  0.2668 -0.4762
 2216SOL     OW 8861   0.862   1.193   3.864  0.1758 -0.0313  0.5630
 2216SOL    HW2 8862   0.879   1.163   3.953  1.1735  0.7746  0.6530
 2216SOL    HW3 8863   0.866   1.113   3.811  1.4760 -0.2597  0.9843
 2216SOL    MW4 8864   0.865   1.178   3.868  0.4790  0.0449  0.6305
 2217SOL     OW 8865   1.107   1.288   3.761 -0.0461  0.2950 -0.4822
 2217SOL    HW2 8866   1.129   1.373   3.800 -1.1322 -0.4072  1.7209
 2217SOL    HW3 8867   1.019   1.269   3.793 -0.6087 -0.7438 -2.5822
 2217SOL    MW4 8868   1.098   1.297   3.770 -0.2636  0.0653 -0.4686
 2218SOL     OW 8869   1.120   1.562   3.870  0.0336  0.0402  0.4507
 2218SOL    HW2 8870   1.132   1.545   3.963  0.4621  0.1753  0.4196
 2218SOL    HW3 8871   1.184   1.630   3.849  0.1030 -0.1574  0.0083
 2218SOL    MW4 8872   1.130   1.569   3.879  0.0993  0.0319  0.3883
 2219SOL     OW 8873   0.879   1.689   3.812 -0.1035 -0.3897 -0.3819
 2219SOL    HW2 8874   0.962   1.642   3.823 -0.8292 -1.5720  0.0664
 2219SOL    HW3 8875   0.855   1.674   3.720 -0.2275 -0.7250 -0.2956
 2219SOL    MW4 8876   0.887   1.681   3.801 -0.2156 -0.5899 -0.3114
 2220SOL     OW 8877   0.918   1.977   3.875 -0.2968 -0.3147  0.1184
 2220SOL    HW2 8878   0.899   1.888   3.843 -0.0665 -0.2094 -0.3129
 2220SOL    HW3 8879   0.836   2.024   3.860 -0.2286 -0.2972 -0.2119
 2220SOL    MW4 8880   0.905   1.971   3.869 -0.2574 -0.2985  0.0179
 2221SOL     OW 8881   1.160   2.089   3.771 -0.0485  0.2161  0.0308
 2221SOL    HW2 8882   1.083   2.048   3.809  0.1882  0.2387  0.5312
 2221SOL    HW3 8883   1.160   2.059   3.680 -0.5052  0.0153  0.0937
 2221SOL    MW4 8884   1.150   2.080   3.764 -0.0775  0.1926  0.1051
 2222SOL     OW 8885   1.099   2.353   3.843 -0.8836  0.2318  0.0083
 2222SOL    HW2 8886   1.105   2.348   3.938  1.4094  0.1552 -0.1060
 2222SOL    HW3 8887   1.116   2.263   3.813  0.9823  0.7531 -0.5543
 2222SOL    MW4 8888   1.102   2.340   3.851 -0.3349  0.2905 -0.0810
 2223SOL     OW 8889   0.847   2.441   3.782  0.2140  0.1989 -0.7317
 2223SOL    HW2 8890   0.846   2.533   3.811 -1.0047 -0.0385  0.0333
 2223SOL    HW3 8891   0.934   2.410   3.804  0.2546  0.8523  0.0654
 2223SOL    MW4 8892   0.858   2.449   3.789  0.0585  0.2538 -0.5256
 2224SOL     OW 8893   0.892   2.703   3.881  0.0927 -0.1111  0.0133
 2224SOL    HW2 8894   0.909   2.692   3.975 -0.9396  1.4702  0.4106
 2224SOL    HW3 8895   0.970   2.747   3.848  0.4283 -0.6074  0.1326
 2224SOL    MW4 8896   0.905   2.707   3.889  0.0008  0.0320  0.0815
 2225SOL     OW 8897   1.135   2.814   3.794 -0.1499  0.2147 -0.7155
 2225SOL    HW2 8898   1.216   2.780   3.832 -0.9734 -0.1682  0.7555
 2225SOL    HW3 8899   1.122   2.899   3.836 -0.3862  0.3761 -1.1129
 2225SOL    MW4 8900   1.144   2.821   3.805 -0.2897  0.1855 -0.5738
 2226SOL     OW 8901   1.085   3.072   3.911 -0.1382  0.7611  0.1605
 2226SOL    HW2 8902   1.154   3.112   3.857 -0.2163 -1.4827 -1.6619
 2226SOL    HW3 8903   1.003   3.105   3.875 -0.1269  0.7976  0.1681
 2226SOL    MW4 8904   1.084   3.082   3.899 -0.1470  0.4699 -0.0790
 2227SOL     OW 8905   0.855   3.172   3.757 -0.0261 -0.3673 -0.0757
 2227SOL    HW2 8906   0.766   3.137   3.761  0.3433 -1.2446  0.5379
 2227SOL    HW3 8907   0.876   3.172   3.663 -0.3359 -1.0020 -0.1474
 2227SOL    MW4 8908   0.846   3.168   3.745 -0.0182 -0.5668 -0.0042
 2228SOL     OW 8909   0.850   3.452   3.803 -0.5462  0.1979  0.1271
 2228SOL    HW2 8910   0.835   3.358   3.798 -0.7282  0.3148 -1.6400
 2228SOL    HW3 8911   0.770   3.491   3.766 -0.6609  1.0590  1.2488
 2228SOL    MW4 8912   0.837   3.445   3.798 -0.5853  0.3269  0.0420
 2229SOL     OW 8913   1.090   3.565   3.729  0.1043 -0.2535  0.3550
 2229SOL    HW2 8914   1.098   3.644   3.783  0.5017 -1.4937  2.1261
 2229SOL    HW3 8915   1.014   3.519   3.764  0.1859 -0.9286 -0.3376
 2229SOL    MW4 8916   1.081   3.569   3.741  0.1675 -0.5062  0.4973
 2230SOL     OW 8917   1.090   3.819   3.878  0.1652  0.2743 -0.5093
 2230SOL    HW2 8918   1.087   3.822   3.973 -2.0316 -1.2401 -0.5184
 2230SOL    HW3 8919   1.169   3.869   3.856  0.0467  1.6824  2.0288
 2230SOL    MW4 8920   1.100   3.826   3.887 -0.1403  0.2603 -0.1756
 2231SOL     OW 8921   0.898   3.996   3.794 -1.0482  0.3500  0.3879
 2231SOL    HW2 8922   0.962   3.929   3.815 -1.3439  0.6940  2.4637
 2231SOL    HW3 8923   0.906   4.008   3.699  2.3362  0.7553  0.6522
 2231SOL    MW4 8924   0.908   3.989   3.784 -0.6407  0.4489  0.6966
 2232SOL     OW 8925   0.931   4.278   3.903  0.2721 -0.8343  0.5708
 2232SOL    HW2 8926   0.930   4.280   3.999 -1.0680 -0.2973  0.5596
 2232SOL    HW3 8927   0.926   4.185   3.881  0.9831 -0.9784  1.0259
 2232SOL    MW4 8928   0.930   4.266   3.913  0.1891 -0.7825  0.6293
 2233SOL     OW 8929   1.167   4.369   3.786  0.5100 -0.2216 -0.3852
 2233SOL    HW2 8930   1.085   4.334   3.821  0.2248  1.2103  0.3747
 2233SOL    HW3 8931   1.160   4.354   3.691 -0.5543 -0.2424 -0.3131
 2233SOL    MW4 8932   1.155   4.362   3.778  0.3320 -0.0354 -0.2754
 2234SOL     OW 8933   1.548   4.641   3.923 -0.3801 -0.0364  0.0264
 2234SOL    HW2 8934   1.545   4.641   4.019 -1.1871 -0.7732 -0.0063
 2234SOL    HW3 8935   1.546   4.549   3.898 -0.4114  0.1601 -0.7125
 2234SOL    MW4 8936   1.548   4.629   3.932 -0.4907 -0.1077 -0.0754
 2235SOL     OW 8937   1.346   0.105   3.789  0.0539 -0.3478  0.5130
 2235SOL    HW2 8938   1.343   0.199   3.806 -1.3078 -0.4233  0.8226
 2235SOL    HW3 8939   1.424   0.074   3.835 -0.5350  0.3402  2.0379
 2235SOL    MW4 8940   1.356   0.113   3.798 -0.2035 -0.2670  0.7551
 2236SOL     OW 8941   1.350   0.376   3.856  0.2014  0.6792  0.6646
 2236SOL    HW2 8942   1.343   0.394   3.950  1.5771  0.9182  0.7285
 2236SOL    HW3 8943   1.429   0.422   3.828  0.1969  0.0237 -0.4730
 2236SOL    MW4 8944   1.359   0.385   3.865  0.3823  0.6242  0.5229
 2237SOL     OW 8945   1.607   0.499   3.785 -0.2800 -0.1366  0.4887
 2237SOL    HW2 8946   1.682   0.454   3.824  1.7518  0.3622 -2.6201
 2237SOL    HW3 8947   1.611   0.588   3.819  0.1156 -0.2953  0.8561
 2237SOL    MW4 8948   1.617   0.504   3.794  0.0403 -0.0917  0.1270
 2238SOL     OW 8949   1.592   0.766   3.850  0.0138  0.1133  0.1924
 2238SOL    HW2 8950   1.666   0.816   3.815 -0.9895  0.7806 -1.0468
 2238SOL    HW3 8951   1.515   0.818   3.827 -0.9346 -1.1571  0.4044
 2238SOL    MW4 8952   1.591   0.780   3.842 -0.2437  0.0337  0.0569
 2239SOL     OW 8953   1.368   0.908   3.771  0.0524 -0.2531 -0.8130
 2239SOL    HW2 8954   1.358   0.997   3.805  0.2232 -0.1748 -0.9655
 2239SOL    HW3 8955   1.281   0.869   3.779 -0.7342  0.8613 -3.3859
 2239SOL    MW4 8956   1.355   0.915   3.776 -0.0288 -0.0957 -1.1726
 2240SOL     OW 8957   1.326   1.148   3.868  0.1811  0.0015 -0.5037
 2240SOL    HW2 8958   1.398   1.208   3.850  0.7234 -0.4864 -0.0019
 2240SOL    HW3 8959   1.255   1.179   3.813  0.1903  1.5857  0.3338
 2240SOL    MW4 8960   1.326   1.160   3.858  0.2539  0.1462 -0.3270
 2241SOL     OW 8961   1.558   1.309   3.800  0.8702  0.1610  0.4104
 2241SOL    HW2 8962   1.640   1.263   3.821  1.4583  0.5459 -0.9871
 2241SOL    HW3 8963   1.562   1.390   3.850  1.6122  0.4387 -0.0937
 2241SOL    MW4 8964   1.570   1.313   3.809  1.0457  0.2484  0.1595
 2242SOL     OW 8965   1.561   1.541   3.936 -0.2706  0.0502 -0.4497
 2242SOL    HW2 8966   1.576   1.541   4.031  0.2040  2.4348 -0.5062
 2242SOL    HW3 8967   1.647   1.556   3.898 -0.5291 -0.4773 -1.2547
 2242SOL    MW4 8968   1.574   1.543   3.944 -0.2421  0.2952 -0.5634
 2243SOL     OW 8969   1.352   1.698   3.790 -0.0122  0.3902  0.3088
 2243SOL    HW2 8970   1.351   1.781   3.837  0.4558  0.3259  0.4277
 2243SOL    HW3 8971   1.428   1.651   3.824  0.1121  0.1860 -0.2403
 2243SOL    MW4 8972   1.362   1.702   3.800  0.0660  0.3548  0.2520
 2244SOL     OW 8973   1.368   1.949   3.881 -0.1473 -0.5914  0.3735
 2244SOL    HW2 8974   1.348   1.950   3.975  1.2716 -0.4221  0.6877
 2244SOL    HW3 8975   1.310   2.015   3.844 -0.4386 -0.3741  1.1936
 2244SOL    MW4 8976   1.358   1.958   3.889  0.0015 -0.5404  0.5232
 2245SOL     OW 8977   1.611   1.996   3.753 -0.1436  0.6353 -0.0366
 2245SOL    HW2 8978   1.541   1.952   3.800 -0.4563  0.8224 -0.3252
 2245SOL    HW3 8979   1.584   1.993   3.661  0.6211 -0.0257 -0.2405
 2245SOL    MW4 8980   1.598   1.990   3.747 -0.0839  0.5728 -0.1016
 2246SOL     OW 8981   1.558   2.272   3.842 -0.2230  0.6001 -0.2759
 2246SOL    HW2 8982   1.637   2.321   3.818 -0.2570  1.4252  1.1790
 2246SOL    HW3 8983   1.580   2.181   3.825  0.8481  0.8808 -0.4356
 2246SOL    MW4 8984   1.571   2.267   3.837 -0.0862  0.7460 -0.1050
 2247SOL     OW 8985   1.335   2.462   3.762  0.0541  0.1713 -0.1894
 2247SOL    HW2 8986   1.408   2.405   3.787 -0.3241  0.1748  0.9719
 2247SOL    HW3 8987   1.257   2.411   3.781 -0.2482  0.1148 -1.5669
 2247SOL    MW4 8988   1.335   2.448   3.768 -0.0357  0.1643 -0.2179
 2248SOL     OW 8989   1.380   2.715   3.890  0.1873  0.3780 -0.3686
 2248SOL    HW2 8990   1.368   2.698   3.984  0.4980  1.0202 -0.2023
 2248SOL    HW3 8991   1.370   2.630   3.848  1.0819 -0.0964  0.3640
 2248SOL    MW4 8992   1.377   2.702   3.897  0.3463  0.4002 -0.2500
 2249SOL     OW 8993   1.608   2.824   3.781 -0.5697  0.1270 -0.0015
 2249SOL    HW2 8994   1.540   2.776   3.829 -0.9699 -0.3139 -1.0007
 2249SOL    HW3 8995   1.572   2.835   3.693  0.6046 -0.0215 -0.5049
 2249SOL    MW4 8996   1.594   2.819   3.776 -0.4676  0.0493 -0.1997
 2250SOL     OW 8997   1.584   3.086   3.874  0.1253 -0.3829  0.0704
 2250SOL    HW2 8998   1.622   3.105   3.961  1.3504  1.0278 -0.7397
 2250SOL    HW3 8999   1.586   2.991   3.867  1.6188 -0.4307  0.9089
 2250SOL    MW4 9000   1.589   3.076   3.885  0.4840 -0.2031  0.0742
 2251SOL     OW 9001   1.326   3.176   3.812  0.0451  0.2007  0.3611
 2251SOL    HW2 9002   1.323   3.270   3.827  0.5119  0.1718  0.6518
 2251SOL    HW3 9003   1.415   3.150   3.837 -0.4754 -0.5282  1.5174
 2251SOL    MW4 9004   1.337   3.185   3.817  0.0380  0.1007  0.5520
 2252SOL     OW 9005   1.323   3.440   3.844  0.1335  0.0155  0.7994
 2252SOL    HW2 9006   1.401   3.490   3.821 -0.0094 -0.1627 -0.0956
 2252SOL    HW3 9007   1.256   3.470   3.782 -0.3630 -0.2111  1.2178
 2252SOL    MW4 9008   1.324   3.451   3.833  0.0491 -0.0379  0.7365
 2253SOL     OW 9009   1.559   3.599   3.785  0.3384 -0.2601 -0.5593
 2253SOL    HW2 9010   1.637   3.573   3.836 -1.6804 -0.1099  2.7708
 2253SOL    HW3 9011   1.546   3.691   3.807 -1.6940 -0.7103  0.2345
 2253SOL    MW4 9012   1.568   3.608   3.795 -0.1961 -0.2997 -0.0152
 2254SOL     OW 9013   1.549   3.861   3.886  0.1437 -0.3817  0.0599
 2254SOL    HW2 9014   1.536   3.836   3.977  1.9283  1.1039  0.7580
 2254SOL    HW3 9015   1.470   3.912   3.864 -0.3557 -0.8597  0.7259
 2254SOL    MW4 9016   1.537   3.865   3.895  0.3133 -0.2488  0.2399
 2255SOL     OW 9017   1.309   3.950   3.791 -0.0613 -0.1842  0.0170
 2255SOL    HW2 9018   1.288   4.038   3.821  2.9995  0.0692  1.5824
 2255SOL    HW3 9019   1.335   3.961   3.700  0.6661  0.5953  0.3183
 2255SOL    MW4 9020   1.309   3.963   3.783  0.4385 -0.0479  0.2633
 2256SOL     OW 9021   1.313   4.202   3.930 -0.1086 -0.3949  0.4516
 2256SOL    HW2 9022   1.400   4.236   3.910 -0.0222 -0.3049  0.9531
 2256SOL    HW3 9023   1.252   4.266   3.894  0.0194 -0.9613 -0.7756
 2256SOL    MW4 9024   1.316   4.215   3.923 -0.0803 -0.4578  0.3558
 2257SOL     OW 9025   1.542   4.333   3.870 -0.1431 -0.3661  0.1314
 2257SOL    HW2 9026   1.628   4.294   3.885  0.0960  0.6807  1.5567
 2257SOL    HW3 9027   1.543   4.359   3.778  1.4615  0.5961  0.4176
 2257SOL    MW4 9028   1.553   4.331   3.859  0.1002 -0.1010  0.3572
 2258SOL     OW 9029   2.003   4.639   3.864  0.4116 -0.5152  0.1855
 2258SOL    HW2 9030   2.075   4.690   3.827  0.7404  0.4218  2.0324
 2258SOL    HW3 9031   1.999   4.561   3.810  1.5832  0.2904 -1.1156
 2258SOL    MW4 9032   2.012   4.636   3.852  0.6096 -0.2853  0.2575
 2259SOL     OW 9033   1.754   0.080   3.760 -0.7291 -0.2184 -0.2344
 2259SOL    HW2 9034   1.828   0.036   3.802 -0.2514  1.9696  1.2809
 2259SOL    HW3 9035   1.677   0.039   3.799 -0.2892  0.9481  1.9224
 2259SOL    MW4 9036   1.754   0.068   3.771 -0.6081  0.2242  0.2501
 2260SOL     OW 9037   1.809   0.327   3.866 -0.3623  0.1481  0.0438
 2260SOL    HW2 9038   1.800   0.322   3.961  0.2184  0.5646  0.1232
 2260SOL    HW3 9039   1.793   0.238   3.836  1.8804 -0.5260  0.7479
 2260SOL    MW4 9040   1.806   0.315   3.875  0.0102  0.1141  0.1472
 2261SOL     OW 9041   2.017   0.515   3.784  0.0196  0.2186  0.0482
 2261SOL    HW2 9042   1.953   0.454   3.820  0.7904 -0.5949  0.0779
 2261SOL    HW3 9043   2.023   0.492   3.691  0.1310  0.4030  0.0100
 2261SOL    MW4 9044   2.009   0.504   3.776  0.1360  0.1356  0.0470
 2262SOL     OW 9045   2.031   0.787   3.893  0.4740  0.2513  0.4692
 2262SOL    HW2 9046   2.007   0.779   3.986  1.7588  0.0968  0.7891
 2262SOL    HW3 9047   2.035   0.697   3.862  0.3635  0.2900  0.3436
 2262SOL    MW4 9048   2.028   0.774   3.901  0.6289  0.2360  0.4948
 2263SOL     OW 9049   1.815   0.926   3.777  0.3433  0.4590 -0.2488
 2263SOL    HW2 9050   1.887   0.876   3.815  0.1302  1.4511  1.5193
 2263SOL    HW3 9051   1.829   0.921   3.682  1.8053 -0.7102  0.0173
 2263SOL    MW4 9052   1.826   0.919   3.769  0.5080  0.4356  0.0196
 2264SOL     OW 9053   1.786   1.169   3.870 -0.2375  0.2212  0.0185
 2264SOL    HW2 9054   1.806   1.161   3.963 -0.0908 -0.9536 -0.1009
 2264SOL    HW3 9055   1.782   1.078   3.839 -1.2347  0.5816 -0.9178
 2264SOL    MW4 9056   1.788   1.156   3.878 -0.3497  0.1137 -0.1208
 2265SOL     OW 9057   2.026   1.236   3.760 -0.4519  0.1740  0.3345
 2265SOL    HW2 9058   2.097   1.216   3.821 -1.4781  0.6307  1.6999
 2265SOL    HW3 9059   1.948   1.201   3.802 -1.3994  1.8544  0.0156
 2265SOL    MW4 9060   2.025   1.229   3.774 -0.7123  0.4560  0.4725
 2266SOL     OW 9061   2.042   1.504   3.860  0.7767  0.1680 -0.4435
 2266SOL    HW2 9062   1.966   1.553   3.828 -1.3423 -0.7849  2.9176
 2266SOL    HW3 9063   2.040   1.422   3.811  0.5722  0.7823 -1.4824
 2266SOL    MW4 9064   2.032   1.500   3.849  0.4701  0.1233 -0.1371
 2267SOL     OW 9065   1.789   1.597   3.798  0.2636 -0.0065 -0.0157
 2267SOL    HW2 9066   1.798   1.689   3.823 -0.2982  0.1894 -0.5353
 2267SOL    HW3 9067   1.790   1.598   3.703 -0.3403 -0.4772 -0.0313
 2267SOL    MW4 9068   1.790   1.610   3.789  0.1098 -0.0428 -0.0863
 2268SOL     OW 9069   1.821   1.851   3.870  0.1180 -0.2094 -0.1074
 2268SOL    HW2 9070   1.813   1.865   3.964  2.4358  1.5639 -0.1021
 2268SOL    HW3 9071   1.749   1.901   3.832 -1.1465 -1.3714  0.7261
 2268SOL    MW4 9072   1.811   1.860   3.877  0.2570 -0.1288  0.0033
 2269SOL     OW 9073   2.005   2.051   3.786  0.0912 -0.1157  0.3020
 2269SOL    HW2 9074   1.945   1.980   3.810 -0.8040  0.3139 -0.6711
 2269SOL    HW3 9075   2.007   2.050   3.691  2.8268 -1.1130  0.2927
 2269SOL    MW4 9076   1.998   2.041   3.777  0.3340 -0.1906  0.1724
 2270SOL     OW 9077   2.015   2.324   3.854 -0.3400 -0.0950 -0.3697
 2270SOL    HW2 9078   1.929   2.361   3.836 -0.8894 -0.4072  1.5683
 2270SOL    HW3 9079   2.003   2.229   3.847 -0.4806 -0.2067  1.1973
 2270SOL    MW4 9080   2.002   2.316   3.851 -0.4310 -0.1509  0.0927
 2271SOL     OW 9081   1.760   2.444   3.785  0.4267 -0.1772 -0.3962
 2271SOL    HW2 9082   1.777   2.534   3.813 -0.4924  0.3533 -1.4733
 2271SOL    HW3 9083   1.778   2.444   3.691  0.1244 -1.0300 -0.4611
 2271SOL    MW4 9084   1.764   2.456   3.777  0.2655 -0.2197 -0.5469
 2272SOL     OW 9085   1.831   2.698   3.874 -0.1158 -0.5322 -0.0048
 2272SOL    HW2 9086   1.809   2.708   3.967  0.8852  1.2162  0.0619
 2272SOL    HW3 9087   1.763   2.748   3.828  0.7352  0.5736 -0.0763
 2272SOL    MW4 9088   1.819   2.706   3.880  0.1285 -0.1556 -0.0054
 2273SOL     OW 9089   2.056   2.793   3.743 -0.2364  0.3479 -0.2447
 2273SOL    HW2 9090   2.131   2.748   3.780  1.0076  2.5631  0.0061
 2273SOL    HW3 9091   1.980   2.755   3.788  0.8449 -0.7853  0.6320
 2273SOL    MW4 9092   2.056   2.782   3.754  0.0704  0.4906 -0.0959
 2274SOL     OW 9093   2.028   3.061   3.819 -0.2349 -0.0621 -0.3169
 2274SOL    HW2 9094   2.101   3.119   3.799  1.0890 -1.2234  1.0625
 2274SOL    HW3 9095   2.056   2.975   3.788 -1.1689 -0.4398 -0.1312
 2274SOL    MW4 9096   2.041   3.057   3.813 -0.1835 -0.2651 -0.1104
 2275SOL     OW 9097   1.793   3.202   3.743 -0.5426  0.2177  0.2701
 2275SOL    HW2 9098   1.873   3.158   3.771 -0.7821 -0.1524  0.3750
 2275SOL    HW3 9099   1.722   3.150   3.780 -0.9377 -1.6352 -2.8986
 2275SOL    MW4 9100   1.794   3.190   3.751 -0.6263 -0.0756 -0.1341
 2276SOL     OW 9101   1.780   3.470   3.908 -0.2318 -0.0571 -0.1251
 2276SOL    HW2 9102   1.857   3.506   3.865 -0.5844 -0.2765 -0.9341
 2276SOL    HW3 9103   1.756   3.393   3.857  0.0884 -1.0514  1.1787
 2276SOL    MW4 9104   1.787   3.465   3.896 -0.2361 -0.2172 -0.0598
 2277SOL     OW 9105   1.985   3.570   3.741  0.0656 -0.2198 -0.1138
 2277SOL    HW2 9106   2.072   3.543   3.770 -0.1087  0.3213  0.9354
 2277SOL    HW3 9107   1.993   3.578   3.646  0.8424 -1.3216 -0.1508
 2277SOL    MW4 9108   1.998   3.567   3.733  0.1451 -0.2938  0.0197
 2278SOL     OW 9109   1.961   3.810   3.855 -0.4088 -0.4672  0.4787
 2278SOL    HW2 9110   2.045   3.855   3.844 -0.6136 -0.1379  0.2658
 2278SOL    HW3 9111   1.968   3.731   3.802 -0.7941  0.3088 -0.7415
 2278SOL    MW4 9112   1.973   3.805   3.847 -0.4867 -0.3214  0.2896
 2279SOL     OW 9113   1.776   4.000   3.772 -0.1111 -0.3048 -0.0758
 2279SOL    HW2 9114   1.845   3.934   3.776 -0.7364 -0.9241  0.6657
 2279SOL    HW3 9115   1.698   3.955   3.804 -0.7309  0.5581 -0.3459
 2279SOL    MW4 9116   1.775   3.986   3.777 -0.2754 -0.2726 -0.0136
 2280SOL     OW 9117   1.804   4.244   3.911  0.5731 -0.5302 -0.5146
 2280SOL    HW2 9118   1.878   4.285   3.866  1.2851 -1.7207 -0.4488
 2280SOL    HW3 9119   1.800   4.156   3.875 -0.6131 -0.5913 -0.2686
 2280SOL    MW4 9120   1.813   4.238   3.900  0.5105 -0.6954 -0.4735
 2281SOL     OW 9121   2.001   4.386   3.727 -0.3781  0.2618 -0.2541
 2281SOL    HW2 9122   2.070   4.331   3.764 -2.5595 -2.4748 -0.0123
 2281SOL    HW3 9123   2.003   4.366   3.633 -0.6837  0.3372 -0.2773
 2281SOL    MW4 9124   2.010   4.376   3.719 -0.7062 -0.0893 -0.2252
 2282SOL     OW 9125   2.413   4.625   3.886  0.1019  0.6725  0.0854
 2282SOL    HW2 9126   2.425   4.614   3.980  0.7826 -0.0916 -0.0791
 2282SOL    HW3 9127   2.495   4.664   3.856  0.6567 -0.8634 -0.4601
 2282SOL    MW4 9128   2.425   4.628   3.895  0.2649  0.3690 -0.0083
 2283SOL     OW 9129   2.229   0.117   3.766  0.0236 -0.2461 -0.4845
 2283SOL    HW2 9130   2.305   0.072   3.804  0.4759 -1.2366 -2.4724
 2283SOL    HW3 9131   2.231   0.093   3.673 -1.9010  0.8882 -0.8508
 2283SOL    MW4 9132   2.239   0.108   3.759 -0.1707 -0.2272 -0.7951
 2284SOL     OW 9133   2.247   0.376   3.874 -0.2836 -0.4220 -0.3619
 2284SOL    HW2 9134   2.243   0.282   3.855  1.1928 -0.1662 -2.0699
 2284SOL    HW3 9135   2.166   0.411   3.838 -0.7952 -1.0467  0.1923
 2284SOL    MW4 9136   2.236   0.368   3.866 -0.1563 -0.4706 -0.5142
 2285SOL     OW 9137   2.501   0.428   3.772  0.2433 -0.1773  0.2505
 2285SOL    HW2 9138   2.421   0.388   3.807  0.0744 -0.0962 -0.0352
 2285SOL    HW3 9139   2.488   0.427   3.677  1.1697 -1.3858  0.1221
 2285SOL    MW4 9140   2.489   0.423   3.764  0.3433 -0.3261  0.1959
 2286SOL     OW 9141   2.483   0.721   3.839 -0.2284  0.2261  0.2105
 2286SOL    HW2 9142   2.401   0.767   3.818  0.5662  0.8574 -1.6158
 2286SOL    HW3 9143   2.465   0.629   3.819 -0.3143  0.4470 -0.7324
 2286SOL    MW4 9144   2.469   0.715   3.834 -0.1349  0.3385 -0.1549
 2287SOL     OW 9145   2.268   0.917   3.808  0.5235 -0.1541  0.2180
 2287SOL    HW2 9146   2.182   0.879   3.824  0.2562  0.9849  1.5629
 2287SOL    HW3 9147   2.277   0.916   3.713 -1.0799 -0.0353  0.0476
 2287SOL    MW4 9148   2.258   0.912   3.798  0.2767  0.0118  0.3730
 2288SOL     OW 9149   2.249   1.178   3.915  0.3751 -0.3263  0.1728
 2288SOL    HW2 9150   2.248   1.162   4.010 -0.5679 -1.6086 -0.0376
 2288SOL    HW3 9151   2.250   1.091   3.876 -1.3536  0.1665 -1.0170
 2288SOL    MW4 9152   2.249   1.164   3.923  0.0226 -0.4304 -0.0120
 2289SOL     OW 9153   2.489   1.234   3.782  0.4081  0.0540 -0.0438
 2289SOL    HW2 9154   2.488   1.329   3.797  0.2360  0.0651 -0.1253
 2289SOL    HW3 9155   2.407   1.203   3.821  1.2595 -0.2962  1.5239
 2289SOL    MW4 9156   2.478   1.243   3.789  0.4977  0.0093  0.1523
 2290SOL     OW 9157   2.492   1.504   3.839 -0.3009  0.2512  0.0219
 2290SOL    HW2 9158   2.565   1.564   3.820  1.4103 -1.6065  0.5402
 2290SOL    HW3 9159   2.418   1.541   3.792  0.9552  2.2565 -0.4434
 2290SOL    MW4 9160   2.492   1.517   3.830  0.0906  0.2707  0.0289
 2291SOL     OW 9161   2.272   1.638   3.750  0.0115 -0.0675 -0.0120
 2291SOL    HW2 9162   2.277   1.727   3.784 -0.8863  0.7271 -1.8724
 2291SOL    HW3 9163   2.202   1.597   3.801 -0.7947  0.8683 -0.3407
 2291SOL    MW4 9164   2.263   1.644   3.761 -0.2133  0.1608 -0.3008
 2292SOL     OW 9165   2.241   1.894   3.835  0.3054 -0.4522  0.3137
 2292SOL    HW2 9166   2.235   1.926   3.925 -0.3717 -1.2422  0.5543
 2292SOL    HW3 9167   2.168   1.937   3.790  1.2286  0.7072 -0.1044
 2292SOL    MW4 9168   2.230   1.904   3.841  0.3378 -0.4035  0.2903
 2293SOL     OW 9169   2.461   2.057   3.798 -0.0853  0.5777 -0.1086
 2293SOL    HW2 9170   2.446   2.138   3.848 -0.0746  0.4215  0.1498
 2293SOL    HW3 9171   2.386   2.002   3.818  1.1730 -0.5297  1.8441
 2293SOL    MW4 9172   2.449   2.061   3.807  0.0821  0.4110  0.1831
 2294SOL     OW 9173   2.452   2.314   3.901 -0.1465  0.1826 -0.6751
 2294SOL    HW2 9174   2.525   2.352   3.853  0.9634  0.7621  1.4283
 2294SOL    HW3 9175   2.374   2.344   3.854  0.9156  0.5945 -2.1948
 2294SOL    MW4 9176   2.451   2.323   3.889  0.1400  0.3134 -0.5981
 2295SOL     OW 9177   2.246   2.414   3.751  0.3111  0.1238 -0.4202
 2295SOL    HW2 9178   2.166   2.373   3.783  1.5455 -1.9676  0.0621
 2295SOL    HW3 9179   2.231   2.427   3.657 -0.4623 -0.5473 -0.3928
 2295SOL    MW4 9180   2.234   2.410   3.743  0.3719 -0.2406 -0.3529
 2296SOL     OW 9181   2.278   2.672   3.837 -0.2261 -0.1042  0.0654
 2296SOL    HW2 9182   2.254   2.677   3.929 -1.9226  1.4002 -0.4441
 2296SOL    HW3 9183   2.279   2.578   3.818 -2.1678 -0.3369  1.0222
 2296SOL    MW4 9184   2.275   2.660   3.847 -0.7061  0.0636  0.1244
 2297SOL     OW 9185   2.507   2.797   3.765  0.4615  0.1522  0.1407
 2297SOL    HW2 9186   2.426   2.756   3.795  1.0969 -1.2712  0.0008
 2297SOL    HW3 9187   2.498   2.800   3.669  1.4064 -1.9149 -0.0455
 2297SOL    MW4 9188   2.495   2.792   3.756  0.6700 -0.3083  0.0977
 2298SOL     OW 9189   2.461   3.076   3.824  0.4449  0.5916 -0.0175
 2298SOL    HW2 9190   2.469   3.082   3.920 -0.4432  0.4905  0.0692
 2298SOL    HW3 9191   2.464   2.982   3.806 -0.5963  0.5457  0.0279
 2298SOL    MW4 9192   2.463   3.064   3.835  0.1904  0.5722 -0.0000
 2299SOL     OW 9193   2.237   3.218   3.754 -0.1580 -0.2045  0.2752
 2299SOL    HW2 9194   2.250   3.301   3.799  0.2470 -0.1428  0.0475
 2299SOL    HW3 9195   2.306   3.161   3.788 -0.9604 -0.7118  1.0634
 2299SOL    MW4 9196   2.248   3.222   3.764 -0.2105 -0.2633  0.3492
 2300SOL     OW 9197   2.238   3.488   3.845  0.2700  0.2663 -0.2162
 2300SOL    HW2 9198   2.225   3.498   3.939  0.5647 -1.5628  0.0333
 2300SOL    HW3 9199   2.317   3.538   3.826  1.6558 -1.4269  0.9661
 2300SOL    MW4 9200   2.247   3.496   3.855  0.4917 -0.1984 -0.0273
 2301SOL     OW 9201   2.474   3.632   3.778 -0.4561  0.0712 -0.2632
 2301SOL    HW2 9202   2.551   3.576   3.789 -0.8522 -0.6868 -1.2731
 2301SOL    HW3 9203   2.466   3.642   3.683 -1.2077  0.7070 -0.1318
 2301SOL    MW4 9204   2.483   3.626   3.767 -0.6075  0.0551 -0.3791
 2302SOL     OW 9205   2.459   3.888   3.870 -0.4186 -0.2609  0.2949
 2302SOL    HW2 9206   2.532   3.933   3.826  0.9990 -0.3371  2.4608
 2302SOL    HW3 9207   2.474   3.795   3.854  0.6901 -0.3579  1.7258
 2302SOL    MW4 9208   2.471   3.882   3.862 -0.0853 -0.2837  0.7695
 2303SOL     OW 9209   2.182   3.952   3.806 -0.1737  0.2842 -0.0464
 2303SOL    HW2 9210   2.264   3.911   3.833 -0.0469  1.0584  0.8047
 2303SOL    HW3 9211   2.196   3.978   3.715  0.4539  0.2242  0.0335
 2303SOL    MW4 9212   2.194   3.950   3.798 -0.0742  0.3785  0.0764
 2304SOL     OW 9213   2.204   4.218   3.869 -0.2266 -0.1914  0.1817
 2304SOL    HW2 9214   2.196   4.239   3.962  1.0387  1.6026 -0.0957
 2304SOL    HW3 9215   2.191   4.123   3.865  0.5805 -0.4226  2.3049
 2304SOL    MW4 9216   2.201   4.208   3.881  0.0468  0.0148  0.4252
 2305SOL     OW 9217   2.426   4.351   3.774 -0.5524  0.3761  0.1160
 2305SOL    HW2 9218   2.348   4.301   3.800 -1.1187  0.5387 -1.2329
 2305SOL    HW3 9219   2.411   4.439   3.808 -0.9686  0.4036 -0.1260
 2305SOL    MW4 9220   2.414   4.356   3.782 -0.6820  0.4012 -0.0939
 2306SOL     OW 9221   2.909   4.633   3.889  0.3353  0.3461  0.1621
 2306SOL    HW2 9222   2.928   4.621   3.982  0.7607 -0.2096  0.0058
 2306SOL    HW3 9223   2.991   4.665   3.851  0.0038  1.1036  0.0718
 2306SOL    MW4 9224   2.922   4.636   3.897  0.3477  0.3727  0.1295
 2307SOL     OW 9225   2.661   0.046   3.821 -0.6300 -0.2424 -0.6541
 2307SOL    HW2 9226   2.743   0.003   3.845 -1.2690 -2.5070 -2.3776
 2307SOL    HW3 9227   2.667   0.058   3.726 -1.3889  1.5564 -0.4926
 2307SOL    MW4 9228   2.673   0.042   3.811 -0.8145 -0.3038 -0.8602
 2308SOL     OW 9229   2.723   0.331   3.888 -0.0728 -0.4369 -0.0784
 2308SOL    HW2 9230   2.722   0.238   3.867 -0.7129 -0.5681  0.5040
 2308SOL    HW3 9231   2.645   0.366   3.844 -0.8279 -0.5166  1.1930
 2308SOL    MW4 9232   2.712   0.323   3.879 -0.2568 -0.4647  0.1662
 2309SOL     OW 9233   2.924   0.505   3.788  0.4476  0.2808 -0.0219
 2309SOL    HW2 9234   3.002   0.457   3.816  0.6936 -0.4103 -1.8186
 2309SOL    HW3 9235   2.851   0.451   3.818  0.6834  0.0207  0.0910
 2309SOL    MW4 9236   2.925   0.492   3.796  0.5112  0.1553 -0.2441
 2310SOL     OW 9237   2.929   0.756   3.919 -0.0582 -0.1016  0.1234
 2310SOL    HW2 9238   3.002   0.805   3.881 -0.8915  0.6719 -0.5138
 2310SOL    HW3 9239   2.929   0.672   3.873 -0.7807  0.6532 -1.2826
 2310SOL    MW4 9240   2.939   0.752   3.908 -0.2635  0.1000 -0.1461
 2311SOL     OW 9241   2.707   0.852   3.749  0.2331 -0.0191 -0.6882
 2311SOL    HW2 9242   2.786   0.821   3.793  0.5357 -0.3607 -1.4662
 2311SOL    HW3 9243   2.635   0.810   3.796  0.4698  0.8670  0.4894
 2311SOL    MW4 9244   2.708   0.842   3.761  0.3042  0.0528 -0.6355
 2312SOL     OW 9245   2.721   1.118   3.835 -0.1002 -0.4274 -0.2347
 2312SOL    HW2 9246   2.710   1.030   3.800 -1.5761 -0.5643  0.5476
 2312SOL    HW3 9247   2.635   1.159   3.824  0.0342  0.2543  1.2029
 2312SOL    MW4 9248   2.708   1.112   3.829 -0.2772 -0.3555  0.0582
 2313SOL     OW 9249   2.927   1.288   3.755  0.2515 -0.4570  0.2206
 2313SOL    HW2 9250   2.925   1.372   3.800  1.9606 -0.8210  1.0176
 2313SOL    HW3 9251   2.856   1.238   3.795 -1.3570  0.8911 -0.8810
 2313SOL    MW4 9252   2.917   1.293   3.767  0.2648 -0.3271  0.1804
 2314SOL     OW 9253   2.896   1.542   3.850  0.1363 -0.2093  0.5013
 2314SOL    HW2 9254   2.889   1.536   3.946 -1.2044  4.7418  0.8459
 2314SOL    HW3 9255   2.984   1.575   3.834 -0.4076  1.1395  0.2114
 2314SOL    MW4 9256   2.906   1.545   3.861 -0.1124  0.6219  0.5085
 2315SOL     OW 9257   2.682   1.702   3.775  0.0386 -0.1217  0.1794
 2315SOL    HW2 9258   2.769   1.666   3.792  0.1644  0.4773  0.8108
 2315SOL    HW3 9259   2.676   1.704   3.679  1.3664  1.3493  0.1017
 2315SOL    MW4 9260   2.693   1.698   3.765  0.2304  0.1514  0.2525
 2316SOL     OW 9261   2.721   1.947   3.863  0.0125 -0.2383 -0.5786
 2316SOL    HW2 9262   2.711   1.856   3.833 -0.2257 -0.2167 -0.5624
 2316SOL    HW3 9263   2.651   1.995   3.819 -0.2452 -0.1785 -0.1091
 2316SOL    MW4 9264   2.710   1.941   3.854 -0.0529 -0.2276 -0.5145
 2317SOL     OW 9265   2.909   2.079   3.727 -0.3592  0.3654 -0.4076
 2317SOL    HW2 9266   2.909   2.161   3.776  0.4258  1.0258 -1.5256
 2317SOL    HW3 9267   2.843   2.025   3.772 -0.3901  1.3405  0.7395
 2317SOL    MW4 9268   2.900   2.082   3.740 -0.2597  0.5812 -0.4037
 2318SOL     OW 9269   2.906   2.286   3.899 -0.5024 -0.0026 -0.0260
 2318SOL    HW2 9270   2.900   2.267   3.992 -0.0943 -1.4163 -0.2742
 2318SOL    HW3 9271   2.988   2.333   3.889 -0.5009  0.0668  0.3206
 2318SOL    MW4 9272   2.916   2.290   3.910 -0.4483 -0.1799 -0.0130
 2319SOL     OW 9273   2.708   2.445   3.799  0.5366 -0.2232 -0.5902
 2319SOL    HW2 9274   2.725   2.530   3.838  0.9176 -0.3106 -0.5612
 2319SOL    HW3 9275   2.766   2.385   3.846 -0.2208 -0.6138 -0.1475
 2319SOL    MW4 9276   2.718   2.448   3.810  0.4869 -0.2863 -0.5280
 2320SOL     OW 9277   2.727   2.698   3.926 -0.2380  0.3726  0.0462
 2320SOL    HW2 9278   2.727   2.731   4.016 -0.6313  1.7419 -0.4346
 2320SOL    HW3 9279   2.643   2.726   3.891 -0.7264 -1.4675 -0.2955
 2320SOL    MW4 9280   2.716   2.706   3.934 -0.3543  0.3105 -0.0623
 2321SOL     OW 9281   2.930   2.842   3.786  0.0802 -0.0200  0.1057
 2321SOL    HW2 9282   2.935   2.933   3.816  1.0125 -0.4480  1.2864
 2321SOL    HW3 9283   2.852   2.807   3.830  0.8599 -0.3521  1.2436
 2321SOL    MW4 9284   2.920   2.850   3.796  0.3061 -0.1203  0.4116
 2322SOL     OW 9285   2.927   3.089   3.878 -0.1443 -0.0106  0.2078
 2322SOL    HW2 9286   3.001   3.136   3.838 -0.0163  0.5560  1.0695
 2322SOL    HW3 9287   2.850   3.123   3.833  0.1924 -1.4866 -1.5342
 2322SOL    MW4 9288   2.927   3.100   3.867 -0.0830 -0.1306  0.0916
 2323SOL     OW 9289   2.708   3.218   3.793  0.0039  0.1297 -0.7280
 2323SOL    HW2 9290   2.696   3.311   3.812  0.9235  0.0132  0.4370
 2323SOL    HW3 9291   2.620   3.180   3.803 -0.1377  0.6496  0.0350
 2323SOL    MW4 9292   2.695   3.225   3.797  0.1065  0.1829 -0.4736
 2324SOL     OW 9293   2.689   3.487   3.874  0.1827  0.2721 -0.4002
 2324SOL    HW2 9294   2.681   3.503   3.968  0.2558 -1.9638  0.0043
 2324SOL    HW3 9295   2.773   3.527   3.850  0.5030  0.2266  0.6126
 2324SOL    MW4 9296   2.699   3.495   3.883  0.2346 -0.0289 -0.2132
 2325SOL     OW 9297   2.924   3.589   3.768  0.4713  0.0117 -0.0461
 2325SOL    HW2 9298   3.011   3.557   3.792  0.1626 -1.3061 -0.6395
 2325SOL    HW3 9299   2.919   3.577   3.673 -0.5454 -0.3831  0.0506
 2325SOL    MW4 9300   2.935   3.583   3.758  0.2964 -0.2143 -0.1116
 2326SOL     OW 9301   2.883   3.880   3.887  0.3875  0.1199  0.0250
 2326SOL    HW2 9302   2.908   3.878   3.979 -1.0584 -1.7057  0.3925
 2326SOL    HW3 9303   2.884   3.788   3.859 -0.2001  0.5601 -1.5062
 2326SOL    MW4 9304   2.887   3.868   3.895  0.1192 -0.0629 -0.1286
 2327SOL     OW 9305   2.678   3.983   3.755  0.0405  0.0085  0.0835
 2327SOL    HW2 9306   2.676   4.076   3.780 -0.0305  0.2781 -0.8862
 2327SOL    HW3 9307   2.755   3.948   3.800  0.3921  0.6709  0.0062
 2327SOL    MW4 9308   2.688   3.991   3.764  0.0776  0.1315 -0.0547
 2328SOL     OW 9309   2.668   4.238   3.860 -0.3367  0.3849  0.1830
 2328SOL    HW2 9310   2.739   4.283   3.814 -0.5272  1.0110  0.5071
 2328SOL    HW3 9311   2.590   4.290   3.843 -1.4856 -2.2735 -3.2654
 2328SOL    MW4 9312   2.667   4.251   3.852 -0.5134  0.1167 -0.2292
 2329SOL     OW 9313   2.887   4.377   3.769  0.4269 -0.1476 -0.3526
 2329SOL    HW2 9314   2.959   4.324   3.803 -0.8825  0.2556  3.3407
 2329SOL    HW3 9315   2.890   4.458   3.821 -2.3552  0.0592 -0.4329
 2329SOL    MW4 9316   2.897   4.381   3.781 -0.1129 -0.0671  0.1241
 2330SOL     OW 9317   3.350   4.603   3.893  0.2054 -0.5529 -0.1674
 2330SOL    HW2 9318   3.360   4.636   3.982  0.4809 -1.9284  0.3281
 2330SOL    HW3 9319   3.421   4.644   3.844  1.0606 -1.0493  0.6366
 2330SOL    MW4 9320   3.361   4.612   3.898  0.3546 -0.7999  0.0041
 2331SOL     OW 9321   3.128   0.070   3.774 -0.3474  0.4358 -0.5540
 2331SOL    HW2 9322   3.200   0.027   3.821  0.3528  1.9347 -0.2257
 2331SOL    HW3 9323   3.153   0.064   3.682 -0.0593  0.4853 -0.4794
 2331SOL    MW4 9324   3.141   0.064   3.768 -0.2170  0.6401 -0.5008
 2332SOL     OW 9325   3.139   0.324   3.872  0.0389  0.1007 -0.0429
 2332SOL    HW2 9326   3.119   0.306   3.964 -0.4003  0.9887  0.0382
 2332SOL    HW3 9327   3.135   0.238   3.830 -1.5233 -0.0776  0.4378
 2332SOL    MW4 9328   3.136   0.310   3.879 -0.2252  0.1943  0.0313
 2333SOL     OW 9329   3.354   0.444   3.773 -0.1296 -0.0079  0.0606
 2333SOL    HW2 9330   3.435   0.401   3.800  0.2907  1.3380  0.9939
 2333SOL    HW3 9331   3.285   0.388   3.809  0.3540 -1.2493 -0.8763
 2333SOL    MW4 9332   3.355   0.431   3.782 -0.0103  0.0059  0.0601
 2334SOL     OW 9333   3.359   0.727   3.832  0.1060  0.2801  0.1944
 2334SOL    HW2 9334   3.354   0.737   3.927  0.3974  1.3347  0.1121
 2334SOL    HW3 9335   3.366   0.633   3.818  2.1593  0.2411  1.3261
 2334SOL    MW4 9336   3.359   0.716   3.843  0.4153  0.4141  0.3329
 2335SOL     OW 9337   3.146   0.860   3.777 -0.6232 -0.3901  0.0901
 2335SOL    HW2 9338   3.228   0.815   3.797 -0.3326  0.2786  0.4016
 2335SOL    HW3 9339   3.145   0.867   3.681 -0.0693  0.0779  0.1207
 2335SOL    MW4 9340   3.157   0.855   3.767 -0.5118 -0.2401  0.1352
 2336SOL     OW 9341   3.133   1.125   3.852  0.3604  0.8504 -0.1519
 2336SOL    HW2 9342   3.139   1.034   3.825  0.1356 -0.2538  3.3001
 2336SOL    HW3 9343   3.059   1.160   3.803  0.2689 -0.8975 -1.2841
 2336SOL    MW4 9344   3.124   1.118   3.842  0.3187  0.4741  0.1542
 2337SOL     OW 9345   3.378   1.263   3.769  0.0105 -0.0007 -0.3337
 2337SOL    HW2 9346   3.298   1.231   3.812 -0.4700 -0.1894 -1.3411
 2337SOL    HW3 9347   3.356   1.264   3.676  1.8751 -2.0445 -0.8283
 2337SOL    MW4 9348   3.364   1.259   3.762  0.1931 -0.2953 -0.5319
 2338SOL     OW 9349   3.344   1.519   3.855 -0.1088 -0.1125  0.2231
 2338SOL    HW2 9350   3.280   1.569   3.804 -0.7733 -0.4666  0.7091
 2338SOL    HW3 9351   3.342   1.432   3.817  0.3386 -0.0344  0.0168
 2338SOL    MW4 9352   3.335   1.514   3.843 -0.1374 -0.1489  0.2600
 2339SOL     OW 9353   3.128   1.667   3.755 -0.6555  0.3084 -0.0078
 2339SOL    HW2 9354   3.135   1.756   3.790 -0.5878  0.3083 -0.0199
 2339SOL    HW3 9355   3.124   1.679   3.661  1.5206  0.2023 -0.1512
 2339SOL    MW4 9356   3.129   1.681   3.748 -0.3594  0.2944 -0.0283
 2340SOL     OW 9357   3.131   1.933   3.850 -0.1485  0.2857 -0.4742
 2340SOL    HW2 9358   3.117   1.931   3.945 -0.5388 -0.2283 -0.5374
 2340SOL    HW3 9359   3.049   1.966   3.814  0.1833  0.9761 -0.6013
 2340SOL    MW4 9360   3.118   1.937   3.858 -0.1563  0.3090 -0.4993
 2341SOL     OW 9361   3.357   2.079   3.765  0.2129  0.3989  0.0099
 2341SOL    HW2 9362   3.285   2.021   3.788  0.6932  0.5664  1.9877
 2341SOL    HW3 9363   3.344   2.097   3.672 -0.0564 -2.7249 -0.6319
 2341SOL    MW4 9364   3.346   2.074   3.756  0.2408  0.0088  0.1862
 2342SOL     OW 9365   3.368   2.332   3.884 -0.2365 -0.4026 -0.2835
 2342SOL    HW2 9366   3.291   2.379   3.853 -0.9907 -1.9788 -0.8784
 2342SOL    HW3 9367   3.354   2.242   3.854  0.5242 -1.2919  1.9351
 2342SOL    MW4 9368   3.356   2.326   3.876 -0.2356 -0.7279 -0.0693
 2343SOL     OW 9369   3.112   2.442   3.792  0.2525 -0.3864 -0.1535
 2343SOL    HW2 9370   3.120   2.537   3.801  1.5509 -0.3666 -1.4122
 2343SOL    HW3 9371   3.102   2.428   3.698 -0.3367 -1.4703  0.0677
 2343SOL    MW4 9372   3.112   2.453   3.781  0.3461 -0.5268 -0.2904
 2344SOL     OW 9373   3.156   2.716   3.881 -0.2746 -0.1005  0.7648
 2344SOL    HW2 9374   3.151   2.722   3.976  0.0353 -0.0030  0.7748
 2344SOL    HW3 9375   3.081   2.768   3.850  0.7215  1.4811  0.9254
 2344SOL    MW4 9376   3.145   2.724   3.889 -0.1023  0.1210  0.7873
 2345SOL     OW 9377   3.389   2.801   3.785 -0.3364 -0.3327 -0.4038
 2345SOL    HW2 9378   3.301   2.779   3.815 -0.2275  0.1540  0.2815
 2345SOL    HW3 9379   3.385   2.791   3.690 -0.7673 -1.6082 -0.2682
 2345SOL    MW4 9380   3.377   2.797   3.777 -0.3789 -0.4367 -0.2955
 2346SOL     OW 9381   3.387   3.062   3.893  0.0333 -0.1665 -0.0141
 2346SOL    HW2 9382   3.461   3.108   3.853  0.1620 -0.2225  0.1571
 2346SOL    HW3 9383   3.386   2.977   3.850  0.1262 -0.1999  0.0488
 2346SOL    MW4 9384   3.397   3.057   3.882  0.0625 -0.1783  0.0168
 2347SOL     OW 9385   3.176   3.214   3.798  0.1478  0.0600  0.0130
 2347SOL    HW2 9386   3.248   3.157   3.824  0.4976 -0.1013 -1.2854
 2347SOL    HW3 9387   3.187   3.226   3.704 -2.2927 -1.0969 -0.4758
 2347SOL    MW4 9388   3.187   3.208   3.789 -0.1281 -0.1139 -0.2228
 2348SOL     OW 9389   3.155   3.469   3.886 -0.2606 -0.0219  0.2826
 2348SOL    HW2 9390   3.237   3.497   3.846  0.0501  0.2365  1.0875
 2348SOL    HW3 9391   3.143   3.379   3.855 -0.3039  0.3444 -0.8064
 2348SOL    MW4 9392   3.164   3.461   3.876 -0.2253  0.0605  0.2451
 2349SOL     OW 9393   3.377   3.594   3.773  0.2060  0.1095 -0.0926
 2349SOL    HW2 9394   3.357   3.685   3.796  1.2197  0.4503 -0.5407
 2349SOL    HW3 9395   3.383   3.594   3.677  1.8169 -0.0944  0.0047
 2349SOL    MW4 9396   3.375   3.606   3.763  0.5523  0.1276 -0.1389
 2350SOL     OW 9397   3.332   3.853   3.865  0.5646 -0.1601 -0.6178
 2350SOL    HW2 9398   3.397   3.891   3.806  1.2051 -0.5034 -0.1433
 2350SOL    HW3 9399   3.248   3.885   3.833  1.1451  2.6280  0.4608
 2350SOL    MW4 9400   3.330   3.862   3.853  0.7257  0.1624 -0.4129
 2351SOL     OW 9401   3.107   3.989   3.760 -0.0325  0.1008  0.5340
 2351SOL    HW2 9402   3.102   4.074   3.804 -1.9807  0.2239  0.1554
 2351SOL    HW3 9403   3.023   3.947   3.779  0.1715 -0.9643 -0.7989
 2351SOL    MW4 9404   3.095   3.995   3.768 -0.2627 -0.0235  0.3082
 2352SOL     OW 9405   3.111   4.246   3.867  0.2502 -0.2050  0.0364
 2352SOL    HW2 9406   3.131   4.264   3.959 -1.2271  1.6934  0.0082
 2352SOL    HW3 9407   3.190   4.273   3.820  0.2279  0.7828  0.5586
 2352SOL    MW4 9408   3.124   4.252   3.873  0.0524  0.1758  0.1016
 2353SOL     OW 9409   3.353   4.343   3.777  0.4600  0.3434 -0.0807
 2353SOL    HW2 9410   3.434   4.300   3.804 -0.1815 -0.1577  1.0474
 2353SOL    HW3 9411   3.345   4.419   3.835  1.5248  1.9597 -1.9830
 2353SOL    MW4 9412   3.363   4.347   3.788  0.5159  0.4905 -0.1828
 2354SOL     OW 9413   3.842   4.663   3.892  0.0418 -0.0388  0.0283
 2354SOL    HW2 9414   3.906   4.710   3.838 -1.5449  0.7176 -1.2017
 2354SOL    HW3 9415   3.842   4.574   3.857  1.2515 -0.3602  0.7900
 2354SOL    MW4 9416   3.851   4.658   3.880 -0.0079  0.0186 -0.0335
 2355SOL     OW 9417   3.596   0.045   3.766 -0.5426  0.2015 -0.0623
 2355SOL    HW2 9418   3.676   0.017   3.811 -0.0645 -0.0995 -1.0765
 2355SOL    HW3 9419   3.621   0.047   3.673 -2.2679 -1.8579 -0.6003
 2355SOL    MW4 9420   3.610   0.042   3.760 -0.7071 -0.1099 -0.2671
 2356SOL     OW 9421   3.609   0.306   3.844  0.2047  0.4484 -0.4204
 2356SOL    HW2 9422   3.685   0.351   3.808  0.8089 -0.3088 -0.1255
 2356SOL    HW3 9423   3.615   0.217   3.809 -0.5486  0.3873 -0.3986
 2356SOL    MW4 9424   3.620   0.300   3.835  0.1851  0.3405 -0.3786
 2357SOL     OW 9425   3.820   0.452   3.718 -0.1089  0.5117  0.4880
 2357SOL    HW2 9426   3.893   0.410   3.765  0.7811 -0.1269 -1.4200
 2357SOL    HW3 9427   3.806   0.534   3.765  0.3321 -0.3840  2.2534
 2357SOL    MW4 9428   3.828   0.457   3.731  0.0667  0.3093  0.4692
 2358SOL     OW 9429   3.810   0.697   3.857 -0.0975 -0.3135  0.2801
 2358SOL    HW2 9430   3.891   0.742   3.834  0.1026 -1.0606 -0.4886
 2358SOL    HW3 9431   3.742   0.741   3.807 -0.1628  0.2736  0.8777
 2358SOL    MW4 9432   3.812   0.708   3.848 -0.0797 -0.3346  0.2575
 2359SOL     OW 9433   3.606   0.859   3.784  0.4130 -0.0204  0.0639
 2359SOL    HW2 9434   3.617   0.938   3.837 -0.4082 -0.0235  0.2491
 2359SOL    HW3 9435   3.521   0.824   3.812  0.6480 -0.8171 -0.2127
 2359SOL    MW4 9436   3.596   0.865   3.795  0.3357 -0.1259  0.0519
 2360SOL     OW 9437   3.587   1.132   3.903 -0.1994 -0.3405  0.7007
 2360SOL    HW2 9438   3.644   1.182   3.845 -0.0541 -2.0016 -0.6072
 2360SOL    HW3 9439   3.499   1.147   3.870 -0.2270 -0.3018  0.7925
 2360SOL    MW4 9440   3.583   1.141   3.891 -0.1839 -0.5545  0.5403
 2361SOL     OW 9441   3.782   1.252   3.736 -0.0511  0.3076 -0.3086
 2361SOL    HW2 9442   3.851   1.199   3.774 -0.0164  0.4721 -0.1401
 2361SOL    HW3 9443   3.803   1.342   3.763  1.4264  0.7896 -2.8401
 2361SOL    MW4 9444   3.794   1.257   3.745  0.1484  0.3929 -0.6204
 2362SOL     OW 9445   3.796   1.513   3.856 -0.0283 -0.0191  0.5696
 2362SOL    HW2 9446   3.799   1.487   3.948 -3.4772 -2.4190  0.0878
 2362SOL    HW3 9447   3.728   1.580   3.852 -0.1244 -0.1661 -0.2756
 2362SOL    MW4 9448   3.788   1.518   3.868 -0.4960 -0.3551  0.3945
 2363SOL     OW 9449   3.570   1.678   3.810  0.0498 -0.4107 -0.0645
 2363SOL    HW2 9450   3.496   1.624   3.838  0.1780  0.3945  1.9057
 2363SOL    HW3 9451   3.553   1.696   3.718 -1.6261 -1.1717  0.0832
 2363SOL    MW4 9452   3.558   1.673   3.801 -0.1544 -0.4049  0.2149
 2364SOL     OW 9453   3.601   1.952   3.867 -0.7707  0.1936  0.2319
 2364SOL    HW2 9454   3.589   1.857   3.867 -0.5112  0.1619  0.5590
 2364SOL    HW3 9455   3.524   1.986   3.822 -0.0383 -0.2827 -1.4121
 2364SOL    MW4 9456   3.589   1.944   3.861 -0.6399  0.1266  0.0582
 2365SOL     OW 9457   3.858   2.053   3.787  0.2606 -0.4391  0.2695
 2365SOL    HW2 9458   3.907   1.973   3.804 -0.6992 -0.9847  0.5136
 2365SOL    HW3 9459   3.767   2.031   3.807 -0.1747  0.3850 -0.7240
 2365SOL    MW4 9460   3.853   2.040   3.792  0.0765 -0.4024  0.1707
 2366SOL     OW 9461   3.767   2.304   3.911  0.0066  0.0328  0.1817
 2366SOL    HW2 9462   3.700   2.339   3.853  0.8887 -0.2851 -1.0668
 2366SOL    HW3 9463   3.790   2.219   3.873  0.0334 -0.5430  1.4544
 2366SOL    MW4 9464   3.761   2.297   3.898  0.1265 -0.0851  0.1849
 2367SOL     OW 9465   3.582   2.444   3.761 -0.5222  0.1500  0.7489
 2367SOL    HW2 9466   3.510   2.396   3.802 -0.4509 -0.5991  0.0066
 2367SOL    HW3 9467   3.572   2.427   3.667 -0.2843  1.2952  0.5075
 2367SOL    MW4 9468   3.571   2.436   3.754 -0.4814  0.2023  0.6191
 2368SOL     OW 9469   3.618   2.693   3.893  0.3075 -0.4240  0.2385
 2368SOL    HW2 9470   3.613   2.603   3.860 -0.0359 -0.0240 -0.8256
 2368SOL    HW3 9471   3.541   2.736   3.857  1.4587  0.7946 -0.8058
 2368SOL    MW4 9472   3.608   2.687   3.884  0.4141 -0.2105 -0.0397
 2369SOL     OW 9473   3.807   2.846   3.767 -0.7922  0.1297 -0.0480
 2369SOL    HW2 9474   3.885   2.803   3.802 -1.5652 -0.5826  0.8282
 2369SOL    HW3 9475   3.734   2.793   3.800 -1.6198  0.4710 -1.2964
 2369SOL    MW4 9476   3.807   2.833   3.776 -1.0034  0.0808 -0.0971
 2370SOL     OW 9477   3.774   3.091   3.895 -0.0733  0.0971 -0.3215
 2370SOL    HW2 9478   3.701   3.141   3.857 -0.5276 -0.4713 -0.1946
 2370SOL    HW3 9479   3.771   3.007   3.850  0.6087  0.1240 -0.4309
 2370SOL    MW4 9480   3.764   3.087   3.884 -0.0433  0.0257 -0.3192
 2371SOL     OW 9481   3.567   3.195   3.750 -0.0097 -0.1287 -0.0014
 2371SOL    HW2 9482   3.590   3.283   3.779  0.2133 -0.2170  0.0868
 2371SOL    HW3 9483   3.582   3.196   3.655  0.0912 -0.1043  0.0151
 2371SOL    MW4 9484   3.572   3.207   3.741  0.0330 -0.1371  0.0124
 2372SOL     OW 9485   3.606   3.431   3.842  0.0420 -0.4989 -0.0515
 2372SOL    HW2 9486   3.620   3.435   3.937  0.4528 -2.4410 -0.0220
 2372SOL    HW3 9487   3.524   3.479   3.828  0.4353  0.5655  1.1754
 2372SOL    MW4 9488   3.597   3.438   3.853  0.1481 -0.6147  0.1143
 2373SOL     OW 9489   3.819   3.595   3.787 -0.1575 -0.0563 -0.0294
 2373SOL    HW2 9490   3.794   3.687   3.793 -1.4361 -0.2016 -2.6931
 2373SOL    HW3 9491   3.740   3.547   3.813  0.0125 -0.4236 -0.1921
 2373SOL    MW4 9492   3.805   3.601   3.791 -0.3038 -0.1239 -0.4023
 2374SOL     OW 9493   3.761   3.851   3.815  0.3350 -0.3089 -0.4562
 2374SOL    HW2 9494   3.768   3.865   3.910  1.3883 -1.0137 -0.4200
 2374SOL    HW3 9495   3.837   3.895   3.779  0.2759 -0.5966 -0.9239
 2374SOL    MW4 9496   3.772   3.859   3.823  0.4661 -0.4399 -0.5132
 2375SOL     OW 9497   3.539   3.992   3.742 -0.4514 -0.0042 -0.0840
 2375SOL    HW2 9498   3.531   4.075   3.790  1.8102  1.7952 -2.6081
 2375SOL    HW3 9499   3.608   3.945   3.787 -0.9720 -0.0246  0.6996
 2375SOL    MW4 9500   3.547   3.997   3.754 -0.2217  0.2305 -0.3136
 2376SOL     OW 9501   3.576   4.230   3.885 -0.5917 -0.1911 -0.0906
 2376SOL    HW2 9502   3.575   4.253   3.978 -2.8370  0.5983 -0.2739
 2376SOL    HW3 9503   3.659   4.266   3.852  0.4363 -0.9112  1.6975
 2376SOL    MW4 9504   3.587   4.238   3.893 -0.7523 -0.1819  0.1211
 2377SOL     OW 9505   3.791   4.399   3.779  0.1240 -0.0472  0.8615
 2377SOL    HW2 9506   3.875   4.357   3.794 -0.9141 -1.6426  2.3053
 2377SOL    HW3 9507   3.779   4.394   3.684  1.1391 -0.7927  0.7646
 2377SOL    MW4 9508   3.801   4.393   3.768  0.1210 -0.3560  1.0392
 2378SOL     OW 9509   4.254   4.609   3.850  0.3202  0.1633 -0.0919
 2378SOL    HW2 9510   4.242   4.621   3.944 -0.8619  1.1953 -0.3667
 2378SOL    HW3 9511   4.317   4.677   3.825  3.8976 -2.7007  0.6359
 2378SOL    MW4 9512   4.261   4.620   3.859  0.6362 -0.0784 -0.0321
 2379SOL     OW 9513   4.065   0.114   3.766  0.0550  0.0926 -0.5596
 2379SOL    HW2 9514   4.127   0.056   3.810 -0.2625 -0.1684 -0.4565
 2379SOL    HW3 9515   4.074   0.093   3.673  0.8893  0.8032 -0.6429
 2379SOL    MW4 9516   4.074   0.104   3.759  0.1232  0.1519 -0.5570
 2380SOL     OW 9517   4.053   0.382   3.845 -0.2621 -0.1104 -0.3227
 2380SOL    HW2 9518   4.016   0.360   3.930  0.1753  0.0425 -0.0883
 2380SOL    HW3 9519   4.073   0.297   3.805  0.4085 -0.1727  0.1264
 2380SOL    MW4 9520   4.051   0.368   3.851 -0.1159 -0.0984 -0.2325
 2381SOL     OW 9521   4.280   0.553   3.803  0.3097  0.2084  0.6009
 2381SOL    HW2 9522   4.204   0.505   3.837  0.4730  0.0967  0.8152
 2381SOL    HW3 9523   4.288   0.523   3.713 -0.4824  0.9510  0.2815
 2381SOL    MW4 9524   4.271   0.542   3.796  0.2267  0.2916  0.5871
 2382SOL     OW 9525   4.280   0.822   3.854 -0.1087 -0.0022 -0.2382
 2382SOL    HW2 9526   4.201   0.866   3.822 -0.7567 -0.4916  0.6705
 2382SOL    HW3 9527   4.264   0.729   3.838  0.8130 -0.0152 -1.1700
 2382SOL    MW4 9528   4.268   0.816   3.847 -0.0726 -0.0685 -0.2413
 2383SOL     OW 9529   4.008   0.881   3.777  0.0125 -0.5039  0.0174
 2383SOL    HW2 9530   4.000   0.962   3.828 -1.0664 -0.6623  0.1270
 2383SOL    HW3 9531   4.031   0.911   3.689  1.9368 -0.2344  0.5938
 2383SOL    MW4 9532   4.010   0.896   3.772  0.1241 -0.4892  0.1079
 2384SOL     OW 9533   4.004   1.147   3.862 -0.1125  0.4377 -0.0684
 2384SOL    HW2 9534   4.008   1.159   3.957  1.7144 -3.0001  0.3571
 2384SOL    HW3 9535   4.093   1.163   3.832  0.0834 -1.6657 -0.7151
 2384SOL    MW4 9536   4.016   1.151   3.871  0.1544 -0.2934 -0.0976
 2385SOL     OW 9537   4.276   1.232   3.799  0.5121 -0.1991  0.3255
 2385SOL    HW2 9538   4.264   1.319   3.837  0.6829 -0.0920  0.1397
 2385SOL    HW3 9539   4.260   1.245   3.705  0.5140 -0.3720  0.3016
 2385SOL    MW4 9540   4.273   1.246   3.791  0.5348 -0.2078  0.2978
 2386SOL     OW 9541   4.261   1.488   3.890 -0.4027  0.2866  0.2980
 2386SOL    HW2 9542   4.185   1.533   3.852 -0.1285 -0.0545 -0.6532
 2386SOL    HW3 9543   4.337   1.537   3.859 -0.1704 -0.0681  0.2970
 2386SOL    MW4 9544   4.261   1.500   3.881 -0.3358  0.1948  0.1724
 2387SOL     OW 9545   4.055   1.634   3.797  0.0606 -0.2415  0.2066
 2387SOL    HW2 9546   4.045   1.722   3.833  0.3343 -0.7445  1.5858
 2387SOL    HW3 9547   3.982   1.585   3.834  0.6663 -0.9107  0.5399
 2387SOL    MW4 9548   4.044   1.639   3.807  0.1766 -0.3962  0.4326
 2388SOL     OW 9549   4.037   1.873   3.909  0.0087 -0.0517 -0.4907
 2388SOL    HW2 9550   4.025   1.889   4.002  0.9818 -1.5160 -0.0933
 2388SOL    HW3 9551   4.096   1.942   3.879 -0.5352  0.5848 -0.0814
 2388SOL    MW4 9552   4.043   1.884   3.917  0.0653 -0.1609 -0.3843
 2389SOL     OW 9553   4.223   2.060   3.753  0.0182 -0.5558  0.1857
 2389SOL    HW2 9554   4.249   2.148   3.781  2.2740 -1.1172 -0.0603
 2389SOL    HW3 9555   4.240   2.059   3.659 -0.2285 -1.1932  0.1473
 2389SOL    MW4 9556   4.228   2.072   3.745  0.2833 -0.7139  0.1482
 2390SOL     OW 9557   4.255   2.316   3.850 -0.0007 -0.5186 -0.2081
 2390SOL    HW2 9558   4.256   2.321   3.946  0.6376  1.6858 -0.2986
 2390SOL    HW3 9559   4.170   2.352   3.825  0.6031  0.7423 -0.5144
 2390SOL    MW4 9560   4.244   2.322   3.860  0.1632 -0.0614 -0.2605
 2391SOL     OW 9561   4.015   2.434   3.796 -0.1898 -0.3462 -0.6477
 2391SOL    HW2 9562   4.007   2.522   3.834  1.5856 -0.2004 -0.5833
 2391SOL    HW3 9563   3.948   2.383   3.840  0.7870  0.2125  1.5725
 2391SOL    MW4 9564   4.005   2.439   3.806  0.1733 -0.2532 -0.3463
 2392SOL     OW 9565   4.024   2.707   3.873  0.1945 -0.3879 -0.3509
 2392SOL    HW2 9566   4.026   2.716   3.968 -0.1339  1.7296 -0.5204
 2392SOL    HW3 9567   4.106   2.747   3.844  0.2265 -0.8937 -0.9731
 2392SOL    MW4 9568   4.035   2.714   3.882  0.1554 -0.1752 -0.4553
 2393SOL     OW 9569   4.246   2.815   3.781 -0.1170 -0.9359  0.4682
 2393SOL    HW2 9570   4.244   2.900   3.825 -0.1815 -0.1007 -1.1061
 2393SOL    HW3 9571   4.327   2.774   3.810  0.6632  0.3130  0.0556
 2393SOL    MW4 9572   4.256   2.821   3.790 -0.0226 -0.6609  0.2060
 2394SOL     OW 9573   4.271   3.046   3.912  0.0450 -0.4751 -0.4758
 2394SOL    HW2 9574   4.191   3.094   3.893  0.8425  0.8615 -0.5252
 2394SOL    HW3 9575   4.338   3.090   3.860  1.1228 -0.5235  0.8366
 2394SOL    MW4 9576   4.269   3.058   3.903  0.2924 -0.3052 -0.3092
 2395SOL     OW 9577   4.028   3.185   3.805 -0.0534 -0.2323  0.6588
 2395SOL    HW2 9578   3.940   3.148   3.809  0.2006 -1.0073 -0.6768
 2395SOL    HW3 9579   4.044   3.202   3.712  1.3151 -0.3874  0.8450
 2395SOL    MW4 9580   4.019   3.182   3.793  0.1606 -0.3550  0.5072
 2396SOL     OW 9581   4.059   3.444   3.882  0.1979 -0.0670  0.4904
 2396SOL    HW2 9582   4.062   3.349   3.879  1.7614 -0.0588  1.0221
 2396SOL    HW3 9583   3.982   3.468   3.830  0.1574 -1.5907 -0.1721
 2396SOL    MW4 9584   4.049   3.435   3.874  0.3989 -0.2669  0.4732
 2397SOL     OW 9585   4.228   3.643   3.762  0.5622 -0.0550  0.0388
 2397SOL    HW2 9586   4.144   3.601   3.778 -0.1046  1.8189  1.6806
 2397SOL    HW3 9587   4.293   3.582   3.798 -0.2458 -0.6659  0.4619
 2397SOL    MW4 9588   4.226   3.630   3.769  0.3676  0.1116  0.3112
 2398SOL     OW 9589   4.249   3.911   3.864  0.0546  0.4296 -0.5507
 2398SOL    HW2 9590   4.166   3.944   3.828 -0.4780 -0.2908 -0.0173
 2398SOL    HW3 9591   4.245   3.817   3.847 -0.2101  0.0842  1.3820
 2398SOL    MW4 9592   4.237   3.903   3.857 -0.0506  0.2890 -0.2253
 2399SOL     OW 9593   3.998   4.002   3.774 -0.3101  0.2947 -0.3651
 2399SOL    HW2 9594   3.994   4.090   3.809  0.9567 -0.1311  0.8902
 2399SOL    HW3 9595   4.017   4.014   3.681 -1.3486  1.3592 -0.4506
 2399SOL    MW4 9596   4.000   4.015   3.766 -0.2800  0.3790 -0.2107
 2400SOL     OW 9597   4.028   4.277   3.849  0.0122  0.7646  0.3328
 2400SOL    HW2 9598   4.029   4.287   3.945 -0.9115 -0.5053  0.4790
 2400SOL    HW3 9599   4.119   4.293   3.823  0.3393  0.7965  1.4496
 2400SOL    MW4 9600   4.040   4.281   3.859 -0.0665  0.6012  0.4994
 2401SOL     OW 9601   4.279   4.349   3.758 -0.3299 -0.1327  0.2878
 2401SOL    HW2 9602   4.284   4.445   3.762 -0.6733 -0.0395 -1.0625
 2401SOL    HW3 9603   4.359   4.319   3.802 -0.1092  0.7836  0.5272
 2401SOL    MW4 9604   4.290   4.358   3.764 -0.3461  0.0005  0.1413
 2402SOL     OW 9605   0.225   4.639   4.133 -0.3700  0.3917 -0.6123
 2402SOL    HW2 9606   0.295   4.690   4.174 -0.7125  0.9003 -0.6656
 2402SOL    HW3 9607   0.225   4.556   4.182  0.9575 -0.0226 -1.2916
 2402SOL    MW4 9608   0.235   4.635   4.145 -0.2401  0.4041 -0.7090
 2403SOL     OW 9609   4.487   0.074   4.255  0.2879 -0.3100 -0.2797
 2403SOL    HW2 9610   4.508   0.088   4.347  0.9501  1.2962 -0.6622
 2403SOL    HW3 9611   4.563   0.030   4.219 -0.3670 -1.8190  0.1426
 2403SOL    MW4 9612   4.500   0.070   4.262  0.2889 -0.2972 -0.2745
 2404SOL     OW 9613   4.475   0.340   4.166  0.1074  0.0805 -0.1192
 2404SOL    HW2 9614   4.469   0.246   4.184 -1.3398  0.0356 -0.7575
 2404SOL    HW3 9615   4.496   0.345   4.073  1.4768  0.3827  0.2003
 2404SOL    MW4 9616   4.477   0.328   4.156  0.0971  0.1145 -0.1612
 2405SOL     OW 9617   0.204   0.489   4.291  0.3590  0.4392  0.2528
 2405SOL    HW2 9618   0.272   0.435   4.252 -1.6445 -0.3427 -2.2614
 2405SOL    HW3 9619   0.123   0.441   4.277 -0.8015  1.4619  2.9718
 2405SOL    MW4 9620   0.203   0.476   4.284 -0.0584  0.4710  0.2798
 2406SOL     OW 9621   0.262   0.714   4.138 -0.1312  0.1081 -0.0983
 2406SOL    HW2 9622   0.189   0.769   4.163 -1.4970 -1.7397  0.1085
 2406SOL    HW3 9623   0.254   0.636   4.194  0.3919 -1.2945 -1.9135
 2406SOL    MW4 9624   0.251   0.711   4.148 -0.2424 -0.3208 -0.3105
 2407SOL     OW 9625   0.059   0.872   4.248 -0.4027  0.6204  0.1033
 2407SOL    HW2 9626  -0.021   0.835   4.212 -0.0500 -0.3290  0.2763
 2407SOL    HW3 9627   0.053   0.966   4.229 -0.5278  0.2356 -1.8264
 2407SOL    MW4 9628   0.048   0.880   4.241 -0.3726  0.4443 -0.1285
 2408SOL     OW 9629   0.011   1.155   4.170  0.3750  0.1095 -0.1529
 2408SOL    HW2 9630   0.081   1.216   4.194  0.1208  0.5928 -0.6277
 2408SOL    HW3 9631   0.020   1.144   4.076 -0.4225  0.4698 -0.2741
 2408SOL    MW4 9632   0.022   1.162   4.161  0.2363  0.2208 -0.2315
 2409SOL     OW 9633   0.237   1.310   4.208  0.3593 -0.2644 -0.3283
 2409SOL    HW2 9634   0.320   1.274   4.177  0.7392  0.1604  0.1821
 2409SOL    HW3 9635   0.239   1.402   4.182  0.5077  0.0007  0.5855
 2409SOL    MW4 9636   0.248   1.317   4.201  0.4290 -0.1733 -0.1404
 2410SOL     OW 9637   0.269   1.303   4.492 -0.0563  0.2464  0.5016
 2410SOL    HW2 9638   0.206   1.246   4.537  0.8289 -0.6552  0.6192
 2410SOL    HW3 9639   0.262   1.278   4.400  0.1380  0.1345  0.5177
 2410SOL    MW4 9640   0.260   1.292   4.486  0.0861  0.1126  0.5192
 2411SOL     OW 9641   4.487   1.719   4.274  0.6042 -0.4971  0.2645
 2411SOL    HW2 9642   4.418   1.673   4.227 -1.1259 -0.7507  2.8932
 2411SOL    HW3 9643   4.494   1.803   4.229 -1.9549 -0.1810  0.3497
 2411SOL    MW4 9644   4.479   1.724   4.262  0.0383 -0.4889  0.6226
 2412SOL     OW 9645   0.187   2.057   4.240  0.1908  0.1414  0.5505
 2412SOL    HW2 9646   0.181   2.028   4.331  0.5482 -1.0499  0.2043
 2412SOL    HW3 9647   0.260   2.007   4.203 -0.9683 -0.5860 -0.8202
 2412SOL    MW4 9648   0.196   2.047   4.247  0.0851 -0.1118  0.3240
 2413SOL     OW 9649   0.209   1.996   4.510 -0.2186  0.3143 -0.1948
 2413SOL    HW2 9650   0.159   1.937   4.566  0.7375  0.4650  0.8421
 2413SOL    HW3 9651   0.198   2.082   4.551 -0.1183  0.5472 -0.6566
 2413SOL    MW4 9652   0.201   2.000   4.523 -0.0792  0.3649 -0.1189
 2414SOL     OW 9653   0.243   2.297   4.099  0.4489  0.2755  0.2344
 2414SOL    HW2 9654   0.313   2.334   4.153  1.6213 -2.4925  0.7002
 2414SOL    HW3 9655   0.216   2.218   4.146 -3.1521  1.4021  0.1557
 2414SOL    MW4 9656   0.249   2.291   4.113  0.1285  0.0589  0.2854
 2415SOL     OW 9657   0.019   2.439   4.249 -0.0467 -0.4642 -0.3095
 2415SOL    HW2 9658  -0.058   2.410   4.200  0.6538 -1.2675 -0.9532
 2415SOL    HW3 9659   0.089   2.380   4.220  0.7508  0.1031  0.4508
 2415SOL    MW4 9660   0.018   2.427   4.239  0.1510 -0.4953 -0.2941
 2416SOL     OW 9661   4.487   2.707   4.194 -0.2888 -0.1439 -0.0268
 2416SOL    HW2 9662   4.567   2.755   4.214 -0.3907 -0.2883  0.7379
 2416SOL    HW3 9663   4.508   2.616   4.215 -1.1108  0.0144  1.5847
 2416SOL    MW4 9664   4.500   2.701   4.200 -0.4107 -0.1421  0.2868
 2417SOL     OW 9665   0.234   2.828   4.253  0.1984 -0.1297  0.4069
 2417SOL    HW2 9666   0.310   2.787   4.212 -0.1945  0.2448 -0.7484
 2417SOL    HW3 9667   0.230   2.915   4.213 -0.8452 -0.1622  0.4209
 2417SOL    MW4 9668   0.243   2.834   4.242  0.0088 -0.0846  0.2563
 2418SOL     OW 9669   0.242   3.077   4.147  0.3937  0.1521  0.2903
 2418SOL    HW2 9670   0.318   3.122   4.183  0.3864 -1.6519  2.6758
 2418SOL    HW3 9671   0.167   3.116   4.192  0.0643  0.4730 -0.5265
 2418SOL    MW4 9672   0.243   3.088   4.158  0.3493 -0.0435  0.4973
 2419SOL     OW 9673   0.005   3.203   4.258 -0.4372 -0.2584  0.4462
 2419SOL    HW2 9674  -0.077   3.157   4.239  0.7744 -1.4425 -2.1948
 2419SOL    HW3 9675  -0.015   3.295   4.240 -1.6227 -0.3116  1.4007
 2419SOL    MW4 9676  -0.009   3.209   4.253 -0.4338 -0.4217  0.2237
 2420SOL     OW 9677   4.459   3.494   4.163  0.2406 -0.3713 -0.6300
 2420SOL    HW2 9678   4.402   3.559   4.204  0.4828  0.6934 -1.9549
 2420SOL    HW3 9679   4.428   3.487   4.074  0.0830 -2.2588 -0.4369
 2420SOL    MW4 9680   4.448   3.502   4.157  0.2518 -0.4799 -0.7793
 2421SOL     OW 9681   0.198   3.616   4.267 -0.0955  0.2901  0.1016
 2421SOL    HW2 9682   0.269   3.570   4.221 -1.8201 -0.8275 -1.4940
 2421SOL    HW3 9683   0.118   3.578   4.232 -1.5112  1.6696  1.7610
 2421SOL    MW4 9684   0.197   3.605   4.256 -0.5098  0.3246  0.1100
 2422SOL     OW 9685   0.260   3.896   4.202 -0.1971 -0.0866 -0.1560
 2422SOL    HW2 9686   0.177   3.933   4.231 -0.4455 -1.4279  0.8802
 2422SOL    HW3 9687   0.244   3.802   4.197  0.7228 -0.1744 -1.7662
 2422SOL    MW4 9688   0.247   3.889   4.205 -0.1085 -0.2751 -0.2318
 2423SOL     OW 9689   4.482   4.013   4.267 -0.5348  0.0873  0.0682
 2423SOL    HW2 9690   4.456   3.997   4.358 -0.2061  1.4998  0.4258
 2423SOL    HW3 9691   4.408   3.981   4.215 -1.2804  0.4460  0.8999
 2423SOL    MW4 9692   4.469   4.007   4.272 -0.5898  0.3210  0.2251
 2424SOL     OW 9693   4.488   4.276   4.220  0.3707  0.0364 -0.3072
 2424SOL    HW2 9694   4.490   4.183   4.245  1.4830  0.4118  1.0880
 2424SOL    HW3 9695   4.503   4.276   4.126  0.1981 -1.2101 -0.3417
 2424SOL    MW4 9696   4.490   4.263   4.211  0.4947 -0.0785 -0.1277
 2425SOL     OW 9697   0.210   4.418   4.307  0.3774 -0.3019 -0.2481
 2425SOL    HW2 9698   0.202   4.410   4.402 -1.4315 -0.2371 -0.3777
 2425SOL    HW3 9699   0.134   4.370   4.273 -0.4476  1.9061 -1.5883
 2425SOL    MW4 9700   0.199   4.410   4.315  0.0299 -0.0020 -0.4420
 2426SOL     OW 9701   0.676   0.039   4.127  0.0967 -0.2492 -0.0596
 2426SOL    HW2 9702   0.583   0.061   4.131  0.1976  0.3472 -0.7880
 2426SOL    HW3 9703   0.687  -0.003   4.042  0.9409  1.8985 -1.0453
 2426SOL    MW4 9704   0.665   0.037   4.116  0.2214  0.1129 -0.2858
 2427SOL     OW 9705   0.439   0.114   4.230 -0.1478 -0.1502  0.2469
 2427SOL    HW2 9706   0.459   0.092   4.321  0.0426 -0.7948  0.0540
 2427SOL    HW3 9707   0.435   0.210   4.228 -1.5737 -0.1798  1.2320
 2427SOL    MW4 9708   0.441   0.124   4.242 -0.3108 -0.2392  0.3514
 2428SOL     OW 9709   0.429   0.373   4.183  0.2337  0.2497 -0.4043
 2428SOL    HW2 9710   0.508   0.418   4.211  0.5172 -0.4236 -0.0896
 2428SOL    HW3 9711   0.437   0.367   4.088  1.5303 -1.5494 -0.2103
 2428SOL    MW4 9712   0.441   0.378   4.174  0.4422 -0.0765 -0.3372
 2429SOL     OW 9713   0.663   0.494   4.268  0.6276  0.2032 -0.0291
 2429SOL    HW2 9714   0.742   0.453   4.231  0.2858 -1.0214  0.5877
 2429SOL    HW3 9715   0.673   0.587   4.247  1.7431 -0.0884 -0.8538
 2429SOL    MW4 9716   0.675   0.501   4.260  0.7296  0.0032 -0.0565
 2430SOL     OW 9717   0.732   0.757   4.171  0.4205  0.3653  0.3987
 2430SOL    HW2 9718   0.644   0.793   4.184 -0.1214 -0.2355 -1.4115
 2430SOL    HW3 9719   0.740   0.747   4.076  1.4451 -2.0015  0.6988
 2430SOL    MW4 9720   0.721   0.760   4.160  0.4842 -0.0262  0.1994
 2431SOL     OW 9721   0.480   0.868   4.200  0.4331 -0.1344 -0.3118
 2431SOL    HW2 9722   0.467   0.951   4.155 -0.6635  0.1443  0.4869
 2431SOL    HW3 9723   0.405   0.815   4.175  0.2251 -0.2572  0.5540
 2431SOL    MW4 9724   0.469   0.872   4.191  0.2609 -0.1138 -0.0922
 2432SOL     OW 9725   0.462   1.133   4.114  0.5296  0.1740 -0.2688
 2432SOL    HW2 9726   0.544   1.168   4.148 -0.0960  0.2469  1.2206
 2432SOL    HW3 9727   0.469   1.143   4.019  2.5732 -0.5552 -0.2288
 2432SOL    MW4 9728   0.474   1.139   4.106  0.7167  0.0874 -0.0670
 2433SOL     OW 9729   0.684   1.239   4.233  0.1776 -0.1661  0.8407
 2433SOL    HW2 9730   0.720   1.232   4.322 -0.8516 -0.0818  1.2792
 2433SOL    HW3 9731   0.689   1.332   4.212 -0.8755  0.0214  1.3801
 2433SOL    MW4 9732   0.689   1.250   4.242 -0.0971 -0.1303  0.9697
 2434SOL     OW 9733   0.715   1.511   4.180 -0.0787  0.1836 -0.2117
 2434SOL    HW2 9734   0.796   1.556   4.203  0.6236 -0.8720 -0.5426
 2434SOL    HW3 9735   0.699   1.537   4.089  0.3533 -0.2695 -0.4192
 2434SOL    MW4 9736   0.723   1.520   4.171  0.0710 -0.0154 -0.2827
 2435SOL     OW 9737   0.222   1.591   4.154  0.3138  0.3290  0.0838
 2435SOL    HW2 9738   0.300   1.625   4.198  0.2271  0.7435 -0.0804
 2435SOL    HW3 9739   0.151   1.647   4.184  0.2117  0.4620 -0.3941
 2435SOL    MW4 9740   0.223   1.603   4.164  0.2889  0.4012 -0.0009
 2436SOL     OW 9741   0.415   1.922   4.152 -0.2326 -0.6417  0.3261
 2436SOL    HW2 9742   0.438   1.833   4.176 -0.0945 -0.7025 -0.0202
 2436SOL    HW3 9743   0.416   1.922   4.056  0.8199 -0.0096  0.3196
 2436SOL    MW4 9744   0.418   1.910   4.142 -0.0755 -0.5664  0.2796
 2437SOL     OW 9745   0.637   2.055   4.241 -0.0067 -0.2993  0.8584
 2437SOL    HW2 9746   0.641   2.021   4.330 -0.9194 -1.1752  0.5807
 2437SOL    HW3 9747   0.564   2.007   4.201  1.2391 -0.8826 -0.7537
 2437SOL    MW4 9748   0.628   2.044   4.247  0.0373 -0.4918  0.6091
 2438SOL     OW 9749   0.671   2.327   4.207 -0.3178 -0.2446 -0.0750
 2438SOL    HW2 9750   0.653   2.233   4.215  0.9226 -0.4954 -0.2055
 2438SOL    HW3 9751   0.668   2.344   4.113 -0.7166 -0.1187 -0.0390
 2438SOL    MW4 9752   0.668   2.317   4.196 -0.2067 -0.2610 -0.0874
 2439SOL     OW 9753   0.411   2.404   4.298 -0.2813 -0.3613 -0.2377
 2439SOL    HW2 9754   0.418   2.497   4.278  0.9981 -0.2268  0.7634
 2439SOL    HW3 9755   0.498   2.368   4.277 -0.9607 -1.4488 -1.2321
 2439SOL    MW4 9756   0.424   2.411   4.293 -0.2021 -0.4871 -0.2368
 2440SOL     OW 9757   0.461   2.678   4.176 -0.0466  0.0073  0.0258
 2440SOL    HW2 9758   0.548   2.716   4.188 -0.0099 -0.1518  0.2685
 2440SOL    HW3 9759   0.446   2.684   4.082 -0.1314  0.8170  0.0860
 2440SOL    MW4 9760   0.471   2.684   4.165 -0.0530  0.0931  0.0657
 2441SOL     OW 9761   0.680   2.813   4.220  0.3548  0.1537 -0.1363
 2441SOL    HW2 9762   0.691   2.820   4.315 -0.0574 -1.1009  0.0140
 2441SOL    HW3 9763   0.666   2.903   4.191 -0.2707  0.4688  1.0908
 2441SOL    MW4 9764   0.680   2.826   4.229  0.2179  0.0298  0.0454
 2442SOL     OW 9765   0.661   3.080   4.137  0.3941 -0.1702 -0.2584
 2442SOL    HW2 9766   0.740   3.124   4.170  0.7176 -0.6823 -0.3314
 2442SOL    HW3 9767   0.590   3.116   4.189  0.8416 -0.5992  0.6714
 2442SOL    MW4 9768   0.662   3.091   4.148  0.4958 -0.2943 -0.1453
 2443SOL     OW 9769   0.460   3.244   4.263 -0.5284 -0.3854 -0.5861
 2443SOL    HW2 9770   0.420   3.239   4.350 -0.6700 -1.9248 -0.7243
 2443SOL    HW3 9771   0.448   3.335   4.237 -1.9384 -0.2845  0.3198
 2443SOL    MW4 9772   0.453   3.255   4.271 -0.7331 -0.5752 -0.4848
 2444SOL     OW 9773   0.434   3.502   4.173 -0.1640  0.6028  0.0841
 2444SOL    HW2 9774   0.515   3.542   4.207 -0.4859  1.2251  0.1231
 2444SOL    HW3 9775   0.444   3.505   4.078 -0.4790  1.4050  0.0664
 2444SOL    MW4 9776   0.446   3.508   4.165 -0.2480  0.7908  0.0869
 2445SOL     OW 9777   0.678   3.623   4.285  0.1639  0.4858 -0.4905
 2445SOL    HW2 9778   0.725   3.611   4.367 -0.4041 -2.6254 -0.5709
 2445SOL    HW3 9779   0.731   3.578   4.219 -1.5016 -0.7211 -1.0512
 2445SOL    MW4 9780   0.691   3.616   4.287 -0.1308 -0.0839 -0.5751
 2446SOL     OW 9781   0.677   3.877   4.182 -0.1908  0.3162  0.0532
 2446SOL    HW2 9782   0.611   3.924   4.232  1.3995 -0.3782  2.9301
 2446SOL    HW3 9783   0.680   3.790   4.222  2.2087  0.2374 -0.2095
 2446SOL    MW4 9784   0.669   3.871   4.194  0.3356  0.2142  0.3981
 2447SOL     OW 9785   0.484   4.030   4.312 -0.4051 -0.6157 -0.7620
 2447SOL    HW2 9786   0.474   4.124   4.296  1.3624 -0.6696 -2.4535
 2447SOL    HW3 9787   0.415   3.989   4.260 -0.6354 -0.2970 -0.7076
 2447SOL    MW4 9788   0.474   4.037   4.303 -0.2023 -0.5807 -0.9780
 2448SOL     OW 9789   0.432   4.286   4.212  0.1925  0.2998 -0.1498
 2448SOL    HW2 9790   0.362   4.336   4.255 -0.0499 -0.6087  0.5381
 2448SOL    HW3 9791   0.408   4.286   4.119 -1.4204 -1.0580  0.2363
 2448SOL    MW4 9792   0.419   4.293   4.205 -0.0523  0.0008 -0.0081
 2449SOL     OW 9793   0.667   4.432   4.283 -0.0238 -0.3603  0.7000
 2449SOL    HW2 9794   0.587   4.387   4.254  0.6700 -0.4389 -1.1170
 2449SOL    HW3 9795   0.664   4.517   4.241  0.5907 -0.1572  1.0634
 2449SOL    MW4 9796   0.656   4.437   4.274  0.1488 -0.3439  0.5082
 2450SOL     OW 9797   1.146   4.622   4.161 -0.3065 -0.1168 -0.1987
 2450SOL    HW2 9798   1.123   4.535   4.191 -1.7610  0.1080 -0.6341
 2450SOL    HW3 9799   1.170   4.611   4.069 -0.0810 -0.1129 -0.1424
 2450SOL    MW4 9800   1.146   4.609   4.153 -0.4687 -0.0866 -0.2487
 2451SOL     OW 9801   0.925   0.139   4.239  0.0875  0.0342 -0.6251
 2451SOL    HW2 9802   0.993   0.091   4.190 -0.2364 -1.7769  0.6607
 2451SOL    HW3 9803   0.843   0.109   4.201 -0.0633  1.3586 -1.3872
 2451SOL    MW4 9804   0.923   0.128   4.228  0.0248 -0.0300 -0.5560
 2452SOL     OW 9805   0.896   0.395   4.156  0.1037  0.1867  0.2574
 2452SOL    HW2 9806   0.967   0.450   4.190 -0.5719  1.0082  0.3435
 2452SOL    HW3 9807   0.915   0.308   4.191  1.7876  0.1180 -0.7764
 2452SOL    MW4 9808   0.908   0.391   4.166  0.2367  0.2860  0.1323
 2453SOL     OW 9809   1.121   0.510   4.261  0.7099 -0.0312 -0.0488
 2453SOL    HW2 9810   1.126   0.473   4.349  0.1974  0.6668  0.2764
 2453SOL    HW3 9811   1.199   0.478   4.217  1.3748  0.2539  0.9092
 2453SOL    MW4 9812   1.132   0.501   4.267  0.7300  0.0985  0.1205
 2454SOL     OW 9813   1.138   0.764   4.126  0.3179 -0.1616 -0.0994
 2454SOL    HW2 9814   1.212   0.814   4.159  0.2707  0.1099 -0.4052
 2454SOL    HW3 9815   1.142   0.681   4.175  1.0124 -0.2813 -0.3506
 2454SOL    MW4 9816   1.148   0.760   4.137  0.4033 -0.1416 -0.1729
 2455SOL     OW 9817   0.946   0.873   4.281 -0.2428  0.1517 -0.1009
 2455SOL    HW2 9818   1.023   0.847   4.231  0.0034  1.2976 -0.3391
 2455SOL    HW3 9819   0.872   0.832   4.237 -0.0110  1.0250 -1.3219
 2455SOL    MW4 9820   0.946   0.864   4.269 -0.1797  0.4181 -0.2934
 2456SOL     OW 9821   0.940   1.150   4.120  0.3459 -0.1638  0.1683
 2456SOL    HW2 9822   0.967   1.065   4.155 -0.3708 -1.1734 -1.6912
 2456SOL    HW3 9823   0.858   1.169   4.166  0.6770 -0.3149  0.8346
 2456SOL    MW4 9824   0.933   1.141   4.131  0.2950 -0.3169  0.0109
 2457SOL     OW 9825   1.107   1.290   4.283 -0.6734 -0.0670  0.3208
 2457SOL    HW2 9826   1.102   1.278   4.377 -0.2969 -0.7409  0.2579
 2457SOL    HW3 9827   1.038   1.235   4.247  0.1873 -1.0352  0.1146
 2457SOL    MW4 9828   1.097   1.281   4.290 -0.5102 -0.2836  0.2853
 2458SOL     OW 9829   1.123   1.545   4.152  0.3513  0.0461  0.3843
 2458SOL    HW2 9830   1.063   1.598   4.205  0.8533  0.6346  0.3623
 2458SOL    HW3 9831   1.134   1.464   4.202  0.5935  0.4823  1.0333
 2458SOL    MW4 9832   1.117   1.541   4.165  0.4495  0.1813  0.4670
 2459SOL     OW 9833   0.909   1.701   4.284  0.7525  0.1911  0.1167
 2459SOL    HW2 9834   0.930   1.744   4.367  0.2337  0.1038  0.2906
 2459SOL    HW3 9835   0.899   1.773   4.222  0.5659  0.2835  0.2559
 2459SOL    MW4 9836   0.911   1.716   4.287  0.6594  0.1918  0.1580
 2460SOL     OW 9837   0.868   1.945   4.141  0.2696  0.1128 -0.5618
 2460SOL    HW2 9838   0.784   1.991   4.149  0.5487  0.3525  1.3043
 2460SOL    HW3 9839   0.894   1.958   4.050 -1.5002  0.4097 -1.0444
 2460SOL    MW4 9840   0.860   1.953   4.130  0.0729  0.1836 -0.3792
 2461SOL     OW 9841   1.097   2.079   4.235 -0.4557 -0.5379  0.3628
 2461SOL    HW2 9842   1.112   2.071   4.329 -0.3450 -1.7259  0.2548
 2461SOL    HW3 9843   1.014   2.034   4.220 -0.5523 -0.2173 -0.0856
 2461SOL    MW4 9844   1.088   2.072   4.245 -0.4538 -0.6523  0.2894
 2462SOL     OW 9845   1.079   2.331   4.115  0.0422 -0.6205  0.0091
 2462SOL    HW2 9846   1.157   2.372   4.152 -0.6747 -0.8126  1.7849
 2462SOL    HW3 9847   1.081   2.241   4.147 -0.2565 -0.9849 -0.9708
 2462SOL    MW4 9848   1.089   2.325   4.124 -0.0918 -0.6939  0.1141
 2463SOL     OW 9849   0.919   2.429   4.295  0.3210  0.2193 -0.6322
 2463SOL    HW2 9850   0.985   2.396   4.235 -0.4538 -1.3407 -0.6733
 2463SOL    HW3 9851   0.836   2.397   4.260 -0.2462  0.2439  0.6330
 2463SOL    MW4 9852   0.917   2.420   4.283  0.1440  0.0167 -0.4707
 2464SOL     OW 9853   0.889   2.666   4.155 -0.6875  0.3258 -0.2940
 2464SOL    HW2 9854   0.875   2.586   4.206 -0.6069  1.0428  0.8764
 2464SOL    HW3 9855   0.808   2.716   4.165  0.0559  1.3336  0.7156
 2464SOL    MW4 9856   0.876   2.662   4.163 -0.5788  0.5533 -0.0064
 2465SOL     OW 9857   1.122   2.795   4.215 -0.3981  0.2928  0.0090
 2465SOL    HW2 9858   1.120   2.889   4.198  2.1348  0.4595  0.4420
 2465SOL    HW3 9859   1.032   2.767   4.202 -1.1043  2.6884 -0.6187
 2465SOL    MW4 9860   1.110   2.804   4.211 -0.1571  0.6308 -0.0167
 2466SOL     OW 9861   1.149   3.089   4.176  0.2547  0.3089  0.0542
 2466SOL    HW2 9862   1.238   3.124   4.177  0.1339  0.6445 -1.1454
 2466SOL    HW3 9863   1.132   3.067   4.085 -0.4546 -0.9064  0.4564
 2466SOL    MW4 9864   1.158   3.090   4.164  0.1452  0.1928 -0.0510
 2467SOL     OW 9865   0.914   3.232   4.186 -0.5011  0.1709  0.2772
 2467SOL    HW2 9866   0.904   3.242   4.281 -1.2863  0.4808  0.1699
 2467SOL    HW3 9867   1.004   3.202   4.174  0.0655  1.5117  1.0279
 2467SOL    MW4 9868   0.924   3.230   4.197 -0.5299  0.3887  0.3621
 2468SOL     OW 9869   0.835   3.488   4.089  0.1972 -0.1431 -0.0451
 2468SOL    HW2 9870   0.854   3.399   4.119  3.8481  0.4991 -0.2342
 2468SOL    HW3 9871   0.833   3.482   3.994  1.1893  0.0741 -0.0891
 2468SOL    MW4 9872   0.837   3.476   4.081  0.8098 -0.0297 -0.0758
 2469SOL     OW 9873   1.077   3.577   4.198 -0.1359  0.0994  0.5106
 2469SOL    HW2 9874   1.071   3.671   4.183  2.8154  0.1947 -0.3733
 2469SOL    HW3 9875   1.004   3.540   4.148 -0.5208  1.7860 -0.2262
 2469SOL    MW4 9876   1.066   3.584   4.190  0.2027  0.3345  0.2968
 2470SOL     OW 9877   1.062   3.853   4.175  0.6024  0.2427 -0.0205
 2470SOL    HW2 9878   1.144   3.884   4.214 -0.0841  0.6978  1.0727
 2470SOL    HW3 9879   0.995   3.913   4.209 -0.0764  0.3594 -1.5288
 2470SOL    MW4 9880   1.064   3.865   4.185  0.4223  0.3181 -0.0752
 2471SOL     OW 9881   0.881   4.026   4.300 -0.1379 -0.2418 -0.2747
 2471SOL    HW2 9882   0.870   4.111   4.257 -0.5056 -0.0529  0.1748
 2471SOL    HW3 9883   0.805   3.975   4.272 -0.3493 -0.1369  0.1004
 2471SOL    MW4 9884   0.870   4.031   4.291 -0.2143 -0.2030 -0.1659
 2472SOL     OW 9885   0.880   4.274   4.179  0.1683 -0.4505  0.0178
 2472SOL    HW2 9886   0.964   4.309   4.209  0.2933  0.8312 -1.7184
 2472SOL    HW3 9887   0.816   4.338   4.209 -0.0166 -0.6706  0.0902
 2472SOL    MW4 9888   0.883   4.287   4.187  0.1604 -0.3104 -0.2017
 2473SOL     OW 9889   1.116   4.370   4.264 -0.2404 -0.3588 -0.2705
 2473SOL    HW2 9890   1.111   4.371   4.359  0.7195 -1.3384 -0.2072
 2473SOL    HW3 9891   1.192   4.316   4.244 -0.1156  0.2793 -1.5846
 2473SOL    MW4 9892   1.125   4.363   4.274 -0.0973 -0.4038 -0.4355
 2474SOL     OW 9893   1.538   4.621   4.206 -0.7023  0.8062  0.2104
 2474SOL    HW2 9894   1.617   4.674   4.215 -0.0543 -0.3461  1.5393
 2474SOL    HW3 9895   1.468   4.676   4.240  0.1372  0.4335  2.6276
 2474SOL    MW4 9896   1.539   4.635   4.211 -0.5061  0.6050  0.7047
 2475SOL     OW 9897   1.336   0.135   4.254  0.3669  0.2825  0.1771
 2475SOL    HW2 9898   1.322   0.161   4.345  1.0603 -1.6922  0.8769
 2475SOL    HW3 9899   1.273   0.065   4.238 -0.1670  1.0171 -1.0681
 2475SOL    MW4 9900   1.326   0.129   4.264  0.3880  0.1189  0.1051
 2476SOL     OW 9901   1.323   0.397   4.125 -0.2110 -0.0996 -0.0699
 2476SOL    HW2 9902   1.404   0.440   4.153 -0.2014  0.9970 -1.6756
 2476SOL    HW3 9903   1.341   0.303   4.135  1.2765  0.1277 -0.4391
 2476SOL    MW4 9904   1.336   0.390   4.130 -0.0135  0.0751 -0.3305
 2477SOL     OW 9905   1.540   0.534   4.223  0.6619  0.1128  0.0070
 2477SOL    HW2 9906   1.554   0.548   4.317 -0.0692 -1.4354  0.3595
 2477SOL    HW3 9907   1.559   0.619   4.183  0.3607  0.9611  1.6221
 2477SOL    MW4 9908   1.544   0.547   4.230  0.5257  0.0205  0.2666
 2478SOL     OW 9909   1.565   0.779   4.122  0.3932  0.1608 -0.2491
 2478SOL    HW2 9910   1.638   0.808   4.177 -0.1367 -0.2602  0.6980
 2478SOL    HW3 9911   1.597   0.787   4.032  1.4294  0.4431  0.1429
 2478SOL    MW4 9912   1.579   0.783   4.117  0.4600  0.1425 -0.0724
 2479SOL     OW 9913   1.339   0.908   4.254  0.2722 -0.6993  0.2887
 2479SOL    HW2 9914   1.403   0.855   4.205 -1.1374 -1.3407 -0.8799
 2479SOL    HW3 9915   1.348   0.996   4.218  2.5193 -0.1197  2.1352
 2479SOL    MW4 9916   1.349   0.913   4.243  0.3827 -0.7075  0.3782
 2480SOL     OW 9917   1.331   1.155   4.140 -0.1316 -0.0645 -0.2351
 2480SOL    HW2 9918   1.251   1.191   4.178 -0.0935  0.4194 -0.6117
 2480SOL    HW3 9919   1.315   1.155   4.046 -0.2643 -1.3483 -0.2294
 2480SOL    MW4 9920   1.318   1.160   4.133 -0.1441 -0.1700 -0.2840
 2481SOL     OW 9921   1.581   1.262   4.237 -0.1943 -0.0153  0.1828
 2481SOL    HW2 9922   1.561   1.249   4.330 -1.2215 -3.4161 -0.4509
 2481SOL    HW3 9923   1.504   1.230   4.191  0.4412  1.3102 -1.8959
 2481SOL    MW4 9924   1.568   1.256   4.243 -0.2460 -0.2891 -0.1750
 2482SOL     OW 9925   1.589   1.552   4.223 -0.0280  0.0942 -0.1943
 2482SOL    HW2 9926   1.502   1.586   4.245  0.5447  1.1537  0.5552
 2482SOL    HW3 9927   1.581   1.457   4.233 -0.8852  0.2387  0.6822
 2482SOL    MW4 9928   1.576   1.544   4.227 -0.0656  0.2531  0.0202
 2483SOL     OW 9929   1.338   1.679   4.264  0.3832 -0.1989  0.0583
 2483SOL    HW2 9930   1.359   1.763   4.222  0.4426 -0.2059  0.0737
 2483SOL    HW3 9931   1.270   1.641   4.208 -0.0539  0.1209  0.3761
 2483SOL    MW4 9932   1.332   1.685   4.251  0.3334 -0.1577  0.1022
 2484SOL     OW 9933   1.340   1.931   4.151  0.3181  0.0830 -0.2838
 2484SOL    HW2 9934   1.414   1.976   4.192 -0.0846 -1.4778  2.2392
 2484SOL    HW3 9935   1.264   1.984   4.176  0.0682 -0.8903  1.0568
 2484SOL    MW4 9936   1.340   1.944   4.159  0.2320 -0.2514  0.2259
 2485SOL     OW 9937   1.576   2.021   4.251 -0.2239  0.6728 -0.0146
 2485SOL    HW2 9938   1.582   2.034   4.345  0.9919 -0.0433  0.0105
 2485SOL    HW3 9939   1.579   2.109   4.214  0.4079  0.8934  0.5585
 2485SOL    MW4 9940   1.577   2.034   4.258  0.0199  0.6074  0.0643
 2486SOL     OW 9941   1.556   2.280   4.142  0.8616 -0.1375 -0.0813
 2486SOL    HW2 9942   1.627   2.337   4.169  0.6600  0.3345 -0.5344
 2486SOL    HW3 9943   1.562   2.278   4.046 -0.2042  0.5134 -0.1625
 2486SOL    MW4 9944   1.566   2.287   4.133  0.6944  0.0106 -0.1518
 2487SOL     OW 9945   1.338   2.417   4.250 -0.0942  0.3038  0.2730
 2487SOL    HW2 9946   1.355   2.509   4.230 -2.6907  0.8679  0.4840
 2487SOL    HW3 9947   1.415   2.371   4.216  0.2717  2.3114 -1.7672
 2487SOL    MW4 9948   1.350   2.423   4.243 -0.3885  0.6431  0.0317
 2488SOL     OW 9949   1.371   2.666   4.162  0.0416 -0.0560 -0.2750
 2488SOL    HW2 9950   1.437   2.723   4.200  1.2064 -1.6311  0.1379
 2488SOL    HW3 9951   1.287   2.705   4.187  0.8077  1.2644  0.2724
 2488SOL    MW4 9952   1.368   2.678   4.170  0.2964 -0.0896 -0.1483
 2489SOL     OW 9953   1.528   2.898   4.203  0.2202 -0.1793 -0.0037
 2489SOL    HW2 9954   1.515   2.896   4.298 -0.1273  0.4207 -0.0342
 2489SOL    HW3 9955   1.553   2.989   4.185  0.5488 -0.3594 -0.4533
 2489SOL    MW4 9956   1.530   2.910   4.213  0.2177 -0.1239 -0.0670
 2490SOL     OW 9957   1.705   3.149   4.107 -0.4043 -0.9137 -0.2186
 2490SOL    HW2 9958   1.721   3.238   4.137  0.3440 -0.4966 -1.8241
 2490SOL    HW3 9959   1.791   3.107   4.107 -0.7553 -1.6507  0.5625
 2490SOL    MW4 9960   1.718   3.155   4.111 -0.3518 -0.9559 -0.3274
 2491SOL     OW 9961   1.394   3.197   4.224  0.0411 -0.0990 -0.1464
 2491SOL    HW2 9962   1.426   3.200   4.315 -1.9092 -1.9992  0.6579
 2491SOL    HW3 9963   1.366   3.287   4.205 -0.5456  0.0849  1.5188
 2491SOL    MW4 9964   1.395   3.209   4.234 -0.2937 -0.3254  0.1794
 2492SOL     OW 9965   1.300   3.440   4.123 -0.0241 -0.1047 -0.3443
 2492SOL    HW2 9966   1.226   3.499   4.136 -0.6890 -0.9165 -0.4167
 2492SOL    HW3 9967   1.312   3.437   4.028 -0.1252 -0.2418 -0.3535
 2492SOL    MW4 9968   1.292   3.447   4.112 -0.1252 -0.2299 -0.3551
 2493SOL     OW 9969   1.551   3.537   4.271 -0.2434  0.0342 -0.4989
 2493SOL    HW2 9970   1.549   3.556   4.365  1.1572 -1.2708 -0.1913
 2493SOL    HW3 9971   1.462   3.510   4.250 -0.9137  1.6200  0.1581
 2493SOL    MW4 9972   1.539   3.536   4.281 -0.1470  0.0712 -0.3716
 2494SOL     OW 9973   1.536   3.802   4.174 -0.1083  0.1120  0.2882
 2494SOL    HW2 9974   1.453   3.838   4.206 -0.8638 -1.3549  0.0322
 2494SOL    HW3 9975   1.533   3.710   4.200  0.2585 -0.5856 -2.0542
 2494SOL    MW4 9976   1.524   3.794   4.182 -0.1596 -0.1736 -0.0546
 2495SOL     OW 9977   1.302   3.929   4.282 -0.1728  0.5651 -0.6698
 2495SOL    HW2 9978   1.295   3.923   4.377  1.8088  0.4369 -0.5060
 2495SOL    HW3 9979   1.314   4.022   4.264 -0.7500  0.6141 -0.8202
 2495SOL    MW4 9980   1.303   3.941   4.292  0.0125  0.5546 -0.6680
 2496SOL     OW 9981   1.310   4.196   4.212  0.3303 -0.3768 -0.5098
 2496SOL    HW2 9982   1.393   4.238   4.236  0.0253 -0.4305  0.6891
 2496SOL    HW3 9983   1.308   4.199   4.116  2.7878 -2.4137 -0.6978
 2496SOL    MW4 9984   1.320   4.202   4.203  0.6143 -0.6526 -0.3764
 2497SOL     OW 9985   1.538   4.339   4.283  0.0314  0.8642  0.1086
 2497SOL    HW2 9986   1.513   4.430   4.272  0.1645  0.8456 -0.3482
 2497SOL    HW3 9987   1.611   4.326   4.222 -2.1812 -0.4525 -2.3282
 2497SOL    MW4 9988   1.545   4.349   4.274 -0.2430  0.6880 -0.2732
 2498SOL     OW 9989   2.005   4.615   4.179  0.1371 -0.0333  0.3661
 2498SOL    HW2 9990   1.931   4.661   4.219  0.6452  0.4763  0.7454
 2498SOL    HW3 9991   1.987   4.616   4.086 -0.1760  0.3793  0.4279
 2498SOL    MW4 9992   1.993   4.621   4.172  0.1629  0.0884  0.4243
 2499SOL     OW 9993   1.766   0.119   4.249 -0.0105 -0.0354  0.1659
 2499SOL    HW2 9994   1.733   0.152   4.333  0.1045 -0.5623  0.4193
 2499SOL    HW3 9995   1.775   0.197   4.195 -1.4778  0.1508  0.1644
 2499SOL    MW4 9996   1.763   0.134   4.253 -0.1889 -0.0804  0.1992
 2500SOL     OW 9997   1.780   0.366   4.127 -0.3334 -0.4957  0.2854
 2500SOL    HW2 9998   1.849   0.399   4.185  0.0758 -0.2186 -0.3562
 2500SOL    HW3 9999   1.703   0.418   4.150 -0.1366 -0.2876  0.4820
 2500SOL    MW410000   1.779   0.378   4.138 -0.2535 -0.4317  0.2267
 2501SOL     OW10001   1.984   0.467   4.297  0.1985  0.1891 -0.0068
 2501SOL    HW210002   1.991   0.472   4.392 -0.0043  0.2142  0.0070
 2501SOL    HW310003   2.065   0.423   4.269  0.8399  1.2934  0.0790
 2501SOL    MW410004   1.996   0.462   4.305  0.2564  0.3381  0.0064
 2502SOL     OW10005   1.986   0.735   4.163  0.4717 -0.2931 -0.4044
 2502SOL    HW210006   2.065   0.776   4.197  0.9293  0.2046 -2.0047
 2502SOL    HW310007   1.994   0.642   4.187  0.4049  0.1804  1.4705
 2502SOL    MW410008   1.997   0.728   4.170  0.5232 -0.1650 -0.3682
 2503SOL     OW10009   1.776   0.873   4.273  0.0213 -0.3036 -0.5299
 2503SOL    HW210010   1.787   0.956   4.228  0.1272 -0.2738 -0.4498
 2503SOL    HW310011   1.852   0.821   4.248  0.3088 -0.1234 -0.0343
 2503SOL    MW410012   1.787   0.877   4.264  0.0732 -0.2759 -0.4539
 2504SOL     OW10013   1.810   1.117   4.148 -0.2878 -0.0759 -0.0405
 2504SOL    HW210014   1.880   1.163   4.194 -1.1077  1.3978 -0.2019
 2504SOL    HW310015   1.731   1.169   4.168 -1.0408 -0.7590 -1.1941
 2504SOL    MW410016   1.809   1.130   4.157 -0.4953  0.0284 -0.2140
 2505SOL     OW10017   1.997   1.297   4.269  0.2104  0.0667 -0.3583
 2505SOL    HW210018   2.089   1.270   4.274  0.4126  0.5667 -1.3663
 2505SOL    HW310019   2.000   1.388   4.242 -0.6292 -0.3303 -1.8300
 2505SOL    MW410020   2.009   1.305   4.266  0.1263  0.0803 -0.6855
 2506SOL     OW10021   2.019   1.544   4.138 -0.2074  0.2868  0.3652
 2506SOL    HW210022   2.107   1.580   4.149 -0.5671  1.2974 -0.0020
 2506SOL    HW310023   2.016   1.515   4.047 -0.1307 -0.0910  0.4828
 2506SOL    MW410024   2.030   1.545   4.128 -0.2448  0.3703  0.3323
 2507SOL     OW10025   1.838   1.687   4.292 -0.2030 -0.2378  0.3794
 2507SOL    HW210026   1.890   1.645   4.224  0.7404  1.0696  0.2636
 2507SOL    HW310027   1.754   1.642   4.291  0.5408 -1.6164 -0.2148
 2507SOL    MW410028   1.834   1.676   4.283  0.0196 -0.2472  0.2858
 2508SOL     OW10029   1.795   1.910   4.137 -0.1473  0.0362  0.2550
 2508SOL    HW210030   1.811   1.830   4.187 -1.1967 -1.6050 -1.9143
 2508SOL    HW310031   1.713   1.945   4.173 -0.5728 -0.7878  0.0961
 2508SOL    MW410032   1.786   1.904   4.148 -0.3419 -0.2891 -0.0522
 2509SOL     OW10033   2.022   2.082   4.235  0.3245  0.0771 -0.0566
 2509SOL    HW210034   2.089   2.031   4.190  0.2734  0.1205 -0.1830
 2509SOL    HW310035   1.939   2.046   4.204  0.2871 -0.3544  0.5336
 2509SOL    MW410036   2.020   2.071   4.225  0.3128  0.0259  0.0046
 2510SOL     OW10037   1.996   2.353   4.148 -0.3107 -0.2139  0.0017
 2510SOL    HW210038   2.003   2.262   4.176 -0.5663 -0.5551 -1.0025
 2510SOL    HW310039   2.006   2.350   4.053 -1.4817  0.6661 -0.1698
 2510SOL    MW410040   1.998   2.341   4.139 -0.4990 -0.1428 -0.1534
 2511SOL     OW10041   1.739   2.466   4.241 -0.1361  0.7095 -0.7050
 2511SOL    HW210042   1.745   2.450   4.335 -0.3025 -1.5563 -1.0627
 2511SOL    HW310043   1.824   2.438   4.206 -1.6771 -2.8015 -1.8023
 2511SOL    MW410044   1.751   2.460   4.249 -0.3614 -0.0527 -0.8969
 2512SOL     OW10045   1.752   2.727   4.148 -0.1279  0.3144  0.0801
 2512SOL    HW210046   1.731   2.640   4.181  1.3425  0.1836  0.6942
 2512SOL    HW310047   1.687   2.784   4.191  0.2100 -0.1983  1.2978
 2512SOL    MW410048   1.741   2.723   4.158  0.1107  0.2295  0.3218
 2513SOL     OW10049   2.000   2.800   4.219 -0.4968 -0.1876  0.0034
 2513SOL    HW210050   1.993   2.811   4.314 -0.0991  0.6336 -0.0579
 2513SOL    HW310051   1.914   2.768   4.192 -0.8327  0.2477  0.5496
 2513SOL    MW410052   1.988   2.797   4.228 -0.4886 -0.0218  0.0674
 2514SOL     OW10053   1.962   3.059   4.084  0.0922 -0.1789 -0.9838
 2514SOL    HW210054   1.978   2.977   4.129 -1.5540 -1.3521 -2.4630
 2514SOL    HW310055   1.988   3.042   3.993  0.9610  1.3413 -1.0345
 2514SOL    MW410056   1.968   3.046   4.078 -0.0103 -0.1331 -1.1857
 2515SOL     OW10057   1.763   3.326   4.475  0.0514 -0.0696 -0.1736
 2515SOL    HW210058   1.821   3.254   4.498  1.9768  1.8079  0.9950
 2515SOL    HW310059   1.786   3.348   4.385  1.0326  0.5407  0.2199
 2515SOL    MW410060   1.774   3.319   4.466  0.4349  0.2586  0.0325
 2516SOL     OW10061   1.787   3.420   4.189 -0.5201  0.4789 -0.3383
 2516SOL    HW210062   1.704   3.462   4.213 -1.3666 -0.3784 -1.6728
 2516SOL    HW310063   1.799   3.442   4.097 -0.0435 -0.6538 -0.5616
 2516SOL    MW410064   1.777   3.428   4.180 -0.5689  0.2163 -0.5438
 2517SOL     OW10065   2.004   3.569   4.278  0.1832  0.0134 -0.0950
 2517SOL    HW210066   1.990   3.659   4.247 -0.1545  0.2843  0.8175
 2517SOL    HW310067   1.928   3.521   4.245  0.0737  0.1892 -0.1002
 2517SOL    MW410068   1.992   3.575   4.269  0.1242  0.0723  0.0247
 2518SOL     OW10069   1.989   3.805   4.153 -0.5540  0.1646 -0.2123
 2518SOL    HW210070   1.920   3.851   4.201 -1.2607  0.5878 -1.6108
 2518SOL    HW310071   1.962   3.810   4.062 -0.0715 -2.0816 -0.5063
 2518SOL    MW410072   1.977   3.812   4.148 -0.5835 -0.0759 -0.4356
 2519SOL     OW10073   1.758   3.936   4.262  0.1877  0.4167  0.1932
 2519SOL    HW210074   1.747   4.029   4.242 -1.2381  0.3860  0.8094
 2519SOL    HW310075   1.679   3.894   4.229  0.8974 -0.6101 -0.2305
 2519SOL    MW410076   1.746   3.943   4.255  0.0932  0.2772  0.2186
 2520SOL     OW10077   1.771   4.224   4.184 -0.1037 -0.3672  0.4069
 2520SOL    HW210078   1.847   4.273   4.214 -0.0302 -0.8189  0.9653
 2520SOL    HW310079   1.781   4.220   4.089 -0.1560  0.7619  0.3418
 2520SOL    MW410080   1.782   4.230   4.175 -0.1009 -0.2778  0.4720
 2521SOL     OW10081   2.011   4.346   4.250 -0.2139  0.0153 -0.5821
 2521SOL    HW210082   1.985   4.352   4.342 -0.7414 -1.6019 -0.6050
 2521SOL    HW310083   2.004   4.435   4.217 -0.1203  0.5921  0.9244
 2521SOL    MW410084   2.007   4.358   4.258 -0.2712 -0.1220 -0.3863
 2522SOL     OW10085   2.475   4.572   4.150  0.2912 -0.1792 -0.2416
 2522SOL    HW210086   2.562   4.605   4.173 -0.4290  0.5520  1.5061
 2522SOL    HW310087   2.478   4.478   4.169  1.0029 -0.3507 -1.1602
 2522SOL    MW410088   2.487   4.564   4.156  0.2901 -0.1054 -0.1322
 2523SOL     OW10089   2.249   0.073   4.254 -0.1374  0.2928  0.0782
 2523SOL    HW210090   2.322   0.028   4.211  0.5543 -0.2475  1.7770
 2523SOL    HW310091   2.171   0.026   4.225  0.2931  0.0554 -0.7201
 2523SOL    MW410092   2.248   0.061   4.245  0.0107  0.1902  0.1970
 2524SOL     OW10093   2.193   0.341   4.172  0.8384 -0.3364 -0.5828
 2524SOL    HW210094   2.198   0.249   4.198 -0.7120 -0.5543 -1.0250
 2524SOL    HW310095   2.225   0.342   4.082  1.1866 -0.3747 -0.4629
 2524SOL    MW410096   2.198   0.329   4.164  0.6798 -0.3702 -0.6253
 2525SOL     OW10097   2.437   0.438   4.266  0.6700 -0.2432  0.0568
 2525SOL    HW210098   2.439   0.424   4.361  0.2255 -0.1144  0.0874
 2525SOL    HW310099   2.350   0.407   4.240  1.9258 -3.3406 -0.7731
 2525SOL    MW410100   2.426   0.432   4.275  0.7770 -0.6349 -0.0486
 2526SOL     OW10101   2.435   0.699   4.123  0.1391  0.2071  0.1702
 2526SOL    HW210102   2.438   0.607   4.149  1.5959  0.1952  0.0213
 2526SOL    HW310103   2.465   0.700   4.032  0.5692  0.8671  0.3103
 2526SOL    MW410104   2.439   0.687   4.114  0.3880  0.2926  0.1691
 2527SOL     OW10105   2.225   0.873   4.235 -0.0552 -0.5208  0.2225
 2527SOL    HW210106   2.237   0.843   4.325  0.6443 -0.2347  0.2239
 2527SOL    HW310107   2.286   0.820   4.183 -0.6933 -0.9219 -0.1395
 2527SOL    MW410108   2.235   0.862   4.240 -0.0471 -0.5360  0.1749
 2528SOL     OW10109   2.253   1.139   4.213 -0.2211 -0.3750 -0.0941
 2528SOL    HW210110   2.344   1.165   4.226  0.1714 -0.9268 -1.5720
 2528SOL    HW310111   2.255   1.043   4.215 -1.1902 -0.3691  2.4470
 2528SOL    MW410112   2.265   1.129   4.215 -0.2972 -0.4470  0.0462
 2529SOL     OW10113   2.514   1.256   4.263  0.2568 -0.3176  0.6326
 2529SOL    HW210114   2.538   1.272   4.354  0.7066  1.1543  0.2652
 2529SOL    HW310115   2.587   1.207   4.226  0.4223 -0.2320  0.8502
 2529SOL    MW410116   2.527   1.251   4.270  0.3380 -0.1121  0.6128
 2530SOL     OW10117   2.485   1.515   4.108 -0.3508  0.5760 -0.0850
 2530SOL    HW210118   2.506   1.424   4.128  2.3411  1.2233  0.2964
 2530SOL    HW310119   2.482   1.518   4.012 -0.8925  0.0041 -0.0892
 2530SOL    MW410120   2.487   1.503   4.098 -0.0671  0.5859 -0.0352
 2531SOL     OW10121   2.266   1.668   4.178  0.2462 -0.4948  0.2332
 2531SOL    HW210122   2.271   1.690   4.271 -0.0306  1.1452 -0.1179
 2531SOL    HW310123   2.336   1.604   4.165  1.4744  0.6070  1.2123
 2531SOL    MW410124   2.276   1.663   4.189  0.3718 -0.1331  0.3161
 2532SOL     OW10125   2.235   1.948   4.104 -0.1010  0.0540  0.3140
 2532SOL    HW210126   2.316   1.987   4.136 -0.3484  0.7500  0.1011
 2532SOL    HW310127   2.239   1.857   4.134 -0.4691  0.7605  2.6610
 2532SOL    MW410128   2.246   1.941   4.112 -0.1822  0.2390  0.5956
 2533SOL     OW10129   2.467   2.055   4.243 -0.3953  0.0602 -0.1438
 2533SOL    HW210130   2.472   2.031   4.335 -1.0433 -3.1426 -0.8922
 2533SOL    HW310131   2.548   2.021   4.204 -0.4672  0.7436 -0.9241
 2533SOL    MW410132   2.479   2.048   4.250 -0.4903 -0.2722 -0.3455
 2534SOL     OW10133   2.461   2.320   4.176 -0.1313 -0.2422 -0.0483
 2534SOL    HW210134   2.461   2.228   4.200 -1.8167 -0.1052  0.5241
 2534SOL    HW310135   2.455   2.320   4.080 -3.0423 -0.7327  0.1025
 2534SOL    MW410136   2.460   2.308   4.166 -0.7377 -0.2888  0.0471
 2535SOL     OW10137   2.225   2.436   4.262 -0.3063  0.1124  0.3227
 2535SOL    HW210138   2.302   2.392   4.227 -0.5783 -0.3586  0.3083
 2535SOL    HW310139   2.151   2.392   4.220 -0.5219  2.1754 -1.5378
 2535SOL    MW410140   2.225   2.424   4.252 -0.3707  0.3224  0.0753
 2536SOL     OW10141   2.227   2.682   4.121 -0.6619  0.6197  0.0513
 2536SOL    HW210142   2.217   2.599   4.166  1.2921  1.2689  1.7724
 2536SOL    HW310143   2.149   2.732   4.146 -0.2605  0.4742  1.6662
 2536SOL    MW410144   2.215   2.678   4.131 -0.3512  0.6862  0.4915
 2537SOL     OW10145   2.438   2.828   4.247 -0.2654  0.3649 -0.1432
 2537SOL    HW210146   2.419   2.818   4.341 -0.7594  1.6983 -0.1044
 2537SOL    HW310147   2.366   2.784   4.204  0.1915 -0.6463  0.0973
 2537SOL    MW410148   2.426   2.821   4.254 -0.2703  0.4074 -0.1063
 2538SOL     OW10149   2.456   3.088   4.104 -0.1395  0.1417  0.2501
 2538SOL    HW210150   2.371   3.123   4.130 -0.3969 -0.6031  0.4221
 2538SOL    HW310151   2.469   3.012   4.161 -0.1051 -0.7151 -0.8909
 2538SOL    MW410152   2.446   3.083   4.115 -0.1689 -0.0696  0.1223
 2539SOL     OW10153   2.203   3.212   4.162 -0.2077 -0.1286  0.1274
 2539SOL    HW210154   2.207   3.298   4.120 -0.5152  0.1164  0.5941
 2539SOL    HW310155   2.118   3.177   4.137 -0.1114 -0.2681 -0.0050
 2539SOL    MW410156   2.192   3.218   4.153 -0.2356 -0.1147  0.1715
 2540SOL     OW10157   2.200   3.505   4.126 -0.2333  0.2706 -0.2597
 2540SOL    HW210158   2.280   3.517   4.178  0.6141  0.4753 -1.5906
 2540SOL    HW310159   2.129   3.517   4.189  0.7778  0.2916  0.9027
 2540SOL    MW410160   2.201   3.508   4.142  0.0119  0.3004 -0.2819
 2541SOL     OW10161   2.425   3.576   4.270  0.0616  0.3001  0.1409
 2541SOL    HW210162   2.413   3.589   4.364  0.9259 -1.7056  0.5467
 2541SOL    HW310163   2.456   3.661   4.238 -0.8544  1.1826  1.5465
 2541SOL    MW410164   2.428   3.589   4.278  0.0548  0.1519  0.3799
 2542SOL     OW10165   2.513   3.812   4.131  0.3034  0.4746 -0.5345
 2542SOL    HW210166   2.591   3.859   4.160  1.1152  0.1258 -2.0858
 2542SOL    HW310167   2.499   3.841   4.041 -1.8680  1.1672  0.0039
 2542SOL    MW410168   2.521   3.822   4.123  0.1240  0.5199 -0.6682
 2543SOL     OW10169   2.259   3.964   4.216  0.1036  0.3741  0.2026
 2543SOL    HW210170   2.335   3.918   4.179 -0.4274  0.4198 -0.9960
 2543SOL    HW310171   2.184   3.912   4.187 -0.6433  2.8659 -2.6526
 2543SOL    MW410172   2.259   3.951   4.207 -0.0650  0.7089 -0.3323
 2544SOL     OW10173   2.243   4.236   4.143 -0.3260  0.0768 -0.3020
 2544SOL    HW210174   2.264   4.149   4.177  1.0980  0.7232  0.5226
 2544SOL    HW310175   2.162   4.261   4.188  0.3396 -0.0063  0.9752
 2544SOL    MW410176   2.235   4.228   4.154 -0.0503  0.1511 -0.0247
 2545SOL     OW10177   2.480   4.308   4.251  0.0157  0.4847 -0.2691
 2545SOL    HW210178   2.552   4.257   4.213 -0.3543 -0.3946  0.1953
 2545SOL    HW310179   2.404   4.285   4.199 -0.6211 -1.1937  1.3311
 2545SOL    MW410180   2.480   4.298   4.239 -0.1171  0.1473  0.0033
 2546SOL     OW10181   2.970   4.613   4.207 -0.2312  0.1309  0.4283
 2546SOL    HW210182   3.001   4.632   4.295 -0.7551  0.8322  0.4686
 2546SOL    HW310183   2.927   4.528   4.214 -0.4823  0.2982  0.8997
 2546SOL    MW410184   2.968   4.604   4.219 -0.3334  0.2455  0.4958
 2547SOL     OW10185   2.703   0.045   4.221 -0.4303 -0.1241  0.2454
 2547SOL    HW210186   2.717   0.138   4.205  0.8601 -0.6188 -1.6416
 2547SOL    HW310187   2.791   0.008   4.226 -0.9296 -1.5299 -0.9556
 2547SOL    MW410188   2.716   0.052   4.219 -0.3259 -0.3748 -0.1620
 2548SOL     OW10189   2.694   0.322   4.168  0.3107  0.8667  0.1322
 2548SOL    HW210190   2.608   0.346   4.204  0.0785 -0.9989  0.8791
 2548SOL    HW310191   2.684   0.333   4.073 -1.6119 -1.8875 -0.0275
 2548SOL    MW410192   2.681   0.327   4.160  0.0264  0.2572  0.2097
 2549SOL     OW10193   2.858   0.491   4.323  0.0437 -0.4115  0.0632
 2549SOL    HW210194   2.882   0.567   4.271 -0.4035  0.3241  0.9287
 2549SOL    HW310195   2.790   0.447   4.272 -0.5401  0.4147  0.1334
 2549SOL    MW410196   2.852   0.495   4.309 -0.0924 -0.2055  0.1867
 2550SOL     OW10197   2.896   0.734   4.187 -0.2348 -0.2476 -0.2718
 2550SOL    HW210198   2.970   0.788   4.216 -1.1330  1.0907 -0.4757
 2550SOL    HW310199   2.906   0.730   4.092 -0.5950  0.1664 -0.3240
 2550SOL    MW410200   2.907   0.740   4.178 -0.4008 -0.0164 -0.3056
 2551SOL     OW10201   2.646   0.875   4.220 -0.0559 -0.1345 -0.5365
 2551SOL    HW210202   2.725   0.832   4.188  0.2198 -0.1492  0.1587
 2551SOL    HW310203   2.577   0.809   4.208  0.4362 -0.9173  0.8719
 2551SOL    MW410204   2.647   0.860   4.214  0.0454 -0.2397 -0.2589
 2552SOL     OW10205   2.711   1.119   4.122  0.4837 -0.5951  0.2312
 2552SOL    HW210206   2.691   1.034   4.160 -0.6933  0.4705  2.0896
 2552SOL    HW310207   2.712   1.104   4.028 -0.3407 -2.5296  0.5093
 2552SOL    MW410208   2.709   1.106   4.115  0.2196 -0.7098  0.5131
 2553SOL     OW10209   2.933   1.274   4.219 -0.1393  0.0448 -0.4275
 2553SOL    HW210210   3.008   1.228   4.180  0.0856  1.0447 -1.1866
 2553SOL    HW310211   2.857   1.222   4.192  0.2514 -0.8872  0.2144
 2553SOL    MW410212   2.933   1.261   4.211 -0.0581  0.0537 -0.4430
 2554SOL     OW10213   2.920   1.543   4.116  0.1157 -0.1565 -0.0777
 2554SOL    HW210214   2.988   1.587   4.168  0.0411 -0.2443  0.0940
 2554SOL    HW310215   2.930   1.450   4.137 -0.0801 -0.1659 -0.0258
 2554SOL    MW410216   2.930   1.537   4.126  0.0800 -0.1694 -0.0482
 2555SOL     OW10217   2.701   1.654   4.227 -0.4443 -0.1548  0.4844
 2555SOL    HW210218   2.771   1.595   4.198 -1.0740 -0.1305 -1.1594
 2555SOL    HW310219   2.623   1.619   4.185 -1.5783 -0.6182  2.8998
 2555SOL    MW410220   2.700   1.641   4.218 -0.6770 -0.2127  0.5862
 2556SOL     OW10221   2.710   1.926   4.131  0.1143  0.2664  0.0361
 2556SOL    HW210222   2.718   1.834   4.156 -1.4665  0.1799  0.2867
 2556SOL    HW310223   2.718   1.927   4.036 -2.2252 -0.4519 -0.2079
 2556SOL    MW410224   2.712   1.914   4.122 -0.4029  0.1602  0.0369
 2557SOL     OW10225   2.937   2.024   4.294  0.0556 -0.2420 -0.0301
 2557SOL    HW210226   2.948   2.118   4.279 -2.3145  0.5373  2.7778
 2557SOL    HW310227   2.871   1.997   4.230  1.4475 -0.2410 -1.4998
 2557SOL    MW410228   2.930   2.033   4.283 -0.0735 -0.1391  0.1465
 2558SOL     OW10229   2.901   2.280   4.168 -0.1565 -0.2349  0.6354
 2558SOL    HW210230   2.973   2.336   4.199  0.6344 -0.6016 -0.5134
 2558SOL    HW310231   2.822   2.333   4.182  0.7565  2.1836 -2.5799
 2558SOL    MW410232   2.900   2.295   4.174  0.0683  0.0358  0.0596
 2559SOL     OW10233   2.693   2.446   4.243  0.0756 -0.5844 -1.1384
 2559SOL    HW210234   2.712   2.425   4.335  0.1295 -0.8465 -1.2098
 2559SOL    HW310235   2.606   2.410   4.227 -0.2479  0.1138 -0.9787
 2559SOL    MW410236   2.684   2.438   4.253  0.0400 -0.5269 -1.1268
 2560SOL     OW10237   2.699   2.717   4.203 -0.0074 -0.0566  0.3387
 2560SOL    HW210238   2.684   2.623   4.215  0.5338 -0.1326  0.4106
 2560SOL    HW310239   2.615   2.758   4.225 -0.5751 -0.6062 -0.7291
 2560SOL    MW410240   2.686   2.710   4.207 -0.0109 -0.1391  0.2073
 2561SOL     OW10241   2.939   2.874   4.271  0.0266 -0.0502 -0.2751
 2561SOL    HW210242   2.972   2.889   4.359  2.0779 -0.6976 -0.9009
 2561SOL    HW310243   2.860   2.822   4.283  0.3468 -0.2137  1.1639
 2561SOL    MW410244   2.933   2.869   4.284  0.3395 -0.1572 -0.1678
 2562SOL     OW10245   2.901   3.133   4.155  0.7498 -0.4581 -0.5949
 2562SOL    HW210246   2.901   3.043   4.186  0.0310 -0.3747 -0.3382
 2562SOL    HW310247   2.907   3.126   4.060 -0.3730 -0.8040 -0.6432
 2562SOL    MW410248   2.902   3.120   4.147  0.5068 -0.4927 -0.5674
 2563SOL     OW10249   2.669   3.217   4.284 -0.0483  0.1984  0.1343
 2563SOL    HW210250   2.751   3.184   4.247 -0.0855 -0.6542  0.8076
 2563SOL    HW310251   2.601   3.180   4.228  0.0349  1.0949 -0.5651
 2563SOL    MW410252   2.671   3.208   4.272 -0.0422  0.2042  0.1309
 2564SOL     OW10253   2.671   3.476   4.175 -0.5390  0.3676 -0.0310
 2564SOL    HW210254   2.682   3.388   4.212 -0.3919 -0.6653 -2.4123
 2564SOL    HW310255   2.591   3.509   4.214 -1.4977 -1.5199 -0.3369
 2564SOL    MW410256   2.662   3.469   4.185 -0.6461 -0.0177 -0.3855
 2565SOL     OW10257   2.926   3.554   4.267  0.3787  0.0649  0.1883
 2565SOL    HW210258   2.902   3.572   4.357  0.7783 -0.7977  0.4799
 2565SOL    HW310259   2.846   3.518   4.227  0.0687  0.8884  0.0660
 2565SOL    MW410260   2.912   3.551   4.273  0.3905  0.0598  0.2107
 2566SOL     OW10261   2.967   3.832   4.148  0.2571 -0.1310 -0.2466
 2566SOL    HW210262   3.047   3.882   4.163  0.1196 -0.1841  0.6769
 2566SOL    HW310263   2.976   3.755   4.203 -0.2359 -0.3524 -0.4769
 2566SOL    MW410264   2.979   3.829   4.157  0.1739 -0.1672 -0.1551
 2567SOL     OW10265   2.718   3.941   4.238  0.0808  0.5412  0.5193
 2567SOL    HW210266   2.700   4.019   4.187  0.6250 -0.0622 -0.6127
 2567SOL    HW310267   2.799   3.905   4.200  0.3123 -0.0965  1.5748
 2567SOL    MW410268   2.727   3.946   4.227  0.1831  0.3774  0.5092
 2568SOL     OW10269   2.707   4.196   4.127 -0.0582 -0.2823  0.1733
 2568SOL    HW210270   2.777   4.249   4.163 -0.7035 -0.1957  1.3194
 2568SOL    HW310271   2.701   4.223   4.035  1.9894 -0.9392 -0.1673
 2568SOL    MW410272   2.715   4.207   4.119  0.1269 -0.3576  0.2796
 2569SOL     OW10273   2.880   4.355   4.248  0.2921 -0.0109 -0.4428
 2569SOL    HW210274   2.876   4.334   4.341  1.7799  1.2586 -0.0555
 2569SOL    HW310275   2.969   4.331   4.222 -0.4453 -1.3267 -1.7924
 2569SOL    MW410276   2.891   4.349   4.257  0.3911 -0.0170 -0.5698
 2570SOL     OW10277   3.371   4.657   4.190 -0.4397  0.1648 -0.0151
 2570SOL    HW210278   3.446   4.704   4.227  0.8446 -0.5307 -1.7073
 2570SOL    HW310279   3.388   4.565   4.210 -0.3904 -0.0836 -1.2050
 2570SOL    MW410280   3.383   4.651   4.198 -0.2637  0.0403 -0.3954
 2571SOL     OW10281   3.001   0.056   4.496 -0.4974 -0.0479 -0.3339
 2571SOL    HW210282   3.023   0.145   4.471 -1.4073  0.0414 -0.8425
 2571SOL    HW310283   3.086   0.014   4.514 -0.1728  1.3447  1.4520
 2571SOL    MW410284   3.015   0.062   4.495 -0.5746  0.1476 -0.1653
 2572SOL     OW10285   3.165   0.259   4.142  0.3530 -0.2572 -0.0225
 2572SOL    HW210286   3.223   0.183   4.149 -0.8052 -1.0705  0.8665
 2572SOL    HW310287   3.222   0.334   4.160  0.8967 -1.1330  2.0031
 2572SOL    MW410288   3.180   0.259   4.145  0.2720 -0.4800  0.3621
 2573SOL     OW10289   3.335   0.463   4.190 -0.5852 -0.0215 -0.7711
 2573SOL    HW210290   3.336   0.462   4.285 -0.5709  0.7071 -0.7601
 2573SOL    HW310291   3.419   0.424   4.164 -0.2534  0.4953 -0.4775
 2573SOL    MW410292   3.346   0.458   4.199 -0.5395  0.1428 -0.7309
 2574SOL     OW10293   3.366   0.740   4.124  0.0885 -0.0380  0.5894
 2574SOL    HW210294   3.286   0.770   4.166  0.2096 -0.4742  1.1354
 2574SOL    HW310295   3.369   0.646   4.141 -0.5066 -0.4554 -1.4660
 2574SOL    MW410296   3.356   0.732   4.131  0.0260 -0.1506  0.3902
 2575SOL     OW10297   3.162   0.841   4.250  0.3366 -0.2648 -0.3213
 2575SOL    HW210298   3.180   0.853   4.344 -0.9687 -0.2410 -0.0548
 2575SOL    HW310299   3.135   0.928   4.220 -0.8124 -0.6084 -0.3373
 2575SOL    MW410300   3.161   0.854   4.259  0.0128 -0.3070 -0.2882
 2576SOL     OW10301   3.123   1.099   4.137 -0.1521  0.7334  0.3974
 2576SOL    HW210302   3.200   1.142   4.174 -0.5716  2.1379 -0.3078
 2576SOL    HW310303   3.138   1.101   4.042 -1.7981  2.5353  0.1376
 2576SOL    MW410304   3.135   1.105   4.129 -0.4246  1.1564  0.2701
 2577SOL     OW10305   3.346   1.249   4.230  0.1889 -0.4189  0.0643
 2577SOL    HW210306   3.332   1.245   4.324 -0.1499 -1.4043 -0.0232
 2577SOL    HW310307   3.327   1.340   4.207  1.5519  0.1479  1.1373
 2577SOL    MW410308   3.341   1.261   4.239  0.3240 -0.4741  0.1943
 2578SOL     OW10309   3.305   1.513   4.124  0.8893 -0.1270  0.1053
 2578SOL    HW210310   3.235   1.574   4.149 -0.0002 -1.4186  0.8296
 2578SOL    HW310311   3.306   1.515   4.028 -0.7288 -0.7414  0.0637
 2578SOL    MW410312   3.296   1.521   4.115  0.5585 -0.3785  0.1954
 2579SOL     OW10313   3.112   1.686   4.270  0.1031  0.1201  0.1081
 2579SOL    HW210314   3.100   1.700   4.364  0.9373  1.0409  0.0834
 2579SOL    HW310315   3.122   1.774   4.234 -0.3420 -0.2255 -0.8654
 2579SOL    MW410316   3.112   1.700   4.278  0.1544  0.1960 -0.0236
 2580SOL     OW10317   3.135   1.945   4.124 -0.1381 -0.3522  0.1239
 2580SOL    HW210318   3.201   2.010   4.148 -0.8104  0.5237 -0.3435
 2580SOL    HW310319   3.057   1.970   4.174 -0.7130 -0.1704 -0.8343
 2580SOL    MW410320   3.133   1.957   4.134 -0.3027 -0.2127 -0.0642
 2581SOL     OW10321   3.326   2.088   4.251  0.3376 -0.0528  0.4133
 2581SOL    HW210322   3.411   2.050   4.231  0.1867 -0.0237 -0.3099
 2581SOL    HW310323   3.332   2.178   4.218 -1.3606 -1.2525 -3.4292
 2581SOL    MW410324   3.338   2.095   4.244  0.0936 -0.2073 -0.1891
 2582SOL     OW10325   3.329   2.343   4.167 -0.0714  0.4968  0.2678
 2582SOL    HW210326   3.410   2.373   4.207 -0.2790  0.4495  0.7195
 2582SOL    HW310327   3.340   2.363   4.074  0.7217 -0.0796  0.2254
 2582SOL    MW410328   3.341   2.349   4.160  0.0059  0.4145  0.3218
 2583SOL     OW10329   3.090   2.461   4.241  0.0848 -0.0166 -0.0121
 2583SOL    HW210330   3.106   2.552   4.215 -1.2249 -0.2609 -1.7769
 2583SOL    HW310331   3.173   2.416   4.224  0.4556  0.6583  0.0033
 2583SOL    MW410332   3.103   2.467   4.236 -0.0390  0.0402 -0.2429
 2584SOL     OW10333   3.165   2.714   4.161  0.0125 -0.0525 -0.1987
 2584SOL    HW210334   3.241   2.757   4.201  0.2978 -2.3071  1.7697
 2584SOL    HW310335   3.090   2.769   4.187  0.4568 -0.2731  1.6646
 2584SOL    MW410336   3.165   2.727   4.170  0.1087 -0.3791  0.3068
 2585SOL     OW10337   3.374   2.824   4.308  0.3187  0.3598 -0.2321
 2585SOL    HW210338   3.451   2.775   4.280  0.2385  0.1726 -0.1265
 2585SOL    HW310339   3.381   2.907   4.262  0.8969  0.5763  0.2369
 2585SOL    MW410340   3.385   2.828   4.299  0.3844  0.3637 -0.1563
 2586SOL     OW10341   3.343   3.055   4.164 -0.0850 -0.1748  0.3276
 2586SOL    HW210342   3.277   3.118   4.194 -1.8119 -1.8476  0.1621
 2586SOL    HW310343   3.344   3.064   4.069 -0.9155 -0.9656  0.2448
 2586SOL    MW410344   3.335   3.065   4.156 -0.4224 -0.4998  0.2949
 2587SOL     OW10345   3.165   3.234   4.267 -0.0625 -0.2507 -0.3181
 2587SOL    HW210346   3.162   3.327   4.244 -1.0137 -0.3114 -0.4632
 2587SOL    HW310347   3.085   3.197   4.231  0.0233 -1.0188  0.2391
 2587SOL    MW410348   3.154   3.241   4.259 -0.1766 -0.3600 -0.2638
 2588SOL     OW10349   3.189   3.488   4.157 -0.1255  0.4255 -0.3724
 2588SOL    HW210350   3.108   3.527   4.190  0.8601  1.8661  0.3926
 2588SOL    HW310351   3.171   3.470   4.064 -0.7338  2.3690 -0.6562
 2588SOL    MW410352   3.176   3.490   4.149 -0.0757  0.8720 -0.3089
 2589SOL     OW10353   3.424   3.616   4.210 -0.4738 -0.1978 -0.1297
 2589SOL    HW210354   3.444   3.599   4.302 -0.9393 -0.8374 -0.1498
 2589SOL    HW310355   3.341   3.572   4.194 -0.2441 -0.3514 -0.9428
 2589SOL    MW410356   3.416   3.608   4.220 -0.5049 -0.3025 -0.2396
 2590SOL     OW10357   3.419   3.873   4.130  0.0576  0.1139  0.0459
 2590SOL    HW210358   3.418   3.783   4.161  0.5626 -0.1989 -0.8257
 2590SOL    HW310359   3.398   3.866   4.036  0.9105  0.8258 -0.2007
 2590SOL    MW410360   3.416   3.860   4.122  0.2368  0.1665 -0.1016
 2591SOL     OW10361   3.187   3.986   4.207 -0.0664 -0.5242  0.0805
 2591SOL    HW210362   3.183   3.973   4.301  0.6969 -0.1292  0.1720
 2591SOL    HW310363   3.268   3.942   4.180 -1.1379 -2.1208 -0.6389
 2591SOL    MW410364   3.197   3.978   4.216 -0.1071 -0.6827 -0.0023
 2592SOL     OW10365   3.140   4.261   4.145  0.3542  0.5983  0.1002
 2592SOL    HW210366   3.217   4.303   4.184  0.8550 -0.6394  0.5059
 2592SOL    HW310367   3.159   4.167   4.152 -1.1889  0.2783  0.1743
 2592SOL    MW410368   3.153   4.254   4.151  0.2166  0.3928  0.1635
 2593SOL     OW10369   3.370   4.385   4.253  0.3025 -0.6543  0.0605
 2593SOL    HW210370   3.380   4.368   4.347  0.6857  1.3409  0.3955
 2593SOL    HW310371   3.451   4.352   4.215 -0.6081 -3.1121  0.1784
 2593SOL    MW410372   3.382   4.378   4.260  0.2329 -0.7153  0.1202
 2594SOL     OW10373   3.826   0.022   4.199 -0.1587  0.7539 -0.3614
 2594SOL    HW210374   3.903   0.068   4.233  0.3638  0.2919 -0.9173
 2594SOL    HW310375   3.843   0.013   4.106 -0.7493  0.3748 -0.4312
 2594SOL    MW410376   3.838   0.027   4.192 -0.1677  0.6429 -0.4440
 2595SOL     OW10377   3.577   0.143   4.275 -0.2182 -0.2493 -0.1577
 2595SOL    HW210378   3.563   0.216   4.215 -1.3400 -1.4411 -1.3924
 2595SOL    HW310379   3.656   0.100   4.243  0.1083  0.0659  0.2154
 2595SOL    MW410380   3.586   0.147   4.263 -0.3231 -0.3649 -0.2714
 2596SOL     OW10381   3.574   0.354   4.111  0.2651 -0.0623  0.2174
 2596SOL    HW210382   3.647   0.410   4.137  0.3343  0.3587 -0.8604
 2596SOL    HW310383   3.581   0.348   4.016 -0.3800 -1.0270  0.2277
 2596SOL    MW410384   3.585   0.361   4.102  0.1891 -0.1340  0.0765
 2597SOL     OW10385   3.770   0.514   4.229  0.2649 -0.1517  0.0073
 2597SOL    HW210386   3.789   0.526   4.322  0.2647  1.4417 -0.1733
 2597SOL    HW310387   3.768   0.603   4.194  1.0009 -0.7749 -1.6715
 2597SOL    MW410388   3.772   0.528   4.237  0.3619 -0.0237 -0.2380
 2598SOL     OW10389   3.805   0.795   4.131  0.6153  0.3712 -0.2445
 2598SOL    HW210390   3.719   0.802   4.172  0.1475 -3.1333 -0.4234
 2598SOL    HW310391   3.786   0.780   4.038  1.4546  0.7255 -0.4797
 2598SOL    MW410392   3.791   0.794   4.124  0.6643 -0.0444 -0.2992
 2599SOL     OW10393   3.570   0.851   4.266  0.4031  0.5418  0.2215
 2599SOL    HW210394   3.575   0.946   4.259  0.0477  0.4482 -1.6820
 2599SOL    HW310395   3.490   0.828   4.219  0.8760 -0.7617  0.0413
 2599SOL    MW410396   3.560   0.860   4.259  0.4186  0.3575 -0.0534
 2600SOL     OW10397   3.610   1.119   4.195 -0.5163  0.3680  0.4805
 2600SOL    HW210398   3.548   1.189   4.216 -0.5174  0.6696 -0.4933
 2600SOL    HW310399   3.626   1.128   4.101  2.5519  1.5403  1.0562
 2600SOL    MW410400   3.604   1.129   4.185 -0.1116  0.5625  0.4280
 2601SOL     OW10401   3.874   1.240   4.274  0.0544  0.1635 -0.7177
 2601SOL    HW210402   3.796   1.190   4.250  0.0411  0.4498 -1.2932
 2601SOL    HW310403   3.860   1.327   4.234  1.5468 -0.3885 -2.5257
 2601SOL    MW410404   3.862   1.245   4.265  0.2495  0.1285 -1.0322
 2602SOL     OW10405   3.821   1.483   4.149 -0.0469  0.3152 -0.3706
 2602SOL    HW210406   3.889   1.545   4.176  1.4842 -1.3181 -0.3659
 2602SOL    HW310407   3.756   1.487   4.218  0.6793  0.9296  0.2976
 2602SOL    MW410408   3.822   1.492   4.161  0.2509  0.1808 -0.2818
 2603SOL     OW10409   3.513   1.680   4.230  0.2183  0.4485 -0.0381
 2603SOL    HW210410   3.450   1.622   4.187  1.7222 -0.9475 -0.4021
 2603SOL    HW310411   3.474   1.698   4.316 -0.7950 -0.1750 -0.3528
 2603SOL    MW410412   3.499   1.675   4.235  0.2830  0.1821 -0.1277
 2604SOL     OW10413   3.542   1.941   4.171 -0.2568 -0.1925  0.6010
 2604SOL    HW210414   3.544   1.847   4.191  0.6015 -0.4374 -0.5863
 2604SOL    HW310415   3.549   1.945   4.075 -1.6959  1.0375  0.5493
 2604SOL    MW410416   3.544   1.929   4.161 -0.3335 -0.0625  0.4375
 2605SOL     OW10417   3.780   2.034   4.271 -0.8265 -0.5525 -0.1308
 2605SOL    HW210418   3.767   1.995   4.357  0.0417 -0.8719 -0.1358
 2605SOL    HW310419   3.703   2.009   4.221 -0.3167 -2.2184 -0.1061
 2605SOL    MW410420   3.768   2.025   4.276 -0.6447 -0.8145 -0.1282
 2606SOL     OW10421   3.797   2.289   4.183  0.7381  0.3659  0.0511
 2606SOL    HW210422   3.799   2.197   4.212 -0.7796  0.2172 -0.2493
 2606SOL    HW310423   3.768   2.285   4.092 -0.2156  1.1818  0.3019
 2606SOL    MW410424   3.793   2.276   4.175  0.4120  0.4540  0.0446
 2607SOL     OW10425   3.578   2.433   4.280  0.2036 -0.2970  0.5575
 2607SOL    HW210426   3.577   2.420   4.375 -0.4943 -0.4102  0.5354
 2607SOL    HW310427   3.658   2.388   4.251  1.3938  1.2943  1.3021
 2607SOL    MW410428   3.588   2.425   4.288  0.2685 -0.1020  0.6528
 2608SOL     OW10429   3.573   2.692   4.171  0.3467 -0.0926  0.4232
 2608SOL    HW210430   3.574   2.605   4.210 -0.1702  0.3995  1.5600
 2608SOL    HW310431   3.591   2.677   4.078  1.0665 -1.3305  0.7559
 2608SOL    MW410432   3.575   2.679   4.164  0.3735 -0.1910  0.6171
 2609SOL     OW10433   3.787   2.852   4.278  0.2018  0.5598  0.6449
 2609SOL    HW210434   3.788   2.857   4.374  0.9342  0.8503  0.6268
 2609SOL    HW310435   3.710   2.800   4.258  0.2748  0.1395  1.4129
 2609SOL    MW410436   3.777   2.846   4.288  0.3081  0.5427  0.7438
 2610SOL     OW10437   3.788   3.105   4.181 -0.4483 -0.2016  0.1622
 2610SOL    HW210438   3.795   3.017   4.219 -0.9853  0.1072  0.9922
 2610SOL    HW310439   3.765   3.090   4.089 -1.8249 -0.9023  0.6141
 2610SOL    MW410440   3.786   3.092   4.174 -0.7008 -0.2533  0.3314
 2611SOL     OW10441   3.560   3.216   4.268  0.0405 -0.5502  0.7170
 2611SOL    HW210442   3.645   3.181   4.239  0.4105  0.6307  0.3440
 2611SOL    HW310443   3.497   3.148   4.244  0.7266 -0.9064 -0.1321
 2611SOL    MW410444   3.563   3.203   4.261  0.1799 -0.4414  0.5557
 2612SOL     OW10445   3.617   3.449   4.107  0.1309  0.3372  0.2117
 2612SOL    HW210446   3.590   3.368   4.151 -0.1478  0.6435  0.6002
 2612SOL    HW310447   3.548   3.512   4.128  1.1175  1.0995  1.1298
 2612SOL    MW410448   3.604   3.446   4.115  0.2243  0.4782  0.3841
 2613SOL     OW10449   3.792   3.620   4.220  0.2001 -0.1435  0.6898
 2613SOL    HW210450   3.878   3.599   4.184 -1.2508 -0.6879 -2.5886
 2613SOL    HW310451   3.733   3.555   4.182 -1.8626  0.9508  1.9391
 2613SOL    MW410452   3.796   3.609   4.210 -0.2635 -0.0709  0.4221
 2614SOL     OW10453   3.791   3.903   4.122 -0.2102  0.3163 -0.3832
 2614SOL    HW210454   3.732   3.955   4.177 -0.3338 -0.1613 -0.0563
 2614SOL    HW310455   3.779   3.813   4.153  1.5120  0.3473  0.4605
 2614SOL    MW410456   3.781   3.898   4.134  0.0007  0.2574 -0.2287
 2615SOL     OW10457   3.602   4.045   4.288 -0.3043  0.0972  0.0527
 2615SOL    HW210458   3.578   4.055   4.380  0.9911 -0.9847  0.5371
 2615SOL    HW310459   3.530   3.996   4.249 -0.2687 -0.5865  0.8171
 2615SOL    MW410460   3.590   4.040   4.295 -0.1287 -0.1357  0.2174
 2616SOL     OW10461   3.605   4.296   4.168 -0.1093 -0.3305  0.4016
 2616SOL    HW210462   3.684   4.339   4.202 -0.5098  0.7849 -0.0520
 2616SOL    HW310463   3.601   4.213   4.214  1.8204 -0.7801 -0.1956
 2616SOL    MW410464   3.615   4.291   4.178  0.0925 -0.2427  0.2630
 2617SOL     OW10465   3.843   4.414   4.297  0.1314 -0.8665 -0.2055
 2617SOL    HW210466   3.907   4.375   4.237  0.4390 -0.1208 -0.3629
 2617SOL    HW310467   3.827   4.502   4.261  0.1001 -0.5239  0.6497
 2617SOL    MW410468   3.849   4.420   4.284  0.1679 -0.7229 -0.1134
 2618SOL     OW10469   4.255   4.663   4.128 -0.0244  0.1853  0.3391
 2618SOL    HW210470   4.258   4.580   4.175  1.2780 -0.0692 -0.1675
 2618SOL    HW310471   4.338   4.706   4.152 -0.9535  1.6053  1.0834
 2618SOL    MW410472   4.266   4.658   4.137  0.0248  0.3391  0.3705
 2619SOL     OW10473   4.060   0.149   4.277 -0.2199 -0.1495  0.0943
 2619SOL    HW210474   4.037   0.232   4.234 -0.8433 -0.1850  0.3512
 2619SOL    HW310475   4.125   0.109   4.219  0.2669  0.6353  0.0919
 2619SOL    MW410476   4.066   0.155   4.264 -0.2380 -0.0506  0.1279
 2620SOL     OW10477   4.007   0.383   4.133  0.5453  0.0267 -0.2471
 2620SOL    HW210478   4.081   0.440   4.153  0.5943  0.1096 -0.6677
 2620SOL    HW310479   3.932   0.424   4.177  0.8037 -0.2197  0.4283
 2620SOL    MW410480   4.007   0.396   4.141  0.5858  0.0052 -0.2135
 2621SOL     OW10481   4.257   0.534   4.218  0.4662 -0.2257 -0.3887
 2621SOL    HW210482   4.273   0.625   4.192 -2.1426  0.2181 -0.6280
 2621SOL    HW310483   4.303   0.482   4.153  0.4112  0.9275 -1.3664
 2621SOL    MW410484   4.265   0.539   4.206  0.1147 -0.0150 -0.5493
 2622SOL     OW10485   4.309   0.777   4.132  0.4086  0.1785  0.1883
 2622SOL    HW210486   4.233   0.818   4.173  0.3050 -0.5016  0.6936
 2622SOL    HW310487   4.311   0.813   4.044 -0.7098 -0.0501  0.0574
 2622SOL    MW410488   4.299   0.787   4.126  0.2473  0.0586  0.2377
 2623SOL     OW10489   4.067   0.893   4.213  0.2327 -0.5576  0.3020
 2623SOL    HW210490   4.054   0.981   4.178 -0.2939 -0.0177  1.8547
 2623SOL    HW310491   3.987   0.846   4.189  0.2941 -0.4803 -0.0698
 2623SOL    MW410492   4.055   0.898   4.205  0.1713 -0.4762  0.4578
 2624SOL     OW10493   4.081   1.172   4.131 -0.3212 -0.2726 -0.1064
 2624SOL    HW210494   4.160   1.214   4.167 -0.5279  1.4713 -1.5880
 2624SOL    HW310495   4.012   1.192   4.194 -0.4701  1.9019 -0.8973
 2624SOL    MW410496   4.083   1.180   4.144 -0.3681  0.2444 -0.4062
 2625SOL     OW10497   4.299   1.304   4.267 -0.1817  0.0154 -0.1563
 2625SOL    HW210498   4.303   1.271   4.357 -0.7542 -2.7657 -1.1020
 2625SOL    HW310499   4.365   1.254   4.220 -0.7350  0.5871 -1.5585
 2625SOL    MW410500   4.308   1.293   4.273 -0.3302 -0.2761 -0.4661
 2626SOL     OW10501   4.280   1.561   4.166 -0.3890  0.3916  0.0836
 2626SOL    HW210502   4.283   1.476   4.210 -0.0233  0.2891 -0.1351
 2626SOL    HW310503   4.279   1.540   4.073 -1.5265  0.5988  0.0384
 2626SOL    MW410504   4.280   1.547   4.160 -0.4908  0.4054  0.0488
 2627SOL     OW10505   4.017   1.652   4.241  0.0539  0.2310 -0.0902
 2627SOL    HW210506   4.035   1.647   4.335  0.1386  0.8805 -0.0670
 2627SOL    HW310507   4.101   1.632   4.199 -0.1179 -0.6240 -0.0393
 2627SOL    MW410508   4.030   1.649   4.248  0.0424  0.2039 -0.0805
 2628SOL     OW10509   4.008   1.938   4.177 -0.3256 -0.0151 -0.1206
 2628SOL    HW210510   4.010   1.857   4.228 -1.1564 -0.5794 -0.9647
 2628SOL    HW310511   3.925   1.979   4.200  0.3511  0.8911  0.7411
 2628SOL    MW410512   3.997   1.933   4.187 -0.3459  0.0300 -0.1183
 2629SOL     OW10513   4.426   1.977   4.145 -0.4236 -0.4457 -0.1289
 2629SOL    HW210514   4.513   2.012   4.167 -0.4567 -1.2039  1.2288
 2629SOL    HW310515   4.365   2.031   4.194 -0.7978  0.5685 -1.6602
 2629SOL    MW410516   4.430   1.989   4.154 -0.4773 -0.4119 -0.1518
 2630SOL     OW10517   4.256   2.358   4.129  0.1477 -0.1600 -0.2625
 2630SOL    HW210518   4.189   2.421   4.154 -1.1424 -0.4027 -2.9541
 2630SOL    HW310519   4.236   2.281   4.182 -1.4600 -0.0765 -0.7037
 2630SOL    MW410520   4.244   2.356   4.139 -0.2346 -0.1810 -0.6758
 2631SOL     OW10521   4.001   2.479   4.228 -0.3269  0.3224 -0.0027
 2631SOL    HW210522   4.024   2.472   4.321  0.3385 -0.9471 -0.2455
 2631SOL    HW310523   3.942   2.405   4.213  1.4534 -0.9147 -1.1234
 2631SOL    MW410524   3.996   2.468   4.238 -0.0042 -0.0083 -0.1826
 2632SOL     OW10525   4.009   2.734   4.142  0.0725 -0.3438  0.3201
 2632SOL    HW210526   3.995   2.643   4.167  0.1134  0.0554  1.8445
 2632SOL    HW310527   3.930   2.779   4.170 -0.6293 -0.1565 -1.8486
 2632SOL    MW410528   3.997   2.728   4.149 -0.0147 -0.2664  0.2351
 2633SOL     OW10529   4.245   2.829   4.286  0.4973  0.0139  0.3283
 2633SOL    HW210530   4.173   2.794   4.233  0.7884 -0.2660  0.1154
 2633SOL    HW310531   4.322   2.780   4.257  0.8742  0.6813  0.1719
 2633SOL    MW410532   4.246   2.818   4.275  0.5854  0.0650  0.2796
 2634SOL     OW10533   4.264   3.085   4.186 -0.2686 -0.1635 -0.4567
 2634SOL    HW210534   4.266   2.995   4.218 -0.9505 -0.0091  0.0287
 2634SOL    HW310535   4.279   3.076   4.091  0.5574 -0.7085 -0.2824
 2634SOL    MW410536   4.266   3.072   4.178 -0.2496 -0.2150 -0.3696
 2635SOL     OW10537   4.035   3.255   4.244 -0.1571  0.0172 -0.1134
 2635SOL    HW210538   4.121   3.214   4.232  0.0413  0.1579  0.8186
 2635SOL    HW310539   3.973   3.183   4.232  0.0622  0.0135 -1.2850
 2635SOL    MW410540   4.038   3.240   4.241 -0.1020  0.0353 -0.1450
 2636SOL     OW10541   4.061   3.519   4.137  0.4807 -0.2161  0.0954
 2636SOL    HW210542   4.068   3.430   4.171  3.7402 -0.3661 -0.7836
 2636SOL    HW310543   4.058   3.507   4.042  0.7568  0.5846 -0.0152
 2636SOL    MW410544   4.062   3.506   4.129  0.9471 -0.1302 -0.0352
 2637SOL     OW10545   4.257   3.648   4.292 -0.3160 -0.4506 -0.3031
 2637SOL    HW210546   4.271   3.732   4.249 -0.1275 -0.0239  0.5843
 2637SOL    HW310547   4.176   3.615   4.254 -1.2913  0.9146  0.5297
 2637SOL    MW410548   4.248   3.654   4.281 -0.4198 -0.2142 -0.0761
 2638SOL     OW10549   4.267   3.901   4.139  0.1288  0.2010  0.2901
 2638SOL    HW210550   4.193   3.954   4.165 -0.3875 -0.2304 -0.2882
 2638SOL    HW310551   4.256   3.889   4.044 -0.3414 -1.8174  0.5825
 2638SOL    MW410552   4.256   3.906   4.130 -0.0013 -0.1222  0.2524
 2639SOL     OW10553   4.029   4.046   4.202  0.1825 -0.1548  0.1600
 2639SOL    HW210554   4.026   4.016   4.293 -0.1573 -0.0384  0.1873
 2639SOL    HW310555   3.953   4.004   4.161  0.0136  0.2445  0.0689
 2639SOL    MW410556   4.019   4.036   4.209  0.1154 -0.0868  0.1516
 2640SOL     OW10557   4.024   4.311   4.117  0.0037 -0.1648  0.1117
 2640SOL    HW210558   4.107   4.347   4.150  0.6320 -0.4399 -1.1518
 2640SOL    HW310559   4.027   4.218   4.141 -0.2381 -0.0305  0.6581
 2640SOL    MW410560   4.036   4.303   4.125  0.0547 -0.1834  0.0171
 2641SOL     OW10561   4.156   0.263   4.518  0.1806  0.1488  0.3628
 2641SOL    HW210562   4.216   0.335   4.498 -0.5711  0.9151  0.7937
 2641SOL    HW310563   4.132   0.226   4.433  0.4761  0.4895  0.1315
 2641SOL    MW410564   4.161   0.268   4.504  0.1204  0.2949  0.3892
 2642SOL     OW10565   0.190   4.403   4.593 -0.8345 -0.2461 -0.1699
 2642SOL    HW210566   0.135   4.455   4.651 -1.8567  0.0440 -1.3632
 2642SOL    HW310567   0.164   4.312   4.609 -1.5139 -0.1235 -0.5789
 2642SOL    MW410568   0.180   4.398   4.603 -1.0590 -0.1917 -0.3813
 2643SOL     OW10569   4.296   0.053   4.646 -0.6078  0.3193 -0.0405
 2643SOL    HW210570   4.259  -0.031   4.618 -1.3243  0.3785  0.7019
 2643SOL    HW310571   4.239   0.119   4.607 -0.2746  0.4494 -0.3051
 2643SOL    MW410572   4.283   0.051   4.637 -0.6584  0.3442  0.0225
 2644SOL     OW10573   3.820   0.021   4.573  0.0773  0.4641 -0.3213
 2644SOL    HW210574   3.841   0.103   4.619 -1.9367  0.9608 -0.2147
 2644SOL    HW310575   3.726   0.009   4.588  0.3612 -1.9376 -0.2544
 2644SOL    MW410576   3.810   0.031   4.581 -0.1510  0.2127 -0.2984
 2645SOL     OW10577   3.731   1.711   4.804  0.0126 -0.4863 -0.0845
 2645SOL    HW210578   3.648   1.685   4.765 -0.2130  1.7636 -1.1545
 2645SOL    HW310579   3.706   1.763   4.881  0.4402  0.0653 -0.3203
 2645SOL    MW410580   3.717   1.715   4.809  0.0393 -0.1167 -0.2568
 2646SOL     OW10581   4.487   4.538   4.765  0.1010 -0.4966 -0.7279
 2646SOL    HW210582   4.563   4.583   4.803  0.2302 -0.4648 -1.0263
 2646SOL    HW310583   4.423   4.608   4.751  0.3722 -0.3769 -1.3674
 2646SOL    MW410584   4.489   4.553   4.768  0.1538 -0.4766 -0.8517
 2647SOL     OW10585   0.497   1.194   4.606  0.0111 -0.3422 -0.8313
 2647SOL    HW210586   0.426   1.243   4.564  1.0047  1.4884 -0.4019
 2647SOL    HW310587   0.458   1.163   4.689 -0.4905  0.0764 -0.9085
 2647SOL    MW410588   0.482   1.196   4.612  0.0760 -0.0454 -0.7849
 2648SOL     OW10589   0.033   0.661   4.554  0.1126 -0.2665  0.2745
 2648SOL    HW210590   0.060   0.752   4.554 -0.7039 -0.0181 -0.2355
 2648SOL    HW310591   0.114   0.612   4.564  0.6273  0.4991 -0.1067
 2648SOL    MW410592   0.047   0.666   4.555  0.0727 -0.1327  0.1569
 2649SOL     OW10593   1.101   2.059   4.510 -0.3065 -0.4848 -0.2976
 2649SOL    HW210594   1.169   2.048   4.577 -0.3531  1.1715  0.0349
 2649SOL    HW310595   1.067   2.147   4.525 -0.5091 -0.2031 -2.3292
 2649SOL    MW410596   1.105   2.069   4.521 -0.3394 -0.2291 -0.5217
 2650SOL     OW10597   0.713   2.293   4.576  0.1474  0.0718 -0.7117
 2650SOL    HW210598   0.790   2.342   4.548 -0.6377 -0.5905 -4.2101
 2650SOL    HW310599   0.728   2.204   4.544 -0.9519 -0.6710  0.7727
 2650SOL    MW410600   0.725   2.287   4.568 -0.1012 -0.1136 -0.9774
 2651SOL     OW10601   4.313   1.216   4.535 -0.4072  0.7797  0.0725
 2651SOL    HW210602   4.255   1.140   4.540 -0.4968  0.7230 -1.6521
 2651SOL    HW310603   4.272   1.281   4.593 -0.7168 -0.2151  0.9804
 2651SOL    MW410604   4.300   1.215   4.543 -0.4598  0.6410 -0.0352
 2652SOL     OW10605   0.086   1.801   4.636  0.3351  0.0744 -0.1256
 2652SOL    HW210606   0.132   1.725   4.601  0.6111  0.7672 -1.2813
 2652SOL    HW310607   0.002   1.801   4.591  0.4166  0.5798 -0.2772
 2652SOL    MW410608   0.081   1.791   4.626  0.3823  0.2325 -0.2981
 2653SOL     OW10609   0.507   1.683   4.256  0.1436 -0.1021 -0.4078
 2653SOL    HW210610   0.500   1.694   4.351  0.6187  2.7919 -0.6635
 2653SOL    HW310611   0.576   1.618   4.244 -0.7240 -1.3456  1.2538
 2653SOL    MW410612   0.515   1.676   4.267  0.0918  0.1157 -0.2223
 2654SOL     OW10613   4.221   2.045   4.520 -0.1109 -0.0141  0.0697
 2654SOL    HW210614   4.133   2.044   4.558 -1.2101 -0.0691 -2.3977
 2654SOL    HW310615   4.250   1.954   4.524  0.0859  0.0954  1.3994
 2654SOL    MW410616   4.213   2.033   4.525 -0.2300 -0.0069 -0.0804
 2655SOL     OW10617   4.100   2.476   4.498  0.2017  0.4382  0.4121
 2655SOL    HW210618   4.132   2.561   4.528  1.6964 -0.2176  0.7235
 2655SOL    HW310619   4.163   2.413   4.532 -0.7241 -0.7794 -0.0693
 2655SOL    MW410620   4.112   2.479   4.507  0.2767  0.1910  0.3896
 2656SOL     OW10621   0.439   2.683   4.549 -0.2158  0.0392 -0.5005
 2656SOL    HW210622   0.447   2.590   4.569 -1.2500 -0.0202 -0.3284
 2656SOL    HW310623   0.345   2.699   4.548 -0.1192  0.6603 -2.4960
 2656SOL    MW410624   0.428   2.673   4.551 -0.3395  0.1133 -0.7411
 2657SOL     OW10625   0.176   3.083   4.614 -0.2569 -0.0074  0.2272
 2657SOL    HW210626   0.115   3.155   4.598 -0.4953 -0.0011  1.1382
 2657SOL    HW310627   0.262   3.125   4.619 -0.1421 -0.0367 -1.2287
 2657SOL    MW410628   0.179   3.098   4.612 -0.2732 -0.0104  0.1553
 2658SOL     OW10629   4.462   2.436   4.529  0.1615 -0.0073  0.2249
 2658SOL    HW210630   4.452   2.529   4.549  0.7339  0.3174 -0.9472
 2658SOL    HW310631   4.479   2.433   4.435  0.3859 -1.2817  0.2886
 2658SOL    MW410632   4.463   2.448   4.519  0.2666 -0.1326  0.0787
 2659SOL     OW10633   4.468   3.716   4.675  0.2288  0.4816 -0.4547
 2659SOL    HW210634   4.533   3.664   4.627 -0.0524  0.4462 -0.7980
 2659SOL    HW310635   4.388   3.663   4.673  1.1937 -1.3203  3.3764
 2659SOL    MW410636   4.466   3.702   4.668  0.3190  0.2392  0.0055
 2660SOL     OW10637   0.154   2.826   4.528 -0.2135  0.3279  0.1946
 2660SOL    HW210638   0.156   2.912   4.569 -1.5137  1.6246 -2.3610
 2660SOL    HW310639   0.176   2.842   4.436 -1.1395 -1.9719 -0.4692
 2660SOL    MW410640   0.158   2.840   4.521 -0.5072  0.1956 -0.2302
 2661SOL     OW10641   4.415   3.935   4.517  0.1516  0.3337 -0.3292
 2661SOL    HW210642   4.427   3.856   4.570  1.1022  2.4437  2.7262
 2661SOL    HW310643   4.320   3.941   4.505  0.0444 -1.0564 -0.2594
 2661SOL    MW410644   4.404   3.925   4.523  0.2629  0.4287  0.0832
 2662SOL     OW10645   4.397   0.411   4.456  0.1386  0.6952  0.4347
 2662SOL    HW210646   4.409   0.493   4.503 -1.4660  0.5885  1.0748
 2662SOL    HW310647   4.354   0.436   4.374  0.1411  0.5641  0.3925
 2662SOL    MW410648   4.393   0.425   4.452 -0.0728  0.6638  0.5136
 2663SOL     OW10649   3.553   0.664   4.485 -0.8272  0.3405 -0.0425
 2663SOL    HW210650   3.478   0.605   4.474  0.5299 -1.3054 -0.6863
 2663SOL    HW310651   3.548   0.723   4.410  0.2325 -1.7329 -1.8131
 2663SOL    MW410652   3.542   0.664   4.474 -0.5083 -0.1502 -0.3611
 2664SOL     OW10653   4.241   3.602   4.572 -0.0634 -0.1474  0.2031
 2664SOL    HW210654   4.264   3.604   4.479 -0.0785 -0.5372  0.1914
 2664SOL    HW310655   4.228   3.510   4.592 -0.8324  0.0014  0.4068
 2664SOL    MW410656   4.242   3.590   4.562 -0.1669 -0.1792  0.2284
 2665SOL     OW10657   4.061   4.154   4.653  0.5394  0.5258 -0.0379
 2665SOL    HW210658   4.013   4.236   4.644 -0.2793  0.1413  0.7406
 2665SOL    HW310659   4.145   4.179   4.691  0.5932  1.0894 -0.5222
 2665SOL    MW410660   4.066   4.168   4.657  0.4385  0.5494  0.0009
 2666SOL     OW10661   0.274   0.234   4.640 -0.1508  0.1178 -0.5179
 2666SOL    HW210662   0.198   0.219   4.583 -0.1133  0.9543 -0.8078
 2666SOL    HW310663   0.348   0.202   4.590 -0.3877 -1.4013  0.0762
 2666SOL    MW410664   0.273   0.228   4.626 -0.1771  0.0278 -0.4778
 2667SOL     OW10665   0.078   1.156   4.644  0.0219 -0.2892  0.4322
 2667SOL    HW210666   0.103   1.072   4.605 -0.7999 -0.2556 -0.1811
 2667SOL    HW310667  -0.011   1.172   4.612 -0.4298  0.0517  1.8181
 2667SOL    MW410668   0.070   1.147   4.634 -0.1461 -0.2398  0.5341
 2668SOL     OW10669   1.679   0.858   4.537 -0.1227 -0.2840  0.0372
 2668SOL    HW210670   1.725   0.863   4.453 -0.1126 -0.6093  0.0233
 2668SOL    HW310671   1.594   0.897   4.520  0.8628  2.2117  0.5718
 2668SOL    MW410672   1.674   0.864   4.523  0.0087  0.0024  0.1059
 2669SOL     OW10673   0.278   0.500   4.572 -0.4283 -0.2527 -0.3513
 2669SOL    HW210674   0.274   0.415   4.617  0.7434  0.0624  0.3640
 2669SOL    HW310675   0.260   0.480   4.480 -1.7262 -1.0636  0.0675
 2669SOL    MW410676   0.275   0.486   4.566 -0.4449 -0.3181 -0.2016
 2670SOL     OW10677   1.079   1.194   4.552  0.1686 -0.0106  0.5208
 2670SOL    HW210678   1.100   1.101   4.544  2.5325  0.5682 -0.4760
 2670SOL    HW310679   0.984   1.199   4.542  0.0865 -2.2635  0.0900
 2670SOL    MW410680   1.069   1.183   4.549  0.4697 -0.2315  0.3324
 2671SOL     OW10681   0.439   0.924   4.492 -0.3018 -0.3691  0.4750
 2671SOL    HW210682   0.462   0.924   4.399 -1.2545 -0.1773  0.2362
 2671SOL    HW310683   0.469   1.010   4.524  0.5452 -0.6622  0.4834
 2671SOL    MW410684   0.446   0.936   4.484 -0.3157 -0.3825  0.4446
 2672SOL     OW10685   1.964   1.310   4.537 -0.3462  0.0547  0.2724
 2672SOL    HW210686   1.960   1.289   4.443 -1.2232  0.0569  0.3106
 2672SOL    HW310687   2.048   1.274   4.566 -0.0169  0.1548 -0.5394
 2672SOL    MW410688   1.975   1.303   4.528 -0.4185  0.0682  0.1703
 2673SOL     OW10689   0.724   1.484   4.535  0.3442 -0.0684 -0.1657
 2673SOL    HW210690   0.765   1.559   4.492  0.4302  0.0076  0.0518
 2673SOL    HW310691   0.634   1.512   4.553  1.0252  0.8139  2.0091
 2673SOL    MW410692   0.718   1.497   4.532  0.4454  0.0580  0.1499
 2674SOL     OW10693   1.270   1.396   4.610  0.3057  0.6963 -0.1364
 2674SOL    HW210694   1.348   1.356   4.571  0.5060 -0.8259  1.7578
 2674SOL    HW310695   1.200   1.334   4.592  0.7042 -0.8063  3.2056
 2674SOL    MW410696   1.271   1.383   4.603  0.3847  0.2972  0.5544
 2675SOL     OW10697   0.449   1.937   4.628 -0.0133  0.3905  0.1576
 2675SOL    HW210698   0.459   1.969   4.718 -0.2232 -0.8650  0.6438
 2675SOL    HW310699   0.362   1.965   4.601 -0.2061  0.2107  0.5875
 2675SOL    MW410700   0.439   1.945   4.636 -0.0664  0.2011  0.2785
 2676SOL     OW10701   1.297   2.093   4.733  0.5079 -0.4117  0.0694
 2676SOL    HW210702   1.344   2.174   4.713 -0.2522  0.0865  0.2905
 2676SOL    HW310703   1.224   2.120   4.789  1.4141 -1.5205  1.8385
 2676SOL    MW410704   1.294   2.107   4.738  0.5272 -0.4923  0.3320
 2677SOL     OW10705   1.658   1.685   4.806 -0.0809  0.1115 -0.1013
 2677SOL    HW210706   1.626   1.599   4.833  1.6228 -0.6432 -0.4038
 2677SOL    HW310707   1.588   1.721   4.752 -1.3466 -0.5464  1.0890
 2677SOL    MW410708   1.645   1.678   4.802 -0.0231 -0.0749  0.0158
 2678SOL     OW10709   0.203   2.241   4.615  0.4924  0.0525  0.5934
 2678SOL    HW210710   0.132   2.303   4.598 -0.4907 -1.2731 -0.2273
 2678SOL    HW310711   0.283   2.290   4.597 -0.2797  1.0538 -0.1322
 2678SOL    MW410712   0.204   2.256   4.610  0.2608  0.0097  0.3893
 2679SOL     OW10713   1.047   2.920   4.620  0.1844 -0.2880 -0.0359
 2679SOL    HW210714   1.101   2.852   4.580 -0.6438 -1.0083  0.0456
 2679SOL    HW310715   1.083   3.002   4.587  1.9823 -0.6981  0.8473
 2679SOL    MW410716   1.059   2.922   4.610  0.3124 -0.4371  0.0914
 2680SOL     OW10717   0.449   2.388   4.569 -0.1175 -0.1224  0.1410
 2680SOL    HW210718   0.536   2.349   4.572  0.5101  1.3412  1.5092
 2680SOL    HW310719   0.429   2.396   4.476  1.0240 -0.8518 -0.1679
 2680SOL    MW410720   0.458   2.384   4.557  0.1159 -0.0255  0.2808
 2681SOL     OW10721   1.490   2.867   4.479 -0.4883  0.1673 -0.0970
 2681SOL    HW210722   1.402   2.829   4.485 -1.2540  1.8149 -0.7494
 2681SOL    HW310723   1.481   2.954   4.516  0.9576  0.2399  0.0972
 2681SOL    MW410724   1.477   2.873   4.485 -0.3986  0.3943 -0.1574
 2682SOL     OW10725   0.394   3.252   4.522 -0.0897 -0.6489  0.0574
 2682SOL    HW210726   0.483   3.222   4.541  0.2650  0.1043 -0.3665
 2682SOL    HW310727   0.398   3.347   4.537 -0.8299 -0.6149  0.0600
 2682SOL    MW410728   0.407   3.261   4.527 -0.1406 -0.5451  0.0018
 2683SOL     OW10729   1.125   4.333   4.543 -0.4113  0.0610  0.5183
 2683SOL    HW210730   1.061   4.379   4.597  0.4752  3.0396 -0.8803
 2683SOL    HW310731   1.209   4.373   4.564  0.4010 -0.9423 -0.7121
 2683SOL    MW410732   1.128   4.344   4.553 -0.1871  0.3216  0.1715
 2684SOL     OW10733   4.181   2.731   4.540 -0.3865 -0.5169 -0.0010
 2684SOL    HW210734   4.264   2.742   4.586 -0.1758 -1.1222 -0.2354
 2684SOL    HW310735   4.199   2.762   4.451 -0.2540 -1.1658 -0.2032
 2684SOL    MW410736   4.194   2.737   4.535 -0.3412 -0.6824 -0.0586
 2685SOL     OW10737   0.130   3.529   4.511  0.1707  0.0451  0.2359
 2685SOL    HW210738   0.211   3.527   4.562  2.0680  0.0310 -2.6145
 2685SOL    HW310739   0.153   3.579   4.432 -3.3013  2.1105  0.4247
 2685SOL    MW410740   0.144   3.535   4.507 -0.0371  0.3158 -0.1153
 2686SOL     OW10741   0.675   4.433   4.568  0.1726 -0.0028 -0.0631
 2686SOL    HW210742   0.591   4.469   4.595 -0.7928 -1.8687 -0.4625
 2686SOL    HW310743   0.676   4.443   4.472 -0.2118 -1.2022 -0.2049
 2686SOL    MW410744   0.664   4.439   4.559 -0.0055 -0.4073 -0.1345
 2687SOL     OW10745   0.784   3.759   4.730 -0.0078 -0.1067 -0.1387
 2687SOL    HW210746   0.859   3.753   4.790  0.7300 -1.2009 -1.1353
 2687SOL    HW310747   0.804   3.835   4.676  1.4823 -1.6290 -1.8078
 2687SOL    MW410748   0.797   3.768   4.731  0.2862 -0.4519 -0.4904
 2688SOL     OW10749   4.329   4.317   4.747  0.1401 -0.0634 -0.2432
 2688SOL    HW210750   4.393   4.385   4.765  0.3099 -0.5877  1.1977
 2688SOL    HW310751   4.381   4.242   4.716 -0.1303  0.7596 -2.8417
 2688SOL    MW410752   4.344   4.316   4.745  0.1268 -0.0240 -0.3959
 2689SOL     OW10753   0.224   0.023   4.854  0.1521  0.0237 -0.3487
 2689SOL    HW210754   0.245   0.090   4.789 -0.6903  0.4996 -0.1530
 2689SOL    HW310755   0.216   0.072   4.936  0.8917 -0.5243  0.0554
 2689SOL    MW410756   0.226   0.039   4.857  0.1385  0.0142 -0.2696
 2690SOL     OW10757   1.117   0.435   4.531 -0.3573 -0.0375  0.1367
 2690SOL    HW210758   1.051   0.377   4.568 -1.5426 -0.0325 -1.8980
 2690SOL    HW310759   1.080   0.523   4.541  0.3153  0.1625  0.9390
 2690SOL    MW410760   1.104   0.439   4.538 -0.4250 -0.0105 -0.0259
 2691SOL     OW10761   0.428   4.526   4.663 -0.4035 -0.0707 -0.6258
 2691SOL    HW210762   0.402   4.543   4.754  0.4873 -1.0634 -0.1753
 2691SOL    HW310763   0.351   4.485   4.623 -1.4174  1.9593 -0.8190
 2691SOL    MW410764   0.414   4.523   4.670 -0.4198  0.0662 -0.5919
 2692SOL     OW10765   0.738   0.520   4.548  0.2898  0.5344 -0.2411
 2692SOL    HW210766   0.727   0.518   4.453  0.5850  0.8640 -0.2838
 2692SOL    HW310767   0.660   0.564   4.580 -0.0470 -0.0152 -0.2896
 2692SOL    MW410768   0.726   0.525   4.540  0.2843  0.5053 -0.2532
 2693SOL     OW10769   1.104   0.915   4.527 -0.7632  0.3168  0.0197
 2693SOL    HW210770   1.058   0.849   4.578 -1.3360  1.2879  0.7744
 2693SOL    HW310771   1.049   0.930   4.450 -1.3901  0.9970  0.5928
 2693SOL    MW410772   1.091   0.909   4.523 -0.9215  0.5347  0.1949
 2694SOL     OW10773   1.486   1.230   4.538  0.3548  0.5974  0.1882
 2694SOL    HW210774   1.544   1.253   4.611  0.6182  2.4236 -0.5733
 2694SOL    HW310775   1.478   1.135   4.543  1.5575  0.5557  1.7054
 2694SOL    MW410776   1.492   1.220   4.549  0.5482  0.8329  0.2879
 2695SOL     OW10777   0.172   0.950   4.495 -0.4978  0.0502  0.0245
 2695SOL    HW210778   0.267   0.951   4.507 -0.7145  1.2188  1.7225
 2695SOL    HW310779   0.160   0.912   4.408  1.5259 -0.0215 -0.2513
 2695SOL    MW410780   0.183   0.945   4.485 -0.2594  0.1949  0.2121
 2696SOL     OW10781   0.480   1.663   4.529 -0.2112 -0.3024 -0.3201
 2696SOL    HW210782   0.395   1.624   4.507  0.0334 -0.0544 -1.7326
 2696SOL    HW310783   0.457   1.743   4.577 -0.7926  0.0822 -1.2305
 2696SOL    MW410784   0.466   1.668   4.532 -0.2557 -0.2189 -0.6266
 2697SOL     OW10785   0.802   1.225   4.502  0.0115  0.0613 -0.4994
 2697SOL    HW210786   0.734   1.175   4.549 -0.3822 -0.5138 -1.6664
 2697SOL    HW310787   0.776   1.316   4.513 -1.1236 -0.1686 -1.1754
 2697SOL    MW410788   0.789   1.230   4.510 -0.1902 -0.0449 -0.7426
 2698SOL     OW10789   2.223   0.731   4.477 -0.0174 -0.6778 -0.3991
 2698SOL    HW210790   2.311   0.734   4.514 -0.3135 -1.0568  0.3605
 2698SOL    HW310791   2.174   0.796   4.527 -0.0703 -0.1758 -1.0976
 2698SOL    MW410792   2.228   0.740   4.489 -0.0634 -0.6616 -0.3910
 2699SOL     OW10793   1.239   1.696   4.550  0.2473  0.1045 -0.1802
 2699SOL    HW210794   1.234   1.608   4.588 -1.1840  0.5122  0.6053
 2699SOL    HW310795   1.269   1.681   4.461  1.7124 -1.0381  0.4670
 2699SOL    MW410796   1.242   1.682   4.544  0.2518  0.0076  0.0088
 2700SOL     OW10797   1.002   2.323   4.525  0.0923  0.2313  0.4022
 2700SOL    HW210798   1.085   2.365   4.545  1.1405 -1.3288 -0.6274
 2700SOL    HW310799   0.976   2.360   4.441  1.6130 -2.0477 -1.0876
 2700SOL    MW410800   1.009   2.334   4.517  0.4312 -0.2752  0.0698
 2701SOL     OW10801   1.234   2.740   4.465  0.0583  0.1761  0.7214
 2701SOL    HW210802   1.170   2.750   4.395 -0.5915  0.6937  1.3817
 2701SOL    HW310803   1.226   2.648   4.491  0.1680  0.0314  0.2445
 2701SOL    MW410804   1.224   2.729   4.459 -0.0130  0.2253  0.7456
 2702SOL     OW10805   1.743   2.688   4.571  0.0307 -0.8339 -0.4863
 2702SOL    HW210806   1.823   2.742   4.564  0.1490 -0.9431  0.0088
 2702SOL    HW310807   1.674   2.743   4.535  0.0514 -0.1228  0.5244
 2702SOL    MW410808   1.745   2.703   4.565  0.0491 -0.7544 -0.2876
 2703SOL     OW10809   1.577   3.507   4.574 -0.0458  0.1022 -0.1745
 2703SOL    HW210810   1.639   3.436   4.556 -0.1492 -0.0776  0.1735
 2703SOL    HW310811   1.491   3.467   4.563 -0.1050  0.1449  0.1172
 2703SOL    MW410812   1.574   3.492   4.570 -0.0672  0.0841 -0.0901
 2704SOL     OW10813   0.660   2.861   4.497 -0.2197 -0.0614 -0.1204
 2704SOL    HW210814   0.719   2.856   4.572 -0.8446 -3.2415  0.2188
 2704SOL    HW310815   0.594   2.793   4.513 -0.6480 -0.4613 -3.2584
 2704SOL    MW410816   0.659   2.851   4.509 -0.3587 -0.5337 -0.4896
 2705SOL     OW10817   0.392   4.059   4.584 -0.3552  0.0471  0.2104
 2705SOL    HW210818   0.420   4.020   4.501  0.8934 -2.7112  1.8391
 2705SOL    HW310819   0.472   4.099   4.620 -0.5742  0.0523  0.6946
 2705SOL    MW410820   0.407   4.059   4.578 -0.2194 -0.3161  0.4892
 2706SOL     OW10821   0.853   3.287   4.461 -0.1438  0.1792 -0.0617
 2706SOL    HW210822   0.774   3.241   4.489  0.2468 -0.6810 -0.3762
 2706SOL    HW310823   0.838   3.378   4.488 -1.1773 -0.0055  0.0117
 2706SOL    MW410824   0.840   3.293   4.468 -0.2287  0.0413 -0.0935
 2707SOL     OW10825   0.636   3.144   4.548 -0.9468  0.1608  0.2827
 2707SOL    HW210826   0.688   3.138   4.628  1.8118  0.0274 -1.4786
 2707SOL    HW310827   0.632   3.055   4.514 -0.1230  0.5835 -0.9517
 2707SOL    MW410828   0.642   3.132   4.554 -0.4742  0.1990 -0.1126
 2708SOL     OW10829   1.846   3.637   4.648 -0.1716 -0.5613  0.5681
 2708SOL    HW210830   1.761   3.595   4.653 -0.0580 -0.7976  0.5073
 2708SOL    HW310831   1.827   3.731   4.657 -0.3284 -0.6961  1.7081
 2708SOL    MW410832   1.833   3.644   4.650 -0.1773 -0.6103  0.7105
 2709SOL     OW10833   0.467   3.515   4.546 -0.4335 -0.2506  0.1343
 2709SOL    HW210834   0.476   3.604   4.581  0.2425  0.0848 -0.8663
 2709SOL    HW310835   0.488   3.523   4.453  1.4027 -1.7629  0.3796
 2709SOL    MW410836   0.471   3.528   4.538 -0.1021 -0.4059  0.0346
 2710SOL     OW10837   0.662   4.165   4.625 -0.3111 -0.1724 -0.4583
 2710SOL    HW210838   0.675   4.255   4.596  1.1230 -0.6258 -1.2817
 2710SOL    HW310839   0.749   4.126   4.622 -0.7928 -1.3746  0.6417
 2710SOL    MW410840   0.675   4.172   4.620 -0.1855 -0.3909 -0.4218
 2711SOL     OW10841   0.831   3.561   4.514  0.2247  0.9419 -0.2209
 2711SOL    HW210842   0.806   3.620   4.585 -0.1215  0.7615 -0.1915
 2711SOL    HW310843   0.926   3.571   4.507  0.3266  0.5848  0.6132
 2711SOL    MW410844   0.840   3.570   4.523  0.1925  0.8710 -0.1070
 2712SOL     OW10845   0.512   0.095   4.514 -0.0462  0.1976  0.0098
 2712SOL    HW210846   0.589   0.139   4.550  0.5085 -0.1114 -0.7682
 2712SOL    HW310847   0.497   0.022   4.574 -0.0925  0.6031  0.4975
 2712SOL    MW410848   0.520   0.091   4.527  0.0209  0.2103 -0.0285
 2713SOL     OW10849   1.589   0.585   4.494  0.4407  0.2238  0.0603
 2713SOL    HW210850   1.613   0.675   4.516 -0.1635  0.0575  1.5054
 2713SOL    HW310851   1.646   0.531   4.549 -0.2217 -0.2396  0.3045
 2713SOL    MW410852   1.600   0.589   4.504  0.2736  0.1407  0.2832
 2714SOL     OW10853   1.258   3.830   4.537 -0.0361 -0.0321 -0.2516
 2714SOL    HW210854   1.351   3.810   4.535  0.0431  0.3966 -0.9515
 2714SOL    HW310855   1.253   3.914   4.584 -0.1647 -0.5382  0.6609
 2714SOL    MW410856   1.269   3.839   4.543 -0.0426 -0.0423 -0.2236
 2715SOL     OW10857   0.933   4.491   4.654 -0.3303  0.0805  0.1580
 2715SOL    HW210858   0.837   4.483   4.650 -0.4507  0.9690  1.0641
 2715SOL    HW310859   0.950   4.581   4.626  0.0370  0.7928  2.5717
 2715SOL    MW410860   0.922   4.502   4.649 -0.2977  0.2917  0.5960
 2716SOL     OW10861   0.722   0.237   4.614  0.2261  0.2786  0.1713
 2716SOL    HW210862   0.730   0.234   4.709 -0.3804 -0.1287  0.2153
 2716SOL    HW310863   0.707   0.329   4.593 -0.7038  0.2200  0.5640
 2716SOL    MW410864   0.721   0.249   4.624  0.0234  0.2171  0.2289
 2717SOL     OW10865   1.464   0.011   4.625 -0.0678 -0.5743 -0.0889
 2717SOL    HW210866   1.377   0.050   4.616 -0.4548 -1.2480  0.6484
 2717SOL    HW310867   1.520   0.065   4.569 -0.8756  0.1187 -0.2518
 2717SOL    MW410868   1.459   0.023   4.616 -0.2254 -0.5717 -0.0131
 2718SOL     OW10869   0.957   0.674   4.511  0.0447  0.2451 -0.5082
 2718SOL    HW210870   0.879   0.619   4.519 -0.2176  0.6582 -0.1337
 2718SOL    HW310871   0.940   0.728   4.434  0.3051 -0.2097 -0.8785
 2718SOL    MW410872   0.944   0.674   4.502  0.0444  0.2396 -0.5076
 2719SOL     OW10873   2.260   1.721   4.457 -0.1703 -0.0438 -0.0902
 2719SOL    HW210874   2.257   1.792   4.521  0.1993 -0.9249  0.9197
 2719SOL    HW310875   2.176   1.677   4.466 -0.0354 -0.2972 -0.0728
 2719SOL    MW410876   2.248   1.724   4.466 -0.1038 -0.1935  0.0453
 2720SOL     OW10877   0.964   0.155   4.519 -0.2920  0.0770  0.1365
 2720SOL    HW210878   0.948   0.141   4.426 -0.2442 -1.6592  0.3681
 2720SOL    HW310879   0.879   0.181   4.554 -0.4027  0.3258 -0.3166
 2720SOL    MW410880   0.951   0.156   4.512 -0.3003 -0.1192  0.1073
 2721SOL     OW10881   1.772   0.417   4.628 -0.0536 -0.7260 -0.1542
 2721SOL    HW210882   1.865   0.425   4.605  0.2046 -0.6103  0.8999
 2721SOL    HW310883   1.772   0.372   4.712 -0.7790  2.2435  1.4899
 2721SOL    MW410884   1.784   0.412   4.636 -0.1152 -0.3189  0.2018
 2722SOL     OW10885   1.439   0.953   4.496 -0.3929 -0.1436 -0.2526
 2722SOL    HW210886   1.370   0.908   4.545 -0.4380  0.6944  0.4673
 2722SOL    HW310887   1.412   0.948   4.405 -0.4893 -1.4102 -0.1596
 2722SOL    MW410888   1.427   0.946   4.491 -0.4116 -0.2001 -0.1454
 2723SOL     OW10889   1.453   1.821   4.685  0.4627  0.5507  0.7802
 2723SOL    HW210890   1.375   1.784   4.643  0.2082  2.1934 -0.2078
 2723SOL    HW310891   1.420   1.891   4.740  1.2444  1.2834  0.3292
 2723SOL    MW410892   1.438   1.825   4.687  0.5323  0.8641  0.5903
 2724SOL     OW10893   1.943   2.863   4.496 -0.0366 -0.2107 -0.2568
 2724SOL    HW210894   2.016   2.824   4.544  0.1310  0.6020  0.1627
 2724SOL    HW310895   1.965   2.956   4.491 -1.2926  0.1254  0.3305
 2724SOL    MW410896   1.955   2.870   4.502 -0.1802 -0.0591 -0.1240
 2725SOL     OW10897   1.713   2.382   4.529  0.0963 -0.1594  0.0057
 2725SOL    HW210898   1.694   2.464   4.575 -2.2974 -0.9636  0.5004
 2725SOL    HW310899   1.749   2.324   4.596  2.3067  0.6273 -0.4576
 2725SOL    MW410900   1.715   2.385   4.544  0.0721 -0.1617  0.0099
 2726SOL     OW10901   0.812   2.962   4.750 -0.2121 -0.1111 -0.0642
 2726SOL    HW210902   0.897   2.939   4.710 -0.3146  0.3575 -0.5630
 2726SOL    HW310903   0.825   2.949   4.844  0.4103 -0.0585 -0.1426
 2726SOL    MW410904   0.825   2.957   4.757 -0.1435 -0.0423 -0.1404
 2727SOL     OW10905   1.118   3.592   4.493 -0.2954  0.0032  0.3316
 2727SOL    HW210906   1.101   3.577   4.400  1.5658  0.1351 -0.0461
 2727SOL    HW310907   1.175   3.669   4.494  0.9388 -0.9251  1.4980
 2727SOL    MW410908   1.123   3.600   4.480  0.1130 -0.1019  0.4356
 2728SOL     OW10909   1.260   2.448   4.527  0.0559 -0.4646  0.1997
 2728SOL    HW210910   1.281   2.436   4.434  1.0482 -2.1050  0.6240
 2728SOL    HW310911   1.327   2.398   4.573  1.7759  3.2467  1.9530
 2728SOL    MW410912   1.272   2.440   4.521  0.4137 -0.1913  0.4870
 2729SOL     OW10913   1.517   3.188   4.492 -0.1278  0.0405  0.1342
 2729SOL    HW210914   1.601   3.233   4.487  0.2529 -0.7313 -0.4889
 2729SOL    HW310915   1.464   3.243   4.550  0.8392  0.4683  0.6265
 2729SOL    MW410916   1.521   3.202   4.499  0.0500 -0.0049  0.1169
 2730SOL     OW10917   1.118   3.176   4.451 -0.5540  0.0124  0.4004
 2730SOL    HW210918   1.127   3.143   4.361 -0.5722 -3.4547  1.6269
 2730SOL    HW310919   1.038   3.228   4.449  0.4310  1.5551 -2.0166
 2730SOL    MW410920   1.109   3.179   4.439 -0.4264 -0.2415  0.2433
 2731SOL     OW10921   1.308   3.397   4.508  0.1522  0.1049 -0.5416
 2731SOL    HW210922   1.253   3.320   4.491 -0.0622 -0.1608  1.2918
 2731SOL    HW310923   1.246   3.470   4.511 -0.1290 -0.1877  1.4737
 2731SOL    MW410924   1.292   3.396   4.506  0.0868  0.0312 -0.0338
 2732SOL     OW10925   0.501   3.771   4.657  0.2110  0.3388  0.1795
 2732SOL    HW210926   0.585   3.785   4.701  0.9920  0.6899 -1.3725
 2732SOL    HW310927   0.465   3.859   4.647 -0.4650  0.1651  1.0698
 2732SOL    MW410928   0.507   3.785   4.662  0.2248  0.3622  0.0922
 2733SOL     OW10929   2.106   3.546   4.534  0.2653  0.3884  0.3678
 2733SOL    HW210930   2.053   3.549   4.454  0.1575  0.0771  0.4231
 2733SOL    HW310931   2.046   3.574   4.604  0.7812  2.1041  0.1379
 2733SOL    MW410932   2.091   3.550   4.533  0.3192  0.5737  0.3447
 2734SOL     OW10933   1.995   3.136   4.545  0.2712 -0.4547 -0.4277
 2734SOL    HW210934   2.071   3.191   4.527  0.9340 -1.2572 -0.1078
 2734SOL    HW310935   2.010   3.102   4.633 -0.8518  0.0077 -0.0465
 2734SOL    MW410936   2.007   3.139   4.554  0.2105 -0.4996 -0.3352
 2735SOL     OW10937   2.373   3.647   4.520  0.3567 -0.1681 -0.2395
 2735SOL    HW210938   2.279   3.635   4.526  0.2047  0.1499 -1.9455
 2735SOL    HW310939   2.388   3.738   4.548 -0.0754  0.4629 -2.0002
 2735SOL    MW410940   2.363   3.658   4.525  0.2797 -0.0429 -0.6969
 2736SOL     OW10941   0.894   3.993   4.580  0.2048 -0.0166 -0.1086
 2736SOL    HW210942   0.891   3.994   4.484 -0.0642  0.3239 -0.0969
 2736SOL    HW310943   0.987   3.994   4.601  0.3140 -1.8582 -0.3894
 2736SOL    MW410944   0.906   3.993   4.570  0.1837 -0.2147 -0.1441
 2737SOL     OW10945   1.173   4.068   4.666  0.4460  0.6823  0.2442
 2737SOL    HW210946   1.135   4.147   4.626 -2.3155 -0.2085  1.0060
 2737SOL    HW310947   1.217   4.101   4.745 -1.7234  1.3483  1.2140
 2737SOL    MW410948   1.174   4.083   4.671 -0.2045  0.6527  0.4726
 2738SOL     OW10949   2.239   0.296   4.606 -0.3724  0.4517 -0.2497
 2738SOL    HW210950   2.327   0.333   4.611 -0.5676  0.9207 -0.2138
 2738SOL    HW310951   2.251   0.208   4.572  0.1204  0.4857 -0.1559
 2738SOL    MW410952   2.252   0.290   4.602 -0.3331  0.5181 -0.2326
 2739SOL     OW10953   1.241   0.149   4.519  0.3848 -0.3491 -0.0152
 2739SOL    HW210954   1.148   0.146   4.538  0.1955  0.2773 -0.8223
 2739SOL    HW310955   1.265   0.242   4.529  0.6664 -0.3127 -0.9721
 2739SOL    MW410956   1.232   0.161   4.523  0.3970 -0.2617 -0.2479
 2740SOL     OW10957   1.615   0.228   4.472 -0.1717  0.6313  0.0997
 2740SOL    HW210958   1.530   0.271   4.480 -0.3935 -0.1704  2.4369
 2740SOL    HW310959   1.675   0.283   4.521 -0.0086 -0.4913  1.1882
 2740SOL    MW410960   1.612   0.241   4.480 -0.1795  0.3774  0.5517
 2741SOL     OW10961   2.331   0.036   4.511  0.1606 -0.0929 -0.0688
 2741SOL    HW210962   2.316   0.031   4.417  0.9101 -0.5101 -0.1691
 2741SOL    HW310963   2.284  -0.039   4.548 -0.8308  0.5453 -0.0150
 2741SOL    MW410964   2.323   0.026   4.504  0.1287 -0.0638 -0.0749
 2742SOL     OW10965   1.844   0.946   4.738  0.5175 -0.5450  0.1391
 2742SOL    HW210966   1.799   0.911   4.662  0.3985  1.2774 -0.6494
 2742SOL    HW310967   1.787   0.923   4.812 -0.0342 -1.1370 -0.4572
 2742SOL    MW410968   1.831   0.938   4.738  0.4290 -0.3826 -0.0436
 2743SOL     OW10969   1.393   0.389   4.504 -0.0876 -0.3349 -0.1218
 2743SOL    HW210970   1.455   0.463   4.508  0.2183 -0.6119  0.4083
 2743SOL    HW310971   1.307   0.430   4.514  0.1396 -0.1357  1.1230
 2743SOL    MW410972   1.390   0.404   4.506 -0.0173 -0.3452  0.1124
 2744SOL     OW10973   2.446   1.831   4.747 -0.0140 -0.4353  0.1440
 2744SOL    HW210974   2.351   1.826   4.736  0.1689 -0.2346 -1.6643
 2744SOL    HW310975   2.458   1.859   4.838 -1.6697 -0.8902  0.5270
 2744SOL    MW410976   2.435   1.834   4.758 -0.2084 -0.4689 -0.0441
 2745SOL     OW10977   0.726   2.015   4.513 -0.1826 -0.2477  0.2535
 2745SOL    HW210978   0.646   1.996   4.561 -1.4517  1.3211 -1.1601
 2745SOL    HW310979   0.766   1.930   4.498 -1.0755 -0.9586  1.8486
 2745SOL    MW410980   0.720   2.001   4.517 -0.4678 -0.1345  0.2774
 2746SOL     OW10981   0.961   1.831   4.541  0.1301  0.0961  0.1651
 2746SOL    HW210982   1.034   1.776   4.568 -0.7319  0.4526  3.5032
 2746SOL    HW310983   1.000   1.919   4.532  0.4509 -0.0321  0.2823
 2746SOL    MW410984   0.976   1.836   4.543  0.0587  0.1262  0.6210
 2747SOL     OW10985   1.550   2.025   4.531  0.0044 -0.2747 -0.1058
 2747SOL    HW210986   1.510   1.943   4.561 -1.1667  0.3292  0.0448
 2747SOL    HW310987   1.639   2.023   4.565 -0.1709 -1.2578  0.3152
 2747SOL    MW410988   1.556   2.014   4.539 -0.1733 -0.3247 -0.0304
 2748SOL     OW10989   2.182   1.890   4.683  0.4870 -0.1057 -0.4438
 2748SOL    HW210990   2.103   1.844   4.712 -0.4565  1.8279  0.1607
 2748SOL    HW310991   2.149   1.966   4.636  2.0015  0.4251 -0.6582
 2748SOL    MW410992   2.167   1.894   4.681  0.5624  0.2194 -0.3923
 2749SOL     OW10993   1.926   1.765   4.722 -0.0022  0.2673 -0.1322
 2749SOL    HW210994   1.962   1.701   4.660 -0.7697  0.0163 -0.3191
 2749SOL    HW310995   1.844   1.726   4.752  0.3052  0.4344  0.9610
 2749SOL    MW410996   1.920   1.751   4.718 -0.0629  0.2562 -0.0126
 2750SOL     OW10997   1.456   2.276   4.605 -0.1836  0.0904 -0.3034
 2750SOL    HW210998   1.472   2.186   4.575  0.3890 -0.2465  0.9573
 2750SOL    HW310999   1.538   2.322   4.584 -0.0947  0.0617 -0.0179
 2750SOL    MW411000   1.469   2.270   4.598 -0.0963  0.0422 -0.0994
 2751SOL     OW11001   2.222   2.336   4.528 -0.3161 -0.2926 -0.1794
 2751SOL    HW211002   2.171   2.255   4.530 -0.3854 -0.2508 -0.2521
 2751SOL    HW311003   2.196   2.379   4.447  0.6692 -0.8069 -0.7739
 2751SOL    MW411004   2.212   2.331   4.518 -0.1953 -0.3549 -0.2674
 2752SOL     OW11005   2.258   2.543   4.730  0.1810 -0.0036  0.0513
 2752SOL    HW211006   2.340   2.526   4.776 -0.1621  0.6381  0.9360
 2752SOL    HW311007   2.253   2.477   4.662  0.8861 -0.7478  0.7217
 2752SOL    MW411008   2.268   2.532   4.727  0.2288 -0.0171  0.2565
 2753SOL     OW11009   1.527   3.769   4.514  0.0886  0.4290  0.2485
 2753SOL    HW211010   1.589   3.834   4.545  1.3973  0.7969 -2.9129
 2753SOL    HW311011   1.558   3.686   4.552 -0.1680  1.2448  2.3127
 2753SOL    MW411012   1.539   3.766   4.523  0.2274  0.5852  0.1037
 2754SOL     OW11013   2.208   3.291   4.442 -0.1439 -0.4294 -0.6975
 2754SOL    HW211014   2.188   3.384   4.451  0.2560 -0.3186 -0.9026
 2754SOL    HW311015   2.195   3.272   4.349 -0.1578 -0.5590 -0.6695
 2754SOL    MW411016   2.204   3.300   4.431 -0.0929 -0.4319 -0.7208
 2755SOL     OW11017   2.198   3.014   4.770  0.0487 -0.1478 -0.1283
 2755SOL    HW211018   2.258   3.044   4.701  0.5236 -1.9825 -0.5321
 2755SOL    HW311019   2.233   3.052   4.850  0.5824  0.4608 -0.6439
 2755SOL    MW411020   2.211   3.023   4.771  0.1817 -0.3096 -0.2496
 2756SOL     OW11021   2.865   3.571   4.532 -0.1075  0.0113  0.4961
 2756SOL    HW211022   2.930   3.515   4.572 -0.5149  0.1021  1.2935
 2756SOL    HW311023   2.784   3.552   4.579 -0.0998  1.7722  1.2548
 2756SOL    MW411024   2.863   3.561   4.543 -0.1602  0.2556  0.7014
 2757SOL     OW11025   2.000   4.089   4.598  0.2652  0.1177  0.1694
 2757SOL    HW211026   2.067   4.047   4.543 -0.0991  1.3044 -1.1980
 2757SOL    HW311027   1.929   4.025   4.602 -0.1025  0.3947 -1.5409
 2757SOL    MW411028   2.000   4.075   4.591  0.1686  0.3108 -0.2367
 2758SOL     OW11029   2.631   3.495   4.656  0.7486  0.4018 -0.0394
 2758SOL    HW211030   2.562   3.549   4.617  1.0530  1.4022  0.7884
 2758SOL    HW311031   2.616   3.408   4.620  1.2620  1.3653 -2.6845
 2758SOL    MW411032   2.620   3.491   4.646  0.8565  0.6609 -0.2792
 2759SOL     OW11033   1.746   3.958   4.542 -0.0047 -0.1033  0.0450
 2759SOL    HW211034   1.694   4.038   4.535 -0.7423 -0.6712 -1.1155
 2759SOL    HW311035   1.767   3.936   4.451 -0.0177 -1.3724  0.3468
 2759SOL    MW411036   1.742   3.966   4.529 -0.1038 -0.3457 -0.0683
 2760SOL     OW11037   1.681   4.245   4.500 -0.4671 -0.0044  0.2625
 2760SOL    HW211038   1.762   4.294   4.514 -0.1886  0.0453 -1.4118
 2760SOL    HW311039   1.643   4.283   4.421 -0.7637 -1.8227 -0.4797
 2760SOL    MW411040   1.687   4.256   4.492 -0.4695 -0.2378 -0.0563
 2761SOL     OW11041   1.383   4.408   4.605 -0.3789 -0.3983 -0.5313
 2761SOL    HW211042   1.428   4.492   4.616 -1.2041 -0.0036 -0.0942
 2761SOL    HW311043   1.452   4.345   4.586  0.4029  0.0779  0.7483
 2761SOL    MW411044   1.398   4.411   4.604 -0.3846 -0.2834 -0.3048
 2762SOL     OW11045   1.926   4.349   4.510 -0.0143 -0.2601 -0.1509
 2762SOL    HW211046   1.941   4.264   4.552 -2.1591  0.8484  3.0369
 2762SOL    HW311047   2.005   4.399   4.532  1.5010 -1.4985 -2.4853
 2762SOL    MW411048   1.939   4.344   4.519 -0.0974 -0.2773 -0.0383
 2763SOL     OW11049   2.176   4.467   4.578  0.3325  0.0349 -0.2050
 2763SOL    HW211050   2.235   4.404   4.535  0.1901 -2.0976  2.6061
 2763SOL    HW311051   2.185   4.449   4.671 -1.3682  2.7828  0.5535
 2763SOL    MW411052   2.185   4.456   4.585  0.0893  0.1161  0.2660
 2764SOL     OW11053   2.013   1.594   4.506 -0.0187  0.1284 -0.3543
 2764SOL    HW211054   1.952   1.624   4.439 -0.9880  0.5908  0.7147
 2764SOL    HW311055   1.989   1.502   4.521 -0.7834  0.4404  0.3994
 2764SOL    MW411056   2.002   1.585   4.499 -0.2475  0.2305 -0.1138
 2765SOL     OW11057   2.612   0.013   4.508 -0.2777 -0.6445 -0.0648
 2765SOL    HW211058   2.519   0.036   4.504  0.1506  1.6298  1.7328
 2765SOL    HW311059   2.642   0.020   4.417 -1.7182 -0.8145 -0.5745
 2765SOL    MW411060   2.603   0.017   4.495 -0.4112 -0.3668  0.1051
 2766SOL     OW11061   2.474   0.728   4.591  0.1726 -0.5406  0.4707
 2766SOL    HW211062   2.542   0.791   4.565 -0.9693  0.3121 -0.5753
 2766SOL    HW311063   2.462   0.743   4.685  0.2744  0.4621  0.3326
 2766SOL    MW411064   2.481   0.739   4.600  0.0354 -0.2958  0.3145
 2767SOL     OW11065   3.054   0.313   4.389 -0.0614 -0.3001 -0.2529
 2767SOL    HW211066   3.091   0.285   4.306  0.5402 -0.2783  0.0041
 2767SOL    HW311067   2.982   0.372   4.365  0.9617  0.7628 -0.7373
 2767SOL    MW411068   3.049   0.317   4.375  0.1530 -0.1570 -0.2829
 2768SOL     OW11069   2.207   1.138   4.500  0.1255  0.7431 -0.4616
 2768SOL    HW211070   2.281   1.191   4.530  0.5798  1.0161 -2.0366
 2768SOL    HW311071   2.218   1.133   4.405 -2.2426  1.3244 -0.7902
 2768SOL    MW411072   2.218   1.144   4.491 -0.1270  0.8558 -0.7127
 2769SOL     OW11073   2.396   1.309   4.557  0.2776  0.3741  0.1262
 2769SOL    HW211074   2.477   1.260   4.545 -0.2262 -0.5238  0.3156
 2769SOL    HW311075   2.424   1.395   4.590  1.1169 -0.1415  0.7785
 2769SOL    MW411076   2.410   1.314   4.560  0.3219  0.1876  0.2373
 2770SOL     OW11077   2.459   1.589   4.593  0.1564 -0.3489 -0.1528
 2770SOL    HW211078   2.465   1.663   4.652  1.5727 -0.1016 -0.5723
 2770SOL    HW311079   2.388   1.611   4.533  1.6457  1.4466 -1.3041
 2770SOL    MW411080   2.451   1.602   4.593  0.5398 -0.0794 -0.3600
 2771SOL     OW11081   1.793   2.031   4.651  0.3966 -0.0232  0.3394
 2771SOL    HW211082   1.831   1.952   4.689 -0.7175 -0.3701  0.7398
 2771SOL    HW311083   1.811   2.100   4.715 -0.3259 -0.3416  0.8896
 2771SOL    MW411084   1.800   2.029   4.664  0.1543 -0.1110  0.4648
 2772SOL     OW11085   2.051   2.085   4.506 -0.2822  0.0833  0.3756
 2772SOL    HW211086   2.037   2.074   4.412  0.7265  0.2760  0.1933
 2772SOL    HW311087   1.963   2.088   4.544 -0.6992  0.5561 -0.6217
 2772SOL    MW411088   2.038   2.084   4.499 -0.2042  0.1711  0.2199
 2773SOL     OW11089   2.523   2.004   4.523  0.1847 -0.0724  0.6949
 2773SOL    HW211090   2.494   1.938   4.585  1.1885  0.0904  1.3634
 2773SOL    HW311091   2.618   1.991   4.517  0.2067  0.4538 -0.1621
 2773SOL    MW411092   2.532   1.994   4.531  0.3200  0.0185  0.6700
 2774SOL     OW11093   2.709   2.391   4.511  0.2064 -0.0735  0.1039
 2774SOL    HW211094   2.634   2.337   4.536  0.6819 -0.1744  1.3274
 2774SOL    HW311095   2.681   2.481   4.532 -0.1084  0.0453 -0.7785
 2774SOL    MW411096   2.695   2.396   4.517  0.2276 -0.0711  0.1489
 2775SOL     OW11097   2.549   2.515   4.805 -0.3235  0.0077 -1.2493
 2775SOL    HW211098   2.551   2.438   4.749 -2.4993  0.4023 -1.9138
 2775SOL    HW311099   2.569   2.589   4.747  0.0323  0.1499 -0.9559
 2775SOL    MW411100   2.552   2.515   4.790 -0.5636  0.0785 -1.2982
 2776SOL     OW11101   2.186   2.775   4.604 -0.2921  0.1266  0.9265
 2776SOL    HW211102   2.186   2.836   4.678  0.7612 -0.6886  1.6166
 2776SOL    HW311103   2.205   2.690   4.643 -1.0482 -0.5303 -0.1168
 2776SOL    MW411104   2.189   2.772   4.619 -0.2529 -0.0676  0.8799
 2777SOL     OW11105   2.467   2.835   4.526 -0.2345  0.4349 -0.1454
 2777SOL    HW211106   2.388   2.794   4.559 -0.6866  0.5033 -1.1205
 2777SOL    HW311107   2.455   2.929   4.540 -0.3223  0.4436 -0.2734
 2777SOL    MW411108   2.455   2.842   4.532 -0.3057  0.4451 -0.2909
 2778SOL     OW11109   2.387   3.114   4.579 -0.1764  0.2073 -0.4571
 2778SOL    HW211110   2.331   3.182   4.542 -0.7034  0.1674  0.2479
 2778SOL    HW311111   2.474   3.153   4.582  0.0470 -0.0827 -2.5084
 2778SOL    MW411112   2.391   3.128   4.574 -0.2165  0.1638 -0.6347
 2779SOL     OW11113   2.041   0.475   4.564  0.3232 -0.4508  0.1208
 2779SOL    HW211114   2.097   0.400   4.580  0.3203 -0.1229  1.7161
 2779SOL    HW311115   2.102   0.546   4.542  0.3656 -0.7415 -0.7143
 2779SOL    MW411116   2.056   0.475   4.563  0.3284 -0.4459  0.2211
 2780SOL     OW11117   2.717   3.987   4.517 -0.0893  0.0370 -0.1097
 2780SOL    HW211118   2.636   3.949   4.552  0.9298 -1.2575  0.8854
 2780SOL    HW311119   2.714   3.967   4.424 -2.3070  2.5616 -0.6302
 2780SOL    MW411120   2.706   3.979   4.509 -0.2475  0.1993 -0.0471
 2781SOL     OW11121   2.638   3.221   4.560  0.4102 -0.2601 -0.1450
 2781SOL    HW211122   2.721   3.190   4.596  0.1477  0.6379  1.2864
 2781SOL    HW311123   2.652   3.225   4.465  1.6508 -1.1114 -0.0031
 2781SOL    MW411124   2.651   3.217   4.552  0.5392 -0.2539  0.0626
 2782SOL     OW11125   3.154   3.666   4.756 -0.0517 -0.0217 -0.0247
 2782SOL    HW211126   3.155   3.691   4.848  2.1476  3.0156 -0.7817
 2782SOL    HW311127   3.086   3.720   4.716 -0.2559 -0.5421 -0.3920
 2782SOL    MW411128   3.145   3.676   4.762  0.2115  0.3104 -0.1731
 2783SOL     OW11129   3.153   3.963   4.483  0.3336 -0.1051  0.3745
 2783SOL    HW211130   3.089   3.904   4.522 -0.1559  0.0263 -0.2320
 2783SOL    HW311131   3.237   3.932   4.517  0.1944 -1.9128 -0.8901
 2783SOL    MW411132   3.156   3.951   4.493  0.2506 -0.3262  0.1276
 2784SOL     OW11133   2.243   4.025   4.487  0.1952 -0.1714 -0.5620
 2784SOL    HW211134   2.246   3.999   4.395 -1.5568  1.4970 -1.1080
 2784SOL    HW311135   2.281   4.113   4.489 -0.0233 -0.0880  0.2593
 2784SOL    MW411136   2.249   4.033   4.476 -0.0648  0.0597 -0.5257
 2785SOL     OW11137   2.455   3.898   4.608 -0.3267  0.4861  0.2244
 2785SOL    HW211138   2.392   3.943   4.552  1.3178  0.9189 -1.2984
 2785SOL    HW311139   2.457   3.950   4.688  1.3532  2.9943 -1.4114
 2785SOL    MW411140   2.447   3.910   4.611  0.1119  0.8741 -0.1923
 2786SOL     OW11141   2.706   0.293   4.555  0.2128  0.0217  0.3474
 2786SOL    HW211142   2.679   0.202   4.550 -2.1315  0.7103 -0.3796
 2786SOL    HW311143   2.787   0.298   4.505  0.4335 -1.6713  0.5251
 2786SOL    MW411144   2.713   0.282   4.548 -0.0674 -0.1109  0.2750
 2787SOL     OW11145   2.728   4.470   4.633  0.1443  0.0082 -0.1252
 2787SOL    HW211146   2.674   4.546   4.611 -1.1061 -0.7016  0.4306
 2787SOL    HW311147   2.797   4.505   4.688 -0.4600  0.7368  0.1799
 2787SOL    MW411148   2.730   4.485   4.637 -0.1004  0.0107 -0.0116
 2788SOL     OW11149   2.822   0.473   4.765 -0.3112 -0.3304  0.0906
 2788SOL    HW211150   2.914   0.446   4.764 -0.4010 -0.6026 -1.9847
 2788SOL    HW311151   2.774   0.395   4.737 -0.9317  0.6776 -1.6833
 2788SOL    MW411152   2.828   0.459   4.761 -0.4049 -0.2333 -0.4173
 2789SOL     OW11153   2.681   0.900   4.505 -0.1312  0.0399 -0.4395
 2789SOL    HW211154   2.751   0.839   4.527 -0.4598 -0.4798 -0.7984
 2789SOL    HW311155   2.679   0.900   4.409  0.8854  1.8036 -0.4673
 2789SOL    MW411156   2.690   0.892   4.495 -0.0404  0.2041 -0.4905
 2790SOL     OW11157   3.947   1.177   4.548  0.0467  0.1431 -0.2754
 2790SOL    HW211158   3.902   1.206   4.469 -0.6592  0.4440  0.2260
 2790SOL    HW311159   4.005   1.107   4.519  0.2667  0.6860 -1.1645
 2790SOL    MW411160   3.948   1.172   4.534 -0.0174  0.2544 -0.3266
 2791SOL     OW11161   1.747   1.212   4.681 -0.5434  0.1007  0.2012
 2791SOL    HW211162   1.814   1.264   4.636 -0.4181 -1.3224 -1.2828
 2791SOL    HW311163   1.790   1.130   4.703 -2.0554 -1.2382 -1.6819
 2791SOL    MW411164   1.761   1.208   4.678 -0.7263 -0.2637 -0.2431
 2792SOL     OW11165   2.659   1.173   4.513 -0.0500  0.1001 -0.3043
 2792SOL    HW211166   2.749   1.206   4.521 -0.2905  0.4058  1.2736
 2792SOL    HW311167   2.669   1.078   4.514  0.1285  0.1223  1.6879
 2792SOL    MW411168   2.672   1.165   4.514 -0.0582  0.1434  0.1667
 2793SOL     OW11169   2.892   1.317   4.502  0.0057 -0.0926  0.0858
 2793SOL    HW211170   2.822   1.382   4.491  0.0987 -0.2553 -1.6142
 2793SOL    HW311171   2.922   1.299   4.413  1.8186 -0.4684  0.7460
 2793SOL    MW411172   2.887   1.323   4.489  0.2571 -0.1637 -0.0514
 2794SOL     OW11173   2.860   1.718   4.683  0.5841 -0.4873  0.5670
 2794SOL    HW211174   2.820   1.655   4.624  2.1987 -0.2909 -0.7968
 2794SOL    HW311175   2.872   1.670   4.766  0.1917 -1.4157  0.0897
 2794SOL    MW411176   2.856   1.704   4.686  0.7454 -0.5838  0.3241
 2795SOL     OW11177   2.816   1.980   4.540 -0.3396 -0.3964  0.3908
 2795SOL    HW211178   2.828   1.891   4.572  0.6874 -0.0153  1.0794
 2795SOL    HW311179   2.872   1.985   4.462  2.2459  0.6540  2.2554
 2795SOL    MW411180   2.825   1.969   4.534  0.1370 -0.2075  0.7276
 2796SOL     OW11181   3.121   2.260   4.618  0.0285  0.1214  0.4176
 2796SOL    HW211182   3.188   2.285   4.682  0.7849 -1.5104  0.2836
 2796SOL    HW311183   3.038   2.278   4.662  0.5447  0.2661  1.3466
 2796SOL    MW411184   3.119   2.266   4.632  0.1964 -0.0748  0.5225
 2797SOL     OW11185   2.823   2.254   4.716 -0.3602 -0.4430 -0.1012
 2797SOL    HW211186   2.792   2.302   4.639 -1.2289  0.8121  1.0151
 2797SOL    HW311187   2.796   2.163   4.699 -1.5198  0.0095 -0.7911
 2797SOL    MW411188   2.815   2.248   4.704 -0.6278 -0.2177 -0.0449
 2798SOL     OW11189   3.336   2.363   4.785 -0.1771 -0.0664  0.3834
 2798SOL    HW211190   3.343   2.452   4.752  0.9194 -0.2770  0.0345
 2798SOL    HW311191   3.426   2.330   4.786 -0.7502 -1.7921 -1.2670
 2798SOL    MW411192   3.348   2.370   4.781 -0.1080 -0.3219  0.1196
 2799SOL     OW11193   2.504   2.278   4.656 -0.4002  0.1029 -0.4034
 2799SOL    HW211194   2.512   2.183   4.651 -0.8244  0.0652 -0.4330
 2799SOL    HW311195   2.430   2.299   4.598 -0.6671  0.3912  0.0335
 2799SOL    MW411196   2.495   2.269   4.648 -0.4914  0.1360 -0.3497
 2800SOL     OW11197   3.043   2.936   4.531  0.3838 -0.1743  0.2922
 2800SOL    HW211198   3.135   2.931   4.554  0.5056 -2.1431 -0.5256
 2800SOL    HW311199   3.007   2.850   4.554 -0.9795  0.1625 -0.4674
 2800SOL    MW411200   3.050   2.924   4.537  0.2200 -0.3896  0.0841
 2801SOL     OW11201   2.647   2.636   4.586 -0.4133 -0.6269  0.2063
 2801SOL    HW211202   2.735   2.673   4.594 -0.1256 -0.9969 -1.1576
 2801SOL    HW311203   2.596   2.704   4.544 -0.3268 -1.0948 -0.6625
 2801SOL    MW411204   2.652   2.650   4.582 -0.3639 -0.7374 -0.0883
 2802SOL     OW11205   3.054   3.412   4.659 -0.2717  0.0656  0.0244
 2802SOL    HW211206   3.130   3.362   4.630 -0.8003  0.2749 -1.7689
 2802SOL    HW311207   3.091   3.488   4.704  0.6112  0.3817 -1.1935
 2802SOL    MW411208   3.069   3.416   4.661 -0.2250  0.1349 -0.3729
 2803SOL     OW11209   2.890   3.156   4.648  0.0656 -0.3788  0.4204
 2803SOL    HW211210   2.937   3.082   4.610  0.5108  1.0092 -1.8318
 2803SOL    HW311211   2.957   3.224   4.657 -1.2007  1.2013 -1.6569
 2803SOL    MW411212   2.905   3.156   4.644 -0.0427  0.0128 -0.1508
 2804SOL     OW11213   2.364   4.279   4.503 -0.2612  0.3404  0.2051
 2804SOL    HW211214   2.413   4.265   4.584 -1.0330  0.6381  0.7315
 2804SOL    HW311215   2.430   4.278   4.434  0.3369 -0.4537  0.7891
 2804SOL    MW411216   2.379   4.277   4.505 -0.2841  0.2749  0.3516
 2805SOL     OW11217   3.399   3.814   4.607  0.7856 -0.0502 -0.4001
 2805SOL    HW211218   3.439   3.747   4.553  1.1479 -0.2376  0.0973
 2805SOL    HW311219   3.333   3.767   4.659 -0.4102  0.3342 -1.5519
 2805SOL    MW411220   3.395   3.799   4.607  0.6756 -0.0242 -0.4864
 2806SOL     OW11221   4.002   3.754   4.583 -0.0600  0.1252 -0.3232
 2806SOL    HW211222   3.942   3.712   4.521  1.9848 -1.2229 -1.4363
 2806SOL    HW311223   4.074   3.691   4.593  2.0140  2.4229 -0.3289
 2806SOL    MW411224   4.004   3.740   4.576  0.4835  0.2505 -0.4708
 2807SOL     OW11225   2.967   3.819   4.625 -0.0618 -0.1323  0.1700
 2807SOL    HW211226   2.927   3.735   4.602  0.2015 -0.1499 -0.2254
 2807SOL    HW311227   2.901   3.885   4.600 -0.0729 -0.1942  0.0356
 2807SOL    MW411228   2.953   3.817   4.618 -0.0285 -0.1428  0.1001
 2808SOL     OW11229   3.158   4.243   4.535 -0.0334 -0.5942 -0.1275
 2808SOL    HW211230   3.067   4.270   4.543 -0.5785 -2.1749 -0.7826
 2808SOL    HW311231   3.155   4.147   4.539  1.7105 -0.6281  0.9730
 2808SOL    MW411232   3.145   4.234   4.536  0.1248 -0.8072 -0.0687
 2809SOL     OW11233   2.879   4.269   4.507 -0.2585 -0.1560 -0.1703
 2809SOL    HW211234   2.841   4.183   4.524  0.0889 -0.4935 -1.0685
 2809SOL    HW311235   2.825   4.329   4.558 -0.4373 -0.9090  0.5540
 2809SOL    MW411236   2.867   4.265   4.516 -0.2362 -0.2999 -0.1933
 2810SOL     OW11237   3.080   0.400   4.669  0.7833 -0.6382  0.3354
 2810SOL    HW211238   3.075   0.362   4.582 -0.5410  1.3801 -0.5229
 2810SOL    HW311239   3.112   0.489   4.655  1.5861 -0.6259  2.0353
 2810SOL    MW411240   3.083   0.407   4.656  0.7145 -0.3703  0.4465
 2811SOL     OW11241   2.461   0.443   4.547 -0.3115 -0.1116 -0.2059
 2811SOL    HW211242   2.551   0.415   4.568 -0.1573  0.6066  0.0983
 2811SOL    HW311243   2.465   0.539   4.550 -1.3188 -0.1016  0.7661
 2811SOL    MW411244   2.474   0.452   4.550 -0.4240 -0.0155 -0.0375
 2812SOL     OW11245   2.109   0.912   4.645 -0.2958 -0.3900 -0.0601
 2812SOL    HW211246   2.025   0.926   4.687 -0.2828 -0.9643  0.1651
 2812SOL    HW311247   2.132   0.997   4.607 -0.6333 -0.0525  0.4926
 2812SOL    MW411248   2.101   0.925   4.645 -0.3386 -0.4213  0.0425
 2813SOL     OW11249   2.834   0.657   4.559  0.3538 -0.2861 -0.0249
 2813SOL    HW211250   2.829   0.598   4.634 -1.9195 -1.6115 -1.1527
 2813SOL    HW311251   2.829   0.599   4.483 -0.3285  1.2400 -1.1597
 2813SOL    MW411252   2.832   0.642   4.559 -0.0362 -0.2596 -0.3235
 2814SOL     OW11253   3.127   0.680   4.583  0.3838 -0.4537 -0.0658
 2814SOL    HW211254   3.149   0.773   4.576  0.1906 -0.5044 -1.5854
 2814SOL    HW311255   3.031   0.678   4.579  0.3824 -0.7135  0.0941
 2814SOL    MW411256   3.117   0.692   4.581  0.3582 -0.4947 -0.2452
 2815SOL     OW11257   3.260   1.227   4.501 -0.4101  0.2290 -0.2303
 2815SOL    HW211258   3.351   1.232   4.533 -0.6849 -0.5706  0.7173
 2815SOL    HW311259   3.219   1.307   4.534 -0.6215 -0.4673  1.2425
 2815SOL    MW411260   3.267   1.238   4.510 -0.4742  0.0317  0.0890
 2816SOL     OW11261   2.737   1.558   4.497  0.2705  0.7664  0.1425
 2816SOL    HW211262   2.647   1.569   4.528  0.2044 -0.1751  0.3079
 2816SOL    HW311263   2.738   1.598   4.410  0.0033  1.8457  0.6306
 2816SOL    MW411264   2.725   1.565   4.490  0.2265  0.7845  0.2287
 2817SOL     OW11265   4.246   0.786   4.623  0.2308  0.3087 -0.3689
 2817SOL    HW211266   4.184   0.714   4.619 -0.3455  0.8567 -1.2592
 2817SOL    HW311267   4.332   0.744   4.611  0.0118 -0.3910  0.4609
 2817SOL    MW411268   4.249   0.771   4.621  0.1258  0.2887 -0.3769
 2818SOL     OW11269   3.396   1.743   4.512  0.6363  0.2545  0.2739
 2818SOL    HW211270   3.436   1.820   4.553  1.2728 -0.5296  1.1376
 2818SOL    HW311271   3.302   1.759   4.517  0.7933  1.7818 -1.1166
 2818SOL    MW411272   3.389   1.756   4.518  0.7410  0.3525  0.2044
 2819SOL     OW11273   3.112   1.759   4.533  0.0460 -0.0053 -0.3351
 2819SOL    HW211274   3.128   1.851   4.512 -2.3219  0.7960  1.1749
 2819SOL    HW311275   3.048   1.761   4.604 -0.1757 -2.8340 -0.3853
 2819SOL    MW411276   3.105   1.772   4.540 -0.2957 -0.2728 -0.1425
 2820SOL     OW11277   3.213   2.008   4.492 -0.7922  0.5302 -0.1101
 2820SOL    HW211278   3.186   2.088   4.538  0.7285  1.3340 -0.5771
 2820SOL    HW311279   3.250   2.040   4.410  1.0288 -0.5784  0.2744
 2820SOL    MW411280   3.214   2.023   4.487 -0.3513  0.4900 -0.1210
 2821SOL     OW11281   4.006   2.054   4.678 -0.0176  0.1194  0.1690
 2821SOL    HW211282   3.988   2.146   4.696 -1.4222 -0.2947  1.0394
 2821SOL    HW311283   3.934   2.026   4.621  0.8841 -0.2108 -0.8083
 2821SOL    MW411284   3.994   2.062   4.673 -0.0839  0.0212  0.1549
 2822SOL     OW11285   3.891   2.294   4.770  0.1612 -0.4078 -0.4854
 2822SOL    HW211286   3.882   2.367   4.708  0.2129  0.5937  0.6705
 2822SOL    HW311287   3.961   2.321   4.829 -0.2772 -1.1092  0.3613
 2822SOL    MW411288   3.899   2.307   4.770  0.1102 -0.3682 -0.2212
 2823SOL     OW11289   2.839   2.498   4.857  0.2075 -0.2381 -0.2819
 2823SOL    HW211290   2.844   2.414   4.810 -2.4817 -0.6470  0.0480
 2823SOL    HW311291   2.745   2.509   4.875  0.4529  3.0413 -0.6732
 2823SOL    MW411292   2.827   2.488   4.853 -0.1149  0.1406 -0.2900
 2824SOL     OW11293   3.107   2.497   4.499 -0.4044 -0.3072 -0.0296
 2824SOL    HW211294   3.109   2.486   4.404  0.0331  0.2689 -0.0891
 2824SOL    HW311295   3.104   2.408   4.533 -2.2765 -0.4910 -0.6132
 2824SOL    MW411296   3.107   2.484   4.491 -0.5937 -0.2554 -0.1144
 2825SOL     OW11297   3.517   2.805   4.673  0.4648  0.1502  0.0701
 2825SOL    HW211298   3.525   2.817   4.768 -1.0312 -1.2826  0.3964
 2825SOL    HW311299   3.600   2.838   4.638  1.2592  0.1885  1.9165
 2825SOL    MW411300   3.529   2.811   4.681  0.3722 -0.0338  0.3568
 2826SOL     OW11301   3.223   3.225   4.540 -0.5406 -0.0465  0.4688
 2826SOL    HW211302   3.202   3.135   4.566  1.9027 -0.8385 -0.1680
 2826SOL    HW311303   3.199   3.229   4.447 -1.0859  0.1057  0.6158
 2826SOL    MW411304   3.217   3.214   4.531 -0.2902 -0.1309  0.4042
 2827SOL     OW11305   3.302   2.927   4.551  0.1180 -0.7265 -0.2469
 2827SOL    HW211306   3.316   2.876   4.471  2.1487 -1.2571  0.4043
 2827SOL    HW311307   3.371   2.898   4.610 -2.0375 -1.1251  2.1232
 2827SOL    MW411308   3.313   2.917   4.548  0.1015 -0.8491  0.1517
 2828SOL     OW11309   3.835   2.544   4.609 -0.0918  0.1312 -0.6044
 2828SOL    HW211310   3.917   2.517   4.567  0.5436 -0.1054  0.7676
 2828SOL    HW311311   3.859   2.622   4.660 -0.4134 -0.7463  0.8967
 2828SOL    MW411312   3.849   2.551   4.610 -0.0504 -0.0158 -0.2253
 2829SOL     OW11313   3.719   3.178   4.591 -0.0949  0.1067 -0.3219
 2829SOL    HW211314   3.631   3.214   4.585 -0.2974 -0.3003  0.2119
 2829SOL    HW311315   3.775   3.245   4.551 -0.5262  0.7926  0.2269
 2829SOL    MW411316   3.715   3.191   4.585 -0.1785  0.1435 -0.1791
 2830SOL     OW11317   3.575   4.046   4.562 -0.1198 -0.3381  0.2811
 2830SOL    HW211318   3.662   4.022   4.593 -0.5368  0.4209  2.0541
 2830SOL    HW311319   3.523   3.966   4.572  0.1124 -0.5040  0.1677
 2830SOL    MW411320   3.580   4.032   4.567 -0.1441 -0.2599  0.5000
 2831SOL     OW11321   2.539   4.264   4.724  0.6990 -0.1498  0.3494
 2831SOL    HW211322   2.567   4.254   4.815  0.0853  0.5601  0.6246
 2831SOL    HW311323   2.586   4.342   4.693  0.2133  0.1385  0.3376
 2831SOL    MW411324   2.549   4.273   4.732  0.5539 -0.0181  0.3842
 2832SOL     OW11325   3.393   4.411   4.521 -0.1103 -0.5274  0.0071
 2832SOL    HW211326   3.482   4.391   4.549 -0.4734  0.8801  2.2540
 2832SOL    HW311327   3.341   4.335   4.547 -0.2322  0.2776  2.2128
 2832SOL    MW411328   3.398   4.398   4.528 -0.1743 -0.2355  0.5946
 2833SOL     OW11329   3.655   4.332   4.625  0.1662 -0.1657  0.7634
 2833SOL    HW211330   3.650   4.239   4.649  0.6858 -0.3108  0.3292
 2833SOL    HW311331   3.748   4.350   4.618  0.0340 -0.2488 -1.5576
 2833SOL    MW411332   3.666   4.322   4.627  0.2174 -0.1958  0.3999
 2834SOL     OW11333   3.828   3.975   4.630  0.3189  0.1591  0.6217
 2834SOL    HW211334   3.885   3.899   4.619  1.2375  0.7904  1.0523
 2834SOL    HW311335   3.887   4.047   4.651 -0.2276  1.6145 -2.5048
 2834SOL    MW411336   3.843   3.974   4.631  0.3680  0.4344  0.2660
 2835SOL     OW11337   3.379   0.273   4.629 -0.3210 -0.1474  0.0730
 2835SOL    HW211338   3.328   0.276   4.710 -1.8975 -0.5668 -0.8735
 2835SOL    HW311339   3.358   0.188   4.590  1.5414 -0.5570 -0.0823
 2835SOL    MW411340   3.369   0.262   4.634 -0.2833 -0.2567 -0.0723
 2836SOL     OW11341   3.239   0.926   4.529 -0.3794 -0.8423 -0.0946
 2836SOL    HW211342   3.216   1.016   4.506 -1.4694 -1.2864 -0.7647
 2836SOL    HW311343   3.328   0.933   4.564 -0.2679  0.4265 -0.5881
 2836SOL    MW411344   3.248   0.939   4.531 -0.5085 -0.7335 -0.2481
 2837SOL     OW11345   3.132   1.459   4.590 -0.5136 -0.4303 -0.7520
 2837SOL    HW211346   3.045   1.419   4.588 -1.0631  0.6560  0.4784
 2837SOL    HW311347   3.117   1.551   4.569  0.2299 -0.0670  0.2299
 2837SOL    MW411348   3.119   1.466   4.587 -0.4880 -0.2391 -0.4601
 2838SOL     OW11349   4.090   1.410   4.625 -0.1469 -0.4354 -0.0885
 2838SOL    HW211350   4.056   1.321   4.620 -0.3508 -0.3814  0.2782
 2838SOL    HW311351   4.051   1.446   4.706  0.2417 -0.1459 -0.0287
 2838SOL    MW411352   4.080   1.403   4.635 -0.1225 -0.3901 -0.0322
 2839SOL     OW11353   3.521   1.319   4.564  0.2260  0.7245  0.0224
 2839SOL    HW211354   3.587   1.269   4.612  1.8798  2.7981 -0.0191
 2839SOL    HW311355   3.565   1.344   4.482 -0.3236  2.7758  0.3275
 2839SOL    MW411356   3.536   1.315   4.559  0.3717  1.2687  0.0572
 2840SOL     OW11357   4.128   0.989   4.478  0.0547 -0.0357 -0.4940
 2840SOL    HW211358   4.168   0.915   4.524 -2.1796 -0.2630  1.1367
 2840SOL    HW311359   4.099   0.953   4.394 -0.0598 -0.7384 -0.1542
 2840SOL    MW411360   4.130   0.974   4.473 -0.2552 -0.1584 -0.2340
 2841SOL     OW11361   4.052   0.572   4.603  0.2903 -0.3949  0.2229
 2841SOL    HW211362   3.967   0.573   4.560  0.9101 -0.7444 -1.0194
 2841SOL    HW311363   4.064   0.481   4.630  0.0266 -0.2330  0.8981
 2841SOL    MW411364   4.042   0.560   4.601  0.3373 -0.4197  0.1481
 2842SOL     OW11365   3.536   1.583   4.675 -0.2614  0.2760  0.0093
 2842SOL    HW211366   3.496   1.642   4.611  1.8750  0.9327 -0.7582
 2842SOL    HW311367   3.515   1.495   4.644 -2.6146  0.5990  0.6104
 2842SOL    MW411368   3.528   1.580   4.663 -0.2900  0.4053 -0.0127
 2843SOL     OW11369   3.766   1.947   4.550  0.2034  0.0710  0.2784
 2843SOL    HW211370   3.762   1.852   4.562 -0.8574 -0.1164 -1.2931
 2843SOL    HW311371   3.680   1.979   4.579 -0.5760  0.1651 -2.0240
 2843SOL    MW411372   3.754   1.939   4.555 -0.0394  0.0587 -0.2327
 2844SOL     OW11373   3.501   2.006   4.615  0.0515 -0.3484 -0.2130
 2844SOL    HW211374   3.514   2.081   4.674  0.8583  0.7705 -1.8037
 2844SOL    HW311375   3.417   2.023   4.572  1.3536  0.8463 -2.3215
 2844SOL    MW411376   3.492   2.018   4.617  0.3297 -0.0432 -0.7010
 2845SOL     OW11377   3.996   1.780   4.769  0.0886  0.5677  0.1436
 2845SOL    HW211378   4.002   1.875   4.763 -0.7858  0.5107 -1.8269
 2845SOL    HW311379   3.902   1.761   4.767  0.2367 -0.3162  0.9664
 2845SOL    MW411380   3.984   1.790   4.768 -0.0072  0.4435 -0.0078
 2846SOL     OW11381   4.316   1.776   4.508  0.0517 -0.1463 -0.0425
 2846SOL    HW211382   4.370   1.753   4.433 -0.3423 -1.6837  0.1332
 2846SOL    HW311383   4.238   1.720   4.500  0.7779 -1.6063  2.4431
 2846SOL    MW411384   4.313   1.766   4.497  0.0955 -0.5418  0.3086
 2847SOL     OW11385   3.572   2.433   4.569 -0.2741 -0.2654  0.0899
 2847SOL    HW211386   3.493   2.485   4.583 -0.3477 -0.6830  1.3434
 2847SOL    HW311387   3.644   2.496   4.581 -0.4185  0.3477 -2.1209
 2847SOL    MW411388   3.571   2.448   4.573 -0.3028 -0.2396 -0.0364
 2848SOL     OW11389   3.594   2.231   4.757 -0.3119 -0.2436 -0.2159
 2848SOL    HW211390   3.688   2.220   4.763 -0.5360 -2.1985 -0.0456
 2848SOL    HW311391   3.581   2.296   4.688  1.1386 -0.0593 -0.3170
 2848SOL    MW411392   3.604   2.238   4.749 -0.1501 -0.4772 -0.2068
 2849SOL     OW11393   3.754   2.909   4.545  0.0216  0.7025 -0.0198
 2849SOL    HW211394   3.747   3.005   4.545 -1.1465  0.6378  1.7795
 2849SOL    HW311395   3.826   2.891   4.605  0.0292  0.4566 -0.1050
 2849SOL    MW411396   3.762   2.920   4.553 -0.1315  0.6615  0.2064
 2850SOL     OW11397   4.447   2.691   4.660 -0.2546 -0.1711  1.1448
 2850SOL    HW211398   4.491   2.673   4.743  0.4380 -0.4034  0.7280
 2850SOL    HW311399   4.506   2.751   4.614 -0.3938 -0.4563  0.5928
 2850SOL    MW411400   4.460   2.697   4.665 -0.1816 -0.2393  1.0170
 2851SOL     OW11401   3.484   3.292   4.517 -0.6114  0.1628  0.2873
 2851SOL    HW211402   3.391   3.278   4.530 -0.4808 -0.5354  0.4915
 2851SOL    HW311403   3.500   3.266   4.426 -0.7220  0.8170  0.0847
 2851SOL    MW411404   3.474   3.286   4.507 -0.6088  0.1570  0.2875
 2852SOL     OW11405   3.885   3.117   4.816  0.4311  0.1757  0.3187
 2852SOL    HW211406   3.840   3.177   4.875  0.0968 -0.1994  0.4413
 2852SOL    HW311407   3.846   3.134   4.730 -1.6925 -1.8958  0.8492
 2852SOL    MW411408   3.874   3.127   4.812  0.1068 -0.1471  0.4049
 2853SOL     OW11409   3.503   3.571   4.463  0.0359 -0.0405  0.1574
 2853SOL    HW211410   3.475   3.484   4.490  0.4387  0.0430  0.8602
 2853SOL    HW311411   3.592   3.580   4.497 -0.3968  1.0589  1.0836
 2853SOL    MW411412   3.511   3.561   4.471  0.0319  0.1156  0.3723
 2854SOL     OW11413   3.796   3.577   4.488  0.1672  0.0509 -0.5359
 2854SOL    HW211414   3.803   3.583   4.392 -0.4686 -1.2345 -0.6803
 2854SOL    HW311415   3.850   3.500   4.510  0.3998  0.4091  0.1489
 2854SOL    MW411416   3.804   3.567   4.478  0.1140 -0.0715 -0.4646
 2855SOL     OW11417   4.211   3.319   4.601  0.3342 -0.2152  0.2599
 2855SOL    HW211418   4.305   3.321   4.587  0.4515  0.1457  1.0392
 2855SOL    HW311419   4.195   3.238   4.650  0.3771  0.1948  0.9721
 2855SOL    MW411420   4.221   3.309   4.606  0.3553 -0.1135  0.4567
 2856SOL     OW11421   4.125   3.958   4.459  0.1902  0.1553 -0.1430
 2856SOL    HW211422   4.109   4.024   4.527 -0.7469  0.3967 -0.5864
 2856SOL    HW311423   4.081   3.879   4.491 -0.0289  0.1947 -0.3502
 2856SOL    MW411424   4.117   3.956   4.473  0.0377  0.1924 -0.2288
 2857SOL     OW11425   3.912   4.415   4.555  0.2822 -0.3123 -0.4067
 2857SOL    HW211426   3.884   4.421   4.464  2.3644  2.4469 -0.9328
 2857SOL    HW311427   3.893   4.501   4.592  2.4509 -0.3212  0.8173
 2857SOL    MW411428   3.906   4.427   4.548  0.8430  0.0506 -0.3146
 2858SOL     OW11429   3.291   0.027   4.471 -0.4490 -0.2506  0.1536
 2858SOL    HW211430   3.292   0.036   4.376  1.4748 -1.4143  0.0452
 2858SOL    HW311431   3.325  -0.061   4.488 -1.4625 -0.3415  1.8959
 2858SOL    MW411432   3.295   0.017   4.461 -0.3289 -0.4161  0.3691
 2859SOL     OW11433   3.505   0.924   4.587 -0.2609  0.1342  0.0780
 2859SOL    HW211434   3.543   0.841   4.557 -1.6715 -0.7686  0.6999
 2859SOL    HW311435   3.580   0.978   4.609  0.7518 -0.1620 -2.4538
 2859SOL    MW411436   3.520   0.920   4.586 -0.3134 -0.0240 -0.1740
 2860SOL     OW11437   3.704   1.122   4.679 -0.7252 -0.1841  0.3179
 2860SOL    HW211438   3.736   1.073   4.755 -0.5565 -1.3625 -0.4872
 2860SOL    HW311439   3.782   1.138   4.626 -0.7666  1.0527  0.6147
 2860SOL    MW411440   3.718   1.117   4.682 -0.7084 -0.1764  0.2509
 2861SOL     OW11441   0.030   0.166   4.513 -0.4114  0.1003  0.2678
 2861SOL    HW211442  -0.009   0.254   4.509  0.3244  0.4427  0.4863
 2861SOL    HW311443  -0.032   0.115   4.565 -0.9363  0.4465 -0.0119
 2861SOL    MW411444   0.017   0.171   4.520 -0.3836  0.1912  0.2597
 2862SOL     OW11445   0.496   0.655   4.594 -0.0132 -0.2464  0.3618
 2862SOL    HW211446   0.469   0.738   4.556  0.4659 -0.2097  0.0911
 2862SOL    HW311447   0.419   0.598   4.586  0.0195 -0.1767 -0.4818
 2862SOL    MW411448   0.482   0.658   4.588  0.0543 -0.2324  0.2147
 2863SOL     OW11449   3.793   0.534   4.506  0.3117  0.1861 -0.3611
 2863SOL    HW211450   3.760   0.444   4.504  0.5833  0.0826 -0.2023
 2863SOL    HW311451   3.714   0.588   4.504  0.1845 -0.0336 -2.1411
 2863SOL    MW411452   3.778   0.529   4.505  0.3308  0.1435 -0.5750
 2864SOL     OW11453   3.651   1.464   4.364 -0.3893 -0.1492  0.3950
 2864SOL    HW211454   3.596   1.522   4.312 -0.6296  0.7742  1.6560
 2864SOL    HW311455   3.699   1.522   4.423 -0.2515 -1.1812  1.3215
 2864SOL    MW411456   3.650   1.479   4.365 -0.4028 -0.1635  0.6836
 2865SOL     OW11457   0.317   1.139   4.813 -0.4471 -0.1647 -0.2154
 2865SOL    HW211458   0.242   1.166   4.762 -0.3043 -0.7826 -0.7586
 2865SOL    HW311459   0.282   1.076   4.876 -0.5254  0.1755  0.0847
 2865SOL    MW411460   0.303   1.134   4.815 -0.4386 -0.2013 -0.2475
 2866SOL     OW11461   0.196   1.574   4.522 -0.1103 -0.3552 -0.6541
 2866SOL    HW211462   0.222   1.488   4.555 -0.4636  0.1199  0.8516
 2866SOL    HW311463   0.136   1.554   4.450  0.6328 -1.3829 -1.0064
 2866SOL    MW411464   0.192   1.560   4.516 -0.0589 -0.4281 -0.5019
 2867SOL     OW11465   4.062   1.659   4.521 -0.4949  0.6715  0.6839
 2867SOL    HW211466   4.059   1.567   4.547 -0.0943  0.4203 -0.1430
 2867SOL    HW311467   4.054   1.707   4.604  0.8418 -0.1077  1.2788
 2867SOL    MW411468   4.060   1.653   4.536 -0.2657  0.5356  0.6533
 2868SOL     OW11469   2.953   2.687   4.644 -0.1850  0.0529  0.5384
 2868SOL    HW211470   2.948   2.660   4.735 -0.9342  1.4471  0.9331
 2868SOL    HW311471   2.985   2.610   4.597 -0.7127 -0.9710  1.8329
 2868SOL    MW411472   2.957   2.674   4.649 -0.3535  0.1017  0.7613
 2869SOL     OW11473   4.208   2.112   4.251 -0.4252 -0.1297  0.1474
 2869SOL    HW211474   4.142   2.056   4.209 -1.2506  1.3976 -0.6201
 2869SOL    HW311475   4.199   2.092   4.345  0.0685 -2.0870 -0.1910
 2869SOL    MW411476   4.198   2.102   4.258 -0.4689 -0.1864  0.0015
 2870SOL     OW11477   4.256   2.307   4.666 -0.1015  0.0166  0.0624
 2870SOL    HW211478   4.250   2.220   4.627 -2.2990  1.3122 -2.6737
 2870SOL    HW311479   4.330   2.349   4.622 -0.0337  0.0835  0.2369
 2870SOL    MW411480   4.265   2.301   4.655 -0.3825  0.1963 -0.2756
 2871SOL     OW11481   3.780   1.655   4.510  0.1254  0.1488  0.6375
 2871SOL    HW211482   3.756   1.626   4.598  1.5779 -1.5431  0.5045
 2871SOL    HW311483   3.875   1.665   4.513  0.0059  1.8581 -0.2528
 2871SOL    MW411484   3.790   1.653   4.522  0.3013  0.1511  0.5025
 2872SOL     OW11485   3.343   2.603   4.621  0.5079  0.7086  0.3500
 2872SOL    HW211486   3.401   2.673   4.591  1.9784 -0.6531 -0.0329
 2872SOL    HW311487   3.267   2.609   4.563  0.9611  1.4974 -0.1752
 2872SOL    MW411488   3.340   2.613   4.609  0.7617  0.6330  0.2302
 2873SOL     OW11489   4.121   2.329   4.912 -0.3121 -0.4467  0.2522
 2873SOL    HW211490   4.177   2.286   4.977  1.9322  0.9688 -0.6992
 2873SOL    HW311491   4.172   2.329   4.831 -1.2297  1.8348 -0.3801
 2873SOL    MW411492   4.135   2.324   4.910 -0.1370  0.0411  0.0433
 2874SOL     OW11493   3.949   2.803   4.703  0.1329  0.2821  0.2017
 2874SOL    HW211494   4.028   2.792   4.651 -0.6483 -0.9730 -0.7313
 2874SOL    HW311495   3.978   2.852   4.780  1.6917  0.3548 -0.4135
 2874SOL    MW411496   3.963   2.808   4.706  0.2355  0.1261 -0.0026
 2875SOL     OW11497   3.950   3.341   4.499 -0.0612 -0.3318  0.1739
 2875SOL    HW211498   3.973   3.326   4.407 -1.3640 -2.5639  0.1851
 2875SOL    HW311499   4.035   3.351   4.543  0.5868  0.1807 -1.1733
 2875SOL    MW411500   3.965   3.340   4.493 -0.1476 -0.5587 -0.0023
 2876SOL     OW11501   0.101   4.142   4.636 -0.2145 -0.0978  0.2053
 2876SOL    HW211502   0.194   4.125   4.651 -0.2333  0.7357  1.3443
 2876SOL    HW311503   0.068   4.062   4.596  0.8931 -0.5878  0.2570
 2876SOL    MW411504   0.109   4.129   4.633 -0.0709 -0.0525  0.3624
 2877SOL     OW11505   4.206   4.469   4.521  0.5679  0.2699 -0.1283
 2877SOL    HW211506   4.246   4.409   4.583  2.0332  0.7631 -0.5664
 2877SOL    HW311507   4.112   4.455   4.530  0.8385 -0.8639  0.9782
 2877SOL    MW411508   4.199   4.459   4.530  0.7969  0.1853 -0.0401
 2878SOL     OW11509   3.645   0.289   4.497  0.5711 -0.1418 -0.5451
 2878SOL    HW211510   3.608   0.234   4.429 -0.7542 -0.5792  0.5127
 2878SOL    HW311511   3.572   0.308   4.556  1.6298  0.4633  0.6024
 2878SOL    MW411512   3.631   0.285   4.496  0.5359 -0.1196 -0.2541
 2879SOL     OW11513   4.485   3.303   4.541 -0.5292  0.0364 -0.0670
 2879SOL    HW211514   4.489   3.271   4.450  2.9071 -1.5829  0.5754
 2879SOL    HW311515   4.538   3.382   4.541 -0.6628  0.1244  0.5073
 2879SOL    MW411516   4.492   3.309   4.529 -0.0934 -0.1656  0.0935
 2880SOL     OW11517   3.328   0.503   4.477 -0.5133  0.3461  0.1299
 2880SOL    HW211518   3.322   0.421   4.525 -1.1793  0.8208  0.8739
 2880SOL    HW311519   3.254   0.555   4.509  1.6172  2.4114  1.8998
 2880SOL    MW411520   3.317   0.499   4.487 -0.3201  0.6812  0.4616
 2881SOL     OW11521   4.256   4.417   4.241 -0.0080 -0.3675  0.3973
 2881SOL    HW211522   4.340   4.370   4.242  1.3604  2.0095 -0.0323
 2881SOL    HW311523   4.243   4.443   4.332  1.0957  1.5763  0.0316
 2881SOL    MW411524   4.265   4.414   4.253  0.3181  0.2026  0.2924
   4.49070   4.66690  10.00000
