Gromacs Runs On Most of All Computer Systems in water
11556
    1DMSO    SD    1   1.549   0.418   4.581  0.2273  0.2293 -0.0755
    1DMSO   CD1    2   1.448   0.467   4.719  0.0671  0.8834 -0.1993
    1DMSO    OD    3   1.692   0.473   4.597  0.2512 -0.6370  0.1707
    1DMSO   CD2    4   1.545   0.240   4.606 -0.2211  0.6877  0.3333
    2DMSO    SD    5   1.679   1.955   4.430  0.2334  0.0362  0.1899
    2DMSO   CD1    6   1.749   2.097   4.342 -0.3452  0.0956 -0.4350
    2DMSO    OD    7   1.529   1.985   4.439  0.1865 -0.2769  0.0371
    2DMSO   CD2    8   1.700   1.832   4.303 -0.1091 -0.9680  0.3446
    3DMSO    SD    9   2.690   0.519   4.659  0.0927 -0.0986 -0.0302
    3DMSO   CD1   10   2.771   0.627   4.537 -0.8465  0.5250 -0.1662
    3DMSO    OD   11   2.543   0.501   4.613 -0.2726  0.2024  0.2518
    3DMSO   CD2   12   2.775   0.366   4.619 -0.0153 -0.3359 -0.5533
    4DMSO    SD   13   1.969   4.311   4.372 -0.3364  0.5939 -0.4280
    4DMSO   CD1   14   2.025   4.310   4.544 -0.2467  0.2622  0.4891
    4DMSO    OD   15   1.851   4.215   4.362  0.7272  0.1931 -0.1817
    4DMSO   CD2   16   1.914   4.478   4.361  0.0962 -0.1328 -0.3829
    5DMSO    SD   17   0.607   4.088   4.497 -0.2955  0.5098  0.2305
    5DMSO   CD1   18   0.432   4.093   4.538  0.1329  0.0449  0.1020
    5DMSO    OD   19   0.618   4.053   4.348 -0.3990 -0.2292 -0.1764
    5DMSO   CD2   20   0.640   4.265   4.503 -0.4638 -0.3134 -0.3618
    6DMSO    SD   21   3.877   4.206   4.509  0.2286  0.1055 -0.1125
    6DMSO   CD1   22   4.023   4.314   4.516 -0.3399 -0.2043 -0.2150
    6DMSO    OD   23   3.919   4.065   4.506  0.8045  0.3232  0.1888
    6DMSO   CD2   24   3.809   4.247   4.671  0.5756 -0.0453 -0.2258
    7DMSO    SD   25   3.415   3.050   4.490  0.0879  0.3588  0.2830
    7DMSO   CD1   26   3.567   3.012   4.581 -0.0020  0.1565  0.3809
    7DMSO    OD   27   3.385   2.919   4.415  0.1118 -0.0720 -0.2138
    7DMSO   CD2   28   3.308   3.053   4.635  0.4829  0.0145  0.4123
    8DMSO    SD   29   2.196   3.935   4.534 -0.2072  0.0889  0.3584
    8DMSO   CD1   30   2.150   3.914   4.361 -0.0616  0.1653 -0.1198
    8DMSO    OD   31   2.238   4.076   4.562  0.2209  0.0762  0.3184
    8DMSO   CD2   32   2.031   3.911   4.605  0.0679 -0.1923  0.1249
    9DMSO    SD   33   0.502   0.199   4.361 -0.5705  0.2897  0.0475
    9DMSO   CD1   34   0.480   0.190   4.186 -0.1034  0.0562  0.0346
    9DMSO    OD   35   0.561   0.066   4.408  0.0451  0.3227 -0.0987
    9DMSO   CD2   36   0.632   0.318   4.364 -0.2815  0.2286 -0.0417
   10SOL     OW   37   1.369   2.413   1.056 -0.1274  0.3437 -0.1720
   10SOL    HW2   38   1.453   2.450   1.031  0.1529  0.1808  0.5059
   10SOL    HW3   39   1.373   2.322   1.024 -1.2882  1.1993 -2.8909
   10SOL    MW4   40   1.380   2.406   1.048 -0.2436  0.4351 -0.4413
   11SOL     OW   41   1.790   2.183   0.212  0.0244  0.2563 -0.1953
   11SOL    HW2   42   1.777   2.181   0.117  1.1386  0.1474 -0.3521
   11SOL    HW3   43   1.728   2.249   0.243 -1.9217 -1.2447 -0.7257
   11SOL    MW4   44   1.780   2.191   0.203 -0.0853  0.0439 -0.2860
   12SOL     OW   45   2.489   3.854   1.423 -0.4871 -0.0346 -0.0994
   12SOL    HW2   46   2.494   3.855   1.519 -0.3261 -0.3281 -0.1039
   12SOL    HW3   47   2.405   3.895   1.403  0.2808  1.6709  0.1046
   12SOL    MW4   48   2.478   3.860   1.433 -0.3646  0.1517 -0.0731
   13SOL     OW   49   0.237   2.069   1.039 -0.4055 -0.3869 -0.0972
   13SOL    HW2   50   0.151   2.110   1.030 -0.5900 -0.2428  2.0103
   13SOL    HW3   51   0.231   1.989   0.987 -1.9957 -0.6240  0.4108
   13SOL    MW4   52   0.224   2.064   1.031 -0.6396 -0.3991  0.2479
   14SOL     OW   53   0.896   3.239   1.309 -0.4255 -0.6149 -0.0274
   14SOL    HW2   54   0.971   3.185   1.334  0.4864  0.0495 -1.2575
   14SOL    HW3   55   0.908   3.320   1.358  0.3254 -0.0514 -1.1137
   14SOL    MW4   56   0.908   3.242   1.318 -0.2061 -0.4529 -0.3330
   15SOL     OW   57   2.729   3.952   1.310 -0.1811 -0.5080 -0.0611
   15SOL    HW2   58   2.741   3.935   1.216 -1.3144  0.1327 -0.3311
   15SOL    HW3   59   2.651   3.902   1.333 -0.1817 -0.2725  0.4434
   15SOL    MW4   60   2.721   3.943   1.300 -0.3307 -0.3924 -0.0301
   16SOL     OW   61   0.661   3.872   0.624  0.1472  0.4212 -0.1140
   16SOL    HW2   62   0.686   3.859   0.533  0.1820  0.6401 -0.1353
   16SOL    HW3   63   0.588   3.811   0.638  0.3591  0.1466 -0.1935
   16SOL    MW4   64   0.655   3.862   0.614  0.1797  0.4138 -0.1273
   17SOL     OW   65   2.780   0.135   0.251  0.0317 -0.0247  0.1414
   17SOL    HW2   66   2.744   0.141   0.340 -0.9851 -1.4367 -0.1649
   17SOL    HW3   67   2.706   0.154   0.194  0.8021  1.3747 -0.4115
   17SOL    MW4   68   2.766   0.138   0.255 -0.0008 -0.0264  0.0280
   18SOL     OW   69   2.356   3.345   0.271  0.1189 -0.4933  0.3984
   18SOL    HW2   70   2.407   3.408   0.221 -0.3560  0.9482  1.6574
   18SOL    HW3   71   2.272   3.389   0.287  0.0996 -1.0727  2.0641
   18SOL    MW4   72   2.351   3.359   0.267  0.0537 -0.3795  0.7843
   19SOL     OW   73   1.732   0.272   0.374 -0.7839 -0.2387  0.0606
   19SOL    HW2   74   1.769   0.216   0.306 -0.8850  0.8942 -0.9399
   19SOL    HW3   75   1.663   0.219   0.414 -0.1751 -1.2086 -0.1608
   19SOL    MW4   76   1.728   0.258   0.370 -0.7169 -0.2172 -0.1006
   20SOL     OW   77   2.361   4.655   0.256  0.2964 -0.3041 -0.1105
   20SOL    HW2   78   2.403   4.572   0.278 -0.3551 -0.3668  0.9340
   20SOL    HW3   79   2.388   4.715   0.326 -0.5167 -0.0692  0.0069
   20SOL    MW4   80   2.370   4.652   0.268  0.1032 -0.2814  0.0428
   21SOL     OW   81   2.247   3.183   1.354  0.0113 -0.4607  0.0103
   21SOL    HW2   82   2.230   3.276   1.373  3.5527  0.1402  0.6716
   21SOL    HW3   83   2.256   3.179   1.259  1.2426  0.1937  0.0793
   21SOL    MW4   84   2.246   3.195   1.344  0.6410 -0.2951  0.1066
   22SOL     OW   85   1.538   4.378   1.351 -0.6691  0.3135 -0.0173
   22SOL    HW2   86   1.478   4.341   1.415 -0.2324 -0.2922  0.0451
   22SOL    HW3   87   1.550   4.469   1.378 -0.1059 -0.0664  1.0405
   22SOL    MW4   88   1.532   4.385   1.363 -0.5372  0.1834  0.1305
   23SOL     OW   89   2.026   4.086   0.980 -0.0224 -0.5106  0.6131
   23SOL    HW2   90   2.106   4.041   1.007  0.7406  1.2781  1.4031
   23SOL    HW3   91   2.026   4.167   1.031 -1.8937 -0.0823 -0.0332
   23SOL    MW4   92   2.036   4.091   0.990 -0.1686 -0.2181  0.6321
   24SOL     OW   93   2.053   1.292   1.393  0.0198  0.0360  0.3313
   24SOL    HW2   94   1.979   1.233   1.404  0.0889  0.0068  0.6692
   24SOL    HW3   95   2.125   1.250   1.440 -0.1358  0.7526  1.2392
   24SOL    MW4   96   2.053   1.279   1.401  0.0084  0.1267  0.4956
   25SOL     OW   97   3.812   3.386   0.215  0.1966  0.0586  0.2978
   25SOL    HW2   98   3.880   3.318   0.219  0.4143  0.2699  0.1763
   25SOL    HW3   99   3.832   3.435   0.136  0.3717  0.6223  0.6927
   25SOL    MW4  100   3.823   3.383   0.205  0.2484  0.1608  0.3338
   26SOL     OW  101   1.844   2.211   0.682  0.2084  0.5138  1.1924
   26SOL    HW2  102   1.930   2.240   0.652  0.2914 -0.7504  0.1597
   26SOL    HW3  103   1.861   2.173   0.769  0.6082  0.7020  1.1967
   26SOL    MW4  104   1.858   2.210   0.690  0.2721  0.3718  1.0567
   27SOL     OW  105   0.668   1.263   1.036  0.2576  0.0344 -0.0394
   27SOL    HW2  106   0.600   1.308   0.986 -0.6906 -1.7102 -0.3676
   27SOL    HW3  107   0.644   1.279   1.128  0.6982  1.2984 -0.1281
   27SOL    MW4  108   0.656   1.271   1.042  0.1906 -0.0290 -0.0944
   28SOL     OW  109   2.024   2.720   0.356  0.2036  0.0468 -0.1974
   28SOL    HW2  110   1.953   2.741   0.418 -0.3386 -2.2493 -0.0074
   28SOL    HW3  111   1.994   2.756   0.273 -0.9732 -0.4517 -0.0060
   28SOL    MW4  112   2.011   2.727   0.353 -0.0232 -0.3219 -0.1471
   29SOL     OW  113   0.731   2.607   0.746  0.1896 -0.4702  0.0553
   29SOL    HW2  114   0.733   2.520   0.705  1.5811  0.2605 -1.4465
   29SOL    HW3  115   0.793   2.659   0.695  2.4060  0.3196  3.3573
   29SOL    MW4  116   0.740   2.602   0.734  0.6656 -0.2696  0.2928
   30SOL     OW  117   2.071   1.960   0.493 -0.7630 -0.5674 -0.4538
   30SOL    HW2  118   2.011   1.908   0.546  0.2346 -1.3430 -0.0743
   30SOL    HW3  119   2.120   2.013   0.556 -0.9125 -0.0762 -0.7469
   30SOL    MW4  120   2.069   1.960   0.508 -0.6511 -0.6049 -0.4424
   31SOL     OW  121   0.793   4.283   0.692 -0.1263 -0.2461  0.0419
   31SOL    HW2  122   0.771   4.207   0.745 -0.3660 -1.2238 -1.4604
   31SOL    HW3  123   0.761   4.358   0.744 -0.5811 -1.1942  1.1529
   31SOL    MW4  124   0.786   4.283   0.706 -0.2179 -0.5001 -0.0097
   32SOL     OW  125   4.329   2.143   0.308 -0.3863 -0.4843  0.0660
   32SOL    HW2  126   4.328   2.130   0.402 -0.5018  2.5020  0.5340
   32SOL    HW3  127   4.237   2.157   0.285 -0.2687 -0.3581 -0.3349
   32SOL    MW4  128   4.316   2.143   0.317 -0.3860 -0.0737  0.0748
   33SOL     OW  129   4.093   2.729   1.445  0.4556 -0.1274  0.1780
   33SOL    HW2  130   4.049   2.660   1.395 -1.4094  2.0222 -1.2577
   33SOL    HW3  131   4.077   2.705   1.536 -0.2011 -1.5760 -0.2894
   33SOL    MW4  132   4.085   2.717   1.450  0.1229 -0.0349 -0.0731
   34SOL     OW  133   0.934   2.375   1.032  0.0956  0.2739  0.3273
   34SOL    HW2  134   0.872   2.441   1.000 -1.4473 -1.0285  0.5743
   34SOL    HW3  135   0.942   2.394   1.126  2.1299  2.0791 -0.1788
   34SOL    MW4  136   0.927   2.386   1.040  0.1604  0.3402  0.2931
   35SOL     OW  137   0.928   2.952   0.958  0.4092 -0.0560 -0.2925
   35SOL    HW2  138   0.849   2.903   0.979  0.2383  0.2661 -0.1825
   35SOL    HW3  139   0.912   3.040   0.993  0.5799  0.1691 -0.7836
   35SOL    MW4  140   0.916   2.957   0.966  0.4092  0.0162 -0.3428
   36SOL     OW  141   1.760   3.993   1.342  0.3706 -0.2188  0.2095
   36SOL    HW2  142   1.769   3.960   1.253 -0.9616 -0.2864  0.0861
   36SOL    HW3  143   1.692   3.939   1.381 -0.1593  0.8225  0.7651
   36SOL    MW4  144   1.752   3.982   1.335  0.1249 -0.0903  0.2665
   37SOL     OW  145   3.658   0.686   0.310 -0.0739  0.5689  0.0324
   37SOL    HW2  146   3.688   0.759   0.254  1.0272 -1.4382 -2.0706
   37SOL    HW3  147   3.739   0.646   0.343 -0.7106  1.4554  2.7866
   37SOL    MW4  148   3.673   0.691   0.307 -0.0126  0.4210  0.1183
   38SOL     OW  149   3.897   1.301   0.403  0.1464  0.0684  0.1398
   38SOL    HW2  150   3.956   1.236   0.442  0.9769 -0.0038 -1.2073
   38SOL    HW3  151   3.955   1.361   0.356 -0.8285  0.1060 -1.0458
   38SOL    MW4  152   3.913   1.300   0.402  0.1274  0.0638 -0.1943
   39SOL     OW  153   0.907   2.418   1.325  0.0483  0.1497  0.1083
   39SOL    HW2  154   0.986   2.382   1.365  0.5438  0.7345 -0.3444
   39SOL    HW3  155   0.902   2.507   1.359 -1.7311 -0.6362  2.0388
   39SOL    MW4  156   0.917   2.425   1.335 -0.1211  0.1232  0.3033
   40SOL     OW  157   0.694   2.268   1.427  0.2717 -0.0373  0.0159
   40SOL    HW2  158   0.772   2.310   1.393  0.3950  1.1291  1.6448
   40SOL    HW3  159   0.622   2.324   1.399  0.0141 -1.0375 -1.3690
   40SOL    MW4  160   0.695   2.281   1.419  0.2540 -0.0153  0.0481
   41SOL     OW  161   2.633   0.521   0.341 -0.3630 -0.3037 -0.4763
   41SOL    HW2  162   2.724   0.492   0.340 -0.2016  0.2140 -0.5969
   41SOL    HW3  163   2.625   0.580   0.266 -0.3743  0.9475  0.4951
   41SOL    MW4  164   2.644   0.525   0.331 -0.3432 -0.0703 -0.3641
   42SOL     OW  165   4.058   1.667   1.040 -0.2494 -0.1016  0.0540
   42SOL    HW2  166   4.039   1.588   0.990  0.7064  0.7855 -1.7566
   42SOL    HW3  167   3.986   1.727   1.020  0.0850  0.2193 -0.2136
   42SOL    MW4  168   4.046   1.665   1.031 -0.0791  0.0578 -0.2202
   43SOL     OW  169   0.365   0.686   0.283 -0.3225  0.2613 -0.3748
   43SOL    HW2  170   0.417   0.608   0.268 -1.6290 -0.6548 -0.2312
   43SOL    HW3  171   0.313   0.696   0.203 -0.6599  0.5904 -0.1180
   43SOL    MW4  172   0.365   0.677   0.271 -0.5394  0.1838 -0.3220
   44SOL     OW  173   4.050   0.082   1.366  0.0700 -0.5400 -0.2832
   44SOL    HW2  174   3.982   0.025   1.402  0.9165 -1.1265  0.3971
   44SOL    HW3  175   4.132   0.043   1.394  0.6633  1.2173  0.5079
   44SOL    MW4  176   4.051   0.069   1.374  0.2599 -0.3855 -0.0891
   45SOL     OW  177   1.399   2.228   0.219 -0.0620 -0.4557  0.1561
   45SOL    HW2  178   1.471   2.282   0.251 -0.4403  0.4497 -0.5292
   45SOL    HW3  179   1.420   2.140   0.252  0.3868  0.1462  1.5318
   45SOL    MW4  180   1.411   2.223   0.228 -0.0527 -0.2569  0.2472
   46SOL     OW  181   3.171   3.164   1.385 -0.4936  0.2067 -0.2291
   46SOL    HW2  182   3.150   3.185   1.294 -2.1033 -0.9499 -0.1546
   46SOL    HW3  183   3.170   3.249   1.430  1.6824  0.9605 -1.5122
   46SOL    MW4  184   3.168   3.178   1.379 -0.4189  0.1535 -0.3886
   47SOL     OW  185   3.344   4.419   1.061 -0.0176  0.0622 -0.0245
   47SOL    HW2  186   3.339   4.429   1.156 -0.4191  1.3893 -0.1745
   47SOL    HW3  187   3.273   4.474   1.027  1.0616  0.7851 -1.1523
   47SOL    MW4  188   3.334   4.428   1.069  0.0718  0.3327 -0.1931
   48SOL     OW  189   2.256   2.476   1.013  0.6716  0.5402  0.3385
   48SOL    HW2  190   2.167   2.509   1.000  1.4279  2.7082  0.4874
   48SOL    HW3  191   2.258   2.446   1.104 -0.6416 -1.9703 -0.4127
   48SOL    MW4  192   2.245   2.477   1.023  0.5982  0.4950  0.2590
   49SOL     OW  193   1.342   4.256   1.487  0.1992 -0.0239 -0.0575
   49SOL    HW2  194   1.324   4.167   1.454 -3.1262  0.3534  0.4947
   49SOL    HW3  195   1.289   4.313   1.431  0.1776  1.3449  1.3156
   49SOL    MW4  196   1.332   4.252   1.475 -0.2424  0.2065  0.1965
   50SOL     OW  197   0.016   1.148   1.709 -0.2862  0.0193  0.6479
   50SOL    HW2  198  -0.059   1.185   1.755 -0.5342 -0.7044  0.8290
   50SOL    HW3  199   0.014   1.055   1.731  0.1568 -0.1555 -0.0507
   50SOL    MW4  200   0.006   1.141   1.718 -0.2605 -0.0993  0.5796
   51SOL     OW  201   0.898   1.184   1.370  0.2675  0.0154 -0.9199
   51SOL    HW2  202   0.992   1.191   1.350  0.5832 -1.5006 -0.0010
   51SOL    HW3  203   0.875   1.094   1.348 -0.2718 -0.5397  1.7048
   51SOL    MW4  204   0.908   1.173   1.364  0.2380 -0.2579 -0.4523
   52SOL     OW  205   2.157   2.938   0.470 -0.2909  0.4080  0.1548
   52SOL    HW2  206   2.128   2.861   0.421 -1.8474  0.5910  0.7584
   52SOL    HW3  207   2.214   2.985   0.410 -0.1993 -0.6531 -0.5986
   52SOL    MW4  208   2.160   2.934   0.456 -0.4842  0.2921  0.1351
   53SOL     OW  209   0.855   1.431   0.643 -0.3086  0.4692  0.1854
   53SOL    HW2  210   0.859   1.421   0.738  0.7546 -1.3236 -0.0261
   53SOL    HW3  211   0.785   1.372   0.616 -1.2683  1.7139 -0.0554
   53SOL    MW4  212   0.847   1.422   0.652 -0.2950  0.3969  0.1257
   54SOL     OW  213   1.435   0.993   0.561 -0.8509 -0.4146  0.1710
   54SOL    HW2  214   1.345   0.997   0.592 -1.3500 -0.4263 -1.2724
   54SOL    HW3  215   1.448   1.074   0.513 -0.5743 -1.0730 -0.8909
   54SOL    MW4  216   1.425   1.004   0.559 -0.8802 -0.5030 -0.1595
   55SOL     OW  217   1.533   0.138   0.512 -0.3486  0.0377  0.0838
   55SOL    HW2  218   1.492   0.135   0.425  0.2318 -1.2827 -0.1609
   55SOL    HW3  219   1.527   0.048   0.544  1.7629 -0.0400  0.3197
   55SOL    MW4  220   1.527   0.126   0.505  0.0066 -0.1468  0.0826
   56SOL     OW  221   3.365   1.581   1.406  0.0706  0.3658 -0.2074
   56SOL    HW2  222   3.374   1.493   1.370 -0.7832  0.0762  0.2869
   56SOL    HW3  223   3.386   1.572   1.499 -1.1949  0.4519  0.0990
   56SOL    MW4  224   3.369   1.568   1.414 -0.2090  0.3390 -0.1018
   57SOL     OW  225   2.261   1.684   1.339 -0.1160 -0.6648  0.0813
   57SOL    HW2  226   2.335   1.638   1.379 -0.5359 -2.0210 -0.6559
   57SOL    HW3  227   2.251   1.763   1.391  0.6706 -1.3707  1.3445
   57SOL    MW4  228   2.270   1.688   1.351 -0.0676 -0.9369  0.1507
   58SOL     OW  229   2.286   0.082   1.065  0.4732  0.6534 -0.2379
   58SOL    HW2  230   2.291   0.073   1.160  0.8497 -0.3503 -0.3433
   58SOL    HW3  231   2.200   0.120   1.049 -1.2016 -2.6817  0.2822
   58SOL    MW4  232   2.275   0.086   1.075  0.3019  0.0809 -0.1832
   59SOL     OW  233   0.238   2.288   1.383 -0.3848 -0.1438 -0.2597
   59SOL    HW2  234   0.227   2.290   1.478  3.3423  0.1447  0.2457
   59SOL    HW3  235   0.228   2.196   1.359 -2.4081 -0.0654  0.2459
   59SOL    MW4  236   0.235   2.276   1.392 -0.1600 -0.0954 -0.1263
   60SOL     OW  237   3.619   3.212   1.116  0.3574 -0.0151 -0.2334
   60SOL    HW2  238   3.537   3.252   1.088  0.0305 -1.2568 -1.0744
   60SOL    HW3  239   3.680   3.229   1.044  0.0659 -1.4694 -0.8501
   60SOL    MW4  240   3.617   3.220   1.103  0.2758 -0.3708 -0.4257
   61SOL     OW  241   0.254   2.558   0.940  0.3742 -0.0266 -0.4069
   61SOL    HW2  242   0.179   2.508   0.972 -0.1430  0.6236 -0.5915
   61SOL    HW3  243   0.330   2.515   0.979 -0.1052 -0.5803 -0.0759
   61SOL    MW4  244   0.254   2.545   0.950  0.2427 -0.0138 -0.3876
   62SOL     OW  245   4.464   3.657   0.709  0.2131  0.9478 -0.1362
   62SOL    HW2  246   4.393   3.695   0.657  0.1684  1.8658  0.5702
   62SOL    HW3  247   4.437   3.566   0.723 -0.2519  0.9695 -0.8610
   62SOL    MW4  248   4.451   3.650   0.704  0.1458  1.0718 -0.1386
   63SOL     OW  249   1.126   1.797   0.629 -0.2333 -0.0563 -0.3501
   63SOL    HW2  250   1.047   1.851   0.619 -0.9153 -0.6456  1.6624
   63SOL    HW3  251   1.197   1.852   0.596 -1.2973  0.9926 -0.9404
   63SOL    MW4  252   1.125   1.811   0.623 -0.4636  0.0043 -0.1624
   64SOL     OW  253   0.071   2.078   0.742  0.0518  0.0262 -0.1036
   64SOL    HW2  254   0.111   2.146   0.688  1.0063 -0.2638  0.2284
   64SOL    HW3  255   0.051   2.121   0.825  1.4454 -0.3087  0.4118
   64SOL    MW4  256   0.073   2.093   0.746  0.3616 -0.0563  0.0082
   65SOL     OW  257   2.185   0.721   0.563  0.0629  0.1085  0.0379
   65SOL    HW2  258   2.123   0.792   0.576  1.2870  1.2040 -0.0755
   65SOL    HW3  259   2.139   0.659   0.506 -0.1487  1.9012 -1.7564
   65SOL    MW4  260   2.171   0.722   0.557  0.1965  0.4896 -0.2138
   66SOL     OW  261   2.668   2.158   0.736  0.0153 -0.2468 -0.6853
   66SOL    HW2  262   2.633   2.236   0.692 -0.2848  0.4200  0.7024
   66SOL    HW3  263   2.640   2.085   0.681  0.5815  0.6443 -2.1920
   66SOL    MW4  264   2.660   2.159   0.723  0.0504 -0.0412 -0.7010
   67SOL     OW  265   2.588   1.880   0.270  0.1058 -0.1083  0.3530
   67SOL    HW2  266   2.526   1.807   0.264 -0.4452  0.2231  1.6900
   67SOL    HW3  267   2.539   1.956   0.236  0.1110 -0.0395  0.4983
   67SOL    MW4  268   2.573   1.881   0.265  0.0338 -0.0555  0.5486
   68SOL     OW  269   3.816   1.698   0.642  0.5077  0.2725 -0.1170
   68SOL    HW2  270   3.904   1.675   0.612 -0.0416 -2.0965 -0.0080
   68SOL    HW3  271   3.764   1.620   0.626 -1.3309  1.2635  0.8618
   68SOL    MW4  272   3.821   1.685   0.636  0.1926  0.0907  0.0265
   69SOL     OW  273   0.488   1.142   1.717  0.4493 -0.0021  0.1561
   69SOL    HW2  274   0.409   1.176   1.758  1.0413  1.5743  0.0573
   69SOL    HW3  275   0.472   1.150   1.623  1.2941  1.7621  0.1397
   69SOL    MW4  276   0.476   1.148   1.710  0.6388  0.4387  0.1409
   70SOL     OW  277   2.402   2.663   0.638 -0.4728  0.2889 -0.2015
   70SOL    HW2  278   2.494   2.667   0.612 -0.8809  0.9562 -1.5678
   70SOL    HW3  279   2.356   2.632   0.561 -1.1490 -2.1566  1.1465
   70SOL    MW4  280   2.408   2.660   0.624 -0.6158  0.0543 -0.2039
   71SOL     OW  281   3.570   2.696   0.303 -1.1020  0.0776  0.2605
   71SOL    HW2  282   3.598   2.693   0.394 -0.1593  0.0193 -0.0263
   71SOL    HW3  283   3.496   2.757   0.302 -0.2480  1.1237  0.8356
   71SOL    MW4  284   3.564   2.704   0.315 -0.8649  0.2079  0.2986
   72SOL     OW  285   3.381   2.074   1.062  0.1367 -0.2583 -0.1929
   72SOL    HW2  286   3.460   2.117   1.028  0.1771 -0.1652  0.0175
   72SOL    HW3  287   3.311   2.105   1.005  0.1584  0.1243 -0.0136
   72SOL    MW4  288   3.382   2.084   1.050  0.1449 -0.1955 -0.1415
   73SOL     OW  289   2.513   1.321   1.381 -0.0325 -0.0950  0.1894
   73SOL    HW2  290   2.446   1.263   1.419 -0.2933 -0.7793 -1.2975
   73SOL    HW3  291   2.595   1.274   1.395 -0.0656 -0.0849  0.4188
   73SOL    MW4  292   2.515   1.307   1.388 -0.0713 -0.1840  0.0235
   74SOL     OW  293   2.892   1.013   0.733 -0.3157  0.1078  0.3291
   74SOL    HW2  294   2.889   0.917   0.726  1.3546  0.0544 -0.0393
   74SOL    HW3  295   2.870   1.032   0.824 -0.8951 -0.6116  0.3402
   74SOL    MW4  296   2.889   1.003   0.744 -0.1718  0.0058  0.2819
   75SOL     OW  297   0.446   0.605   0.648 -0.0438 -0.0807 -0.0970
   75SOL    HW2  298   0.437   0.695   0.618  0.5955  0.1854  0.4978
   75SOL    HW3  299   0.526   0.573   0.605 -1.2451 -0.9499 -1.7350
   75SOL    MW4  300   0.455   0.612   0.638 -0.1180 -0.1603 -0.2347
   76SOL     OW  301   0.747   3.854   0.365 -0.2763 -0.7998 -0.0020
   76SOL    HW2  302   0.841   3.850   0.347  0.2353  0.0868  2.2683
   76SOL    HW3  303   0.728   3.948   0.375 -0.9569 -1.0973  1.6583
   76SOL    MW4  304   0.757   3.866   0.364 -0.2986 -0.7221  0.5166
   77SOL     OW  305   2.909   2.318   1.419  0.3913 -0.2732  0.7127
   77SOL    HW2  306   2.909   2.331   1.514  0.0464 -0.9249  0.8008
   77SOL    HW3  307   2.921   2.224   1.407 -0.4214 -0.3083  0.1300
   77SOL    MW4  308   2.911   2.308   1.430  0.2386 -0.3638  0.6475
   78SOL     OW  309   3.380   3.329   0.976 -0.3634 -0.1935 -0.1602
   78SOL    HW2  310   3.382   3.334   0.880  0.5708  0.0050 -0.1405
   78SOL    HW3  311   3.397   3.418   1.005  2.8062 -0.8443  0.1774
   78SOL    MW4  312   3.383   3.341   0.967  0.1780 -0.2532 -0.1131
   79SOL     OW  313   0.023   2.460   1.027  0.2523  0.5411 -0.0867
   79SOL    HW2  314  -0.056   2.513   1.010  0.1820  0.3873 -0.2375
   79SOL    HW3  315   0.027   2.453   1.122 -1.2735 -1.5111 -0.1473
   79SOL    MW4  316   0.013   2.466   1.037  0.0417  0.2500 -0.1146
   80SOL     OW  317   0.428   1.935   1.454  0.4022  0.1504  0.0134
   80SOL    HW2  318   0.432   1.961   1.546 -0.1633 -0.8595  0.3371
   80SOL    HW3  319   0.517   1.947   1.421  0.1056  2.6408  0.0846
   80SOL    MW4  320   0.441   1.940   1.462  0.2885  0.3457  0.0655
   81SOL     OW  321   3.087   3.927   0.589 -0.2290 -0.3669  0.6304
   81SOL    HW2  322   3.134   3.970   0.517 -0.0626  1.0527  1.5768
   81SOL    HW3  323   3.014   3.881   0.547  0.5254 -0.4876 -0.5634
   81SOL    MW4  324   3.084   3.926   0.574 -0.1075 -0.1956  0.5978
   82SOL     OW  325   3.783   1.035   0.959 -0.1574  0.0356 -0.1655
   82SOL    HW2  326   3.786   1.122   0.999 -1.2189 -0.5127  1.1798
   82SOL    HW3  327   3.704   0.995   0.996  0.3796 -1.5375 -0.6785
   82SOL    MW4  328   3.773   1.041   0.969 -0.2266 -0.2443 -0.0557
   83SOL     OW  329   1.577   0.220   0.947  0.0656 -0.2458 -0.0607
   83SOL    HW2  330   1.528   0.231   0.866 -0.2806 -2.5020 -0.2092
   83SOL    HW3  331   1.572   0.305   0.991 -0.2064  0.8281 -2.1301
   83SOL    MW4  332   1.570   0.232   0.942 -0.0159 -0.4018 -0.3533
   84SOL     OW  333   1.805   0.843   0.537  0.6391  0.1432 -0.5086
   84SOL    HW2  334   1.729   0.876   0.584  0.6087 -0.6006 -0.0354
   84SOL    HW3  335   1.772   0.823   0.449  0.0480 -1.1691  0.0034
   84SOL    MW4  336   1.791   0.845   0.531  0.5571 -0.1281 -0.3786
   85SOL     OW  337   3.809   4.524   0.546 -0.2162 -0.0540  0.3575
   85SOL    HW2  338   3.739   4.519   0.611  0.7034 -2.0977  1.2132
   85SOL    HW3  339   3.765   4.556   0.466 -1.6330  0.9920  1.5260
   85SOL    MW4  340   3.794   4.528   0.544 -0.2818 -0.1856  0.6245
   86SOL     OW  341   0.440   0.617   0.933 -0.0008  0.0316 -0.0492
   86SOL    HW2  342   0.446   0.615   0.837  1.7577 -0.8633  0.0505
   86SOL    HW3  343   0.525   0.584   0.962 -0.8670 -0.5998  1.8202
   86SOL    MW4  344   0.452   0.612   0.924  0.1169 -0.1697  0.2106
   87SOL     OW  345   1.797   1.241   0.733 -0.0319  0.5769 -0.2713
   87SOL    HW2  346   1.803   1.278   0.821  0.1042 -0.9493  0.3747
   87SOL    HW3  347   1.739   1.166   0.742  0.7169 -0.1494 -1.2900
   87SOL    MW4  348   1.791   1.236   0.746  0.0849  0.2797 -0.3204
   88SOL     OW  349   3.592   2.962   0.975 -0.3732  0.3639  0.1252
   88SOL    HW2  350   3.588   3.044   1.024  0.0673 -0.1689  1.0636
   88SOL    HW3  351   3.510   2.917   0.995 -0.1025  0.0528  0.5370
   88SOL    MW4  352   3.581   2.967   0.984 -0.2794  0.2526  0.3034
   89SOL     OW  353   0.432   1.408   0.667 -0.1446 -0.4574  0.1846
   89SOL    HW2  354   0.412   1.464   0.591 -0.3983 -1.1917 -0.2912
   89SOL    HW3  355   0.513   1.363   0.644  0.0744 -0.2657  0.5809
   89SOL    MW4  356   0.440   1.410   0.654 -0.1492 -0.5290  0.1741
   90SOL     OW  357   1.121   1.363   0.559 -0.6797 -0.0098 -0.1441
   90SOL    HW2  358   1.039   1.361   0.609 -0.1283  0.6038  0.8134
   90SOL    HW3  359   1.111   1.439   0.502 -0.7627  0.0979  0.0102
   90SOL    MW4  360   1.109   1.373   0.558 -0.6179  0.0854  0.0026
   91SOL     OW  361   2.911   0.723   0.682 -0.0489 -0.0164  0.2186
   91SOL    HW2  362   2.890   0.710   0.590 -0.2818  0.5360  0.1927
   91SOL    HW3  363   3.007   0.727   0.684 -0.0568  0.3045 -0.0442
   91SOL    MW4  364   2.921   0.722   0.670 -0.0806  0.0988  0.1805
   92SOL     OW  365   3.355   0.284   1.074 -0.5399 -0.2604  0.2935
   92SOL    HW2  366   3.360   0.286   0.979 -0.6139 -0.5103  0.2824
   92SOL    HW3  367   3.437   0.242   1.101 -0.6768 -0.5107  0.3218
   92SOL    MW4  368   3.366   0.278   1.065 -0.5677 -0.3264  0.2958
   93SOL     OW  369   3.623   3.225   0.422 -0.1986 -0.1054  0.1785
   93SOL    HW2  370   3.651   3.140   0.387  1.2129  0.0204  0.9390
   93SOL    HW3  371   3.579   3.268   0.349 -1.0448 -1.5443 -0.1761
   93SOL    MW4  372   3.621   3.219   0.408 -0.1240 -0.2787  0.2320
   94SOL     OW  373   2.693   0.107   1.358  0.0321  0.1256 -0.4705
   94SOL    HW2  374   2.683   0.080   1.267 -0.4294 -0.8014 -0.1553
   94SOL    HW3  375   2.763   0.051   1.392  0.1338  0.3984 -0.2262
   94SOL    MW4  376   2.701   0.096   1.350 -0.0154  0.0393 -0.3967
   95SOL     OW  377   2.050   0.729   9.976 -0.5860  0.5895 -0.1135
   95SOL    HW2  378   2.023   0.761   9.890 -4.8132 -1.0311  0.4789
   95SOL    HW3  379   2.008   0.788  10.039 -1.0469 -0.7016  0.8399
   95SOL    MW4  380   2.041   0.741   9.973 -1.2045  0.2054  0.0904
   96SOL     OW  381   0.922   3.472   0.602 -0.1012  0.3645 -0.3452
   96SOL    HW2  382   0.918   3.377   0.616 -2.4248  0.4966  0.2431
   96SOL    HW3  383   0.915   3.483   0.508 -0.1997 -0.0520 -0.3874
   96SOL    MW4  384   0.920   3.461   0.592 -0.4208  0.3270 -0.2731
   97SOL     OW  385   1.970   3.446   0.572 -0.0398  0.0651 -0.1207
   97SOL    HW2  386   1.993   3.370   0.624 -0.6664  0.0665  0.1709
   97SOL    HW3  387   2.001   3.426   0.484 -0.2348 -0.5423 -0.0529
   97SOL    MW4  388   1.977   3.434   0.567 -0.1482 -0.0149 -0.0733
   98SOL     OW  389   3.147   1.942   1.471  0.4545  0.0405 -0.1803
   98SOL    HW2  390   3.221   1.988   1.431  0.9946 -1.0938 -0.5027
   98SOL    HW3  391   3.148   1.855   1.431 -0.2241 -0.4390  0.8274
   98SOL    MW4  392   3.157   1.937   1.460  0.4362 -0.1724 -0.0899
   99SOL     OW  393   0.235   2.095   0.333 -0.3455 -0.6413 -0.4012
   99SOL    HW2  394   0.325   2.062   0.336 -0.3933 -0.8269 -1.0896
   99SOL    HW3  395   0.228   2.152   0.410  0.0934 -1.3109  0.1437
   99SOL    MW4  396   0.246   2.098   0.344 -0.2939 -0.7542 -0.4202
  100SOL     OW  397   3.832   2.622   0.253 -0.0237 -0.0793  0.2980
  100SOL    HW2  398   3.738   2.636   0.251  0.0338  0.1822 -1.2308
  100SOL    HW3  399   3.862   2.643   0.164  1.5696  0.5160  0.9500
  100SOL    MW4  400   3.824   2.627   0.241  0.1941  0.0337  0.1823
  101SOL     OW  401   0.197   3.090   1.453 -0.1535 -0.2185  0.1301
  101SOL    HW2  402   0.144   3.165   1.426  0.1991 -0.1279 -0.3086
  101SOL    HW3  403   0.182   3.024   1.385 -0.6515 -0.6381  0.6396
  101SOL    MW4  404   0.188   3.091   1.441 -0.1727 -0.2619  0.1395
  102SOL     OW  405   2.694   4.248   0.317 -0.3095  0.2673 -0.2698
  102SOL    HW2  406   2.787   4.263   0.333 -0.3408  0.6660 -0.4597
  102SOL    HW3  407   2.691   4.159   0.282 -0.1182 -0.1472  0.7723
  102SOL    MW4  408   2.706   4.238   0.314 -0.2884  0.2652 -0.1574
  103SOL     OW  409   3.144   1.108   0.597 -0.1700  0.0662  0.0996
  103SOL    HW2  410   3.147   1.201   0.620 -2.1413  0.2889 -0.4593
  103SOL    HW3  411   3.056   1.080   0.623  0.4197 -1.6581  0.2946
  103SOL    MW4  412   3.133   1.117   0.604 -0.3523 -0.1319  0.0516
  104SOL     OW  413   3.345   1.310   0.256  0.1950 -0.1427 -0.0729
  104SOL    HW2  414   3.250   1.319   0.251  0.2383  1.3594  1.2685
  104SOL    HW3  415   3.378   1.366   0.185  0.0882 -0.1109 -0.0975
  104SOL    MW4  416   3.337   1.319   0.246  0.1866  0.0597  0.1009
  105SOL     OW  417   2.729   1.666   1.348  0.2123 -0.2982 -0.0280
  105SOL    HW2  418   2.719   1.681   1.254  0.8758 -1.1847 -0.2543
  105SOL    HW3  419   2.724   1.753   1.387  0.8579  0.1726 -0.9697
  105SOL    MW4  420   2.727   1.679   1.341  0.3851 -0.3530 -0.1821
  106SOL     OW  421   2.042   1.568   1.442  0.0106  0.1548 -0.4980
  106SOL    HW2  422   2.122   1.602   1.401  1.2974 -1.8965  0.2360
  106SOL    HW3  423   2.042   1.475   1.421 -0.6232 -0.4463  1.9966
  106SOL    MW4  424   2.052   1.560   1.434  0.0967 -0.1952 -0.0720
  107SOL     OW  425   3.564   0.147   0.684  0.3587  0.3473 -0.1598
  107SOL    HW2  426   3.560   0.052   0.674  1.0354  0.4413 -1.3303
  107SOL    HW3  427   3.657   0.167   0.687  0.2311  1.1269 -1.3376
  107SOL    MW4  428   3.575   0.137   0.683  0.4311  0.4626 -0.4696
  108SOL     OW  429   0.234   3.395   0.970 -0.0614  0.1299 -0.1089
  108SOL    HW2  430   0.162   3.335   0.988  0.6113 -0.4504  0.6544
  108SOL    HW3  431   0.237   3.400   0.874  0.0702 -1.2747 -0.1835
  108SOL    MW4  432   0.225   3.388   0.960  0.0447 -0.1320 -0.0180
  109SOL     OW  433   3.363   4.271   0.303 -0.2964  0.5360  0.0628
  109SOL    HW2  434   3.290   4.209   0.310  0.2686  0.0060  1.2631
  109SOL    HW3  435   3.441   4.217   0.306  0.1856  1.2293  0.1532
  109SOL    MW4  436   3.364   4.256   0.304 -0.1583  0.5576  0.2331
  110SOL     OW  437   1.354   1.118   1.455  0.0101 -0.4780 -0.3020
  110SOL    HW2  438   1.380   1.103   1.546 -0.2851 -0.7082 -0.2551
  110SOL    HW3  439   1.340   1.030   1.420  0.5636 -0.4132 -0.7017
  110SOL    MW4  440   1.356   1.104   1.463  0.0442 -0.4998 -0.3486
  111SOL     OW  441   3.215   1.638   0.288 -0.0691  0.0302  0.1347
  111SOL    HW2  442   3.167   1.555   0.289 -0.3809  0.2123  0.6566
  111SOL    HW3  443   3.196   1.675   0.202 -0.7332  0.0130  0.2663
  111SOL    MW4  444   3.206   1.632   0.277 -0.1979  0.0519  0.2209
  112SOL     OW  445   3.349   4.656   1.494  0.0940 -0.3580  0.4290
  112SOL    HW2  446   3.333   4.578   1.440 -0.3618 -0.3026  0.4868
  112SOL    HW3  447   3.275   4.714   1.475  1.1642  0.6849 -0.7410
  112SOL    MW4  448   3.337   4.653   1.484  0.1751 -0.2131  0.2823
  113SOL     OW  449   0.940   0.950   0.588  0.2008 -0.3132  0.3538
  113SOL    HW2  450   0.968   0.939   0.497  0.8736 -0.6892  0.6085
  113SOL    HW3  451   0.921   0.862   0.618  0.1990 -0.2075  0.6582
  113SOL    MW4  452   0.941   0.937   0.580  0.2893 -0.3489  0.4276
  114SOL     OW  453   0.251   4.388   1.340  0.4686 -0.4477 -0.2502
  114SOL    HW2  454   0.330   4.349   1.377  0.4322 -0.5140 -0.2418
  114SOL    HW3  455   0.179   4.348   1.389  0.5080  1.0384  1.0704
  114SOL    MW4  456   0.252   4.377   1.351  0.4690 -0.2603 -0.0748
  115SOL     OW  457   2.486   2.584   0.890  0.2821  0.3437 -0.1434
  115SOL    HW2  458   2.457   2.602   0.801  0.2063  0.7924 -0.0291
  115SOL    HW3  459   2.411   2.540   0.931 -0.4661  2.0255  0.3272
  115SOL    MW4  460   2.472   2.581   0.884  0.1734  0.6248 -0.0662
  116SOL     OW  461   3.767   4.152   0.688  0.3335 -0.2666  0.0406
  116SOL    HW2  462   3.676   4.145   0.660  0.4315 -0.7386 -0.1556
  116SOL    HW3  463   3.811   4.193   0.614  0.4577 -0.8800 -0.2288
  116SOL    MW4  464   3.761   4.157   0.674  0.3628 -0.4098 -0.0208
  117SOL     OW  465   0.896   3.208   0.564 -0.2043 -0.4031  0.7264
  117SOL    HW2  466   0.936   3.139   0.616  1.4076  0.4270  0.6501
  117SOL    HW3  467   0.906   3.179   0.473 -0.3903 -0.5190  0.7441
  117SOL    MW4  468   0.903   3.195   0.559 -0.0161 -0.3089  0.7186
  118SOL     OW  469   4.198   2.453   0.580 -0.0195  0.0518  0.2332
  118SOL    HW2  470   4.151   2.478   0.501 -1.1667  1.7377  1.4067
  118SOL    HW3  471   4.158   2.371   0.608 -1.4725  0.8447  0.5434
  118SOL    MW4  472   4.187   2.446   0.573 -0.3626  0.3788  0.4290
  119SOL     OW  473   1.353   0.108   1.100 -0.0426 -0.1492 -0.1637
  119SOL    HW2  474   1.274   0.141   1.057  0.9297  1.3207 -0.8422
  119SOL    HW3  475   1.425   0.143   1.048  1.0836 -0.8664  0.8914
  119SOL    MW4  476   1.352   0.117   1.088  0.2343 -0.0499 -0.1140
  120SOL     OW  477   3.852   2.355   0.121 -0.2042 -0.0049  0.5108
  120SOL    HW2  478   3.920   2.300   0.160 -1.2458 -0.8970  1.1078
  120SOL    HW3  479   3.852   2.434   0.174 -0.2472 -0.3903  1.0985
  120SOL    MW4  480   3.861   2.358   0.134 -0.3473 -0.1734  0.6671
  121SOL     OW  481   4.293   3.946   0.304 -0.3052 -0.4198 -0.3468
  121SOL    HW2  482   4.372   3.948   0.251 -0.8972 -0.6508 -1.2574
  121SOL    HW3  483   4.309   3.878   0.370  0.9298  0.7381  0.5802
  121SOL    MW4  484   4.305   3.938   0.306 -0.2204 -0.2975 -0.3447
  122SOL     OW  485   2.300   2.907   0.712 -0.0890  0.6576 -0.4444
  122SOL    HW2  486   2.331   2.822   0.681 -0.4067  0.6935 -0.8816
  122SOL    HW3  487   2.232   2.932   0.648  0.9692  1.8831 -1.1187
  122SOL    MW4  488   2.295   2.899   0.699  0.0087  0.8240 -0.5910
  123SOL     OW  489   2.012   3.868   1.392  0.1483 -0.0476  0.2155
  123SOL    HW2  490   1.927   3.904   1.370 -0.5619 -1.0947  1.1607
  123SOL    HW3  491   2.010   3.778   1.359  1.1261  0.1291 -0.3362
  123SOL    MW4  492   2.001   3.861   1.385  0.1836 -0.1624  0.2674
  124SOL     OW  493   2.040   4.301   0.269 -0.5744  0.1802  0.5029
  124SOL    HW2  494   1.958   4.335   0.233 -0.0738  1.1993  0.3183
  124SOL    HW3  495   2.012   4.229   0.326 -1.6889  1.1888  1.2582
  124SOL    MW4  496   2.025   4.296   0.272 -0.6554  0.4477  0.5782
  125SOL     OW  497   3.128   2.439   1.332 -0.2404  0.5389  0.8420
  125SOL    HW2  498   3.138   2.442   1.237 -0.8082 -1.1172  0.7101
  125SOL    HW3  499   3.049   2.388   1.346 -0.3582  1.0900  2.2017
  125SOL    MW4  500   3.119   2.432   1.321 -0.3308  0.3931  1.0040
  126SOL     OW  501   1.359   1.691   0.295  0.1528  0.0972  0.5305
  126SOL    HW2  502   1.268   1.672   0.318 -0.4163  0.8912 -1.0084
  126SOL    HW3  503   1.408   1.671   0.374 -1.5151  0.8576  1.7983
  126SOL    MW4  504   1.354   1.686   0.308 -0.1423  0.3023  0.4948
  127SOL     OW  505   0.224   1.767   0.936  0.3140 -0.5217 -0.4966
  127SOL    HW2  506   0.295   1.725   0.984 -0.1681 -1.3724 -0.5128
  127SOL    HW3  507   0.145   1.744   0.985  0.0706  0.6212 -0.3398
  127SOL    MW4  508   0.223   1.758   0.949  0.2183 -0.4832 -0.4780
  128SOL     OW  509   4.250   3.963   1.462 -0.1910 -0.0313 -0.1925
  128SOL    HW2  510   4.239   3.877   1.420 -0.4547  0.3083 -0.8127
  128SOL    HW3  511   4.337   3.992   1.436 -0.1727 -0.0303 -0.1310
  128SOL    MW4  512   4.260   3.955   1.453 -0.2233  0.0136 -0.2662
  129SOL     OW  513   4.255   0.455   0.554  0.0761  0.2527 -0.0585
  129SOL    HW2  514   4.207   0.529   0.516 -0.2297  0.0577 -0.0502
  129SOL    HW3  515   4.189   0.405   0.602 -0.0570 -0.9828 -1.4908
  129SOL    MW4  516   4.240   0.458   0.555  0.0182  0.0640 -0.2464
  130SOL     OW  517   0.680   3.587   1.357  0.4747  0.3725  0.1221
  130SOL    HW2  518   0.687   3.579   1.262  0.6032  0.5413  0.1165
  130SOL    HW3  519   0.607   3.529   1.381  1.8609 -1.3858  0.1719
  130SOL    MW4  520   0.671   3.578   1.347  0.6746  0.1628  0.1280
  131SOL     OW  521   1.609   1.752   0.967 -0.2573  0.0750 -0.0385
  131SOL    HW2  522   1.596   1.843   0.993 -2.6743  0.0019 -0.8451
  131SOL    HW3  523   1.532   1.706   1.002  1.3318 -1.8295  1.0713
  131SOL    MW4  524   1.597   1.758   0.975 -0.3665 -0.1860  0.0015
  132SOL     OW  525   2.875   1.466   0.096  0.3523 -0.0660  0.2579
  132SOL    HW2  526   2.919   1.543   0.060  0.3517  0.2279  0.8861
  132SOL    HW3  527   2.828   1.499   0.173 -1.9688 -0.1152 -1.0731
  132SOL    MW4  528   2.874   1.481   0.101  0.0460 -0.0337  0.1652
  133SOL     OW  529   0.524   3.449   0.532  0.3456 -0.3896  0.1661
  133SOL    HW2  530   0.552   3.373   0.582  0.2416  0.6007  1.7955
  133SOL    HW3  531   0.597   3.469   0.474  1.3064 -0.3382  1.3880
  133SOL    MW4  532   0.537   3.442   0.531  0.4586 -0.2521  0.5423
  134SOL     OW  533   3.838   2.073   1.370 -0.0809  0.1359 -0.0984
  134SOL    HW2  534   3.759   2.025   1.394 -0.7078  0.2817 -1.7876
  134SOL    HW3  535   3.910   2.023   1.407 -0.9075 -0.5319  0.6093
  134SOL    MW4  536   3.837   2.060   1.378 -0.2727  0.0670 -0.2279
  135SOL     OW  537   0.853   1.708   0.288  0.1598  0.4566  0.2606
  135SOL    HW2  538   0.841   1.802   0.299  1.1733  0.6401 -0.1662
  135SOL    HW3  539   0.781   1.681   0.232  0.3545  1.1250 -0.3121
  135SOL    MW4  540   0.842   1.717   0.282  0.3192  0.5690  0.1287
  136SOL     OW  541   1.342   3.178   1.343  0.1546 -0.0669  0.1762
  136SOL    HW2  542   1.333   3.179   1.248  0.0585  1.5286  0.1836
  136SOL    HW3  543   1.258   3.145   1.375  0.3977 -1.1712 -0.3040
  136SOL    MW4  544   1.330   3.174   1.334  0.1740 -0.0021  0.1138
  137SOL     OW  545   2.358   0.434   0.370 -0.1975  0.1831 -0.3518
  137SOL    HW2  546   2.450   0.463   0.366 -0.5798  1.3668 -0.6274
  137SOL    HW3  547   2.364   0.339   0.383  1.0722 -0.0559 -2.4057
  137SOL    MW4  548   2.371   0.425   0.371 -0.0804  0.3077 -0.6591
  138SOL     OW  549   0.015   0.406   1.395  0.3107  0.1120  0.0780
  138SOL    HW2  550   0.107   0.430   1.381  0.7429 -1.4900  0.0499
  138SOL    HW3  551   0.013   0.311   1.380 -0.7871 -0.3418  2.7458
  138SOL    MW4  552   0.027   0.396   1.391  0.2229 -0.1592  0.4263
  139SOL     OW  553   4.313   2.067   0.585 -0.4715  0.8682 -0.0202
  139SOL    HW2  554   4.389   2.068   0.644  0.8531  0.0480 -1.6526
  139SOL    HW3  555   4.276   1.980   0.596  0.4669  0.3033 -1.2218
  139SOL    MW4  556   4.318   2.056   0.594 -0.1729  0.6855 -0.3941
  140SOL     OW  557   2.616   0.720   0.121 -0.2700 -0.3779  0.1887
  140SOL    HW2  558   2.534   0.718   0.072  0.4199  0.3008 -1.0425
  140SOL    HW3  559   2.640   0.812   0.124  0.3967 -0.5610  0.6081
  140SOL    MW4  560   2.609   0.732   0.115 -0.0910 -0.3125  0.0816
  141SOL     OW  561   3.999   3.263   1.059 -0.5893 -0.0783 -0.1270
  141SOL    HW2  562   4.038   3.180   1.032 -0.1896 -0.3553  1.2698
  141SOL    HW3  563   4.011   3.266   1.154  0.3899  2.0721 -0.2773
  141SOL    MW4  564   4.006   3.253   1.068 -0.4073  0.1689  0.0375
  142SOL     OW  565   1.746   1.913   0.300  0.3650 -0.6982  0.1204
  142SOL    HW2  566   1.765   1.918   0.394 -1.5346 -0.2329  0.5021
  142SOL    HW3  567   1.772   1.999   0.266 -3.2098  0.8423  1.0831
  142SOL    MW4  568   1.752   1.925   0.308 -0.3573 -0.4336  0.2977
  143SOL     OW  569   1.805   1.668   1.361  0.2101 -0.0301  0.0649
  143SOL    HW2  570   1.738   1.616   1.406  0.7061 -0.6279  0.1250
  143SOL    HW3  571   1.888   1.633   1.394  0.5617  0.2148 -0.5573
  143SOL    MW4  572   1.807   1.657   1.371  0.3219 -0.0767 -0.0093
  144SOL     OW  573   2.904   3.352   0.997 -0.2337  0.1147  0.0016
  144SOL    HW2  574   2.835   3.286   0.993  0.9567 -1.1349 -0.4537
  144SOL    HW3  575   2.920   3.375   0.905  0.6082 -0.3183  0.0311
  144SOL    MW4  576   2.897   3.346   0.984  0.0344 -0.1073 -0.0546
  145SOL     OW  577   4.462   1.061   0.369 -0.1966  0.2144  0.6761
  145SOL    HW2  578   4.489   1.000   0.438  0.6425  0.0788  0.2281
  145SOL    HW3  579   4.513   1.034   0.292 -0.5627  0.8511  0.2094
  145SOL    MW4  580   4.472   1.049   0.368 -0.1342  0.2805  0.5554
  146SOL     OW  581   0.208   0.496   0.598 -0.4675 -0.0354 -0.1608
  146SOL    HW2  582   0.295   0.535   0.608 -0.4762  0.1800 -0.8462
  146SOL    HW3  583   0.220   0.404   0.620 -0.9439  0.7778  3.8306
  146SOL    MW4  584   0.221   0.489   0.602 -0.5315  0.1003  0.2754
  147SOL     OW  585   1.552   3.564   1.299 -0.5096 -0.0904  0.5817
  147SOL    HW2  586   1.621   3.511   1.341 -0.7106 -1.0986 -0.3242
  147SOL    HW3  587   1.471   3.527   1.333 -0.6168  2.1427  2.8958
  147SOL    MW4  588   1.551   3.552   1.309 -0.5503  0.0712  0.7675
  148SOL     OW  589   1.572   3.050   1.739 -0.0539  0.0051  0.3058
  148SOL    HW2  590   1.558   3.027   1.647  0.3646 -0.7134  0.4172
  148SOL    HW3  591   1.570   2.966   1.785  0.7694  0.2630  0.8185
  148SOL    MW4  592   1.570   3.036   1.733  0.1100 -0.0557  0.3882
  149SOL     OW  593   0.637   1.267   0.545 -0.1316  0.5548  0.7339
  149SOL    HW2  594   0.667   1.257   0.454 -1.1576 -1.0478  0.5522
  149SOL    HW3  595   0.658   1.183   0.586 -0.0429  1.1348  1.8706
  149SOL    MW4  596   0.644   1.255   0.538 -0.2553  0.4199  0.8599
  150SOL     OW  597   0.201   4.643   1.437  0.3177 -0.2631  0.7563
  150SOL    HW2  598   0.279   4.694   1.413  0.0404  0.1059  0.6351
  150SOL    HW3  599   0.216   4.558   1.397  0.0142  0.2451 -0.4604
  150SOL    MW4  600   0.214   4.639   1.429  0.2410 -0.1473  0.5798
  151SOL     OW  601   3.391   3.580   1.100 -0.0813 -0.3055 -0.0380
  151SOL    HW2  602   3.477   3.620   1.089 -0.3994  0.8967  1.6609
  151SOL    HW3  603   3.378   3.576   1.195 -2.6033  1.0816 -0.2837
  151SOL    MW4  604   3.401   3.585   1.112 -0.4560  0.0361  0.1537
  152SOL     OW  605   2.962   4.162   0.683  0.3922 -0.2396  0.1798
  152SOL    HW2  606   2.994   4.074   0.661  0.8285 -0.2687  0.9090
  152SOL    HW3  607   2.872   4.163   0.652  0.4143 -0.9155  0.0790
  152SOL    MW4  608   2.955   4.150   0.676  0.4526 -0.3326  0.2627
  153SOL     OW  609   3.134   4.573   0.955  0.0349 -0.1285  0.2107
  153SOL    HW2  610   3.147   4.652   1.007 -1.2498  1.0410 -1.1661
  153SOL    HW3  611   3.122   4.606   0.865 -0.9252 -1.8500 -0.3070
  153SOL    MW4  612   3.134   4.588   0.950 -0.2612 -0.2014 -0.0393
  154SOL     OW  613   1.363   1.424   0.661  0.1872  0.1075  0.2182
  154SOL    HW2  614   1.389   1.507   0.621 -0.7018  0.6116  0.6729
  154SOL    HW3  615   1.277   1.405   0.624 -0.5110  0.4262  1.6444
  154SOL    MW4  616   1.355   1.432   0.651 -0.0222  0.2160  0.4664
  155SOL     OW  617   1.077   3.861   1.437  0.5446 -0.0658  0.1573
  155SOL    HW2  618   1.005   3.901   1.387  0.0866 -0.1174  0.7693
  155SOL    HW3  619   1.154   3.912   1.413  0.1391  0.5683  0.1964
  155SOL    MW4  620   1.077   3.873   1.427  0.4307  0.0111  0.2432
  156SOL     OW  621   2.273   3.205   1.060 -0.2034  0.0904 -0.0391
  156SOL    HW2  622   2.345   3.238   1.006 -0.5185 -0.3408 -0.7256
  156SOL    HW3  623   2.261   3.115   1.031 -0.9665  0.1373  0.1340
  156SOL    MW4  624   2.281   3.198   1.049 -0.3456  0.0397 -0.1069
  157SOL     OW  625   0.129   2.971   0.240  0.3475 -0.3978 -0.0361
  157SOL    HW2  626   0.106   3.044   0.183  0.9072 -1.3079 -1.4464
  157SOL    HW3  627   0.047   2.922   0.250 -0.0052  0.3588  0.8326
  157SOL    MW4  628   0.115   2.974   0.234  0.3748 -0.4181 -0.1076
  158SOL     OW  629   2.631   1.924   0.566 -0.2701 -0.0354 -0.0113
  158SOL    HW2  630   2.724   1.919   0.589 -0.5210 -1.2105  0.7870
  158SOL    HW3  631   2.629   1.903   0.472 -0.0045 -3.1026  0.5939
  158SOL    MW4  632   2.643   1.920   0.557 -0.2682 -0.5951  0.1739
  159SOL     OW  633   1.377   0.377   1.473 -0.1592  0.0287 -0.7341
  159SOL    HW2  634   1.386   0.285   1.449 -1.9408 -0.3971  0.1149
  159SOL    HW3  635   1.295   0.404   1.431 -0.2729  0.8841  0.0363
  159SOL    MW4  636   1.367   0.368   1.464 -0.4093  0.0854 -0.5204
  160SOL     OW  637   4.258   4.383   1.053  0.4574 -0.2124  0.1767
  160SOL    HW2  638   4.265   4.289   1.038 -1.9432 -0.1803 -1.3844
  160SOL    HW3  639   4.242   4.392   1.147  0.2606 -1.3990  0.2598
  160SOL    MW4  640   4.257   4.372   1.064  0.1147 -0.3647 -0.0183
  161SOL     OW  641   1.900   0.080   0.211 -0.1002  0.2764  0.4949
  161SOL    HW2  642   1.968   0.045   0.270 -0.6858 -0.7153  0.5921
  161SOL    HW3  643   1.948   0.136   0.151  0.8702 -0.6757  0.3526
  161SOL    MW4  644   1.915   0.083   0.211 -0.0495  0.0199  0.4889
  162SOL     OW  645   4.290   3.121   1.411 -0.2864  0.0735 -0.2897
  162SOL    HW2  646   4.290   3.104   1.505  0.5128  0.9951 -0.1216
  162SOL    HW3  647   4.210   3.172   1.395 -1.0327 -1.0692 -0.3075
  162SOL    MW4  648   4.279   3.125   1.421 -0.2794  0.0444 -0.2699
  163SOL     OW  649   1.335   3.065   0.292  0.1217  0.2019 -0.3637
  163SOL    HW2  650   1.338   3.095   0.382  0.8096  0.6196 -0.5196
  163SOL    HW3  651   1.378   3.135   0.242 -0.2859 -0.0040 -1.0174
  163SOL    MW4  652   1.341   3.078   0.297  0.1587  0.2299 -0.4705
  164SOL     OW  653   4.391   2.800   0.305  0.1689 -0.4298 -0.3829
  164SOL    HW2  654   4.311   2.852   0.302 -1.4654 -2.9009 -2.2378
  164SOL    HW3  655   4.398   2.772   0.396  0.6406  2.3111  0.4593
  164SOL    MW4  656   4.381   2.803   0.317  0.0155 -0.3942 -0.5165
  165SOL     OW  657   3.006   2.500   0.533 -0.4020  0.0952 -0.2436
  165SOL    HW2  658   3.095   2.471   0.513 -0.2460  1.1130 -1.0537
  165SOL    HW3  659   2.967   2.426   0.580  0.6279 -0.6445 -0.5298
  165SOL    MW4  660   3.012   2.486   0.536 -0.2455  0.1319 -0.3882
  166SOL     OW  661   3.362   3.105   0.507  0.2267  0.2879 -0.1351
  166SOL    HW2  662   3.341   3.030   0.451  0.3993 -0.7906  1.2326
  166SOL    HW3  663   3.454   3.123   0.490  0.0932  0.4338 -0.7299
  166SOL    MW4  664   3.371   3.098   0.497  0.2318  0.1648 -0.0331
  167SOL     OW  665   3.755   0.479   1.045 -0.0808 -0.1157 -0.0331
  167SOL    HW2  666   3.785   0.390   1.028 -0.3999 -0.4676  1.2080
  167SOL    HW3  667   3.830   0.534   1.021  0.2266 -0.7329 -0.5035
  167SOL    MW4  668   3.769   0.475   1.040 -0.0824 -0.2436  0.0686
  168SOL     OW  669   3.775   3.294   0.904 -0.3487  0.3742 -0.0430
  168SOL    HW2  670   3.857   3.274   0.948 -0.7496 -0.1954  0.4612
  168SOL    HW3  671   3.778   3.245   0.822 -0.3814 -0.0121  0.1856
  168SOL    MW4  672   3.786   3.285   0.899 -0.4059  0.2480  0.0537
  169SOL     OW  673   4.294   4.124   0.954  0.3198  0.1414 -0.2660
  169SOL    HW2  674   4.328   4.138   0.866  1.3814 -1.4292 -0.1346
  169SOL    HW3  675   4.367   4.084   1.002 -0.3191  0.7555  1.2583
  169SOL    MW4  676   4.308   4.120   0.949  0.3756  0.0152 -0.0476
  170SOL     OW  677   0.660   0.272   0.650  0.1993  0.0288 -0.5722
  170SOL    HW2  678   0.726   0.203   0.640 -1.4712 -1.7111  0.1354
  170SOL    HW3  679   0.584   0.241   0.601 -1.4890  0.0916  1.8812
  170SOL    MW4  680   0.659   0.258   0.643 -0.2439 -0.1925 -0.1552
  171SOL     OW  681   0.213   3.745   0.610 -0.0179  0.2347 -0.3404
  171SOL    HW2  682   0.187   3.834   0.589 -2.1296 -0.4853 -0.9893
  171SOL    HW3  683   0.143   3.712   0.668  1.4430 -0.5492  1.0326
  171SOL    MW4  684   0.200   3.752   0.615 -0.1037  0.0363 -0.2449
  172SOL     OW  685   0.659   1.734   1.006 -0.3451  0.1022 -0.0124
  172SOL    HW2  686   0.663   1.747   0.911  0.3780 -0.1015 -0.0150
  172SOL    HW3  687   0.747   1.704   1.030  0.1986  2.4348  1.0602
  172SOL    MW4  688   0.671   1.732   0.997 -0.1780  0.3831  0.1287
  173SOL     OW  689   3.149   2.510   0.107 -0.3185  0.0399 -0.0373
  173SOL    HW2  690   3.156   2.603   0.085 -0.9494 -0.0871 -0.7914
  173SOL    HW3  691   3.231   2.490   0.152 -0.2575  1.0024  0.3022
  173SOL    MW4  692   3.160   2.520   0.110 -0.3937  0.1502 -0.0920
  174SOL     OW  693   1.440   0.348   0.111 -0.4894  0.0645 -0.4152
  174SOL    HW2  694   1.467   0.403   0.038 -1.2070 -0.9358 -1.4494
  174SOL    HW3  695   1.424   0.409   0.183  0.6515  1.0187 -0.9480
  174SOL    MW4  696   1.442   0.363   0.111 -0.4335  0.0585 -0.6219
  175SOL     OW  697   3.125   1.691   1.318  0.1353  0.3956 -0.0614
  175SOL    HW2  698   3.138   1.675   1.224  0.4915  1.1787 -0.1464
  175SOL    HW3  699   3.195   1.640   1.361 -0.2255 -0.2229 -0.1973
  175SOL    MW4  700   3.136   1.682   1.311  0.1347  0.4173 -0.0906
  176SOL     OW  701   3.881   2.873   1.333  0.1556  0.0443  0.2550
  176SOL    HW2  702   3.810   2.813   1.355 -0.6235  0.6017 -0.6532
  176SOL    HW3  703   3.961   2.828   1.361 -0.4870 -0.9985  0.4416
  176SOL    MW4  704   3.882   2.859   1.339 -0.0320 -0.0197  0.1598
  177SOL     OW  705   0.963   1.371   0.167  0.1309  0.2659  0.0471
  177SOL    HW2  706   0.956   1.463   0.191  0.7588  0.4127 -0.3182
  177SOL    HW3  707   1.011   1.331   0.240  0.1421  0.2912  0.0538
  177SOL    MW4  708   0.969   1.378   0.180  0.2152  0.2886 -0.0002
  178SOL     OW  709   4.415   0.091   0.705  0.0634 -0.7881  0.2657
  178SOL    HW2  710   4.362   0.139   0.769  0.5443 -0.0924  0.1496
  178SOL    HW3  711   4.359   0.084   0.627 -0.3501 -1.2307  0.5984
  178SOL    MW4  712   4.400   0.097   0.703  0.0723 -0.7547  0.2943
  179SOL     OW  713   4.244   3.628   1.827  0.6761  0.0666 -0.7600
  179SOL    HW2  714   4.245   3.721   1.806  0.0129  0.0504 -0.8998
  179SOL    HW3  715   4.312   3.590   1.772  2.1236  0.7163  0.5559
  179SOL    MW4  716   4.253   3.635   1.817  0.7796  0.1502 -0.6048
  180SOL     OW  717   3.110   0.123   1.403 -0.2752 -0.0032 -0.4398
  180SOL    HW2  718   3.040   0.064   1.432 -1.2063  0.9553 -0.7403
  180SOL    HW3  719   3.114   0.110   1.309 -1.5534  1.5744 -0.7205
  180SOL    MW4  720   3.101   0.113   1.395 -0.5667  0.3314 -0.5165
  181SOL     OW  721   2.983   4.595   0.306  0.5192  0.1200 -0.1340
  181SOL    HW2  722   3.070   4.634   0.315  0.3366  0.6620 -0.7223
  181SOL    HW3  723   2.926   4.667   0.279  0.1108 -0.4733 -0.8802
  181SOL    MW4  724   2.987   4.610   0.303  0.4413  0.1132 -0.3101
  182SOL     OW  725   2.516   4.093   0.996  0.1374  0.1858 -0.5274
  182SOL    HW2  726   2.496   4.185   1.015 -1.4779 -0.3298  0.2657
  182SOL    HW3  727   2.513   4.088   0.900 -1.0439  0.6779 -0.5217
  182SOL    MW4  728   2.513   4.105   0.986 -0.2316  0.1827 -0.4220
  183SOL     OW  729   1.166   4.180   0.991 -0.0591  0.2055  0.4861
  183SOL    HW2  730   1.236   4.128   1.030  0.6289  0.4187 -0.4369
  183SOL    HW3  731   1.089   4.123   0.993  0.6960 -0.8866 -0.5510
  183SOL    MW4  732   1.165   4.166   0.996  0.1313  0.0895  0.2275
  184SOL     OW  733   3.943   0.712   0.723  0.0961  0.1317  0.3300
  184SOL    HW2  734   3.866   0.658   0.711 -0.2756  0.6546  0.3262
  184SOL    HW3  735   3.962   0.707   0.817 -0.3675  0.5630  0.4524
  184SOL    MW4  736   3.936   0.704   0.734 -0.0141  0.2576  0.3456
  185SOL     OW  737   2.439   2.796   0.324 -0.2446 -0.6944 -0.2166
  185SOL    HW2  738   2.529   2.776   0.301  0.3978  0.5377  1.1143
  185SOL    HW3  739   2.436   2.892   0.328 -1.6012 -0.7209 -0.2107
  185SOL    MW4  740   2.450   2.806   0.322 -0.3388 -0.5354 -0.0403
  186SOL     OW  741   2.916   3.091   1.464 -0.0951 -0.1455  0.0387
  186SOL    HW2  742   2.933   3.085   1.558  0.1312  0.0274  0.0073
  186SOL    HW3  743   2.999   3.117   1.425 -0.1914 -0.2002 -0.2091
  186SOL    MW4  744   2.929   3.094   1.471 -0.0779 -0.1299  0.0018
  187SOL     OW  745   2.537   3.800   0.273  0.4815  0.2575 -0.2258
  187SOL    HW2  746   2.590   3.875   0.246  0.9293 -0.1503 -0.5003
  187SOL    HW3  747   2.582   3.765   0.350  0.9038 -0.3968 -0.7637
  187SOL    MW4  748   2.550   3.805   0.279  0.5963  0.1173 -0.3330
  188SOL     OW  749   2.482   2.797   1.054 -0.0065  0.0920 -0.4062
  188SOL    HW2  750   2.474   2.721   0.996  1.2813  0.1789 -0.7095
  188SOL    HW3  751   2.399   2.843   1.044 -1.0963 -1.6588  0.3439
  188SOL    MW4  752   2.470   2.793   1.045  0.0196 -0.1275 -0.3472
  189SOL     OW  753   2.712   3.670   0.967  0.5080 -0.0234  0.0243
  189SOL    HW2  754   2.785   3.635   1.017 -0.4600 -1.1061  0.6977
  189SOL    HW3  755   2.634   3.648   1.019 -0.4682 -0.7374 -1.7057
  189SOL    MW4  756   2.711   3.663   0.980  0.2515 -0.2605 -0.1151
  190SOL     OW  757   0.454   0.164   0.507 -0.2171  0.3709 -0.5883
  190SOL    HW2  758   0.511   0.109   0.454 -0.7344 -1.5220  0.7821
  190SOL    HW3  759   0.405   0.103   0.562 -1.2872  2.1523  0.5070
  190SOL    MW4  760   0.455   0.149   0.507 -0.4266  0.3562 -0.2630
  191SOL     OW  761   1.401   2.231   0.658 -0.0345  0.3916 -0.5056
  191SOL    HW2  762   1.321   2.271   0.625 -0.4445  0.4706  0.5679
  191SOL    HW3  763   1.400   2.142   0.622 -0.3696  0.5443 -0.8739
  191SOL    MW4  764   1.391   2.224   0.649 -0.1328  0.4222 -0.4126
  192SOL     OW  765   0.807   0.653   0.160  0.2254 -0.3129 -0.3706
  192SOL    HW2  766   0.784   0.746   0.147  0.1126  0.0308  1.9619
  192SOL    HW3  767   0.885   0.656   0.215 -0.7326 -1.5921  1.1136
  192SOL    MW4  768   0.814   0.666   0.165  0.0841 -0.4364  0.1330
  193SOL     OW  769   2.034   2.221   0.355 -0.1090 -0.6902  0.4526
  193SOL    HW2  770   2.043   2.131   0.386  0.3480 -1.5153 -1.9873
  193SOL    HW3  771   1.958   2.219   0.297  1.0538  0.0332 -1.1475
  193SOL    MW4  772   2.025   2.209   0.352  0.1047 -0.7036 -0.0804
  194SOL     OW  773   1.115   2.778   1.046 -0.5333  0.0025  0.4234
  194SOL    HW2  774   1.122   2.705   0.986 -0.0142  1.3265 -1.1579
  194SOL    HW3  775   1.035   2.823   1.020 -0.2394  0.6609  0.6446
  194SOL    MW4  776   1.105   2.775   1.035 -0.4260  0.2641  0.2440
  195SOL     OW  777   1.321   3.454   1.406 -0.3454  0.1125  0.2072
  195SOL    HW2  778   1.324   3.457   1.502  0.3572 -1.3216  0.2424
  195SOL    HW3  779   1.328   3.361   1.385 -1.6221  0.3292 -1.2120
  195SOL    MW4  780   1.322   3.442   1.416 -0.4211 -0.0481  0.0246
  196SOL     OW  781   3.575   0.915   1.094 -0.1068  0.0976  0.2414
  196SOL    HW2  782   3.569   0.820   1.083  0.4416  0.0027  0.7545
  196SOL    HW3  783   3.598   0.927   1.186 -1.6187  0.7805  0.5451
  196SOL    MW4  784   3.577   0.904   1.105 -0.2339  0.1752  0.3491
  197SOL     OW  785   4.063   2.228   0.272  0.1486  0.1088 -0.6550
  197SOL    HW2  786   4.062   2.313   0.314 -0.6960 -0.0412 -0.3698
  197SOL    HW3  787   4.006   2.173   0.326 -1.1323 -0.0281 -2.1227
  197SOL    MW4  788   4.056   2.232   0.285 -0.1319  0.0709 -0.8110
  198SOL     OW  789   3.012   0.387   0.800  0.0202  0.4096 -0.3509
  198SOL    HW2  790   3.047   0.458   0.854  0.9000  0.2965 -0.7721
  198SOL    HW3  791   3.084   0.362   0.743 -0.1800 -1.0519  0.0145
  198SOL    MW4  792   3.026   0.393   0.800  0.1099  0.2019 -0.3582
  199SOL     OW  793   1.600   1.266   1.052  0.0930  0.2184  0.2931
  199SOL    HW2  794   1.590   1.262   1.147  2.4898 -0.9853  0.5339
  199SOL    HW3  795   1.690   1.296   1.039  0.0806 -0.5081 -1.5761
  199SOL    MW4  796   1.611   1.270   1.063  0.4076 -0.0363  0.0782
  200SOL     OW  797   2.699   3.178   1.849  0.1170  0.2569  0.1885
  200SOL    HW2  798   2.629   3.137   1.799  1.0512 -0.9577 -0.1514
  200SOL    HW3  799   2.706   3.267   1.813  1.0247 -0.7203 -2.0986
  200SOL    MW4  800   2.691   3.185   1.838  0.3600 -0.0323 -0.1581
  201SOL     OW  801   3.595   1.879   0.355 -0.1148 -0.3010 -0.1655
  201SOL    HW2  802   3.545   1.803   0.383 -0.7424 -0.7639 -2.4082
  201SOL    HW3  803   3.529   1.944   0.331  0.4021  0.5497  0.6949
  201SOL    MW4  804   3.580   1.878   0.355 -0.1294 -0.2498 -0.3479
  202SOL     OW  805   3.600   2.747   0.569 -0.5497 -0.1034  0.3087
  202SOL    HW2  806   3.679   2.704   0.602  0.0311  0.7243  0.0025
  202SOL    HW3  807   3.599   2.832   0.612  0.1161  0.9187 -1.6437
  202SOL    MW4  808   3.610   2.752   0.579 -0.3852  0.1407  0.0107
  203SOL     OW  809   2.698   0.078   1.064 -0.0578 -0.4838  0.1709
  203SOL    HW2  810   2.636   0.133   1.016  0.8831  1.1447  0.7758
  203SOL    HW3  811   2.693  -0.007   1.021 -1.2936  0.1651 -1.0024
  203SOL    MW4  812   2.689   0.074   1.052 -0.0967 -0.1833  0.0959
  204SOL     OW  813   4.454   0.138   1.372  0.0044 -0.2892 -0.1009
  204SOL    HW2  814   4.533   0.089   1.394  0.9886  1.0885 -0.4801
  204SOL    HW3  815   4.452   0.140   1.276  0.4244  1.0700 -0.0999
  204SOL    MW4  816   4.464   0.132   1.362  0.1897  0.0719 -0.1508
  205SOL     OW  817   3.597   2.471   1.316 -0.3137 -0.4177  0.0025
  205SOL    HW2  818   3.674   2.439   1.363 -0.0337 -0.6450 -0.6098
  205SOL    HW3  819   3.623   2.470   1.224 -1.1143 -0.6782 -0.2246
  205SOL    MW4  820   3.611   2.467   1.310 -0.3824 -0.4820 -0.1083
  206SOL     OW  821   3.051   1.715   0.059  0.5120  0.0459  0.0183
  206SOL    HW2  822   3.051   1.762  -0.024 -1.7193 -0.4505 -0.2825
  206SOL    HW3  823   2.996   1.768   0.117  0.2855 -0.7270  0.5240
  206SOL    MW4  824   3.044   1.728   0.056  0.1878 -0.1216  0.0453
  207SOL     OW  825   0.686   1.831   0.745 -0.1933 -0.7459  0.1502
  207SOL    HW2  826   0.685   1.754   0.687 -0.7539 -0.7909  0.2151
  207SOL    HW3  827   0.603   1.874   0.728  0.1059 -0.1681  0.1457
  207SOL    MW4  828   0.675   1.826   0.735 -0.2278 -0.6756  0.1582
  208SOL     OW  829   2.034   0.177   0.987  0.2456  0.1314 -0.0859
  208SOL    HW2  830   2.055   0.268   1.006 -0.6387  0.5226 -0.9474
  208SOL    HW3  831   2.048   0.167   0.893 -0.2308 -0.4596 -0.1017
  208SOL    MW4  832   2.039   0.188   0.978  0.0661  0.1050 -0.2016
  209SOL     OW  833   3.469   3.937   0.808  0.4925 -0.1325 -0.1876
  209SOL    HW2  834   3.440   4.002   0.872  1.0216 -0.3176  0.2500
  209SOL    HW3  835   3.392   3.884   0.791  0.0004  0.7270 -0.6982
  209SOL    MW4  836   3.455   3.939   0.814  0.4974 -0.0435 -0.1972
  210SOL     OW  837   0.003   0.889   0.576 -0.0438  0.4962 -0.2523
  210SOL    HW2  838  -0.079   0.923   0.611  0.5136  0.1498  1.4258
  210SOL    HW3  839  -0.000   0.795   0.596  0.2596  0.2776 -1.2008
  210SOL    MW4  840  -0.009   0.881   0.583  0.0697  0.4217 -0.1560
  211SOL     OW  841   3.345   2.696   0.677 -0.5187 -0.1742 -0.1289
  211SOL    HW2  842   3.431   2.704   0.637 -1.3853 -0.5357 -2.1191
  211SOL    HW3  843   3.302   2.625   0.629 -1.8951 -0.0800  0.9024
  211SOL    MW4  844   3.350   2.688   0.666 -0.8146 -0.2094 -0.2554
  212SOL     OW  845   2.027   3.319   0.970  0.4099 -0.4963  0.6574
  212SOL    HW2  846   2.109   3.301   1.016 -0.0122 -0.3930  1.4677
  212SOL    HW3  847   2.017   3.414   0.974  0.9531 -0.3701 -0.6830
  212SOL    MW4  848   2.037   3.329   0.976  0.4259 -0.4661  0.5874
  213SOL     OW  849   3.384   3.345   0.691 -0.5171 -0.3212 -0.5337
  213SOL    HW2  850   3.388   3.263   0.642  1.4848 -0.0876 -0.8161
  213SOL    HW3  851   3.462   3.393   0.663 -1.6889  1.7242 -0.4365
  213SOL    MW4  852   3.395   3.340   0.681 -0.4075 -0.0205 -0.5581
  214SOL     OW  853   0.008   3.265   1.322 -0.3350  0.8203  0.3898
  214SOL    HW2  854  -0.015   3.355   1.344  0.1297  0.9863  0.1915
  214SOL    HW3  855  -0.069   3.214   1.347 -0.4965  1.2375  0.7467
  214SOL    MW4  856  -0.005   3.270   1.328 -0.2950  0.8972  0.4107
  215SOL     OW  857   2.999   3.698   0.288  0.2554 -0.5485 -0.0360
  215SOL    HW2  858   2.941   3.628   0.258 -0.3046 -0.3544  0.5795
  215SOL    HW3  859   3.080   3.652   0.314 -1.3439 -1.4136  3.6719
  215SOL    MW4  860   3.002   3.683   0.288 -0.0295 -0.6370  0.5344
  216SOL     OW  861   1.414   2.788   0.316  0.0373  0.1714  0.6516
  216SOL    HW2  862   1.403   2.883   0.309  0.0161  0.1164 -0.1051
  216SOL    HW3  863   1.505   2.773   0.289 -0.1252 -0.0771  0.2396
  216SOL    MW4  864   1.425   2.799   0.311  0.0130  0.1313  0.4974
  217SOL     OW  865   0.084   3.227   0.107 -0.2675 -0.0516  0.2073
  217SOL    HW2  866   0.066   3.278   0.186 -0.6418 -0.3318  0.3049
  217SOL    HW3  867   0.031   3.270   0.039  0.0099  0.1545  0.1192
  217SOL    MW4  868   0.074   3.240   0.108 -0.2803 -0.0614  0.2085
  218SOL     OW  869   1.795   3.719   0.925  0.0773  0.3042 -0.4605
  218SOL    HW2  870   1.799   3.718   0.830 -0.1443 -0.0667 -0.4673
  218SOL    HW3  871   1.724   3.658   0.947  0.5630 -0.1074 -0.0355
  218SOL    MW4  872   1.786   3.711   0.915  0.1122  0.2010 -0.4053
  219SOL     OW  873   2.220   2.092   0.694 -0.5485  0.1745  0.2140
  219SOL    HW2  874   2.265   2.009   0.708 -0.6104 -0.0559 -0.9268
  219SOL    HW3  875   2.283   2.147   0.647 -1.3557 -0.0669 -1.1702
  219SOL    MW4  876   2.234   2.088   0.690 -0.6631  0.1123 -0.1191
  220SOL     OW  877   4.102   2.947   0.688  0.5529  0.4806 -0.0411
  220SOL    HW2  878   4.093   2.980   0.777 -1.1267 -0.3569  0.1181
  220SOL    HW3  879   4.157   2.869   0.697  0.2136  0.2792  0.2940
  220SOL    MW4  880   4.108   2.941   0.701  0.2865  0.3436  0.0241
  221SOL     OW  881   0.218   1.439   0.105  0.1645 -0.4032  0.1460
  221SOL    HW2  882   0.162   1.492   0.047 -0.0474  0.9109  1.5094
  221SOL    HW3  883   0.156   1.391   0.160  0.3617  0.4277  1.1041
  221SOL    MW4  884   0.202   1.440   0.104  0.1625 -0.1202  0.4523
  222SOL     OW  885   2.467   1.572   1.471  0.0990  0.1063  0.1216
  222SOL    HW2  886   2.540   1.618   1.428  0.1397  0.5879  0.7055
  222SOL    HW3  887   2.487   1.479   1.458  1.6171  0.1981  1.5979
  222SOL    MW4  888   2.479   1.566   1.463  0.3047  0.1820  0.3935
  223SOL     OW  889   1.051   4.435   0.371  0.0095  0.0175  0.3191
  223SOL    HW2  890   1.141   4.437   0.339  0.0248 -1.6542  0.1816
  223SOL    HW3  891   1.060   4.408   0.463 -0.4271 -1.4956 -0.0757
  223SOL    MW4  892   1.064   4.432   0.379 -0.0461 -0.4027  0.2489
  224SOL     OW  893   3.164   2.704   1.450 -0.4179  0.5295  0.4892
  224SOL    HW2  894   3.232   2.751   1.401 -1.4296  1.4254 -0.0825
  224SOL    HW3  895   3.159   2.619   1.408  0.1159  0.5794  0.3155
  224SOL    MW4  896   3.172   2.699   1.438 -0.4809  0.6543  0.3909
  225SOL     OW  897   2.280   1.182   1.515  0.1203  0.2681 -0.2908
  225SOL    HW2  898   2.272   1.099   1.469 -0.6082 -0.6216  1.4059
  225SOL    HW3  899   2.276   1.159   1.608  0.7643  2.1082  0.2216
  225SOL    MW4  900   2.279   1.168   1.521  0.1092  0.3935  0.0006
  226SOL     OW  901   2.449   1.066   0.698 -0.0869  0.3306  0.0671
  226SOL    HW2  902   2.374   1.125   0.709  0.0237  0.5358 -0.2596
  226SOL    HW3  903   2.519   1.124   0.668 -0.5416 -0.2989 -2.3006
  226SOL    MW4  904   2.448   1.082   0.695 -0.1323  0.2746 -0.2884
  227SOL     OW  905   0.437   4.586   0.907  0.0670  0.0804 -0.7736
  227SOL    HW2  906   0.441   4.656   0.972 -0.2566 -0.7939  0.2191
  227SOL    HW3  907   0.386   4.517   0.950  0.7753 -0.9455 -1.5443
  227SOL    MW4  908   0.431   4.586   0.922  0.1178 -0.1703 -0.7443
  228SOL     OW  909   0.631   0.764   1.409 -0.4025 -0.2297 -0.6458
  228SOL    HW2  910   0.704   0.818   1.379 -0.2597  0.3327  0.6622
  228SOL    HW3  911   0.651   0.746   1.501 -1.1335 -1.3777 -0.7105
  228SOL    MW4  912   0.643   0.769   1.417 -0.4801 -0.3070 -0.4818
  229SOL     OW  913   1.824   2.411   1.078  0.5529 -0.0077  0.4163
  229SOL    HW2  914   1.743   2.455   1.054  1.1015  1.2964  0.9265
  229SOL    HW3  915   1.818   2.399   1.173  1.1854  0.5552  0.5273
  229SOL    MW4  916   1.813   2.415   1.088  0.7088  0.2386  0.4983
  230SOL     OW  917   1.721   2.988   0.680 -0.2491  0.0614 -0.0603
  230SOL    HW2  918   1.757   2.984   0.769 -1.0254  0.6534  0.2889
  230SOL    HW3  919   1.793   3.021   0.626  0.7507 -1.8646  0.0480
  230SOL    MW4  920   1.735   2.992   0.685 -0.2196 -0.1146  0.0000
  231SOL     OW  921   2.711   1.983   4.215  0.1517 -0.5594  0.1913
  231SOL    HW2  922   2.739   2.051   4.153  0.6915  1.1648  2.2992
  231SOL    HW3  923   2.726   1.901   4.168  0.7589  0.7072 -1.8945
  231SOL    MW4  924   2.716   1.981   4.200  0.3030 -0.1648  0.1942
  232SOL     OW  925   1.568   2.591   0.724 -0.5507 -0.4283 -0.4714
  232SOL    HW2  926   1.569   2.517   0.664 -1.7719  0.2834 -1.3824
  232SOL    HW3  927   1.505   2.652   0.686 -1.7770 -0.2193  1.8258
  232SOL    MW4  928   1.560   2.589   0.711 -0.8736 -0.3068 -0.2885
  233SOL     OW  929   4.171   3.332   0.062  0.7702 -0.0130  0.3555
  233SOL    HW2  930   4.185   3.396   0.132  0.7443  0.3143  0.0657
  233SOL    HW3  931   4.246   3.345   0.003 -0.2725  1.1423 -0.7488
  233SOL    MW4  932   4.183   3.342   0.064  0.6292  0.1826  0.1715
  234SOL     OW  933   3.928   2.844   0.499  0.3115 -0.1441 -0.1648
  234SOL    HW2  934   3.995   2.860   0.565 -0.2325 -0.4765  0.4662
  234SOL    HW3  935   3.886   2.762   0.525  0.5387 -0.6349 -1.2899
  234SOL    MW4  936   3.931   2.836   0.511  0.2697 -0.2527 -0.2300
  235SOL     OW  937   2.060   2.370   0.595  0.0022 -0.3168 -0.0316
  235SOL    HW2  938   2.038   2.362   0.503  0.7380 -0.0653 -0.2309
  235SOL    HW3  939   2.149   2.334   0.602 -0.4523 -1.3096  0.7571
  235SOL    MW4  940   2.069   2.364   0.584  0.0393 -0.4146  0.0461
  236SOL     OW  941   4.127   1.411   0.288 -0.6353  0.2773 -0.0303
  236SOL    HW2  942   4.118   1.501   0.259 -0.1536  0.4549  0.3484
  236SOL    HW3  943   4.202   1.413   0.348 -0.8286 -0.3101  0.2355
  236SOL    MW4  944   4.136   1.423   0.292 -0.5972  0.2232  0.0547
  237SOL     OW  945   3.757   1.559   1.405  0.1727  0.0222 -0.2217
  237SOL    HW2  946   3.773   1.574   1.498 -1.3855 -0.2373  0.1077
  237SOL    HW3  947   3.774   1.466   1.392 -1.7606 -0.4373  0.3059
  237SOL    MW4  948   3.761   1.549   1.415 -0.2880 -0.0727 -0.1086
  238SOL     OW  949   1.142   1.204   1.790  0.1583 -0.0966 -0.1861
  238SOL    HW2  950   1.136   1.297   1.767  0.9062 -0.2508 -1.0558
  238SOL    HW3  951   1.077   1.161   1.735  0.1327 -0.1456 -0.1174
  238SOL    MW4  952   1.133   1.211   1.780  0.2536 -0.1234 -0.2918
  239SOL     OW  953   3.843   2.864   1.045  0.1416 -0.0644  0.3657
  239SOL    HW2  954   3.843   2.873   1.140 -2.1832 -1.0271  0.4985
  239SOL    HW3  955   3.757   2.896   1.018  1.4959  2.0089 -1.6321
  239SOL    MW4  956   3.832   2.869   1.054  0.0135  0.0822  0.1196
  240SOL     OW  957   1.080   4.427   1.058  0.4061  0.1233  0.3223
  240SOL    HW2  958   1.100   4.343   1.018 -0.1851  0.2664 -0.2808
  240SOL    HW3  959   1.154   4.483   1.035  0.4700 -0.0377  0.1372
  240SOL    MW4  960   1.092   4.423   1.049  0.3365  0.1209  0.2183
  241SOL     OW  961   3.360   3.814   1.426 -0.0622 -0.2520 -0.2640
  241SOL    HW2  962   3.355   3.721   1.406 -1.8319 -0.0868 -0.6696
  241SOL    HW3  963   3.438   3.845   1.380  0.7127 -1.5843  0.1358
  241SOL    MW4  964   3.369   3.806   1.418 -0.1934 -0.4060 -0.2647
  242SOL     OW  965   0.461   2.150   0.910 -0.0261 -0.8465  0.1289
  242SOL    HW2  966   0.383   2.113   0.951  0.7961 -0.7092  1.8207
  242SOL    HW3  967   0.534   2.107   0.954  0.9390  2.1512  1.5281
  242SOL    MW4  968   0.460   2.139   0.921  0.2097 -0.4329  0.5367
  243SOL     OW  969   2.030   3.031   1.415 -0.1116 -0.1889  0.3200
  243SOL    HW2  970   2.044   3.015   1.508  0.6534 -0.8990  0.0860
  243SOL    HW3  971   2.111   3.073   1.385 -0.2740 -0.1502 -0.0677
  243SOL    MW4  972   2.042   3.034   1.423 -0.0321 -0.2775  0.2380
  244SOL     OW  973   0.745   2.373   0.589  0.1682 -0.3939 -0.3414
  244SOL    HW2  974   0.653   2.360   0.567 -0.1065  0.5286  0.2083
  244SOL    HW3  975   0.780   2.426   0.517 -0.2550  0.9951  0.4421
  244SOL    MW4  976   0.737   2.378   0.577  0.0761 -0.0889 -0.1655
  245SOL     OW  977   4.060   2.440   1.033 -0.2418  0.2920  0.1303
  245SOL    HW2  978   4.058   2.349   1.003 -0.7455  0.2624  0.2432
  245SOL    HW3  979   4.058   2.434   1.129 -0.4789  0.4281  0.1339
  245SOL    MW4  980   4.059   2.427   1.042 -0.3396  0.3060  0.1457
  246SOL     OW  981   0.299   3.319   0.416 -0.0241  0.5665  0.0274
  246SOL    HW2  982   0.359   3.379   0.461 -0.0527 -0.1107  0.9726
  246SOL    HW3  983   0.290   3.245   0.476 -0.0805 -0.3356 -1.0898
  246SOL    MW4  984   0.306   3.317   0.430 -0.0353  0.3581  0.0047
  247SOL     OW  985   4.273   4.615   1.472  0.0845 -0.1107 -0.0201
  247SOL    HW2  986   4.283   4.619   1.567 -0.2457  1.1483 -0.0206
  247SOL    HW3  987   4.336   4.679   1.438  0.4037 -0.7571 -0.6678
  247SOL    MW4  988   4.282   4.624   1.480  0.0831 -0.0298 -0.1056
  248SOL     OW  989   1.547   3.030   1.474  0.2036 -0.3869  0.1599
  248SOL    HW2  990   1.627   3.061   1.433  0.2464  0.6146  0.9773
  248SOL    HW3  991   1.477   3.081   1.434 -0.1645 -1.9365 -1.2626
  248SOL    MW4  992   1.548   3.041   1.464  0.1607 -0.4592  0.0800
  249SOL     OW  993   4.068   1.392   0.939  0.0690 -0.3018  0.4565
  249SOL    HW2  994   4.087   1.367   0.849 -1.2944 -0.9559  0.3342
  249SOL    HW3  995   4.116   1.328   0.992  1.0988  0.2559  0.2036
  249SOL    MW4  996   4.077   1.380   0.934  0.0250 -0.3145  0.4070
  250SOL     OW  997   4.039   1.887   1.462 -0.3951 -0.4151  0.6421
  250SOL    HW2  998   4.101   1.958   1.448 -1.0801  0.1836  0.6249
  250SOL    HW3  999   4.059   1.824   1.394 -0.1024 -0.0167  0.3564
  250SOL    MW4 1000   4.050   1.888   1.451 -0.4468 -0.2836  0.6021
  251SOL     OW 1001   2.899   1.875   0.657  0.3091  0.4155 -0.4075
  251SOL    HW2 1002   2.982   1.912   0.627  0.0366  1.5696  0.2258
  251SOL    HW3 1003   2.907   1.871   0.752 -0.1337 -0.0502 -0.3836
  251SOL    MW4 1004   2.911   1.879   0.666  0.2147  0.5064 -0.3208
  252SOL     OW 1005   1.119   3.076   1.436 -0.0434 -0.6949 -0.1751
  252SOL    HW2 1006   1.116   2.985   1.406  2.7799 -1.2012  0.8476
  252SOL    HW3 1007   1.106   3.070   1.531 -1.4087  0.1393 -0.3013
  252SOL    MW4 1008   1.117   3.063   1.444  0.1490 -0.6517 -0.0568
  253SOL     OW 1009   3.821   3.812   0.394 -0.4103 -0.3136  0.1972
  253SOL    HW2 1010   3.832   3.860   0.476  0.5800 -0.6849  0.2918
  253SOL    HW3 1011   3.830   3.720   0.418 -2.8687 -0.6157  0.1111
  253SOL    MW4 1012   3.824   3.807   0.408 -0.6040 -0.4024  0.1983
  254SOL     OW 1013   3.877   0.542   0.406  0.2145  0.3554  0.1007
  254SOL    HW2 1014   3.961   0.584   0.425 -0.1839  1.6088 -0.8198
  254SOL    HW3 1015   3.899   0.450   0.393  1.1836  0.3462  1.6361
  254SOL    MW4 1016   3.891   0.535   0.407  0.2898  0.5195  0.1818
  255SOL     OW 1017   1.920   1.787   0.689  0.1650  0.4562 -0.1576
  255SOL    HW2 1018   1.962   1.779   0.774 -1.7083 -0.6169  0.7115
  255SOL    HW3 1019   1.905   1.697   0.661 -0.8283  0.8068 -0.7931
  255SOL    MW4 1020   1.923   1.774   0.697 -0.2132  0.3609 -0.1268
  256SOL     OW 1021   2.298   0.438   0.084 -0.4811 -0.4549  0.0987
  256SOL    HW2 1022   2.327   0.423   0.174 -0.8557 -0.9064  0.1423
  256SOL    HW3 1023   2.204   0.423   0.086 -0.6969  0.8133 -0.0902
  256SOL    MW4 1024   2.289   0.434   0.096 -0.5590 -0.3472  0.0795
  257SOL     OW 1025   2.933   4.135   0.967 -0.0140 -0.0198  0.1296
  257SOL    HW2 1026   2.941   4.123   0.873 -1.3891  1.1155 -0.1481
  257SOL    HW3 1027   2.862   4.075   0.992 -0.2372  0.3071  0.2918
  257SOL    MW4 1028   2.924   4.125   0.958 -0.2249  0.1731  0.1144
  258SOL     OW 1029   0.286   4.158   0.970  0.2351  0.0045  0.3936
  258SOL    HW2 1030   0.287   4.241   1.017 -1.3395  0.9709 -1.2164
  258SOL    HW3 1031   0.207   4.114   0.999  0.1440 -0.1445 -0.0713
  258SOL    MW4 1032   0.276   4.163   0.980  0.0154  0.1123  0.1198
  259SOL     OW 1033   1.364   0.123   0.286  0.1488  0.2569 -0.0274
  259SOL    HW2 1034   1.289   0.159   0.333 -0.3962  0.2241 -0.8490
  259SOL    HW3 1035   1.376   0.181   0.211  1.3467  0.6202  0.4354
  259SOL    MW4 1036   1.356   0.135   0.282  0.2349  0.3005 -0.0748
  260SOL     OW 1037   3.272   0.492   0.481 -0.0219 -0.2567  0.2822
  260SOL    HW2 1038   3.222   0.561   0.525 -0.6056 -0.2615 -0.3581
  260SOL    HW3 1039   3.242   0.411   0.523 -0.7496 -0.2816 -0.2863
  260SOL    MW4 1040   3.261   0.491   0.493 -0.1950 -0.2606  0.1227
  261SOL     OW 1041   3.626   3.476   1.510 -0.1135  0.0905  0.5387
  261SOL    HW2 1042   3.621   3.389   1.471 -0.7589  0.1751  0.4396
  261SOL    HW3 1043   3.681   3.526   1.450 -1.4471  0.3402 -0.4918
  261SOL    MW4 1044   3.633   3.471   1.497 -0.3746  0.1346  0.3897
  262SOL     OW 1045   4.424   0.274   0.422  0.2935 -0.0747 -0.1714
  262SOL    HW2 1046   4.494   0.326   0.381 -0.2677 -0.0825 -1.1433
  262SOL    HW3 1047   4.361   0.340   0.452 -0.1952 -0.1594 -0.9934
  262SOL    MW4 1048   4.425   0.290   0.420  0.1550 -0.0869 -0.4081
  263SOL     OW 1049   0.001   2.972   0.943  0.2126 -0.5956 -0.2838
  263SOL    HW2 1050  -0.075   2.934   0.988  0.9959 -3.2981 -1.1569
  263SOL    HW3 1051  -0.034   3.004   0.860 -0.5068  0.9229  0.5768
  263SOL    MW4 1052  -0.013   2.971   0.938  0.2210 -0.7518 -0.2854
  264SOL     OW 1053   3.705   1.941   0.595 -0.4983 -0.0288 -0.4291
  264SOL    HW2 1054   3.658   1.914   0.517 -0.2569 -1.6839 -0.0135
  264SOL    HW3 1055   3.762   1.867   0.617 -0.3408  0.5215  1.1346
  264SOL    MW4 1056   3.706   1.928   0.588 -0.4457 -0.1745 -0.1680
  265SOL     OW 1057   0.422   1.630   1.085  0.1363  0.4264  0.1600
  265SOL    HW2 1058   0.404   1.669   1.170  0.2687 -0.6088  0.6664
  265SOL    HW3 1059   0.513   1.651   1.067 -0.0155  1.0118  0.0785
  265SOL    MW4 1060   0.431   1.638   1.094  0.1338  0.3671  0.2161
  266SOL     OW 1061   3.171   4.264   1.753 -0.5201  0.3341  0.1767
  266SOL    HW2 1062   3.166   4.278   1.658 -0.0327 -0.4305  0.0275
  266SOL    HW3 1063   3.170   4.168   1.762 -1.9904  0.4242  1.0255
  266SOL    MW4 1064   3.170   4.253   1.742 -0.6497  0.2451  0.2690
  267SOL     OW 1065   2.903   2.076   0.380  0.3583 -0.5850 -0.4787
  267SOL    HW2 1066   2.977   2.122   0.341 -0.2907 -0.2481 -1.3308
  267SOL    HW3 1067   2.898   1.993   0.331 -0.1130 -0.4027 -0.7404
  267SOL    MW4 1068   2.912   2.071   0.368  0.2105 -0.5165 -0.6256
  268SOL     OW 1069   4.013   4.051   1.308  0.2102  0.3100 -0.6029
  268SOL    HW2 1070   4.104   4.022   1.316  0.4928  0.9986 -1.2685
  268SOL    HW3 1071   3.996   4.052   1.214  0.2363  2.3406 -0.6193
  268SOL    MW4 1072   4.023   4.048   1.297  0.2509  0.6688 -0.6929
  269SOL     OW 1073   0.216   3.040   0.506 -0.4097 -0.1781  0.3729
  269SOL    HW2 1074   0.306   3.009   0.513 -0.1929  0.7259  1.7180
  269SOL    HW3 1075   0.189   3.015   0.417  1.3803  0.1219 -0.2757
  269SOL    MW4 1076   0.225   3.033   0.495 -0.1449 -0.0193  0.4648
  270SOL     OW 1077   2.470   1.010   0.956  0.2068  0.2846 -0.2873
  270SOL    HW2 1078   2.460   1.033   0.864  1.3911  2.2200  0.0620
  270SOL    HW3 1079   2.478   1.093   1.002 -1.1561 -0.6134  1.6925
  270SOL    MW4 1080   2.469   1.024   0.950  0.1832  0.4214  0.0200
  271SOL     OW 1081   4.482   3.298   0.569  0.7596 -0.5139  0.3998
  271SOL    HW2 1082   4.483   3.203   0.585  0.9422 -0.5926 -0.0741
  271SOL    HW3 1083   4.422   3.332   0.635  1.7441 -0.7932  1.4504
  271SOL    MW4 1084   4.474   3.290   0.580  0.9136 -0.5611  0.4759
  272SOL     OW 1085   2.727   1.703   1.080  0.2137 -0.2215  0.2782
  272SOL    HW2 1086   2.735   1.614   1.046 -0.8374 -0.7144  1.3120
  272SOL    HW3 1087   2.656   1.742   1.029  0.8084  0.1016 -0.3140
  272SOL    MW4 1088   2.719   1.696   1.069  0.1535 -0.2439  0.3365
  273SOL     OW 1089   3.797   0.219   0.981  0.3052  0.2491 -0.0858
  273SOL    HW2 1090   3.869   0.166   1.015 -0.1995 -0.2152  0.2624
  273SOL    HW3 1091   3.772   0.176   0.900  1.4372  1.2957 -1.0152
  273SOL    MW4 1092   3.803   0.206   0.975  0.3880  0.3259 -0.1625
  274SOL     OW 1093   0.441   3.195   1.030 -0.0930  0.1579  0.6755
  274SOL    HW2 1094   0.437   3.199   1.126  1.5359  0.3980  0.7462
  274SOL    HW3 1095   0.371   3.252   1.000 -0.8083 -0.1592  1.7296
  274SOL    MW4 1096   0.432   3.203   1.039  0.0276  0.1477  0.8239
  275SOL     OW 1097   0.878   0.838   1.042 -0.0699  0.0119 -0.2210
  275SOL    HW2 1098   0.802   0.890   1.017  0.0047 -0.3448 -1.2211
  275SOL    HW3 1099   0.953   0.895   1.027 -0.0418 -0.1174 -0.5667
  275SOL    MW4 1100   0.878   0.852   1.037 -0.0563 -0.0522 -0.3986
  276SOL     OW 1101   0.349   3.307   0.138 -0.1198  0.0410 -0.0969
  276SOL    HW2 1102   0.262   3.279   0.109 -0.0757 -0.7800  0.5528
  276SOL    HW3 1103   0.346   3.300   0.234  0.5442  0.3534 -0.0492
  276SOL    MW4 1104   0.337   3.302   0.147 -0.0264 -0.0261 -0.0049
  277SOL     OW 1105   4.058   4.481   0.663  0.1332 -0.6625  0.0509
  277SOL    HW2 1106   4.052   4.520   0.749  0.7114 -1.5708  0.5146
  277SOL    HW3 1107   3.986   4.519   0.614  0.6234  0.8956  0.5088
  277SOL    MW4 1108   4.048   4.491   0.668  0.2742 -0.5767  0.1725
  278SOL     OW 1109   2.292   2.176   0.951 -0.2097 -0.1185 -0.7134
  278SOL    HW2 1110   2.297   2.270   0.934  1.1396 -0.1350 -0.5324
  278SOL    HW3 1111   2.260   2.138   0.869  1.4857  0.2864 -1.5878
  278SOL    MW4 1112   2.289   2.183   0.938  0.1920 -0.0672 -0.8049
  279SOL     OW 1113   2.354   3.313   0.702  0.7530  0.4494 -0.1318
  279SOL    HW2 1114   2.395   3.336   0.786  0.1986 -0.3651  0.3683
  279SOL    HW3 1115   2.410   3.244   0.666 -0.0709 -0.5440  0.4724
  279SOL    MW4 1116   2.367   3.307   0.708  0.5711  0.2109  0.0139
  280SOL     OW 1117   3.695   1.404   0.603  0.2663  0.1562  0.4487
  280SOL    HW2 1118   3.747   1.362   0.534  1.0780 -1.0200  1.7269
  280SOL    HW3 1119   3.606   1.373   0.588  0.4581 -0.1985  0.0040
  280SOL    MW4 1120   3.690   1.394   0.592  0.3987 -0.0458  0.5586
  281SOL     OW 1121   1.776   3.429   1.401 -0.1978  0.0565  0.4848
  281SOL    HW2 1122   1.769   3.334   1.390 -0.5741 -0.1854  2.5737
  281SOL    HW3 1123   1.792   3.441   1.495  2.0345  1.9687 -0.0973
  281SOL    MW4 1124   1.777   3.418   1.412  0.0471  0.2769  0.6836
  282SOL     OW 1125   1.115   0.140   0.709  0.3590  0.9033 -0.3912
  282SOL    HW2 1126   1.172   0.063   0.709 -1.2926 -0.3632  0.6665
  282SOL    HW3 1127   1.133   0.183   0.792  0.9048  1.3702 -0.7512
  282SOL    MW4 1128   1.125   0.135   0.720  0.2131  0.7978 -0.2992
  283SOL     OW 1129   1.556   4.366   1.075 -0.4520 -0.7792 -0.0177
  283SOL    HW2 1130   1.541   4.367   1.170  1.2484  1.3961  0.2631
  283SOL    HW3 1131   1.560   4.273   1.053 -0.6590 -1.3245  2.0833
  283SOL    MW4 1132   1.555   4.354   1.085 -0.2550 -0.5642  0.2965
  284SOL     OW 1133   1.845   4.368   0.691 -0.5406  0.0863 -0.4286
  284SOL    HW2 1134   1.820   4.385   0.782  0.7162 -1.5928  0.2416
  284SOL    HW3 1135   1.875   4.453   0.658 -0.3698  0.5493  0.9072
  284SOL    MW4 1136   1.845   4.382   0.698 -0.3523 -0.0741 -0.1640
  285SOL     OW 1137   2.832   0.959   0.381 -0.2113  0.4392 -0.3262
  285SOL    HW2 1138   2.908   0.901   0.374 -1.0383 -0.8031  0.7263
  285SOL    HW3 1139   2.772   0.912   0.439 -1.2715  1.9556 -0.1758
  285SOL    MW4 1140   2.834   0.945   0.388 -0.4603  0.4753 -0.1675
  286SOL     OW 1141   3.380   2.905   0.301 -0.7011 -0.7156  0.2557
  286SOL    HW2 1142   3.385   2.983   0.246  0.2974 -0.7295  0.3313
  286SOL    HW3 1143   3.305   2.856   0.266 -0.5099 -0.3728 -0.6348
  286SOL    MW4 1144   3.371   2.909   0.289 -0.5441 -0.6722  0.1482
  287SOL     OW 1145   4.483   2.711   0.576  0.0424 -0.0335 -0.0587
  287SOL    HW2 1146   4.574   2.741   0.577 -0.1125  0.4339  0.3694
  287SOL    HW3 1147   4.486   2.626   0.533  0.7328 -0.1892  0.2880
  287SOL    MW4 1148   4.495   2.704   0.570  0.1131  0.0076  0.0435
  288SOL     OW 1149   0.488   3.035   0.523  0.2435 -0.1314 -0.0674
  288SOL    HW2 1150   0.526   3.115   0.559 -0.2660 -0.2599  0.7698
  288SOL    HW3 1151   0.523   2.965   0.578  1.0238 -0.5413 -1.0574
  288SOL    MW4 1152   0.498   3.036   0.535  0.2792 -0.2025 -0.0876
  289SOL     OW 1153   2.027   1.773   0.938  0.8563 -0.2056 -0.5012
  289SOL    HW2 1154   2.052   1.853   0.984  2.4715 -1.0878  0.1839
  289SOL    HW3 1155   1.973   1.725   1.000 -0.7978  0.7022 -1.2043
  289SOL    MW4 1156   2.023   1.777   0.952  0.8511 -0.2022 -0.5036
  290SOL     OW 1157   0.404   0.916   1.352  0.1158 -0.3312  0.0415
  290SOL    HW2 1158   0.482   0.871   1.384  0.6861  1.0450  0.6223
  290SOL    HW3 1159   0.418   0.925   1.258  1.3098  1.1148  0.3327
  290SOL    MW4 1160   0.416   0.911   1.344  0.3486  0.0412  0.1566
  291SOL     OW 1161   0.490   0.357   1.414 -0.1262 -0.0388  0.1882
  291SOL    HW2 1162   0.424   0.414   1.374 -0.1749  0.4058  0.8889
  291SOL    HW3 1163   0.573   0.389   1.378 -0.1127  0.7866  0.9342
  291SOL    MW4 1164   0.492   0.369   1.404 -0.1308  0.1287  0.3790
  292SOL     OW 1165   0.697   4.619   1.489 -0.0799  0.2045  0.6770
  292SOL    HW2 1166   0.769   4.673   1.456 -0.5347  0.3574 -0.0725
  292SOL    HW3 1167   0.706   4.536   1.443  0.2774 -0.1736  1.4109
  292SOL    MW4 1168   0.708   4.615   1.479 -0.0928  0.1748  0.6749
  293SOL     OW 1169   0.252   4.200   0.706  0.2196 -0.3383  0.3188
  293SOL    HW2 1170   0.275   4.189   0.798  0.4378  2.0005  0.5589
  293SOL    HW3 1171   0.197   4.278   0.704 -1.3261 -1.4209 -1.3044
  293SOL    MW4 1172   0.248   4.209   0.718  0.0445 -0.1726  0.1363
  294SOL     OW 1173   1.178   2.629   0.266 -0.5076 -0.1752 -0.1737
  294SOL    HW2 1174   1.106   2.690   0.250  0.3913  1.4218  1.6826
  294SOL    HW3 1175   1.255   2.685   0.274  0.4431 -1.6056  0.9394
  294SOL    MW4 1176   1.178   2.645   0.265 -0.2636 -0.1532  0.2181
  295SOL     OW 1177   2.015   4.147   0.691 -0.3897 -0.2794 -0.2878
  295SOL    HW2 1178   1.964   4.227   0.694 -0.0887 -0.0596 -0.8747
  295SOL    HW3 1179   2.020   4.118   0.782  2.2447  2.1017  0.4064
  295SOL    MW4 1180   2.009   4.154   0.703 -0.0024  0.0638 -0.2737
  296SOL     OW 1181   2.166   1.323   0.316 -0.1457 -0.4153  0.4127
  296SOL    HW2 1182   2.148   1.371   0.397  0.4015 -0.4452  0.5505
  296SOL    HW3 1183   2.259   1.338   0.299  0.3548 -2.4571  1.1350
  296SOL    MW4 1184   2.176   1.331   0.324 -0.0075 -0.6886  0.5262
  297SOL     OW 1185   3.844   2.593   0.616 -0.0696 -0.2264  0.1276
  297SOL    HW2 1186   3.835   2.504   0.583  1.0398 -0.4020  0.2811
  297SOL    HW3 1187   3.851   2.583   0.711  0.7527 -0.0313  0.0894
  297SOL    MW4 1188   3.844   2.580   0.624  0.1852 -0.2238  0.1428
  298SOL     OW 1189   4.058   0.361   1.427  0.1975  0.3837 -0.3055
  298SOL    HW2 1190   3.971   0.391   1.400 -0.4345 -0.4537  0.7812
  298SOL    HW3 1191   4.057   0.266   1.413  0.8871  0.3451 -0.1317
  298SOL    MW4 1192   4.047   0.353   1.421  0.2051  0.2681 -0.1392
  299SOL     OW 1193   1.573   0.729   1.460 -0.4141 -0.1894 -0.0445
  299SOL    HW2 1194   1.654   0.757   1.418 -0.0847  0.1502  0.8009
  299SOL    HW3 1195   1.572   0.634   1.449 -0.4165 -0.0848 -0.9628
  299SOL    MW4 1196   1.584   0.720   1.453 -0.3710 -0.1308 -0.0541
  300SOL     OW 1197   2.277   4.223   0.615 -0.4345 -0.3672 -0.2750
  300SOL    HW2 1198   2.200   4.173   0.640  0.0619 -0.0198  2.1287
  300SOL    HW3 1199   2.256   4.313   0.640 -0.2385  0.1696 -1.9877
  300SOL    MW4 1200   2.264   4.229   0.621 -0.3431 -0.2505 -0.1838
  301SOL     OW 1201   1.157   1.758   0.923  0.1463  0.0477  0.2962
  301SOL    HW2 1202   1.164   1.755   0.827 -0.4190  1.4962  0.1932
  301SOL    HW3 1203   1.073   1.715   0.942  1.0703 -1.8217  0.2910
  301SOL    MW4 1204   1.147   1.752   0.913  0.1937 -0.0079  0.2819
  302SOL     OW 1205   3.884   1.870   0.308 -0.2923 -0.0378  0.0482
  302SOL    HW2 1206   3.900   1.945   0.365  0.1742  1.0914 -1.5317
  302SOL    HW3 1207   3.789   1.870   0.296 -0.2558  0.5940 -0.3048
  302SOL    MW4 1208   3.874   1.880   0.314 -0.2259  0.1946 -0.2068
  303SOL     OW 1209   1.775   4.261   1.455 -0.0317  0.3606 -0.3561
  303SOL    HW2 1210   1.698   4.306   1.420 -0.5474 -0.1382  0.1227
  303SOL    HW3 1211   1.766   4.170   1.425  1.5681  0.7977 -2.2323
  303SOL    MW4 1212   1.763   4.255   1.446  0.1113  0.3525 -0.5405
  304SOL     OW 1213   0.422   4.240   0.466 -0.2624 -0.6404  0.2123
  304SOL    HW2 1214   0.375   4.318   0.437  1.4940  0.5800  0.6099
  304SOL    HW3 1215   0.384   4.221   0.553 -0.9371 -0.4599 -0.0362
  304SOL    MW4 1216   0.411   4.247   0.474 -0.1197 -0.4556  0.2320
  305SOL     OW 1217   2.056   0.438   1.063  0.2140  0.0636  0.1290
  305SOL    HW2 1218   2.141   0.482   1.059  0.6466 -0.8531 -0.9072
  305SOL    HW3 1219   2.030   0.445   1.155  0.9109  1.2850  0.2429
  305SOL    MW4 1220   2.064   0.445   1.074  0.3630  0.1038  0.0073
  306SOL     OW 1221   2.706   1.468   0.716 -0.0429 -0.1349  0.5176
  306SOL    HW2 1222   2.689   1.479   0.810  1.4561 -1.7771  1.0112
  306SOL    HW3 1223   2.698   1.373   0.702 -0.4811  0.1185 -1.0787
  306SOL    MW4 1224   2.702   1.457   0.726  0.0971 -0.3181  0.3721
  307SOL     OW 1225   3.786   3.191   0.636  0.3773  0.1857 -0.2361
  307SOL    HW2 1226   3.729   3.219   0.564  0.9497 -0.4092 -0.9360
  307SOL    HW3 1227   3.875   3.206   0.603  0.6496 -0.4725  0.1824
  307SOL    MW4 1228   3.791   3.196   0.622  0.4887  0.0204 -0.2732
  308SOL     OW 1229   2.686   3.976   1.825 -0.4841  0.4248 -0.1446
  308SOL    HW2 1230   2.605   3.934   1.795 -0.1722 -0.8225  0.7270
  308SOL    HW3 1231   2.755   3.915   1.800  0.0626  0.8227  0.3835
  308SOL    MW4 1232   2.684   3.963   1.818 -0.3708  0.3127  0.0400
  309SOL     OW 1233   0.703   2.830   1.345  0.0731  0.4367  0.1650
  309SOL    HW2 1234   0.694   2.924   1.362  0.1377  0.7367 -1.4421
  309SOL    HW3 1235   0.619   2.793   1.372  0.0369  0.9527  0.7755
  309SOL    MW4 1236   0.691   2.837   1.351  0.0768  0.5443  0.0335
  310SOL     OW 1237   2.130   1.035   0.291 -0.3915  0.0597 -0.4767
  310SOL    HW2 1238   2.144   1.130   0.282 -0.6854 -0.0252 -1.8270
  310SOL    HW3 1239   2.217   0.997   0.283 -0.4774  0.0922 -1.7085
  310SOL    MW4 1240   2.143   1.043   0.289 -0.4416  0.0528 -0.8174
  311SOL     OW 1241   0.905   0.696   0.639  0.1691  0.1578  0.0048
  311SOL    HW2 1242   0.914   0.647   0.720 -0.0963 -1.2510 -0.7955
  311SOL    HW3 1243   0.826   0.660   0.598 -0.3154  1.6083 -0.3603
  311SOL    MW4 1244   0.895   0.684   0.644  0.0701  0.1633 -0.1490
  312SOL     OW 1245   3.161   1.419   0.940 -0.1589  0.1004  0.5568
  312SOL    HW2 1246   3.173   1.413   0.845 -0.3814 -0.6323  0.5767
  312SOL    HW3 1247   3.246   1.395   0.977  0.0667  0.8450  0.5366
  312SOL    MW4 1248   3.173   1.415   0.932 -0.1585  0.1019  0.5568
  313SOL     OW 1249   1.778   2.639   1.434 -0.3601  0.2180 -0.0576
  313SOL    HW2 1250   1.698   2.676   1.396  0.6145  0.0800 -2.3515
  313SOL    HW3 1251   1.848   2.692   1.396  0.7262 -0.5253  0.8992
  313SOL    MW4 1252   1.776   2.651   1.424 -0.0882  0.1017 -0.2340
  314SOL     OW 1253   0.428   2.478   0.275 -0.0076 -0.0656  0.2801
  314SOL    HW2 1254   0.375   2.557   0.265 -0.1415  0.0349  1.6250
  314SOL    HW3 1255   0.374   2.408   0.237  0.1334  0.4839 -0.9591
  314SOL    MW4 1256   0.414   2.479   0.269 -0.0066  0.0201  0.2941
  315SOL     OW 1257   0.217   2.829   1.015 -0.5782 -0.2835  0.4656
  315SOL    HW2 1258   0.206   2.739   0.986  1.1825 -0.6871  0.9608
  315SOL    HW3 1259   0.136   2.874   0.989 -0.5679 -1.4832 -1.7021
  315SOL    MW4 1260   0.205   2.823   1.008 -0.3445 -0.4950  0.2449
  316SOL     OW 1261   2.383   1.874   0.705 -0.1028  0.2460  0.4710
  316SOL    HW2 1262   2.470   1.880   0.666  0.4232 -0.2604  1.5577
  316SOL    HW3 1263   2.343   1.798   0.662  0.4160 -0.2149  0.8005
  316SOL    MW4 1264   2.389   1.864   0.694  0.0350  0.1184  0.6579
  317SOL     OW 1265   3.244   2.946   0.727  0.2065 -0.3293  0.0083
  317SOL    HW2 1266   3.258   2.862   0.684  1.2855 -0.9203  1.4847
  317SOL    HW3 1267   3.319   2.999   0.701  1.2140 -0.9109  1.6686
  317SOL    MW4 1268   3.256   2.942   0.718  0.4818 -0.4840  0.4221
  318SOL     OW 1269   4.312   4.526   0.320 -0.5678 -0.5051  0.0945
  318SOL    HW2 1270   4.283   4.463   0.254 -0.5018 -0.8826  0.4239
  318SOL    HW3 1271   4.328   4.473   0.398  1.1754 -0.3325 -0.1336
  318SOL    MW4 1272   4.310   4.510   0.322 -0.3291 -0.5321  0.1079
  319SOL     OW 1273   3.406   1.317   1.035  0.4199 -0.3169  0.4168
  319SOL    HW2 1274   3.373   1.229   1.019 -0.3283 -0.0104  0.2651
  319SOL    HW3 1275   3.472   1.330   0.968 -0.4016 -0.2669 -0.3865
  319SOL    MW4 1276   3.410   1.307   1.024  0.2128 -0.2698  0.2908
  320SOL     OW 1277   4.015   1.626   1.308  0.7064 -0.3996 -0.0187
  320SOL    HW2 1278   4.020   1.636   1.213 -0.0176 -1.5385 -0.1844
  320SOL    HW3 1279   3.921   1.622   1.326  0.8251  0.4485  0.8204
  320SOL    MW4 1280   4.003   1.627   1.298  0.6265 -0.4380  0.0701
  321SOL     OW 1281   2.727   0.368   1.481  0.1587  0.6075 -0.0674
  321SOL    HW2 1282   2.691   0.343   1.566 -1.5614  0.9375 -0.6847
  321SOL    HW3 1283   2.725   0.287   1.429  0.1895  0.6541 -0.1415
  321SOL    MW4 1284   2.722   0.354   1.485 -0.0642  0.6572 -0.1586
  322SOL     OW 1285   2.958   1.284   1.369  0.1024 -0.1274  0.3441
  322SOL    HW2 1286   2.943   1.299   1.276  0.7204 -0.8901  0.1215
  322SOL    HW3 1287   2.955   1.372   1.408 -3.3083 -0.0670  0.0844
  322SOL    MW4 1288   2.956   1.298   1.362 -0.2660 -0.2201  0.2805
  323SOL     OW 1289   2.927   2.865   1.104 -0.3698  0.2976 -0.0266
  323SOL    HW2 1290   3.006   2.916   1.085  0.7082 -0.8818  1.3049
  323SOL    HW3 1291   2.916   2.871   1.198 -0.2829 -1.8887  0.1289
  323SOL    MW4 1292   2.936   2.873   1.114 -0.2161 -0.1465  0.1696
  324SOL     OW 1293   2.041   0.753   1.378 -0.3556  0.0684 -0.0741
  324SOL    HW2 1294   2.114   0.812   1.361 -0.1298  0.1377  1.0749
  324SOL    HW3 1295   1.964   0.801   1.349 -0.2144  1.1062  1.2168
  324SOL    MW4 1296   2.040   0.767   1.372 -0.3072  0.2145  0.2478
  325SOL     OW 1297   3.836   4.426   1.029  0.0887 -0.1031  0.1929
  325SOL    HW2 1298   3.842   4.331   1.018 -0.2694 -0.1559  0.4712
  325SOL    HW3 1299   3.746   4.447   1.005  0.5666  0.3524 -1.2651
  325SOL    MW4 1300   3.825   4.416   1.024  0.1045 -0.0500  0.0373
  326SOL     OW 1301   2.744   3.937   1.044  0.2251  0.3843 -0.1565
  326SOL    HW2 1302   2.730   3.847   1.016  1.0250  0.2487 -0.1440
  326SOL    HW3 1303   2.659   3.980   1.032 -0.5193 -0.7096  1.1438
  326SOL    MW4 1304   2.731   3.931   1.038  0.2324  0.2221  0.0167
  327SOL     OW 1305   2.723   0.901   1.373 -0.2016 -0.2611 -0.6664
  327SOL    HW2 1306   2.706   0.909   1.279 -1.0100  0.0868 -0.5023
  327SOL    HW3 1307   2.717   0.991   1.406  0.6842 -0.3047 -0.3799
  327SOL    MW4 1308   2.720   0.914   1.365 -0.1914 -0.2209 -0.6070
  328SOL     OW 1309   0.464   2.933   0.949  0.0119  0.2071 -0.5818
  328SOL    HW2 1310   0.482   3.023   0.976  0.0688 -0.1905  0.7805
  328SOL    HW3 1311   0.380   2.912   0.990 -0.5181 -0.0166 -1.7642
  328SOL    MW4 1312   0.456   2.942   0.958 -0.0505  0.1251 -0.5580
  329SOL     OW 1313   4.010   4.003   1.845 -0.1113  0.1731 -0.0772
  329SOL    HW2 1314   3.960   3.942   1.791 -1.1178 -0.0435  1.0635
  329SOL    HW3 1315   3.996   4.089   1.806 -0.0646 -0.1076 -0.7073
  329SOL    MW4 1316   4.001   4.006   1.833 -0.2379  0.1075 -0.0099
  330SOL     OW 1317   4.142   4.169   0.449 -0.4875  0.2881  0.2532
  330SOL    HW2 1318   4.188   4.087   0.433 -1.1409  0.2853 -1.8323
  330SOL    HW3 1319   4.209   4.228   0.484  0.9364  0.0162 -1.9181
  330SOL    MW4 1320   4.157   4.166   0.451 -0.3858  0.2518 -0.3085
  331SOL     OW 1321   4.101   3.483   0.519  0.7515 -0.0385  0.2740
  331SOL    HW2 1322   4.081   3.391   0.537  0.1796  0.1869  0.8332
  331SOL    HW3 1323   4.143   3.483   0.434  0.5314 -0.7961  0.1634
  331SOL    MW4 1324   4.104   3.471   0.510  0.6470 -0.1088  0.3332
  332SOL     OW 1325   4.355   1.832   0.231  0.2022 -0.0865  0.3765
  332SOL    HW2 1326   4.332   1.919   0.263 -0.4762  0.1888 -0.8356
  332SOL    HW3 1327   4.451   1.831   0.230  0.2201  0.1702  1.6575
  332SOL    MW4 1328   4.364   1.843   0.235  0.1151 -0.0163  0.3856
  333SOL     OW 1329   0.461   3.739   0.967  0.1301 -0.2752  0.0960
  333SOL    HW2 1330   0.531   3.688   1.007  0.2596  0.0872  0.3363
  333SOL    HW3 1331   0.473   3.727   0.873  1.0884  0.5344  0.1040
  333SOL    MW4 1332   0.472   3.731   0.960  0.2736 -0.1205  0.1287
  334SOL     OW 1333   3.196   1.372   0.661  0.5171  0.5307  0.5670
  334SOL    HW2 1334   3.281   1.371   0.618  1.1673  1.8170  1.7648
  334SOL    HW3 1335   3.151   1.448   0.623 -1.4615 -2.0791 -2.5394
  334SOL    MW4 1336   3.201   1.382   0.650  0.3418  0.3561  0.3152
  335SOL     OW 1337   2.488   4.096   0.727 -0.0596  0.2277 -0.0888
  335SOL    HW2 1338   2.422   4.152   0.687  1.2959  1.4748 -0.6043
  335SOL    HW3 1339   2.567   4.109   0.674  1.5218  1.2455  2.4229
  335SOL    MW4 1340   2.490   4.105   0.715  0.3279  0.5265  0.1746
  336SOL     OW 1341   0.900   1.943   0.573  0.6042  0.1415  0.3672
  336SOL    HW2 1342   0.863   1.970   0.489  0.5654  1.3531  0.7707
  336SOL    HW3 1343   0.832   1.889   0.613  1.6177 -2.6842 -1.4983
  336SOL    MW4 1344   0.886   1.939   0.567  0.7328 -0.0714  0.1743
  337SOL     OW 1345   1.728   1.201   0.458 -0.1136 -0.5259  0.1622
  337SOL    HW2 1346   1.635   1.217   0.474 -0.1179 -0.1088 -0.2509
  337SOL    HW3 1347   1.766   1.187   0.545  0.1121  3.0456  0.7085
  337SOL    MW4 1348   1.721   1.201   0.471 -0.0844  0.0004  0.1798
  338SOL     OW 1349   0.773   1.993   0.343 -0.0366 -0.3003  0.5029
  338SOL    HW2 1350   0.809   2.077   0.314  1.2751 -0.7085  0.9155
  338SOL    HW3 1351   0.679   2.010   0.356  0.3125  1.2324  1.0866
  338SOL    MW4 1352   0.765   2.006   0.341  0.1825 -0.1519  0.6343
  339SOL     OW 1353   3.495   0.574   0.737  0.1321 -0.2733 -0.8010
  339SOL    HW2 1354   3.580   0.534   0.718  0.0672 -0.8935  0.1921
  339SOL    HW3 1355   3.484   0.639   0.667  0.6287 -1.3753 -1.9408
  339SOL    MW4 1356   3.505   0.577   0.725  0.1891 -0.5005 -0.8203
  340SOL     OW 1357   0.005   4.267   1.424 -0.1779 -0.3533 -0.1085
  340SOL    HW2 1358  -0.063   4.312   1.374 -0.8012 -1.4159 -0.2380
  340SOL    HW3 1359  -0.020   4.278   1.516 -0.4020 -0.5440 -0.1462
  340SOL    MW4 1360  -0.007   4.274   1.430 -0.2897 -0.5186 -0.1306
  341SOL     OW 1361   1.812   3.208   1.092  0.2146  0.0190 -0.2832
  341SOL    HW2 1362   1.894   3.233   1.048 -0.0755 -1.1505 -1.5297
  341SOL    HW3 1363   1.743   3.240   1.034 -0.2063  0.1473  0.2863
  341SOL    MW4 1364   1.814   3.216   1.079  0.1208 -0.1184 -0.3725
  342SOL     OW 1365   0.025   4.456   1.003 -0.8566 -0.4656 -0.1951
  342SOL    HW2 1366   0.038   4.544   1.039 -0.3298 -0.7050  0.2055
  342SOL    HW3 1367  -0.068   4.439   1.015 -0.7405 -0.4269  0.7967
  342SOL    MW4 1368   0.015   4.465   1.009 -0.7718 -0.4921 -0.0114
  343SOL     OW 1369   3.984   4.275   1.452  0.0424  0.4519 -0.0042
  343SOL    HW2 1370   3.921   4.330   1.406  1.0606  1.2899 -0.4208
  343SOL    HW3 1371   3.981   4.191   1.407 -0.5439  0.5915 -0.2215
  343SOL    MW4 1372   3.975   4.271   1.440  0.0994  0.5809 -0.0878
  344SOL     OW 1373   1.501   4.097   0.749  0.3683  0.3763  0.1876
  344SOL    HW2 1374   1.543   4.143   0.677 -1.0899  0.2056 -0.7853
  344SOL    HW3 1375   1.408   4.115   0.739  0.0515 -0.4740  1.4349
  344SOL    MW4 1376   1.494   4.105   0.738  0.1341  0.2416  0.2238
  345SOL     OW 1377   0.335   1.676   0.216  0.2727 -0.0506  0.0122
  345SOL    HW2 1378   0.265   1.737   0.241  0.4742 -0.2912  1.1598
  345SOL    HW3 1379   0.291   1.610   0.163 -0.1022  0.6126 -0.5197
  345SOL    MW4 1380   0.320   1.675   0.212  0.2498  0.0052  0.0934
  346SOL     OW 1381   3.970   4.249   1.741 -0.1396 -0.2385 -0.9002
  346SOL    HW2 1382   3.962   4.246   1.646 -0.7725  1.6372 -0.9203
  346SOL    HW3 1383   4.044   4.308   1.757  0.1130 -0.7268 -0.2205
  346SOL    MW4 1384   3.979   4.256   1.731 -0.1898 -0.0554 -0.8132
  347SOL     OW 1385   3.171   2.188   0.260 -0.4962  0.4796 -0.4083
  347SOL    HW2 1386   3.261   2.167   0.285 -0.4203  0.8049 -0.4032
  347SOL    HW3 1387   3.180   2.235   0.177 -0.5253  2.1701  0.5147
  347SOL    MW4 1388   3.184   2.191   0.252 -0.4901  0.7456 -0.2858
  348SOL     OW 1389   2.494   2.042   1.078  0.0709 -0.0829 -0.0409
  348SOL    HW2 1390   2.426   2.079   1.022 -0.0547 -0.7729 -0.3490
  348SOL    HW3 1391   2.495   1.949   1.056  0.4502 -0.2463  0.6578
  348SOL    MW4 1392   2.485   2.035   1.067  0.1044 -0.1955  0.0107
  349SOL     OW 1393   0.179   2.265   0.575  0.0574 -0.4126 -0.4980
  349SOL    HW2 1394   0.241   2.309   0.633  0.4757 -1.0690 -0.4403
  349SOL    HW3 1395   0.116   2.333   0.551  0.6294  0.1855 -0.3231
  349SOL    MW4 1396   0.179   2.280   0.580  0.1881 -0.4203 -0.4673
  350SOL     OW 1397   0.210   1.006   0.992  0.0710  0.2122  0.1780
  350SOL    HW2 1398   0.201   1.100   1.010  0.6068  0.3166 -0.0618
  350SOL    HW3 1399   0.203   0.999   0.897 -0.4394 -0.0507  0.2345
  350SOL    MW4 1400   0.208   1.018   0.982  0.0743  0.1913  0.1538
  351SOL     OW 1401   2.003   1.537   0.208  0.0003 -0.1207  0.7839
  351SOL    HW2 1402   2.045   1.453   0.223 -0.5619 -0.6310 -0.4810
  351SOL    HW3 1403   2.063   1.601   0.246  1.1488 -0.9689  0.4106
  351SOL    MW4 1404   2.017   1.534   0.215  0.0777 -0.2999  0.5678
  352SOL     OW 1405   2.485   1.772   0.956 -0.3578 -0.6113 -0.6853
  352SOL    HW2 1406   2.409   1.730   0.995 -0.2150 -1.3175 -1.1771
  352SOL    HW3 1407   2.455   1.804   0.871  0.0233 -1.3216 -1.0895
  352SOL    MW4 1408   2.471   1.771   0.950 -0.2887 -0.7982 -0.8035
  353SOL     OW 1409   1.731   1.602   0.349  0.5103  0.1275  0.3809
  353SOL    HW2 1410   1.738   1.689   0.310 -0.1451 -0.0609 -0.1712
  353SOL    HW3 1411   1.765   1.543   0.282 -0.4785 -0.1828  0.1326
  353SOL    MW4 1412   1.736   1.606   0.335  0.2934  0.0617  0.2753
  354SOL     OW 1413   2.059   3.721   0.612  0.3700 -0.2583  0.4270
  354SOL    HW2 1414   2.065   3.625   0.617  1.8612 -0.3497 -2.0983
  354SOL    HW3 1415   2.149   3.751   0.625 -0.0327  0.7888  0.8501
  354SOL    MW4 1416   2.072   3.712   0.614  0.5136 -0.1322  0.1497
  355SOL     OW 1417   2.437   1.402   0.271 -0.2040 -0.1283  0.0113
  355SOL    HW2 1418   2.495   1.350   0.215  0.6933  1.1860 -0.3099
  355SOL    HW3 1419   2.492   1.427   0.346 -0.3319  1.1572 -0.3109
  355SOL    MW4 1420   2.452   1.398   0.274 -0.1025  0.2147 -0.0736
  356SOL     OW 1421   3.582   0.313   1.446 -0.0550  0.1803 -0.5193
  356SOL    HW2 1422   3.508   0.374   1.445 -0.7602 -0.6390 -2.4402
  356SOL    HW3 1423   3.654   0.362   1.405 -0.2932  0.1277 -1.0111
  356SOL    MW4 1424   3.582   0.327   1.440 -0.1795  0.0653 -0.8376
  357SOL     OW 1425   2.928   3.588   1.125  0.1575  0.2886 -0.0540
  357SOL    HW2 1426   2.928   3.499   1.091  0.7890  0.3053 -0.1058
  357SOL    HW3 1427   3.014   3.623   1.101  0.1748  0.6843  0.5567
  357SOL    MW4 1428   2.939   3.581   1.117  0.2431  0.3430  0.0197
  358SOL     OW 1429   3.830   0.229   0.664 -0.5287  0.1861 -0.5783
  358SOL    HW2 1430   3.920   0.240   0.694 -0.3651 -0.1141 -0.9590
  358SOL    HW3 1431   3.836   0.229   0.568 -0.9878  0.6173 -0.6119
  358SOL    MW4 1432   3.843   0.230   0.655 -0.5677  0.2034 -0.6329
  359SOL     OW 1433   0.212   2.327   0.158 -0.1091 -0.1409  0.1262
  359SOL    HW2 1434   0.237   2.305   0.069  0.6611 -0.0091  0.3091
  359SOL    HW3 1435   0.220   2.245   0.207  2.2374  0.4017  0.6900
  359SOL    MW4 1436   0.216   2.314   0.153  0.3021 -0.0519  0.2247
  360SOL     OW 1437   4.080   2.523   0.345  0.0946 -0.3949 -0.3277
  360SOL    HW2 1438   4.142   2.562   0.284  0.7104 -0.9863 -0.0855
  360SOL    HW3 1439   3.999   2.572   0.331  0.6072  0.3877 -0.6480
  360SOL    MW4 1440   4.078   2.535   0.335  0.2435 -0.3697 -0.3380
  361SOL     OW 1441   1.141   2.517   0.920 -0.0784 -0.1332 -0.0429
  361SOL    HW2 1442   1.070   2.466   0.958  0.4139  0.2130  1.4049
  361SOL    HW3 1443   1.217   2.495   0.974 -0.0375  2.7463  1.1707
  361SOL    MW4 1444   1.142   2.507   0.932 -0.0080  0.2924  0.3082
  362SOL     OW 1445   1.367   1.629   1.050 -0.1572  0.0404 -0.1292
  362SOL    HW2 1446   1.364   1.538   1.023  1.3023  0.0444 -0.3379
  362SOL    HW3 1447   1.297   1.671   1.000  1.3102 -0.3082 -2.5681
  362SOL    MW4 1448   1.357   1.623   1.040  0.2290 -0.0051 -0.4785
  363SOL     OW 1449   2.072   3.394   0.319  0.3857 -0.1360  0.5619
  363SOL    HW2 1450   2.039   3.310   0.288  1.0887 -0.1684 -0.1260
  363SOL    HW3 1451   2.021   3.459   0.271  0.2292 -0.1728  0.6777
  363SOL    MW4 1452   2.061   3.391   0.309  0.4578 -0.1452  0.4864
  364SOL     OW 1453   3.281   2.474   0.527 -0.2135 -0.1601  0.0962
  364SOL    HW2 1454   3.326   2.488   0.444 -0.2038 -1.0141 -0.0413
  364SOL    HW3 1455   3.302   2.384   0.551  0.5370  0.3619  1.4690
  364SOL    MW4 1456   3.290   2.464   0.519 -0.1132 -0.2039  0.2592
  365SOL     OW 1457   4.454   3.781   0.963 -0.8553  0.2945 -0.3620
  365SOL    HW2 1458   4.532   3.745   1.005 -0.8887  0.6866  0.0420
  365SOL    HW3 1459   4.460   3.753   0.872 -0.2314  0.3401 -0.3349
  365SOL    MW4 1460   4.465   3.773   0.956 -0.7774  0.3523 -0.3051
  366SOL     OW 1461   0.494   2.408   1.065  0.2147 -0.5433  0.0733
  366SOL    HW2 1462   0.487   2.324   1.020  1.0284 -0.4273 -0.2849
  366SOL    HW3 1463   0.580   2.442   1.039 -0.3501  0.6668 -0.2331
  366SOL    MW4 1464   0.505   2.401   1.056  0.2475 -0.3684 -0.0144
  367SOL     OW 1465   1.572   1.261   1.330  0.5058  0.1481 -0.0568
  367SOL    HW2 1466   1.583   1.344   1.377  0.0671  0.5302 -0.6200
  367SOL    HW3 1467   1.502   1.216   1.377 -0.6263  0.9729 -0.9545
  367SOL    MW4 1468   1.564   1.266   1.343  0.2986  0.3073 -0.2496
  368SOL     OW 1469   2.704   4.228   1.396  0.0743 -0.3033 -0.5520
  368SOL    HW2 1470   2.713   4.135   1.375  0.6039 -0.1514 -0.9933
  368SOL    HW3 1471   2.724   4.232   1.490 -0.3698 -0.6901 -0.4342
  368SOL    MW4 1472   2.708   4.216   1.406  0.0855 -0.3343 -0.5947
  369SOL     OW 1473   2.922   2.048   1.352 -0.3370  0.0089  0.2318
  369SOL    HW2 1474   2.998   2.003   1.390 -0.4256 -0.8898 -0.6476
  369SOL    HW3 1475   2.846   2.006   1.393 -0.3896  0.4174  0.5648
  369SOL    MW4 1476   2.922   2.037   1.362 -0.3556 -0.0558  0.1597
  370SOL     OW 1477   1.357   1.886   1.414 -0.1513  0.2791 -0.4963
  370SOL    HW2 1478   1.359   1.892   1.510 -1.0192  0.2510 -0.4748
  370SOL    HW3 1479   1.432   1.938   1.386  0.5966 -0.3967  0.2292
  370SOL    MW4 1480   1.367   1.894   1.423 -0.1672  0.1863 -0.3978
  371SOL     OW 1481   1.804   0.857   1.019 -0.0368  0.0942 -0.2410
  371SOL    HW2 1482   1.893   0.894   1.015 -0.1276  0.3772  0.3585
  371SOL    HW3 1483   1.812   0.771   0.976  0.2127  0.7203 -1.4631
  371SOL    MW4 1484   1.817   0.850   1.013 -0.0159  0.2142 -0.3232
  372SOL     OW 1485   4.259   3.895   1.748 -1.0857 -0.0556 -0.1128
  372SOL    HW2 1486   4.247   3.914   1.655 -0.3495  0.1804 -0.1625
  372SOL    HW3 1487   4.183   3.936   1.791 -3.0749 -2.7384 -0.8901
  372SOL    MW4 1488   4.247   3.903   1.741 -1.2511 -0.3784 -0.2219
  373SOL     OW 1489   1.581   3.558   1.015  0.0276  0.1061  0.0236
  373SOL    HW2 1490   1.594   3.557   1.110  0.3161 -0.7839 -0.0253
  373SOL    HW3 1491   1.556   3.469   0.993  0.7975  0.1028 -0.8563
  373SOL    MW4 1492   1.580   3.546   1.024  0.1673 -0.0118 -0.0989
  374SOL     OW 1493   2.259   3.968   1.075  0.4616 -0.1303  0.0763
  374SOL    HW2 1494   2.344   4.006   1.054  0.4150 -0.0693 -0.0070
  374SOL    HW3 1495   2.255   3.970   1.171 -0.8449  3.0971  0.0504
  374SOL    MW4 1496   2.269   3.974   1.085  0.2830  0.3036  0.0619
  375SOL     OW 1497   2.947   2.633   0.961 -1.0252  0.1722 -0.5056
  375SOL    HW2 1498   2.867   2.584   0.978  0.0153 -1.1888  0.4902
  375SOL    HW3 1499   2.938   2.713   1.013 -2.8234  1.2005 -2.3117
  375SOL    MW4 1500   2.935   2.637   0.970 -1.1252  0.1283 -0.6125
  376SOL     OW 1501   4.038   0.024   0.267  0.1931 -0.2485 -0.4596
  376SOL    HW2 1502   4.132   0.005   0.260  0.0979 -0.4329 -1.3994
  376SOL    HW3 1503   3.996  -0.059   0.243 -0.2140 -0.7606  1.8876
  376SOL    MW4 1504   4.045   0.010   0.263  0.1268 -0.3404 -0.2739
  377SOL     OW 1505   3.765   3.641   1.348  0.4733  0.1430  0.3430
  377SOL    HW2 1506   3.790   3.731   1.370 -2.3291  0.9361  0.6036
  377SOL    HW3 1507   3.702   3.652   1.276  0.4656 -1.6343  0.0715
  377SOL    MW4 1508   3.760   3.655   1.341  0.1026  0.0132  0.3416
  378SOL     OW 1509   1.410   0.276   0.726  0.2154 -0.2584  0.3679
  378SOL    HW2 1510   1.452   0.223   0.659  0.0548  0.8800 -0.6380
  378SOL    HW3 1511   1.318   0.280   0.699  0.0900 -0.0510  0.8165
  378SOL    MW4 1512   1.403   0.269   0.714  0.1777 -0.0808  0.2943
  379SOL     OW 1513   0.497   2.420   1.343  0.1705  0.2486 -0.7414
  379SOL    HW2 1514   0.413   2.376   1.358  0.8030 -1.0535 -0.9286
  379SOL    HW3 1515   0.514   2.407   1.250  1.1361 -0.5007 -0.4638
  379SOL    MW4 1516   0.488   2.413   1.333  0.3814 -0.0221 -0.7295
  380SOL     OW 1517   0.619   0.030   0.311  0.2059 -0.1361 -0.4531
  380SOL    HW2 1518   0.713   0.021   0.326  0.1135  0.7280  0.7204
  380SOL    HW3 1519   0.596  -0.047   0.259  1.1021 -1.6899  1.3678
  380SOL    MW4 1520   0.629   0.019   0.306  0.3119 -0.2271 -0.0580
  381SOL     OW 1521   2.936   3.457   0.742 -0.1619 -0.0696  0.2903
  381SOL    HW2 1522   3.031   3.462   0.727 -0.4158  1.0942 -0.9531
  381SOL    HW3 1523   2.902   3.412   0.665 -0.4979 -1.5058  1.2662
  381SOL    MW4 1524   2.944   3.452   0.730 -0.2397 -0.1055  0.2550
  382SOL     OW 1525   0.298   2.753   0.272  0.2165 -0.2599 -0.3665
  382SOL    HW2 1526   0.232   2.818   0.248  0.7007 -0.2570 -1.7439
  382SOL    HW3 1527   0.381   2.796   0.252  0.6417 -0.3569  1.1237
  382SOL    MW4 1528   0.300   2.767   0.266  0.3365 -0.2723 -0.3517
  383SOL     OW 1529   3.159   3.423   1.483 -0.2615  0.4851  0.3768
  383SOL    HW2 1530   3.183   3.424   1.576  0.1192  1.0366  0.2747
  383SOL    HW3 1531   3.079   3.475   1.478  0.6210  1.8420  0.1572
  383SOL    MW4 1532   3.152   3.430   1.495 -0.0948  0.7369  0.3343
  384SOL     OW 1533   1.587   0.471   1.320  0.3171 -0.2232 -0.0037
  384SOL    HW2 1534   1.510   0.441   1.367  0.4339  0.3677  0.5620
  384SOL    HW3 1535   1.657   0.413   1.350  0.3962  0.1643  0.5745
  384SOL    MW4 1536   1.586   0.459   1.330  0.3430 -0.0941  0.1472
  385SOL     OW 1537   1.117   3.610   1.294  0.2951 -0.0564 -0.6197
  385SOL    HW2 1538   1.105   3.695   1.336 -0.1793 -0.4124 -0.0348
  385SOL    HW3 1539   1.196   3.574   1.334 -0.4390 -0.6171  0.3495
  385SOL    MW4 1540   1.126   3.617   1.305  0.1357 -0.1773 -0.4147
  386SOL     OW 1541   2.664   0.743   0.500 -0.3099  0.2997  0.1136
  386SOL    HW2 1542   2.577   0.780   0.510 -0.0277  1.3708 -1.1848
  386SOL    HW3 1543   2.651   0.666   0.445 -0.4352  0.4846 -0.1174
  386SOL    MW4 1544   2.651   0.738   0.494 -0.2892  0.4654 -0.0882
  387SOL     OW 1545   0.469   4.280   1.460 -0.0139 -0.2428 -0.1802
  387SOL    HW2 1546   0.544   4.320   1.415 -0.2381  0.3329 -0.0459
  387SOL    HW3 1547   0.474   4.187   1.437 -0.0119  0.0133 -1.2172
  387SOL    MW4 1548   0.480   4.273   1.451 -0.0432 -0.1330 -0.2993
  388SOL     OW 1549   3.645   3.694   1.102 -0.7166 -0.1365 -0.5449
  388SOL    HW2 1550   3.713   3.642   1.057 -0.0030 -0.4209  0.8371
  388SOL    HW3 1551   3.672   3.785   1.089  0.9534 -0.3069  1.5551
  388SOL    MW4 1552   3.658   3.699   1.094 -0.4022 -0.1965 -0.0855
  389SOL     OW 1553   3.556   3.878   0.367 -0.1366  0.0516 -0.2694
  389SOL    HW2 1554   3.651   3.863   0.370 -0.0479  0.6758  0.1835
  389SOL    HW3 1555   3.545   3.945   0.300 -0.2189  0.2848 -0.0222
  389SOL    MW4 1556   3.567   3.885   0.359 -0.1358  0.1647 -0.1770
  390SOL     OW 1557   0.672   0.235   0.936  0.1846 -0.4817 -0.2813
  390SOL    HW2 1558   0.659   0.233   0.841 -0.8926 -0.7332 -0.1306
  390SOL    HW3 1559   0.673   0.328   0.958 -0.7019 -0.4424 -0.3904
  390SOL    MW4 1560   0.671   0.247   0.926 -0.0745 -0.5097 -0.2759
  391SOL     OW 1561   0.451   0.884   1.054  0.2163 -0.2447 -0.1598
  391SOL    HW2 1562   0.370   0.928   1.031  0.4776 -0.4174 -1.4785
  391SOL    HW3 1563   0.448   0.801   1.006  1.0019 -0.4096  0.0591
  391SOL    MW4 1564   0.440   0.879   1.045  0.3544 -0.2892 -0.3049
  392SOL     OW 1565   2.692   4.491   0.941 -0.1941  0.0098  0.5126
  392SOL    HW2 1566   2.615   4.444   0.972 -0.0993 -1.9467 -2.0135
  392SOL    HW3 1567   2.765   4.449   0.986 -0.4909  1.0876  2.0231
  392SOL    MW4 1568   2.692   4.479   0.951 -0.2208 -0.1061  0.3786
  393SOL     OW 1569   1.726   1.972   0.585  0.0903 -0.5682 -0.2351
  393SOL    HW2 1570   1.747   2.057   0.623  0.4479 -0.3854 -0.8323
  393SOL    HW3 1571   1.778   1.909   0.636  0.1675 -0.3848 -0.0863
  393SOL    MW4 1572   1.736   1.975   0.597  0.1477 -0.5199 -0.2943
  394SOL     OW 1573   1.126   2.276   1.434 -0.2165  0.3167 -0.0795
  394SOL    HW2 1574   1.209   2.317   1.412 -0.6840  0.2732 -2.0260
  394SOL    HW3 1575   1.127   2.192   1.388 -1.0243 -0.0128  0.4783
  394SOL    MW4 1576   1.137   2.270   1.425 -0.3848  0.2675 -0.2627
  395SOL     OW 1577   0.696   4.541   0.830 -0.1033  0.4329 -0.5276
  395SOL    HW2 1578   0.723   4.609   0.769 -0.8872 -0.4447 -1.8818
  395SOL    HW3 1579   0.607   4.564   0.854  0.4821  1.2170  0.9318
  395SOL    MW4 1580   0.688   4.553   0.825 -0.1295  0.4205 -0.5137
  396SOL     OW 1581   1.252   3.746   0.274 -0.3243 -0.3605  0.4352
  396SOL    HW2 1582   1.175   3.799   0.294 -0.6122  0.5369 -2.7568
  396SOL    HW3 1583   1.326   3.806   0.285 -0.3913 -0.1828 -0.0666
  396SOL    MW4 1584   1.251   3.761   0.278 -0.3712 -0.2187 -0.0521
  397SOL     OW 1585   2.751   3.075   0.687  0.1459  0.4729 -0.4897
  397SOL    HW2 1586   2.828   3.027   0.657  1.9321  1.7385  1.9128
  397SOL    HW3 1587   2.724   3.031   0.768 -0.8146  0.8740 -0.5761
  397SOL    MW4 1588   2.758   3.063   0.694  0.2549  0.6928 -0.1841
  398SOL     OW 1589   3.000   3.926   0.116  0.0585  0.1821 -0.1388
  398SOL    HW2 1590   3.047   3.913   0.034 -0.7220 -0.4519 -0.4925
  398SOL    HW3 1591   3.005   3.842   0.161 -0.3990  0.2231 -0.0034
  398SOL    MW4 1592   3.007   3.913   0.111 -0.1048  0.1039 -0.1676
  399SOL     OW 1593   3.154   0.616   0.944 -0.1009 -0.1907 -0.2627
  399SOL    HW2 1594   3.206   0.592   1.020 -0.2484  0.2396 -0.0239
  399SOL    HW3 1595   3.125   0.705   0.962 -0.7772 -0.3640 -0.4700
  399SOL    MW4 1596   3.157   0.624   0.956 -0.2096 -0.1568 -0.2586
  400SOL     OW 1597   3.844   4.135   0.200 -0.0659 -0.3580  0.4625
  400SOL    HW2 1598   3.895   4.055   0.187  0.1805 -0.1297  0.0299
  400SOL    HW3 1599   3.871   4.168   0.286 -0.3216 -0.8497  0.7373
  400SOL    MW4 1600   3.854   4.128   0.210 -0.0672 -0.3928  0.4417
  401SOL     OW 1601   2.944   2.230   0.607 -0.2000  0.5155  0.8872
  401SOL    HW2 1602   2.863   2.231   0.657 -0.2703 -0.1104  0.7921
  401SOL    HW3 1603   2.924   2.178   0.529  0.4650 -0.1423  1.1519
  401SOL    MW4 1604   2.931   2.223   0.603 -0.1216  0.3462  0.9096
  402SOL     OW 1605   0.525   2.799   0.702  0.3448  0.1281  0.3841
  402SOL    HW2 1606   0.598   2.743   0.727  0.9732  1.2295  1.0372
  402SOL    HW3 1607   0.498   2.842   0.783  0.0902  1.0180 -0.1538
  402SOL    MW4 1608   0.531   2.798   0.716  0.3941  0.3909  0.3993
  403SOL     OW 1609   1.800   0.876   1.302 -0.4823 -0.2083  0.2881
  403SOL    HW2 1610   1.802   0.875   1.206  0.6459 -0.0697  0.2960
  403SOL    HW3 1611   1.784   0.967   1.325 -2.1340 -0.4666  0.2335
  403SOL    MW4 1612   1.798   0.888   1.293 -0.5514 -0.2241  0.2820
  404SOL     OW 1613   2.483   3.082   0.594  0.0976  0.2036  0.0680
  404SOL    HW2 1614   2.573   3.063   0.620  0.0905  0.2673  0.1425
  404SOL    HW3 1615   2.431   3.014   0.637  0.1484 -0.0443 -0.2704
  404SOL    MW4 1616   2.488   3.071   0.603  0.1034  0.1793  0.0332
  405SOL     OW 1617   1.466   1.446   0.194  0.2189 -0.4075  0.6608
  405SOL    HW2 1618   1.557   1.467   0.176  0.1677 -1.1235 -0.4985
  405SOL    HW3 1619   1.425   1.529   0.217  0.8773  0.1063 -0.0454
  405SOL    MW4 1620   1.473   1.460   0.195  0.2990 -0.4342  0.4146
  406SOL     OW 1621   0.647   2.020   1.052 -0.1378  0.0662  0.2079
  406SOL    HW2 1622   0.728   2.054   1.013  0.6259 -0.1323  1.5856
  406SOL    HW3 1623   0.657   1.925   1.049 -0.0593  0.0523  0.9259
  406SOL    MW4 1624   0.659   2.012   1.046 -0.0267  0.0382  0.4844
  407SOL     OW 1625   4.457   0.869   1.051 -0.1848  0.1822 -0.7239
  407SOL    HW2 1626   4.539   0.913   1.028  0.0858  0.1656  0.1969
  407SOL    HW3 1627   4.453   0.876   1.147 -0.1002 -1.8858 -0.5631
  407SOL    MW4 1628   4.467   0.876   1.061 -0.1379 -0.0929 -0.5812
  408SOL     OW 1629   0.454   1.167   1.454 -0.0550 -0.3121  0.0621
  408SOL    HW2 1630   0.417   1.091   1.410 -0.7683  0.6431 -1.0396
  408SOL    HW3 1631   0.382   1.231   1.455  0.4222  0.2180  1.2756
  408SOL    MW4 1632   0.440   1.166   1.448 -0.0862 -0.1161  0.0768
  409SOL     OW 1633   2.747   3.991   0.276 -0.1239  0.2852 -0.0815
  409SOL    HW2 1634   2.822   3.971   0.220  0.1867 -0.0126  0.4283
  409SOL    HW3 1635   2.768   3.947   0.359 -0.2107  1.3525  0.5166
  409SOL    MW4 1636   2.760   3.982   0.280 -0.0944  0.3868  0.0647
  410SOL     OW 1637   3.333   3.160   0.171 -0.4787  0.6103 -0.6361
  410SOL    HW2 1638   3.391   3.235   0.157 -0.0467  0.3339 -0.3653
  410SOL    HW3 1639   3.272   3.190   0.239 -1.5478  1.3830 -1.9106
  410SOL    MW4 1640   3.333   3.174   0.178 -0.5628  0.6758 -0.7685
  411SOL     OW 1641   1.194   3.440   0.640 -0.3700 -0.0567 -0.9593
  411SOL    HW2 1642   1.102   3.456   0.619 -0.3127 -0.3992 -1.4805
  411SOL    HW3 1643   1.226   3.524   0.673 -0.3799  0.5986 -2.5484
  411SOL    MW4 1644   1.187   3.453   0.641 -0.3638 -0.0154 -1.2377
  412SOL     OW 1645   4.041   0.125   1.085  0.4554  0.0308  0.5097
  412SOL    HW2 1646   4.040   0.102   1.178 -1.3331  2.2110  1.0857
  412SOL    HW3 1647   4.048   0.041   1.039  0.2631 -1.1569  2.5892
  412SOL    MW4 1648   4.041   0.111   1.091  0.1940  0.1617  0.8601
  413SOL     OW 1649   3.160   4.283   1.477 -0.0665 -0.0938 -0.5407
  413SOL    HW2 1650   3.075   4.310   1.441 -1.2862 -1.9650  0.8388
  413SOL    HW3 1651   3.173   4.194   1.444  0.9780 -0.1332 -0.0567
  413SOL    MW4 1652   3.151   4.275   1.468 -0.0896 -0.3459 -0.2948
  414SOL     OW 1653   3.885   0.246   0.400  0.3469 -0.3049 -0.0541
  414SOL    HW2 1654   3.817   0.250   0.333 -1.8269 -1.1788  1.9863
  414SOL    HW3 1655   3.941   0.173   0.374 -0.8877 -1.0880 -0.5517
  414SOL    MW4 1656   3.883   0.237   0.388 -0.1028 -0.5236  0.1494
  415SOL     OW 1657   1.689   2.724   0.263  0.0683 -0.6066  0.4681
  415SOL    HW2 1658   1.712   2.736   0.355 -1.3834 -0.4793  0.8324
  415SOL    HW3 1659   1.750   2.780   0.215  0.2568  0.0134  1.4229
  415SOL    MW4 1660   1.700   2.733   0.268 -0.0984 -0.5080  0.6421
  416SOL     OW 1661   4.193   1.038   0.292  0.1887  0.5599 -0.5183
  416SOL    HW2 1662   4.201   1.128   0.260  0.0134  0.8824  0.3142
  416SOL    HW3 1663   4.281   1.015   0.323  0.6283 -0.1633 -2.2673
  416SOL    MW4 1664   4.206   1.047   0.292  0.2236  0.5070 -0.6392
  417SOL     OW 1665   2.687   1.194   0.623 -0.1993 -0.8313  0.2340
  417SOL    HW2 1666   2.711   1.205   0.531 -1.8326 -0.1621 -0.1268
  417SOL    HW3 1667   2.752   1.132   0.658  1.9513  0.8384 -0.7134
  417SOL    MW4 1668   2.699   1.187   0.616 -0.1310 -0.5227  0.0614
  418SOL     OW 1669   1.105   3.046   0.133 -0.2403  0.0006 -0.4634
  418SOL    HW2 1670   1.187   3.041   0.183 -0.2894  0.3005 -0.3551
  418SOL    HW3 1671   1.118   3.119   0.073 -0.4905  0.1533 -0.3325
  418SOL    MW4 1672   1.118   3.055   0.132 -0.2798  0.0603 -0.4319
  419SOL     OW 1673   3.575   1.169   1.435  0.1005  0.1256  0.3252
  419SOL    HW2 1674   3.548   1.078   1.424 -0.7026  0.4960 -0.9346
  419SOL    HW3 1675   3.508   1.219   1.388  0.5456  1.3603  0.9932
  419SOL    MW4 1676   3.562   1.164   1.427  0.0532  0.3374  0.2471
  420SOL     OW 1677   2.497   2.147   0.214 -0.1138  0.1783  0.0613
  420SOL    HW2 1678   2.566   2.203   0.250 -1.1603  1.4947  0.0536
  420SOL    HW3 1679   2.417   2.199   0.222 -1.1363 -1.3817  0.1868
  420SOL    MW4 1680   2.495   2.162   0.220 -0.3868  0.1462  0.0768
  421SOL     OW 1681   1.133   4.641   1.449  0.2482 -0.3086 -0.0674
  421SOL    HW2 1682   1.210   4.696   1.430 -0.5355  0.6113 -0.6536
  421SOL    HW3 1683   1.116   4.656   1.542 -1.5521  2.5859 -0.7813
  421SOL    MW4 1684   1.141   4.651   1.459 -0.0927  0.1947 -0.2389
  422SOL     OW 1685   4.237   0.750   1.443 -0.6658 -0.7010 -0.1052
  422SOL    HW2 1686   4.167   0.800   1.401  1.0121 -0.0189 -2.1245
  422SOL    HW3 1687   4.239   0.667   1.394 -0.1304 -0.7617  0.0253
  422SOL    MW4 1688   4.228   0.745   1.431 -0.3738 -0.6190 -0.3544
  423SOL     OW 1689   2.707   4.466   0.659 -0.0556 -0.1355 -0.1796
  423SOL    HW2 1690   2.619   4.496   0.637 -0.1050  0.2490  0.5440
  423SOL    HW3 1691   2.707   4.458   0.754  0.5627 -0.5382 -0.2079
  423SOL    MW4 1692   2.696   4.469   0.669  0.0194 -0.1379 -0.0879
  424SOL     OW 1693   2.020   2.045   1.360  0.0877  0.1282  0.1428
  424SOL    HW2 1694   2.032   2.139   1.371  1.3640  0.0735 -0.5986
  424SOL    HW3 1695   2.105   2.007   1.386  0.5526 -0.5712 -2.2489
  424SOL    MW4 1696   2.033   2.052   1.365  0.3175  0.0287 -0.2706
  425SOL     OW 1697   3.179   2.440   1.050 -0.2678 -0.3883  0.1527
  425SOL    HW2 1698   3.102   2.491   1.023 -0.6968 -1.2502 -0.2616
  425SOL    HW3 1699   3.253   2.492   1.019 -0.6931  0.0672 -0.1268
  425SOL    MW4 1700   3.178   2.454   1.043 -0.3805 -0.4419  0.0611
  426SOL     OW 1701   1.347   4.006   1.106  0.1056  0.2627 -0.4085
  426SOL    HW2 1702   1.340   3.925   1.054  0.2679 -0.9686  1.4546
  426SOL    HW3 1703   1.432   4.043   1.082 -0.2501  0.2593 -1.7595
  426SOL    MW4 1704   1.357   4.000   1.096  0.0801  0.0998 -0.3409
  427SOL     OW 1705   3.877   2.606   0.898 -0.1021  0.1517 -0.5263
  427SOL    HW2 1706   3.933   2.555   0.957 -1.8162 -0.0217  0.9847
  427SOL    HW3 1707   3.875   2.694   0.937  0.0458  0.4632 -1.2141
  427SOL    MW4 1708   3.884   2.611   0.911 -0.3087  0.1699 -0.4177
  428SOL     OW 1709   0.899   2.102   0.954 -0.1411  0.3147 -0.4856
  428SOL    HW2 1710   0.885   2.133   0.864 -0.3676  0.2143 -0.4839
  428SOL    HW3 1711   0.904   2.182   1.006  0.6444  0.4037 -0.6797
  428SOL    MW4 1712   0.898   2.117   0.949 -0.0674  0.3132 -0.5110
  429SOL     OW 1713   3.504   0.765   0.531  0.3818  0.7155  0.1013
  429SOL    HW2 1714   3.544   0.848   0.558 -0.3119  0.8692  0.6673
  429SOL    HW3 1715   3.558   0.736   0.457  1.4863  0.9650  0.7911
  429SOL    MW4 1716   3.517   0.772   0.525  0.4360  0.7687  0.2670
  430SOL     OW 1717   0.438   1.686   1.357  0.1279 -0.1865  0.2719
  430SOL    HW2 1718   0.430   1.773   1.397 -1.3638 -0.1825 -0.0007
  430SOL    HW3 1719   0.353   1.645   1.372  1.1591 -2.0157  1.3177
  430SOL    MW4 1720   0.426   1.692   1.364  0.0671 -0.4273  0.3739
  431SOL     OW 1721   3.789   0.715   1.423  0.1780 -0.1657 -0.0428
  431SOL    HW2 1722   3.870   0.763   1.403  1.7080 -2.1171  1.3061
  431SOL    HW3 1723   3.794   0.699   1.517 -1.8909 -0.1757  0.0888
  431SOL    MW4 1724   3.801   0.719   1.433  0.1069 -0.4245  0.1525
  432SOL     OW 1725   2.071   2.037   1.080  0.0538 -0.1582  0.1976
  432SOL    HW2 1726   2.073   2.034   1.175 -0.4328 -0.8063  0.1883
  432SOL    HW3 1727   2.139   2.100   1.056 -0.8504  1.1608  1.0349
  432SOL    MW4 1728   2.080   2.045   1.089 -0.1297 -0.0697  0.3068
  433SOL     OW 1729   1.600   4.103   1.015  0.2024 -0.0172 -0.2399
  433SOL    HW2 1730   1.573   4.094   0.924 -0.5715 -0.3837  0.0184
  433SOL    HW3 1731   1.687   4.062   1.019 -0.5878 -1.7557 -0.4104
  433SOL    MW4 1732   1.608   4.096   1.004 -0.0040 -0.2949 -0.2283
  434SOL     OW 1733   0.539   0.901   0.348 -0.2475 -0.8687 -0.2850
  434SOL    HW2 1734   0.486   0.824   0.326 -0.5732 -0.8456  0.3953
  434SOL    HW3 1735   0.480   0.975   0.337  0.1971 -0.6768 -1.3726
  434SOL    MW4 1736   0.524   0.900   0.344 -0.2318 -0.8403 -0.3387
  435SOL     OW 1737   0.926   2.205   0.693 -0.5810  0.3078 -0.2681
  435SOL    HW2 1738   0.856   2.259   0.656 -0.9643  0.1034  0.1391
  435SOL    HW3 1739   0.922   2.123   0.643 -1.7791 -0.3676  0.8688
  435SOL    MW4 1740   0.916   2.201   0.682 -0.7896  0.1917 -0.0644
  436SOL     OW 1741   1.398   2.165   0.931  0.0507 -0.0425  0.2472
  436SOL    HW2 1742   1.397   2.186   0.838  1.7753  0.8934  0.4114
  436SOL    HW3 1743   1.313   2.125   0.948 -0.9045  1.2466 -1.3931
  436SOL    MW4 1744   1.387   2.163   0.921  0.1522  0.2511  0.0525
  437SOL     OW 1745   3.077   1.382   0.287 -0.3371 -0.3691 -0.2621
  437SOL    HW2 1746   3.009   1.396   0.221 -1.0896 -0.2843  0.5131
  437SOL    HW3 1747   3.029   1.348   0.363  0.4717 -0.1602  0.3421
  437SOL    MW4 1748   3.061   1.379   0.289 -0.3297 -0.3304 -0.0801
  438SOL     OW 1749   3.896   4.432   0.179 -0.1299 -0.1182  0.1545
  438SOL    HW2 1750   3.821   4.488   0.201 -0.1938 -0.5866  1.1744
  438SOL    HW3 1751   3.858   4.345   0.165 -0.0141  0.0624 -1.2842
  438SOL    MW4 1752   3.881   4.428   0.180 -0.1231 -0.1562  0.0993
  439SOL     OW 1753   3.789   4.404   1.298 -0.3370 -0.1722  0.0696
  439SOL    HW2 1754   3.811   4.481   1.350  0.3139 -1.2948  1.4756
  439SOL    HW3 1755   3.815   4.428   1.209  0.6942  0.8959  0.6418
  439SOL    MW4 1756   3.795   4.418   1.293 -0.1151 -0.1794  0.3306
  440SOL     OW 1757   4.463   0.615   0.654  0.1552  0.5779  0.2299
  440SOL    HW2 1758   4.400   0.552   0.618  0.2462  1.9774 -2.4850
  440SOL    HW3 1759   4.548   0.582   0.627  0.2644  1.3052 -0.3327
  440SOL    MW4 1760   4.466   0.602   0.646  0.1816  0.8585 -0.2025
  441SOL     OW 1761   0.700   0.538   0.531 -0.4369 -0.3028  0.2184
  441SOL    HW2 1762   0.708   0.452   0.571 -2.1032  0.1030  1.4800
  441SOL    HW3 1763   0.674   0.520   0.441 -1.6042 -1.1203  0.7027
  441SOL    MW4 1764   0.698   0.524   0.524 -0.8107 -0.3571  0.4488
  442SOL     OW 1765   2.651   1.276   0.137 -0.2039 -0.3343 -0.7411
  442SOL    HW2 1766   2.668   1.183   0.122  0.9408 -0.1683 -0.5558
  442SOL    HW3 1767   2.725   1.321   0.096 -0.2723  0.4392 -0.0429
  442SOL    MW4 1768   2.663   1.269   0.130 -0.0619 -0.2103 -0.6246
  443SOL     OW 1769   3.833   1.311   1.081 -0.4404  0.0357 -0.2551
  443SOL    HW2 1770   3.768   1.370   1.041  0.6399  0.2521 -1.7267
  443SOL    HW3 1771   3.918   1.346   1.053  0.3970  0.5361  2.7087
  443SOL    MW4 1772   3.836   1.324   1.072 -0.1873  0.1303 -0.0582
  444SOL     OW 1773   2.410   0.857   0.511 -0.0426 -0.0128  0.5353
  444SOL    HW2 1774   2.333   0.806   0.537  0.5146 -0.7174  0.8363
  444SOL    HW3 1775   2.409   0.934   0.568 -1.0600  0.4734 -0.1294
  444SOL    MW4 1776   2.400   0.860   0.522 -0.1033 -0.0416  0.4873
  445SOL     OW 1777   3.577   3.985   1.358  0.3889 -0.1780  0.2798
  445SOL    HW2 1778   3.606   3.987   1.266  1.6451  0.3494  0.6727
  445SOL    HW3 1779   3.568   4.078   1.382  0.4175 -0.3090  0.7972
  445SOL    MW4 1780   3.580   3.998   1.349  0.5584 -0.1257  0.3999
  446SOL     OW 1781   4.244   1.812   0.648  0.1825  0.3085  0.5585
  446SOL    HW2 1782   4.328   1.782   0.614  0.4586  1.2910  0.3558
  446SOL    HW3 1783   4.184   1.741   0.630  0.6979  0.1237 -0.4461
  446SOL    MW4 1784   4.247   1.799   0.641  0.2870  0.4138  0.3992
  447SOL     OW 1785   2.836   3.833   0.484  0.3472  0.6107 -0.2654
  447SOL    HW2 1786   2.879   3.778   0.419 -1.8035  0.1556 -1.3473
  447SOL    HW3 1787   2.817   3.773   0.557  1.3499  0.7659  0.1244
  447SOL    MW4 1788   2.839   3.817   0.485  0.1957  0.5711 -0.3567
  448SOL     OW 1789   2.210   4.483   0.722 -0.0796  0.0406 -0.3158
  448SOL    HW2 1790   2.281   4.517   0.668 -0.4773 -1.0050 -1.4987
  448SOL    HW3 1791   2.131   4.501   0.672 -0.4806 -0.6060  0.0801
  448SOL    MW4 1792   2.209   4.490   0.709 -0.1850 -0.1827 -0.4196
  449SOL     OW 1793   3.592   0.049   1.382 -0.0880 -0.0401 -0.0536
  449SOL    HW2 1794   3.600   0.141   1.408  1.1922  0.3734 -1.8636
  449SOL    HW3 1795   3.512   0.019   1.427 -0.2758  1.8085  0.9131
  449SOL    MW4 1796   3.582   0.058   1.392  0.0561  0.2583 -0.1649
  450SOL     OW 1797   2.499   3.566   1.351 -0.2556 -0.1059 -0.7150
  450SOL    HW2 1798   2.494   3.660   1.369  2.6776 -0.3119  1.7131
  450SOL    HW3 1799   2.431   3.527   1.407  0.2786  0.3834  0.2925
  450SOL    MW4 1800   2.490   3.573   1.361  0.2019 -0.0685 -0.2617
  451SOL     OW 1801   4.240   1.253   1.092  0.5317  0.2102  0.3311
  451SOL    HW2 1802   4.239   1.260   1.187  0.3164  1.4650  0.2465
  451SOL    HW3 1803   4.310   1.312   1.064 -0.1426  0.7064 -0.3383
  451SOL    MW4 1804   4.249   1.262   1.101  0.4144  0.4412  0.2316
  452SOL     OW 1805   1.478   1.039   0.187 -0.0412  0.3598 -1.0071
  452SOL    HW2 1806   1.419   1.091   0.132  0.0800 -0.2593 -1.7469
  452SOL    HW3 1807   1.565   1.074   0.168 -0.0531  0.5102 -0.7881
  452SOL    MW4 1808   1.482   1.050   0.177 -0.0268  0.2979 -1.0758
  453SOL     OW 1809   3.099   4.093   0.324  0.2175  0.5064 -0.3109
  453SOL    HW2 1810   3.063   4.051   0.246 -0.3886 -1.4729  0.9784
  453SOL    HW3 1811   3.034   4.158   0.350 -0.0992  0.3872 -0.8055
  453SOL    MW4 1812   3.086   4.096   0.317  0.0958  0.2295 -0.2061
  454SOL     OW 1813   2.272   0.938   1.383 -0.0027  0.4583  0.2985
  454SOL    HW2 1814   2.348   0.894   1.422 -0.4265  0.6853  1.3844
  454SOL    HW3 1815   2.280   0.920   1.289  1.4221  0.5279  0.4012
  454SOL    MW4 1816   2.283   0.930   1.376  0.1293  0.4974  0.4554
  455SOL     OW 1817   1.804   1.935   1.476 -0.3156  0.0217  1.0892
  455SOL    HW2 1818   1.810   1.850   1.433 -1.0369  0.7679 -0.5795
  455SOL    HW3 1819   1.879   1.984   1.442 -0.1837  0.2103  1.6548
  455SOL    MW4 1820   1.814   1.930   1.466 -0.3934  0.1451  0.9437
  456SOL     OW 1821   1.559   2.772   1.338 -0.2735 -0.0609 -0.0723
  456SOL    HW2 1822   1.546   2.861   1.370 -0.6239 -0.5646  1.1801
  456SOL    HW3 1823   1.578   2.783   1.245  1.3258  1.4401  0.4110
  456SOL    MW4 1824   1.559   2.785   1.330 -0.1087  0.0706  0.1567
  457SOL     OW 1825   1.381   1.866   1.699 -0.0382  0.1027 -0.6227
  457SOL    HW2 1826   1.331   1.932   1.747  0.7584 -0.7576  1.4170
  457SOL    HW3 1827   1.354   1.782   1.736 -0.4858 -0.7101 -2.6741
  457SOL    MW4 1828   1.371   1.863   1.710  0.0078 -0.1181 -0.6243
  458SOL     OW 1829   1.979   3.619   0.194 -0.1157 -0.2213  0.5243
  458SOL    HW2 1830   2.015   3.690   0.246 -1.3878 -0.5640  1.8872
  458SOL    HW3 1831   1.886   3.639   0.187 -0.2503 -1.0618 -0.2003
  458SOL    MW4 1832   1.971   3.631   0.200 -0.3013 -0.3774  0.6085
  459SOL     OW 1833   3.827   3.582   0.915  0.1295 -0.3289  0.0539
  459SOL    HW2 1834   3.796   3.492   0.903  1.4129 -0.6197 -1.2375
  459SOL    HW3 1835   3.792   3.630   0.841 -0.6233  0.2746  0.7867
  459SOL    MW4 1836   3.818   3.576   0.904  0.1995 -0.2877 -0.0198
  460SOL     OW 1837   2.751   0.691   0.931  0.4423 -0.3157  0.0217
  460SOL    HW2 1838   2.825   0.706   0.872  0.8677  2.0173  1.0840
  460SOL    HW3 1839   2.784   0.631   0.997  0.5336 -1.4376 -1.0148
  460SOL    MW4 1840   2.765   0.685   0.932  0.5105 -0.1559  0.0251
  461SOL     OW 1841   2.012   0.478   1.340 -0.3109 -0.2828  0.1316
  461SOL    HW2 1842   2.017   0.572   1.353 -0.6268 -0.1446 -0.7124
  461SOL    HW3 1843   2.095   0.444   1.375 -0.0047  0.3506  0.0208
  461SOL    MW4 1844   2.023   0.486   1.346 -0.3122 -0.1810  0.0057
  462SOL     OW 1845   0.755   2.784   0.316  0.2694  0.3924  0.0031
  462SOL    HW2 1846   0.819   2.807   0.248  0.9758 -0.4204  0.3899
  462SOL    HW3 1847   0.806   2.780   0.397 -0.3527  0.1641  0.3885
  462SOL    MW4 1848   0.770   2.787   0.317  0.2805  0.2551  0.1050
  463SOL     OW 1849   3.144   3.981   1.104  0.3069 -0.3052  0.1997
  463SOL    HW2 1850   3.075   4.014   1.047  1.8566  1.5375 -0.6487
  463SOL    HW3 1851   3.121   4.014   1.192  0.2311  0.4930 -0.1163
  463SOL    MW4 1852   3.132   3.990   1.108  0.5014  0.0432  0.0460
  464SOL     OW 1853   3.141   2.043   0.701 -0.5145 -0.2366  1.0381
  464SOL    HW2 1854   3.078   2.105   0.665  0.3938  0.4539  0.6304
  464SOL    HW3 1855   3.174   2.084   0.780  0.9171  0.3176  0.1713
  464SOL    MW4 1856   3.137   2.056   0.706 -0.2058 -0.0724  0.8699
  465SOL     OW 1857   1.673   3.399   0.260 -0.0938  0.5771  0.2380
  465SOL    HW2 1858   1.668   3.490   0.232 -0.2747  1.0237  1.6886
  465SOL    HW3 1859   1.589   3.361   0.233 -0.1363  0.9095 -0.0990
  465SOL    MW4 1860   1.661   3.406   0.253 -0.1232  0.6798  0.3849
  466SOL     OW 1861   0.301   4.481   0.414 -0.3329 -0.1267  0.4847
  466SOL    HW2 1862   0.219   4.509   0.373 -1.1245 -0.2319  1.9469
  466SOL    HW3 1863   0.306   4.533   0.494  0.8391 -0.4016  0.5921
  466SOL    MW4 1864   0.291   4.492   0.419 -0.2827 -0.1769  0.6918
  467SOL     OW 1865   3.580   1.713   1.291 -0.1648  0.3578  0.1489
  467SOL    HW2 1866   3.644   1.652   1.329  0.0197 -0.4082 -1.3302
  467SOL    HW3 1867   3.495   1.679   1.318 -0.0496 -0.3899 -0.4154
  467SOL    MW4 1868   3.577   1.700   1.299 -0.1253  0.1581 -0.1207
  468SOL     OW 1869   1.583   3.290   0.947 -0.3865  0.6216  0.3301
  468SOL    HW2 1870   1.514   3.249   0.999 -0.1170 -0.1245  0.0990
  468SOL    HW3 1871   1.561   3.269   0.856  0.5670 -0.2725  0.2996
  468SOL    MW4 1872   1.571   3.282   0.942 -0.2252  0.4052  0.2956
  469SOL     OW 1873   2.506   3.053   1.457  0.1988 -0.0976  0.2961
  469SOL    HW2 1874   2.430   3.109   1.445 -0.2923 -0.3577  2.0869
  469SOL    HW3 1875   2.482   2.970   1.417 -0.7341 -0.3922  1.4442
  469SOL    MW4 1876   2.493   3.050   1.450  0.0110 -0.1708  0.6839
  470SOL     OW 1877   3.356   2.194   0.573  0.6136 -0.0450 -0.1623
  470SOL    HW2 1878   3.434   2.202   0.628 -0.3379  0.5393  1.1018
  470SOL    HW3 1879   3.304   2.125   0.614 -0.0579  0.3309 -0.3733
  470SOL    MW4 1880   3.360   2.186   0.585  0.3995  0.0817 -0.0234
  471SOL     OW 1881   3.870   0.968   0.686 -0.5399 -0.5174 -0.0720
  471SOL    HW2 1882   3.896   0.876   0.692  0.5360 -0.2138  0.0562
  471SOL    HW3 1883   3.857   0.996   0.776 -0.1037 -0.3354 -0.0638
  471SOL    MW4 1884   3.872   0.960   0.698 -0.3404 -0.4534 -0.0540
  472SOL     OW 1885   3.835   3.882   1.429 -0.4203  0.2856  0.3766
  472SOL    HW2 1886   3.756   3.926   1.398 -1.3985 -2.3093 -1.0001
  472SOL    HW3 1887   3.907   3.929   1.387 -1.3523  1.2476 -0.1668
  472SOL    MW4 1888   3.834   3.894   1.419 -0.6723  0.0701  0.1233
  473SOL     OW 1889   0.716   2.502   0.310  0.2917  0.5093 -0.7123
  473SOL    HW2 1890   0.743   2.591   0.329  0.0143  0.6794 -1.0961
  473SOL    HW3 1891   0.624   2.510   0.284 -0.2123 -0.0799  0.7900
  473SOL    MW4 1892   0.707   2.515   0.309  0.1886  0.4540 -0.5648
  474SOL     OW 1893   3.379   2.316   1.396 -0.1199  0.5964  0.1741
  474SOL    HW2 1894   3.294   2.348   1.369  0.5652  1.8638 -0.5166
  474SOL    HW3 1895   3.441   2.380   1.361  1.1627 -0.6945  0.0440
  474SOL    MW4 1896   3.376   2.329   1.388  0.1397  0.5933  0.0659
  475SOL     OW 1897   2.959   1.303   1.083 -0.2988 -0.1948 -0.0189
  475SOL    HW2 1898   3.014   1.321   1.007  1.1655  0.8144  1.2668
  475SOL    HW3 1899   2.932   1.211   1.071  0.8081 -0.3797 -1.1793
  475SOL    MW4 1900   2.963   1.293   1.071  0.0405 -0.0860 -0.0024
  476SOL     OW 1901   1.124   1.523   1.439  0.5751 -0.5964 -0.4137
  476SOL    HW2 1902   1.052   1.556   1.385  1.0982  0.3678 -0.5358
  476SOL    HW3 1903   1.203   1.556   1.396  1.0948 -1.5741 -0.2339
  476SOL    MW4 1904   1.125   1.532   1.426  0.7127 -0.5982 -0.4061
  477SOL     OW 1905   3.902   2.109   0.464 -0.1452 -0.3439  0.1122
  477SOL    HW2 1906   3.829   2.067   0.510 -0.3516  0.9290  0.9990
  477SOL    HW3 1907   3.967   2.125   0.533  2.2430 -4.0620 -1.1464
  477SOL    MW4 1908   3.901   2.106   0.479  0.1427 -0.6665  0.0632
  478SOL     OW 1909   1.750   0.810   0.276  0.4231 -0.0520 -0.0785
  478SOL    HW2 1910   1.768   0.716   0.268  0.3449 -0.0472 -0.3306
  478SOL    HW3 1911   1.654   0.817   0.270  0.3701 -0.0327  0.7742
  478SOL    MW4 1912   1.740   0.799   0.274  0.4058 -0.0488  0.0007
  479SOL     OW 1913   3.173   2.186   0.912  0.3153 -0.5124 -0.5090
  479SOL    HW2 1914   3.095   2.167   0.963 -0.0357 -1.0918 -1.2496
  479SOL    HW3 1915   3.193   2.278   0.930 -0.0594 -0.5925  0.3123
  479SOL    MW4 1916   3.166   2.195   0.921  0.2196 -0.5994 -0.4984
  480SOL     OW 1917   0.614   1.619   0.166  0.3599  0.2261  0.1776
  480SOL    HW2 1918   0.599   1.542   0.110  2.6197 -0.4072  0.4096
  480SOL    HW3 1919   0.527   1.657   0.177 -0.7278 -1.9912 -0.4002
  480SOL    MW4 1920   0.600   1.614   0.160  0.5145 -0.1500  0.1320
  481SOL     OW 1921   0.036   4.027   1.071 -0.6816 -0.0490  0.2825
  481SOL    HW2 1922   0.013   3.940   1.038  1.0007 -0.1512 -0.6510
  481SOL    HW3 1923   0.026   4.019   1.166 -1.4983 -0.9701  0.1278
  481SOL    MW4 1924   0.031   4.014   1.079 -0.5674 -0.1840  0.1389
  482SOL     OW 1925   0.151   1.017   0.152  0.0425 -0.1138  0.3084
  482SOL    HW2 1926   0.229   1.055   0.192  0.8640 -0.2373 -1.1401
  482SOL    HW3 1927   0.173   0.924   0.140 -0.1271 -0.0565 -0.5283
  482SOL    MW4 1928   0.165   1.009   0.155  0.1285 -0.1225  0.0069
  483SOL     OW 1929   1.129   1.274   1.033 -0.3378 -0.1362 -0.4338
  483SOL    HW2 1930   1.201   1.318   0.988  0.8569 -0.3820  1.1863
  483SOL    HW3 1931   1.147   1.288   1.126 -1.2578 -1.9634  0.0444
  483SOL    MW4 1932   1.141   1.282   1.040 -0.3016 -0.4097 -0.1569
  484SOL     OW 1933   1.337   3.226   1.061 -0.5670  0.0209 -0.2299
  484SOL    HW2 1934   1.257   3.258   1.018 -0.9735 -2.0164 -1.0467
  484SOL    HW3 1935   1.339   3.132   1.041  0.6329 -0.4700  2.0173
  484SOL    MW4 1936   1.326   3.218   1.053 -0.4624 -0.3127 -0.0412
  485SOL     OW 1937   1.593   4.648   1.427 -0.3824 -0.3828  0.4566
  485SOL    HW2 1938   1.672   4.673   1.378  0.1094 -2.3199  0.2078
  485SOL    HW3 1939   1.617   4.660   1.519 -0.6177  1.3148  0.3079
  485SOL    MW4 1940   1.607   4.653   1.433 -0.3485 -0.4144  0.4042
  486SOL     OW 1941   4.120   1.682   0.294  0.3237 -0.2270  0.1750
  486SOL    HW2 1942   4.050   1.747   0.281 -0.1849 -1.2009 -2.2756
  486SOL    HW3 1943   4.198   1.723   0.256  0.3026 -0.5222 -0.1866
  486SOL    MW4 1944   4.121   1.696   0.287  0.2538 -0.3945 -0.1961
  487SOL     OW 1945   3.127   3.243   1.128  0.0698 -0.0031  0.1375
  487SOL    HW2 1946   3.205   3.271   1.081 -0.5812  1.8665  0.1245
  487SOL    HW3 1947   3.055   3.291   1.086 -1.0189 -1.2889  0.4987
  487SOL    MW4 1948   3.128   3.253   1.116 -0.1597  0.0739  0.1835
  488SOL     OW 1949   2.497   4.426   0.346  0.0693  0.0908 -0.0243
  488SOL    HW2 1950   2.583   4.385   0.349  0.2205  0.4798  1.0943
  488SOL    HW3 1951   2.436   4.353   0.331  0.5163 -0.2980  0.0417
  488SOL    MW4 1952   2.500   4.411   0.345  0.1482  0.0908  0.1320
  489SOL     OW 1953   0.299   2.727   0.561 -0.6026  0.4405 -0.1373
  489SOL    HW2 1954   0.305   2.761   0.471  0.4973  0.7658  0.0566
  489SOL    HW3 1955   0.379   2.758   0.604 -0.6541 -0.5377  0.6803
  489SOL    MW4 1956   0.310   2.736   0.555 -0.4643  0.3543 -0.0038
  490SOL     OW 1957   0.689   0.505   0.989 -0.1538  0.6158  0.3358
  490SOL    HW2 1958   0.770   0.543   0.954  0.8495 -0.6118  1.2663
  490SOL    HW3 1959   0.697   0.516   1.084 -0.3462 -0.9093  0.5445
  490SOL    MW4 1960   0.701   0.512   0.997 -0.0468  0.2526  0.4861
  491SOL     OW 1961   4.251   2.056   1.041 -0.3439 -0.3604 -0.0920
  491SOL    HW2 1962   4.265   1.966   1.011  0.7561  0.1791 -1.2072
  491SOL    HW3 1963   4.228   2.046   1.134  0.3394 -1.7501 -0.0538
  491SOL    MW4 1964   4.250   2.043   1.049 -0.1086 -0.4726 -0.2341
  492SOL     OW 1965   4.203   3.722   1.085  0.5659 -0.1483 -0.1958
  492SOL    HW2 1966   4.170   3.648   1.035  0.9586 -0.5201  0.0973
  492SOL    HW3 1967   4.297   3.724   1.066  0.5807  0.1906 -0.0969
  492SOL    MW4 1968   4.211   3.713   1.076  0.6197 -0.1526 -0.1441
  493SOL     OW 1969   0.870   2.235   0.253 -0.1584  0.2581  0.5277
  493SOL    HW2 1970   0.824   2.315   0.227  0.9228  0.9535  0.7482
  493SOL    HW3 1971   0.962   2.252   0.232  0.1143 -0.8190  0.8380
  493SOL    MW4 1972   0.876   2.248   0.246  0.0202  0.2077  0.5978
  494SOL     OW 1973   1.448   1.253   0.457 -0.3148 -0.1882 -0.0711
  494SOL    HW2 1974   1.411   1.307   0.527  0.2848  1.2754 -0.8661
  494SOL    HW3 1975   1.469   1.315   0.388 -0.0641 -1.5155 -1.2007
  494SOL    MW4 1976   1.446   1.269   0.457 -0.2026 -0.1702 -0.3251
  495SOL     OW 1977   2.810   1.229   0.377  0.0437  0.6083 -0.5493
  495SOL    HW2 1978   2.759   1.234   0.296  0.5485  0.1328 -0.9011
  495SOL    HW3 1979   2.826   1.136   0.390  0.3553  0.7144 -0.1449
  495SOL    MW4 1980   2.805   1.217   0.368  0.1514  0.5596 -0.5424
  496SOL     OW 1981   4.471   1.691   0.548 -0.2737  0.2266 -0.0027
  496SOL    HW2 1982   4.466   1.596   0.536 -1.1866  0.3289 -0.4449
  496SOL    HW3 1983   4.546   1.704   0.606 -0.3950 -0.7980  0.3922
  496SOL    MW4 1984   4.480   1.680   0.554 -0.4101  0.1049 -0.0089
  497SOL     OW 1985   3.640   3.997   1.097 -0.2862  1.0089  0.5873
  497SOL    HW2 1986   3.559   4.034   1.061  0.1140  1.3686  0.0460
  497SOL    HW3 1987   3.710   4.047   1.055  0.2532 -0.0062  0.2511
  497SOL    MW4 1988   3.639   4.008   1.087 -0.1622  0.9224  0.4715
  498SOL     OW 1989   2.088   3.237   0.721  0.0214  0.3521 -0.6814
  498SOL    HW2 1990   2.069   3.266   0.810 -1.0587  0.9825 -1.1027
  498SOL    HW3 1991   2.179   3.261   0.707  0.8458 -1.6485  0.9770
  498SOL    MW4 1992   2.097   3.244   0.731 -0.0123  0.1713 -0.5182
  499SOL     OW 1993   4.336   3.414   0.775  0.1823 -0.2134  0.5715
  499SOL    HW2 1994   4.372   3.390   0.861 -0.0781  0.7659  0.9612
  499SOL    HW3 1995   4.246   3.440   0.793  0.6494  1.6782  0.2741
  499SOL    MW4 1996   4.329   3.414   0.789  0.2095  0.1653  0.5837
  500SOL     OW 1997   2.099   4.575   0.335 -0.6065 -0.4279  0.2047
  500SOL    HW2 1998   2.186   4.594   0.298 -1.1246  1.6610  0.0017
  500SOL    HW3 1999   2.079   4.487   0.303  0.5793 -0.1411 -1.4234
  500SOL    MW4 2000   2.108   4.566   0.326 -0.5184 -0.1145 -0.0369
  501SOL     OW 2001   1.696   3.698   0.255  0.1746 -0.3146  0.6014
  501SOL    HW2 2002   1.629   3.758   0.224  0.0319 -0.5673  0.4192
  501SOL    HW3 2003   1.744   3.748   0.322  0.3533  0.1558  0.1249
  501SOL    MW4 2004   1.694   3.712   0.260  0.1793 -0.2859  0.5145
  502SOL     OW 2005   3.354   4.426   1.346  0.3421 -0.0925  0.3857
  502SOL    HW2 2006   3.438   4.382   1.363  0.2923 -1.0717 -1.8160
  502SOL    HW3 2007   3.290   4.373   1.393  0.5979 -1.0126 -0.2826
  502SOL    MW4 2008   3.357   4.414   1.355  0.3693 -0.3431  0.0070
  503SOL     OW 2009   3.397   1.815   0.956 -0.0258 -0.2168 -0.1698
  503SOL    HW2 2010   3.315   1.770   0.978 -0.6313  1.1241  0.3768
  503SOL    HW3 2011   3.380   1.907   0.978  0.3733  0.6989 -3.4317
  503SOL    MW4 2012   3.384   1.821   0.962 -0.0530  0.0809 -0.5280
  504SOL     OW 2013   1.323   4.531   0.990 -0.8061 -0.7408  0.2313
  504SOL    HW2 2014   1.338   4.619   1.023 -3.0057 -0.0331 -0.5578
  504SOL    HW3 2015   1.408   4.487   0.999  0.3701  1.5007  0.4276
  504SOL    MW4 2016   1.336   4.537   0.996 -0.9411 -0.3517  0.1531
  505SOL     OW 2017   0.166   0.721   0.088  0.9513 -0.0783  0.4464
  505SOL    HW2 2018   0.109   0.726   0.012  1.1173 -1.5296  0.2120
  505SOL    HW3 2019   0.130   0.649   0.141  0.8088  0.9370  1.7668
  505SOL    MW4 2020   0.154   0.712   0.085  0.9544 -0.1358  0.5897
  506SOL     OW 2021   0.829   0.042   0.664  0.5789 -0.0567  0.0610
  506SOL    HW2 2022   0.922   0.054   0.684  0.5322 -0.0711  0.2823
  506SOL    HW3 2023   0.828   0.014   0.572  0.8262 -0.5272  0.2008
  506SOL    MW4 2024   0.841   0.040   0.654  0.6054 -0.1207  0.1087
  507SOL     OW 2025   3.869   3.891   0.661 -0.2688 -0.1687 -0.7422
  507SOL    HW2 2026   3.964   3.893   0.671 -0.1324  0.3435 -2.0568
  507SOL    HW3 2027   3.841   3.982   0.677 -0.8359 -0.8051  2.2188
  507SOL    MW4 2028   3.878   3.904   0.664 -0.3256 -0.1851 -0.5250
  508SOL     OW 2029   1.568   3.215   0.678 -0.2019 -0.0929  0.2809
  508SOL    HW2 2030   1.625   3.139   0.689  0.5400  0.3824 -0.1999
  508SOL    HW3 2031   1.621   3.277   0.628 -0.7758  0.7693  0.7376
  508SOL    MW4 2032   1.583   3.213   0.672 -0.1797  0.0836  0.2777
  509SOL     OW 2033   2.439   2.801   1.326  0.1266 -0.4274 -0.0922
  509SOL    HW2 2034   2.453   2.802   1.232 -0.2051 -0.0838 -0.1399
  509SOL    HW3 2035   2.514   2.753   1.361  0.1353 -0.7507 -0.5496
  509SOL    MW4 2036   2.451   2.795   1.318  0.0840 -0.4247 -0.1588
  510SOL     OW 2037   1.508   3.849   0.599 -0.4769 -0.0239  0.2769
  510SOL    HW2 2038   1.594   3.816   0.625 -0.2721 -0.3554 -0.7964
  510SOL    HW3 2039   1.486   3.915   0.664  0.3667 -0.3023  0.8405
  510SOL    MW4 2040   1.516   3.854   0.611 -0.3386 -0.1044  0.2097
  511SOL     OW 2041   4.096   0.295   0.718  0.5362  0.1912  0.0705
  511SOL    HW2 2042   4.137   0.220   0.675  0.6367  1.0350 -1.3547
  511SOL    HW3 2043   4.147   0.308   0.798  2.8550  0.9878 -1.4712
  511SOL    MW4 2044   4.108   0.287   0.723  0.8554  0.4076 -0.3209
  512SOL     OW 2045   0.864   4.034   1.287 -0.0655  0.7879  0.1945
  512SOL    HW2 2046   0.796   3.990   1.338 -0.8988  0.7695 -0.9195
  512SOL    HW3 2047   0.884   4.113   1.338 -0.7425  0.6702  0.6555
  512SOL    MW4 2048   0.858   4.039   1.300 -0.2648  0.7699  0.1084
  513SOL     OW 2049   4.319   4.380   0.570  0.3554 -0.6157 -0.1874
  513SOL    HW2 2050   4.405   4.405   0.605  0.4101  0.6387 -1.1670
  513SOL    HW3 2051   4.256   4.432   0.620  0.3509  0.3076 -1.1404
  513SOL    MW4 2052   4.322   4.390   0.581  0.3620 -0.3284 -0.4424
  514SOL     OW 2053   0.434   0.118   1.096 -0.0209 -0.0787 -0.5506
  514SOL    HW2 2054   0.447   0.088   1.186  0.2160 -0.3229 -0.6645
  514SOL    HW3 2055   0.500   0.187   1.085  0.0355 -0.1377 -0.5796
  514SOL    MW4 2056   0.445   0.123   1.107  0.0178 -0.1187 -0.5695
  515SOL     OW 2057   0.599   0.525   0.275 -0.6046 -0.6314 -0.1956
  515SOL    HW2 2058   0.661   0.580   0.226 -0.1878 -1.4150 -0.5552
  515SOL    HW3 2059   0.588   0.447   0.221 -0.3147 -1.4090  0.8614
  515SOL    MW4 2060   0.606   0.522   0.261 -0.5113 -0.8374 -0.1036
  516SOL     OW 2061   2.719   2.480   1.277 -0.0470 -0.1015  0.1009
  516SOL    HW2 2062   2.716   2.453   1.185  0.5969 -0.2351  0.1130
  516SOL    HW3 2063   2.792   2.430   1.314 -0.5023 -0.2786  0.7620
  516SOL    MW4 2064   2.728   2.470   1.270 -0.0221 -0.1425  0.1897
  517SOL     OW 2065   3.026   0.754   0.376  0.3099 -0.4711 -0.3707
  517SOL    HW2 2066   3.111   0.797   0.367  0.0555 -0.1458 -1.3330
  517SOL    HW3 2067   3.037   0.670   0.331  0.2888 -0.6709 -0.0039
  517SOL    MW4 2068   3.039   0.748   0.369  0.2736 -0.4545 -0.4493
  518SOL     OW 2069   1.896   2.569   0.715 -0.1925  0.4084  0.4406
  518SOL    HW2 2070   1.820   2.514   0.736 -0.9186  1.1197 -0.2567
  518SOL    HW3 2071   1.960   2.508   0.677 -0.6570 -0.1019  0.4584
  518SOL    MW4 2072   1.894   2.553   0.712 -0.3495  0.4349  0.3510
  519SOL     OW 2073   2.517   0.184   0.166  0.3315  0.4640 -0.3546
  519SOL    HW2 2074   2.455   0.112   0.176  2.1007 -1.1017 -0.4201
  519SOL    HW3 2075   2.486   0.232   0.089 -0.6235 -0.4705 -0.5540
  519SOL    MW4 2076   2.505   0.181   0.157  0.4389  0.1342 -0.3895
  520SOL     OW 2077   0.816   4.520   1.088  0.3126 -0.1674 -0.3930
  520SOL    HW2 2078   0.901   4.476   1.081  0.5014  0.2452 -0.6658
  520SOL    HW3 2079   0.780   4.517   0.999  0.5433  0.6716 -0.5127
  520SOL    MW4 2080   0.823   4.514   1.075  0.3680 -0.0023 -0.4448
  521SOL     OW 2081   1.099   0.759   1.416  0.1189 -0.2862 -0.0462
  521SOL    HW2 2082   1.178   0.812   1.406 -0.0409 -0.3193 -1.5791
  521SOL    HW3 2083   1.099   0.733   1.508  2.2473 -0.8769 -0.2024
  521SOL    MW4 2084   1.109   0.763   1.427  0.3786 -0.3685 -0.2690
  522SOL     OW 2085   0.670   2.000   1.346 -0.0413 -0.0193  0.2912
  522SOL    HW2 2086   0.647   1.996   1.253  1.4114  0.7523 -0.1205
  522SOL    HW3 2087   0.693   2.092   1.361 -1.2117  0.0619  1.6512
  522SOL    MW4 2088   0.670   2.011   1.335 -0.0041  0.0932  0.4163
  523SOL     OW 2089   2.937   2.951   0.312  0.7858 -0.1597 -0.1445
  523SOL    HW2 2090   2.927   3.046   0.304  1.6860 -0.0273  0.2899
  523SOL    HW3 2091   2.967   2.937   0.402 -0.1615 -0.9254  0.0578
  523SOL    MW4 2092   2.940   2.962   0.323  0.7796 -0.2432 -0.0605
  524SOL     OW 2093   0.284   4.411   1.065  0.3005 -0.2009 -0.2059
  524SOL    HW2 2094   0.193   4.429   1.040  0.6817  0.4833 -1.0952
  524SOL    HW3 2095   0.281   4.403   1.160 -0.7617 -0.5675 -0.2634
  524SOL    MW4 2096   0.271   4.412   1.074  0.2107 -0.1590 -0.3308
  525SOL     OW 2097   4.213   0.493   1.041 -0.4307 -0.3850 -0.0368
  525SOL    HW2 2098   4.211   0.486   1.137 -0.4060 -0.2085 -0.0230
  525SOL    HW3 2099   4.301   0.525   1.022 -0.6545  0.2083 -0.0777
  525SOL    MW4 2100   4.224   0.497   1.051 -0.4570 -0.2835 -0.0404
  526SOL     OW 2101   2.516   3.551   0.144  0.0133 -0.2417  0.4309
  526SOL    HW2 2102   2.463   3.567   0.066 -0.2752  1.7283  0.9926
  526SOL    HW3 2103   2.533   3.639   0.179  1.3059 -1.0266  1.8007
  526SOL    MW4 2104   2.511   3.565   0.138  0.1458 -0.0854  0.6857
  527SOL     OW 2105   1.388   3.631   0.040  0.1111 -0.3444  0.1121
  527SOL    HW2 2106   1.404   3.696  -0.028 -1.1228 -0.8082 -0.6315
  527SOL    HW3 2107   1.317   3.667   0.092 -0.9275 -1.3019 -0.6072
  527SOL    MW4 2108   1.381   3.644   0.038 -0.1887 -0.5319 -0.0809
  528SOL     OW 2109   4.281   2.608   0.983  0.1902  0.3591  0.1015
  528SOL    HW2 2110   4.209   2.545   0.992  0.3436  0.0995 -0.4415
  528SOL    HW3 2111   4.284   2.627   0.889  2.1328 -1.1784 -0.1862
  528SOL    MW4 2112   4.272   2.602   0.972  0.4667  0.1220 -0.0081
  529SOL     OW 2113   3.394   4.101   1.021 -0.1915 -0.2006  0.2845
  529SOL    HW2 2114   3.379   4.194   1.036 -0.2562 -0.1324 -0.2102
  529SOL    HW3 2115   3.326   4.057   1.072 -0.8711  0.0524 -0.3840
  529SOL    MW4 2116   3.383   4.108   1.030 -0.2897 -0.1582  0.1310
  530SOL     OW 2117   1.601   4.291   0.577 -0.0700  0.3296  0.1065
  530SOL    HW2 2118   1.558   4.376   0.575  0.0773  0.4491  1.4990
  530SOL    HW3 2119   1.687   4.308   0.617  0.4594 -0.2635 -0.7485
  530SOL    MW4 2120   1.607   4.304   0.582  0.0193  0.2671  0.1774
  531SOL     OW 2121   2.900   2.508   0.273  0.2957 -0.0737 -0.4474
  531SOL    HW2 2122   2.932   2.502   0.363 -0.5151  0.4323 -0.1299
  531SOL    HW3 2123   2.979   2.523   0.221  0.8373 -0.9178  0.1100
  531SOL    MW4 2124   2.915   2.509   0.278  0.2602 -0.1183 -0.3320
  532SOL     OW 2125   2.918   3.848   1.718 -0.5215  0.9584  0.3293
  532SOL    HW2 2126   2.931   3.758   1.749 -1.7919  0.6810  0.1025
  532SOL    HW3 2127   2.934   3.844   1.624  1.2956  1.3755  0.6011
  532SOL    MW4 2128   2.922   3.836   1.710 -0.4493  0.9768  0.3353
  533SOL     OW 2129   1.979   4.594   0.602 -0.0709 -0.4946 -0.0152
  533SOL    HW2 2130   2.002   4.678   0.640 -0.1686 -0.7729  0.6714
  533SOL    HW3 2131   2.005   4.601   0.511 -1.7131  0.9199 -0.3987
  533SOL    MW4 2132   1.985   4.606   0.595 -0.3004 -0.3447  0.0248
  534SOL     OW 2133   4.108   0.675   0.483  0.6481 -0.5640 -0.3192
  534SOL    HW2 2134   4.075   0.747   0.430  1.3013 -0.2175 -0.2620
  534SOL    HW3 2135   4.073   0.691   0.570  0.3355 -0.6257 -0.4321
  534SOL    MW4 2136   4.099   0.687   0.487  0.6931 -0.5264 -0.3266
  535SOL     OW 2137   1.594   2.551   0.991 -0.5088  0.1785 -0.0680
  535SOL    HW2 2138   1.578   2.637   1.029 -2.1229  0.1473 -0.6480
  535SOL    HW3 2139   1.599   2.568   0.897  0.4609 -0.1900 -0.0938
  535SOL    MW4 2140   1.593   2.565   0.983 -0.5938  0.1258 -0.1479
  536SOL     OW 2141   2.285   3.732   0.939 -0.7317  0.2977  0.5939
  536SOL    HW2 2142   2.285   3.816   0.986  0.3019  0.9670 -0.5669
  536SOL    HW3 2143   2.310   3.755   0.850  0.7201 -1.4039  0.5447
  536SOL    MW4 2144   2.288   3.746   0.933 -0.4038  0.1615  0.4343
  537SOL     OW 2145   3.730   2.960   0.294 -0.0813 -0.0966 -0.6607
  537SOL    HW2 2146   3.805   2.938   0.350  0.5008 -0.5195 -1.5917
  537SOL    HW3 2147   3.675   2.882   0.295 -0.0802 -0.0975 -0.6691
  537SOL    MW4 2148   3.733   2.947   0.301 -0.0043 -0.1525 -0.7846
  538SOL     OW 2149   1.037   3.904   0.342 -0.3022 -0.0048 -0.4137
  538SOL    HW2 2150   1.067   3.914   0.433 -0.1109  0.8313 -0.5631
  538SOL    HW3 2151   1.033   3.994   0.309 -1.8509 -0.1988 -0.7607
  538SOL    MW4 2152   1.040   3.917   0.350 -0.4813  0.0799 -0.4792
  539SOL     OW 2153   3.399   4.539   0.217  0.0405  0.0550 -0.2247
  539SOL    HW2 2154   3.342   4.605   0.256  0.4362 -0.0737  0.5869
  539SOL    HW3 2155   3.350   4.457   0.227 -0.4855  0.2335 -1.3045
  539SOL    MW4 2156   3.385   4.537   0.224  0.0233  0.0616 -0.2601
  540SOL     OW 2157   0.674   1.554   1.401  0.2329 -0.3709 -0.2246
  540SOL    HW2 2158   0.595   1.604   1.379 -0.4222 -0.5381  1.6878
  540SOL    HW3 2159   0.656   1.466   1.367 -0.0974 -0.2252 -0.4339
  540SOL    MW4 2160   0.661   1.549   1.393  0.1029 -0.3738  0.0001
  541SOL     OW 2161   1.124   1.199   0.326  0.3245 -0.2659 -0.2757
  541SOL    HW2 2162   1.206   1.214   0.278 -0.5132  0.7451 -1.4481
  541SOL    HW3 2163   1.140   1.234   0.413  0.7421  1.0874 -0.8773
  541SOL    MW4 2164   1.137   1.206   0.331  0.2691  0.0460 -0.5097
  542SOL     OW 2165   0.726   4.129   0.452  0.0582 -0.3185 -0.0158
  542SOL    HW2 2166   0.635   4.158   0.441  0.1428  0.5205  1.4493
  542SOL    HW3 2167   0.759   4.180   0.525  2.0311  0.0845 -1.1598
  542SOL    MW4 2168   0.718   4.139   0.460  0.3297 -0.1546  0.0266
  543SOL     OW 2169   0.354   1.124   0.315  0.1098 -0.0246 -0.0227
  543SOL    HW2 2170   0.314   1.165   0.392  0.1567  0.8692 -0.4660
  543SOL    HW3 2171   0.405   1.194   0.274 -1.0873 -0.1005 -1.6850
  543SOL    MW4 2172   0.356   1.138   0.320 -0.0419  0.0833 -0.3005
  544SOL     OW 2173   2.903   4.620   1.465  0.5341 -0.1433 -0.2879
  544SOL    HW2 2174   2.893   4.618   1.560 -0.5615  1.9057 -0.3204
  544SOL    HW3 2175   2.917   4.529   1.440  0.5937 -0.7317  1.8139
  544SOL    MW4 2176   2.903   4.608   1.474  0.3974  0.0494 -0.0149
  545SOL     OW 2177   2.920   0.212   0.999 -0.2644  0.6695  0.1289
  545SOL    HW2 2178   2.900   0.257   0.916  0.2257  1.2233  0.3094
  545SOL    HW3 2179   2.839   0.167   1.021 -0.6586  1.1874 -0.2356
  545SOL    MW4 2180   2.907   0.212   0.991 -0.2517  0.8109  0.1047
  546SOL     OW 2181   2.227   3.468   1.409  0.1889 -0.1978 -0.5400
  546SOL    HW2 2182   2.149   3.516   1.379  0.6081  0.3336 -0.7777
  546SOL    HW3 2183   2.213   3.457   1.503 -0.7070 -1.0800 -0.7648
  546SOL    MW4 2184   2.215   3.473   1.417  0.1260 -0.2441 -0.6010
  547SOL     OW 2185   0.610   3.173   0.194  0.0789  0.6885 -0.2275
  547SOL    HW2 2186   0.535   3.221   0.158  0.5492  0.8842 -0.9644
  547SOL    HW3 2187   0.577   3.085   0.212 -1.1114  1.5657  2.2054
  547SOL    MW4 2188   0.596   3.168   0.192 -0.0161  0.8301 -0.0037
  548SOL     OW 2189   3.508   3.370   0.203  0.7828  0.1537  0.4275
  548SOL    HW2 2190   3.597   3.364   0.169  1.0069 -1.2488  1.2264
  548SOL    HW3 2191   3.500   3.461   0.231  1.5971  0.5645 -0.6085
  548SOL    MW4 2192   3.519   3.382   0.202  0.9198  0.0229  0.3962
  549SOL     OW 2193   1.142   3.617   1.010 -0.1784  0.2221  0.0151
  549SOL    HW2 2194   1.051   3.643   0.996  0.0370  1.2352  0.4247
  549SOL    HW3 2195   1.148   3.603   1.105 -0.3926 -1.7348 -0.2550
  549SOL    MW4 2196   1.131   3.619   1.021 -0.1782  0.0976  0.0335
  550SOL     OW 2197   0.074   1.304   0.307 -0.3881 -0.5838  0.0049
  550SOL    HW2 2198   0.046   1.213   0.311  0.0452 -0.7537 -0.8036
  550SOL    HW3 2199   0.142   1.311   0.374  0.4117 -1.1499 -0.7440
  550SOL    MW4 2200   0.079   1.293   0.316 -0.2254 -0.6809 -0.2006
  551SOL     OW 2201   1.962   4.093   0.428  0.2912 -0.2984  0.1131
  551SOL    HW2 2202   1.984   4.001   0.414  0.1048 -0.2107 -0.7602
  551SOL    HW3 2203   1.982   4.108   0.521 -0.4901 -1.4441  0.4851
  551SOL    MW4 2204   1.967   4.083   0.439  0.1635 -0.4380  0.0470
  552SOL     OW 2205   4.124   1.345   0.691  0.1332  0.2755 -0.0114
  552SOL    HW2 2206   4.073   1.276   0.649 -0.7998  1.1711 -0.4037
  552SOL    HW3 2207   4.213   1.312   0.693 -0.0139 -0.2779 -1.6447
  552SOL    MW4 2208   4.129   1.332   0.686 -0.0093  0.3207 -0.2787
  553SOL     OW 2209   3.395   1.337   1.311  0.5438 -0.0235 -0.1031
  553SOL    HW2 2210   3.397   1.329   1.216 -0.1395  1.7995 -0.2799
  553SOL    HW3 2211   3.330   1.273   1.339  0.5185 -0.3408 -0.8736
  553SOL    MW4 2212   3.387   1.327   1.302  0.4503  0.1752 -0.2281
  554SOL     OW 2213   1.635   2.361   0.569  0.4532 -0.3277 -0.0485
  554SOL    HW2 2214   1.705   2.314   0.614  1.2663 -0.3198 -1.2939
  554SOL    HW3 2215   1.556   2.311   0.591  1.2288 -2.0157 -0.9379
  554SOL    MW4 2216   1.634   2.348   0.578  0.6628 -0.5494 -0.3302
  555SOL     OW 2217   1.361   2.396   1.351 -0.2454  0.2164 -0.2854
  555SOL    HW2 2218   1.339   2.483   1.385  1.4654  0.5484  0.0738
  555SOL    HW3 2219   1.355   2.405   1.256  1.9237  1.3447 -0.3545
  555SOL    MW4 2220   1.358   2.409   1.343  0.2665  0.4090 -0.2471
  556SOL     OW 2221   1.759   3.713   0.621 -0.1512 -0.1618  0.5320
  556SOL    HW2 2222   1.734   3.630   0.580 -1.2158 -0.5906  2.0021
  556SOL    HW3 2223   1.854   3.719   0.606 -0.4247 -0.4869 -1.6024
  556SOL    MW4 2224   1.768   3.703   0.613 -0.3278 -0.2613  0.4443
  557SOL     OW 2225   1.330   3.171   0.540  0.1736  0.0459 -0.5588
  557SOL    HW2 2226   1.281   3.251   0.561  0.2539  0.4092 -1.7296
  557SOL    HW3 2227   1.412   3.180   0.587  0.2186  0.7052 -0.7550
  557SOL    MW4 2228   1.334   3.183   0.549  0.1902  0.1808 -0.7392
  558SOL     OW 2229   2.506   3.418   0.497 -0.3889 -0.2536 -0.0471
  558SOL    HW2 2230   2.459   3.392   0.576  0.3471 -1.0605  0.1413
  558SOL    HW3 2231   2.451   3.386   0.425 -0.6396 -0.2761  0.1537
  558SOL    MW4 2232   2.493   3.410   0.498 -0.3248 -0.3630  0.0042
  559SOL     OW 2233   3.430   1.395   0.520 -0.1405  0.2774 -0.0542
  559SOL    HW2 2234   3.453   1.486   0.500  0.4280  0.0333 -0.5407
  559SOL    HW3 2235   3.396   1.361   0.437  0.7665 -0.2941 -0.1978
  559SOL    MW4 2236   3.429   1.403   0.507  0.0542  0.1698 -0.1374
  560SOL     OW 2237   1.117   2.813   1.332 -0.6581  0.2080  0.0819
  560SOL    HW2 2238   1.042   2.769   1.371 -1.3578  1.0328 -0.3196
  560SOL    HW3 2239   1.113   2.792   1.239  0.1493 -0.5175  0.2047
  560SOL    MW4 2240   1.106   2.805   1.325 -0.6439  0.2211  0.0451
  561SOL     OW 2241   3.640   2.726   1.405 -0.4853 -0.3790  0.0653
  561SOL    HW2 2242   3.620   2.713   1.497 -2.6165 -0.2025 -0.3531
  561SOL    HW3 2243   3.625   2.641   1.365 -1.5642  0.0512 -0.4558
  561SOL    MW4 2244   3.635   2.713   1.412 -0.9088 -0.2989 -0.0586
  562SOL     OW 2245   0.928   1.894   1.441 -0.0142  0.5440  0.6474
  562SOL    HW2 2246   0.845   1.936   1.422  0.3741  1.4279  0.8992
  562SOL    HW3 2247   0.992   1.942   1.388  0.2353 -0.5778 -0.0933
  562SOL    MW4 2248   0.926   1.906   1.431  0.0699  0.5126  0.5829
  563SOL     OW 2249   1.932   3.090   0.543 -0.4801 -0.1971 -0.2461
  563SOL    HW2 2250   1.978   3.148   0.604  0.0849 -1.8747  0.9691
  563SOL    HW3 2251   2.000   3.030   0.511 -1.5636 -1.9662  0.6733
  563SOL    MW4 2252   1.947   3.089   0.547 -0.5485 -0.6518  0.0356
  564SOL     OW 2253   0.183   1.575   1.398 -0.1968  0.2746 -0.1373
  564SOL    HW2 2254   0.095   1.595   1.366  0.1460  0.5330 -0.9166
  564SOL    HW3 2255   0.172   1.564   1.493 -1.1202  0.0001 -0.2757
  564SOL    MW4 2256   0.170   1.576   1.407 -0.2734  0.2725 -0.2583
  565SOL     OW 2257   1.167   4.397   1.338  0.1070 -0.3327 -0.2336
  565SOL    HW2 2258   1.164   4.482   1.381 -0.6917 -0.7787  0.6084
  565SOL    HW3 2259   1.154   4.416   1.245  0.5618  0.5127 -0.1325
  565SOL    MW4 2260   1.165   4.410   1.331  0.0616 -0.2800 -0.1092
  566SOL     OW 2261   1.472   0.802   0.345  0.3028 -0.4139  0.2237
  566SOL    HW2 2262   1.460   0.864   0.273  1.1054  0.4795  0.8619
  566SOL    HW3 2263   1.467   0.855   0.424  1.0980 -1.1446  0.7747
  566SOL    MW4 2264   1.469   0.817   0.346  0.5136 -0.3924  0.3806
  567SOL     OW 2265   0.410   3.216   1.315  0.2325 -0.0353  0.4011
  567SOL    HW2 2266   0.414   3.307   1.346 -1.6232  0.1219  0.2420
  567SOL    HW3 2267   0.346   3.175   1.373 -0.0230 -0.8722 -0.4815
  567SOL    MW4 2268   0.402   3.223   1.327 -0.0461 -0.1250  0.2637
  568SOL     OW 2269   0.907   0.104   1.372 -0.2237 -0.9468 -0.2441
  568SOL    HW2 2270   0.909   0.115   1.277  0.0705 -1.7801 -0.3353
  568SOL    HW3 2271   0.984   0.050   1.392 -0.1518 -0.5819  0.4912
  568SOL    MW4 2272   0.918   0.098   1.362 -0.1754 -1.0086 -0.1592
  569SOL     OW 2273   0.689   2.829   1.059  0.4416 -0.6451 -0.6036
  569SOL    HW2 2274   0.606   2.867   1.029  0.0382 -1.0716 -0.0595
  569SOL    HW3 2275   0.678   2.821   1.154  1.1405 -0.6328 -0.5202
  569SOL    MW4 2276   0.676   2.833   1.068  0.4806 -0.6998 -0.5208
  570SOL     OW 2277   0.215   1.010   0.717 -0.1323  0.3074  0.5384
  570SOL    HW2 2278   0.145   0.964   0.671 -0.4048  0.5625  0.6903
  570SOL    HW3 2279   0.294   0.960   0.698 -0.2075  0.5402 -0.3799
  570SOL    MW4 2280   0.216   0.998   0.708 -0.1782  0.3718  0.4373
  571SOL     OW 2281   4.486   2.178   0.996 -0.4907  0.1189  0.1153
  571SOL    HW2 2282   4.474   2.271   1.013 -2.4131  0.1475 -1.2220
  571SOL    HW3 2283   4.402   2.139   1.020  0.1150 -1.1954  0.1168
  571SOL    MW4 2284   4.474   2.185   1.002 -0.6644 -0.0508 -0.0610
  572SOL     OW 2285   0.657   1.290   1.325 -0.3793 -0.0137  0.2027
  572SOL    HW2 2286   0.742   1.254   1.348 -0.8123 -1.0298  0.2277
  572SOL    HW3 2287   0.594   1.229   1.363 -1.1172  0.2761 -0.5470
  572SOL    MW4 2288   0.660   1.277   1.333 -0.5338 -0.1096  0.1071
  573SOL     OW 2289   2.962   3.847   1.436  0.3760 -0.1927 -0.3719
  573SOL    HW2 2290   2.964   3.751   1.425 -0.4951 -0.4597  1.5962
  573SOL    HW3 2291   2.893   3.875   1.376  0.7214 -0.7864 -1.0591
  573SOL    MW4 2292   2.953   3.838   1.426  0.3067 -0.3062 -0.2029
  574SOL     OW 2293   3.356   0.765   1.457 -0.2837  0.1196  0.2362
  574SOL    HW2 2294   3.362   0.670   1.446 -0.1696  0.2003 -0.4187
  574SOL    HW3 2295   3.350   0.777   1.552 -1.9422 -0.6260  0.2513
  574SOL    MW4 2296   3.356   0.754   1.468 -0.4875  0.0319  0.1518
  575SOL     OW 2297   1.559   4.391   0.130  0.2490  0.3913 -0.1001
  575SOL    HW2 2298   1.544   4.325   0.062 -1.2630 -0.8527  1.3945
  575SOL    HW3 2299   1.566   4.341   0.211  0.0616  2.0010  0.9388
  575SOL    MW4 2300   1.558   4.376   0.132  0.0248  0.4396  0.2342
  576SOL     OW 2301   1.582   2.814   1.067 -0.2830  0.1530  0.1386
  576SOL    HW2 2302   1.647   2.878   1.041 -0.0958 -0.1413 -0.1295
  576SOL    HW3 2303   1.498   2.855   1.048 -0.1531  0.0875 -0.5837
  576SOL    MW4 2304   1.579   2.828   1.061 -0.2412  0.1055  0.0079
  577SOL     OW 2305   1.133   0.486   1.348  0.3260  0.0804 -0.2856
  577SOL    HW2 2306   1.121   0.579   1.368  1.5301 -0.1199  1.4865
  577SOL    HW3 2307   1.049   0.446   1.369  0.2114  0.5667  0.1835
  577SOL    MW4 2308   1.120   0.493   1.353  0.4698  0.1182  0.0101
  578SOL     OW 2309   0.853   0.897   1.318 -0.1190  0.0083 -0.0327
  578SOL    HW2 2310   0.863   0.888   1.223 -1.5780 -1.0834 -0.1071
  578SOL    HW3 2311   0.927   0.850   1.355  0.4874  0.4819 -0.6218
  578SOL    MW4 2312   0.864   0.890   1.310 -0.2315 -0.0732 -0.1202
  579SOL     OW 2313   2.475   3.345   0.954 -0.1535  0.1045 -0.3616
  579SOL    HW2 2314   2.547   3.297   0.994 -1.6066 -1.9287 -0.1172
  579SOL    HW3 2315   2.473   3.429   1.000  0.5915 -0.7204  1.1940
  579SOL    MW4 2316   2.485   3.350   0.965 -0.2469 -0.2726 -0.1241
  580SOL     OW 2317   3.132   0.486   0.240  0.1497 -0.2567  0.1777
  580SOL    HW2 2318   3.046   0.455   0.271  0.2482 -0.0004  0.7082
  580SOL    HW3 2319   3.184   0.497   0.320  0.4286  0.3358 -0.0822
  580SOL    MW4 2320   3.127   0.483   0.255  0.1995 -0.1447  0.2134
  581SOL     OW 2321   0.004   3.251   1.025 -0.6584  0.1202  0.2267
  581SOL    HW2 2322  -0.005   3.157   1.013 -2.0677  0.3600 -0.6364
  581SOL    HW3 2323   0.002   3.263   1.120 -1.2689 -0.6481  0.3190
  581SOL    MW4 2324   0.003   3.240   1.036 -0.9249  0.0505  0.1250
  582SOL     OW 2325   2.882   4.658   0.562  0.1800 -0.2994 -0.1230
  582SOL    HW2 2326   2.911   4.631   0.475  1.7195  0.7766  0.0347
  582SOL    HW3 2327   2.841   4.580   0.599  0.0290 -0.9312 -1.5835
  582SOL    MW4 2328   2.880   4.644   0.555  0.3632 -0.2408 -0.2949
  583SOL     OW 2329   4.420   1.658   1.315  0.2582  0.0643 -0.0223
  583SOL    HW2 2330   4.420   1.749   1.343  0.3068 -0.4108  1.5552
  583SOL    HW3 2331   4.344   1.619   1.358  1.0893 -0.9878  0.5317
  583SOL    MW4 2332   4.410   1.665   1.324  0.3743 -0.1372  0.2589
  584SOL     OW 2333   1.378   3.752   0.965 -0.0572 -0.2562  0.0583
  584SOL    HW2 2334   1.444   3.685   0.984 -0.6837 -0.1097  2.9895
  584SOL    HW3 2335   1.295   3.709   0.985 -0.6134  0.6876 -0.2300
  584SOL    MW4 2336   1.376   3.737   0.970 -0.2132 -0.1124  0.4070
  585SOL     OW 2337   1.475   4.532   0.551 -0.1123 -0.0875 -0.2826
  585SOL    HW2 2338   1.427   4.523   0.468  0.2598 -0.0436 -0.5060
  585SOL    HW3 2339   1.407   4.542   0.617 -0.4449 -1.1416 -0.4574
  585SOL    MW4 2340   1.460   4.532   0.549 -0.1070 -0.2208 -0.3351
  586SOL     OW 2341   2.723   1.156   1.458  0.2310  0.2045 -0.0118
  586SOL    HW2 2342   2.714   1.144   1.552  0.4960  1.5985  0.2037
  586SOL    HW3 2343   2.805   1.205   1.447  0.0354  0.3487 -0.9309
  586SOL    MW4 2344   2.732   1.161   1.469  0.2401  0.4075 -0.1047
  587SOL     OW 2345   0.001   1.147   1.432 -0.0712 -0.2196 -0.0564
  587SOL    HW2 2346  -0.005   1.057   1.400 -0.8925 -0.0900 -0.2859
  587SOL    HW3 2347   0.010   1.139   1.527  0.2480 -0.5521 -0.1140
  587SOL    MW4 2348   0.002   1.134   1.440 -0.1375 -0.2464 -0.0943
  588SOL     OW 2349   2.704   2.922   0.953  0.2485 -0.4441  0.4666
  588SOL    HW2 2350   2.628   2.874   0.986  0.4817 -0.9374  0.2920
  588SOL    HW3 2351   2.776   2.898   1.011  0.5880 -1.0678 -0.2009
  588SOL    MW4 2352   2.704   2.913   0.965  0.3241 -0.5915  0.3555
  589SOL     OW 2353   1.322   1.959   0.566 -0.0316 -0.0850 -0.4499
  589SOL    HW2 2354   1.377   1.918   0.633 -1.4158 -1.9796 -0.4420
  589SOL    HW3 2355   1.375   1.955   0.486  0.9209  0.5958  0.1318
  589SOL    MW4 2356   1.337   1.953   0.564 -0.0886 -0.2452 -0.3721
  590SOL     OW 2357   2.953   0.777   1.480  0.3749 -0.3002 -0.1606
  590SOL    HW2 2358   3.029   0.816   1.437  0.1775 -0.1181 -0.3458
  590SOL    HW3 2359   2.879   0.798   1.422  0.0544  0.2216  0.4271
  590SOL    MW4 2360   2.953   0.785   1.466  0.3066 -0.2073 -0.1075
  591SOL     OW 2361   2.869   0.402   0.336 -0.3975 -0.4239  0.1205
  591SOL    HW2 2362   2.864   0.389   0.431  2.3893  0.8975  0.4706
  591SOL    HW3 2363   2.839   0.318   0.300 -2.0777 -0.7492  2.1206
  591SOL    MW4 2364   2.864   0.389   0.344 -0.2515 -0.2925  0.4306
  592SOL     OW 2365   0.779   0.955   0.224  0.2676 -0.2253  0.3695
  592SOL    HW2 2366   0.772   1.050   0.223  1.2574 -0.1554 -0.4679
  592SOL    HW3 2367   0.703   0.926   0.276 -1.0804  0.9058 -0.9370
  592SOL    MW4 2368   0.768   0.964   0.231  0.2204 -0.0668  0.0867
  593SOL     OW 2369   1.578   0.495   1.037  0.6855  0.6803  0.1333
  593SOL    HW2 2370   1.585   0.491   1.132  0.0636  0.5592  0.1732
  593SOL    HW3 2371   1.656   0.544   1.009  1.6696 -0.5953  0.5872
  593SOL    MW4 2372   1.589   0.501   1.046  0.7333  0.4960  0.1984
  594SOL     OW 2373   0.270   0.484   1.329 -0.1586  0.4243  0.4885
  594SOL    HW2 2374   0.240   0.574   1.342 -0.7036  0.3149 -0.0000
  594SOL    HW3 2375   0.245   0.463   1.239 -0.6279 -0.4524  0.8188
  594SOL    MW4 2376   0.263   0.493   1.319 -0.2924  0.2942  0.4676
  595SOL     OW 2377   3.188   1.171   1.431 -0.8891 -0.0189  0.0265
  595SOL    HW2 2378   3.101   1.200   1.404 -0.5541  0.2222 -0.8025
  595SOL    HW3 2379   3.185   1.171   1.527 -1.1157  2.0770  0.0392
  595SOL    MW4 2380   3.176   1.174   1.440 -0.8748  0.2894 -0.0812
  596SOL     OW 2381   3.443   2.094   0.326  0.2181  0.0385  0.5920
  596SOL    HW2 2382   3.417   2.128   0.412 -2.0309  1.1443 -0.4658
  596SOL    HW3 2383   3.502   2.160   0.291 -1.6810  1.4087 -0.1499
  596SOL    MW4 2384   3.447   2.107   0.333 -0.3292  0.3652  0.3546
  597SOL     OW 2385   3.644   2.488   1.025 -0.3106 -0.2768 -0.0124
  597SOL    HW2 2386   3.710   2.539   0.978  0.1752 -1.4795 -0.6439
  597SOL    HW3 2387   3.561   2.526   0.996  0.0641  0.7586  0.2209
  597SOL    MW4 2388   3.642   2.500   1.015 -0.1970 -0.2989 -0.0650
  598SOL     OW 2389   1.196   0.951   0.693  0.5381  0.0626 -0.0688
  598SOL    HW2 2390   1.108   0.953   0.654  0.5447 -0.4549 -0.1258
  598SOL    HW3 2391   1.182   0.972   0.785  0.3955  0.3086 -0.1449
  598SOL    MW4 2392   1.182   0.954   0.700  0.5202  0.0268 -0.0863
  599SOL     OW 2393   2.947   4.318   0.418  0.4188  0.1340 -0.7370
  599SOL    HW2 2394   2.983   4.344   0.503  0.2681  0.5371 -0.8001
  599SOL    HW3 2395   2.959   4.394   0.362 -1.2297  0.5385 -0.5473
  599SOL    MW4 2396   2.953   4.331   0.422  0.1814  0.2406 -0.7203
  600SOL     OW 2397   3.618   2.982   0.692 -1.1207 -0.4668  0.0775
  600SOL    HW2 2398   3.681   3.052   0.675 -2.3243  0.9120  1.2062
  600SOL    HW3 2399   3.619   2.971   0.787 -2.1384 -0.8554  0.0501
  600SOL    MW4 2400   3.626   2.990   0.702 -1.4138 -0.3362  0.2228
  601SOL     OW 2401   0.197   3.656   1.071  0.6664  0.3242  0.2864
  601SOL    HW2 2402   0.284   3.686   1.047  0.0995  1.9937  0.2770
  601SOL    HW3 2403   0.200   3.561   1.061  2.1616  0.4822 -0.7256
  601SOL    MW4 2404   0.209   3.647   1.067  0.7889  0.5653  0.1516
  602SOL     OW 2405   2.331   0.565   0.786  0.0648 -0.1541 -0.1034
  602SOL    HW2 2406   2.422   0.545   0.765 -0.4525 -2.3894 -0.3466
  602SOL    HW3 2407   2.303   0.624   0.716  1.2593  0.4367 -0.1055
  602SOL    MW4 2408   2.339   0.570   0.774  0.1542 -0.3711 -0.1357
  603SOL     OW 2409   4.228   3.489   0.272 -0.1681 -0.3210 -0.4265
  603SOL    HW2 2410   4.245   3.555   0.204 -0.7795  0.0717 -0.2048
  603SOL    HW3 2411   4.315   3.466   0.305  0.1480 -0.6637 -1.4745
  603SOL    MW4 2412   4.242   3.495   0.267 -0.2070 -0.3144 -0.5355
  604SOL     OW 2413   0.931   4.044   1.016 -0.4559  0.0248  0.2463
  604SOL    HW2 2414   0.914   4.050   1.110 -0.2201  2.1138  0.1792
  604SOL    HW3 2415   0.845   4.055   0.976 -0.3014  0.9536  0.1689
  604SOL    MW4 2416   0.917   4.046   1.023 -0.4044  0.4230  0.2272
  605SOL     OW 2417   4.002   2.718   0.028  0.0711 -0.3765 -0.2262
  605SOL    HW2 2418   4.082   2.686   0.070 -0.2580 -0.6181  0.2227
  605SOL    HW3 2419   4.002   2.678  -0.059  0.0629 -0.9686  0.0434
  605SOL    MW4 2420   4.012   2.709   0.022  0.0266 -0.4865 -0.1314
  606SOL     OW 2421   0.894   2.747   0.552  0.3636 -0.2451 -0.2555
  606SOL    HW2 2422   0.919   2.832   0.589  0.4027 -0.3527 -0.0357
  606SOL    HW3 2423   0.970   2.691   0.567  0.6919 -0.0658 -1.2210
  606SOL    MW4 2424   0.907   2.751   0.559  0.4121 -0.2357 -0.3539
  607SOL     OW 2425   2.053   0.962   0.558  0.0843 -0.0440  0.0862
  607SOL    HW2 2426   1.965   0.926   0.545 -0.0291  0.4014 -0.4074
  607SOL    HW3 2427   2.078   0.996   0.472  0.4895  0.3843  0.3685
  607SOL    MW4 2428   2.045   0.962   0.545  0.1228  0.0713  0.0583
  608SOL     OW 2429   2.304   3.942   0.287  0.1567 -0.2576 -0.0567
  608SOL    HW2 2430   2.389   3.898   0.290  0.9624  1.3190  0.7233
  608SOL    HW3 2431   2.323   4.029   0.250 -1.1283  0.0646  0.0221
  608SOL    MW4 2432   2.318   3.948   0.283  0.0934 -0.0071  0.0566
  609SOL     OW 2433   1.821   0.614   0.904  0.1682  0.5578  0.4715
  609SOL    HW2 2434   1.812   0.622   0.809 -2.6121 -0.9955  0.5295
  609SOL    HW3 2435   1.906   0.572   0.917  0.3336  0.2777 -1.3672
  609SOL    MW4 2436   1.831   0.609   0.893 -0.1768  0.3159  0.2365
  610SOL     OW 2437   1.168   0.439   0.411 -0.0791  0.5058  0.3345
  610SOL    HW2 2438   1.250   0.462   0.367 -0.1678 -2.3993 -1.5566
  610SOL    HW3 2439   1.111   0.515   0.398  1.8223  1.9840  0.4456
  610SOL    MW4 2440   1.171   0.452   0.403  0.1601  0.3175  0.0997
  611SOL     OW 2441   2.076   0.154   0.711 -0.2251  0.0587 -0.2219
  611SOL    HW2 2442   2.015   0.220   0.678  0.1463  0.0156 -0.9998
  611SOL    HW3 2443   2.162   0.196   0.702 -0.1252  0.0870  0.7841
  611SOL    MW4 2444   2.079   0.168   0.706 -0.1629  0.0567 -0.1918
  612SOL     OW 2445   3.680   4.601   0.274  0.0120 -0.2186 -0.1911
  612SOL    HW2 2446   3.589   4.579   0.253  0.6127 -0.8978 -2.2833
  612SOL    HW3 2447   3.680   4.695   0.288 -1.1437 -0.3271  0.5770
  612SOL    MW4 2448   3.668   4.610   0.273 -0.0613 -0.3225 -0.3658
  613SOL     OW 2449   3.812   0.459   1.331  0.2166 -0.0832 -0.4459
  613SOL    HW2 2450   3.808   0.546   1.369  0.3065 -0.3365  0.1386
  613SOL    HW3 2451   3.792   0.473   1.238 -0.1664  0.5023 -0.2760
  613SOL    MW4 2452   3.809   0.472   1.324  0.1780 -0.0394 -0.3463
  614SOL     OW 2453   2.716   2.188   1.013  0.0792  0.1050 -0.1668
  614SOL    HW2 2454   2.696   2.175   0.921 -0.6915 -0.4034  0.0675
  614SOL    HW3 2455   2.649   2.138   1.060 -0.8229  2.1236  0.7116
  614SOL    MW4 2456   2.705   2.179   1.007 -0.1415  0.3042 -0.0200
  615SOL     OW 2457   3.769   2.347   0.519 -0.2882 -0.4340 -0.3001
  615SOL    HW2 2458   3.828   2.276   0.493 -1.0679 -0.6076 -1.6338
  615SOL    HW3 2459   3.719   2.311   0.592 -0.7234 -1.3049 -1.0090
  615SOL    MW4 2460   3.770   2.333   0.525 -0.4485 -0.5718 -0.5696
  616SOL     OW 2461   0.700   1.042   0.687  0.0079  0.1209 -0.1170
  616SOL    HW2 2462   0.784   1.015   0.650 -0.5262  0.4397 -1.5804
  616SOL    HW3 2463   0.707   1.020   0.780  2.3139  1.6040  0.1104
  616SOL    MW4 2464   0.712   1.036   0.694  0.2417  0.3586 -0.2801
  617SOL     OW 2465   4.287   2.860   1.088  0.0860 -0.5021  0.2877
  617SOL    HW2 2466   4.286   2.769   1.059  0.0867 -0.7386  1.0182
  617SOL    HW3 2467   4.308   2.855   1.181 -0.4942  0.2050  0.4600
  617SOL    MW4 2468   4.289   2.847   1.096  0.0095 -0.4400  0.4068
  618SOL     OW 2469   3.607   2.204   0.688 -0.1728  0.0378 -0.3190
  618SOL    HW2 2470   3.631   2.112   0.677  0.8919  0.1434  1.0243
  618SOL    HW3 2471   3.603   2.217   0.782  0.7805  1.6437 -0.4808
  618SOL    MW4 2472   3.609   2.193   0.699  0.0934  0.2636 -0.1631
  619SOL     OW 2473   4.240   2.702   0.719 -0.0008 -0.1133 -0.2457
  619SOL    HW2 2474   4.326   2.712   0.679 -0.4366  0.4367 -1.0696
  619SOL    HW3 2475   4.210   2.616   0.689 -0.1401  0.1083 -0.7547
  619SOL    MW4 2476   4.247   2.692   0.710 -0.0767 -0.0115 -0.4216
  620SOL     OW 2477   2.302   4.226   0.302  0.0130 -0.0193 -0.1832
  620SOL    HW2 2478   2.297   4.188   0.389  0.7810 -1.8667 -0.9183
  620SOL    HW3 2479   2.212   4.253   0.282 -0.2196  0.1303  1.0446
  620SOL    MW4 2480   2.289   4.224   0.311  0.0836 -0.2433 -0.1182
  621SOL     OW 2481   0.421   3.587   0.242  0.0487 -0.0887  0.1222
  621SOL    HW2 2482   0.380   3.513   0.196  1.5830  0.0738 -1.5677
  621SOL    HW3 2483   0.509   3.556   0.263  0.8294  1.3801 -0.9234
  621SOL    MW4 2484   0.427   3.573   0.239  0.3541  0.1266 -0.2387
  622SOL     OW 2485   4.413   3.425   9.960  0.2083 -0.7184 -0.0680
  622SOL    HW2 2486   4.439   3.455   9.873  1.6195  0.2831  0.6810
  622SOL    HW3 2487   4.430   3.499  10.017  0.4788 -1.7949  1.2641
  622SOL    MW4 2488   4.419   3.438   9.956  0.4302 -0.7283  0.2066
  623SOL     OW 2489   1.790   2.983   0.953 -0.0172  0.4181 -0.3549
  623SOL    HW2 2490   1.859   2.926   0.987 -0.2640  0.3056 -0.0437
  623SOL    HW3 2491   1.797   3.063   1.005 -0.2532  0.3298 -0.1884
  623SOL    MW4 2492   1.800   2.986   0.964 -0.0809  0.3916 -0.2919
  624SOL     OW 2493   3.314   0.551   1.157  0.2617 -0.3409  0.0327
  624SOL    HW2 2494   3.395   0.593   1.128  0.3314 -0.6886 -0.2790
  624SOL    HW3 2495   3.319   0.462   1.122 -0.5656 -0.1650 -0.5477
  624SOL    MW4 2496   3.325   0.545   1.148  0.1617 -0.3636 -0.0850
  625SOL     OW 2497   2.243   2.414   1.302  0.0561 -0.4431  0.1308
  625SOL    HW2 2498   2.320   2.368   1.338 -0.1799 -1.3858 -0.5602
  625SOL    HW3 2499   2.170   2.385   1.358  0.0940 -0.0400  0.3904
  625SOL    MW4 2500   2.244   2.404   1.314  0.0300 -0.5143  0.0738
  626SOL     OW 2501   1.695   3.432   0.535  0.0806 -0.3101 -0.2380
  626SOL    HW2 2502   1.790   3.431   0.548  0.1036 -2.6872 -0.2176
  626SOL    HW3 2503   1.685   3.448   0.441  0.5249 -0.2745 -0.2840
  626SOL    MW4 2504   1.706   3.434   0.524  0.1423 -0.6190 -0.2413
  627SOL     OW 2505   0.306   4.629   0.655 -0.2160  0.3921  0.4107
  627SOL    HW2 2506   0.264   4.714   0.667 -0.8819 -0.0421  1.2851
  627SOL    HW3 2507   0.354   4.615   0.737 -0.2496 -0.1537  0.3355
  627SOL    MW4 2508   0.307   4.638   0.668 -0.3083  0.2628  0.5161
  628SOL     OW 2509   0.888   4.667   0.376  0.5445 -0.0958 -0.1169
  628SOL    HW2 2510   0.955   4.735   0.375  1.9960 -1.4716  1.1836
  628SOL    HW3 2511   0.936   4.585   0.364 -1.1281 -0.9534 -1.2595
  628SOL    MW4 2512   0.903   4.665   0.374  0.5153 -0.3905 -0.0961
  629SOL     OW 2513   0.668   3.106   1.414  0.4430 -0.1347 -0.1158
  629SOL    HW2 2514   0.585   3.138   1.379  0.2733 -1.6798 -1.1887
  629SOL    HW3 2515   0.735   3.157   1.369  0.0849  1.9746  1.6407
  629SOL    MW4 2516   0.666   3.117   1.404  0.3734 -0.0602 -0.0256
  630SOL     OW 2517   1.429   0.506   0.333  0.2215  0.2152 -0.4662
  630SOL    HW2 2518   1.471   0.484   0.416 -0.6805  0.9686  0.1986
  630SOL    HW3 2519   1.443   0.600   0.324 -0.3462  0.2702 -0.7943
  630SOL    MW4 2520   1.437   0.516   0.343  0.0276  0.3219 -0.4218
  631SOL     OW 2521   3.387   2.578   0.920 -0.2242 -0.2478 -0.3084
  631SOL    HW2 2522   3.373   2.663   0.963 -1.5371 -0.2757 -0.6861
  631SOL    HW3 2523   3.386   2.598   0.827  0.2514 -0.5692 -0.3849
  631SOL    MW4 2524   3.385   2.592   0.914 -0.3347 -0.2939 -0.3684
  632SOL     OW 2525   2.557   0.421   1.147 -0.0524 -0.1107 -0.1025
  632SOL    HW2 2526   2.652   0.423   1.135  0.1052 -0.3823  1.0180
  632SOL    HW3 2527   2.545   0.442   1.240 -1.0643 -0.5502 -0.1311
  632SOL    MW4 2528   2.568   0.424   1.158 -0.1651 -0.2045  0.0415
  633SOL     OW 2529   3.373   2.046   1.341  0.1372  0.2377  0.0696
  633SOL    HW2 2530   3.371   2.041   1.245  0.7026 -2.0046  0.1326
  633SOL    HW3 2531   3.375   2.139   1.361  1.3468  0.7049 -2.1360
  633SOL    MW4 2532   3.373   2.058   1.331  0.3714  0.0035 -0.2131
  634SOL     OW 2533   1.011   0.650   0.358  0.2994 -0.2332 -0.1975
  634SOL    HW2 2534   0.954   0.675   0.431 -1.1191 -0.2748 -1.2651
  634SOL    HW3 2535   1.044   0.733   0.324  0.1003 -0.1487 -0.1848
  634SOL    MW4 2536   1.007   0.664   0.363  0.0860 -0.2275 -0.3367
  635SOL     OW 2537   1.125   0.460   1.064 -0.4945  0.4606  0.0158
  635SOL    HW2 2538   1.126   0.473   1.159  0.9880 -1.5648  0.3145
  635SOL    HW3 2539   1.207   0.499   1.033 -0.1671 -0.3759 -0.1936
  635SOL    MW4 2540   1.136   0.466   1.072 -0.2557  0.0830  0.0276
  636SOL     OW 2541   1.115   0.200   0.997 -0.1522 -0.4398  0.5581
  636SOL    HW2 2542   1.120   0.294   1.012 -0.9390 -0.1534 -0.8557
  636SOL    HW3 2543   1.025   0.177   1.019 -0.4230 -0.5655 -0.6456
  636SOL    MW4 2544   1.104   0.209   1.002 -0.2917 -0.4186  0.2127
  637SOL     OW 2545   0.240   3.933   1.471  0.4155 -0.3008 -0.3941
  637SOL    HW2 2546   0.242   3.845   1.433  0.4188 -0.6227  0.3379
  637SOL    HW3 2547   0.317   3.976   1.434  0.3288 -0.5587 -0.8750
  637SOL    MW4 2548   0.251   3.927   1.461  0.4045 -0.3773 -0.3610
  638SOL     OW 2549   4.143   2.926   0.327  0.4648 -0.1750  0.5949
  638SOL    HW2 2550   4.077   2.872   0.370  1.7114 -1.7913  0.5023
  638SOL    HW3 2551   4.094   3.001   0.292 -1.4605 -1.8047 -0.2675
  638SOL    MW4 2552   4.128   2.929   0.328  0.3753 -0.6033  0.4689
  639SOL     OW 2553   2.233   1.264   0.725 -0.0016  0.1482 -0.0674
  639SOL    HW2 2554   2.265   1.311   0.801  0.7558 -0.2950 -0.1106
  639SOL    HW3 2555   2.161   1.211   0.758  1.7646 -1.7664  0.8239
  639SOL    MW4 2556   2.228   1.263   0.739  0.3313 -0.1629  0.0445
  640SOL     OW 2557   1.604   2.394   0.289  0.2277 -0.5345 -0.6739
  640SOL    HW2 2558   1.593   2.377   0.383 -1.7017  0.5167 -0.6919
  640SOL    HW3 2559   1.626   2.486   0.283 -0.2967 -0.4450 -1.2937
  640SOL    MW4 2560   1.605   2.404   0.301 -0.0961 -0.3840 -0.7580
  641SOL     OW 2561   2.317   0.725   0.074 -0.5175 -0.1925  0.7123
  641SOL    HW2 2562   2.313   0.632   0.096 -1.0536 -0.8533 -2.0190
  641SOL    HW3 2563   2.233   0.743   0.032  0.4997  0.9598 -0.8810
  641SOL    MW4 2564   2.305   0.715   0.072 -0.4540 -0.1277  0.1417
  642SOL     OW 2565   0.128   1.835   0.298  0.4463 -0.2520  0.1892
  642SOL    HW2 2566   0.125   1.798   0.387 -0.5231  0.3729  0.4238
  642SOL    HW3 2567   0.150   1.927   0.312  0.3202 -0.1616 -0.2216
  642SOL    MW4 2568   0.131   1.842   0.312  0.3018 -0.1576  0.1660
  643SOL     OW 2569   3.903   2.995   0.074  0.3782  0.1035 -0.6996
  643SOL    HW2 2570   3.831   2.975   0.134  1.2191 -0.2696  0.1939
  643SOL    HW3 2571   3.939   2.910   0.051  0.3201  0.2722 -1.4203
  643SOL    MW4 2572   3.898   2.981   0.079  0.4815  0.0766 -0.6768
  644SOL     OW 2573   1.803   1.138   1.423 -0.0828 -0.3409 -0.0718
  644SOL    HW2 2574   1.719   1.178   1.402 -0.7694 -2.5371 -1.6462
  644SOL    HW3 2575   1.807   1.138   1.519 -1.3677  0.7709 -0.0165
  644SOL    MW4 2576   1.793   1.143   1.433 -0.3429 -0.4839 -0.2722
  645SOL     OW 2577   4.474   3.017   0.646  0.1551  0.1666  0.1037
  645SOL    HW2 2578   4.430   2.944   0.604  0.2174  0.5186 -0.5851
  645SOL    HW3 2579   4.565   3.012   0.615  0.1631  0.5193  0.0628
  645SOL    MW4 2580   4.480   3.007   0.636  0.1644  0.2596  0.0074
  646SOL     OW 2581   1.092   1.612   0.425  0.3449 -0.2505 -0.4511
  646SOL    HW2 2582   1.099   1.675   0.496 -0.7944 -0.3174 -0.2614
  646SOL    HW3 2583   1.020   1.644   0.371  1.4581  0.0179 -1.8141
  646SOL    MW4 2584   1.083   1.624   0.427  0.3414 -0.2240 -0.6059
  647SOL     OW 2585   1.080   4.356   0.639  0.1127  0.2344 -0.6190
  647SOL    HW2 2586   0.989   4.338   0.664  0.8149  0.2546  2.1549
  647SOL    HW3 2587   1.125   4.273   0.656  0.8465  0.6265 -0.6596
  647SOL    MW4 2588   1.074   4.342   0.645  0.3021  0.2888 -0.2584
  648SOL     OW 2589   1.133   2.035   1.307 -0.6778  0.0172  0.2277
  648SOL    HW2 2590   1.196   1.967   1.330  0.5471  1.0323 -0.0585
  648SOL    HW3 2591   1.132   2.036   1.211  0.0661  1.0615  0.2142
  648SOL    MW4 2592   1.141   2.027   1.297 -0.4181  0.2889  0.1881
  649SOL     OW 2593   3.925   3.488   9.985 -0.0528  0.3801  0.1948
  649SOL    HW2 2594   3.998   3.431  10.008  0.0542  0.3994 -0.0877
  649SOL    HW3 2595   3.889   3.450   9.905 -0.3557  0.3696  0.3346
  649SOL    MW4 2596   3.930   3.475   9.977 -0.0786  0.3813  0.1759
  650SOL     OW 2597   1.930   2.894   0.158 -0.2768  0.1431 -0.8164
  650SOL    HW2 2598   1.904   2.980   0.193  0.1959 -0.3611  0.8114
  650SOL    HW3 2599   1.962   2.914   0.070 -0.3179  1.6265 -0.5192
  650SOL    MW4 2600   1.931   2.908   0.151 -0.2198  0.2723 -0.5624
  651SOL     OW 2601   2.694   3.193   1.036  0.0137  0.3785 -0.2085
  651SOL    HW2 2602   2.701   3.100   1.016 -1.8609  0.3736 -0.9309
  651SOL    HW3 2603   2.705   3.199   1.131  1.1245 -0.4586 -0.2798
  651SOL    MW4 2604   2.696   3.182   1.046 -0.0871  0.2674 -0.3132
  652SOL     OW 2605   1.609   2.013   1.051  0.2612 -0.0644  0.3329
  652SOL    HW2 2606   1.692   2.046   1.016  0.4130 -0.8845 -0.0878
  652SOL    HW3 2607   1.545   2.079   1.024  0.6452  0.1738 -0.0208
  652SOL    MW4 2608   1.612   2.026   1.043  0.3319 -0.1412  0.2307
  653SOL     OW 2609   0.923   1.644   1.027  0.4392  0.0428 -0.4315
  653SOL    HW2 2610   0.923   1.554   0.996  2.4018  0.2729 -1.1850
  653SOL    HW3 2611   0.923   1.636   1.123 -0.4973 -0.7235 -0.4823
  653SOL    MW4 2612   0.923   1.631   1.036  0.5746 -0.0279 -0.5376
  654SOL     OW 2613   0.341   2.475   0.685 -0.2072  0.1370 -0.7781
  654SOL    HW2 2614   0.314   2.497   0.774  1.3435  0.4961 -0.3938
  654SOL    HW3 2615   0.304   2.545   0.631 -0.0603  0.6164 -0.2655
  654SOL    MW4 2616   0.332   2.487   0.690  0.0168  0.2477 -0.6598
  655SOL     OW 2617   0.434   1.378   0.952  0.0166 -0.2595  0.2186
  655SOL    HW2 2618   0.433   1.396   0.858 -0.5482  0.7670  0.4162
  655SOL    HW3 2619   0.408   1.460   0.993  1.0887 -0.4461  1.3161
  655SOL    MW4 2620   0.431   1.391   0.945  0.0835 -0.1487  0.3895
  656SOL     OW 2621   1.225   3.478   0.350 -0.0180 -0.1737  0.1052
  656SOL    HW2 2622   1.222   3.464   0.445  0.1532  0.0994  0.1512
  656SOL    HW3 2623   1.251   3.569   0.340  0.4384 -0.3386 -0.2106
  656SOL    MW4 2624   1.228   3.488   0.361  0.0648 -0.1594  0.0696
  657SOL     OW 2625   2.013   2.576   0.954 -0.0508 -0.2287 -0.3843
  657SOL    HW2 2626   1.957   2.517   1.005  0.1195 -1.3882 -1.5034
  657SOL    HW3 2627   1.978   2.572   0.865  1.8826 -1.1326 -1.1440
  657SOL    MW4 2628   2.001   2.568   0.949  0.2267 -0.5009 -0.6322
  658SOL     OW 2629   1.103   2.592   0.652  0.5020 -0.0884 -0.0851
  658SOL    HW2 2630   1.094   2.577   0.746 -0.1354  1.0629  0.0517
  658SOL    HW3 2631   1.107   2.505   0.614 -0.2930 -0.5769  0.9182
  658SOL    MW4 2632   1.102   2.579   0.659  0.3130 -0.0010  0.0653
  659SOL     OW 2633   3.392   0.314   0.806  0.4029  0.4036 -0.3521
  659SOL    HW2 2634   3.421   0.402   0.783  0.2851  0.4944 -0.1516
  659SOL    HW3 2635   3.459   0.257   0.770  0.3680  0.5619 -0.6770
  659SOL    MW4 2636   3.405   0.318   0.798  0.3828  0.4365 -0.3685
  660SOL     OW 2637   2.933   4.358   1.328 -0.4080  0.0421 -0.4899
  660SOL    HW2 2638   2.942   4.370   1.234 -1.9475  1.9483 -0.4225
  660SOL    HW3 2639   2.847   4.317   1.338 -1.4014  2.2169  0.2156
  660SOL    MW4 2640   2.923   4.354   1.317 -0.7422  0.5805 -0.3879
  661SOL     OW 2641   2.249   3.960   1.337  0.1744  0.2842  0.0397
  661SOL    HW2 2642   2.246   4.046   1.380  0.7499 -0.1720  1.0042
  661SOL    HW3 2643   2.163   3.921   1.356  0.2559  0.2729  0.3934
  661SOL    MW4 2644   2.237   3.966   1.345  0.2611  0.2225  0.2136
  662SOL     OW 2645   2.450   4.559   0.593 -0.5356  0.0264  0.0787
  662SOL    HW2 2646   2.459   4.517   0.507  0.0610 -0.1166  0.2117
  662SOL    HW3 2647   2.447   4.653   0.574  0.5754  0.0491 -0.0250
  662SOL    MW4 2648   2.451   4.566   0.579 -0.3103  0.0105  0.0826
  663SOL     OW 2649   2.326   0.283   0.723 -0.2791  0.0172 -0.1017
  663SOL    HW2 2650   2.314   0.378   0.721 -1.0967 -0.0771  0.3155
  663SOL    HW3 2651   2.386   0.269   0.797 -1.2924  0.0919  0.7449
  663SOL    MW4 2652   2.333   0.294   0.733 -0.5207  0.0146  0.0650
  664SOL     OW 2653   0.174   3.618   0.353 -0.3372  0.1374 -0.2123
  664SOL    HW2 2654   0.263   3.598   0.324  0.1532  0.7783  0.8095
  664SOL    HW3 2655   0.186   3.653   0.442 -1.6947 -0.8176  0.3520
  664SOL    MW4 2656   0.188   3.620   0.361 -0.4516  0.0960 -0.0030
  665SOL     OW 2657   4.209   4.398   1.314 -0.2609  0.2856  0.0607
  665SOL    HW2 2658   4.231   4.473   1.370  0.0919 -0.2694  0.6771
  665SOL    HW3 2659   4.141   4.352   1.363  0.4522 -0.5171  0.3070
  665SOL    MW4 2660   4.203   4.402   1.328 -0.1203  0.1065  0.1745
  666SOL     OW 2661   1.591   1.499   1.758 -0.0260 -0.6057 -0.8726
  666SOL    HW2 2662   1.658   1.544   1.809  0.0828 -0.5129 -1.0955
  666SOL    HW3 2663   1.512   1.550   1.772  0.3512  0.3475 -2.0508
  666SOL    MW4 2664   1.590   1.512   1.766  0.0381 -0.4677 -1.0575
  667SOL     OW 2665   1.363   4.511   0.307 -0.3730  0.2956  0.4524
  667SOL    HW2 2666   1.426   4.482   0.241  1.3280 -0.5385  2.3768
  667SOL    HW3 2667   1.351   4.604   0.290 -1.0280 -0.1811 -1.8608
  667SOL    MW4 2668   1.370   4.519   0.296 -0.2350  0.1227  0.4011
  668SOL     OW 2669   1.847   1.503   0.623 -0.3993 -0.2102 -0.0527
  668SOL    HW2 2670   1.818   1.419   0.657  1.9739 -2.2837 -2.9242
  668SOL    HW3 2671   1.813   1.506   0.533  0.7032  1.2758 -0.4369
  668SOL    MW4 2672   1.839   1.493   0.615  0.0593 -0.2877 -0.4823
  669SOL     OW 2673   3.124   4.649   0.667 -0.1342 -0.1764 -0.3123
  669SOL    HW2 2674   3.034   4.670   0.643 -0.2965  0.2290  0.6226
  669SOL    HW3 2675   3.135   4.557   0.643 -1.3553 -0.7381  1.2115
  669SOL    MW4 2676   3.114   4.640   0.660 -0.3167 -0.1970  0.0121
  670SOL     OW 2677   3.563   4.104   0.197  0.4277 -0.6331 -0.7746
  670SOL    HW2 2678   3.657   4.118   0.202  0.2158  0.2060  1.9605
  670SOL    HW3 2679   3.541   4.122   0.106  2.7679  0.0959 -1.2363
  670SOL    MW4 2680   3.572   4.109   0.186  0.7085 -0.4262 -0.4747
  671SOL     OW 2681   2.030   3.609   1.020 -0.1894 -0.5956 -0.0748
  671SOL    HW2 2682   2.111   3.660   1.013  0.7511 -1.9210  0.8732
  671SOL    HW3 2683   1.963   3.667   0.985  0.6017  1.8761  2.2590
  671SOL    MW4 2684   2.032   3.624   1.015  0.0391 -0.4443  0.3582
  672SOL     OW 2685   1.888   3.172   0.275  0.4827 -0.3586  0.7412
  672SOL    HW2 2686   1.888   3.165   0.371 -0.0824 -0.0252  0.7668
  672SOL    HW3 2687   1.823   3.239   0.256 -0.5023 -1.4902  0.0396
  672SOL    MW4 2688   1.879   3.180   0.285  0.2782 -0.4639  0.6520
  673SOL     OW 2689   2.264   1.639   1.049 -0.1505 -0.1097 -0.4998
  673SOL    HW2 2690   2.187   1.674   1.005 -1.3626 -2.2844 -0.1627
  673SOL    HW3 2691   2.243   1.644   1.142  1.4268  2.2058 -0.2181
  673SOL    MW4 2692   2.251   1.644   1.055 -0.1023 -0.0911 -0.4182
  674SOL     OW 2693   2.276   0.849   1.106  0.5039 -0.3305 -0.3897
  674SOL    HW2 2694   2.283   0.754   1.096  1.1742 -0.4098  0.8309
  674SOL    HW3 2695   2.359   0.883   1.072  0.8216 -0.2793  0.4238
  674SOL    MW4 2696   2.288   0.841   1.100  0.6343 -0.3342 -0.1213
  675SOL     OW 2697   0.672   3.873   1.431  0.8193  0.2946  0.1290
  675SOL    HW2 2698   0.665   3.782   1.404  0.8273 -0.0495  1.2923
  675SOL    HW3 2699   0.659   3.872   1.525 -0.8156  1.6999 -0.0668
  675SOL    MW4 2700   0.670   3.861   1.440  0.6046  0.4346  0.2567
  676SOL     OW 2701   1.149   2.339   0.280  0.0996 -0.3647  0.2532
  676SOL    HW2 2702   1.160   2.433   0.265 -0.8487 -0.3005 -0.0763
  676SOL    HW3 2703   1.234   2.301   0.260  0.5534  0.4518  0.5979
  676SOL    MW4 2704   1.161   2.347   0.276  0.0343 -0.2485  0.2552
  677SOL     OW 2705   1.161   2.017   1.006  0.3627 -0.3966 -0.7582
  677SOL    HW2 2706   1.155   1.925   0.977 -0.1091 -0.4782 -0.4196
  677SOL    HW3 2707   1.078   2.056   0.977  0.5015 -0.1129 -0.7732
  677SOL    MW4 2708   1.149   2.010   0.998  0.3188 -0.3699 -0.7155
  678SOL     OW 2709   2.958   2.084   1.072  0.6423 -0.1481  0.1370
  678SOL    HW2 2710   2.867   2.111   1.058  0.6752  0.1624  0.5312
  678SOL    HW3 2711   2.959   2.044   1.159  1.1570  1.0766  0.7005
  678SOL    MW4 2712   2.946   2.082   1.081  0.7145  0.0545  0.2634
  679SOL     OW 2713   4.465   1.395   0.975 -0.5062  0.0988 -0.0055
  679SOL    HW2 2714   4.470   1.485   1.005  0.4382  0.3580 -0.8947
  679SOL    HW3 2715   4.546   1.355   1.005 -0.9524 -0.4765  0.4414
  679SOL    MW4 2716   4.476   1.402   0.983 -0.4404  0.0571 -0.0638
  680SOL     OW 2717   4.090   3.507   0.947 -0.3557 -0.1713 -0.1636
  680SOL    HW2 2718   4.070   3.426   0.993  0.4164  0.1125  0.6861
  680SOL    HW3 2719   4.004   3.545   0.926 -0.7077 -0.7221  0.2904
  680SOL    MW4 2720   4.076   3.501   0.950 -0.3003 -0.2065  0.0084
  681SOL     OW 2721   3.661   3.732   0.737 -0.0964 -0.0515 -0.1695
  681SOL    HW2 2722   3.587   3.781   0.773 -0.4000 -0.3708 -0.3655
  681SOL    HW3 2723   3.729   3.799   0.724 -0.6924  0.4097 -0.9542
  681SOL    MW4 2724   3.660   3.748   0.740 -0.2151 -0.0328 -0.2989
  682SOL     OW 2725   3.587   4.526   0.966 -0.0473 -0.9113  0.2240
  682SOL    HW2 2726   3.582   4.603   1.022  0.2692  0.3423 -1.4247
  682SOL    HW3 2727   3.504   4.481   0.979 -0.2434 -0.2708  1.1755
  682SOL    MW4 2728   3.575   4.530   0.975 -0.0314 -0.6614  0.1320
  683SOL     OW 2729   2.299   0.577   1.061  0.0618  0.0858  0.5670
  683SOL    HW2 2730   2.374   0.529   1.094  0.6791  1.1746  0.7654
  683SOL    HW3 2731   2.307   0.573   0.966  0.9787  1.1264  0.5900
  683SOL    MW4 2732   2.310   0.570   1.053  0.2642  0.3667  0.5962
  684SOL     OW 2733   1.147   2.319   0.570 -0.0201  0.0305 -0.3653
  684SOL    HW2 2734   1.069   2.272   0.599 -0.1818  0.3096 -0.3497
  684SOL    HW3 2735   1.140   2.322   0.475  0.4146 -0.7175 -0.4246
  684SOL    MW4 2736   1.136   2.313   0.561  0.0159 -0.0314 -0.3710
  685SOL     OW 2737   3.410   4.345   0.570  0.3208 -0.4600  0.0754
  685SOL    HW2 2738   3.394   4.353   0.476 -1.9425 -0.3205  0.4539
  685SOL    HW3 2739   3.427   4.252   0.584 -0.1913 -0.6172 -0.3441
  685SOL    MW4 2740   3.410   4.334   0.560 -0.0453 -0.4624  0.0700
  686SOL     OW 2741   4.270   1.794   0.944 -0.4666  0.4635  0.5659
  686SOL    HW2 2742   4.261   1.781   0.849  0.0553 -2.5182  0.8833
  686SOL    HW3 2743   4.192   1.751   0.981 -0.0601  0.5656  1.5496
  686SOL    MW4 2744   4.258   1.786   0.936 -0.3441  0.0835  0.7375
  687SOL     OW 2745   4.048   3.209   0.547 -0.4633  0.0288  0.2414
  687SOL    HW2 2746   4.050   3.189   0.453  0.4207 -0.7358  0.4140
  687SOL    HW3 2747   4.086   3.132   0.589 -0.3625  0.5846  1.1912
  687SOL    MW4 2748   4.054   3.196   0.540 -0.3334  0.0012  0.3894
  688SOL     OW 2749   3.138   0.113   1.127 -0.1714  0.2436  0.1070
  688SOL    HW2 2750   3.204   0.178   1.104 -0.8584  0.1827 -2.0916
  688SOL    HW3 2751   3.058   0.143   1.086 -1.0265 -0.8290  0.9438
  688SOL    MW4 2752   3.136   0.125   1.119 -0.3749  0.0940 -0.0726
  689SOL     OW 2753   3.828   2.052   1.067 -1.1760 -0.2271 -0.0647
  689SOL    HW2 2754   3.808   2.038   1.160  0.8383 -1.3172  0.2496
  689SOL    HW3 2755   3.832   1.963   1.031  1.1266  0.0224 -0.4844
  689SOL    MW4 2756   3.826   2.038   1.075 -0.6065 -0.3380 -0.0786
  690SOL     OW 2757   2.471   2.035   1.351  0.2392  0.0787  0.2809
  690SOL    HW2 2758   2.464   2.036   1.255  1.6877  1.0254  0.1786
  690SOL    HW3 2759   2.465   2.127   1.376 -1.1617 -0.2497  1.1916
  690SOL    MW4 2760   2.469   2.047   1.342  0.2455  0.1603  0.3876
  691SOL     OW 2761   0.902   3.157   0.291  0.3717  0.1466  0.2934
  691SOL    HW2 2762   0.819   3.160   0.243  0.4383  0.6915  0.2059
  691SOL    HW3 2763   0.962   3.112   0.232  0.5362  1.0939 -0.2727
  691SOL    MW4 2764   0.899   3.151   0.277  0.4022  0.3435  0.2072
  692SOL     OW 2765   0.148   0.446   0.299 -0.2271 -0.3448  0.2257
  692SOL    HW2 2766   0.199   0.365   0.289  0.1101 -0.1308  0.2009
  692SOL    HW3 2767   0.182   0.486   0.379  0.2214  0.2157 -0.2411
  692SOL    MW4 2768   0.159   0.440   0.308 -0.1234 -0.2426  0.1609
  693SOL     OW 2769   4.258   2.606   0.141 -0.3492  0.0606 -0.7364
  693SOL    HW2 2770   4.309   2.525   0.148 -2.5645 -1.3001  0.2779
  693SOL    HW3 2771   4.318   2.674   0.171  1.6273 -1.1679 -1.8054
  693SOL    MW4 2772   4.273   2.604   0.146 -0.3807 -0.2810 -0.7436
  694SOL     OW 2773   3.985   0.845   0.319 -0.1214 -0.0488 -0.2233
  694SOL    HW2 2774   4.056   0.899   0.284 -0.6436  0.2545 -0.8154
  694SOL    HW3 2775   3.907   0.900   0.315 -0.2280 -0.0593  1.2760
  694SOL    MW4 2776   3.984   0.859   0.314 -0.2044 -0.0101 -0.1036
  695SOL     OW 2777   3.155   1.706   1.023  0.2171  0.3395 -0.5061
  695SOL    HW2 2778   3.152   1.616   0.988 -0.9404  0.3957 -0.5884
  695SOL    HW3 2779   3.076   1.747   0.988  1.0593  1.5963 -0.9803
  695SOL    MW4 2780   3.144   1.699   1.014  0.1755  0.5128 -0.5795
  696SOL     OW 2781   0.677   3.605   1.085  0.0784  0.3077 -0.0871
  696SOL    HW2 2782   0.752   3.645   1.040 -0.8823 -0.0244 -2.0411
  696SOL    HW3 2783   0.666   3.520   1.043 -0.5696 -0.2142  1.1045
  696SOL    MW4 2784   0.685   3.599   1.073 -0.1338  0.1950 -0.1877
  697SOL     OW 2785   4.146   3.926   0.716  0.1088 -0.0149 -0.3223
  697SOL    HW2 2786   4.117   3.927   0.807  0.3064 -0.2252 -0.2547
  697SOL    HW3 2787   4.223   3.982   0.714  0.0567  0.0539 -0.3759
  697SOL    MW4 2788   4.152   3.933   0.727  0.1280 -0.0336 -0.3204
  698SOL     OW 2789   0.727   1.238   0.271 -0.4444 -0.3212  0.3527
  698SOL    HW2 2790   0.793   1.294   0.230 -0.4993  0.2787  1.0641
  698SOL    HW3 2791   0.643   1.277   0.244 -0.5322 -1.6186 -1.2923
  698SOL    MW4 2792   0.724   1.251   0.262 -0.4632 -0.4132  0.2295
  699SOL     OW 2793   1.292   1.234   0.108 -0.2672  0.1783  0.4341
  699SOL    HW2 2794   1.225   1.247   0.041 -0.8881 -1.1920  0.7734
  699SOL    HW3 2795   1.344   1.315   0.107 -0.3206  0.1970 -1.6284
  699SOL    MW4 2796   1.290   1.247   0.099 -0.3561 -0.0000  0.2067
  700SOL     OW 2797   3.161   3.709   1.026 -0.0061 -0.0681 -0.6302
  700SOL    HW2 2798   3.168   3.791   1.075 -1.0906  0.5689 -1.5240
  700SOL    HW3 2799   3.237   3.658   1.054  0.1592  0.8497  0.6561
  700SOL    MW4 2800   3.172   3.713   1.036 -0.1274  0.1370 -0.5784
  701SOL     OW 2801   0.290   4.017   0.308  0.1434  0.1442 -0.0804
  701SOL    HW2 2802   0.348   4.088   0.338 -0.5613  1.8401 -2.5652
  701SOL    HW3 2803   0.345   3.965   0.250 -0.1019  0.2236 -0.3807
  701SOL    MW4 2804   0.305   4.020   0.305  0.0181  0.3784 -0.4479
  702SOL     OW 2805   2.518   1.255   1.108 -0.4765  0.1040 -0.0213
  702SOL    HW2 2806   2.451   1.306   1.063  0.0149  0.8601  0.0992
  702SOL    HW3 2807   2.507   1.277   1.200 -1.0753 -0.9687  0.1723
  702SOL    MW4 2808   2.508   1.264   1.114 -0.4907  0.0622  0.0201
  703SOL     OW 2809   2.665   0.993   0.164 -0.1590  0.2721  0.5029
  703SOL    HW2 2810   2.577   0.983   0.200 -0.5845  1.5581 -0.1651
  703SOL    HW3 2811   2.724   0.980   0.239 -0.8385 -2.0588  0.6809
  703SOL    MW4 2812   2.661   0.990   0.179 -0.3048  0.1342  0.4383
  704SOL     OW 2813   0.949   2.790   0.118  0.3516 -0.1434  0.1022
  704SOL    HW2 2814   1.009   2.860   0.092 -0.4334  0.6385  0.3820
  704SOL    HW3 2815   0.955   2.725   0.048  0.7787  0.3891 -0.3549
  704SOL    MW4 2816   0.958   2.790   0.105  0.3044  0.0301  0.0788
  705SOL     OW 2817   0.202   1.863   0.672 -0.5037  0.4578  0.3858
  705SOL    HW2 2818   0.150   1.940   0.694 -1.2820 -0.3451  1.4194
  705SOL    HW3 2819   0.215   1.818   0.755  1.3525  0.3212  0.0578
  705SOL    MW4 2820   0.197   1.867   0.686 -0.3615  0.3338  0.4789
  706SOL     OW 2821   0.898   3.756   1.002  0.1300  0.0506 -0.2253
  706SOL    HW2 2822   0.930   3.843   1.027  0.5259 -0.4006  0.8802
  706SOL    HW3 2823   0.893   3.759   0.907 -1.7841  1.9551 -0.0975
  706SOL    MW4 2824   0.902   3.768   0.993 -0.0703  0.2424 -0.0626
  707SOL     OW 2825   2.318   2.301   0.572  0.2564 -0.6607  0.2203
  707SOL    HW2 2826   2.399   2.350   0.586  1.0008 -2.0216  0.6394
  707SOL    HW3 2827   2.320   2.278   0.479  0.6756 -1.2822  0.3841
  707SOL    MW4 2828   2.329   2.305   0.561  0.4100 -0.9223  0.2972
  708SOL     OW 2829   2.503   0.521   1.405  0.1367 -0.2167 -0.3806
  708SOL    HW2 2830   2.576   0.473   1.445  0.1786  1.2299  1.3591
  708SOL    HW3 2831   2.425   0.482   1.444  0.1191  0.3360  0.1351
  708SOL    MW4 2832   2.502   0.510   1.416  0.1399  0.0471 -0.0831
  709SOL     OW 2833   2.049   4.607   1.429  0.0206 -0.0728  0.5209
  709SOL    HW2 2834   2.039   4.608   1.524  1.9052 -0.4536  0.7379
  709SOL    HW3 2835   2.044   4.514   1.405  0.1544 -0.0240  0.3025
  709SOL    MW4 2836   2.047   4.595   1.438  0.2869 -0.1166  0.5207
  710SOL     OW 2837   0.688   3.556   0.337 -0.3298  0.0766 -0.2733
  710SOL    HW2 2838   0.774   3.516   0.333 -0.3313 -0.1767  1.7595
  710SOL    HW3 2839   0.705   3.649   0.351 -0.3788  0.1968 -0.9919
  710SOL    MW4 2840   0.701   3.563   0.339 -0.3365  0.0591 -0.0999
  711SOL     OW 2841   1.772   3.127   1.354  0.0082 -0.1923  0.0537
  711SOL    HW2 2842   1.787   3.152   1.263 -0.8052 -2.0392 -0.6176
  711SOL    HW3 2843   1.855   3.089   1.382  0.1702  0.1128 -0.0138
  711SOL    MW4 2844   1.785   3.125   1.346 -0.0777 -0.3957 -0.0437
  712SOL     OW 2845   3.172   4.020   1.399 -0.7943  0.2033  0.0536
  712SOL    HW2 2846   3.087   3.977   1.415 -0.8227 -0.8494 -2.6478
  712SOL    HW3 2847   3.235   3.948   1.397 -0.1127  0.7977  0.2332
  712SOL    MW4 2848   3.169   4.005   1.400 -0.7081  0.1428 -0.2791
  713SOL     OW 2849   1.224   4.137   0.717 -0.1701  0.1447 -0.3095
  713SOL    HW2 2850   1.173   4.058   0.700  0.7109 -0.0048 -2.4245
  713SOL    HW3 2851   1.196   4.165   0.804 -1.1526 -1.9813  0.1030
  713SOL    MW4 2852   1.213   4.130   0.726 -0.1835 -0.1555 -0.5341
  714SOL     OW 2853   2.713   3.191   1.310 -0.6303 -0.3812 -0.2327
  714SOL    HW2 2854   2.631   3.160   1.349 -0.6536  1.0588  0.9099
  714SOL    HW3 2855   2.781   3.140   1.355 -0.8997 -1.7401 -1.3439
  714SOL    MW4 2856   2.711   3.180   1.321 -0.6689 -0.3705 -0.2286
  715SOL     OW 2857   3.846   4.135   0.977 -0.1289 -0.0433 -0.1042
  715SOL    HW2 2858   3.829   4.144   0.884  0.3009 -1.2976 -0.3165
  715SOL    HW3 2859   3.922   4.077   0.982  0.7494  1.1586  0.9806
  715SOL    MW4 2860   3.854   4.128   0.966  0.0437 -0.0502  0.0109
  716SOL     OW 2861   0.919   4.258   1.428 -0.1441  0.1125 -0.1091
  716SOL    HW2 2862   0.916   4.278   1.521 -0.0828 -1.8831  0.3508
  716SOL    HW3 2863   1.008   4.279   1.401 -0.0251  0.2453  0.3954
  716SOL    MW4 2864   0.930   4.263   1.437 -0.1203 -0.1333  0.0182
  717SOL     OW 2865   1.289   3.686   0.707  0.5025 -0.1533 -0.2622
  717SOL    HW2 2866   1.311   3.703   0.798  1.9898 -0.1191 -0.6130
  717SOL    HW3 2867   1.366   3.714   0.658  1.0524 -3.2165 -1.2704
  717SOL    MW4 2868   1.302   3.692   0.712  0.7713 -0.5529 -0.4415
  718SOL     OW 2869   2.074   0.512   0.410 -0.1483 -0.7598 -0.8223
  718SOL    HW2 2870   2.019   0.448   0.456  0.5555 -0.3968  0.5450
  718SOL    HW3 2871   2.157   0.466   0.395  0.4288 -0.1046  0.3392
  718SOL    MW4 2872   2.078   0.497   0.414  0.0207 -0.6255 -0.4886
  719SOL     OW 2873   2.916   2.835   1.383 -0.3567  0.3036  0.2324
  719SOL    HW2 2874   2.912   2.925   1.415 -0.6289 -0.0122  1.0991
  719SOL    HW3 2875   3.005   2.807   1.399 -0.6693 -0.0712  1.3059
  719SOL    MW4 2876   2.927   2.843   1.389 -0.4338  0.2125  0.4884
  720SOL     OW 2877   2.029   4.350   1.362  0.2600 -0.4359  0.0168
  720SOL    HW2 2878   1.944   4.319   1.395  0.2440 -0.3846  0.0230
  720SOL    HW3 2879   2.021   4.344   1.267  0.2427 -0.4120  0.0169
  720SOL    MW4 2880   2.017   4.345   1.354  0.2556 -0.4260  0.0177
  721SOL     OW 2881   0.904   2.664   1.448 -0.3151  0.1667 -0.4490
  721SOL    HW2 2882   0.834   2.713   1.404 -0.9575 -1.2492 -1.0486
  721SOL    HW3 2883   0.884   2.673   1.541 -0.0018  1.6492 -0.5119
  721SOL    MW4 2884   0.892   2.672   1.455 -0.3585  0.1755 -0.5364
  722SOL     OW 2885   0.009   4.013   1.354 -0.5812  0.0917 -0.1063
  722SOL    HW2 2886   0.083   3.971   1.398 -0.0354  0.9532 -0.1956
  722SOL    HW3 2887   0.012   4.104   1.383 -0.6560  0.4956 -1.3377
  722SOL    MW4 2888   0.019   4.019   1.364 -0.5191  0.2586 -0.2805
  723SOL     OW 2889   1.847   1.623   1.085 -0.2534  0.1637 -0.3174
  723SOL    HW2 2890   1.768   1.662   1.048 -0.3932  2.1841  1.9378
  723SOL    HW3 2891   1.830   1.620   1.179  2.0607 -0.0407  0.1301
  723SOL    MW4 2892   1.835   1.628   1.093  0.0335  0.4033  0.0392
  724SOL     OW 2893   1.347   2.699   0.597 -0.1137 -0.5020  0.2987
  724SOL    HW2 2894   1.352   2.716   0.503  2.1335 -2.6275 -0.0274
  724SOL    HW3 2895   1.266   2.650   0.608 -0.0027 -0.9164 -0.6519
  724SOL    MW4 2896   1.337   2.695   0.586  0.1974 -0.8371  0.1303
  725SOL     OW 2897   2.780   3.330   0.558  0.1071  0.2079 -0.0132
  725SOL    HW2 2898   2.703   3.366   0.514 -1.1281 -0.2730  1.7104
  725SOL    HW3 2899   2.750   3.248   0.597  1.8088 -0.5943 -0.3308
  725SOL    MW4 2900   2.766   3.324   0.557  0.1687  0.0386  0.1723
  726SOL     OW 2901   1.785   0.595   0.635 -0.2806  0.0578  0.0500
  726SOL    HW2 2902   1.694   0.576   0.614 -0.2087  0.8660 -1.0339
  726SOL    HW3 2903   1.801   0.680   0.593  1.6978 -1.2221 -1.8529
  726SOL    MW4 2904   1.775   0.604   0.627 -0.0101 -0.0044 -0.3441
  727SOL     OW 2905   4.068   1.113   0.536  0.2724  0.2318  0.2680
  727SOL    HW2 2906   4.117   1.069   0.467  1.2139  1.3696  0.1819
  727SOL    HW3 2907   3.996   1.054   0.557 -0.6129  0.2798 -2.3707
  727SOL    MW4 2908   4.065   1.100   0.529  0.2798  0.3883 -0.0915
  728SOL     OW 2909   2.918   4.403   1.055  0.5228  0.1425 -0.1426
  728SOL    HW2 2910   2.981   4.461   1.014  0.1279 -0.2083 -1.2594
  728SOL    HW3 2911   2.947   4.315   1.031 -0.4682 -0.0154 -0.7749
  728SOL    MW4 2912   2.930   4.399   1.046  0.3399  0.0754 -0.3734
  729SOL     OW 2913   3.569   1.020   0.637  0.4456  0.6065  0.1338
  729SOL    HW2 2914   3.581   1.054   0.549  2.1614  2.8693  1.2033
  729SOL    HW3 2915   3.658   1.011   0.671 -0.2064 -0.2556  1.6569
  729SOL    MW4 2916   3.582   1.023   0.630  0.5860  0.7913  0.4758
  730SOL     OW 2917   1.925   0.943   0.122 -0.4046 -0.0068 -0.4558
  730SOL    HW2 2918   1.863   0.905   0.184 -0.2735  0.4624 -0.0260
  730SOL    HW3 2919   1.995   0.980   0.177 -0.1328  0.1472 -0.8941
  730SOL    MW4 2920   1.926   0.943   0.137 -0.3515  0.0754 -0.4569
  731SOL     OW 2921   1.119   3.354   0.922 -0.7235  0.4021 -0.0491
  731SOL    HW2 2922   1.151   3.352   0.832  0.5595 -2.6077  0.3698
  731SOL    HW3 2923   1.116   3.446   0.945  1.3718  1.1122 -2.3640
  731SOL    MW4 2924   1.123   3.366   0.913 -0.2778  0.0987 -0.2993
  732SOL     OW 2925   3.240   3.789   0.776 -0.1046  0.1026  0.1195
  732SOL    HW2 2926   3.199   3.765   0.859  0.7063  0.3317  0.5964
  732SOL    HW3 2927   3.173   3.838   0.729 -1.3295 -1.9048 -0.3020
  732SOL    MW4 2928   3.226   3.792   0.781 -0.1592 -0.1320  0.1268
  733SOL     OW 2929   2.255   2.939   0.994 -0.0488 -0.1259  0.1756
  733SOL    HW2 2930   2.266   2.934   0.899  0.1311 -0.6390  0.2252
  733SOL    HW3 2931   2.163   2.917   1.009 -0.3607  1.0408  0.0302
  733SOL    MW4 2932   2.244   2.936   0.984 -0.0662 -0.0396  0.1630
  734SOL     OW 2933   0.210   2.036   1.312  0.0898 -0.1789 -0.1991
  734SOL    HW2 2934   0.232   2.041   1.219 -0.8872 -1.7888 -0.5241
  734SOL    HW3 2935   0.288   1.995   1.352  0.2290 -0.1257 -0.4125
  734SOL    MW4 2936   0.223   2.031   1.305 -0.0207 -0.3843 -0.2701
  735SOL     OW 2937   3.206   0.694   0.678  0.1007 -0.0594  0.2892
  735SOL    HW2 2938   3.221   0.663   0.767  1.0982 -0.0723  0.1221
  735SOL    HW3 2939   3.249   0.780   0.675  0.1499 -0.0989 -0.2067
  735SOL    MW4 2940   3.213   0.701   0.689  0.2388 -0.0663  0.2017
  736SOL     OW 2941   0.704   1.638   0.537  0.2061  0.2170 -0.2703
  736SOL    HW2 2942   0.767   1.570   0.562  0.0861  0.1594 -0.1149
  736SOL    HW3 2943   0.735   1.671   0.453  1.1053  1.0217  0.3778
  736SOL    MW4 2944   0.716   1.633   0.529  0.3089  0.3156 -0.1643
  737SOL     OW 2945   3.577   4.269   1.398  0.0589 -0.1746  0.2277
  737SOL    HW2 2946   3.592   4.291   1.490 -0.0202  1.2590 -0.0931
  737SOL    HW3 2947   3.646   4.316   1.351  0.3047 -1.1656 -0.4218
  737SOL    MW4 2948   3.588   4.278   1.404  0.0809 -0.1162  0.0997
  738SOL     OW 2949   3.193   0.246   0.631  0.0238  0.2849  0.1816
  738SOL    HW2 2950   3.164   0.156   0.646 -0.3011  0.4461  0.5318
  738SOL    HW3 2951   3.270   0.256   0.686  1.5734 -0.5715 -1.7742
  738SOL    MW4 2952   3.199   0.235   0.640  0.1853  0.1932 -0.0302
  739SOL     OW 2953   1.505   1.644   0.526  0.1684  0.1903  0.6413
  739SOL    HW2 2954   1.501   1.711   0.594  0.5412 -0.6332  1.4939
  739SOL    HW3 2955   1.597   1.640   0.501  0.0150  0.5642  0.0100
  739SOL    MW4 2956   1.516   1.652   0.532  0.1974  0.1310  0.6705
  740SOL     OW 2957   2.293   2.300   0.285 -0.0066 -0.2096  0.0878
  740SOL    HW2 2958   2.202   2.270   0.291  0.1923 -0.9254 -0.3738
  740SOL    HW3 2959   2.291   2.389   0.318 -0.5958 -0.7743  1.5970
  740SOL    MW4 2960   2.280   2.308   0.290 -0.0581 -0.3785  0.2260
  741SOL     OW 2961   0.640   2.258   1.700 -0.3713  0.0671  0.3021
  741SOL    HW2 2962   0.650   2.263   1.605 -0.8762 -0.9753  0.1866
  741SOL    HW3 2963   0.669   2.169   1.722  0.2139  0.4722  1.1812
  741SOL    MW4 2964   0.645   2.247   1.690 -0.3607 -0.0170  0.4029
  742SOL     OW 2965   4.270   2.313   1.396 -0.4130 -0.6312  0.1420
  742SOL    HW2 2966   4.354   2.353   1.374 -0.3580 -1.0330 -0.3986
  742SOL    HW3 2967   4.257   2.332   1.489 -0.9036  1.6254 -0.3491
  742SOL    MW4 2968   4.279   2.321   1.405 -0.4705 -0.3865  0.0059
  743SOL     OW 2969   0.444   1.555   0.443  0.2963 -0.3596  0.4461
  743SOL    HW2 2970   0.400   1.624   0.392  0.0747 -1.2889 -0.6496
  743SOL    HW3 2971   0.529   1.593   0.465  0.6277 -0.1345 -1.1257
  743SOL    MW4 2972   0.449   1.569   0.439  0.3108 -0.4525  0.0942
  744SOL     OW 2973   3.304   1.789   0.673  0.5990 -0.1037 -0.0806
  744SOL    HW2 2974   3.233   1.853   0.683  0.9236  0.2976 -0.3116
  744SOL    HW3 2975   3.354   1.796   0.754  0.5315 -0.1884 -0.0323
  744SOL    MW4 2976   3.301   1.798   0.685  0.6329 -0.0619 -0.1047
  745SOL     OW 2977   4.487   1.659   1.053  0.1748  0.5817  0.1255
  745SOL    HW2 2978   4.407   1.706   1.031 -0.1566 -0.3844 -0.7549
  745SOL    HW3 2979   4.480   1.641   1.147 -2.4005 -2.7465 -0.6089
  745SOL    MW4 2980   4.475   1.663   1.062 -0.2087  0.0151 -0.0875
  746SOL     OW 2981   0.480   2.690   1.420 -0.1976 -0.5031 -0.1386
  746SOL    HW2 2982   0.489   2.596   1.404  2.1089 -0.5153  1.0281
  746SOL    HW3 2983   0.455   2.696   1.512  1.1300  0.0375  0.2066
  746SOL    MW4 2984   0.478   2.678   1.430  0.2819 -0.4333  0.0609
  747SOL     OW 2985   2.027   1.098   0.787 -0.1177 -0.3889  0.5974
  747SOL    HW2 2986   1.955   1.156   0.761 -1.5179 -2.0140  0.7183
  747SOL    HW3 2987   2.037   1.038   0.713 -0.2549 -1.4413  1.4225
  747SOL    MW4 2988   2.019   1.098   0.774 -0.3205 -0.7422  0.7222
  748SOL     OW 2989   2.054   3.829   0.360  0.0305 -0.2086 -0.1696
  748SOL    HW2 2990   2.071   3.794   0.447 -0.1605 -2.3505 -0.9507
  748SOL    HW3 2991   2.136   3.872   0.335  0.4753 -0.5930  0.6052
  748SOL    MW4 2992   2.067   3.830   0.368  0.0640 -0.5419 -0.1705
  749SOL     OW 2993   1.653   1.023   0.729  0.4056 -0.0215  0.3618
  749SOL    HW2 2994   1.585   1.014   0.663  1.0944  0.6592 -0.4522
  749SOL    HW3 2995   1.612   0.992   0.810 -1.1538  1.2467  0.0777
  749SOL    MW4 2996   1.639   1.018   0.731  0.2907  0.2356  0.2169
  750SOL     OW 2997   3.793   1.047   0.287  0.3198 -0.2484  0.0541
  750SOL    HW2 2998   3.701   1.055   0.311  0.4739  0.4069  0.4199
  750SOL    HW3 2999   3.832   1.131   0.310  1.1192 -0.6982  0.3590
  750SOL    MW4 3000   3.786   1.059   0.293  0.4456 -0.2213  0.1426
  751SOL     OW 3001   4.370   1.408   0.471  0.1381  0.5178 -0.6157
  751SOL    HW2 3002   4.385   1.366   0.556 -0.4727 -1.5843 -1.4957
  751SOL    HW3 3003   4.430   1.362   0.412 -0.3993  1.0425 -1.5811
  751SOL    MW4 3004   4.380   1.396   0.474 -0.0134  0.3097 -0.8592
  752SOL     OW 3005   1.830   0.088   1.293 -0.8467 -0.7552 -0.0660
  752SOL    HW2 3006   1.913   0.040   1.295  1.4385  3.0103 -0.1100
  752SOL    HW3 3007   1.804   0.085   1.201  1.1044  0.9713 -0.7180
  752SOL    MW4 3008   1.838   0.081   1.281 -0.2878 -0.0306 -0.1578
  753SOL     OW 3009   1.267   4.568   0.726 -0.0284 -0.4086 -0.3832
  753SOL    HW2 3010   1.196   4.505   0.717  0.1221 -0.4261 -1.4204
  753SOL    HW3 3011   1.294   4.560   0.818 -1.7307 -0.0024  0.1769
  753SOL    MW4 3012   1.261   4.559   0.737 -0.2332 -0.3573 -0.4461
  754SOL     OW 3013   1.360   0.122   1.371  0.4506  0.6127 -0.7862
  754SOL    HW2 3014   1.440   0.080   1.399  0.3917 -0.0785 -1.6344
  754SOL    HW3 3015   1.357   0.108   1.276 -0.3269  1.2100 -0.8596
  754SOL    MW4 3016   1.370   0.115   1.362  0.3403  0.6003 -0.9078
  755SOL     OW 3017   2.705   4.196   0.590  0.2463 -0.0138  0.0697
  755SOL    HW2 3018   2.705   4.190   0.494 -1.1155 -1.2093  0.1275
  755SOL    HW3 3019   2.706   4.290   0.608  2.7667  0.2304 -1.0781
  755SOL    MW4 3020   2.705   4.208   0.579  0.3992 -0.1393 -0.0741
  756SOL     OW 3021   4.057   3.024   0.963 -0.0993 -0.3353 -0.2367
  756SOL    HW2 3022   3.976   2.974   0.980 -0.6489  0.9421  0.9777
  756SOL    HW3 3023   4.123   2.982   1.018 -0.5749  0.2948  0.8266
  756SOL    MW4 3024   4.055   3.012   0.972 -0.2345 -0.0836  0.0638
  757SOL     OW 3025   1.587   2.020   1.329 -0.1325 -0.3116  0.6535
  757SOL    HW2 3026   1.597   2.017   1.234 -0.5141  1.7436  0.5299
  757SOL    HW3 3027   1.652   1.959   1.362  0.2443 -0.7812 -0.9076
  757SOL    MW4 3028   1.597   2.012   1.321 -0.1331 -0.1024  0.4313
  758SOL     OW 3029   1.388   1.113   1.727 -0.2912 -0.0395  0.0290
  758SOL    HW2 3030   1.378   1.022   1.754  0.6696 -0.2835 -0.4269
  758SOL    HW3 3031   1.304   1.154   1.748 -0.9698 -1.1894 -0.4219
  758SOL    MW4 3032   1.376   1.106   1.734 -0.2540 -0.2234 -0.0906
  759SOL     OW 3033   3.438   1.660   0.458  0.4048 -0.5151 -0.2899
  759SOL    HW2 3034   3.373   1.659   0.387 -0.1405  0.0850  0.1959
  759SOL    HW3 3035   3.394   1.705   0.530  0.4750 -2.2728  0.8844
  759SOL    MW4 3036   3.424   1.666   0.458  0.3421 -0.6678 -0.0709
  760SOL     OW 3037   0.502   0.257   0.183 -0.3627 -0.0454 -0.2204
  760SOL    HW2 3038   0.552   0.184   0.219 -0.3987 -0.6573 -1.3747
  760SOL    HW3 3039   0.410   0.234   0.200 -0.2762  1.2210  2.1669
  760SOL    MW4 3040   0.496   0.244   0.190 -0.3560  0.0410 -0.0577
  761SOL     OW 3041   3.567   0.109   1.096  0.0614 -0.3879 -0.3829
  761SOL    HW2 3042   3.639   0.166   1.069 -0.5366  0.4851 -0.1339
  761SOL    HW3 3043   3.578   0.101   1.191 -0.6592  0.4147 -0.2323
  761SOL    MW4 3044   3.578   0.116   1.105 -0.1125 -0.1668 -0.3301
  762SOL     OW 3045   3.217   3.546   0.361  0.4680 -0.9410  0.0022
  762SOL    HW2 3046   3.199   3.550   0.455  0.7475 -0.1675  0.0318
  762SOL    HW3 3047   3.306   3.579   0.352 -0.4774  1.5756 -0.7747
  762SOL    MW4 3048   3.226   3.551   0.372  0.3801 -0.5069 -0.0964
  763SOL     OW 3049   3.126   0.380   1.506  0.3218  0.0545 -0.1552
  763SOL    HW2 3050   3.123   0.289   1.478  0.3296  0.4864 -1.5782
  763SOL    HW3 3051   3.054   0.423   1.460  2.0825  1.3822 -1.7889
  763SOL    MW4 3052   3.116   0.374   1.497  0.5551  0.2867 -0.5585
  764SOL     OW 3053   4.051   2.474   1.309 -0.1484 -0.0245 -0.3938
  764SOL    HW2 3054   3.990   2.415   1.353 -0.2630  0.5327  0.1976
  764SOL    HW3 3055   4.137   2.436   1.324 -0.3831 -1.1223 -1.7077
  764SOL    MW4 3056   4.054   2.461   1.317 -0.1945 -0.0958 -0.4891
  765SOL     OW 3057   2.713   3.431   1.731 -0.2321  0.1002  0.9361
  765SOL    HW2 3058   2.631   3.478   1.748  0.7038  2.0723  0.1532
  765SOL    HW3 3059   2.712   3.415   1.637 -0.1197 -0.6622  1.0629
  765SOL    MW4 3060   2.702   3.435   1.721 -0.0938  0.2598  0.8496
  766SOL     OW 3061   0.016   2.422   1.299 -0.0865 -0.1045  0.1215
  766SOL    HW2 3062   0.037   2.504   1.343  1.0658  0.7512 -1.9383
  766SOL    HW3 3063   0.093   2.367   1.314 -0.5740 -0.5669  0.9331
  766SOL    MW4 3064   0.029   2.425   1.307  0.0012 -0.0526 -0.0432
  767SOL     OW 3065   2.070   1.270   1.119 -0.0975  0.1929  0.2478
  767SOL    HW2 3066   2.059   1.176   1.105  1.2678 -0.1738  1.4502
  767SOL    HW3 3067   2.069   1.279   1.215 -2.8523  1.7458  0.0980
  767SOL    MW4 3068   2.068   1.259   1.130 -0.2808  0.3494  0.3867
  768SOL     OW 3069   1.036   0.916   0.325  0.1720  0.0036  0.5345
  768SOL    HW2 3070   0.945   0.928   0.297 -0.3635 -1.2667  1.6998
  768SOL    HW3 3071   1.075   1.003   0.315 -0.3325 -0.0829 -2.8768
  768SOL    MW4 3072   1.029   0.929   0.320  0.0348 -0.1754  0.2382
  769SOL     OW 3073   4.468   2.439   0.491  0.1606  0.1808 -0.0566
  769SOL    HW2 3074   4.379   2.437   0.526  0.5820  0.6576  1.0435
  769SOL    HW3 3075   4.457   2.419   0.398 -1.0038 -0.6536  0.2472
  769SOL    MW4 3076   4.455   2.436   0.483  0.0626  0.1336  0.1287
  770SOL     OW 3077   4.239   2.051   1.345  0.3463  0.1278  0.0474
  770SOL    HW2 3078   4.321   2.013   1.374  0.9186  1.5756  0.3457
  770SOL    HW3 3079   4.245   2.143   1.368 -1.6523  0.1186  0.7001
  770SOL    MW4 3080   4.250   2.058   1.352  0.1581  0.3176  0.1729
  771SOL     OW 3081   4.458   0.597   0.946 -0.2189 -0.2112 -0.3867
  771SOL    HW2 3082   4.459   0.584   0.851 -1.5426 -0.5156 -0.3696
  771SOL    HW3 3083   4.464   0.692   0.958 -0.2895 -0.1560 -0.7817
  771SOL    MW4 3084   4.459   0.608   0.935 -0.4029 -0.2441 -0.4366
  772SOL     OW 3085   3.675   0.234   0.229  0.2389  0.3645 -0.5230
  772SOL    HW2 3086   3.654   0.227   0.136 -1.1482 -0.9854 -0.1332
  772SOL    HW3 3087   3.604   0.288   0.265 -0.2077 -0.5978  0.0518
  772SOL    MW4 3088   3.663   0.241   0.222 -0.0030  0.0594 -0.3957
  773SOL     OW 3089   1.354   2.954   0.996 -0.2380 -0.1905  0.3266
  773SOL    HW2 3090   1.353   2.948   0.900 -0.1809 -1.7355  0.4063
  773SOL    HW3 3091   1.277   2.904   1.024  0.3728 -0.7037  1.1187
  773SOL    MW4 3092   1.344   2.946   0.987 -0.1499 -0.4621  0.4416
  774SOL     OW 3093   3.827   1.807   0.947 -0.3051  0.3074 -0.1834
  774SOL    HW2 3094   3.803   1.779   0.859 -1.7919  0.7057  0.0772
  774SOL    HW3 3095   3.757   1.773   1.003  0.0356  1.0266  0.6936
  774SOL    MW4 3096   3.815   1.799   0.943 -0.4563  0.4549 -0.0333
  775SOL     OW 3097   2.127   1.757   0.324  0.5978 -0.3613  0.1849
  775SOL    HW2 3098   2.174   1.797   0.250 -0.3456 -0.0206 -0.2397
  775SOL    HW3 3099   2.104   1.831   0.380  0.0547 -0.4606  0.0948
  775SOL    MW4 3100   2.130   1.772   0.322  0.4017 -0.3294  0.1170
  776SOL     OW 3101   2.000   4.348   1.081 -0.4267  0.0802  0.0020
  776SOL    HW2 3102   2.081   4.379   1.041 -0.3551  0.1198  0.1784
  776SOL    HW3 3103   1.931   4.393   1.033 -0.3719 -0.5656 -0.6858
  776SOL    MW4 3104   2.002   4.358   1.069 -0.4101  0.0002 -0.0655
  777SOL     OW 3105   3.367   2.804   1.072  0.0466  0.2144 -0.1356
  777SOL    HW2 3106   3.380   2.817   1.166  1.4705  0.9605 -0.4152
  777SOL    HW3 3107   3.295   2.862   1.049 -0.1840  0.1683  0.4644
  777SOL    MW4 3108   3.359   2.814   1.081  0.2040  0.3068 -0.0933
  778SOL     OW 3109   4.052   4.565   0.941  0.1049 -0.1774  0.0163
  778SOL    HW2 3110   3.977   4.513   0.970 -0.1584 -0.0984 -0.5144
  778SOL    HW3 3111   4.127   4.507   0.953  0.1125  0.1772  1.7022
  778SOL    MW4 3112   4.052   4.550   0.946  0.0712 -0.1202  0.1687
  779SOL     OW 3113   0.902   1.393   0.927  0.6243 -0.3428 -0.2074
  779SOL    HW2 3114   0.830   1.352   0.974  1.1928 -0.0747  0.9226
  779SOL    HW3 3115   0.979   1.342   0.951  1.0559  0.3065 -0.1824
  779SOL    MW4 3116   0.903   1.381   0.936  0.7562 -0.2218 -0.0550
  780SOL     OW 3117   1.818   0.546   0.264 -0.2881  0.1382  0.4302
  780SOL    HW2 3118   1.905   0.555   0.303  0.2340  1.2145 -0.9650
  780SOL    HW3 3119   1.778   0.473   0.312  1.9778 -1.4368 -0.0061
  780SOL    MW4 3120   1.824   0.538   0.276  0.0797  0.0724  0.1886
  781SOL     OW 3121   0.688   4.395   1.321 -0.6705 -0.3523 -0.4983
  781SOL    HW2 3122   0.768   4.348   1.343 -0.1119  0.7808 -0.0812
  781SOL    HW3 3123   0.704   4.432   1.235 -1.2134 -1.1266 -0.9434
  781SOL    MW4 3124   0.700   4.393   1.313 -0.6684 -0.3050 -0.5020
  782SOL     OW 3125   1.800   0.335   1.410  0.7011  0.2504 -0.3453
  782SOL    HW2 3126   1.822   0.247   1.377  1.1718  0.4436 -0.5493
  782SOL    HW3 3127   1.869   0.391   1.376  0.7988  0.5773  0.3934
  782SOL    MW4 3128   1.812   0.331   1.401  0.7761  0.3190 -0.2748
  783SOL     OW 3129   4.276   1.016   0.709  0.1652 -0.4311  0.1725
  783SOL    HW2 3130   4.242   0.998   0.796 -0.5621  1.3470  0.2616
  783SOL    HW3 3131   4.202   1.053   0.660  0.2897 -2.2924 -1.5068
  783SOL    MW4 3132   4.262   1.019   0.714  0.0856 -0.4420 -0.0373
  784SOL     OW 3133   0.920   1.141   1.666 -0.2421 -0.5040 -0.0360
  784SOL    HW2 3134   0.867   1.209   1.707 -0.2595  0.8678 -2.2579
  784SOL    HW3 3135   0.906   1.152   1.572  3.0042 -0.8988 -0.6347
  784SOL    MW4 3136   0.912   1.151   1.659  0.1839 -0.3751 -0.4081
  785SOL     OW 3137   2.682   0.891   1.098 -0.1964 -0.9667  0.0771
  785SOL    HW2 3138   2.698   0.817   1.040  0.3170  0.4072 -1.5714
  785SOL    HW3 3139   2.603   0.932   1.063  0.0295 -0.2250  0.4304
  785SOL    MW4 3140   2.674   0.886   1.086 -0.0989 -0.6876 -0.0938
  786SOL     OW 3141   4.051   3.261   1.331  0.1515 -0.0207 -0.1158
  786SOL    HW2 3142   3.988   3.215   1.386 -0.4800 -0.5699 -1.2904
  786SOL    HW3 3143   4.044   3.353   1.358 -0.9216 -0.1216 -0.0325
  786SOL    MW4 3144   4.042   3.267   1.342 -0.0734 -0.1065 -0.2598
  787SOL     OW 3145   1.107   0.989   0.973  0.6317  0.3257  0.1882
  787SOL    HW2 3146   1.110   1.085   0.973  0.9516  0.3280  1.6333
  787SOL    HW3 3147   1.184   0.963   1.023  0.4295 -0.6746 -0.0182
  787SOL    MW4 3148   1.117   0.999   0.980  0.6472  0.1940  0.3516
  788SOL     OW 3149   3.585   3.522   0.585 -0.1187  0.1126 -0.2671
  788SOL    HW2 3150   3.659   3.510   0.525  0.4513 -0.7764  0.5936
  788SOL    HW3 3151   3.614   3.591   0.645 -0.8511  1.2916 -1.2610
  788SOL    MW4 3152   3.599   3.530   0.585 -0.1401  0.1508 -0.2847
  789SOL     OW 3153   0.880   0.132   1.098  0.3824  0.1737  0.3840
  789SOL    HW2 3154   0.805   0.160   1.046  0.9487 -0.6300 -0.8856
  789SOL    HW3 3155   0.878   0.036   1.094  2.7330  0.1448 -1.5441
  789SOL    MW4 3156   0.870   0.123   1.091  0.7672  0.0638 -0.0379
  790SOL     OW 3157   2.482   0.234   0.943 -0.1958  0.1819 -0.0552
  790SOL    HW2 3158   2.425   0.173   0.989  0.7639 -0.1612  0.7141
  790SOL    HW3 3159   2.501   0.303   1.007  0.4937  0.1281 -0.1901
  790SOL    MW4 3160   2.477   0.235   0.957  0.0218  0.1295  0.0285
  791SOL     OW 3161   1.509   3.920   0.303 -0.0061  0.1314  0.4157
  791SOL    HW2 3162   1.509   3.904   0.397 -1.0736  0.6913  0.5196
  791SOL    HW3 3163   1.548   4.007   0.293 -1.7122  0.9306  0.5145
  791SOL    MW4 3164   1.514   3.929   0.314 -0.3720  0.3107  0.4425
  792SOL     OW 3165   2.488   4.625   1.477  0.3117  0.0986 -0.6335
  792SOL    HW2 3166   2.487   4.625   1.572 -0.8147  1.4076 -0.6283
  792SOL    HW3 3167   2.561   4.682   1.454 -0.3547  1.0109 -0.5319
  792SOL    MW4 3168   2.497   4.633   1.486  0.0752  0.3916 -0.6194
  793SOL     OW 3169   3.135   4.394   0.630 -0.0623  0.1639  0.1551
  793SOL    HW2 3170   3.087   4.335   0.688 -0.2361 -0.1370 -0.2947
  793SOL    HW3 3171   3.208   4.341   0.597  1.3770  1.0034  1.8766
  793SOL    MW4 3172   3.138   4.379   0.633  0.1046  0.2350  0.3229
  794SOL     OW 3173   2.912   0.524   1.374  0.0207 -0.3884 -0.2116
  794SOL    HW2 3174   2.928   0.603   1.426 -0.7994 -0.9055  0.8555
  794SOL    HW3 3175   2.846   0.475   1.425 -1.5771 -0.4093 -2.2606
  794SOL    MW4 3176   2.905   0.528   1.388 -0.2983 -0.4594 -0.3411
  795SOL     OW 3177   2.766   3.657   0.688  0.1535 -0.5500  0.4232
  795SOL    HW2 3178   2.824   3.583   0.704  0.4872  0.0593  2.2888
  795SOL    HW3 3179   2.722   3.671   0.772 -1.5892 -0.0555 -0.5431
  795SOL    MW4 3180   2.768   3.649   0.701 -0.0324 -0.4043  0.5419
  796SOL     OW 3181   1.585   2.278   1.453 -0.3848  0.1787 -0.0095
  796SOL    HW2 3182   1.512   2.329   1.417 -0.1760  0.0627 -0.6099
  796SOL    HW3 3183   1.584   2.197   1.401  1.6288  1.1433 -1.5921
  796SOL    MW4 3184   1.575   2.274   1.441 -0.0915  0.2906 -0.2975
  797SOL     OW 3185   1.362   1.366   0.931  0.1945  0.3488  0.1131
  797SOL    HW2 3186   1.379   1.381   0.838  0.5430 -0.5263  0.0215
  797SOL    HW3 3187   1.440   1.318   0.962 -1.4770 -2.5369  0.0152
  797SOL    MW4 3188   1.375   1.361   0.923  0.0199 -0.1474  0.0881
  798SOL     OW 3189   1.846   1.363   0.987  0.0057  0.4408 -0.1937
  798SOL    HW2 3190   1.838   1.454   1.017  0.3062  0.0081  1.2443
  798SOL    HW3 3191   1.927   1.332   1.028 -0.0332 -0.4333 -0.7815
  798SOL    MW4 3192   1.856   1.371   0.997  0.0402  0.2684 -0.0815
  799SOL     OW 3193   2.906   3.232   0.328 -0.5407 -0.4970  0.1005
  799SOL    HW2 3194   2.853   3.260   0.403 -1.5302  1.3668 -1.2480
  799SOL    HW3 3195   2.996   3.256   0.352 -0.8114 -0.1151  0.7720
  799SOL    MW4 3196   2.911   3.239   0.341 -0.7070 -0.2007  0.0112
  800SOL     OW 3197   3.303   0.937   0.752 -0.6216  0.1071  0.2487
  800SOL    HW2 3198   3.244   1.004   0.717 -0.4142  1.0234  1.6347
  800SOL    HW3 3199   3.385   0.950   0.704 -0.7124  0.5568  0.2183
  800SOL    MW4 3200   3.306   0.947   0.741 -0.6062  0.2873  0.4276
  801SOL     OW 3201   0.676   0.996   0.955 -0.4047 -0.0542 -0.0919
  801SOL    HW2 3202   0.591   0.959   0.977 -1.1090  1.5511 -0.0970
  801SOL    HW3 3203   0.675   1.084   0.991  0.7649  0.4381 -1.1974
  801SOL    MW4 3204   0.665   1.003   0.962 -0.3433  0.2225 -0.2385
  802SOL     OW 3205   0.190   0.209   0.684  0.1402  0.2339  0.2532
  802SOL    HW2 3206   0.102   0.172   0.677 -0.1450  1.2296 -1.8572
  802SOL    HW3 3207   0.205   0.218   0.778 -2.0162  0.0387  0.6399
  802SOL    MW4 3208   0.181   0.205   0.696 -0.1819  0.3395  0.0258
  803SOL     OW 3209   4.333   2.851   1.360  0.3434  0.6440 -0.6819
  803SOL    HW2 3210   4.252   2.809   1.389 -0.0434  0.2112 -2.3288
  803SOL    HW3 3211   4.322   2.944   1.382 -1.2229  0.8378 -2.2343
  803SOL    MW4 3212   4.321   2.858   1.367  0.0857  0.6125 -1.1040
  804SOL     OW 3213   4.016   3.183   0.244 -0.0264 -0.3198  0.3749
  804SOL    HW2 3214   3.967   3.128   0.183  0.0490  0.3407 -0.2911
  804SOL    HW3 3215   4.085   3.223   0.190 -0.1831  0.5523  0.8135
  804SOL    MW4 3216   4.019   3.181   0.229 -0.0372 -0.1176  0.3449
  805SOL     OW 3217   0.967   4.157   0.314  0.8066 -0.2314  0.6227
  805SOL    HW2 3218   0.987   4.250   0.306  0.6822 -0.2623 -0.0955
  805SOL    HW3 3219   0.883   4.155   0.360  0.3100  0.0502 -0.2629
  805SOL    MW4 3220   0.958   4.169   0.319  0.7247 -0.1983  0.4111
  806SOL     OW 3221   0.250   1.233   0.547  0.0685 -0.0072 -0.2625
  806SOL    HW2 3222   0.305   1.292   0.599 -0.3619  0.5866 -0.4667
  806SOL    HW3 3223   0.216   1.170   0.610  0.6409 -0.1168 -0.0632
  806SOL    MW4 3224   0.253   1.233   0.562  0.0873  0.0567 -0.2631
  807SOL     OW 3225   2.661   2.654   0.544  0.3624 -0.0503  0.0576
  807SOL    HW2 3226   2.687   2.699   0.464  0.3044 -0.0523  0.0378
  807SOL    HW3 3227   2.723   2.685   0.610  1.2625 -1.0787 -0.2924
  807SOL    MW4 3228   2.673   2.664   0.542  0.4735 -0.1862  0.0088
  808SOL     OW 3229   2.317   3.837   0.671 -0.1487  0.6719 -0.5994
  808SOL    HW2 3230   2.359   3.918   0.700  1.6518  0.1801 -1.7206
  808SOL    HW3 3231   2.386   3.791   0.622 -1.3524 -1.2082 -0.5680
  808SOL    MW4 3232   2.332   3.842   0.669 -0.0699  0.3589 -0.7432
  809SOL     OW 3233   0.068   3.850   0.232  0.6073  0.0150  0.0490
  809SOL    HW2 3234   0.105   3.775   0.278  2.6656  0.7695 -0.3139
  809SOL    HW3 3235   0.125   3.924   0.257 -0.9819  1.3243 -0.1143
  809SOL    MW4 3236   0.081   3.850   0.241  0.6692  0.2873 -0.0204
  810SOL     OW 3237   2.894   2.685   0.705  0.0766  0.2961  0.1378
  810SOL    HW2 3238   2.932   2.617   0.650 -1.7011 -0.9588  0.4080
  810SOL    HW3 3239   2.911   2.656   0.795 -0.0647  0.5541  0.2511
  810SOL    MW4 3240   2.901   2.672   0.710 -0.1766  0.1646  0.1884
  811SOL     OW 3241   0.491   2.342   0.503  0.3318  0.1008 -0.0339
  811SOL    HW2 3242   0.433   2.379   0.570 -0.8963 -1.7728 -0.0476
  811SOL    HW3 3243   0.477   2.398   0.427 -1.0762 -0.0116  0.1264
  811SOL    MW4 3244   0.481   2.355   0.502 -0.0160 -0.1612 -0.0145
  812SOL     OW 3245   3.612   2.203   0.970  0.2112  0.0327  0.1657
  812SOL    HW2 3246   3.640   2.292   0.989 -0.2484  0.0681  0.6833
  812SOL    HW3 3247   3.685   2.149   1.002  0.8396  0.2528 -0.8635
  812SOL    MW4 3248   3.626   2.207   0.977  0.2335  0.0664  0.0982
  813SOL     OW 3249   0.220   1.271   1.073 -0.4202  0.1020 -0.1163
  813SOL    HW2 3250   0.232   1.295   1.165 -1.8173 -0.8106  0.3245
  813SOL    HW3 3251   0.302   1.296   1.031 -0.1394  1.4496  1.1824
  813SOL    MW4 3252   0.232   1.277   1.080 -0.5675  0.1594  0.1132
  814SOL     OW 3253   1.323   3.995   1.384  0.4514  0.2275 -0.0707
  814SOL    HW2 3254   1.398   3.937   1.398  0.7998  0.5222 -0.7327
  814SOL    HW3 3255   1.320   4.009   1.289  0.1654  1.0287  0.0537
  814SOL    MW4 3256   1.333   3.989   1.373  0.4596  0.3721 -0.1416
  815SOL     OW 3257   0.459   1.363   0.241  0.1993 -0.3540  0.1908
  815SOL    HW2 3258   0.463   1.419   0.318 -1.5171 -0.3973  0.3395
  815SOL    HW3 3259   0.382   1.395   0.193  1.8512  0.3706 -2.0503
  815SOL    MW4 3260   0.449   1.375   0.245  0.1908 -0.2641 -0.0853
  816SOL     OW 3261   4.221   0.991   0.979 -0.4732  0.2890 -0.1789
  816SOL    HW2 3262   4.303   0.951   1.010 -0.8653 -1.1556 -0.9616
  816SOL    HW3 3263   4.223   1.080   1.014  1.3176  0.1880  0.0298
  816SOL    MW4 3264   4.232   0.997   0.987 -0.2886  0.0851 -0.2547
  817SOL     OW 3265   2.287   2.568   0.402 -0.2304 -0.6331  0.1203
  817SOL    HW2 3266   2.339   2.640   0.365 -0.1792 -0.5681  0.3192
  817SOL    HW3 3267   2.197   2.599   0.398 -0.1130 -0.1629  1.1144
  817SOL    MW4 3268   2.282   2.582   0.396 -0.2082 -0.5625  0.2777
  818SOL     OW 3269   4.435   3.547   1.424  0.0901  0.1845 -0.2829
  818SOL    HW2 3270   4.441   3.552   1.519 -1.0586  0.4770 -0.2299
  818SOL    HW3 3271   4.365   3.607   1.400 -0.5771 -0.9247 -1.1973
  818SOL    MW4 3272   4.427   3.555   1.434 -0.1495  0.0767 -0.3966
  819SOL     OW 3273   0.464   0.888   0.605  0.1471  0.0961  0.0738
  819SOL    HW2 3274   0.486   0.889   0.512 -0.7949 -0.5805 -0.1570
  819SOL    HW3 3275   0.535   0.937   0.646  0.2295  0.9617 -1.0688
  819SOL    MW4 3276   0.477   0.895   0.598  0.0337  0.1210 -0.1074
  820SOL     OW 3277   1.321   2.660   1.455 -0.2334  0.0903 -0.0234
  820SOL    HW2 3278   1.404   2.693   1.421 -0.1448 -0.7753 -0.6680
  820SOL    HW3 3279   1.254   2.711   1.410 -0.0907 -0.4533 -0.8632
  820SOL    MW4 3280   1.323   2.671   1.445 -0.2029 -0.0956 -0.2193
  821SOL     OW 3281   1.325   0.605   0.964 -0.0303 -0.2976  0.3375
  821SOL    HW2 3282   1.413   0.569   0.977 -0.2938 -0.8619  0.5560
  821SOL    HW3 3283   1.322   0.626   0.871  0.5321  0.2486  0.4363
  821SOL    MW4 3284   1.336   0.603   0.953  0.0091 -0.3000  0.3794
  822SOL     OW 3285   1.558   3.832   1.430 -0.4010 -0.1164  0.3261
  822SOL    HW2 3286   1.565   3.820   1.525 -0.3862  0.3973  0.3907
  822SOL    HW3 3287   1.558   3.743   1.395  0.7417 -0.2831  0.7219
  822SOL    MW4 3288   1.559   3.818   1.438 -0.2483 -0.0706  0.3869
  823SOL     OW 3289   4.123   3.691   0.076  0.2269 -0.1877  0.0893
  823SOL    HW2 3290   4.049   3.638   0.044 -0.8403  0.7466  0.9657
  823SOL    HW3 3291   4.082   3.768   0.116  1.7521  1.2228 -0.9903
  823SOL    MW4 3292   4.108   3.694   0.077  0.2873  0.1217  0.0625
  824SOL     OW 3293   3.532   0.648   1.005  0.4524 -0.3792  0.2917
  824SOL    HW2 3294   3.616   0.610   1.030  0.5213 -0.4653 -0.0711
  824SOL    HW3 3295   3.525   0.631   0.911 -0.5444 -1.4635  0.5551
  824SOL    MW4 3296   3.543   0.641   0.996  0.3300 -0.5336  0.2786
  825SOL     OW 3297   2.484   0.780   1.472  0.1965  0.0751  0.5206
  825SOL    HW2 3298   2.560   0.825   1.435 -1.4178  1.8893 -0.6514
  825SOL    HW3 3299   2.495   0.689   1.445  1.8398  0.3636  0.1706
  825SOL    MW4 3300   2.496   0.774   1.463  0.2003  0.3525  0.3198
  826SOL     OW 3301   0.890   0.379   1.423 -0.4923  0.6061 -0.3860
  826SOL    HW2 3302   0.888   0.392   1.517  0.2322  0.0067 -0.2744
  826SOL    HW3 3303   0.906   0.285   1.412  0.4595  0.8287 -1.0833
  826SOL    MW4 3304   0.892   0.368   1.434 -0.2711  0.5564 -0.4633
  827SOL     OW 3305   0.452   4.040   1.342  0.4561  0.2783 -0.3436
  827SOL    HW2 3306   0.528   3.993   1.374  1.2432  1.3493 -0.6174
  827SOL    HW3 3307   0.463   4.043   1.247  1.2447  2.3821 -0.2209
  827SOL    MW4 3308   0.463   4.034   1.334  0.6640  0.6971 -0.3636
  828SOL     OW 3309   3.891   3.106   1.494 -0.3759 -0.1365  0.0174
  828SOL    HW2 3310   3.810   3.146   1.463  0.2108  1.5166  0.5163
  828SOL    HW3 3311   3.897   3.023   1.447 -1.0278  0.9218 -2.0393
  828SOL    MW4 3312   3.881   3.100   1.483 -0.3845  0.2212 -0.1881
  829SOL     OW 3313   2.931   1.538   1.457 -0.3706 -0.0273 -0.3883
  829SOL    HW2 3314   2.850   1.579   1.428 -0.2673  0.5344  0.1199
  829SOL    HW3 3315   3.001   1.586   1.412 -0.2232  0.6804  0.5799
  829SOL    MW4 3316   2.930   1.549   1.447 -0.3376  0.1402 -0.1935
  830SOL     OW 3317   3.195   3.543   0.639  0.5609  0.1118  0.4682
  830SOL    HW2 3318   3.217   3.621   0.690 -0.0867  0.4219  0.2770
  830SOL    HW3 3319   3.268   3.484   0.654  2.2504  1.7057 -1.3500
  830SOL    MW4 3320   3.207   3.546   0.648  0.6984  0.3630  0.2031
  831SOL     OW 3321   3.180   3.262   0.376  0.2656 -0.2991  0.2912
  831SOL    HW2 3322   3.239   3.212   0.432  0.2296  0.3158  0.8886
  831SOL    HW3 3323   3.227   3.344   0.360 -0.5353  0.2989  0.9904
  831SOL    MW4 3324   3.194   3.266   0.382  0.1552 -0.1391  0.4623
  832SOL     OW 3325   1.096   3.888   0.677  0.5990  0.1166  0.4210
  832SOL    HW2 3326   1.164   3.823   0.689  0.6392  0.3310  1.3917
  832SOL    HW3 3327   1.015   3.844   0.703  0.6954  0.6125  1.5546
  832SOL    MW4 3328   1.094   3.874   0.682  0.6170  0.2103  0.6987
  833SOL     OW 3329   0.508   4.021   1.053  0.4480  0.0129  0.2979
  833SOL    HW2 3330   0.494   3.930   1.026 -0.8633 -0.4500  2.4204
  833SOL    HW3 3331   0.423   4.063   1.037  1.0045  0.8331 -0.5288
  833SOL    MW4 3332   0.495   4.015   1.047  0.3484  0.0601  0.4688
  834SOL     OW 3333   1.796   2.749   0.520  0.1699 -0.0645 -0.1661
  834SOL    HW2 3334   1.762   2.812   0.585  0.2148  0.6778 -0.8564
  834SOL    HW3 3335   1.823   2.674   0.572 -0.1083  0.3925  0.6538
  834SOL    MW4 3336   1.795   2.748   0.536  0.1391  0.0938 -0.1490
  835SOL     OW 3337   2.122   1.456   0.553 -0.1921 -0.4470  0.4078
  835SOL    HW2 3338   2.030   1.472   0.570  0.4995  1.0866  3.0302
  835SOL    HW3 3339   2.149   1.393   0.619  0.5796 -1.1441 -0.5419
  835SOL    MW4 3340   2.114   1.450   0.564  0.0010 -0.3367  0.6285
  836SOL     OW 3341   2.469   3.608   1.074 -0.0489  0.1888 -0.2634
  836SOL    HW2 3342   2.447   3.590   1.166  0.4471 -1.8156 -0.4993
  836SOL    HW3 3343   2.396   3.659   1.041 -0.4125  0.6219  1.1550
  836SOL    MW4 3344   2.457   3.612   1.082 -0.0314 -0.0185 -0.1074
  837SOL     OW 3345   1.330   0.866   1.084 -0.4919  0.0099  0.3977
  837SOL    HW2 3346   1.329   0.778   1.045  1.4202  0.2719 -0.2894
  837SOL    HW3 3347   1.397   0.913   1.035  0.3346  1.0635  2.4971
  837SOL    MW4 3348   1.338   0.860   1.072 -0.1306  0.1835  0.5840
  838SOL     OW 3349   2.052   2.291   1.441 -0.2425  0.1737  0.2168
  838SOL    HW2 3350   2.046   2.308   1.534 -1.1512 -0.1438  0.2198
  838SOL    HW3 3351   1.971   2.325   1.404  0.5142  1.1287 -0.5889
  838SOL    MW4 3352   2.041   2.297   1.448 -0.2625  0.2578  0.1109
  839SOL     OW 3353   3.493   0.426   0.331  0.3944  0.0922  0.0620
  839SOL    HW2 3354   3.521   0.512   0.298  0.1619  0.2596  0.2923
  839SOL    HW3 3355   3.442   0.447   0.410 -1.6742 -0.1065 -1.1775
  839SOL    MW4 3356   3.490   0.440   0.337  0.0908  0.0881 -0.0711
  840SOL     OW 3357   3.657   3.215   1.392  0.0437  0.5329  0.0209
  840SOL    HW2 3358   3.648   3.216   1.296  1.0439  0.8689 -0.0705
  840SOL    HW3 3359   3.572   3.184   1.423  0.2737 -1.2176 -1.0407
  840SOL    MW4 3360   3.644   3.211   1.383  0.2060  0.3463 -0.1312
  841SOL     OW 3361   4.171   0.068   0.560 -0.2693  0.3375 -0.4764
  841SOL    HW2 3362   4.181   0.077   0.465  1.5406  0.8280 -0.2492
  841SOL    HW3 3363   4.145  -0.023   0.573 -0.8643  0.3579 -1.4667
  841SOL    MW4 3364   4.169   0.057   0.549 -0.1090  0.4049 -0.5771
  842SOL     OW 3365   2.007   3.032   1.699  0.3921 -0.3716 -0.0484
  842SOL    HW2 3366   1.929   3.078   1.729  1.6240  1.8722 -0.1760
  842SOL    HW3 3367   2.004   2.947   1.744 -1.2977  0.2809  1.1151
  842SOL    MW4 3368   1.996   3.026   1.709  0.3317  0.0106  0.0883
  843SOL     OW 3369   2.334   1.667   0.501  0.1790  0.3607 -0.0698
  843SOL    HW2 3370   2.301   1.712   0.423  0.1552  0.8465  0.2164
  843SOL    HW3 3371   2.256   1.629   0.542  0.0698  0.8878  0.2130
  843SOL    MW4 3372   2.319   1.668   0.496  0.1615  0.4944  0.0053
  844SOL     OW 3373   0.260   0.192   0.292 -0.1313  0.0003 -0.1737
  844SOL    HW2 3374   0.196   0.123   0.305 -1.0695  0.6680 -1.1859
  844SOL    HW3 3375   0.324   0.179   0.361 -1.0797 -0.9948  0.5209
  844SOL    MW4 3376   0.260   0.181   0.303 -0.3802 -0.0429 -0.2156
  845SOL     OW 3377   1.823   3.459   1.692  0.2886  0.6452 -0.3236
  845SOL    HW2 3378   1.825   3.367   1.720 -0.3908  1.0446  1.0512
  845SOL    HW3 3379   1.743   3.494   1.729  0.7014  1.8888 -0.5866
  845SOL    MW4 3380   1.813   3.451   1.701  0.2534  0.8620 -0.1769
  846SOL     OW 3381   0.222   1.306   1.355 -0.3081 -0.1486  0.9978
  846SOL    HW2 3382   0.212   1.401   1.361  0.9406  0.1358 -0.9757
  846SOL    HW3 3383   0.138   1.271   1.385 -0.6300  1.5608  2.1324
  846SOL    MW4 3384   0.210   1.314   1.360 -0.1858  0.1145  0.8871
  847SOL     OW 3385   1.506   1.845   0.733 -0.1741 -0.0955 -0.4008
  847SOL    HW2 3386   1.544   1.803   0.810 -0.8629  1.0371  0.5605
  847SOL    HW3 3387   1.577   1.898   0.697 -0.0068 -0.2163 -0.2485
  847SOL    MW4 3388   1.521   1.846   0.738 -0.2429  0.0380 -0.2539
  848SOL     OW 3389   0.204   0.217   0.967  0.2057  0.3839 -0.3939
  848SOL    HW2 3390   0.291   0.192   0.996 -0.6000 -0.9933  0.8969
  848SOL    HW3 3391   0.194   0.308   0.995  0.3367 -0.1925  1.5860
  848SOL    MW4 3392   0.214   0.226   0.974  0.1167  0.1261  0.0376
  849SOL     OW 3393   0.618   3.231   0.672  0.1549 -0.3950 -0.4295
  849SOL    HW2 3394   0.711   3.223   0.648  0.3861  0.1657  0.2775
  849SOL    HW3 3395   0.619   3.268   0.760 -0.7416 -0.6263 -0.3204
  849SOL    MW4 3396   0.631   3.235   0.680  0.0671 -0.3516 -0.3218
  850SOL     OW 3397   1.827   2.147   0.957  0.3031  0.0469  0.2642
  850SOL    HW2 3398   1.815   2.232   0.998 -0.4818 -0.4264  1.0331
  850SOL    HW3 3399   1.905   2.110   0.999  0.8271  0.5029 -0.2895
  850SOL    MW4 3400   1.836   2.153   0.968  0.2687  0.0446  0.2926
  851SOL     OW 3401   0.044   0.025   0.362 -0.0754  0.1217 -0.1196
  851SOL    HW2 3402  -0.029  -0.035   0.343  0.1017 -0.0416 -0.2808
  851SOL    HW3 3403   0.003   0.111   0.370  0.1619  0.6601 -3.8497
  851SOL    MW4 3404   0.029   0.028   0.361 -0.0207  0.1712 -0.6330
  852SOL     OW 3405   2.713   2.760   0.292  0.1086 -0.1384 -0.0404
  852SOL    HW2 3406   2.772   2.691   0.262 -0.9955 -1.9900  1.8467
  852SOL    HW3 3407   2.768   2.837   0.303  1.5850 -1.0198 -1.1411
  852SOL    MW4 3408   2.728   2.761   0.289  0.1577 -0.4990  0.0634
  853SOL     OW 3409   2.275   0.388   1.466 -1.0470 -0.3317 -0.0969
  853SOL    HW2 3410   2.264   0.294   1.448 -0.0021 -0.6983  1.1075
  853SOL    HW3 3411   2.291   0.393   1.560  0.9600  0.8619 -0.4718
  853SOL    MW4 3412   2.276   0.376   1.476 -0.6444 -0.2226  0.0125
  854SOL     OW 3413   2.881   1.061   1.011 -0.5724 -0.2596  0.5793
  854SOL    HW2 3414   2.807   1.010   1.044 -0.9058 -0.2928 -0.2146
  854SOL    HW3 3415   2.957   1.005   1.026 -1.0254 -1.3439 -0.9941
  854SOL    MW4 3416   2.881   1.047   1.017 -0.6762 -0.4070  0.2670
  855SOL     OW 3417   2.232   4.468   1.007  0.2109 -0.0603  0.2878
  855SOL    HW2 3418   2.218   4.560   1.028 -1.4849  0.1725 -1.6754
  855SOL    HW3 3419   2.232   4.465   0.911  1.0977 -1.9873  0.3221
  855SOL    MW4 3420   2.230   4.479   0.997  0.1042 -0.2838  0.0333
  856SOL     OW 3421   3.587   0.902   1.369  0.1991 -0.3705  0.4325
  856SOL    HW2 3422   3.666   0.849   1.377  0.6231  0.3408  0.9554
  856SOL    HW3 3423   3.517   0.845   1.399  0.6267 -0.7127  0.7896
  856SOL    MW4 3424   3.588   0.888   1.374  0.3115 -0.3218  0.5486
  857SOL     OW 3425   3.836   3.525   0.443 -0.0364  0.1150  0.8505
  857SOL    HW2 3426   3.829   3.472   0.364 -0.4182  1.1647  0.1726
  857SOL    HW3 3427   3.929   3.520   0.467  0.2916  0.6617 -0.2753
  857SOL    MW4 3428   3.847   3.518   0.436 -0.0435  0.3256  0.6125
  858SOL     OW 3429   4.424   2.379   0.201  0.4124  0.3260 -0.0995
  858SOL    HW2 3430   4.401   2.296   0.244  1.1962 -1.0599 -2.2526
  858SOL    HW3 3431   4.513   2.366   0.170  0.5475  1.9927 -0.4607
  858SOL    MW4 3432   4.432   2.366   0.202  0.5337  0.3631 -0.4312
  859SOL     OW 3433   2.263   4.234   1.445  0.0375  0.4664  0.7920
  859SOL    HW2 3434   2.182   4.273   1.413  0.1438 -1.6394 -2.3255
  859SOL    HW3 3435   2.329   4.303   1.436 -0.6995  1.0645 -0.1316
  859SOL    MW4 3436   2.261   4.248   1.439 -0.0457  0.2675  0.2588
  860SOL     OW 3437   1.611   1.509   1.474 -0.0379  0.0374 -0.3761
  860SOL    HW2 3438   1.530   1.541   1.432 -0.6077  0.4180  0.9902
  860SOL    HW3 3439   1.585   1.490   1.564  1.3338 -0.1450 -0.0152
  860SOL    MW4 3440   1.597   1.511   1.480  0.0679  0.0635 -0.1482
  861SOL     OW 3441   4.006   3.523   1.439 -0.0221  0.2147  0.0848
  861SOL    HW2 3442   3.990   3.511   1.532 -0.2274 -2.3314 -0.2487
  861SOL    HW3 3443   3.920   3.539   1.402 -0.3533 -1.7628 -0.0580
  861SOL    MW4 3444   3.993   3.524   1.446 -0.0929 -0.3821  0.0219
  862SOL     OW 3445   2.468   2.307   1.417 -0.1878  0.2857  0.5474
  862SOL    HW2 3446   2.546   2.358   1.394 -0.2183 -0.2619 -0.7743
  862SOL    HW3 3447   2.464   2.313   1.513  1.5364  0.2282  0.6475
  862SOL    MW4 3448   2.478   2.315   1.427  0.0356  0.2059  0.3862
  863SOL     OW 3449   3.610   2.317   0.290  0.4548 -0.2858 -0.0135
  863SOL    HW2 3450   3.680   2.309   0.225  0.7400 -1.3763  0.4156
  863SOL    HW3 3451   3.654   2.346   0.370  0.2897 -0.1342  0.0218
  863SOL    MW4 3452   3.625   2.320   0.292  0.4706 -0.4097  0.0478
  864SOL     OW 3453   0.409   3.467   1.413 -0.1649 -0.0682 -0.1283
  864SOL    HW2 3454   0.395   3.473   1.507  0.2314 -1.0258 -0.0123
  864SOL    HW3 3455   0.358   3.541   1.377 -1.5075 -0.5731  0.6967
  864SOL    MW4 3456   0.400   3.478   1.421 -0.2897 -0.2612 -0.0041
  865SOL     OW 3457   4.467   0.105   1.098  0.2502 -0.0547  0.2225
  865SOL    HW2 3458   4.556   0.129   1.073  0.1060 -1.0040 -1.2815
  865SOL    HW3 3459   4.412   0.139   1.027 -0.5099 -0.0736  0.7986
  865SOL    MW4 3460   4.471   0.112   1.085  0.1308 -0.1825  0.1001
  866SOL     OW 3461   1.783   0.045   1.015  0.5516 -0.2425  0.6258
  866SOL    HW2 3462   1.863   0.098   1.012 -0.0551  0.8098  2.2767
  866SOL    HW3 3463   1.716   0.100   0.975  0.2489 -0.3707  0.9527
  866SOL    MW4 3464   1.785   0.059   1.009  0.4316 -0.1206  0.8868
  867SOL     OW 3465   4.415   3.662   0.073 -0.1532 -0.2794  0.3361
  867SOL    HW2 3466   4.323   3.684   0.065 -0.1298 -0.4910 -0.4933
  867SOL    HW3 3467   4.455   3.740   0.113 -0.3505  0.5571 -1.0875
  867SOL    MW4 3468   4.408   3.676   0.077 -0.1762 -0.1970  0.0389
  868SOL     OW 3469   2.004   2.833   1.059  0.2371 -0.0908  0.3697
  868SOL    HW2 3470   1.998   2.825   1.154 -2.7492 -1.7842  0.0916
  868SOL    HW3 3471   2.013   2.743   1.028  0.3397  0.3956 -1.0233
  868SOL    MW4 3472   2.005   2.820   1.068 -0.1434 -0.2500  0.1492
  869SOL     OW 3473   1.998   0.389   0.061  0.0205 -0.1762  0.5329
  869SOL    HW2 3474   1.998   0.462  -0.001  0.9257 -0.8460 -0.2701
  869SOL    HW3 3475   1.960   0.425   0.141  0.4934  1.1828  0.1526
  869SOL    MW4 3476   1.993   0.403   0.063  0.2023 -0.0853  0.3768
  870SOL     OW 3477   0.960   3.446   0.321  0.1570  0.0565 -0.3308
  870SOL    HW2 3478   0.947   3.354   0.302 -0.1605  0.2663 -1.1407
  870SOL    HW3 3479   1.055   3.457   0.322  0.2488 -0.6696  1.7239
  870SOL    MW4 3480   0.971   3.436   0.319  0.1272 -0.0117 -0.1665
  871SOL     OW 3481   2.294   1.372   0.970 -0.3005  0.6116 -0.2508
  871SOL    HW2 3482   2.220   1.344   1.024  0.5406  0.6708  0.9443
  871SOL    HW3 3483   2.298   1.467   0.983 -1.0844  0.8606 -1.6910
  871SOL    MW4 3484   2.284   1.381   0.979 -0.2930  0.6523 -0.2832
  872SOL     OW 3485   0.884   3.229   1.018 -0.4077 -0.5127  0.2491
  872SOL    HW2 3486   0.956   3.276   0.976 -1.6325 -0.5642 -1.9388
  872SOL    HW3 3487   0.900   3.241   1.112  2.2523 -0.2238 -0.1862
  872SOL    MW4 3488   0.896   3.237   1.025 -0.2183 -0.4814 -0.0970
  873SOL     OW 3489   2.242   1.929   1.445  0.2910  0.1505  0.0811
  873SOL    HW2 3490   2.318   1.968   1.401  0.3590  1.2964  1.1715
  873SOL    HW3 3491   2.258   1.944   1.538 -0.6744 -0.7222  0.4015
  873SOL    MW4 3492   2.254   1.936   1.451  0.1726  0.1866  0.2672
  874SOL     OW 3493   4.262   3.738   0.536  0.3822  0.3068  0.0789
  874SOL    HW2 3494   4.225   3.792   0.605  0.2161  0.6290 -0.2581
  874SOL    HW3 3495   4.212   3.656   0.540  1.1129 -0.0987  1.0498
  874SOL    MW4 3496   4.250   3.734   0.545  0.4567  0.2958  0.1626
  875SOL     OW 3497   0.193   3.674   1.352  0.3326  0.0847 -0.2192
  875SOL    HW2 3498   0.185   3.694   1.259  0.1223  1.0666  0.0058
  875SOL    HW3 3499   0.110   3.633   1.375  0.3417 -0.0599 -0.4376
  875SOL    MW4 3500   0.181   3.671   1.343  0.3060  0.1952 -0.2184
  876SOL     OW 3501   2.687   0.174   0.514 -0.5752  0.2764  0.1393
  876SOL    HW2 3502   2.713   0.254   0.560 -1.2590  0.9314 -0.5966
  876SOL    HW3 3503   2.757   0.111   0.533  1.0741  1.7185 -1.0490
  876SOL    MW4 3504   2.699   0.176   0.523 -0.4478  0.5531 -0.1146
  877SOL     OW 3505   2.369   3.071   0.349 -0.2795  0.1986  0.1750
  877SOL    HW2 3506   2.378   3.156   0.305  1.5166 -0.3968 -0.6427
  877SOL    HW3 3507   2.404   3.085   0.437  0.0500  0.3017  0.0278
  877SOL    MW4 3508   2.374   3.084   0.355  0.0009  0.1337  0.0477
  878SOL     OW 3509   3.279   0.264   0.206  0.4301  0.0921  0.6165
  878SOL    HW2 3510   3.207   0.326   0.193 -0.6482 -1.3200 -0.2418
  878SOL    HW3 3511   3.351   0.318   0.236 -0.6090  1.7245  0.2539
  878SOL    MW4 3512   3.279   0.280   0.208  0.1507  0.1212  0.4554
  879SOL     OW 3513   2.610   0.577   0.722  0.6675 -0.3741 -0.0752
  879SOL    HW2 3514   2.627   0.619   0.638  0.8209  0.5616  0.4151
  879SOL    HW3 3515   2.660   0.629   0.785 -2.1150  1.0167  1.0692
  879SOL    MW4 3516   2.619   0.589   0.719  0.3206 -0.0671  0.1405
  880SOL     OW 3517   0.472   0.081   1.382 -1.0255 -0.0179  0.1956
  880SOL    HW2 3518   0.467   0.174   1.405 -0.5865 -0.3271  1.5746
  880SOL    HW3 3519   0.549   0.049   1.428 -0.4944 -0.8163 -1.2136
  880SOL    MW4 3520   0.482   0.089   1.391 -0.8975 -0.1640  0.1916
  881SOL     OW 3521   4.257   0.245   0.933 -0.0380 -0.3661 -0.3325
  881SOL    HW2 3522   4.255   0.330   0.977 -1.8744 -0.3667 -0.3836
  881SOL    HW3 3523   4.183   0.197   0.970  0.0862 -1.3967 -1.3940
  881SOL    MW4 3524   4.247   0.250   0.943 -0.2639 -0.5021 -0.4793
  882SOL     OW 3525   2.051   1.002   1.046 -0.5158  0.1958 -0.1770
  882SOL    HW2 3526   2.054   1.025   0.953  0.7952  0.4767 -0.0638
  882SOL    HW3 3527   2.123   0.941   1.059 -0.6834  0.1666  0.6706
  882SOL    MW4 3528   2.061   0.997   1.036 -0.3650  0.2290 -0.0502
  883SOL     OW 3529   2.815   1.567   0.356  0.3492  0.6649 -0.1300
  883SOL    HW2 3530   2.870   1.555   0.434  0.5846 -1.1611 -0.5630
  883SOL    HW3 3531   2.725   1.565   0.389  0.4565  0.1805  0.1304
  883SOL    MW4 3532   2.810   1.566   0.371  0.3944  0.3600 -0.1527
  884SOL     OW 3533   0.924   3.474   1.456 -0.0442 -0.0012 -0.0523
  884SOL    HW2 3534   0.843   3.511   1.422  0.6804  2.1140  0.4694
  884SOL    HW3 3535   0.994   3.519   1.407  0.8513 -0.9400  0.3382
  884SOL    MW4 3536   0.923   3.485   1.445  0.1696  0.1540  0.0681
  885SOL     OW 3537   2.526   3.682   0.548  0.1172  0.3137 -0.4070
  885SOL    HW2 3538   2.610   3.677   0.594  0.1384 -1.7279 -0.6593
  885SOL    HW3 3539   2.515   3.596   0.507 -0.4434  1.6689 -3.2692
  885SOL    MW4 3540   2.536   3.670   0.549  0.0460  0.2231 -0.8179
  886SOL     OW 3541   2.661   2.679   1.453 -0.2303 -0.3977  0.4232
  886SOL    HW2 3542   2.667   2.604   1.392  0.4354  0.2800 -0.3589
  886SOL    HW3 3543   2.739   2.731   1.434  0.8954 -1.0510  3.0715
  886SOL    MW4 3544   2.672   2.676   1.442  0.0060 -0.3945  0.6694
  887SOL     OW 3545   2.930   1.840   0.937  0.1565  0.1139  0.1452
  887SOL    HW2 3546   2.879   1.779   0.990 -0.0670  0.2659  0.1022
  887SOL    HW3 3547   2.936   1.919   0.990 -0.6827  0.5180 -0.3659
  887SOL    MW4 3548   2.924   1.842   0.951  0.0163  0.1873  0.0721
  888SOL     OW 3549   1.669   4.175   0.330 -0.0972  0.3051 -0.2851
  888SOL    HW2 3550   1.651   4.210   0.417 -2.3617 -1.7418  0.1269
  888SOL    HW3 3551   1.760   4.146   0.334  1.1833  4.1234  0.0042
  888SOL    MW4 3552   1.678   4.176   0.342 -0.2271  0.5388 -0.1925
  889SOL     OW 3553   2.408   0.149   0.486 -0.2887 -0.4949  0.1577
  889SOL    HW2 3554   2.366   0.190   0.562  0.6386  2.8514 -1.0375
  889SOL    HW3 3555   2.501   0.166   0.497  0.0352 -1.4713 -0.8908
  889SOL    MW4 3556   2.414   0.157   0.497 -0.1236 -0.1822 -0.1383
  890SOL     OW 3557   0.725   2.567   1.005 -0.3567 -0.1075 -0.2891
  890SOL    HW2 3558   0.700   2.656   1.032 -0.0891 -0.4978  1.2946
  890SOL    HW3 3559   0.734   2.573   0.910 -1.5360  1.2685 -0.3414
  890SOL    MW4 3560   0.723   2.580   0.996 -0.4770  0.0225 -0.0870
  891SOL     OW 3561   3.606   1.956   1.445 -0.3500  0.2324 -0.3439
  891SOL    HW2 3562   3.614   1.876   1.392 -0.1880  0.3185 -0.4488
  891SOL    HW3 3563   3.523   1.995   1.418 -0.4924  0.0314 -0.1992
  891SOL    MW4 3564   3.596   1.951   1.435 -0.3474  0.2172 -0.3387
  892SOL     OW 3565   4.384   1.275   0.715 -0.0224 -0.2424  0.7096
  892SOL    HW2 3566   4.391   1.180   0.723  1.7912 -0.2115 -0.2360
  892SOL    HW3 3567   4.415   1.309   0.799 -1.8255 -0.4925  1.5061
  892SOL    MW4 3568   4.389   1.267   0.727 -0.0210 -0.2713  0.6899
  893SOL     OW 3569   3.431   3.094   1.462 -0.3240 -0.4192 -0.0808
  893SOL    HW2 3570   3.410   3.087   1.555  0.2623 -2.0132 -0.0663
  893SOL    HW3 3571   3.351   3.128   1.422 -0.7098 -0.1192  0.9398
  893SOL    MW4 3572   3.418   3.098   1.469 -0.2975 -0.5899  0.0558
  894SOL     OW 3573   0.711   0.538   1.267  0.3924  0.2492 -0.2548
  894SOL    HW2 3574   0.771   0.484   1.317 -0.1669 -0.0017  0.1459
  894SOL    HW3 3575   0.695   0.615   1.322 -2.0978 -1.1316  1.0292
  894SOL    MW4 3576   0.717   0.541   1.281 -0.0099  0.0339 -0.0325
  895SOL     OW 3577   0.223   3.421   0.701  0.2350 -0.5717 -0.2111
  895SOL    HW2 3578   0.162   3.367   0.651 -0.8158 -1.2823  1.7934
  895SOL    HW3 3579   0.218   3.508   0.660 -0.2497 -1.2664 -1.6240
  895SOL    MW4 3580   0.214   3.426   0.689  0.0324 -0.7572 -0.1331
  896SOL     OW 3581   3.303   0.884   0.402  0.1996 -0.3142 -0.2385
  896SOL    HW2 3582   3.361   0.821   0.444 -0.3743 -0.8449 -0.2339
  896SOL    HW3 3583   3.280   0.946   0.472  0.1827 -0.5206 -0.0609
  896SOL    MW4 3584   3.307   0.884   0.417  0.1216 -0.4115 -0.2145
  897SOL     OW 3585   2.738   2.455   1.000  0.1184 -0.1752  0.1676
  897SOL    HW2 3586   2.728   2.360   1.007  0.7547 -0.1180  2.1965
  897SOL    HW3 3587   2.654   2.485   0.964 -0.0850 -1.5116 -0.4790
  897SOL    MW4 3588   2.725   2.446   0.996  0.1755 -0.3440  0.3500
  898SOL     OW 3589   1.406   3.358   0.155 -0.2511 -0.5415 -0.4203
  898SOL    HW2 3590   1.347   3.401   0.217  1.4392  0.7549  0.3293
  898SOL    HW3 3591   1.425   3.425   0.089  0.0569 -1.0744 -0.8758
  898SOL    MW4 3592   1.401   3.373   0.154  0.0126 -0.4407 -0.3815
  899SOL     OW 3593   3.877   4.251   0.449 -0.2920 -0.2197  0.1248
  899SOL    HW2 3594   3.962   4.216   0.474  0.0231  0.7158  0.3619
  899SOL    HW3 3595   3.883   4.345   0.466 -1.5869 -0.2367  0.7530
  899SOL    MW4 3596   3.889   4.259   0.454 -0.4213 -0.0986  0.2390
  900SOL     OW 3597   3.994   0.895   1.078 -0.4126 -0.1083 -0.5113
  900SOL    HW2 3598   3.934   0.936   1.015 -0.9045  2.2203  1.3988
  900SOL    HW3 3599   4.081   0.924   1.051 -0.5944  0.6245 -0.3180
  900SOL    MW4 3600   3.997   0.904   1.066 -0.5015  0.2956 -0.2338
  901SOL     OW 3601   1.528   0.493   0.612 -0.2281 -0.4334  0.1936
  901SOL    HW2 3602   1.467   0.565   0.627  1.6724  1.1509  0.5087
  901SOL    HW3 3603   1.488   0.418   0.657 -1.5455  0.7549  1.0485
  901SOL    MW4 3604   1.515   0.492   0.620 -0.1512 -0.0676  0.3480
  902SOL     OW 3605   3.404   0.799   1.741 -0.2251  0.1732  0.2005
  902SOL    HW2 3606   3.320   0.823   1.782 -0.5919  0.4453 -0.6805
  902SOL    HW3 3607   3.407   0.704   1.746  0.1891  0.2553  1.7225
  902SOL    MW4 3608   3.393   0.790   1.747 -0.2189  0.2199  0.2851
  903SOL     OW 3609   2.934   3.557   1.416 -0.1723 -0.1108 -0.3682
  903SOL    HW2 3610   2.919   3.546   1.322 -1.7239  0.9907 -0.2667
  903SOL    HW3 3611   2.865   3.507   1.458  0.9951 -1.2688  0.2251
  903SOL    MW4 3612   2.923   3.549   1.409 -0.2230 -0.1182 -0.2765
  904SOL     OW 3613   3.375   2.494   0.261 -0.4603  0.1211  0.3396
  904SOL    HW2 3614   3.434   2.569   0.262  0.8821 -0.8680 -1.3270
  904SOL    HW3 3615   3.433   2.418   0.259 -1.7895 -1.0167  2.9464
  904SOL    MW4 3616   3.391   2.494   0.261 -0.4585 -0.1595  0.4636
  905SOL     OW 3617   2.806   3.505   0.236 -0.1843  0.0117 -0.8161
  905SOL    HW2 3618   2.835   3.415   0.250 -0.7812  0.2268  2.1497
  905SOL    HW3 3619   2.716   3.497   0.204 -0.2292 -0.4517 -0.5696
  905SOL    MW4 3620   2.798   3.492   0.234 -0.2690 -0.0211 -0.3923
  906SOL     OW 3621   2.720   3.410   1.469 -0.2500  0.3867 -0.4146
  906SOL    HW2 3622   2.653   3.465   1.428 -0.6716  0.6296  0.5764
  906SOL    HW3 3623   2.717   3.328   1.420 -3.6890 -0.9044  1.7201
  906SOL    MW4 3624   2.711   3.407   1.457 -0.7593  0.2484 -0.0022
  907SOL     OW 3625   4.077   3.940   0.985  0.1018 -0.0665  0.0032
  907SOL    HW2 3626   4.108   3.859   1.026 -0.6263 -0.6033 -0.5002
  907SOL    HW3 3627   4.153   3.997   0.986  0.0568 -0.0134  2.2356
  907SOL    MW4 3628   4.091   3.937   0.990 -0.0002 -0.1303  0.2313
  908SOL     OW 3629   1.347   0.874   1.347 -0.6582  0.3142 -0.0790
  908SOL    HW2 3630   1.421   0.816   1.368 -1.0778  0.5453  2.1481
  908SOL    HW3 3631   1.339   0.869   1.252  1.0302 -1.1916 -0.1676
  908SOL    MW4 3632   1.356   0.865   1.338 -0.4908  0.1460  0.2032
  909SOL     OW 3633   2.869   1.832   0.243  0.2128 -0.3063  0.5463
  909SOL    HW2 3634   2.779   1.860   0.258  0.2853  0.5498 -0.6110
  909SOL    HW3 3635   2.875   1.748   0.289 -1.2426 -0.5033  0.4085
  909SOL    MW4 3636   2.858   1.824   0.251  0.0304 -0.2193  0.3755
  910SOL     OW 3637   3.573   4.540   0.683 -0.1134  0.5174 -0.2102
  910SOL    HW2 3638   3.578   4.531   0.778  0.9901 -0.0712 -0.3197
  910SOL    HW3 3639   3.501   4.482   0.658  0.7171 -0.6723  0.0990
  910SOL    MW4 3640   3.564   4.531   0.692  0.1418  0.2828 -0.1838
  911SOL     OW 3641   2.708   1.923   1.455  0.5729 -0.3321 -0.1468
  911SOL    HW2 3642   2.724   1.944   1.547 -0.7545 -2.2333  0.5321
  911SOL    HW3 3643   2.620   1.955   1.438  1.0561  0.6094 -0.9744
  911SOL    MW4 3644   2.699   1.930   1.465  0.4615 -0.4587 -0.1664
  912SOL     OW 3645   2.263   0.079   1.351 -0.1276 -0.4166  0.1378
  912SOL    HW2 3646   2.187   0.030   1.384  1.3771 -2.5812  0.4684
  912SOL    HW3 3647   2.339   0.033   1.385  1.3912  0.9888 -1.2228
  912SOL    MW4 3648   2.263   0.067   1.360  0.2713 -0.5168  0.0019
  913SOL     OW 3649   0.537   2.922   0.263  0.2391 -0.5748  0.1601
  913SOL    HW2 3650   0.510   2.966   0.344 -0.9085 -2.3275  0.7638
  913SOL    HW3 3651   0.614   2.871   0.288 -0.7418 -1.9552  0.4354
  913SOL    MW4 3652   0.544   2.921   0.277 -0.0417 -0.9882  0.2761
  914SOL     OW 3653   3.401   3.077   1.733  0.0183  0.1948  0.0545
  914SOL    HW2 3654   3.389   2.998   1.785  0.5989  0.1063  0.0546
  914SOL    HW3 3655   3.464   3.130   1.783  0.0820  0.3954 -0.2361
  914SOL    MW4 3656   3.408   3.074   1.747  0.1033  0.2096  0.0162
  915SOL     OW 3657   1.555   0.995   0.971 -0.2579 -0.4037  0.1375
  915SOL    HW2 3658   1.583   1.083   0.995  1.0957 -0.5921 -0.7016
  915SOL    HW3 3659   1.626   0.938   1.000 -1.5369 -1.3365  1.5111
  915SOL    MW4 3660   1.568   0.999   0.978 -0.2480 -0.5516  0.2080
  916SOL     OW 3661   1.760   1.436   0.103  0.0334  0.3945  0.3032
  916SOL    HW2 3662   1.758   1.340   0.107  0.4266  0.3788  0.1417
  916SOL    HW3 3663   1.850   1.459   0.125  0.8473  0.5577 -2.9141
  916SOL    MW4 3664   1.772   1.426   0.106  0.1927  0.4139 -0.1426
  917SOL     OW 3665   2.456   4.389   1.342 -0.4633 -0.4161  0.4770
  917SOL    HW2 3666   2.538   4.342   1.354 -0.2512  0.0230  0.7529
  917SOL    HW3 3667   2.466   4.469   1.393 -0.8369 -0.0898  0.0482
  917SOL    MW4 3668   2.468   4.393   1.350 -0.4846 -0.3151  0.4568
  918SOL     OW 3669   3.619   1.413   0.882  0.8398  0.3993  0.1783
  918SOL    HW2 3670   3.669   1.414   0.800  1.2074  0.3170  0.4000
  918SOL    HW3 3671   3.622   1.503   0.913  1.0230  0.3526  0.2958
  918SOL    MW4 3672   3.626   1.425   0.875  0.9125  0.3823  0.2231
  919SOL     OW 3673   4.081   2.217   0.649  0.4560  0.1030 -0.4195
  919SOL    HW2 3674   4.059   2.206   0.742 -0.4751  0.5181 -0.5793
  919SOL    HW3 3675   4.156   2.160   0.635  0.5504 -0.0322  0.5719
  919SOL    MW4 3676   4.088   2.208   0.659  0.3456  0.1400 -0.3098
  920SOL     OW 3677   0.693   4.073   0.840  0.1339 -0.4384  0.6267
  920SOL    HW2 3678   0.695   3.998   0.779 -1.0588  0.4519 -0.5467
  920SOL    HW3 3679   0.627   4.049   0.904 -0.3329 -0.3574  0.1832
  920SOL    MW4 3680   0.685   4.060   0.840 -0.0850 -0.3103  0.4133
  921SOL     OW 3681   0.456   3.672   0.698 -0.8321 -0.3892 -0.0418
  921SOL    HW2 3682   0.483   3.591   0.655 -1.7569 -1.1638  0.7805
  921SOL    HW3 3683   0.369   3.690   0.662 -0.3760  0.5667 -0.6624
  921SOL    MW4 3684   0.448   3.664   0.688 -0.8939 -0.3652 -0.0152
  922SOL     OW 3685   3.832   4.606   1.462 -0.4825 -0.5271  0.0534
  922SOL    HW2 3686   3.756   4.657   1.432 -0.0538 -0.3487 -0.7327
  922SOL    HW3 3687   3.833   4.618   1.557 -1.1329 -0.1053  0.0101
  922SOL    MW4 3688   3.822   4.614   1.471 -0.5118 -0.4479 -0.0560
  923SOL     OW 3689   1.080   0.186   0.429 -0.4095 -0.6399 -0.4924
  923SOL    HW2 3690   1.084   0.281   0.417 -2.3150 -0.5560 -0.6053
  923SOL    HW3 3691   1.080   0.173   0.523 -1.0841 -0.4796 -0.4713
  923SOL    MW4 3692   1.081   0.197   0.440 -0.7499 -0.6077 -0.5045
  924SOL     OW 3693   3.502   1.082   0.363  0.2879  0.0978 -0.2683
  924SOL    HW2 3694   3.474   1.162   0.320 -0.4624  0.3573  0.6987
  924SOL    HW3 3695   3.426   1.024   0.358 -0.0897  0.4131  1.3913
  924SOL    MW4 3696   3.488   1.085   0.357  0.1391  0.1736  0.0782
  925SOL     OW 3697   1.786   4.449   0.954 -0.1419 -0.0469 -0.3539
  925SOL    HW2 3698   1.791   4.543   0.971  1.5679 -0.1967  0.0527
  925SOL    HW3 3699   1.702   4.421   0.992  0.8373  0.7140  2.4808
  925SOL    MW4 3700   1.775   4.457   0.961  0.2129  0.0337  0.0738
  926SOL     OW 3701   4.008   0.878   1.353 -0.4525  0.3637 -0.2065
  926SOL    HW2 3702   4.004   0.887   1.258  0.1729 -1.1112 -0.3764
  926SOL    HW3 3703   4.022   0.967   1.384  0.0857  0.7617 -1.5355
  926SOL    MW4 3704   4.009   0.891   1.344 -0.2990  0.2216 -0.4043
  927SOL     OW 3705   3.373   0.489   1.404 -0.4902  0.2049 -0.2295
  927SOL    HW2 3706   3.347   0.504   1.313 -0.1942 -0.0169 -0.3511
  927SOL    HW3 3707   3.294   0.459   1.448 -0.6251  0.2820 -0.4238
  927SOL    MW4 3708   3.359   0.487   1.398 -0.4689  0.1858 -0.2712
  928SOL     OW 3709   0.090   4.429   0.724  0.2015 -0.5450 -0.2904
  928SOL    HW2 3710   0.058   4.432   0.814 -0.5076  0.7102 -0.5752
  928SOL    HW3 3711   0.146   4.506   0.715  2.7984 -2.3248 -0.0197
  928SOL    MW4 3712   0.093   4.439   0.734  0.4505 -0.6142 -0.2922
  929SOL     OW 3713   4.028   1.164   1.445  0.0517 -0.1140  0.1726
  929SOL    HW2 3714   3.947   1.197   1.406  1.0042  1.6201 -0.4068
  929SOL    HW3 3715   4.015   1.171   1.539 -0.3153  0.5708  0.0712
  929SOL    MW4 3716   4.016   1.169   1.452  0.1290  0.2051  0.0828
  930SOL     OW 3717   3.805   1.278   1.349  0.6011  0.2713  0.7213
  930SOL    HW2 3718   3.814   1.273   1.254  1.6432 -0.9895  0.8766
  930SOL    HW3 3719   3.723   1.233   1.368 -0.0553  1.2838  0.3598
  930SOL    MW4 3720   3.796   1.272   1.339  0.6520  0.2386  0.6941
  931SOL     OW 3721   1.929   0.343   0.556 -0.2281 -0.1104 -0.3933
  931SOL    HW2 3722   1.872   0.319   0.483 -0.9036  0.1872  0.0339
  931SOL    HW3 3723   1.883   0.414   0.601  0.1642 -0.3163  0.3480
  931SOL    MW4 3724   1.915   0.349   0.552 -0.2655 -0.0983 -0.2391
  932SOL     OW 3725   1.015   2.977   0.689 -0.2529 -0.3555  0.2432
  932SOL    HW2 3726   1.110   2.964   0.687 -0.4695 -2.0772  0.1863
  932SOL    HW3 3727   0.993   2.982   0.782  0.3538  4.0873  0.2682
  932SOL    MW4 3728   1.024   2.976   0.701 -0.2014  0.0035  0.2390
  933SOL     OW 3729   3.824   2.348   1.427 -0.5726 -0.1205  0.0634
  933SOL    HW2 3730   3.836   2.344   1.522  1.7134  0.0784 -0.2012
  933SOL    HW3 3731   3.830   2.256   1.398 -0.2554 -0.0811  0.0012
  933SOL    MW4 3732   3.826   2.335   1.436 -0.2292 -0.0891  0.0203
  934SOL     OW 3733   1.475   1.956   0.323 -0.4722 -0.3504 -0.0143
  934SOL    HW2 3734   1.568   1.933   0.329 -0.0942  1.3993  1.2536
  934SOL    HW3 3735   1.432   1.876   0.292  1.5338 -0.9893 -1.2361
  934SOL    MW4 3736   1.482   1.942   0.320 -0.1576 -0.2038 -0.0082
  935SOL     OW 3737   3.226   0.033   0.357 -0.6527  0.1581 -0.0502
  935SOL    HW2 3738   3.237   0.086   0.279  1.7534  1.2052  0.9545
  935SOL    HW3 3739   3.232   0.096   0.430  0.7280 -1.2531  1.0963
  935SOL    MW4 3740   3.228   0.048   0.356 -0.1531  0.1101  0.2336
  936SOL     OW 3741   0.649   3.352   0.944  0.0949 -0.4918  0.2397
  936SOL    HW2 3742   0.731   3.312   0.972  0.2461 -0.1680  0.2618
  936SOL    HW3 3743   0.581   3.293   0.977  0.3805 -1.9424 -1.6739
  936SOL    MW4 3744   0.651   3.339   0.952  0.1525 -0.6405 -0.0098
  937SOL     OW 3745   4.368   4.118   0.678 -0.0199  0.3366 -0.0414
  937SOL    HW2 3746   4.353   4.206   0.645  0.0879 -0.4759 -2.3858
  937SOL    HW3 3747   4.437   4.082   0.622 -2.0155 -2.1986 -0.9999
  937SOL    MW4 3748   4.375   4.125   0.666 -0.2690 -0.1051 -0.4771
  938SOL     OW 3749   0.001   3.400   0.311 -0.4305 -0.2888 -0.4520
  938SOL    HW2 3750   0.075   3.460   0.314  0.3591 -1.2360 -0.5686
  938SOL    HW3 3751  -0.008   3.369   0.402 -1.3199  0.5730 -0.2382
  938SOL    MW4 3752   0.009   3.403   0.324 -0.4437 -0.3000 -0.4392
  939SOL     OW 3753   3.314   1.028   1.009 -0.1633  0.0437  0.0254
  939SOL    HW2 3754   3.393   0.999   1.054 -0.3441  1.0986  1.0282
  939SOL    HW3 3755   3.328   1.003   0.917  0.9859 -0.4745  0.3385
  939SOL    MW4 3756   3.326   1.021   1.003 -0.0355  0.1145  0.1990
  940SOL     OW 3757   4.254   0.521   1.316 -0.4102  0.0832  0.0071
  940SOL    HW2 3758   4.337   0.488   1.350 -0.2708 -0.0715 -0.4794
  940SOL    HW3 3759   4.188   0.461   1.351 -0.3017  0.1200  0.2738
  940SOL    MW4 3760   4.256   0.509   1.325 -0.3775  0.0676 -0.0219
  941SOL     OW 3761   3.604   1.651   1.036  0.1587  0.3269  0.0137
  941SOL    HW2 3762   3.607   1.670   1.129  2.0559 -0.0955  0.0582
  941SOL    HW3 3763   3.527   1.699   1.004 -0.5212  0.4484  1.7790
  941SOL    MW4 3764   3.594   1.660   1.044  0.3193  0.2872  0.2525
  942SOL     OW 3765   0.510   2.084   0.442 -0.6027 -0.0474  0.0483
  942SOL    HW2 3766   0.500   2.035   0.524  1.4405  1.7686  1.4341
  942SOL    HW3 3767   0.514   2.175   0.469 -1.4686  0.7008 -2.2507
  942SOL    MW4 3768   0.509   2.089   0.456 -0.4473  0.2909 -0.0722
  943SOL     OW 3769   1.982   3.587   1.297 -0.0809  0.2282  0.1813
  943SOL    HW2 3770   1.912   3.522   1.306 -1.1096  1.3870  0.6261
  943SOL    HW3 3771   1.991   3.599   1.202  0.2803 -0.7244  0.0860
  943SOL    MW4 3772   1.974   3.580   1.286 -0.1690  0.2554  0.2274
  944SOL     OW 3773   3.504   4.067   0.563 -0.2055 -0.0972  0.1292
  944SOL    HW2 3774   3.472   4.010   0.632 -0.2883  0.1898  0.3278
  944SOL    HW3 3775   3.519   4.009   0.489 -2.1601 -0.1063 -0.3009
  944SOL    MW4 3776   3.502   4.052   0.562 -0.4743 -0.0605  0.0986
  945SOL     OW 3777   0.912   1.649   1.307 -0.4487 -0.0718  0.2815
  945SOL    HW2 3778   0.936   1.727   1.358 -1.0210  0.1269  0.2474
  945SOL    HW3 3779   0.830   1.620   1.346 -0.4125 -0.4600  0.0668
  945SOL    MW4 3780   0.905   1.656   1.319 -0.5194 -0.0968  0.2487
  946SOL     OW 3781   4.074   1.588   0.574  0.1820 -0.3293  0.5336
  946SOL    HW2 3782   4.105   1.586   0.483  0.8821 -0.2869  0.7692
  946SOL    HW3 3783   4.081   1.497   0.603  0.0067 -0.3331  0.5628
  946SOL    MW4 3784   4.079   1.576   0.566  0.2512 -0.3242  0.5685
  947SOL     OW 3785   2.586   1.549   0.484  0.5959  0.1288 -0.1438
  947SOL    HW2 3786   2.621   1.533   0.572  1.2353  2.6032  0.0904
  947SOL    HW3 3787   2.505   1.597   0.498  1.5194  1.9774 -0.9059
  947SOL    MW4 3788   2.580   1.553   0.498  0.8021  0.6992 -0.2135
  948SOL     OW 3789   1.990   2.766   1.323 -0.0879  0.3572 -0.0385
  948SOL    HW2 3790   2.010   2.859   1.337  1.3298  0.2195 -0.9609
  948SOL    HW3 3791   2.070   2.720   1.349 -0.7595 -0.6078  0.3560
  948SOL    MW4 3792   2.003   2.772   1.328  0.0106  0.2117 -0.1082
  949SOL     OW 3793   2.736   1.446   0.996  0.7066  0.3596  0.1216
  949SOL    HW2 3794   2.667   1.383   1.019 -0.0333  0.7558 -1.0219
  949SOL    HW3 3795   2.816   1.405   1.029  0.3603 -1.6085 -1.3730
  949SOL    MW4 3796   2.737   1.432   1.004  0.5633  0.1522 -0.2265
  950SOL     OW 3797   2.979   2.920   0.597 -0.1458  0.1795 -0.2379
  950SOL    HW2 3798   3.062   2.919   0.645  0.4468 -0.2413 -1.2646
  950SOL    HW3 3799   2.937   2.837   0.620 -0.4570  0.5610  0.5807
  950SOL    MW4 3800   2.985   2.909   0.607 -0.1087  0.1743 -0.2654
  951SOL     OW 3801   3.470   3.612   0.362 -0.0445 -0.6485  0.4145
  951SOL    HW2 3802   3.510   3.575   0.441  0.2284 -0.0725  0.5531
  951SOL    HW3 3803   3.498   3.704   0.363 -0.6737 -0.4532  0.0554
  951SOL    MW4 3804   3.479   3.619   0.373 -0.0915 -0.5467  0.3854
  952SOL     OW 3805   0.104   4.000   0.564 -0.2696 -0.2075  0.1398
  952SOL    HW2 3806   0.152   4.022   0.484 -0.2786 -2.1104 -0.3896
  952SOL    HW3 3807   0.148   4.052   0.632  1.2886 -0.4276 -0.6764
  952SOL    MW4 3808   0.116   4.010   0.562 -0.0652 -0.4876 -0.0377
  953SOL     OW 3809   1.827   3.950   1.084 -0.0305  0.7058 -0.3688
  953SOL    HW2 3810   1.902   4.001   1.052 -0.0338  0.7610 -0.2908
  953SOL    HW3 3811   1.827   3.871   1.030  0.1019  0.6920 -0.3503
  953SOL    MW4 3812   1.837   3.947   1.073 -0.0135  0.7112 -0.3561
  954SOL     OW 3813   0.934   0.584   0.898  0.6162  0.2745  0.1356
  954SOL    HW2 3814   0.996   0.530   0.946  1.3025 -0.4586 -1.5212
  954SOL    HW3 3815   0.932   0.667   0.946  1.1130 -0.5071  1.5232
  954SOL    MW4 3816   0.942   0.588   0.911  0.7723  0.0747  0.1001
  955SOL     OW 3817   3.750   0.505   0.683 -0.4677  0.1556 -0.1594
  955SOL    HW2 3818   3.765   0.411   0.693  1.7110  0.3823 -0.9811
  955SOL    HW3 3819   3.765   0.521   0.590 -0.1683  1.4334  0.1074
  955SOL    MW4 3820   3.754   0.494   0.672 -0.1407  0.3541 -0.2326
  956SOL     OW 3821   1.299   2.962   0.718 -0.3495  0.0136 -0.0790
  956SOL    HW2 3822   1.314   3.028   0.650  1.2861  0.0985  0.3559
  956SOL    HW3 3823   1.324   2.879   0.677 -0.4283 -0.0765  0.0558
  956SOL    MW4 3824   1.304   2.960   0.704 -0.1441  0.0129 -0.0039
  957SOL     OW 3825   0.870   3.728   0.718 -0.2316  0.3732  0.0863
  957SOL    HW2 3826   0.793   3.773   0.685 -0.2905 -0.4674 -0.9430
  957SOL    HW3 3827   0.863   3.639   0.684  0.7543  0.0525  0.6868
  957SOL    MW4 3828   0.859   3.722   0.709 -0.1093  0.2200  0.0297
  958SOL     OW 3829   2.715   2.288   0.322 -0.5316 -0.1380  0.6248
  958SOL    HW2 3830   2.769   2.359   0.288 -1.0460  0.2492  0.6098
  958SOL    HW3 3831   2.772   2.211   0.319 -0.3050  0.0662 -0.3176
  958SOL    MW4 3832   2.730   2.287   0.317 -0.5696 -0.0600  0.4985
  959SOL     OW 3833   2.604   2.381   0.564 -0.0902 -0.4937  0.1307
  959SOL    HW2 3834   2.611   2.477   0.560 -0.4312 -0.4424  0.6615
  959SOL    HW3 3835   2.605   2.353   0.473 -0.0555  0.0243 -0.0311
  959SOL    MW4 3836   2.605   2.390   0.552 -0.1306 -0.4186  0.1794
  960SOL     OW 3837   0.041   2.666   1.432 -0.1333  0.0169  0.1726
  960SOL    HW2 3838  -0.034   2.724   1.419  0.2282  0.3912 -0.2544
  960SOL    HW3 3839   0.112   2.706   1.382  0.5845  0.1090  1.2433
  960SOL    MW4 3840   0.040   2.679   1.424  0.0091  0.0784  0.2576
  961SOL     OW 3841   4.274   3.118   1.701  0.1037  0.4329  0.2511
  961SOL    HW2 3842   4.193   3.154   1.736  0.0572 -0.7232  1.3757
  961SOL    HW3 3843   4.266   3.024   1.716  1.0861  0.1786 -0.8139
  961SOL    MW4 3844   4.262   3.110   1.708  0.2272  0.2468  0.2590
  962SOL     OW 3845   3.152   2.995   0.994  0.8331  0.0540  0.1303
  962SOL    HW2 3846   3.153   3.084   1.028  1.3779 -0.2966  1.0774
  962SOL    HW3 3847   3.187   3.002   0.905  0.1644  0.8818 -0.0693
  962SOL    MW4 3848   3.157   3.007   0.987  0.8167  0.1170  0.2289
  963SOL     OW 3849   2.392   0.928   0.249 -0.0684 -0.2344  0.3542
  963SOL    HW2 3850   2.404   0.898   0.339 -1.2085 -0.2115  0.5217
  963SOL    HW3 3851   2.375   0.848   0.199 -0.8181 -0.1019  0.3997
  963SOL    MW4 3852   2.392   0.914   0.254 -0.3177 -0.2139  0.3823
  964SOL     OW 3853   2.481   4.370   1.073  0.2612  0.5311  0.2468
  964SOL    HW2 3854   2.475   4.368   1.168 -0.6929  0.8076  0.1912
  964SOL    HW3 3855   2.396   4.402   1.043  0.5705  0.5056 -0.6970
  964SOL    MW4 3856   2.469   4.374   1.081  0.1761  0.5642  0.1149
  965SOL     OW 3857   4.009   3.892   0.202 -0.4309 -0.2832 -0.3193
  965SOL    HW2 3858   4.085   3.933   0.245  0.6042 -0.1986 -2.1724
  965SOL    HW3 3859   3.954   3.863   0.274  0.7174  0.8659  1.0663
  965SOL    MW4 3860   4.012   3.894   0.217 -0.1428 -0.1204 -0.3810
  966SOL     OW 3861   1.726   1.146   0.169  0.3013 -0.0813  0.3355
  966SOL    HW2 3862   1.785   1.073   0.149 -0.3952 -0.4922 -0.2433
  966SOL    HW3 3863   1.738   1.161   0.263  0.9976 -0.4478  0.3090
  966SOL    MW4 3864   1.735   1.138   0.179  0.3013 -0.1838  0.2557
  967SOL     OW 3865   2.800   0.410   0.612 -0.2622  0.2353 -0.2893
  967SOL    HW2 3866   2.870   0.401   0.676 -0.0886  0.0788 -0.5003
  967SOL    HW3 3867   2.732   0.460   0.657 -0.3955 -0.3998  0.2195
  967SOL    MW4 3868   2.800   0.416   0.627 -0.2569  0.1309 -0.2500
  968SOL     OW 3869   2.403   1.677   0.188 -0.1695 -0.4839  0.0417
  968SOL    HW2 3870   2.431   1.588   0.211  0.4835 -0.1215  0.6674
  968SOL    HW3 3871   2.411   1.681   0.093 -0.2589 -1.1140  0.0039
  968SOL    MW4 3872   2.407   1.665   0.179 -0.0952 -0.5192  0.1192
  969SOL     OW 3873   1.328   0.670   0.676  0.4666 -0.0064  0.2511
  969SOL    HW2 3874   1.320   0.763   0.657  1.4638 -0.0980 -0.7112
  969SOL    HW3 3875   1.262   0.628   0.620  0.3609  0.0830  0.3091
  969SOL    MW4 3876   1.318   0.677   0.666  0.5842 -0.0067  0.1318
  970SOL     OW 3877   0.220   4.611   1.724 -0.2915 -0.3028 -0.1561
  970SOL    HW2 3878   0.233   4.618   1.629  0.4881 -2.0197 -0.2037
  970SOL    HW3 3879   0.287   4.667   1.762  0.3473 -0.7614 -0.6011
  970SOL    MW4 3880   0.230   4.619   1.716 -0.1043 -0.5898 -0.2211
  971SOL     OW 3881   0.019   0.113   1.847 -0.0645 -0.1069  0.2713
  971SOL    HW2 3882   0.035   0.195   1.799 -1.2586  0.0531  0.1166
  971SOL    HW3 3883   0.065   0.046   1.796 -0.6570  0.1854 -0.6763
  971SOL    MW4 3884   0.027   0.115   1.834 -0.3002 -0.0472  0.1259
  972SOL     OW 3885   0.029   0.347   1.669  0.0306  0.0561 -0.1069
  972SOL    HW2 3886  -0.044   0.394   1.711 -0.0211  0.5608 -0.7521
  972SOL    HW3 3887   0.020   0.368   1.576  0.4709 -0.6137 -0.3027
  972SOL    MW4 3888   0.018   0.356   1.662  0.0819  0.0343 -0.2179
  973SOL     OW 3889   0.239   0.713   1.694  0.4001 -0.0042  0.0466
  973SOL    HW2 3890   0.259   0.622   1.717 -1.6629 -0.1780  1.2530
  973SOL    HW3 3891   0.318   0.761   1.717  1.8421 -1.5998 -1.4126
  973SOL    MW4 3892   0.252   0.707   1.700  0.3182 -0.2377  0.0133
  974SOL     OW 3893   0.250   0.454   1.794 -0.0651  0.2384 -0.2197
  974SOL    HW2 3894   0.331   0.407   1.771 -1.2534 -1.2525 -1.4985
  974SOL    HW3 3895   0.185   0.422   1.731 -1.6255  1.5083  0.7025
  974SOL    MW4 3896   0.252   0.443   1.783 -0.4278  0.2093 -0.2668
  975SOL     OW 3897   0.023   0.874   1.804 -0.0179  0.0151  0.1109
  975SOL    HW2 3898  -0.055   0.833   1.764  0.3686  0.4239 -1.0974
  975SOL    HW3 3899   0.094   0.814   1.783  0.4741  1.0725 -1.2865
  975SOL    MW4 3900   0.022   0.860   1.796  0.0980  0.2086 -0.2329
  976SOL     OW 3901   4.265   1.238   1.814 -0.4526 -0.5189  0.2027
  976SOL    HW2 3902   4.189   1.190   1.783  1.2458 -3.6231  0.6475
  976SOL    HW3 3903   4.250   1.248   1.908 -0.4922 -0.7654  0.2228
  976SOL    MW4 3904   4.253   1.233   1.823 -0.2337 -0.9610  0.2640
  977SOL     OW 3905   0.244   1.290   1.772 -0.1433 -0.4593 -0.0435
  977SOL    HW2 3906   0.232   1.375   1.728  1.3995  0.3879  1.1295
  977SOL    HW3 3907   0.179   1.233   1.731 -0.9339  1.1775 -1.1425
  977SOL    MW4 3908   0.234   1.294   1.761 -0.0440 -0.1316 -0.0337
  978SOL     OW 3909   0.201   1.561   1.685  0.1860 -0.2074  0.1413
  978SOL    HW2 3910   0.272   1.618   1.714  0.7029 -0.5446 -0.4576
  978SOL    HW3 3911   0.127   1.583   1.742  0.5570  0.6511  0.2901
  978SOL    MW4 3912   0.200   1.571   1.696  0.3031 -0.1387  0.0819
  979SOL     OW 3913   4.471   1.682   1.809  0.2187  0.4116  0.1973
  979SOL    HW2 3914   4.464   1.694   1.903 -0.4364  0.5020  0.1437
  979SOL    HW3 3915   4.394   1.629   1.785  0.4210  0.3206 -0.2697
  979SOL    MW4 3916   4.460   1.677   1.818  0.1589  0.4115  0.1286
  980SOL     OW 3917   0.194   2.055   1.834  0.2746  0.8318 -0.1749
  980SOL    HW2 3918   0.186   2.140   1.789 -0.4947  0.6790 -0.3356
  980SOL    HW3 3919   0.139   1.996   1.783  1.6708 -0.0263 -0.6918
  980SOL    MW4 3920   0.185   2.058   1.821  0.3573  0.6985 -0.2643
  981SOL     OW 3921   0.021   1.928   1.676  0.0207  0.2656  0.1143
  981SOL    HW2 3922   0.011   1.838   1.707 -0.1815  0.1120 -0.3919
  981SOL    HW3 3923  -0.066   1.967   1.687 -0.1888  0.0573 -0.7269
  981SOL    MW4 3924   0.008   1.922   1.681 -0.0336  0.2178 -0.0635
  982SOL     OW 3925   0.191   2.315   1.664  0.1670  0.3111  0.4884
  982SOL    HW2 3926   0.275   2.344   1.696  0.3988  0.2156 -0.0201
  982SOL    HW3 3927   0.127   2.363   1.716  0.5079 -0.9950  2.1598
  982SOL    MW4 3928   0.193   2.325   1.675  0.2426  0.1262  0.6419
  983SOL     OW 3929   4.272   2.329   1.681  0.4201  0.0681 -0.1144
  983SOL    HW2 3930   4.276   2.238   1.710 -1.0585  0.4040  1.2383
  983SOL    HW3 3931   4.353   2.368   1.711  1.1557 -0.8441 -0.8823
  983SOL    MW4 3932   4.283   2.322   1.689  0.3221 -0.0079 -0.0373
  984SOL     OW 3933   0.268   2.819   1.280 -0.1077  0.2596  0.2281
  984SOL    HW2 3934   0.257   2.805   1.186 -0.2871 -0.3400  0.3323
  984SOL    HW3 3935   0.356   2.786   1.298 -0.8861 -1.6445  0.6406
  984SOL    MW4 3936   0.278   2.813   1.270 -0.2341 -0.0707  0.2963
  985SOL     OW 3937   0.238   2.875   1.845 -0.1824 -0.1139  0.0405
  985SOL    HW2 3938   0.218   2.959   1.803 -1.8451 -0.1658  0.6695
  985SOL    HW3 3939   0.177   2.813   1.805 -0.1341 -0.6648  0.8081
  985SOL    MW4 3940   0.227   2.878   1.835 -0.3954 -0.1934  0.2248
  986SOL     OW 3941   0.185   3.128   1.731 -0.3233  0.0103 -0.4890
  986SOL    HW2 3942   0.276   3.155   1.746  0.0121 -0.8666 -0.8767
  986SOL    HW3 3943   0.188   3.083   1.646 -1.2265  0.4842 -0.7694
  986SOL    MW4 3944   0.198   3.125   1.721 -0.3982 -0.0428 -0.5772
  987SOL     OW 3945   4.468   3.281   1.827  0.0360 -0.5633  0.0104
  987SOL    HW2 3946   4.403   3.229   1.780  0.2221  0.4891 -1.4359
  987SOL    HW3 3947   4.552   3.241   1.805  0.0216 -0.9839  0.6709
  987SOL    MW4 3948   4.470   3.269   1.818  0.0586 -0.4799 -0.0933
  988SOL     OW 3949   4.461   3.511   1.690  0.3232 -0.6634 -0.1512
  988SOL    HW2 3950   4.532   3.557   1.735  0.7376 -0.0619 -1.4072
  988SOL    HW3 3951   4.456   3.426   1.733 -0.0736  0.3263  1.8243
  988SOL    MW4 3952   4.469   3.506   1.702  0.3255 -0.4534 -0.0563
  989SOL     OW 3953   0.188   3.638   1.820  0.0486 -0.2321  0.1862
  989SOL    HW2 3954   0.211   3.635   1.913 -0.3406 -0.1415  0.2853
  989SOL    HW3 3955   0.195   3.730   1.796 -1.3636 -0.0274  0.5111
  989SOL    MW4 3956   0.192   3.650   1.829 -0.1890 -0.1931  0.2422
  990SOL     OW 3957   0.396   3.487   1.706  0.5460  0.2289 -0.2917
  990SOL    HW2 3958   0.326   3.535   1.750  0.6083  1.0412 -1.0597
  990SOL    HW3 3959   0.477   3.525   1.741  0.6519 -1.6039  1.5829
  990SOL    MW4 3960   0.397   3.498   1.717  0.5682  0.0943 -0.1457
  991SOL     OW 3961   0.244   3.897   1.753  0.4051 -0.5700  0.3712
  991SOL    HW2 3962   0.167   3.953   1.768  0.4416 -0.3339 -0.3027
  991SOL    HW3 3963   0.257   3.899   1.658  2.6145  1.2681  0.6493
  991SOL    MW4 3964   0.235   3.905   1.742  0.7014 -0.2964  0.3189
  992SOL     OW 3965   4.439   4.279   1.707  0.3076 -0.7478  0.1460
  992SOL    HW2 3966   4.513   4.313   1.757 -0.5225  1.1756  0.1292
  992SOL    HW3 3967   4.362   4.313   1.753 -0.5039 -0.8451 -1.1163
  992SOL    MW4 3968   4.438   4.288   1.720  0.0910 -0.5068 -0.0228
  993SOL     OW 3969   0.190   4.345   1.809  0.2365 -0.5208  0.4193
  993SOL    HW2 3970   0.192   4.344   1.905 -4.3851 -0.4134  0.6021
  993SOL    HW3 3971   0.190   4.437   1.786  1.1659 -0.5463  0.2899
  993SOL    MW4 3972   0.191   4.357   1.819 -0.2506 -0.5100  0.4264
  994SOL     OW 3973   0.698   4.660   1.764 -0.2753 -0.0766 -0.0377
  994SOL    HW2 3974   0.697   4.572   1.800 -2.4121  0.1594  0.5227
  994SOL    HW3 3975   0.705   4.647   1.669  1.1133 -0.7864  0.1471
  994SOL    MW4 3976   0.699   4.647   1.756 -0.3740 -0.1391  0.0606
  995SOL     OW 3977   0.444   0.085   1.807  0.2091 -0.1942  0.3125
  995SOL    HW2 3978   0.453   0.164   1.753  0.5638  0.7964  1.7829
  995SOL    HW3 3979   0.528   0.040   1.797  0.6898  0.5539  0.8946
  995SOL    MW4 3980   0.457   0.089   1.799  0.3193  0.0352  0.5833
  996SOL     OW 3981   0.488   0.345   1.695  0.2993  0.1257  0.1034
  996SOL    HW2 3982   0.502   0.362   1.602  0.1016  0.4066  0.1246
  996SOL    HW3 3983   0.565   0.382   1.738  0.5177 -0.2385  0.0301
  996SOL    MW4 3984   0.500   0.352   1.688  0.3020  0.1147  0.0965
  997SOL     OW 3985   0.689   0.473   1.803 -0.0985  0.0104  0.2396
  997SOL    HW2 3986   0.702   0.488   1.896 -0.3588  0.6276  0.1801
  997SOL    HW3 3987   0.774   0.442   1.771 -0.7606 -2.8635  1.1916
  997SOL    MW4 3988   0.702   0.471   1.811 -0.2202 -0.2874  0.3574
  998SOL     OW 3989   0.684   0.740   1.681  0.1181  0.5243 -0.1363
  998SOL    HW2 3990   0.759   0.773   1.731  1.6659  0.2873 -2.2135
  998SOL    HW3 3991   0.682   0.646   1.701  0.7679  0.4203 -0.5377
  998SOL    MW4 3992   0.694   0.732   1.690  0.4080  0.4793 -0.4633
  999SOL     OW 3993   0.471   0.874   1.782 -0.1093 -0.1112 -0.7628
  999SOL    HW2 3994   0.490   0.967   1.766  1.1501 -0.3535 -0.7513
  999SOL    HW3 3995   0.553   0.829   1.761 -0.2077 -1.0486  0.7748
  999SOL    MW4 3996   0.485   0.880   1.778  0.0439 -0.2669 -0.5584
 1000SOL     OW 3997   0.206   0.742   1.427 -0.5719  0.6026 -0.2455
 1000SOL    HW2 3998   0.275   0.807   1.415 -1.0539  1.6226  2.2328
 1000SOL    HW3 3999   0.209   0.721   1.520 -1.3619 -1.8946 -0.7518
 1000SOL    MW4 4000   0.216   0.748   1.437 -0.7397  0.4077  0.0147
 1001SOL     OW 4001   0.709   1.296   1.807 -0.4176  0.3735 -0.5789
 1001SOL    HW2 4002   0.699   1.302   1.902  0.8065 -3.1802 -0.1305
 1001SOL    HW3 4003   0.636   1.241   1.779  0.5151 -0.4772 -1.3671
 1001SOL    MW4 4004   0.698   1.289   1.816 -0.1330 -0.2076 -0.6237
 1002SOL     OW 4005   0.681   1.550   1.674  0.0292  0.3882 -0.6321
 1002SOL    HW2 4006   0.696   1.461   1.706 -1.5671  0.3109 -0.0709
 1002SOL    HW3 4007   0.693   1.543   1.579  0.7661 -0.2325 -0.5027
 1002SOL    MW4 4008   0.685   1.537   1.666 -0.0842  0.2961 -0.5410
 1003SOL     OW 4009   4.469   1.917   1.406  0.3322 -0.4497 -0.7148
 1003SOL    HW2 4010   4.493   1.904   1.498 -0.2947 -0.6433 -0.5752
 1003SOL    HW3 4011   4.547   1.955   1.366  0.4546  0.0723  0.0050
 1003SOL    MW4 4012   4.482   1.920   1.413  0.2657 -0.4064 -0.6014
 1004SOL     OW 4013   4.037   2.172   0.932  0.0078 -0.0706  0.1123
 1004SOL    HW2 4014   4.120   2.140   0.968  0.2900  0.5500  0.0239
 1004SOL    HW3 4015   3.970   2.141   0.994  0.2985 -0.6119  0.1593
 1004SOL    MW4 4016   4.039   2.164   0.945  0.0834 -0.0602  0.1069
 1005SOL     OW 4017   0.465   1.962   1.720  0.2163 -0.0177 -0.1680
 1005SOL    HW2 4018   0.453   1.870   1.744  0.1661 -0.4525 -1.8148
 1005SOL    HW3 4019   0.388   2.007   1.755 -0.1490 -0.7383 -0.0511
 1005SOL    MW4 4020   0.453   1.956   1.728  0.1615 -0.1701 -0.3698
 1006SOL     OW 4021   0.732   2.017   1.807 -0.1372 -0.5346  0.1516
 1006SOL    HW2 4022   0.644   1.981   1.792 -0.7025  0.8228  0.1773
 1006SOL    HW3 4023   0.736   2.029   1.902 -0.5423  0.9480 -0.0114
 1006SOL    MW4 4024   0.721   2.014   1.817 -0.2653 -0.1599  0.1335
 1007SOL     OW 4025   0.431   2.417   1.782 -0.0382  0.1277 -0.2038
 1007SOL    HW2 4026   0.464   2.437   1.870  0.0127  0.2984 -0.2618
 1007SOL    HW3 4027   0.505   2.372   1.740 -0.4662 -1.0237  0.2335
 1007SOL    MW4 4028   0.445   2.413   1.788 -0.0880 -0.0017 -0.1537
 1008SOL     OW 4029   0.434   2.691   1.704 -0.7429 -0.0841 -0.6057
 1008SOL    HW2 4030   0.403   2.601   1.715  1.7090 -0.8569  0.2109
 1008SOL    HW3 4031   0.364   2.745   1.740 -2.9085 -1.5500 -2.4036
 1008SOL    MW4 4032   0.421   2.686   1.710 -0.7052 -0.3795 -0.7351
 1009SOL     OW 4033   0.904   2.690   1.722 -0.3276  0.5064 -0.3160
 1009SOL    HW2 4034   0.827   2.732   1.761 -0.7878  0.4509 -1.1563
 1009SOL    HW3 4035   0.900   2.599   1.754 -0.4216  0.5911 -0.0851
 1009SOL    MW4 4036   0.893   2.683   1.732 -0.4008  0.5103 -0.3964
 1010SOL     OW 4037   0.634   3.069   1.700 -0.0715  0.3842 -0.2279
 1010SOL    HW2 4038   0.639   2.976   1.717  1.2756  0.6074  0.6623
 1010SOL    HW3 4039   0.658   3.078   1.607  0.0729 -0.1200 -0.2379
 1010SOL    MW4 4040   0.637   3.058   1.690  0.1253  0.3472 -0.1118
 1011SOL     OW 4041   0.440   3.221   1.805  0.0024  0.1981 -0.3449
 1011SOL    HW2 4042   0.510   3.177   1.757  0.4343 -0.3766  0.7824
 1011SOL    HW3 4043   0.441   3.311   1.772  0.2550 -0.1916 -1.4336
 1011SOL    MW4 4044   0.450   3.227   1.794  0.0927  0.0709 -0.3398
 1012SOL     OW 4045   4.155   4.313   0.209  0.1305 -0.1937  0.3677
 1012SOL    HW2 4046   4.072   4.358   0.196 -0.5269 -1.5239 -0.0774
 1012SOL    HW3 4047   4.142   4.261   0.288  0.9177  0.4561  0.9357
 1012SOL    MW4 4048   4.143   4.312   0.218  0.1476 -0.2835  0.3839
 1013SOL     OW 4049   0.647   3.607   1.769 -0.2191 -0.6200 -0.2857
 1013SOL    HW2 4050   0.730   3.562   1.754 -0.3469 -1.2491  0.8402
 1013SOL    HW3 4051   0.668   3.700   1.755  1.3255 -0.4966  2.5262
 1013SOL    MW4 4052   0.660   3.613   1.765 -0.0322 -0.6867  0.2338
 1014SOL     OW 4053   0.651   3.900   1.712  0.2418  0.4596 -0.4520
 1014SOL    HW2 4054   0.588   3.926   1.780  0.0426 -0.9860 -0.0744
 1014SOL    HW3 4055   0.732   3.945   1.735  0.3234 -0.4146  1.0463
 1014SOL    MW4 4056   0.653   3.909   1.724  0.2263  0.1535 -0.2045
 1015SOL     OW 4057   0.446   4.038   1.856 -0.1500 -0.2313 -0.0190
 1015SOL    HW2 4058   0.458   4.115   1.802  1.1176 -0.3578  0.0690
 1015SOL    HW3 4059   0.367   3.996   1.821 -0.2972  0.5806 -0.6760
 1015SOL    MW4 4060   0.437   4.043   1.844 -0.0022 -0.1409 -0.0941
 1016SOL     OW 4061   0.444   4.276   1.724 -0.0563  0.1446 -0.0612
 1016SOL    HW2 4062   0.355   4.298   1.752  0.1951  0.9420  0.1167
 1016SOL    HW3 4063   0.441   4.283   1.628  0.0435  1.0477 -0.0022
 1016SOL    MW4 4064   0.431   4.280   1.715 -0.0100  0.3690 -0.0300
 1017SOL     OW 4065   0.682   4.389   1.833  0.1756  0.8610  0.4574
 1017SOL    HW2 4066   0.746   4.353   1.773 -0.5996  0.6544 -0.2529
 1017SOL    HW3 4067   0.599   4.347   1.809  0.0108  0.1535  2.2124
 1017SOL    MW4 4068   0.679   4.379   1.822  0.0516  0.7404  0.5953
 1018SOL     OW 4069   1.131   0.030   1.733  0.2658 -0.4856 -0.1968
 1018SOL    HW2 4070   1.225   0.046   1.748 -0.2638  1.3092  1.4407
 1018SOL    HW3 4071   1.119  -0.061   1.760  1.3668 -0.4316  0.5582
 1018SOL    MW4 4072   1.142   0.020   1.739  0.3412 -0.2416  0.1189
 1019SOL     OW 4073   0.905   0.138   1.849  0.2763  0.2358  0.0626
 1019SOL    HW2 4074   0.985   0.101   1.811 -0.0433  0.2950 -0.6760
 1019SOL    HW3 4075   0.836   0.076   1.823  0.0639  0.2574  0.5818
 1019SOL    MW4 4076   0.906   0.125   1.840  0.2061  0.2464  0.0336
 1020SOL     OW 4077   0.924   0.362   1.689 -0.4649  0.2562  0.3900
 1020SOL    HW2 4078   1.002   0.412   1.714 -0.5880  1.1463 -0.9640
 1020SOL    HW3 4079   0.920   0.290   1.752  1.2240  0.4323  0.7086
 1020SOL    MW4 4080   0.934   0.359   1.701 -0.2583  0.3969  0.2534
 1021SOL     OW 4081   1.159   0.503   1.817 -0.3868 -0.4541  0.1180
 1021SOL    HW2 4082   1.244   0.464   1.801  0.1004 -0.0604  1.6939
 1021SOL    HW3 4083   1.165   0.590   1.778  0.0835 -0.2659  0.6048
 1021SOL    MW4 4084   1.171   0.509   1.810 -0.2604 -0.3773  0.3901
 1022SOL     OW 4085   3.099   0.879   1.063  0.2706  0.2354  0.0683
 1022SOL    HW2 4086   3.107   0.854   1.155 -0.7451 -0.8868 -0.1293
 1022SOL    HW3 4087   3.178   0.930   1.045  1.6029 -1.4284  0.9824
 1022SOL    MW4 4088   3.111   0.882   1.073  0.3124 -0.1322  0.1629
 1023SOL     OW 4089   0.898   0.881   1.800  0.1111 -0.0947  0.0410
 1023SOL    HW2 4090   0.908   0.897   1.894 -0.2916 -0.8298  0.2153
 1023SOL    HW3 4091   0.891   0.968   1.761  2.1762  0.2965  0.4644
 1023SOL    MW4 4092   0.899   0.895   1.807  0.3304 -0.1401  0.1198
 1024SOL     OW 4093   1.117   0.740   1.696 -0.0880 -0.3519 -0.2744
 1024SOL    HW2 4094   1.196   0.790   1.716 -0.5563  1.4058 -2.6408
 1024SOL    HW3 4095   1.046   0.789   1.738 -0.1356 -0.9661  0.3675
 1024SOL    MW4 4096   1.118   0.753   1.704 -0.1561 -0.2010 -0.5020
 1025SOL     OW 4097   1.140   1.289   2.057  0.1187  0.2065  0.0418
 1025SOL    HW2 4098   1.131   1.260   1.966  0.4546  0.2368 -0.0022
 1025SOL    HW3 4099   1.206   1.231   2.095 -0.9616 -0.6481  0.6361
 1025SOL    MW4 4100   1.147   1.277   2.050  0.0205  0.0977  0.1144
 1026SOL     OW 4101   1.103   1.468   1.733  0.1716  0.1302 -0.2163
 1026SOL    HW2 4102   1.106   1.497   1.641  1.2610  0.3061 -0.1241
 1026SOL    HW3 4103   1.036   1.523   1.773  0.5586  0.8951 -0.6150
 1026SOL    MW4 4104   1.094   1.479   1.726  0.3664  0.2543 -0.2567
 1027SOL     OW 4105   0.906   1.647   1.834  0.0544  0.3208 -0.1936
 1027SOL    HW2 4106   0.919   1.738   1.807 -0.7737  0.4180 -0.2847
 1027SOL    HW3 4107   0.816   1.627   1.807  0.3415 -0.6309 -0.4789
 1027SOL    MW4 4108   0.896   1.657   1.827 -0.0169  0.2081 -0.2433
 1028SOL     OW 4109   0.962   1.897   1.717  0.7901  0.1061  0.2946
 1028SOL    HW2 4110   0.959   1.873   1.624  0.0908  1.3468 -0.0043
 1028SOL    HW3 4111   0.880   1.943   1.732  0.9014 -0.1027  1.5423
 1028SOL    MW4 4112   0.951   1.900   1.707  0.7125  0.2422  0.4198
 1029SOL     OW 4113   1.191   2.012   1.814  0.1614  0.1362 -0.4699
 1029SOL    HW2 4114   1.190   2.103   1.782  1.1392 -0.0959 -1.1731
 1029SOL    HW3 4115   1.121   1.969   1.766 -0.0797  0.4357 -0.3881
 1029SOL    MW4 4116   1.182   2.019   1.803  0.2586  0.1451 -0.5518
 1030SOL     OW 4117   1.121   2.267   1.728 -0.4001 -0.2303  0.3688
 1030SOL    HW2 4118   1.196   2.318   1.756  0.9758 -1.6884 -0.5736
 1030SOL    HW3 4119   1.118   2.278   1.633 -1.2941 -0.2922  0.3856
 1030SOL    MW4 4120   1.130   2.275   1.719 -0.3365 -0.4309  0.2466
 1031SOL     OW 4121   0.894   2.424   1.802 -0.5531  0.3892 -0.0876
 1031SOL    HW2 4122   0.970   2.366   1.791 -1.0918 -0.6089  1.3034
 1031SOL    HW3 4123   0.819   2.368   1.782 -1.0697  0.6418  1.1548
 1031SOL    MW4 4124   0.894   2.409   1.798 -0.6924  0.2908  0.2598
 1032SOL     OW 4125   0.669   2.811   1.796  0.8127 -0.0226  0.2185
 1032SOL    HW2 4126   0.588   2.767   1.771 -0.6828  2.5836  0.2486
 1032SOL    HW3 4127   0.657   2.834   1.888  1.0245  1.5090 -0.1177
 1032SOL    MW4 4128   0.657   2.808   1.805  0.6433  0.5233  0.1781
 1033SOL     OW 4129   1.118   2.831   1.813  0.5715 -0.0431 -0.3452
 1033SOL    HW2 4130   1.050   2.776   1.774 -0.2234  0.6977 -0.0144
 1033SOL    HW3 4131   1.109   2.817   1.907 -0.0755  1.1427 -0.2164
 1033SOL    MW4 4132   1.108   2.822   1.820  0.3813  0.2111 -0.2846
 1034SOL     OW 4133   1.089   3.078   1.704 -0.3256 -0.3304  0.0988
 1034SOL    HW2 4134   1.012   3.117   1.744  0.1204 -0.1836  0.8177
 1034SOL    HW3 4135   1.095   2.991   1.743 -0.0204 -0.2692  0.1954
 1034SOL    MW4 4136   1.080   3.072   1.714 -0.2265 -0.3030  0.2064
 1035SOL     OW 4137   0.865   3.207   1.819  0.7655 -0.3088  0.2123
 1035SOL    HW2 4138   0.879   3.184   1.911 -0.3596  0.8644  0.6843
 1035SOL    HW3 4139   0.783   3.165   1.795  0.6008  0.1347 -0.0048
 1035SOL    MW4 4140   0.856   3.199   1.828  0.5953 -0.0955  0.2460
 1036SOL     OW 4141   0.878   3.467   1.722  0.5218 -0.2679 -0.2341
 1036SOL    HW2 4142   0.891   3.378   1.755 -0.5941 -0.6083 -0.7001
 1036SOL    HW3 4143   0.906   3.463   1.631  1.0859  0.0201 -0.0739
 1036SOL    MW4 4144   0.883   3.454   1.715  0.4490 -0.2748 -0.2744
 1037SOL     OW 4145   1.123   3.572   1.801 -0.3472  0.0394  0.2484
 1037SOL    HW2 4146   1.128   3.579   1.897  0.4216 -1.9604  0.3856
 1037SOL    HW3 4147   1.035   3.539   1.783  0.1666 -1.4475  0.4100
 1037SOL    MW4 4148   1.112   3.568   1.812 -0.1780 -0.4206  0.2878
 1038SOL     OW 4149   1.103   3.843   1.722 -0.8568  0.2564  0.4758
 1038SOL    HW2 4150   1.114   3.750   1.743  0.0926  0.6922  2.0554
 1038SOL    HW3 4151   1.083   3.844   1.629 -2.2324 -1.6243  0.7054
 1038SOL    MW4 4152   1.102   3.831   1.713 -0.9130  0.0658  0.7145
 1039SOL     OW 4153   0.890   4.020   1.825  0.2765  0.1970  0.0238
 1039SOL    HW2 4154   0.881   4.014   1.920 -0.8636  0.7273 -0.0438
 1039SOL    HW3 4155   0.964   3.963   1.804  0.9381  0.5915  1.2947
 1039SOL    MW4 4156   0.898   4.011   1.835  0.2134  0.3190  0.1826
 1040SOL     OW 4157   0.906   4.270   1.707 -0.1395  0.4542 -0.2074
 1040SOL    HW2 4158   0.988   4.303   1.743  0.6715  0.9470 -2.4627
 1040SOL    HW3 4159   0.904   4.178   1.734  0.9763  0.5271  0.1490
 1040SOL    MW4 4160   0.916   4.262   1.716  0.1147  0.5288 -0.4579
 1041SOL     OW 4161   1.107   4.421   1.826  0.0195  0.1211 -0.4293
 1041SOL    HW2 4162   1.100   4.404   1.919 -0.6062 -0.0844 -0.5160
 1041SOL    HW3 4163   1.192   4.385   1.801 -0.6994 -1.6636 -0.3482
 1041SOL    MW4 4164   1.117   4.414   1.835 -0.1579 -0.1415 -0.4300
 1042SOL     OW 4165   1.627   4.652   1.704 -0.2648  0.3456  0.2639
 1042SOL    HW2 4166   1.702   4.702   1.736 -0.1614 -0.1709  0.8358
 1042SOL    HW3 4167   1.629   4.570   1.754 -1.4505  0.5078  0.6036
 1042SOL    MW4 4168   1.637   4.648   1.715 -0.4076  0.2988  0.3842
 1043SOL     OW 4169   1.389   0.095   1.774  0.1479  0.1782 -0.1687
 1043SOL    HW2 4170   1.394   0.086   1.869 -1.0549 -2.6131 -0.2933
 1043SOL    HW3 4171   1.469   0.054   1.742  0.2897  0.6151 -0.3708
 1043SOL    MW4 4172   1.400   0.088   1.782  0.0079 -0.1324 -0.2118
 1044SOL     OW 4173   1.425   0.373   1.734 -0.1773 -0.0022  0.1494
 1044SOL    HW2 4174   1.426   0.282   1.765 -0.4116 -0.0052  0.1446
 1044SOL    HW3 4175   1.397   0.367   1.643 -0.0168  0.0591  0.0956
 1044SOL    MW4 4176   1.422   0.360   1.726 -0.1870  0.0055  0.1417
 1045SOL     OW 4177   1.631   0.510   1.840  0.1135  0.1770  0.1127
 1045SOL    HW2 4178   1.699   0.455   1.801  0.1820  0.3174  0.0352
 1045SOL    HW3 4179   1.549   0.470   1.812  0.1638  0.1920 -0.0534
 1045SOL    MW4 4180   1.629   0.497   1.831  0.1292  0.1975  0.0805
 1046SOL     OW 4181   1.593   0.781   1.742 -0.0828 -0.2033 -0.0427
 1046SOL    HW2 4182   1.624   0.697   1.776  0.3821  0.8157  2.1864
 1046SOL    HW3 4183   1.585   0.768   1.648 -0.8434 -3.0002  0.3678
 1046SOL    MW4 4184   1.596   0.768   1.734 -0.1218 -0.4378  0.3056
 1047SOL     OW 4185   1.349   0.835   1.833 -0.0918 -0.0736 -0.3542
 1047SOL    HW2 4186   1.375   0.867   1.919 -1.1942  0.6581 -0.2872
 1047SOL    HW3 4187   1.430   0.804   1.793  0.6679  0.9984  0.3431
 1047SOL    MW4 4188   1.363   0.835   1.839 -0.1370  0.1644 -0.2533
 1048SOL     OW 4189   1.834   4.481   0.149 -0.4070 -0.7168  0.2555
 1048SOL    HW2 4190   1.744   4.454   0.129 -0.3901 -0.7449  0.2188
 1048SOL    HW3 4191   1.830   4.576   0.152  0.0312 -0.6066 -1.9661
 1048SOL    MW4 4192   1.822   4.490   0.147 -0.3470 -0.7060 -0.0425
 1049SOL     OW 4193   1.622   1.233   1.821  0.5464  0.2090 -0.3583
 1049SOL    HW2 4194   1.608   1.327   1.809 -1.7921 -0.0979 -0.3344
 1049SOL    HW3 4195   1.538   1.194   1.796  1.3135 -1.8165  0.2030
 1049SOL    MW4 4196   1.609   1.240   1.817  0.3391 -0.0987 -0.2811
 1050SOL     OW 4197   1.384   1.605   1.331  0.4688  0.2029  0.2105
 1050SOL    HW2 4198   1.398   1.606   1.237 -1.0124 -0.2926 -0.0271
 1050SOL    HW3 4199   1.377   1.697   1.356  1.3656  0.3486 -0.0808
 1050SOL    MW4 4200   1.385   1.617   1.322  0.3917  0.1567  0.1407
 1051SOL     OW 4201   1.341   1.629   1.824 -0.6420  0.0315 -0.0860
 1051SOL    HW2 4202   1.352   1.631   1.919 -0.2820  1.3217 -0.1512
 1051SOL    HW3 4203   1.266   1.572   1.810 -1.2377  0.5317  1.0259
 1051SOL    MW4 4204   1.333   1.622   1.834 -0.6731  0.2677  0.0521
 1052SOL     OW 4205   1.156   1.285   1.307 -0.1301 -0.2187  0.1972
 1052SOL    HW2 4206   1.143   1.361   1.365 -0.1610  0.2729 -0.4519
 1052SOL    HW3 4207   1.221   1.231   1.353  0.4104  0.5390  0.3373
 1052SOL    MW4 4208   1.163   1.288   1.321 -0.0629 -0.0538  0.1300
 1053SOL     OW 4209   1.584   2.005   1.845 -0.1522  0.4399 -0.0238
 1053SOL    HW2 4210   1.577   2.089   1.800 -0.2198  0.2044 -0.4632
 1053SOL    HW3 4211   1.527   1.947   1.794  0.9924 -0.2229 -0.5668
 1053SOL    MW4 4212   1.576   2.008   1.832 -0.0101  0.3214 -0.1535
 1054SOL     OW 4213   1.554   2.274   1.734  0.4747  0.4380 -0.8942
 1054SOL    HW2 4214   1.627   2.327   1.763 -0.2910  1.5269 -0.9175
 1054SOL    HW3 4215   1.554   2.283   1.639  1.8788 -1.6658 -1.1306
 1054SOL    MW4 4216   1.563   2.282   1.725  0.5589  0.3041 -0.9285
 1055SOL     OW 4217   1.344   2.436   1.828 -0.3965 -0.1225 -0.0165
 1055SOL    HW2 4218   1.360   2.526   1.799 -0.3125 -0.1388 -0.0226
 1055SOL    HW3 4219   1.418   2.387   1.792 -0.4095 -0.1825  0.0396
 1055SOL    MW4 4220   1.356   2.442   1.819 -0.3871 -0.1326 -0.0099
 1056SOL     OW 4221   1.368   2.691   1.731  0.4803  0.0806  0.0304
 1056SOL    HW2 4222   1.288   2.726   1.770 -1.1351 -2.3949 -0.9718
 1056SOL    HW3 4223   1.353   2.698   1.636  1.6841  0.0673 -0.1710
 1056SOL    MW4 4224   1.356   2.697   1.724  0.4260 -0.2478 -0.1284
 1057SOL     OW 4225   1.780   2.722   1.722 -0.5916  0.5076  0.1127
 1057SOL    HW2 4226   1.771   2.630   1.746  0.6895  0.6578  1.2156
 1057SOL    HW3 4227   1.785   2.721   1.626 -0.4904 -0.5802  0.1214
 1057SOL    MW4 4228   1.779   2.709   1.712 -0.4092  0.3839  0.2593
 1058SOL     OW 4229   1.570   2.813   1.881  0.2096  0.4183  0.1839
 1058SOL    HW2 4230   1.498   2.771   1.835  0.2555  1.5757 -0.9643
 1058SOL    HW3 4231   1.648   2.786   1.833  0.3892  0.4294  0.4707
 1058SOL    MW4 4232   1.571   2.804   1.869  0.2394  0.5725  0.0703
 1059SOL     OW 4233   1.325   3.220   1.789 -0.2391  0.6262 -0.4989
 1059SOL    HW2 4234   1.395   3.159   1.765 -0.0370  0.4120  0.5947
 1059SOL    HW3 4235   1.244   3.173   1.767 -0.0593  0.5587 -1.0291
 1059SOL    MW4 4236   1.324   3.206   1.783 -0.1887  0.5890 -0.4245
 1060SOL     OW 4237   1.360   3.475   1.674  0.0524  0.1042 -0.2184
 1060SOL    HW2 4238   1.364   3.386   1.709 -0.3709  0.0914 -0.1994
 1060SOL    HW3 4239   1.291   3.517   1.725 -1.0387 -0.1116 -1.5090
 1060SOL    MW4 4240   1.351   3.469   1.686 -0.1474  0.0741 -0.3862
 1061SOL     OW 4241   1.587   3.585   1.783  0.1620  0.0699 -0.1911
 1061SOL    HW2 4242   1.576   3.575   1.878  0.3248  1.5683 -0.0048
 1061SOL    HW3 4243   1.511   3.541   1.746  0.3679 -0.9978  0.6068
 1061SOL    MW4 4244   1.575   3.578   1.791  0.2106  0.1268 -0.0613
 1062SOL     OW 4245   1.530   3.860   1.715 -0.0515  0.4867 -0.4976
 1062SOL    HW2 4246   1.614   3.900   1.741 -0.8999  1.0194  1.5156
 1062SOL    HW3 4247   1.543   3.767   1.729  0.5959  0.4473 -1.3261
 1062SOL    MW4 4248   1.543   3.853   1.720 -0.0781  0.5518 -0.3413
 1063SOL     OW 4249   1.332   4.003   1.836  0.1805 -0.0414 -0.2705
 1063SOL    HW2 4250   1.392   3.947   1.788 -0.4464 -0.6954 -0.2928
 1063SOL    HW3 4251   1.245   3.965   1.821 -0.3612  1.4633 -1.0338
 1063SOL    MW4 4252   1.329   3.990   1.828  0.0263  0.0709 -0.3741
 1064SOL     OW 4253   1.351   4.272   1.763 -0.5122  0.3369 -0.4874
 1064SOL    HW2 4254   1.353   4.178   1.780  2.9056  0.4727  0.1524
 1064SOL    HW3 4255   1.359   4.280   1.668  0.1550 -0.0100 -0.4636
 1064SOL    MW4 4256   1.352   4.261   1.753  0.0267  0.3090 -0.3999
 1065SOL     OW 4257   1.596   4.384   1.835  0.3664 -0.4285  0.3720
 1065SOL    HW2 4258   1.592   4.409   1.927  0.7683  1.5721 -0.1278
 1065SOL    HW3 4259   1.508   4.351   1.815  0.4681 -1.5309  1.6163
 1065SOL    MW4 4260   1.584   4.383   1.845  0.4328 -0.3100  0.4702
 1066SOL     OW 4261   2.038   4.607   1.715  0.2086 -0.2213  0.0445
 1066SOL    HW2 4262   2.117   4.660   1.724 -0.3717  0.6981 -0.2204
 1066SOL    HW3 4263   2.058   4.526   1.762  2.4031 -1.2158 -2.4299
 1066SOL    MW4 4264   2.051   4.603   1.722  0.4216 -0.2312 -0.3169
 1067SOL     OW 4265   1.851   0.125   1.807  0.1987  0.0217 -0.3884
 1067SOL    HW2 4266   1.833   0.112   1.900  0.2801 -0.2800 -0.4120
 1067SOL    HW3 4267   1.922   0.063   1.788 -0.3336 -0.4522 -0.8229
 1067SOL    MW4 4268   1.858   0.115   1.817  0.1392 -0.0806 -0.4488
 1068SOL     OW 4269   1.799   0.362   1.694  0.0325 -0.1638 -0.0952
 1068SOL    HW2 4270   1.814   0.271   1.720 -0.5887 -0.5198 -0.9572
 1068SOL    HW3 4271   1.804   0.362   1.599  1.7165  1.0322 -0.0428
 1068SOL    MW4 4272   1.801   0.350   1.685  0.1728 -0.0530 -0.2020
 1069SOL     OW 4273   2.019   0.478   1.811  0.4573 -0.5749 -0.8309
 1069SOL    HW2 4274   2.011   0.566   1.775  0.5091 -0.4613 -0.5673
 1069SOL    HW3 4275   1.946   0.429   1.773 -1.6943  0.5015  1.7178
 1069SOL    MW4 4276   2.008   0.483   1.801  0.1803 -0.4179 -0.4599
 1070SOL     OW 4277   2.024   0.732   1.682  0.2814 -0.2294  0.0553
 1070SOL    HW2 4278   2.107   0.767   1.714  0.4506  0.9798 -1.6417
 1070SOL    HW3 4279   2.022   0.756   1.590 -1.1161 -1.8730 -0.3691
 1070SOL    MW4 4280   2.035   0.740   1.674  0.1193 -0.2867 -0.2246
 1071SOL     OW 4281   1.840   0.874   1.833 -0.6922  0.3938 -0.0844
 1071SOL    HW2 4282   1.761   0.844   1.788 -0.2658 -2.3617  0.8971
 1071SOL    HW3 4283   1.912   0.838   1.781 -0.1550 -0.4621  1.2219
 1071SOL    MW4 4284   1.839   0.865   1.820 -0.5651 -0.0827  0.2175
 1072SOL     OW 4285   1.845   1.130   1.704  0.3722  0.0152  0.2104
 1072SOL    HW2 4286   1.764   1.172   1.733  1.0305  1.0117  0.6416
 1072SOL    HW3 4287   1.847   1.046   1.751  0.5189  0.8095  1.6589
 1072SOL    MW4 4288   1.835   1.124   1.714  0.4784  0.2515  0.4584
 1073SOL     OW 4289   2.017   1.305   1.852 -0.1605 -0.1005 -0.1648
 1073SOL    HW2 4290   2.095   1.255   1.826 -0.2078 -0.0107 -0.4783
 1073SOL    HW3 4291   1.943   1.255   1.817 -0.2063  0.2121 -0.5101
 1073SOL    MW4 4292   2.017   1.292   1.844 -0.1728 -0.0474 -0.2517
 1074SOL     OW 4293   2.046   1.551   1.734 -0.1804 -0.3608  0.2112
 1074SOL    HW2 4294   2.039   1.464   1.774 -2.8549 -0.2324  0.1325
 1074SOL    HW3 4295   2.069   1.534   1.643  0.7554 -0.8964  0.5365
 1074SOL    MW4 4296   2.048   1.538   1.727 -0.4098 -0.4145  0.2438
 1075SOL     OW 4297   1.816   1.620   1.872  0.1960  0.2373 -0.0274
 1075SOL    HW2 4298   1.827   1.708   1.837  0.4201 -0.0696 -0.7529
 1075SOL    HW3 4299   1.891   1.571   1.837  0.2504 -0.1579  0.6318
 1075SOL    MW4 4300   1.827   1.625   1.863  0.2327  0.1447 -0.0362
 1076SOL     OW 4301   1.825   1.892   1.770  0.3525  0.0784 -0.3550
 1076SOL    HW2 4302   1.750   1.936   1.811 -0.4114 -0.6359 -0.9790
 1076SOL    HW3 4303   1.820   1.917   1.678  0.7545 -0.1537 -0.4393
 1076SOL    MW4 4304   1.815   1.901   1.763  0.3048 -0.0465 -0.4484
 1077SOL     OW 4305   2.035   2.067   1.850 -0.1843  0.6337  0.1728
 1077SOL    HW2 4306   2.122   2.030   1.836 -0.2176  0.5190  0.2705
 1077SOL    HW3 4307   1.975   1.998   1.822 -0.2466  0.6406  0.2918
 1077SOL    MW4 4308   2.039   2.053   1.844 -0.1969  0.6195  0.2014
 1078SOL     OW 4309   2.006   2.313   1.721  0.0610  0.3112  0.1444
 1078SOL    HW2 4310   2.091   2.356   1.732  0.6937 -1.2443  1.5736
 1078SOL    HW3 4311   2.020   2.225   1.755 -1.8836 -0.2535 -0.4910
 1078SOL    MW4 4312   2.019   2.307   1.727 -0.1121  0.0315  0.2491
 1079SOL     OW 4313   1.772   2.451   1.802 -0.3448 -0.3621  0.0868
 1079SOL    HW2 4314   1.802   2.473   1.890  0.0163 -1.5788  0.2787
 1079SOL    HW3 4315   1.840   2.394   1.766 -0.1959  0.5966 -1.2082
 1079SOL    MW4 4316   1.785   2.447   1.809 -0.2775 -0.3961 -0.0587
 1080SOL     OW 4317   1.804   2.393   1.352  0.0402 -0.1779  0.1282
 1080SOL    HW2 4318   1.786   2.487   1.362  1.2072  0.1678 -0.8554
 1080SOL    HW3 4319   1.730   2.350   1.394 -1.8532  1.1712 -1.7057
 1080SOL    MW4 4320   1.792   2.400   1.359 -0.0556  0.0457 -0.2435
 1081SOL     OW 4321   2.249   2.654   1.703  0.2815 -0.0376 -0.2982
 1081SOL    HW2 4322   2.168   2.692   1.737 -0.5042 -1.6409 -0.3112
 1081SOL    HW3 4323   2.240   2.660   1.608  0.7174  0.8682 -0.2851
 1081SOL    MW4 4324   2.237   2.660   1.695  0.2353 -0.1296 -0.2982
 1082SOL     OW 4325   2.035   2.774   1.830  0.0603 -0.0260  0.0721
 1082SOL    HW2 4326   2.039   2.804   1.921 -1.2203 -0.2641  0.2146
 1082SOL    HW3 4327   1.950   2.729   1.823 -0.1104  0.4976 -1.3985
 1082SOL    MW4 4328   2.024   2.772   1.841 -0.1312  0.0117 -0.1032
 1083SOL     OW 4329   1.799   3.196   1.782  0.3640 -0.5560 -0.3016
 1083SOL    HW2 4330   1.798   3.216   1.875  1.0490 -0.0803 -0.3885
 1083SOL    HW3 4331   1.713   3.157   1.764 -0.4346  0.9523  0.1757
 1083SOL    MW4 4332   1.788   3.194   1.792  0.3490 -0.2942 -0.2501
 1084SOL     OW 4333   2.036   3.622   1.800  0.1686 -0.1753 -0.2291
 1084SOL    HW2 4334   2.037   3.701   1.745 -0.7322  1.3479  1.8622
 1084SOL    HW3 4335   1.960   3.572   1.769 -0.1967  0.5623 -0.5296
 1084SOL    MW4 4336   2.026   3.626   1.789  0.0015  0.1230  0.0072
 1085SOL     OW 4337   2.015   3.610   2.096  0.1724 -0.0405  0.5070
 1085SOL    HW2 4338   2.018   3.645   2.007  0.0604  1.9827  1.2566
 1085SOL    HW3 4339   1.930   3.566   2.101  0.5803 -0.9741 -0.6732
 1085SOL    MW4 4340   2.004   3.609   2.085  0.2114  0.1033  0.4502
 1086SOL     OW 4341   2.050   3.872   1.660  0.1316 -0.1723 -0.4871
 1086SOL    HW2 4342   2.133   3.915   1.681  1.2778 -2.3789 -0.4282
 1086SOL    HW3 4343   2.038   3.887   1.566  1.1739 -0.8219 -0.7247
 1086SOL    MW4 4344   2.059   3.880   1.651  0.4204 -0.5492 -0.5107
 1087SOL     OW 4345   1.800   3.944   1.807 -0.0901  0.2438  0.0571
 1087SOL    HW2 4346   1.795   4.037   1.786  0.5723  0.4179  0.6450
 1087SOL    HW3 4347   1.876   3.913   1.758 -1.1727 -0.3002 -1.2823
 1087SOL    MW4 4348   1.809   3.952   1.798 -0.1456  0.1950 -0.0421
 1088SOL     OW 4349   1.790   4.224   1.737 -0.0311 -0.3100  0.2665
 1088SOL    HW2 4350   1.722   4.283   1.771 -0.5308 -1.1604  0.7755
 1088SOL    HW3 4351   1.777   4.224   1.643  1.4919  2.2363  0.0139
 1088SOL    MW4 4352   1.779   4.232   1.729  0.1039 -0.0863  0.3003
 1089SOL     OW 4353   2.043   4.357   1.821  0.0566  0.4471 -0.1809
 1089SOL    HW2 4354   2.116   4.313   1.776  0.0355 -0.3867  0.5767
 1089SOL    HW3 4355   1.965   4.325   1.775 -0.0227 -1.0539  0.9315
 1089SOL    MW4 4356   2.042   4.347   1.809  0.0434  0.1391  0.0659
 1090SOL     OW 4357   2.476   4.594   1.767  0.0447 -0.3179 -0.3032
 1090SOL    HW2 4358   2.540   4.639   1.821 -0.2958 -0.4342  0.1971
 1090SOL    HW3 4359   2.487   4.501   1.787  1.1842 -0.5345 -1.8087
 1090SOL    MW4 4360   2.486   4.588   1.776  0.1501 -0.3618 -0.4358
 1091SOL     OW 4361   2.273   0.107   1.793 -0.2104  0.5296 -0.0976
 1091SOL    HW2 4362   2.255   0.108   1.887 -0.8124  0.3262 -0.2077
 1091SOL    HW3 4363   2.344   0.044   1.782 -1.4504 -0.8986 -0.0106
 1091SOL    MW4 4364   2.280   0.099   1.804 -0.4534  0.3144 -0.1006
 1092SOL     OW 4365   2.262   0.377   1.745  0.2592  0.2028 -0.1463
 1092SOL    HW2 4366   2.166   0.383   1.751  0.3035 -0.4716  1.3410
 1092SOL    HW3 4367   2.281   0.286   1.768  1.2726  0.3620 -0.3572
 1092SOL    MW4 4368   2.252   0.366   1.749  0.3987  0.1349  0.0221
 1093SOL     OW 4369   2.474   0.474   1.902  0.0087 -0.2995  0.0780
 1093SOL    HW2 4370   2.544   0.421   1.862  0.5337 -0.6880  1.5011
 1093SOL    HW3 4371   2.393   0.436   1.867  0.3398 -2.4952  1.5491
 1093SOL    MW4 4372   2.473   0.462   1.892  0.1217 -0.6405  0.4599
 1094SOL     OW 4373   2.473   0.740   1.782 -0.1095  0.0789 -0.0828
 1094SOL    HW2 4374   2.485   0.647   1.804  0.0579  0.1072 -0.0560
 1094SOL    HW3 4375   2.478   0.741   1.686  1.6029  0.2956 -0.0159
 1094SOL    MW4 4376   2.476   0.728   1.772  0.1385  0.1112 -0.0705
 1095SOL     OW 4377   2.238   0.885   1.863 -0.2060  0.1951 -0.5254
 1095SOL    HW2 4378   2.240   0.895   1.958 -0.7934  1.4032 -0.6191
 1095SOL    HW3 4379   2.308   0.824   1.843 -0.8997 -1.0641  0.8005
 1095SOL    MW4 4380   2.247   0.878   1.873 -0.3750  0.1884 -0.3628
 1096SOL     OW 4381   2.256   1.154   1.783 -0.4868  0.1733  0.1858
 1096SOL    HW2 4382   2.260   1.062   1.809  0.0235 -0.1715 -1.0656
 1096SOL    HW3 4383   2.336   1.193   1.819  0.4598 -0.4090 -1.2320
 1096SOL    MW4 4384   2.267   1.147   1.791 -0.2945  0.0510 -0.1663
 1097SOL     OW 4385   2.454   1.576   1.754 -0.3740  0.4545 -0.0042
 1097SOL    HW2 4386   2.462   1.587   1.659  0.4013  0.4609  0.0664
 1097SOL    HW3 4387   2.377   1.629   1.776 -1.7403 -1.0930 -0.8928
 1097SOL    MW4 4388   2.445   1.585   1.744 -0.4520  0.2512 -0.1121
 1098SOL     OW 4389   2.510   1.259   1.835 -0.0310  0.1368  0.2865
 1098SOL    HW2 4390   2.521   1.260   1.930  1.1419  1.6563  0.1499
 1098SOL    HW3 4391   2.483   1.349   1.813  1.3711  0.2660 -0.9921
 1098SOL    MW4 4392   2.508   1.271   1.844  0.3088  0.3543  0.0998
 1099SOL     OW 4393   2.244   1.735   1.834  0.1400 -1.0578 -0.2912
 1099SOL    HW2 4394   2.178   1.681   1.791 -0.9740  0.5860 -0.6642
 1099SOL    HW3 4395   2.245   1.704   1.925 -0.9314 -1.2980 -0.3550
 1099SOL    MW4 4396   2.236   1.724   1.841 -0.1484 -0.8726 -0.3489
 1100SOL     OW 4397   2.296   1.981   1.723 -1.0113 -0.4612  0.5470
 1100SOL    HW2 4398   2.380   2.005   1.761 -1.2289 -0.5154  1.0591
 1100SOL    HW3 4399   2.274   1.898   1.763 -2.0357  0.2854  1.5490
 1100SOL    MW4 4400   2.304   1.974   1.733 -1.1752 -0.3698  0.7467
 1101SOL     OW 4401   2.528   2.089   1.823  0.2082  0.2307 -0.3323
 1101SOL    HW2 4402   2.609   2.059   1.783 -0.9512 -1.4646 -1.5148
 1101SOL    HW3 4403   2.509   2.173   1.780  1.3637  0.6733  0.0216
 1101SOL    MW4 4404   2.536   2.096   1.812  0.2077  0.0654 -0.4416
 1102SOL     OW 4405   2.488   2.347   1.685 -0.2037 -0.1427 -0.4947
 1102SOL    HW2 4406   2.550   2.403   1.731 -0.3718  0.6309 -1.1858
 1102SOL    HW3 4407   2.404   2.362   1.728  0.1079 -1.2893  0.5257
 1102SOL    MW4 4408   2.485   2.356   1.696 -0.1848 -0.1919 -0.4513
 1103SOL     OW 4409   2.261   2.414   1.815 -0.2060 -0.6339  0.2808
 1103SOL    HW2 4410   2.252   2.420   1.910  0.8778  0.4385  0.3320
 1103SOL    HW3 4411   2.257   2.505   1.786  0.3739 -0.8942 -0.6155
 1103SOL    MW4 4412   2.259   2.427   1.824  0.0135 -0.5268  0.1693
 1104SOL     OW 4413   3.123   2.775   0.209 -0.3939  0.1671 -0.5089
 1104SOL    HW2 4414   3.098   2.703   0.266  2.7897  1.2900  2.5168
 1104SOL    HW3 4415   3.073   2.850   0.242 -0.0477  0.3736 -0.4427
 1104SOL    MW4 4416   3.113   2.776   0.221  0.0718  0.3425 -0.1009
 1105SOL     OW 4417   2.220   2.667   1.414  0.1024 -0.5943 -0.0238
 1105SOL    HW2 4418   2.302   2.713   1.395  1.4507 -1.7343  2.7518
 1105SOL    HW3 4419   2.235   2.577   1.387  0.1663 -1.0475  1.4784
 1105SOL    MW4 4420   2.232   2.661   1.408  0.2887 -0.8045  0.5406
 1106SOL     OW 4421   2.466   2.814   1.821  0.2100 -0.3143 -0.0885
 1106SOL    HW2 4422   2.462   2.907   1.800 -0.4422 -0.2328  0.3681
 1106SOL    HW3 4423   2.394   2.775   1.771 -0.1189 -0.4198  0.4599
 1106SOL    MW4 4424   2.456   2.821   1.812  0.0806 -0.3174  0.0441
 1107SOL     OW 4425   2.215   3.207   1.747 -0.4689 -0.1894 -0.4396
 1107SOL    HW2 4426   2.216   3.217   1.842 -0.0949  1.3029 -0.5871
 1107SOL    HW3 4427   2.137   3.155   1.729 -1.0407  0.2890  0.6221
 1107SOL    MW4 4428   2.205   3.202   1.757 -0.4950  0.0706 -0.3190
 1108SOL     OW 4429   2.232   3.466   1.689 -0.9060 -0.5134 -0.6113
 1108SOL    HW2 4430   2.209   3.377   1.716 -1.5529 -0.0254  0.5236
 1108SOL    HW3 4431   2.160   3.520   1.722 -0.5313  0.4323 -1.3031
 1108SOL    MW4 4432   2.219   3.461   1.697 -0.9419 -0.3243 -0.5528
 1109SOL     OW 4433   2.473   3.563   1.770 -0.5600  0.4159 -0.2041
 1109SOL    HW2 4434   2.465   3.567   1.866 -1.7121  0.3817 -0.2892
 1109SOL    HW3 4435   2.390   3.525   1.741 -0.2335  0.4792 -1.2196
 1109SOL    MW4 4436   2.461   3.559   1.779 -0.6689  0.4197 -0.3493
 1110SOL     OW 4437   2.492   3.825   1.710 -0.1828 -0.4402  0.0399
 1110SOL    HW2 4438   2.412   3.866   1.741 -0.6844 -0.0971 -1.6552
 1110SOL    HW3 4439   2.476   3.731   1.720 -1.8880 -0.5032 -2.7641
 1110SOL    MW4 4440   2.480   3.818   1.715 -0.4739 -0.4032 -0.5537
 1111SOL     OW 4441   2.290   3.979   1.811  0.1115  0.1761  0.6485
 1111SOL    HW2 4442   2.301   3.973   1.906  0.8307  0.2848  0.5717
 1111SOL    HW3 4443   2.284   4.073   1.794 -1.8116  0.1144  0.7789
 1111SOL    MW4 4444   2.290   3.991   1.822 -0.0473  0.1823  0.6556
 1112SOL     OW 4445   2.263   4.241   1.714 -0.0177 -0.0730 -0.3582
 1112SOL    HW2 4446   2.352   4.275   1.729  0.2682 -0.8523 -0.2659
 1112SOL    HW3 4447   2.253   4.244   1.619 -0.2269  0.8563 -0.3074
 1112SOL    MW4 4448   2.274   4.246   1.703 -0.0076 -0.0532 -0.3393
 1113SOL     OW 4449   2.517   4.320   1.790 -0.4186 -0.0645  0.2226
 1113SOL    HW2 4450   2.534   4.324   1.884 -0.5844  0.3023  0.2377
 1113SOL    HW3 4451   2.591   4.272   1.754 -0.0369  0.3465  0.4603
 1113SOL    MW4 4452   2.529   4.314   1.798 -0.3901  0.0381  0.2560
 1114SOL     OW 4453   3.970   0.634   0.975 -0.7795 -0.0566 -0.4892
 1114SOL    HW2 4454   4.042   0.574   0.995  0.3643  1.3220 -0.4010
 1114SOL    HW3 4455   3.988   0.712   1.028 -2.3719  0.2906 -0.4222
 1114SOL    MW4 4456   3.982   0.636   0.985 -0.8387  0.1711 -0.4687
 1115SOL     OW 4457   2.703   0.069   1.870 -0.2224  0.9247 -0.2952
 1115SOL    HW2 4458   2.719   0.092   1.961 -1.2437 -0.0301  0.1267
 1115SOL    HW3 4459   2.786   0.032   1.840  0.1944  1.4724  0.1601
 1115SOL    MW4 4460   2.716   0.067   1.878 -0.3022  0.8710 -0.1795
 1116SOL     OW 4461   2.675   0.331   1.754  0.5630 -0.4323  0.0247
 1116SOL    HW2 4462   2.749   0.384   1.784 -0.2850  0.5476  0.4264
 1116SOL    HW3 4463   2.688   0.246   1.796  1.6221 -0.3569 -0.1542
 1116SOL    MW4 4464   2.686   0.327   1.764  0.5909 -0.2931  0.0541
 1117SOL     OW 4465   2.898   0.486   1.861  0.0256  0.3004  0.6169
 1117SOL    HW2 4466   2.986   0.449   1.852 -0.2733 -0.1197 -0.6124
 1117SOL    HW3 4467   2.905   0.572   1.819  0.1990  0.8272  1.7151
 1117SOL    MW4 4468   2.911   0.493   1.854  0.0091  0.3145  0.5996
 1118SOL     OW 4469   2.923   0.730   1.752 -0.0053  0.1229 -0.7648
 1118SOL    HW2 4470   2.942   0.753   1.661 -2.1227  1.4568 -0.8870
 1118SOL    HW3 4471   2.990   0.776   1.802  1.1255 -0.5580 -1.6130
 1118SOL    MW4 4472   2.935   0.739   1.746 -0.1355  0.2091 -0.8929
 1119SOL     OW 4473   2.700   0.869   1.888  0.0628  0.3855 -0.0189
 1119SOL    HW2 4474   2.769   0.829   1.834 -0.2952  1.2545 -1.1387
 1119SOL    HW3 4475   2.619   0.829   1.857 -0.1361  0.8154 -0.0536
 1119SOL    MW4 4476   2.699   0.858   1.877 -0.0107  0.5569 -0.1713
 1120SOL     OW 4477   2.721   1.119   1.742  0.1385 -0.1578  0.3373
 1120SOL    HW2 4478   2.714   1.032   1.779 -1.3621 -0.9742 -1.7808
 1120SOL    HW3 4479   2.649   1.168   1.781  1.4558  0.3909  2.1304
 1120SOL    MW4 4480   2.711   1.114   1.752  0.1143 -0.1931  0.2944
 1121SOL     OW 4481   2.919   1.278   1.865  0.2925 -0.2771 -0.2017
 1121SOL    HW2 4482   2.920   1.359   1.814  0.1691 -0.1962 -0.0763
 1121SOL    HW3 4483   2.851   1.224   1.825  2.0207 -1.3215 -1.8329
 1121SOL    MW4 4484   2.910   1.281   1.853  0.5043 -0.4042 -0.4004
 1122SOL     OW 4485   2.930   1.510   1.737 -0.0986  0.5132 -0.2787
 1122SOL    HW2 4486   3.018   1.539   1.761 -1.2822  3.7433  0.4263
 1122SOL    HW3 4487   2.929   1.514   1.642  1.3885 -2.3969 -0.4750
 1122SOL    MW4 4488   2.942   1.514   1.728 -0.0586  0.5554 -0.2116
 1123SOL     OW 4489   2.711   1.663   1.858  0.0569  0.1481 -0.0135
 1123SOL    HW2 4490   2.781   1.615   1.814  0.2460 -1.0983  1.5965
 1123SOL    HW3 4491   2.631   1.620   1.828  0.2152 -1.1224  1.2755
 1123SOL    MW4 4492   2.710   1.651   1.848  0.1027 -0.1840  0.3690
 1124SOL     OW 4493   2.747   1.932   1.747 -0.2514  0.0639 -0.1445
 1124SOL    HW2 4494   2.825   1.969   1.787 -0.4346 -0.4136  0.6826
 1124SOL    HW3 4495   2.746   1.841   1.777 -0.2985 -0.3538 -1.3998
 1124SOL    MW4 4496   2.757   1.925   1.756 -0.2818 -0.0542 -0.2010
 1125SOL     OW 4497   2.968   2.074   1.848  0.3736  0.0111  0.8507
 1125SOL    HW2 4498   2.968   2.068   1.944 -0.0586 -2.3764  0.7275
 1125SOL    HW3 4499   3.041   2.019   1.821  0.2426  0.3629 -0.2179
 1125SOL    MW4 4500   2.978   2.066   1.857  0.2993 -0.2575  0.6935
 1126SOL     OW 4501   2.921   2.310   1.721 -0.3777  0.1226 -0.0365
 1126SOL    HW2 4502   3.009   2.347   1.732 -0.6852  0.4272  1.4801
 1126SOL    HW3 4503   2.927   2.223   1.762  0.0929 -1.2025 -2.7822
 1126SOL    MW4 4504   2.933   2.303   1.728 -0.3562 -0.0121 -0.1986
 1127SOL     OW 4505   2.692   2.445   1.830 -0.3430  0.0535 -0.1378
 1127SOL    HW2 4506   2.695   2.526   1.779 -0.0302  0.2050  0.1252
 1127SOL    HW3 4507   2.773   2.400   1.808 -0.4936 -0.1692 -0.2452
 1127SOL    MW4 4508   2.703   2.449   1.820 -0.3216  0.0441 -0.1172
 1128SOL     OW 4509   2.696   2.697   1.739 -0.0407  0.0477  0.0534
 1128SOL    HW2 4510   2.625   2.754   1.767 -0.0861  0.5854 -1.0944
 1128SOL    HW3 4511   2.696   2.705   1.643  1.7818  0.3509  0.0517
 1128SOL    MW4 4512   2.687   2.706   1.730  0.1938  0.1586 -0.0983
 1129SOL     OW 4513   2.936   2.811   1.832  0.1761  0.2754  0.5232
 1129SOL    HW2 4514   2.858   2.762   1.806  1.0291 -0.7905 -0.0291
 1129SOL    HW3 4515   2.924   2.897   1.792 -1.0256  0.3317  0.9728
 1129SOL    MW4 4516   2.924   2.816   1.823  0.1301  0.1422  0.5097
 1130SOL     OW 4517   2.940   3.077   1.737  0.3934  0.0035  0.8607
 1130SOL    HW2 4518   3.015   3.117   1.781  0.7614 -1.0132  1.1945
 1130SOL    HW3 4519   2.863   3.112   1.782  0.6737  0.9197  0.6327
 1130SOL    MW4 4520   2.940   3.087   1.749  0.4790 -0.0097  0.8747
 1131SOL     OW 4521   2.473   3.073   1.738 -0.3301  0.3306  0.3569
 1131SOL    HW2 4522   2.496   3.047   1.649  0.0057 -1.2643  0.8774
 1131SOL    HW3 4523   2.385   3.109   1.731  0.7074  2.7505 -1.0294
 1131SOL    MW4 4524   2.465   3.074   1.725 -0.1489  0.4394  0.2427
 1132SOL     OW 4525   3.144   0.896   1.337  0.4349  0.5016 -0.3136
 1132SOL    HW2 4526   3.159   0.988   1.358  2.0811  0.1140  0.3352
 1132SOL    HW3 4527   3.228   0.854   1.356 -0.3325 -1.1456 -0.5153
 1132SOL    MW4 4528   3.157   0.903   1.342  0.5509  0.2331 -0.2546
 1133SOL     OW 4529   2.927   3.589   1.808  0.2246  0.3543  0.1488
 1133SOL    HW2 4530   2.929   3.598   1.903 -0.5655 -0.2574  0.2308
 1133SOL    HW3 4531   2.847   3.539   1.790  0.2703  0.6224 -0.8484
 1133SOL    MW4 4532   2.917   3.583   1.818  0.1263  0.3090  0.0280
 1134SOL     OW 4533   3.149   3.983   1.797  0.1096  0.0145 -0.0453
 1134SOL    HW2 4534   3.063   3.945   1.777 -0.1435  1.0665 -0.9819
 1134SOL    HW3 4535   3.149   3.993   1.893 -0.6274 -0.4001  0.0042
 1134SOL    MW4 4536   3.138   3.979   1.807 -0.0210  0.0986 -0.1623
 1135SOL     OW 4537   2.743   4.217   1.669 -0.2577  0.2682  0.0039
 1135SOL    HW2 4538   2.806   4.268   1.720 -0.1514  0.1545 -0.0138
 1135SOL    HW3 4539   2.746   4.129   1.708 -1.0015  0.4685  0.5344
 1135SOL    MW4 4540   2.752   4.212   1.681 -0.3418  0.2797  0.0715
 1136SOL     OW 4541   4.471   0.883   1.341 -0.1027 -0.2132 -0.1804
 1136SOL    HW2 4542   4.549   0.837   1.370  0.2485 -0.6553 -1.7385
 1136SOL    HW3 4543   4.398   0.834   1.379  0.3765  0.1178  1.1607
 1136SOL    MW4 4544   4.472   0.871   1.350  0.0069 -0.2278 -0.2090
 1137SOL     OW 4545   2.928   4.626   1.747 -0.0955 -0.2249  0.2072
 1137SOL    HW2 4546   2.922   4.534   1.772  1.2092 -0.2136  0.6088
 1137SOL    HW3 4547   3.005   4.659   1.794  0.1251  0.7767 -0.8203
 1137SOL    MW4 4548   2.937   4.618   1.756  0.1057 -0.0912  0.1247
 1138SOL     OW 4549   3.402   2.838   1.347 -0.0126  0.3580  0.2633
 1138SOL    HW2 4550   3.409   2.928   1.381  0.1043  0.6067 -0.4133
 1138SOL    HW3 4551   3.483   2.796   1.375 -0.1606  0.4034  0.7634
 1138SOL    MW4 4552   3.414   2.845   1.355 -0.0167  0.3968  0.2400
 1139SOL     OW 4553   3.148   0.077   1.883 -0.1689 -0.2521 -0.4561
 1139SOL    HW2 4554   3.135   0.093   1.977 -0.6912  0.8040 -0.6963
 1139SOL    HW3 4555   3.225   0.021   1.879  1.0051  1.2381  0.5205
 1139SOL    MW4 4556   3.156   0.072   1.895 -0.0829  0.0838 -0.3590
 1140SOL     OW 4557   3.139   0.370   1.803 -0.3879 -0.4706  0.0331
 1140SOL    HW2 4558   3.133   0.279   1.832 -1.5734 -0.2754  0.4372
 1140SOL    HW3 4559   3.120   0.367   1.710 -1.3201 -0.5313  0.2252
 1140SOL    MW4 4560   3.136   0.358   1.795 -0.6673 -0.4529  0.1118
 1141SOL     OW 4561   3.573   0.369   1.741 -0.0199 -0.1033 -0.1677
 1141SOL    HW2 4562   3.574   0.282   1.779  1.9401  0.3488  0.8736
 1141SOL    HW3 4563   3.590   0.355   1.648 -1.8356 -0.9609 -0.4078
 1141SOL    MW4 4564   3.575   0.356   1.734 -0.0008 -0.1568 -0.0620
 1142SOL     OW 4565   3.148   0.861   1.847 -0.1369  0.2528 -0.2795
 1142SOL    HW2 4566   3.131   0.946   1.806  1.5646  0.6757 -0.1765
 1142SOL    HW3 4567   3.158   0.882   1.940  0.4243 -0.0373 -0.2742
 1142SOL    MW4 4568   3.147   0.875   1.854  0.1617  0.2703 -0.2652
 1143SOL     OW 4569   3.175   0.891   2.141  0.1242 -0.0588 -0.0966
 1143SOL    HW2 4570   3.252   0.838   2.162 -0.4892 -0.5094  1.0501
 1143SOL    HW3 4571   3.103   0.846   2.184 -0.5959  1.0210 -0.1689
 1143SOL    MW4 4572   3.176   0.878   2.149 -0.0517  0.0242  0.0452
 1144SOL     OW 4573   3.118   1.112   1.743 -0.1617  0.4300 -0.3657
 1144SOL    HW2 4574   3.044   1.162   1.776 -0.1327  0.5566 -0.4901
 1144SOL    HW3 4575   3.195   1.164   1.766  0.0858 -0.9457  2.0516
 1144SOL    MW4 4576   3.119   1.126   1.750 -0.1253  0.2652 -0.0632
 1145SOL     OW 4577   3.339   1.296   1.790 -0.2176  0.1278  0.1826
 1145SOL    HW2 4578   3.333   1.310   1.885 -0.3612  1.7331 -0.0595
 1145SOL    HW3 4579   3.355   1.383   1.753 -0.6085 -0.4173 -1.3109
 1145SOL    MW4 4580   3.340   1.309   1.798 -0.2882  0.2677 -0.0464
 1146SOL     OW 4581   3.417   1.570   1.695  0.4972  0.0766  0.3484
 1146SOL    HW2 4582   3.477   1.618   1.752 -1.0704  0.1625  1.9964
 1146SOL    HW3 4583   3.331   1.579   1.738 -0.5904 -0.5355 -1.6130
 1146SOL    MW4 4584   3.413   1.578   1.708  0.1469  0.0072  0.3070
 1147SOL     OW 4585   3.164   1.633   1.810  0.2680 -0.0632 -0.1112
 1147SOL    HW2 4586   3.141   1.635   1.903 -0.2404  0.3968 -0.2426
 1147SOL    HW3 4587   3.170   1.725   1.785  0.8710 -0.1859 -0.4220
 1147SOL    MW4 4588   3.162   1.645   1.819  0.2805 -0.0187 -0.1696
 1148SOL     OW 4589   3.193   1.909   1.746  0.1152  0.5595  0.3428
 1148SOL    HW2 4590   3.269   1.963   1.766  0.4508 -0.2644  1.3120
 1148SOL    HW3 4591   3.189   1.908   1.650  0.5957  1.6066  0.3067
 1148SOL    MW4 4592   3.202   1.916   1.736  0.2229  0.5889  0.4659
 1149SOL     OW 4593   3.417   2.057   1.815  0.2473 -0.1044  0.1636
 1149SOL    HW2 4594   3.507   2.029   1.803 -0.0289 -1.6960  1.6685
 1149SOL    HW3 4595   3.419   2.151   1.797  1.9182 -0.3707 -1.1705
 1149SOL    MW4 4596   3.429   2.066   1.811  0.4313 -0.3495  0.1861
 1150SOL     OW 4597   3.389   2.316   1.705  0.4598  0.1733  0.3585
 1150SOL    HW2 4598   3.307   2.360   1.725 -0.8177 -0.9833 -2.1185
 1150SOL    HW3 4599   3.393   2.316   1.609  2.0908 -2.0823  0.4015
 1150SOL    MW4 4600   3.379   2.322   1.695  0.5065 -0.2769  0.0374
 1151SOL     OW 4601   3.158   2.405   1.826 -0.1854  0.1950  0.2577
 1151SOL    HW2 4602   3.146   2.397   1.920 -0.7929 -0.6123  0.1179
 1151SOL    HW3 4603   3.150   2.499   1.809 -1.1272  0.2374  0.8743
 1151SOL    MW4 4604   3.155   2.416   1.836 -0.3898  0.0941  0.3206
 1152SOL     OW 4605   3.151   2.668   1.730 -0.0151  0.0425 -0.0230
 1152SOL    HW2 4606   3.070   2.710   1.760  0.1995 -0.0307  0.6698
 1152SOL    HW3 4607   3.154   2.686   1.636 -0.4038  0.7730  0.1025
 1152SOL    MW4 4608   3.141   2.676   1.721 -0.0381  0.1292  0.0850
 1153SOL     OW 4609   3.365   2.831   1.823  0.2494  0.0122  0.3837
 1153SOL    HW2 4610   3.375   2.809   1.916  2.8175 -0.8195 -0.0381
 1153SOL    HW3 4611   3.292   2.777   1.793 -0.6224  0.3137  1.9036
 1153SOL    MW4 4612   3.357   2.821   1.832  0.4732 -0.0577  0.5286
 1154SOL     OW 4613   3.182   3.208   1.836  0.2261  0.7831  0.5821
 1154SOL    HW2 4614   3.188   3.298   1.804  0.4844 -0.2305 -2.4597
 1154SOL    HW3 4615   3.264   3.168   1.807 -0.4589 -0.7704  0.7637
 1154SOL    MW4 4616   3.194   3.215   1.828  0.1698  0.4444  0.2048
 1155SOL     OW 4617   3.190   3.466   1.762 -0.2573 -0.1069  0.1492
 1155SOL    HW2 4618   3.108   3.510   1.786 -0.2094  0.1857 -0.2154
 1155SOL    HW3 4619   3.259   3.523   1.795 -0.1872 -1.0328  1.6897
 1155SOL    MW4 4620   3.188   3.479   1.770 -0.2417 -0.1904  0.3043
 1156SOL     OW 4621   2.823   0.493   1.113  0.0734  0.5311  0.6343
 1156SOL    HW2 4622   2.895   0.431   1.097  0.3199  1.0113 -0.1084
 1156SOL    HW3 4623   2.841   0.528   1.200  0.5080  0.3434  0.6216
 1156SOL    MW4 4624   2.835   0.489   1.122  0.1633  0.5697  0.5346
 1157SOL     OW 4625   3.372   3.664   1.833 -0.0561  0.2257 -0.2507
 1157SOL    HW2 4626   3.450   3.612   1.813 -0.9058 -0.7405 -1.1169
 1157SOL    HW3 4627   3.387   3.748   1.789  0.2490 -0.1646 -0.9085
 1157SOL    MW4 4628   3.384   3.668   1.824 -0.1280  0.0468 -0.4517
 1158SOL     OW 4629   3.409   3.899   1.692 -0.1299  0.5014  0.0660
 1158SOL    HW2 4630   3.317   3.924   1.698 -0.0793  0.4273  1.2575
 1158SOL    HW3 4631   3.420   3.870   1.601 -1.5962 -0.6949  0.2552
 1158SOL    MW4 4632   3.398   3.898   1.681 -0.3167  0.3338  0.2481
 1159SOL     OW 4633   3.387   3.550   1.383 -0.0875  0.1622  0.1953
 1159SOL    HW2 4634   3.458   3.530   1.444 -0.8283 -0.1220  0.9748
 1159SOL    HW3 4635   3.315   3.492   1.409 -0.6274  0.4784 -0.5555
 1159SOL    MW4 4636   3.387   3.540   1.394 -0.2565  0.1664  0.1991
 1160SOL     OW 4637   2.919   4.355   1.829 -0.3234  0.2871  0.2975
 1160SOL    HW2 4638   3.002   4.310   1.810 -1.2615 -1.6044  0.4912
 1160SOL    HW3 4639   2.918   4.365   1.924 -1.9895 -3.2086  0.7349
 1160SOL    MW4 4640   2.930   4.350   1.839 -0.6670 -0.4237  0.3808
 1161SOL     OW 4641   3.405   4.360   1.832  0.0168 -0.0517  0.1613
 1161SOL    HW2 4642   3.319   4.330   1.801 -0.2804  1.7380 -0.7983
 1161SOL    HW3 4643   3.468   4.308   1.782 -0.5053 -0.6592  0.1313
 1161SOL    MW4 4644   3.402   4.349   1.821 -0.0913  0.1043  0.0308
 1162SOL     OW 4645   3.399   4.625   1.784 -0.1322  0.0929 -0.3189
 1162SOL    HW2 4646   3.369   4.629   1.693 -0.0893  0.9350 -0.3063
 1162SOL    HW3 4647   3.416   4.533   1.800  0.4171  0.0034 -1.3556
 1162SOL    MW4 4648   3.397   4.614   1.774 -0.0540  0.1922 -0.4540
 1163SOL     OW 4649   3.616   0.110   1.839 -0.0463  0.6660 -0.3661
 1163SOL    HW2 4650   3.615   0.131   1.932 -1.4844  0.2840 -0.2781
 1163SOL    HW3 4651   3.535   0.062   1.824  0.7201 -0.2757 -1.5972
 1163SOL    MW4 4652   3.605   0.107   1.849 -0.1349  0.4913 -0.5170
 1164SOL     OW 4653   4.258   1.274   1.369 -0.0104  0.0018  0.2520
 1164SOL    HW2 4654   4.190   1.215   1.403  0.9179 -1.9998 -1.2590
 1164SOL    HW3 4655   4.340   1.236   1.402  0.5149  1.4035  0.6065
 1164SOL    MW4 4656   4.260   1.261   1.378  0.1814 -0.0773  0.0994
 1165SOL     OW 4657   3.837   0.508   1.834 -0.1164  0.1952  0.4697
 1165SOL    HW2 4658   3.919   0.475   1.798 -0.1533 -2.7775  2.8376
 1165SOL    HW3 4659   3.770   0.451   1.797 -0.8606  1.2739  0.1570
 1165SOL    MW4 4660   3.839   0.496   1.825 -0.2195 -0.0547  0.7409
 1166SOL     OW 4661   3.832   0.757   1.719 -0.0126  0.3545 -0.3583
 1166SOL    HW2 4662   3.765   0.816   1.754 -1.0270 -0.3996 -1.0054
 1166SOL    HW3 4663   3.822   0.676   1.770  0.2807  0.1684 -0.5924
 1166SOL    MW4 4664   3.822   0.754   1.730 -0.1077  0.2304 -0.4746
 1167SOL     OW 4665   3.637   0.925   1.820  0.0447  0.1841 -0.0291
 1167SOL    HW2 4666   3.624   1.015   1.789 -1.6811 -0.1887 -0.4668
 1167SOL    HW3 4667   3.552   0.883   1.807  0.6066 -1.2929  0.9259
 1167SOL    MW4 4668   3.624   0.932   1.814 -0.1089 -0.0599  0.0391
 1168SOL     OW 4669   3.595   1.160   1.719  0.2140  0.4189  0.4025
 1168SOL    HW2 4670   3.597   1.169   1.624  0.7273 -0.8542  0.2746
 1168SOL    HW3 4671   3.507   1.186   1.745 -1.1743 -2.8014 -0.8396
 1168SOL    MW4 4672   3.584   1.164   1.710  0.0985 -0.1740  0.2218
 1169SOL     OW 4673   3.805   1.286   1.829 -0.2587 -0.1733  0.6091
 1169SOL    HW2 4674   3.796   1.280   1.924 -1.2771  0.9159  0.5911
 1169SOL    HW3 4675   3.736   1.230   1.795 -0.6380  0.3517  0.5104
 1169SOL    MW4 4676   3.795   1.278   1.837 -0.4431  0.0397  0.5937
 1170SOL     OW 4677   3.824   1.538   1.711  0.1871 -0.6907 -0.1048
 1170SOL    HW2 4678   3.887   1.574   1.774 -1.2564 -0.2948  1.1461
 1170SOL    HW3 4679   3.804   1.451   1.745 -1.3850 -0.0780  0.5887
 1170SOL    MW4 4680   3.829   1.531   1.724 -0.2108 -0.5576  0.1518
 1171SOL     OW 4681   3.604   1.687   1.845 -0.0269  0.2820  0.4058
 1171SOL    HW2 4682   3.617   1.779   1.823  1.6024  0.0098  0.1562
 1171SOL    HW3 4683   3.664   1.640   1.788 -0.7621 -0.9247  0.6227
 1171SOL    MW4 4684   3.614   1.693   1.835  0.0911  0.0869  0.4015
 1172SOL     OW 4685   3.664   1.939   1.744  0.2859 -0.5478 -0.6052
 1172SOL    HW2 4686   3.725   2.008   1.771 -1.1022  0.4869 -0.0945
 1172SOL    HW3 4687   3.678   1.931   1.649  0.6734  0.2055 -0.6148
 1172SOL    MW4 4688   3.674   1.947   1.735  0.1538 -0.3119 -0.5391
 1173SOL     OW 4689   3.866   2.107   1.843  0.0827 -0.7380 -0.2879
 1173SOL    HW2 4690   3.922   2.037   1.808  0.4709 -0.7715  0.4003
 1173SOL    HW3 4691   3.879   2.180   1.782  0.7410 -0.8081 -0.2405
 1173SOL    MW4 4692   3.875   2.108   1.830  0.2208 -0.7517 -0.1908
 1174SOL     OW 4693   3.839   2.357   1.695 -0.7259  0.1862 -0.0792
 1174SOL    HW2 4694   3.910   2.410   1.731 -0.9649 -0.7243  1.7700
 1174SOL    HW3 4695   3.759   2.395   1.730 -0.8779 -1.6589  1.7041
 1174SOL    MW4 4696   3.838   2.369   1.704 -0.7775 -0.1774  0.4001
 1175SOL     OW 4697   3.601   2.458   1.810  0.0128  0.2704  0.0328
 1175SOL    HW2 4698   3.527   2.410   1.773 -0.0538 -0.1171  0.6452
 1175SOL    HW3 4699   3.598   2.544   1.769 -0.4241  0.0567 -0.3868
 1175SOL    MW4 4700   3.591   2.463   1.800 -0.0537  0.1911  0.0582
 1176SOL     OW 4701   3.581   2.719   1.691 -0.1233  0.5100 -0.3196
 1176SOL    HW2 4702   3.501   2.740   1.741 -0.5726 -0.2346 -0.7155
 1176SOL    HW3 4703   3.652   2.748   1.748 -0.6444  0.1020  0.5615
 1176SOL    MW4 4704   3.580   2.726   1.705 -0.2513  0.3579 -0.2556
 1177SOL     OW 4705   3.808   2.795   1.808 -0.0420  0.4829  0.0134
 1177SOL    HW2 4706   3.792   2.794   1.902 -0.1138 -1.4748 -0.0140
 1177SOL    HW3 4707   3.803   2.888   1.784  1.1141  1.1188  2.1191
 1177SOL    MW4 4708   3.806   2.807   1.817  0.1010  0.3085  0.2876
 1178SOL     OW 4709   3.835   3.066   1.759  0.2442  0.4383 -0.1876
 1178SOL    HW2 4710   3.768   3.126   1.792  0.1782 -0.5796  1.6266
 1178SOL    HW3 4711   3.843   3.087   1.666 -0.9475  2.1219  0.0706
 1178SOL    MW4 4712   3.827   3.076   1.751  0.0783  0.5262  0.0859
 1179SOL     OW 4713   3.607   3.207   1.844 -0.4327 -0.1308 -0.1546
 1179SOL    HW2 4714   3.600   3.210   1.939 -1.8564 -1.1015 -0.2151
 1179SOL    HW3 4715   3.589   3.296   1.815 -1.9260 -0.2477  0.3759
 1179SOL    MW4 4716   3.604   3.219   1.853 -0.8176 -0.2743 -0.0926
 1180SOL     OW 4717   3.580   3.476   1.782  0.1520 -0.4961 -0.0093
 1180SOL    HW2 4718   3.598   3.480   1.689  1.7598 -0.7477  0.2693
 1180SOL    HW3 4719   3.648   3.530   1.822 -0.9765  0.2183  0.9580
 1180SOL    MW4 4720   3.592   3.483   1.775  0.2152 -0.4351  0.1551
 1181SOL     OW 4721   3.819   3.600   1.857 -0.0194 -0.1218 -0.3390
 1181SOL    HW2 4722   3.873   3.538   1.807  1.7800  0.8193  0.3908
 1181SOL    HW3 4723   3.821   3.681   1.805  0.8672  0.4946  0.6436
 1181SOL    MW4 4724   3.826   3.602   1.843  0.3350  0.0837 -0.1131
 1182SOL     OW 4725   0.448   1.976   0.688  0.0165 -0.3321 -0.1354
 1182SOL    HW2 4726   0.358   1.944   0.680  0.9228 -2.6648 -1.1907
 1182SOL    HW3 4727   0.445   2.036   0.763 -2.2566 -0.9078  0.2705
 1182SOL    MW4 4728   0.436   1.980   0.697 -0.1638 -0.7158 -0.2211
 1183SOL     OW 4729   3.636   4.025   1.791 -0.1381 -0.5828  0.3367
 1183SOL    HW2 4730   3.626   4.034   1.886  0.4914 -0.6245  0.4084
 1183SOL    HW3 4731   3.554   3.985   1.762 -0.7643  0.3962  0.7204
 1183SOL    MW4 4732   3.624   4.021   1.800 -0.1377 -0.4591  0.3968
 1184SOL     OW 4733   3.619   4.275   1.670  0.5235 -0.0699  0.2205
 1184SOL    HW2 4734   3.677   4.332   1.720  1.2807  0.0551 -0.7728
 1184SOL    HW3 4735   3.614   4.195   1.722  0.8158  0.2812  0.7923
 1184SOL    MW4 4736   3.626   4.272   1.684  0.6620 -0.0071  0.1649
 1185SOL     OW 4737   3.799   4.425   1.875 -0.4446 -0.4144 -0.0318
 1185SOL    HW2 4738   3.811   4.452   1.966 -0.2000  0.5058 -0.3309
 1185SOL    HW3 4739   3.864   4.356   1.861 -1.1751 -1.2809  0.7860
 1185SOL    MW4 4740   3.809   4.420   1.885 -0.5087 -0.4073  0.0366
 1186SOL     OW 4741   4.249   0.011   1.754  0.3638  0.2007 -0.1185
 1186SOL    HW2 4742   4.317   0.067   1.791 -0.3538 -0.3295  2.0536
 1186SOL    HW3 4743   4.167   0.055   1.774 -0.0223  0.3341 -1.8681
 1186SOL    MW4 4744   4.247   0.024   1.761  0.2182  0.1483 -0.0628
 1187SOL     OW 4745   3.844   4.663   1.731  0.1534 -0.1735  0.1718
 1187SOL    HW2 4746   3.766   4.708   1.763  0.6256 -0.4327  1.7390
 1187SOL    HW3 4747   3.841   4.577   1.773  1.4856 -0.0328  0.5926
 1187SOL    MW4 4748   3.834   4.658   1.741  0.3914 -0.1891  0.4341
 1188SOL     OW 4749   4.070   0.407   1.704  0.5878 -0.4166  0.7285
 1188SOL    HW2 4750   4.083   0.391   1.611 -0.0734  0.6689  0.4442
 1188SOL    HW3 4751   4.056   0.320   1.742  0.6326 -0.8348 -0.2101
 1188SOL    MW4 4752   4.070   0.393   1.697  0.5065 -0.3285  0.5672
 1189SOL     OW 4753   4.308   0.519   1.813  0.1100 -0.0510  0.3021
 1189SOL    HW2 4754   4.317   0.499   1.907 -1.0870  1.9609  0.8616
 1189SOL    HW3 4755   4.221   0.487   1.791 -0.3526  1.1729  0.3301
 1189SOL    MW4 4756   4.298   0.512   1.823 -0.1089  0.3759  0.3796
 1190SOL     OW 4757   4.269   0.777   1.712 -0.1092  0.2209  0.2848
 1190SOL    HW2 4758   4.291   0.695   1.755  1.0523  0.4462  0.1332
 1190SOL    HW3 4759   4.256   0.753   1.620  1.4239  0.3845  0.0093
 1190SOL    MW4 4760   4.270   0.763   1.705  0.2463  0.2722  0.2285
 1191SOL     OW 4761   4.048   0.899   1.815 -0.3055  0.3297 -0.7985
 1191SOL    HW2 4762   4.127   0.868   1.770 -0.1417 -0.2620 -0.1052
 1191SOL    HW3 4763   3.977   0.845   1.780 -0.2245  0.0748 -0.5704
 1191SOL    MW4 4764   4.049   0.888   1.804 -0.2732  0.2180 -0.6770
 1192SOL     OW 4765   4.018   1.158   1.720  0.3702 -0.3202 -0.1766
 1192SOL    HW2 4766   3.999   1.069   1.750 -0.2203  0.1776  0.9443
 1192SOL    HW3 4767   3.943   1.210   1.750  2.1167  1.1258  1.8345
 1192SOL    MW4 4768   4.005   1.153   1.728  0.5227 -0.0638  0.2366
 1193SOL     OW 4769   4.249   1.516   1.745 -0.4843 -0.3818  0.1794
 1193SOL    HW2 4770   4.254   1.425   1.775  0.7302 -0.2668  0.3404
 1193SOL    HW3 4771   4.224   1.510   1.653 -2.2739 -0.8105  0.6732
 1193SOL    MW4 4772   4.246   1.503   1.737 -0.5602 -0.4232  0.2658
 1194SOL     OW 4773   4.232   1.532   1.468  0.2817  0.3752  0.1514
 1194SOL    HW2 4774   4.239   1.443   1.434 -0.6948 -0.4706  2.0834
 1194SOL    HW3 4775   4.148   1.563   1.434  0.7282  0.6656 -0.7135
 1194SOL    MW4 4776   4.222   1.524   1.459  0.2118  0.3019  0.2922
 1195SOL     OW 4777   4.027   1.639   1.855  0.5903 -0.0774 -0.0521
 1195SOL    HW2 4778   4.035   1.649   1.949  0.9707 -1.1928  0.0437
 1195SOL    HW3 4779   4.100   1.583   1.830 -0.1663 -0.7501 -0.8279
 1195SOL    MW4 4780   4.038   1.633   1.864  0.5407 -0.3133 -0.1418
 1196SOL     OW 4781   4.030   1.904   1.721 -0.2212  0.3105 -0.0492
 1196SOL    HW2 4782   4.015   1.819   1.763  2.6913 -0.1460  0.2027
 1196SOL    HW3 4783   4.027   1.885   1.627 -0.3560  0.0892 -0.0017
 1196SOL    MW4 4784   4.028   1.890   1.714  0.1453  0.2211 -0.0097
 1197SOL     OW 4785   4.264   2.048   1.757  0.0082  0.0562  0.8144
 1197SOL    HW2 4786   4.283   2.048   1.851  0.8521 -1.0362  0.6554
 1197SOL    HW3 4787   4.174   2.016   1.752  0.3042 -0.8602  1.2007
 1197SOL    MW4 4788   4.255   2.044   1.769  0.1586 -0.2088  0.8444
 1198SOL     OW 4789   4.484   2.454   1.786 -0.1082 -0.2577 -0.0673
 1198SOL    HW2 4790   4.486   2.463   1.881 -0.3944 -0.0753 -0.0752
 1198SOL    HW3 4791   4.491   2.544   1.754  1.9196 -0.4692 -0.2614
 1198SOL    MW4 4792   4.485   2.467   1.794  0.1216 -0.2615 -0.0940
 1199SOL     OW 4793   4.064   2.453   1.798  0.1963 -0.1900  0.5570
 1199SOL    HW2 4794   4.062   2.418   1.887  0.8081  0.7509  0.9439
 1199SOL    HW3 4795   4.145   2.419   1.760 -0.0606 -0.5847  0.3632
 1199SOL    MW4 4796   4.074   2.444   1.804  0.2431 -0.1179  0.5824
 1200SOL     OW 4797   4.057   2.706   1.723 -0.4452 -0.0640 -0.4114
 1200SOL    HW2 4798   4.051   2.610   1.726  0.8929 -0.1772 -0.9580
 1200SOL    HW3 4799   3.978   2.736   1.769 -0.1805 -1.4366  1.0050
 1200SOL    MW4 4800   4.046   2.697   1.730 -0.2337 -0.2600 -0.2967
 1201SOL     OW 4801   0.048   2.718   1.696 -0.3628  0.2467 -0.4887
 1201SOL    HW2 4802  -0.037   2.760   1.708 -0.7617 -0.7419  0.2339
 1201SOL    HW3 4803   0.053   2.700   1.603 -0.8368  0.5426 -0.5751
 1201SOL    MW4 4804   0.037   2.721   1.686 -0.4779  0.1553 -0.4048
 1202SOL     OW 4805   4.306   2.837   1.768  0.3885  0.4648  0.0920
 1202SOL    HW2 4806   4.226   2.798   1.734  1.0978  0.2737 -1.4001
 1202SOL    HW3 4807   4.295   2.835   1.863 -1.1830  0.0483 -0.0832
 1202SOL    MW4 4808   4.294   2.831   1.776  0.2748  0.3846 -0.1280
 1203SOL     OW 4809   4.041   3.237   1.826 -0.3049  0.0586  0.0929
 1203SOL    HW2 4810   4.050   3.227   1.920  0.1988 -0.0500  0.0384
 1203SOL    HW3 4811   3.974   3.174   1.800  1.2403 -1.6278  0.0557
 1203SOL    MW4 4812   4.034   3.227   1.835 -0.0345 -0.1782  0.0808
 1204SOL     OW 4813   4.008   3.479   1.719 -0.6035  0.0455 -0.2401
 1204SOL    HW2 4814   4.022   3.389   1.750 -0.2608 -0.2848 -1.3210
 1204SOL    HW3 4815   4.079   3.529   1.759  0.3609 -0.5469 -1.1852
 1204SOL    MW4 4816   4.020   3.474   1.728 -0.4310 -0.0762 -0.5074
 1205SOL     OW 4817   4.205   3.711   1.360 -0.1394  0.0928 -0.7754
 1205SOL    HW2 4818   4.200   3.711   1.265  1.3424 -0.9572 -0.8738
 1205SOL    HW3 4819   4.146   3.640   1.387 -0.1001 -0.0013 -0.9385
 1205SOL    MW4 4820   4.196   3.702   1.351  0.0613 -0.0582 -0.8099
 1206SOL     OW 4821   0.011   4.030   1.785 -0.4936 -0.0436 -0.1098
 1206SOL    HW2 4822  -0.070   3.981   1.773 -0.0705 -0.8510  0.2816
 1206SOL    HW3 4823  -0.010   4.119   1.756 -1.5224 -0.2393  0.0107
 1206SOL    MW4 4824  -0.003   4.036   1.780 -0.5735 -0.1759 -0.0423
 1207SOL     OW 4825   0.214   0.491   1.039  0.0254 -0.3264 -0.8595
 1207SOL    HW2 4826   0.135   0.539   1.013  0.3826  0.7381 -0.0438
 1207SOL    HW3 4827   0.286   0.543   1.005  0.4264 -0.0848  0.3162
 1207SOL    MW4 4828   0.213   0.504   1.031  0.1255 -0.1541 -0.5967
 1208SOL     OW 4829   3.826   3.837   1.713  0.1835  0.4642 -0.2517
 1208SOL    HW2 4830   3.832   3.848   1.618 -1.1137  0.7830 -0.3106
 1208SOL    HW3 4831   3.769   3.909   1.741  2.6214  1.9290  1.0897
 1208SOL    MW4 4832   3.819   3.848   1.704  0.3340  0.6995 -0.0825
 1209SOL     OW 4833   4.191   4.417   1.791 -0.0833  0.1328  0.2845
 1209SOL    HW2 4834   4.206   4.405   1.885  0.8733  2.0633  0.3970
 1209SOL    HW3 4835   4.204   4.511   1.777 -2.9718  0.3317 -1.2830
 1209SOL    MW4 4836   4.195   4.428   1.802 -0.3382  0.4138  0.0925
 1210SOL     OW 4837   0.269   4.639   2.160 -0.0239  0.2860  0.2871
 1210SOL    HW2 4838   0.293   4.616   2.250  0.1177 -1.5718 -0.1941
 1210SOL    HW3 4839   0.329   4.709   2.136  0.1705  0.5669  1.5204
 1210SOL    MW4 4840   0.280   4.645   2.169  0.0204  0.0780  0.3863
 1211SOL     OW 4841   0.021   0.107   2.119 -0.5706  0.2723  0.2340
 1211SOL    HW2 4842   0.100   0.061   2.147 -0.5947  0.2720  0.3009
 1211SOL    HW3 4843   0.023   0.102   2.023  0.4124  1.7866  0.1528
 1211SOL    MW4 4844   0.032   0.100   2.110 -0.4441  0.4721  0.2321
 1212SOL     OW 4845   0.020   0.352   2.214 -0.6146 -0.0981 -0.0639
 1212SOL    HW2 4846   0.090   0.401   2.172 -0.2607  0.4801  1.1856
 1212SOL    HW3 4847   0.030   0.262   2.181  0.0169  0.2231 -0.7459
 1212SOL    MW4 4848   0.030   0.346   2.204 -0.4846  0.0206  0.0110
 1213SOL     OW 4849   0.252   0.503   2.084  0.1124  0.4310 -0.4224
 1213SOL    HW2 4850   0.335   0.462   2.108 -0.4387 -0.3203  0.2073
 1213SOL    HW3 4851   0.247   0.494   1.989  0.9443  0.8598 -0.5114
 1213SOL    MW4 4852   0.262   0.497   2.074  0.1495  0.3884 -0.3511
 1214SOL     OW 4853   0.272   0.771   2.159 -0.4975 -0.4548 -0.1085
 1214SOL    HW2 4854   0.269   0.767   2.254 -0.6038 -1.5993 -0.1526
 1214SOL    HW3 4855   0.263   0.680   2.131 -2.3581  0.0550 -1.2562
 1214SOL    MW4 4856   0.270   0.758   2.168 -0.7570 -0.5386 -0.2657
 1215SOL     OW 4857   0.036   0.897   2.074 -0.0976  0.7334  0.3729
 1215SOL    HW2 4858   0.123   0.861   2.091 -0.6937 -0.0739  1.7759
 1215SOL    HW3 4859   0.024   0.887   1.979  1.3267  0.8539  0.1654
 1215SOL    MW4 4860   0.046   0.891   2.064  0.0117  0.6428  0.5306
 1216SOL     OW 4861   0.009   1.176   2.158  0.3221  0.7582  0.1834
 1216SOL    HW2 4862   0.013   1.182   2.254 -2.7202 -0.7115  0.4523
 1216SOL    HW3 4863   0.012   1.082   2.140  0.4112  1.0059 -1.1409
 1216SOL    MW4 4864   0.010   1.165   2.168 -0.0675  0.5970  0.0442
 1217SOL     OW 4865   0.236   1.276   2.055 -0.4878 -0.1870  0.1596
 1217SOL    HW2 4866   0.152   1.237   2.082  0.1923 -0.8172  1.3930
 1217SOL    HW3 4867   0.235   1.270   1.959 -0.0417 -4.0353  0.3327
 1217SOL    MW4 4868   0.225   1.270   2.045 -0.3392 -0.7779  0.3452
 1218SOL     OW 4869   0.011   1.668   2.079  0.1067  0.1587 -0.8834
 1218SOL    HW2 4870   0.024   1.753   2.122  1.5266 -0.1294 -0.7340
 1218SOL    HW3 4871   0.091   1.620   2.096 -0.7091 -1.2450 -0.9395
 1218SOL    MW4 4872   0.023   1.673   2.087  0.1864 -0.0645 -0.8711
 1219SOL     OW 4873   0.246   1.540   2.170  0.3870 -0.1951 -0.0354
 1219SOL    HW2 4874   0.225   1.529   2.263 -0.0297  0.5124 -0.0369
 1219SOL    HW3 4875   0.239   1.452   2.133  0.1330 -0.4136  0.5254
 1219SOL    MW4 4876   0.242   1.527   2.177  0.2985 -0.1306  0.0384
 1220SOL     OW 4877   0.006   1.923   2.202  0.0719 -0.0484 -0.0968
 1220SOL    HW2 4878  -0.067   1.947   2.145  0.6366 -0.1151 -0.8649
 1220SOL    HW3 4879   0.077   1.981   2.175  1.6610 -2.9901 -2.4289
 1220SOL    MW4 4880   0.006   1.934   2.191  0.3560 -0.4453 -0.5058
 1221SOL     OW 4881   0.228   2.057   2.110 -0.2472 -0.5998 -0.4470
 1221SOL    HW2 4882   0.305   2.005   2.133 -0.3514 -1.0883 -1.1694
 1221SOL    HW3 4883   0.224   2.052   2.014  0.1415  1.3130 -0.5715
 1221SOL    MW4 4884   0.238   2.049   2.100 -0.2097 -0.4119 -0.5587
 1222SOL     OW 4885   0.240   2.326   2.182 -0.0391 -0.3010  0.1986
 1222SOL    HW2 4886   0.237   2.337   2.277  1.3269 -0.0810  0.2327
 1222SOL    HW3 4887   0.228   2.232   2.169 -1.1791 -0.2097  0.5276
 1222SOL    MW4 4888   0.238   2.315   2.193 -0.0093 -0.2600  0.2465
 1223SOL     OW 4889   0.018   2.445   2.058 -0.3438  0.4131 -0.2353
 1223SOL    HW2 4890   0.029   2.538   2.079 -0.5302  0.1486  1.0567
 1223SOL    HW3 4891   0.100   2.404   2.085 -0.8772 -0.0501  0.6976
 1223SOL    MW4 4892   0.030   2.452   2.064 -0.4388  0.3171  0.0583
 1224SOL     OW 4893   0.001   2.729   2.142  0.4800  0.2920  0.3472
 1224SOL    HW2 4894  -0.029   2.751   2.231  0.8482  2.6419 -0.0681
 1224SOL    HW3 4895   0.089   2.767   2.137  1.6405 -2.3828 -0.0528
 1224SOL    MW4 4896   0.009   2.737   2.153  0.6817  0.2491  0.2396
 1225SOL     OW 4897   0.230   2.878   2.123 -0.0576 -0.0247  0.2156
 1225SOL    HW2 4898   0.298   2.823   2.162  0.5400  0.7998  0.3577
 1225SOL    HW3 4899   0.255   2.886   2.031 -1.0794 -1.3827 -0.2006
 1225SOL    MW4 4900   0.242   2.872   2.116 -0.1136 -0.0951  0.1795
 1226SOL     OW 4901   0.227   3.141   2.168  0.0361 -0.1002 -0.3339
 1226SOL    HW2 4902   0.158   3.178   2.113 -1.2106 -0.5990  0.8631
 1226SOL    HW3 4903   0.220   3.046   2.155  1.0499 -0.1221 -0.8301
 1226SOL    MW4 4904   0.217   3.133   2.159  0.0054 -0.1689 -0.2414
 1227SOL     OW 4905   4.469   3.233   2.086  0.0727  0.3522  0.1686
 1227SOL    HW2 4906   4.480   3.324   2.116 -0.1658  0.4289  0.0298
 1227SOL    HW3 4907   4.457   3.241   1.991  0.2796  0.1555  0.1261
 1227SOL    MW4 4908   4.469   3.246   2.078  0.0685  0.3364  0.1447
 1228SOL     OW 4909   0.010   3.496   2.185 -0.3270  0.0662 -0.5271
 1228SOL    HW2 4910   0.005   3.502   2.280 -0.9348  0.6754 -0.5975
 1228SOL    HW3 4911  -0.072   3.535   2.154 -1.5118 -2.8480 -1.2019
 1228SOL    MW4 4912  -0.002   3.502   2.193 -0.5635 -0.2379 -0.6254
 1229SOL     OW 4913   0.229   3.633   2.093  0.2347 -0.5522 -0.1426
 1229SOL    HW2 4914   0.309   3.588   2.122 -0.5339 -3.2315 -2.0164
 1229SOL    HW3 4915   0.158   3.582   2.132 -0.6177  0.7616  0.0432
 1229SOL    MW4 4916   0.230   3.621   2.102  0.0208 -0.7324 -0.3653
 1230SOL     OW 4917   0.223   3.884   2.178 -0.0943 -0.0046 -0.4583
 1230SOL    HW2 4918   0.155   3.926   2.126  0.9056  1.0770 -0.9331
 1230SOL    HW3 4919   0.225   3.794   2.146 -0.0248  0.4459 -1.7657
 1230SOL    MW4 4920   0.215   3.877   2.167  0.0468  0.1975 -0.6934
 1231SOL     OW 4921   4.490   3.988   2.071 -0.0247  0.2315 -0.2843
 1231SOL    HW2 4922   4.494   4.077   2.106 -0.4100  0.1053  0.0826
 1231SOL    HW3 4923   4.501   3.998   1.977  0.3175  0.6343 -0.2008
 1231SOL    MW4 4924   4.492   4.001   2.063 -0.0304  0.2680 -0.2249
 1232SOL     OW 4925   0.023   4.238   2.155  0.1542  0.0052  0.1673
 1232SOL    HW2 4926   0.020   4.248   2.250 -2.1634  1.2975 -0.0161
 1232SOL    HW3 4927   0.104   4.283   2.129  1.3745 -1.2784  1.5990
 1232SOL    MW4 4928   0.033   4.245   2.164  0.0094  0.0063  0.3320
 1233SOL     OW 4929   0.247   4.380   2.081  0.1350 -0.1308 -0.3120
 1233SOL    HW2 4930   0.315   4.344   2.139 -0.4239 -0.6711  0.0121
 1233SOL    HW3 4931   0.237   4.470   2.110  1.1795  0.1534 -0.7901
 1233SOL    MW4 4932   0.255   4.387   2.092  0.1991 -0.1646 -0.3323
 1234SOL     OW 4933   0.714   0.001   2.161 -0.2906  0.4600 -0.0821
 1234SOL    HW2 4934   0.692   0.018   2.253  0.0487 -0.3490  0.1566
 1234SOL    HW3 4935   0.802   0.037   2.151  0.1092 -0.4150  0.2098
 1234SOL    MW4 4936   0.723   0.008   2.172 -0.1931  0.2378 -0.0121
 1235SOL     OW 4937   0.474   0.133   2.069  0.3309  0.3430  0.2674
 1235SOL    HW2 4938   0.560   0.097   2.092  0.5364  0.4637 -0.3045
 1235SOL    HW3 4939   0.459   0.104   1.979  0.1397  1.0127  0.0815
 1235SOL    MW4 4940   0.483   0.124   2.061  0.3328  0.4473  0.1674
 1236SOL     OW 4941   0.486   0.384   2.165 -0.3282 -0.3586 -0.3868
 1236SOL    HW2 4942   0.481   0.382   2.261  0.2553  1.6025 -0.3030
 1236SOL    HW3 4943   0.472   0.293   2.139 -2.5297 -0.6063  1.4579
 1236SOL    MW4 4944   0.483   0.371   2.174 -0.5417 -0.1326 -0.1324
 1237SOL     OW 4945   0.717   0.508   2.075  0.0972 -0.0971 -0.3910
 1237SOL    HW2 4946   0.709   0.586   2.129  1.6654  0.2846 -0.6827
 1237SOL    HW3 4947   0.644   0.452   2.102  0.3059  0.4897  1.4345
 1237SOL    MW4 4948   0.707   0.511   2.085  0.3316  0.0307 -0.1886
 1238SOL     OW 4949   0.738   0.769   2.184 -0.0814 -0.0928 -0.0815
 1238SOL    HW2 4950   0.716   0.764   2.277  0.2294 -1.8939 -0.0996
 1238SOL    HW3 4951   0.661   0.809   2.143  1.1156  4.0537  1.3910
 1238SOL    MW4 4952   0.725   0.774   2.191  0.1175  0.2166  0.1104
 1239SOL     OW 4953   0.508   0.875   2.064 -0.0773 -0.1430 -0.0925
 1239SOL    HW2 4954   0.432   0.820   2.084  0.5811 -0.9814  0.0936
 1239SOL    HW3 4955   0.513   0.876   1.968 -0.7058  0.4491 -0.1271
 1239SOL    MW4 4956   0.498   0.868   2.054 -0.0733 -0.1755 -0.0725
 1240SOL     OW 4957   0.447   1.141   2.155  0.4041 -0.0721  0.7274
 1240SOL    HW2 4958   0.449   1.045   2.147  0.8240 -0.0076 -0.0109
 1240SOL    HW3 4959   0.367   1.167   2.109  2.0981  0.1884 -2.2320
 1240SOL    MW4 4960   0.437   1.132   2.148  0.6830 -0.0293  0.2395
 1241SOL     OW 4961   0.701   1.289   2.090  0.0851 -0.2257  0.0969
 1241SOL    HW2 4962   0.683   1.373   2.133  0.1464 -0.5739  0.8079
 1241SOL    HW3 4963   0.622   1.236   2.107  0.4196 -0.6227  0.4215
 1241SOL    MW4 4964   0.688   1.293   2.098  0.1373 -0.3240  0.2335
 1242SOL     OW 4965   0.474   1.690   2.045 -0.3167  0.1450 -0.2040
 1242SOL    HW2 4966   0.391   1.655   2.078 -0.0926  0.9291  1.2415
 1242SOL    HW3 4967   0.541   1.641   2.092  0.0262  0.4728 -0.3498
 1242SOL    MW4 4968   0.472   1.679   2.056 -0.2419  0.2917 -0.0325
 1243SOL     OW 4969   0.454   1.678   1.776 -0.2167 -0.5817 -0.0978
 1243SOL    HW2 4970   0.515   1.616   1.737  1.4971  0.1888  1.3086
 1243SOL    HW3 4971   0.473   1.675   1.870 -0.3971  1.7224  0.0470
 1243SOL    MW4 4972   0.464   1.669   1.783 -0.0144 -0.1760  0.1069
 1244SOL     OW 4973   0.468   1.949   2.185  0.2089  0.1091  0.9247
 1244SOL    HW2 4974   0.544   1.997   2.153  0.0406 -0.0875  0.2274
 1244SOL    HW3 4975   0.477   1.861   2.147 -0.0714 -0.0817  1.2941
 1244SOL    MW4 4976   0.479   1.943   2.176  0.1497  0.0580  0.8814
 1245SOL     OW 4977   0.709   2.066   2.094 -0.3022 -0.0131  0.1730
 1245SOL    HW2 4978   0.780   2.028   2.146 -0.7714 -0.7127  0.3055
 1245SOL    HW3 4979   0.707   2.158   2.120 -0.0092 -0.1829  0.7981
 1245SOL    MW4 4980   0.718   2.074   2.104 -0.3254 -0.1278  0.2730
 1246SOL     OW 4981   0.674   2.346   2.198  0.0666 -0.1234 -0.1896
 1246SOL    HW2 4982   0.673   2.346   2.294  0.4982 -1.4922 -0.1730
 1246SOL    HW3 4983   0.738   2.414   2.175 -1.2916  1.3948  0.4451
 1246SOL    MW4 4984   0.683   2.355   2.208 -0.0557 -0.1037 -0.1037
 1247SOL     OW 4985   0.456   2.472   2.075  0.1363 -0.2593 -0.0135
 1247SOL    HW2 4986   0.533   2.425   2.107  0.4261 -0.7389 -1.3529
 1247SOL    HW3 4987   0.382   2.418   2.101  0.2290  0.3476  1.5318
 1247SOL    MW4 4988   0.457   2.459   2.082  0.1868 -0.2425  0.0137
 1248SOL     OW 4989   0.454   2.705   2.214 -0.3461 -0.5972 -0.0116
 1248SOL    HW2 4990   0.429   2.687   2.304 -0.7623 -0.0708 -0.0221
 1248SOL    HW3 4991   0.449   2.619   2.171 -1.3788 -0.6347  0.1722
 1248SOL    MW4 4992   0.450   2.691   2.220 -0.5373 -0.5327  0.0113
 1249SOL     OW 4993   0.648   2.860   2.083 -0.4507  0.3291  0.0047
 1249SOL    HW2 4994   0.587   2.804   2.131 -0.9356  0.8792  0.0344
 1249SOL    HW3 4995   0.734   2.838   2.119 -0.6914 -0.0354  0.3679
 1249SOL    MW4 4996   0.651   2.849   2.094 -0.5464  0.3536  0.0565
 1250SOL     OW 4997   0.646   3.126   2.222 -0.3109 -0.3660  0.4679
 1250SOL    HW2 4998   0.597   3.199   2.184 -0.4755  0.3047  1.9189
 1250SOL    HW3 4999   0.622   3.050   2.169 -1.6471  0.2682  0.1415
 1250SOL    MW4 5000   0.637   3.126   2.210 -0.5089 -0.1938  0.6163
 1251SOL     OW 5001   0.445   3.259   2.073  0.1518 -0.9815 -0.0416
 1251SOL    HW2 5002   0.365   3.215   2.103 -0.8217  0.8815  0.1916
 1251SOL    HW3 5003   0.446   3.243   1.978 -0.7858 -0.6031 -0.1282
 1251SOL    MW4 5004   0.434   3.251   2.064 -0.1004 -0.6858 -0.0222
 1252SOL     OW 5005   0.451   3.493   2.207  0.2367 -0.1534  0.4137
 1252SOL    HW2 5006   0.521   3.533   2.156  1.0099 -0.4825  1.1952
 1252SOL    HW3 5007   0.427   3.415   2.158  1.4092 -0.8035  0.8518
 1252SOL    MW4 5008   0.457   3.488   2.194  0.4934 -0.2826  0.5746
 1253SOL     OW 5009   0.684   3.591   2.100 -0.0676 -0.3115 -0.5227
 1253SOL    HW2 5010   0.686   3.679   2.137 -1.3447 -0.3923 -0.2417
 1253SOL    HW3 5011   0.665   3.604   2.007  1.7685 -0.1922 -0.9151
 1253SOL    MW4 5012   0.682   3.604   2.092  0.0061 -0.3064 -0.5374
 1254SOL     OW 5013   0.670   3.865   2.176  0.2299  0.3574  0.4184
 1254SOL    HW2 5014   0.690   3.861   2.269 -0.7872  1.9763  0.7311
 1254SOL    HW3 5015   0.599   3.928   2.169  0.3764  0.3611 -1.4702
 1254SOL    MW4 5016   0.663   3.873   2.187  0.1151  0.5714  0.2104
 1255SOL     OW 5017   0.457   4.020   2.125 -0.7363 -0.2182  0.1787
 1255SOL    HW2 5018   0.392   3.953   2.148 -0.7456 -0.4571 -0.5336
 1255SOL    HW3 5019   0.451   4.028   2.029 -0.1518  0.2065  0.1719
 1255SOL    MW4 5020   0.447   4.012   2.115 -0.6604 -0.1937  0.0838
 1256SOL     OW 5021   0.469   4.263   2.223 -0.0804 -0.2544 -0.2901
 1256SOL    HW2 5022   0.544   4.298   2.175 -0.9269 -0.4029 -1.7324
 1256SOL    HW3 5023   0.462   4.172   2.193  0.2127 -0.7768  1.1432
 1256SOL    MW4 5024   0.478   4.256   2.213 -0.1534 -0.3429 -0.2913
 1257SOL     OW 5025   0.705   4.393   2.112  0.2424 -0.3288  0.1465
 1257SOL    HW2 5026   0.702   4.485   2.139 -0.9393 -0.4373  0.3880
 1257SOL    HW3 5027   0.704   4.397   2.016  1.1136 -0.0655  0.1421
 1257SOL    MW4 5028   0.705   4.406   2.103  0.2014 -0.3084  0.1778
 1258SOL     OW 5029   1.130   4.610   2.188 -0.0908  0.0661  0.2378
 1258SOL    HW2 5030   1.137   4.616   2.283 -1.8365 -0.9592  0.4445
 1258SOL    HW3 5031   1.066   4.677   2.164  0.4485  0.4217 -0.2383
 1258SOL    MW4 5032   1.122   4.620   2.197 -0.2500 -0.0222  0.2022
 1259SOL     OW 5033   0.946   0.139   2.120  0.7126 -0.0491  0.2940
 1259SOL    HW2 5034   0.935   0.226   2.160 -0.3167 -0.2359  0.4297
 1259SOL    HW3 5035   0.923   0.153   2.028 -1.1488 -0.5428  0.6737
 1259SOL    MW4 5036   0.942   0.153   2.113  0.3312 -0.1389  0.3620
 1260SOL     OW 5037   0.912   0.401   2.221 -0.2471 -0.7753  0.3866
 1260SOL    HW2 5038   0.991   0.426   2.172 -0.7070 -0.7354 -0.3473
 1260SOL    HW3 5039   0.840   0.439   2.170 -0.7500 -0.9514  0.9649
 1260SOL    MW4 5040   0.913   0.409   2.208 -0.3741 -0.7932  0.3660
 1261SOL     OW 5041   1.149   0.512   2.105  0.1853 -0.5641 -0.0478
 1261SOL    HW2 5042   1.225   0.463   2.137  0.6040  0.2896  0.2612
 1261SOL    HW3 5043   1.148   0.495   2.011  0.5035 -0.9248  0.0121
 1261SOL    MW4 5044   1.158   0.503   2.097  0.2825 -0.4990  0.0009
 1262SOL     OW 5045   1.140   0.774   2.185  0.1620 -0.3191 -0.1403
 1262SOL    HW2 5046   1.063   0.804   2.137 -0.3413  0.5867  1.1860
 1262SOL    HW3 5047   1.149   0.681   2.161 -1.1986 -0.3717 -0.5030
 1262SOL    MW4 5048   1.131   0.765   2.176 -0.0839 -0.2065 -0.0131
 1263SOL     OW 5049   0.922   0.928   2.068 -0.0263  0.0428  0.1662
 1263SOL    HW2 5050   0.921   1.014   2.111  1.1627 -0.1472  0.5681
 1263SOL    HW3 5051   0.856   0.878   2.117  1.3204 -0.1770  1.7982
 1263SOL    MW4 5052   0.913   0.933   2.080  0.3083 -0.0112  0.4346
 1264SOL     OW 5053   0.925   1.164   2.193 -0.6214  0.2227  0.0746
 1264SOL    HW2 5054   0.841   1.202   2.165  0.1374  1.5714 -0.4094
 1264SOL    HW3 5055   0.990   1.205   2.137  0.1676 -2.4174 -0.9827
 1264SOL    MW4 5056   0.922   1.175   2.182 -0.4172  0.0523 -0.1288
 1265SOL     OW 5057   1.113   1.522   2.213 -0.1447  0.1190  0.4017
 1265SOL    HW2 5058   1.105   1.439   2.166 -0.8153  0.7774 -0.6752
 1265SOL    HW3 5059   1.034   1.570   2.189  0.9937  1.6892 -0.2172
 1265SOL    MW4 5060   1.102   1.517   2.204 -0.0830  0.4130  0.1780
 1266SOL     OW 5061   0.913   1.656   2.122  0.2766 -0.3647  0.2082
 1266SOL    HW2 5062   0.925   1.748   2.144 -0.9454 -0.1930  0.1981
 1266SOL    HW3 5063   0.927   1.651   2.028 -1.7420  0.1980 -0.1478
 1266SOL    MW4 5064   0.916   1.667   2.113 -0.1510 -0.2678  0.1599
 1267SOL     OW 5065   0.673   1.543   2.182 -0.4306 -0.0775  0.1604
 1267SOL    HW2 5066   0.662   1.568   2.274 -0.2612  0.3664  0.0585
 1267SOL    HW3 5067   0.755   1.584   2.155 -0.1594 -0.7272 -0.0121
 1267SOL    MW4 5068   0.682   1.552   2.190 -0.3724 -0.1047  0.1242
 1268SOL     OW 5069   0.923   1.918   2.208  0.3197 -0.2312  0.4069
 1268SOL    HW2 5070   0.921   1.941   2.301  0.6890 -2.2575  0.9541
 1268SOL    HW3 5071   0.987   1.977   2.169 -0.6688  1.3949  1.2080
 1268SOL    MW4 5072   0.931   1.929   2.215  0.2380 -0.2840  0.5848
 1269SOL     OW 5073   1.113   2.085   2.093  0.1136 -0.0575  0.2530
 1269SOL    HW2 5074   1.196   2.058   2.131  0.1953  1.2804  1.0432
 1269SOL    HW3 5075   1.121   2.063   2.000 -0.2902 -3.7836  1.0402
 1269SOL    MW4 5076   1.125   2.079   2.085  0.0711 -0.3726  0.4611
 1270SOL     OW 5077   1.121   2.339   2.185 -0.6788  0.3520 -0.5519
 1270SOL    HW2 5078   1.210   2.372   2.172 -0.3357 -0.4206 -0.1687
 1270SOL    HW3 5079   1.121   2.254   2.142 -0.6563 -0.5255  1.1655
 1270SOL    MW4 5080   1.133   2.332   2.178 -0.6306  0.1343 -0.2747
 1271SOL     OW 5081   0.879   2.481   2.064  0.7333 -0.0297  0.0606
 1271SOL    HW2 5082   0.948   2.417   2.082  1.3358  0.4791 -0.3829
 1271SOL    HW3 5083   0.872   2.484   1.969  0.3315  0.1580  0.0951
 1271SOL    MW4 5084   0.887   2.473   2.054  0.7598  0.0622  0.0066
 1272SOL     OW 5085   0.879   2.750   2.167  0.2376 -0.0463  0.2715
 1272SOL    HW2 5086   0.853   2.736   2.258 -0.1840  1.0900  0.3272
 1272SOL    HW3 5087   0.877   2.662   2.128  0.7627 -0.5887  1.4366
 1272SOL    MW4 5088   0.875   2.736   2.174  0.2513  0.0321  0.4325
 1273SOL     OW 5089   1.134   2.797   2.097 -0.0810 -0.2546 -0.2384
 1273SOL    HW2 5090   1.201   2.760   2.155  0.5663  1.1808 -0.0515
 1273SOL    HW3 5091   1.051   2.778   2.141  0.3346 -0.2171  0.5765
 1273SOL    MW4 5092   1.132   2.790   2.110  0.0592 -0.0602 -0.1062
 1274SOL     OW 5093   1.127   3.064   2.174 -0.0861 -0.3849  0.0283
 1274SOL    HW2 5094   1.037   3.089   2.154 -0.2588  0.8770  2.2157
 1274SOL    HW3 5095   1.136   2.975   2.141 -1.4502  0.2400 -2.1641
 1274SOL    MW4 5096   1.116   3.056   2.167 -0.2888 -0.1360  0.0276
 1275SOL     OW 5097   0.886   3.172   2.099  0.1103  0.9501 -0.3214
 1275SOL    HW2 5098   0.916   3.262   2.114  0.2046  0.7919  0.4208
 1275SOL    HW3 5099   0.808   3.163   2.154  1.1822 -0.0300  1.0783
 1275SOL    MW4 5100   0.880   3.183   2.108  0.2642  0.7999 -0.0388
 1276SOL     OW 5101   0.912   3.428   2.182  0.3311  0.1232  0.3603
 1276SOL    HW2 5102   0.910   3.452   2.274 -0.8088  1.8465 -0.0800
 1276SOL    HW3 5103   0.844   3.482   2.141 -1.4273 -2.9403 -0.9738
 1276SOL    MW4 5104   0.903   3.439   2.188 -0.0513 -0.0536  0.1262
 1277SOL     OW 5105   1.102   3.618   2.093 -0.3372 -0.1692  0.2841
 1277SOL    HW2 5106   1.178   3.589   2.143 -0.3641 -1.2922 -0.3133
 1277SOL    HW3 5107   1.033   3.555   2.115 -0.2367 -0.9086 -1.4404
 1277SOL    MW4 5108   1.103   3.606   2.102 -0.3275 -0.4149 -0.0222
 1278SOL     OW 5109   1.118   3.875   2.186  0.0133 -0.2597  0.3729
 1278SOL    HW2 5110   1.192   3.921   2.145 -0.5576  0.7677  0.4898
 1278SOL    HW3 5111   1.116   3.790   2.143  1.0944 -0.1865  0.1670
 1278SOL    MW4 5112   1.128   3.870   2.175  0.0806 -0.1145  0.3612
 1279SOL     OW 5113   0.891   4.007   2.096 -0.0511 -0.4060 -0.1263
 1279SOL    HW2 5114   0.972   3.965   2.125  0.0265  0.0275  0.2995
 1279SOL    HW3 5115   0.822   3.946   2.121  0.0738 -0.3589  0.3331
 1279SOL    MW4 5116   0.892   3.994   2.103 -0.0244 -0.3426 -0.0095
 1280SOL     OW 5117   0.905   4.244   2.230 -0.4582  0.2925 -0.1325
 1280SOL    HW2 5118   0.900   4.157   2.190 -0.1038  0.3779 -0.3715
 1280SOL    HW3 5119   0.832   4.293   2.191 -1.2014 -0.1641  0.6718
 1280SOL    MW4 5120   0.895   4.239   2.219 -0.5095  0.2436 -0.0579
 1281SOL     OW 5121   1.094   4.369   2.089  0.1957 -0.1683 -0.3687
 1281SOL    HW2 5122   1.027   4.322   2.138  1.5061 -1.7232 -0.0604
 1281SOL    HW3 5123   1.100   4.454   2.133 -0.2700 -0.6939  0.7317
 1281SOL    MW4 5124   1.086   4.374   2.101  0.3072 -0.4428 -0.1829
 1282SOL     OW 5125   1.562   0.014   2.226 -0.2173 -0.1484  0.1702
 1282SOL    HW2 5126   1.637   0.047   2.175  0.4182 -0.7648  0.7074
 1282SOL    HW3 5127   1.485   0.046   2.178  0.3806 -0.3250 -0.9191
 1282SOL    MW4 5128   1.562   0.023   2.213 -0.0545 -0.2530  0.0973
 1283SOL     OW 5129   1.333   0.086   2.055 -0.1610 -0.2075 -0.2424
 1283SOL    HW2 5130   1.323   0.164   2.110  0.1581 -0.2365 -0.1458
 1283SOL    HW3 5131   1.270   0.024   2.091  0.5438 -0.4793  0.5380
 1283SOL    MW4 5132   1.323   0.088   2.067 -0.0259 -0.2472 -0.1267
 1284SOL     OW 5133   1.342   0.332   2.214 -0.6229  0.0810  0.4210
 1284SOL    HW2 5134   1.350   0.323   2.309  0.0592 -0.3755  0.3226
 1284SOL    HW3 5135   1.419   0.384   2.189 -0.6743 -0.0063  0.0887
 1284SOL    MW4 5136   1.353   0.338   2.223 -0.5397  0.0093  0.3641
 1285SOL     OW 5137   1.593   0.469   2.130  0.1974 -0.2758  0.2926
 1285SOL    HW2 5138   1.676   0.440   2.169  0.5593  0.7719  0.3136
 1285SOL    HW3 5139   1.608   0.466   2.036  0.2053 -0.2426  0.2927
 1285SOL    MW4 5140   1.606   0.465   2.123  0.2462 -0.1332  0.2954
 1286SOL     OW 5141   1.573   0.755   2.185 -0.0931 -0.5141 -0.2985
 1286SOL    HW2 5142   1.655   0.794   2.153 -1.0706  0.6631 -1.4296
 1286SOL    HW3 5143   1.582   0.661   2.167  1.5640 -0.5861  0.8371
 1286SOL    MW4 5144   1.585   0.748   2.178 -0.0034 -0.3683 -0.2979
 1287SOL     OW 5145   1.357   0.925   2.126  0.3180 -0.2940  0.1287
 1287SOL    HW2 5146   1.426   0.859   2.134  0.6728  0.1805  1.0817
 1287SOL    HW3 5147   1.277   0.880   2.153  0.8247  0.1030  2.4043
 1287SOL    MW4 5148   1.356   0.910   2.130  0.4317 -0.1790  0.5547
 1288SOL     OW 5149   1.349   1.174   2.217  0.3479 -0.1088 -0.0742
 1288SOL    HW2 5150   1.381   1.173   2.307  0.1421 -0.4015 -0.0012
 1288SOL    HW3 5151   1.349   1.081   2.191  0.5868 -0.0061 -0.4390
 1288SOL    MW4 5152   1.353   1.161   2.225  0.3522 -0.1339 -0.1127
 1289SOL     OW 5153   1.599   1.261   2.099 -0.6050  0.0773 -0.2399
 1289SOL    HW2 5154   1.515   1.223   2.124 -1.3814  0.9116 -1.5189
 1289SOL    HW3 5155   1.605   1.245   2.005  1.2225 -1.0326  0.0565
 1289SOL    MW4 5156   1.589   1.254   2.090 -0.4663  0.0409 -0.3696
 1290SOL     OW 5157   1.572   1.519   2.183  0.0678  0.1286  0.3765
 1290SOL    HW2 5158   1.664   1.546   2.183  0.5507 -1.4731  0.7265
 1290SOL    HW3 5159   1.574   1.426   2.159 -1.4548  0.0846  0.3729
 1290SOL    MW4 5160   1.585   1.510   2.180 -0.0694 -0.0885  0.4222
 1291SOL     OW 5161   1.359   1.669   2.098 -0.1035  0.2375  0.0742
 1291SOL    HW2 5162   1.443   1.627   2.115  0.0380 -0.6196 -2.6076
 1291SOL    HW3 5163   1.294   1.600   2.109 -0.2282  0.2849 -0.3447
 1291SOL    MW4 5164   1.362   1.655   2.102 -0.1013  0.1307 -0.3349
 1292SOL     OW 5165   1.302   1.940   2.222  0.7499 -0.7173  0.1386
 1292SOL    HW2 5166   1.378   1.973   2.176 -0.9852  0.0293 -2.2477
 1292SOL    HW3 5167   1.283   1.856   2.180 -0.5799 -0.2364 -0.2401
 1292SOL    MW4 5168   1.309   1.933   2.211  0.3455 -0.5554 -0.2262
 1293SOL     OW 5169   1.552   2.016   2.119 -0.1499 -0.3480 -0.0152
 1293SOL    HW2 5170   1.629   1.962   2.139 -0.2370 -0.4539  0.0365
 1293SOL    HW3 5171   1.550   2.020   2.024 -0.0469 -0.2976 -0.0152
 1293SOL    MW4 5172   1.562   2.009   2.109 -0.1478 -0.3553 -0.0084
 1294SOL     OW 5173   1.599   2.287   2.175  0.7177 -0.4101  0.1564
 1294SOL    HW2 5174   1.601   2.301   2.269 -0.5866 -2.5351  0.5475
 1294SOL    HW3 5175   1.595   2.192   2.165  0.4314 -0.2005 -2.0261
 1294SOL    MW4 5176   1.598   2.276   2.186  0.5079 -0.6628 -0.0800
 1295SOL     OW 5177   1.372   2.444   2.127 -0.0225 -0.0852  0.2634
 1295SOL    HW2 5178   1.442   2.380   2.137  0.5684  0.6902  1.1214
 1295SOL    HW3 5179   1.371   2.465   2.033 -0.2054 -1.3198 -0.0185
 1295SOL    MW4 5180   1.381   2.438   2.116  0.0313 -0.1457  0.3394
 1296SOL     OW 5181   1.335   2.692   2.254 -0.2115 -0.0462  0.3881
 1296SOL    HW2 5182   1.418   2.728   2.222 -0.3568  1.0793  1.2251
 1296SOL    HW3 5183   1.339   2.599   2.232  0.8906  0.1673 -0.3676
 1296SOL    MW4 5184   1.347   2.684   2.247 -0.0852  0.1305  0.3988
 1297SOL     OW 5185   1.601   2.845   2.165  0.3971  0.0042 -0.4518
 1297SOL    HW2 5186   1.576   2.935   2.189 -0.2607 -0.6083  1.2324
 1297SOL    HW3 5187   1.583   2.840   2.071  1.7297  2.0503 -0.8467
 1297SOL    MW4 5188   1.595   2.856   2.155  0.4861  0.1934 -0.2817
 1298SOL     OW 5189   1.543   3.127   2.160  0.2611 -0.4765 -0.0005
 1298SOL    HW2 5190   1.539   3.114   2.255 -0.8566 -0.8161 -0.0851
 1298SOL    HW3 5191   1.466   3.179   2.139  0.9231  0.2735 -0.6294
 1298SOL    MW4 5192   1.533   3.132   2.170  0.2010 -0.4224 -0.0946
 1299SOL     OW 5193   1.309   3.249   2.077  0.6346  0.2436  0.3660
 1299SOL    HW2 5194   1.241   3.184   2.093  0.9922 -0.0137  0.8479
 1299SOL    HW3 5195   1.309   3.262   1.982 -0.8029  1.0112  0.4481
 1299SOL    MW4 5196   1.300   3.242   2.067  0.4921  0.3109  0.4404
 1300SOL     OW 5197   1.321   3.499   2.217 -0.3497  0.0742 -0.2724
 1300SOL    HW2 5198   1.348   3.486   2.308 -0.7783 -1.2604 -0.3329
 1300SOL    HW3 5199   1.299   3.412   2.185 -0.5622  0.5807 -1.5520
 1300SOL    MW4 5200   1.322   3.486   2.225 -0.4343 -0.0351 -0.4492
 1301SOL     OW 5201   1.541   3.599   2.059 -0.3841  0.2278 -0.1058
 1301SOL    HW2 5202   1.567   3.688   2.084  0.4416 -0.2337  0.7081
 1301SOL    HW3 5203   1.461   3.583   2.109 -0.0924  0.2216  0.3630
 1301SOL    MW4 5204   1.534   3.609   2.069 -0.2367  0.1661  0.0634
 1302SOL     OW 5205   1.598   3.859   2.200  0.1923 -0.0174  0.0753
 1302SOL    HW2 5206   1.594   3.851   2.295 -0.6157 -0.7314 -0.0066
 1302SOL    HW3 5207   1.676   3.910   2.183 -0.3454  1.2016  1.1957
 1302SOL    MW4 5208   1.608   3.865   2.210  0.0147  0.0493  0.2123
 1303SOL     OW 5209   1.359   3.994   2.117  0.3667  0.4219 -0.7913
 1303SOL    HW2 5210   1.438   3.947   2.142  1.4736  2.3234 -0.5877
 1303SOL    HW3 5211   1.373   4.019   2.026 -1.0426 -1.2632 -1.4988
 1303SOL    MW4 5212   1.371   3.991   2.108  0.3268  0.4504 -0.8578
 1304SOL     OW 5213   1.344   4.285   2.175  0.3440  0.0826 -0.0951
 1304SOL    HW2 5214   1.354   4.194   2.149 -0.1760 -0.0573  0.1944
 1304SOL    HW3 5215   1.260   4.312   2.138  0.5456  0.4741 -0.2679
 1304SOL    MW4 5216   1.334   4.277   2.167  0.3020  0.1158 -0.0797
 1305SOL     OW 5217   1.593   4.413   2.100 -0.7408  0.2562 -0.2143
 1305SOL    HW2 5218   1.510   4.368   2.118 -1.3405  0.9152 -1.2730
 1305SOL    HW3 5219   1.584   4.497   2.145 -0.2456 -0.0613  0.4814
 1305SOL    MW4 5220   1.581   4.418   2.108 -0.7546  0.3012 -0.2622
 1306SOL     OW 5221   2.031   4.637   2.220 -0.3606  0.0274 -0.2361
 1306SOL    HW2 5222   2.098   4.692   2.179 -0.5794  0.3424 -0.1714
 1306SOL    HW3 5223   2.047   4.549   2.185 -0.3113  0.2221 -0.7093
 1306SOL    MW4 5224   2.042   4.632   2.210 -0.3829  0.0946 -0.2900
 1307SOL     OW 5225   1.796   0.093   2.079 -0.1550  0.6725 -0.1883
 1307SOL    HW2 5226   1.799   0.179   2.122  1.4803  0.5228  0.0501
 1307SOL    HW3 5227   1.873   0.047   2.114 -0.4300 -0.5028 -1.1141
 1307SOL    MW4 5228   1.807   0.099   2.089  0.0245  0.4977 -0.2790
 1308SOL     OW 5229   1.832   0.339   2.201 -0.1754 -0.3208  0.2992
 1308SOL    HW2 5230   1.833   0.345   2.296 -0.1041  1.2827  0.2009
 1308SOL    HW3 5231   1.903   0.396   2.172 -1.0996  0.2986 -0.7733
 1308SOL    MW4 5232   1.842   0.347   2.210 -0.2879 -0.0275  0.1448
 1309SOL     OW 5233   2.027   0.486   2.085 -0.6335 -0.1252  0.0434
 1309SOL    HW2 5234   2.020   0.578   2.113 -1.3799 -0.2336  0.2164
 1309SOL    HW3 5235   2.026   0.490   1.990 -1.3137 -0.0035  0.0564
 1309SOL    MW4 5236   2.026   0.499   2.077 -0.8217 -0.1235  0.0680
 1310SOL     OW 5237   2.037   0.730   2.215 -0.5999  0.5924  0.2851
 1310SOL    HW2 5238   2.115   0.778   2.187  0.0073  1.1930  2.8872
 1310SOL    HW3 5239   1.964   0.776   2.172  0.3065  1.2269 -0.5956
 1310SOL    MW4 5240   2.037   0.742   2.205 -0.4002  0.7554  0.5123
 1311SOL     OW 5241   1.831   0.850   2.101 -0.7283  0.2023 -0.2804
 1311SOL    HW2 5242   1.839   0.938   2.139 -0.4943  0.3849 -0.7570
 1311SOL    HW3 5243   1.833   0.864   2.007  0.4825 -0.4176 -0.3562
 1311SOL    MW4 5244   1.832   0.863   2.094 -0.5377  0.1446 -0.3533
 1312SOL     OW 5245   1.814   1.107   2.203  0.2755 -0.0311  0.0694
 1312SOL    HW2 5246   1.893   1.156   2.177 -0.1871 -1.3443 -4.1652
 1312SOL    HW3 5247   1.743   1.170   2.192  0.4548  0.5681  2.0514
 1312SOL    MW4 5248   1.815   1.122   2.198  0.2381 -0.1253 -0.2278
 1313SOL     OW 5249   2.053   1.231   2.131 -0.1255  0.0234 -0.2805
 1313SOL    HW2 5250   2.079   1.319   2.158  0.7617  0.0537 -1.2158
 1313SOL    HW3 5251   2.028   1.240   2.039 -2.3381 -0.2485  0.2490
 1313SOL    MW4 5252   2.053   1.244   2.123 -0.3003 -0.0085 -0.3340
 1314SOL     OW 5253   2.051   1.509   2.248 -0.4431 -0.0515  0.1320
 1314SOL    HW2 5254   2.035   1.527   2.341  0.5539  0.5156  0.1959
 1314SOL    HW3 5255   1.976   1.547   2.203 -1.1303 -0.6810  0.7360
 1314SOL    MW4 5256   2.039   1.516   2.255 -0.4022 -0.0597  0.2201
 1315SOL     OW 5257   1.829   1.622   2.162  0.0321 -0.1094 -0.2019
 1315SOL    HW2 5258   1.807   1.713   2.182 -0.9227 -0.0563 -1.4215
 1315SOL    HW3 5259   1.811   1.614   2.068  0.6906 -1.3962 -0.2244
 1315SOL    MW4 5260   1.824   1.633   2.152 -0.0070 -0.2722 -0.3658
 1316SOL     OW 5261   1.788   1.896   2.202  0.0397  0.3741 -0.1775
 1316SOL    HW2 5262   1.786   1.922   2.294  0.3657  1.2004 -0.3914
 1316SOL    HW3 5263   1.863   1.944   2.166  0.1935 -0.3006 -0.7683
 1316SOL    MW4 5264   1.798   1.906   2.209  0.1030  0.3941 -0.2836
 1317SOL     OW 5265   1.992   2.049   2.129 -0.3471 -0.1912 -0.4993
 1317SOL    HW2 5266   2.071   1.999   2.146 -0.6767  0.1478  2.2063
 1317SOL    HW3 5267   1.987   2.055   2.033  0.6718 -3.7055 -0.8193
 1317SOL    MW4 5268   2.002   2.043   2.119 -0.2561 -0.6101 -0.1846
 1318SOL     OW 5269   2.011   2.320   2.192 -0.0843  0.1743 -0.3819
 1318SOL    HW2 5270   2.096   2.356   2.167 -1.0659  1.3779 -2.0276
 1318SOL    HW3 5271   2.008   2.233   2.152 -0.0169  0.5003 -1.0836
 1318SOL    MW4 5272   2.022   2.313   2.184 -0.2049  0.3761 -0.6916
 1319SOL     OW 5273   1.812   2.478   2.081  0.0165  0.4216  0.1159
 1319SOL    HW2 5274   1.879   2.419   2.116  0.9924  0.7132 -1.2222
 1319SOL    HW3 5275   1.733   2.425   2.079  0.5989 -0.4608  0.1140
 1319SOL    MW4 5276   1.811   2.463   2.085  0.2221  0.3437 -0.0609
 1320SOL     OW 5277   1.837   2.715   2.220  0.2716  0.0147  0.4829
 1320SOL    HW2 5278   1.821   2.628   2.183  1.4987  1.2656 -3.2097
 1320SOL    HW3 5279   1.758   2.765   2.200  0.7063  0.5434  0.0904
 1320SOL    MW4 5280   1.825   2.710   2.213  0.4909  0.2495 -0.0561
 1321SOL     OW 5281   2.020   2.855   2.084 -0.1480  0.4319  0.2565
 1321SOL    HW2 5282   2.100   2.826   2.128  0.4540  1.1474 -0.3823
 1321SOL    HW3 5283   1.950   2.811   2.133  0.5909  0.2437  1.1691
 1321SOL    MW4 5284   2.021   2.845   2.097  0.0289  0.5015  0.2926
 1322SOL     OW 5285   2.001   3.108   2.191  0.1442  0.0169 -0.0532
 1322SOL    HW2 5286   2.061   3.162   2.139 -0.1136  0.1846 -0.1732
 1322SOL    HW3 5287   2.006   3.021   2.151  0.7222 -0.1009  0.2706
 1322SOL    MW4 5288   2.010   3.104   2.179  0.1865  0.0235 -0.0263
 1323SOL     OW 5289   1.783   3.233   2.061  0.2940 -0.1156 -0.7709
 1323SOL    HW2 5290   1.850   3.200   2.121 -0.0382 -2.5079 -1.6538
 1323SOL    HW3 5291   1.701   3.195   2.094 -0.1715  0.2171 -1.5484
 1323SOL    MW4 5292   1.781   3.223   2.073  0.1888 -0.3873 -0.9899
 1324SOL     OW 5293   1.772   3.500   2.167 -0.6585  0.4015  0.1436
 1324SOL    HW2 5294   1.775   3.412   2.130  0.3271  0.9619 -1.1211
 1324SOL    HW3 5295   1.690   3.537   2.134 -0.3156  0.5079 -0.6010
 1324SOL    MW4 5296   1.762   3.493   2.158 -0.4832  0.4895 -0.1215
 1325SOL     OW 5297   2.252   3.460   2.155 -0.4254 -0.1168  0.0326
 1325SOL    HW2 5298   2.253   3.458   2.250 -0.5623 -1.3381  0.0273
 1325SOL    HW3 5299   2.176   3.513   2.132 -1.4211 -1.2531  0.6218
 1325SOL    MW4 5300   2.242   3.466   2.164 -0.5749 -0.4279  0.1097
 1326SOL     OW 5301   2.035   3.878   2.183  0.0033  0.2918 -0.3051
 1326SOL    HW2 5302   2.022   3.877   2.278 -2.3297 -0.3934 -0.6060
 1326SOL    HW3 5303   2.033   3.786   2.158  0.4270  0.4853 -1.0563
 1326SOL    MW4 5304   2.033   3.865   2.192 -0.2486  0.2269 -0.4439
 1327SOL     OW 5305   1.811   3.999   2.083  0.6578  0.0060  0.1725
 1327SOL    HW2 5306   1.895   3.962   2.112  1.0884 -0.6822 -1.8641
 1327SOL    HW3 5307   1.805   3.974   1.991 -0.1573  2.9971 -0.6455
 1327SOL    MW4 5308   1.821   3.991   2.075  0.6071  0.3098 -0.2041
 1328SOL     OW 5309   1.816   4.277   2.170  0.1134  0.2501 -0.1199
 1328SOL    HW2 5310   1.822   4.187   2.137  0.6658  0.0883  0.4053
 1328SOL    HW3 5311   1.728   4.306   2.144 -0.7942 -1.0924  1.3269
 1328SOL    MW4 5312   1.805   4.269   2.162  0.0665  0.0516  0.1402
 1329SOL     OW 5313   2.064   4.376   2.113 -0.0050  0.1389  0.2134
 1329SOL    HW2 5314   1.979   4.341   2.139 -0.4873  1.8742  1.0109
 1329SOL    HW3 5315   2.061   4.379   2.017 -0.6515 -0.2376  0.2217
 1329SOL    MW4 5316   2.053   4.372   2.104 -0.1540  0.3182  0.3197
 1330SOL     OW 5317   2.440   4.631   2.199  0.0988  0.1176 -0.0651
 1330SOL    HW2 5318   2.518   4.685   2.184 -1.3787  1.4607 -3.7433
 1330SOL    HW3 5319   2.467   4.542   2.175  1.2688  0.0601  1.4535
 1330SOL    MW4 5320   2.454   4.626   2.194  0.0582  0.2872 -0.3500
 1331SOL     OW 5321   2.216   0.121   2.070 -0.0844 -0.2474 -0.3011
 1331SOL    HW2 5322   2.208   0.206   2.114 -0.4852  0.4132 -1.6231
 1331SOL    HW3 5323   2.296   0.082   2.107  0.5086  1.0267 -0.2106
 1331SOL    MW4 5324   2.226   0.127   2.080 -0.0591  0.0079 -0.4635
 1332SOL     OW 5325   2.231   0.337   2.247  0.3386 -0.8093  0.3299
 1332SOL    HW2 5326   2.316   0.371   2.218  0.7212 -1.5196  0.6172
 1332SOL    HW3 5327   2.167   0.396   2.207  0.9924  0.2283  0.7818
 1332SOL    MW4 5328   2.234   0.349   2.238  0.4753 -0.7661  0.4274
 1333SOL     OW 5329   2.463   0.466   2.170 -0.0229  0.0500  0.5218
 1333SOL    HW2 5330   2.547   0.443   2.210 -0.3935 -0.0822  1.2142
 1333SOL    HW3 5331   2.483   0.471   2.076  0.9370  0.7816  0.7534
 1333SOL    MW4 5332   2.477   0.464   2.163  0.0549  0.1291  0.6437
 1334SOL     OW 5333   2.463   0.731   2.265 -0.1501 -0.0943 -0.4673
 1334SOL    HW2 5334   2.549   0.764   2.240 -0.5574  0.0733 -1.6805
 1334SOL    HW3 5335   2.461   0.642   2.229 -0.2369 -0.3256  0.1124
 1334SOL    MW4 5336   2.474   0.723   2.257 -0.2153 -0.1027 -0.5509
 1335SOL     OW 5337   2.265   0.863   2.134 -0.4093 -0.4843 -0.2088
 1335SOL    HW2 5338   2.280   0.946   2.179 -0.8370 -0.2704 -0.4567
 1335SOL    HW3 5339   2.334   0.805   2.167  0.6202  0.3126 -0.9138
 1335SOL    MW4 5340   2.276   0.867   2.144 -0.3299 -0.3509 -0.3345
 1336SOL     OW 5341   2.272   1.118   2.243 -0.0491 -0.0240  0.0723
 1336SOL    HW2 5342   2.340   1.170   2.200 -0.5291  0.5110 -0.0497
 1336SOL    HW3 5343   2.190   1.151   2.207 -0.4571  0.4073  1.3574
 1336SOL    MW4 5344   2.270   1.129   2.233 -0.1662  0.1035  0.2258
 1337SOL     OW 5345   2.486   1.244   2.119  0.2063 -0.0777  0.5245
 1337SOL    HW2 5346   2.564   1.208   2.163  0.4817  1.1522  1.0544
 1337SOL    HW3 5347   2.488   1.337   2.140 -0.0949  0.3870 -1.4535
 1337SOL    MW4 5348   2.497   1.251   2.127  0.2029  0.1459  0.3335
 1338SOL     OW 5349   2.462   1.509   2.213  0.4498 -0.1194  0.1640
 1338SOL    HW2 5350   2.449   1.521   2.307  0.9336 -1.0011  0.3511
 1338SOL    HW3 5351   2.540   1.560   2.193 -0.1355  0.7566  0.0714
 1338SOL    MW4 5352   2.471   1.517   2.223  0.4364 -0.1202  0.1765
 1339SOL     OW 5353   2.250   1.654   2.094  0.3372 -0.3405 -0.6821
 1339SOL    HW2 5354   2.331   1.613   2.125  0.1922  0.5313  0.9091
 1339SOL    HW3 5355   2.182   1.622   2.153 -0.4980 -1.0279 -1.9813
 1339SOL    MW4 5356   2.252   1.644   2.106  0.2079 -0.3161 -0.6436
 1340SOL     OW 5357   2.253   1.912   2.189 -0.9007 -0.0204 -0.1455
 1340SOL    HW2 5358   2.334   1.960   2.170 -0.3547  0.1226  2.4352
 1340SOL    HW3 5359   2.269   1.824   2.156 -0.5514  0.5723 -1.6260
 1340SOL    MW4 5360   2.266   1.907   2.182 -0.7826  0.0766 -0.0003
 1341SOL     OW 5361   2.491   2.065   2.114 -0.2617  0.2279  0.0638
 1341SOL    HW2 5362   2.572   2.019   2.137 -0.6139 -0.5436 -0.2077
 1341SOL    HW3 5363   2.490   2.065   2.019  1.1256  3.2991 -0.0269
 1341SOL    MW4 5364   2.502   2.059   2.105 -0.1251  0.5313  0.0160
 1342SOL     OW 5365   2.459   2.360   2.206  0.0939 -0.3828  0.3794
 1342SOL    HW2 5366   2.534   2.414   2.181 -0.9134  0.3363 -1.1761
 1342SOL    HW3 5367   2.477   2.274   2.167  0.4755 -0.4306  0.6631
 1342SOL    MW4 5368   2.471   2.356   2.198  0.0113 -0.2942  0.2116
 1343SOL     OW 5369   2.230   2.470   2.108 -0.0794 -0.0919  0.0663
 1343SOL    HW2 5370   2.236   2.564   2.127 -0.3905 -0.0320 -0.1214
 1343SOL    HW3 5371   2.311   2.433   2.144  1.3075  0.6377 -2.1527
 1343SOL    MW4 5372   2.242   2.478   2.115  0.0625  0.0122 -0.2512
 1344SOL     OW 5373   2.244   2.739   2.189 -0.3820  0.6577 -0.4974
 1344SOL    HW2 5374   2.252   2.731   2.284 -0.8018 -0.6675 -0.5660
 1344SOL    HW3 5375   2.328   2.772   2.160  0.6164 -1.3339  0.0695
 1344SOL    MW4 5376   2.256   2.743   2.197 -0.3057  0.2201 -0.4317
 1345SOL     OW 5377   2.479   2.852   2.109  0.2597  0.1947 -0.0621
 1345SOL    HW2 5378   2.560   2.819   2.149  0.3866  0.2800 -0.2483
 1345SOL    HW3 5379   2.482   2.819   2.019 -1.0922 -1.8430  0.6102
 1345SOL    MW4 5380   2.490   2.843   2.102  0.0981 -0.0629  0.0020
 1346SOL     OW 5381   2.404   3.093   2.184  0.0382 -0.1087 -0.3070
 1346SOL    HW2 5382   2.476   3.142   2.146 -0.1377 -0.2962 -0.8828
 1346SOL    HW3 5383   2.426   3.002   2.169 -0.2271 -0.1717 -0.3132
 1346SOL    MW4 5384   2.416   3.088   2.177 -0.0200 -0.1417 -0.3838
 1347SOL     OW 5385   2.229   3.221   2.018  0.1572  0.3644 -0.5171
 1347SOL    HW2 5386   2.225   3.310   2.052 -1.4712  0.9701 -2.2314
 1347SOL    HW3 5387   2.297   3.179   2.071  0.6890  2.4939  0.5703
 1347SOL    MW4 5388   2.237   3.227   2.029  0.0125  0.7253 -0.5999
 1348SOL     OW 5389   2.261   3.491   2.442 -0.1771  0.5587 -0.5220
 1348SOL    HW2 5390   2.261   3.403   2.479  1.4976 -0.5412 -2.9834
 1348SOL    HW3 5391   2.320   3.541   2.498  1.3694 -0.7437 -0.9588
 1348SOL    MW4 5392   2.269   3.486   2.454  0.2479  0.2418 -0.9044
 1349SOL     OW 5393   2.460   3.612   2.040 -0.4016  0.1489 -0.2815
 1349SOL    HW2 5394   2.463   3.698   2.083 -0.5895 -0.3787  0.8216
 1349SOL    HW3 5395   2.385   3.569   2.081  0.6708 -1.1419  0.3518
 1349SOL    MW4 5396   2.450   3.618   2.051 -0.2849 -0.0910 -0.0524
 1350SOL     OW 5397   2.486   3.855   2.189 -0.7495 -0.1660 -0.2287
 1350SOL    HW2 5398   2.485   3.872   2.284  2.5723  0.9134 -0.3220
 1350SOL    HW3 5399   2.416   3.910   2.155  1.1082  3.2214  1.1107
 1350SOL    MW4 5400   2.476   3.864   2.197 -0.0662  0.4233 -0.0643
 1351SOL     OW 5401   2.288   3.991   2.091 -0.3831 -0.0908  0.0389
 1351SOL    HW2 5402   2.300   4.071   2.141  0.5824  0.1137 -0.4951
 1351SOL    HW3 5403   2.201   3.960   2.114 -1.4574  2.0330 -1.0880
 1351SOL    MW4 5404   2.278   3.997   2.101 -0.3974  0.2164 -0.1802
 1352SOL     OW 5405   2.307   4.251   2.207 -0.3370  0.3649 -0.2551
 1352SOL    HW2 5406   2.303   4.262   2.302  0.5851 -0.2658 -0.1396
 1352SOL    HW3 5407   2.225   4.288   2.175 -0.3605  1.1977  0.7312
 1352SOL    MW4 5408   2.296   4.258   2.215 -0.2184  0.3915 -0.1097
 1353SOL     OW 5409   2.529   4.370   2.108  0.0381 -0.2114  0.3311
 1353SOL    HW2 5410   2.608   4.345   2.158 -0.7399 -0.1263  1.6293
 1353SOL    HW3 5411   2.457   4.329   2.156 -0.7069 -0.4233 -0.9467
 1353SOL    MW4 5412   2.530   4.361   2.121 -0.1629 -0.2282  0.3338
 1354SOL     OW 5413   2.909   4.646   2.271 -0.5243  0.2076 -0.1020
 1354SOL    HW2 5414   2.979   4.702   2.236 -1.2964  0.3358 -1.5049
 1354SOL    HW3 5415   2.912   4.567   2.217 -0.5365 -0.3951  0.7721
 1354SOL    MW4 5416   2.919   4.643   2.259 -0.6278  0.1450 -0.1718
 1355SOL     OW 5417   2.667   0.099   2.157 -0.1182 -0.1453 -0.3212
 1355SOL    HW2 5418   2.671   0.188   2.191  0.5654  0.3774 -1.7039
 1355SOL    HW3 5419   2.738   0.053   2.200 -0.3142  0.0433  0.2048
 1355SOL    MW4 5420   2.677   0.105   2.167 -0.0539 -0.0514 -0.4342
 1356SOL     OW 5421   2.712   0.353   2.266  0.4187  0.2190  0.4410
 1356SOL    HW2 5422   2.719   0.368   2.361  1.7263 -0.6680  0.5014
 1356SOL    HW3 5423   2.775   0.413   2.228 -0.6405  1.1069  0.0669
 1356SOL    MW4 5424   2.721   0.363   2.274  0.4514  0.2191  0.3996
 1357SOL     OW 5425   2.914   0.510   2.138  0.1047 -0.3724  0.0870
 1357SOL    HW2 5426   2.918   0.597   2.177  0.6279 -0.6901  0.7467
 1357SOL    HW3 5427   2.894   0.527   2.046  3.4137  0.6466 -0.5211
 1357SOL    MW4 5428   2.912   0.524   2.131  0.6103 -0.2798  0.0938
 1358SOL     OW 5429   2.942   0.771   2.236  0.0422 -0.0093  0.3207
 1358SOL    HW2 5430   2.917   0.777   2.328 -0.7951 -1.6016  0.2164
 1358SOL    HW3 5431   2.862   0.792   2.188  0.4207  0.6072 -0.0454
 1358SOL    MW4 5432   2.928   0.775   2.241 -0.0183 -0.1380  0.2586
 1359SOL     OW 5433   2.691   0.832   2.159 -0.3863 -0.4140 -0.1469
 1359SOL    HW2 5434   2.688   0.925   2.183 -0.2355 -0.3519 -0.3607
 1359SOL    HW3 5435   2.683   0.832   2.064  0.6671 -0.5594 -0.2458
 1359SOL    MW4 5436   2.690   0.844   2.150 -0.2274 -0.4250 -0.1882
 1360SOL     OW 5437   2.685   1.097   2.269 -0.0298 -0.3137 -0.0512
 1360SOL    HW2 5438   2.693   1.120   2.362 -2.0513  0.5698 -0.0894
 1360SOL    HW3 5439   2.751   1.151   2.226  1.0829 -0.8925  0.8728
 1360SOL    MW4 5440   2.695   1.107   2.276 -0.1497 -0.2735  0.0656
 1361SOL     OW 5441   2.889   1.226   2.141  0.1890 -0.0888  0.0791
 1361SOL    HW2 5442   2.982   1.205   2.149  0.5348  1.3617  0.1025
 1361SOL    HW3 5443   2.877   1.248   2.049 -0.1300 -0.2430  0.0833
 1361SOL    MW4 5444   2.900   1.226   2.130  0.1926  0.0822  0.0827
 1362SOL     OW 5445   2.896   1.512   2.219  0.2669 -0.1430 -0.4677
 1362SOL    HW2 5446   2.913   1.525   2.312 -2.3264 -0.6405  0.1441
 1362SOL    HW3 5447   2.898   1.417   2.208  2.2359 -0.0146 -1.2890
 1362SOL    MW4 5448   2.898   1.501   2.230  0.1845 -0.1917 -0.4954
 1363SOL     OW 5449   2.680   1.657   2.140 -0.2472  0.1160 -0.2562
 1363SOL    HW2 5450   2.759   1.610   2.165  1.2896  2.6849 -0.0632
 1363SOL    HW3 5451   2.683   1.662   2.045 -1.3652 -1.7416 -0.4016
 1363SOL    MW4 5452   2.691   1.652   2.131 -0.1920  0.2098 -0.2499
 1364SOL     OW 5453   2.717   1.930   2.213  0.7969 -0.2050 -0.0643
 1364SOL    HW2 5454   2.727   1.912   2.306  0.3146 -0.7174 -0.1102
 1364SOL    HW3 5455   2.719   1.843   2.171 -0.5499 -0.0916 -0.3777
 1364SOL    MW4 5456   2.719   1.916   2.219  0.5556 -0.2577 -0.1117
 1365SOL     OW 5457   2.942   2.064   2.123  0.0195  0.2364  0.2502
 1365SOL    HW2 5458   3.011   2.010   2.161 -1.1019 -2.6159 -1.6302
 1365SOL    HW3 5459   2.861   2.030   2.161 -0.5913  1.9567  0.5604
 1365SOL    MW4 5460   2.940   2.052   2.133 -0.2090  0.0870  0.0430
 1366SOL     OW 5461   2.873   2.320   2.212 -0.3560  0.0800 -0.2347
 1366SOL    HW2 5462   2.896   2.312   2.304  0.4245 -1.2259 -0.5365
 1366SOL    HW3 5463   2.898   2.236   2.173 -2.4314 -0.0894 -1.2584
 1366SOL    MW4 5464   2.879   2.308   2.219 -0.5268 -0.1147 -0.4096
 1367SOL     OW 5465   2.695   2.498   2.103 -0.6052 -0.0190  0.3331
 1367SOL    HW2 5466   2.756   2.436   2.143  0.0284 -0.0958 -0.7390
 1367SOL    HW3 5467   2.697   2.477   2.010 -1.2828  0.8367  0.1207
 1367SOL    MW4 5468   2.704   2.487   2.096 -0.6110  0.0837  0.1636
 1368SOL     OW 5469   2.701   2.728   2.258 -0.2717  0.4118  0.4173
 1368SOL    HW2 5470   2.779   2.776   2.228 -0.9755  1.6769  0.6116
 1368SOL    HW3 5471   2.702   2.648   2.205  0.5538  0.9203 -0.3662
 1368SOL    MW4 5472   2.712   2.724   2.247 -0.2557  0.6458  0.3395
 1369SOL     OW 5473   2.916   2.845   2.119 -0.4037 -0.2554 -0.3407
 1369SOL    HW2 5474   2.911   2.937   2.146 -0.8977 -0.2858 -0.3114
 1369SOL    HW3 5475   2.921   2.848   2.023  1.0415 -0.1580 -0.2743
 1369SOL    MW4 5476   2.916   2.857   2.110 -0.2782 -0.2466 -0.3281
 1370SOL     OW 5477   2.889   3.111   2.213  0.0438  0.1770  0.0921
 1370SOL    HW2 5478   2.971   3.150   2.182 -0.7146  0.8721 -1.0602
 1370SOL    HW3 5479   2.826   3.183   2.211 -0.9355 -0.6777 -0.3731
 1370SOL    MW4 5480   2.892   3.126   2.208 -0.1855  0.1559 -0.1213
 1371SOL     OW 5481   2.635   3.237   2.121  0.5116  0.1462  0.0504
 1371SOL    HW2 5482   2.625   3.330   2.142  0.8661  0.3587 -0.7262
 1371SOL    HW3 5483   2.648   3.234   2.027 -1.2375 -0.8424 -0.1853
 1371SOL    MW4 5484   2.635   3.249   2.112  0.3276  0.0438 -0.0832
 1372SOL     OW 5485   2.656   3.507   2.193  0.3639 -0.3178 -0.4104
 1372SOL    HW2 5486   2.586   3.551   2.144 -0.5935 -0.6496  0.6453
 1372SOL    HW3 5487   2.736   3.535   2.150 -0.2806  1.9165 -0.1891
 1372SOL    MW4 5488   2.657   3.516   2.181  0.1525 -0.0668 -0.2420
 1373SOL     OW 5489   2.897   3.591   2.082 -0.2504 -0.2329 -0.5212
 1373SOL    HW2 5490   2.965   3.547   2.132 -0.7151 -0.4773 -0.1066
 1373SOL    HW3 5491   2.898   3.681   2.114 -0.9228 -0.5240  0.3158
 1373SOL    MW4 5492   2.906   3.597   2.093 -0.4004 -0.3035 -0.3561
 1374SOL     OW 5493   2.915   3.865   2.167 -0.9247  0.1310  0.1805
 1374SOL    HW2 5494   2.905   3.871   2.262 -0.8383 -0.2165  0.2113
 1374SOL    HW3 5495   2.836   3.908   2.132  0.0818  2.2030  0.3867
 1374SOL    MW4 5496   2.903   3.871   2.175 -0.7805  0.3585  0.2118
 1375SOL     OW 5497   2.701   4.009   2.094 -0.2013  0.3557 -0.2921
 1375SOL    HW2 5498   2.629   3.956   2.128  0.1913 -0.5264 -0.8015
 1375SOL    HW3 5499   2.696   3.997   1.999  0.2962  0.7114 -0.3621
 1375SOL    MW4 5500   2.691   4.000   2.086 -0.0839  0.2862 -0.3686
 1376SOL     OW 5501   2.739   4.229   2.249  0.0832 -0.0610  0.3317
 1376SOL    HW2 5502   2.708   4.224   2.340  1.6959 -0.8570  0.8622
 1376SOL    HW3 5503   2.726   4.140   2.215  0.5162 -0.0461  0.1316
 1376SOL    MW4 5504   2.733   4.216   2.257  0.3531 -0.1640  0.3753
 1377SOL     OW 5505   2.913   4.395   2.107  0.2738 -0.1028 -0.1045
 1377SOL    HW2 5506   2.991   4.365   2.152 -0.6058 -0.9630  0.8804
 1377SOL    HW3 5507   2.842   4.343   2.144 -0.5201 -0.6539 -2.3157
 1377SOL    MW4 5508   2.914   4.384   2.118  0.0530 -0.2890 -0.2663
 1378SOL     OW 5509   3.370   4.638   2.155  0.5819  0.0112 -0.0989
 1378SOL    HW2 5510   3.378   4.646   2.250  0.8963 -2.0584  0.0734
 1378SOL    HW3 5511   3.443   4.689   2.120  0.6655  0.4964  0.7732
 1378SOL    MW4 5512   3.381   4.646   2.163  0.6344 -0.1978  0.0389
 1379SOL     OW 5513   3.123   0.123   2.164  0.2405  0.0403  0.6199
 1379SOL    HW2 5514   3.135   0.217   2.182  0.7590 -0.1651  1.3946
 1379SOL    HW3 5515   3.210   0.086   2.178 -0.1362 -0.6759  1.0351
 1379SOL    MW4 5516   3.136   0.131   2.168  0.2592 -0.0813  0.7769
 1380SOL     OW 5517   3.155   0.408   2.216 -0.4109 -0.1876  0.3917
 1380SOL    HW2 5518   3.079   0.463   2.195  0.4367  0.3030 -1.5572
 1380SOL    HW3 5519   3.229   0.457   2.181  0.5816 -1.6225  0.4678
 1380SOL    MW4 5520   3.154   0.422   2.208 -0.1681 -0.3122  0.1446
 1381SOL     OW 5521   3.375   0.546   1.795 -0.1706 -0.2962 -0.5939
 1381SOL    HW2 5522   3.442   0.488   1.760  0.3193 -0.5211  0.7111
 1381SOL    HW3 5523   3.300   0.488   1.812 -0.9463  0.0542 -2.6377
 1381SOL    MW4 5524   3.374   0.531   1.792 -0.2083 -0.2797 -0.6914
 1382SOL     OW 5525   3.388   0.525   2.089  0.0395  0.1059 -0.3745
 1382SOL    HW2 5526   3.461   0.482   2.132  0.8565  0.4767 -1.3853
 1382SOL    HW3 5527   3.416   0.538   1.999 -1.8793 -1.2012 -1.2134
 1382SOL    MW4 5528   3.401   0.521   2.083 -0.1059 -0.0176 -0.6186
 1383SOL     OW 5529   3.412   0.766   2.227 -0.4498  0.7470  0.3958
 1383SOL    HW2 5530   3.489   0.806   2.185 -1.3605  1.4045 -0.6664
 1383SOL    HW3 5531   3.400   0.683   2.180 -0.2961  0.5625  0.6789
 1383SOL    MW4 5532   3.421   0.760   2.215 -0.5497  0.8094  0.2930
 1384SOL     OW 5533   3.162   1.161   2.210  0.0810  0.1974  0.1021
 1384SOL    HW2 5534   3.230   1.208   2.162 -0.8721  1.1778 -0.2846
 1384SOL    HW3 5535   3.176   1.069   2.187  1.0242  0.4345 -0.2947
 1384SOL    MW4 5536   3.173   1.155   2.201  0.0797  0.3580 -0.0013
 1385SOL     OW 5537   3.351   1.278   2.079 -0.0814 -0.1867  0.3768
 1385SOL    HW2 5538   3.350   1.365   2.118 -1.9652 -0.3165  0.6374
 1385SOL    HW3 5539   3.438   1.243   2.101  0.6067  1.5265  0.4432
 1385SOL    MW4 5540   3.362   1.285   2.087 -0.2391  0.0222  0.4199
 1386SOL     OW 5541   3.371   1.525   2.200 -0.2944 -0.0561 -0.6867
 1386SOL    HW2 5542   3.388   1.555   2.290  2.6564  1.6254 -1.7515
 1386SOL    HW3 5543   3.285   1.560   2.179 -1.1086 -0.6392  1.5543
 1386SOL    MW4 5544   3.362   1.533   2.209 -0.0125  0.0888 -0.5315
 1387SOL     OW 5545   3.119   1.629   2.102 -0.1220  0.4821  0.3196
 1387SOL    HW2 5546   3.121   1.720   2.130 -1.2112  0.3854  0.7062
 1387SOL    HW3 5547   3.034   1.596   2.131  0.5448 -0.8578  0.8002
 1387SOL    MW4 5548   3.108   1.636   2.109 -0.1777  0.2926  0.4340
 1388SOL     OW 5549   3.155   1.875   2.206  0.2164  0.0429 -0.2180
 1388SOL    HW2 5550   3.172   1.893   2.299  1.3252 -1.8599 -0.0148
 1388SOL    HW3 5551   3.219   1.928   2.159  0.3839  0.1753  0.1571
 1388SOL    MW4 5552   3.166   1.884   2.212  0.3848 -0.1907 -0.1417
 1389SOL     OW 5553   3.338   2.043   2.085  0.0644  0.5042  0.6695
 1389SOL    HW2 5554   3.412   2.000   2.127  0.1018  0.3317  0.4308
 1389SOL    HW3 5555   3.364   2.051   1.993  0.1319  1.2029  0.7476
 1389SOL    MW4 5556   3.351   2.039   2.079  0.0782  0.5736  0.6483
 1390SOL     OW 5557   3.375   2.297   2.189  0.3820 -0.1109 -0.4889
 1390SOL    HW2 5558   3.286   2.331   2.178  0.3965  0.3226  0.7098
 1390SOL    HW3 5559   3.367   2.203   2.173 -0.3113 -0.0896 -0.2909
 1390SOL    MW4 5560   3.362   2.289   2.185  0.2925 -0.0509 -0.3046
 1391SOL     OW 5561   3.130   2.416   2.135  0.0839 -0.0245  0.6488
 1391SOL    HW2 5562   3.131   2.508   2.162  0.2462 -0.1930  1.2116
 1391SOL    HW3 5563   3.046   2.383   2.166 -0.6502  0.3223 -0.8776
 1391SOL    MW4 5564   3.119   2.424   2.142  0.0084 -0.0009  0.5217
 1392SOL     OW 5565   3.114   2.688   2.201  0.0995  0.5883 -0.3139
 1392SOL    HW2 5566   3.102   2.700   2.295  1.2760  0.4166 -0.1246
 1392SOL    HW3 5567   3.039   2.730   2.160 -0.0501  1.2838  0.6787
 1392SOL    MW4 5568   3.103   2.695   2.208  0.2350  0.6574 -0.1580
 1393SOL     OW 5569   3.385   2.779   2.095 -0.2161 -0.1758  0.2900
 1393SOL    HW2 5570   3.371   2.872   2.109 -1.6228 -0.2248 -0.7564
 1393SOL    HW3 5571   3.308   2.736   2.132 -0.7790 -0.7459 -1.4845
 1393SOL    MW4 5572   3.373   2.785   2.102 -0.4760 -0.2575 -0.0822
 1394SOL     OW 5573   3.352   3.056   2.179  0.1132  0.0878  0.1024
 1394SOL    HW2 5574   3.429   3.108   2.157  0.6879 -0.3148  1.0917
 1394SOL    HW3 5575   3.278   3.114   2.163  0.7928  1.5948  2.1595
 1394SOL    MW4 5576   3.352   3.070   2.174  0.2787  0.2335  0.5043
 1395SOL     OW 5577   3.149   3.209   2.123  0.1442 -0.1642 -0.0599
 1395SOL    HW2 5578   3.142   3.302   2.145  0.1795 -0.5406  1.5807
 1395SOL    HW3 5579   3.151   3.208   2.027  0.0285  1.5139 -0.1056
 1395SOL    MW4 5580   3.148   3.221   2.113  0.1336  0.0076  0.1505
 1396SOL     OW 5581   3.112   3.488   2.190  0.3961 -0.0788 -0.1835
 1396SOL    HW2 5582   3.113   3.490   2.285 -0.0678  1.1284 -0.1883
 1396SOL    HW3 5583   3.193   3.532   2.164  0.0166  0.5352 -0.3415
 1396SOL    MW4 5584   3.123   3.494   2.199  0.2848  0.1615 -0.2050
 1397SOL     OW 5585   3.348   3.618   2.108 -0.6672 -0.1366 -0.2370
 1397SOL    HW2 5586   3.426   3.563   2.104 -1.4006 -1.3231  1.2916
 1397SOL    HW3 5587   3.331   3.643   2.017  0.8731 -0.7285 -0.6986
 1397SOL    MW4 5588   3.356   3.614   2.096 -0.5608 -0.3712 -0.0962
 1398SOL     OW 5589   3.367   3.887   2.203  0.0947 -0.0751  0.4718
 1398SOL    HW2 5590   3.439   3.929   2.155 -0.0305  0.3682  0.6680
 1398SOL    HW3 5591   3.365   3.798   2.170  0.4622  0.0323  0.1546
 1398SOL    MW4 5592   3.376   3.881   2.192  0.1266 -0.0024  0.4558
 1399SOL     OW 5593   3.128   3.995   2.070 -0.1884 -0.1100 -0.4448
 1399SOL    HW2 5594   3.211   3.957   2.100  0.0277  0.9672  0.3500
 1399SOL    HW3 5595   3.061   3.944   2.114  0.0781 -0.2762 -0.2267
 1399SOL    MW4 5596   3.130   3.983   2.079 -0.1247  0.0102 -0.3111
 1400SOL     OW 5597   3.131   4.261   2.228  0.2167  0.4203 -0.3103
 1400SOL    HW2 5598   3.211   4.295   2.187 -0.0955 -0.3662 -1.5937
 1400SOL    HW3 5599   3.104   4.188   2.171 -0.2254 -0.6906  1.2934
 1400SOL    MW4 5600   3.138   4.256   2.215  0.1172  0.1699 -0.2681
 1401SOL     OW 5601   3.346   4.368   2.110  0.3061 -0.2509  0.0540
 1401SOL    HW2 5602   3.345   4.463   2.116 -0.2435 -0.3175  1.0130
 1401SOL    HW3 5603   3.359   4.350   2.017 -0.2903  0.7521 -0.2231
 1401SOL    MW4 5604   3.348   4.378   2.099  0.1549 -0.1274  0.1440
 1402SOL     OW 5605   4.041   0.132   2.093 -0.0021 -0.8054 -0.1044
 1402SOL    HW2 5606   4.125   0.091   2.115  0.0591 -0.0540  1.0828
 1402SOL    HW3 5607   4.044   0.217   2.136  0.3321  0.9486 -3.4326
 1402SOL    MW4 5608   4.053   0.137   2.102  0.0501 -0.4748 -0.3869
 1403SOL     OW 5609   3.601   0.145   2.109 -0.2215 -0.1964  0.0337
 1403SOL    HW2 5610   3.673   0.105   2.158  0.6497  0.5970 -0.5857
 1403SOL    HW3 5611   3.598   0.236   2.141 -0.4332 -0.0155 -0.4894
 1403SOL    MW4 5612   3.610   0.152   2.120 -0.1345 -0.0679 -0.1170
 1404SOL     OW 5613   3.624   0.390   2.225 -0.1396  0.4073  0.0203
 1404SOL    HW2 5614   3.623   0.401   2.320  1.4773  0.9105 -0.0110
 1404SOL    HW3 5615   3.709   0.424   2.197 -1.2126  1.7228 -1.7950
 1404SOL    MW4 5616   3.635   0.396   2.234 -0.0678  0.6473 -0.2233
 1405SOL     OW 5617   3.863   0.499   2.121  0.4372  0.1551 -0.4287
 1405SOL    HW2 5618   3.863   0.589   2.154  2.0977  0.0108  0.0025
 1405SOL    HW3 5619   3.860   0.509   2.026 -0.9154  0.6302 -0.3474
 1405SOL    MW4 5620   3.863   0.512   2.113  0.4778  0.1988 -0.3611
 1406SOL     OW 5621   3.848   0.760   2.202 -0.4102 -0.2970  0.1653
 1406SOL    HW2 5622   3.848   0.787   2.293 -0.3012  0.6768 -0.1173
 1406SOL    HW3 5623   3.925   0.803   2.164 -1.2722  0.4811 -0.7255
 1406SOL    MW4 5624   3.858   0.769   2.209 -0.5095 -0.0658  0.0105
 1407SOL     OW 5625   3.639   0.901   2.115  0.2815 -0.2291  0.2700
 1407SOL    HW2 5626   3.722   0.863   2.145  0.8036  1.6694  1.2981
 1407SOL    HW3 5627   3.648   0.906   2.020  1.3094 -0.1304  0.3687
 1407SOL    MW4 5628   3.651   0.896   2.106  0.4860  0.0344  0.4187
 1408SOL     OW 5629   3.566   1.165   2.176  0.2144  0.7701 -0.2383
 1408SOL    HW2 5630   3.566   1.159   2.271 -0.4818  0.1035 -0.2828
 1408SOL    HW3 5631   3.585   1.077   2.145 -1.5660  0.5428 -0.7449
 1408SOL    MW4 5632   3.569   1.153   2.184 -0.1124  0.6522 -0.3110
 1409SOL     OW 5633   3.802   1.265   2.102  0.0443  0.3384 -0.1226
 1409SOL    HW2 5634   3.826   1.351   2.137 -1.4185  1.1597 -1.1012
 1409SOL    HW3 5635   3.724   1.240   2.151 -0.4238  0.2610 -0.9048
 1409SOL    MW4 5636   3.795   1.273   2.113 -0.2104  0.4365 -0.3549
 1410SOL     OW 5637   3.836   1.523   2.200  0.1538 -0.3960 -0.0171
 1410SOL    HW2 5638   3.839   1.521   2.296  0.5062 -0.3094 -0.0256
 1410SOL    HW3 5639   3.762   1.580   2.180  1.7054  1.7582  0.2107
 1410SOL    MW4 5640   3.826   1.530   2.210  0.4050 -0.1004  0.0118
 1411SOL     OW 5641   3.609   1.660   2.119 -0.4315 -0.1098  0.0668
 1411SOL    HW2 5642   3.532   1.607   2.140 -0.0322 -0.2661  1.1263
 1411SOL    HW3 5643   3.610   1.664   2.023 -1.0875 -1.0857  0.0203
 1411SOL    MW4 5644   3.599   1.654   2.109 -0.4654 -0.2592  0.2004
 1412SOL     OW 5645   3.567   1.934   2.224  0.3002 -0.1041  0.0316
 1412SOL    HW2 5646   3.648   1.974   2.195 -0.6782  1.4951 -0.5764
 1412SOL    HW3 5647   3.576   1.841   2.202  2.2066 -0.0552  0.5777
 1412SOL    MW4 5648   3.579   1.927   2.217  0.4227  0.1133  0.0234
 1413SOL     OW 5649   3.802   2.045   2.121 -0.1251  0.5033  0.1152
 1413SOL    HW2 5650   3.886   2.001   2.133 -1.1628 -1.4085  0.4663
 1413SOL    HW3 5651   3.808   2.084   2.034  0.8016 -0.3164 -0.1983
 1413SOL    MW4 5652   3.814   2.045   2.111 -0.1398  0.1429  0.1201
 1414SOL     OW 5653   3.860   2.300   2.193  0.0343 -0.0701 -0.1041
 1414SOL    HW2 5654   3.787   2.352   2.160  1.0719  0.4198 -1.6849
 1414SOL    HW3 5655   3.828   2.210   2.193 -0.8236  0.2314 -0.0466
 1414SOL    MW4 5656   3.846   2.295   2.189  0.0580  0.0343 -0.3051
 1415SOL     OW 5657   3.616   2.393   2.091 -0.1499 -0.0906  0.0994
 1415SOL    HW2 5658   3.528   2.363   2.116  0.1465 -0.8963  0.1864
 1415SOL    HW3 5659   3.611   2.406   1.997 -0.1883 -0.7452  0.0092
 1415SOL    MW4 5660   3.604   2.391   2.082 -0.1159 -0.2833  0.0990
 1416SOL     OW 5661   3.634   2.647   2.199 -0.3320  0.0316  1.0053
 1416SOL    HW2 5662   3.631   2.558   2.165  3.0985  1.0745 -2.4119
 1416SOL    HW3 5663   3.554   2.688   2.168 -0.0986 -0.7925 -0.7675
 1416SOL    MW4 5664   3.623   2.641   2.191  0.1514  0.0604  0.3205
 1417SOL     OW 5665   3.826   2.810   2.095 -0.0469 -0.2504  0.4170
 1417SOL    HW2 5666   3.822   2.894   2.141 -0.1795  0.0398 -0.1186
 1417SOL    HW3 5667   3.768   2.753   2.145  0.2693 -0.1126  0.9564
 1417SOL    MW4 5668   3.818   2.814   2.108 -0.0226 -0.1939  0.4175
 1418SOL     OW 5669   3.833   3.066   2.186  0.3674  0.1531  0.6379
 1418SOL    HW2 5670   3.831   3.079   2.280 -0.9324  1.5004  0.4473
 1418SOL    HW3 5671   3.914   3.110   2.158  0.3823  0.3867  1.0419
 1418SOL    MW4 5672   3.844   3.074   2.194  0.1979  0.3617  0.6661
 1419SOL     OW 5673   3.581   3.200   2.132 -0.1580 -0.0982 -0.3016
 1419SOL    HW2 5674   3.606   3.290   2.149  0.1427 -0.5063  1.5092
 1419SOL    HW3 5675   3.660   3.149   2.152 -0.6582 -0.8697 -0.2757
 1419SOL    MW4 5676   3.595   3.205   2.137 -0.1844 -0.2538 -0.0592
 1420SOL     OW 5677   3.621   3.487   2.134  0.5549 -0.0669  0.8300
 1420SOL    HW2 5678   3.599   3.487   2.228 -0.0845  0.4055  0.6846
 1420SOL    HW3 5679   3.698   3.542   2.127  0.4277  0.1406  1.0438
 1420SOL    MW4 5680   3.628   3.494   2.146  0.4538  0.0228  0.8390
 1421SOL     OW 5681   3.845   3.616   2.126 -0.0140  0.5682 -0.7680
 1421SOL    HW2 5682   3.824   3.699   2.168 -0.5901  0.3741 -0.6690
 1421SOL    HW3 5683   3.826   3.630   2.033  0.3707  0.7059 -0.8250
 1421SOL    MW4 5684   3.840   3.629   2.119 -0.0392  0.5608 -0.7624
 1422SOL     OW 5685   3.766   3.875   2.211 -0.2885 -0.0800 -0.1619
 1422SOL    HW2 5686   3.762   3.878   2.307 -1.1175 -1.4319 -0.1366
 1422SOL    HW3 5687   3.838   3.934   2.188 -0.6113  0.8919  1.2453
 1422SOL    MW4 5688   3.775   3.883   2.221 -0.4405 -0.1302  0.0271
 1423SOL     OW 5689   3.585   4.023   2.079  0.0748  0.4541  0.0319
 1423SOL    HW2 5690   3.566   4.094   2.140 -0.5640 -0.1841  0.5808
 1423SOL    HW3 5691   3.650   3.969   2.123 -1.1594 -0.5867  0.5988
 1423SOL    MW4 5692   3.591   4.026   2.093 -0.1723  0.2326  0.1791
 1424SOL     OW 5693   3.559   4.246   2.239  0.1678 -0.5415  0.0436
 1424SOL    HW2 5694   3.633   4.299   2.208 -0.8636  1.2153  0.4886
 1424SOL    HW3 5695   3.484   4.279   2.189 -0.5152 -1.5210  0.4150
 1424SOL    MW4 5696   3.559   4.258   2.228 -0.0584 -0.4390  0.1513
 1425SOL     OW 5697   3.775   4.417   2.158 -0.1137 -0.3968  0.3750
 1425SOL    HW2 5698   3.861   4.374   2.161 -0.4377 -0.9584  2.2253
 1425SOL    HW3 5699   3.794   4.508   2.182  0.1468 -0.1855 -0.5967
 1425SOL    MW4 5700   3.789   4.424   2.162 -0.1221 -0.4430  0.4909
 1426SOL     OW 5701   4.270   4.664   2.183 -0.0471 -0.1327  0.0344
 1426SOL    HW2 5702   4.252   4.676   2.276  0.7123 -1.3952  0.3680
 1426SOL    HW3 5703   4.359   4.697   2.171  0.0736 -0.5082 -0.1145
 1426SOL    MW4 5704   4.279   4.670   2.194  0.0690 -0.3488  0.0588
 1427SOL     OW 5705   4.032   0.150   1.821  0.4797 -0.1536  0.2220
 1427SOL    HW2 5706   4.023   0.156   1.916 -0.0274 -0.2803  0.1823
 1427SOL    HW3 5707   3.957   0.098   1.793  1.1615 -0.9447 -0.1458
 1427SOL    MW4 5708   4.021   0.144   1.829  0.5027 -0.2747  0.1682
 1428SOL     OW 5709   4.091   0.356   2.219 -0.3536 -0.1557  0.1913
 1428SOL    HW2 5710   4.166   0.401   2.180 -0.6735  0.1356 -0.0935
 1428SOL    HW3 5711   4.016   0.411   2.197 -0.5946 -0.2015  0.8608
 1428SOL    MW4 5712   4.091   0.369   2.211 -0.4276 -0.1233  0.2421
 1429SOL     OW 5713   4.297   0.494   2.096  0.3709 -0.2844 -0.1172
 1429SOL    HW2 5714   4.319   0.578   2.136  1.6448 -0.5512 -0.2114
 1429SOL    HW3 5715   4.367   0.435   2.124 -0.5316 -1.3324 -0.0111
 1429SOL    MW4 5716   4.309   0.497   2.105  0.4199 -0.4579 -0.1157
 1430SOL     OW 5717   4.328   0.754   2.186  0.3312  0.3023 -0.4091
 1430SOL    HW2 5718   4.252   0.798   2.148  1.4609  0.8562 -2.1010
 1430SOL    HW3 5719   4.403   0.800   2.149  1.4972 -0.8403  0.4980
 1430SOL    MW4 5720   4.328   0.766   2.176  0.6341  0.2246 -0.5127
 1431SOL     OW 5721   4.098   0.875   2.088 -0.4360 -0.0052  0.5370
 1431SOL    HW2 5722   4.094   0.965   2.118 -0.9758  0.2002 -0.1426
 1431SOL    HW3 5723   4.075   0.879   1.995 -0.6182 -0.8587  0.5357
 1431SOL    MW4 5724   4.095   0.887   2.080 -0.5313 -0.0907  0.4472
 1432SOL     OW 5725   4.052   1.146   2.185  0.0267 -0.3354  0.1800
 1432SOL    HW2 5726   4.043   1.152   2.280 -0.2356  0.2079  0.1218
 1432SOL    HW3 5727   3.972   1.186   2.151  0.2406 -0.2914 -0.2728
 1432SOL    MW4 5728   4.040   1.152   2.193  0.0204 -0.2579  0.1126
 1433SOL     OW 5729   4.255   1.296   2.074  0.2391  0.6825 -0.3512
 1433SOL    HW2 5730   4.194   1.251   2.133 -0.2957  1.0701 -0.6102
 1433SOL    HW3 5731   4.342   1.266   2.102 -0.0768  0.0104 -0.0807
 1433SOL    MW4 5732   4.258   1.286   2.086  0.1269  0.6450 -0.3497
 1434SOL     OW 5733   4.276   1.548   2.195  0.3263 -0.0638  0.5360
 1434SOL    HW2 5734   4.272   1.458   2.164  0.0618 -0.4373  1.6471
 1434SOL    HW3 5735   4.350   1.587   2.146 -1.3259 -0.0468 -2.0604
 1434SOL    MW4 5736   4.286   1.542   2.184  0.0734 -0.1109  0.3400
 1435SOL     OW 5737   4.045   1.678   2.137  0.0185  0.0266 -0.0435
 1435SOL    HW2 5738   4.112   1.611   2.149 -0.1919 -0.1249  0.3187
 1435SOL    HW3 5739   3.964   1.635   2.166 -0.0026  0.6722  0.9004
 1435SOL    MW4 5740   4.043   1.663   2.143 -0.0121  0.0918  0.1288
 1436SOL     OW 5741   4.061   1.952   2.146  0.0598 -0.2058  0.3890
 1436SOL    HW2 5742   4.059   1.968   2.240  0.0864 -0.6034  0.4604
 1436SOL    HW3 5743   4.047   1.858   2.137 -1.3603  0.0413 -0.0800
 1436SOL    MW4 5744   4.059   1.942   2.157 -0.1240 -0.2256  0.3365
 1437SOL     OW 5745   4.316   2.032   2.042  0.4917  0.2423  0.2222
 1437SOL    HW2 5746   4.317   2.120   2.080  0.1372  0.8383 -1.0951
 1437SOL    HW3 5747   4.230   1.997   2.065  0.6041  0.2635  0.6845
 1437SOL    MW4 5748   4.305   2.039   2.050  0.4597  0.3237  0.1094
 1438SOL     OW 5749   4.304   2.295   2.152  0.3173 -0.1642  0.0635
 1438SOL    HW2 5750   4.230   2.346   2.119  0.6402 -0.0239 -0.4552
 1438SOL    HW3 5751   4.380   2.351   2.139  0.5686 -0.4610  0.2334
 1438SOL    MW4 5752   4.304   2.309   2.146  0.3931 -0.1848  0.0175
 1439SOL     OW 5753   4.079   2.436   2.078  0.2324  0.3325  0.5807
 1439SOL    HW2 5754   4.064   2.529   2.096  1.2618  0.5557  0.3192
 1439SOL    HW3 5755   4.005   2.391   2.120 -0.6753  1.3216  0.0720
 1439SOL    MW4 5756   4.067   2.442   2.086  0.2484  0.4924  0.4791
 1440SOL     OW 5757   4.068   2.707   2.176 -0.5519  0.7436 -0.1144
 1440SOL    HW2 5758   4.066   2.705   2.272 -1.7011 -1.2435 -0.1592
 1440SOL    HW3 5759   3.988   2.752   2.152  0.1511  2.0034 -0.1424
 1440SOL    MW4 5760   4.057   2.713   2.186 -0.6108  0.6477 -0.1240
 1441SOL     OW 5761   4.271   2.858   2.053  0.1603 -0.3158  0.6006
 1441SOL    HW2 5762   4.198   2.805   2.086 -0.3353 -0.2096 -0.2986
 1441SOL    HW3 5763   4.349   2.816   2.089 -0.3452 -0.4061  1.6068
 1441SOL    MW4 5764   4.272   2.845   2.062  0.0282 -0.3137  0.6147
 1442SOL     OW 5765   4.067   3.199   2.101 -0.1952 -0.1546 -0.2667
 1442SOL    HW2 5766   4.067   3.290   2.132 -1.1660 -0.1384 -0.3046
 1442SOL    HW3 5767   4.135   3.157   2.152  0.9072  0.8186 -0.9032
 1442SOL    MW4 5768   4.076   3.206   2.112 -0.1778 -0.0241 -0.3557
 1443SOL     OW 5769   4.276   3.082   2.214 -0.0771 -0.2581  0.0155
 1443SOL    HW2 5770   4.269   3.005   2.157  0.7638 -0.6078  0.3770
 1443SOL    HW3 5771   4.333   3.142   2.167 -0.1278 -0.1698  0.0676
 1443SOL    MW4 5772   4.283   3.080   2.200  0.0272 -0.2926  0.0701
 1444SOL     OW 5773   4.073   3.457   2.210 -0.2399  0.5347  0.0951
 1444SOL    HW2 5774   4.141   3.510   2.167 -0.6237 -0.2966 -1.5898
 1444SOL    HW3 5775   3.991   3.501   2.188 -0.5746 -0.7860 -1.4387
 1444SOL    MW4 5776   4.071   3.469   2.201 -0.3347  0.2507 -0.3296
 1445SOL     OW 5777   4.266   3.606   2.104  0.1287 -0.2431 -0.1980
 1445SOL    HW2 5778   4.266   3.696   2.136  0.8712 -0.1290 -0.5117
 1445SOL    HW3 5779   4.263   3.614   2.009 -0.1491 -0.5502 -0.2126
 1445SOL    MW4 5780   4.266   3.619   2.096  0.1900 -0.2685 -0.2413
 1446SOL     OW 5781   4.226   3.880   2.161 -0.0640 -0.4374 -0.0977
 1446SOL    HW2 5782   4.239   3.867   2.254 -1.7172 -0.0759  0.2049
 1446SOL    HW3 5783   4.308   3.918   2.130  0.3621 -0.2153  1.2800
 1446SOL    MW4 5784   4.239   3.884   2.169 -0.2259 -0.3604  0.1240
 1447SOL     OW 5785   3.994   4.017   2.121  0.1344 -0.5740 -0.3043
 1447SOL    HW2 5786   4.082   3.985   2.144  0.0235  0.1329  1.1754
 1447SOL    HW3 5787   3.993   4.016   2.025  1.8708 -0.3022 -0.3543
 1447SOL    MW4 5788   4.006   4.013   2.111  0.3489 -0.4449 -0.1157
 1448SOL     OW 5789   4.022   4.292   2.160  0.2831 -0.2421 -0.1797
 1448SOL    HW2 5790   4.107   4.318   2.125 -0.0116  0.0317 -0.6985
 1448SOL    HW3 5791   4.021   4.197   2.150  0.2992 -0.1904 -0.6971
 1448SOL    MW4 5792   4.033   4.283   2.154  0.2463 -0.1992 -0.3164
 1449SOL     OW 5793   4.261   4.403   2.073 -0.2177 -0.0389 -0.2020
 1449SOL    HW2 5794   4.266   4.486   2.120 -0.1946 -0.2819  0.2267
 1449SOL    HW3 5795   4.351   4.370   2.073 -0.1033  0.2683 -0.9729
 1449SOL    MW4 5796   4.274   4.409   2.079 -0.1995 -0.0304 -0.2471
 1450SOL     OW 5797   0.249   4.619   2.472 -0.5759 -0.2360  0.0100
 1450SOL    HW2 5798   0.252   4.526   2.497 -2.1315 -0.4516 -0.5329
 1450SOL    HW3 5799   0.170   4.652   2.514 -0.6920  0.5434 -0.8109
 1450SOL    MW4 5800   0.239   4.611   2.481 -0.7964 -0.1616 -0.1699
 1451SOL     OW 5801   0.021   0.084   2.564 -0.5425  0.8572 -0.0713
 1451SOL    HW2 5802   0.008   0.092   2.659  0.1907 -0.5832  0.1752
 1451SOL    HW3 5803   0.014   0.173   2.531 -1.0847  1.3469  1.3046
 1451SOL    MW4 5804   0.018   0.097   2.573 -0.5173  0.7318  0.1428
 1452SOL     OW 5805   0.007   0.353   2.500 -0.0972  0.2661  0.8248
 1452SOL    HW2 5806   0.070   0.418   2.532  0.4515  0.7750 -1.1914
 1452SOL    HW3 5807   0.019   0.354   2.405 -3.8996  1.1570  0.2847
 1452SOL    MW4 5808   0.017   0.362   2.492 -0.5265  0.4508  0.4875
 1453SOL     OW 5809   0.244   0.514   2.549  0.0767  0.1428 -0.1533
 1453SOL    HW2 5810   0.253   0.516   2.644 -1.3025 -0.1141 -0.0037
 1453SOL    HW3 5811   0.321   0.466   2.519  0.4637  0.1266  0.8344
 1453SOL    MW4 5812   0.255   0.508   2.558 -0.0542  0.1068 -0.0032
 1454SOL     OW 5813   0.252   0.771   2.437 -0.0113 -0.2665  0.1355
 1454SOL    HW2 5814   0.322   0.812   2.488 -1.1706 -0.0314  1.5711
 1454SOL    HW3 5815   0.244   0.683   2.475  0.5184 -0.8321 -1.0307
 1454SOL    MW4 5816   0.260   0.765   2.449 -0.0944 -0.3101  0.1710
 1455SOL     OW 5817   0.019   0.899   2.555  0.2086 -0.1576  0.2901
 1455SOL    HW2 5818  -0.061   0.862   2.519  0.4752 -0.2038 -0.2498
 1455SOL    HW3 5819   0.090   0.851   2.513  0.5581  0.9712 -0.4330
 1455SOL    MW4 5820   0.018   0.888   2.545  0.2899 -0.0147  0.1235
 1456SOL     OW 5821   4.479   1.163   2.435  0.3024  0.7962 -0.0478
 1456SOL    HW2 5822   4.554   1.210   2.472  1.2634  0.3117 -1.3576
 1456SOL    HW3 5823   4.486   1.074   2.471  1.4014  0.2439 -1.5843
 1456SOL    MW4 5824   4.490   1.157   2.445  0.5742  0.6594 -0.4234
 1457SOL     OW 5825   0.227   1.255   2.569 -0.5528 -0.4657 -0.2587
 1457SOL    HW2 5826   0.297   1.205   2.527 -0.8719 -0.9956 -0.1606
 1457SOL    HW3 5827   0.236   1.343   2.533  0.1068 -0.5537 -0.3169
 1457SOL    MW4 5828   0.237   1.260   2.558 -0.5079 -0.5472 -0.2534
 1458SOL     OW 5829   0.235   1.513   2.461 -0.2002 -0.2966 -0.0800
 1458SOL    HW2 5830   0.308   1.575   2.473  0.4118 -1.0800  0.2328
 1458SOL    HW3 5831   0.160   1.557   2.501  0.0563  0.5792 -0.5254
 1458SOL    MW4 5832   0.235   1.527   2.468 -0.0856 -0.2844 -0.0975
 1459SOL     OW 5833   0.026   1.677   2.553  0.1867  0.6818  0.4831
 1459SOL    HW2 5834   0.036   1.676   2.648 -2.2862  1.6109  0.7982
 1459SOL    HW3 5835   0.023   1.770   2.530 -0.7534  0.4764 -0.2938
 1459SOL    MW4 5836   0.027   1.689   2.563 -0.2636  0.7773  0.4222
 1460SOL     OW 5837   4.468   1.937   2.486 -0.1911 -0.5096 -0.2302
 1460SOL    HW2 5838   4.543   1.974   2.532 -1.2866  1.8932 -0.2654
 1460SOL    HW3 5839   4.493   1.937   2.394 -0.3403  0.6101 -0.2795
 1460SOL    MW4 5840   4.481   1.942   2.480 -0.3553 -0.0448 -0.2414
 1461SOL     OW 5841   0.175   2.087   2.579 -0.3234  0.1081 -0.0178
 1461SOL    HW2 5842   0.262   2.057   2.553 -0.0956 -0.4045  1.2995
 1461SOL    HW3 5843   0.159   2.164   2.525  0.7520 -0.0603 -0.5977
 1461SOL    MW4 5844   0.184   2.093   2.568 -0.1515  0.0182  0.0795
 1462SOL     OW 5845   0.189   2.333   2.458 -0.2911 -0.1972  0.2827
 1462SOL    HW2 5846   0.261   2.362   2.514 -0.1456  0.1214 -0.0671
 1462SOL    HW3 5847   0.120   2.398   2.473 -0.4490 -0.4154  0.5004
 1462SOL    MW4 5848   0.189   2.345   2.467 -0.2927 -0.1840  0.2652
 1463SOL     OW 5849   4.460   2.500   2.481  0.6266  0.3207  0.0416
 1463SOL    HW2 5850   4.477   2.488   2.575  1.5931 -0.2551 -0.1981
 1463SOL    HW3 5851   4.391   2.438   2.461 -3.3066  3.9938  1.4314
 1463SOL    MW4 5852   4.453   2.490   2.491  0.2352  0.7294  0.1933
 1464SOL     OW 5853   4.419   2.764   2.408  0.2901  0.2933  0.1598
 1464SOL    HW2 5854   4.345   2.807   2.451 -0.5259  0.3075 -1.2217
 1464SOL    HW3 5855   4.415   2.673   2.438 -0.8564  0.0725 -0.6182
 1464SOL    MW4 5856   4.409   2.758   2.417  0.0312  0.2661 -0.1251
 1465SOL     OW 5857   0.170   2.854   2.557  0.2924  0.2376  0.2642
 1465SOL    HW2 5858   0.093   2.816   2.514  0.7888  0.7887 -1.1317
 1465SOL    HW3 5859   0.178   2.941   2.520  0.9906  0.5665  1.1715
 1465SOL    MW4 5860   0.161   2.860   2.547  0.4500  0.3537  0.1997
 1466SOL     OW 5861   0.197   3.111   2.446  0.1402 -0.3828 -0.2190
 1466SOL    HW2 5862   0.275   3.143   2.491  0.4559 -0.2137 -0.8704
 1466SOL    HW3 5863   0.219   3.118   2.353 -1.2557  1.1704 -0.4381
 1466SOL    MW4 5864   0.210   3.116   2.440 -0.0023 -0.1556 -0.3338
 1467SOL     OW 5865   4.489   3.249   2.567 -0.2738 -0.2281 -0.2526
 1467SOL    HW2 5866   4.405   3.209   2.543  0.2640 -1.3817 -0.1852
 1467SOL    HW3 5867   4.555   3.193   2.528  0.4997  0.1498  0.5044
 1467SOL    MW4 5868   4.486   3.237   2.559 -0.1008 -0.3304 -0.1438
 1468SOL     OW 5869   4.489   3.524   2.472 -0.5939  0.3660  0.6359
 1468SOL    HW2 5870   4.559   3.570   2.519 -0.3172 -0.0893  0.6743
 1468SOL    HW3 5871   4.494   3.434   2.505 -1.1441  0.3140  0.5776
 1468SOL    MW4 5872   4.499   3.518   2.483 -0.6300  0.2991  0.6332
 1469SOL     OW 5873   0.236   3.637   2.573 -0.0326  0.3674  0.7595
 1469SOL    HW2 5874   0.267   3.646   2.664  1.7205  2.0607  0.0284
 1469SOL    HW3 5875   0.307   3.591   2.528 -1.1109 -0.9055  0.3332
 1469SOL    MW4 5876   0.249   3.632   2.579  0.0565  0.4229  0.6068
 1470SOL     OW 5877   0.196   3.903   2.476  0.4621 -0.3424 -0.2438
 1470SOL    HW2 5878   0.209   3.813   2.508 -0.0538 -0.1372  0.5559
 1470SOL    HW3 5879   0.200   3.895   2.381 -1.2615 -1.4798 -0.2388
 1470SOL    MW4 5880   0.198   3.890   2.468  0.1667 -0.4654 -0.1376
 1471SOL     OW 5881   4.455   4.043   2.500 -0.8321  0.3133  0.0735
 1471SOL    HW2 5882   4.549   4.028   2.508 -0.6283  1.6822  0.3777
 1471SOL    HW3 5883   4.447   4.129   2.458 -1.9465 -0.3822 -1.1749
 1471SOL    MW4 5884   4.466   4.052   2.496 -0.9523  0.4022 -0.0511
 1472SOL     OW 5885   0.013   4.309   2.436  0.2194 -0.8692  0.2398
 1472SOL    HW2 5886   0.087   4.310   2.497 -1.3311  0.6160  2.1849
 1472SOL    HW3 5887  -0.045   4.378   2.468 -0.2617  0.5662 -3.4551
 1472SOL    MW4 5888   0.015   4.318   2.449 -0.0487 -0.4839  0.0089
 1473SOL     OW 5889   0.253   4.358   2.603  0.1629 -0.1025 -0.0633
 1473SOL    HW2 5890   0.292   4.395   2.682 -0.0328  0.5613 -0.2746
 1473SOL    HW3 5891   0.328   4.326   2.552  0.3298 -0.0337  0.1363
 1473SOL    MW4 5892   0.268   4.359   2.607  0.1591 -0.0059 -0.0648
 1474SOL     OW 5893   0.654   0.016   2.444  0.0031  0.1295  0.3720
 1474SOL    HW2 5894   0.741   0.042   2.474 -0.0189 -0.1803  0.7049
 1474SOL    HW3 5895   0.594   0.076   2.488  0.0663  0.5136 -0.0612
 1474SOL    MW4 5896   0.658   0.027   2.453  0.0085  0.1393  0.3588
 1475SOL     OW 5897   0.424   0.145   2.555  0.1646 -0.3742  0.7036
 1475SOL    HW2 5898   0.440   0.130   2.649  0.2456  0.0009  0.7523
 1475SOL    HW3 5899   0.353   0.085   2.533 -1.2156  0.9428  1.4697
 1475SOL    MW4 5900   0.417   0.135   2.565 -0.0068 -0.1510  0.8111
 1476SOL     OW 5901   0.469   0.399   2.449  0.0997 -0.4285  0.1751
 1476SOL    HW2 5902   0.521   0.453   2.508  0.4305 -0.5000 -0.0479
 1476SOL    HW3 5903   0.468   0.312   2.491 -0.3012 -0.2923  0.4542
 1476SOL    MW4 5904   0.476   0.395   2.463  0.0905 -0.4200  0.1825
 1477SOL     OW 5905   0.659   0.533   2.591 -0.0561  0.0162  0.0610
 1477SOL    HW2 5906   0.673   0.527   2.686  0.2329 -0.3957 -0.0057
 1477SOL    HW3 5907   0.728   0.479   2.553 -1.7098 -1.8887 -0.2814
 1477SOL    MW4 5908   0.670   0.525   2.598 -0.2361 -0.2895  0.0070
 1478SOL     OW 5909   0.661   0.768   2.443  0.4005  0.1840  0.0793
 1478SOL    HW2 5910   0.741   0.801   2.485  0.6089 -0.0487 -0.1346
 1478SOL    HW3 5911   0.644   0.684   2.485 -0.1406  0.5720  0.6359
 1478SOL    MW4 5912   0.670   0.761   2.454  0.3566  0.2045  0.1245
 1479SOL     OW 5913   0.455   0.900   2.583  0.2945  0.2032  0.7347
 1479SOL    HW2 5914   0.465   0.984   2.538 -0.7391 -0.3714 -0.6052
 1479SOL    HW3 5915   0.540   0.857   2.572 -0.1895 -0.2769 -1.4550
 1479SOL    MW4 5916   0.468   0.906   2.575  0.0942  0.0641  0.2690
 1480SOL     OW 5917   0.433   1.134   2.446 -0.0096 -0.1525 -0.1031
 1480SOL    HW2 5918   0.515   1.180   2.463 -1.1217  1.6753  0.4960
 1480SOL    HW3 5919   0.431   1.123   2.351  0.6777  0.2852 -0.1712
 1480SOL    MW4 5920   0.444   1.138   2.435 -0.0656  0.1464 -0.0330
 1481SOL     OW 5921   0.675   1.297   2.557  0.2036  0.2770  0.3788
 1481SOL    HW2 5922   0.645   1.286   2.648 -2.2338 -0.4983 -0.4736
 1481SOL    HW3 5923   0.744   1.231   2.546 -0.4178 -0.5363  1.2675
 1481SOL    MW4 5924   0.680   1.287   2.568 -0.2000  0.0674  0.3836
 1482SOL     OW 5925   0.677   1.565   2.456 -0.2478 -0.2449  0.3624
 1482SOL    HW2 5926   0.600   1.594   2.505  0.2973 -0.1264  1.1611
 1482SOL    HW3 5927   0.692   1.475   2.484  0.0255 -0.2013  0.3639
 1482SOL    MW4 5928   0.669   1.557   2.466 -0.1398 -0.2235  0.4680
 1483SOL     OW 5929   0.434   1.707   2.540  0.3286 -0.2514 -0.0525
 1483SOL    HW2 5930   0.431   1.697   2.635  0.7784 -0.0057 -0.0115
 1483SOL    HW3 5931   0.435   1.802   2.526 -0.5244 -0.2768 -0.3286
 1483SOL    MW4 5932   0.433   1.719   2.551  0.2754 -0.2223 -0.0835
 1484SOL     OW 5933   0.414   1.971   2.472 -0.0253 -0.2629 -0.1936
 1484SOL    HW2 5934   0.496   2.011   2.499  0.4287  0.2411 -2.2415
 1484SOL    HW3 5935   0.412   1.982   2.377 -1.9336 -1.2650 -0.2932
 1484SOL    MW4 5936   0.424   1.978   2.463 -0.2172 -0.3286 -0.4769
 1485SOL     OW 5937   0.654   2.083   2.559  0.4189  0.6437 -0.1961
 1485SOL    HW2 5938   0.649   2.078   2.654  0.9429 -0.5977 -0.2182
 1485SOL    HW3 5939   0.737   2.040   2.538 -0.2720 -0.1659 -1.2897
 1485SOL    MW4 5940   0.665   2.077   2.569  0.3969  0.3731 -0.3433
 1486SOL     OW 5941   0.636   2.344   2.478  0.1023  0.1474  0.0148
 1486SOL    HW2 5942   0.711   2.383   2.524 -0.1770 -0.8278  1.3193
 1486SOL    HW3 5943   0.643   2.251   2.497 -0.4458 -0.1797 -1.3412
 1486SOL    MW4 5944   0.647   2.337   2.487 -0.0068 -0.0244  0.0080
 1487SOL     OW 5945   0.415   2.449   2.591 -0.1276  0.3294 -0.1449
 1487SOL    HW2 5946   0.400   2.532   2.545  1.2519  0.0403 -1.1596
 1487SOL    HW3 5947   0.502   2.420   2.560 -0.3580 -1.2096  0.6105
 1487SOL    MW4 5948   0.425   2.456   2.581  0.0240  0.0882 -0.1791
 1488SOL     OW 5949   0.398   2.707   2.487  0.0369  0.1040 -0.0322
 1488SOL    HW2 5950   0.474   2.743   2.533 -0.3865  1.5514 -0.4600
 1488SOL    HW3 5951   0.326   2.764   2.512 -1.0318 -1.5529  0.7657
 1488SOL    MW4 5952   0.399   2.719   2.496 -0.1599  0.0764  0.0166
 1489SOL     OW 5953   0.643   2.810   2.558  0.0741 -0.6361 -0.1490
 1489SOL    HW2 5954   0.644   2.802   2.653 -1.1857 -1.0607 -0.1619
 1489SOL    HW3 5955   0.671   2.900   2.541 -0.2063 -0.3948  0.6468
 1489SOL    MW4 5956   0.647   2.821   2.568 -0.1291 -0.6603 -0.0457
 1490SOL     OW 5957   0.651   3.080   2.497 -0.4956  0.4798 -0.0543
 1490SOL    HW2 5958   0.734   3.122   2.521  0.5592 -0.9202 -1.1442
 1490SOL    HW3 5959   0.644   3.094   2.403 -0.8365 -0.5565 -0.1851
 1490SOL    MW4 5960   0.661   3.088   2.488 -0.4014  0.1584 -0.2154
 1491SOL     OW 5961   0.410   3.229   2.571  0.1899 -0.1938  0.2038
 1491SOL    HW2 5962   0.414   3.236   2.667 -0.9116 -0.8652  0.3077
 1491SOL    HW3 5963   0.479   3.166   2.549  0.0258 -0.5211  0.6184
 1491SOL    MW4 5964   0.420   3.222   2.581  0.0229 -0.3255  0.2722
 1492SOL     OW 5965   0.455   3.484   2.478  0.3055  0.1347  0.2203
 1492SOL    HW2 5966   0.426   3.398   2.509 -0.4150  0.0818 -0.6144
 1492SOL    HW3 5967   0.460   3.475   2.383  2.4981  0.3114  0.2840
 1492SOL    MW4 5968   0.452   3.471   2.470  0.4997  0.1510  0.1185
 1493SOL     OW 5969   0.685   3.614   2.550 -0.5407  0.1329 -0.1132
 1493SOL    HW2 5970   0.697   3.621   2.645 -0.8408 -0.0729 -0.0599
 1493SOL    HW3 5971   0.603   3.565   2.540 -0.9638  0.9245 -0.4846
 1493SOL    MW4 5972   0.676   3.608   2.562 -0.6361  0.2102 -0.1552
 1494SOL     OW 5973   0.665   3.874   2.462 -0.3061 -0.0557  0.3244
 1494SOL    HW2 5974   0.581   3.898   2.500  0.0246 -1.1176  1.7767
 1494SOL    HW3 5975   0.680   3.784   2.490  0.1217 -0.7837 -2.0874
 1494SOL    MW4 5976   0.656   3.865   2.471 -0.2060 -0.2918  0.1978
 1495SOL     OW 5977   0.455   4.001   2.602 -0.2709 -0.2098  0.3124
 1495SOL    HW2 5978   0.461   4.093   2.576  1.1442 -0.8310 -1.6497
 1495SOL    HW3 5979   0.375   3.969   2.561  0.6953 -0.5585 -1.3327
 1495SOL    MW4 5980   0.445   4.009   2.593  0.0432 -0.3378 -0.1635
 1496SOL     OW 5981   0.498   4.266   2.507  0.9213  0.4917 -0.0611
 1496SOL    HW2 5982   0.571   4.318   2.541  1.2559  0.4803 -0.7426
 1496SOL    HW3 5983   0.513   4.264   2.412 -1.1243  2.2749 -0.4602
 1496SOL    MW4 5984   0.509   4.272   2.499  0.6956  0.7255 -0.2037
 1497SOL     OW 5985   0.696   4.464   2.604  0.2518 -0.2199 -0.1261
 1497SOL    HW2 5986   0.782   4.429   2.581  1.3208  1.9773  0.4093
 1497SOL    HW3 5987   0.681   4.533   2.540 -0.2364  0.7214  0.9924
 1497SOL    MW4 5988   0.706   4.468   2.592  0.3285  0.1942  0.0921
 1498SOL     OW 5989   1.154   4.622   2.462 -0.6964  0.3516 -0.2641
 1498SOL    HW2 5990   1.221   4.664   2.515 -0.8092 -0.6465  0.6824
 1498SOL    HW3 5991   1.141   4.536   2.503 -0.6488 -0.5023 -2.0209
 1498SOL    MW4 5992   1.161   4.616   2.475 -0.7050  0.1073 -0.3710
 1499SOL     OW 5993   0.906   0.107   2.523  0.5614  0.8223 -0.7327
 1499SOL    HW2 5994   0.909   0.079   2.614 -1.7128 -0.7078 -1.0765
 1499SOL    HW3 5995   0.993   0.087   2.489  1.3457  1.1591  1.0041
 1499SOL    MW4 5996   0.918   0.101   2.530  0.3648  0.6648 -0.5489
 1500SOL     OW 5997   0.870   0.380   2.491 -0.4240  0.2353 -0.1909
 1500SOL    HW2 5998   0.882   0.286   2.500 -0.8437  0.0847 -1.2214
 1500SOL    HW3 5999   0.894   0.399   2.400 -0.2893  1.1285  0.0244
 1500SOL    MW4 6000   0.875   0.370   2.480 -0.4616  0.3333 -0.2984
 1501SOL     OW 6001   1.119   0.498   2.589 -0.1552 -0.6592  0.4354
 1501SOL    HW2 6002   1.133   0.587   2.555  0.5727 -0.6693  0.6969
 1501SOL    HW3 6003   1.034   0.472   2.553  0.0204 -0.1847 -0.3359
 1501SOL    MW4 6004   1.110   0.506   2.579 -0.0360 -0.5979  0.3681
 1502SOL     OW 6005   1.122   0.759   2.478 -0.0022 -0.1977  0.1378
 1502SOL    HW2 6006   1.198   0.800   2.518 -0.7601  0.1534  1.2554
 1502SOL    HW3 6007   1.139   0.762   2.384  1.8067 -1.0395  0.4262
 1502SOL    MW4 6008   1.134   0.765   2.471  0.1365 -0.2624  0.3233
 1503SOL     OW 6009   0.883   0.879   2.560  0.1646  0.0883 -0.1866
 1503SOL    HW2 6010   0.889   0.877   2.655 -0.6230  1.5783 -0.0974
 1503SOL    HW3 6011   0.969   0.851   2.530  1.5303  2.8335  0.9873
 1503SOL    MW4 6012   0.895   0.875   2.569  0.2409  0.6471 -0.0200
 1504SOL     OW 6013   0.885   1.136   2.460 -0.0924  0.0445 -0.0552
 1504SOL    HW2 6014   0.882   1.047   2.495 -0.8140 -0.1141 -0.5124
 1504SOL    HW3 6015   0.899   1.125   2.366  1.2011  0.4515  0.0766
 1504SOL    MW4 6016   0.887   1.123   2.452 -0.0170  0.0773 -0.0981
 1505SOL     OW 6017   1.113   1.283   2.581 -0.1465 -0.0848  0.2329
 1505SOL    HW2 6018   1.102   1.373   2.552  1.8936 -0.2978 -1.3597
 1505SOL    HW3 6019   1.042   1.235   2.539  1.5147 -0.0096 -2.8336
 1505SOL    MW4 6020   1.102   1.289   2.571  0.3418 -0.1030 -0.3818
 1506SOL     OW 6021   1.119   1.547   2.499 -0.1946  0.4051 -0.1841
 1506SOL    HW2 6022   1.038   1.597   2.503  0.5951  1.7326 -0.3785
 1506SOL    HW3 6023   1.131   1.529   2.406 -0.3997 -0.0072 -0.1294
 1506SOL    MW4 6024   1.110   1.551   2.487 -0.1175  0.5259 -0.2026
 1507SOL     OW 6025   0.897   1.682   2.561 -0.2309  0.3225 -0.4806
 1507SOL    HW2 6026   0.896   1.690   2.656  0.3166 -1.4665 -0.2958
 1507SOL    HW3 6027   0.814   1.640   2.539  1.0319 -2.2669 -0.4529
 1507SOL    MW4 6028   0.886   1.677   2.571  0.0079 -0.2552 -0.4526
 1508SOL     OW 6029   0.885   1.945   2.478 -0.0248 -0.2591 -0.3317
 1508SOL    HW2 6030   0.940   1.994   2.539 -0.5446  0.6347 -0.5717
 1508SOL    HW3 6031   0.894   1.854   2.505 -0.4630  0.1581  1.2640
 1508SOL    MW4 6032   0.894   1.940   2.490 -0.1512 -0.0861 -0.1528
 1509SOL     OW 6033   1.120   2.076   2.599  0.2886  0.0027  0.1109
 1509SOL    HW2 6034   1.201   2.039   2.564 -0.8405 -1.4197 -1.0218
 1509SOL    HW3 6035   1.098   2.146   2.538  0.1997 -0.1629 -0.0447
 1509SOL    MW4 6036   1.128   2.080   2.586  0.1279 -0.2068 -0.0591
 1510SOL     OW 6037   1.077   2.298   2.458 -0.0571  0.1334 -0.6909
 1510SOL    HW2 6038   1.086   2.287   2.363 -0.7694 -0.4245 -0.6978
 1510SOL    HW3 6039   1.162   2.330   2.486  0.3629 -0.3120 -1.4322
 1510SOL    MW4 6040   1.089   2.301   2.449 -0.0956  0.0010 -0.7896
 1511SOL     OW 6041   0.896   2.444   2.586  0.5717 -0.4864  0.2881
 1511SOL    HW2 6042   0.894   2.534   2.551 -1.0604 -0.8711 -0.6748
 1511SOL    HW3 6043   0.962   2.400   2.533  0.7869 -0.0718  0.2053
 1511SOL    MW4 6044   0.905   2.450   2.574  0.3848 -0.4824  0.1501
 1512SOL     OW 6045   0.866   2.682   2.458 -0.0195  0.1152  0.1048
 1512SOL    HW2 6046   0.927   2.743   2.499  0.6038 -0.4687  0.0602
 1512SOL    HW3 6047   0.779   2.715   2.481  0.2976  1.2597 -0.2681
 1512SOL    MW4 6048   0.862   2.695   2.466  0.1046  0.1891  0.0497
 1513SOL     OW 6049   1.070   2.841   2.562  0.6091 -0.3076 -0.4003
 1513SOL    HW2 6050   1.132   2.775   2.534 -0.5360 -1.9842  0.9040
 1513SOL    HW3 6051   1.082   2.847   2.657 -0.5912 -0.0106 -0.2542
 1513SOL    MW4 6052   1.080   2.833   2.571  0.2997 -0.4896 -0.2089
 1514SOL     OW 6053   1.132   3.073   2.443 -0.2033  0.7488 -0.2890
 1514SOL    HW2 6054   1.110   2.983   2.467 -0.2961  1.3780  2.1529
 1514SOL    HW3 6055   1.133   3.073   2.348 -0.0104 -1.8845 -0.3201
 1514SOL    MW4 6056   1.129   3.061   2.434 -0.1901  0.4844  0.0291
 1515SOL     OW 6057   0.899   3.204   2.557 -0.2144  0.7003  0.0451
 1515SOL    HW2 6058   0.886   3.290   2.517  0.0664  0.8079  0.1823
 1515SOL    HW3 6059   0.975   3.168   2.512 -0.1187  0.6704  0.2320
 1515SOL    MW4 6060   0.907   3.210   2.546 -0.1648  0.7106  0.0879
 1516SOL     OW 6061   0.887   3.462   2.462  0.0000  0.0000  0.2667
 1516SOL    HW2 6062   0.961   3.508   2.503  0.0000  0.0000  0.2501
 1516SOL    HW3 6063   0.810   3.511   2.492  0.0000  0.0000  0.2906
 1516SOL    MW4 6064   0.887   3.475   2.472  0.0000  0.0000  0.2677
 1517SOL     OW 6065   1.102   3.599   2.575  0.0000  0.0000 -0.1869
 1517SOL    HW2 6066   1.101   3.626   2.666  0.0000  0.0000 -0.1880
 1517SOL    HW3 6067   1.100   3.681   2.525  0.0000  0.0000 -0.1903
 1517SOL    MW4 6068   1.102   3.613   2.580  0.0000  0.0000 -0.1875
 1518SOL     OW 6069   1.098   3.851   2.466  0.0000  0.0000 -0.1851
 1518SOL    HW2 6070   1.178   3.889   2.504  0.0000  0.0000 -0.1846
 1518SOL    HW3 6071   1.110   3.859   2.372  0.0000  0.0000 -0.1849
 1518SOL    MW4 6072   1.110   3.857   2.459  0.0000  0.0000 -0.1850
 1519SOL     OW 6073   0.893   4.008   2.601  0.0000  0.0000  0.2326
 1519SOL    HW2 6074   0.957   3.963   2.546  0.0000  0.0000  0.2322
 1519SOL    HW3 6075   0.809   3.969   2.575  0.0000  0.0000  0.2452
 1519SOL    MW4 6076   0.890   3.997   2.591  0.0000  0.0000  0.2342
 1520SOL     OW 6077   0.888   4.266   2.514  0.0000  0.0000 -0.0485
 1520SOL    HW2 6078   0.892   4.174   2.539  0.0000  0.0000 -0.0443
 1520SOL    HW3 6079   0.884   4.265   2.419  0.0000  0.0000 -0.0483
 1520SOL    MW4 6080   0.888   4.254   2.505  0.0000  0.0000 -0.0479
 1521SOL     OW 6081   1.144   4.351   2.597  0.0000  0.0000  0.0830
 1521SOL    HW2 6082   1.137   4.378   2.688  0.0000  0.0000  0.0837
 1521SOL    HW3 6083   1.055   4.327   2.572  0.0000  0.0000  0.0935
 1521SOL    MW4 6084   1.131   4.351   2.605  0.0000  0.0000  0.0845
 1522SOL     OW 6085   1.593   4.643   2.504  0.0000  0.0000 -0.0052
 1522SOL    HW2 6086   1.588   4.549   2.520  0.0000  0.0000 -0.0171
 1522SOL    HW3 6087   1.581   4.652   2.409  0.0000  0.0000 -0.0042
 1522SOL    MW4 6088   1.591   4.632   2.493  0.0000  0.0000 -0.0067
 1523SOL     OW 6089   1.351   0.086   2.609  0.0000  0.0000  0.2605
 1523SOL    HW2 6090   1.350   0.171   2.564  0.0000  0.0000  0.2491
 1523SOL    HW3 6091   1.437   0.049   2.587  0.0000  0.0000  0.2577
 1523SOL    MW4 6092   1.362   0.092   2.601  0.0000  0.0000  0.2586
 1524SOL     OW 6093   1.360   0.344   2.502  0.0000  0.0000 -0.4413
 1524SOL    HW2 6094   1.437   0.387   2.539  0.0000  0.0000 -0.4057
 1524SOL    HW3 6095   1.286   0.395   2.536  0.0000  0.0000 -0.4536
 1524SOL    MW4 6096   1.360   0.356   2.511  0.0000  0.0000 -0.4382
 1525SOL     OW 6097   1.579   0.490   2.558 -0.1769 -0.3125  0.3894
 1525SOL    HW2 6098   1.662   0.458   2.523  0.2495  1.3450 -0.1557
 1525SOL    HW3 6099   1.574   0.581   2.529 -1.2781  0.1751  2.0613
 1525SOL    MW4 6100   1.589   0.498   2.549 -0.2659 -0.0295  0.5380
 1526SOL     OW 6101   1.576   0.775   2.479  0.4503 -0.2198  0.0847
 1526SOL    HW2 6102   1.491   0.814   2.497  0.4306 -0.9108  1.5490
 1526SOL    HW3 6103   1.586   0.782   2.384 -1.1506  0.0179 -0.0759
 1526SOL    MW4 6104   1.566   0.781   2.469  0.2364 -0.2796  0.2567
 1527SOL     OW 6105   1.344   0.883   2.597 -0.2683 -0.1370  0.3973
 1527SOL    HW2 6106   1.352   0.891   2.692 -3.3232  2.1134  0.5503
 1527SOL    HW3 6107   1.346   0.974   2.566  0.3244 -0.8364 -1.6526
 1527SOL    MW4 6108   1.345   0.896   2.606 -0.5931  0.0676  0.1470
 1528SOL     OW 6109   1.346   1.134   2.480 -0.5185  0.8458 -0.2183
 1528SOL    HW2 6110   1.417   1.180   2.523 -0.0830  0.6881 -0.7551
 1528SOL    HW3 6111   1.272   1.195   2.482 -0.4232  0.9305  0.5184
 1528SOL    MW4 6112   1.345   1.148   2.486 -0.4485  0.8362 -0.1919
 1529SOL     OW 6113   1.561   1.260   2.584 -0.0608 -0.3686 -0.3887
 1529SOL    HW2 6114   1.578   1.284   2.675 -0.9173  1.7754 -0.7515
 1529SOL    HW3 6115   1.646   1.233   2.550  0.6354  0.6004  0.5454
 1529SOL    MW4 6116   1.574   1.260   2.591 -0.0820  0.0421 -0.3133
 1530SOL     OW 6117   1.571   1.542   2.451  0.1591 -0.2263 -0.2184
 1530SOL    HW2 6118   1.561   1.451   2.478  0.3683 -0.2240 -0.1352
 1530SOL    HW3 6119   1.550   1.541   2.357 -2.2791  0.0678  0.2934
 1530SOL    MW4 6120   1.567   1.530   2.442 -0.1350 -0.1872 -0.1399
 1531SOL     OW 6121   1.357   1.672   2.575  0.1003  0.0286  0.2247
 1531SOL    HW2 6122   1.278   1.633   2.538 -0.4706  0.4961  0.9437
 1531SOL    HW3 6123   1.429   1.620   2.537 -0.5508 -0.5346 -0.2598
 1531SOL    MW4 6124   1.356   1.660   2.565 -0.0609  0.0160  0.2557
 1532SOL     OW 6125   1.340   1.956   2.501 -0.2239 -0.2066  0.2161
 1532SOL    HW2 6126   1.334   1.864   2.529  1.5752 -1.1936 -2.4510
 1532SOL    HW3 6127   1.330   1.953   2.406  1.0107  2.2463 -0.0245
 1532SOL    MW4 6128   1.338   1.943   2.492  0.1764 -0.0132 -0.1675
 1533SOL     OW 6129   1.555   2.102   2.579 -0.0219 -0.6352  0.0709
 1533SOL    HW2 6130   1.634   2.063   2.541  0.1907  0.0298 -0.1795
 1533SOL    HW3 6131   1.486   2.038   2.562  0.9507 -2.4350  2.5574
 1533SOL    MW4 6132   1.556   2.088   2.572  0.1345 -0.7849  0.3659
 1534SOL     OW 6133   1.572   2.343   2.447  0.2164 -0.2492 -0.4687
 1534SOL    HW2 6134   1.649   2.378   2.493 -1.2306  1.4295  0.7280
 1534SOL    HW3 6135   1.560   2.256   2.484  0.9358 -0.1128  0.0963
 1534SOL    MW4 6136   1.581   2.336   2.458  0.1204 -0.0097 -0.2363
 1535SOL     OW 6137   1.313   2.395   2.550  0.2641 -0.1324  0.1308
 1535SOL    HW2 6138   1.304   2.487   2.526 -1.3116 -0.4810 -0.6628
 1535SOL    HW3 6139   1.405   2.374   2.532  1.1507  1.7829  2.1633
 1535SOL    MW4 6140   1.324   2.404   2.545  0.1731  0.0743  0.2943
 1536SOL     OW 6141   1.308   2.675   2.521  0.1968 -0.4118 -0.0878
 1536SOL    HW2 6142   1.375   2.726   2.567 -1.4839  0.4458  1.4988
 1536SOL    HW3 6143   1.327   2.689   2.428  0.7462  1.8182  0.3239
 1536SOL    MW4 6144   1.319   2.683   2.515  0.0475 -0.0044  0.1758
 1537SOL     OW 6145   1.551   2.813   2.615 -0.2558  0.1255  0.1318
 1537SOL    HW2 6146   1.577   2.842   2.702  0.1102  1.8696 -0.5495
 1537SOL    HW3 6147   1.630   2.773   2.578 -0.2443 -0.0667  0.3626
 1537SOL    MW4 6148   1.564   2.812   2.622 -0.2060  0.3302  0.0724
 1538SOL     OW 6149   1.549   3.056   2.438 -0.3983  0.2123  0.2143
 1538SOL    HW2 6150   1.618   3.099   2.488 -0.2742  0.4912 -0.1938
 1538SOL    HW3 6151   1.554   2.964   2.465 -0.2763  0.3465  0.6449
 1538SOL    MW4 6152   1.559   3.049   2.448 -0.3659  0.2668  0.2173
 1539SOL     OW 6153   1.352   3.179   2.561 -0.0143  0.0957  0.3282
 1539SOL    HW2 6154   1.427   3.128   2.528 -0.0154 -0.0151  0.4949
 1539SOL    HW3 6155   1.275   3.130   2.531 -0.0357  0.7973 -0.7749
 1539SOL    MW4 6156   1.352   3.166   2.553 -0.0173  0.1737  0.2047
 1540SOL     OW 6157   1.336   3.463   2.509 -0.2978 -0.5143  0.5628
 1540SOL    HW2 6158   1.329   3.371   2.534 -1.2057 -0.3038  1.0865
 1540SOL    HW3 6159   1.251   3.501   2.530  0.4099  0.6962  1.3616
 1540SOL    MW4 6160   1.324   3.456   2.515 -0.3242 -0.3268  0.7373
 1541SOL     OW 6161   1.588   3.576   2.584  0.2363 -0.3405  0.1286
 1541SOL    HW2 6162   1.664   3.524   2.557  0.7399  1.1056 -1.2766
 1541SOL    HW3 6163   1.512   3.526   2.552  0.7082 -0.2531 -1.1287
 1541SOL    MW4 6164   1.588   3.562   2.577  0.3650 -0.1382 -0.2227
 1542SOL     OW 6165   1.572   3.845   2.468 -0.1839  0.2175 -0.2246
 1542SOL    HW2 6166   1.490   3.887   2.494  0.4420  1.2543  0.0766
 1542SOL    HW3 6167   1.563   3.754   2.500 -1.6623  0.0234 -1.1717
 1542SOL    MW4 6168   1.560   3.838   2.476 -0.2963  0.3287 -0.3098
 1543SOL     OW 6169   1.333   3.978   2.568 -0.2950  0.0844  0.0808
 1543SOL    HW2 6170   1.316   3.988   2.662  0.5423  0.9626  0.1540
 1543SOL    HW3 6171   1.339   4.068   2.535  1.0246 -0.2046 -0.5105
 1543SOL    MW4 6172   1.332   3.991   2.576 -0.0104  0.1621  0.0125
 1544SOL     OW 6173   1.360   4.229   2.461  0.3189 -0.2974 -0.4065
 1544SOL    HW2 6174   1.276   4.265   2.491  0.5172  0.4289 -0.7226
 1544SOL    HW3 6175   1.357   4.239   2.366  0.2991 -1.2912 -0.5206
 1544SOL    MW4 6176   1.348   4.235   2.452  0.3424 -0.3327 -0.4633
 1545SOL     OW 6177   1.596   4.354   2.576  0.2919 -0.3361 -0.6843
 1545SOL    HW2 6178   1.593   4.332   2.669  1.0184  1.7245 -0.1678
 1545SOL    HW3 6179   1.525   4.302   2.537  0.5428 -1.8731  0.8583
 1545SOL    MW4 6180   1.586   4.344   2.583  0.4209 -0.2670 -0.4126
 1546SOL     OW 6181   2.023   4.653   2.518 -0.4388 -0.3340  0.0183
 1546SOL    HW2 6182   2.084   4.713   2.561  1.0756 -1.9383  0.1547
 1546SOL    HW3 6183   2.035   4.667   2.425  1.5215 -1.9396 -0.0066
 1546SOL    MW4 6184   2.032   4.662   2.512  0.0196 -0.7575  0.0330
 1547SOL     OW 6185   1.790   0.124   2.609  0.1549 -0.3851  0.3751
 1547SOL    HW2 6186   1.871   0.082   2.580  0.1081 -0.8904  0.9633
 1547SOL    HW3 6187   1.721   0.070   2.571  0.0978 -0.6524  0.8436
 1547SOL    MW4 6188   1.792   0.111   2.600  0.1412 -0.4870  0.5146
 1548SOL     OW 6189   1.834   0.389   2.477  0.8444 -0.0316  0.4826
 1548SOL    HW2 6190   1.904   0.445   2.512  0.3926  0.2485  0.9451
 1548SOL    HW3 6191   1.829   0.316   2.539  0.6299  0.0229  0.5299
 1548SOL    MW4 6192   1.843   0.387   2.490  0.7565  0.0125  0.5499
 1549SOL     OW 6193   2.035   0.525   2.634  0.2997  0.3626 -0.4201
 1549SOL    HW2 6194   2.112   0.485   2.594 -0.3505 -0.5689 -0.7616
 1549SOL    HW3 6195   2.041   0.617   2.609  1.5775  0.4077  0.0129
 1549SOL    MW4 6196   2.046   0.532   2.625  0.3825  0.2457 -0.4080
 1550SOL     OW 6197   2.032   0.777   2.494 -0.0677  0.4695 -0.2510
 1550SOL    HW2 6198   1.943   0.804   2.516  0.2093  0.0366  1.4627
 1550SOL    HW3 6199   2.031   0.765   2.399 -1.0519  3.2609 -0.6325
 1550SOL    MW4 6200   2.020   0.779   2.484 -0.1610  0.7807 -0.0753
 1551SOL     OW 6201   1.815   0.894   2.590  0.6275 -0.7852  0.2076
 1551SOL    HW2 6202   1.812   0.981   2.551  1.0905 -0.6692  0.4288
 1551SOL    HW3 6203   1.731   0.854   2.566  0.0350  0.0456  0.8767
 1551SOL    MW4 6204   1.803   0.900   2.582  0.6104 -0.6603  0.3251
 1552SOL     OW 6205   1.797   1.134   2.476 -0.2915 -0.3075  0.2535
 1552SOL    HW2 6206   1.870   1.186   2.509 -0.5379  1.2880 -1.6864
 1552SOL    HW3 6207   1.819   1.117   2.384 -1.1618 -1.9761  0.3277
 1552SOL    MW4 6208   1.809   1.138   2.468 -0.4389 -0.3171  0.0073
 1553SOL     OW 6209   1.989   1.290   2.602 -0.1023  0.0019 -0.1456
 1553SOL    HW2 6210   2.008   1.284   2.696 -1.1064 -0.2345  0.0459
 1553SOL    HW3 6211   2.068   1.256   2.560  0.7470  1.0450  0.5832
 1553SOL    MW4 6212   2.002   1.284   2.609 -0.1228  0.1084 -0.0242
 1554SOL     OW 6213   1.986   1.549   2.514  0.1422 -0.2622 -0.4035
 1554SOL    HW2 6214   1.916   1.608   2.541  0.7407  0.0090  0.5870
 1554SOL    HW3 6215   1.960   1.464   2.549 -1.8019 -1.1037 -3.6547
 1554SOL    MW4 6216   1.973   1.546   2.522 -0.0354 -0.3374 -0.7017
 1555SOL     OW 6217   1.767   1.700   2.577  0.5364  0.1268 -0.3578
 1555SOL    HW2 6218   1.755   1.688   2.671  1.3620  1.2140 -0.1095
 1555SOL    HW3 6219   1.703   1.642   2.537 -0.0642 -0.0674  0.8798
 1555SOL    MW4 6220   1.757   1.691   2.584  0.5661  0.2446 -0.1618
 1556SOL     OW 6221   1.795   1.958   2.494 -0.2024  0.0196 -0.4050
 1556SOL    HW2 6222   1.888   1.972   2.510 -0.4956  1.3146  0.2712
 1556SOL    HW3 6223   1.782   1.864   2.507  0.8845 -0.0607  0.1532
 1556SOL    MW4 6224   1.805   1.948   2.498 -0.0977  0.1799 -0.2421
 1557SOL     OW 6225   2.058   2.027   2.551  0.2004  0.0248 -0.2146
 1557SOL    HW2 6226   2.044   2.032   2.646 -0.5677 -0.3801 -0.3009
 1557SOL    HW3 6227   2.038   2.114   2.519 -0.5419 -0.1097 -0.1272
 1557SOL    MW4 6228   2.054   2.039   2.559  0.0012 -0.0464 -0.2145
 1558SOL     OW 6229   2.014   2.303   2.465 -0.8246 -0.1383 -0.1226
 1558SOL    HW2 6230   2.097   2.341   2.492 -1.0175 -0.1661  0.5316
 1558SOL    HW3 6231   2.015   2.307   2.370  0.0098 -0.3240 -0.1243
 1558SOL    MW4 6232   2.025   2.309   2.456 -0.7399 -0.1665 -0.0365
 1559SOL     OW 6233   1.805   2.446   2.580  0.1254 -0.4579  0.1226
 1559SOL    HW2 6234   1.805   2.425   2.673  1.0617 -0.5395  0.1125
 1559SOL    HW3 6235   1.879   2.397   2.544  0.6808  0.7333 -0.3845
 1559SOL    MW4 6236   1.815   2.437   2.588  0.3222 -0.3115  0.0543
 1560SOL     OW 6237   1.783   2.716   2.506 -0.0647 -0.1171 -0.1940
 1560SOL    HW2 6238   1.791   2.718   2.411 -1.2999  0.1506 -0.2911
 1560SOL    HW3 6239   1.812   2.627   2.530  2.1113  0.4504 -0.6275
 1560SOL    MW4 6240   1.788   2.704   2.497  0.0594 -0.0069 -0.2640
 1561SOL     OW 6241   2.014   2.853   2.565  0.3293  0.3262 -0.2612
 1561SOL    HW2 6242   2.088   2.801   2.535  1.2055  0.0277  2.2688
 1561SOL    HW3 6243   1.937   2.804   2.536  1.1336 -0.4085 -1.1842
 1561SOL    MW4 6244   2.014   2.840   2.557  0.5510  0.1899 -0.0491
 1562SOL     OW 6245   1.986   3.115   2.477  0.4234  0.0340 -0.1951
 1562SOL    HW2 6246   1.996   3.023   2.499  0.3934 -0.1059 -0.7673
 1562SOL    HW3 6247   1.987   3.118   2.381 -0.3980  0.5290 -0.1955
 1562SOL    MW4 6248   1.987   3.103   2.467  0.3111  0.0809 -0.2707
 1563SOL     OW 6249   1.744   3.213   2.581  0.0186  0.0016  0.3262
 1563SOL    HW2 6250   1.762   3.298   2.542  0.2442 -0.7237 -1.1889
 1563SOL    HW3 6251   1.815   3.156   2.550  0.7341 -0.3861  2.5501
 1563SOL    MW4 6252   1.756   3.217   2.572  0.1428 -0.1453  0.4197
 1564SOL     OW 6253   1.813   3.467   2.443 -0.0793  0.0416 -0.1642
 1564SOL    HW2 6254   1.899   3.490   2.478 -0.9470  1.4687  1.1423
 1564SOL    HW3 6255   1.815   3.496   2.352  1.2365 -1.0810 -0.5033
 1564SOL    MW4 6256   1.824   3.474   2.436 -0.0202  0.0818 -0.0365
 1565SOL     OW 6257   2.027   3.595   2.544  0.1929  0.2140 -0.1114
 1565SOL    HW2 6258   2.037   3.592   2.639  1.1659  1.7466 -0.1380
 1565SOL    HW3 6259   2.106   3.554   2.510 -0.5057 -1.0163 -0.2572
 1565SOL    MW4 6260   2.039   3.589   2.552  0.2291  0.2539 -0.1342
 1566SOL     OW 6261   2.011   3.879   2.466 -0.4755 -0.1531 -0.2518
 1566SOL    HW2 6262   1.931   3.911   2.506 -0.6140 -0.2452 -0.4535
 1566SOL    HW3 6263   2.010   3.785   2.482  0.0535 -0.0294  0.5600
 1566SOL    MW4 6264   2.000   3.871   2.473 -0.4240 -0.1489 -0.1713
 1567SOL     OW 6265   1.779   3.995   2.572  0.0999 -0.2142  0.0900
 1567SOL    HW2 6266   1.790   4.084   2.537  0.3777 -0.1450  0.3554
 1567SOL    HW3 6267   1.696   3.965   2.534  0.1529  0.0450 -0.2402
 1567SOL    MW4 6268   1.769   4.003   2.562  0.1435 -0.1709  0.0815
 1568SOL     OW 6269   1.808   4.235   2.443 -0.0957 -0.4500 -0.2678
 1568SOL    HW2 6270   1.738   4.283   2.487 -0.6839 -1.6104  0.0888
 1568SOL    HW3 6271   1.793   4.250   2.349 -0.9363 -0.8367 -0.1991
 1568SOL    MW4 6272   1.797   4.243   2.436 -0.2842 -0.6541 -0.2117
 1569SOL     OW 6273   2.035   4.374   2.553  0.2721  0.4207 -0.2680
 1569SOL    HW2 6274   1.954   4.345   2.511 -0.5654  1.1808  0.7850
 1569SOL    HW3 6275   2.041   4.468   2.532  1.7592  0.0209 -1.7343
 1569SOL    MW4 6276   2.025   4.383   2.545  0.3578  0.4682 -0.3225
 1570SOL     OW 6277   2.441   4.634   2.502 -0.1235 -0.4244 -0.2055
 1570SOL    HW2 6278   2.517   4.689   2.518 -0.1840 -0.2969 -0.3585
 1570SOL    HW3 6279   2.431   4.633   2.407 -0.1183 -0.7041 -0.2061
 1570SOL    MW4 6280   2.449   4.641   2.492 -0.1308 -0.4444 -0.2258
 1571SOL     OW 6281   2.237   0.139   2.634  0.4423 -0.0523  0.0205
 1571SOL    HW2 6282   2.239   0.103   2.723  1.2517  0.7337  0.3358
 1571SOL    HW3 6283   2.306   0.092   2.587  0.9141  0.4577  0.1905
 1571SOL    MW4 6284   2.247   0.128   2.640  0.6113  0.1187  0.0845
 1572SOL     OW 6285   2.271   0.388   2.521  0.1888 -0.5344 -0.3897
 1572SOL    HW2 6286   2.258   0.304   2.566  1.2733 -1.1206 -1.1424
 1572SOL    HW3 6287   2.234   0.374   2.434 -0.6552  0.1509 -0.1510
 1572SOL    MW4 6288   2.264   0.375   2.516  0.2205 -0.5214 -0.4575
 1573SOL     OW 6289   2.494   0.499   2.649  0.6828 -0.1916  0.0131
 1573SOL    HW2 6290   2.492   0.594   2.637  1.6567 -0.0586  0.7821
 1573SOL    HW3 6291   2.412   0.468   2.610  0.3004  0.9750 -0.1441
 1573SOL    MW4 6292   2.483   0.508   2.643  0.7608 -0.0202  0.0938
 1574SOL     OW 6293   2.440   0.771   2.568 -0.3412 -0.4567 -0.0311
 1574SOL    HW2 6294   2.369   0.835   2.579 -0.6104 -0.7810  0.1172
 1574SOL    HW3 6295   2.431   0.741   2.477  1.6451  1.9355 -1.0846
 1574SOL    MW4 6296   2.430   0.775   2.557 -0.1146 -0.1838 -0.1505
 1575SOL     OW 6297   2.223   0.937   2.655 -0.0923  0.2487 -0.0209
 1575SOL    HW2 6298   2.203   0.914   2.745  0.3435  1.5211  0.4033
 1575SOL    HW3 6299   2.159   0.889   2.603  0.2894 -1.2852  0.8926
 1575SOL    MW4 6300   2.212   0.927   2.660  0.0156  0.2142  0.1556
 1576SOL     OW 6301   2.230   1.173   2.514  0.8130 -0.4492 -0.3164
 1576SOL    HW2 6302   2.235   1.086   2.554  1.8451 -0.0839  0.3789
 1576SOL    HW3 6303   2.233   1.157   2.420 -2.2503 -1.3675 -0.2852
 1576SOL    MW4 6304   2.231   1.160   2.507  0.5450 -0.5222 -0.2206
 1577SOL     OW 6305   2.454   1.284   2.631 -0.4080  0.5389  0.1587
 1577SOL    HW2 6306   2.532   1.237   2.603 -0.6471  0.4741 -0.4017
 1577SOL    HW3 6307   2.382   1.242   2.584 -0.8700  0.1225  1.2289
 1577SOL    MW4 6308   2.455   1.272   2.621 -0.5005  0.4754  0.2260
 1578SOL     OW 6309   2.468   1.513   2.483  0.4091  0.2730  0.1760
 1578SOL    HW2 6310   2.389   1.542   2.530  0.1037  0.4156 -0.4173
 1578SOL    HW3 6311   2.486   1.426   2.518 -0.2914  0.0435 -0.0164
 1578SOL    MW4 6312   2.460   1.505   2.494  0.2764  0.2615  0.0723
 1579SOL     OW 6313   2.230   1.641   2.614 -0.2752  0.0828  0.0808
 1579SOL    HW2 6314   2.248   1.713   2.554 -0.4482  0.6237  0.6698
 1579SOL    HW3 6315   2.140   1.615   2.593 -0.2544  0.1170 -0.0542
 1579SOL    MW4 6316   2.220   1.647   2.603 -0.2953  0.1587  0.1407
 1580SOL     OW 6317   2.271   1.878   2.457 -0.1980  0.1249 -0.0981
 1580SOL    HW2 6318   2.202   1.925   2.504 -0.6623 -0.7172  0.0839
 1580SOL    HW3 6319   2.257   1.899   2.365  0.2481  1.1814  0.0761
 1580SOL    MW4 6320   2.260   1.887   2.451 -0.2004  0.1532 -0.0511
 1581SOL     OW 6321   2.492   2.030   2.527  0.0417  0.0341  0.0084
 1581SOL    HW2 6322   2.479   2.123   2.508  0.1462  0.3680  1.5336
 1581SOL    HW3 6323   2.413   1.988   2.493  0.6006  0.4871 -1.9182
 1581SOL    MW4 6324   2.480   2.037   2.520  0.1292  0.1380 -0.0446
 1582SOL     OW 6325   2.483   2.314   2.478 -0.2022 -0.1115 -0.3502
 1582SOL    HW2 6326   2.560   2.361   2.511  0.4594 -0.8489 -0.8201
 1582SOL    HW3 6327   2.487   2.325   2.383 -0.0763 -1.0515 -0.4581
 1582SOL    MW4 6328   2.494   2.321   2.470 -0.0983 -0.3328 -0.4264
 1583SOL     OW 6329   2.256   2.429   2.556 -0.1820 -0.0443  0.1916
 1583SOL    HW2 6330   2.264   2.432   2.652  0.7386 -1.7577  0.1841
 1583SOL    HW3 6331   2.339   2.394   2.526 -0.6879 -0.0761 -1.2159
 1583SOL    MW4 6332   2.268   2.425   2.565 -0.1272 -0.2745  0.0049
 1584SOL     OW 6333   2.248   2.725   2.473 -0.2912 -0.5841  0.2016
 1584SOL    HW2 6334   2.309   2.777   2.526 -0.0828 -1.5658  0.9430
 1584SOL    HW3 6335   2.262   2.635   2.503 -0.1626 -1.1609 -1.5474
 1584SOL    MW4 6336   2.258   2.720   2.484 -0.2468 -0.7897  0.0687
 1585SOL     OW 6337   2.438   2.879   2.591  0.1841  0.1573 -0.0891
 1585SOL    HW2 6338   2.514   2.832   2.556  0.0291 -1.3630  1.5368
 1585SOL    HW3 6339   2.446   2.967   2.555  1.9180 -0.3790 -1.1177
 1585SOL    MW4 6340   2.449   2.884   2.582  0.3924 -0.1141 -0.0103
 1586SOL     OW 6341   2.456   3.120   2.453  0.1606 -0.5986 -0.5100
 1586SOL    HW2 6342   2.375   3.164   2.480 -1.8852 -4.1074 -0.5430
 1586SOL    HW3 6343   2.445   3.105   2.359  0.0164 -2.5636 -0.2195
 1586SOL    MW4 6344   2.444   3.123   2.444 -0.1283 -1.3208 -0.4760
 1587SOL     OW 6345   2.238   3.237   2.561  0.2345  0.2395  0.4322
 1587SOL    HW2 6346   2.249   3.227   2.655  0.0843 -1.9534  0.2373
 1587SOL    HW3 6347   2.146   3.214   2.545  0.4186  0.0250 -0.3268
 1587SOL    MW4 6348   2.227   3.233   2.571  0.2389 -0.0781  0.3064
 1588SOL     OW 6349   2.465   3.602   2.602  0.0115 -0.1083  0.2150
 1588SOL    HW2 6350   2.481   3.690   2.569 -0.6745 -0.0541  0.0241
 1588SOL    HW3 6351   2.441   3.615   2.694 -0.6462 -0.0491  0.0358
 1588SOL    MW4 6352   2.464   3.615   2.610 -0.1658 -0.0933  0.1661
 1589SOL     OW 6353   2.489   3.851   2.478 -0.0393 -0.1595 -0.2420
 1589SOL    HW2 6354   2.403   3.887   2.498 -0.2467 -0.9874  0.3678
 1589SOL    HW3 6355   2.551   3.908   2.524 -0.2613  0.3904 -0.6232
 1589SOL    MW4 6356   2.486   3.863   2.486 -0.0960 -0.1962 -0.2118
 1590SOL     OW 6357   2.669   4.002   2.605  0.1415  0.3752  0.6633
 1590SOL    HW2 6358   2.751   3.984   2.558 -0.1977  0.2471  0.1181
 1590SOL    HW3 6359   2.645   4.090   2.577 -0.4444  0.0205  0.0187
 1590SOL    MW4 6360   2.677   4.011   2.595  0.0194  0.3115  0.5064
 1591SOL     OW 6361   2.251   3.990   2.547 -0.5217 -0.0386 -0.6461
 1591SOL    HW2 6362   2.234   3.982   2.641 -0.2661 -0.7891 -0.6576
 1591SOL    HW3 6363   2.171   3.958   2.505  0.0031 -1.3256 -0.6875
 1591SOL    MW4 6364   2.238   3.984   2.554 -0.4187 -0.3074 -0.6531
 1592SOL     OW 6365   2.277   4.276   2.496  0.3032 -0.3192 -0.0039
 1592SOL    HW2 6366   2.269   4.182   2.511  1.1676 -0.2482  0.9329
 1592SOL    HW3 6367   2.190   4.311   2.517  0.3042 -0.7678  0.7549
 1592SOL    MW4 6368   2.264   4.268   2.501  0.4174 -0.3690  0.2198
 1593SOL     OW 6369   2.471   4.407   2.626  0.4397 -0.0095  0.2746
 1593SOL    HW2 6370   2.399   4.356   2.588  0.0925  1.1531 -0.6731
 1593SOL    HW3 6371   2.462   4.494   2.587  1.3140  0.6485  1.4948
 1593SOL    MW4 6372   2.461   4.412   2.616  0.5092  0.2307  0.3105
 1594SOL     OW 6373   2.922   4.664   2.549  0.0228  0.2834  0.0279
 1594SOL    HW2 6374   2.997   4.718   2.573  0.5438 -0.6412  0.5496
 1594SOL    HW3 6375   2.915   4.672   2.454  0.9064  0.2329 -0.0457
 1594SOL    MW4 6376   2.931   4.672   2.539  0.2081  0.1547  0.0870
 1595SOL     OW 6377   2.673   0.100   2.600 -0.0580 -0.1411 -0.1238
 1595SOL    HW2 6378   2.667   0.089   2.695  0.2167 -1.5129 -0.2615
 1595SOL    HW3 6379   2.747   0.045   2.574  0.3354  0.8063 -1.0388
 1595SOL    MW4 6380   2.682   0.091   2.609  0.0302 -0.1971 -0.2627
 1596SOL     OW 6381   2.719   0.366   2.552  0.5941 -0.1159 -0.0708
 1596SOL    HW2 6382   2.720   0.278   2.589  1.1075  0.2914  0.8770
 1596SOL    HW3 6383   2.638   0.405   2.586  0.4247 -0.1701 -0.4008
 1596SOL    MW4 6384   2.708   0.360   2.561  0.6395 -0.0693  0.0107
 1597SOL     OW 6385   2.972   0.497   2.611  0.0565  0.2679 -0.2458
 1597SOL    HW2 6386   2.947   0.583   2.576 -1.1610  0.0362  0.0185
 1597SOL    HW3 6387   2.891   0.446   2.606  0.3213 -0.2964  1.2982
 1597SOL    MW4 6388   2.958   0.502   2.605 -0.0692  0.1629 -0.0072
 1598SOL     OW 6389   2.908   0.750   2.512 -0.4346 -0.1855 -0.3697
 1598SOL    HW2 6390   2.981   0.802   2.545 -0.3522 -0.1403 -0.6210
 1598SOL    HW3 6391   2.830   0.792   2.550 -0.3796  0.2300 -0.7083
 1598SOL    MW4 6392   2.907   0.763   2.521 -0.4165 -0.1247 -0.4476
 1599SOL     OW 6393   2.688   0.898   2.626  0.0580  0.1136  0.3122
 1599SOL    HW2 6394   2.694   0.884   2.720  0.0060  0.4674  0.3686
 1599SOL    HW3 6395   2.607   0.854   2.601 -0.5679  1.0697  0.6346
 1599SOL    MW4 6396   2.678   0.890   2.635 -0.0315  0.2864  0.3622
 1600SOL     OW 6397   2.682   1.158   2.543  0.2672  0.1850  0.1831
 1600SOL    HW2 6398   2.768   1.190   2.567  0.2555 -0.0416  0.5432
 1600SOL    HW3 6399   2.677   1.070   2.582  0.1459 -0.0862 -0.4370
 1600SOL    MW4 6400   2.692   1.150   2.551  0.2496  0.1193  0.1488
 1601SOL     OW 6401   2.933   1.264   2.601  0.0513 -0.4361 -0.1464
 1601SOL    HW2 6402   2.931   1.251   2.696 -0.8602  0.1293 -0.0759
 1601SOL    HW3 6403   3.008   1.214   2.571  0.2777 -0.7113  0.8655
 1601SOL    MW4 6404   2.943   1.256   2.610 -0.0391 -0.3978 -0.0036
 1602SOL     OW 6405   2.928   1.535   2.497  0.8135 -0.1075  0.3415
 1602SOL    HW2 6406   2.839   1.555   2.524  0.4606 -0.6203 -0.4259
 1602SOL    HW3 6407   2.941   1.444   2.520  0.9653 -0.1762 -0.0010
 1602SOL    MW4 6408   2.918   1.526   2.503  0.7870 -0.1842  0.1951
 1603SOL     OW 6409   2.682   1.662   2.586  0.2564 -0.5050  0.0785
 1603SOL    HW2 6410   2.680   1.673   2.681 -1.6258 -0.3780  0.0362
 1603SOL    HW3 6411   2.606   1.608   2.566 -0.2893  0.8065 -1.5180
 1603SOL    MW4 6412   2.671   1.656   2.596 -0.0640 -0.3152 -0.1377
 1604SOL     OW 6413   2.744   1.916   2.477 -0.4667 -0.5396  0.4013
 1604SOL    HW2 6414   2.731   1.833   2.522  0.7043 -0.4378  0.9422
 1604SOL    HW3 6415   2.659   1.960   2.482 -1.3981 -2.1673 -0.8487
 1604SOL    MW4 6416   2.731   1.911   2.484 -0.4351 -0.7409  0.3078
 1605SOL     OW 6417   2.942   2.082   2.606  0.6207 -0.0108 -0.3013
 1605SOL    HW2 6418   2.925   2.161   2.554 -0.8826  0.4875  0.9188
 1605SOL    HW3 6419   2.885   2.015   2.569 -0.3058  0.2912  0.5656
 1605SOL    MW4 6420   2.932   2.084   2.594  0.3001  0.0948 -0.0260
 1606SOL     OW 6421   2.958   2.323   2.459  0.0108 -0.5041 -0.6132
 1606SOL    HW2 6422   3.032   2.342   2.517  0.7936 -0.6862 -1.5298
 1606SOL    HW3 6423   2.884   2.370   2.497  1.1931  1.8203 -1.1171
 1606SOL    MW4 6424   2.958   2.332   2.472  0.2700 -0.2214 -0.8006
 1607SOL     OW 6425   2.714   2.450   2.553 -0.2828  0.2866  0.3903
 1607SOL    HW2 6426   2.728   2.452   2.647 -0.8151 -0.1105  0.4768
 1607SOL    HW3 6427   2.709   2.542   2.527  0.5597  0.4085  0.6447
 1607SOL    MW4 6428   2.715   2.463   2.562 -0.2419  0.2503  0.4353
 1608SOL     OW 6429   2.664   2.731   2.524 -0.0676 -0.1272 -0.1345
 1608SOL    HW2 6430   2.753   2.762   2.539 -0.4284  1.0749 -0.3889
 1608SOL    HW3 6431   2.661   2.710   2.430  0.1165 -0.7317 -0.0052
 1608SOL    MW4 6432   2.675   2.733   2.513 -0.0909 -0.0484 -0.1510
 1609SOL     OW 6433   2.920   2.864   2.592  0.1362  0.4053  0.2054
 1609SOL    HW2 6434   2.928   2.874   2.687 -2.2625 -0.1962  0.5210
 1609SOL    HW3 6435   2.900   2.952   2.560  1.4157  0.6935  0.1969
 1609SOL    MW4 6436   2.918   2.877   2.600 -0.0115  0.3640  0.2459
 1610SOL     OW 6437   2.896   3.112   2.489  0.4826 -0.1405 -0.1079
 1610SOL    HW2 6438   2.813   3.153   2.514  0.5009  0.3515 -0.8233
 1610SOL    HW3 6439   2.882   3.086   2.397  0.5629 -1.5101  0.2623
 1610SOL    MW4 6440   2.883   3.114   2.480  0.4957 -0.2563 -0.1534
 1611SOL     OW 6441   2.671   3.224   2.582  0.0826  0.0016 -0.2723
 1611SOL    HW2 6442   2.663   3.316   2.554 -1.1327 -0.2101 -0.6542
 1611SOL    HW3 6443   2.601   3.179   2.534 -1.7319 -0.4789  2.7396
 1611SOL    MW4 6444   2.661   3.230   2.572 -0.3172 -0.0897  0.0747
 1612SOL     OW 6445   2.678   3.482   2.480 -0.5609  0.1351  0.8840
 1612SOL    HW2 6446   2.608   3.521   2.534 -0.4094  0.5724  0.7661
 1612SOL    HW3 6447   2.644   3.485   2.391 -0.2731  0.6219  0.7869
 1612SOL    MW4 6448   2.664   3.488   2.476 -0.5029  0.2570  0.8556
 1613SOL     OW 6449   2.892   3.638   2.572 -0.0028  0.0844 -0.2624
 1613SOL    HW2 6450   2.885   3.644   2.668 -1.5165 -0.2672 -0.3414
 1613SOL    HW3 6451   2.827   3.572   2.548  0.0623  0.5007 -1.5755
 1613SOL    MW4 6452   2.882   3.630   2.582 -0.1939  0.0930 -0.4461
 1614SOL     OW 6453   2.887   3.900   2.454 -0.2726 -0.2833  0.4173
 1614SOL    HW2 6454   2.945   3.947   2.515 -2.3570  1.0975  1.4086
 1614SOL    HW3 6455   2.877   3.813   2.493  0.6323 -0.3172  0.5802
 1614SOL    MW4 6456   2.893   3.895   2.468 -0.4282 -0.1056  0.5696
 1615SOL     OW 6457   2.680   3.993   2.889 -0.1001 -0.6469  0.1222
 1615SOL    HW2 6458   2.688   4.069   2.947  0.7527 -1.2324  0.7872
 1615SOL    HW3 6459   2.671   4.030   2.801 -0.0238  0.2247  0.4819
 1615SOL    MW4 6460   2.680   4.008   2.885  0.0225 -0.6092  0.2574
 1616SOL     OW 6461   2.664   4.267   2.502 -0.3999 -0.5428  0.3643
 1616SOL    HW2 6462   2.749   4.300   2.532 -0.6676  1.1620 -0.6817
 1616SOL    HW3 6463   2.600   4.324   2.545 -0.9556 -0.8431 -0.0579
 1616SOL    MW4 6464   2.667   4.279   2.512 -0.5085 -0.3574  0.1706
 1617SOL     OW 6465   2.896   4.382   2.601  0.2924  0.4461  0.0058
 1617SOL    HW2 6466   2.894   4.382   2.697  1.7736 -1.0020  0.0602
 1617SOL    HW3 6467   2.923   4.470   2.578  0.2307  0.7148  0.9381
 1617SOL    MW4 6468   2.900   4.393   2.610  0.4797  0.2905  0.1360
 1618SOL     OW 6469   3.327   0.021   2.451 -0.2020  0.2526  0.1707
 1618SOL    HW2 6470   3.322  -0.058   2.505 -0.6452  0.4084  0.3656
 1618SOL    HW3 6471   3.261   0.079   2.489 -1.2678 -0.0474 -1.2159
 1618SOL    MW4 6472   3.318   0.018   2.463 -0.4011  0.2336  0.0134
 1619SOL     OW 6473   3.155   0.160   2.632 -0.1785  0.2664 -0.0237
 1619SOL    HW2 6474   3.139   0.161   2.726 -0.8575 -0.2032 -0.1342
 1619SOL    HW3 6475   3.169   0.252   2.609  0.8086  0.3056  0.6691
 1619SOL    MW4 6476   3.155   0.172   2.641 -0.1379  0.2096  0.0531
 1620SOL     OW 6477   3.192   0.394   2.497  0.0789  0.3489  0.3101
 1620SOL    HW2 6478   3.112   0.433   2.532  0.7579  1.3258  0.7980
 1620SOL    HW3 6479   3.179   0.396   2.402  0.0264  1.6068  0.3388
 1620SOL    MW4 6480   3.180   0.399   2.489  0.1615  0.6437  0.3782
 1621SOL     OW 6481   3.396   0.503   2.627 -0.0682  0.2301  0.8656
 1621SOL    HW2 6482   3.395   0.591   2.589  1.7586 -0.2609 -0.3727
 1621SOL    HW3 6483   3.325   0.457   2.584 -0.5353  0.8736  0.9502
 1621SOL    MW4 6484   3.387   0.508   2.617  0.1112  0.2502  0.7134
 1622SOL     OW 6485   3.365   0.750   2.506  0.4282  0.3230 -0.0675
 1622SOL    HW2 6486   3.434   0.810   2.535  0.0302  1.7443 -1.9817
 1622SOL    HW3 6487   3.389   0.727   2.417 -1.4353  0.6147 -0.6621
 1622SOL    MW4 6488   3.377   0.755   2.498  0.1298  0.5490 -0.3985
 1623SOL     OW 6489   3.134   0.876   2.580  0.4769 -0.1027 -0.2934
 1623SOL    HW2 6490   3.151   0.904   2.670  0.5691  1.6438 -0.8214
 1623SOL    HW3 6491   3.212   0.828   2.554  0.5846 -0.3361  0.4535
 1623SOL    MW4 6492   3.146   0.874   2.588  0.5033  0.0970 -0.2645
 1624SOL     OW 6493   3.145   1.125   2.485 -0.3852 -0.1086  0.3553
 1624SOL    HW2 6494   3.157   1.033   2.509 -0.5262 -0.2476 -0.1133
 1624SOL    HW3 6495   3.159   1.128   2.390  1.3166  0.6336  0.6126
 1624SOL    MW4 6496   3.148   1.113   2.476 -0.1793 -0.0290  0.3274
 1625SOL     OW 6497   3.375   1.288   2.542  0.0753 -0.1304  0.4454
 1625SOL    HW2 6498   3.371   1.291   2.638  0.5979  0.5933  0.4581
 1625SOL    HW3 6499   3.301   1.235   2.516 -1.9626  2.2933  1.1100
 1625SOL    MW4 6500   3.365   1.282   2.551 -0.1246  0.2849  0.5347
 1626SOL     OW 6501   3.400   1.568   2.473 -0.3316 -0.1646  0.7381
 1626SOL    HW2 6502   3.327   1.621   2.504  0.3826 -0.2802  2.6360
 1626SOL    HW3 6503   3.385   1.481   2.511  1.2684  0.0449  1.8638
 1626SOL    MW4 6504   3.388   1.563   2.482 -0.0263 -0.1522  1.1370
 1627SOL     OW 6505   3.174   1.714   2.565  0.1835  0.7376 -0.1633
 1627SOL    HW2 6506   3.159   1.809   2.563 -1.0622  0.5320 -1.7951
 1627SOL    HW3 6507   3.094   1.676   2.527  0.8383 -0.9482  0.0968
 1627SOL    MW4 6508   3.161   1.722   2.560  0.1056  0.4880 -0.3443
 1628SOL     OW 6509   3.163   1.969   2.483 -0.0837 -0.2087  0.2193
 1628SOL    HW2 6510   3.232   2.000   2.543  0.0976  1.4188 -0.7989
 1628SOL    HW3 6511   3.084   2.014   2.513  0.2162  1.4091 -1.3874
 1628SOL    MW4 6512   3.162   1.979   2.495 -0.0202  0.2195 -0.1270
 1629SOL     OW 6513   3.376   2.087   2.604 -0.1107 -0.1464  0.1638
 1629SOL    HW2 6514   3.375   2.102   2.699  1.3593 -0.4288  0.2386
 1629SOL    HW3 6515   3.367   2.174   2.566  1.5511  0.2144  0.5758
 1629SOL    MW4 6516   3.375   2.100   2.611  0.3025 -0.1360  0.2281
 1630SOL     OW 6517   3.378   2.348   2.496 -0.2093  0.7322  0.0736
 1630SOL    HW2 6518   3.461   2.385   2.525 -1.9566  5.4481 -0.4673
 1630SOL    HW3 6519   3.381   2.356   2.400 -1.1176  0.6120  0.0319
 1630SOL    MW4 6520   3.390   2.354   2.487 -0.5597  1.3386 -0.0033
 1631SOL     OW 6521   3.162   2.437   2.637 -0.4052  0.2840  0.2212
 1631SOL    HW2 6522   3.158   2.530   2.615 -0.0370  0.4859  1.0030
 1631SOL    HW3 6523   3.245   2.407   2.599 -0.9181  0.0789 -0.7563
 1631SOL    MW4 6524   3.172   2.445   2.629 -0.4243  0.2836  0.1954
 1632SOL     OW 6525   3.110   2.697   2.487 -0.0061  0.5442 -0.2387
 1632SOL    HW2 6526   3.195   2.733   2.514 -0.0021  0.4141 -0.0743
 1632SOL    HW3 6527   3.045   2.756   2.526  0.0280  1.3324 -1.3686
 1632SOL    MW4 6528   3.113   2.709   2.496 -0.0010  0.6310 -0.3661
 1633SOL     OW 6529   3.333   2.846   2.566  0.1966 -0.1894  0.2591
 1633SOL    HW2 6530   3.346   2.877   2.656 -0.7131  0.2402  0.2502
 1633SOL    HW3 6531   3.420   2.820   2.536  0.5362 -0.1332  1.1926
 1633SOL    MW4 6532   3.346   2.846   2.574  0.1214 -0.1253  0.3811
 1634SOL     OW 6533   3.341   3.114   2.454 -0.3426 -0.0977 -0.0113
 1634SOL    HW2 6534   3.328   3.031   2.499 -0.1260 -0.1637 -0.0676
 1634SOL    HW3 6535   3.350   3.090   2.361 -1.3303  0.0880 -0.1615
 1634SOL    MW4 6536   3.341   3.100   2.447 -0.4444 -0.0819 -0.0385
 1635SOL     OW 6537   3.117   3.232   2.596  0.1230  0.0998 -0.1956
 1635SOL    HW2 6538   3.192   3.191   2.554 -1.5763 -3.0678 -0.2833
 1635SOL    HW3 6539   3.041   3.189   2.557 -1.7216  2.4598  0.6662
 1635SOL    MW4 6540   3.117   3.221   2.585 -0.3446 -0.0067 -0.0934
 1636SOL     OW 6541   3.127   3.503   2.489 -0.2668  0.5342 -0.0867
 1636SOL    HW2 6542   3.120   3.419   2.535  0.2673  0.0596 -0.8660
 1636SOL    HW3 6543   3.063   3.559   2.533  0.2935  0.1166  1.2989
 1636SOL    MW4 6544   3.118   3.499   2.501 -0.1224  0.4165 -0.0067
 1637SOL     OW 6545   3.358   3.657   2.537  0.1441 -0.0590  0.0345
 1637SOL    HW2 6546   3.374   3.659   2.631  0.0236  0.6113  0.0416
 1637SOL    HW3 6547   3.292   3.589   2.525  0.7891 -0.7429  0.3393
 1637SOL    MW4 6548   3.352   3.648   2.548  0.2133 -0.0608  0.0756
 1638SOL     OW 6549   3.317   3.929   2.487 -0.2279 -0.0679  0.1094
 1638SOL    HW2 6550   3.328   3.839   2.517 -0.1471  0.0464  0.4221
 1638SOL    HW3 6551   3.338   3.926   2.394 -1.1120 -0.5510 -0.0834
 1638SOL    MW4 6552   3.321   3.917   2.479 -0.3339 -0.1165  0.1252
 1639SOL     OW 6553   3.079   4.016   2.598  0.1516 -0.2568 -0.1821
 1639SOL    HW2 6554   3.073   4.104   2.560  0.9041 -0.7036 -1.3722
 1639SOL    HW3 6555   3.159   3.979   2.560  1.0737 -0.6470  2.0279
 1639SOL    MW4 6556   3.089   4.023   2.588  0.3725 -0.3673 -0.0475
 1640SOL     OW 6557   3.138   4.293   2.522 -0.1074  1.0894 -0.1417
 1640SOL    HW2 6558   3.052   4.334   2.533 -1.0702 -0.7350 -0.6338
 1640SOL    HW3 6559   3.140   4.265   2.430  1.4864  2.1635 -0.4379
 1640SOL    MW4 6560   3.127   4.294   2.511 -0.0241  0.9904 -0.2457
 1641SOL     OW 6561   3.335   4.452   2.606  0.0540 -0.3810  0.2979
 1641SOL    HW2 6562   3.346   4.446   2.701  0.1299 -1.1301  0.2491
 1641SOL    HW3 6563   3.273   4.382   2.585  1.1754 -1.1860 -0.3871
 1641SOL    MW4 6564   3.328   4.442   2.616  0.2119 -0.5860  0.2011
 1642SOL     OW 6565   3.825   0.019   2.237 -0.0397 -0.6720  0.2261
 1642SOL    HW2 6566   3.842   0.028   2.330  0.7803  1.1077 -0.0835
 1642SOL    HW3 6567   3.886   0.079   2.195 -1.2563 -0.5093 -1.3854
 1642SOL    MW4 6568   3.835   0.028   2.243 -0.0920 -0.4157 -0.0274
 1643SOL     OW 6569   3.577   0.125   2.589  0.5125 -0.1684  0.4078
 1643SOL    HW2 6570   3.568   0.212   2.549  1.9322 -0.3001 -0.2394
 1643SOL    HW3 6571   3.512   0.072   2.544  3.5653 -0.8670 -3.4308
 1643SOL    MW4 6572   3.567   0.130   2.578  1.1026 -0.2779 -0.1840
 1644SOL     OW 6573   3.608   0.399   2.501 -0.2198  0.2068  0.3922
 1644SOL    HW2 6574   3.688   0.447   2.523 -0.9943  0.9300  1.6731
 1644SOL    HW3 6575   3.538   0.450   2.542 -1.2006 -1.2248  0.5052
 1644SOL    MW4 6576   3.610   0.412   2.509 -0.4514  0.1133  0.5761
 1645SOL     OW 6577   3.830   0.545   2.575 -0.4861 -0.1977  0.1445
 1645SOL    HW2 6578   3.841   0.531   2.669 -1.6254  0.4452  0.3825
 1645SOL    HW3 6579   3.895   0.488   2.534 -0.8177 -1.4165  1.2853
 1645SOL    MW4 6580   3.840   0.535   2.582 -0.6801 -0.2737  0.3265
 1646SOL     OW 6581   3.842   0.807   2.493  0.2628  0.0792  0.3718
 1646SOL    HW2 6582   3.763   0.849   2.527 -0.1808 -0.9243  0.5901
 1646SOL    HW3 6583   3.835   0.715   2.520  0.6666 -0.3935 -1.0672
 1646SOL    MW4 6584   3.831   0.800   2.501  0.2575 -0.1156  0.2107
 1647SOL     OW 6585   3.588   0.913   2.572  0.1951 -0.0761  0.4288
 1647SOL    HW2 6586   3.582   0.945   2.662 -3.5429  0.2225  0.1436
 1647SOL    HW3 6587   3.577   0.992   2.518  0.1665 -0.5598 -0.2773
 1647SOL    MW4 6588   3.586   0.928   2.576 -0.3019 -0.1005  0.2980
 1648SOL     OW 6589   3.605   1.156   2.451  0.1683 -0.1192 -0.0052
 1648SOL    HW2 6590   3.681   1.197   2.492 -0.3236 -0.1707  0.9814
 1648SOL    HW3 6591   3.530   1.194   2.497 -0.3322 -1.3275  0.1952
 1648SOL    MW4 6592   3.605   1.166   2.463  0.0373 -0.2854  0.1514
 1649SOL     OW 6593   3.814   1.290   2.577  0.1300 -0.0773 -0.0747
 1649SOL    HW2 6594   3.889   1.248   2.534 -0.0401 -0.0909 -0.3510
 1649SOL    HW3 6595   3.817   1.381   2.549  2.1774  0.8148  2.7168
 1649SOL    MW4 6596   3.825   1.296   2.568  0.3777  0.0386  0.2572
 1650SOL     OW 6597   3.848   1.553   2.495  0.2131  0.0642 -0.1710
 1650SOL    HW2 6598   3.922   1.608   2.521 -0.2383  0.4297  0.3757
 1650SOL    HW3 6599   3.773   1.591   2.542 -0.4408  0.1103 -1.2303
 1650SOL    MW4 6600   3.848   1.565   2.505  0.0672  0.1185 -0.2386
 1651SOL     OW 6601   3.620   1.682   2.604  0.1387  0.1117  0.3075
 1651SOL    HW2 6602   3.635   1.772   2.576  1.4044 -0.3980 -0.7836
 1651SOL    HW3 6603   3.547   1.652   2.551  0.6126  0.0807 -0.3381
 1651SOL    MW4 6604   3.613   1.690   2.593  0.3682  0.0403  0.0784
 1652SOL     OW 6605   3.590   1.927   2.501  0.2266 -0.1191 -0.3369
 1652SOL    HW2 6606   3.517   1.981   2.532  1.0830  1.0912 -0.4077
 1652SOL    HW3 6607   3.573   1.916   2.407 -0.5158 -0.8751 -0.1203
 1652SOL    MW4 6608   3.578   1.933   2.493  0.2416 -0.0592 -0.3177
 1653SOL     OW 6609   3.799   2.103   2.542  0.4379 -0.3237  0.0385
 1653SOL    HW2 6610   3.873   2.048   2.516  0.7387 -0.5402  1.2998
 1653SOL    HW3 6611   3.722   2.046   2.532  0.5180 -0.3303 -0.5645
 1653SOL    MW4 6612   3.798   2.088   2.537  0.4882 -0.3531  0.1253
 1654SOL     OW 6613   3.802   2.361   2.451  0.0887  0.4856  0.2663
 1654SOL    HW2 6614   3.795   2.274   2.488  0.1923  0.8533  1.1514
 1654SOL    HW3 6615   3.831   2.346   2.360 -0.5842 -0.4192  0.2017
 1654SOL    MW4 6616   3.805   2.348   2.444  0.0136  0.4148  0.3746
 1655SOL     OW 6617   3.609   2.508   2.585 -0.5512  0.0094 -0.1127
 1655SOL    HW2 6618   3.620   2.497   2.679 -0.5821 -2.7206 -0.3778
 1655SOL    HW3 6619   3.677   2.453   2.546 -0.0592  1.6859 -1.6909
 1655SOL    MW4 6620   3.619   2.499   2.592 -0.4903 -0.1296 -0.3559
 1656SOL     OW 6621   3.556   2.738   2.453 -0.1759 -0.5666  0.2093
 1656SOL    HW2 6622   3.583   2.665   2.509 -0.0182 -0.7278 -0.0782
 1656SOL    HW3 6623   3.581   2.711   2.365  0.7617  0.2392  0.2121
 1656SOL    MW4 6624   3.563   2.724   2.449 -0.0314 -0.4815  0.1717
 1657SOL     OW 6625   3.787   2.861   2.543  0.1663  0.5971 -0.3913
 1657SOL    HW2 6626   3.856   2.802   2.514 -0.2642 -0.6741  1.0770
 1657SOL    HW3 6627   3.706   2.818   2.516 -0.2217 -0.4082  2.2452
 1657SOL    MW4 6628   3.786   2.848   2.536  0.0583  0.2967  0.1503
 1658SOL     OW 6629   3.773   3.143   2.460  0.0475 -0.0358  0.6669
 1658SOL    HW2 6630   3.686   3.181   2.474 -1.0005 -1.6913 -1.1460
 1658SOL    HW3 6631   3.765   3.052   2.488 -0.2165 -1.5598 -3.9010
 1658SOL    MW4 6632   3.761   3.136   2.465 -0.1256 -0.4553 -0.1750
 1659SOL     OW 6633   3.541   3.279   2.553 -0.2115  0.0270  0.0498
 1659SOL    HW2 6634   3.545   3.352   2.492 -0.9473  0.7110  0.8114
 1659SOL    HW3 6635   3.460   3.233   2.529 -0.1294 -0.1155  0.0469
 1659SOL    MW4 6636   3.531   3.282   2.542 -0.2977  0.0985  0.1499
 1660SOL     OW 6637   3.569   3.502   2.420 -0.5355  0.1713 -0.4855
 1660SOL    HW2 6638   3.644   3.537   2.468 -0.6476 -1.0296  0.5944
 1660SOL    HW3 6639   3.494   3.549   2.456 -0.3046  1.4826 -1.6730
 1660SOL    MW4 6640   3.569   3.512   2.431 -0.5198  0.1859 -0.4997
 1661SOL     OW 6641   3.811   3.620   2.545 -0.2049 -0.1752 -0.5926
 1661SOL    HW2 6642   3.895   3.592   2.510  0.1738 -1.2697  1.1586
 1661SOL    HW3 6643   3.809   3.715   2.529  0.9263 -0.2996 -1.5046
 1661SOL    MW4 6644   3.822   3.629   2.538 -0.0057 -0.3360 -0.4819
 1662SOL     OW 6645   3.750   3.888   2.490 -0.3296  0.5544 -0.3203
 1662SOL    HW2 6646   3.834   3.932   2.506  0.3055 -0.9153  0.5056
 1662SOL    HW3 6647   3.684   3.949   2.524  0.5605  0.6898  1.2162
 1662SOL    MW4 6648   3.753   3.902   2.496 -0.1283  0.3783 -0.0086
 1663SOL     OW 6649   3.582   4.364   2.487 -0.1344 -0.2552 -0.4161
 1663SOL    HW2 6650   3.558   4.358   2.395  1.5282 -1.6577 -0.7903
 1663SOL    HW3 6651   3.501   4.389   2.532 -1.0080  0.2047 -2.2210
 1663SOL    MW4 6652   3.568   4.366   2.481 -0.0303 -0.3796 -0.7036
 1664SOL     OW 6653   3.842   4.421   2.598 -0.1877 -0.0425 -0.0778
 1664SOL    HW2 6654   3.763   4.384   2.558 -0.5005  1.1868 -0.6328
 1664SOL    HW3 6655   3.914   4.371   2.561 -0.4832  0.9708 -2.1158
 1664SOL    MW4 6656   3.841   4.410   2.588 -0.2679  0.2534 -0.4199
 1665SOL     OW 6657   3.813   0.011   2.514  0.0803 -0.0485  0.0599
 1665SOL    HW2 6658   3.824  -0.074   2.554  1.3320  0.7735  1.5147
 1665SOL    HW3 6659   3.728   0.043   2.545 -0.4201 -0.7768 -0.5467
 1665SOL    MW4 6660   3.803   0.004   2.523  0.1794 -0.0362  0.1718
 1666SOL     OW 6661   4.237   0.020   2.464 -0.2100  0.4199  0.1351
 1666SOL    HW2 6662   4.164   0.070   2.501  0.6013  1.0355  0.9309
 1666SOL    HW3 6663   4.315   0.060   2.502  0.5964  0.4277 -1.5063
 1666SOL    MW4 6664   4.238   0.032   2.474  0.0035  0.5022  0.0235
 1667SOL     OW 6665   4.043   0.167   2.591  0.0078  0.3390 -0.0748
 1667SOL    HW2 6666   3.974   0.104   2.569  0.0097  0.2257  0.2419
 1667SOL    HW3 6667   4.050   0.163   2.687  0.7793  0.0013 -0.1351
 1667SOL    MW4 6668   4.035   0.158   2.601  0.1099  0.2795 -0.0410
 1668SOL     OW 6669   4.057   0.414   2.483  0.4758  0.2845  0.4304
 1668SOL    HW2 6670   4.053   0.332   2.531  1.3024  0.5240  0.9175
 1668SOL    HW3 6671   4.068   0.388   2.391  0.3314 -0.1526  0.5391
 1668SOL    MW4 6672   4.058   0.400   2.477  0.5658  0.2584  0.5090
 1669SOL     OW 6673   4.292   0.505   2.593  0.6349 -0.0403 -0.0182
 1669SOL    HW2 6674   4.208   0.475   2.558  1.2992 -0.2408 -1.5044
 1669SOL    HW3 6675   4.355   0.439   2.563  1.5938  1.0588 -0.4929
 1669SOL    MW4 6676   4.289   0.492   2.584  0.8491  0.0783 -0.2769
 1670SOL     OW 6677   4.273   0.776   2.448  0.0387 -0.0905 -0.1342
 1670SOL    HW2 6678   4.293   0.693   2.490  0.9932 -0.3448 -1.0787
 1670SOL    HW3 6679   4.279   0.759   2.354 -0.6577  0.8199 -0.3581
 1670SOL    MW4 6680   4.276   0.763   2.441  0.0727 -0.0039 -0.2884
 1671SOL     OW 6681   4.072   0.914   2.600 -0.0935  0.2899 -0.2327
 1671SOL    HW2 6682   4.137   0.852   2.568  1.1507  1.9245 -0.9805
 1671SOL    HW3 6683   3.989   0.885   2.561  0.0519 -2.1499  1.2097
 1671SOL    MW4 6684   4.070   0.902   2.590  0.0899  0.1837 -0.1410
 1672SOL     OW 6685   4.029   1.157   2.459  0.0538  0.3782  0.3190
 1672SOL    HW2 6686   4.110   1.206   2.473 -0.2468  0.9710 -0.0192
 1672SOL    HW3 6687   4.043   1.074   2.505  0.2445  1.1076  1.5827
 1672SOL    MW4 6688   4.042   1.153   2.467  0.0393  0.5527  0.4411
 1673SOL     OW 6689   4.251   1.292   2.510 -0.0338  0.5756 -0.0986
 1673SOL    HW2 6690   4.280   1.383   2.499  0.6494  0.7640  2.8986
 1673SOL    HW3 6691   4.329   1.240   2.490  0.6773  0.8416  1.8347
 1673SOL    MW4 6692   4.265   1.297   2.506  0.1502  0.6355  0.5519
 1674SOL     OW 6693   4.286   1.556   2.473  0.1458 -0.2539 -0.2663
 1674SOL    HW2 6694   4.367   1.597   2.504  0.2151 -1.3679  1.0875
 1674SOL    HW3 6695   4.289   1.565   2.378  1.3546  0.6401 -0.1570
 1674SOL    MW4 6696   4.297   1.563   2.465  0.3144 -0.2829 -0.0732
 1675SOL     OW 6697   4.072   1.708   2.549  0.2373 -0.5641  0.0704
 1675SOL    HW2 6698   4.080   1.729   2.642 -2.9684 -3.0174  1.0178
 1675SOL    HW3 6699   4.138   1.640   2.535  0.9297  0.0186  0.5064
 1675SOL    MW4 6700   4.082   1.702   2.560 -0.0943 -0.8109  0.2529
 1676SOL     OW 6701   4.019   1.976   2.433  0.2330 -0.2399  0.0501
 1676SOL    HW2 6702   4.095   2.013   2.479  1.4985 -2.8742  0.2300
 1676SOL    HW3 6703   4.024   1.882   2.453 -2.0803 -0.6973 -1.4036
 1676SOL    MW4 6704   4.030   1.968   2.442  0.0947 -0.6478 -0.1180
 1677SOL     OW 6705   4.240   2.093   2.555  0.0701 -0.2130 -0.3326
 1677SOL    HW2 6706   4.231   2.175   2.506  0.9736 -0.8036 -1.5226
 1677SOL    HW3 6707   4.319   2.052   2.518 -0.6140 -1.8165 -0.0528
 1677SOL    MW4 6708   4.249   2.098   2.543  0.0991 -0.5025 -0.4527
 1678SOL     OW 6709   4.260   2.322   2.419 -0.7182  0.2382  0.3425
 1678SOL    HW2 6710   4.182   2.372   2.441 -0.3376  1.1576 -0.3786
 1678SOL    HW3 6711   4.258   2.315   2.323  0.4217  0.8353  0.2635
 1678SOL    MW4 6712   4.249   2.327   2.409 -0.5176  0.4383  0.2370
 1679SOL     OW 6713   4.046   2.453   2.538 -0.1201 -0.5883 -0.1625
 1679SOL    HW2 6714   4.053   2.435   2.632  0.1564 -0.3577 -0.1364
 1679SOL    HW3 6715   3.956   2.431   2.516 -0.9767  1.8463  0.7081
 1679SOL    MW4 6716   4.035   2.448   2.548 -0.1966 -0.2366 -0.0442
 1680SOL     OW 6717   4.002   2.696   2.440 -0.2347 -0.6159  0.1878
 1680SOL    HW2 6718   4.073   2.755   2.467 -2.7918  1.6342  2.2550
 1680SOL    HW3 6719   4.025   2.612   2.478  1.5765 -0.0776  0.3650
 1680SOL    MW4 6720   4.015   2.693   2.448 -0.3331 -0.2480  0.4839
 1681SOL     OW 6721   4.223   2.847   2.574  0.3168 -0.5027  0.0578
 1681SOL    HW2 6722   4.226   2.841   2.670  0.7384 -1.0655  0.0101
 1681SOL    HW3 6723   4.235   2.940   2.555 -0.7250 -0.2527  0.5935
 1681SOL    MW4 6724   4.225   2.858   2.584  0.2350 -0.5440  0.1222
 1682SOL     OW 6725   4.265   3.100   2.491 -0.1065 -0.1815 -0.1459
 1682SOL    HW2 6726   4.195   3.160   2.516 -0.1405 -0.7539  1.1670
 1682SOL    HW3 6727   4.261   3.096   2.395 -1.3047  0.4532 -0.1225
 1682SOL    MW4 6728   4.255   3.107   2.481 -0.2690 -0.1733  0.0304
 1683SOL     OW 6729   4.046   3.252   2.538 -0.1864 -0.0342 -0.1855
 1683SOL    HW2 6730   4.041   3.345   2.516  0.4013  0.3799  1.3891
 1683SOL    HW3 6731   3.957   3.220   2.521 -0.9251  1.2431  1.0717
 1683SOL    MW4 6732   4.033   3.260   2.533 -0.2063  0.1889  0.1881
 1684SOL     OW 6733   4.042   3.533   2.474  0.1965 -0.1450  0.0674
 1684SOL    HW2 6734   4.120   3.582   2.498  1.5366 -2.2434  0.1112
 1684SOL    HW3 6735   4.060   3.501   2.385  0.1274 -2.0634  0.7263
 1684SOL    MW4 6736   4.054   3.535   2.465  0.3642 -0.6750  0.1601
 1685SOL     OW 6737   4.268   3.650   2.595 -0.0975  0.1630  0.0711
 1685SOL    HW2 6738   4.286   3.649   2.689 -2.0391 -0.4694  0.4480
 1685SOL    HW3 6739   4.342   3.604   2.556  1.9563  2.4845  1.0386
 1685SOL    MW4 6740   4.280   3.644   2.602 -0.0827  0.3859  0.2484
 1686SOL     OW 6741   4.235   3.888   2.433 -0.3184  0.8508  0.0771
 1686SOL    HW2 6742   4.237   3.818   2.499 -0.3379  0.6417 -0.1426
 1686SOL    HW3 6743   4.310   3.943   2.454  0.6628 -0.1463 -0.7312
 1686SOL    MW4 6744   4.245   3.886   2.444 -0.1915  0.6916 -0.0585
 1687SOL     OW 6745   4.000   4.029   2.502 -0.8925 -0.4483 -0.1523
 1687SOL    HW2 6746   4.036   4.027   2.591  0.7659  2.1397 -0.7021
 1687SOL    HW3 6747   4.060   3.973   2.452 -1.5289 -1.4922  0.2322
 1687SOL    MW4 6748   4.013   4.021   2.507 -0.7577 -0.2446 -0.1741
 1688SOL     OW 6749   4.041   4.305   2.446  0.0470  0.2175 -0.1139
 1688SOL    HW2 6750   4.025   4.213   2.465  1.0005 -0.0050 -0.3553
 1688SOL    HW3 6751   4.028   4.314   2.352 -0.3836  0.4004 -0.0366
 1688SOL    MW4 6752   4.037   4.294   2.436  0.1160  0.2123 -0.1355
 1689SOL     OW 6753   4.289   4.420   2.553  0.1562 -0.5622  0.4450
 1689SOL    HW2 6754   4.220   4.374   2.506 -1.0174  0.3912  1.2042
 1689SOL    HW3 6755   4.274   4.513   2.534  0.7698 -0.2930  1.2358
 1689SOL    MW4 6756   4.278   4.426   2.544  0.0823 -0.4009  0.6495
 1690SOL     OW 6757   0.255   0.018   2.928  0.0773  0.3305  0.1430
 1690SOL    HW2 6758   0.172   0.061   2.909 -1.3946 -2.2370  0.6240
 1690SOL    HW3 6759   0.251  -0.003   3.021  1.7406  1.1429  0.4236
 1690SOL    MW4 6760   0.244   0.021   2.938  0.1026  0.0989  0.2435
 1691SOL     OW 6761   4.266   0.013   2.959  0.2933  0.0924 -0.1222
 1691SOL    HW2 6762   4.247   0.010   3.053  0.6899  0.4066 -0.0309
 1691SOL    HW3 6763   4.256  -0.077   2.929 -0.9060  0.1668  0.0115
 1691SOL    MW4 6764   4.262   0.001   2.968  0.1874  0.1437 -0.0925
 1692SOL     OW 6765   4.484   0.131   2.855 -0.0386 -0.0238 -0.4204
 1692SOL    HW2 6766   4.406   0.098   2.899  0.8174 -0.5521  0.7536
 1692SOL    HW3 6767   4.501   0.216   2.896  0.0197  0.0759 -0.6490
 1692SOL    MW4 6768   4.476   0.138   2.866  0.0820 -0.0804 -0.2957
 1693SOL     OW 6769   0.242   0.527   2.823  0.0739 -0.0588 -0.1231
 1693SOL    HW2 6770   0.316   0.488   2.869  0.5955  1.8068  0.6475
 1693SOL    HW3 6771   0.167   0.472   2.847  0.6550 -0.1331  1.5815
 1693SOL    MW4 6772   0.242   0.515   2.833  0.2194  0.1775  0.2034
 1694SOL     OW 6773   0.226   0.801   2.949 -0.4456  0.3656 -0.1056
 1694SOL    HW2 6774   0.229   0.795   3.044  0.8237 -0.0076 -0.1621
 1694SOL    HW3 6775   0.214   0.711   2.919 -1.5182  0.5554 -0.2933
 1694SOL    MW4 6776   0.225   0.789   2.957 -0.4197  0.3414 -0.1378
 1695SOL     OW 6777   4.483   0.925   2.839  0.0383  0.2278 -0.5236
 1695SOL    HW2 6778   4.562   0.894   2.882 -0.2510  1.5255  0.9830
 1695SOL    HW3 6779   4.507   0.932   2.746  1.2814 -0.6314 -0.2656
 1695SOL    MW4 6780   4.496   0.922   2.832  0.1642  0.2857 -0.2908
 1696SOL     OW 6781   4.462   1.183   2.932  0.3732 -0.1009 -0.3183
 1696SOL    HW2 6782   4.395   1.223   2.876  1.3222 -0.6328 -1.8753
 1696SOL    HW3 6783   4.478   1.097   2.893  2.8359  0.5029 -0.7257
 1696SOL    MW4 6784   4.455   1.177   2.919  0.8233 -0.0914 -0.5774
 1697SOL     OW 6785   0.204   1.279   2.849 -0.0349 -0.4467  0.1168
 1697SOL    HW2 6786   0.116   1.244   2.864  0.2262 -0.5174  1.5414
 1697SOL    HW3 6787   0.217   1.270   2.755 -0.8282 -2.1810  0.1476
 1697SOL    MW4 6788   0.194   1.273   2.839 -0.1051 -0.6849  0.3088
 1698SOL     OW 6789   0.228   1.536   2.957 -0.4427 -0.2430  0.1333
 1698SOL    HW2 6790   0.156   1.589   2.923  0.7646  1.2143 -0.1836
 1698SOL    HW3 6791   0.213   1.448   2.921 -1.2120  0.4091 -1.1445
 1698SOL    MW4 6792   0.217   1.531   2.948 -0.3849  0.0353 -0.0771
 1699SOL     OW 6793   0.008   1.658   2.835 -0.2794 -0.1417  0.0758
 1699SOL    HW2 6794  -0.082   1.627   2.836 -0.4119  0.2431  0.3286
 1699SOL    HW3 6795   0.003   1.748   2.868 -0.0511  0.5410 -1.6650
 1699SOL    MW4 6796  -0.005   1.666   2.840 -0.2668 -0.0009 -0.1205
 1700SOL     OW 6797   4.484   1.920   2.952 -0.1456  0.4189 -0.0632
 1700SOL    HW2 6798   4.406   1.964   2.918  0.1723 -0.3700 -1.8618
 1700SOL    HW3 6799   4.557   1.964   2.909  0.4379  1.3350  1.8226
 1700SOL    MW4 6800   4.484   1.931   2.942 -0.0266  0.4357 -0.0517
 1701SOL     OW 6801   0.207   2.025   2.846  0.2731 -0.4214  0.2794
 1701SOL    HW2 6802   0.211   2.119   2.866  0.0326 -0.3800  0.1319
 1701SOL    HW3 6803   0.191   2.022   2.751 -2.0751 -0.5955  0.6588
 1701SOL    MW4 6804   0.205   2.037   2.836 -0.0685 -0.4389  0.3100
 1702SOL     OW 6805   0.207   2.291   2.887 -0.2772 -0.6190  0.1758
 1702SOL    HW2 6806   0.192   2.283   2.981 -1.7378  0.1337  0.0186
 1702SOL    HW3 6807   0.287   2.343   2.880 -0.4022 -0.3093  1.0083
 1702SOL    MW4 6808   0.216   2.297   2.898 -0.4864 -0.4788  0.2649
 1703SOL     OW 6809   0.013   2.429   2.750 -0.3413 -0.5520 -0.9526
 1703SOL    HW2 6810  -0.001   2.502   2.810  1.2884 -1.1973  0.2630
 1703SOL    HW3 6811   0.092   2.386   2.782 -0.3741 -1.9199 -2.5853
 1703SOL    MW4 6812   0.022   2.433   2.762 -0.1306 -0.8176 -1.0076
 1704SOL     OW 6813   4.454   2.672   2.873  0.3384 -0.2567 -0.5827
 1704SOL    HW2 6814   4.458   2.692   2.967  0.8667  0.0824 -0.6744
 1704SOL    HW3 6815   4.529   2.718   2.835 -0.2154  0.0851 -1.2677
 1704SOL    MW4 6816   4.465   2.680   2.880  0.3350 -0.1668 -0.6852
 1705SOL     OW 6817   0.163   2.853   2.831  0.0715  0.9892  0.1215
 1705SOL    HW2 6818   0.245   2.809   2.854 -0.1710  0.3208 -0.2858
 1705SOL    HW3 6819   0.176   2.883   2.741 -0.1229  0.8986  0.0631
 1705SOL    MW4 6820   0.175   2.851   2.822  0.0139  0.8891  0.0601
 1706SOL     OW 6821   0.200   3.103   2.941  0.4279 -0.2163 -0.3494
 1706SOL    HW2 6822   0.132   3.164   2.912  0.1722 -0.4135 -0.1553
 1706SOL    HW3 6823   0.173   3.018   2.906  0.1074 -0.4595  0.4934
 1706SOL    MW4 6824   0.187   3.100   2.932  0.3519 -0.2744 -0.2126
 1707SOL     OW 6825   4.473   3.283   2.841 -0.0494 -0.0981 -0.2170
 1707SOL    HW2 6826   4.415   3.210   2.864 -0.2951 -0.4558 -1.9219
 1707SOL    HW3 6827   4.484   3.276   2.746  1.5703  0.8762 -0.1121
 1707SOL    MW4 6828   4.466   3.273   2.832  0.1319 -0.0168 -0.4281
 1708SOL     OW 6829   0.074   3.515   2.969 -0.3331  0.2943 -0.1084
 1708SOL    HW2 6830  -0.008   3.554   2.940 -0.9596 -0.4076  0.6693
 1708SOL    HW3 6831   0.066   3.422   2.946 -0.2902 -0.0167  1.0821
 1708SOL    MW4 6832   0.062   3.508   2.962 -0.4101  0.1607  0.1513
 1709SOL     OW 6833   0.263   3.672   2.850 -0.1865 -0.1858 -0.2903
 1709SOL    HW2 6834   0.237   3.761   2.875  0.0349  0.2369 -1.5457
 1709SOL    HW3 6835   0.195   3.616   2.889 -0.3142  0.5233  0.5243
 1709SOL    MW4 6836   0.251   3.677   2.859 -0.1741 -0.0365 -0.3485
 1710SOL     OW 6837   0.212   3.920   2.927  0.1795  0.0005 -0.1535
 1710SOL    HW2 6838   0.181   3.929   3.017 -0.9693  1.3080 -0.6533
 1710SOL    HW3 6839   0.289   3.976   2.922  0.5038 -0.4167  0.1277
 1710SOL    MW4 6840   0.218   3.929   2.938  0.0707  0.1180 -0.1823
 1711SOL     OW 6841   4.472   4.076   2.798  0.0299 -0.0707  0.3702
 1711SOL    HW2 6842   4.554   4.035   2.825 -0.6997 -1.9653 -0.1908
 1711SOL    HW3 6843   4.461   4.050   2.707 -0.8918  0.6665  0.2646
 1711SOL    MW4 6844   4.481   4.067   2.790 -0.1880 -0.2234  0.2822
 1712SOL     OW 6845   0.020   4.325   2.911 -0.1832 -0.3776  0.0657
 1712SOL    HW2 6846   0.010   4.304   3.004 -0.2441  0.1473  0.1786
 1712SOL    HW3 6847  -0.004   4.244   2.865 -1.9691 -0.0707  0.4352
 1712SOL    MW4 6848   0.016   4.311   2.917 -0.4269 -0.2678  0.1293
 1713SOL     OW 6849   0.292   4.418   2.866 -0.3275 -0.4989  0.2793
 1713SOL    HW2 6850   0.208   4.374   2.878 -0.2651 -0.9123 -0.6931
 1713SOL    HW3 6851   0.277   4.508   2.893 -1.2411 -0.4370 -0.4338
 1713SOL    MW4 6852   0.279   4.424   2.871 -0.4398 -0.5453  0.0569
 1714SOL     OW 6853   0.717   0.026   2.979  0.5345  0.5657  0.1855
 1714SOL    HW2 6854   0.707  -0.064   2.949  1.3788  0.3329  0.5903
 1714SOL    HW3 6855   0.653   0.076   2.927 -0.0278 -0.2780  0.0514
 1714SOL    MW4 6856   0.707   0.021   2.968  0.5717  0.4237  0.2212
 1715SOL     OW 6857   0.509   0.125   2.829 -0.2668 -0.0274 -0.1872
 1715SOL    HW2 6858   0.496   0.210   2.871 -0.0925  0.1377 -0.4664
 1715SOL    HW3 6859   0.446   0.067   2.871 -0.9859  0.4475 -0.6110
 1715SOL    MW4 6860   0.499   0.128   2.840 -0.3387  0.0570 -0.2800
 1716SOL     OW 6861   0.748   4.398   3.670 -0.2435 -0.1822 -0.2459
 1716SOL    HW2 6862   0.753   4.306   3.696 -1.4266  0.0748  0.9484
 1716SOL    HW3 6863   0.831   4.435   3.698 -0.4970 -0.4848  0.9395
 1716SOL    MW4 6864   0.759   4.391   3.677 -0.4331 -0.1882  0.0681
 1717SOL     OW 6865   0.883   0.865   2.834  0.0986  0.5929  0.0497
 1717SOL    HW2 6866   0.900   0.953   2.868 -0.6359  1.0980 -0.8661
 1717SOL    HW3 6867   0.809   0.833   2.886  0.4304  0.4708  0.4508
 1717SOL    MW4 6868   0.876   0.872   2.845  0.0454  0.6434 -0.0182
 1718SOL     OW 6869   0.662   0.766   2.973 -0.1694 -0.3907  0.3272
 1718SOL    HW2 6870   0.582   0.813   2.949  0.2423  0.4212  0.5307
 1718SOL    HW3 6871   0.655   0.752   3.067  0.7335  1.2265  0.6432
 1718SOL    MW4 6872   0.651   0.770   2.982  0.0041 -0.0702  0.3957
 1719SOL     OW 6873   0.465   0.918   2.861 -0.2165  0.0212  0.0938
 1719SOL    HW2 6874   0.378   0.885   2.883  0.0197 -1.4216 -1.0188
 1719SOL    HW3 6875   0.467   0.919   2.765  0.9445  0.1589  0.1108
 1719SOL    MW4 6876   0.454   0.913   2.851 -0.0321 -0.1510 -0.0507
 1720SOL     OW 6877   0.436   1.162   2.993  0.2781 -0.2249  0.5728
 1720SOL    HW2 6878   0.442   1.080   2.945  1.6292  0.9307 -1.3174
 1720SOL    HW3 6879   0.360   1.206   2.957  1.4668  0.7766 -0.7696
 1720SOL    MW4 6880   0.427   1.157   2.982  0.6132  0.0597  0.1463
 1721SOL     OW 6881   0.646   1.267   2.833  0.2054 -0.3922 -0.0002
 1721SOL    HW2 6882   0.725   1.221   2.861 -0.1027  0.9988  3.4273
 1721SOL    HW3 6883   0.580   1.243   2.899 -1.2914  1.1459 -0.8947
 1721SOL    MW4 6884   0.647   1.258   2.846 -0.0327 -0.0057  0.3340
 1722SOL     OW 6885   0.667   1.539   2.917  0.0967  0.1202 -0.0247
 1722SOL    HW2 6886   0.676   1.526   3.011 -0.6694 -0.2285  0.0087
 1722SOL    HW3 6887   0.665   1.450   2.881 -0.1274  0.2415 -0.3164
 1722SOL    MW4 6888   0.668   1.525   2.925 -0.0340  0.0902 -0.0588
 1723SOL     OW 6889   0.447   1.666   2.806  0.0655  0.2850 -0.0331
 1723SOL    HW2 6890   0.522   1.632   2.854  0.3314 -0.5322 -1.0133
 1723SOL    HW3 6891   0.373   1.615   2.838  0.3808 -0.8877 -1.1157
 1723SOL    MW4 6892   0.447   1.655   2.816  0.1422  0.0225 -0.3053
 1724SOL     OW 6893   0.445   1.915   2.885  0.1968  0.5488  0.0279
 1724SOL    HW2 6894   0.440   1.823   2.860  0.0476  1.1407 -2.1880
 1724SOL    HW3 6895   0.365   1.954   2.848  0.2501  1.5787  0.9632
 1724SOL    MW4 6896   0.434   1.908   2.877  0.1841  0.7628 -0.1410
 1725SOL     OW 6897   0.675   2.057   2.842 -0.2015  0.1745 -0.3745
 1725SOL    HW2 6898   0.594   2.019   2.875  1.0092 -0.9412  1.4059
 1725SOL    HW3 6899   0.744   1.997   2.871  1.3602  1.5870 -1.0392
 1725SOL    MW4 6900   0.674   2.044   2.850  0.1643  0.2137 -0.2273
 1726SOL     OW 6901   0.662   2.323   2.939 -0.0301  0.3750 -0.4332
 1726SOL    HW2 6902   0.669   2.321   3.034 -0.9361  0.1214 -0.3649
 1726SOL    HW3 6903   0.680   2.233   2.912 -0.9299  0.1869 -0.4114
 1726SOL    MW4 6904   0.665   2.311   2.948 -0.2684  0.3167 -0.4213
 1727SOL     OW 6905   0.435   2.450   2.876 -0.4786 -0.0553  0.2925
 1727SOL    HW2 6906   0.524   2.437   2.910 -0.1423  2.5855  0.5616
 1727SOL    HW3 6907   0.446   2.451   2.781  0.4858  4.2776  0.3676
 1727SOL    MW4 6908   0.448   2.448   2.868 -0.3070  0.8648  0.3379
 1728SOL     OW 6909   0.666   2.810   2.837 -0.2169 -0.1753 -0.1789
 1728SOL    HW2 6910   0.679   2.896   2.878  1.1870 -0.0828 -0.7958
 1728SOL    HW3 6911   0.752   2.770   2.836 -0.4810 -0.7536 -1.7509
 1728SOL    MW4 6912   0.679   2.816   2.842 -0.0665 -0.2394 -0.4677
 1729SOL     OW 6913   0.922   2.710   2.899 -0.0543  0.3959  0.1566
 1729SOL    HW2 6914   0.938   2.616   2.887 -0.8864  0.4283 -1.3242
 1729SOL    HW3 6915   0.888   2.716   2.989 -0.0175 -0.7249  0.2612
 1729SOL    MW4 6916   0.919   2.698   2.909 -0.1592  0.2523 -0.0250
 1730SOL     OW 6917   0.666   3.072   2.933 -0.1484 -0.0670 -0.3004
 1730SOL    HW2 6918   0.675   3.092   3.026 -0.9262  1.1058 -0.4708
 1730SOL    HW3 6919   0.577   3.099   2.911  0.2702  0.3375 -1.5478
 1730SOL    MW4 6920   0.655   3.078   2.942 -0.1958  0.1411 -0.4874
 1731SOL     OW 6921   0.429   3.232   2.841  0.0597 -0.1815 -0.5073
 1731SOL    HW2 6922   0.421   3.320   2.879  0.8298 -0.0381 -0.6780
 1731SOL    HW3 6923   0.370   3.178   2.894 -0.6179  0.4887 -0.5666
 1731SOL    MW4 6924   0.420   3.237   2.853  0.0719 -0.0742 -0.5377
 1732SOL     OW 6925   0.481   3.502   2.915  0.0226 -0.2783 -0.4804
 1732SOL    HW2 6926   0.489   3.505   3.010  0.7288 -0.9397 -0.5163
 1732SOL    HW3 6927   0.412   3.565   2.894  0.8611  0.9376  0.3552
 1732SOL    MW4 6928   0.473   3.511   2.924  0.2264 -0.2052 -0.3749
 1733SOL     OW 6929   0.698   3.674   2.817 -0.3372 -0.2111 -0.0191
 1733SOL    HW2 6930   0.774   3.630   2.855 -0.5723  0.0989  0.8249
 1733SOL    HW3 6931   0.623   3.624   2.850 -0.4729 -0.9323 -1.3949
 1733SOL    MW4 6932   0.698   3.661   2.827 -0.3861 -0.2653 -0.0893
 1734SOL     OW 6933   0.676   3.907   2.963  0.3024 -0.1716 -0.1098
 1734SOL    HW2 6934   0.698   3.888   3.054 -4.5088 -2.3848  0.7640
 1734SOL    HW3 6935   0.674   3.821   2.921 -0.8864  0.5045 -1.4511
 1734SOL    MW4 6936   0.679   3.893   2.970 -0.4892 -0.3744 -0.1714
 1735SOL     OW 6937   0.454   4.047   2.870  0.1848 -0.2047 -0.0855
 1735SOL    HW2 6938   0.532   4.006   2.907  1.0977  0.4767 -1.1942
 1735SOL    HW3 6939   0.460   4.028   2.776 -0.0742  1.2935 -0.4244
 1735SOL    MW4 6940   0.465   4.039   2.862  0.2711  0.0828 -0.2765
 1736SOL     OW 6941   0.488   4.305   3.004 -0.1930 -0.3370  0.1002
 1736SOL    HW2 6942   0.487   4.227   2.949 -0.0907  0.3128 -0.8508
 1736SOL    HW3 6943   0.422   4.362   2.965  0.3610  0.4063  0.2306
 1736SOL    MW4 6944   0.479   4.302   2.992 -0.1064 -0.1532 -0.0080
 1737SOL     OW 6945   0.692   4.434   2.887 -0.4512  0.3471  0.0061
 1737SOL    HW2 6946   0.615   4.392   2.924 -0.9997  1.2410 -0.1173
 1737SOL    HW3 6947   0.677   4.434   2.792 -0.3321  0.5917 -0.0134
 1737SOL    MW4 6948   0.680   4.428   2.879 -0.5078  0.4973 -0.0127
 1738SOL     OW 6949   1.098   0.003   2.994  0.5006  0.1328 -0.6009
 1738SOL    HW2 6950   1.177   0.045   2.961  0.7530  0.7637  0.7529
 1738SOL    HW3 6951   1.029   0.031   2.935  1.4042 -0.9898 -2.2161
 1738SOL    MW4 6952   1.099   0.012   2.982  0.6531  0.0680 -0.6354
 1739SOL     OW 6953   0.922   0.104   2.807  0.4731 -0.1852 -0.0926
 1739SOL    HW2 6954   0.919   0.194   2.839 -0.3474 -0.1884 -0.1470
 1739SOL    HW3 6955   0.843   0.064   2.842 -0.1522 -0.3507 -1.6481
 1739SOL    MW4 6956   0.911   0.111   2.816  0.2824 -0.2075 -0.3050
 1740SOL     OW 6957   0.905   0.340   2.976 -0.4115  0.2330  0.3369
 1740SOL    HW2 6958   0.903   0.343   3.072  0.4206 -0.6372  0.3954
 1740SOL    HW3 6959   0.982   0.391   2.952  0.3791 -0.9832  0.2294
 1740SOL    MW4 6960   0.915   0.347   2.986 -0.1974 -0.0423  0.3305
 1741SOL     OW 6961   1.132   0.467   2.875  0.6728  0.3830 -0.0479
 1741SOL    HW2 6962   1.217   0.430   2.897  1.2482  1.2073 -0.8756
 1741SOL    HW3 6963   1.132   0.475   2.780 -0.4104  0.1922 -0.0702
 1741SOL    MW4 6964   1.143   0.464   2.866  0.6058  0.4666 -0.1600
 1742SOL     OW 6965   1.100   0.731   2.952  0.0705 -0.4915  0.1116
 1742SOL    HW2 6966   1.025   0.774   2.912 -0.2634 -1.7895 -0.6855
 1742SOL    HW3 6967   1.098   0.642   2.917  0.7325 -1.1624  1.7613
 1742SOL    MW4 6968   1.090   0.725   2.942  0.1138 -0.7513  0.2241
 1743SOL     OW 6969   0.917   1.144   3.214  0.0624 -0.0024 -0.0078
 1743SOL    HW2 6970   1.001   1.163   3.254  1.5233 -0.0493 -2.8810
 1743SOL    HW3 6971   0.899   1.053   3.238  1.5699 -0.4682 -0.5762
 1743SOL    MW4 6972   0.926   1.134   3.222  0.4540 -0.0700 -0.4619
 1744SOL     OW 6973   0.887   1.127   2.940  0.1453  0.1357  0.0250
 1744SOL    HW2 6974   0.956   1.181   2.903 -0.4124  0.2434 -0.8669
 1744SOL    HW3 6975   0.902   1.130   3.034 -1.2373  3.6650  0.1677
 1744SOL    MW4 6976   0.898   1.134   2.947 -0.1107  0.6156 -0.0738
 1745SOL     OW 6977   1.086   1.282   2.850  0.2873  0.0150 -0.1729
 1745SOL    HW2 6978   1.173   1.254   2.879 -0.2475 -2.4841 -0.9304
 1745SOL    HW3 6979   1.091   1.280   2.754 -0.5633  0.0877 -0.2191
 1745SOL    MW4 6980   1.098   1.278   2.841  0.1045 -0.3052 -0.2789
 1746SOL     OW 6981   1.077   1.523   2.966 -0.2182  0.2863 -0.1817
 1746SOL    HW2 6982   1.156   1.552   2.920 -0.0833 -0.2115 -0.2563
 1746SOL    HW3 6983   1.064   1.432   2.939 -0.2307  0.0418  0.6340
 1746SOL    MW4 6984   1.086   1.515   2.956 -0.2021  0.1883 -0.0839
 1747SOL     OW 6985   0.905   1.684   2.842  0.2373  0.1739  0.0802
 1747SOL    HW2 6986   0.971   1.638   2.893  0.6930 -0.6870 -1.2383
 1747SOL    HW3 6987   0.822   1.642   2.866  0.5433 -0.7494 -0.4403
 1747SOL    MW4 6988   0.903   1.672   2.852  0.3378 -0.0615 -0.1624
 1748SOL     OW 6989   0.918   1.936   2.926 -0.1475 -0.1520 -0.6422
 1748SOL    HW2 6990   0.911   1.921   3.021 -0.7152  1.6697 -0.3837
 1748SOL    HW3 6991   0.946   1.852   2.891  0.1625 -0.8256  1.1633
 1748SOL    MW4 6992   0.921   1.923   2.934 -0.1815 -0.0005 -0.3699
 1749SOL     OW 6993   1.146   2.095   2.893  0.5695 -0.2703  0.1582
 1749SOL    HW2 6994   1.071   2.050   2.931  0.7240 -1.5753 -1.0901
 1749SOL    HW3 6995   1.138   2.082   2.799  1.4051  1.0886 -0.1228
 1749SOL    MW4 6996   1.135   2.088   2.886  0.7001 -0.2632 -0.0436
 1750SOL     OW 6997   1.136   2.371   2.960  0.1825 -0.0169 -0.0624
 1750SOL    HW2 6998   1.148   2.278   2.936  0.2634 -0.3328  1.1944
 1750SOL    HW3 6999   1.046   2.390   2.936  0.3715 -0.2271 -0.9669
 1750SOL    MW4 7000   1.126   2.361   2.953  0.2181 -0.0863 -0.0159
 1751SOL     OW 7001   0.888   2.440   2.848 -0.4029 -0.1495 -0.2555
 1751SOL    HW2 7002   0.807   2.397   2.873 -0.3183 -0.0553  0.1890
 1751SOL    HW3 7003   0.889   2.436   2.752 -1.2550  0.4369 -0.3003
 1751SOL    MW4 7004   0.878   2.434   2.839 -0.5042 -0.0597 -0.2028
 1752SOL     OW 7005   0.856   2.710   3.168  0.4395  0.1112 -0.1200
 1752SOL    HW2 7006   0.946   2.728   3.195  0.7019 -1.0397 -0.2309
 1752SOL    HW3 7007   0.841   2.619   3.194 -0.7491  0.3559  0.0524
 1752SOL    MW4 7008   0.866   2.701   3.175  0.3173 -0.0084 -0.1119
 1753SOL     OW 7009   1.144   2.883   2.843 -0.3841  0.1081  0.0637
 1753SOL    HW2 7010   1.121   2.965   2.886 -0.2467 -0.1969  0.7183
 1753SOL    HW3 7011   1.075   2.821   2.870  0.9424 -0.6922  1.6887
 1753SOL    MW4 7012   1.132   2.885   2.852 -0.1910 -0.0378  0.3645
 1754SOL     OW 7013   1.075   3.153   2.946  0.0195 -0.8269  0.0395
 1754SOL    HW2 7014   1.150   3.197   2.906  0.4923 -0.1309  1.6348
 1754SOL    HW3 7015   0.999   3.194   2.906  0.4796  0.2905  0.2824
 1754SOL    MW4 7016   1.075   3.164   2.936  0.1426 -0.5876  0.2820
 1755SOL     OW 7017   0.830   3.269   2.833 -0.0757 -0.5084 -0.6908
 1755SOL    HW2 7018   0.775   3.198   2.867 -0.4942 -0.5463 -1.4448
 1755SOL    HW3 7019   0.839   3.249   2.740  1.9667 -1.0032 -0.4106
 1755SOL    MW4 7020   0.824   3.257   2.826  0.1386 -0.5787 -0.7533
 1756SOL     OW 7021   0.888   3.513   2.971 -0.7350  0.2240 -0.4140
 1756SOL    HW2 7022   0.970   3.553   2.942 -0.7371 -0.1443 -0.9294
 1756SOL    HW3 7023   0.877   3.437   2.914 -1.0300 -0.1784  0.1769
 1756SOL    MW4 7024   0.898   3.508   2.960 -0.7742  0.1223 -0.4041
 1757SOL     OW 7025   1.110   3.625   2.866 -0.1224  0.7317  0.0340
 1757SOL    HW2 7026   1.193   3.592   2.899  0.2535  0.3701 -1.2383
 1757SOL    HW3 7027   1.105   3.714   2.900  1.1802  1.0408 -0.5194
 1757SOL    MW4 7028   1.121   3.633   2.875  0.0991  0.7248 -0.2069
 1758SOL     OW 7029   1.091   3.881   2.966  0.0163  0.0042 -0.2408
 1758SOL    HW2 7030   1.094   3.888   3.061  1.0674 -0.9780 -0.1937
 1758SOL    HW3 7031   1.019   3.938   2.940  0.3129  0.9911  1.0707
 1758SOL    MW4 7032   1.082   3.890   2.975  0.1941  0.0048 -0.0616
 1759SOL     OW 7033   0.895   4.057   2.878 -0.1194  0.2024 -0.2184
 1759SOL    HW2 7034   0.823   3.994   2.887 -1.8424  2.2749  1.1216
 1759SOL    HW3 7035   0.910   4.063   2.784 -0.9765 -1.0463 -0.4529
 1759SOL    MW4 7036   0.887   4.050   2.867 -0.4598  0.3111 -0.0726
 1760SOL     OW 7037   0.883   4.305   3.015 -0.2407  0.0801 -0.1433
 1760SOL    HW2 7038   0.875   4.219   2.972  2.2876  0.7332 -2.0252
 1760SOL    HW3 7039   0.821   4.361   2.967  0.0890 -0.0286 -0.7013
 1760SOL    MW4 7040   0.873   4.301   3.003  0.1364  0.1519 -0.4652
 1761SOL     OW 7041   1.092   4.412   2.873  0.0286  0.0153 -0.3876
 1761SOL    HW2 7042   1.020   4.366   2.916  1.5263 -0.1201  2.0254
 1761SOL    HW3 7043   1.091   4.499   2.912 -0.1947  0.7574 -1.9803
 1761SOL    MW4 7044   1.082   4.417   2.884  0.1967  0.0953 -0.2794
 1762SOL     OW 7045   1.580   4.596   2.948 -0.0888  0.6959  0.1675
 1762SOL    HW2 7046   1.648   4.660   2.925  1.0156 -0.1679  0.9767
 1762SOL    HW3 7047   1.566   4.609   3.042  0.0184 -0.1297  0.3003
 1762SOL    MW4 7048   1.587   4.606   2.957  0.0710  0.4730  0.2918
 1763SOL     OW 7049   1.354   0.107   2.913  0.0922 -0.4315 -0.2147
 1763SOL    HW2 7050   1.427   0.045   2.914  0.7727  0.3197 -1.4077
 1763SOL    HW3 7051   1.340   0.125   2.820 -0.3692  0.8795  0.1006
 1763SOL    MW4 7052   1.362   0.101   2.901  0.1211 -0.1594 -0.3305
 1764SOL     OW 7053   1.333   0.366   3.251 -0.0622 -0.1262  0.2008
 1764SOL    HW2 7054   1.398   0.412   3.304 -1.1784  0.2044  1.2922
 1764SOL    HW3 7055   1.364   0.376   3.161  1.2319  0.2869  0.6825
 1764SOL    MW4 7056   1.346   0.373   3.246 -0.0387 -0.0281  0.4084
 1765SOL     OW 7057   1.582   0.478   2.833  0.5963  0.1375  0.2208
 1765SOL    HW2 7058   1.585   0.569   2.860  1.1890  0.1702  0.0401
 1765SOL    HW3 7059   1.584   0.481   2.737  2.9368 -0.1424  0.2319
 1765SOL    MW4 7060   1.582   0.490   2.824  0.9833  0.1049  0.1984
 1766SOL     OW 7061   1.586   0.765   2.927  0.5209  0.3752  0.1862
 1766SOL    HW2 7062   1.589   0.751   3.022 -1.3051 -0.9688  0.0777
 1766SOL    HW3 7063   1.518   0.832   2.915  0.8650  0.6613 -0.1616
 1766SOL    MW4 7064   1.577   0.772   2.938  0.3254  0.2356  0.1260
 1767SOL     OW 7065   1.343   0.915   2.883 -0.2899  0.1705  0.4015
 1767SOL    HW2 7066   1.342   1.002   2.922 -0.3450  0.8060 -1.0247
 1767SOL    HW3 7067   1.257   0.878   2.904 -0.5101  0.6986  0.4240
 1767SOL    MW4 7068   1.332   0.921   2.891 -0.3262  0.3240  0.2163
 1768SOL     OW 7069   1.325   1.193   2.955  0.0354 -0.6698 -0.6610
 1768SOL    HW2 7070   1.359   1.173   3.042 -1.2219  0.6418  0.1663
 1768SOL    HW3 7071   1.390   1.252   2.917  0.1161 -0.4666 -0.2112
 1768SOL    MW4 7072   1.338   1.198   2.961 -0.1198 -0.4699 -0.4925
 1769SOL     OW 7073   1.586   1.312   2.864 -0.2053 -0.0786 -0.5733
 1769SOL    HW2 7074   1.647   1.255   2.910 -0.0637  0.4548 -0.0903
 1769SOL    HW3 7075   1.589   1.394   2.913 -2.2429 -0.4422  0.2017
 1769SOL    MW4 7076   1.594   1.315   2.877 -0.4555 -0.0562 -0.4073
 1770SOL     OW 7077   1.542   1.543   3.001 -0.4656 -0.3229  0.3345
 1770SOL    HW2 7078   1.592   1.610   2.955  0.3205 -0.2645  1.2429
 1770SOL    HW3 7079   1.450   1.567   2.988 -0.1693  2.0682  2.2474
 1770SOL    MW4 7080   1.536   1.555   2.993 -0.3228  0.0003  0.7067
 1771SOL     OW 7081   1.310   1.652   2.859 -0.0126  0.5437  0.1634
 1771SOL    HW2 7082   1.304   1.742   2.888  2.7355 -0.0631  2.8840
 1771SOL    HW3 7083   1.330   1.658   2.765 -0.1464  2.7171  0.2639
 1771SOL    MW4 7084   1.312   1.665   2.850  0.3323  0.7504  0.5356
 1772SOL     OW 7085   1.345   1.918   2.951  0.4668  0.3049 -0.2450
 1772SOL    HW2 7086   1.349   1.914   3.046  0.5422  0.3421 -0.2471
 1772SOL    HW3 7087   1.273   1.979   2.932  1.3832  1.4204 -0.2092
 1772SOL    MW4 7088   1.336   1.926   2.961  0.5976  0.4570 -0.2406
 1773SOL     OW 7089   1.564   2.092   2.879  0.0227  0.0038  0.2338
 1773SOL    HW2 7090   1.492   2.036   2.908 -1.7027  1.3974 -1.2652
 1773SOL    HW3 7091   1.557   2.092   2.783  2.2607 -0.1374  0.0473
 1773SOL    MW4 7092   1.553   2.084   2.870  0.0903  0.1691  0.0114
 1774SOL     OW 7093   1.559   2.344   2.994  0.5215 -0.0080 -0.0592
 1774SOL    HW2 7094   1.479   2.382   2.956  0.2448 -1.0957 -0.5853
 1774SOL    HW3 7095   1.561   2.255   2.960  1.2883 -0.3920  0.9854
 1774SOL    MW4 7096   1.548   2.337   2.984  0.5862 -0.2022  0.0092
 1775SOL     OW 7097   1.349   2.479   2.825 -0.0236 -0.3414  0.2585
 1775SOL    HW2 7098   1.269   2.441   2.862 -0.5017 -0.4261 -0.8187
 1775SOL    HW3 7099   1.335   2.474   2.730  1.3031 -0.4305  0.0639
 1775SOL    MW4 7100   1.337   2.473   2.817  0.0884 -0.3643  0.0907
 1776SOL     OW 7101   1.360   2.739   2.936  0.3149  0.2265  0.4599
 1776SOL    HW2 7102   1.345   2.653   2.898  2.4233  0.3374 -0.7328
 1776SOL    HW3 7103   1.279   2.787   2.922 -0.5312 -1.2553  0.2787
 1776SOL    MW4 7104   1.348   2.734   2.929  0.4814  0.0456  0.2786
 1777SOL     OW 7105   1.596   2.874   2.877 -0.0648 -0.0227 -0.0660
 1777SOL    HW2 7106   1.660   2.820   2.924 -0.4553 -0.3193  0.1308
 1777SOL    HW3 7107   1.512   2.833   2.896 -0.5725  1.6443  1.5322
 1777SOL    MW4 7108   1.594   2.861   2.886 -0.1833  0.1581  0.1708
 1778SOL     OW 7109   1.566   3.135   2.936 -0.3392 -0.1891  0.0843
 1778SOL    HW2 7110   1.567   3.131   3.031  0.8878  2.2741  0.2281
 1778SOL    HW3 7111   1.576   3.045   2.907 -0.2707 -0.9062  2.2886
 1778SOL    MW4 7112   1.567   3.123   2.944 -0.1682  0.0413  0.3941
 1779SOL     OW 7113   1.321   3.257   2.831 -0.7537 -0.0319  0.0939
 1779SOL    HW2 7114   1.396   3.214   2.872  0.0616  1.0313 -0.2684
 1779SOL    HW3 7115   1.327   3.233   2.739 -0.1549  1.0330 -0.1551
 1779SOL    MW4 7116   1.332   3.248   2.824 -0.5671  0.2489  0.0133
 1780SOL     OW 7117   1.336   3.521   2.951  0.0515  0.3242 -0.1395
 1780SOL    HW2 7118   1.355   3.492   3.040  0.5865  1.3935  0.0993
 1780SOL    HW3 7119   1.338   3.440   2.899  0.9447 -0.1468  0.6149
 1780SOL    MW4 7120   1.339   3.507   2.956  0.2400  0.4032 -0.0085
 1781SOL     OW 7121   1.616   3.614   2.864  0.4022  0.3540  0.2980
 1781SOL    HW2 7122   1.534   3.581   2.901  0.6726 -0.4893  0.1599
 1781SOL    HW3 7123   1.609   3.595   2.771  0.4463  0.9471  0.1723
 1781SOL    MW4 7124   1.604   3.607   2.857  0.4437  0.3210  0.2632
 1782SOL     OW 7125   1.555   3.882   2.885  0.6994  0.0331  0.0493
 1782SOL    HW2 7126   1.637   3.933   2.886  1.3752 -1.0449  0.2966
 1782SOL    HW3 7127   1.582   3.794   2.860 -0.6492  0.0976 -1.7622
 1782SOL    MW4 7128   1.570   3.877   2.882  0.6106 -0.1006 -0.1571
 1783SOL     OW 7129   1.305   4.007   2.841 -0.1159  0.3891  0.2216
 1783SOL    HW2 7130   1.234   3.962   2.886 -0.5617 -2.9538 -3.5658
 1783SOL    HW3 7131   1.381   3.949   2.852  0.1749  0.3440 -1.7772
 1783SOL    MW4 7132   1.306   3.993   2.848 -0.1363 -0.0579 -0.5418
 1784SOL     OW 7133   1.333   4.267   2.946 -0.2432  0.1050  0.5835
 1784SOL    HW2 7134   1.338   4.182   2.904  0.8565 -0.3641  1.6454
 1784SOL    HW3 7135   1.252   4.306   2.912 -0.3980 -1.0728 -0.4157
 1784SOL    MW4 7136   1.323   4.261   2.936 -0.1186 -0.1123  0.5917
 1785SOL     OW 7137   1.604   4.310   2.882 -0.0794 -0.3014 -0.4444
 1785SOL    HW2 7138   1.512   4.288   2.895 -0.7222  0.5365 -3.2668
 1785SOL    HW3 7139   1.609   4.404   2.900  0.5004 -0.5946  0.9817
 1785SOL    MW4 7140   1.593   4.320   2.886 -0.0877 -0.2295 -0.6286
 1786SOL     OW 7141   1.691   0.179   3.281 -0.3888 -0.1287  0.1422
 1786SOL    HW2 7142   1.633   0.103   3.275 -1.0795  0.4222 -0.4887
 1786SOL    HW3 7143   1.770   0.147   3.323 -0.6670 -1.1966 -0.1355
 1786SOL    MW4 7144   1.694   0.165   3.286 -0.5166 -0.1969  0.0223
 1787SOL     OW 7145   1.803   0.093   2.892  0.1056  0.2292  0.2234
 1787SOL    HW2 7146   1.807   0.182   2.927  0.6482  0.4760 -0.4353
 1787SOL    HW3 7147   1.785   0.105   2.799 -1.2858 -0.4080  0.4017
 1787SOL    MW4 7148   1.801   0.106   2.884 -0.0064  0.1777  0.1600
 1788SOL     OW 7149   1.801   0.369   2.957  0.0215 -0.1864 -0.0853
 1788SOL    HW2 7150   1.741   0.423   2.906  1.5486  1.0641 -0.5799
 1788SOL    HW3 7151   1.768   0.373   3.046  0.2084  1.6948 -0.0940
 1788SOL    MW4 7152   1.789   0.377   2.962  0.2476  0.2268 -0.1517
 1789SOL     OW 7153   2.028   0.496   2.910  0.4672 -0.4631  0.0013
 1789SOL    HW2 7154   1.946   0.448   2.925 -0.1724  0.6335  0.0421
 1789SOL    HW3 7155   2.033   0.504   2.815  0.0273  0.3299  0.0447
 1789SOL    MW4 7156   2.018   0.491   2.900  0.3247 -0.2138  0.0124
 1790SOL     OW 7157   2.012   0.751   3.043 -0.0240  0.1795 -0.3919
 1790SOL    HW2 7158   1.996   0.667   2.999 -0.5069  0.4495 -0.7373
 1790SOL    HW3 7159   1.947   0.810   3.005 -0.8395  0.2692  1.1119
 1790SOL    MW4 7160   2.001   0.747   3.032 -0.1953  0.2270 -0.2390
 1791SOL     OW 7161   1.831   0.881   2.871 -0.1252 -0.4036  0.0004
 1791SOL    HW2 7162   1.743   0.844   2.877  0.2766 -1.3452  0.0847
 1791SOL    HW3 7163   1.841   0.904   2.778 -1.0041  1.0793  0.2505
 1791SOL    MW4 7164   1.821   0.879   2.860 -0.1882 -0.3322  0.0445
 1792SOL     OW 7165   1.802   1.167   2.987 -0.1696  0.2042 -0.2187
 1792SOL    HW2 7166   1.784   1.160   3.081 -2.1422  0.4106 -0.5543
 1792SOL    HW3 7167   1.811   1.076   2.958  0.5771  0.1451  0.1851
 1792SOL    MW4 7168   1.801   1.154   2.995 -0.3313  0.2237 -0.2097
 1793SOL     OW 7169   2.016   1.285   2.882  0.3472  0.3862  0.0566
 1793SOL    HW2 7170   2.099   1.241   2.900 -0.6038 -1.2733  0.4353
 1793SOL    HW3 7171   1.951   1.234   2.930 -1.1052  0.7261 -1.5201
 1793SOL    MW4 7172   2.019   1.273   2.890  0.0301  0.2121 -0.1014
 1794SOL     OW 7173   1.967   1.548   2.936 -0.2757 -0.2551  0.3559
 1794SOL    HW2 7174   1.977   1.558   3.031 -1.4425  1.7490  0.3053
 1794SOL    HW3 7175   1.980   1.455   2.920  0.9202 -0.4580  2.3624
 1794SOL    MW4 7176   1.970   1.537   2.947 -0.2718 -0.0175  0.6140
 1795SOL     OW 7177   1.746   1.670   2.841  0.0495 -0.1807 -0.0602
 1795SOL    HW2 7178   1.767   1.759   2.871 -1.5887 -0.4038  1.8659
 1795SOL    HW3 7179   1.822   1.618   2.867  0.4185  0.4015  0.0398
 1795SOL    MW4 7180   1.759   1.675   2.849 -0.1180 -0.1333  0.2071
 1796SOL     OW 7181   1.790   1.932   2.941  0.2262  0.0712  0.2660
 1796SOL    HW2 7182   1.871   1.956   2.896  0.9340 -1.4039  0.7096
 1796SOL    HW3 7183   1.723   1.988   2.902  1.1608  0.1249 -1.3007
 1796SOL    MW4 7184   1.792   1.943   2.930  0.4429 -0.1163  0.1178
 1797SOL     OW 7185   2.038   2.028   2.827  0.1337 -0.3868 -0.2233
 1797SOL    HW2 7186   2.112   1.991   2.876  1.4460  1.6644 -0.5838
 1797SOL    HW3 7187   2.032   2.119   2.858 -0.0385  0.4820 -2.6558
 1797SOL    MW4 7188   2.047   2.035   2.837  0.2841 -0.0015 -0.5918
 1798SOL     OW 7189   2.015   2.272   2.940 -0.1149 -0.4357 -0.6636
 1798SOL    HW2 7190   2.093   2.318   2.909  0.3481 -1.2873 -0.7984
 1798SOL    HW3 7191   1.942   2.329   2.916  0.4606  0.3265 -0.6211
 1798SOL    MW4 7192   2.016   2.286   2.933  0.0221 -0.4475 -0.6758
 1799SOL     OW 7193   1.792   2.431   2.876  0.6659  0.1190  0.0269
 1799SOL    HW2 7194   1.814   2.521   2.901 -0.8108  0.3104  0.7034
 1799SOL    HW3 7195   1.704   2.417   2.911  0.5492 -1.3160 -0.7805
 1799SOL    MW4 7196   1.783   2.441   2.884  0.4557 -0.0450  0.0097
 1800SOL     OW 7197   1.815   2.703   2.958 -0.1376 -0.0380  0.1857
 1800SOL    HW2 7198   1.808   2.709   3.053  0.1958 -1.0131  0.2742
 1800SOL    HW3 7199   1.903   2.736   2.938  0.1577 -0.7620  0.3002
 1800SOL    MW4 7200   1.825   2.708   2.968 -0.0546 -0.2622  0.2125
 1801SOL     OW 7201   2.062   2.817   2.834 -1.0717 -0.3439  0.1718
 1801SOL    HW2 7202   2.052   2.906   2.868  1.1123  0.6211 -1.5197
 1801SOL    HW3 7203   2.042   2.826   2.741 -0.2835 -1.4986 -0.1100
 1801SOL    MW4 7204   2.058   2.830   2.826 -0.6795 -0.3690 -0.0886
 1802SOL     OW 7205   2.044   3.072   2.933  0.8303 -0.4586 -0.3704
 1802SOL    HW2 7206   2.042   3.089   3.027  1.7063 -0.0832 -0.4210
 1802SOL    HW3 7207   1.965   3.115   2.900  0.4743 -0.6612  0.1975
 1802SOL    MW4 7208   2.033   3.080   2.941  0.8989 -0.4358 -0.3022
 1803SOL     OW 7209   1.809   3.218   2.836 -0.2678 -0.0724  0.0933
 1803SOL    HW2 7210   1.782   3.236   2.746 -1.3821 -0.1790  0.3945
 1803SOL    HW3 7211   1.729   3.189   2.879  0.2716 -0.0734  1.1061
 1803SOL    MW4 7212   1.795   3.217   2.830 -0.3437 -0.0866  0.2666
 1804SOL     OW 7213   1.819   3.476   2.976  0.2991 -0.1065 -0.0701
 1804SOL    HW2 7214   1.809   3.386   2.945 -0.4332  0.3441 -1.1777
 1804SOL    HW3 7215   1.751   3.524   2.931  0.8783  1.0660  0.2950
 1804SOL    MW4 7216   1.809   3.470   2.966  0.2789  0.1076 -0.1680
 1805SOL     OW 7217   2.034   3.569   2.827  0.0363  0.1087  0.3521
 1805SOL    HW2 7218   2.025   3.659   2.859  1.6598 -0.4953  2.6193
 1805SOL    HW3 7219   1.980   3.517   2.886  0.7774 -0.6632  0.3542
 1805SOL    MW4 7220   2.025   3.574   2.839  0.3483 -0.0728  0.6515
 1806SOL     OW 7221   1.993   3.840   2.902  0.0318  0.2105  0.1060
 1806SOL    HW2 7222   2.004   3.848   2.997 -0.6012 -0.5829  0.2505
 1806SOL    HW3 7223   1.933   3.910   2.878  0.4396  0.6113  0.2396
 1806SOL    MW4 7224   1.987   3.850   2.911  0.0021  0.1587  0.1427
 1807SOL     OW 7225   1.789   4.043   2.841  0.4066 -0.0987  0.1779
 1807SOL    HW2 7226   1.803   4.138   2.843  1.0517 -0.1783 -0.4611
 1807SOL    HW3 7227   1.779   4.021   2.749  0.8844 -0.7380  0.2679
 1807SOL    MW4 7228   1.790   4.053   2.829  0.5548 -0.1936  0.1055
 1808SOL     OW 7229   2.016   4.588   2.947  0.6077 -0.4401 -0.3968
 1808SOL    HW2 7230   1.986   4.552   3.030  1.7620  0.7189  0.5540
 1808SOL    HW3 7231   1.952   4.656   2.925 -0.0500 -1.1884 -0.7768
 1808SOL    MW4 7232   2.004   4.593   2.955  0.6732 -0.3859 -0.3215
 1809SOL     OW 7233   1.968   4.340   2.829  0.0034  0.8330 -0.2995
 1809SOL    HW2 7234   1.984   4.424   2.871  0.9439  0.2204  0.6036
 1809SOL    HW3 7235   1.999   4.351   2.739  1.8836  0.8909  0.3286
 1809SOL    MW4 7236   1.974   4.352   2.823  0.3755  0.7599 -0.0975
 1810SOL     OW 7237   2.469   4.628   3.002 -0.0764  0.5977  0.0628
 1810SOL    HW2 7238   2.466   4.543   2.960  0.1234  1.5386 -1.9200
 1810SOL    HW3 7239   2.386   4.670   2.978  0.1874  1.2802  0.3271
 1810SOL    MW4 7240   2.457   4.623   2.993 -0.0153  0.8119 -0.1639
 1811SOL     OW 7241   2.233   0.086   2.908 -0.6151 -0.1442  0.0412
 1811SOL    HW2 7242   2.231   0.164   2.963 -0.1241 -1.1589  1.5419
 1811SOL    HW3 7243   2.154   0.037   2.933  0.8689 -1.8001  1.6949
 1811SOL    MW4 7244   2.222   0.090   2.919 -0.3545 -0.4966  0.4574
 1812SOL     OW 7245   2.244   0.349   3.028  0.0340 -0.2328 -0.4525
 1812SOL    HW2 7246   2.227   0.354   3.122  2.3308  0.5757 -0.0524
 1812SOL    HW3 7247   2.180   0.409   2.989  0.3553  0.9333  0.7736
 1812SOL    MW4 7248   2.233   0.358   3.035  0.3794  0.0278 -0.2379
 1813SOL     OW 7249   2.454   0.504   2.940 -0.1850 -0.0070  0.3868
 1813SOL    HW2 7250   2.381   0.448   2.966 -0.0688 -0.4323 -0.1966
 1813SOL    HW3 7251   2.451   0.505   2.844 -0.1769  0.9747  0.3909
 1813SOL    MW4 7252   2.444   0.497   2.931 -0.1686  0.0664  0.3103
 1814SOL     OW 7253   2.450   0.776   3.014  0.7883  0.0330  0.0465
 1814SOL    HW2 7254   2.526   0.819   2.976  0.5957  0.8145  0.5295
 1814SOL    HW3 7255   2.448   0.690   2.972  2.1563 -0.1421  0.3262
 1814SOL    MW4 7256   2.459   0.771   3.003  0.9434  0.1130  0.1471
 1815SOL     OW 7257   2.219   0.888   2.932  0.6733  0.6057  0.0400
 1815SOL    HW2 7258   2.305   0.854   2.956  0.0657 -0.3921  0.8392
 1815SOL    HW3 7259   2.157   0.840   2.988 -0.3564  1.6879 -0.1429
 1815SOL    MW4 7260   2.222   0.877   2.942  0.4573  0.6168  0.1213
 1816SOL     OW 7261   2.252   1.149   3.000 -0.2190 -0.0944 -0.2036
 1816SOL    HW2 7262   2.229   1.157   3.093  0.2621 -1.1918  0.0206
 1816SOL    HW3 7263   2.241   1.056   2.981 -0.4263  0.1428 -1.2828
 1816SOL    MW4 7264   2.247   1.138   3.010 -0.1829 -0.2079 -0.3164
 1817SOL     OW 7265   2.478   1.273   2.905 -0.4991  0.6361  0.3286
 1817SOL    HW2 7266   2.461   1.271   2.811 -0.3086  0.3573  0.3003
 1817SOL    HW3 7267   2.401   1.231   2.945 -0.1355 -0.1201  0.2362
 1817SOL    MW4 7268   2.465   1.267   2.898 -0.4260  0.4995  0.3127
 1818SOL     OW 7269   2.497   1.532   2.961  0.3444  0.7050  0.2864
 1818SOL    HW2 7270   2.408   1.563   2.946  0.1201 -0.2219 -0.3461
 1818SOL    HW3 7271   2.496   1.441   2.931  1.1750  0.3043  1.4426
 1818SOL    MW4 7272   2.485   1.524   2.955  0.4244  0.5298  0.3555
 1819SOL     OW 7273   2.252   1.655   2.894  0.6561 -0.0048 -0.1610
 1819SOL    HW2 7274   2.163   1.622   2.910 -0.2234  2.5128  0.3054
 1819SOL    HW3 7275   2.258   1.661   2.799  0.0439  0.5634 -0.1674
 1819SOL    MW4 7276   2.241   1.651   2.884  0.4593  0.4023 -0.1003
 1820SOL     OW 7277   2.272   1.924   2.957  0.2497  0.7535 -0.2284
 1820SOL    HW2 7278   2.343   1.953   2.900  0.6132 -0.4463 -0.3995
 1820SOL    HW3 7279   2.250   1.837   2.925 -0.4463  0.6057  0.6314
 1820SOL    MW4 7280   2.278   1.917   2.945  0.2059  0.5757 -0.1375
 1821SOL     OW 7281   2.473   2.021   2.812  0.6022 -0.3944  0.0767
 1821SOL    HW2 7282   2.557   1.993   2.847  0.5268 -1.1932 -0.3733
 1821SOL    HW3 7283   2.485   2.020   2.717  0.1557 -0.2968  0.0160
 1821SOL    MW4 7284   2.485   2.017   2.804  0.5334 -0.4869  0.0093
 1822SOL     OW 7285   2.506   2.299   2.917  0.6440  0.1274 -0.0203
 1822SOL    HW2 7286   2.484   2.308   3.010 -0.4566  0.2398 -0.2899
 1822SOL    HW3 7287   2.498   2.205   2.900 -1.3244  0.3872 -0.5382
 1822SOL    MW4 7288   2.502   2.288   2.927  0.2391  0.1765 -0.1242
 1823SOL     OW 7289   2.254   2.422   2.851  0.0130 -0.2867  0.5118
 1823SOL    HW2 7290   2.264   2.508   2.892  0.2925 -0.6127  1.1376
 1823SOL    HW3 7291   2.337   2.377   2.870  0.6454 -0.0006 -1.4646
 1823SOL    MW4 7292   2.266   2.427   2.859  0.1333 -0.2920  0.3336
 1824SOL     OW 7293   2.267   2.677   2.953 -1.1481  0.1710  0.3859
 1824SOL    HW2 7294   2.338   2.739   2.937 -0.5185 -0.8415 -0.7998
 1824SOL    HW3 7295   2.189   2.719   2.915 -0.9403  0.6957  0.5300
 1824SOL    MW4 7296   2.266   2.691   2.946 -1.0376  0.1067  0.2485
 1825SOL     OW 7297   2.474   2.860   2.874 -0.4049  0.2832 -0.1951
 1825SOL    HW2 7298   2.471   2.951   2.903 -1.6074  0.2142 -0.0963
 1825SOL    HW3 7299   2.462   2.865   2.779  1.6851  0.3742 -0.4752
 1825SOL    MW4 7300   2.472   2.873   2.865 -0.2878  0.2861 -0.2190
 1826SOL     OW 7301   2.491   3.127   2.969 -0.1177 -0.2617 -0.3407
 1826SOL    HW2 7302   2.570   3.168   2.936  0.3786 -0.6764  0.3321
 1826SOL    HW3 7303   2.422   3.158   2.911  0.6417 -0.4522 -1.3555
 1826SOL    MW4 7304   2.492   3.136   2.957  0.0480 -0.3415 -0.3859
 1827SOL     OW 7305   2.269   3.202   2.841 -0.0856 -0.2089  0.2626
 1827SOL    HW2 7306   2.262   3.285   2.888 -0.4393  0.7278 -1.4169
 1827SOL    HW3 7307   2.195   3.150   2.872 -1.8244  1.3808 -1.1705
 1827SOL    MW4 7308   2.259   3.206   2.851 -0.3616  0.1244 -0.1481
 1828SOL     OW 7309   2.233   3.457   2.962 -0.2929 -0.2912  0.3087
 1828SOL    HW2 7310   2.320   3.493   2.945 -0.3080 -0.1777  0.4770
 1828SOL    HW3 7311   2.175   3.505   2.904  0.0796 -1.9203 -1.4932
 1828SOL    MW4 7312   2.237   3.468   2.952 -0.2458 -0.4912  0.0932
 1829SOL     OW 7313   2.452   3.613   2.881  0.3737 -0.5154 -0.1352
 1829SOL    HW2 7314   2.524   3.576   2.931 -0.0943 -0.9361  0.2361
 1829SOL    HW3 7315   2.450   3.705   2.907  1.7510 -0.1424 -1.3212
 1829SOL    MW4 7316   2.461   3.621   2.891  0.4937 -0.5217 -0.2427
 1830SOL     OW 7317   2.450   3.882   2.960  0.5620 -0.1995 -0.2353
 1830SOL    HW2 7318   2.474   3.862   3.051 -0.6527 -0.8458 -0.0397
 1830SOL    HW3 7319   2.530   3.917   2.921  1.0400  0.2759  1.1422
 1830SOL    MW4 7320   2.464   3.884   2.967  0.4648 -0.2221 -0.0277
 1831SOL     OW 7321   2.233   3.975   2.821  0.1550  0.0109 -0.1764
 1831SOL    HW2 7322   2.307   3.937   2.869  0.6247  1.2293  0.0735
 1831SOL    HW3 7323   2.156   3.930   2.856  0.6572 -0.3448  0.4786
 1831SOL    MW4 7324   2.233   3.964   2.832  0.2832  0.1247 -0.0570
 1832SOL     OW 7325   2.247   4.267   2.910 -0.3798  0.3450 -0.0346
 1832SOL    HW2 7326   2.241   4.172   2.896 -0.7262  0.4903 -0.8883
 1832SOL    HW3 7327   2.162   4.301   2.882 -0.3950  0.8681  0.6299
 1832SOL    MW4 7328   2.235   4.259   2.905 -0.4275  0.4332 -0.0595
 1833SOL     OW 7329   2.503   4.370   2.895 -0.4253  0.5011 -0.1028
 1833SOL    HW2 7330   2.422   4.319   2.897  1.3664 -2.5349 -1.3050
 1833SOL    HW3 7331   2.512   4.396   2.803  0.4315  0.0113 -0.1616
 1833SOL    MW4 7332   2.494   4.367   2.883 -0.0759  0.0359 -0.2692
 1834SOL     OW 7333   2.879   4.619   2.988 -0.0190  0.4815  0.0729
 1834SOL    HW2 7334   2.951   4.664   2.943 -1.0960  1.6471 -0.5386
 1834SOL    HW3 7335   2.867   4.539   2.938  0.7452  0.3575  0.0789
 1834SOL    MW4 7336   2.887   4.615   2.975 -0.0603  0.6189 -0.0070
 1835SOL     OW 7337   2.678   0.109   2.889  0.4563 -0.4230  0.3281
 1835SOL    HW2 7338   2.754   0.055   2.911  0.8048 -0.3521 -0.6972
 1835SOL    HW3 7339   2.604   0.064   2.931  0.8909 -1.1494  0.3146
 1835SOL    MW4 7340   2.678   0.096   2.897  0.5596 -0.5095  0.1911
 1836SOL     OW 7341   2.698   0.352   2.996  0.5537  0.0126  0.1651
 1836SOL    HW2 7342   2.698   0.264   2.958  0.7145  0.5569 -1.1372
 1836SOL    HW3 7343   2.616   0.390   2.967  0.3911  0.2254  0.8997
 1836SOL    MW4 7344   2.687   0.345   2.987  0.5534  0.1125  0.0902
 1837SOL     OW 7345   2.893   0.525   2.879 -0.6437  0.2788 -0.2198
 1837SOL    HW2 7346   2.818   0.467   2.895  0.1511 -0.9474 -0.9151
 1837SOL    HW3 7347   2.928   0.496   2.795  1.2112  0.1951  0.5703
 1837SOL    MW4 7348   2.887   0.514   2.870 -0.2941  0.1059 -0.2073
 1838SOL     OW 7349   2.919   0.794   2.972 -0.4994  0.1146  0.0614
 1838SOL    HW2 7350   2.903   0.783   3.065 -0.8183  2.4439  0.3203
 1838SOL    HW3 7351   2.918   0.705   2.936 -0.3309 -0.8018  2.2655
 1838SOL    MW4 7352   2.917   0.781   2.979 -0.5193  0.3010  0.3864
 1839SOL     OW 7353   2.671   0.876   2.888 -0.1414  0.2241 -0.5361
 1839SOL    HW2 7354   2.669   0.966   2.920  0.7109  0.5257 -1.3099
 1839SOL    HW3 7355   2.748   0.837   2.929 -0.3090 -0.0483 -0.4752
 1839SOL    MW4 7356   2.681   0.883   2.897 -0.0511  0.2280 -0.6302
 1840SOL     OW 7357   2.698   1.134   2.994 -0.3418 -0.1030 -0.2858
 1840SOL    HW2 7358   2.768   1.189   2.959  0.0849 -0.9523 -0.7892
 1840SOL    HW3 7359   2.617   1.178   2.967 -0.0040  0.3657 -0.5367
 1840SOL    MW4 7360   2.697   1.147   2.986 -0.2409 -0.1532 -0.3853
 1841SOL     OW 7361   2.928   1.265   2.882 -0.1378 -0.5373  0.0303
 1841SOL    HW2 7362   2.927   1.360   2.893 -1.3881 -0.6216  0.8461
 1841SOL    HW3 7363   3.015   1.239   2.912  0.2673  0.3665 -0.3352
 1841SOL    MW4 7364   2.939   1.274   2.888 -0.2493 -0.4292  0.0897
 1842SOL     OW 7365   2.871   1.570   3.210  0.0562 -0.0917  0.1113
 1842SOL    HW2 7366   2.877   1.492   3.265  1.2609 -0.4994 -0.5783
 1842SOL    HW3 7367   2.795   1.617   3.243 -0.4942 -1.4049  0.7348
 1842SOL    MW4 7368   2.862   1.566   3.221  0.1425 -0.3188  0.1026
 1843SOL     OW 7369   2.918   1.537   2.936 -0.2455  0.3985 -0.1643
 1843SOL    HW2 7370   2.997   1.581   2.907 -1.7175  2.2946 -1.3891
 1843SOL    HW3 7371   2.915   1.552   3.031  0.1824  1.4435 -0.3119
 1843SOL    MW4 7372   2.928   1.545   2.945 -0.3833  0.7866 -0.3454
 1844SOL     OW 7373   2.702   1.686   2.871  0.0907  0.3411  0.3869
 1844SOL    HW2 7374   2.776   1.627   2.885  0.2839  0.6296  0.6009
 1844SOL    HW3 7375   2.628   1.641   2.911  0.3687  0.5354  1.1496
 1844SOL    MW4 7376   2.702   1.672   2.878  0.1529  0.4048  0.5157
 1845SOL     OW 7377   2.912   2.101   2.890 -0.1587  0.1648  0.4636
 1845SOL    HW2 7378   2.949   2.184   2.920 -2.3354  0.6198  2.0012
 1845SOL    HW3 7379   2.929   2.100   2.796  1.1647  1.6726  0.6570
 1845SOL    MW4 7380   2.919   2.112   2.882 -0.2713  0.4238  0.6920
 1846SOL     OW 7381   2.983   2.369   2.969 -0.1269  0.0413  0.1342
 1846SOL    HW2 7382   3.059   2.421   2.942  0.7810 -1.0942  0.4718
 1846SOL    HW3 7383   2.908   2.417   2.934  0.8233  0.3937 -1.4643
 1846SOL    MW4 7384   2.983   2.383   2.961  0.1182 -0.0620 -0.0322
 1847SOL     OW 7385   2.739   2.445   2.857  0.4549  0.5640 -0.0798
 1847SOL    HW2 7386   2.715   2.536   2.877 -0.7340  0.0791  0.7805
 1847SOL    HW3 7387   2.661   2.395   2.879  1.3195 -0.7402  0.0582
 1847SOL    MW4 7388   2.725   2.451   2.863  0.4121  0.3280  0.0519
 1848SOL     OW 7389   2.691   2.696   2.931  0.3666  0.1126  0.0457
 1848SOL    HW2 7390   2.702   2.694   3.026 -0.7079  0.0567  0.1826
 1848SOL    HW3 7391   2.625   2.764   2.916  2.5315  2.0625 -0.8986
 1848SOL    MW4 7392   2.683   2.705   2.942  0.5105  0.3625 -0.0608
 1849SOL     OW 7393   2.922   2.849   2.859 -0.1241 -0.4463 -0.2657
 1849SOL    HW2 7394   3.004   2.824   2.901  0.4036  0.3839 -0.8029
 1849SOL    HW3 7395   2.857   2.787   2.894  0.6819 -0.9598  0.3203
 1849SOL    MW4 7396   2.924   2.837   2.869  0.0518 -0.4045 -0.2593
 1850SOL     OW 7397   2.919   3.103   2.980  0.2913 -0.1746 -0.1327
 1850SOL    HW2 7398   2.854   3.151   2.928  0.8702  0.0261 -0.6846
 1850SOL    HW3 7399   2.907   3.012   2.955 -0.2896 -0.2216  0.3309
 1850SOL    MW4 7400   2.909   3.098   2.970  0.2910 -0.1543 -0.1444
 1851SOL     OW 7401   2.694   3.243   2.855  0.4792  0.1015 -0.5093
 1851SOL    HW2 7402   2.694   3.336   2.879  2.6348  0.4460 -1.6713
 1851SOL    HW3 7403   2.682   3.242   2.760  0.5865 -0.7979 -0.5208
 1851SOL    MW4 7404   2.693   3.255   2.846  0.7778  0.0283 -0.6641
 1852SOL     OW 7405   2.687   3.509   2.989 -0.2519 -0.0689 -0.1032
 1852SOL    HW2 7406   2.704   3.502   3.083 -1.3266 -1.5580 -0.0150
 1852SOL    HW3 7407   2.767   3.548   2.954  0.7998 -0.9854  1.1967
 1852SOL    MW4 7408   2.700   3.514   2.997 -0.2549 -0.3863  0.0799
 1853SOL     OW 7409   2.917   3.620   2.853  0.1934 -0.3194 -0.3400
 1853SOL    HW2 7410   2.990   3.574   2.895 -0.3673 -1.0815 -0.1798
 1853SOL    HW3 7411   2.917   3.707   2.893 -0.1192 -0.9245  1.0009
 1853SOL    MW4 7412   2.926   3.625   2.864  0.0782 -0.4998 -0.1420
 1854SOL     OW 7413   2.911   3.872   2.978  0.4487  0.1376 -0.1721
 1854SOL    HW2 7414   2.915   3.860   3.073  2.2819  1.6796 -0.0350
 1854SOL    HW3 7415   2.822   3.904   2.962  0.3013  0.3687  1.0810
 1854SOL    MW4 7416   2.900   3.875   2.988  0.6711  0.3716  0.0113
 1855SOL     OW 7417   2.681   4.220   3.043 -0.3865  0.1543  0.1277
 1855SOL    HW2 7418   2.684   4.237   3.137 -0.0793  0.9686 -0.0193
 1855SOL    HW3 7419   2.617   4.283   3.010 -1.1561 -0.7428 -0.0837
 1855SOL    MW4 7420   2.673   4.231   3.051 -0.4475  0.1434  0.0804
 1856SOL     OW 7421   2.947   3.853   3.274 -0.0906 -0.4681  0.0388
 1856SOL    HW2 7422   3.030   3.896   3.296  0.0457 -0.6164 -0.1843
 1856SOL    HW3 7423   2.881   3.906   3.318 -0.0454  0.8117 -1.3716
 1856SOL    MW4 7424   2.949   3.866   3.283 -0.0666 -0.3188 -0.1767
 1857SOL     OW 7425   2.861   4.362   2.881 -0.0418  0.8516  0.3635
 1857SOL    HW2 7426   2.948   4.329   2.904  0.1062  1.2049  0.3008
 1857SOL    HW3 7427   2.801   4.306   2.931  0.1923  0.2276 -0.0360
 1857SOL    MW4 7428   2.864   4.350   2.890  0.0086  0.8159  0.3025
 1858SOL     OW 7429   3.342   0.018   2.994  0.0890  0.1064 -0.1965
 1858SOL    HW2 7430   3.418   0.064   2.959  0.9927 -0.7699  0.6094
 1858SOL    HW3 7431   3.353  -0.072   2.965 -0.7483  0.0098 -0.2357
 1858SOL    MW4 7432   3.353   0.012   2.986  0.0977 -0.0220 -0.0954
 1859SOL     OW 7433   3.084   0.122   2.901 -0.3668 -0.2041  0.3050
 1859SOL    HW2 7434   3.072   0.204   2.948  1.6526 -0.0047  0.5163
 1859SOL    HW3 7435   3.171   0.091   2.929 -0.8110 -2.0487 -0.3015
 1859SOL    MW4 7436   3.094   0.129   2.911 -0.1589 -0.4212  0.2529
 1860SOL     OW 7437   3.089   0.375   3.027 -0.7705  0.2269 -0.5591
 1860SOL    HW2 7438   3.170   0.408   2.988 -1.0921  0.5320 -0.9668
 1860SOL    HW3 7439   3.020   0.430   2.990 -0.8700  1.9341  2.0956
 1860SOL    MW4 7440   3.091   0.386   3.017 -0.8260  0.4924 -0.2626
 1861SOL     OW 7441   3.335   0.466   2.895 -0.5461  0.0339  0.4999
 1861SOL    HW2 7442   3.422   0.448   2.929 -0.0499  0.9572 -0.2482
 1861SOL    HW3 7443   3.349   0.493   2.804 -1.5287  0.9451  0.5963
 1861SOL    MW4 7444   3.348   0.467   2.887 -0.6103  0.2759  0.4139
 1862SOL     OW 7445   3.354   0.737   2.973 -0.3332  0.0565  0.0247
 1862SOL    HW2 7446   3.343   0.756   3.066 -0.1786 -0.6261  0.1883
 1862SOL    HW3 7447   3.353   0.641   2.968  0.2556  0.0773 -0.6008
 1862SOL    MW4 7448   3.353   0.727   2.984 -0.2351 -0.0308 -0.0363
 1863SOL     OW 7449   3.163   0.898   2.854  0.0600 -0.1437 -0.0744
 1863SOL    HW2 7450   3.232   0.843   2.890  0.0231 -0.1268  0.0219
 1863SOL    HW3 7451   3.083   0.867   2.896  0.0202 -0.1115 -0.1272
 1863SOL    MW4 7452   3.162   0.887   2.864  0.0499 -0.1372 -0.0687
 1864SOL     OW 7453   3.176   1.148   2.966  0.1586 -0.1686 -0.5322
 1864SOL    HW2 7454   3.237   1.198   2.911 -1.0087 -0.0796 -1.7903
 1864SOL    HW3 7455   3.174   1.061   2.926  0.4291 -0.5477  0.2742
 1864SOL    MW4 7456   3.184   1.144   2.953  0.0403 -0.2069 -0.5918
 1865SOL     OW 7457   3.382   1.292   2.827 -0.4899  0.4475 -0.3129
 1865SOL    HW2 7458   3.443   1.243   2.882 -0.5392 -0.6549 -1.2329
 1865SOL    HW3 7459   3.373   1.377   2.871  0.2423 -0.0618  0.8374
 1865SOL    MW4 7460   3.389   1.297   2.840 -0.3998  0.2348 -0.2825
 1866SOL     OW 7461   3.352   1.539   2.942  0.3466 -0.0509 -0.3032
 1866SOL    HW2 7462   3.356   1.543   3.037  0.9821 -1.2955 -0.2753
 1866SOL    HW3 7463   3.426   1.593   2.912  1.0343 -0.8487 -0.0671
 1866SOL    MW4 7464   3.362   1.547   2.950  0.5212 -0.3204 -0.2684
 1867SOL     OW 7465   3.154   1.686   2.849 -0.1340  0.1219 -0.2267
 1867SOL    HW2 7466   3.228   1.632   2.878 -1.2248 -1.1404  0.2766
 1867SOL    HW3 7467   3.165   1.692   2.754 -0.4881 -1.7967 -0.4140
 1867SOL    MW4 7468   3.165   1.679   2.840 -0.3246 -0.2978 -0.1850
 1868SOL     OW 7469   3.163   1.954   2.990  0.0841  0.0381 -0.1597
 1868SOL    HW2 7470   3.167   1.881   2.928  2.2656 -0.9026  1.0323
 1868SOL    HW3 7471   3.083   2.001   2.967  0.1078 -1.1179 -2.7559
 1868SOL    MW4 7472   3.153   1.951   2.979  0.3750 -0.2386 -0.3449
 1869SOL     OW 7473   3.340   2.120   2.876 -0.3179  0.0370  0.1705
 1869SOL    HW2 7474   3.274   2.067   2.921  0.0099  0.2076  0.8545
 1869SOL    HW3 7475   3.423   2.080   2.900  0.0127  1.6667  1.7738
 1869SOL    MW4 7476   3.342   2.107   2.885 -0.2310  0.2745  0.4723
 1870SOL     OW 7477   3.405   2.360   2.988  0.2435 -0.0622 -0.2226
 1870SOL    HW2 7478   3.411   2.343   3.082  2.4355 -0.0969 -0.3418
 1870SOL    HW3 7479   3.389   2.274   2.949  1.3735 -0.3677 -0.0314
 1870SOL    MW4 7480   3.403   2.347   2.995  0.6818 -0.1071 -0.2131
 1871SOL     OW 7481   3.206   2.518   2.886 -0.2451  0.4608 -0.0586
 1871SOL    HW2 7482   3.190   2.495   2.795 -0.7907 -0.6787  0.3193
 1871SOL    HW3 7483   3.264   2.450   2.919  1.0996  1.6334  0.0755
 1871SOL    MW4 7484   3.212   2.506   2.878 -0.1397  0.4651  0.0090
 1872SOL     OW 7485   3.165   2.774   2.991  0.1041 -0.3392  0.3519
 1872SOL    HW2 7486   3.165   2.770   3.086 -0.0530  0.3324  0.3854
 1872SOL    HW3 7487   3.186   2.685   2.963 -0.3197 -0.6450  1.0034
 1872SOL    MW4 7488   3.168   2.762   3.000  0.0275 -0.2909  0.4423
 1873SOL     OW 7489   3.371   2.888   2.840 -0.2908 -0.0284  0.0151
 1873SOL    HW2 7490   3.373   2.977   2.875  0.6483  0.3529 -0.9624
 1873SOL    HW3 7491   3.298   2.845   2.885 -0.8825  1.3039  0.3352
 1873SOL    MW4 7492   3.362   2.894   2.850 -0.2450  0.1977 -0.0716
 1874SOL     OW 7493   3.359   3.131   2.950 -0.7300  0.2122 -0.1679
 1874SOL    HW2 7494   3.354   3.114   3.044 -0.5010 -0.9284 -0.3499
 1874SOL    HW3 7495   3.274   3.167   2.927 -0.9771 -0.0287  0.3755
 1874SOL    MW4 7496   3.347   3.134   2.959 -0.7324  0.0299 -0.1203
 1875SOL     OW 7497   3.113   3.265   2.867 -0.4141  0.0603  0.6328
 1875SOL    HW2 7498   3.039   3.215   2.903 -0.7965  0.4529  0.3914
 1875SOL    HW3 7499   3.108   3.250   2.773  0.2260 -0.4736  0.6803
 1875SOL    MW4 7500   3.103   3.256   2.859 -0.3801  0.0416  0.6072
 1876SOL     OW 7501   3.172   3.521   2.955  0.2815  0.8287 -0.1125
 1876SOL    HW2 7502   3.240   3.561   2.901  1.6888 -0.4532  0.6581
 1876SOL    HW3 7503   3.162   3.433   2.919  1.2319 -0.0342  1.7107
 1876SOL    MW4 7504   3.179   3.515   2.943  0.5926  0.5457  0.2298
 1877SOL     OW 7505   3.374   3.669   2.815 -0.3736 -0.1310  0.2107
 1877SOL    HW2 7506   3.460   3.639   2.843 -0.3775  0.0554  0.4219
 1877SOL    HW3 7507   3.362   3.753   2.859 -0.3722  0.1694 -0.3590
 1877SOL    MW4 7508   3.384   3.676   2.824 -0.3739 -0.0668  0.1634
 1878SOL     OW 7509   3.391   3.926   2.928  0.4590 -0.4712 -0.4281
 1878SOL    HW2 7510   3.398   3.932   3.023  0.3904 -1.7023 -0.3306
 1878SOL    HW3 7511   3.305   3.963   2.907  0.4913 -0.1632 -0.0122
 1878SOL    MW4 7512   3.381   3.931   2.938  0.4542 -0.5930 -0.3604
 1879SOL     OW 7513   3.124   4.003   2.866  0.0241  0.6398  0.3266
 1879SOL    HW2 7514   3.054   3.946   2.896  0.0196  0.6403  0.3180
 1879SOL    HW3 7515   3.119   3.999   2.771 -0.1377  0.8491  0.3245
 1879SOL    MW4 7516   3.114   3.995   2.857  0.0022  0.6675  0.3252
 1880SOL     OW 7517   3.140   4.283   2.973  0.5491  0.1600 -0.3463
 1880SOL    HW2 7518   3.134   4.282   3.069  1.9267 -0.3962 -0.2561
 1880SOL    HW3 7519   3.138   4.190   2.949  0.7141  0.2801 -0.8173
 1880SOL    MW4 7520   3.139   4.270   2.983  0.7526  0.1025 -0.3965
 1881SOL     OW 7521   3.370   4.417   2.892 -0.1993 -0.4075  0.3472
 1881SOL    HW2 7522   3.440   4.369   2.937 -0.3725  0.9237  2.1091
 1881SOL    HW3 7523   3.292   4.364   2.907  0.3592 -1.7684 -1.4129
 1881SOL    MW4 7524   3.369   4.403   2.900 -0.1485 -0.4114  0.3474
 1882SOL     OW 7525   3.824   0.012   2.942  0.3983 -0.2668 -0.3319
 1882SOL    HW2 7526   3.831  -0.081   2.919 -0.1556 -0.3522 -0.1774
 1882SOL    HW3 7527   3.732   0.033   2.924  0.0716 -0.2047  1.3180
 1882SOL    MW4 7528   3.813   0.002   2.936  0.2821 -0.2699 -0.0938
 1883SOL     OW 7529   3.579   0.121   2.870 -0.1352  0.5772  0.2941
 1883SOL    HW2 7530   3.581   0.212   2.898  2.1373  0.5825  0.2388
 1883SOL    HW3 7531   3.576   0.126   2.774 -2.9238  0.5667  0.3543
 1883SOL    MW4 7532   3.579   0.134   2.861 -0.2033  0.5765  0.2948
 1884SOL     OW 7533   3.598   0.375   2.980  0.3209 -0.3257  0.3642
 1884SOL    HW2 7534   3.619   0.378   3.073 -1.0671  0.8430  0.6643
 1884SOL    HW3 7535   3.674   0.414   2.936  1.0294 -0.9945  0.9810
 1884SOL    MW4 7536   3.611   0.380   2.986  0.2312 -0.2598  0.4852
 1885SOL     OW 7537   4.030   0.411   2.988  0.2343  0.4103  0.6258
 1885SOL    HW2 7538   4.107   0.462   2.964  0.4648  0.3590  1.2437
 1885SOL    HW3 7539   4.049   0.322   2.958  0.8945  0.1570  1.7677
 1885SOL    MW4 7540   4.043   0.406   2.981  0.3518  0.3701  0.8580
 1886SOL     OW 7541   3.812   0.488   2.857  0.0211  0.6206  0.1673
 1886SOL    HW2 7542   3.804   0.581   2.879  1.1312  0.7913 -0.1164
 1886SOL    HW3 7543   3.894   0.461   2.896 -0.4342 -0.3212  0.4774
 1886SOL    MW4 7544   3.822   0.497   2.865  0.1075  0.5188  0.1708
 1887SOL     OW 7545   3.579   0.895   2.855 -0.2177  0.2137  0.3557
 1887SOL    HW2 7546   3.661   0.850   2.877 -0.1866 -0.2414 -0.6361
 1887SOL    HW3 7547   3.511   0.843   2.898 -0.2615 -1.3308 -1.5137
 1887SOL    MW4 7548   3.581   0.882   2.863 -0.2193 -0.0501 -0.0218
 1888SOL     OW 7549   3.592   1.142   2.974  0.3319 -0.4011 -0.2065
 1888SOL    HW2 7550   3.666   1.179   2.925  0.8598  0.1062  0.9470
 1888SOL    HW3 7551   3.575   1.059   2.931  0.3607  0.3257 -1.6588
 1888SOL    MW4 7552   3.600   1.136   2.962  0.4054 -0.2383 -0.2459
 1889SOL     OW 7553   3.796   1.282   2.865  0.0680  0.2953 -0.0598
 1889SOL    HW2 7554   3.818   1.368   2.901 -1.4745  0.5905  0.1928
 1889SOL    HW3 7555   3.809   1.292   2.770  1.5880  0.2787  0.1371
 1889SOL    MW4 7556   3.801   1.295   2.857  0.0650  0.3321 -0.0005
 1890SOL     OW 7557   3.814   1.540   2.953  0.2626 -0.1044 -0.0046
 1890SOL    HW2 7558   3.837   1.541   3.046  1.1761 -0.0032 -0.2303
 1890SOL    HW3 7559   3.725   1.575   2.950 -0.1020 -0.9128  0.9217
 1890SOL    MW4 7560   3.805   1.545   2.965  0.3350 -0.1977  0.0879
 1891SOL     OW 7561   3.582   1.692   2.891 -0.2130 -0.8564 -0.2998
 1891SOL    HW2 7562   3.573   1.787   2.895  0.6688 -0.7654 -0.2206
 1891SOL    HW3 7563   3.610   1.675   2.801 -0.2996 -1.0365 -0.2937
 1891SOL    MW4 7564   3.585   1.702   2.879 -0.1081 -0.8682 -0.2886
 1892SOL     OW 7565   3.572   1.975   2.919  0.1173  0.3576  0.0526
 1892SOL    HW2 7566   3.578   1.976   3.014 -1.1167  0.4132  0.1353
 1892SOL    HW3 7567   3.661   1.995   2.889  0.4841  0.4482  1.1890
 1892SOL    MW4 7568   3.585   1.978   2.927  0.0029  0.3769  0.2134
 1893SOL     OW 7569   3.808   2.083   2.828 -0.0964 -0.0341 -0.3035
 1893SOL    HW2 7570   3.800   2.175   2.851 -0.1158 -0.0057 -0.4245
 1893SOL    HW3 7571   3.802   2.081   2.732 -1.1359 -0.2652 -0.2404
 1893SOL    MW4 7572   3.806   2.095   2.818 -0.2361 -0.0608 -0.3111
 1894SOL     OW 7573   3.847   2.337   2.943 -0.0759 -0.3604 -0.2764
 1894SOL    HW2 7574   3.845   2.329   3.039  1.5522  0.3001 -0.1663
 1894SOL    HW3 7575   3.774   2.394   2.922 -0.7967 -0.9740  0.5205
 1894SOL    MW4 7576   3.837   2.343   2.953  0.0438 -0.3542 -0.1567
 1895SOL     OW 7577   3.624   2.479   2.878 -0.5103  0.2549 -0.2958
 1895SOL    HW2 7578   3.614   2.567   2.912  0.4952  0.0634  0.5232
 1895SOL    HW3 7579   3.547   2.431   2.910 -0.5418  0.5727  0.0975
 1895SOL    MW4 7580   3.613   2.484   2.886 -0.3818  0.2715 -0.1359
 1896SOL     OW 7581   3.599   2.748   2.953  0.2424  0.4949 -0.5232
 1896SOL    HW2 7582   3.670   2.806   2.925 -1.4149  2.7411 -0.2212
 1896SOL    HW3 7583   3.520   2.788   2.917 -1.1331 -0.6545  1.1463
 1896SOL    MW4 7584   3.598   2.761   2.944 -0.1578  0.6396 -0.2631
 1897SOL     OW 7585   3.799   2.893   2.840 -0.3475 -0.4898  0.3344
 1897SOL    HW2 7586   3.832   2.978   2.869  0.5273 -0.8953  0.5341
 1897SOL    HW3 7587   3.783   2.904   2.746 -0.6427  0.0203  0.4396
 1897SOL    MW4 7588   3.801   2.906   2.832 -0.2711 -0.4760  0.3746
 1898SOL     OW 7589   3.856   3.149   2.949 -0.1185 -0.2909 -0.3493
 1898SOL    HW2 7590   3.934   3.175   2.899 -0.9580  0.5033 -1.2648
 1898SOL    HW3 7591   3.787   3.206   2.916 -1.2939 -1.5934 -0.1559
 1898SOL    MW4 7592   3.857   3.160   2.938 -0.3843 -0.3579 -0.4446
 1899SOL     OW 7593   3.606   3.244   2.838  0.6796 -0.2784  0.1963
 1899SOL    HW2 7594   3.527   3.227   2.889  0.6263  1.9068  0.8867
 1899SOL    HW3 7595   3.576   3.238   2.747  0.0704 -0.9851  0.4319
 1899SOL    MW4 7596   3.592   3.241   2.833  0.5922 -0.0834  0.3185
 1900SOL     OW 7597   3.609   3.535   2.892  0.4520 -0.6446  0.3720
 1900SOL    HW2 7598   3.697   3.563   2.868  0.7467 -1.9382 -0.0377
 1900SOL    HW3 7599   3.605   3.442   2.870 -1.4366 -0.3156 -0.8571
 1900SOL    MW4 7600   3.620   3.527   2.886  0.2417 -0.7719  0.1558
 1901SOL     OW 7601   3.835   3.912   2.886  0.0202 -0.5794 -0.0997
 1901SOL    HW2 7602   3.849   3.937   2.977  2.8098 -1.7779 -0.1663
 1901SOL    HW3 7603   3.758   3.963   2.860 -0.2075  0.5810  2.5911
 1901SOL    MW4 7604   3.826   3.922   2.895  0.3582 -0.5844  0.2465
 1902SOL     OW 7605   3.612   4.064   2.833 -0.4710  0.1008  0.4001
 1902SOL    HW2 7606   3.551   3.991   2.847  0.7365 -1.2011 -0.9774
 1902SOL    HW3 7607   3.604   4.083   2.740  0.0487  0.9819  0.5366
 1902SOL    MW4 7608   3.603   4.057   2.823 -0.2431  0.0453  0.2363
 1903SOL     OW 7609   3.567   4.086   2.556  0.5434 -0.1106  0.7665
 1903SOL    HW2 7610   3.482   4.057   2.525  1.1000  0.5426 -1.4445
 1903SOL    HW3 7611   3.575   4.177   2.527  1.8802 -0.0819  1.1512
 1903SOL    MW4 7612   3.557   4.094   2.548  0.7932 -0.0206  0.5256
 1904SOL     OW 7613   3.604   4.298   2.967  0.2342 -0.2453 -0.3362
 1904SOL    HW2 7614   3.667   4.358   2.927 -0.0708  0.1276 -0.2572
 1904SOL    HW3 7615   3.608   4.219   2.912  0.3615 -0.0146 -0.6569
 1904SOL    MW4 7616   3.613   4.295   2.954  0.2108 -0.1657 -0.3681
 1905SOL     OW 7617   3.828   4.413   2.874 -0.3396  0.5320  0.3504
 1905SOL    HW2 7618   3.901   4.360   2.907  0.0435  0.8899  0.0841
 1905SOL    HW3 7619   3.842   4.416   2.780 -1.0765  0.0430  0.2212
 1905SOL    MW4 7620   3.839   4.406   2.866 -0.3863  0.5147  0.2982
 1906SOL     OW 7621   0.003   0.076   3.337  0.6839 -0.6076 -0.4527
 1906SOL    HW2 7622   0.009   0.165   3.302 -2.7110 -0.9997 -2.3065
 1906SOL    HW3 7623   0.064   0.025   3.284  0.8165  0.1680 -1.0562
 1906SOL    MW4 7624   0.012   0.081   3.325  0.2535 -0.5570 -0.7769
 1907SOL     OW 7625   4.044   0.155   2.869 -0.5546  0.1239 -0.0036
 1907SOL    HW2 7626   4.107   0.091   2.902  0.4594  0.8734 -0.4580
 1907SOL    HW3 7627   3.959   0.115   2.885  0.0728 -1.6019 -0.7744
 1907SOL    MW4 7628   4.041   0.141   2.875 -0.3380 -0.0049 -0.1653
 1908SOL     OW 7629   1.848   4.296   3.625  0.1529 -0.4759 -0.1010
 1908SOL    HW2 7630   1.773   4.333   3.673 -1.9824 -2.1629 -2.0720
 1908SOL    HW3 7631   1.881   4.369   3.573 -0.9665 -0.0822 -0.2670
 1908SOL    MW4 7632   1.843   4.311   3.625 -0.2765 -0.6465 -0.3829
 1909SOL     OW 7633   4.273   0.506   2.868 -0.0028  0.4357 -0.5093
 1909SOL    HW2 7634   4.278   0.601   2.882  2.0658  0.4991 -1.5674
 1909SOL    HW3 7635   4.281   0.495   2.774 -1.3683 -0.7417 -0.4923
 1909SOL    MW4 7636   4.275   0.517   2.858  0.0900  0.2887 -0.6466
 1910SOL     OW 7637   4.272   0.771   2.949  0.0116 -0.1413 -0.3031
 1910SOL    HW2 7638   4.196   0.816   2.912 -0.1087  0.9483  1.1705
 1910SOL    HW3 7639   4.348   0.813   2.907 -0.1654  0.1226 -0.3613
 1910SOL    MW4 7640   4.272   0.783   2.939 -0.0276  0.0372 -0.1164
 1911SOL     OW 7641   4.035   0.892   2.860  0.5157  0.0112  0.2600
 1911SOL    HW2 7642   4.037   0.983   2.891 -0.1199  0.0581  0.1607
 1911SOL    HW3 7643   4.052   0.898   2.766 -3.8997  0.4169 -0.5928
 1911SOL    MW4 7644   4.038   0.905   2.852 -0.1507  0.0709  0.1344
 1912SOL     OW 7645   4.037   1.151   2.932 -0.0334 -0.4181  0.2581
 1912SOL    HW2 7646   4.029   1.158   3.027  1.2051  0.7442  0.2902
 1912SOL    HW3 7647   3.957   1.188   2.898  0.5630  1.4077  0.7954
 1912SOL    MW4 7648   4.026   1.157   2.940  0.2087 -0.0238  0.3332
 1913SOL     OW 7649   4.234   1.287   2.798 -0.1021 -0.0622  0.2411
 1913SOL    HW2 7650   4.180   1.221   2.841 -0.3117  0.2504  0.4611
 1913SOL    HW3 7651   4.219   1.273   2.705 -1.1307  0.4729  0.3047
 1913SOL    MW4 7652   4.225   1.277   2.791 -0.2654  0.0496  0.2785
 1914SOL     OW 7653   4.263   1.541   2.881  0.2198  0.0910  0.2761
 1914SOL    HW2 7654   4.176   1.577   2.864  1.2919  1.6567 -2.0902
 1914SOL    HW3 7655   4.256   1.449   2.858 -0.9181  0.1060  0.5324
 1914SOL    MW4 7656   4.251   1.534   2.876  0.2111  0.2995 -0.0023
 1915SOL     OW 7657   4.018   1.696   2.851  0.0744  0.0778 -0.3532
 1915SOL    HW2 7658   4.033   1.784   2.887  0.4009  0.4624 -1.4179
 1915SOL    HW3 7659   3.937   1.667   2.894  1.5318 -0.3033  2.2329
 1915SOL    MW4 7660   4.009   1.704   2.862  0.3097  0.0783 -0.1524
 1916SOL     OW 7661   4.040   1.945   2.948  0.4899 -0.0656 -0.1172
 1916SOL    HW2 7662   4.118   1.988   2.913  0.5435  1.2138  1.5143
 1916SOL    HW3 7663   3.967   1.987   2.903  0.5862  1.1906  0.8540
 1916SOL    MW4 7664   4.041   1.956   2.938  0.5097  0.2690  0.2262
 1917SOL     OW 7665   4.267   2.053   2.822 -0.1540 -0.4340  0.3465
 1917SOL    HW2 7666   4.273   2.144   2.851 -1.6294 -0.7759  1.7941
 1917SOL    HW3 7667   4.262   2.058   2.727  0.4904  0.9666  0.3848
 1917SOL    MW4 7668   4.267   2.066   2.814 -0.2637 -0.2943  0.5425
 1918SOL     OW 7669   4.279   2.319   2.891 -0.1115  0.2372 -0.1429
 1918SOL    HW2 7670   4.209   2.380   2.868 -0.5123 -0.3310 -0.4578
 1918SOL    HW3 7671   4.356   2.351   2.844 -0.2675  0.6201 -0.1391
 1918SOL    MW4 7672   4.280   2.331   2.882 -0.1850  0.2128 -0.1839
 1919SOL     OW 7673   4.054   2.446   2.825 -0.3947  0.0221 -0.7084
 1919SOL    HW2 7674   4.027   2.536   2.843  1.1155  0.4830 -0.6882
 1919SOL    HW3 7675   3.989   2.392   2.869 -0.2012  1.1060  0.9317
 1919SOL    MW4 7676   4.042   2.451   2.833 -0.1699  0.2259 -0.4894
 1920SOL     OW 7677   4.228   2.832   2.856  0.2372  0.0261 -0.0644
 1920SOL    HW2 7678   4.293   2.762   2.867  0.2956  0.2795  1.3852
 1920SOL    HW3 7679   4.145   2.790   2.878 -0.0553 -0.2109 -1.5893
 1920SOL    MW4 7680   4.226   2.817   2.860  0.2063  0.0283 -0.0743
 1921SOL     OW 7681   3.973   2.698   2.889  0.7540  0.2523  0.1176
 1921SOL    HW2 7682   3.908   2.766   2.868  0.8848  0.0082 -1.1447
 1921SOL    HW3 7683   3.969   2.689   2.984  0.3310  1.6295  0.2437
 1921SOL    MW4 7684   3.964   2.706   2.899  0.7155  0.4018 -0.0323
 1922SOL     OW 7685   4.283   3.099   2.920  0.0557  0.3224 -0.3171
 1922SOL    HW2 7686   4.204   3.149   2.900 -0.1290  0.4912  0.7784
 1922SOL    HW3 7687   4.262   3.010   2.893 -0.2797  0.4851 -0.5997
 1922SOL    MW4 7688   4.270   3.094   2.914 -0.0129  0.3661 -0.2099
 1923SOL     OW 7689   4.074   3.226   2.816  0.0612  0.0327  0.2099
 1923SOL    HW2 7690   4.094   3.310   2.857 -0.6737  0.3040  0.0154
 1923SOL    HW3 7691   4.077   3.244   2.722  2.1532 -0.6821  0.1173
 1923SOL    MW4 7692   4.077   3.239   2.809  0.2403 -0.0258  0.1721
 1924SOL     OW 7693   3.860   3.618   2.823 -0.0118  0.1195  0.1738
 1924SOL    HW2 7694   3.853   3.712   2.841  0.9143  0.4437 -1.0364
 1924SOL    HW3 7695   3.848   3.611   2.728  0.2534 -0.9474  0.2088
 1924SOL    MW4 7696   3.858   3.630   2.813  0.1454  0.0215  0.0188
 1925SOL     OW 7697   4.338   3.640   2.877  0.2733 -0.1351  0.1764
 1925SOL    HW2 7698   4.317   3.732   2.894 -1.0754  0.0272 -2.1192
 1925SOL    HW3 7699   4.258   3.593   2.901 -0.0086 -0.3862 -1.1953
 1925SOL    MW4 7700   4.324   3.646   2.882  0.0582 -0.1468 -0.3075
 1926SOL     OW 7701   4.260   3.899   2.913 -0.1024 -0.2075 -0.0685
 1926SOL    HW2 7702   4.181   3.930   2.869 -0.5384 -0.6408  0.3999
 1926SOL    HW3 7703   4.327   3.963   2.890 -0.5921  0.1686 -0.4578
 1926SOL    MW4 7704   4.259   3.911   2.904 -0.2245 -0.2151 -0.0580
 1927SOL     OW 7705   4.054   4.019   2.781  0.0276  0.0765  0.2964
 1927SOL    HW2 7706   4.048   4.104   2.826 -0.9197 -0.4015  1.0896
 1927SOL    HW3 7707   3.977   3.971   2.810  0.8043 -1.2427  0.1999
 1927SOL    MW4 7708   4.043   4.024   2.790  0.0051 -0.1606  0.3884
 1928SOL     OW 7709   4.061   4.263   2.942 -0.3056  0.0649 -0.3802
 1928SOL    HW2 7710   4.104   4.214   3.012 -1.2859  0.3843  0.4712
 1928SOL    HW3 7711   4.129   4.322   2.909  0.2579 -0.3226  0.0741
 1928SOL    MW4 7712   4.076   4.265   2.947 -0.3606  0.0560 -0.2079
 1929SOL     OW 7713   4.259   4.429   2.829  0.5750  0.2523 -0.2498
 1929SOL    HW2 7714   4.345   4.396   2.857 -0.3567 -1.7034  0.4078
 1929SOL    HW3 7715   4.260   4.420   2.734  0.5151 -1.2909 -0.1143
 1929SOL    MW4 7716   4.271   4.423   2.820  0.4442 -0.2093 -0.1452
 1930SOL     OW 7717   0.194   4.623   3.190  0.2231 -0.0714 -0.1695
 1930SOL    HW2 7718   0.262   4.685   3.215  0.5285 -0.9949  1.3860
 1930SOL    HW3 7719   0.224   4.539   3.226 -1.0043 -0.7826 -0.7708
 1930SOL    MW4 7720   0.207   4.620   3.198  0.1015 -0.2871 -0.0436
 1931SOL     OW 7721   1.494   4.590   4.413  0.0774 -0.0404  0.0419
 1931SOL    HW2 7722   1.556   4.653   4.376  0.1895  0.4807  1.0844
 1931SOL    HW3 7723   1.545   4.511   4.428  0.2665  0.0706 -0.0129
 1931SOL    MW4 7724   1.509   4.588   4.410  0.1171  0.0430  0.1722
 1932SOL     OW 7725   1.483   4.502   3.636 -0.1948 -0.6551  0.0779
 1932SOL    HW2 7726   1.388   4.511   3.637 -0.2643 -1.0727 -1.5313
 1932SOL    HW3 7727   1.500   4.412   3.665 -0.2243 -0.2904  1.2780
 1932SOL    MW4 7728   1.473   4.491   3.640 -0.2079 -0.6621  0.0239
 1933SOL     OW 7729   3.373   3.005   4.081 -0.2738 -0.2652  0.2088
 1933SOL    HW2 7730   3.374   2.921   4.036 -1.9607  0.0620 -0.4961
 1933SOL    HW3 7731   3.325   2.987   4.162 -2.2758  0.3940 -0.7930
 1933SOL    MW4 7732   3.367   2.991   4.086 -0.7605 -0.1351 -0.0164
 1934SOL     OW 7733   0.031   2.931   4.182 -0.2338 -0.0598 -0.1008
 1934SOL    HW2 7734  -0.033   3.001   4.170  0.4127  0.5961  0.2397
 1934SOL    HW3 7735   0.030   2.883   4.100 -0.0052  0.9111 -0.6748
 1934SOL    MW4 7736   0.022   2.934   4.170 -0.1183  0.1548 -0.1316
 1935SOL     OW 7737   4.445   1.150   3.231  0.0210 -0.1576  0.2625
 1935SOL    HW2 7738   4.445   1.140   3.136 -0.4363  0.0034  0.2462
 1935SOL    HW3 7739   4.533   1.182   3.251  0.4761 -1.2063  0.0016
 1935SOL    MW4 7740   4.457   1.153   3.221  0.0207 -0.2747  0.2259
 1936SOL     OW 7741   0.666   0.625   3.988 -0.2829  0.4379 -0.1612
 1936SOL    HW2 7742   0.742   0.604   4.042 -0.2420  0.5022 -0.1946
 1936SOL    HW3 7743   0.647   0.544   3.941  0.7375  0.8971 -1.3599
 1936SOL    MW4 7744   0.673   0.612   3.989 -0.1429  0.5070 -0.3237
 1937SOL     OW 7745   3.127   2.174   3.998 -0.3226  0.1796  0.2417
 1937SOL    HW2 7746   3.122   2.194   4.091  1.2351 -0.0420  0.3887
 1937SOL    HW3 7747   3.139   2.079   3.994  0.0734  0.2438 -0.1633
 1937SOL    MW4 7748   3.128   2.164   4.010 -0.0649  0.1588  0.2076
 1938SOL     OW 7749   0.239   1.507   3.237  0.1528 -0.5304  0.1578
 1938SOL    HW2 7750   0.322   1.539   3.273  0.0590  0.3436 -0.3769
 1938SOL    HW3 7751   0.241   1.533   3.145 -0.8310 -0.2472  0.2039
 1938SOL    MW4 7752   0.250   1.515   3.230  0.0106 -0.3777  0.0933
 1939SOL     OW 7753   0.585   3.647   3.626 -0.4431  0.5093  0.0968
 1939SOL    HW2 7754   0.620   3.619   3.541  1.3951  1.0253  0.6601
 1939SOL    HW3 7755   0.497   3.609   3.629 -0.3342  0.0339 -1.8027
 1939SOL    MW4 7756   0.578   3.638   3.615 -0.1862  0.5146 -0.0795
 1940SOL     OW 7757   0.023   1.632   3.351 -0.1657 -0.1393  0.3490
 1940SOL    HW2 7758  -0.045   1.609   3.288 -1.2661  1.9683  0.7123
 1940SOL    HW3 7759   0.100   1.584   3.322 -1.0237 -0.2598 -1.8088
 1940SOL    MW4 7760   0.024   1.623   3.339 -0.4241  0.1229  0.1123
 1941SOL     OW 7761   0.033   1.902   3.262 -0.2645  0.2764  0.1934
 1941SOL    HW2 7762   0.008   1.909   3.170  1.0600  1.7100 -0.0683
 1941SOL    HW3 7763   0.046   1.808   3.275  1.4517  0.2071 -1.6348
 1941SOL    MW4 7764   0.032   1.890   3.251  0.1367  0.4564 -0.0823
 1942SOL     OW 7765   0.410   2.427   3.302 -0.1096 -0.5512  0.1541
 1942SOL    HW2 7766   0.400   2.408   3.395  0.4616  0.5406  0.4410
 1942SOL    HW3 7767   0.398   2.522   3.295  0.2842 -0.5660 -0.8203
 1942SOL    MW4 7768   0.407   2.437   3.313  0.0177 -0.4091  0.0634
 1943SOL     OW 7769   4.458   2.708   3.151 -0.2812  0.1819  0.1400
 1943SOL    HW2 7770   4.532   2.756   3.188  0.3057  1.5395 -2.5941
 1943SOL    HW3 7771   4.381   2.760   3.175 -0.0743  0.1740  0.8099
 1943SOL    MW4 7772   4.457   2.721   3.159 -0.1765  0.3600 -0.1324
 1944SOL     OW 7773   2.195   1.052   4.644  0.5151  0.4831  0.3721
 1944SOL    HW2 7774   2.220   1.110   4.716 -0.1736 -1.2138  2.0270
 1944SOL    HW3 7775   2.190   1.109   4.567  1.4709  2.2920  1.6260
 1944SOL    MW4 7776   2.198   1.067   4.644  0.5503  0.4979  0.7559
 1945SOL     OW 7777   3.346   0.629   4.292  0.0602  0.2413 -0.2583
 1945SOL    HW2 7778   3.260   0.593   4.313  0.7889 -1.2365  0.3444
 1945SOL    HW3 7779   3.328   0.714   4.252 -1.6323  0.4291  0.8267
 1945SOL    MW4 7780   3.332   0.635   4.290 -0.0669  0.0711 -0.0356
 1946SOL     OW 7781   0.004   3.217   3.359 -0.0237  0.2338 -0.3080
 1946SOL    HW2 7782  -0.074   3.170   3.330  0.0928  0.4617 -0.9947
 1946SOL    HW3 7783  -0.009   3.307   3.329  1.1294 -0.0260 -1.6549
 1946SOL    MW4 7784  -0.008   3.222   3.352  0.1438  0.2296 -0.5763
 1947SOL     OW 7785   3.813   0.034   3.231 -0.3748  0.1511  0.2599
 1947SOL    HW2 7786   3.899   0.067   3.256  0.2914 -2.4402  1.6739
 1947SOL    HW3 7787   3.819   0.021   3.136  1.4370 -1.5601  0.5502
 1947SOL    MW4 7788   3.826   0.036   3.222 -0.0479 -0.4166  0.4848
 1948SOL     OW 7789   4.279   0.504   3.319  0.0073 -0.2167 -0.8575
 1948SOL    HW2 7790   4.191   0.475   3.296  0.2512 -1.4835 -0.2524
 1948SOL    HW3 7791   4.283   0.495   3.415  0.8695 -0.4087 -0.9085
 1948SOL    MW4 7792   4.268   0.499   3.329  0.1532 -0.4092 -0.7844
 1949SOL     OW 7793   4.212   2.849   3.286  0.4818 -0.1685 -0.1214
 1949SOL    HW2 7794   4.135   2.838   3.230 -0.8522  1.2488  1.4148
 1949SOL    HW3 7795   4.248   2.934   3.260 -0.2129  0.5531  1.2231
 1949SOL    MW4 7796   4.207   2.859   3.275  0.2142  0.1137  0.2587
 1950SOL     OW 7797   0.263   3.871   3.370 -0.7884  0.0494 -0.3794
 1950SOL    HW2 7798   0.225   3.862   3.458  0.2945 -0.2871  0.0636
 1950SOL    HW3 7799   0.272   3.781   3.339 -0.7177  0.1471 -0.6368
 1950SOL    MW4 7800   0.259   3.858   3.378 -0.6362  0.0179 -0.3549
 1951SOL     OW 7801   1.205   3.029   3.802  0.4063  0.2498  0.0203
 1951SOL    HW2 7802   1.259   2.997   3.873  0.6629  1.4151  0.3431
 1951SOL    HW3 7803   1.127   3.064   3.844  0.8531  1.5581 -0.2073
 1951SOL    MW4 7804   1.202   3.029   3.817  0.4991  0.5761  0.0329
 1952SOL     OW 7805   0.167   4.229   3.943 -0.2919 -0.0808  0.2158
 1952SOL    HW2 7806   0.259   4.257   3.941 -0.5556  0.7609 -0.9500
 1952SOL    HW3 7807   0.167   4.150   3.998  1.3605 -0.9210 -0.9349
 1952SOL    MW4 7808   0.179   4.222   3.950 -0.1087 -0.0806 -0.0898
 1953SOL     OW 7809   0.031   4.282   3.182  0.4081  0.5977 -0.3823
 1953SOL    HW2 7810  -0.041   4.315   3.236  0.0973  0.7865 -0.9066
 1953SOL    HW3 7811   0.110   4.312   3.227  0.1817 -0.1508  0.5387
 1953SOL    MW4 7812   0.032   4.290   3.195  0.3373  0.5239 -0.3300
 1954SOL     OW 7813   1.329   0.108   3.366 -0.0353  0.1258  0.2928
 1954SOL    HW2 7814   1.245   0.081   3.328  0.9897  0.5921 -2.3838
 1954SOL    HW3 7815   1.336   0.201   3.345  2.2091 -0.4259 -1.6306
 1954SOL    MW4 7816   1.319   0.116   3.358  0.3960  0.1145 -0.3141
 1955SOL     OW 7817   0.425   4.275   3.962 -0.2536  0.5124  0.3213
 1955SOL    HW2 7818   0.475   4.193   3.966 -0.4068  0.4224  0.3747
 1955SOL    HW3 7819   0.455   4.317   3.882 -0.7200  0.0540 -0.0961
 1955SOL    MW4 7820   0.436   4.269   3.952 -0.3354  0.4400  0.2732
 1956SOL     OW 7821   3.599   0.890   4.137 -0.3608  0.5679  0.2623
 1956SOL    HW2 7822   3.508   0.866   4.120 -0.7529  1.7064  0.6874
 1956SOL    HW3 7823   3.600   0.919   4.228  0.6962 -0.6775  0.6509
 1956SOL    MW4 7824   3.587   0.891   4.146 -0.2730  0.5538  0.3697
 1957SOL     OW 7825   2.623   0.426   3.750 -0.5511 -0.8634 -0.1128
 1957SOL    HW2 7826   2.605   0.462   3.837  0.7322 -1.2507  0.3175
 1957SOL    HW3 7827   2.637   0.333   3.765  0.4007 -0.8085 -0.6346
 1957SOL    MW4 7828   2.623   0.419   3.763 -0.2562 -0.9073 -0.1249
 1958SOL     OW 7829   0.657   0.731   3.245  0.1491  0.4657  0.0749
 1958SOL    HW2 7830   0.735   0.782   3.266  0.1147  0.0805  1.1299
 1958SOL    HW3 7831   0.586   0.774   3.292  0.3219 -1.2708  2.0078
 1958SOL    MW4 7832   0.657   0.743   3.254  0.1674  0.1858  0.4691
 1959SOL     OW 7833   2.478   1.284   3.361 -0.1871 -0.2537 -0.3127
 1959SOL    HW2 7834   2.466   1.363   3.309 -0.2361 -1.2510 -1.8318
 1959SOL    HW3 7835   2.404   1.229   3.338 -0.5629 -0.4549  1.3104
 1959SOL    MW4 7836   2.467   1.287   3.351 -0.2431 -0.4118 -0.2990
 1960SOL     OW 7837   0.466   1.138   3.279 -0.2922  0.1397  0.4167
 1960SOL    HW2 7838   0.546   1.182   3.308 -0.4850  0.1650  0.9056
 1960SOL    HW3 7839   0.470   1.142   3.183  0.1772  0.3462  0.4454
 1960SOL    MW4 7840   0.477   1.144   3.270 -0.2557  0.1703  0.4850
 1961SOL     OW 7841   1.145   0.770   3.229 -0.4014  0.1764 -0.2218
 1961SOL    HW2 7842   1.120   0.762   3.137 -2.1695 -0.4703  0.2919
 1961SOL    HW3 7843   1.146   0.680   3.261 -2.2118  0.5713  0.9961
 1961SOL    MW4 7844   1.142   0.757   3.221 -0.8735  0.1432  0.0066
 1962SOL     OW 7845   0.692   1.280   3.343 -0.0246  0.4361  0.2445
 1962SOL    HW2 7846   0.707   1.252   3.433 -2.0861 -1.3312  0.0748
 1962SOL    HW3 7847   0.771   1.253   3.296 -0.0788 -1.0474  1.0018
 1962SOL    MW4 7848   0.705   1.273   3.349 -0.3037  0.0072  0.3221
 1963SOL     OW 7849   4.102   3.171   3.575  0.0942  0.2677  0.0126
 1963SOL    HW2 7850   4.151   3.226   3.635  0.3135  0.0401  0.0415
 1963SOL    HW3 7851   4.117   3.082   3.606 -0.8423  0.2333  0.4052
 1963SOL    MW4 7852   4.110   3.167   3.587 -0.0004  0.2332  0.0682
 1964SOL     OW 7853   0.467   1.912   3.170  0.0261  0.5161 -0.2690
 1964SOL    HW2 7854   0.396   1.967   3.204  0.8666  1.2292  0.3475
 1964SOL    HW3 7855   0.456   1.915   3.075 -1.6839 -0.6069 -0.1314
 1964SOL    MW4 7856   0.456   1.920   3.162 -0.0886  0.4620 -0.1695
 1965SOL     OW 7857   0.681   2.595   4.584 -0.1308  0.0311 -0.0718
 1965SOL    HW2 7858   0.742   2.588   4.511 -1.2648 -0.5550 -0.9600
 1965SOL    HW3 7859   0.648   2.507   4.597 -1.8219  0.5957 -0.4698
 1965SOL    MW4 7860   0.685   2.583   4.576 -0.5035  0.0283 -0.2415
 1966SOL     OW 7861   0.648   2.329   3.214 -0.2914 -0.2490  0.3104
 1966SOL    HW2 7862   0.571   2.364   3.259 -0.6710 -0.9960  0.2487
 1966SOL    HW3 7863   0.722   2.367   3.261 -0.7021  1.2584 -0.2600
 1966SOL    MW4 7864   0.648   2.338   3.226 -0.3957 -0.1487  0.2270
 1967SOL     OW 7865   3.381   2.282   3.944 -0.6264 -0.2617  0.0619
 1967SOL    HW2 7866   3.288   2.264   3.949 -0.8685  1.3913  2.0003
 1967SOL    HW3 7867   3.423   2.200   3.973 -1.5275 -0.3951  1.0225
 1967SOL    MW4 7868   3.375   2.269   3.949 -0.7772 -0.0612  0.4444
 1968SOL     OW 7869   0.407   2.719   2.929  0.1728 -0.2072 -0.4687
 1968SOL    HW2 7870   0.413   2.623   2.925 -0.3382 -0.1984 -1.3032
 1968SOL    HW3 7871   0.482   2.750   2.878  0.6061 -0.1596  0.1883
 1968SOL    MW4 7872   0.418   2.710   2.922  0.1626 -0.1998 -0.4921
 1969SOL     OW 7873   0.649   3.120   3.211  0.6189 -0.2083  0.1013
 1969SOL    HW2 7874   0.644   3.031   3.245 -0.7119 -0.0459  0.3593
 1969SOL    HW3 7875   0.576   3.166   3.254  0.3600  0.6086 -1.1993
 1969SOL    MW4 7876   0.639   3.114   3.221  0.4092 -0.0791 -0.0362
 1970SOL     OW 7877   0.873   3.250   3.328 -0.3928  0.4043 -0.0251
 1970SOL    HW2 7878   0.800   3.213   3.278 -0.1977 -0.5801  0.3958
 1970SOL    HW3 7879   0.950   3.201   3.297 -0.3254 -0.4743  1.4878
 1970SOL    MW4 7880   0.874   3.239   3.317 -0.3582  0.1585  0.2300
 1971SOL     OW 7881   0.849   1.185   3.580 -0.0544  0.0402 -0.2805
 1971SOL    HW2 7882   0.936   1.226   3.575 -0.1358  0.0874 -1.4591
 1971SOL    HW3 7883   0.867   1.092   3.592  0.1346  0.3497  2.0830
 1971SOL    MW4 7884   0.863   1.178   3.581 -0.0402  0.0872 -0.1241
 1972SOL     OW 7885   0.500   3.514   3.191  0.0628  0.4471  0.2486
 1972SOL    HW2 7886   0.488   3.425   3.226  0.3866  0.3417  0.0890
 1972SOL    HW3 7887   0.567   3.553   3.247 -0.3472  0.7233  0.5546
 1972SOL    MW4 7888   0.507   3.507   3.203  0.0514  0.4696  0.2679
 1973SOL     OW 7889   0.544   3.795   4.260 -0.0216 -0.3871 -0.2163
 1973SOL    HW2 7890   0.471   3.806   4.200 -1.0733 -0.2698  1.0615
 1973SOL    HW3 7891   0.565   3.884   4.290  0.0898 -0.5029  0.0550
 1973SOL    MW4 7892   0.537   3.808   4.256 -0.1457 -0.3869 -0.0119
 1974SOL     OW 7893   0.720   3.888   3.245 -0.3218 -0.1233  0.1490
 1974SOL    HW2 7894   0.795   3.916   3.298 -0.0595 -0.0568 -0.2561
 1974SOL    HW3 7895   0.643   3.918   3.294 -0.1079 -0.9042  0.9748
 1974SOL    MW4 7896   0.720   3.896   3.259 -0.2590 -0.2175  0.2045
 1975SOL     OW 7897   0.193   3.873   3.642  0.3919 -0.2863  0.1639
 1975SOL    HW2 7898   0.170   3.966   3.655 -0.1261 -0.4713  0.5816
 1975SOL    HW3 7899   0.288   3.870   3.658  0.7376  0.4945 -1.6675
 1975SOL    MW4 7900   0.203   3.885   3.646  0.3691 -0.2077 -0.0226
 1976SOL     OW 7901   1.426   4.153   3.996  0.0118 -0.2222  0.1351
 1976SOL    HW2 7902   1.387   4.178   4.080 -0.4247  2.2087 -0.7354
 1976SOL    HW3 7903   1.412   4.059   3.990 -0.9734 -0.2485  2.2711
 1976SOL    MW4 7904   1.419   4.144   4.006 -0.1757  0.0951  0.3021
 1977SOL     OW 7905   2.924   2.157   3.809 -0.1057  0.1194 -0.3061
 1977SOL    HW2 7906   2.996   2.158   3.872 -0.0328 -0.0860 -0.3846
 1977SOL    HW3 7907   2.921   2.247   3.775 -0.2882  0.2847  0.1478
 1977SOL    MW4 7908   2.933   2.169   3.813 -0.1201  0.1141 -0.2565
 1978SOL     OW 7909   3.170   1.899   3.964  0.3162  0.0672 -0.2147
 1978SOL    HW2 7910   3.196   1.892   3.872 -1.4400 -0.9424 -0.6580
 1978SOL    HW3 7911   3.250   1.880   4.013  1.3334  0.8980 -1.5182
 1978SOL    MW4 7912   3.184   1.895   3.958  0.2187  0.0436 -0.4452
 1979SOL     OW 7913   1.150   4.418   3.353 -0.1018 -0.2726 -0.4965
 1979SOL    HW2 7914   1.217   4.382   3.295  0.9979  1.6165 -0.4455
 1979SOL    HW3 7915   1.076   4.358   3.343  1.4311 -2.1796 -0.8477
 1979SOL    MW4 7916   1.149   4.405   3.344  0.2456 -0.2749 -0.5361
 1980SOL     OW 7917   3.244   3.383   4.366 -0.3308  0.1488  0.0502
 1980SOL    HW2 7918   3.188   3.343   4.432 -0.3347 -0.1811 -0.1545
 1980SOL    HW3 7919   3.199   3.367   4.283  1.0777 -1.9254 -0.3494
 1980SOL    MW4 7920   3.231   3.376   4.364 -0.1455 -0.1684 -0.0295
 1981SOL     OW 7921   0.926   0.516   4.400 -0.1051  0.1383  0.1568
 1981SOL    HW2 7922   0.972   0.596   4.425 -0.2545 -0.1986  1.5433
 1981SOL    HW3 7923   0.988   0.446   4.420 -0.3775 -0.1644 -0.0652
 1981SOL    MW4 7924   0.941   0.518   4.406 -0.1607  0.0539  0.3104
 1982SOL     OW 7925   1.322   4.236   4.256  0.0003 -0.5467  0.4766
 1982SOL    HW2 7926   1.373   4.297   4.309  2.1229 -0.7138 -1.3043
 1982SOL    HW3 7927   1.234   4.275   4.252  1.1803  2.1508 -0.2402
 1982SOL    MW4 7928   1.317   4.249   4.262  0.4360 -0.2129  0.1471
 1983SOL     OW 7929   3.704   1.045   3.761 -0.2805  0.3578 -0.4097
 1983SOL    HW2 7930   3.750   1.096   3.694  0.3750  1.5375  0.9241
 1983SOL    HW3 7931   3.621   1.091   3.775  0.2745  1.0265  0.7343
 1983SOL    MW4 7932   3.699   1.057   3.754 -0.1208  0.6016 -0.0827
 1984SOL     OW 7933   1.922   0.459   3.653  0.2679 -0.4606  0.4607
 1984SOL    HW2 7934   1.965   0.503   3.726  1.1729  0.7255 -0.7361
 1984SOL    HW3 7935   1.837   0.502   3.646  0.6989  0.3447  0.0161
 1984SOL    MW4 7936   1.916   0.471   3.661  0.4442 -0.1978  0.2442
 1985SOL     OW 7937   0.871   1.671   3.298 -0.0324 -0.0017  0.3920
 1985SOL    HW2 7938   0.858   1.667   3.393 -0.4455 -0.8473  0.2993
 1985SOL    HW3 7939   0.806   1.611   3.262  0.5616 -0.1777 -0.3926
 1985SOL    MW4 7940   0.860   1.663   3.306 -0.0086 -0.1365  0.2763
 1986SOL     OW 7941   2.218   3.091   4.570 -0.3762  0.0999 -0.0100
 1986SOL    HW2 7942   2.138   3.061   4.612  0.0694 -0.9780  0.0909
 1986SOL    HW3 7943   2.197   3.179   4.537 -1.4433  0.0082  0.4139
 1986SOL    MW4 7944   2.205   3.099   4.571 -0.4582 -0.0544  0.0593
 1987SOL     OW 7945   1.515   1.873   3.676  0.2716  0.4106  0.4944
 1987SOL    HW2 7946   1.557   1.950   3.638  3.0311 -1.5611 -0.7120
 1987SOL    HW3 7947   1.545   1.871   3.767  1.8400 -0.2962 -0.0219
 1987SOL    MW4 7948   1.525   1.883   3.683  0.8426  0.0572  0.2671
 1988SOL     OW 7949   0.029   0.392   2.963  0.1091 -0.0443 -0.3687
 1988SOL    HW2 7950  -0.056   0.423   2.931 -0.9398 -0.8613  1.5780
 1988SOL    HW3 7951   0.019   0.386   3.058  2.3245 -0.2335 -0.1099
 1988SOL    MW4 7952   0.017   0.395   2.971  0.2630 -0.1770 -0.0777
 1989SOL     OW 7953   0.680   2.059   3.263  0.1719 -0.0127 -0.1361
 1989SOL    HW2 7954   0.603   2.019   3.222 -0.5358  1.2710 -0.0919
 1989SOL    HW3 7955   0.678   2.150   3.234  2.2892 -0.2212 -0.9814
 1989SOL    MW4 7956   0.670   2.065   3.254  0.3579  0.1292 -0.2418
 1990SOL     OW 7957   1.137   2.334   3.240 -0.1836  0.2220  0.1040
 1990SOL    HW2 7958   1.218   2.371   3.273 -0.3654  0.9604 -0.2586
 1990SOL    HW3 7959   1.143   2.345   3.145 -0.5133 -0.1148  0.0428
 1990SOL    MW4 7960   1.148   2.340   3.231 -0.2510  0.2750  0.0481
 1991SOL     OW 7961   0.873   2.466   3.290  0.1350 -0.2414 -0.1831
 1991SOL    HW2 7962   0.956   2.421   3.274  0.3272 -0.0225  0.2053
 1991SOL    HW3 7963   0.876   2.491   3.382  1.0969  2.7394 -0.9764
 1991SOL    MW4 7964   0.884   2.464   3.300  0.2873  0.1808 -0.2365
 1992SOL     OW 7965   1.288   2.719   3.666  0.0005 -0.0165 -0.7283
 1992SOL    HW2 7966   1.223   2.751   3.603 -0.0904 -0.8256 -1.0575
 1992SOL    HW3 7967   1.372   2.741   3.627 -0.0664  0.0315 -0.8465
 1992SOL    MW4 7968   1.290   2.726   3.653 -0.0204 -0.1169 -0.7873
 1993SOL     OW 7969   3.831   2.402   3.763 -0.0152  0.0544  0.3839
 1993SOL    HW2 7970   3.835   2.319   3.715  0.6144 -0.2304  0.9227
 1993SOL    HW3 7971   3.914   2.445   3.743  1.2122 -1.0317  2.9313
 1993SOL    MW4 7972   3.843   2.397   3.754  0.2298 -0.1265  0.7911
 1994SOL     OW 7973   1.087   3.098   3.231 -0.4906 -0.1248  0.0907
 1994SOL    HW2 7974   1.160   3.144   3.272 -1.1614 -0.5627  1.8199
 1994SOL    HW3 7975   1.094   3.119   3.138  2.3045 -0.7949  0.1173
 1994SOL    MW4 7976   1.098   3.107   3.224 -0.2103 -0.2710  0.3223
 1995SOL     OW 7977   2.287   0.934   3.656 -0.1162  0.4995 -0.1248
 1995SOL    HW2 7978   2.199   0.964   3.680 -0.0271  0.3786  0.3515
 1995SOL    HW3 7979   2.281   0.916   3.562 -0.3930  1.2137 -0.2425
 1995SOL    MW4 7980   2.275   0.936   3.647 -0.1410  0.5778 -0.0775
 1996SOL     OW 7981   0.881   3.511   3.238 -0.0435 -0.6715  0.1058
 1996SOL    HW2 7982   0.877   3.419   3.265  1.7263 -0.7548  0.1101
 1996SOL    HW3 7983   0.879   3.509   3.142 -2.6650 -0.5575  0.1235
 1996SOL    MW4 7984   0.880   3.499   3.229 -0.1559 -0.6674  0.1087
 1997SOL     OW 7985   0.883   0.366   3.264 -0.2106 -0.1494  0.2639
 1997SOL    HW2 7986   0.886   0.277   3.301 -0.6094  0.3837  1.6132
 1997SOL    HW3 7987   0.804   0.404   3.302  1.5080  1.7837  1.9899
 1997SOL    MW4 7988   0.873   0.359   3.274 -0.0364  0.1760  0.6696
 1998SOL     OW 7989   1.126   3.597   3.363 -0.7033  0.0349  0.1317
 1998SOL    HW2 7990   1.094   3.587   3.452 -2.3244 -1.0517 -0.5474
 1998SOL    HW3 7991   1.056   3.561   3.308  0.1295  0.9724 -1.5910
 1998SOL    MW4 7992   1.113   3.591   3.367 -0.8073  0.0152 -0.1852
 1999SOL     OW 7993   0.941   4.001   3.399 -0.1299  0.0082  0.1223
 1999SOL    HW2 7994   1.007   3.957   3.346 -0.2725 -0.2825  0.1872
 1999SOL    HW3 7995   0.974   3.995   3.488  1.2547  2.4934 -0.1591
 1999SOL    MW4 7996   0.954   3.994   3.403  0.0340  0.2977  0.0937
 2000SOL     OW 7997   0.877   0.122   3.376  0.1371  0.3969 -0.4290
 2000SOL    HW2 7998   0.944   0.074   3.328  1.6918  2.6183 -0.5355
 2000SOL    HW3 7999   0.794   0.085   3.344  1.2634 -2.3756 -0.2839
 2000SOL    MW4 8000   0.875   0.111   3.365  0.4908  0.3242 -0.4239
 2001SOL     OW 8001   1.109   0.225   3.659 -0.3139 -0.4024  0.1948
 2001SOL    HW2 8002   1.131   0.242   3.751 -0.7398 -0.8204  0.3758
 2001SOL    HW3 8003   1.194   0.219   3.615 -0.0498 -1.7649  0.8524
 2001SOL    MW4 8004   1.123   0.227   3.665 -0.3352 -0.6373  0.3054
 2002SOL     OW 8005   1.710   0.450   3.222  0.0898  0.5692 -0.4098
 2002SOL    HW2 8006   1.787   0.476   3.273  1.1900 -0.2104 -1.6468
 2002SOL    HW3 8007   1.688   0.364   3.256 -1.2711  1.4706  1.0853
 2002SOL    MW4 8008   1.717   0.442   3.233  0.0554  0.5853 -0.3757
 2003SOL     OW 8009   1.206   4.456   3.626  0.2234  0.0815 -0.0392
 2003SOL    HW2 8010   1.128   4.477   3.677  0.6224 -1.7640  1.4170
 2003SOL    HW3 8011   1.176   4.450   3.536 -0.8466  1.7076  0.1942
 2003SOL    MW4 8012   1.192   4.458   3.621  0.1348  0.0526  0.1837
 2004SOL     OW 8013   3.913   0.226   4.574  0.0510  0.3028 -0.0918
 2004SOL    HW2 8014   3.871   0.301   4.617  0.2386  0.8615 -0.8739
 2004SOL    HW3 8015   3.861   0.151   4.602 -1.1881  0.9281 -0.6709
 2004SOL    MW4 8016   3.901   0.226   4.583 -0.0877  0.4590 -0.2714
 2005SOL     OW 8017   1.835   0.024   3.871  0.1104 -0.5196 -0.1185
 2005SOL    HW2 8018   1.743   0.035   3.847 -0.2814 -0.7621  1.2139
 2005SOL    HW3 8019   1.883   0.075   3.807 -0.9484 -0.5014 -0.9097
 2005SOL    MW4 8020   1.829   0.032   3.860 -0.0810 -0.5492 -0.0471
 2006SOL     OW 8021   4.420   3.708   4.448  0.0160  0.4059 -0.6694
 2006SOL    HW2 8022   4.393   3.732   4.360 -0.1878 -0.8601 -0.9499
 2006SOL    HW3 8023   4.340   3.715   4.501 -0.1271 -0.0294 -0.8290
 2006SOL    MW4 8024   4.406   3.712   4.444 -0.0298  0.1815 -0.7274
 2007SOL     OW 8025   1.112   1.337   3.587  0.2093  0.7900  0.0137
 2007SOL    HW2 8026   1.144   1.427   3.589  3.2045 -0.1948 -0.7909
 2007SOL    HW3 8027   1.126   1.308   3.497 -1.2802 -0.2814  0.1146
 2007SOL    MW4 8028   1.118   1.345   3.576  0.4079  0.5187 -0.0791
 2008SOL     OW 8029   2.872   4.506   3.785  0.3041  0.0781 -0.2546
 2008SOL    HW2 8030   2.926   4.445   3.736  0.9086  0.4111 -0.0057
 2008SOL    HW3 8031   2.841   4.569   3.720 -0.0712 -0.3090 -0.4560
 2008SOL    MW4 8032   2.875   4.506   3.770  0.3344  0.0710 -0.2483
 2009SOL     OW 8033   1.809   1.149   3.270 -0.4467  0.3178  0.0102
 2009SOL    HW2 8034   1.888   1.193   3.300 -0.5692  0.1585  0.5657
 2009SOL    HW3 8035   1.737   1.206   3.299 -0.5294  0.5103 -0.5738
 2009SOL    MW4 8036   1.810   1.162   3.278 -0.4738  0.3222  0.0064
 2010SOL     OW 8037   0.024   3.477   3.287  0.1285 -0.1284  0.1589
 2010SOL    HW2 8038  -0.053   3.531   3.302 -0.3529 -1.0045  0.9281
 2010SOL    HW3 8039   0.032   3.471   3.192 -0.6487  0.0935  0.0775
 2010SOL    MW4 8040   0.015   3.483   3.277 -0.0376 -0.2147  0.2496
 2011SOL     OW 8041   1.109   2.813   3.239 -0.1212  0.3939 -0.4940
 2011SOL    HW2 8042   1.194   2.773   3.220 -0.1419  0.9346 -1.8316
 2011SOL    HW3 8043   1.120   2.905   3.213 -1.0408  0.5186 -0.4673
 2011SOL    MW4 8044   1.122   2.820   3.233 -0.2453  0.4817 -0.6669
 2012SOL     OW 8045   1.353   1.918   3.235 -0.2834  0.4922 -0.3231
 2012SOL    HW2 8046   1.290   1.984   3.264 -0.3520  0.3082 -0.0405
 2012SOL    HW3 8047   1.328   1.839   3.283 -1.9881 -0.5289 -2.7924
 2012SOL    MW4 8048   1.341   1.916   3.245 -0.5174  0.3332 -0.6116
 2013SOL     OW 8049   1.583   2.041   3.303  0.3158  0.0546 -0.1603
 2013SOL    HW2 8050   1.658   1.987   3.276  0.5747 -0.0308  0.7179
 2013SOL    HW3 8051   1.506   1.988   3.282  0.5643 -0.6210  0.6004
 2013SOL    MW4 8052   1.583   2.027   3.297  0.3827 -0.0458  0.0559
 2014SOL     OW 8053   1.361   2.452   3.330  0.0951 -0.0854  0.1172
 2014SOL    HW2 8054   1.360   2.533   3.280 -0.4091 -0.6377 -0.7628
 2014SOL    HW3 8055   1.442   2.408   3.304 -0.0188 -0.2343  0.0154
 2014SOL    MW4 8056   1.372   2.457   3.320  0.0135 -0.1779 -0.0123
 2015SOL     OW 8057   3.598   3.620   4.596 -0.1905 -0.3046 -0.1553
 2015SOL    HW2 8058   3.640   3.691   4.546 -1.2617  0.4585  0.0337
 2015SOL    HW3 8059   3.568   3.559   4.528 -0.2753 -0.0288 -0.3677
 2015SOL    MW4 8060   3.600   3.622   4.580 -0.3430 -0.1676 -0.1584
 2016SOL     OW 8061   1.364   2.715   3.211  0.5836  0.6140 -0.1813
 2016SOL    HW2 8062   1.444   2.750   3.251  0.2959  0.2219  0.7385
 2016SOL    HW3 8063   1.381   2.720   3.117  1.6914  0.5428  0.0016
 2016SOL    MW4 8064   1.377   2.721   3.204  0.6918  0.5528 -0.0358
 2017SOL     OW 8065   1.546   2.808   3.573 -0.1720  0.8263 -0.1692
 2017SOL    HW2 8066   1.603   2.766   3.638 -1.2260 -0.3623 -0.0058
 2017SOL    HW3 8067   1.517   2.888   3.617 -0.6898  0.1523  0.7471
 2017SOL    MW4 8068   1.550   2.813   3.588 -0.3794  0.5806 -0.0268
 2018SOL     OW 8069   1.588   3.137   3.215 -0.1939 -0.1863  0.5534
 2018SOL    HW2 8070   1.667   3.179   3.246  0.2762 -0.6161 -0.0409
 2018SOL    HW3 8071   1.587   3.052   3.258 -0.7267  0.1172  1.1426
 2018SOL    MW4 8072   1.598   3.131   3.225 -0.2022 -0.2030  0.5527
 2019SOL     OW 8073   1.345   3.503   3.237 -0.0555  0.3059 -0.3482
 2019SOL    HW2 8074   1.283   3.548   3.294 -0.6842  1.4283 -1.8884
 2019SOL    HW3 8075   1.341   3.412   3.265 -0.9959  0.6958  0.8241
 2019SOL    MW4 8076   1.336   3.497   3.248 -0.2626  0.5054 -0.3967
 2020SOL     OW 8077   0.226   0.039   3.940  0.1820 -0.0695 -0.0527
 2020SOL    HW2 8078   0.307   0.047   3.889  0.0899  1.4659  0.0257
 2020SOL    HW3 8079   0.180  -0.035   3.900  1.3093 -0.5368 -0.5225
 2020SOL    MW4 8080   0.231   0.030   3.928  0.3186  0.0714 -0.1043
 2021SOL     OW 8081   1.601   3.614   3.301  0.2047 -0.1000 -0.4677
 2021SOL    HW2 8082   1.674   3.559   3.274  0.1764 -0.6615  0.5549
 2021SOL    HW3 8083   1.523   3.565   3.275  0.1742 -0.7874  0.8765
 2021SOL    MW4 8084   1.600   3.600   3.294  0.1969 -0.2648 -0.1554
 2022SOL     OW 8085   1.797   4.009   3.241 -0.2803 -0.1889  0.7756
 2022SOL    HW2 8086   1.719   3.961   3.211  0.3958 -0.0524 -1.2719
 2022SOL    HW3 8087   1.781   4.099   3.213 -0.0564  0.1478  1.7097
 2022SOL    MW4 8088   1.784   4.015   3.234 -0.1615 -0.1265  0.6287
 2023SOL     OW 8089   0.543   0.995   3.884 -0.1578 -0.1688 -0.3531
 2023SOL    HW2 8090   0.529   1.070   3.942  0.7296 -0.3757  0.1370
 2023SOL    HW3 8091   0.486   0.927   3.919 -0.9102  0.2462 -0.7542
 2023SOL    MW4 8092   0.534   0.996   3.896 -0.1400 -0.1413 -0.3414
 2024SOL     OW 8093   0.416   1.994   3.913  0.7000 -0.0410  0.7547
 2024SOL    HW2 8094   0.441   1.962   4.000 -0.4590  1.7889  1.7751
 2024SOL    HW3 8095   0.321   1.981   3.909  0.9361 -1.5012 -0.8367
 2024SOL    MW4 8096   0.406   1.988   3.924  0.5783  0.0078  0.6793
 2025SOL     OW 8097   2.072   1.093   3.763  0.2066  0.5404  0.3047
 2025SOL    HW2 8098   1.982   1.068   3.742  0.1713  1.0020 -0.1130
 2025SOL    HW3 8099   2.071   1.113   3.856  0.1058 -0.4380  0.5194
 2025SOL    MW4 8100   2.060   1.092   3.772  0.1886  0.4722  0.2779
 2026SOL     OW 8101   2.316   0.676   3.761  0.4634 -0.3395  0.5110
 2026SOL    HW2 8102   2.326   0.610   3.692 -0.9965 -0.1266  0.0825
 2026SOL    HW3 8103   2.327   0.759   3.716 -1.2334 -0.1691  0.3627
 2026SOL    MW4 8104   2.319   0.678   3.746  0.0469 -0.2889  0.4349
 2027SOL     OW 8105   1.869   4.435   3.992 -0.5610 -0.3372 -0.0062
 2027SOL    HW2 8106   1.845   4.510   3.938 -0.7456 -1.1145 -1.0052
 2027SOL    HW3 8107   1.938   4.391   3.943 -0.6779 -1.0038  0.4249
 2027SOL    MW4 8108   1.874   4.439   3.979 -0.6008 -0.5277 -0.0811
 2028SOL     OW 8109   3.191   3.767   3.964  0.5971 -0.5930 -0.1933
 2028SOL    HW2 8110   3.254   3.792   3.897  0.0745  1.4392  0.0327
 2028SOL    HW3 8111   3.233   3.788   4.047 -0.4918  1.1889 -0.0513
 2028SOL    MW4 8112   3.205   3.774   3.966  0.3845 -0.0898 -0.1447
 2029SOL     OW 8113   1.924   0.100   3.386 -0.0291 -0.5901 -0.1551
 2029SOL    HW2 8114   1.936   0.142   3.471  0.5982 -2.2608  0.5946
 2029SOL    HW3 8115   2.011   0.103   3.346 -0.4171  0.6059 -0.9641
 2029SOL    MW4 8116   1.937   0.106   3.392  0.0024 -0.6527 -0.1629
 2030SOL     OW 8117   1.498   0.857   3.964 -0.6576  0.2611  0.1983
 2030SOL    HW2 8118   1.502   0.839   4.058 -0.0508 -0.1123  0.1051
 2030SOL    HW3 8119   1.519   0.773   3.922  0.3460  0.7226 -0.2543
 2030SOL    MW4 8120   1.501   0.843   3.971 -0.4451  0.2727  0.1263
 2031SOL     OW 8121   0.215   0.539   3.348  0.3425  0.0397  0.7603
 2031SOL    HW2 8122   0.277   0.493   3.290 -1.0607 -0.1383 -0.6213
 2031SOL    HW3 8123   0.194   0.619   3.301  0.2151  0.5340  1.6591
 2031SOL    MW4 8124   0.221   0.543   3.334  0.1406  0.0815  0.6966
 2032SOL     OW 8125   0.448   2.806   4.349  0.2145  0.1654 -0.2027
 2032SOL    HW2 8126   0.506   2.872   4.386  0.3864 -0.0688 -0.0552
 2032SOL    HW3 8127   0.384   2.856   4.298 -1.1719  0.6537  1.9405
 2032SOL    MW4 8128   0.447   2.822   4.347  0.0543  0.1990  0.0995
 2033SOL     OW 8129   4.343   3.136   4.155 -0.3464 -0.0018 -0.2854
 2033SOL    HW2 8130   4.394   3.215   4.141 -0.2102 -0.2773 -1.4164
 2033SOL    HW3 8131   4.316   3.140   4.247 -2.2948  2.5203 -0.9267
 2033SOL    MW4 8132   4.346   3.147   4.166 -0.5855  0.2946 -0.5192
 2034SOL     OW 8133   2.008   1.529   3.223 -0.5829  0.3663 -0.1891
 2034SOL    HW2 8134   1.944   1.579   3.274 -0.4467  1.1601 -0.7743
 2034SOL    HW3 8135   2.093   1.566   3.248 -0.4308 -0.0233 -0.1332
 2034SOL    MW4 8136   2.011   1.541   3.233 -0.5449  0.4197 -0.2589
 2035SOL     OW 8137   1.157   1.242   3.328  0.4373 -0.3531  0.3532
 2035SOL    HW2 8138   1.148   1.323   3.279 -1.5387 -1.9527 -2.0247
 2035SOL    HW3 8139   1.233   1.198   3.289 -0.7529 -1.3384 -0.8716
 2035SOL    MW4 8140   1.166   1.247   3.317  0.0195 -0.6941 -0.1222
 2036SOL     OW 8141   1.810   1.890   3.228  0.0531 -0.0014  0.0706
 2036SOL    HW2 8142   1.887   1.942   3.249 -0.0012 -0.1818  0.7533
 2036SOL    HW3 8143   1.792   1.907   3.136 -0.2287  1.5290  0.3977
 2036SOL    MW4 8144   1.817   1.899   3.219  0.0087  0.1767  0.2038
 2037SOL     OW 8145   2.022   2.033   3.323  0.1317  0.7165  0.4621
 2037SOL    HW2 8146   2.114   2.008   3.317  0.1407  0.3500  1.8486
 2037SOL    HW3 8147   2.006   2.044   3.417 -0.7787  2.5485  0.1235
 2037SOL    MW4 8148   2.032   2.031   3.335  0.0128  0.9099  0.6004
 2038SOL     OW 8149   2.009   0.865   4.527  0.3535 -0.2349 -0.2355
 2038SOL    HW2 8150   1.928   0.915   4.535 -0.3960 -1.5290  0.5039
 2038SOL    HW3 8151   2.072   0.913   4.580 -0.6236 -0.6058  1.3059
 2038SOL    MW4 8152   2.006   0.878   4.535  0.1257 -0.4546  0.0654
 2039SOL     OW 8153   3.342   0.769   3.236  0.3505 -0.2672 -0.3015
 2039SOL    HW2 8154   3.409   0.817   3.285  0.1959 -1.1022  0.7546
 2039SOL    HW3 8155   3.261   0.815   3.257  0.1741 -1.0788  0.8664
 2039SOL    MW4 8156   3.340   0.782   3.246  0.3068 -0.4845 -0.0081
 2040SOL     OW 8157   2.059   2.288   3.212 -0.2751 -0.2570  0.0167
 2040SOL    HW2 8158   2.034   2.280   3.119 -3.6104 -0.0593  0.8320
 2040SOL    HW3 8159   2.038   2.203   3.250 -0.7156  0.2908  0.9963
 2040SOL    MW4 8160   2.053   2.276   3.204 -0.7733 -0.1586  0.2535
 2041SOL     OW 8161   2.046   2.857   3.335 -0.2054 -0.0357  0.4248
 2041SOL    HW2 8162   2.108   2.790   3.308  0.1888  0.1456  0.8756
 2041SOL    HW3 8163   2.078   2.888   3.419 -0.3589  0.7421  0.2103
 2041SOL    MW4 8164   2.058   2.852   3.342 -0.1736  0.0909  0.4559
 2042SOL     OW 8165   2.079   3.105   3.208  0.4291  0.1041  0.5126
 2042SOL    HW2 8166   2.062   3.017   3.242  0.8835 -0.2098 -0.0699
 2042SOL    HW3 8167   2.154   3.136   3.259  0.0615  0.2886  0.9487
 2042SOL    MW4 8168   2.086   3.097   3.219  0.4405  0.0870  0.4933
 2043SOL     OW 8169   1.682   3.973   3.719  0.3141  0.6139 -0.3445
 2043SOL    HW2 8170   1.742   3.986   3.645 -0.2529  1.0108 -0.7382
 2043SOL    HW3 8171   1.710   3.890   3.757  1.5794  1.1462 -0.0789
 2043SOL    MW4 8172   1.694   3.964   3.714  0.4062  0.7365 -0.3614
 2044SOL     OW 8173   1.837   3.220   3.311  0.2096  0.0717  0.0168
 2044SOL    HW2 8174   1.904   3.153   3.303 -0.9485 -1.2803  1.4366
 2044SOL    HW3 8175   1.818   3.223   3.405 -0.2680  1.8832 -0.1217
 2044SOL    MW4 8176   1.844   3.212   3.323 -0.0062  0.1323  0.1858
 2045SOL     OW 8177   1.830   3.470   3.237 -0.4600  0.4526  0.3651
 2045SOL    HW2 8178   1.830   3.377   3.258  1.5080  0.3439 -0.0100
 2045SOL    HW3 8179   1.824   3.473   3.141 -0.9909  0.7329  0.4036
 2045SOL    MW4 8180   1.829   3.459   3.227 -0.2704  0.4753  0.3207
 2046SOL     OW 8181   2.285   3.491   3.252 -0.3685  0.3708 -0.0443
 2046SOL    HW2 8182   2.273   3.490   3.157  0.2271  0.0082 -0.1143
 2046SOL    HW3 8183   2.281   3.399   3.278 -2.1341  0.5859  0.4881
 2046SOL    MW4 8184   2.283   3.479   3.243 -0.5228  0.3514  0.0167
 2047SOL     OW 8185   4.116   1.725   4.014 -0.0162  0.0880  0.8030
 2047SOL    HW2 8186   4.150   1.814   4.018  1.6215 -0.4430 -0.8001
 2047SOL    HW3 8187   4.030   1.734   3.973  1.4194  0.6237 -2.1926
 2047SOL    MW4 8188   4.109   1.738   4.009  0.3893  0.0886  0.1963
 2048SOL     OW 8189   2.499   3.857   3.224 -0.4134 -0.1244 -0.7362
 2048SOL    HW2 8190   2.493   3.771   3.267 -1.4869 -0.0370 -0.7048
 2048SOL    HW3 8191   2.416   3.900   3.245  0.4377  1.2359 -0.0972
 2048SOL    MW4 8192   2.487   3.851   3.233 -0.4427  0.0666 -0.6478
 2049SOL     OW 8193   1.720   4.270   3.153 -0.6362 -0.1231  0.3118
 2049SOL    HW2 8194   1.673   4.309   3.226 -0.4054 -0.7988  0.8200
 2049SOL    HW3 8195   1.663   4.286   3.077 -1.2974 -0.2281  0.7844
 2049SOL    MW4 8196   1.706   4.277   3.152 -0.6930 -0.2261  0.4412
 2050SOL     OW 8197   1.551   2.528   4.127  0.4789  0.1227  0.5959
 2050SOL    HW2 8198   1.464   2.515   4.166  0.0711  0.8029 -0.0765
 2050SOL    HW3 8199   1.553   2.468   4.052  0.2135  0.8375  0.0192
 2050SOL    MW4 8200   1.540   2.518   4.123  0.3900  0.3067  0.4311
 2051SOL     OW 8201   1.047   4.497   4.413  0.4007  0.0241 -0.1956
 2051SOL    HW2 8202   1.021   4.439   4.342  0.4730  1.2279 -1.2271
 2051SOL    HW3 8203   0.969   4.549   4.432  0.3405 -0.3862  0.7069
 2051SOL    MW4 8204   1.034   4.496   4.406  0.4023  0.1288 -0.2126
 2052SOL     OW 8205   2.278   0.902   3.386  0.4726 -0.3239  0.7005
 2052SOL    HW2 8206   2.357   0.859   3.353  0.7249  0.6575 -0.0125
 2052SOL    HW3 8207   2.206   0.843   3.361  0.8799 -0.7098  0.4318
 2052SOL    MW4 8208   2.279   0.888   3.378  0.5596 -0.2454  0.5710
 2053SOL     OW 8209   1.648   3.839   4.100  0.1526 -0.3450  0.4756
 2053SOL    HW2 8210   1.593   3.798   4.167  0.6612 -0.3143  0.9193
 2053SOL    HW3 8211   1.728   3.865   4.147  0.3366  0.0649 -0.0512
 2053SOL    MW4 8212   1.651   3.837   4.115  0.2440 -0.2869  0.4646
 2054SOL     OW 8213   1.940   0.499   3.359 -0.4498  0.1905 -0.3454
 2054SOL    HW2 8214   1.924   0.494   3.453 -0.0059 -2.5864 -0.3641
 2054SOL    HW3 8215   2.017   0.444   3.345 -0.1488  1.0601 -2.2637
 2054SOL    MW4 8216   1.948   0.491   3.370 -0.3515 -0.0611 -0.6010
 2055SOL     OW 8217   2.268   3.168   3.627  0.4911  0.4601  0.5242
 2055SOL    HW2 8218   2.219   3.232   3.678 -0.1353 -0.8760  1.6137
 2055SOL    HW3 8219   2.347   3.153   3.678  1.1860  1.1928 -0.3006
 2055SOL    MW4 8220   2.272   3.175   3.640  0.5002  0.3805  0.5591
 2056SOL     OW 8221   2.026   1.283   3.364 -0.6730  0.8342  0.4344
 2056SOL    HW2 8222   2.036   1.285   3.459  1.2683  0.9585  0.2414
 2056SOL    HW3 8223   2.038   1.374   3.336  2.1658  0.3149 -0.2148
 2056SOL    MW4 8224   2.029   1.295   3.373 -0.0424  0.7821  0.3233
 2057SOL     OW 8225   3.594   2.484   3.350 -0.0330  0.6000  0.0555
 2057SOL    HW2 8226   3.618   2.503   3.441  0.5191  2.3376 -0.4313
 2057SOL    HW3 8227   3.672   2.442   3.314 -0.1882  0.0696  0.3249
 2057SOL    MW4 8228   3.608   2.481   3.358  0.0194  0.7593  0.0268
 2058SOL     OW 8229   2.221   1.660   3.324 -0.5807 -0.0686 -0.1897
 2058SOL    HW2 8230   2.203   1.622   3.410  0.3664  0.3261  0.1857
 2058SOL    HW3 8231   2.309   1.629   3.302 -0.6387  0.2075 -0.8066
 2058SOL    MW4 8232   2.230   1.651   3.333 -0.4634  0.0199 -0.2215
 2059SOL     OW 8233   2.228   1.552   3.590  0.0753  0.2763  0.3593
 2059SOL    HW2 8234   2.167   1.485   3.621 -0.5856  1.4795  1.7195
 2059SOL    HW3 8235   2.220   1.623   3.654  0.8824  1.5865 -0.9731
 2059SOL    MW4 8236   2.219   1.552   3.603  0.0946  0.6079  0.3630
 2060SOL     OW 8237   2.281   1.916   3.258  0.0844 -0.0807 -0.2463
 2060SOL    HW2 8238   2.264   1.825   3.283  0.9627 -0.1357  0.1555
 2060SOL    HW3 8239   2.276   1.915   3.162  1.7115 -0.8934 -0.3404
 2060SOL    MW4 8240   2.278   1.904   3.248  0.4150 -0.1952 -0.2057
 2061SOL     OW 8241   2.475   2.333   3.197  0.3546 -0.3703  0.0230
 2061SOL    HW2 8242   2.555   2.373   3.232  0.4328  0.3189 -0.9250
 2061SOL    HW3 8243   2.469   2.248   3.242  0.7846  0.2275  1.2294
 2061SOL    MW4 8244   2.485   2.327   3.208  0.4217 -0.2005  0.0571
 2062SOL     OW 8245   2.254   2.447   3.311 -0.2196 -0.2480 -0.1504
 2062SOL    HW2 8246   2.191   2.391   3.266  0.4568 -0.7235 -0.5309
 2062SOL    HW3 8247   2.339   2.419   3.276  0.0846  1.3876 -0.7472
 2062SOL    MW4 8248   2.257   2.436   3.301 -0.0902 -0.0949 -0.2794
 2063SOL     OW 8249   2.816   2.076   3.573  0.2047 -0.3373  0.0409
 2063SOL    HW2 8250   2.723   2.100   3.573  0.3652  0.3033  1.4067
 2063SOL    HW3 8251   2.847   2.099   3.660  2.2941  1.8916 -1.2258
 2063SOL    MW4 8252   2.808   2.082   3.584  0.5015  0.0413  0.0540
 2064SOL     OW 8253   2.227   2.696   3.225  0.1961 -0.4844  0.3096
 2064SOL    HW2 8254   2.254   2.609   3.253  1.8229 -0.1856 -0.2869
 2064SOL    HW3 8255   2.234   2.695   3.130 -0.9459 -0.0697  0.2093
 2064SOL    MW4 8256   2.231   2.684   3.216  0.2601 -0.3902  0.2177
 2065SOL     OW 8257   2.050   1.342   3.640  0.0069 -0.3866 -0.3329
 2065SOL    HW2 8258   2.085   1.277   3.702 -0.6242 -1.4913 -1.1180
 2065SOL    HW3 8259   1.963   1.362   3.673 -0.5352 -1.3701 -1.1395
 2065SOL    MW4 8260   2.044   1.336   3.653 -0.1479 -0.6621 -0.5429
 2066SOL     OW 8261   1.317   1.168   4.108  0.5251  0.1578  0.0052
 2066SOL    HW2 8262   1.409   1.187   4.087  0.3386  0.3091 -0.6575
 2066SOL    HW3 8263   1.282   1.125   4.030  0.2715 -0.7222  0.5937
 2066SOL    MW4 8264   1.325   1.165   4.095  0.4671  0.0617 -0.0046
 2067SOL     OW 8265   3.615   3.957   3.792 -0.0918  0.3952  0.0135
 2067SOL    HW2 8266   3.641   3.974   3.882  1.2682 -0.8603 -0.1293
 2067SOL    HW3 8267   3.542   3.896   3.798 -1.2129  1.7181  0.3023
 2067SOL    MW4 8268   3.609   3.951   3.804 -0.0603  0.4041  0.0328
 2068SOL     OW 8269   1.767   1.008   4.435 -0.0649 -0.1517  0.2935
 2068SOL    HW2 8270   1.737   1.098   4.419 -0.3612 -0.1879  0.6591
 2068SOL    HW3 8271   1.686   0.957   4.443  0.0982 -0.2832  1.0726
 2068SOL    MW4 8272   1.752   1.013   4.434 -0.0825 -0.1738  0.4445
 2069SOL     OW 8273   1.130   2.056   3.324  0.0293  0.6861 -0.0840
 2069SOL    HW2 8274   1.055   2.012   3.284 -0.6376  0.8416  0.9714
 2069SOL    HW3 8275   1.127   2.145   3.289 -1.1988  1.1396  1.1241
 2069SOL    MW4 8276   1.119   2.062   3.314 -0.2207  0.7664  0.2146
 2070SOL     OW 8277   3.286   4.067   3.629  0.1448  1.0015  0.0896
 2070SOL    HW2 8278   3.211   4.079   3.687  0.6371  0.7508  0.7848
 2070SOL    HW3 8279   3.248   4.048   3.543 -0.6145 -2.0831  1.0452
 2070SOL    MW4 8280   3.271   4.066   3.625  0.1096  0.5614  0.3074
 2071SOL     OW 8281   3.664   2.972   3.694  0.7908  0.4873 -0.0534
 2071SOL    HW2 8282   3.700   3.030   3.760  0.5311  0.4199  0.1488
 2071SOL    HW3 8283   3.741   2.934   3.651  0.9585  0.1098  0.5813
 2071SOL    MW4 8284   3.679   2.974   3.697  0.7787  0.4286  0.0570
 2072SOL     OW 8285   2.261   3.984   3.304  0.2727 -0.0846  0.0889
 2072SOL    HW2 8286   2.274   4.067   3.258  2.1048 -1.9297 -2.8837
 2072SOL    HW3 8287   2.187   3.943   3.259 -0.8276  0.0257  1.7491
 2072SOL    MW4 8288   2.253   3.990   3.292  0.3692 -0.3135 -0.0843
 2073SOL     OW 8289   2.184   0.816   4.197  0.5076 -0.2489  0.9340
 2073SOL    HW2 8290   2.191   0.745   4.260  1.1350 -0.5264  0.5535
 2073SOL    HW3 8291   2.254   0.799   4.134  0.9633  0.9429  1.0908
 2073SOL    MW4 8292   2.194   0.805   4.197  0.6505 -0.1282  0.9045
 2074SOL     OW 8293   3.597   0.386   3.260  0.0768 -0.1853 -0.2777
 2074SOL    HW2 8294   3.516   0.436   3.268 -0.3691 -1.0034  0.4056
 2074SOL    HW3 8295   3.577   0.301   3.299  1.4489 -0.1869  0.4487
 2074SOL    MW4 8296   3.583   0.381   3.266  0.1990 -0.2934 -0.0917
 2075SOL     OW 8297   3.431   3.690   3.284  0.0252  0.0714  0.2054
 2075SOL    HW2 8298   3.348   3.644   3.275  1.0465 -2.0311  1.0862
 2075SOL    HW3 8299   3.494   3.637   3.236  1.1372  0.8230  0.7930
 2075SOL    MW4 8300   3.428   3.677   3.277  0.3066 -0.1068  0.3991
 2076SOL     OW 8301   2.647   0.315   3.274 -0.5080 -0.0317  0.1118
 2076SOL    HW2 8302   2.719   0.371   3.303  0.0489 -0.6803  0.0037
 2076SOL    HW3 8303   2.653   0.315   3.179 -0.1716 -0.7006  0.1285
 2076SOL    MW4 8304   2.657   0.322   3.266 -0.3902 -0.2055  0.0997
 2077SOL     OW 8305   1.182   1.595   3.584 -0.1728 -0.2643 -0.0662
 2077SOL    HW2 8306   1.236   1.628   3.512  0.0578  0.8015  0.5804
 2077SOL    HW3 8307   1.102   1.648   3.581  0.0386  0.1157  0.7401
 2077SOL    MW4 8308   1.179   1.606   3.574 -0.1145 -0.0735  0.1255
 2078SOL     OW 8309   2.695   0.955   3.363  0.0288 -0.4865 -0.3678
 2078SOL    HW2 8310   2.713   0.978   3.454  0.4063  0.0054 -0.5595
 2078SOL    HW3 8311   2.699   1.039   3.317  1.7592 -0.9592 -1.1453
 2078SOL    MW4 8312   2.698   0.969   3.369  0.3069 -0.4840 -0.4957
 2079SOL     OW 8313   0.343   1.608   3.886  0.3839 -0.2241 -0.2519
 2079SOL    HW2 8314   0.288   1.651   3.951  1.0904  0.0799  0.1485
 2079SOL    HW3 8315   0.432   1.633   3.910  0.7958 -1.8320 -0.0760
 2079SOL    MW4 8316   0.348   1.617   3.897  0.5314 -0.3961 -0.1759
 2080SOL     OW 8317   1.239   1.303   3.858 -0.4959  0.1309  0.5476
 2080SOL    HW2 8318   1.165   1.292   3.917 -0.8239 -1.3431 -0.1054
 2080SOL    HW3 8319   1.202   1.298   3.770  0.6019 -2.8958  0.1746
 2080SOL    MW4 8320   1.225   1.301   3.854 -0.3944 -0.4629  0.4122
 2081SOL     OW 8321   0.289   2.997   4.211  0.2395 -0.3644 -0.4437
 2081SOL    HW2 8322   0.285   3.054   4.288  0.1990 -0.4229 -0.4017
 2081SOL    HW3 8323   0.197   2.975   4.194  0.3513 -1.4017  0.2766
 2081SOL    MW4 8324   0.276   3.002   4.219  0.2489 -0.5089 -0.3432
 2082SOL     OW 8325   2.680   1.945   3.237  0.1615  0.0846 -0.3563
 2082SOL    HW2 8326   2.677   1.948   3.141  1.4481 -0.4383 -0.4213
 2082SOL    HW3 8327   2.596   1.983   3.265 -0.2307  0.2147 -1.6841
 2082SOL    MW4 8328   2.669   1.950   3.228  0.2795  0.0328 -0.5400
 2083SOL     OW 8329   2.685   1.948   2.961  0.2499  0.3030  0.1779
 2083SOL    HW2 8330   2.761   1.998   2.932 -0.1735 -0.5898 -2.6401
 2083SOL    HW3 8331   2.704   1.858   2.934 -1.5630 -0.0035 -0.1273
 2083SOL    MW4 8332   2.697   1.943   2.953 -0.0452  0.1447 -0.2341
 2084SOL     OW 8333   2.767   3.664   4.395  0.4860  0.4965 -0.1428
 2084SOL    HW2 8334   2.747   3.588   4.450  3.3249 -0.0539  0.2252
 2084SOL    HW3 8335   2.800   3.626   4.314  1.2606  1.3404 -0.2237
 2084SOL    MW4 8336   2.769   3.649   4.392  0.9627  0.5352 -0.1049
 2085SOL     OW 8337   2.939   2.353   3.265  0.8682 -0.4113 -0.1909
 2085SOL    HW2 8338   2.944   2.355   3.169 -0.0893 -0.4792 -0.2438
 2085SOL    HW3 8339   2.938   2.260   3.287  2.6937 -0.4154 -0.0157
 2085SOL    MW4 8340   2.939   2.341   3.255  0.9827 -0.4208 -0.1748
 2086SOL     OW 8341   2.687   0.048   3.344 -1.1606 -0.5207  0.0910
 2086SOL    HW2 8342   2.606   0.007   3.313 -0.8137 -0.1476 -1.3412
 2086SOL    HW3 8343   2.679   0.140   3.316  0.8926 -1.0530 -2.3804
 2086SOL    MW4 8344   2.675   0.055   3.336 -0.8439 -0.5417 -0.4240
 2087SOL     OW 8345   2.920   2.075   3.293  0.0332 -0.0903  0.2002
 2087SOL    HW2 8346   2.847   2.026   3.256  1.4362 -1.6113 -0.6656
 2087SOL    HW3 8347   2.905   2.075   3.387  0.2000 -2.5423  0.2510
 2087SOL    MW4 8348   2.909   2.069   3.300  0.2403 -0.6145  0.0927
 2088SOL     OW 8349   2.689   2.696   3.194 -0.0852 -0.2583  0.1506
 2088SOL    HW2 8350   2.753   2.745   3.247  1.0873 -0.9693 -0.5912
 2088SOL    HW3 8351   2.604   2.733   3.219  0.5970  0.5720  1.2891
 2088SOL    MW4 8352   2.686   2.708   3.205  0.1595 -0.2426  0.2029
 2089SOL     OW 8353   2.226   3.197   4.170  0.0293  0.2728  0.0164
 2089SOL    HW2 8354   2.308   3.149   4.184  1.1473  2.2925  0.5044
 2089SOL    HW3 8355   2.207   3.238   4.254 -1.1147  0.3948 -0.2917
 2089SOL    MW4 8356   2.234   3.196   4.183  0.0258  0.5554  0.0401
 2090SOL     OW 8357   2.911   3.856   3.725  0.0421  0.4986 -0.0391
 2090SOL    HW2 8358   2.945   3.946   3.727  1.4147  0.0201 -1.2052
 2090SOL    HW3 8359   2.835   3.860   3.667  0.2137  0.8696 -0.2417
 2090SOL    MW4 8360   2.906   3.869   3.718  0.2459  0.4844 -0.2197
 2091SOL     OW 8361   0.764   4.409   4.202  0.0190  0.7561  0.4099
 2091SOL    HW2 8362   0.781   4.464   4.278 -0.3338  0.4448  0.7143
 2091SOL    HW3 8363   0.849   4.369   4.182  0.5668  2.3835 -0.5925
 2091SOL    MW4 8364   0.778   4.411   4.209  0.0447  0.9298  0.3178
 2092SOL     OW 8365   0.495   4.443   4.164  0.2954 -0.1723  0.0263
 2092SOL    HW2 8366   0.584   4.418   4.190  0.2568 -1.0313 -0.6319
 2092SOL    HW3 8367   0.476   4.387   4.089 -0.2913  0.9676 -0.6906
 2092SOL    MW4 8368   0.505   4.432   4.157  0.2129 -0.1352 -0.1551
 2093SOL     OW 8369   2.292   3.227   3.356  0.1361  0.0465 -0.3324
 2093SOL    HW2 8370   2.285   3.200   3.447  0.5366  0.3396 -0.2143
 2093SOL    HW3 8371   2.369   3.181   3.323 -1.1076 -1.5490 -1.0576
 2093SOL    MW4 8372   2.301   3.217   3.364  0.0248 -0.1253 -0.4125
 2094SOL     OW 8373   0.237   2.078   4.309  0.0297  0.0300  0.1744
 2094SOL    HW2 8374   0.239   2.136   4.385 -0.1424 -0.2276  0.3781
 2094SOL    HW3 8375   0.329   2.065   4.287  0.0524  0.8135 -0.2106
 2094SOL    MW4 8376   0.249   2.084   4.316  0.0100  0.0994  0.1505
 2095SOL     OW 8377   3.446   1.148   3.787 -0.1026  0.0335 -0.1681
 2095SOL    HW2 8378   3.356   1.116   3.783 -0.0758  0.0962 -1.3608
 2095SOL    HW3 8379   3.449   1.200   3.867 -0.2590 -2.5602  1.5964
 2095SOL    MW4 8380   3.434   1.150   3.797 -0.1197 -0.3004 -0.0926
 2096SOL     OW 8381   2.207   4.228   3.187 -0.3111  0.2335  0.3429
 2096SOL    HW2 8382   2.132   4.284   3.206 -1.1183 -0.4624 -0.7863
 2096SOL    HW3 8383   2.219   4.235   3.092  1.5474  0.9541  0.5913
 2096SOL    MW4 8384   2.199   4.237   3.177 -0.1724  0.2367  0.2267
 2097SOL     OW 8385   3.652   4.128   3.208 -0.2603  0.3638  0.4408
 2097SOL    HW2 8386   3.655   4.171   3.294 -1.0042  0.6934  0.3032
 2097SOL    HW3 8387   3.633   4.198   3.146  0.8745  0.2218 -0.0721
 2097SOL    MW4 8388   3.650   4.143   3.211 -0.2087  0.3886  0.3549
 2098SOL     OW 8389   1.264   4.195   3.731 -0.4034  0.0761 -0.1837
 2098SOL    HW2 8390   1.222   4.205   3.817 -1.3854 -0.6104 -0.5724
 2098SOL    HW3 8391   1.251   4.280   3.689  1.2352  0.8581  0.8302
 2098SOL    MW4 8392   1.257   4.208   3.737 -0.3168  0.0887 -0.1012
 2099SOL     OW 8393   0.202   3.806   4.458  0.5903 -0.3007 -0.3173
 2099SOL    HW2 8394   0.116   3.765   4.458 -0.0665  1.0524 -0.4796
 2099SOL    HW3 8395   0.230   3.803   4.366 -0.1109  0.9227 -0.5876
 2099SOL    MW4 8396   0.195   3.800   4.446  0.4111  0.0393 -0.3744
 2100SOL     OW 8397   2.895   3.774   3.999  0.4504  0.1542  0.2542
 2100SOL    HW2 8398   2.986   3.798   4.013  0.2143  0.6394  1.0084
 2100SOL    HW3 8399   2.877   3.796   3.908  1.1600 -0.1994  0.0285
 2100SOL    MW4 8400   2.904   3.780   3.989  0.5129  0.1715  0.3239
 2101SOL     OW 8401   1.317   2.458   3.612 -0.4290  0.1902 -0.3641
 2101SOL    HW2 8402   1.333   2.467   3.518  1.1711 -0.9345 -0.2285
 2101SOL    HW3 8403   1.319   2.548   3.645 -0.4075  0.5497 -1.3222
 2101SOL    MW4 8404   1.320   2.471   3.604 -0.2150  0.0893 -0.4726
 2102SOL     OW 8405   3.815   0.792   3.217  0.1777  0.2498  0.0587
 2102SOL    HW2 8406   3.888   0.834   3.262 -1.1561  0.6508  1.8750
 2102SOL    HW3 8407   3.803   0.709   3.263  0.3663 -0.4529 -1.1284
 2102SOL    MW4 8408   3.823   0.786   3.229  0.0266  0.2100  0.1417
 2103SOL     OW 8409   2.855   0.766   3.265 -0.0125 -0.0907  0.0118
 2103SOL    HW2 8410   2.799   0.837   3.295 -0.4098 -0.2796 -0.2800
 2103SOL    HW3 8411   2.944   0.803   3.266 -0.3006  0.6527 -0.8503
 2103SOL    MW4 8412   2.859   0.780   3.269 -0.1029 -0.0176 -0.1405
 2104SOL     OW 8413   3.139   1.152   3.248  0.0980  0.4872 -0.3264
 2104SOL    HW2 8414   3.138   1.165   3.153 -0.5334  1.2124 -0.2178
 2104SOL    HW3 8415   3.229   1.173   3.274  0.7634 -1.3538 -0.9794
 2104SOL    MW4 8416   3.151   1.156   3.239  0.1025  0.3400 -0.3982
 2105SOL     OW 8417   3.067   3.680   4.772  0.2490  0.9651  0.3255
 2105SOL    HW2 8418   3.060   3.769   4.738 -0.0915  0.6319 -0.4879
 2105SOL    HW3 8419   3.149   3.647   4.734 -0.5451  0.3118 -0.8481
 2105SOL    MW4 8420   3.077   3.688   4.763  0.0993  0.8350  0.0633
 2106SOL     OW 8421   1.616   1.874   3.934  0.1106 -0.6462  0.1668
 2106SOL    HW2 8422   1.540   1.924   3.964  0.5274  0.3015 -0.3296
 2106SOL    HW3 8423   1.608   1.789   3.977 -0.8891 -0.3277  0.6111
 2106SOL    MW4 8424   1.605   1.869   3.944  0.0337 -0.4792  0.1599
 2107SOL     OW 8425   3.163   1.934   3.249  0.1020  0.0308  0.0416
 2107SOL    HW2 8426   3.181   1.949   3.156  1.3667 -0.8024  0.1421
 2107SOL    HW3 8427   3.071   1.959   3.260 -0.0751  0.0696 -1.4494
 2107SOL    MW4 8428   3.153   1.939   3.238  0.2455 -0.0740 -0.1418
 2108SOL     OW 8429   2.933   2.962   4.335  0.0193  0.1991  0.1604
 2108SOL    HW2 8430   2.904   2.960   4.244  0.5959 -0.2536 -0.0187
 2108SOL    HW3 8431   2.916   2.874   4.367  0.3631  0.1866  0.3133
 2108SOL    MW4 8432   2.927   2.950   4.327  0.1407  0.1377  0.1570
 2109SOL     OW 8433   4.069   2.365   4.049 -0.5386 -0.2513 -0.1237
 2109SOL    HW2 8434   3.977   2.345   4.032 -0.8915 -0.3220  1.7344
 2109SOL    HW3 8435   4.069   2.410   4.134  0.8428  2.4295 -1.4722
 2109SOL    MW4 8436   4.057   2.369   4.058 -0.4029  0.0931 -0.0564
 2110SOL     OW 8437   3.392   2.305   3.265  0.2364  0.2562  0.1275
 2110SOL    HW2 8438   3.309   2.351   3.273 -0.2631 -0.2756 -1.7515
 2110SOL    HW3 8439   3.458   2.367   3.297 -0.7703  1.0109  0.7682
 2110SOL    MW4 8440   3.390   2.319   3.271  0.0377  0.2856 -0.0359
 2111SOL     OW 8441   3.180   2.476   3.323  0.0965  0.1777 -0.0182
 2111SOL    HW2 8442   3.172   2.569   3.304 -0.6098  0.0951 -0.1535
 2111SOL    HW3 8443   3.091   2.441   3.310  0.4086 -0.5568 -0.2172
 2111SOL    MW4 8444   3.167   2.484   3.319  0.0445  0.0699 -0.0623
 2112SOL     OW 8445   3.079   0.377   3.719  0.5806 -0.4197  0.1291
 2112SOL    HW2 8446   3.148   0.416   3.665 -0.5792  0.5714 -0.6593
 2112SOL    HW3 8447   3.088   0.420   3.804  0.8974 -0.2410  0.0059
 2112SOL    MW4 8448   3.089   0.388   3.723  0.4694 -0.2654  0.0088
 2113SOL     OW 8449   3.367   3.131   3.226  0.3724 -0.3661  0.4502
 2113SOL    HW2 8450   3.443   3.186   3.248  0.3551 -0.1013 -0.1496
 2113SOL    HW3 8451   3.291   3.187   3.241  0.3811 -0.0092 -0.7678
 2113SOL    MW4 8452   3.367   3.146   3.231  0.3713 -0.2841  0.2103
 2114SOL     OW 8453   3.763   0.614   3.673  0.5242  0.2237  0.2912
 2114SOL    HW2 8454   3.855   0.633   3.692  0.6664 -1.2761  1.1580
 2114SOL    HW3 8455   3.761   0.601   3.578  0.6775  3.0173 -0.1283
 2114SOL    MW4 8456   3.775   0.614   3.663  0.5632  0.3944  0.3502
 2115SOL     OW 8457   2.491   3.076   3.247  0.1352 -0.6425 -0.0347
 2115SOL    HW2 8458   2.483   3.090   3.153 -0.2692 -0.6893 -0.0083
 2115SOL    HW3 8459   2.470   2.984   3.259  3.0384 -1.3834 -0.2381
 2115SOL    MW4 8460   2.487   3.066   3.236  0.4648 -0.7464 -0.0580
 2116SOL     OW 8461   3.929   2.708   3.991 -0.0174  0.2518  0.3505
 2116SOL    HW2 8462   3.960   2.654   3.918 -0.5345  0.7843 -0.2633
 2116SOL    HW3 8463   3.850   2.664   4.022  0.0724  0.1562  0.4467
 2116SOL    MW4 8464   3.923   2.695   3.985 -0.0738  0.3094  0.2822
 2117SOL     OW 8465   0.182   2.563   4.237  0.2336 -0.2032  0.5107
 2117SOL    HW2 8466   0.143   2.577   4.323  1.1441 -0.9068  1.0461
 2117SOL    HW3 8467   0.259   2.510   4.254  0.7574  0.1572 -0.6772
 2117SOL    MW4 8468   0.187   2.558   4.251  0.4228 -0.2485  0.4246
 2118SOL     OW 8469   3.212   3.536   3.232  0.5062 -0.1167  0.0901
 2118SOL    HW2 8470   3.212   3.446   3.266  0.1054 -0.3094 -0.4177
 2118SOL    HW3 8471   3.193   3.527   3.139  1.9527  0.3907 -0.2610
 2118SOL    MW4 8472   3.210   3.523   3.224  0.6442 -0.0752 -0.0232
 2119SOL     OW 8473   0.394   0.119   3.291  0.0219  0.9214 -0.1018
 2119SOL    HW2 8474   0.482   0.087   3.274  0.1571  0.9958  0.4682
 2119SOL    HW3 8475   0.397   0.154   3.380 -1.1385 -1.0795  0.7518
 2119SOL    MW4 8476   0.406   0.119   3.301 -0.1133  0.6672  0.0860
 2120SOL     OW 8477   0.905   4.152   3.787  0.4148 -0.3572  0.1597
 2120SOL    HW2 8478   0.877   4.080   3.843  1.3911 -0.2839  0.7619
 2120SOL    HW3 8479   0.968   4.112   3.727  0.2431 -0.1998 -0.1259
 2120SOL    MW4 8480   0.910   4.137   3.787  0.5210 -0.3267  0.2015
 2121SOL     OW 8481   3.072   0.378   3.291 -0.2908  0.1551 -0.1843
 2121SOL    HW2 8482   2.992   0.422   3.319 -0.8196 -0.8333 -0.1158
 2121SOL    HW3 8483   3.070   0.383   3.196 -0.4727  0.0640 -0.1853
 2121SOL    MW4 8484   3.062   0.384   3.282 -0.3845  0.0127 -0.1754
 2122SOL     OW 8485   3.357   4.428   3.381 -0.0471 -0.2615 -0.0806
 2122SOL    HW2 8486   3.345   4.514   3.342  0.7211  0.6865  1.7038
 2122SOL    HW3 8487   3.316   4.434   3.467 -0.7052 -1.9450 -0.2535
 2122SOL    MW4 8488   3.350   4.440   3.387 -0.0326 -0.3586  0.1320
 2123SOL     OW 8489   2.517   3.633   3.355 -0.4688 -0.5054  0.1121
 2123SOL    HW2 8490   2.509   3.651   3.449 -0.8791 -0.4030  0.0629
 2123SOL    HW3 8491   2.437   3.586   3.333  0.1687 -1.5537  0.0408
 2123SOL    MW4 8492   2.505   3.629   3.365 -0.4388 -0.6302  0.0962
 2124SOL     OW 8493   3.618   4.463   4.277  0.4871 -0.3997  0.4036
 2124SOL    HW2 8494   3.539   4.514   4.262 -0.1615 -1.5324 -0.0597
 2124SOL    HW3 8495   3.670   4.476   4.197 -0.1571 -1.3218 -0.1754
 2124SOL    MW4 8496   3.615   4.472   4.264  0.3165 -0.6708  0.2661
 2125SOL     OW 8497   3.575   0.900   3.333 -0.1267  0.5065  0.0300
 2125SOL    HW2 8498   3.654   0.856   3.300  1.1010  1.1850  1.9362
 2125SOL    HW3 8499   3.570   0.873   3.425 -2.0607  0.5690 -0.0436
 2125SOL    MW4 8500   3.585   0.891   3.341 -0.2199  0.6042  0.2718
 2126SOL     OW 8501   3.799   0.773   2.937  0.0242 -0.0193 -0.1928
 2126SOL    HW2 8502   3.877   0.814   2.899  0.1507 -0.2683 -0.2034
 2126SOL    HW3 8503   3.804   0.794   3.030 -0.5772  1.0683 -0.3926
 2126SOL    MW4 8504   3.810   0.781   2.944 -0.0385  0.0913 -0.2205
 2127SOL     OW 8505   2.857   0.957   4.391  0.3709 -0.1139 -0.2101
 2127SOL    HW2 8506   2.895   1.029   4.340  1.4275 -0.6468 -0.1890
 2127SOL    HW3 8507   2.932   0.919   4.438 -0.1495 -1.3338 -0.3465
 2127SOL    MW4 8508   2.872   0.962   4.390  0.4416 -0.3452 -0.2253
 2128SOL     OW 8509   3.614   1.164   3.252  0.3569  0.4428 -0.2952
 2128SOL    HW2 8510   3.605   1.157   3.156 -0.7522 -1.5624 -0.0759
 2128SOL    HW3 8511   3.615   1.073   3.282  0.7936  1.0614  1.6092
 2128SOL    MW4 8512   3.613   1.151   3.243  0.2682  0.2598 -0.0150
 2129SOL     OW 8513   2.796   0.740   4.223  0.0826 -0.1521 -0.0035
 2129SOL    HW2 8514   2.820   0.800   4.294  0.6903 -1.4821  0.9403
 2129SOL    HW3 8515   2.808   0.790   4.143  2.0493  0.5005  0.6862
 2129SOL    MW4 8516   2.801   0.754   4.222  0.4223 -0.2415  0.2120
 2130SOL     OW 8517   3.860   1.558   3.236  0.0815 -0.7196 -0.2800
 2130SOL    HW2 8518   3.944   1.592   3.265 -0.1668  0.5760 -1.0504
 2130SOL    HW3 8519   3.856   1.470   3.272  0.4558  0.2757  2.2755
 2130SOL    MW4 8520   3.871   1.551   3.244  0.0981 -0.4174 -0.0445
 2131SOL     OW 8521   4.449   2.285   3.718 -0.4156 -0.8342  0.2859
 2131SOL    HW2 8522   4.376   2.269   3.777 -0.0796 -2.2141  0.3512
 2131SOL    HW3 8523   4.479   2.198   3.692  0.1233 -0.2723 -1.0777
 2131SOL    MW4 8524   4.443   2.272   3.722 -0.3002 -0.9421  0.1146
 2132SOL     OW 8525   3.569   0.976   4.413 -0.1850 -0.4972  0.1523
 2132SOL    HW2 8526   3.653   0.943   4.444  0.2864 -1.8037 -2.4154
 2132SOL    HW3 8527   3.584   1.070   4.399  0.2784 -0.3582  1.5039
 2132SOL    MW4 8528   3.582   0.984   4.415 -0.0617 -0.6512 -0.0082
 2133SOL     OW 8529   4.047   1.910   3.244  0.4162 -0.4846 -0.4793
 2133SOL    HW2 8530   4.036   1.931   3.151  0.6920 -0.5188 -0.5210
 2133SOL    HW3 8531   4.100   1.982   3.279  0.3939 -0.5216 -0.3702
 2133SOL    MW4 8532   4.053   1.922   3.236  0.4497 -0.4940 -0.4704
 2134SOL     OW 8533   3.806   2.350   3.230 -0.1081 -0.6054  0.2708
 2134SOL    HW2 8534   3.895   2.381   3.248  0.3690 -2.0040  0.3678
 2134SOL    HW3 8535   3.803   2.263   3.268 -1.0051 -1.2114 -1.1771
 2134SOL    MW4 8536   3.817   2.343   3.237 -0.1635 -0.8699  0.0925
 2135SOL     OW 8537   0.553   4.045   3.893 -0.0029  0.3192 -0.4532
 2135SOL    HW2 8538   0.634   4.004   3.923 -0.3621  0.6929  1.0737
 2135SOL    HW3 8539   0.528   3.996   3.815  0.1433 -1.6843  0.7309
 2135SOL    MW4 8540   0.560   4.033   3.886 -0.0310  0.1042 -0.0955
 2136SOL     OW 8541   3.372   2.880   3.346  0.0888  0.1003  0.4996
 2136SOL    HW2 8542   3.389   2.959   3.295  0.5062 -1.1976 -1.4441
 2136SOL    HW3 8543   3.435   2.816   3.313 -0.7904 -1.2879  1.4593
 2136SOL    MW4 8544   3.383   2.882   3.335  0.0279 -0.2541  0.3698
 2137SOL     OW 8545   0.977   1.277   4.008  0.2019  0.1478  0.1754
 2137SOL    HW2 8546   0.975   1.362   4.051 -0.2339  0.0570  0.3413
 2137SOL    HW3 8547   0.941   1.217   4.074  0.8480 -0.2207  0.1908
 2137SOL    MW4 8548   0.972   1.280   4.023  0.2297  0.0872  0.1994
 2138SOL     OW 8549   3.814   3.152   3.212  0.2968  0.0150 -0.3224
 2138SOL    HW2 8550   3.823   3.160   3.117  0.7723  0.3496 -0.2501
 2138SOL    HW3 8551   3.899   3.179   3.247 -0.0834  0.5105  0.2324
 2138SOL    MW4 8552   3.826   3.157   3.204  0.3094  0.1245 -0.2396
 2139SOL     OW 8553   0.212   2.367   3.819  0.4952 -0.1696  0.0703
 2139SOL    HW2 8554   0.210   2.457   3.851  0.7790 -0.1244 -0.0325
 2139SOL    HW3 8555   0.121   2.345   3.802  0.4074  0.0348  0.2720
 2139SOL    MW4 8556   0.200   2.376   3.821  0.5211 -0.1367  0.0833
 2140SOL     OW 8557   3.618   3.539   3.157  0.3295 -0.4341  0.1717
 2140SOL    HW2 8558   3.624   3.447   3.183  0.8441 -0.8976 -1.5329
 2140SOL    HW3 8559   3.605   3.536   3.062 -1.0750  1.2199  0.2952
 2140SOL    MW4 8560   3.617   3.527   3.148  0.2120 -0.2770 -0.0369
 2141SOL     OW 8561   4.294   3.627   3.325  0.2427  0.4749 -0.1130
 2141SOL    HW2 8562   4.304   3.710   3.278  0.8658  0.6368  0.2968
 2141SOL    HW3 8563   4.291   3.652   3.417  1.5412 -0.0392  0.0806
 2141SOL    MW4 8564   4.295   3.641   3.331  0.4963  0.4284 -0.0334
 2142SOL     OW 8565   4.092   1.577   3.598 -0.2929  0.2391 -0.2282
 2142SOL    HW2 8566   4.150   1.503   3.582 -0.2183  0.8635 -3.1378
 2142SOL    HW3 8567   4.145   1.638   3.649  0.1011 -1.0800  0.9719
 2142SOL    MW4 8568   4.107   1.575   3.603 -0.2311  0.1474 -0.4537
 2143SOL     OW 8569   3.495   3.653   3.556 -0.2101 -0.1093  0.6045
 2143SOL    HW2 8570   3.481   3.559   3.570 -0.3990 -0.0462  0.8453
 2143SOL    HW3 8571   3.471   3.667   3.464  0.3005 -0.3872  0.4265
 2143SOL    MW4 8572   3.490   3.642   3.546 -0.1677 -0.1377  0.6128
 2144SOL     OW 8573   2.406   0.066   3.825  0.6857  0.4684  0.3961
 2144SOL    HW2 8574   2.345   0.005   3.867 -0.3970  0.1946 -1.5146
 2144SOL    HW3 8575   2.388   0.150   3.866 -0.9423  0.3707 -0.0956
 2144SOL    MW4 8576   2.396   0.069   3.836  0.3280  0.4194  0.0791
 2145SOL     OW 8577   4.029   0.168   3.353 -0.0080  0.2596 -0.1317
 2145SOL    HW2 8578   4.011   0.140   3.442  1.7569 -0.3311  0.0716
 2145SOL    HW3 8579   4.106   0.117   3.326 -1.3830 -0.6310 -2.5229
 2145SOL    MW4 8580   4.037   0.158   3.361  0.0434  0.0642 -0.4204
 2146SOL     OW 8581   2.083   1.177   4.031 -0.2642 -0.1847 -0.6049
 2146SOL    HW2 8582   2.022   1.250   4.043  0.4207  0.1920  0.8311
 2146SOL    HW3 8583   2.051   1.110   4.091  0.2108 -0.3120 -0.4895
 2146SOL    MW4 8584   2.071   1.178   4.041 -0.1111 -0.1518 -0.4002
 2147SOL     OW 8585   3.153   4.295   3.979 -0.3850  0.2663 -0.2205
 2147SOL    HW2 8586   3.245   4.317   3.965 -0.2370 -0.3582 -0.2240
 2147SOL    HW3 8587   3.153   4.239   4.056 -0.8110  0.6244  0.0404
 2147SOL    MW4 8588   3.165   4.291   3.987 -0.4217  0.2312 -0.1866
 2148SOL     OW 8589   0.737   2.918   3.585 -0.2006 -0.0210  0.2531
 2148SOL    HW2 8590   0.734   3.014   3.582 -1.1002 -0.0768 -2.2667
 2148SOL    HW3 8591   0.829   2.897   3.600 -0.0980  1.2322  1.4840
 2148SOL    MW4 8592   0.749   2.928   3.587 -0.3057  0.1370  0.0830
 2149SOL     OW 8593   0.725   3.188   3.552  0.5854 -0.0932  0.2897
 2149SOL    HW2 8594   0.755   3.220   3.638  2.1316  1.4626 -0.7935
 2149SOL    HW3 8595   0.789   3.222   3.490 -0.6004 -1.0820 -1.5244
 2149SOL    MW4 8596   0.737   3.197   3.555  0.6330 -0.0184 -0.0926
 2150SOL     OW 8597   4.453   0.866   3.328  0.3675  0.5307 -0.6233
 2150SOL    HW2 8598   4.372   0.844   3.284  0.3962  1.0808 -0.9545
 2150SOL    HW3 8599   4.459   0.962   3.321 -0.2161  0.7604  1.5665
 2150SOL    MW4 8600   4.443   0.876   3.321  0.2943  0.6336 -0.3780
 2151SOL     OW 8601   4.244   0.764   3.216 -0.0207  0.1291  0.4520
 2151SOL    HW2 8602   4.263   0.673   3.240 -0.5438 -0.0942  0.0343
 2151SOL    HW3 8603   4.244   0.764   3.120  0.4200  0.6654  0.4507
 2151SOL    MW4 8604   4.247   0.752   3.207 -0.0316  0.1704  0.3967
 2152SOL     OW 8605   4.023   1.126   3.208 -0.0169 -0.2235  0.8476
 2152SOL    HW2 8606   4.031   1.046   3.260  1.1315  0.6720  2.1044
 2152SOL    HW3 8607   4.111   1.164   3.210 -0.1873  0.2876 -1.0186
 2152SOL    MW4 8608   4.036   1.120   3.215  0.1121 -0.0379  0.7672
 2153SOL     OW 8609   4.238   1.315   3.275 -0.2965  0.4941 -0.1323
 2153SOL    HW2 8610   4.264   1.398   3.236  1.0990  0.4913  0.7583
 2153SOL    HW3 8611   4.317   1.261   3.271 -1.1359 -0.7270 -0.5357
 2153SOL    MW4 8612   4.252   1.319   3.269 -0.2231  0.3326 -0.0680
 2154SOL     OW 8613   4.336   1.548   3.162  0.1861  0.3035  0.1539
 2154SOL    HW2 8614   4.325   1.537   3.067 -1.4423  2.4555  0.0358
 2154SOL    HW3 8615   4.251   1.580   3.191 -0.1797 -2.8820  2.8089
 2154SOL    MW4 8616   4.323   1.551   3.153 -0.0770  0.1671  0.4886
 2155SOL     OW 8617   4.011   0.688   3.739  0.0502 -0.0909  0.1323
 2155SOL    HW2 8618   4.056   0.603   3.742  0.3502  0.0844  0.6068
 2155SOL    HW3 8619   3.981   0.702   3.829 -2.5145 -1.0413 -0.5289
 2155SOL    MW4 8620   4.013   0.678   3.751 -0.2486 -0.1932  0.1077
 2156SOL     OW 8621   4.128   1.648   3.301  0.0303 -0.3229  0.0722
 2156SOL    HW2 8622   4.114   1.739   3.274 -1.0369 -0.3988  0.3244
 2156SOL    HW3 8623   4.123   1.650   3.396  1.8078 -0.3707  0.1736
 2156SOL    MW4 8624   4.125   1.660   3.310  0.1240 -0.3392  0.1189
 2157SOL     OW 8625   4.355   1.937   3.496  0.2354 -0.0279  0.0779
 2157SOL    HW2 8626   4.397   1.889   3.424  0.5521 -0.6152  0.6558
 2157SOL    HW3 8627   4.315   2.013   3.453 -1.4559 -1.5299 -1.0608
 2157SOL    MW4 8628   4.355   1.941   3.481  0.0540 -0.3036  0.0039
 2158SOL     OW 8629   4.256   2.323   3.177  0.2865 -0.6068  0.1031
 2158SOL    HW2 8630   4.269   2.339   3.084 -0.5561 -0.3033  0.0302
 2158SOL    HW3 8631   4.332   2.362   3.220  0.6877 -0.7691 -0.4543
 2158SOL    MW4 8632   4.268   2.330   3.170  0.2282 -0.5881  0.0200
 2159SOL     OW 8633   4.179   2.131   3.377 -0.1368  0.1863  0.0120
 2159SOL    HW2 8634   4.150   2.196   3.442  0.5917 -0.1892  0.7115
 2159SOL    HW3 8635   4.204   2.183   3.301 -0.2187  0.6798  0.3201
 2159SOL    MW4 8636   4.178   2.146   3.376 -0.0515  0.2018  0.1449
 2160SOL     OW 8637   3.980   2.713   3.165 -0.3354 -0.3253 -0.0395
 2160SOL    HW2 8638   3.997   2.634   3.216 -2.1682 -0.5604  0.2403
 2160SOL    HW3 8639   3.919   2.763   3.218 -2.3271 -0.6053 -1.9759
 2160SOL    MW4 8640   3.974   2.709   3.179 -0.8400 -0.3932 -0.2581
 2161SOL     OW 8641   4.048   2.471   3.287  0.1225 -0.5715  0.4368
 2161SOL    HW2 8642   4.086   2.487   3.374  0.0614  0.2531  0.3156
 2161SOL    HW3 8643   4.115   2.420   3.242  2.0970  2.6965 -0.5112
 2161SOL    MW4 8644   4.062   2.467   3.293  0.3750 -0.0315  0.2957
 2162SOL     OW 8645   4.281   3.087   3.201 -0.3205 -0.3682 -0.1938
 2162SOL    HW2 8646   4.211   3.140   3.240 -1.1130 -1.1810 -0.5003
 2162SOL    HW3 8647   4.279   3.111   3.108  1.1591  1.1130  0.1428
 2162SOL    MW4 8648   4.271   3.097   3.193 -0.2299 -0.2800 -0.1899
 2163SOL     OW 8649   4.074   3.515   3.208  0.6220 -0.0667  0.3850
 2163SOL    HW2 8650   4.013   3.585   3.229  0.4719  0.3197 -1.3070
 2163SOL    HW3 8651   4.159   3.547   3.237  0.7871  1.4301 -1.6553
 2163SOL    MW4 8652   4.077   3.528   3.215  0.6240  0.1818 -0.1074
 2164SOL     OW 8653   4.081   3.505   2.931 -0.2228  0.4001  0.1901
 2164SOL    HW2 8654   4.083   3.501   3.026 -0.0617 -0.1173  0.1654
 2164SOL    HW3 8655   4.000   3.553   2.911 -1.5955 -1.6790  0.5394
 2164SOL    MW4 8656   4.071   3.510   2.941 -0.3826  0.0575  0.2330
 2165SOL     OW 8657   4.311   3.886   3.181 -0.0011 -0.4903  0.3535
 2165SOL    HW2 8658   4.399   3.923   3.191 -1.0496  2.2347 -0.0257
 2165SOL    HW3 8659   4.294   3.888   3.087 -0.8876  0.0965  0.5116
 2165SOL    MW4 8660   4.320   3.891   3.170 -0.2564 -0.0533  0.3243
 2166SOL     OW 8661   3.400   2.380   3.682 -0.0403  0.9015  0.1444
 2166SOL    HW2 8662   3.404   2.338   3.768 -0.5836  0.6632  0.0557
 2166SOL    HW3 8663   3.314   2.423   3.680  1.0088  3.0907  0.7263
 2166SOL    MW4 8664   3.389   2.380   3.693  0.0264  1.1589  0.2095
 2167SOL     OW 8665   0.202   1.245   3.332  0.0714 -0.4640  0.6663
 2167SOL    HW2 8666   0.224   1.332   3.299  1.3893 -1.0160  0.0770
 2167SOL    HW3 8667   0.271   1.188   3.299 -0.9120 -1.7867  0.8429
 2167SOL    MW4 8668   0.214   1.249   3.323  0.1156 -0.7114  0.6119
 2168SOL     OW 8669   3.871   3.949   3.147 -0.4691  0.1482 -0.4191
 2168SOL    HW2 8670   3.868   3.867   3.196 -0.4248  0.5331  0.2247
 2168SOL    HW3 8671   3.791   3.995   3.171  0.9359  1.6301  1.5461
 2168SOL    MW4 8672   3.860   3.944   3.156 -0.2779  0.3945 -0.0749
 2169SOL     OW 8673   1.111   0.512   3.328 -0.3266  0.1234  0.2247
 2169SOL    HW2 8674   1.193   0.478   3.293 -0.4028  0.7945 -0.6156
 2169SOL    HW3 8675   1.043   0.466   3.279 -0.4377  0.8409 -0.2892
 2169SOL    MW4 8676   1.112   0.501   3.317 -0.3513  0.3066  0.0460
 2170SOL     OW 8677   4.308   3.724   4.184 -0.5739  0.0960  0.2816
 2170SOL    HW2 8678   4.329   3.648   4.130  0.6445  0.3319  0.4036
 2170SOL    HW3 8679   4.228   3.759   4.147  0.0504  0.0282 -1.1460
 2170SOL    MW4 8680   4.300   3.719   4.172 -0.3308  0.1182  0.1094
 2171SOL     OW 8681   2.800   1.382   3.885 -0.4841  0.5217 -0.3415
 2171SOL    HW2 8682   2.883   1.414   3.919 -0.6544 -0.0373  0.6066
 2171SOL    HW3 8683   2.821   1.352   3.796  0.0373  1.6074 -0.5987
 2171SOL    MW4 8684   2.814   1.383   3.878 -0.4378  0.5912 -0.2504
 2172SOL     OW 8685   3.814   4.596   4.412 -0.5517 -0.2178 -0.0065
 2172SOL    HW2 8686   3.748   4.544   4.365 -1.2395  1.0263 -0.4261
 2172SOL    HW3 8687   3.775   4.613   4.498 -0.1532 -0.7392  0.2805
 2172SOL    MW4 8688   3.800   4.591   4.417 -0.5899 -0.1225 -0.0240
 2173SOL     OW 8689   3.306   1.031   4.345 -0.4550 -0.0635 -0.5117
 2173SOL    HW2 8690   3.297   0.995   4.256  0.6075  1.8499 -1.4343
 2173SOL    HW3 8691   3.389   0.996   4.376 -1.1420 -1.2570 -0.0188
 2173SOL    MW4 8692   3.316   1.022   4.337 -0.4054  0.0315 -0.5684
 2174SOL     OW 8693   0.275   2.054   3.270  0.3423  0.0411  0.2059
 2174SOL    HW2 8694   0.249   2.139   3.232  0.7987  1.0416  2.0910
 2174SOL    HW3 8695   0.198   1.998   3.258  0.4796  0.3223 -2.1927
 2174SOL    MW4 8696   0.261   2.058   3.263  0.4207  0.2102  0.1382
 2175SOL     OW 8697   0.282   2.088   3.544 -0.3013 -0.0187  0.1441
 2175SOL    HW2 8698   0.306   2.073   3.453  0.8023 -0.3436  0.4759
 2175SOL    HW3 8699   0.305   2.180   3.560 -0.2855 -0.0237  0.1503
 2175SOL    MW4 8700   0.288   2.098   3.534 -0.1536 -0.0622  0.1887
 2176SOL     OW 8701   4.233   3.511   4.025 -0.3540  0.0201 -0.2209
 2176SOL    HW2 8702   4.163   3.463   3.981 -0.0807  1.3374 -2.1906
 2176SOL    HW3 8703   4.295   3.532   3.955  1.0997  0.4523  1.1654
 2176SOL    MW4 8704   4.232   3.508   4.010 -0.1262  0.2509 -0.2979
 2177SOL     OW 8705   0.886   3.349   4.437 -0.4036  0.1473  0.6838
 2177SOL    HW2 8706   0.823   3.403   4.485  0.4129  0.1332  1.8132
 2177SOL    HW3 8707   0.891   3.268   4.488  0.3024  0.0357  0.4430
 2177SOL    MW4 8708   0.879   3.345   4.450 -0.2027  0.1308  0.8010
 2178SOL     OW 8709   3.153   3.511   3.887 -0.3947 -0.0842  0.3378
 2178SOL    HW2 8710   3.110   3.519   3.802  2.0700  0.9054 -0.8902
 2178SOL    HW3 8711   3.166   3.601   3.916  0.2832 -0.3721  0.9500
 2178SOL    MW4 8712   3.149   3.524   3.880  0.0199  0.0084  0.2566
 2179SOL     OW 8713   3.748   1.449   4.415  0.2786 -0.1383  0.6503
 2179SOL    HW2 8714   3.830   1.413   4.382  0.2000 -0.5638  0.9132
 2179SOL    HW3 8715   3.680   1.399   4.369  0.1682  0.2466  0.3970
 2179SOL    MW4 8716   3.750   1.438   4.404  0.2537 -0.1436  0.6516
 2180SOL     OW 8717   3.450   4.126   4.169  0.7535 -0.0835 -0.0202
 2180SOL    HW2 8718   3.461   4.178   4.249 -0.4930 -0.5905  0.5086
 2180SOL    HW3 8719   3.448   4.190   4.098 -0.9282  0.6363  0.6384
 2180SOL    MW4 8720   3.451   4.141   4.170  0.3672 -0.0554  0.1365
 2181SOL     OW 8721   0.886   0.550   4.129 -0.6247  0.3073 -0.0922
 2181SOL    HW2 8722   0.888   0.467   4.080 -1.6443 -0.4588  1.1451
 2181SOL    HW3 8723   0.892   0.524   4.221  0.7871  1.7189  0.2232
 2181SOL    MW4 8724   0.887   0.536   4.134 -0.5730  0.3925  0.1126
 2182SOL     OW 8725   4.002   0.061   3.624  0.1930  0.3503  0.9298
 2182SOL    HW2 8726   4.073   0.069   3.687  0.8646 -0.6828  0.3014
 2182SOL    HW3 8727   3.966  -0.026   3.637 -1.2917  1.0326  1.5769
 2182SOL    MW4 8728   4.007   0.051   3.634  0.0857  0.3040  0.9323
 2183SOL     OW 8729   1.576   4.234   3.756 -0.5427  0.0742  0.5857
 2183SOL    HW2 8730   1.511   4.225   3.826  0.4729 -1.0975  1.3928
 2183SOL    HW3 8731   1.614   4.147   3.747  1.5094  0.9278  0.7128
 2183SOL    MW4 8732   1.572   4.221   3.764 -0.1379  0.0322  0.7089
 2184SOL     OW 8733   4.167   0.177   4.424 -0.2750 -0.2330 -0.2666
 2184SOL    HW2 8734   4.226   0.242   4.461 -0.8132  0.0320  0.1246
 2184SOL    HW3 8735   4.094   0.172   4.485  0.0183 -1.6116 -0.0029
 2184SOL    MW4 8736   4.165   0.185   4.437 -0.3073 -0.3799 -0.1802
 2185SOL     OW 8737   3.561   1.258   4.325  0.4473  0.7679 -0.0575
 2185SOL    HW2 8738   3.477   1.279   4.366 -0.2724 -0.6598 -0.8015
 2185SOL    HW3 8739   3.544   1.262   4.231  1.0687 -0.1086 -0.2085
 2185SOL    MW4 8740   3.548   1.261   4.318  0.4343  0.4639 -0.1756
 2186SOL     OW 8741   3.386   0.659   3.917  0.1303 -0.5628  0.2102
 2186SOL    HW2 8742   3.368   0.677   3.825  2.4175  1.6843  0.1503
 2186SOL    HW3 8743   3.468   0.609   3.917 -0.4842 -1.6102  0.9893
 2186SOL    MW4 8744   3.395   0.655   3.905  0.3510 -0.4045  0.3051
 2187SOL     OW 8745   3.888   3.313   3.670 -0.5146  0.2637 -0.1105
 2187SOL    HW2 8746   3.958   3.262   3.631 -1.3486 -0.0542 -1.2069
 2187SOL    HW3 8747   3.873   3.273   3.756 -0.2595 -0.4974 -0.4224
 2187SOL    MW4 8748   3.895   3.301   3.676 -0.5910  0.1213 -0.2963
 2188SOL     OW 8749   2.124   2.300   4.289  0.3421 -0.6101 -0.6115
 2188SOL    HW2 8750   2.218   2.317   4.281  0.0962  0.4544 -1.3482
 2188SOL    HW3 8751   2.115   2.207   4.267  1.1542 -0.5905 -1.0641
 2188SOL    MW4 8752   2.136   2.290   4.285  0.4168 -0.4671 -0.7684
 2189SOL     OW 8753   1.864   3.264   3.605 -0.0531  0.1301 -0.0140
 2189SOL    HW2 8754   1.817   3.335   3.649  0.0549  0.1215  0.1167
 2189SOL    HW3 8755   1.955   3.276   3.631  0.1071  0.5022 -0.7439
 2189SOL    MW4 8756   1.870   3.275   3.614 -0.0177  0.1781 -0.0931
 2190SOL     OW 8757   2.870   2.853   3.337  0.0802 -0.0190 -0.5216
 2190SOL    HW2 8758   2.897   2.934   3.294 -0.4275  0.4746  0.0838
 2190SOL    HW3 8759   2.866   2.875   3.430  2.1288 -1.3491 -0.0995
 2190SOL    MW4 8760   2.873   2.867   3.343  0.2835 -0.1294 -0.3861
 2191SOL     OW 8761   2.534   1.125   4.182 -0.0084 -0.4333 -0.2070
 2191SOL    HW2 8762   2.560   1.099   4.270 -0.5284 -0.2334  0.0149
 2191SOL    HW3 8763   2.462   1.187   4.196 -1.2409 -1.6936 -0.8120
 2191SOL    MW4 8764   2.528   1.130   4.195 -0.2397 -0.5732 -0.2575
 2192SOL     OW 8765   3.077   2.214   4.294 -0.1309  0.8182  0.1897
 2192SOL    HW2 8766   3.037   2.135   4.331  0.6427 -0.8041 -2.2628
 2192SOL    HW3 8767   3.160   2.223   4.340 -0.4919  0.5181  0.9023
 2192SOL    MW4 8768   3.082   2.205   4.305 -0.0765  0.5646 -0.0398
 2193SOL     OW 8769   0.121   2.616   4.511  0.3123 -0.0245 -0.4729
 2193SOL    HW2 8770   0.210   2.617   4.546  0.4173  0.1767 -0.7466
 2193SOL    HW3 8771   0.087   2.529   4.535  0.8905 -0.4419 -1.1451
 2193SOL    MW4 8772   0.128   2.604   4.519  0.4025 -0.0530 -0.5977
 2194SOL     OW 8773   0.477   1.651   3.300 -0.0488 -0.2778 -0.1780
 2194SOL    HW2 8774   0.494   1.663   3.393 -0.5015 -0.1199 -0.1162
 2194SOL    HW3 8775   0.480   1.739   3.263 -0.0801 -0.3183 -0.2776
 2194SOL    MW4 8776   0.480   1.664   3.307 -0.1127 -0.2623 -0.1830
 2195SOL     OW 8777   3.597   1.675   3.292  0.1624  0.5955  0.0167
 2195SOL    HW2 8778   3.674   1.628   3.259 -0.1145  1.6714 -2.2903
 2195SOL    HW3 8779   3.623   1.706   3.378  1.1642 -1.8072  0.6327
 2195SOL    MW4 8780   3.611   1.673   3.299  0.2580  0.4205 -0.2064
 2196SOL     OW 8781   1.606   3.377   3.944 -0.1474  0.0159 -0.7502
 2196SOL    HW2 8782   1.680   3.382   4.005  0.1278 -0.7758 -1.0155
 2196SOL    HW3 8783   1.628   3.438   3.874 -1.8609  3.2469  1.4133
 2196SOL    MW4 8784   1.618   3.386   3.943 -0.3372  0.3378 -0.4998
 2197SOL     OW 8785   2.832   3.531   4.167 -0.6494  0.3998  0.3039
 2197SOL    HW2 8786   2.838   3.602   4.102  1.1397 -0.0902 -0.0723
 2197SOL    HW3 8787   2.755   3.481   4.140 -0.6850  0.9581 -0.6606
 2197SOL    MW4 8788   2.823   3.534   4.155 -0.4180  0.4088  0.1270
 2198SOL     OW 8789   0.633   2.095   3.534  0.2154 -0.2292  0.0052
 2198SOL    HW2 8790   0.574   2.030   3.573 -0.1482  0.3324  0.3962
 2198SOL    HW3 8791   0.661   2.055   3.452 -1.0427 -0.3261 -0.3938
 2198SOL    MW4 8792   0.629   2.081   3.529  0.0015 -0.1679  0.0041
 2199SOL     OW 8793   3.536   3.239   4.043  0.0016 -0.2080 -0.7073
 2199SOL    HW2 8794   3.582   3.256   4.126  0.1078 -0.0103 -0.8069
 2199SOL    HW3 8795   3.482   3.162   4.062 -1.5373  1.0460  0.1474
 2199SOL    MW4 8796   3.535   3.231   4.057 -0.1874 -0.0165 -0.6076
 2200SOL     OW 8797   3.926   0.250   3.813 -0.3574  0.4357  0.7896
 2200SOL    HW2 8798   3.926   0.184   3.744 -0.4939  0.2855  0.9334
 2200SOL    HW3 8799   3.897   0.204   3.892 -0.3230  0.6342  0.9215
 2200SOL    MW4 8800   3.922   0.236   3.815 -0.3709  0.4421  0.8260
 2201SOL     OW 8801   1.818   1.466   3.703  0.1763  0.2360 -0.0966
 2201SOL    HW2 8802   1.785   1.459   3.792 -0.3507  0.3721 -0.2793
 2201SOL    HW3 8803   1.810   1.559   3.680  1.8551  0.5029  0.2949
 2201SOL    MW4 8804   1.813   1.477   3.711  0.3283  0.2892 -0.0690
 2202SOL     OW 8805   2.075   2.711   4.003 -0.0354  0.0358 -0.6023
 2202SOL    HW2 8806   2.048   2.633   4.052  1.6929  0.4368  1.0382
 2202SOL    HW3 8807   2.074   2.682   3.912  0.8268 -2.0078 -0.0095
 2202SOL    MW4 8808   2.071   2.697   3.998  0.3064 -0.1809 -0.3076
 2203SOL     OW 8809   3.841   1.632   3.670  0.3574  0.9103  0.2571
 2203SOL    HW2 8810   3.789   1.552   3.674 -1.4235  1.9645 -1.2815
 2203SOL    HW3 8811   3.929   1.602   3.645 -0.2100 -0.5986  0.0528
 2203SOL    MW4 8812   3.846   1.618   3.667  0.0476  0.8503  0.0272
 2204SOL     OW 8813   1.544   0.032   3.828  0.4679 -0.1759  0.3427
 2204SOL    HW2 8814   1.521  -0.005   3.913  1.1439  0.8429  0.9705
 2204SOL    HW3 8815   1.507  -0.030   3.765 -0.6354 -0.5671  1.3600
 2204SOL    MW4 8816   1.536   0.019   3.831  0.4116 -0.0931  0.5597
 2205SOL     OW 8817   0.805   3.664   3.972 -0.0399  0.2556  0.1996
 2205SOL    HW2 8818   0.790   3.606   3.897 -0.7412  0.6950 -0.0067
 2205SOL    HW3 8819   0.732   3.645   4.032  0.1212  0.4173  0.4483
 2205SOL    MW4 8820   0.793   3.654   3.970 -0.1112  0.3349  0.2052
 2206SOL     OW 8821   3.595   2.707   3.842  0.2861 -0.3753  0.0538
 2206SOL    HW2 8822   3.623   2.644   3.776  1.8605 -0.3109  0.6396
 2206SOL    HW3 8823   3.619   2.792   3.805 -0.5315 -0.2166 -0.1109
 2206SOL    MW4 8824   3.602   2.710   3.828  0.3859 -0.3459  0.1093
 2207SOL     OW 8825   2.197   3.339   4.412 -0.4505 -0.0396  0.0946
 2207SOL    HW2 8826   2.152   3.423   4.421 -1.3916 -0.4014 -1.1046
 2207SOL    HW3 8827   2.289   3.362   4.396 -1.0220  0.7958 -2.0728
 2207SOL    MW4 8828   2.203   3.353   4.411 -0.6501  0.0229 -0.3496
 2208SOL     OW 8829   2.914   4.393   3.399 -0.1280  0.1717 -0.2605
 2208SOL    HW2 8830   2.918   4.476   3.352 -0.4232 -0.4225 -1.3461
 2208SOL    HW3 8831   2.821   4.370   3.400 -0.1222  0.1735  0.6083
 2208SOL    MW4 8832   2.902   4.401   3.393 -0.1662  0.0935 -0.2891
 2209SOL     OW 8833   0.659   2.860   3.310  0.1774  0.2339 -0.4096
 2209SOL    HW2 8834   0.726   2.803   3.271  0.7127 -0.8942  2.0701
 2209SOL    HW3 8835   0.690   2.877   3.398 -1.6044  1.7418 -0.0426
 2209SOL    MW4 8836   0.672   2.854   3.316  0.0129  0.2840 -0.0340
 2210SOL     OW 8837   3.682   1.403   3.660  0.2551 -0.6308 -0.5509
 2210SOL    HW2 8838   3.741   1.339   3.619  0.6427  0.6695 -2.0619
 2210SOL    HW3 8839   3.595   1.378   3.629  0.5619  0.4300 -2.3185
 2210SOL    MW4 8840   3.679   1.391   3.650  0.3467 -0.3193 -0.9834
 2211SOL     OW 8841   4.230   0.452   4.065 -0.2066 -0.1013 -0.2891
 2211SOL    HW2 8842   4.290   0.527   4.059  1.1847 -1.3047 -1.6665
 2211SOL    HW3 8843   4.287   0.376   4.077 -1.5573 -1.0690  0.1181
 2211SOL    MW4 8844   4.245   0.452   4.066 -0.2013 -0.3878 -0.4171
 2212SOL     OW 8845   2.040   3.624   3.319  0.5862 -0.0767 -0.1761
 2212SOL    HW2 8846   1.975   3.560   3.289  0.0836  0.4662 -0.2608
 2212SOL    HW3 8847   2.124   3.578   3.314 -0.0257 -1.4387  1.8456
 2212SOL    MW4 8848   2.043   3.610   3.314  0.4391 -0.1848  0.0795
 2213SOL     OW 8849   4.075   4.574   4.317 -0.9608  0.2330 -0.0847
 2213SOL    HW2 8850   3.987   4.569   4.353 -1.0825 -0.8634 -0.4944
 2213SOL    HW3 8851   4.118   4.643   4.367 -1.2397 -0.9959  1.9276
 2213SOL    MW4 8852   4.069   4.582   4.328 -1.0136 -0.0738  0.1268
 2214SOL     OW 8853   4.376   3.570   3.790  0.0022  0.1707  0.2627
 2214SOL    HW2 8854   4.471   3.583   3.782 -0.0656 -0.4795 -1.7183
 2214SOL    HW3 8855   4.338   3.621   3.719 -1.2103  1.1458  1.5860
 2214SOL    MW4 8856   4.384   3.578   3.780 -0.1668  0.2135  0.1759
 2215SOL     OW 8857   4.000   1.330   4.309  0.3459 -0.0349 -0.2639
 2215SOL    HW2 8858   4.037   1.413   4.278  1.3101 -0.9264 -1.5690
 2215SOL    HW3 8859   3.949   1.297   4.235 -1.5128  0.2607  0.8733
 2215SOL    MW4 8860   3.998   1.336   4.295  0.2279 -0.1136 -0.2860
 2216SOL     OW 8861   1.717   0.439   4.053  0.2448 -0.0020 -0.0687
 2216SOL    HW2 8862   1.734   0.510   4.116  1.1347 -0.2406 -0.0310
 2216SOL    HW3 8863   1.794   0.383   4.060 -0.6329 -1.1868  0.1861
 2216SOL    MW4 8864   1.729   0.441   4.063  0.2464 -0.1898 -0.0301
 2217SOL     OW 8865   3.411   3.943   3.213  0.1261 -0.0594 -0.2819
 2217SOL    HW2 8866   3.424   3.851   3.233 -1.4244  0.3544  2.9923
 2217SOL    HW3 8867   3.499   3.982   3.220  0.7169 -1.1885 -1.2872
 2217SOL    MW4 8868   3.425   3.936   3.217 -0.0005 -0.1538  0.0175
 2218SOL     OW 8869   2.728   1.216   3.240  0.3837 -0.1950 -0.0869
 2218SOL    HW2 8870   2.722   1.195   3.147 -0.2872  0.3852 -0.1726
 2218SOL    HW3 8871   2.638   1.234   3.267  0.6020 -0.1688  0.6294
 2218SOL    MW4 8872   2.716   1.216   3.231  0.3240 -0.1150 -0.0037
 2219SOL     OW 8873   0.134   0.973   3.777 -0.8253  0.5198  0.2347
 2219SOL    HW2 8874   0.061   0.927   3.736  0.7695 -0.2799 -1.7898
 2219SOL    HW3 8875   0.168   1.030   3.709  1.5842 -0.4877  0.5365
 2219SOL    MW4 8876   0.129   0.974   3.763 -0.2970  0.2814  0.0074
 2220SOL     OW 8877   4.242   0.805   4.046  0.6504  0.5725 -0.9890
 2220SOL    HW2 8878   4.251   0.899   4.037  0.7583  0.6724  0.0468
 2220SOL    HW3 8879   4.252   0.789   4.140 -1.4672 -0.2399 -0.8819
 2220SOL    MW4 8880   4.245   0.815   4.057  0.3852  0.4785 -0.8382
 2221SOL     OW 8881   2.979   4.574   4.288  0.0503  0.1400  0.2743
 2221SOL    HW2 8882   3.005   4.647   4.232  0.0810 -0.6502 -0.7588
 2221SOL    HW3 8883   3.049   4.510   4.277  0.0050 -0.0549  1.1414
 2221SOL    MW4 8884   2.992   4.575   4.279  0.0484  0.0100  0.2524
 2222SOL     OW 8885   2.734   4.401   4.230  0.1299 -0.1421 -0.2987
 2222SOL    HW2 8886   2.662   4.438   4.179  0.9873  0.8329 -0.8170
 2222SOL    HW3 8887   2.804   4.466   4.222  1.2441 -1.3420 -0.2452
 2222SOL    MW4 8888   2.733   4.415   4.223  0.3900 -0.1718 -0.3600
 2223SOL     OW 8889   1.412   0.871   3.291 -0.8835 -0.1708  0.1728
 2223SOL    HW2 8890   1.481   0.808   3.270 -0.9946 -0.8107  1.6865
 2223SOL    HW3 8891   1.331   0.828   3.265 -0.7521  0.5185 -1.4587
 2223SOL    MW4 8892   1.411   0.857   3.284 -0.8809 -0.1643  0.1573
 2224SOL     OW 8893   0.183   2.819   3.300  0.4186  0.4357 -0.0750
 2224SOL    HW2 8894   0.191   2.914   3.294  1.9045  0.2798 -0.8282
 2224SOL    HW3 8895   0.268   2.786   3.269  0.2520 -1.1083  1.0848
 2224SOL    MW4 8896   0.195   2.827   3.295  0.5926  0.2114 -0.0214
 2225SOL     OW 8897   1.592   1.182   4.112 -0.1286 -0.3315  0.0589
 2225SOL    HW2 8898   1.637   1.203   4.193  0.0724 -1.4429  0.2516
 2225SOL    HW3 8899   1.648   1.116   4.070  0.0848  0.6705 -1.2692
 2225SOL    MW4 8900   1.606   1.176   4.117 -0.0739 -0.3459 -0.0909
 2226SOL     OW 8901   3.075   3.955   4.637 -0.1134  0.4171 -0.6418
 2226SOL    HW2 8902   3.058   3.897   4.563 -0.5757 -0.9085  0.4821
 2226SOL    HW3 8903   3.170   3.953   4.647  0.0631  1.6120 -1.9938
 2226SOL    MW4 8904   3.085   3.947   4.629 -0.1511  0.3999 -0.6719
 2227SOL     OW 8905   2.166   0.570   4.340 -0.1771  0.5807 -0.1509
 2227SOL    HW2 8906   2.082   0.563   4.386 -0.4502  0.4052 -0.6833
 2227SOL    HW3 8907   2.184   0.482   4.309  0.2251  0.6113 -0.0085
 2227SOL    MW4 8908   2.157   0.558   4.342 -0.1601  0.5616 -0.2023
 2228SOL     OW 8909   4.362   0.367   4.543 -0.0126 -0.1321 -0.0765
 2228SOL    HW2 8910   4.424   0.339   4.475 -0.5221 -1.1197 -0.1449
 2228SOL    HW3 8911   4.417   0.386   4.619  0.4791  0.0940 -0.4800
 2228SOL    MW4 8912   4.378   0.365   4.544 -0.0149 -0.2326 -0.1388
 2229SOL     OW 8913   2.216   4.586   3.981 -0.0311 -0.0839 -0.5659
 2229SOL    HW2 8914   2.183   4.642   4.051 -0.0661  1.1465 -1.5501
 2229SOL    HW3 8915   2.237   4.503   4.024  0.9751  1.0142  1.0905
 2229SOL    MW4 8916   2.215   4.582   3.996  0.0970  0.2233 -0.4772
 2230SOL     OW 8917   1.630   0.713   3.192 -0.3783  0.2244  0.2143
 2230SOL    HW2 8918   1.697   0.757   3.244  1.3461  1.0872 -2.6697
 2230SOL    HW3 8919   1.646   0.620   3.205  1.4418  0.4278 -0.5038
 2230SOL    MW4 8920   1.641   0.707   3.201  0.0893  0.3651 -0.2609
 2231SOL     OW 8921   2.270   4.140   3.752 -0.0306  0.1068 -0.0107
 2231SOL    HW2 8922   2.314   4.077   3.809 -0.3457  0.2643  0.4118
 2231SOL    HW3 8923   2.231   4.087   3.683 -1.0836 -0.2592  0.8575
 2231SOL    MW4 8924   2.271   4.125   3.750 -0.2111  0.0793  0.1596
 2232SOL     OW 8925   1.144   1.797   3.938  0.1692  0.1621 -0.0906
 2232SOL    HW2 8926   1.201   1.724   3.912 -0.7865 -0.5165 -0.3259
 2232SOL    HW3 8927   1.185   1.874   3.901  0.4380 -0.4351 -1.0497
 2232SOL    MW4 8928   1.157   1.797   3.930  0.0785 -0.0062 -0.2482
 2233SOL     OW 8929   1.927   2.069   3.579 -0.4732 -0.0720  0.1851
 2233SOL    HW2 8930   1.834   2.091   3.574 -0.5713 -0.3368  0.7430
 2233SOL    HW3 8931   1.931   1.997   3.642 -0.0164 -0.8270 -0.6935
 2233SOL    MW4 8932   1.915   2.062   3.587 -0.4258 -0.2065  0.1428
 2234SOL     OW 8933   3.642   1.787   3.551  0.2203  0.3163  0.5685
 2234SOL    HW2 8934   3.718   1.736   3.582  0.0759 -0.2874 -0.0609
 2234SOL    HW3 8935   3.642   1.865   3.606  2.0605  0.9372 -0.2485
 2234SOL    MW4 8936   3.652   1.790   3.562  0.4440  0.3186  0.3777
 2235SOL     OW 8937   0.435   3.266   3.313 -0.2314  0.2610 -0.3864
 2235SOL    HW2 8938   0.428   3.271   3.408 -0.5148  1.4030 -0.4576
 2235SOL    HW3 8939   0.361   3.210   3.286 -0.4173  0.3076  0.0270
 2235SOL    MW4 8940   0.424   3.259   3.322 -0.2933  0.4178 -0.3412
 2236SOL     OW 8941   1.421   2.079   4.022 -0.0091  0.3338  0.4665
 2236SOL    HW2 8942   1.487   2.147   4.009  1.5026 -1.2633 -0.4106
 2236SOL    HW3 8943   1.370   2.079   3.941  0.0195  0.4127  0.4484
 2236SOL    MW4 8944   1.423   2.088   4.010  0.1941  0.1335  0.3484
 2237SOL     OW 8945   3.803   2.077   3.330 -0.3640 -0.1758  0.1823
 2237SOL    HW2 8946   3.874   2.014   3.320 -1.5013 -1.5270  0.5289
 2237SOL    HW3 8947   3.728   2.037   3.285 -0.9554  1.1661 -0.0735
 2237SOL    MW4 8948   3.802   2.063   3.322 -0.5921 -0.1770  0.1943
 2238SOL     OW 8949   3.678   3.251   4.284  0.2255 -0.1739  0.1606
 2238SOL    HW2 8950   3.634   3.327   4.323  0.8492 -0.3897  1.3193
 2238SOL    HW3 8951   3.756   3.238   4.339  0.2085 -1.5386 -0.1272
 2238SOL    MW4 8952   3.682   3.259   4.297  0.3055 -0.3824  0.2755
 2239SOL     OW 8953   3.186   2.852   4.270 -0.0401 -0.4068 -0.3044
 2239SOL    HW2 8954   3.255   2.881   4.330  0.4059 -0.4298 -0.8146
 2239SOL    HW3 8955   3.108   2.900   4.300  0.3803  0.2635 -0.2593
 2239SOL    MW4 8956   3.185   2.862   4.282  0.0742 -0.3214 -0.3658
 2240SOL     OW 8957   0.008   3.434   4.387 -0.0342 -0.1153 -0.9995
 2240SOL    HW2 8958  -0.019   3.525   4.399  0.6741 -0.0979  0.5130
 2240SOL    HW3 8959   0.103   3.436   4.391 -0.0391 -1.0230 -0.2411
 2240SOL    MW4 8960   0.017   3.446   4.389  0.0586 -0.2328 -0.6999
 2241SOL     OW 8961   1.527   1.611   3.987 -0.0848 -0.0516  0.3681
 2241SOL    HW2 8962   1.463   1.576   3.926 -0.8858 -0.7086  1.5520
 2241SOL    HW3 8963   1.605   1.557   3.975 -0.5855 -0.8342  0.6399
 2241SOL    MW4 8964   1.529   1.599   3.978 -0.2566 -0.2415  0.5602
 2242SOL     OW 8965   2.703   2.736   3.985 -0.1218  0.2658  0.4859
 2242SOL    HW2 8966   2.763   2.665   3.962 -0.8004  0.0920 -0.7604
 2242SOL    HW3 8967   2.761   2.806   4.015  0.5489 -0.8755  1.9713
 2242SOL    MW4 8968   2.719   2.736   3.986 -0.1228  0.0923  0.5174
 2243SOL     OW 8969   4.059   3.644   4.501  0.1787 -0.0249 -0.3946
 2243SOL    HW2 8970   4.081   3.738   4.504 -0.5352  0.1267  0.1832
 2243SOL    HW3 8971   4.119   3.604   4.564 -0.9828  0.3494  0.9697
 2243SOL    MW4 8972   4.070   3.651   4.510 -0.0688  0.0445 -0.1384
 2244SOL     OW 8973   1.330   1.817   4.382  0.1195 -0.3843  0.1084
 2244SOL    HW2 8974   1.378   1.758   4.324 -0.3486  0.3954 -1.1059
 2244SOL    HW3 8975   1.398   1.874   4.419  0.4185 -0.8596  0.2939
 2244SOL    MW4 8976   1.345   1.817   4.379  0.0972 -0.3441 -0.0273
 2245SOL     OW 8977   2.668   4.605   4.577  0.2997  0.0697  0.0322
 2245SOL    HW2 8978   2.752   4.642   4.549  0.0110 -0.2523 -1.2833
 2245SOL    HW3 8979   2.672   4.513   4.552 -0.3825  0.0158  0.1048
 2245SOL    MW4 8980   2.679   4.598   4.570  0.1716  0.0201 -0.1318
 2246SOL     OW 8981   3.399   2.044   3.347  0.2901  0.4305  0.3267
 2246SOL    HW2 8982   3.315   2.001   3.338  0.3784  0.4513 -0.7425
 2246SOL    HW3 8983   3.383   2.134   3.320  0.5363  0.5604  0.6134
 2246SOL    MW4 8984   3.386   2.050   3.342  0.3342  0.4504  0.2235
 2247SOL     OW 8985   0.772   1.297   3.828 -0.2686  0.4773  0.1224
 2247SOL    HW2 8986   0.850   1.279   3.881 -0.8183 -0.1765  0.7117
 2247SOL    HW3 8987   0.790   1.254   3.745 -0.2801 -0.2413  0.4851
 2247SOL    MW4 8988   0.785   1.289   3.824 -0.3426  0.2962  0.2480
 2248SOL     OW 8989   0.233   0.442   4.221  0.3186 -0.3267 -0.3431
 2248SOL    HW2 8990   0.271   0.447   4.134 -1.1756 -0.6451 -1.0314
 2248SOL    HW3 8991   0.189   0.526   4.234  1.8358  0.3244  0.7385
 2248SOL    MW4 8992   0.232   0.454   4.211  0.3216 -0.2828 -0.2912
 2249SOL     OW 8993   3.778   0.561   3.374 -0.2371  0.3077 -0.0035
 2249SOL    HW2 8994   3.710   0.505   3.336 -0.4913 -0.6154  1.7877
 2249SOL    HW3 8995   3.860   0.526   3.340 -0.6080  1.3122 -2.0270
 2249SOL    MW4 8996   3.780   0.549   3.364 -0.3196  0.3184 -0.0341
 2250SOL     OW 8997   1.102   1.879   4.227  0.2830 -0.0578  0.0296
 2250SOL    HW2 8998   1.181   1.866   4.279  0.1588 -0.3987  0.1304
 2250SOL    HW3 8999   1.124   1.844   4.141 -0.3654 -1.8443  0.5566
 2250SOL    MW4 9000   1.115   1.873   4.222  0.1811 -0.3385  0.1125
 2251SOL     OW 9001   3.873   3.978   3.661 -0.0491  0.4136  0.1777
 2251SOL    HW2 9002   3.782   3.978   3.689 -0.1184 -1.7575  0.0730
 2251SOL    HW3 9003   3.915   4.045   3.714 -1.4804  0.6800  0.9871
 2251SOL    MW4 9004   3.867   3.987   3.671 -0.2471  0.1623  0.2707
 2252SOL     OW 9005   1.260   3.970   4.287 -0.0351 -0.0921 -0.1964
 2252SOL    HW2 9006   1.224   3.941   4.203  1.2049 -0.3009 -0.6767
 2252SOL    HW3 9007   1.285   4.061   4.272  0.2066 -0.1362 -0.0680
 2252SOL    MW4 9008   1.259   3.978   4.274  0.1604 -0.1254 -0.2428
 2253SOL     OW 9009   0.985   1.053   4.315  0.3632  0.9424  0.0514
 2253SOL    HW2 9010   0.937   1.135   4.320  0.8672  1.3999 -2.2974
 2253SOL    HW3 9011   0.965   1.018   4.228  0.3909 -1.2934  0.8925
 2253SOL    MW4 9012   0.976   1.059   4.305  0.4334  0.7078 -0.1475
 2254SOL     OW 9013   2.248   3.407   3.983 -0.2792 -0.4129  0.0015
 2254SOL    HW2 9014   2.260   3.336   4.046  1.9083  1.1970  1.4705
 2254SOL    HW3 9015   2.335   3.421   3.946 -0.7483  1.3061 -0.4917
 2254SOL    MW4 9016   2.261   3.399   3.986 -0.0525  0.0263  0.1302
 2255SOL     OW 9017   0.523   1.615   3.579 -0.0656 -0.7200  0.3477
 2255SOL    HW2 9018   0.447   1.567   3.612 -0.5081 -0.4926 -0.3349
 2255SOL    HW3 9019   0.518   1.701   3.621 -0.9587 -0.2225 -0.7433
 2255SOL    MW4 9020   0.512   1.620   3.589 -0.2418 -0.6243  0.1137
 2256SOL     OW 9021   4.418   3.989   4.166 -0.4047  0.3197 -0.3161
 2256SOL    HW2 9022   4.374   4.033   4.238  1.7108 -1.7558  2.3379
 2256SOL    HW3 9023   4.395   3.897   4.175  0.5148 -0.0930 -1.8352
 2256SOL    MW4 9024   4.409   3.983   4.177 -0.0043 -0.0086 -0.1664
 2257SOL     OW 9025   2.713   3.246   3.650  0.4121 -0.0378 -0.2207
 2257SOL    HW2 9026   2.794   3.209   3.684  2.1583  2.7620 -1.1746
 2257SOL    HW3 9027   2.717   3.230   3.555  0.6364  1.4569 -0.4847
 2257SOL    MW4 9028   2.724   3.239   3.642  0.6721  0.5288 -0.3814
 2258SOL     OW 9029   2.928   2.925   3.660 -0.5587 -0.7050 -0.2387
 2258SOL    HW2 9030   3.010   2.877   3.654 -0.2733 -0.2099 -0.3628
 2258SOL    HW3 9031   2.954   3.014   3.684 -1.1202 -0.7467  0.5246
 2258SOL    MW4 9032   2.942   2.931   3.662 -0.5951 -0.6452 -0.1543
 2259SOL     OW 9033   3.840   2.173   3.607 -0.3074  0.0267  0.3513
 2259SOL    HW2 9034   3.781   2.111   3.649 -1.7945  0.0289 -1.6505
 2259SOL    HW3 9035   3.836   2.151   3.514  0.5812  1.9414 -0.1721
 2259SOL    MW4 9036   3.832   2.162   3.600 -0.3864  0.2796  0.0181
 2260SOL     OW 9037   1.504   4.623   3.212 -0.6614 -0.2792 -0.3350
 2260SOL    HW2 9038   1.436   4.667   3.263 -0.2957 -0.3638  0.2255
 2260SOL    HW3 9039   1.518   4.539   3.256 -0.8588 -0.6664 -0.9946
 2260SOL    MW4 9040   1.497   4.618   3.224 -0.6392 -0.3414 -0.3481
 2261SOL     OW 9041   2.373   0.282   3.999 -0.0432  0.2167  0.0902
 2261SOL    HW2 9042   2.431   0.229   4.052  1.3125 -0.0501 -1.6004
 2261SOL    HW3 9043   2.417   0.367   3.993  1.2767 -0.5906 -2.8728
 2261SOL    MW4 9044   2.387   0.286   4.005  0.3098  0.0750 -0.5238
 2262SOL     OW 9045   2.952   1.550   0.626  0.4126 -0.2461  0.4146
 2262SOL    HW2 9046   2.872   1.526   0.674  0.5745 -0.2254  0.6951
 2262SOL    HW3 9047   2.948   1.646   0.622  0.1318 -0.2751 -0.0757
 2262SOL    MW4 9048   2.941   1.560   0.632  0.3969 -0.2472  0.3869
 2263SOL     OW 9049   0.246   3.089   3.757 -0.0646  0.0717  0.0048
 2263SOL    HW2 9050   0.251   2.995   3.743  0.1014  0.0068  0.4973
 2263SOL    HW3 9051   0.155   3.112   3.739  0.1266 -0.0172 -1.1313
 2263SOL    MW4 9052   0.235   3.080   3.752 -0.0175  0.0514 -0.0801
 2264SOL     OW 9053   2.513   2.619   4.156  0.1176  0.0062 -0.2261
 2264SOL    HW2 9054   2.440   2.682   4.163 -0.5214 -0.8157  0.6978
 2264SOL    HW3 9055   2.578   2.664   4.102  0.1200  1.9029  1.2606
 2264SOL    MW4 9056   2.512   2.634   4.150  0.0336  0.1480  0.0919
 2265SOL     OW 9057   4.453   2.830   4.450 -0.1382  0.2058 -0.1700
 2265SOL    HW2 9058   4.498   2.830   4.366 -0.6446 -0.9172 -0.4455
 2265SOL    HW3 9059   4.491   2.755   4.498 -1.1974 -0.3241 -0.1366
 2265SOL    MW4 9060   4.464   2.820   4.445 -0.3448 -0.0123 -0.2019
 2266SOL     OW 9061   4.483   3.177   3.638  0.2011 -0.6308  0.4757
 2266SOL    HW2 9062   4.408   3.226   3.672 -1.1797 -1.3779 -1.4206
 2266SOL    HW3 9063   4.493   3.207   3.548  2.2896 -0.4577  0.7314
 2266SOL    MW4 9064   4.475   3.187   3.631  0.2945 -0.7065  0.2593
 2267SOL     OW 9065   2.933   2.557   3.989 -0.2470 -0.3352  0.4764
 2267SOL    HW2 9066   2.948   2.521   3.901  0.9023  1.1562  0.0513
 2267SOL    HW3 9067   3.020   2.573   4.024 -0.7253  0.7306  1.2008
 2267SOL    MW4 9068   2.946   2.555   3.982 -0.1585  0.0022  0.5159
 2268SOL     OW 9069   0.911   0.166   4.242 -0.0651  0.2761 -0.2635
 2268SOL    HW2 9070   0.903   0.235   4.176  0.7254 -0.7929 -1.4973
 2268SOL    HW3 9071   0.975   0.199   4.305  0.0089  0.8325 -0.6356
 2268SOL    MW4 9072   0.918   0.179   4.242  0.0490  0.2085 -0.4754
 2269SOL     OW 9073   1.993   3.128   4.033 -0.3057 -0.0253 -0.2920
 2269SOL    HW2 9074   2.079   3.154   4.066  0.2394  1.2149 -2.6366
 2269SOL    HW3 9075   1.963   3.061   4.095  2.1533 -0.1812  0.7679
 2269SOL    MW4 9076   2.000   3.123   4.046  0.0907  0.1178 -0.4615
 2270SOL     OW 9077   0.714   0.155   3.848  0.0141 -0.2497 -0.0487
 2270SOL    HW2 9078   0.768   0.121   3.777 -1.2240 -1.5305 -0.3942
 2270SOL    HW3 9079   0.696   0.079   3.904 -1.9047  0.0152 -0.2659
 2270SOL    MW4 9080   0.719   0.141   3.846 -0.4024 -0.3837 -0.1230
 2271SOL     OW 9081   3.300   0.832   4.118  0.1420 -0.7622 -0.2766
 2271SOL    HW2 9082   3.332   0.782   4.043  0.3668  0.5208 -1.0524
 2271SOL    HW3 9083   3.224   0.880   4.084  0.2189 -0.2077  0.3273
 2271SOL    MW4 9084   3.294   0.832   4.104  0.1818 -0.5198 -0.2993
 2272SOL     OW 9085   4.150   2.354   3.577  0.1179 -0.1480  0.3150
 2272SOL    HW2 9086   4.135   2.430   3.632  0.6295 -0.9944  1.6598
 2272SOL    HW3 9087   4.245   2.342   3.578  0.1826  0.1325 -1.1800
 2272SOL    MW4 9088   4.161   2.362   3.585  0.1940 -0.2227  0.2952
 2273SOL     OW 9089   1.835   3.369   4.090 -0.0334 -0.2404  0.4294
 2273SOL    HW2 9090   1.887   3.448   4.104  0.1270  0.0105 -1.4853
 2273SOL    HW3 9091   1.898   3.304   4.059 -0.7425 -0.1407 -1.2194
 2273SOL    MW4 9092   1.850   3.371   4.088 -0.1058 -0.1942 -0.0408
 2274SOL     OW 9093   2.641   2.482   4.354 -0.2778  0.4003  0.1235
 2274SOL    HW2 9094   2.716   2.436   4.317  0.4759  1.1466  0.7208
 2274SOL    HW3 9095   2.605   2.532   4.281  0.9891  1.5804  0.2951
 2274SOL    MW4 9096   2.646   2.482   4.339 -0.0112  0.6544  0.2249
 2275SOL     OW 9097   2.257   0.327   4.255  0.5995  0.0675 -0.4517
 2275SOL    HW2 9098   2.319   0.324   4.327  0.3483  0.2062 -0.2302
 2275SOL    HW3 9099   2.305   0.367   4.183  0.8016  0.0663 -0.3163
 2275SOL    MW4 9100   2.272   0.332   4.255  0.5930  0.0856 -0.4046
 2276SOL     OW 9101   3.752   0.471   4.638  0.0952 -0.0698  0.3109
 2276SOL    HW2 9102   3.720   0.510   4.557 -0.8963  0.8174  1.1074
 2276SOL    HW3 9103   3.799   0.542   4.683 -0.4058 -0.2003  1.0630
 2276SOL    MW4 9104   3.754   0.486   4.634 -0.1017  0.0300  0.5152
 2277SOL     OW 9105   1.637   4.351   4.105 -0.0778 -0.0046  0.1091
 2277SOL    HW2 9106   1.724   4.364   4.068 -1.0525  1.6004 -1.7446
 2277SOL    HW3 9107   1.603   4.273   4.061 -0.5929  0.9502 -1.2562
 2277SOL    MW4 9108   1.644   4.343   4.094 -0.2744  0.3331 -0.3156
 2278SOL     OW 9109   3.757   3.149   3.880  0.1717  0.2095 -0.6968
 2278SOL    HW2 9110   3.798   3.085   3.938  0.2453  0.3220 -0.6244
 2278SOL    HW3 9111   3.675   3.173   3.924  1.1836  1.8196  0.3725
 2278SOL    MW4 9112   3.752   3.144   3.894  0.3149  0.4368 -0.5461
 2279SOL     OW 9113   4.300   2.589   3.944  0.2576 -0.0424 -0.0700
 2279SOL    HW2 9114   4.337   2.509   3.981 -1.4520 -1.2117 -0.8041
 2279SOL    HW3 9115   4.260   2.634   4.018  0.0420 -0.5417  0.1150
 2279SOL    MW4 9116   4.299   2.585   3.959  0.0036 -0.2626 -0.1424
 2280SOL     OW 9117   2.537   3.495   3.927 -0.4407  0.1233 -0.7391
 2280SOL    HW2 9118   2.553   3.586   3.951  0.7164  0.2036 -1.7966
 2280SOL    HW3 9119   2.607   3.473   3.866 -1.3730 -1.1292 -1.3828
 2280SOL    MW4 9120   2.548   3.504   3.922 -0.4110 -0.0313 -0.9636
 2281SOL     OW 9121   0.302   2.294   4.479  0.5633 -0.6396 -0.2470
 2281SOL    HW2 9122   0.369   2.340   4.530 -1.1811  1.1804  0.4531
 2281SOL    HW3 9123   0.328   2.307   4.388 -2.0478  5.4119 -0.3345
 2281SOL    MW4 9124   0.314   2.302   4.474 -0.0113  0.3989 -0.1662
 2282SOL     OW 9125   4.088   2.564   3.755  0.6573 -0.3211 -0.7229
 2282SOL    HW2 9126   4.164   2.557   3.812  0.0017  0.1132  0.2222
 2282SOL    HW3 9127   4.111   2.632   3.693 -0.4971  2.7331  2.0494
 2282SOL    MW4 9128   4.101   2.572   3.755  0.4185  0.1392 -0.2324
 2283SOL     OW 9129   4.085   2.456   4.294 -0.8175 -0.0648 -0.0545
 2283SOL    HW2 9130   4.012   2.410   4.333 -0.5991  0.0982  0.5455
 2283SOL    HW3 9131   4.161   2.401   4.313 -0.7410 -0.0941 -0.4355
 2283SOL    MW4 9132   4.086   2.443   4.301 -0.7786 -0.0471 -0.0256
 2284SOL     OW 9133   1.922   0.186   4.092  0.2717 -0.0072  0.2163
 2284SOL    HW2 9134   1.996   0.134   4.123  0.4023 -0.4675 -0.8569
 2284SOL    HW3 9135   1.892   0.141   4.013 -1.4825 -0.1189  0.9301
 2284SOL    MW4 9136   1.928   0.173   4.086  0.0575 -0.0827  0.1689
 2285SOL     OW 9137   3.101   3.124   3.994  0.3441 -0.6569 -0.6945
 2285SOL    HW2 9138   3.190   3.090   4.001  0.6377  0.0669 -0.8410
 2285SOL    HW3 9139   3.104   3.208   4.040 -0.0626 -0.2521 -1.4070
 2285SOL    MW4 9140   3.113   3.131   4.001  0.3292 -0.5080 -0.8078
 2286SOL     OW 9141   3.917   4.231   3.774  0.0708  0.2742  0.3845
 2286SOL    HW2 9142   3.895   4.313   3.729  0.0825  0.2348  0.3067
 2286SOL    HW3 9143   3.906   4.252   3.867  1.5507  0.8118  0.4571
 2286SOL    MW4 9144   3.912   4.245   3.781  0.2676  0.3399  0.3838
 2287SOL     OW 9145   3.076   1.006   4.043 -0.3543 -0.7192 -0.3006
 2287SOL    HW2 9146   2.993   0.963   4.023 -0.3111 -0.6957 -0.5284
 2287SOL    HW3 9147   3.053   1.074   4.107 -0.3042 -1.5765  0.6524
 2287SOL    MW4 9148   3.062   1.009   4.049 -0.3420 -0.8292 -0.2049
 2288SOL     OW 9149   1.918   3.015   4.347 -0.3962 -0.3504  0.0544
 2288SOL    HW2 9150   1.855   2.960   4.300 -0.2082 -0.2903 -0.2758
 2288SOL    HW3 9151   1.869   3.093   4.371  0.1077  0.6946 -2.1582
 2288SOL    MW4 9152   1.903   3.018   4.344 -0.3049 -0.2046 -0.2811
 2289SOL     OW 9153   2.737   1.395   4.380  0.1525  0.0745 -0.0353
 2289SOL    HW2 9154   2.734   1.350   4.296  0.9581 -1.1952  0.5930
 2289SOL    HW3 9155   2.703   1.330   4.442  0.0942  0.8032  0.7038
 2289SOL    MW4 9156   2.732   1.380   4.377  0.2511  0.0031  0.1451
 2290SOL     OW 9157   3.878   4.467   3.659 -0.0833 -0.0165 -0.0797
 2290SOL    HW2 9158   3.856   4.471   3.565  0.5456  1.3032 -0.1853
 2290SOL    HW3 9159   3.796   4.488   3.703 -0.2020  0.1171 -0.3598
 2290SOL    MW4 9160   3.864   4.470   3.652 -0.0160  0.1753 -0.1306
 2291SOL     OW 9161   3.975   0.652   4.663 -0.4765  0.0357 -0.1616
 2291SOL    HW2 9162   4.037   0.602   4.610  1.1575 -0.2629  1.9888
 2291SOL    HW3 9163   4.025   0.727   4.694 -1.1891 -0.1735  1.5367
 2291SOL    MW4 9164   3.990   0.655   4.660 -0.3549 -0.0313  0.3462
 2292SOL     OW 9165   4.269   3.321   3.740  0.3902 -0.0321  0.1118
 2292SOL    HW2 9166   4.209   3.317   3.814  2.3819 -0.9240  1.7318
 2292SOL    HW3 9167   4.321   3.400   3.755  1.0809 -0.4366 -0.1112
 2292SOL    MW4 9168   4.268   3.331   3.752  0.7441 -0.2031  0.2961
 2293SOL     OW 9169   3.775   3.621   4.036  0.0729  0.0420 -0.1431
 2293SOL    HW2 9170   3.816   3.545   4.077  0.4071 -0.0711 -0.6707
 2293SOL    HW3 9171   3.778   3.602   3.942  0.7558  0.9879 -0.3284
 2293SOL    MW4 9172   3.781   3.609   4.029  0.2071  0.1519 -0.2372
 2294SOL     OW 9173   1.201   1.419   4.181  0.1852 -0.3420  0.2829
 2294SOL    HW2 9174   1.142   1.421   4.257  0.1702  0.0510  0.2607
 2294SOL    HW3 9175   1.234   1.329   4.179  0.2138 -0.3446  0.7784
 2294SOL    MW4 9176   1.198   1.407   4.191  0.1870 -0.2905  0.3453
 2295SOL     OW 9177   2.872   0.537   3.641  0.0319  0.2694  0.0746
 2295SOL    HW2 9178   2.943   0.487   3.680  0.3187 -0.3178 -1.1746
 2295SOL    HW3 9179   2.792   0.498   3.677  0.2725 -0.7489 -0.4850
 2295SOL    MW4 9180   2.871   0.525   3.651  0.1015  0.0576 -0.1640
 2296SOL     OW 9181   3.367   0.207   4.886 -0.1069 -0.1969  0.0696
 2296SOL    HW2 9182   3.365   0.267   4.961  0.3896 -0.1136  0.0214
 2296SOL    HW3 9183   3.442   0.237   4.834 -0.3241 -0.3847 -0.3518
 2296SOL    MW4 9184   3.377   0.219   4.889 -0.0701 -0.2107  0.0076
 2297SOL     OW 9185   1.264   1.086   4.365  0.0907  0.1405 -0.1075
 2297SOL    HW2 9186   1.178   1.046   4.360  0.0132  0.3750 -0.7651
 2297SOL    HW3 9187   1.288   1.104   4.274  0.7434  0.2657  0.0792
 2297SOL    MW4 9188   1.256   1.083   4.352  0.1666  0.1880 -0.1696
 2298SOL     OW 9189   2.653   2.866   3.750 -0.0492  0.2197 -0.1706
 2298SOL    HW2 9190   2.737   2.898   3.716 -0.1567 -0.9774 -1.6032
 2298SOL    HW3 9191   2.677   2.814   3.827  0.4744  0.4105 -0.2041
 2298SOL    MW4 9192   2.667   2.863   3.756  0.0057  0.0869 -0.3640
 2299SOL     OW 9193   1.208   1.575   4.523 -0.3134 -0.1516  0.8474
 2299SOL    HW2 9194   1.278   1.640   4.513 -0.3588 -0.3288 -0.8229
 2299SOL    HW3 9195   1.217   1.544   4.613  1.0058  0.6909  1.0286
 2299SOL    MW4 9196   1.219   1.580   4.533 -0.1453 -0.0638  0.6509
 2300SOL     OW 9197   3.976   1.794   4.427 -0.3685  0.0596 -0.0090
 2300SOL    HW2 9198   4.033   1.733   4.379  0.0721 -0.7169  1.4720
 2300SOL    HW3 9199   3.893   1.747   4.434  0.5529 -1.2529  2.8556
 2300SOL    MW4 9200   3.973   1.779   4.421 -0.1888 -0.2161  0.5643
 2301SOL     OW 9201   0.372   0.211   3.565  0.4065 -0.2972 -0.4096
 2301SOL    HW2 9202   0.289   0.165   3.579 -0.3150  0.2638 -2.6248
 2301SOL    HW3 9203   0.354   0.301   3.591  0.5564 -0.3456 -0.1383
 2301SOL    MW4 9204   0.359   0.217   3.570  0.3311 -0.2296 -0.6660
 2302SOL     OW 9205   1.611   2.760   3.996  0.1273  0.2328 -0.0438
 2302SOL    HW2 9206   1.552   2.834   4.010 -1.8978 -0.9154 -2.2798
 2302SOL    HW3 9207   1.570   2.688   4.044 -0.9581 -0.8565 -2.5207
 2302SOL    MW4 9208   1.598   2.760   4.004 -0.2831 -0.0624 -0.6656
 2303SOL     OW 9209   3.528   0.251   4.430  0.1605 -0.4552  0.0266
 2303SOL    HW2 9210   3.616   0.228   4.402  0.0670  0.5336 -1.1643
 2303SOL    HW3 9211   3.501   0.319   4.368 -1.7296 -1.3141 -0.1373
 2303SOL    MW4 9212   3.536   0.257   4.418 -0.1012 -0.4381 -0.1521
 2304SOL     OW 9213   3.124   2.753   3.272  0.1284 -0.1576 -0.2261
 2304SOL    HW2 9214   3.203   2.800   3.298  0.6148 -1.4786  0.7927
 2304SOL    HW3 9215   3.056   2.787   3.330  0.7190 -1.4396  1.2880
 2304SOL    MW4 9216   3.125   2.763   3.283  0.2705 -0.5010  0.1081
 2305SOL     OW 9217   1.028   4.301   4.209  0.0708 -0.2093 -0.2375
 2305SOL    HW2 9218   0.983   4.219   4.229 -0.8655  0.7804  1.7849
 2305SOL    HW3 9219   1.057   4.291   4.118 -2.2809 -1.7371 -0.8396
 2305SOL    MW4 9220   1.026   4.289   4.200 -0.3630 -0.2803 -0.0501
 2306SOL     OW 9221   0.879   0.308   3.990 -0.4118  0.0729 -0.4903
 2306SOL    HW2 9222   0.830   0.262   3.922  0.4931 -1.6653 -0.0093
 2306SOL    HW3 9223   0.970   0.300   3.963 -0.0909 -0.1632  0.6364
 2306SOL    MW4 9224   0.884   0.301   3.978 -0.2501 -0.1876 -0.2782
 2307SOL     OW 9225   0.709   3.562   4.431 -0.0754  0.1943 -0.1166
 2307SOL    HW2 9226   0.743   3.641   4.389 -0.5803  0.3336 -0.2593
 2307SOL    HW3 9227   0.633   3.592   4.481  0.2065 -0.0598  0.4705
 2307SOL    MW4 9228   0.704   3.577   4.432 -0.1049  0.1792 -0.0580
 2308SOL     OW 9229   4.440   0.234   3.707  0.4057 -0.2347 -0.2445
 2308SOL    HW2 9230   4.391   0.300   3.659  1.1643  1.4845  1.2738
 2308SOL    HW3 9231   4.376   0.165   3.725 -0.6211  0.4892 -1.0733
 2308SOL    MW4 9232   4.425   0.234   3.703  0.3703  0.0877 -0.1536
 2309SOL     OW 9233   1.506   3.093   4.297  0.6013  0.0311 -0.2969
 2309SOL    HW2 9234   1.536   3.005   4.321  1.9143  0.9180  1.4304
 2309SOL    HW3 9235   1.579   3.150   4.320 -0.4661  1.6448 -0.8459
 2309SOL    MW4 9236   1.519   3.089   4.304  0.6337  0.3611 -0.1415
 2310SOL     OW 9237   0.878   0.083   3.646 -0.0880 -0.2245 -0.4309
 2310SOL    HW2 9238   0.950   0.145   3.656 -0.9673  0.6921  0.2290
 2310SOL    HW3 9239   0.876   0.065   3.552 -0.0833  1.0559 -0.6830
 2310SOL    MW4 9240   0.887   0.089   3.635 -0.2034  0.0653 -0.3771
 2311SOL     OW 9241   2.488   2.356   3.949 -0.0336  0.7804 -0.4489
 2311SOL    HW2 9242   2.571   2.313   3.970 -0.0970  0.2707 -1.2112
 2311SOL    HW3 9243   2.487   2.435   4.003  1.0061  0.8544 -0.5404
 2311SOL    MW4 9244   2.499   2.360   3.959  0.0952  0.7229 -0.5615
 2312SOL     OW 9245   0.377   3.425   4.119 -0.2510  0.1442  0.0350
 2312SOL    HW2 9246   0.372   3.334   4.091 -0.5595 -0.2612  1.3758
 2312SOL    HW3 9247   0.307   3.469   4.070  0.1464 -0.2450 -0.9027
 2312SOL    MW4 9248   0.367   3.419   4.109 -0.2393  0.0394  0.0882
 2313SOL     OW 9249   0.702   4.413   3.390  0.0381  0.0141 -0.3512
 2313SOL    HW2 9250   0.707   4.426   3.485  0.4922  0.2779 -0.4103
 2313SOL    HW3 9251   0.777   4.358   3.369 -1.9164 -2.8457 -0.0917
 2313SOL    MW4 9252   0.713   4.408   3.400 -0.1599 -0.3284 -0.3248
 2314SOL     OW 9253   0.512   4.262   3.283 -0.2905  0.1007  0.1184
 2314SOL    HW2 9254   0.537   4.263   3.190  0.1059  0.0112  0.2235
 2314SOL    HW3 9255   0.582   4.309   3.327 -1.1094  1.2611  0.2226
 2314SOL    MW4 9256   0.524   4.268   3.277 -0.3463  0.2420  0.1461
 2315SOL     OW 9257   1.400   1.147   3.213  0.3865 -0.1922  0.3283
 2315SOL    HW2 9258   1.424   1.058   3.236  1.1829 -0.1773 -0.4112
 2315SOL    HW3 9259   1.471   1.201   3.248  0.3586  0.0619 -0.0021
 2315SOL    MW4 9260   1.412   1.143   3.221  0.4879 -0.1567  0.1872
 2316SOL     OW 9261   2.705   3.976   3.360 -0.2456  1.0266 -0.0379
 2316SOL    HW2 9262   2.665   3.953   3.443  0.6723 -0.6331 -0.0369
 2316SOL    HW3 9263   2.647   3.938   3.294  0.9599 -0.8653 -0.0492
 2316SOL    MW4 9264   2.692   3.968   3.362  0.0346  0.5580 -0.0392
 2317SOL     OW 9265   4.467   2.807   3.930  0.2168  0.0514  0.0170
 2317SOL    HW2 9266   4.458   2.831   3.838  0.3129 -0.0001 -0.0064
 2317SOL    HW3 9267   4.404   2.736   3.942 -0.7058  0.9088  0.3080
 2317SOL    MW4 9268   4.458   2.801   3.919  0.1078  0.1577  0.0523
 2318SOL     OW 9269   1.112   4.227   3.959  0.1449  0.3191 -0.5782
 2318SOL    HW2 9270   1.128   4.142   3.998 -0.6052  0.2609 -0.3836
 2318SOL    HW3 9271   1.040   4.212   3.897  0.7252  0.5908 -1.3313
 2318SOL    MW4 9272   1.104   4.214   3.956  0.1225  0.3473 -0.6519
 2319SOL     OW 9273   0.050   0.263   4.341 -0.3776 -0.3583  0.5121
 2319SOL    HW2 9274   0.113   0.321   4.298 -0.8414 -1.0187 -1.1246
 2319SOL    HW3 9275   0.082   0.175   4.322 -2.0649 -0.7113 -0.8087
 2319SOL    MW4 9276   0.063   0.259   4.333 -0.6614 -0.4920  0.1219
 2320SOL     OW 9277   0.884   3.751   4.327  0.3009 -0.9007  0.4913
 2320SOL    HW2 9278   0.933   3.685   4.278  0.4916 -1.3457  1.2760
 2320SOL    HW3 9279   0.942   3.776   4.399  0.6315  0.8313 -0.3376
 2320SOL    MW4 9280   0.898   3.746   4.330  0.3697 -0.7309  0.4855
 2321SOL     OW 9281   0.612   3.020   4.410 -0.1370 -0.4686 -0.0130
 2321SOL    HW2 9282   0.685   2.983   4.459  0.3134  1.1585  0.5727
 2321SOL    HW3 9283   0.652   3.051   4.328  0.1572  1.9035  0.9993
 2321SOL    MW4 9284   0.627   3.019   4.405 -0.0387  0.0590  0.1979
 2322SOL     OW 9285   0.300   1.447   3.668  0.0130  0.1604  0.6010
 2322SOL    HW2 9286   0.225   1.471   3.615  1.0715  1.8980 -0.1825
 2322SOL    HW3 9287   0.304   1.515   3.736  1.0967  0.3004  0.4058
 2322SOL    MW4 9288   0.291   1.459   3.670  0.2956  0.4081  0.4718
 2323SOL     OW 9289   2.381   0.439   3.613  0.3338  0.5146 -0.2436
 2323SOL    HW2 9290   2.407   0.465   3.524 -0.0093  0.4341 -0.3653
 2323SOL    HW3 9291   2.465   0.424   3.658  0.5038  0.2178 -0.6530
 2323SOL    MW4 9292   2.396   0.441   3.607  0.3110  0.4648 -0.3137
 2324SOL     OW 9293   0.904   2.684   3.956  0.4902  0.8756  0.1722
 2324SOL    HW2 9294   0.905   2.738   3.877 -0.8328 -1.7198 -1.6995
 2324SOL    HW3 9295   0.968   2.615   3.939  0.6384  0.6184  1.6579
 2324SOL    MW4 9296   0.913   2.682   3.944  0.3352  0.4992  0.1213
 2325SOL     OW 9297   1.927   0.788   4.053 -0.0135  0.6499  0.2957
 2325SOL    HW2 9298   2.000   0.816   4.107  1.4597  0.0739 -1.3576
 2325SOL    HW3 9299   1.964   0.775   3.966 -2.1636  0.7673 -0.6871
 2325SOL    MW4 9300   1.941   0.790   4.049 -0.1028  0.5894 -0.0521
 2326SOL     OW 9301   0.005   2.335   4.553 -0.0060  0.6535  0.3146
 2326SOL    HW2 9302   0.097   2.327   4.529  0.0156 -1.1114  0.9122
 2326SOL    HW3 9303  -0.003   2.287   4.636 -1.4494  0.8076  0.2826
 2326SOL    MW4 9304   0.016   2.328   4.561 -0.1936  0.4410  0.3892
 2327SOL     OW 9305   3.626   2.120   4.402  0.4086  0.2535 -0.3309
 2327SOL    HW2 9306   3.711   2.147   4.437  0.3603 -1.4925  1.1529
 2327SOL    HW3 9307   3.646   2.047   4.344 -0.0528  0.0721 -0.2647
 2327SOL    MW4 9308   3.640   2.114   4.399  0.3414 -0.0008 -0.1264
 2328SOL     OW 9309   1.146   0.854   3.671  0.5421 -0.0154 -0.2951
 2328SOL    HW2 9310   1.153   0.759   3.668 -0.2324 -0.0744 -0.4291
 2328SOL    HW3 9311   1.224   0.886   3.627  0.4255 -0.6028 -0.9371
 2328SOL    MW4 9312   1.157   0.846   3.665  0.4246 -0.1006 -0.3975
 2329SOL     OW 9313   1.106   3.823   4.469  0.1914 -0.1185  0.6124
 2329SOL    HW2 9314   1.165   3.871   4.412  0.4890  2.1181  2.7487
 2329SOL    HW3 9315   1.163   3.765   4.520  0.2123 -0.1508  0.5523
 2329SOL    MW4 9316   1.121   3.822   4.468  0.2334  0.1723  0.8863
 2330SOL     OW 9317   0.595   1.438   4.024 -0.2428  0.4531 -0.2616
 2330SOL    HW2 9318   0.653   1.389   3.966  1.3099 -0.9853  2.4080
 2330SOL    HW3 9319   0.622   1.529   4.015  0.9039  0.0658 -0.7357
 2330SOL    MW4 9320   0.606   1.443   4.015  0.1133  0.2122  0.0280
 2331SOL     OW 9321   1.503   3.180   4.587  0.2348  0.1189  0.5170
 2331SOL    HW2 9322   1.478   3.167   4.495  0.2585  0.5853  0.4417
 2331SOL    HW3 9323   1.558   3.104   4.608  2.6144  1.4376 -0.7052
 2331SOL    MW4 9324   1.507   3.168   4.577  0.5519  0.3544  0.3458
 2332SOL     OW 9325   3.296   1.423   4.152 -0.0470 -0.2063  0.4844
 2332SOL    HW2 9326   3.290   1.369   4.231 -0.5664  0.4304  0.8760
 2332SOL    HW3 9327   3.303   1.513   4.184  1.3545 -0.0640 -0.1536
 2332SOL    MW4 9328   3.296   1.428   4.167  0.0694 -0.1035  0.4519
 2333SOL     OW 9329   3.109   0.537   4.380  0.0264 -0.1680  0.1234
 2333SOL    HW2 9330   3.101   0.447   4.410 -0.9316 -0.1450 -0.0443
 2333SOL    HW3 9331   3.043   0.546   4.311  1.1083  0.2442 -0.8739
 2333SOL    MW4 9332   3.099   0.526   4.375  0.0427 -0.1106 -0.0303
 2334SOL     OW 9333   0.775   3.086   4.173 -0.6365 -0.0745 -0.4441
 2334SOL    HW2 9334   0.816   3.172   4.159 -0.5510  0.0692  0.6032
 2334SOL    HW3 9335   0.841   3.023   4.142  0.3802  0.1606  1.1660
 2334SOL    MW4 9336   0.789   3.089   4.167 -0.4910 -0.0245 -0.0935
 2335SOL     OW 9337   2.745   4.165   4.095 -0.5072  0.8491 -0.2232
 2335SOL    HW2 9338   2.812   4.116   4.142  0.0738  0.1954 -1.7183
 2335SOL    HW3 9339   2.759   4.256   4.123  0.3163  0.5752  0.2913
 2335SOL    MW4 9340   2.756   4.171   4.105 -0.3219  0.7267 -0.3526
 2336SOL     OW 9341   1.312   1.657   3.345 -0.3479 -0.2567 -0.1542
 2336SOL    HW2 9342   1.242   1.607   3.301  1.0983 -0.6160 -2.1395
 2336SOL    HW3 9343   1.392   1.610   3.322  0.8471  1.8524 -0.4070
 2336SOL    MW4 9344   1.313   1.644   3.336  0.0006 -0.0259 -0.4495
 2337SOL     OW 9345   4.105   3.485   4.282 -0.6993  0.2131  0.0486
 2337SOL    HW2 9346   4.097   3.551   4.351  1.2960  0.4384  0.1136
 2337SOL    HW3 9347   4.129   3.535   4.204 -1.7990 -0.1653 -0.5405
 2337SOL    MW4 9348   4.107   3.500   4.281 -0.5812  0.1929 -0.0206
 2338SOL     OW 9349   0.201   0.774   3.226 -0.1539 -0.2001  0.3018
 2338SOL    HW2 9350   0.123   0.813   3.265 -0.1914 -1.1746  1.2314
 2338SOL    HW3 9351   0.274   0.822   3.266 -0.2473  0.2273 -0.0318
 2338SOL    MW4 9352   0.201   0.786   3.236 -0.1712 -0.2723  0.3804
 2339SOL     OW 9353   2.944   4.644   3.279  0.1697  0.4561 -0.3831
 2339SOL    HW2 9354   2.859   4.678   3.307 -0.1401  0.0545 -0.8504
 2339SOL    HW3 9355   2.937   4.635   3.184  0.9333  0.9864 -0.4953
 2339SOL    MW4 9356   2.932   4.647   3.270  0.2296  0.4731 -0.4596
 2340SOL     OW 9357   2.389   1.515   4.107 -0.0024 -0.0221 -0.1771
 2340SOL    HW2 9358   2.435   1.498   4.025 -1.4355  1.2475 -1.2526
 2340SOL    HW3 9359   2.452   1.562   4.161  1.1068 -1.2828 -0.3409
 2340SOL    MW4 9360   2.403   1.519   4.103 -0.0451 -0.0209 -0.3406
 2341SOL     OW 9361   0.090   1.838   4.288 -0.5154  0.7630  0.1311
 2341SOL    HW2 9362   0.119   1.792   4.209 -1.5087 -0.3490  0.3952
 2341SOL    HW3 9363   0.158   1.904   4.305  2.3776 -2.3642  1.2624
 2341SOL    MW4 9364   0.102   1.841   4.280 -0.2647  0.2037  0.3152
 2342SOL     OW 9365   0.985   2.748   4.389 -0.0481 -0.3936  0.0101
 2342SOL    HW2 9366   0.968   2.654   4.396  2.0808 -0.7951 -0.0702
 2342SOL    HW3 9367   1.078   2.758   4.406 -0.1216  1.6502 -0.5863
 2342SOL    MW4 9368   0.995   2.737   4.392  0.2231 -0.1769 -0.0792
 2343SOL     OW 9369   3.647   3.235   3.561  0.8047 -0.0095 -0.5947
 2343SOL    HW2 9370   3.642   3.142   3.585  0.6220 -0.1957 -1.3513
 2343SOL    HW3 9371   3.725   3.267   3.607 -0.6902  0.1501  1.9250
 2343SOL    MW4 9372   3.657   3.227   3.571  0.5834 -0.0130 -0.3620
 2344SOL     OW 9373   4.036   0.884   3.358 -0.2758  0.0959  0.0112
 2344SOL    HW2 9374   4.090   0.824   3.307 -1.5147 -0.1232 -1.0853
 2344SOL    HW3 9375   4.076   0.886   3.445  0.4370 -1.4473 -0.2714
 2344SOL    MW4 9376   4.048   0.877   3.363 -0.3452 -0.1366 -0.1708
 2345SOL     OW 9377   3.852   3.573   3.764 -0.3663  0.5531  0.3549
 2345SOL    HW2 9378   3.881   3.484   3.743 -0.0112  0.2859  1.9575
 2345SOL    HW3 9379   3.802   3.600   3.687  0.1853 -0.7372 -0.4766
 2345SOL    MW4 9380   3.849   3.565   3.751 -0.2467  0.3476  0.4567
 2346SOL     OW 9381   3.844   1.294   3.321  0.0371 -0.3384  0.3436
 2346SOL    HW2 9382   3.759   1.259   3.293 -0.0610  0.0633  0.1275
 2346SOL    HW3 9383   3.909   1.238   3.277 -0.1171 -0.7429  0.6352
 2346SOL    MW4 9384   3.841   1.282   3.311  0.0038 -0.3387  0.3536
 2347SOL     OW 9385   3.385   1.274   3.337  0.6545 -0.1399  0.5056
 2347SOL    HW2 9386   3.464   1.231   3.304  0.1131 -0.2364 -0.6764
 2347SOL    HW3 9387   3.388   1.361   3.298 -0.1356 -0.3518 -0.0285
 2347SOL    MW4 9388   3.396   1.280   3.328  0.4789 -0.1806  0.2791
 2348SOL     OW 9389   0.004   4.393   3.581  0.3856  0.0425 -0.3777
 2348SOL    HW2 9390   0.023   4.307   3.619  0.7807 -0.3821 -1.5158
 2348SOL    HW3 9391   0.089   4.435   3.572  0.3307  0.0294 -1.0291
 2348SOL    MW4 9392   0.018   4.387   3.585  0.4305 -0.0152 -0.6138
 2349SOL     OW 9393   2.940   0.037   4.540  0.9499 -0.0344  0.3499
 2349SOL    HW2 9394   2.966  -0.026   4.472 -0.0893  0.7475 -0.8090
 2349SOL    HW3 9395   2.995   0.114   4.523 -0.1230  0.5887 -0.3517
 2349SOL    MW4 9396   2.951   0.039   4.529  0.6713  0.1509  0.1044
 2350SOL     OW 9397   3.761   3.708   3.538  0.0589 -0.1780 -0.1291
 2350SOL    HW2 9398   3.784   3.800   3.551 -0.6395 -0.0132 -0.0399
 2350SOL    HW3 9399   3.666   3.706   3.547  0.1291 -1.0125  0.4816
 2350SOL    MW4 9400   3.751   3.720   3.541 -0.0240 -0.2664 -0.0367
 2351SOL     OW 9401   3.410   1.669   3.664  0.1639 -0.2683  0.1903
 2351SOL    HW2 9402   3.411   1.575   3.646  1.3959  0.0033 -1.2856
 2351SOL    HW3 9403   3.492   1.701   3.627 -0.6434  1.5315 -0.0885
 2351SOL    MW4 9404   3.421   1.661   3.657  0.2199  0.0050 -0.0412
 2352SOL     OW 9405   2.270   2.691   3.659  0.3204  0.8127  0.3629
 2352SOL    HW2 9406   2.356   2.700   3.618  0.9761  0.9815  1.7488
 2352SOL    HW3 9407   2.253   2.597   3.659  0.5219  0.7763  0.1612
 2352SOL    MW4 9408   2.279   2.680   3.653  0.4335  0.8302  0.5191
 2353SOL     OW 9409   0.600   2.575   4.239 -0.1239  0.3256 -0.1557
 2353SOL    HW2 9410   0.560   2.650   4.283  0.2677  0.5775 -0.2280
 2353SOL    HW3 9411   0.601   2.600   4.146  3.1211  1.6887  0.1767
 2353SOL    MW4 9412   0.595   2.589   4.232  0.3559  0.5387 -0.1214
 2354SOL     OW 9413   1.825   3.514   4.488  0.3964  0.4457 -0.1867
 2354SOL    HW2 9414   1.763   3.586   4.495  0.3506  0.2371  1.7617
 2354SOL    HW3 9415   1.905   3.554   4.455  0.4759  1.4504  1.2204
 2354SOL    MW4 9416   1.827   3.529   4.485  0.4008  0.5507  0.2560
 2355SOL     OW 9417   2.406   0.660   4.465 -0.0911  0.6922 -0.0336
 2355SOL    HW2 9418   2.321   0.620   4.447 -0.3021  1.2131 -0.1966
 2355SOL    HW3 9419   2.440   0.611   4.539 -0.8821  0.9919  0.5328
 2355SOL    MW4 9420   2.399   0.648   4.472 -0.2233  0.8005  0.0196
 2356SOL     OW 9421   4.235   0.005   3.239 -0.6445 -0.1438  0.7680
 2356SOL    HW2 9422   4.254  -0.084   3.270 -1.3506  0.1588  2.1197
 2356SOL    HW3 9423   4.315   0.054   3.258  0.1300 -0.7245 -0.9443
 2356SOL    MW4 9424   4.248  -0.000   3.246 -0.6355 -0.1805  0.7204
 2357SOL     OW 9425   4.238   1.803   3.699  0.1593 -0.2287 -0.2881
 2357SOL    HW2 9426   4.282   1.840   3.622  0.3770 -1.6612 -0.8756
 2357SOL    HW3 9427   4.180   1.872   3.729  1.1266  0.8664 -0.8900
 2357SOL    MW4 9428   4.236   1.817   3.693  0.3157 -0.2732 -0.4450
 2358SOL     OW 9429   3.293   1.292   4.378  0.2953  0.3073 -0.1880
 2358SOL    HW2 9430   3.222   1.319   4.435  1.3894  1.5971  0.6028
 2358SOL    HW3 9431   3.284   1.197   4.370 -1.6334  0.4921 -0.2979
 2358SOL    MW4 9432   3.283   1.283   4.384  0.1852  0.5019 -0.0982
 2359SOL     OW 9433   3.344   3.793   4.205  0.0251  0.3683 -0.1577
 2359SOL    HW2 9434   3.421   3.740   4.185  0.0967  0.0970  0.8163
 2359SOL    HW3 9435   3.377   3.867   4.256 -0.5744 -0.6408  1.7205
 2359SOL    MW4 9436   3.358   3.796   4.209 -0.0446  0.1994  0.2186
 2360SOL     OW 9437   2.411   2.310   4.398 -0.3318 -0.2873 -0.3265
 2360SOL    HW2 9438   2.399   2.306   4.493  0.4809 -1.1750 -0.2524
 2360SOL    HW3 9439   2.471   2.383   4.384 -0.2724 -0.2993 -0.1376
 2360SOL    MW4 9440   2.417   2.319   4.409 -0.2167 -0.4060 -0.2918
 2361SOL     OW 9441   3.368   0.007   3.272  0.0413  0.1596 -0.4993
 2361SOL    HW2 9442   3.369   0.006   3.177  1.5142  1.8556 -0.5313
 2361SOL    HW3 9443   3.297   0.067   3.295  0.5363  0.7782 -0.5631
 2361SOL    MW4 9444   3.359   0.015   3.263  0.3010  0.4650 -0.5119
 2362SOL     OW 9445   1.083   2.415   4.203 -0.3408  0.3454  0.2553
 2362SOL    HW2 9446   1.089   2.321   4.217  0.6274  0.4153  0.3510
 2362SOL    HW3 9447   0.999   2.440   4.242 -0.1592 -0.3207  1.0953
 2362SOL    MW4 9448   1.072   2.406   4.210 -0.1891  0.2667  0.3787
 2363SOL     OW 9449   1.337   2.475   4.291 -0.8138  0.1985 -0.3300
 2363SOL    HW2 9450   1.359   2.389   4.328 -0.4200 -0.8839 -3.0019
 2363SOL    HW3 9451   1.248   2.465   4.259 -0.1013  0.1818 -2.3484
 2363SOL    MW4 9452   1.328   2.462   4.292 -0.6678  0.0535 -0.9488
 2364SOL     OW 9453   2.478   3.387   4.424 -0.0669 -0.6751 -0.0960
 2364SOL    HW2 9454   2.516   3.380   4.337  2.1363 -0.1192  0.7937
 2364SOL    HW3 9455   2.551   3.412   4.480 -1.9873  1.5475  1.4836
 2364SOL    MW4 9456   2.492   3.389   4.420 -0.0296 -0.3085  0.2298
 2365SOL     OW 9457   2.560   4.087   4.291  0.9623 -0.5205 -0.4988
 2365SOL    HW2 9458   2.621   4.117   4.223 -0.7329  1.9304 -1.0050
 2365SOL    HW3 9459   2.558   4.158   4.355 -0.0100 -1.3581  0.4201
 2365SOL    MW4 9460   2.568   4.100   4.290  0.6103 -0.3076 -0.4443
 2366SOL     OW 9461   2.851   2.374   4.191 -0.1353  0.1464 -0.0993
 2366SOL    HW2 9462   2.882   2.429   4.119 -0.4612  0.1123 -0.2696
 2366SOL    HW3 9463   2.930   2.342   4.233  0.0550  0.5847 -0.1265
 2366SOL    MW4 9464   2.866   2.377   4.187 -0.1532  0.1997 -0.1254
 2367SOL     OW 9465   3.203   2.597   4.120 -0.2074 -0.2501 -0.0535
 2367SOL    HW2 9466   3.192   2.677   4.170 -2.0474 -1.0432  0.8653
 2367SOL    HW3 9467   3.283   2.558   4.153  0.3078  0.8369 -0.0031
 2367SOL    MW4 9468   3.212   2.602   4.131 -0.3822 -0.2113  0.0744
 2368SOL     OW 9469   3.600   1.931   3.186  0.1084 -0.0569 -0.1373
 2368SOL    HW2 9470   3.611   1.848   3.233  1.5564  0.1983 -0.0055
 2368SOL    HW3 9471   3.528   1.974   3.232 -0.9556 -1.4130 -0.4789
 2368SOL    MW4 9472   3.592   1.926   3.199  0.1590 -0.2021 -0.1650
 2369SOL     OW 9473   3.370   3.965   4.655 -0.0800 -0.1218 -0.1829
 2369SOL    HW2 9474   3.354   3.876   4.684 -0.1132 -0.3240 -0.8104
 2369SOL    HW3 9475   3.404   3.956   4.566  1.2269  0.4225  0.2471
 2369SOL    MW4 9476   3.372   3.952   4.647  0.0881 -0.0767 -0.2089
 2370SOL     OW 9477   2.132   2.922   3.581 -0.0661  0.0704  0.3217
 2370SOL    HW2 9478   2.181   3.002   3.601 -1.3083  0.3643  2.3618
 2370SOL    HW3 9479   2.187   2.851   3.615  1.0850  0.0145 -1.5809
 2370SOL    MW4 9480   2.146   2.923   3.588 -0.0781  0.1018  0.3398
 2371SOL     OW 9481   2.661   4.344   4.492 -0.0026  0.7308 -0.6831
 2371SOL    HW2 9482   2.732   4.289   4.523  0.3506  1.2371 -0.5878
 2371SOL    HW3 9483   2.686   4.366   4.402 -0.3917  0.3192 -0.8923
 2371SOL    MW4 9484   2.674   4.340   4.484 -0.0074  0.7433 -0.6981
 2372SOL     OW 9485   1.940   2.813   3.735  0.0943 -0.4291 -0.0089
 2372SOL    HW2 9486   2.014   2.837   3.678 -0.0973  0.0657 -0.0516
 2372SOL    HW3 9487   1.902   2.897   3.760  0.5169 -0.6251  1.3102
 2372SOL    MW4 9488   1.945   2.827   3.731  0.1248 -0.3897  0.1595
 2373SOL     OW 9489   1.079   4.002   3.636  0.7064  0.0150  0.7458
 2373SOL    HW2 9490   1.087   3.918   3.682  2.7484 -0.4026 -0.3270
 2373SOL    HW3 9491   1.157   4.051   3.662  0.2830  0.9960  0.1858
 2373SOL    MW4 9492   1.090   3.997   3.646  0.9199  0.0893  0.5304
 2374SOL     OW 9493   2.394   4.342   3.352 -0.1763 -0.0176 -0.1975
 2374SOL    HW2 9494   2.322   4.319   3.294  0.4439  0.0818 -1.0128
 2374SOL    HW3 9495   2.355   4.343   3.440 -1.1219 -0.1265 -0.6137
 2374SOL    MW4 9496   2.379   4.339   3.356 -0.2193 -0.0189 -0.3599
 2375SOL     OW 9497   4.173   2.873   4.370  0.2888  0.3099  0.1504
 2375SOL    HW2 9498   4.165   2.819   4.291 -0.4898  0.5764  0.0429
 2375SOL    HW3 9499   4.257   2.848   4.408  0.3753 -0.2773 -0.4245
 2375SOL    MW4 9500   4.183   2.862   4.364  0.1975  0.2676  0.0604
 2376SOL     OW 9501   4.116   1.567   4.257  0.1055 -0.2994 -0.2262
 2376SOL    HW2 9502   4.102   1.605   4.170 -1.7675 -0.2149  0.1062
 2376SOL    HW3 9503   4.209   1.542   4.257  0.2658  0.2342 -2.0344
 2376SOL    MW4 9504   4.127   1.568   4.245 -0.1204 -0.2179 -0.4209
 2377SOL     OW 9505   0.882   0.882   3.291  0.5095  0.3820 -0.6413
 2377SOL    HW2 9506   0.862   0.892   3.385  0.7207  1.3240 -0.6953
 2377SOL    HW3 9507   0.959   0.826   3.289  0.9209  0.9337 -0.2214
 2377SOL    MW4 9508   0.889   0.876   3.303  0.5916  0.5790 -0.5931
 2378SOL     OW 9509   0.220   3.100   3.235  0.4668 -0.3902  0.4362
 2378SOL    HW2 9510   0.209   3.097   3.140  1.3930  1.4969  0.2448
 2378SOL    HW3 9511   0.141   3.142   3.267  1.2759  1.3362  0.2391
 2378SOL    MW4 9512   0.208   3.105   3.226  0.6957  0.0866  0.3849
 2379SOL     OW 9513   0.295   1.367   4.079 -0.4352  0.2192 -0.4133
 2379SOL    HW2 9514   0.348   1.413   4.014 -0.4560 -1.5031 -1.6555
 2379SOL    HW3 9515   0.205   1.375   4.046 -0.3299 -1.5465 -1.1490
 2379SOL    MW4 9516   0.290   1.374   4.066 -0.4240 -0.2410 -0.6743
 2380SOL     OW 9517   2.924   4.046   4.263  0.4986 -0.5507  0.3325
 2380SOL    HW2 9518   3.009   4.088   4.250  0.5448 -0.6954  0.1620
 2380SOL    HW3 9519   2.944   3.961   4.303  0.3112  0.1638  1.9891
 2380SOL    MW4 9520   2.937   4.040   4.267  0.4800 -0.4755  0.5285
 2381SOL     OW 9521   1.662   0.099   4.281 -0.1109 -0.5840  0.1018
 2381SOL    HW2 9522   1.743   0.130   4.240  0.0686 -0.0496  0.8448
 2381SOL    HW3 9523   1.596   0.165   4.256  0.2838  0.4591  1.7334
 2381SOL    MW4 9524   1.664   0.112   4.272 -0.0352 -0.3759  0.4151
 2382SOL     OW 9525   0.702   0.510   2.868  0.4971  0.1186  0.4966
 2382SOL    HW2 9526   0.696   0.598   2.906  0.8810  0.6970 -0.7547
 2382SOL    HW3 9527   0.769   0.466   2.920 -0.8397  0.0178  2.1675
 2382SOL    MW4 9528   0.710   0.516   2.880  0.3713  0.1816  0.5520
 2383SOL     OW 9529   2.708   3.196   3.384  0.8090 -0.6141  0.5450
 2383SOL    HW2 9530   2.717   3.281   3.341  0.7691 -0.4479  0.8689
 2383SOL    HW3 9531   2.646   3.148   3.329  0.8453 -0.4421  0.3536
 2383SOL    MW4 9532   2.701   3.201   3.371  0.8085 -0.5695  0.5624
 2384SOL     OW 9533   2.548   3.813   4.281  0.3083 -0.4788  0.4242
 2384SOL    HW2 9534   2.558   3.907   4.297 -0.4299 -0.4014  0.4627
 2384SOL    HW3 9535   2.603   3.771   4.347 -0.5723 -0.1008  1.4247
 2384SOL    MW4 9536   2.556   3.820   4.292  0.0947 -0.4187  0.5613
 2385SOL     OW 9537   3.398   1.361   3.604  0.5596 -0.3107 -0.0961
 2385SOL    HW2 9538   3.384   1.325   3.516  0.8316 -0.7026  0.0196
 2385SOL    HW3 9539   3.393   1.285   3.662 -0.7761  0.0992  0.3584
 2385SOL    MW4 9540   3.395   1.346   3.600  0.4193 -0.3084 -0.0208
 2386SOL     OW 9541   0.918   1.924   3.212 -0.3211  0.5362  0.4116
 2386SOL    HW2 9542   0.901   1.831   3.230  0.5340  0.1317 -0.8256
 2386SOL    HW3 9543   0.835   1.968   3.228 -1.0432 -0.6155 -0.1682
 2386SOL    MW4 9544   0.905   1.917   3.217 -0.3036  0.3309  0.1719
 2387SOL     OW 9545   3.594   2.101   4.008  0.0222  0.2892  0.4692
 2387SOL    HW2 9546   3.646   2.180   4.026  2.2901 -1.1440  0.4549
 2387SOL    HW3 9547   3.643   2.031   4.051 -0.4825 -1.5195 -1.8393
 2387SOL    MW4 9548   3.608   2.102   4.016  0.2548 -0.1385  0.1628
 2388SOL     OW 9549   4.009   0.424   3.264  0.0017  1.2836 -0.5355
 2388SOL    HW2 9550   4.003   0.435   3.169 -0.3133 -0.1199 -0.6910
 2388SOL    HW3 9551   3.990   0.331   3.278  0.9074  1.2968  0.8237
 2388SOL    MW4 9552   4.005   0.413   3.253  0.0796  1.1001 -0.3767
 2389SOL     OW 9553   4.116   1.143   3.646  0.0469  0.5374 -0.0286
 2389SOL    HW2 9554   4.126   1.165   3.738  2.0282  1.4485 -0.4535
 2389SOL    HW3 9555   4.128   1.048   3.643  1.5301  0.6988  0.4571
 2389SOL    MW4 9556   4.119   1.133   3.657  0.5040  0.6789 -0.0206
 2390SOL     OW 9557   1.854   3.985   4.224 -0.3984  0.1613  0.4928
 2390SOL    HW2 9558   1.826   4.061   4.275 -2.3048  0.6144 -1.1577
 2390SOL    HW3 9559   1.929   4.017   4.173 -1.2454  0.9747 -0.2593
 2390SOL    MW4 9560   1.860   3.999   4.224 -0.7617  0.3284  0.1758
 2391SOL     OW 9561   2.739   2.197   4.006  0.2358  0.1309  0.0706
 2391SOL    HW2 9562   2.793   2.249   4.066  0.3947 -0.3613  0.3613
 2391SOL    HW3 9563   2.794   2.186   3.928  0.2518  0.2847  0.0591
 2391SOL    MW4 9564   2.753   2.202   4.004  0.2588  0.0862  0.1074
 2392SOL     OW 9565   3.367   2.105   3.600  0.1941  0.1395  0.1754
 2392SOL    HW2 9566   3.385   2.199   3.594  0.0361  0.1239 -0.5354
 2392SOL    HW3 9567   3.377   2.073   3.510  0.1689 -0.5092  0.4041
 2392SOL    MW4 9568   3.371   2.113   3.587  0.1699  0.0518  0.1118
 2393SOL     OW 9569   3.889   2.858   3.610  0.3155 -0.3309 -0.1437
 2393SOL    HW2 9570   3.891   2.852   3.515  0.7513  1.6058 -0.2801
 2393SOL    HW3 9571   3.978   2.883   3.635  0.1116 -0.4481  0.7412
 2393SOL    MW4 9572   3.901   2.860   3.601  0.3461 -0.0908 -0.0449
 2394SOL     OW 9573   0.158   1.713   4.042 -0.4165 -0.5167 -0.3240
 2394SOL    HW2 9574   0.092   1.658   4.000  0.9570 -0.7339 -2.2465
 2394SOL    HW3 9575   0.158   1.794   3.990 -0.2458  0.0963  0.6130
 2394SOL    MW4 9576   0.149   1.717   4.029 -0.2128 -0.4645 -0.4540
 2395SOL     OW 9577   1.589   3.431   4.667  0.0117 -0.1341 -0.2366
 2395SOL    HW2 9578   1.681   3.420   4.642 -0.2074  0.6983 -1.4050
 2395SOL    HW3 9579   1.551   3.344   4.654  0.4955 -0.3394 -0.3055
 2395SOL    MW4 9580   1.596   3.418   4.662  0.0466 -0.0513 -0.3999
 2396SOL     OW 9581   2.397   1.930   3.765  0.1471 -0.2577 -0.1726
 2396SOL    HW2 9582   2.481   1.891   3.788  0.9243  0.6199 -1.4654
 2396SOL    HW3 9583   2.380   1.995   3.834  0.2678 -0.8013  0.3720
 2396SOL    MW4 9584   2.406   1.933   3.777  0.2656 -0.2137 -0.2713
 2397SOL     OW 9585   1.388   2.190   4.290 -0.5511  0.1429  0.0894
 2397SOL    HW2 9586   1.396   2.149   4.204 -2.3373  0.1340 -0.0899
 2397SOL    HW3 9587   1.443   2.137   4.347  2.1449  1.2579 -1.4113
 2397SOL    MW4 9588   1.396   2.178   4.286 -0.4310  0.2889 -0.1323
 2398SOL     OW 9589   3.145   0.527   3.934  0.5231  0.5519 -0.1700
 2398SOL    HW2 9590   3.224   0.580   3.942  1.0545 -0.3694  0.8369
 2398SOL    HW3 9591   3.084   0.565   3.998  0.6999  0.3137  0.1424
 2398SOL    MW4 9592   3.147   0.539   3.944  0.6166  0.3989  0.0040
 2399SOL     OW 9593   1.720   1.286   4.364 -0.3173 -0.2642  0.2482
 2399SOL    HW2 9594   1.648   1.336   4.402 -0.5044 -0.5824  0.3199
 2399SOL    HW3 9595   1.797   1.342   4.374 -0.1860 -0.7029  1.9326
 2399SOL    MW4 9596   1.721   1.300   4.371 -0.3246 -0.3640  0.4799
 2400SOL     OW 9597   2.088   0.729   3.313  0.7375  0.3640  0.1952
 2400SOL    HW2 9598   2.049   0.647   3.342  2.6038 -1.1276 -1.3316
 2400SOL    HW3 9599   2.055   0.742   3.224  0.9906  0.8918  0.1732
 2400SOL    MW4 9600   2.079   0.720   3.305  1.0171  0.2369 -0.0092
 2401SOL     OW 9601   3.018   0.181   4.199 -0.4800 -0.6167  0.4097
 2401SOL    HW2 9602   2.934   0.181   4.152 -0.1722 -0.3638 -0.1512
 2401SOL    HW3 9603   3.078   0.227   4.140  0.8862 -3.6288 -0.6461
 2401SOL    MW4 9604   3.014   0.187   4.185 -0.2592 -0.9807  0.1964
 2402SOL     OW 9605   2.863   2.962   4.059 -0.5707  0.1481 -0.4079
 2402SOL    HW2 9606   2.801   3.034   4.057  0.9944  1.5955  1.4669
 2402SOL    HW3 9607   2.940   2.994   4.011 -0.8312 -1.2415 -1.8115
 2402SOL    MW4 9608   2.865   2.976   4.052 -0.3986  0.1558 -0.3458
 2403SOL     OW 9609   4.176   0.983   4.431  0.1907  0.0525  0.1206
 2403SOL    HW2 9610   4.103   0.941   4.387 -0.1173 -1.2612  1.8244
 2403SOL    HW3 9611   4.201   1.055   4.374 -1.6636 -0.2195 -1.0539
 2403SOL    MW4 9612   4.170   0.987   4.418 -0.0946 -0.1567  0.1905
 2404SOL     OW 9613   0.636   2.607   3.965 -0.0338 -0.1258 -0.8151
 2404SOL    HW2 9614   0.597   2.661   3.896  0.9649  0.3487 -1.0190
 2404SOL    HW3 9615   0.728   2.635   3.968  0.4765 -1.7850 -0.8838
 2404SOL    MW4 9616   0.643   2.618   3.956  0.1653 -0.2821 -0.8510
 2405SOL     OW 9617   0.847   1.980   3.674  0.6155 -0.2899 -0.2607
 2405SOL    HW2 9618   0.777   2.034   3.639  0.1163 -2.0920 -2.1513
 2405SOL    HW3 9619   0.926   2.033   3.663 -0.3113  1.5201  1.3701
 2405SOL    MW4 9620   0.848   1.994   3.668  0.4273 -0.2888 -0.2950
 2406SOL     OW 9621   4.232   2.221   3.878  0.4862 -0.1699 -0.2771
 2406SOL    HW2 9622   4.169   2.271   3.930  0.6830 -0.0794 -0.1216
 2406SOL    HW3 9623   4.180   2.181   3.808  0.4277  0.7348 -0.7494
 2406SOL    MW4 9624   4.217   2.222   3.876  0.5044 -0.0386 -0.3189
 2407SOL     OW 9625   0.385   2.609   4.540  0.4697 -0.0582  0.0360
 2407SOL    HW2 9626   0.396   2.669   4.467  0.8291  0.5090  0.5476
 2407SOL    HW3 9627   0.467   2.616   4.590 -1.1922  2.4349  2.5912
 2407SOL    MW4 9628   0.397   2.618   4.537  0.2978  0.3456  0.4406
 2408SOL     OW 9629   2.009   1.667   4.511 -0.0658  0.1481 -0.3330
 2408SOL    HW2 9630   2.039   1.715   4.433 -1.1011  1.2694 -0.0599
 2408SOL    HW3 9631   2.065   1.700   4.582 -0.9438  1.1872 -0.0961
 2408SOL    MW4 9632   2.021   1.678   4.510 -0.3182  0.4332 -0.2657
 2409SOL     OW 9633   3.005   3.809   4.400  0.3805 -0.6568 -0.5837
 2409SOL    HW2 9634   2.932   3.750   4.416  0.0467 -0.2065 -0.4479
 2409SOL    HW3 9635   3.082   3.752   4.395  0.0503 -1.1041 -0.5034
 2409SOL    MW4 9636   3.006   3.794   4.402  0.2929 -0.6564 -0.5552
 2410SOL     OW 9637   4.154   0.089   4.091  0.0778  0.5963 -0.2582
 2410SOL    HW2 9638   4.140   0.010   4.143  2.2651 -1.7101 -3.0196
 2410SOL    HW3 9639   4.245   0.112   4.106 -0.0401  1.5297 -0.8907
 2410SOL    MW4 9640   4.164   0.081   4.100  0.3509  0.4151 -0.7060
 2411SOL     OW 9641   4.262   1.226   4.270 -0.1125  0.5427 -0.0119
 2411SOL    HW2 9642   4.173   1.258   4.281  0.5194  2.3008  0.1745
 2411SOL    HW3 9643   4.317   1.304   4.275  1.5677 -0.6662  1.3819
 2411SOL    MW4 9644   4.258   1.240   4.273  0.1925  0.6151  0.1966
 2412SOL     OW 9645   1.648   1.268   3.619 -0.0355  0.1585 -0.2735
 2412SOL    HW2 9646   1.708   1.336   3.650  1.4315 -1.2116 -0.0551
 2412SOL    HW3 9647   1.596   1.246   3.696  1.3896 -0.9312  0.3911
 2412SOL    MW4 9648   1.649   1.274   3.633  0.3461 -0.1660 -0.1570
 2413SOL     OW 9649   1.412   0.972   3.577  0.0346 -0.2881  0.1115
 2413SOL    HW2 9650   1.389   0.971   3.484 -2.5196 -0.2081  0.7201
 2413SOL    HW3 9651   1.497   0.927   3.581  0.1784 -0.2699 -2.2570
 2413SOL    MW4 9652   1.420   0.966   3.566 -0.2834 -0.2752 -0.1207
 2414SOL     OW 9653   1.774   0.638   4.232  0.3628  0.4820 -0.4021
 2414SOL    HW2 9654   1.827   0.626   4.311  1.0541 -0.7793 -1.0479
 2414SOL    HW3 9655   1.824   0.700   4.179 -0.1857  1.4651  0.2069
 2414SOL    MW4 9656   1.788   0.645   4.235  0.3816  0.4453 -0.4070
 2415SOL     OW 9657   3.586   0.267   4.707 -0.6731 -0.3117 -0.0784
 2415SOL    HW2 9658   3.645   0.342   4.699  0.6580 -1.2109  1.0017
 2415SOL    HW3 9659   3.550   0.254   4.619  2.2179 -0.9100 -1.2284
 2415SOL    MW4 9660   3.589   0.275   4.695 -0.1160 -0.5093 -0.0876
 2416SOL     OW 9661   1.416   1.578   4.232  0.2533  0.6636 -0.4650
 2416SOL    HW2 9662   1.335   1.531   4.212 -0.1475  1.4377 -0.7060
 2416SOL    HW3 9663   1.463   1.582   4.149  1.7689 -2.0607  0.2206
 2416SOL    MW4 9664   1.412   1.572   4.218  0.4004  0.4063 -0.4063
 2417SOL     OW 9665   1.944   1.436   4.372 -0.0281  0.2427 -0.0666
 2417SOL    HW2 9666   1.968   1.517   4.416 -1.0117  0.5442 -0.0648
 2417SOL    HW3 9667   2.012   1.374   4.397  1.6718  1.5191 -1.4567
 2417SOL    MW4 9668   1.956   1.438   4.381  0.0664  0.4509 -0.2498
 2418SOL     OW 9669   2.315   4.100   4.167  0.4357  0.1656  0.1890
 2418SOL    HW2 9670   2.333   4.043   4.093 -0.0434 -0.1127  0.2893
 2418SOL    HW3 9671   2.397   4.103   4.216  0.3125 -0.8432  0.4633
 2418SOL    MW4 9672   2.328   4.093   4.164  0.3562 -0.0042  0.2385
 2419SOL     OW 9673   2.160   3.979   3.564  0.5242  0.4213  0.0803
 2419SOL    HW2 9674   2.198   3.990   3.477  0.3708  0.7715  0.0568
 2419SOL    HW3 9675   2.066   3.980   3.550  0.5050 -1.2068  0.0475
 2419SOL    MW4 9676   2.153   3.980   3.551  0.5014  0.2527  0.0729
 2420SOL     OW 9677   4.455   0.822   3.596  0.3266  0.3522 -0.5782
 2420SOL    HW2 9678   4.480   0.730   3.606  1.2679  0.6280 -0.3176
 2420SOL    HW3 9679   4.471   0.841   3.504 -0.1937  0.1621 -0.7086
 2420SOL    MW4 9680   4.460   0.812   3.585  0.3821  0.3635 -0.5610
 2421SOL     OW 9681   1.425   4.009   3.584  0.1180  0.3637 -0.2519
 2421SOL    HW2 9682   1.520   3.997   3.594 -0.0099  0.1295  0.7548
 2421SOL    HW3 9683   1.404   4.081   3.643 -0.5869 -0.6682  0.7871
 2421SOL    MW4 9684   1.435   4.017   3.593  0.0081  0.1967  0.0180
 2422SOL     OW 9685   3.722   2.746   4.345 -0.1719 -0.6105 -0.3281
 2422SOL    HW2 9686   3.787   2.803   4.386 -0.0276  2.0730 -3.9940
 2422SOL    HW3 9687   3.638   2.778   4.377  0.0420  0.0662 -0.4344
 2422SOL    MW4 9688   3.720   2.758   4.354 -0.1246 -0.1672 -0.8258
 2423SOL     OW 9689   2.545   0.104   4.119  0.1366  0.1939 -0.5230
 2423SOL    HW2 9690   2.534   0.016   4.081 -0.8716  0.7535 -1.5670
 2423SOL    HW3 9691   2.516   0.095   4.209  0.4953 -0.6605 -0.4897
 2423SOL    MW4 9692   2.540   0.091   4.126  0.0509  0.1550 -0.6563
 2424SOL     OW 9693   1.615   2.339   3.265  0.4374 -0.6320  0.1819
 2424SOL    HW2 9694   1.596   2.247   3.286 -0.4865 -0.1865  1.2953
 2424SOL    HW3 9695   1.608   2.343   3.169 -2.5143 -1.0800  0.3289
 2424SOL    MW4 9696   1.612   2.327   3.255 -0.0739 -0.6323  0.3482
 2425SOL     OW 9697   3.827   4.480   3.380 -0.0068  0.2051  0.1247
 2425SOL    HW2 9698   3.808   4.550   3.318  1.6221 -0.5246 -1.2684
 2425SOL    HW3 9699   3.751   4.422   3.376 -0.7283  1.1430  0.2092
 2425SOL    MW4 9700   3.815   4.481   3.371  0.1130  0.2326 -0.0480
 2426SOL     OW 9701   3.028   4.327   3.633 -0.2365 -0.3001 -0.0712
 2426SOL    HW2 9702   2.998   4.347   3.544 -1.6941  1.0431  0.6889
 2426SOL    HW3 9703   3.099   4.388   3.649 -0.4310 -0.0713 -0.0733
 2426SOL    MW4 9704   3.033   4.338   3.623 -0.4545 -0.0927  0.0288
 2427SOL     OW 9705   3.447   3.473   3.909  0.3048 -0.0080  0.1530
 2427SOL    HW2 9706   3.478   3.398   3.961  0.2179 -0.3431 -0.2805
 2427SOL    HW3 9707   3.352   3.464   3.908  0.3395 -0.3204 -0.5461
 2427SOL    MW4 9708   3.438   3.462   3.916  0.2979 -0.0934  0.0035
 2428SOL     OW 9709   1.537   0.584   3.845 -0.1260  0.0849 -0.0984
 2428SOL    HW2 9710   1.567   0.582   3.754  0.3781  1.0528  0.0484
 2428SOL    HW3 9711   1.611   0.548   3.895 -0.0703  0.3737  0.0246
 2428SOL    MW4 9712   1.551   0.579   3.840 -0.0521  0.2507 -0.0628
 2429SOL     OW 9713   1.097   0.273   4.421 -0.0782  0.3026  0.0247
 2429SOL    HW2 9714   1.158   0.271   4.347  0.9948  1.8363  0.8350
 2429SOL    HW3 9715   1.129   0.205   4.480  1.0103  1.2614  0.5544
 2429SOL    MW4 9716   1.109   0.264   4.419  0.2070  0.6314  0.2015
 2430SOL     OW 9717   2.453   3.039   4.207 -0.1248  0.2317  0.1818
 2430SOL    HW2 9718   2.491   3.026   4.294  0.8168 -0.3421 -0.3147
 2430SOL    HW3 9719   2.400   2.961   4.193  1.5549 -0.7760 -0.7084
 2430SOL    MW4 9720   2.451   3.027   4.217  0.2210  0.0230 -0.0011
 2431SOL     OW 9721   1.002   3.202   3.935  0.1701  0.3016  0.1388
 2431SOL    HW2 9722   1.054   3.273   3.897  1.7528 -0.0030  1.6724
 2431SOL    HW3 9723   0.977   3.235   4.022 -0.3603 -0.4158  0.2595
 2431SOL    MW4 9724   1.006   3.216   3.942  0.3089  0.1668  0.3570
 2432SOL     OW 9725   3.080   3.278   4.568  0.5669  0.4769 -0.0075
 2432SOL    HW2 9726   3.038   3.322   4.642  0.0228  0.1822 -0.1354
 2432SOL    HW3 9727   3.007   3.239   4.520  1.1440 -1.7151  0.8535
 2432SOL    MW4 9728   3.065   3.279   4.572  0.5712  0.1488  0.0892
 2433SOL     OW 9729   3.894   3.372   4.123 -0.6065  0.1142  0.2866
 2433SOL    HW2 9730   3.936   3.392   4.206  0.2182  0.4242 -0.2009
 2433SOL    HW3 9731   3.832   3.302   4.143 -0.2765  0.0645  1.1199
 2433SOL    MW4 9732   3.891   3.366   4.136 -0.4542  0.1485  0.3322
 2434SOL     OW 9733   2.322   2.094   3.985  0.5520 -0.4230  0.3888
 2434SOL    HW2 9734   2.386   2.093   4.056  1.0722 -0.9151 -0.0816
 2434SOL    HW3 9735   2.314   2.186   3.961  0.4139 -0.2602  1.0431
 2434SOL    MW4 9736   2.329   2.106   3.991  0.6024 -0.4665  0.4131
 2435SOL     OW 9737   4.209   2.657   3.501 -0.0637  0.1008 -0.3111
 2435SOL    HW2 9738   4.209   2.716   3.426  0.4023 -0.7449 -0.9885
 2435SOL    HW3 9739   4.301   2.635   3.514 -0.1769 -0.0176  0.2996
 2435SOL    MW4 9740   4.221   2.662   3.493 -0.0172 -0.0264 -0.3199
 2436SOL     OW 9741   0.292   0.923   4.190 -0.3181  0.6882  0.2554
 2436SOL    HW2 9742   0.348   0.999   4.174  0.2690  0.2417  0.1651
 2436SOL    HW3 9743   0.324   0.856   4.129  0.0592 -0.0784  1.2759
 2436SOL    MW4 9744   0.304   0.924   4.180 -0.1908  0.5281  0.3781
 2437SOL     OW 9745   0.038   4.456   4.205 -0.3496  0.3834  0.1248
 2437SOL    HW2 9746   0.035   4.452   4.110  0.5977 -0.5297  0.1372
 2437SOL    HW3 9747   0.078   4.541   4.224 -1.6305  1.0960 -0.2650
 2437SOL    MW4 9748   0.043   4.467   4.195 -0.3936  0.3569  0.0750
 2438SOL     OW 9749   0.406   0.741   4.005 -0.0472  0.3328  0.1662
 2438SOL    HW2 9750   0.495   0.707   3.994  0.1138  1.1534 -1.1581
 2438SOL    HW3 9751   0.351   0.663   4.016  0.6948 -0.2182 -0.0336
 2438SOL    MW4 9752   0.410   0.726   4.005  0.0720  0.3684 -0.0349
 2439SOL     OW 9753   2.092   3.356   3.738 -0.0117  0.1619 -0.0612
 2439SOL    HW2 9754   2.074   3.443   3.702 -0.6385  0.1268  0.1472
 2439SOL    HW3 9755   2.148   3.373   3.813 -1.1471  0.5134  0.7314
 2439SOL    MW4 9756   2.097   3.370   3.743 -0.2442  0.2037  0.0708
 2440SOL     OW 9757   1.162   3.368   4.441  0.0429  0.5429  0.1686
 2440SOL    HW2 9758   1.068   3.368   4.428  0.2351  0.8421 -1.3761
 2440SOL    HW3 9759   1.197   3.317   4.367  1.0377 -0.1014  1.0705
 2440SOL    MW4 9760   1.154   3.362   4.429  0.1995  0.4973  0.0838
 2441SOL     OW 9761   2.462   1.389   3.629  0.4370 -0.1505  0.0212
 2441SOL    HW2 9762   2.479   1.358   3.540 -1.3906 -2.2710  0.3562
 2441SOL    HW3 9763   2.383   1.442   3.622 -0.3954 -1.2952  0.5402
 2441SOL    MW4 9764   2.454   1.392   3.616  0.0861 -0.5813  0.1339
 2442SOL     OW 9765   2.739   3.502   3.726  0.1564 -0.0402  0.8161
 2442SOL    HW2 9766   2.755   3.412   3.697 -1.2550  0.0551 -0.3139
 2442SOL    HW3 9767   2.821   3.548   3.706  0.0377 -0.5178 -0.8865
 2442SOL    MW4 9768   2.752   3.496   3.719 -0.0455 -0.0906  0.4424
 2443SOL     OW 9769   2.944   1.352   3.364 -0.4112 -0.3403 -0.5744
 2443SOL    HW2 9770   2.873   1.290   3.348 -0.3422 -0.6686  0.3665
 2443SOL    HW3 9771   3.021   1.310   3.323 -0.7568  0.0316 -1.6182
 2443SOL    MW4 9772   2.945   1.338   3.356 -0.4477 -0.3346 -0.5879
 2444SOL     OW 9773   0.427   2.726   3.216  0.1840 -0.0622 -0.5016
 2444SOL    HW2 9774   0.416   2.733   3.121 -1.1538 -2.1775 -0.5335
 2444SOL    HW3 9775   0.497   2.788   3.236 -0.8729  1.8742 -2.5805
 2444SOL    MW4 9776   0.435   2.735   3.206 -0.1319 -0.0858 -0.7801
 2445SOL     OW 9777   4.271   3.725   3.589  0.2863 -0.5472  0.4417
 2445SOL    HW2 9778   4.301   3.816   3.592 -0.0323 -0.4240 -0.0640
 2445SOL    HW3 9779   4.190   3.725   3.641 -0.2367 -0.3358 -0.3590
 2445SOL    MW4 9780   4.264   3.737   3.596  0.1752 -0.5031  0.2693
 2446SOL     OW 9781   3.168   1.105   3.745  0.0736  0.0384 -0.2902
 2446SOL    HW2 9782   3.133   1.089   3.833 -1.0810  0.5417 -0.6466
 2446SOL    HW3 9783   3.138   1.193   3.723  2.6851  1.0128 -0.0977
 2446SOL    MW4 9784   3.159   1.114   3.754  0.2658  0.2334 -0.3118
 2447SOL     OW 9785   2.299   4.552   4.374 -0.3395  0.2268  0.2052
 2447SOL    HW2 9786   2.334   4.477   4.423 -0.2179  1.0169  1.3601
 2447SOL    HW3 9787   2.369   4.617   4.376 -0.3748  0.3035 -0.9511
 2447SOL    MW4 9788   2.313   4.550   4.381 -0.3281  0.3412  0.2050
 2448SOL     OW 9789   3.037   1.714   4.347 -0.2940 -0.1260  0.0415
 2448SOL    HW2 9790   3.015   1.698   4.255 -0.4170  0.4655 -0.0291
 2448SOL    HW3 9791   3.016   1.806   4.362  1.7018  0.3336  0.0987
 2448SOL    MW4 9792   3.031   1.724   4.337 -0.0469  0.0127  0.0398
 2449SOL     OW 9793   4.091   3.251   3.298 -0.0404 -0.4311 -0.5641
 2449SOL    HW2 9794   4.076   3.346   3.296  0.2669 -0.3662 -0.0570
 2449SOL    HW3 9795   4.100   3.231   3.391  1.0346 -0.7690 -0.7300
 2449SOL    MW4 9796   4.090   3.261   3.310  0.1420 -0.4671 -0.5191
 2450SOL     OW 9797   2.594   0.544   4.284  0.3397 -0.2360  0.6069
 2450SOL    HW2 9798   2.530   0.600   4.328 -0.6526  0.2521 -1.4035
 2450SOL    HW3 9799   2.668   0.602   4.263  0.8296 -0.4776  1.6448
 2450SOL    MW4 9800   2.595   0.559   4.287  0.2734 -0.2035  0.4786
 2451SOL     OW 9801   3.349   0.455   3.587 -0.2020 -0.1762  0.4327
 2451SOL    HW2 9802   3.398   0.373   3.591 -0.4619 -0.2754  1.9812
 2451SOL    HW3 9803   3.331   0.468   3.494  1.4412 -0.9156 -0.0117
 2451SOL    MW4 9804   3.353   0.446   3.575 -0.0195 -0.2868  0.5783
 2452SOL     OW 9805   1.747   3.529   3.724  0.0982  0.1988  0.3658
 2452SOL    HW2 9806   1.754   3.605   3.782 -1.1572 -0.5722  1.5448
 2452SOL    HW3 9807   1.671   3.547   3.669  0.5530  0.3636 -0.2149
 2452SOL    MW4 9808   1.738   3.542   3.724 -0.0075  0.1188  0.4447
 2453SOL     OW 9809   1.240   0.550   3.936 -0.3241  0.0859  0.0100
 2453SOL    HW2 9810   1.335   0.558   3.947 -0.2632 -0.5199 -0.0559
 2453SOL    HW3 9811   1.203   0.604   4.007  0.0675  0.0572  0.2361
 2453SOL    MW4 9812   1.248   0.559   3.947 -0.2644  0.0022  0.0311
 2454SOL     OW 9813   2.595   3.381   4.167  0.2322 -0.3061 -0.5258
 2454SOL    HW2 9814   2.620   3.296   4.130 -1.3317 -0.8714 -0.3173
 2454SOL    HW3 9815   2.548   3.425   4.096  0.2635  0.0322 -0.3367
 2454SOL    MW4 9816   2.592   3.376   4.153  0.0300 -0.3361 -0.4733
 2455SOL     OW 9817   1.605   4.324   4.395  0.5200  0.2678 -0.1036
 2455SOL    HW2 9818   1.627   4.353   4.307  1.0699 -0.8475 -0.3410
 2455SOL    HW3 9819   1.668   4.255   4.414  0.4328  0.5258  1.1796
 2455SOL    MW4 9820   1.616   4.319   4.386  0.5811  0.1547  0.0344
 2456SOL     OW 9821   0.794   4.623   4.374 -0.3545  0.2149  0.1755
 2456SOL    HW2 9822   0.832   4.695   4.323  1.3053 -0.3079  0.6249
 2456SOL    HW3 9823   0.709   4.655   4.402  0.1898  1.8455  0.0193
 2456SOL    MW4 9824   0.788   4.637   4.371 -0.0637  0.3611  0.2142
 2457SOL     OW 9825   2.376   1.823   4.312 -0.6462  0.2525 -0.1552
 2457SOL    HW2 9826   2.410   1.912   4.303 -0.4215  0.2693  0.8536
 2457SOL    HW3 9827   2.447   1.767   4.282 -0.5476  0.3758 -0.1531
 2457SOL    MW4 9828   2.390   1.828   4.307 -0.6036  0.2710 -0.0218
 2458SOL     OW 9829   0.105   3.096   4.586  0.1104  0.0367 -0.1733
 2458SOL    HW2 9830   0.089   3.007   4.554  0.3171 -0.0101 -0.1501
 2458SOL    HW3 9831   0.185   3.124   4.540 -0.9519  0.8908 -1.5470
 2458SOL    MW4 9832   0.114   3.088   4.575 -0.0025  0.1432 -0.3515
 2459SOL     OW 9833   1.022   3.576   4.137  0.1154  0.1030  0.4238
 2459SOL    HW2 9834   0.981   3.492   4.159 -0.1920  0.1839  0.1747
 2459SOL    HW3 9835   0.971   3.608   4.062  0.0987  0.6134  0.6550
 2459SOL    MW4 9836   1.010   3.569   4.130  0.0726  0.1810  0.4214
 2460SOL     OW 9837   1.291   2.663   3.942 -0.1743 -0.2528  0.8422
 2460SOL    HW2 9838   1.269   2.669   3.849  0.4078  0.5726  0.7499
 2460SOL    HW3 9839   1.334   2.746   3.961 -1.0452 -0.0742  2.0616
 2460SOL    MW4 9840   1.294   2.675   3.932 -0.2124 -0.1204  0.9909
 2461SOL     OW 9841   2.300   1.261   4.209  0.2122  0.1041  0.0165
 2461SOL    HW2 9842   2.331   1.347   4.179 -0.5966  0.2506 -0.4197
 2461SOL    HW3 9843   2.230   1.238   4.147  0.0063 -0.5888  0.4996
 2461SOL    MW4 9844   2.295   1.270   4.197  0.0784  0.0320  0.0227
 2462SOL     OW 9845   3.604   4.319   3.414 -0.4622 -0.0709  0.2113
 2462SOL    HW2 9846   3.584   4.267   3.492 -0.1412  1.1859  1.1631
 2462SOL    HW3 9847   3.518   4.349   3.384 -0.5857 -0.5302  0.1026
 2462SOL    MW4 9848   3.590   4.316   3.420 -0.4362  0.0343  0.3225
 2463SOL     OW 9849   3.825   0.961   3.990  0.4017 -0.0216 -0.1580
 2463SOL    HW2 9850   3.797   0.998   3.906  2.1224  1.6020 -0.0429
 2463SOL    HW3 9851   3.743   0.942   4.036 -0.5530  1.5299 -1.1713
 2463SOL    MW4 9852   3.810   0.963   3.985  0.5028  0.3973 -0.2765
 2464SOL     OW 9853   4.205   3.171   4.396  0.1433  0.6783  0.3559
 2464SOL    HW2 9854   4.275   3.204   4.452  0.3778  0.2778  0.3011
 2464SOL    HW3 9855   4.211   3.076   4.404 -0.2402  0.6362  0.1620
 2464SOL    MW4 9856   4.215   3.163   4.405  0.1236  0.6199  0.3231
 2465SOL     OW 9857   3.427   4.264   3.919 -0.4788 -0.0175 -0.1722
 2465SOL    HW2 9858   3.471   4.349   3.921 -1.6064  0.5996 -1.0556
 2465SOL    HW3 9859   3.463   4.220   3.842 -1.2506  0.4099 -0.7838
 2465SOL    MW4 9860   3.438   4.270   3.909 -0.7294  0.1203 -0.3695
 2466SOL     OW 9861   1.697   2.672   3.755 -0.2003 -0.0629 -0.1265
 2466SOL    HW2 9862   1.772   2.731   3.755 -0.9195  0.8629 -0.9664
 2466SOL    HW3 9863   1.654   2.687   3.839  0.1150 -0.0368  0.0315
 2466SOL    MW4 9864   1.701   2.681   3.766 -0.2536  0.0627 -0.2165
 2467SOL     OW 9865   1.410   0.232   3.633 -0.3397 -0.4733  0.0185
 2467SOL    HW2 9866   1.456   0.200   3.711 -1.1236 -1.1618  0.2102
 2467SOL    HW3 9867   1.438   0.174   3.563  0.6305  0.3616 -0.2848
 2467SOL    MW4 9868   1.420   0.220   3.634 -0.3151 -0.4540  0.0037
 2468SOL     OW 9869   0.371   1.529   4.322 -0.0521 -0.4460  0.1485
 2468SOL    HW2 9870   0.292   1.531   4.377  0.2848 -0.8886  0.6540
 2468SOL    HW3 9871   0.343   1.484   4.242 -0.4783 -0.0363  0.0655
 2468SOL    MW4 9872   0.357   1.523   4.319 -0.0639 -0.4503  0.2043
 2469SOL     OW 9873   0.504   3.906   3.670  0.2254  0.4656 -0.1232
 2469SOL    HW2 9874   0.511   3.940   3.580  1.1282  1.0582  0.1673
 2469SOL    HW3 9875   0.529   3.814   3.663  0.6129  0.5944 -0.4226
 2469SOL    MW4 9876   0.508   3.898   3.657  0.3956  0.5608 -0.1244
 2470SOL     OW 9877   1.391   2.927   4.001  0.0802  0.4931  0.0931
 2470SOL    HW2 9878   1.437   3.010   3.990 -0.4655  0.9730  1.4332
 2470SOL    HW3 9879   1.319   2.946   4.060 -1.5227 -0.3958 -1.5152
 2470SOL    MW4 9880   1.388   2.940   4.007 -0.2033  0.4392  0.0577
 2471SOL     OW 9881   1.496   1.145   3.809 -0.0475  0.0511  0.2870
 2471SOL    HW2 9882   1.468   1.072   3.755  0.4679 -0.7114  1.0437
 2471SOL    HW3 9883   1.415   1.188   3.835 -0.4697 -1.4497  1.4940
 2471SOL    MW4 9884   1.482   1.141   3.805 -0.0352 -0.2475  0.5461
 2472SOL     OW 9885   1.828   3.054   3.813  0.2628  0.3338  0.6086
 2472SOL    HW2 9886   1.863   3.120   3.753  1.7108 -0.2971  0.7465
 2472SOL    HW3 9887   1.879   3.065   3.893  0.8394 -1.2654  0.4778
 2472SOL    MW4 9888   1.839   3.065   3.816  0.5299  0.0396  0.6096
 2473SOL     OW 9889   0.397   0.379   3.210  0.2107 -0.0196 -0.4270
 2473SOL    HW2 9890   0.482   0.402   3.248  0.3612 -0.4972 -0.4778
 2473SOL    HW3 9891   0.379   0.291   3.241  0.0022 -0.1438 -0.8880
 2473SOL    MW4 9892   0.406   0.370   3.219  0.2030 -0.0990 -0.4945
 2474SOL     OW 9893   3.440   1.802   3.917 -0.3031  0.2354 -0.0501
 2474SOL    HW2 9894   3.436   1.760   3.831  2.1704  1.4978 -0.8450
 2474SOL    HW3 9895   3.511   1.756   3.962 -0.4620  0.7100  0.6808
 2474SOL    MW4 9896   3.449   1.790   3.911  0.0023  0.4646 -0.0585
 2475SOL     OW 9897   3.046   4.105   3.775 -0.7997  0.3413 -0.1377
 2475SOL    HW2 9898   3.033   4.181   3.718 -0.7196  0.1647 -0.3929
 2475SOL    HW3 9899   3.086   4.141   3.854  3.2314 -0.0077 -1.9137
 2475SOL    MW4 9900   3.049   4.120   3.778 -0.2573  0.2720 -0.4057
 2476SOL     OW 9901   3.997   2.007   4.241 -0.2368 -0.2123 -0.1503
 2476SOL    HW2 9902   4.067   2.003   4.176 -0.6639  0.0082 -0.6246
 2476SOL    HW3 9903   4.022   1.942   4.307  0.4292 -0.1150 -0.2978
 2476SOL    MW4 9904   4.010   1.998   4.241 -0.2053 -0.1704 -0.2323
 2477SOL     OW 9905   1.211   3.143   4.593 -0.1439 -0.6101 -0.5362
 2477SOL    HW2 9906   1.298   3.150   4.631 -1.3079  0.1238  2.1452
 2477SOL    HW3 9907   1.197   3.229   4.552 -0.2154 -0.1361  0.4546
 2477SOL    MW4 9908   1.221   3.155   4.593 -0.3069 -0.4507 -0.0517
 2478SOL     OW 9909   3.821   3.462   4.566 -0.4701  0.6580  0.8325
 2478SOL    HW2 9910   3.740   3.505   4.594 -0.1525 -0.0641  3.0003
 2478SOL    HW3 9911   3.883   3.534   4.555 -0.4723  0.9629  2.5895
 2478SOL    MW4 9912   3.818   3.477   4.569 -0.4285  0.6030  1.3504
 2479SOL     OW 9913   2.901   4.181   4.520  0.0032 -0.2746  0.2058
 2479SOL    HW2 9914   2.933   4.115   4.583 -0.5615 -0.9265 -0.1902
 2479SOL    HW3 9915   2.892   4.133   4.438 -2.2775 -0.1868  0.3680
 2479SOL    MW4 9916   2.904   4.166   4.518 -0.3722 -0.3490  0.1749
 2480SOL     OW 9917   2.755   1.261   4.114  0.6506  0.2271 -0.1048
 2480SOL    HW2 9918   2.670   1.215   4.114 -0.5122  2.2699  2.1217
 2480SOL    HW3 9919   2.759   1.304   4.029  0.5504 -1.7781 -1.1620
 2480SOL    MW4 9920   2.744   1.260   4.103  0.4839  0.2320  0.0495
 2481SOL     OW 9921   2.097   1.783   4.286 -0.1088 -0.1312 -0.2041
 2481SOL    HW2 9922   2.190   1.774   4.305 -0.1294  1.5942  0.8701
 2481SOL    HW3 9923   2.086   1.875   4.260 -1.4295 -0.4384 -0.7978
 2481SOL    MW4 9924   2.107   1.794   4.285 -0.2858  0.0559 -0.1407
 2482SOL     OW 9925   3.346   0.499   3.314 -0.6580  0.1892 -0.5879
 2482SOL    HW2 9926   3.324   0.588   3.287 -0.9479  0.0959 -0.6661
 2482SOL    HW3 9927   3.266   0.449   3.298 -0.7847  0.1014  0.2942
 2482SOL    MW4 9928   3.332   0.504   3.309 -0.7130  0.1653 -0.4819
 2483SOL     OW 9929   0.708   2.166   4.089 -0.0106 -0.4401  0.0513
 2483SOL    HW2 9930   0.694   2.233   4.022 -0.5504 -1.6639 -1.0935
 2483SOL    HW3 9931   0.752   2.094   4.042  1.0169 -0.6926  1.3635
 2483SOL    MW4 9932   0.712   2.165   4.074  0.0538 -0.6349  0.0734
 2484SOL     OW 9933   1.979   2.470   4.122 -0.1786 -0.3928  0.2547
 2484SOL    HW2 9934   1.914   2.515   4.176 -0.0832  0.5211 -0.3607
 2484SOL    HW3 9935   2.028   2.415   4.183 -0.5600  0.0551  0.9748
 2484SOL    MW4 9936   1.977   2.469   4.137 -0.2163 -0.2131  0.2685
 2485SOL     OW 9937   0.673   1.496   3.184  0.4620 -0.3650 -0.2966
 2485SOL    HW2 9938   0.605   1.553   3.220  2.5594  1.0228  1.5580
 2485SOL    HW3 9939   0.676   1.422   3.245  1.6400  0.3156  0.4857
 2485SOL    MW4 9940   0.664   1.494   3.197  0.8941 -0.0921  0.0513
 2486SOL     OW 9941   2.780   2.716   4.417  0.3056 -0.1122  0.0415
 2486SOL    HW2 9942   2.734   2.640   4.382  1.1490 -0.9941  0.8073
 2486SOL    HW3 9943   2.786   2.698   4.511 -0.7501  1.5790  0.4434
 2486SOL    MW4 9944   2.774   2.703   4.425  0.2776 -0.0054  0.1956
 2487SOL     OW 9945   0.032   4.462   3.923  0.3652 -0.5732 -0.1076
 2487SOL    HW2 9946   0.080   4.379   3.922  1.1178 -0.1603  0.8804
 2487SOL    HW3 9947  -0.056   4.439   3.893  0.8142 -1.5637 -0.7127
 2487SOL    MW4 9948   0.027   4.448   3.919  0.5238 -0.6494 -0.0571
 2488SOL     OW 9949   2.589   1.616   4.252 -0.5852 -0.2465 -0.2028
 2488SOL    HW2 9950   2.640   1.548   4.298 -1.2245 -0.6275 -0.0544
 2488SOL    HW3 9951   2.655   1.668   4.206 -0.0091 -0.3831  0.4634
 2488SOL    MW4 9952   2.605   1.614   4.252 -0.5935 -0.3148 -0.0953
 2489SOL     OW 9953   3.206   3.220   3.590  0.8758 -0.2205 -0.5708
 2489SOL    HW2 9954   3.268   3.288   3.617 -0.5190 -0.0647  2.4535
 2489SOL    HW3 9955   3.249   3.138   3.613  0.1652 -0.1279  1.1303
 2489SOL    MW4 9956   3.220   3.218   3.596  0.5980 -0.1878  0.0526
 2490SOL     OW 9957   3.924   3.234   4.416  0.2235  0.1447  0.2160
 2490SOL    HW2 9958   4.017   3.252   4.401  0.8534 -1.8703  1.5253
 2490SOL    HW3 9959   3.897   3.302   4.478  0.0630  2.4631 -2.2689
 2490SOL    MW4 9960   3.933   3.246   4.422  0.2854  0.1847  0.0609
 2491SOL     OW 9961   0.756   3.226   3.818  0.1659 -0.0523 -0.2769
 2491SOL    HW2 9962   0.841   3.214   3.860  0.4770 -0.3672 -0.9947
 2491SOL    HW3 9963   0.698   3.166   3.866  0.7742 -1.2786 -1.0397
 2491SOL    MW4 9964   0.759   3.216   3.830  0.2872 -0.2557 -0.4723
 2492SOL     OW 9965   2.921   1.986   4.408  0.4312  0.3094 -0.3605
 2492SOL    HW2 9966   2.881   1.985   4.495 -0.1376  1.3614 -0.6065
 2492SOL    HW3 9967   2.847   1.988   4.348  0.8453  1.5358 -0.8376
 2492SOL    MW4 9968   2.906   1.986   4.412  0.4108  0.6100 -0.4559
 2493SOL     OW 9969   1.876   2.297   3.925 -0.2417 -0.4390  0.1939
 2493SOL    HW2 9970   1.901   2.375   3.975 -1.4003 -0.9988  1.7166
 2493SOL    HW3 9971   1.913   2.310   3.838  1.3112  0.8581  1.0361
 2493SOL    MW4 9972   1.884   2.309   3.921 -0.1897 -0.3417  0.5059
 2494SOL     OW 9973   4.438   2.519   3.558  0.3302  0.4200 -0.0055
 2494SOL    HW2 9974   4.460   2.444   3.614 -0.2212  0.5557  0.4042
 2494SOL    HW3 9975   4.520   2.566   3.547  0.5316  0.1540  0.3369
 2494SOL    MW4 9976   4.451   2.515   3.564  0.2841  0.4028  0.0937
 2495SOL     OW 9977   1.225   2.869   4.479 -0.3472  0.2586  0.3055
 2495SOL    HW2 9978   1.216   2.939   4.544 -0.5691  1.5544 -1.1133
 2495SOL    HW3 9979   1.239   2.914   4.396 -1.4020 -1.3633 -0.7790
 2495SOL    MW4 9980   1.226   2.884   4.477 -0.5156  0.2156 -0.0248
 2496SOL     OW 9981   3.868   0.100   4.050  0.2653  0.0506  0.2514
 2496SOL    HW2 9982   3.962   0.112   4.064  0.5149 -0.8400 -0.5490
 2496SOL    HW3 9983   3.828   0.126   4.133  1.4241 -2.0833  1.5432
 2496SOL    MW4 9984   3.875   0.105   4.063  0.4511 -0.3485  0.3162
 2497SOL     OW 9985   0.092   1.090   4.036  0.2510 -0.0387  0.0793
 2497SOL    HW2 9986   0.154   1.047   4.094 -0.7044 -0.6550  0.6586
 2497SOL    HW3 9987   0.112   1.055   3.949  1.5463  0.7335  0.0413
 2497SOL    MW4 9988   0.103   1.080   4.032  0.2958 -0.0181  0.1507
 2498SOL     OW 9989   1.496   4.583   4.068 -0.0908  0.1714  0.4387
 2498SOL    HW2 9990   1.565   4.619   4.124  0.3489  1.5205 -0.9303
 2498SOL    HW3 9991   1.519   4.491   4.057  1.4237  0.5814  0.1035
 2498SOL    MW4 9992   1.508   4.576   4.074  0.1670  0.4035  0.2138
 2499SOL     OW 9993   3.657   1.664   4.031  0.1049 -0.0627 -0.0416
 2499SOL    HW2 9994   3.676   1.573   4.007 -1.1504 -0.0894 -1.0152
 2499SOL    HW3 9995   3.619   1.658   4.118  0.4308 -0.4334  0.0774
 2499SOL    MW4 9996   3.654   1.651   4.039 -0.0177 -0.1151 -0.1544
 2500SOL     OW 9997   3.359   1.716   4.282  0.5433 -0.1002  0.1226
 2500SOL    HW2 9998   3.363   1.803   4.242  1.6657  0.3849  1.2820
 2500SOL    HW3 9999   3.271   1.712   4.321  0.6635  0.6939  0.4809
 2500SOL    MW410000   3.348   1.727   4.282  0.7073  0.0686  0.3229
 2501SOL     OW10001   0.922   4.263   3.297 -0.7340  0.0762  0.3199
 2501SOL    HW210002   0.915   4.172   3.327 -0.3037  0.3267  1.1912
 2501SOL    HW310003   0.915   4.257   3.202  0.6270 -1.0256  0.2653
 2501SOL    MW410004   0.920   4.250   3.288 -0.4976 -0.0361  0.4277
 2502SOL     OW10005   1.519   0.772   4.245 -0.0967 -0.2134 -0.4714
 2502SOL    HW210006   1.507   0.823   4.325  0.0622  0.6971 -1.0193
 2502SOL    HW310007   1.605   0.731   4.255 -0.3489 -0.5957  0.0977
 2502SOL    MW410008   1.529   0.773   4.257 -0.1090 -0.1437 -0.4686
 2503SOL     OW10009   2.521   3.123   4.467 -0.2852 -0.1254 -0.0665
 2503SOL    HW210010   2.487   3.213   4.464  2.0141  0.8456  1.7669
 2503SOL    HW310011   2.473   3.081   4.538 -0.5702 -0.0071 -0.1896
 2503SOL    MW410012   2.510   3.130   4.476 -0.0195  0.0183  0.1591
 2504SOL     OW10013   2.463   2.817   3.308  0.1313  0.4870 -0.0289
 2504SOL    HW210014   2.467   2.797   3.401 -0.5904  0.6065  0.0289
 2504SOL    HW310015   2.374   2.794   3.282  0.7646 -0.9188 -1.0097
 2504SOL    MW410016   2.452   2.811   3.317  0.1196  0.3173 -0.1506
 2505SOL     OW10017   0.982   2.834   3.733  0.3647  0.5977  0.1941
 2505SOL    HW210018   1.063   2.880   3.756 -0.2721  2.4902 -1.1820
 2505SOL    HW310019   1.008   2.773   3.663  0.8849  0.0909  0.8246
 2505SOL    MW410020   0.996   2.832   3.727  0.3493  0.7805  0.0957
 2506SOL     OW10021   2.768   1.760   4.081  0.0668  0.0589  0.5112
 2506SOL    HW210022   2.859   1.748   4.055 -0.0784 -0.4216  0.2100
 2506SOL    HW310023   2.723   1.781   3.999 -0.1214  0.1173  0.6302
 2506SOL    MW410024   2.774   1.761   4.067  0.0228  0.0032  0.4872
 2507SOL     OW10025   1.976   4.508   3.466  0.4528  0.1744  0.2041
 2507SOL    HW210026   2.039   4.529   3.535 -0.5630  0.9380  0.9037
 2507SOL    HW310027   1.948   4.593   3.432 -0.1701 -0.1674 -0.1380
 2507SOL    MW410028   1.981   4.522   3.471  0.2365  0.2301  0.2513
 2508SOL     OW10029   0.334   3.521   3.607 -0.1096  0.3328  0.2232
 2508SOL    HW210030   0.358   3.429   3.618 -0.3696  0.3070  0.5946
 2508SOL    HW310031   0.313   3.529   3.514  0.4367  0.1454  0.0806
 2508SOL    MW410032   0.334   3.510   3.596 -0.0719  0.3047  0.2534
 2509SOL     OW10033   0.639   0.471   3.329  0.5481 -0.3931 -0.1798
 2509SOL    HW210034   0.638   0.562   3.299 -0.5826 -0.4079 -0.2037
 2509SOL    HW310035   0.636   0.476   3.424 -1.4045 -0.4159 -0.2183
 2509SOL    MW410036   0.638   0.483   3.337  0.1413 -0.3981 -0.1880
 2510SOL     OW10037   0.679   3.647   3.366 -0.4307  0.1973  0.0013
 2510SOL    HW210038   0.676   3.738   3.338 -0.7513  0.2767  0.2917
 2510SOL    HW310039   0.754   3.610   3.319 -0.6858  0.4469 -0.6086
 2510SOL    MW410040   0.688   3.654   3.356 -0.5066  0.2407 -0.0408
 2511SOL     OW10041   0.798   2.861   4.556 -0.0984 -0.1993  0.0685
 2511SOL    HW210042   0.856   2.817   4.494 -0.9640 -0.5598 -0.4878
 2511SOL    HW310043   0.758   2.790   4.606  0.8546  0.1012  1.2871
 2511SOL    MW410044   0.801   2.846   4.554 -0.0869 -0.2072  0.1559
 2512SOL     OW10045   1.123   3.949   4.035  0.0120 -0.8035 -0.1885
 2512SOL    HW210046   1.029   3.958   4.017  0.3361 -0.0004 -1.5449
 2512SOL    HW310047   1.152   3.880   3.977  1.0134  1.6179 -2.6829
 2512SOL    MW410048   1.115   3.941   4.025  0.1869 -0.3781 -0.6966
 2513SOL     OW10049   4.144   3.929   4.520 -0.5557  0.2635  0.0409
 2513SOL    HW210050   4.213   3.993   4.500 -0.1859 -0.1334  0.0262
 2513SOL    HW310051   4.063   3.979   4.516 -0.3862  0.4586 -1.2828
 2513SOL    MW410052   4.142   3.944   4.517 -0.4846  0.2369 -0.1357
 2514SOL     OW10053   0.594   1.382   4.312 -0.3222  0.2128  0.5763
 2514SOL    HW210054   0.625   1.413   4.226 -0.2209 -0.4595  0.3634
 2514SOL    HW310055   0.523   1.442   4.335 -1.6889 -0.7808 -0.9094
 2514SOL    MW410056   0.589   1.394   4.303 -0.4892 -0.0070  0.3522
 2515SOL     OW10057   0.458   3.704   4.507  0.2873 -0.2197 -0.3780
 2515SOL    HW210058   0.381   3.760   4.515  1.3817  1.2868 -0.2712
 2515SOL    HW310059   0.494   3.724   4.421  1.1799 -0.1372  0.0182
 2515SOL    MW410060   0.452   3.714   4.497  0.5495 -0.0101 -0.3116
 2516SOL     OW10061   3.097   0.884   3.319 -0.1852  0.2761  0.3833
 2516SOL    HW210062   3.109   0.978   3.310  0.6593  0.0513 -1.1138
 2516SOL    HW310063   3.116   0.866   3.411  0.8327  1.4136  0.4140
 2516SOL    MW410064   3.101   0.894   3.330  0.0605  0.3965  0.1898
 2517SOL     OW10065   1.719   2.957   4.624  0.5014  0.0873 -0.2660
 2517SOL    HW210066   1.714   2.927   4.533  0.3466  1.1074 -0.6010
 2517SOL    HW310067   1.812   2.950   4.647  0.8053  1.3209 -1.0338
 2517SOL    MW410068   1.731   2.952   4.615  0.5210  0.3847 -0.4115
 2518SOL     OW10069   2.526   4.493   4.063 -0.0053 -0.2519 -0.6172
 2518SOL    HW210070   2.534   4.452   3.977 -0.3965 -2.5744  0.4162
 2518SOL    HW310071   2.445   4.457   4.099  0.0410  0.8714  0.6325
 2518SOL    MW410072   2.517   4.483   4.057 -0.0508 -0.4101 -0.3160
 2519SOL     OW10073   4.391   3.261   4.562 -0.5571  0.1857 -0.2940
 2519SOL    HW210074   4.459   3.200   4.592 -0.4786  0.0612 -0.7277
 2519SOL    HW310075   4.437   3.324   4.508  0.0838  3.0227  3.3431
 2519SOL    MW410076   4.406   3.261   4.559 -0.4622  0.5436  0.1286
 2520SOL     OW10077   4.292   0.754   4.338  0.0372  0.5166  0.0132
 2520SOL    HW210078   4.261   0.683   4.394 -1.4556  0.6798 -0.5905
 2520SOL    HW310079   4.263   0.834   4.382 -0.7701  0.6569 -0.7571
 2520SOL    MW410080   4.284   0.755   4.351 -0.2663  0.5566 -0.1681
 2521SOL     OW10081   4.453   1.640   3.829 -0.3859 -0.0010  0.0114
 2521SOL    HW210082   4.394   1.706   3.791 -1.4026 -0.9771 -0.1467
 2521SOL    HW310083   4.493   1.597   3.754  1.1298  1.1668  0.1273
 2521SOL    MW410084   4.450   1.643   3.814 -0.3201  0.0243  0.0058
 2522SOL     OW10085   3.089   0.813   4.466 -0.0628 -0.6578  0.0202
 2522SOL    HW210086   3.114   0.721   4.455  1.2676 -0.4399  1.2104
 2522SOL    HW310087   3.171   0.860   4.474 -0.7460  0.6338 -0.4309
 2522SOL    MW410088   3.103   0.807   4.466  0.0226 -0.4586  0.1177
 2523SOL     OW10089   4.323   4.433   3.351  0.8915 -0.1826 -0.1293
 2523SOL    HW210090   4.372   4.449   3.432  0.1852  1.5315 -0.0373
 2523SOL    HW310091   4.239   4.399   3.381  1.0569 -0.6501 -0.1918
 2523SOL    MW410092   4.319   4.431   3.366  0.8201 -0.0181 -0.1254
 2524SOL     OW10093   1.823   0.880   3.320 -0.1747 -0.0782  0.1173
 2524SOL    HW210094   1.823   0.975   3.311 -2.2095  0.0529  1.1777
 2524SOL    HW310095   1.914   0.857   3.339 -0.3580  2.0918  4.1416
 2524SOL    MW410096   1.835   0.890   3.321 -0.4673  0.2254  0.7882
 2525SOL     OW10097   2.805   1.796   3.627  0.4806 -0.0305  0.2363
 2525SOL    HW210098   2.888   1.760   3.596  1.3079  0.3555  1.9716
 2525SOL    HW310099   2.817   1.891   3.622  0.2244  0.0271  0.7031
 2525SOL    MW410100   2.817   1.804   3.622  0.5560  0.0280  0.5269
 2526SOL     OW10101   2.891   3.455   4.774  0.5525  0.1030 -0.1579
 2526SOL    HW210102   2.948   3.531   4.764  0.7984 -0.0673 -0.0544
 2526SOL    HW310103   2.862   3.459   4.865 -1.0710  1.2205 -0.6957
 2526SOL    MW410104   2.894   3.465   4.785  0.3707  0.2280 -0.2152
 2527SOL     OW10105   1.638   2.828   4.381  0.0230 -0.0129  0.4259
 2527SOL    HW210106   1.565   2.772   4.409  0.0881 -0.7041 -0.7059
 2527SOL    HW310107   1.691   2.771   4.324  0.8075  0.8222  0.3049
 2527SOL    MW410108   1.635   2.813   4.377  0.1351  0.0061  0.2606
 2528SOL     OW10109   2.117   2.421   4.555 -0.1853  0.0579 -0.7493
 2528SOL    HW210110   2.029   2.395   4.583 -0.1153 -0.1584 -0.7317
 2528SOL    HW310111   2.124   2.388   4.465 -0.3357  0.5735 -0.9541
 2528SOL    MW410112   2.106   2.414   4.547 -0.1959  0.0974 -0.7740
 2529SOL     OW10113   0.466   4.448   3.754 -0.2208  0.4557 -0.9157
 2529SOL    HW210114   0.561   4.447   3.743  0.0380  0.4269  1.1972
 2529SOL    HW310115   0.446   4.537   3.782 -0.4827 -0.2789  1.3053
 2529SOL    MW410116   0.476   4.459   3.756 -0.2212  0.3550 -0.3439
 2530SOL     OW10117   0.908   1.623   3.963  0.4985  0.2900 -0.5571
 2530SOL    HW210118   0.858   1.619   3.881 -0.2304 -1.2583 -0.0521
 2530SOL    HW310119   0.992   1.662   3.937 -0.1436  0.8808 -1.8240
 2530SOL    MW410120   0.912   1.628   3.948  0.3176  0.1636 -0.6576
 2531SOL     OW10121   1.847   2.537   4.524 -0.1672 -0.0096 -0.3341
 2531SOL    HW210122   1.919   2.601   4.521  0.1660 -0.3697 -0.1127
 2531SOL    HW310123   1.786   2.572   4.588  0.0287  0.0716 -0.1924
 2531SOL    MW410124   1.849   2.550   4.532 -0.0974 -0.0464 -0.2862
 2532SOL     OW10125   1.127   1.502   3.237  0.2523  0.0549  0.5309
 2532SOL    HW210126   1.121   1.513   3.142  0.5164  0.7235  0.5858
 2532SOL    HW310127   1.049   1.546   3.271  0.3351  0.1175  0.6415
 2532SOL    MW410128   1.116   1.510   3.229  0.2981  0.1514  0.5527
 2533SOL     OW10129   1.417   3.780   3.719  0.3167  0.1455  0.0701
 2533SOL    HW210130   1.411   3.861   3.669  0.9991  1.1735  1.5887
 2533SOL    HW310131   1.422   3.809   3.810  1.5256 -1.5567  0.5773
 2533SOL    MW410132   1.417   3.794   3.725  0.5662  0.0565  0.3374
 2534SOL     OW10133   2.170   2.927   4.347 -0.0501  0.8616  0.2268
 2534SOL    HW210134   2.201   2.983   4.418 -2.1864 -0.4135  2.2474
 2534SOL    HW310135   2.083   2.960   4.327 -1.1687 -1.4501  1.1597
 2534SOL    MW410136   2.163   2.939   4.354 -0.4795  0.3884  0.6165
 2535SOL     OW10137   1.100   3.766   3.789  0.7918  0.1346 -0.3286
 2535SOL    HW210138   1.031   3.700   3.781  0.8119  0.1463 -0.5928
 2535SOL    HW310139   1.179   3.724   3.754  0.7124  0.4375 -0.8880
 2535SOL    MW410140   1.101   3.752   3.783  0.7840  0.1761 -0.4373
 2536SOL     OW10141   3.013   1.426   4.422 -0.1912  0.1695 -0.1473
 2536SOL    HW210142   2.918   1.418   4.426 -0.1472 -0.5434 -0.5537
 2536SOL    HW310143   3.028   1.518   4.400 -0.7325  0.9072  2.4361
 2536SOL    MW410144   3.003   1.437   4.420 -0.2568  0.1728  0.1399
 2537SOL     OW10145   1.580   2.890   3.320  0.5251  0.1377 -0.0477
 2537SOL    HW210146   1.582   2.859   3.410  1.1882  1.8800  0.5494
 2537SOL    HW310147   1.652   2.845   3.277  0.2981 -0.5813  0.3174
 2537SOL    MW410148   1.590   2.880   3.326  0.5827  0.2727  0.0792
 2538SOL     OW10149   3.451   2.456   4.152  0.1636  0.2942  0.4257
 2538SOL    HW210150   3.540   2.490   4.139  0.3561 -0.2494  0.3215
 2538SOL    HW310151   3.431   2.408   4.072  0.5834 -1.3540  1.2939
 2538SOL    MW410152   3.460   2.454   4.140  0.2444  0.0050  0.5265
 2539SOL     OW10153   4.280   4.483   3.753 -0.1225 -0.1984 -0.7528
 2539SOL    HW210154   4.220   4.408   3.745  0.2402 -0.4616 -1.0659
 2539SOL    HW310155   4.350   4.463   3.690 -0.5972  0.9459 -1.6656
 2539SOL    MW410156   4.282   4.470   3.743 -0.1373 -0.0821 -0.9146
 2540SOL     OW10157   3.442   0.382   4.190 -0.0757  0.1279  0.0434
 2540SOL    HW210158   3.493   0.402   4.112  1.4183 -0.2281  0.8950
 2540SOL    HW310159   3.393   0.462   4.208 -0.5997  0.1253 -1.3859
 2540SOL    MW410160   3.442   0.395   4.182  0.0522  0.0806 -0.0328
 2541SOL     OW10161   2.767   0.256   4.083 -0.4727  0.3622  0.4770
 2541SOL    HW210162   2.706   0.201   4.131  0.6692 -0.9089  0.5207
 2541SOL    HW310163   2.748   0.239   3.991  0.1172 -0.4089  0.4884
 2541SOL    MW410164   2.757   0.246   4.077 -0.2442  0.0928  0.4843
 2542SOL     OW10165   1.858   2.454   3.319 -0.5687 -0.5024  0.3247
 2542SOL    HW210166   1.799   2.394   3.274 -0.3474 -0.4361 -0.0597
 2542SOL    HW310167   1.941   2.406   3.326  0.4087  0.6432 -2.2769
 2542SOL    MW410168   1.861   2.440   3.314 -0.4106 -0.3425 -0.0693
 2543SOL     OW10169   0.651   2.367   3.621 -0.0827  0.0353 -0.0980
 2543SOL    HW210170   0.663   2.362   3.716  1.3778 -0.9252 -0.3126
 2543SOL    HW310171   0.650   2.276   3.592 -1.0936  0.3086 -0.9421
 2543SOL    MW410172   0.652   2.354   3.630 -0.0234 -0.0554 -0.2377
 2544SOL     OW10173   1.969   0.178   3.690  0.2999 -0.3452  0.2237
 2544SOL    HW210174   2.061   0.193   3.667  0.5748 -1.1849  0.7575
 2544SOL    HW310175   1.933   0.266   3.702  0.7191  0.0421 -1.1657
 2544SOL    MW410176   1.976   0.192   3.688  0.3915 -0.4049  0.1108
 2545SOL     OW10177   1.865   2.877   4.114 -0.0509  0.1384 -0.2072
 2545SOL    HW210178   1.780   2.854   4.077 -0.2576  1.7485 -0.7784
 2545SOL    HW310179   1.927   2.818   4.070 -0.5669  0.6225 -1.6062
 2545SOL    MW410180   1.862   2.866   4.103 -0.1463  0.4147 -0.4671
 2546SOL     OW10181   2.488   1.130   3.697  0.7455 -0.1636 -0.2239
 2546SOL    HW210182   2.460   1.219   3.676  0.3726 -0.3698 -0.5926
 2546SOL    HW310183   2.411   1.076   3.680  0.9153 -0.5350  0.1780
 2546SOL    MW410184   2.474   1.135   3.692  0.7187 -0.2398 -0.2196
 2547SOL     OW10185   3.297   0.012   3.973  0.3653  0.1652 -0.2360
 2547SOL    HW210186   3.210  -0.025   3.956  0.5381  0.1819 -1.2203
 2547SOL    HW310187   3.280   0.105   3.989  0.3792  0.5888 -2.4769
 2547SOL    MW410188   3.283   0.019   3.973  0.3899  0.2233 -0.6615
 2548SOL     OW10189   0.961   0.446   3.574 -0.3029  0.0610 -0.0771
 2548SOL    HW210190   0.996   0.475   3.489  1.7624  0.7928  0.9757
 2548SOL    HW310191   1.002   0.361   3.588  0.5612  0.6112  0.8455
 2548SOL    MW410192   0.971   0.439   3.565  0.0836  0.2302  0.1835
 2549SOL     OW10193   1.445   2.670   4.492  0.6638  0.2676  0.3934
 2549SOL    HW210194   1.412   2.601   4.434  2.4911 -0.5817  0.3464
 2549SOL    HW310195   1.371   2.730   4.502 -0.5551 -1.0440 -0.5664
 2549SOL    MW410196   1.431   2.669   4.486  0.7440 -0.0175  0.2606
 2550SOL     OW10197   2.562   1.499   3.880  0.2255 -0.2440  0.1474
 2550SOL    HW210198   2.657   1.489   3.889  0.2914  0.4764  0.2505
 2550SOL    HW310199   2.540   1.441   3.807  0.8282 -0.0113 -0.2321
 2550SOL    MW410200   2.572   1.490   3.871  0.3137 -0.1182  0.1109
 2551SOL     OW10201   1.065   0.770   4.410 -0.2170  0.1580  0.1075
 2551SOL    HW210202   1.084   0.745   4.320 -0.8038  1.4655 -0.4009
 2551SOL    HW310203   1.022   0.855   4.403  0.3446  0.6010  1.6645
 2551SOL    MW410204   1.062   0.778   4.397 -0.2203  0.3890  0.2458
 2552SOL     OW10205   3.498   4.243   4.402 -0.4660  0.5896  0.4913
 2552SOL    HW210206   3.443   4.261   4.478  0.3218  1.1625  0.9344
 2552SOL    HW310207   3.547   4.324   4.388  1.2865 -0.3616  0.9727
 2552SOL    MW410208   3.497   4.256   4.410 -0.1309  0.5397  0.6132
 2553SOL     OW10209   3.231   1.889   3.697  0.5939 -0.2813  0.4733
 2553SOL    HW210210   3.280   1.961   3.657  0.1235 -1.4367 -2.3558
 2553SOL    HW310211   3.293   1.816   3.698  0.1057 -0.7072  0.3198
 2553SOL    MW410212   3.246   1.889   3.692  0.4675 -0.4899  0.0798
 2554SOL     OW10213   2.631   1.793   3.837  0.5509 -0.1065 -0.1474
 2554SOL    HW210214   2.691   1.800   3.764 -0.1222  0.1404 -0.6818
 2554SOL    HW310215   2.591   1.707   3.827  0.0383  0.1562 -0.4054
 2554SOL    MW410216   2.633   1.783   3.826  0.3945 -0.0392 -0.2520
 2555SOL     OW10217   4.179   4.301   4.003 -0.1573  0.3579  0.0148
 2555SOL    HW210218   4.093   4.301   4.045  0.0133  0.3786  0.3687
 2555SOL    HW310219   4.240   4.318   4.075  0.1050  0.7975 -0.3148
 2555SOL    MW410220   4.176   4.303   4.018 -0.1002  0.4186  0.0180
 2556SOL     OW10221   2.729   3.440   4.550 -0.3972  0.3365 -0.2225
 2556SOL    HW210222   2.770   3.356   4.525 -1.3727 -0.0715 -0.4837
 2556SOL    HW310223   2.782   3.471   4.623 -0.0370 -0.5238 -0.1043
 2556SOL    MW410224   2.742   3.433   4.556 -0.4784  0.1692 -0.2414
 2557SOL     OW10225   0.156   1.972   3.911  0.0981 -0.6068  0.2281
 2557SOL    HW210226   0.111   2.037   3.966  0.6707 -0.2105  0.2414
 2557SOL    HW310227   0.113   1.978   3.826  0.5960  0.2885  0.0314
 2557SOL    MW410228   0.145   1.982   3.907  0.2393 -0.4364  0.2039
 2558SOL     OW10229   2.495   3.659   3.630  0.1608 -0.0004 -0.6458
 2558SOL    HW210230   2.411   3.665   3.675  0.6204  1.0012  0.1193
 2558SOL    HW310231   2.546   3.596   3.681  0.1393 -0.0323 -0.6641
 2558SOL    MW410232   2.491   3.652   3.642  0.2186  0.1275 -0.5473
 2559SOL     OW10233   3.604   0.830   3.609  0.3662  0.2755  0.3452
 2559SOL    HW210234   3.644   0.906   3.652  1.4341 -0.2165  0.2444
 2559SOL    HW310235   3.656   0.756   3.639 -0.5161 -0.3860  0.2450
 2559SOL    MW410236   3.616   0.830   3.619  0.3907  0.1233  0.3187
 2560SOL     OW10237   3.730   3.830   4.470  0.2593  0.0710  0.4830
 2560SOL    HW210238   3.775   3.802   4.391 -0.3113  2.5018 -0.7396
 2560SOL    HW310239   3.795   3.881   4.519 -0.3408  1.3338 -0.0107
 2560SOL    MW410240   3.744   3.833   4.466  0.1048  0.5583  0.2566
 2561SOL     OW10241   0.111   0.296   3.929  0.1308 -0.4874  0.0138
 2561SOL    HW210242   0.061   0.281   3.849  0.1411  0.4323 -0.1657
 2561SOL    HW310243   0.145   0.209   3.953  0.2389 -0.7357 -1.0469
 2561SOL    MW410244   0.109   0.283   3.922  0.1464 -0.3988 -0.1499
 2562SOL     OW10245   2.531   2.711   3.569 -0.1071 -0.3964  0.5904
 2562SOL    HW210246   2.562   2.779   3.629  1.1623  0.4537 -1.0061
 2562SOL    HW310247   2.584   2.635   3.590 -0.6894 -0.5492  1.5468
 2562SOL    MW410248   2.542   2.710   3.580 -0.0165 -0.3044  0.5059
 2563SOL     OW10249   3.845   3.673   3.257  0.0959  0.3884 -0.0993
 2563SOL    HW210250   3.831   3.673   3.352 -0.6879  0.0108 -0.2143
 2563SOL    HW310251   3.776   3.616   3.223  1.1998 -0.5441 -0.7803
 2563SOL    MW410252   3.834   3.665   3.265  0.1381  0.2155 -0.2043
 2564SOL     OW10253   1.104   2.077   3.608  0.5964  0.2218  0.3671
 2564SOL    HW210254   1.097   2.172   3.622  0.3006 -0.0650  2.2771
 2564SOL    HW310255   1.121   2.068   3.514 -1.0642  2.0876 -0.1550
 2564SOL    MW410256   1.105   2.089   3.597  0.3383  0.4301  0.5502
 2565SOL     OW10257   1.861   2.001   4.009 -0.4819  0.1232  0.3471
 2565SOL    HW210258   1.851   2.095   3.992  0.3638  0.2810  0.6617
 2565SOL    HW310259   1.778   1.962   3.983 -0.2508  0.7409 -1.3724
 2565SOL    MW410260   1.849   2.009   4.004 -0.3399  0.2256  0.1618
 2566SOL     OW10261   0.147   3.649   3.778  0.5494 -0.3688  0.5016
 2566SOL    HW210262   0.157   3.735   3.739  0.1561 -0.0475  1.1121
 2566SOL    HW310263   0.213   3.595   3.733  0.5070  0.1345 -0.1823
 2566SOL    MW410264   0.157   3.653   3.767  0.4919 -0.2600  0.4919
 2567SOL     OW10265   1.278   1.572   3.841 -0.3634  0.2631  1.1955
 2567SOL    HW210266   1.260   1.577   3.747  0.0392  1.5335  1.1842
 2567SOL    HW310267   1.269   1.479   3.861 -1.0585  0.0572  0.0215
 2567SOL    MW410268   1.274   1.560   3.831 -0.4020  0.4036  1.0391
 2568SOL     OW10269   1.963   4.412   3.204  0.2928  0.4176 -0.0477
 2568SOL    HW210270   1.984   4.444   3.291  0.6191  1.7374 -0.5977
 2568SOL    HW310271   1.878   4.368   3.214  0.8172 -0.3581  1.1236
 2568SOL    MW410272   1.955   4.410   3.217  0.4051  0.4894  0.0343
 2569SOL     OW10273   4.169   0.875   3.594 -0.3500 -0.1159  0.0907
 2569SOL    HW210274   4.256   0.837   3.607 -0.1036  0.2192 -0.5608
 2569SOL    HW310275   4.113   0.826   3.653  0.5606  0.6929  1.6661
 2569SOL    MW410276   4.173   0.864   3.603 -0.1973  0.0351  0.2126
 2570SOL     OW10277   3.720   1.937   4.198  0.0159 -0.3399 -0.0158
 2570SOL    HW210278   3.706   1.847   4.226  0.0180  0.2327  1.9016
 2570SOL    HW310279   3.815   1.947   4.195  0.0332  0.0687  1.4241
 2570SOL    MW410280   3.730   1.927   4.202  0.0184 -0.2104  0.4272
 2571SOL     OW10281   2.638   3.896   3.633  0.9033 -0.1369 -0.0713
 2571SOL    HW210282   2.618   3.950   3.709  0.7363 -0.1003 -0.1414
 2571SOL    HW310283   2.584   3.818   3.644  0.0208  0.3704 -0.7340
 2571SOL    MW410284   2.628   3.893   3.644  0.7648 -0.0651 -0.1680
 2572SOL     OW10285   0.279   2.804   3.747 -0.0450 -0.1951  0.0124
 2572SOL    HW210286   0.266   2.755   3.828  0.0443  2.4264  1.6509
 2572SOL    HW310287   0.374   2.816   3.742 -0.0907  0.0628 -0.2264
 2572SOL    MW410288   0.290   2.799   3.757 -0.0393  0.1848  0.1971
 2573SOL     OW10289   1.149   0.293   3.940 -0.0508 -0.3454 -0.4729
 2573SOL    HW210290   1.180   0.273   4.028 -1.0371  0.8374  0.1460
 2573SOL    HW310291   1.175   0.384   3.925 -0.4366 -0.3462 -1.1685
 2573SOL    MW410292   1.156   0.302   3.949 -0.2318 -0.1894 -0.4830
 2574SOL     OW10293   2.619   4.367   3.818 -0.0898 -0.0180 -0.2664
 2574SOL    HW210294   2.706   4.403   3.800  0.0125  0.0213  0.2995
 2574SOL    HW310295   2.567   4.391   3.741  0.1688  0.7338 -0.2174
 2574SOL    MW410296   2.623   4.375   3.806 -0.0422  0.0864 -0.1853
 2575SOL     OW10297   3.814   2.873   3.308  0.4939  0.0834 -0.3465
 2575SOL    HW210298   3.730   2.832   3.288  0.7553 -0.4497 -0.3628
 2575SOL    HW310299   3.808   2.960   3.269  0.1678 -0.1610 -0.8468
 2575SOL    MW410300   3.802   2.879   3.300  0.4854 -0.0192 -0.4146
 2576SOL     OW10301   0.488   2.028   4.199  0.1951 -0.3921 -0.0445
 2576SOL    HW210302   0.565   2.079   4.174  0.3613  0.1315  1.5253
 2576SOL    HW310303   0.524   1.942   4.222  0.3139 -0.1459  0.6943
 2576SOL    MW410304   0.503   2.023   4.199  0.2327 -0.2905  0.2601
 2577SOL     OW10305   2.149   0.066   4.212  0.1220 -0.3412 -0.5138
 2577SOL    HW210306   2.178   0.150   4.247  1.1771 -0.4257 -1.1824
 2577SOL    HW310307   2.191   0.001   4.268  0.2104 -0.4402 -0.6934
 2577SOL    MW410308   2.158   0.069   4.224  0.2728 -0.3654 -0.6257
 2578SOL     OW10309   3.362   4.243   4.671  0.2960  0.0380 -0.0055
 2578SOL    HW210310   3.269   4.264   4.666  0.6746  1.7241 -0.1306
 2578SOL    HW310311   3.365   4.148   4.665 -1.4134 -0.0245 -0.0991
 2578SOL    MW410312   3.350   4.233   4.670  0.1204  0.2522 -0.0344
 2579SOL     OW10313   1.778   2.605   4.266 -0.4838  0.3745  0.0426
 2579SOL    HW210314   1.789   2.556   4.348  0.6367 -0.1047 -0.3901
 2579SOL    HW310315   1.699   2.569   4.227  0.2784 -1.0332 -0.2223
 2579SOL    MW410316   1.769   2.594   4.272 -0.2354  0.1256 -0.0494
 2580SOL     OW10317   0.599   1.732   4.244 -0.3367 -0.5131  0.0217
 2580SOL    HW210318   0.556   1.666   4.298 -0.8914 -1.1368 -1.1529
 2580SOL    HW310319   0.692   1.715   4.256 -0.4649 -0.9928  0.3693
 2580SOL    MW410320   0.606   1.721   4.253 -0.4268 -0.6587 -0.0874
 2581SOL     OW10321   1.576   3.108   3.883 -0.8785  0.5162 -0.0269
 2581SOL    HW210322   1.664   3.077   3.861 -0.8267  0.6027  0.0558
 2581SOL    HW310323   1.590   3.197   3.916 -0.9162  0.2729  0.6568
 2581SOL    MW410324   1.590   3.116   3.885 -0.8766  0.4955  0.0742
 2582SOL     OW10325   2.001   3.591   3.622 -0.1686 -0.0829 -0.1232
 2582SOL    HW210326   1.911   3.570   3.645 -0.5204  2.0041  0.5137
 2582SOL    HW310327   2.000   3.606   3.528 -0.3642 -0.6021 -0.2050
 2582SOL    MW410328   1.989   3.590   3.613 -0.2408  0.1240 -0.0500
 2583SOL     OW10329   3.025   1.684   4.066 -0.4643 -0.5640  0.3625
 2583SOL    HW210330   3.058   1.598   4.041 -0.6109 -0.8411  1.1203
 2583SOL    HW310331   3.077   1.746   4.014  0.7964 -1.0216  1.0641
 2583SOL    MW410332   3.036   1.681   4.056 -0.3173 -0.6609  0.5550
 2584SOL     OW10333   0.052   2.031   3.657  0.0661  0.1637  0.0402
 2584SOL    HW210334  -0.015   2.004   3.595  0.5917 -1.2321  0.0477
 2584SOL    HW310335   0.132   2.036   3.605  0.1721  0.7097  0.2537
 2584SOL    MW410336   0.054   2.028   3.642  0.1494  0.0516  0.0694
 2585SOL     OW10337   2.502   0.056   4.393 -0.6954  0.1606  0.1274
 2585SOL    HW210338   2.485   0.144   4.426 -1.6631 -0.2863  0.8156
 2585SOL    HW310339   2.552   0.013   4.463  2.3982  1.1119 -1.4236
 2585SOL    MW410340   2.507   0.062   4.407 -0.4149  0.2271  0.0136
 2586SOL     OW10341   0.030   0.360   3.251 -0.1892  0.3779  0.1106
 2586SOL    HW210342   0.089   0.417   3.301  0.5432  1.0231 -1.4453
 2586SOL    HW310343  -0.057   0.396   3.267 -0.2392 -0.7081  2.6003
 2586SOL    MW410344   0.026   0.373   3.260 -0.0991  0.3197  0.2338
 2587SOL     OW10345   0.579   1.734   3.976 -0.8134 -0.0563  0.1992
 2587SOL    HW210346   0.594   1.737   4.071  0.7451  2.3243 -0.0779
 2587SOL    HW310347   0.642   1.797   3.940 -1.3984 -0.9335 -2.4203
 2587SOL    MW410348   0.589   1.743   3.984 -0.6849  0.1421 -0.1830
 2588SOL     OW10349   4.326   2.288   4.336  0.2112  0.2243  0.2622
 2588SOL    HW210350   4.373   2.297   4.418  1.5577 -0.7937 -0.3756
 2588SOL    HW310351   4.338   2.197   4.311 -0.1705  0.5265 -1.0813
 2588SOL    MW410352   4.334   2.277   4.343  0.3385  0.1299  0.0008
 2589SOL     OW10353   4.456   3.384   4.111  0.0084 -0.0417 -0.1008
 2589SOL    HW210354   4.368   3.420   4.095 -0.4439 -0.5896  1.1080
 2589SOL    HW310355   4.468   3.391   4.205  2.0343  1.7508 -0.4595
 2589SOL    MW410356   4.446   3.390   4.121  0.2160  0.1225  0.0114
 2590SOL     OW10357   1.598   2.295   3.963 -0.3247  0.1293  0.2785
 2590SOL    HW210358   1.566   2.304   3.873  0.5479 -0.3190 -0.0830
 2590SOL    HW310359   1.693   2.299   3.955 -0.1881 -1.3485  1.0126
 2590SOL    MW410360   1.606   2.297   3.950 -0.1915 -0.1248  0.3277
 2591SOL     OW10361   0.448   3.253   3.618  0.4627  0.3352  0.3767
 2591SOL    HW210362   0.532   3.213   3.599  0.3340  0.6221 -0.8356
 2591SOL    HW310363   0.399   3.186   3.666  1.1476 -0.0573  0.5224
 2591SOL    MW410364   0.452   3.239   3.622  0.5361  0.3213  0.2360
 2592SOL     OW10365   0.080   3.985   3.189  0.0845  0.1434 -0.0515
 2592SOL    HW210366   0.063   4.078   3.205 -1.1280 -0.1491  0.4734
 2592SOL    HW310367   0.152   3.964   3.248  1.5519  1.1498 -1.4439
 2592SOL    MW410368   0.087   3.995   3.199  0.1182  0.2376 -0.1659
 2593SOL     OW10369   2.449   2.079   4.248 -0.1587 -0.6475 -0.2662
 2593SOL    HW210370   2.544   2.070   4.252 -0.0488  0.8737  1.3896
 2593SOL    HW310371   2.429   2.146   4.314 -2.2128  0.2464 -1.7580
 2593SOL    MW410372   2.459   2.087   4.258 -0.4152 -0.3288 -0.2445
 2594SOL     OW10373   1.347   0.575   4.304 -0.2234  0.2609 -0.1707
 2594SOL    HW210374   1.404   0.649   4.281 -0.9752  0.5328 -1.2302
 2594SOL    HW310375   1.264   0.595   4.260  0.0696 -2.0162 -1.8293
 2594SOL    MW410376   1.343   0.587   4.295 -0.2840 -0.0037 -0.5293
 2595SOL     OW10377   4.265   4.039   3.937 -0.2103  0.3892  0.2400
 2595SOL    HW210378   4.322   4.024   4.012  0.6595 -0.6347 -0.5909
 2595SOL    HW310379   4.228   4.126   3.950 -0.0205  0.2370  1.8098
 2595SOL    MW410380   4.267   4.048   3.949 -0.0705  0.2341  0.3375
 2596SOL     OW10381   3.067   3.379   4.113 -0.2490 -0.0831 -0.3738
 2596SOL    HW210382   2.987   3.427   4.135 -1.7056 -2.6780  0.2237
 2596SOL    HW310383   3.097   3.420   4.031 -1.3955  1.8308  0.1206
 2596SOL    MW410384   3.060   3.391   4.105 -0.5924 -0.1730 -0.2297
 2597SOL     OW10385   1.924   0.592   4.469 -0.0919  0.6512  0.3477
 2597SOL    HW210386   1.852   0.555   4.520 -0.9314  1.1414 -0.4489
 2597SOL    HW310387   1.932   0.682   4.500  0.7453  0.3435  1.0263
 2597SOL    MW410388   1.916   0.599   4.479 -0.0922  0.6753  0.3321
 2598SOL     OW10389   3.689   2.575   4.089 -0.4849  0.0132  0.3183
 2598SOL    HW210390   3.642   2.626   4.023 -0.1493 -0.3220 -0.1832
 2598SOL    HW310391   3.701   2.636   4.162  0.3168  0.8106 -0.4533
 2598SOL    MW410392   3.685   2.590   4.089 -0.3348  0.0742  0.1504
 2599SOL     OW10393   3.688   0.371   3.750 -0.4325 -0.0071 -0.4117
 2599SOL    HW210394   3.773   0.329   3.764 -1.1433 -1.5624 -0.6770
 2599SOL    HW310395   3.710   0.460   3.724  1.0797  0.1601  1.3095
 2599SOL    MW410396   3.702   0.377   3.748 -0.3268 -0.1902 -0.2196
 2600SOL     OW10397   0.741   1.566   3.749  0.2888 -0.1474  0.2984
 2600SOL    HW210398   0.661   1.567   3.695  0.8485 -1.5193 -0.5967
 2600SOL    HW310399   0.757   1.473   3.766  2.1574  0.0565 -0.2374
 2600SOL    MW410400   0.733   1.554   3.744  0.6091 -0.3015  0.1096
 2601SOL     OW10401   1.551   2.317   3.694 -0.1036 -0.2908  0.3698
 2601SOL    HW210402   1.476   2.368   3.663  0.8355  1.5112  0.9400
 2601SOL    HW310403   1.627   2.373   3.675  1.0968 -2.0463 -0.1216
 2601SOL    MW410404   1.551   2.331   3.687  0.1786 -0.2846  0.3802
 2602SOL     OW10405   0.259   0.484   3.620 -0.0022 -0.4097 -0.2125
 2602SOL    HW210406   0.291   0.567   3.656 -0.9891 -0.2519  0.2997
 2602SOL    HW310407   0.252   0.500   3.526 -0.9567  0.3404 -0.0154
 2602SOL    MW410408   0.262   0.497   3.612 -0.2583 -0.2899 -0.1189
 2603SOL     OW10409   2.113   4.567   3.706 -0.3378  0.4945 -0.2186
 2603SOL    HW210410   2.057   4.644   3.718  1.4923  1.8436 -0.0750
 2603SOL    HW310411   2.132   4.538   3.795 -0.7546  0.0525 -0.2683
 2603SOL    MW410412   2.108   4.573   3.720 -0.1514  0.6142 -0.2062
 2604SOL     OW10413   1.980   2.314   3.680  0.4024 -0.1815  0.1108
 2604SOL    HW210414   1.907   2.353   3.633 -1.0917 -0.4084  2.1788
 2604SOL    HW310415   1.976   2.221   3.659 -0.0570 -0.2270  0.3884
 2604SOL    MW410416   1.970   2.307   3.671  0.1447 -0.2175  0.4203
 2605SOL     OW10417   3.643   2.529   3.631 -0.1381  0.2432  0.2427
 2605SOL    HW210418   3.717   2.478   3.665  0.3828  0.5602 -0.4134
 2605SOL    HW310419   3.567   2.472   3.644  0.3034 -0.3085  0.4176
 2605SOL    MW410420   3.643   2.514   3.637 -0.0111  0.2122  0.1792
 2606SOL     OW10421   2.393   0.756   4.015 -0.1998 -0.1188  0.1468
 2606SOL    HW210422   2.437   0.841   4.014  0.9327 -0.6915  0.5877
 2606SOL    HW310423   2.370   0.740   3.923  1.0620 -0.0846 -0.1852
 2606SOL    MW410424   2.396   0.765   4.003  0.1161 -0.1898  0.1612
 2607SOL     OW10425   0.783   0.854   3.882  0.3014 -0.2657 -0.3541
 2607SOL    HW210426   0.747   0.777   3.926  0.3090 -0.9671 -1.5768
 2607SOL    HW310427   0.709   0.915   3.875 -0.4340 -1.3303 -2.0244
 2607SOL    MW410428   0.769   0.852   3.887  0.2054 -0.4987 -0.7358
 2608SOL     OW10429   4.075   3.296   3.936 -0.5429  0.1911  0.5192
 2608SOL    HW210430   4.012   3.310   4.007 -0.3156  0.8572  0.5857
 2608SOL    HW310431   4.124   3.218   3.962 -2.2512 -1.1656 -0.1734
 2608SOL    MW410432   4.073   3.287   3.949 -0.7383  0.0999  0.4366
 2609SOL     OW10433   2.937   2.440   3.739  0.2701  0.1392  0.3774
 2609SOL    HW210434   2.859   2.478   3.700  0.3840 -0.6970 -0.6694
 2609SOL    HW310435   3.008   2.467   3.682  0.6067 -0.0210  0.7173
 2609SOL    MW410436   2.936   2.448   3.726  0.3295  0.0077  0.2842
 2610SOL     OW10437   0.449   0.065   3.786 -0.5693  0.7553  0.6706
 2610SOL    HW210438   0.430   0.108   3.702  0.9989 -0.4312 -0.3134
 2610SOL    HW310439   0.533   0.101   3.814 -0.8330  0.7560  1.4892
 2610SOL    MW410440   0.457   0.075   3.779 -0.3972  0.5988  0.6488
 2611SOL     OW10441   1.481   0.932   4.468  0.6971  0.0742 -0.1582
 2611SOL    HW210442   1.416   0.984   4.419  0.6541  0.5144  0.3613
 2611SOL    HW310443   1.431   0.859   4.504  0.5487  0.2536  0.0002
 2611SOL    MW410444   1.466   0.930   4.466  0.6718  0.1560 -0.0688
 2612SOL     OW10445   4.167   0.545   4.495 -0.0740  0.6632  0.2630
 2612SOL    HW210446   4.236   0.481   4.513 -0.7272  0.6514  3.0433
 2612SOL    HW310447   4.108   0.500   4.434  2.0476  0.4823 -1.6983
 2612SOL    MW410448   4.168   0.530   4.490  0.1197  0.6378  0.3710
 2613SOL     OW10449   0.445   0.874   3.343 -0.2568  0.1344 -0.1464
 2613SOL    HW210450   0.468   0.966   3.330  0.0693  0.1447  0.5192
 2613SOL    HW310451   0.462   0.857   3.435 -0.0009 -0.6822 -0.3348
 2613SOL    MW410452   0.450   0.884   3.353 -0.1800  0.0280 -0.0834
 2614SOL     OW10453   2.826   0.886   3.978 -0.3499 -0.3965 -0.1553
 2614SOL    HW210454   2.837   0.842   3.893 -0.7560 -0.8952  0.0462
 2614SOL    HW310455   2.739   0.926   3.972  0.4065  1.1927 -0.7018
 2614SOL    MW410456   2.816   0.885   3.966 -0.3037 -0.2526 -0.2008
 2615SOL     OW10457   3.444   4.624   3.744  0.2638 -0.0077 -0.4243
 2615SOL    HW210458   3.399   4.663   3.819  0.4690  0.1616 -0.3887
 2615SOL    HW310459   3.464   4.698   3.687 -1.1140 -0.3033 -1.2936
 2615SOL    MW410460   3.441   4.639   3.746  0.1091 -0.0244 -0.5343
 2616SOL     OW10461   0.984   0.905   4.069 -0.0196  0.0433 -0.0345
 2616SOL    HW210462   0.918   0.888   4.002 -0.1471  0.8670 -0.1274
 2616SOL    HW310463   1.065   0.921   4.020 -0.2738  1.3903 -0.0449
 2616SOL    MW410464   0.986   0.905   4.054 -0.0700  0.3297 -0.0482
 2617SOL     OW10465   0.570   2.827   3.786 -0.0466 -0.4652  0.1381
 2617SOL    HW210466   0.587   2.896   3.850 -0.6482 -0.3108  0.1370
 2617SOL    HW310467   0.634   2.842   3.716  0.0206 -0.0930  0.2808
 2617SOL    MW410468   0.581   2.838   3.785 -0.1171 -0.3957  0.1568
 2618SOL     OW10469   4.155   2.922   3.694 -0.2089  0.4608 -0.3873
 2618SOL    HW210470   4.185   2.938   3.783  0.1305  0.0402 -0.4203
 2618SOL    HW310471   4.222   2.863   3.657 -2.2859 -2.4082  0.2776
 2618SOL    MW410472   4.168   2.916   3.701 -0.4381  0.0268 -0.3040
 2619SOL     OW10473   1.001   1.504   4.366 -0.0861 -0.3038  0.5529
 2619SOL    HW210474   1.057   1.543   4.433 -0.0754  0.7974 -0.0833
 2619SOL    HW310475   0.962   1.579   4.321 -0.0322 -1.0330 -0.7259
 2619SOL    MW410476   1.003   1.519   4.369 -0.0776 -0.2547  0.3003
 2620SOL     OW10477   4.315   0.448   3.581  0.1588 -0.4698  0.2882
 2620SOL    HW210478   4.387   0.492   3.625 -1.1071  1.7446  0.1928
 2620SOL    HW310479   4.246   0.443   3.646 -0.3568 -0.6592 -0.2677
 2620SOL    MW410480   4.316   0.453   3.595 -0.0763 -0.2026  0.2023
 2621SOL     OW10481   1.403   3.883   3.981  0.1872 -0.1947 -0.2545
 2621SOL    HW210482   1.348   3.810   4.010  0.3545 -0.4647 -0.6023
 2621SOL    HW310483   1.489   3.866   4.021  0.0863  0.0870  0.0803
 2621SOL    MW410484   1.407   3.871   3.990  0.1960 -0.1931 -0.2562
 2622SOL     OW10485   2.226   3.739   3.728  0.3820 -0.5855 -0.0839
 2622SOL    HW210486   2.152   3.687   3.696 -0.2593  0.1029  0.2689
 2622SOL    HW310487   2.228   3.815   3.669 -2.4276  2.0408  2.9866
 2622SOL    MW410488   2.216   3.742   3.716 -0.0733 -0.1482  0.3677
 2623SOL     OW10489   0.371   3.176   4.027  0.3453  0.6481  0.0391
 2623SOL    HW210490   0.326   3.141   3.950  1.4457 -0.1404 -0.2565
 2623SOL    HW310491   0.355   3.112   4.096  0.2698  0.8087  0.1694
 2623SOL    MW410492   0.363   3.163   4.026  0.4806  0.5653  0.0173
 2624SOL     OW10493   3.382   1.519   3.227  0.2120 -0.2312 -0.2739
 2624SOL    HW210494   3.301   1.560   3.256 -0.1346 -1.7698  1.0095
 2624SOL    HW310495   3.451   1.583   3.246 -0.3756 -0.0298  1.2075
 2624SOL    MW410496   3.381   1.533   3.233  0.0887 -0.4076  0.0909
 2625SOL     OW10497   1.567   4.387   3.368  0.4005 -0.7615  0.0073
 2625SOL    HW210498   1.492   4.346   3.324  1.0215 -0.0296 -1.7692
 2625SOL    HW310499   1.530   4.424   3.448 -1.1295 -0.4568 -0.8211
 2625SOL    MW410500   1.552   4.386   3.372  0.2806 -0.6247 -0.3364
 2626SOL     OW10501   2.485   0.755   3.282  0.2009  0.5840  0.5334
 2626SOL    HW210502   2.563   0.809   3.293 -0.5477  1.8080 -0.0624
 2626SOL    HW310503   2.467   0.758   3.188  0.7640 -1.5836  0.3331
 2626SOL    MW410504   2.493   0.762   3.271  0.1764  0.4595  0.4283
 2627SOL     OW10505   3.179   4.017   3.363 -0.2565  0.1948  0.2385
 2627SOL    HW210506   3.249   3.990   3.303 -0.6866 -2.3047  0.8025
 2627SOL    HW310507   3.162   4.109   3.340  2.5106  0.5642 -0.5719
 2627SOL    MW410508   3.186   4.026   3.352  0.0519 -0.0863  0.2060
 2628SOL     OW10509   3.074   0.274   4.464  0.1865  0.5720 -0.0350
 2628SOL    HW210510   3.158   0.229   4.469  0.2134  0.6126 -0.1235
 2628SOL    HW310511   3.035   0.244   4.382 -0.1209  0.1438  0.2648
 2628SOL    MW410512   3.080   0.264   4.454  0.1495  0.5209 -0.0071
 2629SOL     OW10513   1.810   1.046   3.709  0.1211  0.7533 -0.2013
 2629SOL    HW210514   1.760   1.125   3.687 -0.0533  0.6793 -0.0664
 2629SOL    HW310515   1.778   1.021   3.795 -0.4525  0.0275 -0.6232
 2629SOL    MW410516   1.799   1.053   3.717  0.0224  0.6478 -0.2391
 2630SOL     OW10517   3.898   2.970   4.051  0.1753 -0.9679  0.1405
 2630SOL    HW210518   3.898   2.877   4.029 -0.5793 -0.8433 -0.4314
 2630SOL    HW310519   3.904   2.973   4.146 -1.5885 -1.6371  0.2754
 2630SOL    MW410520   3.899   2.958   4.060 -0.1570 -1.0398  0.0828
 2631SOL     OW10521   3.579   2.730   3.233 -0.3931 -0.1230  0.0762
 2631SOL    HW210522   3.598   2.642   3.266 -0.3681 -0.0021  0.3890
 2631SOL    HW310523   3.583   2.721   3.138 -2.2772 -0.8868  0.0455
 2631SOL    MW410524   3.582   2.717   3.225 -0.6384 -0.2078  0.1134
 2632SOL     OW10525   0.511   4.001   3.381 -0.2119  0.1926 -0.4792
 2632SOL    HW210526   0.421   3.974   3.361 -0.4301  0.0674  0.6062
 2632SOL    HW310527   0.508   4.096   3.382 -0.7067  0.1805  1.0923
 2632SOL    MW410528   0.499   4.010   3.379 -0.3060  0.1745 -0.1287
 2633SOL     OW10529   0.075   4.105   4.536  0.1969 -0.1264 -0.2560
 2633SOL    HW210530   0.124   4.027   4.508  0.2540 -0.2220  0.0935
 2633SOL    HW310531   0.129   4.178   4.507  0.2208 -0.2218 -0.4536
 2633SOL    MW410532   0.089   4.104   4.529  0.2076 -0.1516 -0.2360
 2634SOL     OW10533   1.322   3.233   3.305 -0.4657 -0.4209  0.1470
 2634SOL    HW210534   1.337   3.234   3.400 -2.7940 -0.2262  0.5414
 2634SOL    HW310535   1.401   3.192   3.269  0.4377 -0.5334  2.1651
 2634SOL    MW410536   1.334   3.228   3.313 -0.6537 -0.4101  0.4653
 2635SOL     OW10537   0.140   0.074   3.584 -0.2514 -0.2632 -0.4044
 2635SOL    HW210538   0.065   0.125   3.616 -0.1841  0.5834 -1.5358
 2635SOL    HW310539   0.122   0.063   3.491  1.1239  0.0969 -0.7159
 2635SOL    MW410540   0.128   0.080   3.576 -0.0610 -0.1040 -0.5948
 2636SOL     OW10541   3.643   1.690   4.326  0.0182 -0.3919 -0.0962
 2636SOL    HW210542   3.551   1.688   4.354  0.6516  0.0053  2.1057
 2636SOL    HW310543   3.681   1.610   4.363  0.8775  0.1261  0.1545
 2636SOL    MW410544   3.636   1.679   4.334  0.2151 -0.2711  0.2274
 2637SOL     OW10545   3.351   0.728   3.659 -0.3235  0.0060 -0.0021
 2637SOL    HW210546   3.436   0.770   3.648 -0.2660 -0.5737 -2.1390
 2637SOL    HW310547   3.365   0.638   3.632 -1.7466  0.0682 -1.0431
 2637SOL    MW410548   3.364   0.722   3.654 -0.5037 -0.0623 -0.4214
 2638SOL     OW10549   1.061   2.713   3.499 -0.4387 -0.1086  0.1681
 2638SOL    HW210550   1.053   2.745   3.409 -1.6253 -0.6080  0.0848
 2638SOL    HW310551   0.997   2.642   3.505  2.3867 -2.7263  0.2771
 2638SOL    MW410552   1.052   2.708   3.488 -0.2225 -0.5199  0.1715
 2639SOL     OW10553   4.106   1.254   3.899  0.2525  0.2002  0.3853
 2639SOL    HW210554   4.160   1.194   3.950  0.7337  0.2760 -0.0369
 2639SOL    HW310555   4.155   1.336   3.899 -0.8203  0.8885  1.7366
 2639SOL    MW410556   4.119   1.257   3.906  0.1744  0.3011  0.5079
 2640SOL     OW10557   1.775   3.739   3.871 -0.0154 -0.1582  0.4263
 2640SOL    HW210558   1.719   3.771   3.943 -1.3382 -0.7055 -0.3440
 2640SOL    HW310559   1.861   3.774   3.892 -0.7732  1.2994  1.2812
 2640SOL    MW410560   1.779   3.748   3.883 -0.2899 -0.0381  0.4374
 2641SOL     OW10561   0.015   1.483   3.593  0.2836 -0.0987 -0.3643
 2641SOL    HW210562   0.010   1.553   3.527  0.8640  0.7533  0.4817
 2641SOL    HW310563  -0.070   1.439   3.587 -0.1490  0.7718 -0.8024
 2641SOL    MW410564   0.003   1.487   3.583  0.3031  0.1286 -0.3105
 2642SOL     OW10565   0.560   0.788   3.594  0.1495 -0.0613  0.3085
 2642SOL    HW210566   0.475   0.765   3.632 -0.0296  1.1504  0.6632
 2642SOL    HW310567   0.568   0.882   3.610  1.0628  0.0323 -0.7106
 2642SOL    MW410568   0.550   0.797   3.601  0.2464  0.1109  0.2208
 2643SOL     OW10569   2.975   3.190   3.739 -0.8160  0.0400  0.1737
 2643SOL    HW210570   3.061   3.206   3.701 -0.3245  0.1472  1.2933
 2643SOL    HW310571   2.992   3.178   3.833 -1.7998 -1.7906  0.1456
 2643SOL    MW410572   2.988   3.191   3.747 -0.8810 -0.1873  0.3178
 2644SOL     OW10573   2.211   0.106   3.362 -0.0902  0.2386  0.1142
 2644SOL    HW210574   2.293   0.067   3.330 -0.1802  0.3899 -0.3092
 2644SOL    HW310575   2.231   0.132   3.452  0.0758 -0.4585  0.2793
 2644SOL    MW410576   2.225   0.104   3.370 -0.0801  0.1666  0.0801
 2645SOL     OW10577   2.941   0.513   4.160  0.1925 -0.5345  0.2763
 2645SOL    HW210578   2.876   0.442   4.154 -0.3191 -0.0474 -0.0284
 2645SOL    HW310579   2.890   0.589   4.189  0.8928 -0.4964  1.4612
 2645SOL    MW410580   2.925   0.513   4.163  0.2174 -0.4652  0.3924
 2646SOL     OW10581   2.040   3.577   4.113  0.3192 -0.4372 -0.2045
 2646SOL    HW210582   2.054   3.656   4.060 -0.6889 -0.9893 -1.3096
 2646SOL    HW310583   2.116   3.522   4.094  0.6498 -0.0534 -0.0078
 2646SOL    MW410584   2.052   3.580   4.103  0.2298 -0.4594 -0.3244
 2647SOL     OW10585   2.052   4.078   4.050 -0.2646  0.4590  0.3680
 2647SOL    HW210586   2.022   4.144   3.988  0.5512 -0.1317 -0.6637
 2647SOL    HW310587   2.140   4.106   4.076  0.4655 -0.7150 -0.8005
 2647SOL    MW410588   2.059   4.090   4.046 -0.0607  0.2262  0.0777
 2648SOL     OW10589   1.739   0.994   3.964 -0.2329  0.2041  0.3972
 2648SOL    HW210590   1.653   0.954   3.969 -0.2566  0.0755 -0.9097
 2648SOL    HW310591   1.798   0.930   4.004 -0.5008 -0.4499 -0.2393
 2648SOL    MW410592   1.736   0.980   3.970 -0.2714  0.1009  0.1408
 2649SOL     OW10593   3.634   4.444   3.798  0.1937 -0.1302  0.6390
 2649SOL    HW210594   3.608   4.376   3.736  2.0597  0.6481 -1.0507
 2649SOL    HW310595   3.571   4.515   3.783 -0.2230 -0.4893  0.6624
 2649SOL    MW410596   3.622   4.445   3.788  0.3849 -0.0749  0.4191
 2650SOL     OW10597   0.251   4.490   3.561  0.4757 -0.7186 -0.4591
 2650SOL    HW210598   0.319   4.459   3.621 -0.1409 -0.1806  0.5348
 2650SOL    HW310599   0.219   4.571   3.601 -0.8541 -1.0405 -0.8354
 2650SOL    MW410600   0.256   4.497   3.575  0.2189 -0.6901 -0.3776
 2651SOL     OW10601   1.217   2.979   4.193  0.2019  0.5784 -0.0259
 2651SOL    HW210602   1.130   2.941   4.183  0.4082  0.3910 -1.2148
 2651SOL    HW310603   1.201   3.071   4.214 -0.2791  0.7570 -1.1577
 2651SOL    MW410604   1.204   2.986   4.194  0.1657  0.5773 -0.3321
 2652SOL     OW10605   1.234   0.243   4.194  0.0805 -0.1522 -0.1222
 2652SOL    HW210606   1.327   0.264   4.186 -0.0000  0.3024  0.0905
 2652SOL    HW310607   1.230   0.148   4.189  0.5833 -0.1896  0.1436
 2652SOL    MW410608   1.245   0.234   4.192  0.1362 -0.0972 -0.0591
 2653SOL     OW10609   0.143   2.710   3.534  0.4670 -0.1555  0.7193
 2653SOL    HW210610   0.166   2.763   3.458 -0.6942  0.8598  1.0524
 2653SOL    HW310611   0.213   2.726   3.597  0.4667  0.4744  0.5619
 2653SOL    MW410612   0.155   2.719   3.532  0.3137  0.0616  0.7425
 2654SOL     OW10613   1.437   0.477   3.499  0.0836 -0.1132  0.3553
 2654SOL    HW210614   1.441   0.418   3.574 -1.5318 -0.0291  0.5193
 2654SOL    HW310615   1.358   0.529   3.513  2.2902  3.2251  1.0254
 2654SOL    MW410616   1.427   0.476   3.510  0.1616  0.3383  0.4654
 2655SOL     OW10617   4.440   2.895   3.661 -0.0834  0.4058  0.3257
 2655SOL    HW210618   4.459   2.988   3.650  1.3246  0.1522  0.5084
 2655SOL    HW310619   4.511   2.850   3.616 -1.7327 -0.5939 -1.3411
 2655SOL    MW410620   4.452   2.901   3.654 -0.1153  0.2404  0.1299
 2656SOL     OW10621   0.890   3.330   4.165  0.2150 -0.0084  0.3831
 2656SOL    HW210622   0.822   3.397   4.158 -0.0375 -0.2726  0.2696
 2656SOL    HW310623   0.896   3.310   4.258 -0.1347 -0.2570  0.3546
 2656SOL    MW410624   0.882   3.336   4.176  0.1355 -0.0761  0.3644
 2657SOL     OW10625   2.474   2.346   3.681 -0.3370  0.1128 -0.3565
 2657SOL    HW210626   2.458   2.360   3.774 -0.3183  0.3945 -0.3950
 2657SOL    HW310627   2.391   2.365   3.638 -0.4899 -0.5302 -0.3470
 2657SOL    MW410628   2.461   2.350   3.687 -0.3547  0.0652 -0.3603
 2658SOL     OW10629   3.128   4.273   3.271 -0.1381  0.3946  0.1934
 2658SOL    HW210630   3.042   4.300   3.303  0.0644 -0.5496  1.5604
 2658SOL    HW310631   3.189   4.337   3.308 -0.1622  0.6446 -0.1929
 2658SOL    MW410632   3.125   4.285   3.280 -0.1146  0.3030  0.3228
 2659SOL     OW10633   3.523   3.444   4.387  0.3533 -0.1706  0.1721
 2659SOL    HW210634   3.516   3.495   4.306 -0.0611  0.6538  0.7193
 2659SOL    HW310635   3.432   3.424   4.411  0.5270 -1.5478 -0.2659
 2659SOL    MW410636   3.510   3.448   4.380  0.3216 -0.2435  0.1865
 2660SOL     OW10637   4.200   1.984   4.041  0.4427  0.0566 -0.0599
 2660SOL    HW210638   4.205   2.058   3.981  0.2080 -0.9843 -1.3720
 2660SOL    HW310639   4.268   2.001   4.107  1.1453  0.8703 -0.9930
 2660SOL    MW410640   4.210   1.996   4.042  0.5044  0.0266 -0.3562
 2661SOL     OW10641   0.457   0.369   2.945  0.1083  0.0124  0.3336
 2661SOL    HW210642   0.451   0.375   3.041 -0.3114  0.1377  0.3016
 2661SOL    HW310643   0.540   0.411   2.924 -0.4481  1.2451  0.5346
 2661SOL    MW410644   0.467   0.375   2.955 -0.0204  0.1916  0.3559
 2662SOL     OW10645   1.232   0.940   3.915  0.2648  0.6025 -0.3594
 2662SOL    HW210646   1.325   0.916   3.916  0.2643  0.5095 -2.2652
 2662SOL    HW310647   1.200   0.913   3.829 -1.2115  1.8585 -0.2293
 2662SOL    MW410648   1.240   0.933   3.904  0.0699  0.7559 -0.5937
 2663SOL     OW10649   2.010   1.033   4.275  0.2544  1.1158 -0.1549
 2663SOL    HW210650   1.947   0.983   4.327  1.0367 -0.7920 -0.9814
 2663SOL    HW310651   2.087   0.976   4.270  1.0903  2.3219 -1.3215
 2663SOL    MW410652   2.012   1.019   4.282  0.4679  1.0233 -0.4179
 2664SOL     OW10653   1.583   1.295   3.347 -0.4210 -0.2980  0.0932
 2664SOL    HW210654   1.567   1.387   3.323 -1.6792 -0.6507 -0.4574
 2664SOL    HW310655   1.605   1.298   3.440  2.6121  0.8833 -0.5822
 2664SOL    MW410656   1.584   1.308   3.356 -0.1868 -0.1887 -0.0686
 2665SOL     OW10657   3.826   0.531   4.150 -0.2720 -0.2874  0.0129
 2665SOL    HW210658   3.864   0.613   4.119 -1.6690  0.2702 -0.2552
 2665SOL    HW310659   3.900   0.484   4.189  1.1547 -0.1556 -2.3967
 2665SOL    MW410660   3.841   0.535   4.151 -0.2681 -0.1964 -0.3404
 2666SOL     OW10661   2.354   3.648   4.395  0.0136  0.5197  0.3651
 2666SOL    HW210662   2.409   3.717   4.357 -1.2692  1.1387 -0.3969
 2666SOL    HW310663   2.410   3.570   4.393  0.6468  0.9802 -1.0273
 2666SOL    MW410664   2.369   3.647   4.390 -0.0721  0.6621  0.0809
 2667SOL     OW10665   2.188   1.748   3.789  0.2577  0.3754 -0.2269
 2667SOL    HW210666   2.264   1.807   3.793  0.3512  0.2174  0.2903
 2667SOL    HW310667   2.181   1.712   3.877  0.3836 -0.6278 -0.6251
 2667SOL    MW410668   2.197   1.751   3.801  0.2866  0.2222 -0.2112
 2668SOL     OW10669   1.095   0.011   3.274  0.7285  0.0380  0.3204
 2668SOL    HW210670   1.104   0.008   3.178  1.5398  0.0909  0.3893
 2668SOL    HW310671   1.121  -0.076   3.303  1.2257  0.2634  0.5491
 2668SOL    MW410672   1.099  -0.001   3.265  0.9011  0.0747  0.3597
 2669SOL     OW10673   1.123   0.693   4.149 -0.2927  0.5141  0.3352
 2669SOL    HW210674   1.053   0.628   4.144 -1.6018  1.9468 -0.1828
 2669SOL    HW310675   1.085   0.773   4.114  1.2906  1.5985  1.0106
 2669SOL    MW410676   1.109   0.695   4.144 -0.2565  0.8462  0.3560
 2670SOL     OW10677   0.262   4.379   3.301  0.0362 -0.1367  0.2135
 2670SOL    HW210678   0.268   4.409   3.392 -0.3748  0.6219 -0.0092
 2670SOL    HW310679   0.347   4.339   3.283  1.2101  2.4207 -0.0456
 2670SOL    MW410680   0.274   4.378   3.311  0.1368  0.3008  0.1499
 2671SOL     OW10681   1.554   1.562   3.279 -0.1417 -0.2689  0.5271
 2671SOL    HW210682   1.640   1.584   3.314 -0.4693  1.0427  0.5625
 2671SOL    HW310683   1.564   1.574   3.184 -0.1118 -0.7145  0.4768
 2671SOL    MW410684   1.567   1.567   3.271 -0.1810 -0.1547  0.5252
 2672SOL     OW10685   2.308   4.373   3.608 -0.2860 -0.1981  0.0600
 2672SOL    HW210686   2.288   4.292   3.655  1.2311  0.0879  1.2491
 2672SOL    HW310687   2.242   4.435   3.638 -0.8040 -0.7021 -0.0310
 2672SOL    MW410688   2.297   4.370   3.618 -0.1542 -0.2269  0.2049
 2673SOL     OW10689   1.306   2.001   3.792  0.2904  0.1264  0.1901
 2673SOL    HW210690   1.369   1.953   3.739 -0.1863  0.9504 -1.1500
 2673SOL    HW310691   1.238   2.028   3.730 -1.1217 -0.3024  1.5082
 2673SOL    MW410692   1.305   1.998   3.777  0.0412  0.1786  0.1872
 2674SOL     OW10693   0.316   0.477   3.953  0.3074  0.7102  0.1467
 2674SOL    HW210694   0.389   0.437   3.906  1.2194  1.4088  0.9343
 2674SOL    HW310695   0.239   0.431   3.922  1.0493  0.1951 -0.9641
 2674SOL    MW410696   0.316   0.466   3.943  0.5256  0.7345  0.1040
 2675SOL     OW10697   3.391   2.225   4.325 -0.3673  0.0063  0.1896
 2675SOL    HW210698   3.469   2.197   4.373 -0.1359  0.1467 -0.1052
 2675SOL    HW310699   3.413   2.313   4.294 -0.5506 -0.0506 -0.1011
 2675SOL    MW410700   3.404   2.233   4.328 -0.3609  0.0173  0.1124
 2676SOL     OW10701   0.957   2.863   4.153 -0.1442  0.0463  0.6236
 2676SOL    HW210702   0.944   2.790   4.093  0.9506 -1.0662  1.7112
 2676SOL    HW310703   0.967   2.822   4.239  0.8269  1.4427  1.1998
 2676SOL    MW410704   0.956   2.848   4.156  0.1284  0.0837  0.8431
 2677SOL     OW10705   0.806   1.925   3.939 -0.0904 -0.5002  0.2590
 2677SOL    HW210706   0.824   1.951   3.848  0.5788  0.1700  0.5792
 2677SOL    HW310707   0.882   1.872   3.963  0.7890  1.1169  1.1328
 2677SOL    MW410708   0.818   1.921   3.930  0.1139 -0.1984  0.4165
 2678SOL     OW10709   1.945   1.862   3.769  0.4209  0.4297 -0.0336
 2678SOL    HW210710   1.936   1.902   3.856 -2.3460 -0.5122  0.1563
 2678SOL    HW310711   2.033   1.826   3.768 -0.1791 -1.2832  3.1467
 2678SOL    MW410712   1.955   1.863   3.781 -0.0234  0.0795  0.4110
 2679SOL     OW10713   4.051   2.034   3.747  0.3498 -0.4389  0.2224
 2679SOL    HW210714   3.995   2.024   3.824  0.5286  0.6265  0.4972
 2679SOL    HW310715   4.002   2.092   3.688  0.6445 -0.4587 -0.0470
 2679SOL    MW410716   4.037   2.040   3.749  0.4123 -0.3010  0.2231
 2680SOL     OW10717   3.716   1.405   3.954 -0.2316 -0.0074  0.0333
 2680SOL    HW210718   3.711   1.385   3.861 -0.7347 -0.3706  0.1325
 2680SOL    HW310719   3.776   1.339   3.990  0.2433  0.3554 -0.0922
 2680SOL    MW410720   3.723   1.393   3.947 -0.2353 -0.0075  0.0298
 2681SOL     OW10721   4.398   1.495   4.238 -0.1682  0.3348 -0.5310
 2681SOL    HW210722   4.424   1.459   4.153 -0.1888 -1.2569  0.1189
 2681SOL    HW310723   4.481   1.513   4.282 -0.1573 -0.1416 -0.3547
 2681SOL    MW410724   4.413   1.492   4.232 -0.1695  0.0619 -0.4220
 2682SOL     OW10725   0.258   3.797   4.191  0.4644  0.0148 -0.4767
 2682SOL    HW210726   0.207   3.734   4.140 -1.5576 -0.5548  2.1901
 2682SOL    HW310727   0.223   3.882   4.167  0.8875 -0.0925 -1.5111
 2682SOL    MW410728   0.247   3.800   4.181  0.2535 -0.0745 -0.2613
 2683SOL     OW10729   1.374   0.373   2.967 -0.4991  0.7446  0.0385
 2683SOL    HW210730   1.381   0.278   2.962 -0.6126  0.6464  1.5046
 2683SOL    HW310731   1.455   0.405   2.927 -0.4798  0.0376 -0.4947
 2683SOL    MW410732   1.386   0.365   2.961 -0.5115  0.6384  0.1616
 2684SOL     OW10733   3.858   1.185   3.567  0.1024  0.7247  0.6884
 2684SOL    HW210734   3.947   1.175   3.600  0.1464  1.1843  0.7034
 2684SOL    HW310735   3.868   1.231   3.483 -0.1707  1.3164  0.9832
 2684SOL    MW410736   3.871   1.190   3.560  0.0722  0.8634  0.7293
 2685SOL     OW10737   3.507   4.495   4.688  0.0541  0.1603 -0.2873
 2685SOL    HW210738   3.429   4.548   4.703 -0.1828 -0.1743 -0.3322
 2685SOL    HW310739   3.475   4.405   4.686  0.7918 -0.1758  2.1287
 2685SOL    MW410740   3.493   4.490   4.690  0.1202  0.0718  0.0255
 2686SOL     OW10741   4.097   0.945   4.694  0.1239  0.8546  0.4115
 2686SOL    HW210742   4.121   1.033   4.724  1.1051  0.8733 -0.4084
 2686SOL    HW310743   4.125   0.943   4.603  1.0252 -0.6718  0.7200
 2686SOL    MW410744   4.104   0.956   4.686  0.3723  0.6557  0.3440
 2687SOL     OW10745   0.645   4.614   4.013 -0.0642  0.1581 -0.0165
 2687SOL    HW210746   0.724   4.566   4.040 -0.6739 -0.7645  0.1676
 2687SOL    HW310747   0.575   4.573   4.064 -0.3625  2.3614  1.3996
 2687SOL    MW410748   0.646   4.602   4.024 -0.1840  0.3271  0.1946
 2688SOL     OW10749   0.649   0.003   3.250 -0.3858 -0.1764 -0.2296
 2688SOL    HW210750   0.686  -0.001   3.161  0.4490 -0.7578  0.1347
 2688SOL    HW310751   0.667  -0.083   3.287 -0.3813  0.1971  0.6415
 2688SOL    MW410752   0.656  -0.009   3.243 -0.2751 -0.2038 -0.0666
 2689SOL     OW10753   2.681   1.695   3.343 -0.2377  0.1685 -0.3427
 2689SOL    HW210754   2.710   1.710   3.434 -1.3365 -1.5263  0.2987
 2689SOL    HW310755   2.677   1.783   3.305  0.4989  0.8798  1.1666
 2689SOL    MW410756   2.684   1.709   3.350 -0.2855  0.0387 -0.0589
 2690SOL     OW10757   1.657   2.660   4.665 -0.0315 -0.2746 -0.1067
 2690SOL    HW210758   1.667   2.755   4.673 -1.3109 -0.2960  2.0850
 2690SOL    HW310759   1.576   2.650   4.615  0.4400 -0.2318 -0.8960
 2690SOL    MW410760   1.648   2.671   4.659 -0.1381 -0.2718  0.0784
 2691SOL     OW10761   4.459   2.456   3.291  0.1273 -0.7645 -0.0037
 2691SOL    HW210762   4.444   2.473   3.384  0.8014 -1.5737  0.2618
 2691SOL    HW310763   4.470   2.543   3.252  2.0246 -0.4957  1.0488
 2691SOL    MW410764   4.459   2.470   3.298  0.4666 -0.8358  0.1702
 2692SOL     OW10765   3.770   0.172   4.303  0.0837  0.1129  0.4483
 2692SOL    HW210766   3.828   0.234   4.347  1.0349  0.2067 -0.9305
 2692SOL    HW310767   3.796   0.087   4.336 -0.5600  0.3478  1.5894
 2692SOL    MW410768   3.781   0.169   4.313  0.1243  0.1563  0.4170
 2693SOL     OW10769   1.383   4.032   3.309 -0.0155 -0.0407 -0.7103
 2693SOL    HW210770   1.449   3.973   3.272 -0.3121 -1.2586  0.6342
 2693SOL    HW310771   1.393   4.021   3.404 -1.8949  0.0537 -0.4924
 2693SOL    MW410772   1.393   4.023   3.317 -0.3026 -0.1889 -0.5041
 2694SOL     OW10773   0.917   3.119   4.589  0.0117 -0.2493  0.1524
 2694SOL    HW210774   1.010   3.115   4.613  0.0871  0.1219 -0.0671
 2694SOL    HW310775   0.889   3.028   4.587  0.4945 -0.3934 -0.2414
 2694SOL    MW410776   0.926   3.107   4.592  0.0853 -0.2193  0.0715
 2695SOL     OW10777   2.251   0.194   3.622  0.4128 -0.2339  0.5607
 2695SOL    HW210778   2.292   0.280   3.635 -0.3056 -0.0631  1.7713
 2695SOL    HW310779   2.298   0.136   3.681  0.8191 -0.6660 -0.1763
 2695SOL    MW410780   2.263   0.198   3.631  0.3716 -0.2684  0.6232
 2696SOL     OW10781   4.163   3.036   3.963  0.6565 -0.3507 -0.2521
 2696SOL    HW210782   4.076   3.008   3.991  0.7174 -0.5522 -0.2662
 2696SOL    HW310783   4.209   3.058   4.044  0.3579  0.4391 -0.2869
 2696SOL    MW410784   4.158   3.036   3.977  0.6251 -0.2731 -0.2585
 2697SOL     OW10785   2.748   1.054   3.625  0.1385 -0.6245  0.1520
 2697SOL    HW210786   2.754   0.966   3.662 -1.0638 -1.1073 -0.7719
 2697SOL    HW310787   2.660   1.084   3.648 -0.3303 -0.6136 -1.5667
 2697SOL    MW410788   2.737   1.046   3.633 -0.0820 -0.6867 -0.1967
 2698SOL     OW10789   1.736   3.268   4.352 -0.3037 -0.0687  0.3856
 2698SOL    HW210790   1.754   3.338   4.415  2.9005 -0.8048  0.3669
 2698SOL    HW310791   1.770   3.301   4.269 -0.9048 -0.7164 -0.1303
 2698SOL    MW410792   1.743   3.282   4.350  0.0398 -0.2513  0.3151
 2699SOL     OW10793   4.448   2.412   4.116  0.6961 -0.0153 -0.1331
 2699SOL    HW210794   4.394   2.374   4.186  0.1323 -2.6618 -1.8968
 2699SOL    HW310795   4.510   2.469   4.161 -1.2926  0.3339  2.2651
 2699SOL    MW410796   4.449   2.414   4.131  0.3593 -0.3184 -0.0494
 2700SOL     OW10797   4.274   4.359   4.269 -0.1849 -0.1566 -0.0378
 2700SOL    HW210798   4.356   4.400   4.242 -0.1817 -1.0019 -1.3558
 2700SOL    HW310799   4.216   4.432   4.290  0.5804  0.4637 -0.0761
 2700SOL    MW410800   4.277   4.374   4.269 -0.0835 -0.1863 -0.2168
 2701SOL     OW10801   3.833   3.854   4.186  0.3322  0.0304  0.0539
 2701SOL    HW210802   3.921   3.884   4.167 -0.1936  1.3975 -0.2772
 2701SOL    HW310803   3.821   3.777   4.131  0.3392  1.4741 -2.0150
 2701SOL    MW410804   3.843   3.848   4.177  0.2638  0.4013 -0.2628
 2702SOL     OW10805   2.444   2.127   3.366  0.2135 -0.2540 -0.1879
 2702SOL    HW210806   2.391   2.053   3.337 -0.6322 -0.1861  1.1333
 2702SOL    HW310807   2.478   2.099   3.451  0.2550  0.6997  0.1095
 2702SOL    MW410808   2.441   2.113   3.373  0.1074 -0.1192  0.0257
 2703SOL     OW10809   0.475   1.893   3.654  0.1314 -0.0847 -0.0287
 2703SOL    HW210810   0.467   1.901   3.749  0.8097  1.2271 -0.0621
 2703SOL    HW310811   0.395   1.934   3.620  0.1545 -0.0404 -0.0298
 2703SOL    MW410812   0.464   1.900   3.662  0.2240  0.0942 -0.0333
 2704SOL     OW10813   3.032   3.590   3.650  0.2168 -0.0352  0.1523
 2704SOL    HW210814   3.011   3.583   3.557  0.4914 -0.0975  0.0931
 2704SOL    HW310815   3.032   3.684   3.668 -0.4755 -0.0501  0.2410
 2704SOL    MW410816   3.029   3.601   3.640  0.1617 -0.0454  0.1562
 2705SOL     OW10817   0.332   0.722   3.722 -0.3175 -0.1250  0.2114
 2705SOL    HW210818   0.269   0.792   3.705  0.1373  0.0671 -0.6849
 2705SOL    HW310819   0.338   0.718   3.817 -1.6196 -0.0754  0.3126
 2705SOL    MW410820   0.324   0.730   3.732 -0.4293 -0.0931  0.1065
 2706SOL     OW10821   0.828   3.961   3.977 -0.2556 -0.4962 -0.1076
 2706SOL    HW210822   0.828   3.994   4.067 -1.0413  0.8851 -0.5914
 2706SOL    HW310823   0.823   3.866   3.986 -2.1506 -0.2815  1.2871
 2706SOL    MW410824   0.828   3.953   3.990 -0.6093 -0.2856  0.0126
 2707SOL     OW10825   2.661   0.171   3.821 -0.3193 -0.1255  0.2064
 2707SOL    HW210826   2.713   0.143   3.746 -0.6093  0.6724 -0.2984
 2707SOL    HW310827   2.583   0.115   3.818 -0.3616 -0.0506 -0.1302
 2707SOL    MW410828   2.657   0.160   3.811 -0.3632 -0.0104  0.0954
 2708SOL     OW10829   1.059   2.361   3.672  0.0705  0.7794  0.4357
 2708SOL    HW210830   1.040   2.386   3.762  0.6978  1.0038  0.5068
 2708SOL    HW310831   1.151   2.385   3.659  0.4682 -0.7696  0.2554
 2708SOL    MW410832   1.069   2.367   3.682  0.2058  0.6047  0.4213
 2709SOL     OW10833   1.358   3.309   3.587 -0.3311 -0.0809 -0.4442
 2709SOL    HW210834   1.421   3.381   3.582 -1.2016  0.6301 -1.2404
 2709SOL    HW310835   1.412   3.232   3.606  0.8319  0.4575 -1.4696
 2709SOL    MW410836   1.374   3.308   3.588 -0.2925  0.0839 -0.6845
 2710SOL     OW10837   2.113   2.057   4.162  0.1726  0.1862 -0.3364
 2710SOL    HW210838   2.030   2.031   4.123 -0.0514 -1.0115  0.9336
 2710SOL    HW310839   2.171   2.071   4.087 -0.9805  0.4082 -1.1986
 2710SOL    MW410840   2.110   2.056   4.147 -0.0091  0.0574 -0.2826
 2711SOL     OW10841   1.539   1.486   4.454  0.4876  0.3760 -0.3419
 2711SOL    HW210842   1.501   1.524   4.375 -1.7631  1.1441  1.0404
 2711SOL    HW310843   1.476   1.419   4.481  1.4207 -0.1369  0.5792
 2711SOL    MW410844   1.525   1.482   4.447  0.3138  0.4097 -0.0380
 2712SOL     OW10845   0.866   2.537   3.561 -0.1036  0.0041  0.2282
 2712SOL    HW210846   0.788   2.492   3.595 -0.6770  1.3835  0.7597
 2712SOL    HW310847   0.939   2.480   3.587 -0.7706 -0.3547  1.3709
 2712SOL    MW410848   0.865   2.524   3.569 -0.2672  0.1388  0.4491
 2713SOL     OW10849   2.796   3.169   4.479 -0.2399 -0.0605 -0.1167
 2713SOL    HW210850   2.845   3.102   4.430  0.3636 -0.7205  1.3719
 2713SOL    HW310851   2.705   3.138   4.475  0.0088 -0.8890  0.4038
 2713SOL    MW410852   2.790   3.156   4.472 -0.1274 -0.2569  0.1483
 2714SOL     OW10853   4.288   1.085   4.021 -0.3304 -0.0774 -0.5770
 2714SOL    HW210854   4.382   1.077   4.003 -0.4441 -1.6215 -0.4743
 2714SOL    HW310855   4.284   1.127   4.108  0.2785 -1.4009  0.0984
 2714SOL    MW410856   4.300   1.090   4.030 -0.2651 -0.4557 -0.4743
 2715SOL     OW10857   1.192   0.575   3.651  0.3245 -0.0177  0.0709
 2715SOL    HW210858   1.106   0.535   3.641 -0.0160  0.8630 -0.6081
 2715SOL    HW310859   1.222   0.548   3.737 -0.0536 -1.4350 -0.2252
 2715SOL    MW410860   1.185   0.566   3.661  0.2297 -0.0885 -0.0577
 2716SOL     OW10861   0.196   2.319   3.160 -0.0096  0.0257  0.0916
 2716SOL    HW210862   0.269   2.361   3.206 -0.5557  0.3929  0.6296
 2716SOL    HW310863   0.118   2.365   3.192 -0.5708 -1.0638  0.3115
 2716SOL    MW410864   0.195   2.331   3.170 -0.1557 -0.0696  0.1916
 2717SOL     OW10865   1.937   1.447   4.075  0.2687 -0.3309  0.1860
 2717SOL    HW210866   1.934   1.451   4.170 -0.8088 -0.1828  0.1408
 2717SOL    HW310867   2.004   1.512   4.051 -0.7844  0.9703  0.7306
 2717SOL    MW410868   1.946   1.456   4.084 -0.0124 -0.1397  0.2519
 2718SOL     OW10869   3.497   0.207   3.615  0.3624  0.3843 -0.0688
 2718SOL    HW210870   3.536   0.187   3.530  0.0709 -0.5584  0.0102
 2718SOL    HW310871   3.563   0.258   3.661  0.3955  1.1717 -0.9838
 2718SOL    MW410872   3.511   0.211   3.610  0.3283  0.3638 -0.1791
 2719SOL     OW10873   2.866   0.812   3.707 -0.3324  0.7763  0.0640
 2719SOL    HW210874   2.944   0.847   3.663 -0.6701  1.3113 -0.1114
 2719SOL    HW310875   2.868   0.719   3.688  0.2259  0.7970 -0.0095
 2719SOL    MW410876   2.877   0.805   3.699 -0.3033  0.8496  0.0312
 2720SOL     OW10877   0.393   2.380   4.233  0.1259  0.1113 -0.6641
 2720SOL    HW210878   0.470   2.435   4.245 -0.2005  0.5819 -0.7248
 2720SOL    HW310879   0.406   2.339   4.147  0.3664  0.0911 -0.6195
 2720SOL    MW410880   0.405   2.382   4.223  0.1146  0.1707 -0.6662
 2721SOL     OW10881   3.363   3.819   3.759 -0.2136  0.1978 -0.3579
 2721SOL    HW210882   3.322   3.883   3.701  0.9491  1.2324 -0.0527
 2721SOL    HW310883   3.418   3.766   3.701 -1.0981 -0.4577 -0.5955
 2721SOL    MW410884   3.365   3.821   3.744 -0.1769  0.2478 -0.3490
 2722SOL     OW10885   2.665   4.262   3.323 -0.0233 -0.2594 -0.3623
 2722SOL    HW210886   2.571   4.280   3.325  0.1458  0.5189  1.0732
 2722SOL    HW310887   2.671   4.169   3.347 -0.3281  0.1497  1.3782
 2722SOL    MW410888   2.653   4.252   3.327 -0.0412 -0.1027  0.0568
 2723SOL     OW10889   3.862   1.815   3.906 -0.0489 -0.5199  0.4699
 2723SOL    HW210890   3.853   1.784   3.816  0.1588 -0.8091  0.5486
 2723SOL    HW310891   3.780   1.789   3.949  0.0097 -0.7201  0.4624
 2723SOL    MW410892   3.850   1.808   3.900 -0.0138 -0.5845  0.4793
 2724SOL     OW10893   0.572   0.400   3.832  0.0873 -0.2831  0.1317
 2724SOL    HW210894   0.619   0.425   3.752 -0.5091 -1.2493 -0.5225
 2724SOL    HW310895   0.605   0.313   3.853  2.0637  0.9065  2.3449
 2724SOL    MW410896   0.583   0.392   3.824  0.2693 -0.2536  0.3374
 2725SOL     OW10897   4.051   0.398   4.281  0.0630 -0.1074 -0.0599
 2725SOL    HW210898   4.079   0.318   4.325  0.4557  0.1380  0.1410
 2725SOL    HW310899   4.117   0.412   4.214  0.0900  0.1427  0.0197
 2725SOL    MW410900   4.064   0.389   4.278  0.1184 -0.0420 -0.0229
 2726SOL     OW10901   0.987   4.625   4.053  0.2604 -0.0760  0.3823
 2726SOL    HW210902   0.940   4.677   4.118  1.3686  1.3914  0.0394
 2726SOL    HW310903   1.071   4.604   4.096  0.8298  0.5539 -0.4051
 2726SOL    MW410904   0.992   4.629   4.067  0.4818  0.2007  0.2331
 2727SOL     OW10905   2.126   1.254   4.436  0.2113  0.1351  0.1367
 2727SOL    HW210906   2.200   1.281   4.382  0.4561 -0.1737  0.3143
 2727SOL    HW310907   2.079   1.190   4.382  1.3511 -1.3727  0.8942
 2727SOL    MW410908   2.130   1.249   4.421  0.3940 -0.1046  0.2601
 2728SOL     OW10909   3.752   4.502   4.044  0.6298  0.1883  0.3191
 2728SOL    HW210910   3.726   4.478   3.956 -0.8014  0.0789  0.7626
 2728SOL    HW310911   3.775   4.595   4.038  0.7618  0.1197 -0.2103
 2728SOL    MW410912   3.752   4.511   4.032  0.4584  0.1648  0.3078
 2729SOL     OW10913   0.683   0.502   3.607 -0.2690  0.1056  0.0516
 2729SOL    HW210914   0.778   0.490   3.612 -0.1982  0.7865  0.4809
 2729SOL    HW310915   0.671   0.597   3.611 -1.0519 -0.0323  1.3245
 2729SOL    MW410916   0.694   0.513   3.608 -0.3629  0.1772  0.2762
 2730SOL     OW10917   2.643   1.121   4.467  0.5794  0.1447  0.2998
 2730SOL    HW210918   2.719   1.063   4.459  0.7688  0.3320  0.7258
 2730SOL    HW310919   2.571   1.063   4.493  0.4114 -0.1485 -0.7904
 2730SOL    MW410920   2.644   1.106   4.469  0.5822  0.1307  0.2122
 2731SOL     OW10921   0.374   4.532   4.389  0.1209  0.0114 -0.5106
 2731SOL    HW210922   0.433   4.597   4.429  0.5592  0.2613 -1.5573
 2731SOL    HW310923   0.417   4.508   4.307 -0.8895 -0.3324 -0.9423
 2731SOL    MW410924   0.387   4.537   4.384  0.0454 -0.0010 -0.7056
 2732SOL     OW10925   1.763   1.733   3.602 -0.6033  0.4824 -0.3196
 2732SOL    HW210926   1.820   1.784   3.659  1.2471 -1.0347 -0.7607
 2732SOL    HW310927   1.675   1.767   3.619  0.2248  1.7476  1.5695
 2732SOL    MW410928   1.759   1.744   3.612 -0.2499  0.4492 -0.1285
 2733SOL     OW10929   3.599   0.483   3.982 -0.5787 -0.0306  0.0668
 2733SOL    HW210930   3.679   0.509   4.027 -0.7574 -0.3859  0.5973
 2733SOL    HW310931   3.630   0.443   3.900 -0.2357  0.2727  0.0480
 2733SOL    MW410932   3.614   0.481   3.977 -0.5570 -0.0374  0.1343
 2734SOL     OW10933   2.087   3.590   4.393  0.3935 -0.2409  0.1188
 2734SOL    HW210934   2.177   3.623   4.387  0.1589  0.2147 -1.2668
 2734SOL    HW310935   2.057   3.590   4.302 -0.7936 -0.9976  0.5093
 2734SOL    MW410936   2.095   3.594   4.380  0.2059 -0.2806 -0.0125
 2735SOL     OW10937   1.709   1.395   3.948 -0.4065  0.1595  0.4251
 2735SOL    HW210938   1.665   1.320   3.989 -0.3450 -0.4339 -0.5744
 2735SOL    HW310939   1.790   1.405   3.998 -1.1714  0.5844  1.5944
 2735SOL    MW410940   1.714   1.386   3.960 -0.4993  0.1373  0.4475
 2736SOL     OW10941   1.360   4.299   3.221 -0.4544 -0.5364 -0.1240
 2736SOL    HW210942   1.331   4.295   3.130 -1.0468  0.2679  0.0201
 2736SOL    HW310943   1.363   4.208   3.249  0.2601 -0.8182 -1.1119
 2736SOL    MW410944   1.356   4.287   3.213 -0.4383 -0.4674 -0.2354
 2737SOL     OW10945   0.094   2.171   4.092 -0.8879  0.0983 -0.0523
 2737SOL    HW210946   0.075   2.265   4.094  1.2230  0.5344  0.8282
 2737SOL    HW310947   0.148   2.156   4.170  0.4506 -1.4741 -1.2478
 2737SOL    MW410948   0.099   2.181   4.103 -0.4328 -0.0516 -0.0939
 2738SOL     OW10949   2.045   0.624   3.842 -0.7365  0.0803  0.4417
 2738SOL    HW210950   2.133   0.651   3.815 -0.7989  1.4465  1.5372
 2738SOL    HW310951   2.057   0.537   3.881  0.1309  0.2494  0.5573
 2738SOL    MW410952   2.058   0.616   3.844 -0.6303  0.2828  0.6015
 2739SOL     OW10953   0.253   1.163   3.586  0.4331  0.3646  0.1643
 2739SOL    HW210954   0.256   1.247   3.632 -0.9136  0.6606 -0.2517
 2739SOL    HW310955   0.216   1.184   3.500  0.9104 -0.5150 -0.2609
 2739SOL    MW410956   0.248   1.177   3.580  0.3184  0.2876  0.0533
 2740SOL     OW10957   0.204   4.306   4.381 -0.2907 -0.4903  0.1125
 2740SOL    HW210958   0.273   4.367   4.406  0.0793 -1.1054  0.5879
 2740SOL    HW310959   0.144   4.358   4.327  0.3903  0.1142 -0.0554
 2740SOL    MW410960   0.205   4.321   4.377 -0.1520 -0.4917  0.1531
 2741SOL     OW10961   3.527   4.195   3.651 -0.4601 -0.0774  0.1009
 2741SOL    HW210962   3.578   4.129   3.697 -0.0575 -0.1805 -0.4802
 2741SOL    HW310963   3.445   4.150   3.628  0.8045 -1.1838 -2.4815
 2741SOL    MW410964   3.523   4.180   3.654 -0.2401 -0.2369 -0.3165
 2742SOL     OW10965   3.868   2.278   4.299  0.1591 -0.3550 -0.1190
 2742SOL    HW210966   3.901   2.189   4.286 -0.6271 -0.5929 -0.4855
 2742SOL    HW310967   3.806   2.292   4.228  0.1544  0.4299  0.0334
 2742SOL    MW410968   3.864   2.268   4.288  0.0548 -0.2828 -0.1472
 2743SOL     OW10969   3.358   2.991   3.610 -0.1813  0.0028 -0.1608
 2743SOL    HW210970   3.442   2.964   3.646  0.1591  0.9584 -0.2064
 2743SOL    HW310971   3.363   2.967   3.517  0.1397  0.2787 -0.2156
 2743SOL    MW410972   3.370   2.985   3.602 -0.0940  0.1653 -0.1741
 2744SOL     OW10973   1.138   3.880   3.252 -0.4641  0.3293 -0.7676
 2744SOL    HW210974   1.222   3.924   3.261 -0.8264  0.7988  0.3829
 2744SOL    HW310975   1.152   3.793   3.290 -1.0162  1.0757  1.1829
 2744SOL    MW410976   1.151   3.874   3.258 -0.5847  0.4898 -0.3585
 2745SOL     OW10977   1.028   3.543   3.614  0.0637  0.3446  0.2315
 2745SOL    HW210978   1.080   3.478   3.662  0.5128  1.6398  1.5191
 2745SOL    HW310979   0.937   3.517   3.630  0.2269  0.3352  1.1716
 2745SOL    MW410980   1.023   3.531   3.622  0.1445  0.5142  0.5254
 2746SOL     OW10981   3.888   4.254   4.063 -0.5079 -0.2084  0.2564
 2746SOL    HW210982   3.828   4.180   4.062 -0.3260 -0.3469 -1.3528
 2746SOL    HW310983   3.833   4.329   4.088 -2.0386  0.1962 -3.9765
 2746SOL    MW410984   3.872   4.254   4.067 -0.6859 -0.1733 -0.5144
 2747SOL     OW10985   3.182   4.154   4.213  0.2348  0.2172 -0.0227
 2747SOL    HW210986   3.200   4.239   4.254  1.2857 -0.7093  1.4963
 2747SOL    HW310987   3.268   4.114   4.204 -0.3203 -0.9510 -0.1738
 2747SOL    MW410988   3.196   4.160   4.217  0.3002 -0.0592  0.1578
 2748SOL     OW10989   2.517   3.113   3.768 -0.2485  0.4159  0.1706
 2748SOL    HW210990   2.538   3.019   3.766 -1.7107  0.0790 -2.3229
 2748SOL    HW310991   2.580   3.152   3.708 -1.3122  0.6223 -0.8274
 2748SOL    MW410992   2.528   3.106   3.760 -0.5817  0.3987 -0.2900
 2749SOL     OW10993   2.644   3.148   4.030  0.6112  0.1104 -0.5429
 2749SOL    HW210994   2.580   3.102   4.084  1.3627 -0.4966 -0.1474
 2749SOL    HW310995   2.609   3.142   3.941  0.5893 -1.0559 -0.4665
 2749SOL    MW410996   2.631   3.141   4.026  0.7075 -0.1236 -0.4806
 2750SOL     OW10997   1.420   3.707   4.313 -1.0013  0.0409  0.1295
 2750SOL    HW210998   1.379   3.793   4.324  0.3951  0.4661  2.2164
 2750SOL    HW310999   1.400   3.659   4.393  0.3421 -0.6724  0.0667
 2750SOL    MW411000   1.412   3.712   4.325 -0.6398  0.0029  0.3966
 2751SOL     OW11001   1.272   3.244   4.234  0.1503 -0.3069  0.3764
 2751SOL    HW211002   1.362   3.218   4.253  0.5800  0.7085 -0.2687
 2751SOL    HW311003   1.278   3.296   4.154 -1.2617 -2.0600 -0.9324
 2751SOL    MW411004   1.285   3.247   4.226  0.0207 -0.4042  0.1186
 2752SOL     OW11005   2.467   1.563   3.251 -0.2279  0.0606  0.0114
 2752SOL    HW211006   2.495   1.548   3.160  1.9003 -1.6069  0.8908
 2752SOL    HW311007   2.544   1.602   3.293 -0.7480 -0.4113  1.4108
 2752SOL    MW411008   2.481   1.566   3.244 -0.0158 -0.2217  0.3120
 2753SOL     OW11009   2.384   4.282   4.456 -0.1813 -0.2396 -0.3026
 2753SOL    HW211010   2.324   4.213   4.485  0.5849 -0.6597  0.2924
 2753SOL    HW311011   2.448   4.289   4.526  0.5104  0.1629 -0.9712
 2753SOL    MW411012   2.384   4.274   4.469  0.0110 -0.2419 -0.3123
 2754SOL     OW11013   2.991   1.186   4.245  0.3531 -0.3517  0.1499
 2754SOL    HW211014   2.915   1.217   4.194  1.3065  2.3187  0.2736
 2754SOL    HW311015   3.010   1.258   4.305  1.6812 -1.8840  1.6031
 2754SOL    MW411016   2.983   1.200   4.246  0.6541 -0.2015  0.3579
 2755SOL     OW11017   3.236   0.271   4.035  0.0172  0.0760 -0.1131
 2755SOL    HW211018   3.320   0.290   4.078  0.0139  0.0061 -0.0742
 2755SOL    HW311019   3.205   0.357   4.004 -0.0418  0.1475  0.1405
 2755SOL    MW411020   3.243   0.285   4.037  0.0090  0.0762 -0.0745
 2756SOL     OW11021   4.254   3.530   4.665 -0.0682 -0.5405  0.1211
 2756SOL    HW211022   4.302   3.451   4.640  0.2659 -0.6393  1.0705
 2756SOL    HW311023   4.230   3.516   4.756  0.6299  0.7749  0.5167
 2756SOL    MW411024   4.257   3.518   4.673  0.0680 -0.3800  0.2985
 2757SOL     OW11025   3.147   1.647   3.290 -0.1154 -0.5590  0.4681
 2757SOL    HW211026   3.165   1.733   3.253  0.0256 -0.5067  0.6560
 2757SOL    HW311027   3.058   1.626   3.261 -0.9090  0.5064  2.0293
 2757SOL    MW411028   3.138   1.656   3.281 -0.2015 -0.4115  0.6989
 2758SOL     OW11029   1.997   2.954   4.691  0.5826 -0.6222  0.3037
 2758SOL    HW211030   2.014   2.936   4.784  0.7661 -1.1526  0.1691
 2758SOL    HW311031   2.030   2.877   4.645 -0.7964 -1.0101 -0.0873
 2758SOL    MW411032   2.003   2.941   4.697  0.4249 -0.7433  0.2344
 2759SOL     OW11033   3.978   0.858   4.298 -0.0324 -0.2753 -0.0280
 2759SOL    HW211034   3.910   0.830   4.359  0.0658 -1.5236 -0.4823
 2759SOL    HW311035   3.978   0.792   4.229 -0.1006  1.0861 -1.3585
 2759SOL    MW411036   3.969   0.845   4.297 -0.0284 -0.2604 -0.2635
 2760SOL     OW11037   3.585   0.138   3.365 -0.6224 -0.2394  0.4895
 2760SOL    HW211038   3.504   0.098   3.333 -0.0367  0.1362 -1.5090
 2760SOL    HW311039   3.654   0.101   3.310  0.4130  0.5250  1.2434
 2760SOL    MW411040   3.583   0.127   3.354 -0.4085 -0.0890  0.3253
 2761SOL     OW11041   4.159   2.711   4.166 -0.4901  0.3137 -0.0994
 2761SOL    HW211042   4.119   2.641   4.217 -0.2405  0.3314  0.1184
 2761SOL    HW311043   4.094   2.731   4.098 -0.1545 -0.8002 -0.7636
 2761SOL    MW411044   4.145   2.704   4.164 -0.4129  0.1691 -0.1583
 2762SOL     OW11045   4.242   1.492   3.911 -0.0904 -0.4319 -0.2056
 2762SOL    HW211046   4.320   1.535   3.877 -1.1086  0.5864 -1.3332
 2762SOL    HW311047   4.191   1.563   3.950 -0.1602 -1.1875  1.1172
 2762SOL    MW411048   4.245   1.507   3.912 -0.2339 -0.3973 -0.1799
 2763SOL     OW11049   2.936   3.114   3.256 -0.0122  0.4243  0.3964
 2763SOL    HW211050   2.853   3.134   3.299 -0.0283  0.2070  0.4669
 2763SOL    HW311051   2.913   3.109   3.163 -0.7800 -3.1182  0.7135
 2763SOL    MW411052   2.922   3.116   3.249 -0.1157 -0.0718  0.4476
 2764SOL     OW11053   3.305   4.659   4.719  0.0984 -0.1366 -0.0617
 2764SOL    HW211054   3.218   4.634   4.752 -0.4216 -0.1639 -1.4113
 2764SOL    HW311055   3.331   4.733   4.774 -0.3803 -0.7070  0.9444
 2764SOL    MW411056   3.297   4.666   4.730 -0.0334 -0.2155 -0.1070
 2765SOL     OW11057   3.050   4.547   4.742  0.1715 -0.5026 -0.7387
 2765SOL    HW211058   2.980   4.509   4.796  0.5238 -0.1374 -0.0103
 2765SOL    HW311059   3.007   4.610   4.686 -0.0998 -0.3450 -0.3546
 2765SOL    MW411060   3.035   4.550   4.742  0.1822 -0.4336 -0.5919
 2766SOL     OW11061   0.337   3.154   4.423 -0.2239 -0.0103 -0.3632
 2766SOL    HW211062   0.426   3.121   4.437 -0.8542 -2.2461 -1.3679
 2766SOL    HW311063   0.344   3.248   4.440  1.5505 -0.6657  3.0090
 2766SOL    MW411064   0.350   3.162   4.427 -0.0729 -0.3918 -0.0508
 2767SOL     OW11065   1.388   1.263   4.524 -0.6582 -0.4245 -0.1774
 2767SOL    HW211066   1.324   1.205   4.483 -0.1184 -0.0842 -1.5299
 2767SOL    HW311067   1.427   1.210   4.594 -1.2958 -1.1588 -0.3793
 2767SOL    MW411068   1.385   1.248   4.528 -0.6711 -0.4765 -0.3825
 2768SOL     OW11069   0.904   1.709   3.573  0.2280  0.4736 -0.3437
 2768SOL    HW211070   0.882   1.801   3.590 -1.1322  0.4054 -1.6130
 2768SOL    HW311071   0.850   1.660   3.635 -0.1771  0.4746 -0.6928
 2768SOL    MW411072   0.894   1.715   3.583 -0.0049  0.4647 -0.5572
 2769SOL     OW11073   2.192   0.367   3.312  0.1049  0.1914  0.3055
 2769SOL    HW211074   2.272   0.416   3.332  0.5792 -1.3705  2.3555
 2769SOL    HW311075   2.210   0.278   3.343 -2.1848 -0.3363  0.1960
 2769SOL    MW411076   2.205   0.362   3.319 -0.1346 -0.0843  0.5615
 2770SOL     OW11077   4.163   4.241   3.632  0.2083 -0.1237  0.5322
 2770SOL    HW211078   4.126   4.260   3.545  0.3131  2.3927  0.9974
 2770SOL    HW311079   4.087   4.237   3.690  0.2886  0.0307  0.6465
 2770SOL    MW411080   4.148   4.243   3.628  0.2327  0.2287  0.6086
 2771SOL     OW11081   1.806   1.650   3.345  0.1938  0.4351 -0.2274
 2771SOL    HW211082   1.785   1.674   3.435  1.1718  1.9504 -0.3879
 2771SOL    HW311083   1.801   1.732   3.296 -0.3966 -0.3830 -1.5770
 2771SOL    MW411084   1.803   1.664   3.350  0.2449  0.5271 -0.4267
 2772SOL     OW11085   4.397   0.239   4.114  0.2985 -0.2829 -0.1509
 2772SOL    HW211086   4.448   0.262   4.191 -1.0960  1.0672  0.3846
 2772SOL    HW311087   4.453   0.263   4.040  0.3548  1.3984  0.4207
 2772SOL    MW411088   4.411   0.245   4.115  0.1220  0.1170 -0.0048
 2773SOL     OW11089   2.452   0.335   4.434 -0.2134  0.4273 -0.4643
 2773SOL    HW211090   2.463   0.386   4.514  1.7661 -1.7388  0.7041
 2773SOL    HW311091   2.518   0.370   4.374  0.0400  0.3571 -0.2301
 2773SOL    MW411092   2.462   0.347   4.437  0.0812  0.1323 -0.2792
 2774SOL     OW11093   4.116   4.096   3.183  0.0926 -0.2666  0.3104
 2774SOL    HW211094   4.173   4.024   3.208  0.9323  0.7897  1.5035
 2774SOL    HW311095   4.028   4.058   3.180  0.5598 -1.3883  0.6247
 2774SOL    MW411096   4.112   4.082   3.186  0.2651 -0.2752  0.5093
 2775SOL     OW11097   0.462   1.146   4.129  0.1505 -0.2365 -0.3427
 2775SOL    HW211098   0.519   1.174   4.199 -0.2587 -0.9422  0.2790
 2775SOL    HW311099   0.403   1.220   4.115 -1.2321 -0.9318  1.6109
 2775SOL    MW411100   0.461   1.159   4.136 -0.0859 -0.4214 -0.0030
 2776SOL     OW11101   3.705   0.014   4.652  0.0110 -0.2460 -0.1384
 2776SOL    HW211102   3.685   0.092   4.704  0.6291 -0.0808 -0.1502
 2776SOL    HW311103   3.640  -0.050   4.680 -2.4552  1.2077 -2.3042
 2776SOL    MW411104   3.694   0.016   4.663 -0.2328 -0.0324 -0.4257
 2777SOL     OW11105   1.232   4.638   4.183  0.0498  0.5638 -0.0677
 2777SOL    HW211106   1.316   4.619   4.141 -0.3058 -0.4271 -0.3446
 2777SOL    HW311107   1.242   4.605   4.272  0.5381  1.9762  0.4103
 2777SOL    MW411108   1.245   4.631   4.189  0.0673  0.6194 -0.0412
 2778SOL     OW11109   0.101   0.716   4.237 -0.4939  0.3571 -0.2756
 2778SOL    HW211110   0.158   0.792   4.238  0.9444 -0.6940  0.7814
 2778SOL    HW311111   0.023   0.743   4.286  0.1323  1.0426  0.3387
 2778SOL    MW411112   0.098   0.729   4.244 -0.2215  0.3088 -0.0551
 2779SOL     OW11113   0.006   0.566   3.723  0.6564  0.3950  0.2495
 2779SOL    HW211114   0.093   0.529   3.703  0.4462  0.3253 -0.5671
 2779SOL    HW311115   0.014   0.599   3.812  0.8990 -1.4907  0.9521
 2779SOL    MW411116   0.019   0.565   3.732  0.6607  0.1370  0.2345
 2780SOL     OW11117   3.152   3.271   3.317 -0.2460 -0.0192  0.2021
 2780SOL    HW211118   3.070   3.228   3.293 -1.1855  0.6693  2.1183
 2780SOL    HW311119   3.158   3.260   3.412  1.3934  0.7903  0.2069
 2780SOL    MW411120   3.142   3.264   3.326 -0.1536  0.1784  0.4556
 2781SOL     OW11121   2.229   2.427   3.595 -0.1297 -0.0081  0.1954
 2781SOL    HW211122   2.148   2.384   3.621 -0.3380  0.5389  0.4704
 2781SOL    HW311123   2.227   2.425   3.499 -0.0875 -0.6865  0.2049
 2781SOL    MW411124   2.218   2.421   3.586 -0.1516 -0.0254  0.2329
 2782SOL     OW11125   3.295   0.086   4.452 -0.4406  0.2280  0.0128
 2782SOL    HW211126   3.375   0.137   4.446 -1.1200  1.4150  0.8542
 2782SOL    HW311127   3.289   0.060   4.543 -1.3405  0.7088  0.1049
 2782SOL    MW411128   3.305   0.089   4.463 -0.6489  0.4481  0.1360
 2783SOL     OW11129   0.831   2.229   4.318 -0.0259 -0.2130 -0.2844
 2783SOL    HW211130   0.917   2.190   4.334 -0.3871 -0.9261 -0.0620
 2783SOL    HW311131   0.808   2.202   4.229  0.4293  0.8375 -0.7331
 2783SOL    MW411132   0.839   2.221   4.308 -0.0135 -0.1685 -0.3143
 2784SOL     OW11133   1.663   0.579   3.603 -0.0051  0.0285 -0.1038
 2784SOL    HW211134   1.593   0.545   3.547 -0.2511  1.2035 -0.5199
 2784SOL    HW311135   1.669   0.672   3.581  0.4305  0.3435  1.2598
 2784SOL    MW411136   1.655   0.586   3.593  0.0199  0.2251  0.0212
 2785SOL     OW11137   0.155   3.568   4.049 -0.1598 -0.5192  0.2089
 2785SOL    HW211138   0.091   3.499   4.069 -0.3463 -0.8456 -1.4083
 2785SOL    HW311139   0.152   3.575   3.954  1.3499  0.3142  0.2195
 2785SOL    MW411140   0.146   3.560   4.039  0.0148 -0.4523 -0.0031
 2786SOL     OW11141   3.486   3.930   4.404 -0.2563  0.5211 -0.3519
 2786SOL    HW211142   3.505   4.023   4.389  1.5818  0.3697  0.8629
 2786SOL    HW311143   3.571   3.892   4.427 -0.9910 -1.4676 -0.8163
 2786SOL    MW411144   3.500   3.937   4.405 -0.1107  0.2387 -0.2529
 2787SOL     OW11145   1.495   0.314   4.197 -0.1899  0.2373  0.0971
 2787SOL    HW211146   1.569   0.336   4.140 -0.2227 -0.0322 -0.0499
 2787SOL    HW311147   1.470   0.397   4.237  1.3342  0.0479  1.5177
 2787SOL    MW411148   1.501   0.328   4.195  0.0068  0.1767  0.2651
 2788SOL     OW11149   1.239   0.037   4.511 -0.1875  0.1817 -0.3392
 2788SOL    HW211150   1.183  -0.040   4.500 -0.9081  0.7247 -0.5416
 2788SOL    HW311151   1.327   0.001   4.522 -0.3540 -0.6352 -1.5284
 2788SOL    MW411152   1.243   0.022   4.511 -0.3046  0.1456 -0.5228
 2789SOL     OW11153   2.540   2.091   3.606 -0.2165 -0.5434 -0.1233
 2789SOL    HW211154   2.483   2.028   3.651  0.4120 -0.8100  0.3145
 2789SOL    HW311155   2.508   2.177   3.635  0.5156 -0.7236  1.2709
 2789SOL    MW411156   2.528   2.094   3.616 -0.0370 -0.6024  0.1184
 2790SOL     OW11157   4.326   4.107   4.418 -0.6612 -0.7891 -0.1744
 2790SOL    HW211158   4.312   4.198   4.394  1.5234 -0.7235 -1.3032
 2790SOL    HW311159   4.406   4.107   4.471 -0.5613 -2.0541 -0.3062
 2790SOL    MW411160   4.335   4.119   4.422 -0.3598 -0.9474 -0.3407
 2791SOL     OW11161   3.057   4.548   3.975 -0.4219 -0.3831  0.2795
 2791SOL    HW211162   3.066   4.453   3.978 -1.2501 -0.4982 -0.4955
 2791SOL    HW311163   2.973   4.563   3.931  0.1041  0.7075 -0.3960
 2791SOL    MW411164   3.047   4.537   3.969 -0.4618 -0.2544  0.0881
 2792SOL     OW11165   3.526   3.602   4.153  0.2257  0.0919 -0.0486
 2792SOL    HW211166   3.480   3.547   4.089  0.2727  0.2430 -0.2128
 2792SOL    HW311167   3.616   3.605   4.122  0.9180 -2.2183  1.6155
 2792SOL    MW411168   3.532   3.595   4.141  0.3233 -0.1930  0.1493
 2793SOL     OW11169   2.894   1.286   3.627  0.2593  0.5759 -0.4986
 2793SOL    HW211170   2.904   1.310   3.535 -0.6640  0.0081 -0.7545
 2793SOL    HW311171   2.844   1.205   3.625  1.7024 -0.3531  0.4470
 2793SOL    MW411172   2.889   1.279   3.614  0.3279  0.3784 -0.4076
 2794SOL     OW11173   4.130   0.426   3.784 -0.1882  0.1068  0.0294
 2794SOL    HW211174   4.174   0.410   3.867  0.6815 -2.8690 -0.9473
 2794SOL    HW311175   4.058   0.363   3.782 -0.1841  0.1296 -1.4804
 2794SOL    MW411176   4.127   0.416   3.794 -0.0729 -0.2828 -0.2986
 2795SOL     OW11177   3.690   4.041   4.041  0.0402  0.0254 -0.0274
 2795SOL    HW211178   3.613   4.072   4.088  0.7802  0.3518  0.9917
 2795SOL    HW311179   3.719   3.964   4.090  0.4702  0.0186 -0.2900
 2795SOL    MW411180   3.684   4.035   4.054  0.1945  0.0676  0.0724
 2796SOL     OW11181   1.280   3.610   4.555  0.0166 -0.1435 -0.0115
 2796SOL    HW211182   1.309   3.601   4.646 -1.9915  0.1375  0.6648
 2796SOL    HW311183   1.247   3.523   4.532  0.5383 -0.2194 -0.4997
 2796SOL    MW411184   1.280   3.597   4.564 -0.1795 -0.1164  0.0133
 2797SOL     OW11185   2.267   1.150   3.283 -0.5360 -0.1058 -0.8452
 2797SOL    HW211186   2.186   1.193   3.312 -0.1477  0.5137 -0.6699
 2797SOL    HW311187   2.260   1.061   3.319 -1.3906 -0.2328 -1.2974
 2797SOL    MW411188   2.255   1.144   3.292 -0.5975 -0.0408 -0.8817
 2798SOL     OW11189   4.385   2.045   4.234 -0.2349 -0.1081  0.1003
 2798SOL    HW211190   4.429   1.963   4.257 -0.3897 -0.0376  0.6408
 2798SOL    HW311191   4.447   2.089   4.176 -0.1506 -0.6071 -0.1955
 2798SOL    MW411192   4.399   2.040   4.229 -0.2442 -0.1646  0.1326
 2799SOL     OW11193   0.118   1.579   4.423 -0.2891 -0.1879 -0.2589
 2799SOL    HW211194   0.084   1.597   4.510 -0.1245  1.3784 -0.5104
 2799SOL    HW311195   0.120   1.664   4.379  1.8673 -0.5908 -1.0100
 2799SOL    MW411196   0.113   1.592   4.428  0.0171 -0.0344 -0.3912
 2800SOL     OW11197   1.171   3.370   3.790 -0.2296  0.1502 -0.0399
 2800SOL    HW211198   1.226   3.386   3.866 -0.2183 -0.9222  0.1804
 2800SOL    HW311199   1.231   3.338   3.723 -0.2613  0.9571 -0.4673
 2800SOL    MW411200   1.186   3.368   3.791 -0.2323  0.1152 -0.0672
 2801SOL     OW11201   3.086   0.101   3.645 -0.5498 -0.3755 -0.6740
 2801SOL    HW211202   3.115   0.119   3.556 -0.6000  0.4992 -0.5152
 2801SOL    HW311203   3.083   0.187   3.688 -3.0805 -0.4544 -0.6163
 2801SOL    MW411204   3.089   0.115   3.639 -0.8903 -0.2705 -0.6455
 2802SOL     OW11205   3.163   2.517   3.593 -0.4101  0.1575 -0.1088
 2802SOL    HW211206   3.172   2.503   3.498 -0.8078  1.2922 -0.3345
 2802SOL    HW311207   3.170   2.612   3.602 -1.5600  0.1507  0.8732
 2802SOL    MW411208   3.166   2.528   3.581 -0.6143  0.3064 -0.0090
 2803SOL     OW11209   2.975   3.581   3.349  0.0826 -0.5265 -0.2183
 2803SOL    HW211210   2.938   3.665   3.323 -0.6684 -1.1565 -1.2107
 2803SOL    HW311211   3.056   3.573   3.299  0.4111 -0.1666  0.2556
 2803SOL    MW411212   2.981   3.591   3.339  0.0269 -0.5621 -0.2867
 2804SOL     OW11213   0.879   4.058   4.258 -0.1584  0.3111  0.3077
 2804SOL    HW211214   0.919   3.977   4.290  1.0967  0.9802  0.4900
 2804SOL    HW311215   0.788   4.052   4.285  0.0410 -0.8150  0.7681
 2804SOL    MW411216   0.873   4.046   4.266  0.0335  0.2508  0.3925
 2805SOL     OW11217   1.330   0.721   4.534 -0.1716  0.1521  0.7354
 2805SOL    HW211218   1.336   0.667   4.455 -0.1063 -0.5556  1.2094
 2805SOL    HW311219   1.243   0.760   4.529  0.2849  1.0450 -0.2668
 2805SOL    MW411220   1.319   0.719   4.523 -0.1028  0.1766  0.6657
 2806SOL     OW11221   0.654   2.350   3.892  0.4244  0.0561  0.1399
 2806SOL    HW211222   0.566   2.313   3.904  1.0507 -1.3517  0.5023
 2806SOL    HW311223   0.648   2.439   3.927 -0.6654 -0.2810  0.8210
 2806SOL    MW411224   0.641   2.357   3.898  0.3632 -0.1741  0.2776
 2807SOL     OW11225   2.796   0.049   3.618 -0.1172  0.5074  0.0116
 2807SOL    HW211226   2.755   0.040   3.533  1.6882  1.2049 -0.9641
 2807SOL    HW311227   2.882   0.088   3.600  0.0602  1.2455  2.1865
 2807SOL    MW411228   2.802   0.053   3.605  0.1444  0.6968  0.1698
 2808SOL     OW11229   1.663   0.847   3.574 -0.3104 -0.0606  0.0507
 2808SOL    HW211230   1.709   0.862   3.492  1.5257 -0.0767  1.0519
 2808SOL    HW311231   1.705   0.905   3.637  0.0462 -1.9215  1.5820
 2808SOL    MW411232   1.674   0.856   3.572 -0.0211 -0.3082  0.3848
 2809SOL     OW11233   4.096   3.835   4.038  0.6648 -0.2265  0.3003
 2809SOL    HW211234   4.061   3.796   3.958  0.8866 -0.9143  0.5385
 2809SOL    HW311235   4.142   3.914   4.007 -2.0096  1.3231  0.0974
 2809SOL    MW411236   4.098   3.840   4.023  0.3412 -0.1128  0.3049
 2810SOL     OW11237   2.449   0.499   3.351  0.1091  0.1988 -0.1033
 2810SOL    HW211238   2.514   0.440   3.314 -0.1319 -0.1624  0.0359
 2810SOL    HW311239   2.486   0.586   3.341  1.2546 -0.1037  1.2523
 2810SOL    MW411240   2.462   0.502   3.345  0.2284  0.1113  0.0939
 2811SOL     OW11241   3.156   1.384   3.742 -0.1409  0.1512  0.1395
 2811SOL    HW211242   3.234   1.395   3.688  0.4229 -1.6677  0.5367
 2811SOL    HW311243   3.083   1.402   3.683  0.5562  1.0888 -0.4438
 2811SOL    MW411244   3.157   1.388   3.727  0.0254  0.0349  0.1149
 2812SOL     OW11245   4.204   0.080   3.812 -0.3191 -0.1691  0.6505
 2812SOL    HW211246   4.233  -0.010   3.802  0.0947 -0.0095  0.4353
 2812SOL    HW311247   4.193   0.091   3.907  1.1960  0.0536  0.8045
 2812SOL    MW411248   4.206   0.069   3.823 -0.0646 -0.1187  0.6424
 2813SOL     OW11249   0.843   2.501   4.346  0.1697 -0.0697 -0.3218
 2813SOL    HW211250   0.770   2.542   4.301 -0.2999  0.0948  0.5757
 2813SOL    HW311251   0.824   2.408   4.345 -1.3708  0.1514  2.1325
 2813SOL    MW411252   0.831   2.494   4.340 -0.0955 -0.0188  0.1204
 2814SOL     OW11253   1.814   2.723   3.234  0.4509 -0.3571 -0.2351
 2814SOL    HW211254   1.822   2.632   3.263  2.4011 -0.2990 -0.5230
 2814SOL    HW311255   1.888   2.768   3.277 -0.9815  1.2620  0.5812
 2814SOL    MW411256   1.825   2.717   3.244  0.5192 -0.1358 -0.1654
 2815SOL     OW11257   0.534   1.068   3.610  0.1239  0.1330 -0.4129
 2815SOL    HW211258   0.553   1.063   3.704  0.2174  1.0144 -0.3842
 2815SOL    HW311259   0.450   1.113   3.604  0.3355  0.4898 -0.7685
 2815SOL    MW411260   0.526   1.073   3.622  0.1641  0.2964 -0.4560
 2816SOL     OW11261   2.424   4.621   3.294 -0.3999  0.2023 -0.0929
 2816SOL    HW211262   2.403   4.530   3.316  1.8908 -0.2657  0.2670
 2816SOL    HW311263   2.442   4.620   3.200  0.4056  0.1388  0.0642
 2816SOL    MW411264   2.423   4.609   3.285  0.0086  0.1322 -0.0247
 2817SOL     OW11265   3.067   1.426   4.003  0.2596 -0.2196  0.3522
 2817SOL    HW211266   3.102   1.422   3.914  0.0496  0.8509  0.2099
 2817SOL    HW311267   3.141   1.405   4.060  0.3274 -1.1864 -0.0793
 2817SOL    MW411268   3.081   1.423   3.999  0.2408 -0.2059  0.2765
 2818SOL     OW11269   2.720   3.456   3.278 -0.8333 -0.0140  0.4417
 2818SOL    HW211270   2.647   3.515   3.296 -0.8898 -0.2056  0.8345
 2818SOL    HW311271   2.796   3.501   3.316 -0.3672  1.2423 -1.8801
 2818SOL    MW411272   2.721   3.470   3.285 -0.7792  0.1264  0.1872
 2819SOL     OW11273   2.102   0.373   3.948  0.0556  0.7201  0.1906
 2819SOL    HW211274   2.189   0.336   3.963  0.2311  1.0689  0.0425
 2819SOL    HW311275   2.044   0.320   4.003  0.2952  0.2009 -0.0487
 2819SOL    MW411276   2.106   0.361   3.957  0.1104  0.6976  0.1395
 2820SOL     OW11277   0.784   3.502   3.741 -0.0470  0.2993 -0.0405
 2820SOL    HW211278   0.754   3.416   3.771 -0.6233  0.6869  0.5062
 2820SOL    HW311279   0.704   3.545   3.709  0.3533  0.3701 -0.9460
 2820SOL    MW411280   0.769   3.496   3.741 -0.0702  0.3598 -0.0879
 2821SOL     OW11281   0.372   2.359   3.580 -0.6458  0.5101 -0.1558
 2821SOL    HW211282   0.465   2.373   3.600 -0.3773 -1.2315 -0.1016
 2821SOL    HW311283   0.328   2.370   3.664 -0.3774  0.3984  0.0025
 2821SOL    MW411284   0.379   2.362   3.593 -0.5750  0.2656 -0.1278
 2822SOL     OW11285   1.656   2.105   3.570 -0.1578  0.0920 -0.2309
 2822SOL    HW211286   1.608   2.176   3.612  1.0528  0.7062  0.1570
 2822SOL    HW311287   1.625   2.104   3.480  0.3274  1.5797 -0.4183
 2822SOL    MW411288   1.646   2.114   3.564  0.0659  0.3693 -0.2044
 2823SOL     OW11289   2.613   4.093   3.855  0.1370  0.4603  0.1937
 2823SOL    HW211290   2.603   4.186   3.835 -2.0496  0.1626 -0.2748
 2823SOL    HW311291   2.657   4.092   3.939  0.8702  1.9132 -0.1474
 2823SOL    MW411292   2.617   4.105   3.863 -0.0547  0.6127  0.0869
 2824SOL     OW11293   4.308   4.009   3.669  0.1534  0.0918 -0.4246
 2824SOL    HW211294   4.284   4.007   3.761 -0.8696 -0.9402 -0.7085
 2824SOL    HW311295   4.252   4.076   3.630 -0.7614 -0.7813 -0.6499
 2824SOL    MW411296   4.298   4.017   3.676 -0.1022 -0.1595 -0.4918
 2825SOL     OW11297   0.199   0.012   4.240 -0.1955  0.4941  0.1467
 2825SOL    HW211298   0.231  -0.014   4.154  0.7427  0.8145  0.3981
 2825SOL    HW311299   0.259  -0.030   4.302 -0.8530  0.2753  0.6539
 2825SOL    MW411300   0.211   0.003   4.237 -0.1584  0.5075  0.2468
 2826SOL     OW11301   0.209   2.622   3.963  0.0411  0.1318 -0.4367
 2826SOL    HW211302   0.125   2.667   3.961 -0.9339 -1.5592  0.9712
 2826SOL    HW311303   0.229   2.613   4.056  2.2544  1.3357 -0.7574
 2826SOL    MW411304   0.201   2.627   3.975  0.2045  0.0675 -0.2933
 2827SOL     OW11305   0.415   2.269   3.986  0.4586 -0.0687  0.0429
 2827SOL    HW211306   0.332   2.295   3.947  0.7157  0.0838 -0.4177
 2827SOL    HW311307   0.418   2.174   3.977  0.5958 -0.0212 -0.4942
 2827SOL    MW411308   0.405   2.260   3.979  0.5106 -0.0423 -0.0887
 2828SOL     OW11309   3.906   2.973   4.331  0.1386 -0.2031 -0.3213
 2828SOL    HW211310   3.987   2.935   4.365 -1.3332 -0.5878  3.0207
 2828SOL    HW311311   3.902   3.060   4.371 -1.4330 -0.4869  0.1711
 2828SOL    MW411312   3.916   2.979   4.341 -0.2629 -0.2913  0.1846
 2829SOL     OW11313   1.087   2.477   3.942  0.1989  0.3841  0.4721
 2829SOL    HW211314   1.170   2.522   3.929  1.0887 -1.2311  0.4565
 2829SOL    HW311315   1.087   2.453   4.035 -0.5329  0.9268  0.6150
 2829SOL    MW411316   1.098   2.480   3.953  0.2197  0.2426  0.4889
 2830SOL     OW11317   1.868   4.038   3.503  0.1301 -0.2777  0.3164
 2830SOL    HW211318   1.851   4.021   3.411  0.0929 -1.8675  0.5920
 2830SOL    HW311319   1.875   4.133   3.510 -0.0871 -0.1390 -1.2777
 2830SOL    MW411320   1.867   4.048   3.492  0.0966 -0.4692  0.1425
 2831SOL     OW11321   3.115   4.350   4.572  0.0008  0.2591  0.3251
 2831SOL    HW211322   3.093   4.427   4.624  0.3552  0.3572  0.3275
 2831SOL    HW311323   3.030   4.311   4.550 -0.2545  1.5486 -1.0600
 2831SOL    MW411324   3.101   4.355   4.576  0.0138  0.4422  0.1427
 2832SOL     OW11325   3.210   4.430   4.312  0.2632  0.0673  0.0123
 2832SOL    HW211326   3.214   4.401   4.403  0.6364 -1.0745 -0.3530
 2832SOL    HW311327   3.273   4.502   4.306  2.5481 -1.8922 -0.0562
 2832SOL    MW411328   3.219   4.436   4.323  0.6139 -0.3419 -0.0450
 2833SOL     OW11329   3.877   1.229   4.083  0.4809  0.0644 -0.6041
 2833SOL    HW211330   3.951   1.257   4.029  0.9431 -0.8436 -0.4452
 2833SOL    HW311331   3.865   1.136   4.061 -0.6041  0.1938 -0.6207
 2833SOL    MW411332   3.885   1.220   4.073  0.3988 -0.0383 -0.5853
 2834SOL     OW11333   3.227   4.528   3.609  0.2836 -0.2682  0.1827
 2834SOL    HW211334   3.311   4.553   3.646  0.4010  0.5341 -0.5996
 2834SOL    HW311335   3.167   4.598   3.636  0.1263 -0.2479 -0.2163
 2834SOL    MW411336   3.230   4.541   3.618  0.2783 -0.1596  0.0269
 2835SOL     OW11337   2.434   0.945   4.513 -0.1808 -0.3748  0.2953
 2835SOL    HW211338   2.354   0.970   4.560 -0.4824 -1.6464  0.4904
 2835SOL    HW311339   2.422   0.852   4.493  0.8456 -0.3526 -0.5076
 2835SOL    MW411340   2.422   0.936   4.516 -0.0852 -0.5396  0.2151
 2836SOL     OW11341   0.273   3.596   3.343  0.0965 -0.4217  0.0292
 2836SOL    HW211342   0.322   3.588   3.261 -0.3160 -0.4466 -0.2166
 2836SOL    HW311343   0.184   3.567   3.321 -0.6688  1.9841 -0.1296
 2836SOL    MW411344   0.268   3.591   3.329 -0.0589 -0.1075 -0.0242
 2837SOL     OW11345   2.151   1.659   4.039  0.2969  0.0965 -0.0860
 2837SOL    HW211346   2.137   1.707   4.121  0.5325  0.3467 -0.1880
 2837SOL    HW311347   2.229   1.606   4.055 -0.1793 -0.5328  0.1484
 2837SOL    MW411348   2.160   1.659   4.052  0.2651  0.0464 -0.0686
 2838SOL     OW11349   0.294   3.447   4.404  0.1184 -0.0761  0.0061
 2838SOL    HW211350   0.347   3.520   4.436  0.4693 -0.0961 -0.5276
 2838SOL    HW311351   0.302   3.451   4.309 -0.6248 -0.2422 -0.0671
 2838SOL    MW411352   0.302   3.457   4.396  0.0666 -0.1006 -0.0740
 2839SOL     OW11353   1.753   2.441   3.582  0.1963 -0.0757 -0.2630
 2839SOL    HW211354   1.735   2.527   3.618  0.2167 -0.0166 -0.3932
 2839SOL    HW311355   1.783   2.458   3.492  1.4027 -0.1325  0.1148
 2839SOL    MW411356   1.755   2.454   3.575  0.3582 -0.0754 -0.2303
 2840SOL     OW11357   2.097   2.707   4.533  0.3295  0.0796 -0.3543
 2840SOL    HW211358   2.132   2.619   4.524  0.5384  0.1932 -0.6755
 2840SOL    HW311359   2.136   2.756   4.460  0.5150  0.5328  0.0486
 2840SOL    MW411360   2.106   2.702   4.522  0.3816  0.1544 -0.3435
 2841SOL     OW11361   1.328   3.403   4.018 -0.1134 -0.1566 -0.1339
 2841SOL    HW211362   1.420   3.395   3.994  0.0861  0.3947  0.4222
 2841SOL    HW311363   1.319   3.495   4.044 -0.9481 -0.0669 -0.7344
 2841SOL    MW411364   1.339   3.414   4.018 -0.1972 -0.0720 -0.1398
 2842SOL     OW11365   0.606   3.041   3.955 -0.0827  0.4115 -0.1830
 2842SOL    HW211366   0.651   3.065   4.036  0.9017 -0.1140 -0.5661
 2842SOL    HW311367   0.514   3.065   3.971 -0.2322 -1.2472  1.7422
 2842SOL    MW411368   0.600   3.047   3.968  0.0275  0.1233  0.0205
 2843SOL     OW11369   1.280   3.660   4.086  0.4870  0.3676 -0.1406
 2843SOL    HW211370   1.325   3.665   4.171  0.6475  0.2882 -0.2208
 2843SOL    HW311371   1.190   3.637   4.108  0.8293 -0.9264 -0.0743
 2843SOL    MW411372   1.274   3.658   4.100  0.5534  0.1864 -0.1424
 2844SOL     OW11373   3.153   0.141   3.372  0.2987 -0.6138 -0.1813
 2844SOL    HW211374   3.133   0.230   3.346 -0.1215 -0.5518  0.3357
 2844SOL    HW311375   3.085   0.088   3.331  0.6964 -0.7309 -0.6992
 2844SOL    MW411376   3.142   0.145   3.363  0.2957 -0.6211 -0.1814
 2845SOL     OW11377   4.263   1.362   3.545  0.0579  0.5100 -0.1941
 2845SOL    HW211378   4.246   1.271   3.570 -0.4328  0.6159 -0.1345
 2845SOL    HW311379   4.256   1.363   3.450 -1.6045  0.8161 -0.0815
 2845SOL    MW411380   4.260   1.350   3.536 -0.2262  0.5644 -0.1713
 2846SOL     OW11381   3.046   1.738   3.534  0.2352  0.0461  0.6830
 2846SOL    HW211382   3.097   1.803   3.582  0.4917  1.2032 -1.1236
 2846SOL    HW311383   3.098   1.719   3.456 -1.6707  0.5964 -0.7655
 2846SOL    MW411384   3.060   1.744   3.530  0.0176  0.2714  0.2535
 2847SOL     OW11385   0.084   4.123   3.668 -0.5807 -0.2006 -0.1308
 2847SOL    HW211386   0.113   4.151   3.755 -0.9340 -0.6290  0.1221
 2847SOL    HW311387  -0.006   4.093   3.681 -0.5122 -0.6041 -0.5775
 2847SOL    MW411388   0.076   4.123   3.681 -0.6183 -0.3103 -0.1564
 2848SOL     OW11389   2.698   2.495   3.617 -0.3819  0.3113 -0.1371
 2848SOL    HW211390   2.629   2.434   3.644 -0.2281  0.4366  0.5375
 2848SOL    HW311391   2.693   2.494   3.521 -0.3052 -0.8563 -0.1442
 2848SOL    MW411392   2.688   2.487   3.608 -0.3515  0.1738 -0.0491
 2849SOL     OW11393   0.180   4.072   4.191  0.0425 -0.2090  0.6863
 2849SOL    HW211394   0.086   4.055   4.191 -0.5191  2.4950 -1.7351
 2849SOL    HW311395   0.191   4.142   4.255  0.1509  0.5481 -0.1470
 2849SOL    MW411396   0.169   4.079   4.199 -0.0173  0.2477  0.2569
 2850SOL     OW11397   0.872   0.898   3.603 -0.0118 -0.0012 -0.2052
 2850SOL    HW211398   0.831   0.875   3.686 -0.9834  0.0926 -0.6583
 2850SOL    HW311399   0.966   0.886   3.619 -0.1631  0.3500  1.0063
 2850SOL    MW411400   0.879   0.893   3.616 -0.1599  0.0575 -0.1051
 2851SOL     OW11401   2.294   2.793   4.150  0.5605  0.1669 -0.1423
 2851SOL    HW211402   2.239   2.834   4.217  0.4175 -0.4974  0.1514
 2851SOL    HW311403   2.234   2.777   4.077  0.6685  0.6907 -0.3491
 2851SOL    MW411404   2.279   2.797   4.150  0.5559  0.1483 -0.1309
 2852SOL     OW11405   4.479   0.677   3.979  0.0716 -0.2724 -0.4011
 2852SOL    HW211406   4.524   0.670   4.064  1.4730  1.1587 -1.0088
 2852SOL    HW311407   4.396   0.720   4.000  0.4634  0.1960  0.2312
 2852SOL    MW411408   4.474   0.681   3.993  0.3082 -0.0218 -0.3979
 2853SOL     OW11409   3.792   2.333   4.026 -0.0749 -0.2989  0.2110
 2853SOL    HW211410   3.754   2.419   4.044 -0.0561  0.1273 -1.6346
 2853SOL    HW311411   3.807   2.333   3.931  0.9252 -1.9335  0.3471
 2853SOL    MW411412   3.789   2.344   4.016  0.0595 -0.4584 -0.0146
 2854SOL     OW11413   2.539   0.982   3.954  0.2878 -0.0467  0.2038
 2854SOL    HW211414   2.513   1.037   3.881  1.2271  0.4393  0.2184
 2854SOL    HW311415   2.530   1.038   4.031  0.2382 -0.2464  0.3452
 2854SOL    MW411416   2.535   0.997   3.955  0.4052 -0.0090  0.2244
 2855SOL     OW11417   3.491   1.252   4.045  0.4362  0.0006 -0.1177
 2855SOL    HW211418   3.560   1.311   4.013  1.3355 -0.0331  1.6617
 2855SOL    HW311419   3.416   1.309   4.060  0.8478  0.4728  0.2035
 2855SOL    MW411420   3.490   1.267   4.043  0.6092  0.0584  0.1595
 2856SOL     OW11421   1.505   3.562   3.577  0.0355  0.2208  0.5736
 2856SOL    HW211422   1.533   3.600   3.493  0.2599 -0.8247  0.1636
 2856SOL    HW311423   1.455   3.631   3.619 -0.2302  0.7038 -0.5116
 2856SOL    MW411424   1.502   3.576   3.571  0.0300  0.1466  0.3763
 2857SOL     OW11425   2.823   0.511   3.372  0.1407 -0.4655 -0.0841
 2857SOL    HW211426   2.809   0.593   3.324  1.3706 -0.0948  0.1521
 2857SOL    HW311427   2.841   0.539   3.462  0.6507 -0.9855 -0.0210
 2857SOL    MW411428   2.824   0.525   3.378  0.3703 -0.4852 -0.0446
 2858SOL     OW11429   3.635   0.577   4.377  0.6144  0.1427  0.0824
 2858SOL    HW211430   3.543   0.584   4.351  0.0611 -0.3321  1.7900
 2858SOL    HW311431   3.680   0.542   4.300 -0.9570 -1.2950 -0.2187
 2858SOL    MW411432   3.629   0.573   4.364  0.3341 -0.1096  0.2680
 2859SOL     OW11433   2.390   3.954   3.927  0.3037  0.1565  1.0492
 2859SOL    HW211434   2.472   4.001   3.910 -0.1625  0.1717 -1.3186
 2859SOL    HW311435   2.416   3.863   3.941  0.8538  0.4221  1.7499
 2859SOL    MW411436   2.404   3.948   3.926  0.3147  0.1936  0.8293
 2860SOL     OW11437   3.590   3.293   3.285  0.0194 -0.7015  0.3041
 2860SOL    HW211438   3.588   3.286   3.380  1.4361  0.1655  0.4150
 2860SOL    HW311439   3.673   3.252   3.259  0.0691 -0.1402 -0.4667
 2860SOL    MW411440   3.601   3.287   3.294  0.2129 -0.5130  0.2171
 2861SOL     OW11441   3.380   1.983   4.176 -0.1935  0.4717 -0.2267
 2861SOL    HW211442   3.369   2.064   4.226 -0.9207 -0.2837  0.8780
 2861SOL    HW311443   3.439   2.006   4.105  0.6479  1.6548  0.8282
 2861SOL    MW411444   3.386   1.997   4.173 -0.1785  0.5282  0.0582
 2862SOL     OW11445   3.322   2.779   3.925  0.3761 -0.4169 -0.2818
 2862SOL    HW211446   3.383   2.737   3.864  1.2052 -0.8656  0.8385
 2862SOL    HW311447   3.289   2.707   3.979 -0.5727 -0.0643 -0.3752
 2862SOL    MW411448   3.325   2.764   3.924  0.3603 -0.4296 -0.1463
 2863SOL     OW11449   1.580   3.883   3.163 -0.1606 -0.4936 -0.3153
 2863SOL    HW211450   1.572   3.879   3.068 -0.6728  0.6934 -0.3239
 2863SOL    HW311451   1.596   3.792   3.189 -2.3598 -1.1834 -1.3110
 2863SOL    MW411452   1.581   3.870   3.154 -0.5183 -0.4280 -0.4478
 2864SOL     OW11453   3.423   3.387   3.646 -0.4464  0.4625 -0.1711
 2864SOL    HW211454   3.503   3.336   3.634 -0.7050 -0.1946  0.8028
 2864SOL    HW311455   3.426   3.416   3.737 -2.0832 -0.9617  0.3821
 2864SOL    MW411456   3.434   3.384   3.656 -0.6965  0.1879  0.0304
 2865SOL     OW11457   0.595   2.326   4.567  1.0595  0.3335  0.2888
 2865SOL    HW211458   0.606   2.278   4.649  1.9932 -0.4412 -0.2790
 2865SOL    HW311459   0.652   2.281   4.505  1.4961  1.8095 -0.4062
 2865SOL    MW411460   0.604   2.314   4.569  1.2403  0.4260  0.1222
 2866SOL     OW11461   3.222   3.655   4.393 -0.3740  0.4285  0.0638
 2866SOL    HW211462   3.270   3.710   4.331 -1.0161  0.2763 -0.5780
 2866SOL    HW311463   3.240   3.566   4.364 -1.4261  0.3844 -0.4734
 2866SOL    MW411464   3.231   3.651   4.381 -0.5975  0.4026 -0.0918
 2867SOL     OW11465   3.333   3.689   4.665 -0.3701 -0.4473  0.2556
 2867SOL    HW211466   3.303   3.682   4.575  0.6585  1.5485 -0.2670
 2867SOL    HW311467   3.427   3.671   4.661 -0.2562 -0.0053  0.8690
 2867SOL    MW411468   3.341   3.686   4.653 -0.2194 -0.1256  0.2676
 2868SOL     OW11469   2.034   3.883   3.175  0.0471 -0.0754 -0.1340
 2868SOL    HW211470   2.036   3.797   3.218  0.5939  0.1609  0.3188
 2868SOL    HW311471   1.955   3.925   3.209 -0.5331 -0.6262 -0.7998
 2868SOL    MW411472   2.024   3.877   3.185  0.0427 -0.1169 -0.1621
 2869SOL     OW11473   4.082   4.317   3.381 -0.0270 -0.1718 -0.1850
 2869SOL    HW211474   4.071   4.240   3.325 -0.3431  0.9360 -1.6608
 2869SOL    HW311475   4.001   4.366   3.371  0.7890  1.1440 -0.4838
 2869SOL    MW411476   4.070   4.313   3.373  0.0390  0.1480 -0.4191
 2870SOL     OW11477   0.992   4.539   3.778  0.1341 -0.3850 -0.1811
 2870SOL    HW211478   0.961   4.622   3.743  2.8031  1.2535  1.1443
 2870SOL    HW311479   1.014   4.558   3.869  1.3753 -2.3794 -0.0293
 2870SOL    MW411480   0.991   4.552   3.785  0.6500 -0.4320  0.0138
 2871SOL     OW11481   0.655   3.503   4.167  0.0617 -0.0279  0.3592
 2871SOL    HW211482   0.665   3.524   4.259 -0.2658 -0.5092  0.5058
 2871SOL    HW311483   0.561   3.491   4.155  0.2027 -1.0369  0.2011
 2871SOL    MW411484   0.644   3.504   4.177  0.0371 -0.2246  0.3577
 2872SOL     OW11485   2.065   3.800   3.962  0.0930  0.3514 -0.0098
 2872SOL    HW211486   2.114   3.802   3.879  0.9361  1.1830  0.5053
 2872SOL    HW311487   2.066   3.891   3.993 -1.7287  0.3659  0.0408
 2872SOL    MW411488   2.072   3.812   3.955 -0.0361  0.4631  0.0648
 2873SOL     OW11489   3.173   2.779   3.672  0.1350  0.1677  0.0469
 2873SOL    HW211490   3.201   2.765   3.763  0.7548  1.2932  0.0356
 2873SOL    HW311491   3.230   2.849   3.640 -0.6984  0.4113 -0.9258
 2873SOL    MW411492   3.184   2.786   3.680  0.1068  0.3484 -0.0830
 2874SOL     OW11493   0.875   1.707   4.232  0.0462 -0.1278  0.6701
 2874SOL    HW211494   0.932   1.783   4.245  1.2285 -1.1204  1.4167
 2874SOL    HW311495   0.887   1.683   4.140  1.2192 -0.6153  0.9389
 2874SOL    MW411496   0.884   1.714   4.221  0.3570 -0.3231  0.8040
 2875SOL     OW11497   2.690   2.449   3.329 -0.2482  0.2075 -0.1077
 2875SOL    HW211498   2.696   2.514   3.259  0.0798 -0.3708 -0.6242
 2875SOL    HW311499   2.777   2.407   3.330 -0.5856 -0.5073 -0.0746
 2875SOL    MW411500   2.702   2.452   3.320 -0.2494  0.0369 -0.1715
 2876SOL     OW11501   0.841   1.276   4.260  0.3446  0.4947  0.4744
 2876SOL    HW211502   0.895   1.347   4.296 -0.7460  1.2195  0.7183
 2876SOL    HW311503   0.756   1.286   4.303  0.0651 -0.7489  0.2381
 2876SOL    MW411504   0.837   1.287   4.270  0.1638  0.4263  0.4754
 2877SOL     OW11505   1.446   3.055   3.661  0.2528 -0.2941 -0.4297
 2877SOL    HW211506   1.491   3.081   3.741  0.3041  0.0702 -0.5760
 2877SOL    HW311507   1.356   3.036   3.690  0.2647 -0.1391 -0.2882
 2877SOL    MW411508   1.440   3.056   3.675  0.2612 -0.2256 -0.4303
 2878SOL     OW11509   2.029   4.263   3.835  0.1699  0.0043 -0.3435
 2878SOL    HW211510   2.103   4.212   3.801 -0.7785 -1.3708 -0.3718
 2878SOL    HW311511   1.971   4.273   3.759 -0.2875 -0.0391  0.0042
 2878SOL    MW411512   2.031   4.258   3.820 -0.0156 -0.1828 -0.3014
 2879SOL     OW11513   3.785   0.797   4.475 -0.0702  0.0665  0.1403
 2879SOL    HW211514   3.734   0.721   4.447  0.9560  0.1856 -2.1239
 2879SOL    HW311515   3.848   0.761   4.538 -0.4398 -0.7453  0.0584
 2879SOL    MW411516   3.787   0.782   4.480  0.0164 -0.0249 -0.1692
 2880SOL     OW11517   3.613   2.043   3.725  0.1291  0.2679  0.0298
 2880SOL    HW211518   3.535   2.055   3.671  0.2937  0.0623 -0.2583
 2880SOL    HW311519   3.584   2.061   3.814  0.0894  1.5891 -0.2485
 2880SOL    MW411520   3.599   2.047   3.730  0.1456  0.4151 -0.0449
 2881SOL     OW11521   2.302   4.386   4.150 -0.3655  0.0598 -0.5730
 2881SOL    HW211522   2.289   4.415   4.240  0.4523  0.4874 -0.5870
 2881SOL    HW311523   2.312   4.291   4.156  0.3797  0.1636 -0.1319
 2881SOL    MW411524   2.301   4.377   4.163 -0.1593  0.1299 -0.5166
 2882SOL     OW11525   3.392   4.611   4.229  0.2346  0.1559  0.4743
 2882SOL    HW211526   3.358   4.680   4.286  1.4427 -0.3854  1.8750
 2882SOL    HW311527   3.364   4.637   4.141 -0.9373  1.4375  1.1972
 2882SOL    MW411528   3.383   4.624   4.224  0.2394  0.2536  0.7545
 2883SOL     OW11529   4.039   3.763   3.731  0.0387  0.2631  0.1869
 2883SOL    HW211530   3.981   3.688   3.743  0.0523  0.1354 -0.5351
 2883SOL    HW311531   3.980   3.836   3.711  0.0720  0.2970  0.2136
 2883SOL    MW411532   4.024   3.762   3.730  0.0449  0.2507  0.0952
 2884SOL     OW11533   3.125   0.891   3.596  0.2075  0.3505 -0.0640
 2884SOL    HW211534   3.206   0.844   3.617 -1.1105 -1.1293  2.0220
 2884SOL    HW311535   3.137   0.978   3.635  0.0565 -0.5139  2.0181
 2884SOL    MW411536   3.138   0.896   3.604  0.0137  0.0412  0.4859
 2885SOL     OW11537   2.537   0.511   4.003  0.2887 -0.4131 -0.2437
 2885SOL    HW211538   2.580   0.514   4.088 -0.2326 -1.1659  0.0522
 2885SOL    HW311539   2.493   0.596   3.995 -0.6581 -0.8036  0.7702
 2885SOL    MW411540   2.537   0.523   4.013  0.0950 -0.5640 -0.0709
 2886SOL     OW11541   3.957   0.729   4.019  0.2643 -0.1158  0.2492
 2886SOL    HW211542   4.046   0.763   4.019  0.0947  0.3394  0.5990
 2886SOL    HW311543   3.902   0.806   4.005 -0.0905 -0.3479  0.3522
 2886SOL    MW411544   3.961   0.744   4.017  0.1951 -0.0863  0.3089
 2887SOL     OW11545   1.120   2.152   4.281 -0.2901 -0.7009 -0.1181
 2887SOL    HW211546   1.214   2.168   4.288 -0.0932  0.7543 -4.4371
 2887SOL    HW311547   1.112   2.060   4.256 -0.0859 -0.9931  0.8636
 2887SOL    MW411548   1.131   2.142   4.279 -0.2372 -0.5475 -0.5584
 2888SOL     OW11549   2.621   3.748   4.008  0.4939  0.2407 -0.3765
 2888SOL    HW211550   2.716   3.762   4.006  0.4427  0.6447 -0.0746
 2888SOL    HW311551   2.594   3.779   4.095  0.0867  0.1156 -0.4578
 2888SOL    MW411552   2.630   3.754   4.019  0.4334  0.2775 -0.3474
 2889SOL     OW11553   0.025   1.377   4.015 -0.0849  0.0057  0.2473
 2889SOL    HW211554  -0.043   1.386   3.949 -0.6459  0.0008  0.8139
 2889SOL    HW311555   0.037   1.282   4.024  0.3937  0.0172 -0.2500
 2889SOL    MW411556   0.017   1.365   4.008 -0.0958  0.0066  0.2565
   4.49070   4.66690  10.00000
