DMSO solvent box, 250 molecules, CF 13/03/03
 1000
    1DMSO    SD    1   2.532   2.457   1.915 -0.2258  0.1438 -0.2112
    1DMSO   CD1    2   2.491   2.624   1.968  0.1342  0.1450  0.0995
    1DMSO    OD    3   2.635   2.403   2.015 -0.1266 -0.1550 -0.4816
    1DMSO   CD2    4   2.374   2.380   1.957 -0.2675  0.3335 -0.0045
    2DMSO    SD    5   1.790   1.637   1.970 -0.0051  0.0782 -0.0840
    2DMSO   CD1    6   1.758   1.611   2.146  0.0099  0.1839 -0.0489
    2DMSO    OD    7   1.704   1.537   1.894 -0.2713  0.2493 -0.0066
    2DMSO   CD2    8   1.709   1.797   1.956  0.3396  0.2453 -0.0802
    3DMSO    SD    9   0.867   2.540   2.371  0.0219  0.0513  0.1383
    3DMSO   CD1   10   0.866   2.414   2.242  0.0477  0.1116  0.0737
    3DMSO    OD   11   0.998   2.523   2.448 -0.0868 -0.1042  0.2642
    3DMSO   CD2   12   0.888   2.683   2.264  0.2531  0.0751  0.2105
    4DMSO    SD   13   0.658   0.799   0.191  0.1439 -0.3144 -0.0726
    4DMSO   CD1   14   0.651   0.759   0.016 -0.4525  0.0551 -0.1485
    4DMSO    OD   15   0.583   0.931   0.210  0.4911 -0.1873  0.4312
    4DMSO   CD2   16   0.548   0.668   0.249  0.0238 -0.1830 -0.0197
    5DMSO    SD   17   2.878   2.895   1.707  0.0386  0.2165 -0.0223
    5DMSO   CD1   18   2.721   2.911   1.793 -0.0069  0.3362 -0.1320
    5DMSO    OD   19   2.848   2.906   1.557  0.1168  0.0706 -0.0501
    5DMSO   CD2   20   2.949   3.052   1.757  0.0472  0.2801 -0.1535
    6DMSO    SD   21   0.612   1.376   1.540  0.1286 -0.0833 -0.1492
    6DMSO   CD1   22   0.716   1.251   1.617 -0.2767 -0.1473  0.3170
    6DMSO    OD   23   0.698   1.501   1.524  0.3134 -0.1863  0.1185
    6DMSO   CD2   24   0.599   1.300   1.378  0.6670 -0.1818 -0.1463
    7DMSO    SD   25   0.266   2.093   1.312  0.0804  0.0193 -0.1402
    7DMSO   CD1   26   0.103   2.053   1.378 -0.0045  0.0603 -0.2987
    7DMSO    OD   27   0.300   2.234   1.361  0.0224  0.0429 -0.1680
    7DMSO   CD2   28   0.360   1.978   1.414 -0.0313  0.0718  0.0091
    8DMSO    SD   29   0.392   2.407   3.005  0.1374  0.1221 -0.1152
    8DMSO   CD1   30   0.344   2.299   2.870  0.0870 -0.0093  0.0086
    8DMSO    OD   31   0.466   2.525   2.942  0.2948 -0.0362 -0.2518
    8DMSO   CD2   32   0.228   2.466   3.048  0.1713  0.3424 -0.2961
    9DMSO    SD   33   1.075   1.474   0.112 -0.1698  0.1054  0.0888
    9DMSO   CD1   34   1.108   1.501  -0.063  0.2669 -0.0218  0.1659
    9DMSO    OD   35   1.096   1.324   0.138 -0.3959  0.1091  0.2098
    9DMSO   CD2   36   1.220   1.559   0.176 -0.2251 -0.0031  0.3756
   10DMSO    SD   37   2.422   1.265   2.485 -0.1826  0.0077  0.0823
   10DMSO   CD1   38   2.331   1.249   2.639  0.1102  0.3223  0.2942
   10DMSO    OD   39   2.440   1.415   2.460 -0.0436 -0.0453 -0.1345
   10DMSO   CD2   40   2.580   1.203   2.545 -0.1488 -0.1484 -0.1864
   11DMSO    SD   41   2.784   1.995   0.420 -0.0057 -0.0484 -0.1682
   11DMSO   CD1   42   2.961   1.967   0.401 -0.0420 -0.1773 -0.3501
   11DMSO    OD   43   2.768   2.096   0.533  0.1831 -0.2496  0.0248
   11DMSO   CD2   44   2.758   2.085   0.266 -0.0246  0.2673  0.0218
   12DMSO    SD   45   3.011   1.037   1.645 -0.2835 -0.1926  0.0561
   12DMSO   CD1   46   3.040   1.088   1.815  0.0353 -0.1193 -0.0327
   12DMSO    OD   47   3.018   0.884   1.643 -0.4611 -0.1921  0.1359
   12DMSO   CD2   48   2.836   1.081   1.637 -0.2429  0.0261  0.3134
   13DMSO    SD   49   2.801   3.011   2.832 -0.1681  0.0541 -0.1233
   13DMSO   CD1   50   2.917   2.889   2.768 -0.0129  0.0787  0.1459
   13DMSO    OD   51   2.785   2.983   2.981 -0.1879  0.3197 -0.0737
   13DMSO   CD2   52   2.908   3.154   2.817 -0.3211  0.1848 -0.3524
   14DMSO    SD   53   2.514   0.796   0.853 -0.1533 -0.0581  0.0669
   14DMSO   CD1   54   2.457   0.650   0.763 -0.0339  0.0589 -0.2132
   14DMSO    OD   55   2.473   0.918   0.770  0.1955  0.0421  0.0641
   14DMSO   CD2   56   2.397   0.785   0.990 -0.5693 -0.0769 -0.2754
   15DMSO    SD   57   0.157   1.147   0.021 -0.0988  0.2110  0.0233
   15DMSO   CD1   58   0.292   1.136   0.140 -0.0678  0.3638 -0.0118
   15DMSO    OD   59   0.188   1.265  -0.071 -0.3629  0.3860  0.1582
   15DMSO   CD2   60   0.196   0.997  -0.071  0.2172  0.4011 -0.1600
   16DMSO    SD   61   2.106   2.675   1.921  0.0448  0.3126  0.2270
   16DMSO   CD1   62   2.003   2.642   2.064 -0.3440  0.6638  0.0191
   16DMSO    OD   63   2.114   2.545   1.841 -0.1209  0.2668  0.3078
   16DMSO   CD2   64   1.991   2.782   1.833  0.4922  0.5639 -0.0616
   17DMSO    SD   65   1.464   1.503   1.356 -0.0215  0.1914 -0.0005
   17DMSO   CD1   66   1.560   1.438   1.218  0.0998  0.4146 -0.0267
   17DMSO    OD   67   1.364   1.394   1.394  0.1121  0.0106 -0.0930
   17DMSO   CD2   68   1.595   1.499   1.479 -0.0409  0.3157  0.0056
   18DMSO    SD   69   2.388   3.030   2.104  0.1962  0.1781 -0.2744
   18DMSO   CD1   70   2.238   3.042   2.203  0.1943 -0.2160 -0.2465
   18DMSO    OD   71   2.459   2.901   2.145  0.5386  0.3519 -0.3123
   18DMSO   CD2   72   2.308   2.997   1.946  0.2463 -0.0010 -0.2607
   19DMSO    SD   73   1.025   2.560   1.087  0.3003 -0.2227  0.0711
   19DMSO   CD1   74   0.935   2.449   0.976  0.3353  0.0684 -0.2834
   19DMSO    OD   75   1.111   2.471   1.177  0.3176 -0.4673 -0.1997
   19DMSO   CD2   76   1.135   2.631   0.964  0.2834  0.2029  0.2800
   20DMSO    SD   77   1.050   0.289   0.593  0.1706  0.3152 -0.0139
   20DMSO   CD1   78   1.012   0.115   0.564  0.2404  0.2995 -0.0761
   20DMSO    OD   79   1.008   0.365   0.467  0.5277  0.2773 -0.1581
   20DMSO   CD2   80   0.923   0.320   0.717 -0.1597  0.3386 -0.3579
   21DMSO    SD   81   2.672   1.688   2.403  0.0055  0.3219  0.1280
   21DMSO   CD1   82   2.816   1.670   2.509 -0.0126  0.2780  0.1092
   21DMSO    OD   83   2.705   1.797   2.301 -0.1903  0.7050  0.4995
   21DMSO   CD2   84   2.686   1.530   2.317  0.3572  0.6297 -0.3760
   22DMSO    SD   85   1.254   0.769   0.495  0.3240  0.1716 -0.0218
   22DMSO   CD1   86   1.243   0.753   0.316 -0.0905  0.2225 -0.0033
   22DMSO    OD   87   1.273   0.918   0.524  0.2928  0.1774 -0.0173
   22DMSO   CD2   88   1.083   0.731   0.532  0.4190  0.0427  0.3817
   23DMSO    SD   89   0.519   2.472   1.196 -0.1535  0.1104 -0.4257
   23DMSO   CD1   90   0.391   2.567   1.113 -0.4486 -0.0505 -0.0907
   23DMSO    OD   91   0.648   2.495   1.118 -0.3166  0.4687 -0.6104
   23DMSO   CD2   92   0.530   2.574   1.345 -0.1252 -0.0749 -0.3140
   24DMSO    SD   93   2.669   0.315   1.929 -0.1662  0.0967  0.0371
   24DMSO   CD1   94   2.823   0.396   1.977 -0.2375  0.1542  0.1713
   24DMSO    OD   95   2.691   0.262   1.787 -0.0396  0.1526  0.0510
   24DMSO   CD2   96   2.682   0.174   2.040 -0.1926  0.0676  0.0172
   25DMSO    SD   97   2.449   0.356   2.245 -0.0651  0.2118  0.0079
   25DMSO   CD1   98   2.436   0.304   2.417 -0.2060  0.0222 -0.0460
   25DMSO    OD   99   2.344   0.278   2.167 -0.2422  0.5344 -0.0815
   25DMSO   CD2  100   2.385   0.523   2.267  0.3200  0.3176  0.2103
   26DMSO    SD  101   2.242   1.394   1.822  0.0525 -0.1795 -0.1607
   26DMSO   CD1  102   2.302   1.388   1.652  0.0281  0.2967 -0.1827
   26DMSO    OD  103   2.329   1.497   1.895 -0.0067 -0.3049  0.0770
   26DMSO   CD2  104   2.085   1.475   1.788 -0.0167 -0.1859  0.0664
   27DMSO    SD  105   2.617  -0.001   0.270 -0.1986 -0.1037  0.0977
   27DMSO   CD1  106   2.743   0.115   0.214  0.0126 -0.5667 -0.3588
   27DMSO    OD  107   2.619   0.002   0.423  0.2623  0.0087  0.1046
   27DMSO   CD2  108   2.473   0.095   0.218 -0.0379  0.3343  0.4446
   28DMSO    SD  109   1.666   2.389   2.629 -0.0001 -0.0603  0.1192
   28DMSO   CD1  110   1.609   2.249   2.726 -0.2165 -0.1085 -0.0546
   28DMSO    OD  111   1.588   2.512   2.677 -0.0460 -0.0610  0.0694
   28DMSO   CD2  112   1.831   2.402   2.701 -0.1192 -0.1433  0.3924
   29DMSO    SD  113   0.417   2.614   2.443  0.0463  0.1068 -0.2806
   29DMSO   CD1  114   0.456   2.485   2.562 -0.4504  0.2680  0.0336
   29DMSO    OD  115   0.544   2.698   2.426  0.3224 -0.3293 -0.3810
   29DMSO   CD2  116   0.405   2.508   2.298 -0.1787 -0.1934 -0.0544
   30DMSO    SD  117   0.465   2.563   0.710  0.0698 -0.0494  0.1115
   30DMSO   CD1  118   0.391   2.403   0.744  0.1150 -0.0856  0.1091
   30DMSO    OD  119   0.419   2.658   0.821 -0.2220  0.0186 -0.0802
   30DMSO   CD2  120   0.635   2.519   0.748  0.0269  0.0973  0.5118
   31DMSO    SD  121   1.263   0.415   0.897 -0.1365  0.1830 -0.4456
   31DMSO   CD1  122   1.283   0.467   1.068 -0.1074  0.0900 -0.4051
   31DMSO    OD  123   1.259   0.543   0.813  0.3669  0.2186 -0.4082
   31DMSO   CD2  124   1.427   0.344   0.875 -0.3676 -0.3696 -0.3034
   32DMSO    SD  125   2.537   0.276   2.812 -0.0725  0.0908  0.0103
   32DMSO   CD1  126   2.538   0.161   2.951 -0.1256 -0.0066 -0.0675
   32DMSO    OD  127   2.561   0.192   2.686 -0.3662  0.1266 -0.0613
   32DMSO   CD2  128   2.362   0.315   2.815 -0.0012  0.4031  0.2136
   33DMSO    SD  129   2.639   2.536   0.505  0.0618 -0.1521 -0.0389
   33DMSO   CD1  130   2.620   2.701   0.436  0.0129  0.0231  0.4172
   33DMSO    OD  131   2.500   2.491   0.551  0.2418  0.0272  0.5949
   33DMSO   CD2  132   2.672   2.450   0.350 -0.9112  0.1118 -0.3914
   34DMSO    SD  133   2.054   0.970   1.740  0.0510  0.0030  0.4771
   34DMSO   CD1  134   2.121   0.805   1.718 -0.5279 -0.1891  0.1822
   34DMSO    OD  135   2.171   1.061   1.775  0.4084 -0.4408  0.4392
   34DMSO   CD2  136   2.014   1.002   1.567 -0.0718  0.3422  0.5580
   35DMSO    SD  137   1.353   1.289   2.171  0.0305 -0.3330  0.2186
   35DMSO   CD1  138   1.208   1.388   2.212  0.0063 -0.3250  0.1569
   35DMSO    OD  139   1.367   1.292   2.019  0.0021 -0.4754  0.2177
   35DMSO   CD2  140   1.478   1.400   2.237  0.0153 -0.2255  0.0808
   36DMSO    SD  141   2.545   1.623   2.803 -0.1123 -0.0720 -0.1316
   36DMSO   CD1  142   2.623   1.782   2.836 -0.1576 -0.0538 -0.0193
   36DMSO    OD  143   2.467   1.585   2.929 -0.0238 -0.2091 -0.1094
   36DMSO   CD2  144   2.425   1.680   2.682 -0.1910 -0.0204 -0.0067
   37DMSO    SD  145   1.295   2.418   0.541 -0.2755  0.0284  0.0153
   37DMSO   CD1  146   1.265   2.324   0.391 -0.3527 -0.0360  0.0761
   37DMSO    OD  147   1.276   2.322   0.658 -0.2815  0.0870  0.0747
   37DMSO   CD2  148   1.473   2.439   0.520 -0.2897 -0.0541 -0.0568
   38DMSO    SD  149   2.540   2.153   0.779 -0.0570 -0.1748  0.1608
   38DMSO   CD1  150   2.590   1.982   0.752  0.6816  0.0504  0.1279
   38DMSO    OD  151   2.426   2.150   0.881  0.1287 -0.6654  0.3457
   38DMSO   CD2  152   2.687   2.206   0.868 -0.1490  0.5257 -0.1212
   39DMSO    SD  153   0.311   2.997   0.498 -0.0827 -0.0646 -0.2819
   39DMSO   CD1  154   0.442   2.938   0.389  0.0860 -0.4556  0.1251
   39DMSO    OD  155   0.190   3.026   0.410  0.0094 -0.4890 -0.5596
   39DMSO   CD2  156   0.279   2.841   0.582 -0.1016  0.2794  0.3442
   40DMSO    SD  157   1.834   0.145   2.153  0.0451 -0.1126  0.2503
   40DMSO   CD1  158   1.847   0.013   2.031 -0.4883 -0.2552  0.3376
   40DMSO    OD  159   1.925   0.105   2.270  0.2978 -0.1337  0.0432
   40DMSO   CD2  160   1.922   0.271   2.060 -0.0051 -0.3430 -0.1128
   41DMSO    SD  161   2.459   1.775   1.841 -0.0615 -0.2216  0.2933
   41DMSO   CD1  162   2.405   1.918   1.936  0.2742  0.2937 -0.2735
   41DMSO    OD  163   2.546   1.828   1.727 -0.0427 -0.8634  0.0055
   41DMSO   CD2  164   2.572   1.708   1.964 -0.0956  0.0797  0.4910
   42DMSO    SD  165   1.094   3.025   2.502  0.0616 -0.1156  0.1607
   42DMSO   CD1  166   1.097   2.845   2.504 -0.2189 -0.1028  0.3619
   42DMSO    OD  167   0.952   3.067   2.462  0.1903  0.0796 -0.1614
   42DMSO   CD2  168   1.107   3.050   2.680 -0.2468  0.0715  0.1423
   43DMSO    SD  169   1.823   0.306   0.774  0.3693 -0.0547  0.0439
   43DMSO   CD1  170   1.732   0.151   0.766  0.2829  0.0032 -0.0823
   43DMSO    OD  171   1.725   0.417   0.734  0.4778  0.0140 -0.0234
   43DMSO   CD2  172   1.840   0.314   0.953  0.1963 -0.0987  0.0662
   44DMSO    SD  173   2.627   2.599   2.770  0.0155 -0.0510 -0.3691
   44DMSO   CD1  174   2.750   2.594   2.901 -0.4821  0.2003  0.1068
   44DMSO    OD  175   2.681   2.693   2.662  0.2589  0.0062 -0.1910
   44DMSO   CD2  176   2.650   2.431   2.710  0.5372 -0.0327 -0.2081
   45DMSO    SD  177   1.398   1.916   1.177 -0.0960 -0.0999 -0.0808
   45DMSO   CD1  178   1.256   1.889   1.285  0.2966 -0.3845  0.3710
   45DMSO    OD  179   1.477   1.785   1.175  0.1503  0.0489 -0.3830
   45DMSO   CD2  180   1.308   1.926   1.022 -0.6043 -0.1967  0.1969
   46DMSO    SD  181   1.935   2.896   2.560 -0.1470 -0.1314  0.2325
   46DMSO   CD1  182   1.925   2.830   2.392 -0.1147 -0.6464  0.4203
   46DMSO    OD  183   1.933   2.775   2.654 -0.7864  0.1633  0.6216
   46DMSO   CD2  184   2.105   2.954   2.552  0.0923 -0.8388  0.3307
   47DMSO    SD  185   2.062   1.273   1.245  0.2787 -0.0795 -0.0331
   47DMSO   CD1  186   1.969   1.366   1.122  0.3066  0.2253  0.1700
   47DMSO    OD  187   2.210   1.303   1.219  0.2790  0.0908  0.1457
   47DMSO   CD2  188   2.015   1.370   1.389  0.1502 -0.5095  0.2160
   48DMSO    SD  189   0.873   1.068   0.384 -0.1340  0.1707 -0.0500
   48DMSO   CD1  190   0.815   1.167   0.245  0.1515  0.5287  0.0837
   48DMSO    OD  191   0.910   0.930   0.328 -0.3074  0.2115 -0.2746
   48DMSO   CD2  192   1.027   1.156   0.412 -0.0105 -0.1470  0.2675
   49DMSO    SD  193   3.036   0.669   0.879 -0.1385 -0.3612  0.1590
   49DMSO   CD1  194   2.906   0.779   0.820  0.0536 -0.1769  0.0975
   49DMSO    OD  195   3.034   0.546   0.789  0.3271  0.0395 -0.4187
   49DMSO   CD2  196   3.176   0.769   0.827  0.0322 -0.0513  1.2008
   50DMSO    SD  197   1.616   0.749   0.880  0.0247 -0.0587  0.0323
   50DMSO   CD1  198   1.561   0.709   0.713 -0.4460  0.3414  0.0938
   50DMSO    OD  199   1.713   0.865   0.867  0.1886 -0.2192  0.0132
   50DMSO   CD2  200   1.460   0.817   0.939  0.2719  0.0902  0.5173
   51DMSO    SD  201   1.366   0.923   2.391  0.0160 -0.0074  0.2134
   51DMSO   CD1  202   1.334   0.751   2.350  0.3245 -0.1060  0.4022
   51DMSO    OD  203   1.329   0.941   2.539 -0.1334  0.1324  0.1495
   51DMSO   CD2  204   1.545   0.917   2.382  0.0240  0.2748  0.3824
   52DMSO    SD  205   1.547   0.141   1.155  0.2701 -0.0823  0.0989
   52DMSO   CD1  206   1.566   0.030   1.295 -0.0811  0.3245  0.4528
   52DMSO    OD  207   1.397   0.152   1.127  0.3339 -0.1828 -0.3360
   52DMSO   CD2  208   1.596   0.293   1.238  0.0317  0.1717 -0.2131
   53DMSO    SD  209   2.181   1.829  -0.048  0.3276 -0.3287  0.1016
   53DMSO   CD1  210   2.105   1.744   0.091  0.4604 -0.1915  0.2657
   53DMSO    OD  211   2.147   1.977  -0.033  0.4544 -0.2966  0.0546
   53DMSO   CD2  212   2.352   1.809   0.003  0.3870 -0.4411 -0.1400
   54DMSO    SD  213   2.793   2.122   2.423 -0.2699 -0.1948 -0.0708
   54DMSO   CD1  214   2.645   2.145   2.324 -0.1602  0.2816 -0.1330
   54DMSO    OD  215   2.847   2.261   2.456  0.0691 -0.3731  0.0677
   54DMSO   CD2  216   2.713   2.060   2.572 -0.5021 -0.0982 -0.1485
   55DMSO    SD  217   2.639   1.256   1.905 -0.1590  0.0613 -0.2024
   55DMSO   CD1  218   2.768   1.373   1.858 -0.2322  0.0616 -0.4042
   55DMSO    OD  219   2.709   1.137   1.972 -0.0980  0.2696  0.1311
   55DMSO   CD2  220   2.566   1.354   2.037 -0.3192  0.3107 -0.4714
   56DMSO    SD  221   0.295   1.990   0.161  0.0432  0.1262  0.0280
   56DMSO   CD1  222   0.158   1.901   0.087 -0.1659  0.4436  0.0330
   56DMSO    OD  223   0.339   2.096   0.060  0.0797  0.2537  0.1573
   56DMSO   CD2  224   0.201   2.076   0.289  0.3086  0.0370  0.2790
   57DMSO    SD  225   1.188   1.464   0.926  0.1887 -0.3431 -0.0585
   57DMSO   CD1  226   1.365   1.438   0.900  0.1719 -0.3849 -0.1270
   57DMSO    OD  227   1.116   1.348   0.858  0.1082 -0.2077 -0.1904
   57DMSO   CD2  228   1.185   1.431   1.103  0.2217 -0.5851 -0.0873
   58DMSO    SD  229   2.427   2.708   0.018  0.0336  0.0839 -0.2323
   58DMSO   CD1  230   2.495   2.838  -0.087 -0.3703  0.3979 -0.0708
   58DMSO    OD  231   2.542   2.659   0.107  0.1864  0.3335 -0.2891
   58DMSO   CD2  232   2.323   2.813   0.121 -0.2899 -0.3660 -0.0936
   59DMSO    SD  233   2.728   2.934   0.816  0.1502  0.1705  0.1249
   59DMSO   CD1  234   2.768   2.943   0.640 -0.2072  0.6328  0.0531
   59DMSO    OD  235   2.769   3.068   0.877  0.2513  0.0102  0.3802
   59DMSO   CD2  236   2.549   2.937   0.799  0.1018  0.1867  0.4763
   60DMSO    SD  237   2.911   0.890   2.116 -0.0448 -0.0803 -0.1156
   60DMSO   CD1  238   2.776   0.886   2.236 -0.2558  0.1268 -0.3428
   60DMSO    OD  239   3.031   0.952   2.187 -0.1888  0.1024 -0.0362
   60DMSO   CD2  240   2.941   0.713   2.109  0.0305 -0.0796  0.3052
   61DMSO    SD  241   0.824   0.525   1.926  0.0672  0.3190  0.0110
   61DMSO   CD1  242   0.720   0.426   1.818  0.0689  0.2869  0.0302
   61DMSO    OD  243   0.821   0.457   2.063  0.2249  0.2142 -0.0226
   61DMSO   CD2  244   0.982   0.483   1.851  0.0407  0.5117 -0.1457
   62DMSO    SD  245   0.697   1.171   0.914 -0.1074  0.4615 -0.2514
   62DMSO   CD1  246   0.667   1.084   1.069  0.3244 -0.0707 -0.4741
   62DMSO    OD  247   0.570   1.251   0.883 -0.3416  0.2575  0.1984
   62DMSO   CD2  248   0.818   1.288   0.976 -0.2705  0.5560 -0.0696
   63DMSO    SD  249   2.959   2.711   0.175 -0.0119 -0.0343  0.0229
   63DMSO   CD1  250   3.011   2.850   0.073 -0.2449 -0.1438 -0.2470
   63DMSO    OD  251   3.072   2.607   0.169  0.1647  0.1311  0.2247
   63DMSO   CD2  252   2.973   2.793   0.335 -0.1488  0.3080 -0.1135
   64DMSO    SD  253   1.774   1.259   2.741  0.1843 -0.0709  0.2208
   64DMSO   CD1  254   1.802   1.424   2.675  0.3268 -0.2344 -0.1295
   64DMSO    OD  255   1.636   1.262   2.808  0.2174  0.2104  0.2763
   64DMSO   CD2  256   1.754   1.174   2.584  0.0260 -0.3856  0.4063
   65DMSO    SD  257   2.419   1.872   1.406  0.3195  0.1990  0.0242
   65DMSO   CD1  258   2.322   1.725   1.441  0.0288  0.4033  0.1203
   65DMSO    OD  259   2.450   1.870   1.257  0.4709 -0.0516  0.0625
   65DMSO   CD2  260   2.287   1.993   1.430  0.5124  0.4460 -0.2506
   66DMSO    SD  261   2.110   1.309   0.036 -0.1962  0.0944 -0.1197
   66DMSO   CD1  262   1.975   1.201  -0.015 -0.3835  0.1723  0.1693
   66DMSO    OD  263   2.105   1.432  -0.056 -0.1428 -0.0387 -0.3009
   66DMSO   CD2  264   2.040   1.360   0.194 -0.0041  0.4201 -0.1254
   67DMSO    SD  265   0.719   3.036   0.017  0.1293 -0.0639  0.1941
   67DMSO   CD1  266   0.704   2.933   0.164  0.1432 -0.2699  0.0613
   67DMSO    OD  267   0.647   2.962  -0.096 -0.0103  0.1805  0.1342
   67DMSO   CD2  268   0.609   3.168   0.070  0.3064 -0.0281  0.4724
   68DMSO    SD  269   1.113   2.261   2.554  0.1776  0.1686 -0.0043
   68DMSO   CD1  270   1.221   2.313   2.688 -0.2189 -0.2267  0.4694
   68DMSO    OD  271   1.148   2.116   2.522  0.1333  0.2058 -0.1903
   68DMSO   CD2  272   0.959   2.259   2.647 -0.1546  0.1459 -0.5445
   69DMSO    SD  273   1.755   0.646   1.549  0.0780  0.3931 -0.0055
   69DMSO   CD1  274   1.578   0.613   1.551  0.1146  0.1964  0.1868
   69DMSO    OD  275   1.780   0.759   1.650  0.0535  0.4635 -0.0401
   69DMSO   CD2  276   1.808   0.493   1.627  0.3351  0.4657 -0.0181
   70DMSO    SD  277   0.882   0.419   0.039  0.2378  0.3694  0.0416
   70DMSO   CD1  278   0.969   0.267   0.082  0.0576  0.2301 -0.1454
   70DMSO    OD  279   0.737   0.401   0.085  0.1630  0.3757 -0.2249
   70DMSO   CD2  280   0.962   0.526   0.159  0.1338  0.0637  0.4065
   71DMSO    SD  281   0.199  -0.010   2.704 -0.3255  0.5717  0.1922
   71DMSO   CD1  282   0.376   0.027   2.700 -0.3225  0.6292  0.7808
   71DMSO    OD  283   0.127   0.117   2.657 -0.2291  0.6831  0.3314
   71DMSO   CD2  284   0.197  -0.125   2.566  0.0852  0.9689 -0.1492
   72DMSO    SD  285   0.949   2.622   1.794  0.0337 -0.2363 -0.0164
   72DMSO   CD1  286   1.107   2.679   1.728 -0.1212 -0.1652 -0.3041
   72DMSO    OD  287   0.862   2.585   1.673 -0.0526 -0.5984  0.1735
   72DMSO   CD2  288   1.008   2.467   1.864  0.3160 -0.0036  0.2387
   73DMSO    SD  289   3.004   1.272   2.402  0.2091  0.0613 -0.0474
   73DMSO   CD1  290   2.915   1.240   2.249 -0.2201  0.3343  0.1574
   73DMSO    OD  291   2.912   1.358   2.489  0.5755  0.1299  0.2747
   73DMSO   CD2  292   2.997   1.105   2.468  0.1163  0.0045 -0.1848
   74DMSO    SD  293   0.496   1.509   1.107 -0.0092  0.0279 -0.0558
   74DMSO   CD1  294   0.447   1.657   1.198  0.2637  0.1886 -0.1466
   74DMSO    OD  295   0.401   1.397   1.151  0.1308  0.0935  0.4544
   74DMSO   CD2  296   0.442   1.562   0.944 -0.5410 -0.2807  0.0268
   75DMSO    SD  297   2.397   1.026   2.177  0.1631 -0.4743 -0.3710
   75DMSO   CD1  298   2.368   1.003   2.001 -0.1955 -0.3938 -0.3300
   75DMSO    OD  299   2.260   1.040   2.243  0.2887 -0.6251 -0.0825
   75DMSO   CD2  300   2.455   0.860   2.212  0.3600 -0.4753 -0.5908
   76DMSO    SD  301   1.780   2.604   1.581  0.1904 -0.2134 -0.0789
   76DMSO   CD1  302   1.714   2.679   1.432  0.4122  0.1945  0.0137
   76DMSO    OD  303   1.690   2.484   1.614 -0.2069  0.0541 -0.2071
   76DMSO   CD2  304   1.931   2.538   1.509 -0.0606 -0.6244 -0.1801
   77DMSO    SD  305   1.682   2.123   0.406 -0.3989  0.0772 -0.1359
   77DMSO   CD1  306   1.787   1.985   0.359  0.0901  0.3191  0.2109
   77DMSO    OD  307   1.573   2.135   0.299 -0.5507 -0.6769 -0.0505
   77DMSO   CD2  308   1.605   2.046   0.549  0.0370  0.2623  0.1892
   78DMSO    SD  309   1.314   0.807   1.327 -0.3686 -0.2091  0.0428
   78DMSO   CD1  310   1.153   0.755   1.268 -0.2875 -0.2715 -0.1037
   78DMSO    OD  311   1.417   0.715   1.262 -0.2877 -0.2485  0.2376
   78DMSO   CD2  312   1.321   0.964   1.240 -0.2993 -0.2832 -0.0678
   79DMSO    SD  313   1.483   0.046   2.447 -0.0061 -0.0709  0.3335
   79DMSO   CD1  314   1.589   0.029   2.591  0.1705 -0.5929  0.1292
   79DMSO    OD  315   1.512   0.184   2.387  0.1121  0.0420  0.6335
   79DMSO   CD2  316   1.566  -0.074   2.342 -0.3395  0.0732 -0.0913
   80DMSO    SD  317   0.431   0.889   2.395 -0.0110  0.3549  0.0098
   80DMSO   CD1  318   0.267   0.948   2.351  0.0246  0.2421 -0.2246
   80DMSO    OD  319   0.527   1.007   2.375 -0.1146  0.5218  0.5107
   80DMSO   CD2  320   0.404   0.874   2.572 -0.3822 -0.1081 -0.0865
   81DMSO    SD  321   2.989   1.202   0.462 -0.1533 -0.0157  0.0482
   81DMSO   CD1  322   2.968   1.308   0.318  0.1409  0.8217  0.5976
   81DMSO    OD  323   2.852   1.142   0.493 -0.1996 -0.3014 -0.6457
   81DMSO   CD2  324   3.086   1.073   0.382  0.1254  0.5075 -0.4869
   82DMSO    SD  325   0.011   2.398   0.494  0.0398 -0.5293 -0.0241
   82DMSO   CD1  326  -0.030   2.358   0.323  0.1127 -0.4141 -0.0547
   82DMSO    OD  327   0.073   2.272   0.555  0.0496 -0.5631 -0.1032
   82DMSO   CD2  328   0.146   2.511   0.460  0.0152 -0.4611  0.1058
   83DMSO    SD  329   2.051   2.333   1.220  0.2186 -0.1009  0.3802
   83DMSO   CD1  330   1.886   2.261   1.214  0.3077 -0.3109 -0.0852
   83DMSO    OD  331   2.119   2.278   1.345  0.0019 -0.1948  0.4748
   83DMSO   CD2  332   2.121   2.243   1.080  0.6411  0.1857  0.4030
   84DMSO    SD  333   0.054   2.445   2.091 -0.0952  0.0141 -0.2596
   84DMSO   CD1  334  -0.084   2.547   2.036 -0.0549 -0.0160 -0.4077
   84DMSO    OD  335   0.097   2.499   2.227 -0.0630  0.2437 -0.3459
   84DMSO   CD2  336  -0.040   2.295   2.122 -0.1453  0.1228  0.0122
   85DMSO    SD  337   0.062   0.718   2.644  0.1687  0.1243  0.2000
   85DMSO   CD1  338  -0.057   0.690   2.511  0.3687 -0.1591  0.0868
   85DMSO    OD  339   0.059   0.868   2.675 -0.3928  0.0877  0.3657
   85DMSO   CD2  340  -0.031   0.637   2.775  0.3847 -0.3719  0.0417
   86DMSO    SD  341   0.109   0.693   0.443 -0.0681 -0.3099 -0.1493
   86DMSO   CD1  342   0.196   0.553   0.515 -0.1441 -0.4646 -0.3773
   86DMSO    OD  343   0.170   0.819   0.506 -0.1240 -0.4656  0.1506
   86DMSO   CD2  344   0.178   0.681   0.277  0.0555  0.0172 -0.1139
   87DMSO    SD  345   1.154   3.050   0.064 -0.0217 -0.0680 -0.4219
   87DMSO   CD1  346   1.093   2.900  -0.015 -0.0031 -0.1569 -0.2493
   87DMSO    OD  347   1.066   3.073   0.187  0.1175 -0.0637 -0.3195
   87DMSO   CD2  348   1.310   2.982   0.124  0.0876  0.0963 -0.5752
   88DMSO    SD  349   2.084   0.988   2.517  0.3819  0.4356 -0.0420
   88DMSO   CD1  350   1.950   0.869   2.501  0.1582  0.7635 -0.5269
   88DMSO    OD  351   2.079   1.041   2.661  0.2437  0.1464  0.0772
   88DMSO   CD2  352   2.220   0.871   2.508  0.1340  0.1634 -0.0396
   89DMSO    SD  353   1.867   0.141   0.260  0.0960  0.0426  0.1127
   89DMSO   CD1  354   1.797   0.290   0.333  0.4574  0.0842  0.3365
   89DMSO    OD  355   1.974   0.090   0.356  0.3170 -0.0835 -0.1957
   89DMSO   CD2  356   1.723   0.035   0.281  0.0542  0.1835  0.5191
   90DMSO    SD  357   2.817   1.641   0.161 -0.3400  0.0195  0.0382
   90DMSO   CD1  358   2.895   1.772   0.064  0.0434  0.1279  0.4859
   90DMSO    OD  359   2.894   1.632   0.292 -0.3560 -0.6378  0.0131
   90DMSO   CD2  360   2.664   1.728   0.197 -0.0865  0.3313  0.3115
   91DMSO    SD  361   1.870   1.206   2.229 -0.4503  0.2328 -0.2394
   91DMSO   CD1  362   2.036   1.229   2.166 -0.5453  0.2022 -0.4854
   91DMSO    OD  363   1.847   1.315   2.334 -0.1903  0.0857 -0.0501
   91DMSO   CD2  364   1.781   1.257   2.081 -0.6754  0.4841 -0.0343
   92DMSO    SD  365   2.860   0.967   3.109 -0.2692 -0.0278 -0.3807
   92DMSO   CD1  366   2.844   1.146   3.106 -0.2620 -0.0104 -0.0870
   92DMSO    OD  367   2.998   0.936   3.168 -0.2615 -0.1264 -0.4400
   92DMSO   CD2  368   2.874   0.943   2.931 -0.2966  0.2630 -0.4272
   93DMSO    SD  369   1.616   2.824   1.879  0.0652 -0.2890 -0.3446
   93DMSO   CD1  370   1.455   2.833   1.798  0.1651 -0.5245 -0.5287
   93DMSO    OD  371   1.602   2.897   2.013 -0.1470 -0.1555 -0.4449
   93DMSO   CD2  372   1.614   2.648   1.916  0.1955 -0.2515 -0.1549
   94DMSO    SD  373   1.276   2.933   0.749 -0.1577  0.1276 -0.0264
   94DMSO   CD1  374   1.360   2.907   0.907 -0.5661  0.0703  0.1919
   94DMSO    OD  375   1.363   3.029   0.668 -0.0970  0.4060  0.3768
   94DMSO   CD2  376   1.303   2.769   0.681  0.3226  0.2646 -0.1749
   95DMSO    SD  377   0.339   1.216   1.989  0.3310 -0.0229 -0.0520
   95DMSO   CD1  378   0.230   1.325   2.081  0.6181  0.1286  0.1016
   95DMSO    OD  379   0.272   1.190   1.854  0.1551  0.1441  0.0160
   95DMSO   CD2  380   0.471   1.335   1.958  0.5156 -0.2290 -0.1392
   96DMSO    SD  381  -0.025   2.152   0.961  0.2586  0.3426  0.3415
   96DMSO   CD1  382  -0.023   2.116   0.785 -0.0710  0.5722  0.3007
   96DMSO    OD  383   0.084   2.065   1.026  0.2565  0.1554  0.0651
   96DMSO   CD2  384   0.041   2.319   0.951  0.4433  0.2892  0.4593
   97DMSO    SD  385   2.170   1.065   0.430  0.2832  0.0031 -0.0965
   97DMSO   CD1  386   2.248   0.928   0.516 -0.0420 -0.1457 -0.0490
   97DMSO    OD  387   2.034   1.087   0.497  0.3552  0.3772 -0.0774
   97DMSO   CD2  388   2.279   1.195   0.489  0.6177 -0.2316 -0.1774
   98DMSO    SD  389   0.521   0.087   2.283 -0.2718 -0.0821 -0.0641
   98DMSO   CD1  390   0.652   0.180   2.201 -0.4240  0.1798  0.0081
   98DMSO    OD  391   0.407   0.073   2.182 -0.2361 -0.2240 -0.0832
   98DMSO   CD2  392   0.605  -0.072   2.289 -0.0062  0.0428 -0.1502
   99DMSO    SD  393   1.510   1.033   0.250 -0.5095 -0.0187  0.1938
   99DMSO   CD1  394   1.370   1.145   0.241 -0.8184 -0.4481 -0.2659
   99DMSO    OD  395   1.529   0.973   0.110 -0.0511 -0.2035  0.3317
   99DMSO   CD2  396   1.639   1.157   0.271 -0.8953  0.3753  0.2376
  100DMSO    SD  397   0.089   0.134   0.732  0.0576  0.1119  0.2368
  100DMSO   CD1  398   0.005   0.153   0.574 -0.0170 -0.3366  0.2004
  100DMSO    OD  399   0.218   0.216   0.724 -0.0671  0.2835  0.0439
  100DMSO   CD2  400  -0.027   0.229   0.832 -0.0779  0.1521  0.0697
  101DMSO    SD  401   0.162   1.067   1.121  0.0007  0.0724 -0.1042
  101DMSO   CD1  402   0.241   1.174   1.000  0.0830 -0.1476 -0.2350
  101DMSO    OD  403   0.056   0.986   1.046  0.0058  0.0045 -0.0345
  101DMSO   CD2  404   0.301   0.956   1.149 -0.0448  0.0595  0.1240
  102DMSO    SD  405   0.899   0.664   2.307 -0.2063  0.1688 -0.3135
  102DMSO   CD1  406   0.957   0.783   2.186 -0.1672  0.2128 -0.2642
  102DMSO    OD  407   1.017   0.634   2.399 -0.1960  0.0588 -0.3328
  102DMSO   CD2  408   0.790   0.775   2.398 -0.1403  0.1799 -0.2205
  103DMSO    SD  409   2.384   2.657   2.303 -0.2906 -0.0477  0.0012
  103DMSO   CD1  410   2.454   2.492   2.314  0.1111  0.1032 -0.4303
  103DMSO    OD  411   2.232   2.641   2.297 -0.2639 -0.3879  0.3166
  103DMSO   CD2  412   2.424   2.710   2.471 -0.0343 -0.2358 -0.0074
  104DMSO    SD  413   0.323   0.522   1.053 -0.0663 -0.3074 -0.2581
  104DMSO   CD1  414   0.175   0.512   1.155 -0.4271  0.7250 -0.6428
  104DMSO    OD  415   0.441   0.539   1.148 -0.2289 -0.8923  0.0294
  104DMSO   CD2  416   0.325   0.350   0.998 -0.9745 -0.3830 -0.0029
  105DMSO    SD  417   0.755   1.063   1.996 -0.0060  0.0138 -0.0980
  105DMSO   CD1  418   0.927   1.110   1.974  0.0209 -0.2575 -0.4005
  105DMSO    OD  419   0.754   0.911   2.019 -0.1730  0.0402  0.1166
  105DMSO   CD2  420   0.731   1.140   2.157  0.3124  0.2875 -0.1674
  106DMSO    SD  421   0.818   3.007   1.804 -0.0938  0.0257  0.0566
  106DMSO   CD1  422   0.951   3.128   1.800 -0.1631  0.1001  0.5962
  106DMSO    OD  423   0.826   2.938   1.940 -0.2761 -0.3281 -0.1203
  106DMSO   CD2  424   0.681   3.123   1.812 -0.1623 -0.0815  0.1352
  107DMSO    SD  425   0.854   2.903   1.452  0.2725  0.0739 -0.1909
  107DMSO   CD1  426   0.902   2.823   1.298  0.2986  0.8070 -0.5516
  107DMSO    OD  427   0.941   3.027   1.467 -0.0879  0.2818  0.1687
  107DMSO   CD2  428   0.691   2.959   1.399  0.0144 -0.1900  0.2432
  108DMSO    SD  429   0.073   2.563   1.328  0.2610 -0.1109  0.3952
  108DMSO   CD1  430  -0.012   2.406   1.304 -0.0723  0.0763  0.2276
  108DMSO    OD  431   0.058   2.641   1.198  0.6041 -0.0403  0.3878
  108DMSO   CD2  432  -0.043   2.634   1.445  0.2517  0.1326  0.2569
  109DMSO    SD  433   3.112   2.567   2.578  0.0253 -0.1686 -0.1490
  109DMSO   CD1  434   2.957   2.601   2.494 -0.0200 -0.1271 -0.0720
  109DMSO    OD  435   3.120   2.663   2.697  0.3068  0.1230 -0.4067
  109DMSO   CD2  436   3.068   2.405   2.644 -0.1957  0.0489  0.3126
  110DMSO    SD  437   2.828   1.756   1.620  0.2224  0.1138  0.1869
  110DMSO   CD1  438   2.726   1.625   1.550 -0.0718  0.3781  0.0998
  110DMSO    OD  439   2.864   1.712   1.762  0.0117  0.0077  0.2053
  110DMSO   CD2  440   2.974   1.729   1.518  0.2365 -0.2511  0.2717
  111DMSO    SD  441   2.124   3.101   3.034 -0.2823  0.2663 -0.2806
  111DMSO   CD1  442   2.036   2.945   3.057 -0.0784  0.0341 -1.0834
  111DMSO    OD  443   2.272   3.066   3.022 -0.2041  0.5453 -0.2081
  111DMSO   CD2  444   2.065   3.136   2.868 -0.0863  0.9015 -0.1979
  112DMSO    SD  445   2.715   2.632   1.207  0.4349  0.2942 -0.0094
  112DMSO   CD1  446   2.585   2.511   1.175  0.6185  0.1242 -0.1345
  112DMSO    OD  447   2.701   2.742   1.102  0.3850  0.2632 -0.0492
  112DMSO   CD2  448   2.647   2.699   1.360  0.2003  0.2170 -0.0943
  113DMSO    SD  449   1.352   1.894   2.326 -0.3675 -0.2205  0.1354
  113DMSO   CD1  450   1.179   1.888   2.278 -0.3018  0.1237 -0.1295
  113DMSO    OD  451   1.406   1.751   2.316 -0.4996 -0.2512 -0.2234
  113DMSO   CD2  452   1.413   1.982   2.180 -0.0565  0.1669  0.4866
  114DMSO    SD  453   2.713   2.136   1.325 -0.3827  0.1326 -0.2556
  114DMSO   CD1  454   2.845   2.062   1.227 -0.0038 -0.2370  0.4888
  114DMSO    OD  455   2.749   2.284   1.342 -0.2742  0.1106 -0.3999
  114DMSO   CD2  456   2.584   2.128   1.200  0.1986  0.0346 -0.8345
  115DMSO    SD  457   2.834   0.338   2.344 -0.0148 -0.2032 -0.2215
  115DMSO   CD1  458   2.858   0.319   2.521 -0.0935  0.0906 -0.1707
  115DMSO    OD  459   2.823   0.488   2.317 -0.1459 -0.2555 -0.4652
  115DMSO   CD2  460   3.000   0.288   2.293  0.0725 -0.1170 -0.0448
  116DMSO    SD  461   0.865   2.658   2.713  0.1000 -0.0908  0.3283
  116DMSO   CD1  462   0.732   2.778   2.694  0.4699  0.2015 -0.5171
  116DMSO    OD  463   0.983   2.732   2.775  0.1492 -0.1450  0.2670
  116DMSO   CD2  464   0.789   2.560   2.844 -0.5080  0.6964  0.5910
  117DMSO    SD  465   1.369   1.886   2.952 -0.0471 -0.3120  0.3009
  117DMSO   CD1  466   1.425   2.027   3.049  0.2021 -0.1075 -0.1402
  117DMSO    OD  467   1.277   1.804   3.044 -0.2377  0.1574  0.5293
  117DMSO   CD2  468   1.262   1.976   2.839  0.1564 -0.4531 -0.0272
  118DMSO    SD  469   1.320   0.260   0.335  0.1886  0.4791 -0.0106
  118DMSO   CD1  470   1.303   0.431   0.387  0.5736  0.3087  0.6114
  118DMSO    OD  471   1.435   0.255   0.234  0.1150  0.5782 -0.0989
  118DMSO   CD2  472   1.383   0.194   0.490  0.1605 -0.2252 -0.2771
  119DMSO    SD  473   0.427   1.694   1.783  0.0131 -0.4742  0.3498
  119DMSO   CD1  474   0.580   1.744   1.863  0.0027 -0.6366  0.4764
  119DMSO    OD  475   0.354   1.601   1.880 -0.3251 -0.1309  0.4206
  119DMSO   CD2  476   0.342   1.853   1.792  0.3286 -0.2641 -0.0674
  120DMSO    SD  477   3.034   0.480   1.537  0.1342  0.2517 -0.1050
  120DMSO   CD1  478   3.072   0.370   1.675  0.0117  0.4989  0.0991
  120DMSO    OD  479   3.130   0.444   1.424  0.2704  0.1189  0.0618
  120DMSO   CD2  480   2.874   0.409   1.494  0.2058  0.1270 -0.1589
  121DMSO    SD  481   1.151   0.387   2.184 -0.0846  0.0159  0.0207
  121DMSO   CD1  482   1.273   0.369   2.315  0.1411  0.5768 -0.1056
  121DMSO    OD  483   1.212   0.324   2.058 -0.0817 -0.0334  0.0591
  121DMSO   CD2  484   1.030   0.269   2.248  0.3252 -0.2084  0.3796
  122DMSO    SD  485   2.751   1.241   0.915  0.0377 -0.2580 -0.1655
  122DMSO   CD1  486   2.687   1.160   0.768  0.7677 -0.2190 -0.5138
  122DMSO    OD  487   2.670   1.189   1.033 -0.3476 -0.5099 -0.5486
  122DMSO   CD2  488   2.910   1.156   0.920  0.1493 -0.0048  0.3749
  123DMSO    SD  489   0.855   1.670   1.329  0.0343  0.0514  0.0963
  123DMSO   CD1  490   0.755   1.819   1.343  0.0390  0.0203  0.4234
  123DMSO    OD  491   0.931   1.680   1.197 -0.0284  0.3024  0.0502
  123DMSO   CD2  492   0.973   1.709   1.460  0.1163 -0.1944  0.1072
  124DMSO    SD  493   1.437   2.811   2.733 -0.0296  0.0396 -0.3245
  124DMSO   CD1  494   1.340   2.673   2.795  0.1862  0.1798  0.2983
  124DMSO    OD  495   1.361   2.938   2.770  0.2197  0.1211 -0.1278
  124DMSO   CD2  496   1.575   2.796   2.847  0.5188  0.0982 -0.9325
  125DMSO    SD  497   2.155   2.914   0.572  0.3498  0.2935  0.1896
  125DMSO   CD1  498   2.207   3.027   0.442  0.4799  0.3736  0.3233
  125DMSO    OD  499   2.272   2.903   0.671  0.1764  0.4244  0.4233
  125DMSO   CD2  500   2.033   3.022   0.649  0.0441  0.1156 -0.0358
  126DMSO    SD  501   2.309   1.451   0.840  0.2499 -0.0171 -0.1621
  126DMSO   CD1  502   2.302   1.277   0.888 -0.2868  0.2133  0.5434
  126DMSO    OD  503   2.165   1.498   0.822  0.4060  0.3006 -0.6307
  126DMSO   CD2  504   2.366   1.516   0.998  0.1032  0.5153 -0.3286
  127DMSO    SD  505   2.236   2.925   1.560  0.2570 -0.1500  0.1634
  127DMSO   CD1  506   2.257   3.067   1.451 -0.1221  0.0968  0.3876
  127DMSO    OD  507   2.189   2.809   1.472  0.2718 -0.0441  0.0212
  127DMSO   CD2  508   2.410   2.896   1.596  0.3469  0.0136 -0.1746
  128DMSO    SD  509   0.314   0.519   2.867 -0.2936 -0.1927 -0.2060
  128DMSO   CD1  510   0.227   0.363   2.886 -0.1324 -0.2482  0.2215
  128DMSO    OD  511   0.255   0.615   2.970  0.0408 -0.1723 -0.0184
  128DMSO   CD2  512   0.473   0.465   2.931 -0.0111 -0.0687 -0.7925
  129DMSO    SD  513   0.866   1.563   0.452 -0.3346 -0.1630  0.0351
  129DMSO   CD1  514   0.889   1.449   0.589 -0.6641 -0.3938 -0.1003
  129DMSO    OD  515   0.779   1.491   0.349 -0.1976  0.0783 -0.2423
  129DMSO   CD2  516   0.760   1.681   0.537 -0.3867 -0.2234  0.0220
  130DMSO    SD  517   1.704   0.184   2.965 -0.3417 -0.2760  0.0498
  130DMSO   CD1  518   1.636   0.305   3.078 -0.5909 -0.3085 -0.0527
  130DMSO    OD  519   1.799   0.095   3.046 -0.5041 -0.2846  0.2294
  130DMSO   CD2  520   1.553   0.089   2.939 -0.2738 -0.2870 -0.3066
  131DMSO    SD  521   2.047   0.714   2.128 -0.1349 -0.1000  0.1147
  131DMSO   CD1  522   1.944   0.630   2.007 -0.2713  0.2578 -0.0114
  131DMSO    OD  523   2.191   0.705   2.077 -0.1466 -0.1818  0.0613
  131DMSO   CD2  524   1.990   0.882   2.094  0.0596  0.0277  0.4396
  132DMSO    SD  525   1.795   0.733   0.082  0.0966 -0.0783 -0.2966
  132DMSO   CD1  526   1.877   0.859   0.182 -0.2360  0.0559 -0.1692
  132DMSO    OD  527   1.889   0.614   0.075  0.1553 -0.0423  0.0817
  132DMSO   CD2  528   1.666   0.691   0.200 -0.2285 -0.0064 -0.6504
  133DMSO    SD  529   1.655   1.133   1.667  0.2269  0.0601 -0.2247
  133DMSO   CD1  530   1.515   1.135   1.553  0.1495  0.4348 -0.1223
  133DMSO    OD  531   1.768   1.210   1.598  0.3473 -0.1402 -0.2761
  133DMSO   CD2  532   1.585   1.245   1.790  0.5417  0.1402 -0.1130
  134DMSO    SD  533   0.935   1.536   1.963  0.0243  0.1498  0.1189
  134DMSO   CD1  534   0.896   1.700   2.025  0.0085  0.0684  0.3710
  134DMSO    OD  535   0.820   1.444   2.005  0.1231  0.0424  0.1163
  134DMSO   CD2  536   0.911   1.571   1.788 -0.1884  0.3806  0.2016
  135DMSO    SD  537   2.120   2.481   0.326 -0.0916 -0.4001  0.0365
  135DMSO   CD1  538   1.949   2.530   0.353  0.1297  0.1421  0.4335
  135DMSO    OD  539   2.172   2.565   0.209 -0.0007 -0.3352  0.1076
  135DMSO   CD2  540   2.188   2.552   0.476  0.4201 -0.9265  0.0573
  136DMSO    SD  541   1.721   2.198   2.272  0.0411  0.0813  0.0956
  136DMSO   CD1  542   1.867   2.302   2.257  0.2755 -0.2523  0.2339
  136DMSO    OD  543   1.607   2.270   2.200  0.2508  0.3984  0.0584
  136DMSO   CD2  544   1.776   2.065   2.164 -0.2065  0.0145  0.0758
  137DMSO    SD  545   0.990   1.060   3.006 -0.0010 -0.1215  0.0680
  137DMSO   CD1  546   1.153   1.134   2.982  0.1547 -0.3499  0.3564
  137DMSO    OD  547   0.955   0.989   2.875  0.0752  0.0476 -0.0513
  137DMSO   CD2  548   1.040   0.932   3.122 -0.3753 -0.3161  0.0334
  138DMSO    SD  549   3.037   2.652   0.787 -0.3135  0.1469 -0.1641
  138DMSO   CD1  550   2.893   2.637   0.894 -0.2105  0.4191  0.0291
  138DMSO    OD  551   2.985   2.689   0.648 -0.4158  0.3390 -0.0718
  138DMSO   CD2  552   3.104   2.802   0.860  0.1121 -0.0427 -0.1653
  139DMSO    SD  553   2.671   0.532   1.057  0.1342 -0.3958  0.0192
  139DMSO   CD1  554   2.807   0.441   1.132  0.2158 -0.5148 -0.2592
  139DMSO    OD  555   2.633   0.457   0.929 -0.0160 -0.2333 -0.0237
  139DMSO   CD2  556   2.545   0.492   1.179  0.2654 -0.5482  0.1217
  140DMSO    SD  557   2.239   0.312   1.702 -0.0706  0.1195  0.0300
  140DMSO   CD1  558   2.399   0.302   1.621 -0.0210 -0.2146  0.1807
  140DMSO    OD  559   2.183   0.170   1.708 -0.5512  0.2775 -0.3479
  140DMSO   CD2  560   2.298   0.353   1.867 -0.0982 -0.4543  0.1779
  141DMSO    SD  561   0.843   2.942   0.767 -0.0395 -0.1967 -0.0855
  141DMSO   CD1  562   0.792   2.847   0.911 -0.5590 -0.2329 -0.3087
  141DMSO    OD  563   0.965   2.871   0.708  0.0332 -0.3076  0.1867
  141DMSO   CD2  564   0.703   2.901   0.661  0.1864  0.0901 -0.4969
  142DMSO    SD  565   2.644   0.792   0.396 -0.3374  0.1765 -0.1170
  142DMSO   CD1  566   2.595   0.966   0.390 -0.2236  0.2097 -0.0774
  142DMSO    OD  567   2.642   0.741   0.252 -0.4089  0.2024 -0.1250
  142DMSO   CD2  568   2.816   0.818   0.440 -0.3006  0.0457 -0.1456
  143DMSO    SD  569   2.084   1.598   2.259 -0.2305 -0.0689  0.2320
  143DMSO   CD1  570   2.259   1.615   2.224 -0.2890  0.2247  0.1097
  143DMSO    OD  571   2.034   1.736   2.303 -0.3746 -0.2124  0.5679
  143DMSO   CD2  572   2.099   1.498   2.408  0.0212 -0.3442  0.0203
  144DMSO    SD  573   0.919   2.255   1.464 -0.2676  0.1862  0.1335
  144DMSO   CD1  574   0.857   2.391   1.363 -0.0063  0.1082 -0.1364
  144DMSO    OD  575   0.850   2.128   1.415 -0.0297  0.1368 -0.0347
  144DMSO   CD2  576   1.087   2.252   1.398 -0.0392  0.2513  0.7133
  145DMSO    SD  577   1.460   2.123   1.757  0.2438 -0.2394 -0.1562
  145DMSO   CD1  578   1.522   2.150   1.590  0.4096  0.0398 -0.0410
  145DMSO    OD  579   1.581   2.085   1.843  0.2940  0.4127  0.0638
  145DMSO   CD2  580   1.420   2.294   1.795 -0.6964 -0.4432 -0.2743
  146DMSO    SD  581   0.594   2.099   2.381  0.2139  0.1659  0.1712
  146DMSO   CD1  582   0.602   2.010   2.538  0.4187  0.3624  0.2809
  146DMSO    OD  583   0.573   2.247   2.415  0.3971  0.2360  0.0105
  146DMSO   CD2  584   0.766   2.080   2.334  0.1336 -0.0351 -0.1132
  147DMSO    SD  585   2.598   0.747   1.874 -0.2296 -0.0880 -0.1794
  147DMSO   CD1  586   2.454   0.679   1.789 -0.1030 -0.3688 -0.1611
  147DMSO    OD  587   2.630   0.652   1.990 -0.0668 -0.0132 -0.1445
  147DMSO   CD2  588   2.719   0.712   1.744 -0.1752  0.0981 -0.1695
  148DMSO    SD  589   1.573   1.499   0.393  0.6052  0.0151  0.1447
  148DMSO   CD1  590   1.435   1.452   0.499  0.8864 -0.2184  0.4256
  148DMSO    OD  591   1.535   1.457   0.251  0.3262  0.0926  0.2010
  148DMSO   CD2  592   1.550   1.677   0.403  0.4572 -0.0181  0.3397
  149DMSO    SD  593   0.186   0.315   2.053 -0.1501 -0.2211 -0.0596
  149DMSO   CD1  594   0.179   0.493   2.079  0.0475 -0.1658 -0.3698
  149DMSO    OD  595   0.076   0.280   1.954 -0.1404 -0.2731 -0.0492
  149DMSO   CD2  596   0.341   0.312   1.962 -0.1056 -0.5483  0.0058
  150DMSO    SD  597   2.630   1.263   1.367  0.1163  0.0155 -0.0490
  150DMSO   CD1  598   2.794   1.336   1.359  0.1891 -0.1025  0.1670
  150DMSO    OD  599   2.582   1.276   1.511 -0.0489  0.0105 -0.1020
  150DMSO   CD2  600   2.544   1.388   1.271  0.3140  0.0968 -0.1205
  151DMSO    SD  601   2.173   2.515   2.812  0.0849 -0.0486 -0.1154
  151DMSO   CD1  602   2.206   2.691   2.798  0.2110 -0.1028 -0.6235
  151DMSO    OD  603   2.309   2.445   2.821  0.0288 -0.1020  0.2992
  151DMSO   CD2  604   2.105   2.517   2.979 -0.1390  0.5250 -0.2148
  152DMSO    SD  605   1.705   2.768   0.517 -0.1260  0.2229 -0.2433
  152DMSO   CD1  606   1.665   2.904   0.628 -0.4207 -0.2308  0.2119
  152DMSO    OD  607   1.833   2.807   0.443 -0.2607  0.7892 -0.1800
  152DMSO   CD2  608   1.569   2.791   0.402 -0.2413  0.2768 -0.1161
  153DMSO    SD  609   1.607   1.781   0.827 -0.1924 -0.0508 -0.0771
  153DMSO   CD1  610   1.676   1.924   0.912 -0.1394 -0.1359 -0.0133
  153DMSO    OD  611   1.645   1.794   0.679 -0.1427 -0.0267 -0.0592
  153DMSO   CD2  612   1.718   1.657   0.897 -0.3011 -0.1560 -0.0730
  154DMSO    SD  613   0.158   2.040   2.525 -0.0948  0.1357  0.0105
  154DMSO   CD1  614   0.269   1.903   2.490 -0.4815 -0.1819  0.0544
  154DMSO    OD  615   0.217   2.116   2.645 -0.0612 -0.1745  0.1893
  154DMSO   CD2  616   0.195   2.139   2.379  0.4539  0.1914  0.1743
  155DMSO    SD  617   2.268   0.898   0.009 -0.1023  0.0038 -0.1292
  155DMSO   CD1  618   2.386   0.769   0.051 -0.4826 -0.4195 -0.2950
  155DMSO    OD  619   2.253   0.986   0.134  0.0968 -0.1636  0.0264
  155DMSO   CD2  620   2.371   0.988  -0.107  0.2050 -0.0715  0.0847
  156DMSO    SD  621   0.431   1.947   0.586  0.0569  0.1651  0.0948
  156DMSO   CD1  622   0.263   1.959   0.650  0.0792  0.0921  0.1978
  156DMSO    OD  623   0.515   2.048   0.663  0.1214 -0.0176  0.2887
  156DMSO   CD2  624   0.470   1.785   0.655  0.0372 -0.0060 -0.2606
  157DMSO    SD  625   2.739   1.654   1.057  0.0911  0.1929 -0.0023
  157DMSO   CD1  626   2.848   1.715   0.928  0.1667  0.0179 -0.0174
  157DMSO    OD  627   2.805   1.690   1.191  0.0784  0.3159 -0.0241
  157DMSO   CD2  628   2.605   1.771   1.032  0.1414  0.2154 -0.1678
  158DMSO    SD  629   0.830   0.558   0.983  0.0132 -0.3744  0.1163
  158DMSO   CD1  630   0.732   0.674   1.079 -0.1459 -0.4685  0.0448
  158DMSO    OD  631   0.953   0.523   1.069  0.0421 -0.1718  0.1593
  158DMSO   CD2  632   0.718   0.418   0.994  0.2137 -0.5150  0.1707
  159DMSO    SD  633   2.081   0.619   2.856  0.0217  0.1153 -0.0453
  159DMSO   CD1  634   1.952   0.494   2.859  0.0244  0.1125 -0.0539
  159DMSO    OD  635   2.145   0.613   2.718  0.4342 -0.2859  0.1628
  159DMSO   CD2  636   1.973   0.764   2.857 -0.0184  0.1056 -0.8066
  160DMSO    SD  637   2.336   2.497   1.569  0.1483 -0.0589 -0.0209
  160DMSO   CD1  638   2.371   2.321   1.558 -0.0775 -0.1054 -0.0449
  160DMSO    OD  639   2.470   2.568   1.592  0.2387 -0.2267 -0.1346
  160DMSO   CD2  640   2.293   2.523   1.396  0.0303  0.0043  0.0359
  161DMSO    SD  641   1.534   0.340   1.961 -0.0113 -0.1100  0.0740
  161DMSO   CD1  642   1.584   0.402   2.122  0.3046  0.1534 -0.1357
  161DMSO    OD  643   1.662   0.310   1.883 -0.1602  0.0161 -0.2276
  161DMSO   CD2  644   1.469   0.181   2.017  0.3895 -0.1397  0.4232
  162DMSO    SD  645   0.084   1.379   1.681  0.1843  0.3222  0.1929
  162DMSO   CD1  646   0.059   1.507   1.805 -0.3848  0.4792 -0.0865
  162DMSO    OD  647  -0.050   1.359   1.610  0.2641 -0.3946  0.2176
  162DMSO   CD2  648   0.187   1.476   1.569 -0.2152  0.5187  0.0150
  163DMSO    SD  649   0.503   0.229   0.502  0.2211 -0.0919  0.0738
  163DMSO   CD1  650   0.586   0.320   0.371 -0.0147 -0.0837 -0.0935
  163DMSO    OD  651   0.596   0.114   0.542  0.1592 -0.2518 -0.3097
  163DMSO   CD2  652   0.519   0.355   0.630  0.7944 -0.2158  0.1407
  164DMSO    SD  653   2.073   1.842   0.968  0.0091 -0.1528 -0.0811
  164DMSO   CD1  654   2.150   1.842   1.131 -0.0010 -0.2552 -0.0682
  164DMSO    OD  655   1.994   1.972   0.956  0.0541 -0.1191 -0.0083
  164DMSO   CD2  656   2.223   1.862   0.871  0.0300 -0.1636 -0.0482
  165DMSO    SD  657   0.371   0.291   1.601 -0.1209 -0.0614 -0.3079
  165DMSO   CD1  658   0.283   0.244   1.452 -0.2828 -0.1846 -0.1626
  165DMSO    OD  659   0.488   0.193   1.615 -0.0893 -0.0464 -0.3723
  165DMSO   CD2  660   0.440   0.446   1.541 -0.2054 -0.1129 -0.5015
  166DMSO    SD  661   2.528   0.751   2.659  0.0305  0.0714  0.1047
  166DMSO   CD1  662   2.529   0.622   2.784  0.0744 -0.0321  0.0289
  166DMSO    OD  663   2.607   0.869   2.717  0.3619 -0.1044  0.0174
  166DMSO   CD2  664   2.637   0.669   2.541 -0.3729 -0.0367 -0.1938
  167DMSO    SD  665   1.330   1.691   1.811 -0.0186  0.0985 -0.0980
  167DMSO   CD1  666   1.340   1.532   1.727 -0.2640  0.0857 -0.0991
  167DMSO    OD  667   1.182   1.718   1.837  0.0631  0.0265  0.4979
  167DMSO   CD2  668   1.401   1.639   1.968  0.6287  0.1813 -0.3667
  168DMSO    SD  669   2.070   0.478   1.286  0.1924  0.0713  0.3103
  168DMSO   CD1  670   2.153   0.319   1.276  0.4764  0.2411 -0.0113
  168DMSO    OD  671   1.936   0.453   1.355  0.3288 -0.2630  0.4474
  168DMSO   CD2  672   2.178   0.554   1.408  0.2136  0.1040  0.2754
  169DMSO    SD  673   0.950   1.645   2.456  0.0527  0.1341  0.2375
  169DMSO   CD1  674   0.872   1.483   2.465  0.7032 -0.1816  0.4675
  169DMSO    OD  675   0.896   1.713   2.330 -0.3508 -0.2049  0.2234
  169DMSO   CD2  676   0.863   1.719   2.596 -0.1045 -0.0719  0.2368
  170DMSO    SD  677   2.882   0.805   1.363  0.5319  0.0282 -0.0964
  170DMSO   CD1  678   2.838   0.957   1.277  0.3474  0.0054 -0.0204
  170DMSO    OD  679   2.805   0.691   1.296 -0.0610  0.0924  0.4605
  170DMSO   CD2  680   3.052   0.794   1.306  0.1857 -0.3457 -1.0083
  171DMSO    SD  681   0.144   1.634   0.630 -0.0875  0.1085 -0.0367
  171DMSO   CD1  682   0.106   1.639   0.454  0.0448 -0.1284 -0.0767
  171DMSO    OD  683   0.054   1.737   0.698 -0.2371  0.1135 -0.2303
  171DMSO   CD2  684   0.073   1.472   0.664  0.0281  0.0834  0.0818
  172DMSO    SD  685   0.536   2.061   1.086  0.1736  0.3378 -0.3315
  172DMSO   CD1  686   0.395   2.104   0.983  0.3231  0.0610 -0.6267
  172DMSO    OD  687   0.574   1.917   1.051  0.0995  0.1944  0.2292
  172DMSO   CD2  688   0.657   2.167   1.004  0.3371 -0.0563 -0.5932
  173DMSO    SD  689   0.344   1.418   2.531 -0.1114 -0.1112  0.0999
  173DMSO   CD1  690   0.495   1.332   2.485 -0.3377 -0.5384  0.1464
  173DMSO    OD  691   0.240   1.386   2.423 -0.1272  0.2702  0.0036
  173DMSO   CD2  692   0.302   1.317   2.674 -0.5288 -0.0987  0.0052
  174DMSO    SD  693   1.148   2.907   2.031 -0.3748 -0.1609  0.3824
  174DMSO   CD1  694   1.074   3.041   2.125 -0.2344  0.0074  0.2584
  174DMSO    OD  695   1.199   2.968   1.900 -0.4368 -0.3421  0.2689
  174DMSO   CD2  696   1.292   2.881   2.135 -0.3173 -0.0768  0.3252
  175DMSO    SD  697   0.482   1.584   0.272  0.3061 -0.2906  0.0292
  175DMSO   CD1  698   0.596   1.664   0.157  0.1429 -0.2002 -0.0625
  175DMSO    OD  699   0.399   1.696   0.336  0.3547 -0.3223  0.1827
  175DMSO   CD2  700   0.377   1.505   0.149  0.1803 -0.2358  0.1120
  176DMSO    SD  701   1.873   0.021   1.566  0.1211  0.0706 -0.0062
  176DMSO   CD1  702   1.762   0.071   1.699 -0.0062  0.2225 -0.1844
  176DMSO    OD  703   1.799  -0.086   1.485  0.0834  0.1956 -0.1453
  176DMSO   CD2  704   1.863   0.173   1.470  0.5287  0.1056  0.0043
  177DMSO    SD  705   2.495   2.219   0.022  0.1237 -0.2351 -0.2560
  177DMSO   CD1  706   2.375   2.332   0.095  0.3307 -0.2546  0.1485
  177DMSO    OD  707   2.498   2.094   0.112  0.2372 -0.3717 -0.4501
  177DMSO   CD2  708   2.400   2.175  -0.124 -0.2255  0.0281 -0.1148
  178DMSO    SD  709   0.940   0.315   1.508 -0.0001 -0.0625  0.4466
  178DMSO   CD1  710   0.807   0.226   1.426  0.0109  0.1483  0.2159
  178DMSO    OD  711   1.054   0.214   1.528 -0.0317 -0.1266  0.2948
  178DMSO   CD2  712   0.988   0.420   1.370  0.0674  0.2085  0.6735
  179DMSO    SD  713   0.145   2.371   1.645 -0.1286 -0.0496 -0.0876
  179DMSO   CD1  714   0.209   2.239   1.749  0.4565  0.0088 -0.3901
  179DMSO    OD  715   0.060   2.461   1.734  0.0171 -0.2573  0.2607
  179DMSO   CD2  716   0.301   2.456   1.617 -0.3894  0.2525 -0.5703
  180DMSO    SD  717   1.081   1.137   1.489 -0.0060  0.0609 -0.0621
  180DMSO   CD1  718   1.080   1.283   1.595  0.0550 -0.0004  0.0310
  180DMSO    OD  719   1.007   1.026   1.565 -0.2601  0.1123 -0.2140
  180DMSO   CD2  720   0.968   1.198   1.364  0.2706  0.2968 -0.1630
  181DMSO    SD  721   3.090   1.643   2.862 -0.2069  0.1591  0.1407
  181DMSO   CD1  722   3.193   1.628   2.715  0.4904  0.1893  0.6073
  181DMSO    OD  723   2.981   1.746   2.830 -0.2067 -0.0199 -0.4344
  181DMSO   CD2  724   3.013   1.481   2.854  0.0672  0.0367 -0.0560
  182DMSO    SD  725   1.581   0.922   1.958 -0.0632 -0.0360 -0.2910
  182DMSO   CD1  726   1.418   0.969   2.017  0.1081  0.2834 -0.0584
  182DMSO    OD  727   1.680   0.959   2.068  0.2106  0.1032 -0.5872
  182DMSO   CD2  728   1.558   0.743   1.967 -0.2663  0.0226  0.1831
  183DMSO    SD  729   1.231   0.736   1.755 -0.1435  0.1239 -0.0448
  183DMSO   CD1  730   1.148   0.673   1.608 -0.3217 -0.4258  0.2773
  183DMSO    OD  731   1.339   0.833   1.706  0.0999 -0.3825 -0.5672
  183DMSO   CD2  732   1.095   0.837   1.817  0.1342  0.7822 -0.5437
  184DMSO    SD  733   1.312   2.477   2.128 -0.0439 -0.0131  0.1340
  184DMSO   CD1  734   1.267   2.324   2.211 -0.5857  0.4153  0.6125
  184DMSO    OD  735   1.184   2.561   2.118  0.2823  0.4556 -0.0348
  184DMSO   CD2  736   1.410   2.547   2.262  0.3167 -0.0029 -0.1264
  185DMSO    SD  737   2.290   0.487   0.175 -0.1948 -0.2079  0.3248
  185DMSO   CD1  738   2.356   0.542   0.334 -0.2553 -0.1197  0.3188
  185DMSO    OD  739   2.402   0.408   0.107 -0.1771 -0.2359  0.4099
  185DMSO   CD2  740   2.173   0.366   0.239 -0.2103 -0.1779  0.3532
  186DMSO    SD  741   2.479   0.930   1.438  0.3436  0.2544  0.0253
  186DMSO   CD1  742   2.430   1.025   1.583 -0.0479 -0.0211  0.0678
  186DMSO    OD  743   2.449   0.783   1.469  0.7112  0.1351 -0.1615
  186DMSO   CD2  744   2.349   0.987   1.327  0.2949  0.0004 -0.0454
  187DMSO    SD  745   1.022   0.967   0.940 -0.0579 -0.0265 -0.0249
  187DMSO   CD1  746   1.120   0.816   0.932  0.2996  0.2209 -0.1634
  187DMSO    OD  747   1.065   1.040   1.068 -0.2487 -0.0439  0.0459
  187DMSO   CD2  748   1.101   1.053   0.803 -0.2408  0.3041  0.0641
  188DMSO    SD  749   2.809   0.591   3.065 -0.0129  0.0576  0.3548
  188DMSO   CD1  750   2.978   0.611   3.124  0.1388 -0.1643  0.0258
  188DMSO    OD  751   2.817   0.512   2.934 -0.3562  0.1638  0.2511
  188DMSO   CD2  752   2.753   0.476   3.191  0.1452  0.0085  0.3541
  189DMSO    SD  753   2.578   0.122   1.231  0.1433 -0.1331  0.3248
  189DMSO   CD1  754   2.562  -0.037   1.148  0.1924 -0.0361  0.1450
  189DMSO    OD  755   2.435   0.172   1.256  0.1285 -0.1468  0.2666
  189DMSO   CD2  756   2.639   0.059   1.388  0.0131 -0.2867  0.2849
  190DMSO    SD  757   0.593   2.581   1.900  0.0319 -0.1357  0.3700
  190DMSO   CD1  758   0.611   2.699   2.035 -0.4515 -0.0579  0.3574
  190DMSO    OD  759   0.470   2.495   1.933  0.1836 -0.4194  0.2049
  190DMSO   CD2  760   0.542   2.697   1.773 -0.0210 -0.2983  0.2548
  191DMSO    SD  761   0.229   2.949   1.660 -0.1427 -0.4621  0.0702
  191DMSO   CD1  762   0.306   2.999   1.815  0.1247  0.0586 -0.2124
  191DMSO    OD  763   0.339   2.950   1.554 -0.4278 -0.3595 -0.2135
  191DMSO   CD2  764   0.200   2.776   1.704  0.4750 -0.4644  0.4879
  192DMSO    SD  765   2.281   2.127   2.578 -0.0417 -0.0227 -0.0041
  192DMSO   CD1  766   2.126   2.123   2.669  0.0036  0.0434  0.0680
  192DMSO    OD  767   2.371   2.019   2.639  0.0434  0.1070  0.1318
  192DMSO   CD2  768   2.219   2.062   2.423 -0.0846 -0.3190  0.1259
  193DMSO    SD  769   1.949   0.816   1.166  0.1061 -0.5121  0.1094
  193DMSO   CD1  770   1.938   0.966   1.067 -0.1405 -0.7048 -0.1856
  193DMSO    OD  771   2.052   0.843   1.275  0.0298 -0.1315  0.0523
  193DMSO   CD2  772   1.787   0.828   1.244  0.0781 -0.6188  0.0541
  194DMSO    SD  773   0.516   1.732   2.274  0.1948 -0.0716 -0.1919
  194DMSO   CD1  774   0.357   1.693   2.200  0.1545 -0.3281  0.0081
  194DMSO    OD  775   0.495   1.731   2.426  0.2792  0.4488 -0.1831
  194DMSO   CD2  776   0.599   1.578   2.233  0.1640 -0.2050  0.2842
  195DMSO    SD  777   1.751   1.200   0.837  0.3923 -0.0255 -0.0058
  195DMSO   CD1  778   1.926   1.201   0.793  0.3178  0.4729 -0.3586
  195DMSO    OD  779   1.714   1.343   0.877  0.1290 -0.1693  0.2331
  195DMSO   CD2  780   1.686   1.174   0.671  0.1242  0.0250  0.0803
  196DMSO    SD  781   3.029   1.832   2.223  0.3562  0.0154  0.2961
  196DMSO   CD1  782   3.075   1.661   2.254  0.1042 -0.0954  0.1128
  196DMSO    OD  783   3.156   1.903   2.174  0.3750 -0.1764  0.0844
  196DMSO   CD2  784   2.927   1.803   2.078 -0.0069  0.2961  0.4952
  197DMSO    SD  785   1.033   2.659   0.353  0.0509 -0.3629  0.0616
  197DMSO   CD1  786   0.937   2.600   0.495 -0.1422 -0.4096 -0.0705
  197DMSO    OD  787   0.940   2.652   0.232  0.0834  0.0601  0.0045
  197DMSO   CD2  788   1.042   2.832   0.402  0.4345 -0.4680  0.3706
  198DMSO    SD  789   1.380   0.247   1.542 -0.1482  0.0345  0.3510
  198DMSO   CD1  790   1.309   0.342   1.677  0.0316  0.0733  0.4207
  198DMSO    OD  791   1.532   0.248   1.562 -0.1260  0.1219  0.0905
  198DMSO   CD2  792   1.322   0.085   1.595  0.0342  0.0137  0.5409
  199DMSO    SD  793   3.036   3.087   1.214 -0.1879  0.0980  0.1839
  199DMSO   CD1  794   3.080   3.049   1.384  0.5856  0.0746 -0.0273
  199DMSO    OD  795   3.167   3.111   1.139 -0.5445  0.3951 -0.3464
  199DMSO   CD2  796   2.978   2.923   1.168 -0.0930  0.0432  0.3266
  200DMSO    SD  797   2.870   2.185   1.711 -0.0250 -0.3817 -0.0615
  200DMSO   CD1  798   2.704   2.116   1.697 -0.0324 -0.3037 -0.2213
  200DMSO    OD  799   2.960   2.101   1.620 -0.1013  0.0017 -0.5112
  200DMSO   CD2  800   2.838   2.339   1.623 -0.0708  0.0131  0.6282
  201DMSO    SD  801   0.466   0.754   1.927 -0.3315  0.1508 -0.3008
  201DMSO   CD1  802   0.529   0.710   2.089  0.2862  0.3933 -0.4845
  201DMSO    OD  803   0.430   0.623   1.856 -0.3583  0.0332 -0.0752
  201DMSO   CD2  804   0.311   0.828   1.982 -0.2670 -0.0781  0.1612
  202DMSO    SD  805   1.127   1.861   0.382 -0.0577 -0.0699 -0.0950
  202DMSO   CD1  806   1.103   1.968   0.525 -0.5007  0.1110 -0.3022
  202DMSO    OD  807   1.008   1.886   0.289  0.1067 -0.3639 -0.3826
  202DMSO   CD2  808   1.267   1.948   0.311 -0.0235  0.0205  0.0687
  203DMSO    SD  809   1.982   0.644   0.671 -0.0921 -0.0126 -0.2676
  203DMSO   CD1  810   1.925   0.810   0.629 -0.0743 -0.0343 -0.3957
  203DMSO    OD  811   2.102   0.615   0.581 -0.2258 -0.1859 -0.3954
  203DMSO   CD2  812   2.047   0.683   0.834  0.1452  0.1381 -0.3950
  204DMSO    SD  813   0.591   2.506   0.330 -0.0772  0.1764 -0.0094
  204DMSO   CD1  814   0.585   2.567   0.161 -0.1707 -0.0215 -0.0788
  204DMSO    OD  815   0.498   2.594   0.413 -0.1236  0.2031 -0.0691
  204DMSO   CD2  816   0.505   2.350   0.303  0.0292  0.0708  0.2011
  205DMSO    SD  817   2.800   2.944   2.372 -0.4885 -0.1307  0.0396
  205DMSO   CD1  818   2.738   2.891   2.211 -0.6011  0.1473  0.0036
  205DMSO    OD  819   2.905   3.052   2.344 -0.4406 -0.1600  0.1545
  205DMSO   CD2  820   2.652   3.029   2.427 -0.4101 -0.1085  0.2532
  206DMSO    SD  821   2.692   0.411   0.502  0.2301 -0.0042  0.2749
  206DMSO   CD1  822   2.864   0.426   0.453  0.2010 -0.1400  0.1264
  206DMSO    OD  823   2.616   0.359   0.380  0.0353  0.2945  0.2608
  206DMSO   CD2  824   2.711   0.272   0.615  0.1698 -0.2169  0.0243
  207DMSO    SD  825   2.389   2.062   0.417 -0.1960 -0.2263  0.1325
  207DMSO   CD1  826   2.373   2.231   0.475  0.6378  0.1438 -0.6618
  207DMSO    OD  827   2.363   1.971   0.537 -0.3591  0.4708  0.6402
  207DMSO   CD2  828   2.240   2.058   0.316 -0.3884 -0.0827  0.4357
  208DMSO    SD  829   2.014   1.697   0.523 -0.0536  0.3021 -0.0852
  208DMSO   CD1  830   2.189   1.654   0.526 -0.2837 -0.6194 -0.1416
  208DMSO    OD  831   1.967   1.685   0.378 -0.2528  0.2494 -0.0304
  208DMSO   CD2  832   1.953   1.551   0.610 -0.7507  0.8076  0.2841
  209DMSO    SD  833   0.981   1.760   0.886  0.0947 -0.1948 -0.0811
  209DMSO   CD1  834   0.841   1.651   0.909 -0.0771  0.0538 -0.0699
  209DMSO    OD  835   0.975   1.810   0.741  0.2134 -0.2227 -0.0923
  209DMSO   CD2  836   0.923   1.895   0.990  0.2840 -0.0540 -0.1339
  210DMSO    SD  837   1.416   2.277   1.080 -0.0706  0.0296  0.0075
  210DMSO   CD1  838   1.510   2.233   0.933 -0.5925  0.4327 -0.4476
  210DMSO    OD  839   1.498   2.229   1.200  0.2352 -0.5276 -0.4104
  210DMSO   CD2  840   1.438   2.455   1.070  0.1656  0.0386  0.6069
  211DMSO    SD  841   0.475   1.760   2.903 -0.2476 -0.1339  0.1242
  211DMSO   CD1  842   0.432   1.921   2.836 -0.0702 -0.0095  0.2995
  211DMSO    OD  843   0.344   1.692   2.943 -0.3274 -0.1746 -0.2604
  211DMSO   CD2  844   0.528   1.684   2.748  0.0457  0.0946  0.0970
  212DMSO    SD  845   1.294   1.493   2.701 -0.3605 -0.2102  0.0534
  212DMSO   CD1  846   1.346   1.652   2.635 -0.5252 -0.0641  0.2401
  212DMSO    OD  847   1.152   1.468   2.649 -0.5124 -0.1102  0.3865
  212DMSO   CD2  848   1.403   1.390   2.602 -0.6181 -0.0083 -0.4685
  213DMSO    SD  849   1.127   2.042   1.820 -0.1917  0.1214  0.1578
  213DMSO   CD1  850   0.991   1.936   1.768 -0.2089  0.0837  0.2579
  213DMSO    OD  851   1.118   2.170   1.738 -0.2241  0.0884  0.1042
  213DMSO   CD2  852   1.065   2.080   1.984 -0.1177  0.2017  0.1502
  214DMSO    SD  853   1.762   2.610   0.945 -0.2117  0.2320 -0.2152
  214DMSO   CD1  854   1.675   2.756   1.003 -0.0706  0.2687 -0.0980
  214DMSO    OD  855   1.679   2.551   0.831 -0.0883  0.6027 -0.4814
  214DMSO   CD2  856   1.902   2.694   0.869  0.0936  0.1233  0.2186
  215DMSO    SD  857   1.465   0.784   2.803 -0.1322 -0.0696 -0.1080
  215DMSO   CD1  858   1.521   0.951   2.842 -0.0503 -0.1059 -0.0944
  215DMSO    OD  859   1.590   0.703   2.770 -0.1756 -0.1012 -0.1945
  215DMSO   CD2  860   1.416   0.738   2.970 -0.0578 -0.1174 -0.0997
  216DMSO    SD  861   2.452   1.296   0.137 -0.0927 -0.1550  0.1390
  216DMSO   CD1  862   2.521   1.302  -0.029 -0.1514 -0.0886  0.1053
  216DMSO    OD  863   2.570   1.285   0.234 -0.0515 -0.2333  0.0865
  216DMSO   CD2  864   2.394   1.466   0.145 -0.0257 -0.1551  0.2346
  217DMSO    SD  865   1.290   2.693   1.306 -0.0151  0.0558 -0.1634
  217DMSO   CD1  866   1.248   2.816   1.430 -0.2913  0.1349 -0.3313
  217DMSO    OD  867   1.408   2.749   1.226 -0.1225  0.1888 -0.2271
  217DMSO   CD2  868   1.359   2.570   1.418  0.2321  0.3419  0.0258
  218DMSO    SD  869   1.532   2.492   0.143 -0.2924  0.1907 -0.1213
  218DMSO   CD1  870   1.681   2.583   0.098 -0.0921 -0.2720 -0.3460
  218DMSO    OD  871   1.428   2.597   0.184  0.0253  0.5014 -0.1661
  218DMSO   CD2  872   1.488   2.438  -0.022 -0.5647  0.1242 -0.0125
  219DMSO    SD  873   0.712   2.185   1.949  0.1431 -0.0248  0.0471
  219DMSO   CD1  874   0.563   2.219   2.045  0.0733 -0.3436  0.0706
  219DMSO    OD  875   0.727   2.033   1.944  0.4687 -0.0067  0.0628
  219DMSO   CD2  876   0.649   2.237   1.789  0.0147 -0.1769  0.0341
  220DMSO    SD  877   1.796   2.194   3.095 -0.0961 -0.2761 -0.0904
  220DMSO   CD1  878   1.963   2.225   3.154  0.0334 -0.2668 -0.4582
  220DMSO    OD  879   1.759   2.310   3.004 -0.2093 -0.3779 -0.1736
  220DMSO   CD2  880   1.835   2.054   2.989 -0.3576 -0.4389  0.0339
  221DMSO    SD  881   0.818   2.026   2.962 -0.1171  0.0570 -0.0412
  221DMSO   CD1  882   0.919   1.907   3.053 -0.0095  0.3014  0.1497
  221DMSO    OD  883   0.747   1.947   2.852  0.0945 -0.1477 -0.0129
  221DMSO   CD2  884   0.696   2.057   3.091 -0.2640 -0.0267 -0.1571
  222DMSO    SD  885   1.956   2.186   0.654 -0.2266 -0.0577 -0.1742
  222DMSO   CD1  886   1.923   2.356   0.705 -0.4898 -0.0527 -0.2924
  222DMSO    OD  887   1.989   2.190   0.505 -0.4767 -0.1345 -0.2363
  222DMSO   CD2  888   2.112   2.166   0.742 -0.0329  0.3440 -0.4052
  223DMSO    SD  889   2.294   2.567   0.833 -0.0503  0.1440 -0.1154
  223DMSO   CD1  890   2.450   2.485   0.872 -0.0751 -0.0248 -0.3653
  223DMSO    OD  891   2.183   2.477   0.889 -0.0586  0.2444  0.0183
  223DMSO   CD2  892   2.311   2.705   0.947  0.2394  0.0892 -0.0972
  224DMSO    SD  893   0.056   1.711   1.199 -0.0545 -0.3384 -0.0172
  224DMSO   CD1  894   0.001   1.541   1.173 -0.1904 -0.3256  0.0913
  224DMSO    OD  895   0.157   1.707   1.314  0.2043 -0.3957 -0.2559
  224DMSO   CD2  896   0.150   1.728   1.047 -0.3974 -0.3728 -0.2359
  225DMSO    SD  897   1.975   3.057   1.081  0.1848 -0.0351  0.0877
  225DMSO   CD1  898   2.143   3.018   1.028  0.2604  0.0682  0.2505
  225DMSO    OD  899   1.882   3.003   0.972  0.3188  0.0966 -0.1108
  225DMSO   CD2  900   1.967   2.941   1.218  0.0372 -0.2458 -0.0848
  226DMSO    SD  901   0.614   1.296   2.914  0.1459 -0.0604 -0.0923
  226DMSO   CD1  902   0.754   1.382   2.990  0.0547 -0.0188  0.0615
  226DMSO    OD  903   0.638   1.299   2.763  0.3546 -0.1854 -0.0494
  226DMSO   CD2  904   0.655   1.131   2.971  0.0551 -0.0356  0.1020
  227DMSO    SD  905   0.046   2.901   2.175 -0.1191  0.3319  0.1311
  227DMSO   CD1  906   0.118   3.064   2.194  0.0334  0.2832 -0.0250
  227DMSO    OD  907   0.004   2.888   2.028 -0.0872  0.2053  0.1419
  227DMSO   CD2  908   0.197   2.805   2.194 -0.2283  0.1879  0.2804
  228DMSO    SD  909   0.987   1.080   2.451  0.1191 -0.1617 -0.1481
  228DMSO   CD1  910   0.832   1.117   2.534  0.0820  0.0417 -0.2713
  228DMSO    OD  911   0.991   1.166   2.325  0.3147 -0.1854 -0.1435
  228DMSO   CD2  912   1.097   1.157   2.570  0.1247 -0.2750 -0.0710
  229DMSO    SD  913   0.393   0.999   1.546  0.2488 -0.1297  0.0283
  229DMSO   CD1  914   0.295   0.856   1.593 -0.0957  0.1179  0.0833
  229DMSO    OD  915   0.473   0.959   1.422  0.1505 -0.3786  0.0455
  229DMSO   CD2  916   0.257   1.103   1.490  0.4935  0.1731 -0.0340
  230DMSO    SD  917   1.043   0.627   2.798  0.0719 -0.2803  0.0014
  230DMSO   CD1  918   1.118   0.766   2.712  0.0423 -0.3336 -0.1013
  230DMSO    OD  919   1.091   0.635   2.944 -0.0180 -0.1164  0.0050
  230DMSO   CD2  920   0.873   0.687   2.796  0.0366 -0.3851 -0.1574
  231DMSO    SD  921   1.738   1.648   2.994 -0.1960 -0.1670  0.1595
  231DMSO   CD1  922   1.597   1.539   2.969 -0.2501 -0.1941  0.5109
  231DMSO    OD  923   1.732   1.754   2.884 -0.3567 -0.3133  0.0150
  231DMSO   CD2  924   1.679   1.727   3.145  0.0299  0.0411  0.1352
  232DMSO    SD  925   0.050   0.210   0.217  0.0992 -0.0263 -0.0989
  232DMSO   CD1  926   0.225   0.183   0.188  0.1757  0.3968  0.0387
  232DMSO    OD  927   0.033   0.359   0.249 -0.2896 -0.0733 -0.0372
  232DMSO   CD2  928  -0.006   0.186   0.048  0.2764 -0.0966 -0.1379
  233DMSO    SD  929   1.822   0.293   2.519 -0.2301 -0.0040 -0.2930
  233DMSO   CD1  930   1.992   0.335   2.482 -0.1885 -0.1211 -0.1943
  233DMSO    OD  931   1.813   0.276   2.671 -0.2447 -0.4496 -0.3493
  233DMSO   CD2  932   1.748   0.452   2.480 -0.0247  0.2300  0.1984
  234DMSO    SD  933   0.361   0.491   2.467  0.2321  0.3428  0.1533
  234DMSO   CD1  934   0.516   0.459   2.381  0.3464  0.6228  0.2632
  234DMSO    OD  935   0.281   0.588   2.380 -0.0624 -0.1167 -0.0885
  234DMSO   CD2  936   0.288   0.328   2.444  0.7421  0.0652  0.5059
  235DMSO    SD  937   0.806   2.220   0.503  0.3607 -0.0284  0.2530
  235DMSO   CD1  938   0.876   2.166   0.660  0.4705 -0.0954  0.1711
  235DMSO    OD  939   0.918   2.290   0.426  0.3607 -0.2062  0.1052
  235DMSO   CD2  940   0.788   2.057   0.429  0.0434 -0.0260  0.3003
  236DMSO    SD  941   0.660   0.847   0.659  0.0029  0.0520 -0.1554
  236DMSO   CD1  942   0.517   0.811   0.762  0.2356  0.1506  0.2022
  236DMSO    OD  943   0.775   0.880   0.753  0.2033  0.1836 -0.4541
  236DMSO   CD2  944   0.688   0.680   0.599 -0.1057 -0.0075 -0.0149
  237DMSO    SD  945   1.840   1.908   2.496 -0.3227  0.0581  0.2081
  237DMSO   CD1  946   1.685   1.854   2.570 -0.2288 -0.1036  0.3109
  237DMSO    OD  947   1.855   2.056   2.529 -0.3593  0.0033  0.3562
  237DMSO   CD2  948   1.951   1.819   2.606 -0.1760 -0.0311 -0.0079
  238DMSO    SD  949   0.342   2.912   3.052 -0.0169  0.0088  0.1948
  238DMSO   CD1  950   0.295   2.815   2.908  0.1229  0.1266  0.0777
  238DMSO    OD  951   0.235   3.020   3.069  0.0360  0.0818  0.0942
  238DMSO   CD2  952   0.308   2.786   3.176 -0.2895 -0.0317  0.0663
  239DMSO    SD  953   0.754   0.323   2.678 -0.2948  0.1408 -0.3657
  239DMSO   CD1  954   0.829   0.319   2.515 -0.6118  0.1057 -0.5002
  239DMSO    OD  955   0.604   0.346   2.657 -0.4063 -0.2927 -0.0877
  239DMSO   CD2  956   0.775   0.149   2.718  0.2445  0.2382 -0.1488
  240DMSO    SD  957   0.718   0.726   1.519  0.1003  0.0183  0.0731
  240DMSO   CD1  958   0.818   0.835   1.416  0.1509 -0.1417 -0.0631
  240DMSO    OD  959   0.809   0.611   1.562 -0.0154 -0.0788  0.0294
  240DMSO   CD2  960   0.703   0.836   1.661  0.3672  0.0775  0.0435
  241DMSO    SD  961   2.939   2.111   3.011 -0.2050 -0.0172 -0.1404
  241DMSO   CD1  962   3.077   2.101   2.895  0.1180 -0.0923  0.2460
  241DMSO    OD  963   3.000   2.112   3.152 -0.6232 -0.4733  0.0346
  241DMSO   CD2  964   2.891   2.281   2.974  0.3090  0.1702  0.0744
  242DMSO    SD  965   1.157   2.301   0.061  0.0799 -0.0463 -0.1691
  242DMSO   CD1  966   1.051   2.187   0.151 -0.1061 -0.0503 -0.4038
  242DMSO    OD  967   1.170   2.246  -0.082  0.2429  0.0482 -0.2061
  242DMSO   CD2  968   1.041   2.439   0.052  0.1555  0.0055 -0.2513
  243DMSO    SD  969   0.343   1.223   0.555  0.1539  0.3322 -0.0990
  243DMSO   CD1  970   0.485   1.329   0.585 -0.0541  0.6489 -0.2384
  243DMSO    OD  971   0.257   1.293   0.449 -0.0486  0.0981 -0.1086
  243DMSO   CD2  972   0.430   1.090   0.472  0.3889  0.4622 -0.0684
  244DMSO    SD  973   2.302   0.300   0.877  0.0434  0.0781  0.0786
  244DMSO   CD1  974   2.289   0.285   0.698 -0.6270  0.4868  0.1042
  244DMSO    OD  975   2.180   0.229   0.936 -0.0343  0.4626  0.3707
  244DMSO   CD2  976   2.442   0.189   0.899 -0.3209 -0.5237 -0.6228
  245DMSO    SD  977   1.290   0.282   2.722 -0.1496 -0.2007 -0.1030
  245DMSO   CD1  978   1.266   0.347   2.888 -0.3562 -0.5817 -0.0079
  245DMSO    OD  979   1.155   0.291   2.651 -0.0957 -0.1749 -0.2062
  245DMSO   CD2  980   1.391   0.417   2.659 -0.2136  0.0213  0.2530
  246DMSO    SD  981   1.829   1.792   1.424  0.1798  0.0054  0.0657
  246DMSO   CD1  982   1.826   1.929   1.307 -0.1948 -0.1746 -0.1459
  246DMSO    OD  983   1.920   1.684   1.364  0.2364  0.0391  0.0607
  246DMSO   CD2  984   1.925   1.874   1.553  0.2574  0.3450 -0.2171
  247DMSO    SD  985   0.469   3.105   1.064  0.0684 -0.0920 -0.1175
  247DMSO   CD1  986   0.390   3.048   1.215  0.0564 -0.0107 -0.0885
  247DMSO    OD  987   0.617   3.069   1.075  0.1200  0.1643  0.0205
  247DMSO   CD2  988   0.395   2.985   0.952  0.3357 -0.3581 -0.0051
  248DMSO    SD  989   1.107   3.084   1.076 -0.0406 -0.0641 -0.0464
  248DMSO   CD1  990   1.107   3.118   1.253 -0.1881  0.0365 -0.0709
  248DMSO    OD  991   1.093   2.932   1.060  0.1756 -0.0994  0.0304
  248DMSO   CD2  992   0.946   3.155   1.038 -0.1189 -0.3121 -0.1824
  249DMSO    SD  993   2.611   1.598   0.592  0.4170 -0.0316  0.0238
  249DMSO   CD1  994   2.574   1.433   0.531  0.1757  0.2630 -0.6379
  249DMSO    OD  995   2.589   1.595   0.743  0.3524 -0.5951  0.0011
  249DMSO   CD2  996   2.789   1.593   0.566  0.4139 -0.2159  0.0693
  250DMSO    SD  997   2.043   2.204   1.855  0.0494  0.0179  0.3403
  250DMSO   CD1  998   1.866   2.231   1.872 -0.0440 -0.1402 -0.5106
  250DMSO    OD  999   2.069   2.060   1.899 -0.0069  0.0753  0.5363
  250DMSO   CD2 1000   2.050   2.206   1.676  0.9000 -0.0668  0.3684
   3.07990   3.07990   3.07990
